/*--------------------------------*- C++ -*----------------------------------*\
  =========                 |
  \\      /  F ield         | OpenFOAM: The Open Source CFD Toolbox
   \\    /   O peration     | Website:  https://openfoam.org
    \\  /    A nd           | Version:  9
     \\/     M anipulation  |
\*---------------------------------------------------------------------------*/
FoamFile
{
    format      ascii;
    class       volScalarField;
    location    "0.019";
    object      rho;
}
// * * * * * * * * * * * * * * * * * * * * * * * * * * * * * * * * * * * * * //

dimensions      [1 -3 0 0 0 0 0];

internalField   nonuniform List<scalar> 
10000
(
0.77853
0.778379
0.778288
0.778189
0.778091
0.777993
0.777895
0.777798
0.7777
0.777602
0.777505
0.777407
0.777309
0.777212
0.777114
0.777017
0.776919
0.776821
0.776724
0.776626
0.776528
0.776431
0.776333
0.776235
0.776138
0.776041
0.775943
0.775846
0.775748
0.775651
0.775553
0.775456
0.775358
0.775261
0.775164
0.775066
0.774968
0.77487
0.774773
0.774675
0.774577
0.77448
0.774382
0.774285
0.774189
0.774092
0.773994
0.773897
0.7738
0.773702
0.773605
0.773507
0.77341
0.773313
0.773216
0.773119
0.773022
0.772925
0.772828
0.77273
0.772633
0.772536
0.772438
0.772341
0.772244
0.772147
0.772051
0.771954
0.771857
0.77176
0.771663
0.771566
0.771468
0.771371
0.771275
0.771178
0.771081
0.770984
0.770887
0.770791
0.770694
0.770597
0.7705
0.770403
0.770307
0.77021
0.770113
0.770017
0.76992
0.769823
0.769727
0.76963
0.769533
0.769437
0.76934
0.769243
0.769147
0.76905
0.768953
0.768856
0.76876
0.768663
0.768566
0.76847
0.768373
0.768276
0.768179
0.768082
0.767986
0.767889
0.767793
0.767696
0.767599
0.767502
0.767405
0.767309
0.767212
0.767116
0.767019
0.766923
0.766826
0.766729
0.766633
0.766536
0.76644
0.766343
0.766247
0.76615
0.766053
0.765957
0.76586
0.765765
0.765669
0.765573
0.765476
0.765379
0.765282
0.765185
0.76509
0.764994
0.764899
0.764802
0.764704
0.764605
0.764508
0.764412
0.764319
0.764227
0.764134
0.764038
0.763939
0.76384
0.763741
0.763644
0.76355
0.763456
0.763362
0.763266
0.763169
0.763072
0.762976
0.76288
0.762785
0.762689
0.762593
0.762496
0.7624
0.762303
0.762207
0.762111
0.762015
0.761919
0.761823
0.761728
0.761632
0.761538
0.761443
0.761347
0.76125
0.761151
0.761052
0.760953
0.760857
0.760767
0.76068
0.760592
0.760495
0.76039
0.760281
0.760173
0.760073
0.759988
0.759915
0.759841
0.759749
0.759638
0.75952
0.759405
0.759301
0.759213
0.75914
0.759065
0.758974
0.758867
0.758755
0.758647
0.75855
0.758465
0.758386
0.758299
0.758199
0.758092
0.757984
0.757881
0.757786
0.7577
0.757616
0.757528
0.757433
0.757333
0.75723
0.757128
0.757029
0.756933
0.75684
0.75675
0.75666
0.756567
0.756471
0.756372
0.75627
0.75617
0.756074
0.755983
0.755895
0.755806
0.755711
0.75561
0.755507
0.755406
0.755311
0.755222
0.755134
0.755043
0.754946
0.754846
0.754747
0.754653
0.754562
0.75447
0.754374
0.754274
0.754174
0.754079
0.753987
0.753894
0.753794
0.75369
0.75359
0.753504
0.753445
0.753393
0.753293
0.753156
0.753016
0.752879
0.75276
0.752678
0.752693
0.752712
0.752602
0.752439
0.752255
0.752101
0.751971
0.751874
0.751887
0.751939
0.751857
0.751701
0.751509
0.751342
0.751212
0.751117
0.751135
0.751192
0.751113
0.750957
0.750756
0.750576
0.750438
0.750325
0.750313
0.750392
0.750386
0.750252
0.750072
0.74986
0.749699
0.749571
0.749483
0.749511
0.749577
0.749504
0.749351
0.749154
0.748979
0.748847
0.748748
0.74876
0.748818
0.748744
0.74859
0.748394
0.748218
0.748083
0.747973
0.747971
0.748062
0.748066
0.747934
0.747749
0.747516
0.747348
0.747226
0.747174
0.747237
0.747266
0.747149
0.746973
0.746753
0.746599
0.746484
0.746476
0.746563
0.746543
0.7464
0.74619
0.74591
0.745723
0.745599
0.745548
0.745651
0.745829
0.745833
0.745698
0.745504
0.745205
0.74496
0.744817
0.744706
0.744711
0.744817
0.744833
0.744705
0.744518
0.744261
0.744074
0.74395
0.743898
0.743985
0.744103
0.744045
0.743891
0.743659
0.743371
0.743191
0.743069
0.743024
0.743134
0.743317
0.743318
0.743183
0.742988
0.742676
0.742405
0.742251
0.742134
0.742113
0.742213
0.742282
0.742184
0.742016
0.741774
0.741557
0.741425
0.741334
0.741383
0.741526
0.741538
0.741408
0.74122
0.740939
0.740719
0.740587
0.740489
0.74053
0.740694
0.74077
0.740675
0.74051
0.74027
0.739971
0.739772
0.739626
0.739488
0.739367
0.739274
0.739305
0.739435
0.739485
0.739381
0.739221
0.739034
0.738893
0.738782
0.738773
0.73874
0.738601
0.738418
0.738247
0.738126
0.738081
0.738151
0.738176
0.738056
0.737879
0.737641
0.73746
0.737335
0.737261
0.737305
0.73736
0.737271
0.737118
0.736954
0.73683
0.73676
0.736792
0.736727
0.736575
0.736365
0.736178
0.736054
0.735991
0.736056
0.736131
0.736046
0.735886
0.735658
0.735445
0.735308
0.735205
0.735212
0.735276
0.735203
0.735047
0.73482
0.734599
0.734464
0.734366
0.734406
0.734566
0.734629
0.734524
0.734354
0.734092
0.73383
0.733676
0.733561
0.733539
0.733652
0.733757
0.733685
0.733531
0.733305
0.73305
0.732889
0.732771
0.732731
0.732809
0.73287
0.732773
0.732612
0.732396
0.732218
0.732093
0.732015
0.732052
0.732057
0.731928
0.731744
0.731491
0.73131
0.731189
0.731134
0.731232
0.731412
0.73142
0.73129
0.731104
0.73081
0.730554
0.730406
0.730293
0.730277
0.730397
0.730506
0.730436
0.730283
0.730059
0.729799
0.729634
0.729515
0.729465
0.729539
0.729618
0.729538
0.729384
0.729171
0.728977
0.728846
0.728745
0.728752
0.72876
0.728638
0.728461
0.728235
0.72808
0.727967
0.72796
0.728102
0.72823
0.728167
0.728016
0.72779
0.727479
0.727275
0.727148
0.727057
0.727102
0.727254
0.727291
0.727176
0.727003
0.726743
0.726509
0.726368
0.726258
0.726253
0.726358
0.726394
0.726282
0.726114
0.725885
0.725701
0.725577
0.725497
0.725539
0.725625
0.725569
0.725428
0.72525
0.725085
0.724948
0.724819
0.724688
0.724552
0.724415
0.724293
0.724203
0.724246
0.724422
0.724507
0.724415
0.724252
0.723998
0.723665
0.723464
0.723339
0.723249
0.723297
0.723473
0.723548
0.723453
0.723291
0.723043
0.722759
0.722588
0.722469
0.722403
0.722466
0.722559
0.722493
0.722343
0.722122
0.721869
0.721711
0.721598
0.721567
0.721695
0.721894
0.721903
0.721777
0.721598
0.721307
0.720954
0.72075
0.72061
0.720491
0.720403
0.720445
0.720648
0.720806
0.72076
0.720618
0.720412
0.720089
0.719831
0.719684
0.719572
0.719543
0.719675
0.719891
0.719916
0.719799
0.719629
0.719366
0.719038
0.718837
0.718695
0.718563
0.718435
0.718327
0.718287
0.718393
0.718599
0.718638
0.718528
0.71836
0.718098
0.717796
0.717621
0.717501
0.717423
0.717477
0.717611
0.717597
0.717466
0.717278
0.716995
0.716777
0.716645
0.716544
0.71656
0.716731
0.716874
0.716824
0.716683
0.716489
0.716201
0.715963
0.715812
0.71568
0.715563
0.715474
0.715507
0.71566
0.715736
0.715645
0.715488
0.715252
0.714967
0.714794
0.714675
0.714602
0.71467
0.714837
0.714861
0.714745
0.714578
0.714326
0.714086
0.713936
0.713817
0.713731
0.713749
0.713742
0.713625
0.713487
0.713372
0.713335
0.713413
0.713431
0.713311
0.713136
0.712871
0.71266
0.712533
0.712438
0.712472
0.712621
0.712668
0.712562
0.712399
0.71215
0.711894
0.71174
0.711622
0.711549
0.711586
0.711586
0.711464
0.711293
0.711086
0.710947
0.710843
0.710855
0.711016
0.711129
0.711056
0.710905
0.710674
0.710338
0.710119
0.709989
0.709888
0.709903
0.71007
0.710208
0.710152
0.710009
0.709803
0.709503
0.709293
0.709163
0.709059
0.709063
0.709184
0.709241
0.709143
0.708988
0.708769
0.708575
0.708446
0.708343
0.708338
0.708404
0.708349
0.70821
0.708028
0.707865
0.707749
0.707689
0.707748
0.707786
0.707683
0.707521
0.707277
0.707042
0.706896
0.706782
0.706719
0.706762
0.706757
0.706637
0.706483
0.706347
0.706242
0.706245
0.706357
0.70637
0.706249
0.706074
0.705801
0.705572
0.705439
0.705336
0.705343
0.705486
0.705578
0.705497
0.705346
0.705117
0.70483
0.704655
0.704537
0.704462
0.704522
0.704678
0.70469
0.70457
0.7044
0.70414
0.703917
0.703783
0.703676
0.703667
0.703773
0.70382
0.703718
0.70356
0.703331
0.703128
0.703001
0.702904
0.702919
0.703034
0.703035
0.702911
0.702737
0.702462
0.702214
0.702066
0.701952
0.701884
0.701936
0.702021
0.701962
0.701829
0.701683
0.701566
0.701498
0.701543
0.701531
0.701405
0.701223
0.700968
0.700789
0.700674
0.700607
0.700684
0.700853
0.700862
0.70074
0.700568
0.700286
0.700011
0.699858
0.699746
0.69969
0.699776
0.699947
0.699952
0.699832
0.699665
0.699407
0.699175
0.699032
0.698921
0.698868
0.698933
0.699008
0.698933
0.698794
0.698619
0.698468
0.698354
0.698294
0.698297
0.698198
0.698046
0.69784
0.697674
0.697557
0.697483
0.697525
0.697598
0.697531
0.697396
0.697244
0.697124
0.697039
0.697055
0.696999
0.696862
0.696665
0.696463
0.696337
0.696244
0.696277
0.69644
0.696505
0.696409
0.696252
0.696002
0.695675
0.695485
0.695365
0.695274
0.695309
0.695493
0.695607
0.695537
0.695393
0.695182
0.694857
0.694625
0.694488
0.694379
0.694337
0.694412
0.694467
0.694374
0.694224
0.694013
0.693833
0.693716
0.693642
0.693712
0.693939
0.694041
0.69396
0.693811
0.693577
0.693175
0.692863
0.692707
0.692595
0.69253
0.69261
0.692866
0.693006
0.692944
0.692804
0.692598
0.69225
0.691954
0.6918
0.691688
0.69162
0.691695
0.691916
0.692005
0.69192
0.691772
0.691547
0.691215
0.690998
0.690869
0.690765
0.690754
0.690896
0.691061
0.691029
0.690899
0.690713
0.690393
0.69002
0.689826
0.689696
0.689589
0.689539
0.68964
0.689969
0.690197
0.690175
0.690049
0.689868
0.68955
0.689036
0.688721
0.688566
0.688453
0.68838
0.688442
0.688738
0.689062
0.6891
0.688995
0.688837
0.688583
0.688153
0.68784
0.687684
0.687571
0.68749
0.687538
0.687761
0.687923
0.687876
0.687743
0.687553
0.68724
0.686964
0.686815
0.686705
0.686643
0.686723
0.686914
0.686946
0.686838
0.686678
0.686417
0.686058
0.685849
0.68572
0.685617
0.685591
0.685718
0.685923
0.685936
0.685824
0.685671
0.685459
0.685279
0.685154
0.685051
0.685029
0.685016
0.684899
0.684737
0.684526
0.684378
0.684271
0.684236
0.684345
0.684488
0.684447
0.684316
0.684127
0.683826
0.683589
0.683455
0.68335
0.683322
0.68345
0.683657
0.683667
0.683553
0.683393
0.683135
0.682831
0.682659
0.682538
0.682436
0.68242
0.682519
0.682576
0.682486
0.682346
0.682164
0.682011
0.681895
0.681812
0.681786
0.681688
0.681549
0.681364
0.681208
0.681098
0.681044
0.681145
0.681398
0.681485
0.681401
0.681257
0.681041
0.68067
0.680343
0.680176
0.680048
0.679927
0.679819
0.679736
0.679766
0.679975
0.680204
0.680202
0.680086
0.679924
0.679656
0.679298
0.679097
0.678972
0.678871
0.678855
0.678998
0.679197
0.679191
0.679073
0.678906
0.678625
0.678303
0.678131
0.678017
0.677929
0.677962
0.678156
0.678295
0.678238
0.678104
0.677909
0.67757
0.677243
0.677079
0.676963
0.67687
0.676883
0.67706
0.677237
0.677209
0.677087
0.676923
0.676686
0.676491
0.676362
0.676256
0.676194
0.676223
0.676172
0.676045
0.675882
0.675739
0.675633
0.675595
0.6757
0.675836
0.675789
0.675658
0.675464
0.675124
0.674812
0.674655
0.674546
0.674475
0.674542
0.674799
0.674971
0.674925
0.674797
0.674613
0.674295
0.673959
0.673788
0.673672
0.67358
0.673593
0.67375
0.673851
0.673778
0.67364
0.673431
0.673091
0.672843
0.672708
0.672604
0.672568
0.672691
0.672979
0.673076
0.672997
0.672857
0.672646
0.672286
0.671997
0.671849
0.671741
0.67167
0.671733
0.671964
0.672088
0.672022
0.671887
0.671688
0.671343
0.671035
0.670881
0.670771
0.670692
0.670741
0.670969
0.671135
0.67109
0.670963
0.670783
0.670473
0.670144
0.669975
0.669859
0.669764
0.669766
0.669897
0.66997
0.669887
0.669746
0.669534
0.669264
0.669101
0.668991
0.668916
0.668974
0.669205
0.669341
0.66928
0.669148
0.668954
0.668617
0.668309
0.668155
0.668045
0.667966
0.668011
0.668225
0.668361
0.668301
0.66817
0.667978
0.667642
0.667325
0.667167
0.667057
0.666975
0.667014
0.667239
0.667438
0.667411
0.667291
0.667122
0.666832
0.666476
0.666288
0.666167
0.666067
0.666043
0.666155
0.666274
0.666218
0.666088
0.6659
0.665605
0.665385
0.665259
0.665159
0.665141
0.665294
0.66557
0.665625
0.665532
0.665386
0.665157
0.664773
0.664494
0.664351
0.664243
0.664171
0.664228
0.664451
0.664576
0.664512
0.664381
0.664189
0.663861
0.663576
0.663428
0.663321
0.663247
0.663302
0.663529
0.663667
0.663608
0.663479
0.663292
0.662964
0.662628
0.662462
0.662347
0.662251
0.662246
0.662383
0.662508
0.662452
0.662325
0.662145
0.66189
0.661714
0.661602
0.661514
0.661539
0.661732
0.661885
0.661835
0.661709
0.661525
0.661194
0.660822
0.660641
0.660525
0.66043
0.660425
0.660594
0.660858
0.660891
0.660791
0.660645
0.660411
0.660043
0.659801
0.659668
0.659565
0.659505
0.659583
0.659812
0.659896
0.659816
0.659679
0.659474
0.659121
0.65883
0.658683
0.658574
0.658488
0.658508
0.658695
0.658867
0.658834
0.658716
0.658559
0.658331
0.658149
0.658027
0.657925
0.657876
0.657917
0.657873
0.657749
0.657572
0.657318
0.657145
0.657035
0.656954
0.656994
0.657209
0.657363
0.657314
0.657189
0.657011
0.656699
0.65636
0.65619
0.656074
0.655977
0.655955
0.656077
0.656232
0.656202
0.656085
0.655928
0.65571
0.655549
0.65544
0.655358
0.655392
0.65555
0.655594
0.655497
0.655351
0.655111
0.65469
0.654385
0.654238
0.654131
0.654052
0.65409
0.654343
0.654662
0.654702
0.654607
0.654467
0.654248
0.65386
0.653529
0.653371
0.653256
0.653159
0.653126
0.653236
0.653429
0.653436
0.653329
0.653187
0.652978
0.652795
0.652676
0.652579
0.652559
0.652656
0.652692
0.652595
0.65245
0.65221
0.65185
0.651637
0.651516
0.651419
0.651401
0.651556
0.651903
0.652027
0.651962
0.651834
0.651645
0.651294
0.650844
0.650626
0.6505
0.650399
0.650339
0.650414
0.650676
0.650827
0.650775
0.650652
0.650478
0.650172
0.649847
0.649685
0.649575
0.649487
0.649501
0.649708
0.650003
0.650041
0.649946
0.649804
0.649573
0.649127
0.648672
0.648476
0.648355
0.648255
0.648203
0.648291
0.64863
0.648921
0.64893
0.648826
0.648681
0.648446
0.648046
0.647758
0.647615
0.647509
0.647425
0.647447
0.64765
0.647859
0.647841
0.647728
0.647569
0.647291
0.646811
0.646495
0.646348
0.646242
0.646158
0.646178
0.646409
0.64685
0.646995
0.646939
0.646815
0.646637
0.646307
0.645744
0.645401
0.645248
0.645138
0.645046
0.645038
0.645207
0.645646
0.645874
0.645849
0.645736
0.64558
0.645315
0.644852
0.64453
0.64438
0.64427
0.644177
0.644162
0.644307
0.644531
0.644544
0.64444
0.644296
0.644056
0.643669
0.643418
0.643286
0.643186
0.643123
0.643192
0.643482
0.643719
0.643704
0.643593
0.643441
0.643181
0.642762
0.642504
0.642371
0.64227
0.642201
0.642257
0.64253
0.642784
0.642779
0.642671
0.642521
0.642265
0.641777
0.641372
0.6412
0.641086
0.640991
0.640959
0.641082
0.641463
0.641705
0.641688
0.641578
0.641429
0.641181
0.640758
0.640465
0.640323
0.640213
0.64012
0.640097
0.640225
0.640444
0.64046
0.64036
0.640223
0.640011
0.639737
0.639574
0.639462
0.639368
0.639345
0.639447
0.639527
0.639454
0.639328
0.639145
0.638874
0.638688
0.638571
0.638475
0.638439
0.638537
0.638682
0.638651
0.638539
0.638388
0.63816
0.637961
0.637838
0.637737
0.637669
0.637705
0.637772
0.637707
0.637587
0.637427
0.637269
0.637158
0.637068
0.637063
0.637163
0.637165
0.63706
0.636914
0.636671
0.636393
0.636244
0.63614
0.63606
0.636092
0.6363
0.636462
0.636419
0.636303
0.63614
0.63585
0.635451
0.635241
0.635119
0.635019
0.63495
0.635
0.635232
0.635393
0.635351
0.635237
0.635084
0.634833
0.634574
0.634432
0.634325
0.634233
0.634214
0.634319
0.634396
0.634324
0.634202
0.634034
0.633835
0.633703
0.6336
0.633519
0.633529
0.63357
0.633493
0.633368
0.633187
0.632996
0.632875
0.63278
0.632746
0.632854
0.633024
0.633005
0.632896
0.632746
0.632487
0.632123
0.631922
0.631802
0.631704
0.631641
0.631702
0.631904
0.631974
0.631894
0.631769
0.63159
0.631336
0.631168
0.631056
0.630963
0.630935
0.631035
0.631137
0.631077
0.630958
0.63079
0.630526
0.630323
0.630203
0.630107
0.630057
0.630138
0.630311
0.630313
0.63021
0.63007
0.629842
0.629544
0.629377
0.629267
0.629176
0.629155
0.629284
0.629471
0.629459
0.629353
0.629208
0.628964
0.628594
0.628375
0.628253
0.628154
0.628082
0.628123
0.628347
0.628521
0.628486
0.628376
0.62823
0.627993
0.627716
0.627562
0.627451
0.627354
0.62729
0.62733
0.627402
0.627341
0.627225
0.627071
0.626908
0.626794
0.626701
0.62667
0.626758
0.626819
0.62674
0.626615
0.62643
0.626176
0.626016
0.625908
0.625819
0.62581
0.625939
0.626051
0.625994
0.625877
0.625714
0.625442
0.625201
0.625071
0.62497
0.624891
0.62491
0.625038
0.625054
0.624957
0.624822
0.624604
0.624311
0.624145
0.624037
0.623949
0.623942
0.624111
0.624421
0.624487
0.624406
0.624281
0.624092
0.623731
0.623308
0.623116
0.622999
0.622903
0.622837
0.622888
0.623146
0.623374
0.623361
0.623257
0.62312
0.622897
0.622558
0.622351
0.622231
0.622133
0.62206
0.622095
0.622273
0.622354
0.62228
0.622159
0.621983
0.621673
0.621387
0.621245
0.621141
0.621051
0.621031
0.621154
0.621313
0.621286
0.621179
0.621037
0.620811
0.620587
0.620459
0.62036
0.620287
0.620322
0.620501
0.620576
0.6205
0.620378
0.620198
0.619884
0.619614
0.619479
0.619377
0.619296
0.619305
0.619488
0.619693
0.619678
0.619574
0.619435
0.619205
0.618846
0.618628
0.618507
0.61841
0.618337
0.61837
0.618579
0.618737
0.618696
0.618586
0.618437
0.618184
0.617859
0.617688
0.617577
0.617484
0.617431
0.617506
0.617725
0.617789
0.61771
0.617589
0.617415
0.617123
0.616888
0.616762
0.616662
0.616579
0.616581
0.616711
0.616773
0.616695
0.616573
0.616396
0.616102
0.615881
0.615759
0.615662
0.615589
0.61562
0.615825
0.615982
0.615941
0.615833
0.61569
0.615459
0.615184
0.615032
0.614923
0.614826
0.61475
0.614766
0.614893
0.614924
0.614838
0.614723
0.614582
0.614455
0.614347
0.614242
0.614135
0.614025
0.613897
0.613763
0.613655
0.613562
0.613505
0.613573
0.613791
0.613863
0.613786
0.613666
0.613488
0.613155
0.612788
0.612617
0.612507
0.612412
0.612345
0.612389
0.612591
0.612699
0.612638
0.612525
0.612373
0.612139
0.611952
0.611837
0.611743
0.611682
0.611736
0.611893
0.6119
0.611803
0.611673
0.611463
0.611147
0.610955
0.610841
0.610748
0.610691
0.610758
0.61099
0.611088
0.611022
0.610907
0.610744
0.610452
0.610129
0.609972
0.609865
0.609774
0.60973
0.609819
0.610055
0.61012
0.610042
0.609923
0.609749
0.609433
0.609119
0.608969
0.608864
0.608774
0.608734
0.608833
0.609116
0.609228
0.609167
0.609055
0.608901
0.608632
0.608274
0.608089
0.607976
0.607877
0.607793
0.607781
0.607914
0.608085
0.608066
0.607965
0.607838
0.607649
0.607451
0.607328
0.607226
0.607137
0.607094
0.607123
0.607069
0.606959
0.606813
0.606632
0.606508
0.606412
0.606337
0.606357
0.606465
0.60645
0.60635
0.606222
0.606041
0.60589
0.605784
0.605694
0.605652
0.605716
0.605745
0.605661
0.605541
0.60537
0.60519
0.605074
0.604981
0.604921
0.604974
0.605089
0.605056
0.604951
0.604808
0.604562
0.604253
0.604092
0.603986
0.603897
0.603857
0.603953
0.604178
0.604219
0.604135
0.604015
0.603835
0.603518
0.603256
0.603126
0.603028
0.602947
0.602945
0.603121
0.60342
0.60347
0.60339
0.603271
0.603095
0.602755
0.602327
0.602129
0.602015
0.60192
0.601844
0.601861
0.602069
0.602374
0.602415
0.602332
0.602214
0.602042
0.601723
0.60137
0.601206
0.601098
0.601004
0.600933
0.600959
0.601145
0.601268
0.601215
0.601107
0.600963
0.600718
0.600438
0.600294
0.600191
0.600103
0.600064
0.60016
0.600379
0.600413
0.600329
0.60021
0.600033
0.59972
0.599454
0.599323
0.599222
0.599136
0.599104
0.599209
0.599424
0.599447
0.599359
0.59924
0.599064
0.598776
0.598566
0.59845
0.598353
0.598272
0.598267
0.598401
0.598511
0.598457
0.598351
0.598208
0.597972
0.597728
0.597597
0.597496
0.597409
0.59737
0.597452
0.59758
0.597546
0.597445
0.597316
0.597131
0.596975
0.59687
0.596781
0.596731
0.596792
0.596869
0.596809
0.596699
0.596544
0.596265
0.595954
0.595803
0.595698
0.595609
0.595553
0.595616
0.595855
0.595979
0.595926
0.59582
0.595683
0.595459
0.595215
0.595081
0.594979
0.59489
0.594831
0.594874
0.594953
0.594899
0.594794
0.594653
0.594444
0.594284
0.594179
0.594091
0.594046
0.594126
0.594296
0.594294
0.5942
0.594077
0.593881
0.593572
0.593372
0.593259
0.593165
0.593088
0.593096
0.593256
0.593388
0.593342
0.593239
0.593103
0.592878
0.592613
0.59247
0.592368
0.59228
0.592228
0.592292
0.59246
0.59247
0.592381
0.592263
0.592086
0.59183
0.591667
0.591562
0.591471
0.591408
0.591445
0.591568
0.591553
0.591456
0.591329
0.591121
0.590824
0.590653
0.590548
0.590459
0.590406
0.590473
0.590759
0.590966
0.590942
0.590844
0.590718
0.590513
0.590117
0.589749
0.589589
0.589483
0.589387
0.589302
0.589259
0.58934
0.589593
0.589697
0.589639
0.589535
0.589405
0.589212
0.589042
0.588932
0.588835
0.588743
0.588672
0.58861
0.588519
0.588419
0.588318
0.58822
0.588131
0.58807
0.588108
0.588214
0.588183
0.588085
0.587957
0.587751
0.587512
0.58738
0.587281
0.587196
0.58716
0.587248
0.587387
0.587359
0.587261
0.587136
0.586938
0.5867
0.586566
0.586466
0.586379
0.586331
0.586397
0.586544
0.586533
0.586439
0.586321
0.58614
0.585893
0.585741
0.585637
0.585545
0.585465
0.585449
0.585519
0.585501
0.585407
0.585291
0.585154
0.585047
0.584958
0.584896
0.584939
0.585056
0.58503
0.584933
0.584804
0.584589
0.584265
0.584077
0.583968
0.583877
0.583802
0.583809
0.583977
0.584137
0.584105
0.584008
0.583884
0.583687
0.583401
0.583229
0.583123
0.58303
0.58295
0.582932
0.583038
0.583122
0.583063
0.58296
0.582827
0.582635
0.582487
0.582385
0.582297
0.582233
0.582264
0.582338
0.582287
0.582185
0.582051
0.581839
0.581653
0.581544
0.581454
0.581381
0.581398
0.581549
0.581615
0.581545
0.581439
0.581292
0.581044
0.580816
0.580696
0.580599
0.580516
0.58048
0.580567
0.580715
0.580694
0.5806
0.580481
0.580296
0.580048
0.579901
0.5798
0.579712
0.579647
0.579676
0.579817
0.579834
0.579749
0.579638
0.579477
0.579244
0.579089
0.578987
0.578898
0.57883
0.578852
0.578982
0.578997
0.578912
0.5788
0.578638
0.578407
0.578257
0.578156
0.578068
0.578001
0.578025
0.57815
0.578153
0.578064
0.577952
0.577787
0.57757
0.577436
0.577338
0.577252
0.577195
0.577241
0.577345
0.577312
0.577216
0.577095
0.576909
0.576716
0.576602
0.576508
0.576426
0.576396
0.576477
0.576537
0.576471
0.576367
0.576231
0.576034
0.575889
0.575788
0.5757
0.575632
0.575648
0.575726
0.575687
0.57559
0.575468
0.57529
0.575139
0.575038
0.57495
0.574883
0.574906
0.574996
0.574963
0.574868
0.574746
0.574557
0.574359
0.574243
0.57415
0.574069
0.574039
0.574131
0.574234
0.574187
0.574089
0.573965
0.573771
0.57356
0.573439
0.573342
0.573255
0.573184
0.573191
0.573283
0.573268
0.573178
0.573071
0.572943
0.572836
0.572742
0.572654
0.572585
0.572508
0.572415
0.572318
0.57222
0.572126
0.572041
0.571986
0.572029
0.572118
0.572077
0.571981
0.571865
0.571701
0.571547
0.571441
0.571347
0.571252
0.571158
0.57106
0.570961
0.570866
0.570774
0.570693
0.570654
0.570726
0.570825
0.57078
0.570683
0.570556
0.570345
0.570046
0.569881
0.569779
0.569691
0.569621
0.569637
0.569833
0.570057
0.570052
0.569964
0.569854
0.569689
0.569382
0.569075
0.568932
0.568834
0.568743
0.568665
0.56864
0.56875
0.568951
0.568959
0.568875
0.56877
0.568623
0.568386
0.568192
0.568081
0.567987
0.567899
0.567827
0.567823
0.567913
0.567912
0.567826
0.567722
0.567586
0.567457
0.56736
0.567271
0.567196
0.567181
0.567157
0.567068
0.566965
0.566852
0.566756
0.56667
0.566608
0.566627
0.566618
0.566531
0.566423
0.566277
0.566146
0.566051
0.565967
0.565916
0.565961
0.566006
0.565938
0.565836
0.565698
0.565474
0.565294
0.565189
0.565099
0.565022
0.565006
0.565133
0.565329
0.565328
0.565245
0.565144
0.565018
0.564831
0.564629
0.564499
0.56439
0.564281
0.564154
0.563971
0.563761
0.563637
0.563541
0.563452
0.563375
0.563347
0.563455
0.563825
0.564059
0.564044
0.563956
0.563845
0.563678
0.563346
0.56288
0.562665
0.562554
0.562462
0.562379
0.562322
0.562367
0.562617
0.56284
0.562828
0.562741
0.562633
0.562475
0.562183
0.561887
0.561749
0.561653
0.561565
0.561489
0.561472
0.561592
0.561758
0.56174
0.561652
0.561543
0.561383
0.561128
0.560948
0.560844
0.560753
0.560673
0.56063
0.560696
0.560816
0.560787
0.560696
0.560585
0.560418
0.56021
0.560086
0.559993
0.559909
0.559846
0.55987
0.559975
0.559956
0.559868
0.559758
0.559594
0.55938
0.559251
0.559157
0.559073
0.559012
0.559043
0.55918
0.55919
0.559108
0.559004
0.558857
0.558625
0.558455
0.558352
0.558264
0.558187
0.558159
0.558248
0.558338
0.558287
0.558192
0.558073
0.557884
0.557677
0.557561
0.557469
0.557388
0.557336
0.557388
0.557517
0.557501
0.557413
0.557305
0.557141
0.556883
0.556712
0.556611
0.556524
0.55645
0.556438
0.556572
0.556745
0.556727
0.556639
0.556531
0.556366
0.556059
0.555787
0.55566
0.555567
0.555483
0.555417
0.555433
0.555627
0.55584
0.555831
0.555746
0.555642
0.555491
0.555213
0.554911
0.55477
0.554674
0.554585
0.554507
0.554463
0.554532
0.554724
0.554756
0.554683
0.554585
0.554458
0.554249
0.554036
0.553919
0.553827
0.553739
0.55366
0.553615
0.553669
0.553749
0.553703
0.553613
0.553509
0.553387
0.553283
0.553192
0.553102
0.553012
0.55292
0.552821
0.55272
0.552629
0.552542
0.552465
0.552427
0.552494
0.552558
0.5525
0.552406
0.552288
0.552102
0.551918
0.551811
0.551721
0.55164
0.551581
0.551608
0.551669
0.551617
0.551525
0.551412
0.551254
0.551127
0.551034
0.550951
0.550887
0.550903
0.550996
0.550971
0.550884
0.550777
0.550616
0.550404
0.550276
0.550184
0.550101
0.550036
0.550051
0.550188
0.550226
0.550155
0.550058
0.549929
0.549706
0.549449
0.549317
0.549224
0.549137
0.549059
0.549018
0.549091
0.549312
0.549372
0.549307
0.549212
0.549093
0.548896
0.548575
0.548376
0.548268
0.548178
0.54809
0.548009
0.547943
0.547948
0.548111
0.548292
0.548274
0.548189
0.548087
0.547941
0.547679
0.547419
0.547294
0.547202
0.547117
0.547043
0.54702
0.547122
0.54725
0.547216
0.547129
0.547023
0.546869
0.546662
0.546535
0.546443
0.546361
0.546294
0.546299
0.546423
0.546462
0.546391
0.546295
0.546165
0.545936
0.545666
0.545532
0.54544
0.545357
0.545289
0.545292
0.545456
0.545642
0.545625
0.545541
0.545438
0.545288
0.545006
0.544708
0.544572
0.544478
0.544394
0.54432
0.544295
0.544404
0.544649
0.544693
0.544625
0.544531
0.544411
0.544211
0.543926
0.543769
0.543671
0.543584
0.543501
0.543433
0.543427
0.543494
0.543466
0.54338
0.543278
0.543134
0.542989
0.542892
0.542808
0.542737
0.542727
0.542857
0.542992
0.542956
0.542869
0.542761
0.542593
0.542273
0.541999
0.541875
0.541784
0.541702
0.541633
0.541626
0.541774
0.542012
0.542028
0.541953
0.541858
0.541732
0.541512
0.541221
0.54107
0.540975
0.540889
0.540809
0.54075
0.540772
0.540911
0.540942
0.540871
0.540777
0.54066
0.540482
0.540327
0.540229
0.540143
0.540063
0.540003
0.540018
0.540052
0.539991
0.5399
0.539787
0.539635
0.539519
0.539431
0.539351
0.539292
0.539316
0.539414
0.539389
0.539305
0.539202
0.539049
0.538796
0.538618
0.538518
0.538433
0.538356
0.538309
0.538365
0.538539
0.538562
0.538489
0.538396
0.538274
0.538071
0.537859
0.537745
0.537657
0.537575
0.537505
0.537491
0.537588
0.537632
0.537566
0.537474
0.537359
0.537176
0.536994
0.536889
0.536803
0.536724
0.536665
0.53669
0.536816
0.536822
0.536745
0.536651
0.536525
0.536319
0.536143
0.536042
0.535957
0.535877
0.535816
0.535831
0.535931
0.53592
0.535839
0.535743
0.535611
0.535422
0.535291
0.5352
0.535116
0.535043
0.535012
0.535083
0.535133
0.535073
0.534983
0.534873
0.534704
0.534533
0.53443
0.534344
0.534263
0.534196
0.534191
0.534264
0.534244
0.534162
0.534067
0.53394
0.533803
0.533708
0.533623
0.533546
0.533492
0.533517
0.533528
0.533456
0.533364
0.533248
0.533091
0.532977
0.53289
0.532808
0.532738
0.532717
0.53278
0.532771
0.532692
0.5326
0.532484
0.532357
0.532263
0.532178
0.532093
0.532011
0.531932
0.531861
0.53179
0.531715
0.531644
0.531593
0.531609
0.531592
0.531512
0.53142
0.531303
0.531181
0.53109
0.531007
0.530934
0.530897
0.530946
0.530945
0.530868
0.530776
0.530654
0.5305
0.530393
0.530307
0.530228
0.530165
0.530171
0.530241
0.530208
0.530124
0.530026
0.529885
0.529664
0.529508
0.529412
0.529327
0.529244
0.529162
0.529091
0.529057
0.529134
0.529311
0.529321
0.529248
0.529157
0.529038
0.528836
0.528557
0.52841
0.528317
0.528234
0.528159
0.528108
0.52815
0.528338
0.528403
0.528343
0.528256
0.528149
0.527981
0.52771
0.527537
0.52744
0.527356
0.527278
0.527213
0.527215
0.52735
0.527438
0.527387
0.527302
0.527202
0.527058
0.526845
0.526707
0.526615
0.526532
0.526453
0.526385
0.526368
0.52639
0.526332
0.526246
0.526143
0.526003
0.525889
0.525802
0.525724
0.525658
0.525657
0.525767
0.525794
0.525725
0.525635
0.525521
0.525333
0.525134
0.525026
0.524941
0.524864
0.524802
0.524812
0.524963
0.525048
0.524996
0.52491
0.524805
0.52464
0.524321
0.52405
0.52393
0.523843
0.523763
0.523693
0.523666
0.523766
0.524059
0.524161
0.524113
0.524028
0.523929
0.523782
0.523499
0.523203
0.523071
0.522982
0.5229
0.522823
0.522762
0.52277
0.522921
0.52302
0.522973
0.52289
0.522793
0.522657
0.522439
0.522281
0.522186
0.522103
0.522024
0.521955
0.521928
0.521999
0.522031
0.521967
0.52188
0.521779
0.521639
0.521519
0.521432
0.521351
0.521276
0.521225
0.521241
0.521216
0.521136
0.521044
0.52092
0.520759
0.520652
0.520568
0.520489
0.520422
0.520408
0.520493
0.520513
0.520444
0.520357
0.520253
0.520108
0.519989
0.519903
0.519822
0.519747
0.519691
0.519702
0.519691
0.519616
0.519528
0.519417
0.51928
0.51918
0.519097
0.519018
0.51895
0.518928
0.518972
0.518939
0.51886
0.518771
0.51867
0.518582
0.518501
0.518425
0.518367
0.518326
0.518253
0.51817
0.518078
0.517961
0.517853
0.517769
0.51769
0.517622
0.517599
0.517655
0.517638
0.517561
0.517472
0.517357
0.51722
0.517124
0.517043
0.516967
0.516908
0.516919
0.516969
0.51692
0.516837
0.516738
0.516588
0.516364
0.516225
0.516137
0.516057
0.515986
0.515947
0.516015
0.516208
0.516239
0.516173
0.516088
0.515983
0.515815
0.515533
0.515351
0.515254
0.515172
0.515093
0.515024
0.514989
0.515059
0.515185
0.515163
0.515086
0.514998
0.514887
0.514722
0.514589
0.514501
0.51442
0.514343
0.514277
0.514261
0.51428
0.514223
0.51414
0.514043
0.513903
0.51376
0.513668
0.513588
0.513514
0.513458
0.513478
0.513578
0.513564
0.513488
0.5134
0.513287
0.513111
0.512962
0.512871
0.51279
0.512714
0.512649
0.512635
0.512709
0.512705
0.512632
0.512547
0.51244
0.51228
0.512143
0.512053
0.511973
0.511897
0.511831
0.511813
0.511873
0.511858
0.511783
0.511697
0.511593
0.511479
0.511391
0.511311
0.511235
0.511168
0.51113
0.511074
0.510995
0.510914
0.510824
0.510735
0.510654
0.510576
0.510507
0.510471
0.510496
0.510459
0.510381
0.510292
0.51018
0.510067
0.509981
0.509902
0.50983
0.509776
0.509787
0.509766
0.50969
0.509605
0.509496
0.509364
0.509269
0.509189
0.509115
0.509054
0.509054
0.509123
0.509096
0.509019
0.508931
0.508813
0.508628
0.508486
0.508397
0.508318
0.508244
0.508186
0.508194
0.508295
0.508294
0.508222
0.508138
0.508033
0.507869
0.507699
0.507601
0.507521
0.507444
0.507376