/*--------------------------------*- C++ -*----------------------------------*\
  =========                 |
  \\      /  F ield         | OpenFOAM: The Open Source CFD Toolbox
   \\    /   O peration     | Website:  https://openfoam.org
    \\  /    A nd           | Version:  9
     \\/     M anipulation  |
\*---------------------------------------------------------------------------*/
FoamFile
{
    format      ascii;
    class       volVectorField;
    location    "0.019";
    object      U;
}
// * * * * * * * * * * * * * * * * * * * * * * * * * * * * * * * * * * * * * //

dimensions      [0 1 -1 0 0 0 0];

internalField   nonuniform List<vector> 
10000
(
(0.765712 0 0)
(0.899116 0 0)
(0.960345 0 0)
(1.03626 0 0)
(1.12 0 0)
(1.19873 0 0)
(1.27562 0 0)
(1.35355 0 0)
(1.43266 0 0)
(1.51207 0 0)
(1.59011 0 0)
(1.6682 0 0)
(1.74659 0 0)
(1.82523 0 0)
(1.90394 0 0)
(1.98238 0 0)
(2.06083 0 0)
(2.13932 0 0)
(2.21784 0 0)
(2.29638 0 0)
(2.37489 0 0)
(2.45339 0 0)
(2.5319 0 0)
(2.61041 0 0)
(2.68893 0 0)
(2.76744 0 0)
(2.84595 0 0)
(2.92446 0 0)
(3.00298 0 0)
(3.08149 0 0)
(3.16 0 0)
(3.23852 0 0)
(3.31703 0 0)
(3.39554 0 0)
(3.47406 0 0)
(3.55257 0 0)
(3.63109 0 0)
(3.7096 0 0)
(3.78812 0 0)
(3.86663 0 0)
(3.94515 0 0)
(4.02366 0 0)
(4.10218 0 0)
(4.18069 0 0)
(4.25921 0 0)
(4.33773 0 0)
(4.41624 0 0)
(4.49476 0 0)
(4.57328 0 0)
(4.65179 0 0)
(4.73031 0 0)
(4.80883 0 0)
(4.88735 0 0)
(4.96586 0 0)
(5.04438 0 0)
(5.1229 0 0)
(5.20142 0 0)
(5.27994 0 0)
(5.35846 0 0)
(5.43698 0 0)
(5.5155 0 0)
(5.59402 0 0)
(5.67254 0 0)
(5.75106 0 0)
(5.82958 0 0)
(5.9081 0 0)
(5.98662 0 0)
(6.06514 0 0)
(6.14366 0 0)
(6.22218 0 0)
(6.3007 0 0)
(6.37923 0 0)
(6.45775 0 0)
(6.53627 0 0)
(6.61479 0 0)
(6.69331 0 0)
(6.77184 0 0)
(6.85036 0 0)
(6.92888 0 0)
(7.00741 0 0)
(7.08593 0 0)
(7.16446 0 0)
(7.24298 0 0)
(7.3215 0 0)
(7.40003 0 0)
(7.47855 0 0)
(7.55708 0 0)
(7.6356 0 0)
(7.71413 0 0)
(7.79266 0 0)
(7.87118 0 0)
(7.94971 0 0)
(8.02823 0 0)
(8.10676 0 0)
(8.18529 0 0)
(8.26381 0 0)
(8.34234 0 0)
(8.42087 0 0)
(8.4994 0 0)
(8.57792 0 0)
(8.65645 0 0)
(8.73498 0 0)
(8.81351 0 0)
(8.89204 0 0)
(8.97057 0 0)
(9.0491 0 0)
(9.12763 0 0)
(9.20616 0 0)
(9.28468 0 0)
(9.36321 0 0)
(9.44175 0 0)
(9.52028 0 0)
(9.59881 0 0)
(9.67734 0 0)
(9.75587 0 0)
(9.8344 0 0)
(9.91293 0 0)
(9.99146 0 0)
(10.07 0 0)
(10.1485 0 0)
(10.2271 0 0)
(10.3056 0 0)
(10.3841 0 0)
(10.4627 0 0)
(10.5412 0 0)
(10.6197 0 0)
(10.6983 0 0)
(10.7768 0 0)
(10.8553 0 0)
(10.9339 0 0)
(11.0124 0 0)
(11.0909 0 0)
(11.1695 0 0)
(11.248 0 0)
(11.3265 0 0)
(11.4051 0 0)
(11.4836 0 0)
(11.5621 0 0)
(11.6407 0 0)
(11.7192 0 0)
(11.7978 0 0)
(11.8763 0 0)
(11.9548 0 0)
(12.0334 0 0)
(12.1119 0 0)
(12.1904 0 0)
(12.269 0 0)
(12.3475 0 0)
(12.4261 0 0)
(12.5046 0 0)
(12.5831 0 0)
(12.6617 0 0)
(12.7402 0 0)
(12.8187 0 0)
(12.8973 0 0)
(12.9758 0 0)
(13.0544 0 0)
(13.1329 0 0)
(13.2114 0 0)
(13.29 0 0)
(13.3685 0 0)
(13.4471 0 0)
(13.5256 0 0)
(13.6042 0 0)
(13.6827 0 0)
(13.7612 0 0)
(13.8398 0 0)
(13.9183 0 0)
(13.9969 0 0)
(14.0754 0 0)
(14.154 0 0)
(14.2325 0 0)
(14.311 0 0)
(14.3896 0 0)
(14.4681 0 0)
(14.5467 0 0)
(14.6252 0 0)
(14.7038 0 0)
(14.7823 0 0)
(14.8609 0 0)
(14.9394 0 0)
(15.0179 0 0)
(15.0965 0 0)
(15.175 0 0)
(15.2536 0 0)
(15.3321 0 0)
(15.4107 0 0)
(15.4892 0 0)
(15.5678 0 0)
(15.6463 0 0)
(15.7249 0 0)
(15.8034 0 0)
(15.882 0 0)
(15.9605 0 0)
(16.0391 0 0)
(16.1176 0 0)
(16.1962 0 0)
(16.2747 0 0)
(16.3533 0 0)
(16.4318 0 0)
(16.5104 0 0)
(16.5889 0 0)
(16.6675 0 0)
(16.746 0 0)
(16.8246 0 0)
(16.9031 0 0)
(16.9817 0 0)
(17.0602 0 0)
(17.1388 0 0)
(17.2173 0 0)
(17.2959 0 0)
(17.3744 0 0)
(17.453 0 0)
(17.5315 0 0)
(17.6101 0 0)
(17.6886 0 0)
(17.7672 0 0)
(17.8457 0 0)
(17.9243 0 0)
(18.0028 0 0)
(18.0814 0 0)
(18.1599 0 0)
(18.2385 0 0)
(18.3171 0 0)
(18.3956 0 0)
(18.4742 0 0)
(18.5527 0 0)
(18.6313 0 0)
(18.7098 0 0)
(18.7884 0 0)
(18.8669 0 0)
(18.9455 0 0)
(19.0241 0 0)
(19.1026 0 0)
(19.1812 0 0)
(19.2597 0 0)
(19.3383 0 0)
(19.4169 0 0)
(19.4954 0 0)
(19.574 0 0)
(19.6525 0 0)
(19.7311 0 0)
(19.8096 0 0)
(19.8882 0 0)
(19.9668 0 0)
(20.0453 0 0)
(20.1239 0 0)
(20.2024 0 0)
(20.281 0 0)
(20.3596 0 0)
(20.4381 0 0)
(20.5167 0 0)
(20.5952 0 0)
(20.6738 0 0)
(20.7524 0 0)
(20.8309 0 0)
(20.9095 0 0)
(20.9881 0 0)
(21.0666 0 0)
(21.1452 0 0)
(21.2237 0 0)
(21.3023 0 0)
(21.3809 0 0)
(21.4594 0 0)
(21.538 0 0)
(21.6166 0 0)
(21.6951 0 0)
(21.7737 0 0)
(21.8523 0 0)
(21.9308 0 0)
(22.0094 0 0)
(22.088 0 0)
(22.1665 0 0)
(22.2451 0 0)
(22.3237 0 0)
(22.4022 0 0)
(22.4808 0 0)
(22.5594 0 0)
(22.6379 0 0)
(22.7165 0 0)
(22.7951 0 0)
(22.8736 0 0)
(22.9522 0 0)
(23.0308 0 0)
(23.1093 0 0)
(23.1879 0 0)
(23.2665 0 0)
(23.345 0 0)
(23.4236 0 0)
(23.5022 0 0)
(23.5807 0 0)
(23.6593 0 0)
(23.7379 0 0)
(23.8165 0 0)
(23.895 0 0)
(23.9736 0 0)
(24.0522 0 0)
(24.1307 0 0)
(24.2093 0 0)
(24.2879 0 0)
(24.3665 0 0)
(24.445 0 0)
(24.5236 0 0)
(24.6022 0 0)
(24.6807 0 0)
(24.7593 0 0)
(24.8379 0 0)
(24.9165 0 0)
(24.995 0 0)
(25.0736 0 0)
(25.1522 0 0)
(25.2308 0 0)
(25.3093 0 0)
(25.3879 0 0)
(25.4665 0 0)
(25.5451 0 0)
(25.6236 0 0)
(25.7022 0 0)
(25.7808 0 0)
(25.8594 0 0)
(25.9379 0 0)
(26.0165 0 0)
(26.0951 0 0)
(26.1737 0 0)
(26.2522 0 0)
(26.3308 0 0)
(26.4094 0 0)
(26.488 0 0)
(26.5666 0 0)
(26.6451 0 0)
(26.7237 0 0)
(26.8023 0 0)
(26.8809 0 0)
(26.9595 0 0)
(27.038 0 0)
(27.1166 0 0)
(27.1952 0 0)
(27.2738 0 0)
(27.3524 0 0)
(27.4309 0 0)
(27.5095 0 0)
(27.5881 0 0)
(27.6667 0 0)
(27.7453 0 0)
(27.8238 0 0)
(27.9024 0 0)
(27.981 0 0)
(28.0596 0 0)
(28.1382 0 0)
(28.2168 0 0)
(28.2953 0 0)
(28.3739 0 0)
(28.4525 0 0)
(28.5311 0 0)
(28.6097 0 0)
(28.6883 0 0)
(28.7668 0 0)
(28.8454 0 0)
(28.924 0 0)
(29.0026 0 0)
(29.0812 0 0)
(29.1598 0 0)
(29.2384 0 0)
(29.3169 0 0)
(29.3955 0 0)
(29.4741 0 0)
(29.5527 0 0)
(29.6313 0 0)
(29.7099 0 0)
(29.7885 0 0)
(29.8671 0 0)
(29.9456 0 0)
(30.0242 0 0)
(30.1028 0 0)
(30.1814 0 0)
(30.26 0 0)
(30.3386 0 0)
(30.4172 0 0)
(30.4958 0 0)
(30.5744 0 0)
(30.6529 0 0)
(30.7315 0 0)
(30.8101 0 0)
(30.8887 0 0)
(30.9673 0 0)
(31.0459 0 0)
(31.1245 0 0)
(31.2031 0 0)
(31.2817 0 0)
(31.3603 0 0)
(31.4389 0 0)
(31.5175 0 0)
(31.596 0 0)
(31.6746 0 0)
(31.7532 0 0)
(31.8318 0 0)
(31.9104 0 0)
(31.989 0 0)
(32.0676 0 0)
(32.1462 0 0)
(32.2248 0 0)
(32.3034 0 0)
(32.382 0 0)
(32.4606 0 0)
(32.5392 0 0)
(32.6178 0 0)
(32.6964 0 0)
(32.775 0 0)
(32.8536 0 0)
(32.9322 0 0)
(33.0108 0 0)
(33.0894 0 0)
(33.168 0 0)
(33.2466 0 0)
(33.3251 0 0)
(33.4037 0 0)
(33.4823 0 0)
(33.5609 0 0)
(33.6395 0 0)
(33.7181 0 0)
(33.7967 0 0)
(33.8753 0 0)
(33.9539 0 0)
(34.0325 0 0)
(34.1111 0 0)
(34.1897 0 0)
(34.2683 0 0)
(34.3469 0 0)
(34.4255 0 0)
(34.5041 0 0)
(34.5827 0 0)
(34.6613 0 0)
(34.74 0 0)
(34.8186 0 0)
(34.8972 0 0)
(34.9758 0 0)
(35.0544 0 0)
(35.133 0 0)
(35.2116 0 0)
(35.2902 0 0)
(35.3688 0 0)
(35.4474 0 0)
(35.526 0 0)
(35.6046 0 0)
(35.6832 0 0)
(35.7618 0 0)
(35.8404 0 0)
(35.919 0 0)
(35.9976 0 0)
(36.0762 0 0)
(36.1548 0 0)
(36.2334 0 0)
(36.312 0 0)
(36.3906 0 0)
(36.4693 0 0)
(36.5479 0 0)
(36.6265 0 0)
(36.7051 0 0)
(36.7837 0 0)
(36.8623 0 0)
(36.9409 0 0)
(37.0195 0 0)
(37.0981 0 0)
(37.1767 0 0)
(37.2553 0 0)
(37.3339 0 0)
(37.4126 0 0)
(37.4912 0 0)
(37.5698 0 0)
(37.6484 0 0)
(37.727 0 0)
(37.8056 0 0)
(37.8842 0 0)
(37.9628 0 0)
(38.0414 0 0)
(38.1201 0 0)
(38.1987 0 0)
(38.2773 0 0)
(38.3559 0 0)
(38.4345 0 0)
(38.5131 0 0)
(38.5917 0 0)
(38.6704 0 0)
(38.749 0 0)
(38.8276 0 0)
(38.9062 0 0)
(38.9848 0 0)
(39.0634 0 0)
(39.142 0 0)
(39.2207 0 0)
(39.2993 0 0)
(39.3779 0 0)
(39.4565 0 0)
(39.5351 0 0)
(39.6137 0 0)
(39.6924 0 0)
(39.771 0 0)
(39.8496 0 0)
(39.9282 0 0)
(40.0068 0 0)
(40.0854 0 0)
(40.1641 0 0)
(40.2427 0 0)
(40.3213 0 0)
(40.3999 0 0)
(40.4785 0 0)
(40.5572 0 0)
(40.6358 0 0)
(40.7144 0 0)
(40.793 0 0)
(40.8716 0 0)
(40.9503 0 0)
(41.0289 0 0)
(41.1075 0 0)
(41.1861 0 0)
(41.2647 0 0)
(41.3434 0 0)
(41.422 0 0)
(41.5006 0 0)
(41.5792 0 0)
(41.6578 0 0)
(41.7365 0 0)
(41.8151 0 0)
(41.8937 0 0)
(41.9723 0 0)
(42.051 0 0)
(42.1296 0 0)
(42.2082 0 0)
(42.2868 0 0)
(42.3655 0 0)
(42.4441 0 0)
(42.5227 0 0)
(42.6013 0 0)
(42.68 0 0)
(42.7586 0 0)
(42.8372 0 0)
(42.9158 0 0)
(42.9945 0 0)
(43.0731 0 0)
(43.1517 0 0)
(43.2304 0 0)
(43.309 0 0)
(43.3876 0 0)
(43.4662 0 0)
(43.5449 0 0)
(43.6235 0 0)
(43.7021 0 0)
(43.7808 0 0)
(43.8594 0 0)
(43.938 0 0)
(44.0166 0 0)
(44.0953 0 0)
(44.1739 0 0)
(44.2525 0 0)
(44.3312 0 0)
(44.4098 0 0)
(44.4884 0 0)
(44.5671 0 0)
(44.6457 0 0)
(44.7243 0 0)
(44.803 0 0)
(44.8816 0 0)
(44.9602 0 0)
(45.0389 0 0)
(45.1175 0 0)
(45.1961 0 0)
(45.2748 0 0)
(45.3534 0 0)
(45.432 0 0)
(45.5107 0 0)
(45.5893 0 0)
(45.6679 0 0)
(45.7466 0 0)
(45.8252 0 0)
(45.9038 0 0)
(45.9825 0 0)
(46.0611 0 0)
(46.1397 0 0)
(46.2184 0 0)
(46.297 0 0)
(46.3757 0 0)
(46.4543 0 0)
(46.5329 0 0)
(46.6116 0 0)
(46.6902 0 0)
(46.7688 0 0)
(46.8475 0 0)
(46.9261 0 0)
(47.0048 0 0)
(47.0834 0 0)
(47.162 0 0)
(47.2407 0 0)
(47.3193 0 0)
(47.398 0 0)
(47.4766 0 0)
(47.5552 0 0)
(47.6339 0 0)
(47.7125 0 0)
(47.7912 0 0)
(47.8698 0 0)
(47.9484 0 0)
(48.0271 0 0)
(48.1057 0 0)
(48.1844 0 0)
(48.263 0 0)
(48.3417 0 0)
(48.4203 0 0)
(48.4989 0 0)
(48.5776 0 0)
(48.6562 0 0)
(48.7349 0 0)
(48.8135 0 0)
(48.8922 0 0)
(48.9708 0 0)
(49.0495 0 0)
(49.1281 0 0)
(49.2068 0 0)
(49.2854 0 0)
(49.364 0 0)
(49.4427 0 0)
(49.5213 0 0)
(49.6 0 0)
(49.6786 0 0)
(49.7573 0 0)
(49.8359 0 0)
(49.9146 0 0)
(49.9932 0 0)
(50.0719 0 0)
(50.1505 0 0)
(50.2292 0 0)
(50.3078 0 0)
(50.3865 0 0)
(50.4651 0 0)
(50.5438 0 0)
(50.6224 0 0)
(50.7011 0 0)
(50.7797 0 0)
(50.8584 0 0)
(50.937 0 0)
(51.0157 0 0)
(51.0943 0 0)
(51.173 0 0)
(51.2516 0 0)
(51.3303 0 0)
(51.4089 0 0)
(51.4876 0 0)
(51.5663 0 0)
(51.6449 0 0)
(51.7236 0 0)
(51.8022 0 0)
(51.8809 0 0)
(51.9595 0 0)
(52.0382 0 0)
(52.1168 0 0)
(52.1955 0 0)
(52.2741 0 0)
(52.3528 0 0)
(52.4315 0 0)
(52.5101 0 0)
(52.5888 0 0)
(52.6674 0 0)
(52.7461 0 0)
(52.8247 0 0)
(52.9034 0 0)
(52.9821 0 0)
(53.0607 0 0)
(53.1394 0 0)
(53.218 0 0)
(53.2967 0 0)
(53.3754 0 0)
(53.454 0 0)
(53.5327 0 0)
(53.6113 0 0)
(53.69 0 0)
(53.7687 0 0)
(53.8473 0 0)
(53.926 0 0)
(54.0046 0 0)
(54.0833 0 0)
(54.162 0 0)
(54.2406 0 0)
(54.3193 0 0)
(54.3979 0 0)
(54.4766 0 0)
(54.5553 0 0)
(54.6339 0 0)
(54.7126 0 0)
(54.7913 0 0)
(54.8699 0 0)
(54.9486 0 0)
(55.0273 0 0)
(55.1059 0 0)
(55.1846 0 0)
(55.2632 0 0)
(55.3419 0 0)
(55.4206 0 0)
(55.4992 0 0)
(55.5779 0 0)
(55.6566 0 0)
(55.7352 0 0)
(55.8139 0 0)
(55.8926 0 0)
(55.9712 0 0)
(56.0499 0 0)
(56.1286 0 0)
(56.2073 0 0)
(56.2859 0 0)
(56.3646 0 0)
(56.4433 0 0)
(56.5219 0 0)
(56.6006 0 0)
(56.6793 0 0)
(56.7579 0 0)
(56.8366 0 0)
(56.9153 0 0)
(56.9939 0 0)
(57.0726 0 0)
(57.1513 0 0)
(57.23 0 0)
(57.3086 0 0)
(57.3873 0 0)
(57.466 0 0)
(57.5447 0 0)
(57.6233 0 0)
(57.702 0 0)
(57.7807 0 0)
(57.8593 0 0)
(57.938 0 0)
(58.0167 0 0)
(58.0954 0 0)
(58.174 0 0)
(58.2527 0 0)
(58.3314 0 0)
(58.4101 0 0)
(58.4887 0 0)
(58.5674 0 0)
(58.6461 0 0)
(58.7248 0 0)
(58.8034 0 0)
(58.8821 0 0)
(58.9608 0 0)
(59.0395 0 0)
(59.1182 0 0)
(59.1968 0 0)
(59.2755 0 0)
(59.3542 0 0)
(59.4329 0 0)
(59.5115 0 0)
(59.5902 0 0)
(59.6689 0 0)
(59.7476 0 0)
(59.8263 0 0)
(59.9049 0 0)
(59.9836 0 0)
(60.0623 0 0)
(60.141 0 0)
(60.2197 0 0)
(60.2984 0 0)
(60.377 0 0)
(60.4557 0 0)
(60.5344 0 0)
(60.6131 0 0)
(60.6918 0 0)
(60.7704 0 0)
(60.8491 0 0)
(60.9278 0 0)
(61.0065 0 0)
(61.0852 0 0)
(61.1639 0 0)
(61.2426 0 0)
(61.3212 0 0)
(61.3999 0 0)
(61.4786 0 0)
(61.5573 0 0)
(61.636 0 0)
(61.7147 0 0)
(61.7933 0 0)
(61.872 0 0)
(61.9507 0 0)
(62.0294 0 0)
(62.1081 0 0)
(62.1868 0 0)
(62.2655 0 0)
(62.3442 0 0)
(62.4228 0 0)
(62.5015 0 0)
(62.5802 0 0)
(62.6589 0 0)
(62.7376 0 0)
(62.8163 0 0)
(62.895 0 0)
(62.9737 0 0)
(63.0524 0 0)
(63.1311 0 0)
(63.2097 0 0)
(63.2884 0 0)
(63.3671 0 0)
(63.4458 0 0)
(63.5245 0 0)
(63.6032 0 0)
(63.6819 0 0)
(63.7606 0 0)
(63.8393 0 0)
(63.918 0 0)
(63.9967 0 0)
(64.0754 0 0)
(64.1541 0 0)
(64.2328 0 0)
(64.3114 0 0)
(64.3901 0 0)
(64.4688 0 0)
(64.5475 0 0)
(64.6262 0 0)
(64.7049 0 0)
(64.7836 0 0)
(64.8623 0 0)
(64.941 0 0)
(65.0197 0 0)
(65.0984 0 0)
(65.1771 0 0)
(65.2558 0 0)
(65.3345 0 0)
(65.4132 0 0)
(65.4919 0 0)
(65.5706 0 0)
(65.6493 0 0)
(65.728 0 0)
(65.8067 0 0)
(65.8854 0 0)
(65.9641 0 0)
(66.0428 0 0)
(66.1215 0 0)
(66.2002 0 0)
(66.2789 0 0)
(66.3576 0 0)
(66.4363 0 0)
(66.515 0 0)
(66.5937 0 0)
(66.6724 0 0)
(66.7511 0 0)
(66.8298 0 0)
(66.9085 0 0)
(66.9872 0 0)
(67.0659 0 0)
(67.1446 0 0)
(67.2233 0 0)
(67.302 0 0)
(67.3807 0 0)
(67.4594 0 0)
(67.5381 0 0)
(67.6169 0 0)
(67.6956 0 0)
(67.7743 0 0)
(67.853 0 0)
(67.9317 0 0)
(68.0104 0 0)
(68.0891 0 0)
(68.1678 0 0)
(68.2465 0 0)
(68.3252 0 0)
(68.4039 0 0)
(68.4826 0 0)
(68.5613 0 0)
(68.64 0 0)
(68.7188 0 0)
(68.7975 0 0)
(68.8762 0 0)
(68.9549 0 0)
(69.0336 0 0)
(69.1123 0 0)
(69.191 0 0)
(69.2697 0 0)
(69.3484 0 0)
(69.4271 0 0)
(69.5059 0 0)
(69.5846 0 0)
(69.6633 0 0)
(69.742 0 0)
(69.8207 0 0)
(69.8994 0 0)
(69.9781 0 0)
(70.0568 0 0)
(70.1356 0 0)
(70.2143 0 0)
(70.293 0 0)
(70.3717 0 0)
(70.4504 0 0)
(70.5291 0 0)
(70.6078 0 0)
(70.6866 0 0)
(70.7653 0 0)
(70.844 0 0)
(70.9227 0 0)
(71.0014 0 0)
(71.0801 0 0)
(71.1589 0 0)
(71.2376 0 0)
(71.3163 0 0)
(71.395 0 0)
(71.4737 0 0)
(71.5524 0 0)
(71.6312 0 0)
(71.7099 0 0)
(71.7886 0 0)
(71.8673 0 0)
(71.946 0 0)
(72.0248 0 0)
(72.1035 0 0)
(72.1822 0 0)
(72.2609 0 0)
(72.3396 0 0)
(72.4184 0 0)
(72.4971 0 0)
(72.5758 0 0)
(72.6545 0 0)
(72.7333 0 0)
(72.812 0 0)
(72.8907 0 0)
(72.9694 0 0)
(73.0481 0 0)
(73.1269 0 0)
(73.2056 0 0)
(73.2843 0 0)
(73.363 0 0)
(73.4418 0 0)
(73.5205 0 0)
(73.5992 0 0)
(73.6779 0 0)
(73.7567 0 0)
(73.8354 0 0)
(73.9141 0 0)
(73.9928 0 0)
(74.0716 0 0)
(74.1503 0 0)
(74.229 0 0)
(74.3077 0 0)
(74.3865 0 0)
(74.4652 0 0)
(74.5439 0 0)
(74.6227 0 0)
(74.7014 0 0)
(74.7801 0 0)
(74.8588 0 0)
(74.9376 0 0)
(75.0163 0 0)
(75.095 0 0)
(75.1738 0 0)
(75.2525 0 0)
(75.3312 0 0)
(75.41 0 0)
(75.4887 0 0)
(75.5674 0 0)
(75.6462 0 0)
(75.7249 0 0)
(75.8036 0 0)
(75.8823 0 0)
(75.9611 0 0)
(76.0398 0 0)
(76.1185 0 0)
(76.1973 0 0)
(76.276 0 0)
(76.3547 0 0)
(76.4335 0 0)
(76.5122 0 0)
(76.591 0 0)
(76.6697 0 0)
(76.7484 0 0)
(76.8272 0 0)
(76.9059 0 0)
(76.9846 0 0)
(77.0634 0 0)
(77.1421 0 0)
(77.2208 0 0)
(77.2996 0 0)
(77.3783 0 0)
(77.4571 0 0)
(77.5358 0 0)
(77.6145 0 0)
(77.6933 0 0)
(77.772 0 0)
(77.8507 0 0)
(77.9295 0 0)
(78.0082 0 0)
(78.087 0 0)
(78.1657 0 0)
(78.2444 0 0)
(78.3232 0 0)
(78.4019 0 0)
(78.4807 0 0)
(78.5594 0 0)
(78.6381 0 0)
(78.7169 0 0)
(78.7956 0 0)
(78.8744 0 0)
(78.9531 0 0)
(79.0319 0 0)
(79.1106 0 0)
(79.1893 0 0)
(79.2681 0 0)
(79.3468 0 0)
(79.4256 0 0)
(79.5043 0 0)
(79.5831 0 0)
(79.6618 0 0)
(79.7406 0 0)
(79.8193 0 0)
(79.898 0 0)
(79.9768 0 0)
(80.0555 0 0)
(80.1343 0 0)
(80.213 0 0)
(80.2918 0 0)
(80.3705 0 0)
(80.4493 0 0)
(80.528 0 0)
(80.6068 0 0)
(80.6855 0 0)
(80.7643 0 0)
(80.843 0 0)
(80.9218 0 0)
(81.0005 0 0)
(81.0793 0 0)
(81.158 0 0)
(81.2368 0 0)
(81.3155 0 0)
(81.3943 0 0)
(81.473 0 0)
(81.5518 0 0)
(81.6305 0 0)
(81.7093 0 0)
(81.788 0 0)
(81.8668 0 0)
(81.9455 0 0)
(82.0243 0 0)
(82.103 0 0)
(82.1818 0 0)
(82.2605 0 0)
(82.3393 0 0)
(82.418 0 0)
(82.4968 0 0)
(82.5756 0 0)
(82.6543 0 0)
(82.7331 0 0)
(82.8118 0 0)
(82.8906 0 0)
(82.9693 0 0)
(83.0481 0 0)
(83.1268 0 0)
(83.2056 0 0)
(83.2844 0 0)
(83.3631 0 0)
(83.4419 0 0)
(83.5206 0 0)
(83.5994 0 0)
(83.6781 0 0)
(83.7569 0 0)
(83.8357 0 0)
(83.9144 0 0)
(83.9932 0 0)
(84.0719 0 0)
(84.1507 0 0)
(84.2295 0 0)
(84.3082 0 0)
(84.387 0 0)
(84.4657 0 0)
(84.5445 0 0)
(84.6233 0 0)
(84.702 0 0)
(84.7808 0 0)
(84.8595 0 0)
(84.9383 0 0)
(85.0171 0 0)
(85.0958 0 0)
(85.1746 0 0)
(85.2534 0 0)
(85.3321 0 0)
(85.4109 0 0)
(85.4896 0 0)
(85.5684 0 0)
(85.6472 0 0)
(85.7259 0 0)
(85.8047 0 0)
(85.8835 0 0)
(85.9622 0 0)
(86.041 0 0)
(86.1198 0 0)
(86.1985 0 0)
(86.2773 0 0)
(86.3561 0 0)
(86.4348 0 0)
(86.5136 0 0)
(86.5924 0 0)
(86.6711 0 0)
(86.7499 0 0)
(86.8287 0 0)
(86.9074 0 0)
(86.9862 0 0)
(87.065 0 0)
(87.1438 0 0)
(87.2225 0 0)
(87.3013 0 0)
(87.3801 0 0)
(87.4588 0 0)
(87.5376 0 0)
(87.6164 0 0)
(87.6951 0 0)
(87.7739 0 0)
(87.8527 0 0)
(87.9315 0 0)
(88.0102 0 0)
(88.089 0 0)
(88.1678 0 0)
(88.2465 0 0)
(88.3253 0 0)
(88.4041 0 0)
(88.4829 0 0)
(88.5616 0 0)
(88.6404 0 0)
(88.7192 0 0)
(88.798 0 0)
(88.8767 0 0)
(88.9555 0 0)
(89.0343 0 0)
(89.1131 0 0)
(89.1918 0 0)
(89.2706 0 0)
(89.3494 0 0)
(89.4282 0 0)
(89.507 0 0)
(89.5857 0 0)
(89.6645 0 0)
(89.7433 0 0)
(89.8221 0 0)
(89.9008 0 0)
(89.9796 0 0)
(90.0584 0 0)
(90.1372 0 0)
(90.216 0 0)
(90.2947 0 0)
(90.3735 0 0)
(90.4523 0 0)
(90.5311 0 0)
(90.6099 0 0)
(90.6886 0 0)
(90.7674 0 0)
(90.8462 0 0)
(90.925 0 0)
(91.0038 0 0)
(91.0825 0 0)
(91.1613 0 0)
(91.2401 0 0)
(91.3189 0 0)
(91.3977 0 0)
(91.4765 0 0)
(91.5552 0 0)
(91.634 0 0)
(91.7128 0 0)
(91.7916 0 0)
(91.8704 0 0)
(91.9492 0 0)
(92.0279 0 0)
(92.1067 0 0)
(92.1855 0 0)
(92.2643 0 0)
(92.3431 0 0)
(92.4219 0 0)
(92.5007 0 0)
(92.5795 0 0)
(92.6582 0 0)
(92.737 0 0)
(92.8158 0 0)
(92.8946 0 0)
(92.9734 0 0)
(93.0522 0 0)
(93.131 0 0)
(93.2098 0 0)
(93.2885 0 0)
(93.3673 0 0)
(93.4461 0 0)
(93.5249 0 0)
(93.6037 0 0)
(93.6825 0 0)
(93.7613 0 0)
(93.8401 0 0)
(93.9189 0 0)
(93.9977 0 0)
(94.0764 0 0)
(94.1552 0 0)
(94.234 0 0)
(94.3128 0 0)
(94.3916 0 0)
(94.4704 0 0)
(94.5492 0 0)
(94.628 0 0)
(94.7068 0 0)
(94.7856 0 0)
(94.8644 0 0)
(94.9432 0 0)
(95.022 0 0)
(95.1008 0 0)
(95.1796 0 0)
(95.2584 0 0)
(95.3371 0 0)
(95.4159 0 0)
(95.4947 0 0)
(95.5735 0 0)
(95.6523 0 0)
(95.7311 0 0)
(95.8099 0 0)
(95.8887 0 0)
(95.9675 0 0)
(96.0463 0 0)
(96.1251 0 0)
(96.2039 0 0)
(96.2827 0 0)
(96.3615 0 0)
(96.4403 0 0)
(96.5191 0 0)
(96.5979 0 0)
(96.6767 0 0)
(96.7555 0 0)
(96.8343 0 0)
(96.9131 0 0)
(96.9919 0 0)
(97.0707 0 0)
(97.1495 0 0)
(97.2283 0 0)
(97.3071 0 0)
(97.3859 0 0)
(97.4647 0 0)
(97.5435 0 0)
(97.6223 0 0)
(97.7011 0 0)
(97.7799 0 0)
(97.8587 0 0)
(97.9375 0 0)
(98.0163 0 0)
(98.0951 0 0)
(98.1739 0 0)
(98.2527 0 0)
(98.3314 0 0)
(98.4102 0 0)
(98.489 0 0)
(98.5678 0 0)
(98.6466 0 0)
(98.7254 0 0)
(98.8041 0 0)
(98.8829 0 0)
(98.9617 0 0)
(99.0405 0 0)
(99.1193 0 0)
(99.198 0 0)
(99.2768 0 0)
(99.3556 0 0)
(99.4344 0 0)
(99.5131 0 0)
(99.5919 0 0)
(99.6706 0 0)
(99.7494 0 0)
(99.8281 0 0)
(99.9067 0 0)
(99.9853 0 0)
(100.064 0 0)
(100.142 0 0)
(100.221 0 0)
(100.299 0 0)
(100.378 0 0)
(100.456 0 0)
(100.534 0 0)
(100.612 0 0)
(100.69 0 0)
(100.768 0 0)
(100.845 0 0)
(100.923 0 0)
(101.001 0 0)
(101.078 0 0)
(101.156 0 0)
(101.233 0 0)
(101.31 0 0)
(101.388 0 0)
(101.465 0 0)
(101.542 0 0)
(101.62 0 0)
(101.697 0 0)
(101.775 0 0)
(101.852 0 0)
(101.93 0 0)
(102.008 0 0)
(102.086 0 0)
(102.164 0 0)
(102.242 0 0)
(102.321 0 0)
(102.399 0 0)
(102.477 0 0)
(102.554 0 0)
(102.632 0 0)
(102.709 0 0)
(102.787 0 0)
(102.864 0 0)
(102.94 0 0)
(103.017 0 0)
(103.093 0 0)
(103.169 0 0)
(103.244 0 0)
(103.32 0 0)
(103.395 0 0)
(103.47 0 0)
(103.545 0 0)
(103.62 0 0)
(103.695 0 0)
(103.77 0 0)
(103.846 0 0)
(103.921 0 0)
(103.996 0 0)
(104.072 0 0)
(104.148 0 0)
(104.225 0 0)
(104.302 0 0)
(104.379 0 0)
(104.458 0 0)
(104.536 0 0)
(104.615 0 0)
(104.695 0 0)
(104.775 0 0)
(104.855 0 0)
(104.935 0 0)
(105.015 0 0)
(105.094 0 0)
(105.174 0 0)
(105.253 0 0)
(105.332 0 0)
(105.41 0 0)
(105.489 0 0)
(105.566 0 0)
(105.644 0 0)
(105.721 0 0)
(105.798 0 0)
(105.874 0 0)
(105.95 0 0)
(106.026 0 0)
(106.102 0 0)
(106.177 0 0)
(106.253 0 0)
(106.328 0 0)
(106.404 0 0)
(106.48 0 0)
(106.556 0 0)
(106.632 0 0)
(106.708 0 0)
(106.785 0 0)
(106.862 0 0)
(106.94 0 0)
(107.019 0 0)
(107.098 0 0)
(107.178 0 0)
(107.258 0 0)
(107.339 0 0)
(107.42 0 0)
(107.501 0 0)
(107.582 0 0)
(107.663 0 0)
(107.745 0 0)
(107.826 0 0)
(107.907 0 0)
(107.987 0 0)
(108.068 0 0)
(108.148 0 0)
(108.228 0 0)
(108.308 0 0)
(108.387 0 0)
(108.466 0 0)
(108.545 0 0)
(108.624 0 0)
(108.702 0 0)
(108.78 0 0)
(108.858 0 0)
(108.935 0 0)
(109.012 0 0)
(109.09 0 0)
(109.166 0 0)
(109.243 0 0)
(109.32 0 0)
(109.397 0 0)
(109.473 0 0)
(109.55 0 0)
(109.627 0 0)
(109.703 0 0)
(109.78 0 0)
(109.857 0 0)
(109.934 0 0)
(110.012 0 0)
(110.09 0 0)
(110.168 0 0)
(110.247 0 0)
(110.326 0 0)
(110.406 0 0)
(110.486 0 0)
(110.566 0 0)
(110.647 0 0)
(110.728 0 0)
(110.809 0 0)
(110.89 0 0)
(110.971 0 0)
(111.052 0 0)
(111.133 0 0)
(111.214 0 0)
(111.294 0 0)
(111.375 0 0)
(111.455 0 0)
(111.535 0 0)
(111.615 0 0)
(111.695 0 0)
(111.775 0 0)
(111.854 0 0)
(111.933 0 0)
(112.013 0 0)
(112.091 0 0)
(112.17 0 0)
(112.248 0 0)
(112.327 0 0)
(112.405 0 0)
(112.483 0 0)
(112.56 0 0)
(112.638 0 0)
(112.715 0 0)
(112.793 0 0)
(112.87 0 0)
(112.947 0 0)
(113.024 0 0)
(113.102 0 0)
(113.179 0 0)
(113.256 0 0)
(113.333 0 0)
(113.41 0 0)
(113.488 0 0)
(113.565 0 0)
(113.643 0 0)
(113.721 0 0)
(113.799 0 0)
(113.877 0 0)
(113.956 0 0)
(114.035 0 0)
(114.115 0 0)
(114.195 0 0)
(114.275 0 0)
(114.355 0 0)
(114.436 0 0)
(114.516 0 0)
(114.597 0 0)
(114.678 0 0)
(114.759 0 0)
(114.84 0 0)
(114.92 0 0)
(115.001 0 0)
(115.082 0 0)
(115.162 0 0)
(115.243 0 0)
(115.323 0 0)
(115.403 0 0)
(115.483 0 0)
(115.563 0 0)
(115.643 0 0)
(115.722 0 0)
(115.802 0 0)
(115.881 0 0)
(115.96 0 0)
(116.039 0 0)
(116.118 0 0)
(116.197 0 0)
(116.275 0 0)
(116.354 0 0)
(116.432 0 0)
(116.51 0 0)
(116.588 0 0)
(116.666 0 0)
(116.744 0 0)
(116.821 0 0)
(116.899 0 0)
(116.976 0 0)
(117.054 0 0)
(117.131 0 0)
(117.208 0 0)
(117.285 0 0)
(117.362 0 0)
(117.44 0 0)
(117.517 0 0)
(117.594 0 0)
(117.672 0 0)
(117.749 0 0)
(117.827 0 0)
(117.905 0 0)
(117.983 0 0)
(118.061 0 0)
(118.14 0 0)
(118.219 0 0)
(118.298 0 0)
(118.377 0 0)
(118.457 0 0)
(118.537 0 0)
(118.617 0 0)
(118.698 0 0)
(118.779 0 0)
(118.859 0 0)
(118.94 0 0)
(119.021 0 0)
(119.102 0 0)
(119.183 0 0)
(119.264 0 0)
(119.344 0 0)
(119.425 0 0)
(119.506 0 0)
(119.586 0 0)
(119.667 0 0)
(119.747 0 0)
(119.827 0 0)
(119.907 0 0)
(119.987 0 0)
(120.067 0 0)
(120.147 0 0)
(120.227 0 0)
(120.306 0 0)
(120.386 0 0)
(120.465 0 0)
(120.544 0 0)
(120.623 0 0)
(120.702 0 0)
(120.781 0 0)
(120.86 0 0)
(120.938 0 0)
(121.017 0 0)
(121.095 0 0)
(121.173 0 0)
(121.251 0 0)
(121.329 0 0)
(121.407 0 0)
(121.485 0 0)
(121.562 0 0)
(121.64 0 0)
(121.717 0 0)
(121.795 0 0)
(121.872 0 0)
(121.949 0 0)
(122.026 0 0)
(122.103 0 0)
(122.18 0 0)
(122.257 0 0)
(122.335 0 0)
(122.412 0 0)
(122.489 0 0)
(122.566 0 0)
(122.643 0 0)
(122.721 0 0)
(122.799 0 0)
(122.877 0 0)
(122.955 0 0)
(123.034 0 0)
(123.113 0 0)
(123.192 0 0)
(123.271 0 0)
(123.351 0 0)
(123.431 0 0)
(123.512 0 0)
(123.592 0 0)
(123.673 0 0)
(123.754 0 0)
(123.835 0 0)
(123.916 0 0)
(123.997 0 0)
(124.078 0 0)
(124.159 0 0)
(124.24 0 0)
(124.321 0 0)
(124.402 0 0)
(124.483 0 0)
(124.564 0 0)
(124.645 0 0)
(124.726 0 0)
(124.806 0 0)
(124.887 0 0)
(124.967 0 0)
(125.048 0 0)
(125.128 0 0)
(125.208 0 0)
(125.288 0 0)
(125.368 0 0)
(125.448 0 0)
(125.528 0 0)
(125.608 0 0)
(125.688 0 0)
(125.767 0 0)
(125.847 0 0)
(125.926 0 0)
(126.005 0 0)
(126.085 0 0)
(126.164 0 0)
(126.243 0 0)
(126.322 0 0)
(126.4 0 0)
(126.479 0 0)
(126.558 0 0)
(126.636 0 0)
(126.715 0 0)
(126.793 0 0)
(126.871 0 0)
(126.949 0 0)
(127.027 0 0)
(127.105 0 0)
(127.182 0 0)
(127.26 0 0)
(127.337 0 0)
(127.415 0 0)
(127.492 0 0)
(127.569 0 0)
(127.646 0 0)
(127.723 0 0)
(127.8 0 0)
(127.877 0 0)
(127.954 0 0)
(128.031 0 0)
(128.108 0 0)
(128.185 0 0)
(128.262 0 0)
(128.339 0 0)
(128.417 0 0)
(128.494 0 0)
(128.572 0 0)
(128.65 0 0)
(128.729 0 0)
(128.808 0 0)
(128.887 0 0)
(128.966 0 0)
(129.046 0 0)
(129.126 0 0)
(129.207 0 0)
(129.287 0 0)
(129.368 0 0)
(129.449 0 0)
(129.531 0 0)
(129.612 0 0)
(129.694 0 0)
(129.775 0 0)
(129.857 0 0)
(129.938 0 0)
(130.02 0 0)
(130.102 0 0)
(130.183 0 0)
(130.265 0 0)
(130.346 0 0)
(130.427 0 0)
(130.509 0 0)
(130.59 0 0)
(130.672 0 0)
(130.753 0 0)
(130.834 0 0)
(130.915 0 0)
(130.997 0 0)
(131.078 0 0)
(131.159 0 0)
(131.24 0 0)
(131.321 0 0)
(131.402 0 0)
(131.483 0 0)
(131.564 0 0)
(131.645 0 0)
(131.726 0 0)
(131.807 0 0)
(131.888 0 0)
(131.969 0 0)
(132.05 0 0)
(132.13 0 0)
(132.211 0 0)
(132.292 0 0)
(132.372 0 0)
(132.453 0 0)
(132.533 0 0)
(132.614 0 0)
(132.694 0 0)
(132.775 0 0)
(132.855 0 0)
(132.936 0 0)
(133.016 0 0)
(133.096 0 0)
(133.177 0 0)
(133.257 0 0)
(133.337 0 0)
(133.418 0 0)
(133.498 0 0)
(133.578 0 0)
(133.658 0 0)
(133.738 0 0)
(133.818 0 0)
(133.899 0 0)
(133.979 0 0)
(134.059 0 0)
(134.139 0 0)
(134.219 0 0)
(134.298 0 0)
(134.378 0 0)
(134.458 0 0)
(134.538 0 0)
(134.618 0 0)
(134.698 0 0)
(134.777 0 0)
(134.857 0 0)
(134.937 0 0)
(135.016 0 0)
(135.096 0 0)
(135.176 0 0)
(135.255 0 0)
(135.335 0 0)
(135.414 0 0)
(135.493 0 0)
(135.573 0 0)
(135.652 0 0)
(135.731 0 0)
(135.811 0 0)
(135.89 0 0)
(135.969 0 0)
(136.048 0 0)
(136.127 0 0)
(136.206 0 0)
(136.285 0 0)
(136.364 0 0)
(136.442 0 0)
(136.521 0 0)
(136.6 0 0)
(136.679 0 0)
(136.757 0 0)
(136.836 0 0)
(136.915 0 0)
(136.993 0 0)
(137.072 0 0)
(137.15 0 0)
(137.229 0 0)
(137.308 0 0)
(137.386 0 0)
(137.465 0 0)
(137.544 0 0)
(137.623 0 0)
(137.702 0 0)
(137.781 0 0)
(137.86 0 0)
(137.939 0 0)
(138.018 0 0)
(138.097 0 0)
(138.176 0 0)
(138.255 0 0)
(138.334 0 0)
(138.413 0 0)
(138.492 0 0)
(138.571 0 0)
(138.65 0 0)
(138.729 0 0)
(138.808 0 0)
(138.887 0 0)
(138.965 0 0)
(139.044 0 0)
(139.122 0 0)
(139.2 0 0)
(139.278 0 0)
(139.356 0 0)
(139.434 0 0)
(139.511 0 0)
(139.589 0 0)
(139.666 0 0)
(139.743 0 0)
(139.82 0 0)
(139.896 0 0)
(139.973 0 0)
(140.049 0 0)
(140.125 0 0)
(140.202 0 0)
(140.278 0 0)
(140.354 0 0)
(140.43 0 0)
(140.506 0 0)
(140.583 0 0)
(140.659 0 0)
(140.736 0 0)
(140.813 0 0)
(140.89 0 0)
(140.968 0 0)
(141.047 0 0)
(141.125 0 0)
(141.204 0 0)
(141.284 0 0)
(141.364 0 0)
(141.444 0 0)
(141.524 0 0)
(141.604 0 0)
(141.684 0 0)
(141.765 0 0)
(141.845 0 0)
(141.925 0 0)
(142.005 0 0)
(142.085 0 0)
(142.165 0 0)
(142.245 0 0)
(142.324 0 0)
(142.403 0 0)
(142.483 0 0)
(142.562 0 0)
(142.641 0 0)
(142.719 0 0)
(142.798 0 0)
(142.876 0 0)
(142.954 0 0)
(143.032 0 0)
(143.109 0 0)
(143.187 0 0)
(143.264 0 0)
(143.341 0 0)
(143.418 0 0)
(143.495 0 0)
(143.571 0 0)
(143.648 0 0)
(143.724 0 0)
(143.801 0 0)
(143.878 0 0)
(143.954 0 0)
(144.031 0 0)
(144.108 0 0)
(144.186 0 0)
(144.264 0 0)
(144.342 0 0)
(144.42 0 0)
(144.499 0 0)
(144.579 0 0)
(144.658 0 0)
(144.738 0 0)
(144.818 0 0)
(144.899 0 0)
(144.979 0 0)
(145.059 0 0)
(145.14 0 0)
(145.22 0 0)
(145.3 0 0)
(145.38 0 0)
(145.46 0 0)
(145.54 0 0)
(145.62 0 0)
(145.7 0 0)
(145.779 0 0)
(145.858 0 0)
(145.938 0 0)
(146.017 0 0)
(146.095 0 0)
(146.174 0 0)
(146.252 0 0)
(146.33 0 0)
(146.408 0 0)
(146.486 0 0)
(146.564 0 0)
(146.641 0 0)
(146.719 0 0)
(146.796 0 0)
(146.873 0 0)
(146.95 0 0)
(147.027 0 0)
(147.104 0 0)
(147.181 0 0)
(147.258 0 0)
(147.336 0 0)
(147.413 0 0)
(147.491 0 0)
(147.569 0 0)
(147.647 0 0)
(147.726 0 0)
(147.805 0 0)
(147.885 0 0)
(147.965 0 0)
(148.045 0 0)
(148.125 0 0)
(148.205 0 0)
(148.286 0 0)
(148.366 0 0)
(148.446 0 0)
(148.527 0 0)
(148.607 0 0)
(148.687 0 0)
(148.767 0 0)
(148.847 0 0)
(148.926 0 0)
(149.006 0 0)
(149.085 0 0)
(149.165 0 0)
(149.244 0 0)
(149.323 0 0)
(149.401 0 0)
(149.48 0 0)
(149.558 0 0)
(149.636 0 0)
(149.714 0 0)
(149.791 0 0)
(149.869 0 0)
(149.946 0 0)
(150.023 0 0)
(150.1 0 0)
(150.177 0 0)
(150.254 0 0)
(150.331 0 0)
(150.408 0 0)
(150.485 0 0)
(150.562 0 0)
(150.639 0 0)
(150.717 0 0)
(150.795 0 0)
(150.873 0 0)
(150.952 0 0)
(151.031 0 0)
(151.11 0 0)
(151.19 0 0)
(151.27 0 0)
(151.35 0 0)
(151.431 0 0)
(151.511 0 0)
(151.592 0 0)
(151.673 0 0)
(151.753 0 0)
(151.834 0 0)
(151.914 0 0)
(151.994 0 0)
(152.074 0 0)
(152.154 0 0)
(152.234 0 0)
(152.314 0 0)
(152.394 0 0)
(152.473 0 0)
(152.552 0 0)
(152.631 0 0)
(152.709 0 0)
(152.788 0 0)
(152.866 0 0)
(152.944 0 0)
(153.021 0 0)
(153.099 0 0)
(153.176 0 0)
(153.253 0 0)
(153.33 0 0)
(153.407 0 0)
(153.484 0 0)
(153.56 0 0)
(153.637 0 0)
(153.713 0 0)
(153.79 0 0)
(153.867 0 0)
(153.944 0 0)
(154.021 0 0)
(154.099 0 0)
(154.177 0 0)
(154.255 0 0)
(154.334 0 0)
(154.414 0 0)
(154.494 0 0)
(154.574 0 0)
(154.654 0 0)
(154.735 0 0)
(154.816 0 0)
(154.897 0 0)
(154.978 0 0)
(155.059 0 0)
(155.139 0 0)
(155.22 0 0)
(155.301 0 0)
(155.381 0 0)
(155.461 0 0)
(155.541 0 0)
(155.621 0 0)
(155.701 0 0)
(155.781 0 0)
(155.86 0 0)
(155.939 0 0)
(156.018 0 0)
(156.096 0 0)
(156.175 0 0)
(156.253 0 0)
(156.331 0 0)
(156.408 0 0)
(156.485 0 0)
(156.562 0 0)
(156.639 0 0)
(156.716 0 0)
(156.793 0 0)
(156.869 0 0)
(156.945 0 0)
(157.022 0 0)
(157.098 0 0)
(157.175 0 0)
(157.251 0 0)
(157.328 0 0)
(157.405 0 0)
(157.483 0 0)
(157.561 0 0)
(157.639 0 0)
(157.718 0 0)
(157.798 0 0)
(157.878 0 0)
(157.958 0 0)
(158.039 0 0)
(158.12 0 0)
(158.201 0 0)
(158.282 0 0)
(158.363 0 0)
(158.444 0 0)
(158.525 0 0)
(158.606 0 0)
(158.686 0 0)
(158.767 0 0)
(158.847 0 0)
(158.928 0 0)
(159.008 0 0)
(159.088 0 0)
(159.168 0 0)
(159.247 0 0)
(159.326 0 0)
(159.405 0 0)
(159.484 0 0)
(159.563 0 0)
(159.641 0 0)
(159.719 0 0)
(159.797 0 0)
(159.874 0 0)
(159.951 0 0)
(160.028 0 0)
(160.105 0 0)
(160.181 0 0)
(160.258 0 0)
(160.334 0 0)
(160.41 0 0)
(160.486 0 0)
(160.563 0 0)
(160.639 0 0)
(160.715 0 0)
(160.792 0 0)
(160.869 0 0)
(160.947 0 0)
(161.025 0 0)
(161.104 0 0)
(161.183 0 0)
(161.262 0 0)
(161.342 0 0)
(161.423 0 0)
(161.504 0 0)
(161.585 0 0)
(161.666 0 0)
(161.747 0 0)
(161.828 0 0)
(161.909 0 0)
(161.99 0 0)
(162.071 0 0)
(162.152 0 0)
(162.233 0 0)
(162.313 0 0)
(162.394 0 0)
(162.474 0 0)
(162.554 0 0)
(162.634 0 0)
(162.713 0 0)
(162.793 0 0)
(162.872 0 0)
(162.951 0 0)
(163.029 0 0)
(163.108 0 0)
(163.186 0 0)
(163.263 0 0)
(163.341 0 0)
(163.418 0 0)
(163.495 0 0)
(163.572 0 0)
(163.648 0 0)
(163.725 0 0)
(163.801 0 0)
(163.877 0 0)
(163.953 0 0)
(164.029 0 0)
(164.105 0 0)
(164.182 0 0)
(164.258 0 0)
(164.335 0 0)
(164.412 0 0)
(164.49 0 0)
(164.568 0 0)
(164.647 0 0)
(164.726 0 0)
(164.806 0 0)
(164.886 0 0)
(164.967 0 0)
(165.048 0 0)
(165.129 0 0)
(165.21 0 0)
(165.291 0 0)
(165.372 0 0)
(165.454 0 0)
(165.535 0 0)
(165.615 0 0)
(165.696 0 0)
(165.777 0 0)
(165.857 0 0)
(165.938 0 0)
(166.018 0 0)
(166.098 0 0)
(166.178 0 0)
(166.257 0 0)
(166.337 0 0)
(166.416 0 0)
(166.495 0 0)
(166.573 0 0)
(166.652 0 0)
(166.73 0 0)
(166.807 0 0)
(166.885 0 0)