/*--------------------------------*- C++ -*----------------------------------*\
  =========                 |
  \\      /  F ield         | OpenFOAM: The Open Source CFD Toolbox
   \\    /   O peration     | Website:  https://openfoam.org
    \\  /    A nd           | Version:  9
     \\/     M anipulation  |
\*---------------------------------------------------------------------------*/
FoamFile
{
    format      ascii;
    class       volScalarField;
    location    "0.008";
    object      ddt0(rho);
}
// * * * * * * * * * * * * * * * * * * * * * * * * * * * * * * * * * * * * * //

dimensions      [1 -3 -1 0 0 0 0];

internalField   nonuniform List<scalar> 
10000
(
-3.60385e-10
-6.69612e-10
-9.13979e-10
-1.14694e-09
-2.64324e-11
-1.56599e-10
-4.0733e-10
4.24677e-10
4.26339e-10
-4.44565e-10
6.96846e-10
7.50759e-10
2.4271e-10
-8.28935e-12
2.72372e-11
1.85038e-10
-3.92032e-10
6.58702e-11
9.86333e-10
1.39834e-10
-4.42572e-10
5.60504e-11
-7.42324e-10
4.55185e-11
1.91847e-10
1.7445e-09
7.54332e-10
-4.81521e-10
3.2436e-10
-8.14282e-10
-2.48707e-10
-3.56951e-10
-6.63491e-11
-2.37054e-10
-6.543e-10
-4.77021e-10
-6.36786e-10
-6.48667e-10
-1.09387e-09
-6.33401e-10
8.95075e-11
-1.89291e-10
2.23362e-10
1.72574e-10
3.61106e-10
-9.53986e-10
7.24061e-10
3.85997e-10
1.21169e-12
2.08121e-10
5.34904e-10
5.91606e-10
3.59053e-10
4.1197e-10
8.51607e-10
-2.25005e-11
-1.91536e-10
-5.86595e-11
6.08147e-10
2.75957e-10
6.72523e-12
-7.28418e-10
-2.22094e-10
-2.98422e-10
-1.52913e-11
-2.40257e-11
-4.47337e-10
-2.02286e-10
-4.11363e-10
2.78395e-10
-5.58427e-10
-4.76204e-10
-2.42769e-10
-6.4806e-10
8.66327e-10
5.09502e-10
4.52898e-10
-2.47436e-11
3.9705e-10
-2.55154e-10
1.47788e-11
3.78554e-10
-3.65615e-10
-1.16547e-12
2.41514e-10
6.81386e-10
-4.15523e-11
6.52787e-10
-4.32947e-10
3.55912e-11
-3.69195e-10
-4.37827e-11
-1.48572e-10
4.51124e-10
9.11625e-12
9.32512e-10
1.18047e-10
2.51869e-10
3.31147e-11
-2.54293e-10
-1.83908e-10
-6.11037e-11
-9.62306e-11
2.32883e-10
-9.06223e-10
-3.87987e-10
-9.12434e-10
-2.25272e-10
-7.07544e-10
-2.15478e-10
6.4238e-11
3.07288e-10
1.64275e-10
1.62562e-10
-4.03522e-10
-2.81274e-10
1.82372e-11
-1.88752e-10
-1.24801e-10
-4.17593e-10
-1.43342e-10
-4.8573e-11
-7.63153e-10
-2.03722e-09
-6.566e-10
-1.15327e-09
-1.50152e-10
4.3573e-10
-1.62165e-10
4.23447e-10
-2.51689e-10
1.18342e-11
2.58886e-10
4.01237e-10
2.09818e-10
9.07718e-10
3.98646e-10
7.15637e-10
4.12991e-10
1.59762e-10
1.70178e-10
9.49943e-12
1.39393e-10
-2.54123e-10
2.64627e-10
-6.66997e-10
2.08091e-10
-1.12274e-09
6.47597e-10
2.88805e-11
5.85931e-10
3.85942e-10
-6.68465e-10
3.88984e-10
-3.86791e-11
4.26699e-10
-2.53342e-10
6.1997e-10
-4.49342e-10
6.38909e-10
-1.23842e-11
-2.75071e-10
7.00374e-10
1.76565e-10
-7.37304e-10
-1.09129e-09
-4.04504e-10
-6.46826e-10
-1.05503e-11
-1.36048e-09
-6.51423e-10
9.36355e-11
-3.09962e-10
4.2485e-10
-4.62847e-10
-3.35301e-11
1.72313e-11
-7.17229e-10
1.21409e-10
-1.57452e-10
7.46345e-11
-4.68718e-10
1.77555e-10
-2.38839e-10
4.29381e-10
-6.22306e-10
-1.27267e-09
1.86917e-10
-8.22294e-10
2.4407e-10
3.83776e-11
1.70848e-10
1.09999e-09
-3.79363e-10
-1.45514e-11
3.05136e-10
6.44938e-10
-4.15959e-11
1.3106e-09
6.7398e-10
4.19677e-10
6.90911e-10
3.72362e-11
-2.60877e-10
1.16379e-09
1.13139e-09
5.27533e-10
1.47751e-10
4.60082e-10
6.10319e-10
5.16756e-12
4.74303e-10
7.95345e-10
4.71893e-10
1.17152e-09
3.6286e-11
1.84613e-10
2.75954e-10
7.09247e-10
-4.32136e-10
-6.80255e-10
-4.91283e-10
1.92086e-10
-5.42166e-10
-5.8613e-10
-1.55541e-10
2.91732e-10
2.92942e-10
-1.15673e-09
1.13192e-11
-4.59901e-10
-2.03732e-10
5.56928e-10
-2.71108e-10
-6.47717e-10
-2.38475e-10
-2.63347e-10
2.3258e-10
1.80605e-10
4.85462e-10
9.91679e-10
8.48654e-10
1.85227e-10
-1.85507e-10
2.94863e-10
3.50651e-11
4.40858e-10
2.43203e-10
1.65256e-10
-6.21157e-10
-6.33616e-10
-1.00849e-09
3.6943e-11
-5.89462e-10
-3.94367e-10
-6.72286e-10
-6.94579e-10
1.95339e-10
-3.04034e-10
-7.54052e-11
-8.83091e-12
2.06025e-10
-8.89115e-10
4.3296e-10
2.24425e-10
-2.20874e-10
5.02631e-11
6.94012e-10
2.53785e-10
8.74311e-10
-4.15117e-10
-4.61531e-10
-5.81561e-10
5.11171e-11
4.88538e-10
1.06968e-09
6.43202e-10
-4.63972e-10
-2.0174e-10
6.9195e-10
-2.15477e-10
3.79814e-11
4.66149e-10
4.60667e-10
-2.60044e-10
-9.07717e-10
-7.93037e-10
-2.57914e-10
3.0872e-12
1.14302e-10
3.32152e-11
1.00205e-10
-4.05891e-10
-4.84796e-10
6.26339e-12
-2.15959e-10
-1.15876e-09
-9.27841e-10
-9.53158e-11
-2.02865e-10
-8.84906e-10
-6.7031e-10
-9.83968e-10
-8.70164e-10
1.13068e-09
-2.95223e-11
-5.69096e-10
4.246e-10
9.13211e-10
-4.26064e-12
-1.19814e-10
5.20878e-10
6.76194e-10
-2.01583e-10
3.36577e-10
-6.27744e-11
1.07936e-11
-5.30673e-10
5.29327e-10
-1.3292e-10
1.02787e-09
4.72675e-10
2.0365e-10
4.37556e-10
5.01142e-10
1.43367e-10
-3.18793e-10
8.97266e-10
-7.13175e-10
2.73173e-12
6.66613e-10
-6.45802e-10
-3.80847e-12
-6.27657e-10
1.68464e-10
5.11763e-10
7.44539e-11
-4.24716e-10
3.98863e-11
-8.67987e-10
-2.22341e-10
4.3132e-10
2.10377e-10
-3.82234e-10
-2.38718e-10
-4.60368e-10
-1.67132e-11
-6.96596e-10
-5.46032e-10
1.69765e-10
-3.30208e-11
-2.17123e-10
5.80049e-11
-3.25328e-11
8.84646e-10
-4.20845e-11
-1.22168e-10
4.51582e-10
6.56719e-10
1.29821e-09
-3.43574e-10
-2.51836e-10
2.50514e-10
-7.13721e-10
-8.17657e-10
-3.75226e-11
-2.23252e-10
-6.42823e-10
4.11043e-10
-6.49631e-10
-5.78055e-11
-5.02279e-10
-4.22354e-10
-6.624e-10
1.80806e-11
-2.5307e-10
-1.29266e-10
1.21233e-11
-2.50001e-10
-2.66433e-10
-7.73438e-10
3.90829e-10
1.93508e-10
6.87699e-10
1.61686e-10
-4.7724e-10
-6.28976e-11
4.71829e-10
2.18545e-10
-1.69645e-10
7.38699e-10
1.30873e-10
-2.20003e-10
4.1685e-10
1.13035e-09
6.46842e-10
-1.56665e-10
-1.16596e-09
-3.90528e-10
1.48703e-10
6.9869e-12
9.41027e-10
-2.92899e-11
-2.47122e-10
1.69917e-10
4.65435e-10
1.60537e-09
-1.39285e-09
-2.88122e-11
-2.01594e-10
-2.65062e-10
8.02995e-12
-3.98559e-10
1.48317e-10
3.73167e-10
4.19119e-10
4.51086e-10
9.28474e-10
-8.22965e-10
-8.16929e-10
4.6196e-10
3.16668e-10
-1.01151e-10
-2.89667e-10
4.27263e-12
1.66121e-10
-1.44582e-10
-1.48066e-10
-7.63162e-10
2.48774e-10
-1.76809e-10
9.34926e-12
-7.09391e-11
6.67248e-10
-4.28315e-10
-9.65737e-11
9.31721e-10
5.09691e-11
-2.03968e-10
8.92137e-10
-1.92481e-10
8.30586e-10
-4.56577e-10
3.75103e-10
3.19376e-10
1.33367e-10
2.99803e-11
3.94026e-10
3.0801e-11
3.15201e-10
2.89796e-11
-2.28768e-10
2.21516e-10
4.17371e-10
1.97061e-11
-7.07849e-10
-4.75679e-10
2.83471e-12
4.45541e-10
6.33829e-10
-4.1609e-11
-8.99088e-10
-2.05995e-10
-4.663e-10
-1.86415e-10
-5.50218e-10
-1.83632e-10
4.8552e-10
-4.73939e-10
1.53801e-11
8.41259e-10
4.78716e-10
-5.01289e-11
2.62425e-10
-8.15683e-10
-6.84922e-10
-6.86574e-10
-8.90882e-10
-1.80742e-10
-1.06319e-09
-1.77949e-09
-6.34077e-10
-7.37949e-10
-2.4086e-10
6.64659e-10
-2.25299e-10
8.37957e-11
-1.34925e-10
1.33316e-10
2.83168e-10
2.25459e-10
4.21622e-10
-2.69673e-11
2.26372e-10
9.19363e-10
2.79168e-11
1.59216e-10
2.99368e-10
-3.85764e-10
-1.99976e-11
-1.53951e-10
-3.79681e-11
3.15845e-10
6.94838e-10
5.21139e-10
-1.11009e-10
5.64154e-10
7.64135e-10
1.05709e-09
9.50511e-10
1.06572e-10
-9.53004e-11
8.54172e-10
7.48076e-10
-4.6479e-10
2.3518e-10
2.03095e-10
-3.915e-10
9.02431e-10
4.40749e-10
7.46281e-10
1.03508e-10
-4.10515e-11
4.69077e-10
-1.28583e-11
-6.35541e-10
5.82169e-10
2.48092e-10
-5.23587e-10
1.46339e-10
9.30711e-10
1.915e-11
-1.39581e-09
1.80064e-10
-7.04724e-10
-1.99723e-11
-6.59789e-10
-8.79778e-10
-5.28591e-10
-1.40377e-09
-7.39692e-10
-5.81442e-10
3.79648e-10
-7.86071e-10
-1.58292e-09
-7.31491e-10
4.59974e-10
-6.1315e-10
2.60987e-10
4.51515e-10
-3.14539e-10
-2.10042e-10
4.79215e-10
2.86853e-10
7.40843e-10
-4.58843e-11
9.90203e-10
1.58185e-09
7.30556e-10
5.01076e-10
-4.11243e-10
9.15724e-10
4.23629e-10
-4.47878e-10
5.14773e-10
1.74218e-10
-1.48495e-10
6.27836e-10
-1.71035e-10
8.26109e-10
-6.72596e-10
-7.00086e-10
-4.74432e-10
-2.01504e-10
-1.54919e-09
-7.3115e-10
-8.61075e-10
-1.37733e-09
-1.01055e-09
-6.14871e-10
-3.3822e-10
-6.44293e-10
-1.80783e-10
-9.42691e-10
-8.32684e-10
-2.82634e-10
4.30441e-10
3.56742e-10
8.66165e-10
-2.27676e-10
-1.21876e-10
-4.92986e-10
1.29663e-10
2.17606e-10
6.94684e-10
7.6088e-10
4.26315e-10
4.41763e-10
2.69836e-10
-4.36357e-10
-2.1592e-10
6.12786e-10
5.01855e-10
1.2605e-09
8.40222e-10
5.18159e-10
3.75752e-12
-6.41906e-10
6.30411e-10
-4.13992e-10
-7.34728e-10
-2.65882e-10
1.74474e-10
3.72598e-10
2.24083e-10
6.09176e-10
-2.04543e-10
-1.99958e-10
2.28064e-10
-6.71943e-10
6.42197e-10
-1.89704e-10
1.10178e-09
6.38909e-10
-8.83799e-11
1.24407e-10
1.09812e-09
-1.53633e-10
4.6019e-10
-7.0496e-10
-4.19364e-10
2.25987e-10
-2.19662e-10
-7.26229e-11
-4.63712e-10
2.36464e-10
-3.91494e-11
-6.59449e-10
-9.77953e-10
-6.04936e-10
-8.74743e-10
-2.21945e-10
-6.76434e-10
-1.74092e-10
-1.80609e-10
3.59544e-10
-1.83979e-10
-1.51501e-10
-6.35058e-10
-2.32041e-10
2.03441e-10
-4.37571e-10
-1.91628e-10
-7.5388e-10
-8.14285e-10
-6.48765e-10
1.25671e-09
-6.43409e-10
-7.89905e-10
-2.54138e-10
7.44661e-12
-3.20819e-10
-8.89321e-10
-9.0718e-10
1.61442e-10
-2.65851e-11
-2.91605e-10
-2.46682e-11
1.57427e-10
1.03081e-09
8.34374e-10
4.57795e-10
2.44436e-10
3.68647e-10
7.89564e-10
-6.08418e-11
-2.46865e-11
7.06183e-10
1.83267e-10
2.01567e-10
-6.5773e-10
4.15424e-10
-4.36357e-10
8.43254e-10
1.38086e-10
-4.71383e-11
2.82151e-10
1.93098e-10
2.23465e-10
2.75712e-11
-2.38189e-10
-1.28974e-09
-6.87901e-10
-6.95259e-10
2.18913e-10
-2.2138e-10
-5.85994e-10
2.22418e-10
-4.11167e-10
2.62136e-10
9.43623e-10
3.79162e-10
-1.4345e-11
2.95697e-11
3.50673e-10
-6.86917e-10
-2.98943e-10
-1.57476e-10
4.16971e-11
4.86742e-12
-2.6238e-10
2.03101e-10
-5.91497e-11
5.96923e-11
3.51074e-10
2.62366e-10
5.99257e-10
9.47252e-10
8.62098e-10
2.48045e-10
-4.33305e-11
6.43764e-10
-4.57713e-10
3.10003e-10
3.80579e-10
4.01028e-10
-2.58379e-11
-6.66275e-13
-1.41057e-09
-4.74619e-10
-2.31729e-10
-4.52816e-10
-2.3435e-10
-1.07378e-10
-9.43237e-10
-4.03047e-11
-3.0104e-10
5.06109e-10
4.28849e-10
5.17119e-10
-4.46769e-10
2.2765e-10
2.74082e-10
6.13991e-10
9.93429e-13
-2.42662e-10
-6.49201e-10
6.43419e-10
8.42525e-11
8.97124e-10
1.12364e-10
3.50717e-10
-4.21726e-10
-4.02162e-10
2.43888e-10
6.38949e-10
5.49886e-10
2.38444e-10
1.79879e-11
2.38297e-11
-1.52675e-10
-1.0336e-10
-4.73771e-11
-1.27856e-09
-5.76362e-10
1.10406e-09
-2.6505e-11
2.00359e-10
2.1343e-10
2.65623e-10
-2.86414e-11
3.8364e-10
2.04323e-10
-1.35755e-11
2.6594e-11
4.36201e-10
-5.86401e-10
1.44719e-11
-3.98667e-10
-5.06639e-10
2.49392e-10
-2.81918e-10
4.08211e-11
-2.02037e-10
-4.88035e-10
-9.51798e-10
2.82537e-10
4.39242e-10
-4.53604e-10
-6.87325e-10
1.54095e-10
4.14376e-10
-1.33694e-09
-6.51773e-10
3.00583e-10
-6.89343e-10
-4.10613e-10
7.99557e-10
-2.91799e-10
-1.24312e-09
-7.65545e-10
-7.02296e-10
-6.80956e-10
-1.37733e-10
7.1647e-10
4.69293e-10
6.75743e-10
2.23792e-10
7.69148e-10
1.1099e-09
-1.42205e-10
9.31819e-10
4.6374e-10
3.65078e-10
6.32837e-10
5.73572e-10
2.85402e-10
5.60639e-10
2.24307e-10
4.08805e-10
4.82744e-10
1.55291e-09
3.75553e-10
2.4496e-10
6.73638e-10
-4.41175e-11
-6.79962e-10
-9.38683e-10
-4.80417e-10
6.61156e-10
-1.70668e-10
1.34794e-10
-2.22873e-10
-9.51602e-10
-6.69906e-10
-5.88907e-10
-4.01507e-10
-4.3055e-10
-3.98289e-10
-2.02374e-10
-9.22505e-10
-5.75561e-10
-3.12811e-10
-2.28019e-10
-2.07803e-10
-1.37449e-09
-4.39535e-10
-2.22916e-10
6.56337e-10
5.37845e-10
-5.07557e-11
2.39674e-10
4.83596e-10
-1.83242e-10
2.41398e-10
2.90112e-10
4.03192e-10
6.08853e-10
1.13954e-09
-2.11209e-10
5.82899e-10
-6.26553e-10
5.62059e-10
1.30488e-10
1.06612e-09
4.51865e-11
-6.72772e-10
-8.71292e-10
-6.88239e-10
1.3697e-11
1.33112e-11
-3.93666e-11
6.04282e-10
-8.35559e-10
-5.32234e-10
-4.01306e-10
-2.74303e-10
-2.84668e-10
-9.10078e-10
-1.59251e-10
8.37705e-10
-4.55143e-10
-1.45514e-10
-1.50675e-11
5.01403e-11
-7.04767e-10
-4.72671e-10
-2.09403e-10
-2.32795e-12
-5.96437e-10
-2.52891e-10
8.38097e-12
-4.67796e-10
-2.37036e-10
-8.79549e-10
2.84806e-10
-4.46273e-10
-2.49181e-10
-2.16615e-10
-1.22961e-09
-4.81978e-10
6.43119e-10
2.83955e-10
8.85045e-10
-2.82293e-11
-4.40915e-10
-3.54715e-11
4.11969e-10
9.14698e-10
5.17123e-10
1.90432e-10
5.93651e-10
-2.12972e-10
4.98037e-10
-2.47748e-10
-8.29271e-10
9.02052e-10
-4.43555e-10
2.58237e-12
-9.57372e-10
3.64142e-11
4.51716e-10
6.0332e-10
3.79596e-10
1.18364e-10
3.23128e-10
-7.52625e-10
-6.59521e-10
4.33806e-10
7.34159e-12
-6.98546e-10
6.53715e-10
4.37742e-10
-4.3262e-10
-6.54486e-10
1.57078e-11
3.42166e-10
-2.77461e-10
7.20197e-10
-6.15416e-10
-4.51808e-10
-5.26451e-10
-2.02329e-11
-4.03265e-10
6.12533e-10
-1.49142e-10
4.06788e-10
8.60267e-10
-8.74309e-10
4.64407e-10
5.48295e-11
-5.15977e-12
-2.61139e-11
7.05271e-10
3.86829e-10
-1.83706e-10
-2.35006e-10
3.51918e-10
-5.89427e-11
-6.28019e-10
8.43948e-10
1.66106e-10
-2.98205e-11
1.48266e-11
4.64676e-10
-1.41854e-10
4.33192e-10
1.61295e-10
-6.11157e-10
3.89249e-10
7.9205e-11
9.72412e-10
2.25186e-10
7.62764e-12
-2.29887e-10
-5.40003e-10
-4.58851e-10
-1.98084e-11
4.75902e-10
-1.28929e-09
-6.86939e-10
-5.03182e-10
-1.00363e-10
-2.69691e-10
-6.88996e-10
-5.28234e-11
-2.45634e-11
2.24086e-10
-2.04164e-10
6.73824e-10
-1.74877e-10
-4.93545e-10
-1.66165e-10
-5.08985e-10
1.28004e-10
-4.69521e-10
-1.47184e-10
-1.98784e-10
3.93773e-10
2.1873e-11
5.85268e-13
2.43264e-10
9.68155e-10
3.44928e-11
6.56075e-10
-6.24906e-10
-9.54164e-10
-7.43662e-10
-8.86793e-10
-9.02667e-10
-3.33204e-10
-8.0406e-10
1.42331e-10
-8.21061e-10
4.62135e-10
6.28758e-10
2.63243e-10
4.90065e-10
2.06378e-10
1.51867e-10
1.65393e-10
-3.98065e-10
-8.17338e-10
-2.98306e-10
-6.1454e-10
7.24292e-10
6.76268e-10
-2.72841e-10
-3.81313e-12
5.73062e-11
1.0846e-09
1.60184e-10
4.20859e-10
1.68622e-11
2.53511e-11
6.41053e-10
-3.90363e-10
4.00459e-10
8.5903e-10
1.91344e-10
1.73223e-10
-6.08863e-10
5.02465e-10
1.08327e-11
-4.61208e-10
-3.91585e-10
-8.6402e-10
8.77611e-11
1.26532e-10
-2.82469e-10
-1.51902e-09
9.8643e-11
-2.01623e-11
-5.52168e-11
-2.12116e-10
-2.2548e-10
-1.30312e-09
-6.9705e-10
2.54905e-11
-2.09679e-10
-6.83325e-10
1.92646e-11
1.76921e-10
7.3605e-11
4.17278e-10
6.16848e-10
6.81608e-10
4.29335e-10
4.45985e-10
-3.35852e-11
8.58106e-10
2.61599e-10
1.57855e-10
5.45746e-10
4.26857e-10
-2.58252e-10
1.5673e-09
1.24071e-09
4.05933e-10
-4.43361e-10
6.84857e-10
-5.47711e-10
6.91273e-10
-5.96998e-10
4.76392e-10
-3.03894e-10
-1.0791e-10
-4.50491e-10
1.23913e-10
2.02822e-10
2.29766e-10
2.44852e-11
-7.86994e-11
-7.97327e-10
-2.31082e-10
-1.14102e-09
-2.40038e-10
-4.22902e-10
4.32076e-10
-1.54552e-10
-4.33983e-10
-4.956e-10
-1.25147e-09
-5.26412e-10
-3.91907e-10
-2.20313e-10
2.59308e-10
-6.24986e-10
1.22577e-10
-1.38599e-10
-5.36291e-12
7.51562e-12
9.59626e-11
-2.2057e-10
2.6172e-10
6.74687e-10
6.26136e-10
2.07901e-10
8.36912e-10
3.78098e-11
3.05726e-10
-1.8084e-11
-1.07368e-09
2.43673e-10
2.51465e-10
-9.2683e-12
-1.90296e-10
-4.57508e-10
-5.38353e-11
-2.52378e-11
4.82405e-10
4.91942e-10
2.26733e-10
3.55399e-11
-4.0252e-10
-1.36356e-09
-3.47998e-10
1.26319e-10
-7.4334e-10
-1.3872e-09
-1.28847e-09
-8.36194e-10
-3.34638e-10
-8.96449e-10
-8.78724e-12
7.68257e-11
-4.81822e-12
1.83152e-10
-1.77807e-11
1.548e-10
-6.39888e-11
-2.09181e-10
-3.42592e-12
-8.24903e-10
3.81296e-10
-5.19471e-10
-2.70061e-10
2.23929e-10
-4.40932e-10
-5.46901e-11
-1.50177e-10
2.22643e-10
4.32152e-10
-3.80295e-10
2.1811e-10
5.89175e-10
4.52246e-10
8.63085e-10
1.38902e-09
8.43903e-10
1.07179e-09
-3.71988e-10
-1.39035e-09
8.84301e-10
-2.90838e-10
4.77886e-10
6.06398e-10
6.31184e-10
1.12062e-09
6.55215e-10
1.40927e-11
4.43648e-10
6.36797e-10
-2.48042e-10
1.73533e-10
7.80313e-10
-1.2228e-11
-3.21341e-10
2.52699e-10
-7.33573e-11
4.74258e-11
3.86942e-10
-6.90602e-10
-4.27721e-11
-1.54568e-11
2.5681e-11
4.33406e-10
-7.64295e-10
3.71067e-10
1.12322e-09
6.58584e-10
2.1717e-10
-2.28562e-10
6.5679e-11
-6.66992e-10
-4.59928e-10
2.75539e-10
-2.2063e-10
1.93606e-10
1.05978e-09
4.62582e-10
-4.57734e-10
3.62932e-10
-8.63664e-10
-4.12696e-10
5.34327e-12
4.52138e-10
8.91297e-10
-4.77796e-12
-6.26298e-10
-2.97355e-10
-1.45776e-09
-1.53399e-09
-4.50786e-10
-3.33412e-10
-4.40396e-10
-9.97129e-10
-8.95909e-10
-8.67368e-10
-9.40123e-10
1.04734e-09
-2.52281e-10
2.62183e-10
-5.9787e-11
-4.20377e-10
-4.83277e-10
4.6828e-10
-3.75591e-11
-2.13383e-11
2.84981e-10
-4.85018e-11
5.10802e-10
-3.45886e-11
-2.9358e-10
1.09245e-09
7.25603e-10
-1.62552e-10
5.67516e-10
1.88353e-10
5.90372e-11
2.06304e-10
-6.28512e-11
7.13731e-10
5.64833e-10
-2.03423e-12
-5.75387e-10
-6.28046e-10
-2.92112e-10
-8.56339e-10
4.37076e-10
2.64939e-10
-4.77395e-10
-8.90585e-10
-2.13983e-10
-8.83646e-10
-3.73243e-10
-2.00047e-10
-3.771e-10
5.4228e-10
7.07936e-10
2.17708e-10
6.0358e-10
3.80854e-10
2.96396e-10
-1.13363e-09
6.15698e-10
2.59061e-10
4.89415e-10
6.27978e-10
1.0761e-09
7.64033e-10
1.52246e-10
-6.16396e-10
1.87315e-10
3.54456e-10
6.38191e-10
1.94194e-10
4.82296e-11
-5.82912e-10
-2.67408e-10
-3.91506e-10
-1.84737e-10
-1.78067e-10
-1.15279e-09
-6.85216e-10
-5.95155e-10
-6.00049e-10
1.9392e-10
1.18286e-10
-1.75728e-10
5.54738e-12
4.61853e-10
4.10574e-10
4.80192e-13
1.41859e-09
4.71195e-11
-1.80324e-10
-9.3051e-12
7.02093e-10
4.79495e-10
-2.59273e-11
1.47469e-10
1.43566e-09
2.83438e-10
-5.56353e-10
-4.53614e-10
-4.20879e-10
-7.07615e-10
6.6806e-10
-4.48852e-10
-1.71489e-10
-4.1678e-11
2.15816e-10
-5.78523e-10
-8.79363e-10
-8.53121e-10
-1.15847e-09
-8.31967e-10
-1.32419e-09
-4.00832e-10
-8.39418e-10
-4.3418e-10
-1.77988e-10
-3.39587e-10
8.87028e-10
4.8148e-10
1.07897e-09
3.11704e-10
-5.9177e-11
2.9811e-10
3.17189e-10
7.77291e-10
-4.64411e-10
-1.43744e-10
1.9348e-10
-1.93446e-10
9.16688e-10
4.69921e-10
-4.49091e-10
-3.58166e-11
1.44995e-10
1.96492e-10
5.67993e-10
4.55026e-10
8.10139e-10
1.83019e-10
2.03282e-10
-4.76117e-10
2.53047e-10
1.90554e-10
2.39581e-11
4.25086e-10
1.42697e-09
-4.94431e-10
4.08468e-11
-5.24439e-10
1.59149e-10
-4.33251e-10
-7.32483e-10
-2.41092e-10
2.11628e-10
-1.39365e-10
5.88724e-11
-8.83861e-10
-6.21344e-10
-4.92959e-10
-6.3774e-10
-5.35104e-11
-2.93572e-10
-6.41073e-10
-1.26712e-11
4.45952e-10
2.3091e-10
-1.18004e-10
7.9565e-11
8.29101e-10
-1.6401e-10
-6.86031e-10
-2.41541e-10
4.38465e-10
2.27333e-10
9.70714e-10
3.78304e-10
5.21255e-10
6.84644e-10
8.70504e-10
2.69591e-10
2.5983e-10
2.33573e-10
-5.53479e-10
-5.46341e-11
1.9792e-10
-4.21164e-10
-6.19655e-10
-5.07886e-10
-2.32067e-10
-4.7341e-10
-1.65602e-12
-2.00092e-10
-6.67036e-10
-5.91083e-10
7.12883e-12
1.54687e-10
-4.02514e-10
-8.7022e-10
-6.73788e-10
-6.91278e-11
-2.58778e-10
-1.12231e-09
2.23687e-11
-7.10398e-11
1.48603e-10
2.43923e-10
6.55567e-10
9.87518e-10
4.15586e-10
2.20158e-10
3.95189e-10
7.15487e-10
6.44102e-10
7.6054e-10
3.48574e-10
1.0825e-09
-1.90131e-10
5.18085e-12
1.95224e-10
-6.64077e-10
-7.86464e-12
6.59955e-10
-2.14635e-10
8.76931e-12
1.93279e-10
-3.10902e-10
-1.83673e-10
-2.22907e-10
2.30856e-10
1.78678e-10
-2.30724e-10
4.29791e-11
3.62071e-10
-2.33633e-10
1.95518e-10
-6.7389e-10
5.55833e-11
-6.98131e-10
-4.7614e-10
-7.82482e-10
-4.92072e-10
-2.46181e-10
-2.8818e-10
-4.92401e-10
1.06763e-11
3.28963e-10
4.49793e-10
-2.42373e-10
2.06216e-10
-3.96457e-10
-1.8666e-10
8.93705e-10
6.883e-10
-2.76374e-11
1.97813e-10
8.9377e-10
1.99008e-10
-1.81023e-10
4.59325e-10
4.76373e-10
-1.59194e-10
-4.00876e-10
7.04759e-10
-2.65878e-10
-2.19653e-10
1.82098e-10
4.63086e-10
1.16142e-09
4.8994e-10
1.5386e-09
8.03063e-10
8.44906e-10
2.1838e-10
1.62982e-10
2.63538e-10
-1.71568e-10
5.13924e-10
1.3839e-10
2.16823e-10
-1.96081e-10
-4.72332e-10
-5.16705e-10
-3.90372e-11
-4.95201e-10
1.55042e-11
3.60451e-10
8.51102e-10
-6.34933e-10
-2.83706e-10
-6.25023e-10
-2.76192e-11
8.6486e-11
5.03502e-10
-9.72145e-10
-1.99071e-10
-4.16538e-10
-6.59403e-10
-1.63697e-10
6.59087e-11
4.96371e-10
1.3862e-10
-4.64786e-10
-2.48419e-10
-4.90196e-10
-1.15135e-09
-1.17866e-09
-4.29767e-10
-6.20187e-10
2.46683e-10
-6.10083e-10
-7.86373e-10
-6.02702e-10
-1.74758e-10
4.27507e-10
2.24494e-10
1.64797e-10
2.85897e-10
3.58142e-10
2.49075e-10
7.17325e-11
2.20922e-11
-2.19659e-10
-1.40417e-10
2.55934e-10
1.84677e-10
9.00201e-10
5.45508e-10
6.76792e-10
1.15031e-09
8.75132e-10
2.77874e-12
3.72253e-10
7.02721e-10
2.40545e-10
2.66711e-10
-1.86285e-10
5.11238e-11
6.50865e-10
7.97212e-10
1.37006e-10
4.98381e-10
1.87595e-10
7.11971e-10
3.66778e-10
3.8396e-10
6.22568e-10
5.12942e-10
4.25707e-10
2.49079e-10
-6.17926e-10
-6.46895e-10
-6.39332e-10
-4.74161e-11
-4.64633e-10
-2.44844e-10
-1.84928e-09
-1.52662e-09
-4.67583e-10
-3.36895e-10
-1.30366e-09
-2.83252e-10
-1.82527e-10
2.33007e-10
-4.82147e-10
6.36004e-10
1.65851e-10
4.32637e-10
2.60382e-10
-8.77659e-12
-6.28204e-10
-6.89513e-11
-6.48057e-10
2.14688e-10
-2.06931e-10
8.21777e-11
-7.57231e-10
-4.07036e-10
2.36029e-10
-4.80114e-10
-8.39089e-10
-1.42292e-11
4.01808e-11
2.15971e-10
4.20599e-10
4.02283e-10
-2.29392e-10
1.35501e-09
6.27277e-10
1.14466e-09
2.31961e-10
3.97751e-10
-1.82195e-10
5.01281e-10
-7.87138e-10
4.02899e-10
1.10031e-10
-1.31692e-11
-4.99637e-10
-6.19306e-10
-4.21526e-10
-7.39291e-10
-7.06759e-10
-1.00649e-09
-3.73699e-10
-4.26899e-11
1.32707e-11
-5.73964e-10
-8.69481e-10
1.5723e-10
-7.17616e-10
4.13987e-10
4.05767e-10
2.4013e-10
5.44296e-10
6.82941e-10
-2.27669e-11
-1.04284e-10
-2.59168e-10
-1.24592e-11
2.50224e-10
2.04065e-10
6.00359e-11
-2.06431e-10
7.11852e-10
9.15746e-10
1.13063e-09
-4.3488e-10
-5.1772e-10
-7.528e-10
-3.7217e-10
-4.54335e-10
-4.10018e-10
2.33012e-10
-5.40788e-11
5.62055e-10
-1.71026e-10
8.80491e-10
-1.48753e-10
-2.25229e-10
-2.95754e-11
3.42429e-11
1.87121e-10
2.1488e-10
4.61897e-10
3.83279e-10
6.58229e-10
2.92989e-10
5.30912e-10
-2.52525e-10
6.09438e-10
2.32357e-10
-8.96732e-10
3.42424e-11
-1.023e-11
-1.60561e-10
-4.27362e-10
-6.08723e-10
-1.02306e-09
-1.87589e-11
5.23962e-10
4.15106e-10
2.8987e-10
2.29754e-10
2.29532e-10
3.38924e-10
-7.19555e-10
2.82443e-11
4.70549e-10
9.75998e-11
-4.16924e-10
8.88339e-10
4.00772e-10
4.26782e-10
1.63308e-10
-2.19934e-10
-4.07164e-10
-7.33493e-10
-1.50397e-09
-4.37272e-10
-2.29122e-10
-2.20345e-11
4.72373e-10
2.00077e-10
-4.13809e-12
1.88625e-10
8.33582e-10
-4.75045e-10
-2.61584e-10
-6.22299e-10
1.21066e-11
-3.93293e-10
-2.20515e-10
-6.77884e-10
-8.07232e-10
-1.70931e-10
-8.37178e-10
-2.14911e-10
-4.99388e-10
4.362e-10
4.48424e-10
5.12931e-12
-1.00008e-10
-5.04735e-10
-2.75965e-10
-6.33713e-11
-7.53725e-11
2.40622e-10
3.55314e-10
-5.90763e-12
4.10809e-10
2.93982e-10
2.05359e-10
2.05422e-10
6.53038e-10
4.49882e-11
3.53426e-10
-1.9982e-10
2.4949e-10
-9.76056e-12
-2.14077e-11
-4.1871e-10
-2.66768e-10
-6.4359e-10
-7.19402e-10
-6.61748e-10
-7.10133e-10
-2.27895e-11
-6.59389e-10
1.59822e-10
-2.95292e-11
-3.91388e-10
-1.33974e-09
-4.16029e-10
4.07552e-10
2.49759e-11
-3.76691e-10
2.32257e-10
2.99372e-10
2.28707e-10
6.86775e-10
4.25815e-10
3.11633e-10
7.11451e-10
-5.00758e-10
4.63255e-10
1.7444e-10
3.49225e-11
3.00622e-11
3.77772e-10
3.78364e-10
4.47681e-10
-3.08083e-10
-6.58388e-10
4.48157e-10
-8.28886e-11
-2.66463e-10
2.94807e-11
2.1395e-10
-2.72538e-10
1.72165e-10
1.22262e-10
6.7723e-10
6.07798e-10
5.79511e-10
-1.9237e-10
2.78451e-10
4.59436e-10
-2.83201e-10
8.52205e-10
1.0845e-09
3.85895e-10
-4.00151e-10
4.90809e-10
6.16175e-11
4.39449e-10
3.07309e-10
-3.06782e-11
6.07e-10
4.49339e-10
-4.33807e-10
4.14028e-11
1.211e-10
-6.05783e-10
4.11292e-10
-5.97533e-11
1.14235e-09
4.57507e-10
-1.0149e-11
6.4346e-10
2.37428e-10
2.6896e-11
-5.39169e-11
-2.33861e-10
6.21418e-12
2.88838e-10
-4.24544e-10
6.16228e-11
-1.8356e-10
-9.22576e-10
2.98644e-10
-1.15058e-09
-2.41822e-10
5.16881e-10
-6.13336e-11
9.29932e-10
-4.28185e-11
-4.84528e-10
-5.76455e-11
-1.56272e-10
-6.61453e-11
-2.19221e-10
-6.54342e-10
-1.13539e-09
-1.4567e-09
-4.73314e-10
-1.58998e-09
-3.89849e-10
4.05767e-10
-4.03965e-10
-8.77205e-10
-3.60123e-11
-7.67715e-10
-6.36012e-10
2.21923e-10
-3.44099e-10
-8.27612e-10
-1.46052e-10
-1.3655e-11
1.94743e-10
4.19844e-10
4.0011e-10
1.68746e-10
-2.6227e-10
-1.73787e-10
1.9571e-10
2.32475e-10
1.29081e-09
4.93439e-10
-1.67892e-10
1.66152e-10
7.4412e-10
3.89676e-10
7.17417e-10
5.31623e-10
1.11269e-09
5.69914e-10
3.65707e-11
4.47283e-10
9.12285e-10
8.39001e-10
3.05511e-10
-1.18306e-11
6.8292e-10
2.63545e-10
2.59338e-10
-4.87624e-10
-3.05574e-10
-4.42736e-10
-8.61549e-10
-7.87186e-13
-2.17073e-11
4.31991e-10
4.98258e-12
-7.06231e-10
-9.53295e-10
-1.49167e-09
-1.30808e-09
-2.94805e-09
-1.9658e-09
-3.59782e-09
-4.34051e-09
-5.50924e-09
-7.81947e-09
-1.01129e-08
-1.36813e-08
-1.88953e-08
-2.58403e-08
-3.57916e-08
-4.93815e-08
-6.89271e-08
-9.40515e-08
-1.29372e-07
-1.7663e-07
-2.43516e-07
-3.32697e-07
-4.53964e-07
-6.19224e-07
-8.42702e-07
-1.1444e-06
-1.55193e-06
-2.10158e-06
-2.83874e-06
-3.82978e-06
-5.15748e-06
-6.93193e-06
-9.29797e-06
-1.24517e-05
-1.66459e-05
-2.22108e-05
-2.95808e-05
-3.93232e-05
-5.21755e-05
-6.90971e-05
-9.13306e-05
-0.000120485
-0.000158637
-0.000208461
-0.000273391
-0.000357828
-0.000467397
-0.000609275
-0.000792588
-0.00102892
-0.00133291
-0.00172307
-0.00222268
-0.00286096
-0.00367451
-0.00470898
-0.00602125
-0.00768186
-0.00977812
-0.0124177
-0.0157331
-0.0198866
-0.0250766
-0.0315445
-0.0395834
-0.0495476
-0.0618639
-0.0770448
-0.0957028
-0.118567
-0.146503
-0.180531
-0.221853
-0.271872
-0.332226
-0.404809
-0.491806
-0.595721
-0.719408
-0.866098
-1.03943
-1.24347
-1.48272
-1.76216
-2.0872
-2.4637
-2.89795
-3.3966
-3.96661
-4.61518
-5.34962
-6.17726
-7.10523
-8.14037
-9.28898
-10.5566
-11.948
-13.4665
-15.1143
-16.8919
-18.7982
-20.8301
-22.9826
-25.2487
-27.6196
-30.0844
-32.6308
-35.2448
-37.9113
-40.6142
-43.3371
-46.0633
-48.7763
-51.4603
-54.1003
-56.6824
-59.1944
-61.6255
-63.9665
-66.2102
-68.3511
-70.3852
-72.3103
-74.1256
-75.8314
-77.4294
-78.9221
-80.3127
-81.6053
-82.8047
-83.9156
-84.9434
-85.8932
-86.7702
-87.5795
-88.3258
-89.0139
-89.6482
-90.2327
-90.7714
-91.2678
-91.7253
-92.1469
-92.5356
-92.8939
-93.2242
-93.5287
-93.8095
-94.0683
-94.307
-94.5271
-94.7299
-94.9169
-95.0891
-95.2477
-95.3937
-95.528
-95.6515
-95.765
-95.8691
-95.9645
-96.0518
-96.1317
-96.2045
-96.2709
-96.3311
-96.3857
-96.435
-96.4794
-96.5191
-96.5545
-96.5859
-96.6134
-96.6375
-96.6582
-96.6758
-96.6904
-96.7023
-96.7117
-96.7186
-96.7232
-96.7257
-96.7262
-96.7247
-96.7215
-96.7166
-96.7101
-96.7022
-96.6928
-96.682
-96.67
-96.6568
-96.6425
-96.6271
-96.6107
-96.5933
-96.575
-96.5559
-96.5359
-96.5152
-96.4937
-96.4715
-96.4486
-96.4251
-96.401
-96.3763
-96.3511
-96.3253
-96.299
-96.2722
-96.245
-96.2173
-96.1891
-96.1606
-96.1316
-96.1023
-96.0726
-96.0425
-96.0121
-95.9813
-95.9502
-95.9188
-95.8871
-95.8551
-95.8228
-95.7902
-95.7573
-95.7242
-95.6908
-95.6571
-95.6232
-95.589
-95.5546
-95.52
-95.4851
-95.45
-95.4146
-95.3791
-95.3433
-95.3073
-95.2711
-95.2347
-95.198
-95.1612
-95.1241
-95.0869
-95.0495
-95.0118
-94.974
-94.936
-94.8978
-94.8594
-94.8208
-94.782
-94.7431
-94.7039
-94.6646
-94.6251
-94.5855
-94.5456
-94.5056
-94.4654
-94.4251
-94.3846
-94.3439
-94.3031
-94.2621
-94.2209
-94.1796
-94.1381
-94.0965
-94.0547
-94.0128
-93.9707
-93.9284
-93.8861
-93.8435
-93.8009
-93.7581
-93.7151
-93.6721
-93.6288
-93.5855
-93.542
-93.4984
-93.4546
-93.4108
-93.3668
-93.3227
-93.2784
-93.2341
-93.1896
-93.145
-93.1003
-93.0554
-93.0105
-92.9655
-92.9203
-92.8751
-92.8297
-92.7842
-92.7387
-92.693
-92.6472
-92.6014
-92.5554
-92.5094
-92.4632
-92.417
-92.3707
-92.3243
-92.2778
-92.2313
-92.1846
-92.1379
-92.0911
-92.0442
-91.9972
-91.9502
-91.9031
-91.8559
-91.8087
-91.7614
-91.714
-91.6666
-91.6191
-91.5715
-91.5239
-91.4762
-91.4284
-91.3806
-91.3328
-91.2848
-91.2369
-91.1889
-91.1408
-91.0927
-91.0445
-90.9963
-90.948
-90.8997
-90.8513
-90.8029
-90.7545
-90.706
-90.6575
-90.6089
-90.5603
-90.5116
-90.463
-90.4143
-90.3655
-90.3167
-90.2679
-90.219
-90.1702
-90.1213
-90.0723
-90.0233
-89.9743
-89.9253
-89.8762
-89.8272
-89.7781
-89.7289
-89.6798
-89.6306
-89.5814
-89.5322
-89.4829
-89.4336
-89.3843
-89.335
-89.2857
-89.2364
-89.187
-89.1376
-89.0882
-89.0388
-88.9894
-88.9399
-88.8904
-88.841
-88.7915
-88.742
-88.6924
-88.6429
-88.5934
-88.5438
-88.4942
-88.4447
-88.3951
-88.3455
-88.2958
-88.2462
-88.1966
-88.147
-88.0973
-88.0477
-87.998
-87.9483
-87.8987
-87.849
-87.7993
-87.7496
-87.6999
-87.6502
-87.6005
-87.5508
-87.501
-87.4513
-87.4016
-87.3518
-87.3021
-87.2524
-87.2026
-87.1529
-87.1031
-87.0534
-87.0036
-86.9539
-86.9041
-86.8544
-86.8046
-86.7549
-86.7051
-86.6553
-86.6056
-86.5558
-86.5061
-86.4563
-86.4066
-86.3568
-86.3071
-86.2573
-86.2075
-86.1578
-86.1081
-86.0583
-86.0086
-85.9588
-85.9091
-85.8594
-85.8096
-85.7599
-85.7102
-85.6604
-85.6107
-85.561
-85.5113
-85.4616
-85.4119
-85.3622
-85.3125
-85.2628
-85.2131
-85.1634
-85.1138
-85.0641
-85.0144
-84.9648
-84.9151
-84.8655
-84.8158
-84.7662
-84.7165
-84.6669
-84.6173
-84.5677
-84.5181
-84.4685
-84.4189
-84.3693
-84.3197
-84.2701
-84.2206
-84.171
-84.1215
-84.0719
-84.0224
-83.9729
-83.9233
-83.8738
-83.8243
-83.7748
-83.7253
-83.6758
-83.6264
-83.5769
-83.5274
-83.478
-83.4286
-83.3791
-83.3297
-83.2803
-83.2309
-83.1815
-83.1321
-83.0827
-83.0333
-82.984
-82.9346
-82.8853
-82.836
-82.7866
-82.7373
-82.688
-82.6387
-82.5894
-82.5402
-82.4909
-82.4416
-82.3924
-82.3432
-82.2939
-82.2447
-82.1955
-82.1463
-82.0971
-82.048
-81.9988
-81.9496
-81.9005
-81.8514
-81.8023
-81.7531
-81.704
-81.655
-81.6059
-81.5568
-81.5078
-81.4587
-81.4097
-81.3607
-81.3116
-81.2626
-81.2137
-81.1647
-81.1157
-81.0668
-81.0178
-80.9689
-80.92
-80.8711
-80.8222
-80.7733
-80.7244
-80.6755
-80.6267
-80.5779
-80.529
-80.4802
-80.4314
-80.3826
-80.3338
-80.2851
-80.2363
-80.1876
-80.1389
-80.0901
-80.0414
-79.9927
-79.9441
-79.8954
-79.8467
-79.7981
-79.7495
-79.7008
-79.6522
-79.6036
-79.5551
-79.5065
-79.4579
-79.4094
-79.3609
-79.3123
-79.2638
-79.2154
-79.1669
-79.1184
-79.07
-79.0215
-78.9731
-78.9247
-78.8763
-78.8279
-78.7795
-78.7311
-78.6828
-78.6345
-78.5861
-78.5378
-78.4895
-78.4413
-78.393
-78.3447
-78.2965
-78.2483
-78.2
-78.1518
-78.1036
-78.0555
-78.0073
-77.9592
-77.911
-77.8629
-77.8148
-77.7667
-77.7186
-77.6705
-77.6225
-77.5745
-77.5264
-77.4784
-77.4304
-77.3824
-77.3345
-77.2865
-77.2385
-77.1906
-77.1427
-77.0948
-77.0469
-76.999
-76.9512
-76.9033
-76.8555
-76.8077
-76.7599
-76.7121
-76.6643
-76.6165
-76.5688
-76.521
-76.4733
-76.4256
-76.3779
-76.3302
-76.2826
-76.2349
-76.1873
-76.1397
-76.092
-76.0445
-75.9969
-75.9493
-75.9018