/*--------------------------------*- C++ -*----------------------------------*\
  =========                 |
  \\      /  F ield         | OpenFOAM: The Open Source CFD Toolbox
   \\    /   O peration     | Website:  https://openfoam.org
    \\  /    A nd           | Version:  9
     \\/     M anipulation  |
\*---------------------------------------------------------------------------*/
FoamFile
{
    format      ascii;
    class       volScalarField;
    location    "0.008";
    object      ddt0(rho,K);
}
// * * * * * * * * * * * * * * * * * * * * * * * * * * * * * * * * * * * * * //

dimensions      [1 -1 -3 0 0 0 0];

internalField   nonuniform List<scalar> 
10000
(
-1.21304e-18
-2.2282e-18
-2.08149e-18
-1.79868e-18
-5.64942e-19
-1.04787e-18
-2.14772e-18
-1.44389e-18
-2.04698e-19
-2.02616e-19
-5.31457e-19
-2.26387e-19
3.79596e-19
1.27269e-18
1.3318e-18
5.34816e-19
7.23687e-19
3.20131e-18
1.22293e-18
3.09317e-19
1.58192e-18
1.21593e-18
1.49431e-18
2.81325e-19
1.36889e-19
8.5759e-19
-9.29112e-19
-4.5349e-18
-3.38014e-18
-1.53022e-18
-1.44274e-19
7.02479e-19
-1.05384e-18
-1.04028e-18
-3.63464e-19
-1.12887e-19
-5.30434e-19
-5.08877e-19
-1.84751e-19
5.91931e-19
9.34155e-19
-7.48742e-22
-7.0725e-19
-5.73903e-19
2.71382e-19
1.29251e-18
1.69763e-18
1.38251e-18
1.78706e-18
1.16016e-18
9.86966e-19
1.11946e-18
1.19795e-18
2.09493e-18
1.47509e-18
8.76189e-19
6.31494e-19
-1.53847e-19
1.58228e-19
-1.67455e-19
-1.68465e-19
3.33944e-19
1.13305e-18
7.74125e-19
6.86091e-23
-3.07944e-19
3.13557e-19
-1.04352e-18
-2.48203e-18
-3.04847e-19
1.52986e-19
-8.46335e-19
-8.41563e-19
-1.34049e-19
1.22693e-18
1.98552e-18
1.22053e-18
-1.04708e-18
-1.79057e-18
-1.7845e-18
-3.27995e-19
-1.6732e-19
-9.96318e-19
-1.44439e-18
-2.38111e-18
-1.80553e-18
-7.68259e-19
-2.3109e-18
-3.58193e-18
-7.83151e-19
1.41912e-18
5.7593e-19
5.8213e-19
-1.1223e-21
-4.13766e-19
6.10415e-19
2.1873e-19
-1.75574e-18
-3.5432e-18
-8.76286e-19
-2.08304e-21
-1.72365e-18
-2.06408e-18
-1.88736e-18
-2.53366e-18
-3.03472e-18
-2.49271e-18
-2.86279e-18
-1.6804e-18
1.28044e-18
3.68351e-18
4.92392e-18
5.56877e-18
4.92865e-18
1.88193e-18
5.04071e-19
-7.97576e-19
-1.64636e-18
-3.24189e-19
-3.38961e-19
6.32724e-19
1.97325e-18
-1.08165e-18
-1.15076e-18
-1.27213e-19
4.30028e-21
-3.35712e-19
-2.2991e-19
-1.5417e-18
-3.14803e-18
-2.4287e-18
-1.89393e-18
-2.05494e-18
-2.74601e-18
-1.51061e-18
-9.96144e-22
6.92693e-19
9.22195e-19
-9.18797e-19
-9.9418e-19
9.8035e-19
1.72982e-18
1.71054e-19
-8.70616e-19
-1.79288e-19
-1.04809e-18
-2.8729e-18
-1.97226e-18
-1.72762e-18
-2.06421e-18
-3.45857e-19
-4.14939e-22
-3.50543e-19
-3.61503e-19
-1.08999e-18
3.65587e-19
5.16754e-22
3.64929e-19
3.30082e-18
3.7016e-18
1.90757e-18
1.3193e-18
7.37992e-19
-3.99396e-19
-3.83215e-19
-1.86237e-19
-1.63497e-19
6.65945e-19
1.06827e-18
1.69315e-18
-1.31409e-19
-2.75743e-18
-2.2735e-19
1.14929e-18
7.52469e-19
1.44698e-18
1.01492e-18
5.548e-19
-1.92855e-19
-8.65367e-19
-6.60912e-19
1.06227e-19
-9.7855e-20
-4.20795e-19
-4.95188e-19
-9.94408e-19
-3.72368e-19
-1.89737e-19
-3.53669e-19
-5.261e-19
-8.34199e-20
8.08101e-19
-5.12357e-19
-1.775e-18
-1.12352e-18
-1.25817e-21
6.09825e-19
-2.65534e-19
-1.2873e-19
-9.98801e-19
-1.09994e-18
3.06758e-19
9.03539e-19
-7.93568e-19
-4.75601e-19
3.67364e-19
3.72896e-19
-4.11036e-19
1.02687e-18
6.5855e-19
-1.29524e-18
-6.7012e-19
-3.22057e-18
1.21415e-18
3.38696e-18
-5.16647e-19
1.24583e-18
5.28021e-18
3.00984e-18
-1.02979e-18
1.69878e-18
3.88663e-18
7.29139e-19
2.94568e-18
4.63817e-18
1.67828e-18
8.13117e-22
-1.38837e-18
-2.24048e-18
2.13536e-19
2.85843e-18
2.86441e-18
7.82551e-19
1.38073e-18
-1.49787e-18
-1.86803e-18
3.58052e-19
-7.10356e-19
-8.75489e-19
-1.08012e-18
-1.87465e-19
-9.81633e-19
-2.27213e-18
-1.39158e-18
-1.20475e-18
-1.38441e-18
-3.39929e-18
-1.25045e-18
-4.41425e-19
-4.23824e-19
-8.36738e-19
-7.83095e-19
-1.94534e-19
-1.84813e-18
5.65711e-19
1.08002e-18
-8.64525e-19
-1.70966e-19
1.03453e-18
2.5692e-18
4.77009e-18
5.01485e-18
3.60247e-18
3.35521e-18
3.41779e-18
2.61389e-18
2.27683e-18
1.23365e-18
-1.86812e-19
-1.54634e-18
-1.00861e-18
-7.6547e-19
7.48695e-19
2.26759e-18
8.0005e-19
1.28478e-18
1.38913e-18
1.88583e-18
2.71988e-18
-9.00539e-19
-1.64218e-18
-2.2421e-19
-1.35417e-18
-3.26138e-18
-2.31371e-18
4.56184e-19
-4.39712e-19
1.66582e-18
3.09366e-18
3.20784e-18
1.42306e-18
-3.91407e-19
6.14484e-19
9.37383e-19
3.82361e-19
-3.56923e-19
1.50712e-18
2.93119e-18
1.3953e-18
-6.66957e-19
-1.75162e-18
-1.3112e-18
-9.22273e-19
-8.04362e-19
2.57836e-21
2.25156e-19
-6.89347e-19
-2.09217e-19
-8.076e-19
-1.52876e-18
-2.04886e-18
-2.826e-18
-1.91614e-18
-5.49459e-19
-1.40656e-19
-6.73835e-19
-1.71321e-18
-9.02256e-19
-1.37386e-19
9.6528e-22
-1.25596e-18
-7.00649e-19
9.37497e-19
-6.31655e-19
-3.45446e-19
1.18684e-18
1.91715e-18
1.36615e-18
3.66859e-19
-1.73454e-19
3.63765e-19
-5.31007e-19
-1.46307e-18
-2.41591e-18
-3.48536e-19
5.17926e-19
5.47488e-19
-1.76146e-19
-3.78371e-18
-2.03393e-18
-8.44959e-19
6.0457e-22
5.21262e-19
-1.03721e-18
-1.34523e-18
-9.79755e-19
-1.27208e-18
-2.62566e-18
-2.03729e-18
-1.00551e-18
5.62077e-19
1.74593e-18
1.94059e-18
2.41039e-18
1.81746e-18
3.26816e-18
3.68825e-18
1.98989e-18
2.04914e-18
3.25763e-18
4.46501e-18
3.34069e-18
1.80206e-18
8.2116e-19
1.72153e-18
2.63842e-18
-3.33385e-21
1.65062e-18
3.63776e-18
2.18974e-18
1.07141e-18
-7.11267e-19
1.0347e-18
8.29865e-19
5.04614e-19
9.88676e-19
-8.44114e-19
-9.96726e-19
3.32945e-19
-6.62959e-19
-3.23901e-19
-1.66032e-19
-1.6585e-19
9.04352e-19
-3.61047e-19
-3.30009e-18
-1.72966e-18
-3.64356e-19
-3.51102e-18
-3.06494e-18
-2.04234e-18
-3.31519e-18
-9.21318e-19
5.87016e-19
-9.98393e-19
-6.38875e-19
-1.66642e-18
-4.8576e-18
-5.15095e-18
-2.16827e-18
-2.03969e-18
-1.9492e-18
-4.59496e-19
-2.75536e-18
-3.2586e-18
-2.82362e-18
-2.46051e-18
7.3537e-19
3.05488e-18
3.48137e-18
2.51077e-18
2.45094e-18
1.76583e-18
2.1781e-19
-1.2983e-18
8.75012e-19
3.8398e-18
3.31885e-18
1.67155e-18
4.31431e-18
3.8251e-18
2.29983e-18
3.05216e-18
-2.30668e-19
-6.82055e-19
-3.52271e-22
2.22746e-19
-1.56548e-18
-3.64211e-18
-1.53467e-18
8.54804e-19
-8.56423e-19
-1.67432e-18
-8.40466e-19
2.11856e-19
-2.13029e-19
-1.2797e-18
1.77605e-18
8.61567e-19
-2.74746e-18
-1.39315e-18
-2.9099e-18
-3.37445e-18
-1.70569e-18
-4.55005e-18
-8.41194e-18
-6.75126e-18
-2.79507e-18
-2.52662e-19
-3.71165e-18
-4.17691e-18
-1.07072e-18
1.6811e-21
-8.35348e-19
-1.12619e-18
-8.52265e-19
1.07647e-18
5.39221e-19
-2.70521e-19
2.29556e-21
2.77036e-19
-1.69005e-18
-2.67352e-18
7.7459e-19
2.50641e-18
1.49685e-18
-5.03955e-19
-5.0995e-18
-3.01751e-18
1.24258e-18
3.53926e-18
6.65974e-18
6.17452e-18
3.79789e-18
3.68687e-18
1.29364e-18
-1.21995e-18
-1.19182e-18
9.02233e-19
1.5563e-18
5.88855e-19
-2.02345e-18
-2.04592e-18
8.31326e-19
7.83836e-19
3.31693e-19
6.15895e-19
-4.62685e-19
-4.42253e-19
2.00352e-18
1.37335e-18
3.2524e-19
4.78936e-19
1.9817e-18
1.82967e-18
1.3851e-18
8.67524e-19
-2.7902e-18
-3.00727e-18
-1.14224e-18
-2.26308e-18
-3.08817e-18
1.62281e-21
2.96508e-18
1.18859e-18
-2.11694e-19
-8.33628e-19
-1.76324e-18
-6.79341e-19
-1.46759e-18
-4.91599e-19
-7.54963e-19
-3.02897e-18
-2.90966e-18
2.60116e-19
4.84734e-18
5.89986e-18
3.48851e-18
5.19572e-19
-1.28371e-18
-3.01758e-18
-1.36922e-18
-8.54082e-19
-8.61916e-19
2.9552e-19
-2.95369e-19
-2.69086e-18
-1.82356e-18
4.51036e-18
4.97276e-18
2.17601e-18
2.9764e-19
-9.06889e-19
-3.12068e-18
5.66913e-19
2.47391e-18
2.80299e-19
-1.53858e-18
-2.02166e-18
-1.59207e-18
-2.28432e-19
-4.00568e-19
-1.95713e-18
-1.9609e-19
2.17588e-18
7.01247e-19
-7.2519e-19
1.55586e-18
1.92845e-18
8.61814e-19
1.43059e-18
-1.15386e-18
-3.69625e-18
-2.24038e-18
-1.52523e-18
-1.69479e-18
2.90325e-18
4.57536e-18
3.19408e-18
7.31447e-19
2.80055e-18
4.49203e-18
2.70194e-19
-5.181e-19
-2.73748e-19
2.44607e-18
3.9133e-18
1.38246e-18
2.89422e-18
5.08685e-18
4.3346e-18
1.66235e-18
5.42465e-19
2.61287e-18
1.27608e-18
-2.35543e-18
-3.68402e-18
-3.65193e-18
-4.04427e-18
-2.97642e-18
-2.00691e-18
2.50179e-21
-1.18478e-18
-9.29917e-19
6.25631e-19
-4.08113e-19
-1.20587e-18
-3.16203e-18
-4.01728e-18
-1.59225e-19
4.8083e-21
-2.96334e-19
1.0482e-18
4.45139e-19
-9.5814e-19
-2.21412e-18
-2.179e-18
-1.41409e-21
1.15066e-18
1.93917e-19
1.12712e-18
-6.0119e-19
-1.60607e-18
-8.80967e-19
-1.15713e-22
9.7899e-19
3.91281e-18
1.721e-18
-2.15765e-18
-2.70282e-18
1.14178e-18
6.72485e-19
-3.08301e-18
-3.0068e-18
9.20278e-19
4.19041e-18
2.29982e-19
-6.88386e-19
2.8998e-18
2.25967e-18
1.52963e-18
-2.29496e-19
-9.11955e-19
1.4767e-18
-2.14056e-18
7.23566e-19
3.75018e-18
5.0618e-19
-5.19538e-19
-5.24413e-19
3.82331e-18
3.82385e-18
7.83677e-19
1.54175e-18
2.75778e-18
2.08489e-18
1.26766e-18
2.5072e-19
-1.4393e-18
-4.62316e-19
-2.64753e-18
-4.13291e-18
-3.01502e-18
-3.89322e-19
-1.494e-18
-3.48486e-18
-1.15883e-18
-1.75479e-18
-3.85718e-19
-1.91888e-19
-5.90677e-19
5.67727e-19
-1.88645e-19
-4.85108e-22
1.23408e-18
1.16853e-18
7.05621e-19
3.45262e-19
-1.69153e-19
9.44297e-19
1.95856e-18
2.35871e-18
3.76521e-18
3.21528e-18
2.28894e-18
6.55893e-19
-7.67012e-19
-4.94895e-19
6.31992e-19
7.51942e-19
-1.07391e-18
-1.53547e-18
1.43702e-19
-1.42662e-19
-9.50502e-19
-1.00472e-21
-3.34699e-19
-1.13466e-18
-8.70459e-19
-1.34621e-18
-2.16339e-18
-1.65936e-19
-3.55308e-19
-1.70331e-19
2.04036e-18
2.86011e-18
-1.69473e-22
-3.20417e-18
-2.16902e-18
-1.23052e-18
1.00416e-18
1.34739e-18
5.38156e-19
2.97826e-18
3.67307e-18
3.79494e-18
3.57656e-18
3.71561e-18
4.73205e-18
4.54451e-18
2.22329e-18
1.12427e-18
1.32614e-18
5.84369e-19
-5.95672e-19
-2.56477e-18
-1.88026e-18
5.68299e-19
1.8227e-19
-9.13254e-19
-1.78641e-19
-7.20756e-19
7.21811e-19
-7.32353e-19
-3.63459e-18
-3.59337e-18
-2.31877e-18
-1.58867e-18
-2.7666e-18
-3.25368e-18
-1.74454e-18
-2.23212e-18
-1.61244e-18
-2.05636e-18
-4.56384e-18
-2.63791e-18
-2.36801e-19
2.36869e-19
1.63738e-18
6.65048e-19
6.39588e-19
-4.17968e-19
-2.06495e-18
1.00087e-18
1.16867e-18
-2.59878e-18
-2.21238e-18
-2.99963e-18
-3.32855e-18
-2.01343e-19
-5.9896e-19
-2.99895e-18
-4.57037e-18
-2.71831e-18
-8.61851e-19
2.07679e-19
2.13293e-18
2.85509e-18
2.11297e-19
1.97145e-21
1.9021e-18
1.61328e-18
1.92758e-18
3.21045e-18
3.41879e-18
3.12964e-18
3.93587e-18
2.8539e-18
3.01107e-18
4.41622e-18
6.56192e-18
5.65458e-18
5.38619e-18
3.42167e-18
4.01921e-19
-5.95175e-19
-2.37951e-18
-2.2724e-18
-6.74888e-19
-1.46032e-18
-5.16438e-18
-3.21078e-18
-3.9495e-18
-5.93901e-18
-5.21611e-18
-2.29968e-18
8.96762e-19
-1.8729e-18
-1.92409e-18
-1.17615e-18
-4.04688e-18
-3.68551e-18
-1.58002e-18
7.68763e-19
1.14682e-18
1.07989e-18
2.28319e-18
1.75469e-19
-5.32014e-19
-3.39822e-19
-1.17042e-18
-1.13041e-18
1.63547e-19
1.26936e-18
-4.25307e-19
-8.04385e-19
-6.69747e-19
-1.29796e-19
1.18961e-18
1.04115e-18
1.84708e-18
1.31306e-18
5.07609e-19
6.89165e-19
-8.5926e-20
-5.40461e-19
-6.13266e-19
-5.08224e-22
2.48731e-19
1.36926e-18
1.18877e-18
-8.96412e-19
-6.55953e-19
1.48966e-18
2.03032e-18
1.88093e-18
2.38038e-18
2.98315e-18
3.51419e-18
4.00808e-18
5.00281e-18
2.56637e-18
5.23091e-19
-1.33887e-18
-3.06446e-18
-2.55605e-18
-1.40594e-18
-8.22009e-19
1.06745e-18
2.70504e-18
1.94766e-18
5.35149e-19
3.05419e-18
4.81271e-18
3.70652e-18
1.77093e-18
-2.05265e-18
-4.35706e-18
-1.00467e-18
-2.45427e-19
-1.42006e-18
-1.81414e-18
2.56306e-18
2.06857e-18
-2.76547e-18
-9.47266e-19
8.90293e-19
6.91344e-19
1.02818e-18
-5.24564e-19
-1.96538e-18
6.21996e-22
1.8014e-19
-1.50477e-18
-1.88768e-18
3.6818e-22
2.93856e-18
2.87882e-18
3.22588e-18
1.32773e-18
8.84604e-19
1.14456e-18
-1.33302e-18
-3.20882e-18
-4.78264e-18
-6.30904e-18
-4.17598e-18
9.46969e-19
-2.13852e-19
-3.12748e-18
-3.47737e-18
-1.5507e-18
1.59385e-18
2.45246e-18
-2.09133e-19
-2.0659e-18
-1.80683e-18
-3.96193e-19
1.57169e-18
1.66548e-18
9.43499e-19
3.83109e-19
2.39336e-18
3.11549e-18
1.60248e-18
3.66869e-19
1.37092e-18
1.87799e-18
1.02435e-18
1.66563e-19
6.71012e-19
2.10762e-18
-1.59374e-19
-2.02647e-18
-3.05788e-18
-2.18028e-18
5.78432e-19
9.32911e-19
3.94784e-19
-1.60384e-18
-2.10915e-18
-1.16213e-18
-2.35423e-18
-3.30959e-18
-2.03685e-18
-1.07033e-18
-1.39729e-21
8.39526e-19
1.43449e-19
-3.06129e-19
-1.10142e-18
-9.79058e-19
3.32876e-19
-8.27192e-19
-5.15407e-19
-1.58054e-19
-1.14441e-18
-2.49254e-18
-4.94022e-19
2.61841e-18
4.27444e-18
5.69187e-18
4.75698e-18
3.62759e-18
1.08757e-18
3.68488e-19
3.27732e-18
3.08419e-18
2.60758e-18
2.19424e-18
1.73062e-18
3.60621e-18
1.12997e-18
1.15792e-18
8.93625e-19
5.20359e-19
1.69378e-18
4.17728e-18
2.87095e-18
5.28815e-19
-3.34424e-19
-2.29919e-18
-3.01176e-18
-2.28757e-18
-3.12439e-18
-5.90531e-18
-4.54332e-18
-2.11489e-18
-1.77306e-19
-1.71797e-19
-2.09797e-18
-3.5785e-19
3.51221e-19
-3.7005e-19
-7.44407e-19
-1.92758e-19
7.30939e-19
-1.50399e-18
-9.26665e-19
-9.44227e-19
-2.40967e-18
-1.15916e-18
1.45749e-22
1.40158e-18
3.22155e-18
1.89716e-18
-2.06971e-19
8.47353e-19
1.8215e-18
3.25217e-18
1.89246e-18
6.54918e-19
1.64395e-18
-1.17739e-18
-1.14502e-18
-1.36834e-18
-4.04417e-18
-5.08435e-18
-2.32866e-18
8.14057e-19
7.34681e-19
-8.6654e-19
-2.53575e-18
-2.85303e-18
-1.48139e-18
2.02048e-18
1.82903e-18
-1.81376e-21
8.2616e-19
2.05389e-18
2.82878e-18
2.33191e-18
2.73199e-18
3.1455e-18
1.64801e-18
1.72581e-18
2.10251e-18
1.36066e-18
1.067e-18
-1.0642e-21
-1.78417e-18
-1.22323e-18
-1.88855e-18
-2.43452e-18
-1.96362e-19
1.12358e-18
-3.53415e-21
-9.76003e-19
-9.51704e-19
1.57542e-21
6.71878e-19
7.10977e-19
1.47998e-18
1.15646e-18
-3.57097e-19
-3.65032e-19
-1.26787e-19
-1.35672e-19
-1.28239e-18
-1.58318e-18
-1.14458e-18
-1.13564e-18
-1.39113e-19
-4.08554e-19
-1.03731e-18
-2.17562e-18
-1.8348e-18
-2.82967e-19
-1.12625e-18
-2.69821e-18
-2.7546e-18
-7.79976e-19
1.993e-18
-1.67888e-19
-2.68911e-18
-1.18482e-18
-7.13077e-19
-1.71075e-19
3.75822e-18
3.67975e-18
2.90495e-18
3.47809e-18
5.98612e-19
1.72401e-18
4.02834e-18
2.06612e-18
7.61595e-19
1.24416e-18
2.95065e-18
1.73404e-18
4.92687e-19
-1.45714e-19
-2.88067e-19
7.06119e-19
6.82841e-19
2.61603e-19
4.68054e-19
-7.1749e-19
-1.23088e-18
-1.76659e-18
-1.41163e-18
8.87041e-20
6.36346e-19
-2.80237e-19
2.77822e-19
1.98493e-19
-5.46804e-19
-4.66066e-19
-1.16006e-18
-1.30695e-19
-2.28706e-18
-2.79802e-18
-1.56998e-18
-2.61161e-18
-2.60819e-18
-1.4001e-18
-1.13944e-18
-4.11723e-19
1.08568e-18
1.10321e-18
6.66422e-19
-4.41813e-19
1.15567e-18
4.10515e-18
2.23005e-19
6.81089e-19
6.74315e-19
6.60155e-19
1.32493e-18
1.33651e-18
2.56389e-18
2.80243e-18
5.25201e-18
2.78359e-18
3.89023e-18
4.57252e-18
2.31281e-18
2.15024e-18
1.41693e-18
2.32854e-18
2.0076e-18
2.27193e-18
1.84415e-18
-1.9534e-18
-2.39122e-18
-1.70057e-18
-2.9575e-18
-2.29176e-18
-1.19637e-18
-1.44772e-18
-1.33099e-18
-3.26455e-19
-2.59454e-18
-2.79169e-18
-1.39551e-18
-1.0731e-18
-1.92783e-18
-3.69314e-18
-1.85733e-18
-2.0929e-19
-1.4926e-18
-2.128e-18
-4.05985e-19
-9.95884e-19
-1.61018e-18
-6.21058e-19
-2.20339e-18
4.05095e-19
1.98208e-18
-8.76483e-22
7.97654e-19
4.34616e-19
-1.25961e-18
-6.37347e-19
7.96517e-19
-3.04438e-21
1.42791e-21
1.64501e-18
2.59121e-18
3.0087e-18
1.96086e-18
2.19161e-18
1.29074e-18
-5.88288e-19
7.30326e-22
-6.74071e-19
-1.6388e-18
-7.98665e-19
-3.09947e-19
-3.18973e-19
1.97671e-19
2.99438e-19
8.09102e-19
9.2339e-19
1.59391e-19
-2.49172e-19
-2.20415e-19
7.69723e-20
7.98915e-19
1.46114e-18
1.5226e-18
1.63813e-18
9.31552e-19
6.82791e-19
7.98793e-19
6.62845e-19
3.79534e-19
5.00749e-19
1.19573e-19
-9.17336e-19
3.646e-21
-4.19928e-19
-1.01862e-18
-9.50758e-19
-1.06774e-18
7.18635e-19
1.42763e-18
4.25611e-19
1.45551e-19
-9.95962e-19
-1.16188e-18
5.11687e-19
5.21517e-19
-3.52e-19
-1.93036e-18
-2.7617e-18
-2.72865e-18
-1.53885e-18
-1.94167e-19
1.3501e-18
1.14334e-18
1.17096e-21
-9.59047e-19
3.86709e-19
5.80653e-19
-1.58401e-18
-3.38189e-18
-4.17962e-18
-1.97709e-18
7.14287e-22
2.19353e-19
2.21052e-19
-2.10256e-19
-1.06236e-18
1.26818e-21
-1.28459e-18
-5.99758e-19
1.05206e-18
-2.82935e-18
-3.97765e-18
-2.2431e-19
-2.34416e-19
-4.5368e-19
2.90527e-18
4.66818e-18
3.91084e-18
-4.43184e-19
-1.69511e-18
-2.87488e-18
-2.63089e-18
-2.35647e-19
4.44723e-19
9.70904e-19
-3.65989e-19
-1.14914e-18
-2.07262e-18
-1.14813e-18
-4.20797e-19
-1.64155e-22
7.04578e-19
-9.61261e-19
-1.61621e-18
-1.06134e-18
-2.00694e-18
-1.5675e-18
-3.13933e-19
2.03723e-19
2.1815e-19
5.49545e-19
5.70297e-19
5.96057e-19
1.17445e-19
-2.44348e-19
-2.43114e-19
-9.34862e-19
-5.74609e-19
-3.01128e-19
-1.47641e-19
1.22957e-18
3.06673e-19
-1.26079e-18
6.36239e-19
3.20811e-18
2.60321e-18
2.75873e-18
3.64839e-18
3.951e-18
1.86825e-18
4.68236e-19
7.07773e-19
1.07725e-18
5.68791e-19
1.12993e-18
1.49107e-18
1.45561e-18
8.41483e-19
8.64997e-19
7.7954e-19
1.0397e-18
1.50295e-18
1.29523e-18
-1.0692e-19
-1.20348e-18
-6.94147e-19
-5.99984e-19
-1.56986e-18
-1.59347e-18
-4.01055e-19
1.52981e-19
4.67398e-19
-1.02859e-18
-1.90408e-18
-1.41013e-18
-1.01198e-18
-2.40689e-18
-7.48958e-19
1.54614e-18
-3.80332e-19
-2.44029e-18
-3.09399e-18
-3.05818e-18
-3.40965e-18
-3.51724e-18
-2.55549e-18
-2.09786e-18
-2.15804e-18
-1.05821e-18
3.8753e-19
5.36285e-19
2.84711e-21
-6.59091e-19
-2.76604e-19
9.90201e-19
1.32858e-18
-6.0697e-19
-1.08173e-18
6.25037e-19
7.13799e-19
-7.44328e-19
-4.35539e-19
7.86892e-19
1.20675e-18
2.94953e-18
2.51466e-18
1.42686e-18
2.14617e-18
2.75404e-18
2.71796e-18
3.75188e-18
2.12013e-18
1.48068e-19
-2.86623e-19
-2.85733e-19
1.39219e-19
1.61408e-18
1.71464e-18
8.67153e-19
7.09276e-19
-1.73365e-19
-1.20618e-18
-4.86217e-19
1.41181e-19
-2.83615e-19
-3.61341e-19
3.26968e-19
-1.76705e-21
1.94854e-19
-3.73778e-19
-6.03444e-19
1.80236e-19
7.27677e-19
1.51282e-18
-1.0584e-19
-9.0485e-19
-8.54347e-19
-2.10024e-19
-1.35258e-18
-2.23457e-18
-1.41935e-18
-1.87209e-18
-9.75855e-19
3.8368e-21
-1.06339e-18
-2.40005e-18
-3.70552e-18
-8.86539e-19
-6.32913e-19
-1.07301e-18
6.21106e-19
6.52888e-19
-1.15032e-18
-1.86707e-18
-1.7148e-18
-8.91508e-19
-1.07872e-18
-1.75809e-18
-8.41833e-19
-1.63939e-19
1.56339e-19
7.50177e-19
7.28971e-19
1.44324e-19
7.12235e-19
2.00591e-18
9.79274e-19
9.09078e-19
1.06331e-18
9.67907e-19
8.00305e-19
3.4051e-19
1.68185e-19
1.75281e-19
5.26495e-19
6.60676e-19
1.00363e-18
1.90549e-18
1.28038e-18
2.97261e-19
-4.61037e-19
-8.51233e-19
-7.68505e-19
-9.40821e-19
-5.52054e-19
-2.45643e-18
-2.94686e-18
-9.15167e-19
-5.53778e-19
-3.04723e-19
7.3544e-19
1.5213e-18
9.93235e-19
7.21532e-19
9.6243e-19
-8.31128e-19
-2.54591e-19
1.14104e-18
1.11206e-18
1.16092e-18
4.05476e-19
5.24326e-19
1.31683e-18
1.42213e-18
1.3187e-18
8.44452e-19
5.90644e-19
1.1299e-18
4.09556e-19
3.24859e-19
5.51681e-19
5.36821e-19
1.98068e-21
1.66994e-19
4.74119e-19
4.77837e-19
-2.07716e-19
8.71789e-20
2.49512e-19
-3.7007e-19
3.63358e-19
1.02606e-18
-1.2406e-18
-1.27342e-18
-4.68742e-19
-2.07181e-18
-2.51247e-18
-2.07352e-18
-2.10508e-18
-1.6607e-18
-6.17995e-19
-1.72581e-18
-2.61168e-18
-2.14839e-18
-1.3064e-18
1.10994e-19
-1.12841e-19
-1.47246e-18
-4.70945e-19
1.08507e-18
2.1624e-19
4.35037e-19
1.17901e-18
-1.08728e-19
-1.02446e-18
-3.86315e-19
1.78013e-19
-1.53887e-19
-6.82601e-20
2.32786e-19
6.05856e-19
7.77481e-19
4.70102e-19
3.45108e-19
7.05292e-19
1.18099e-18
6.45682e-19
4.10686e-19
2.17247e-19
-3.72221e-21
-7.94104e-19
-1.22573e-18
-5.64427e-19
-6.95344e-19
-1.74433e-19
5.07169e-19
-5.583e-19
-3.85143e-19
8.62361e-19
8.29956e-19
6.71357e-19
1.10933e-19
1.00387e-19
-1.11336e-21
-1.16315e-18
-1.26107e-18
-7.2687e-19
-1.34393e-19
-1.94568e-18
-2.77827e-18
-1.44997e-18
-1.62452e-19
3.08531e-19
-1.16215e-18
-1.68685e-18
-2.17054e-18
-6.37277e-19
1.68584e-18
1.24228e-18
-9.75782e-19
1.51335e-19
1.81339e-18
1.40431e-18
1.52737e-18
2.84218e-18
1.9662e-18
8.15852e-19
7.43678e-19
-2.38442e-19
9.19767e-19
1.8199e-18
1.1832e-19
-5.02485e-19
9.54971e-19
7.07599e-19
4.91662e-22
2.18422e-19
-5.4705e-19
-1.03843e-18
3.34733e-19
4.68568e-19
7.03742e-19
9.05629e-19
-7.52544e-20
2.13148e-19
4.25052e-19
2.22405e-19
2.66353e-19
3.00262e-19
1.28522e-19
6.30809e-20
-2.15921e-20
-2.70512e-20
2.62622e-20
-9.43248e-20
-3.00032e-20
3.74532e-20
1.91582e-19
-1.08328e-22
-2.25413e-19
-4.99466e-19
-5.45627e-19
-2.00485e-19
4.37046e-21
-2.41184e-19
-8.094e-19
-7.64973e-19
-2.90427e-19
-8.32514e-20
-7.78919e-19
-9.41221e-19
-6.88218e-19
-4.24578e-19
-7.72104e-19
-6.81776e-19
1.10045e-19
-1.15303e-19
-2.3553e-19
1.47871e-18
1.2867e-18
-1.01606e-18
-5.88735e-19
6.47371e-19
9.7755e-19
1.02783e-18
9.78348e-19
1.38664e-18
-1.34178e-18
-1.70459e-18
1.61308e-19
2.66841e-18
2.20641e-18
2.7991e-19
3.87557e-19
2.46656e-19
5.20073e-19
3.68964e-19
-1.5356e-19
-1.31683e-19
2.16067e-19
5.85008e-19
5.18343e-19
2.2377e-19
-5.46612e-20
-1.15571e-19
-1.12717e-19
-3.75134e-19
-3.88734e-19
3.26601e-19
4.65132e-19
5.78108e-20
-6.09687e-19
-7.17393e-19
-6.80873e-19
-7.29497e-19
-2.28657e-19
-3.85031e-19
-2.38975e-19
2.04356e-21
-2.28823e-20
-1.64148e-19
-4.85405e-20
1.96805e-19
2.87948e-19
8.00778e-19
1.17074e-18
3.97526e-19
-3.4554e-19
-3.95897e-19
-2.71608e-19
-5.94716e-19
-8.49086e-19
5.37657e-22
7.57466e-19
9.24492e-19
-2.92881e-19
-4.23052e-19
1.33241e-18
6.3147e-19
8.09851e-20
1.97069e-19
4.5313e-19
1.34459e-19
3.96418e-20
2.65434e-19
3.61337e-19
1.00123e-19
1.77197e-20
-4.52451e-20
1.68967e-20
1.50138e-19
2.56837e-19
2.06042e-19
7.75067e-20
3.0177e-19
4.32795e-19
-8.02611e-22
-1.02748e-19
3.37947e-19
1.6683e-19
-5.58195e-19
-1.85775e-19
2.88916e-19
-1.61904e-19
-9.71499e-20
2.94322e-19
3.69413e-19
4.83879e-19
1.5519e-19
-1.33032e-21
-1.92645e-19
-4.24421e-19
-3.12692e-19
-6.39751e-20
2.50578e-19
-8.51735e-22
-9.12419e-19
-1.04387e-18
-6.49523e-19
-6.63922e-19
-6.70722e-19
-1.1488e-18
-2.02168e-18
-1.24283e-18
-3.52439e-19
-6.65845e-19
-1.39026e-18
-1.34457e-18
-1.07026e-19
-8.88415e-19
-1.98468e-19
6.15923e-19
-3.89683e-19
-6.71199e-19
-1.7374e-19
8.63557e-19
8.97233e-19
4.81454e-19
-1.14896e-22
8.29103e-19
1.31347e-18
5.3174e-19
2.48953e-19
1.53411e-18
1.15435e-18
4.6113e-19
5.41464e-19
-1.98081e-19
-1.13278e-18
-7.04553e-19
5.19865e-19
7.99168e-19
1.15936e-18
1.53993e-18
4.53194e-19
2.0688e-19
-4.30449e-19
-8.58842e-19
-1.61645e-18
-2.281e-18
-1.70388e-18
-1.71631e-18
-1.63074e-18
-1.51045e-18
-1.86772e-19
3.92484e-19
-9.61028e-20
2.8964e-19
3.19531e-22
-3.94358e-22
-5.07383e-19
-3.22252e-19
2.65667e-19
2.03293e-19
5.79598e-19
7.45123e-19
6.33464e-19
1.14935e-18
8.27349e-19
1.3089e-18
1.34183e-18
6.11639e-19
3.80465e-19
1.21508e-18
7.35424e-19
-2.13046e-19
-2.51099e-19
2.90508e-19
7.79418e-19
8.28671e-20
-6.01169e-19
-6.39838e-19
-4.64084e-19
-1.0471e-19
-1.33847e-21
-3.41468e-19
-1.77303e-18
-1.32344e-18
-1.04527e-18
-4.66999e-19
4.2243e-19
5.15424e-22
3.75321e-19
9.227e-20
-7.08292e-19
-3.3011e-19
1.90684e-19
-2.88433e-19
4.3572e-19
7.89204e-19
1.60192e-19
1.5084e-19
3.75883e-19
6.32151e-19
2.95936e-19
2.51689e-19
4.69602e-20
2.32535e-19
2.49863e-19
7.20009e-20
-3.78806e-19
-5.01386e-19
4.5362e-19
9.28137e-20
1.93607e-19
9.68756e-20
-5.70124e-19
-1.00135e-19
9.45738e-19
1.50998e-18
1.93867e-18
1.96957e-18
6.14162e-19
4.15149e-19
1.0673e-18
8.0394e-19
2.0536e-18
1.56929e-18
3.99728e-19
7.04265e-19
1.62549e-18
2.45088e-18
2.95609e-18
2.23818e-18
1.19329e-18
2.81124e-19
9.71469e-19
2.43136e-18
1.9412e-18
4.99395e-19
-1.04117e-18
-1.65621e-18
-6.97344e-19
-2.99295e-21
-1.87111e-18
-2.35965e-18
1.81342e-19
-3.91368e-19
-2.47876e-18
-3.878e-18
-1.96573e-18
1.5843e-18
2.17044e-18
2.09523e-18
1.43539e-18
-6.6722e-19
-6.6508e-19
1.8582e-18
1.16217e-18
7.18634e-19
1.59286e-18
1.64707e-18
2.23216e-19
-7.22327e-19
-1.62358e-18
-4.05804e-18
-7.33212e-18
-6.0897e-18
-3.9975e-18
-4.51125e-18
-6.44163e-19
-1.7069e-18
-5.05636e-18
-2.54465e-18
-1.71514e-18
-1.26145e-18
-4.25642e-19
-1.2538e-18
-1.68032e-18
-2.72049e-18
-1.81354e-18
-4.47018e-22
-2.61009e-21
-1.09526e-18
-1.45044e-19
1.01437e-18
1.24791e-18
2.43235e-19
5.33974e-21
1.98122e-19
5.45401e-19
4.03941e-19
5.47831e-19
1.05953e-18
9.59166e-19
6.84133e-19
-9.65084e-22
-4.12437e-19
-3.32115e-19
1.74665e-19
8.74195e-19
5.34726e-19
-3.15051e-19
-2.49759e-19
7.92593e-19
1.43504e-18
1.16629e-18
1.97987e-19
3.10149e-19
2.02022e-19
1.56159e-18
1.85686e-18
3.94612e-19
4.11542e-19
4.45102e-19
1.47141e-19
-1.56275e-19
3.15884e-19
1.22578e-18
3.50525e-19
-3.69339e-19
-3.47393e-19
5.72026e-19
1.64406e-18
1.74027e-18
3.63804e-19
-2.36088e-18
-2.75225e-18
-2.24386e-18
-1.6739e-18
-5.14611e-19
-1.01701e-18
-2.90102e-18
-3.69706e-18
-6.16504e-18
-7.08546e-18
-5.60227e-18
-4.68154e-18
-2.06873e-18
4.50998e-18
1.48606e-17
3.53822e-17
8.20882e-17
1.76668e-16
3.58313e-16
7.13341e-16
1.40138e-15
2.70987e-15
5.26826e-15
1.01432e-14
1.93326e-14
3.67268e-14
6.95249e-14
1.30931e-13
2.45579e-13
4.59519e-13
8.56064e-13
1.58828e-12
2.93773e-12
5.41456e-12
9.9443e-12
1.81966e-11
3.31833e-11
6.02953e-11
1.09159e-10
1.96925e-10
3.53994e-10
6.34007e-10
1.13142e-09
2.0117e-09
3.56362e-09
6.28938e-09
1.10585e-08
1.93706e-08
3.38016e-08
5.87578e-08
1.01745e-07
1.75496e-07
3.01516e-07
5.15979e-07
8.79457e-07
1.49294e-06
2.52406e-06
4.24982e-06
7.12588e-06
1.18983e-05
1.9783e-05
3.27524e-05
5.39907e-05
8.86132e-05
0.000144798
0.000235555
0.000381474
0.000614978
0.000986853
0.00157624
0.00250577
0.00396451
0.00624222
0.00978055
0.0152488
0.0236552
0.0365098
0.0560599
0.0856296
0.130105
0.196619
0.295519
0.441712
0.656523
0.970241
1.42557
2.08227
3.02331
4.36299
6.25745
8.91824
12.6294
17.769
24.8357
34.4804
47.5451
65.1076
88.5325
119.53
160.216
213.183
281.564
369.099
480.193
619.965
794.278
1009.75
1273.71
1594.21
1979.84
2439.68
2983.09
3619.56
4358.41
5208.62
6178.55
7275.7
8506.47
9876.03
11388.1
13044.8
14847
16793.6
18882.2
21109.3
23469.7
25957.6
28566.1
31287.7
34114.7
37038.9
40052.1
43146.1
46313.2
49545.8
52837
56180.2
59569.4
62999.4
66464.9
69961.7
73485.7
77033.3
80601.3
84186.8
87787.4
91400.7
95024.7
98657.7
102298
105945
109596
113251
116909
120569
124230
127891
131552
135213
138873
142531
146187
149841
153493
157142
160788
164431
168071
171707
175339
178968
182593
186215
189832
193445
197055
200660
204261
207858
211450
215039
218623
222203
225778
229350
232917
236480
240039
243593
247143
250689
254231
257768
261302
264831
268355
271876
275393
278905
282413
285918
289418
292914
296405
299893
303377
306856
310332
313803
317271
320734
324193
327648
331100
334547
337990
341429
344864
348294
351721
355144
358563
361977
365388
368794
372197
375595
378989
382379
385765
389146
392524
395897
399266
402631
405992
409348
412700
416048
419392
422731
426066
429397
432724
436046
439363
442677
445985
449290
452590
455885
459176
462463
465745
469022
472295
475563
478827
482086
485341
488591
491836
495076
498312
501543
504770
507992
511209
514421
517628
520831
524029
527222
530410
533593
536772
539946
543114
546278
549437
552591
555740
558885
562024
565158
568288
571412
574531
577646
580755
583860
586959
590054
593143
596228
599307
602381
605451
608515
611574
614628
617678
620722
623761
626795
629824
632847
635866
638880
641889
644892
647891
650884
653873
656856
659834
662807
665775
668738
671696
674649
677597
680540
683478
686410
689338
692260
695178
698090
700998
703900
706797
709689
712577
715459
718336
721208
724075
726937
729794
732646
735493
738335
741172
744004
746831
749653
752470
755282
758089
760891
763688
766480
769267
772049
774826
777598
780365
783127
785885
788637
791385
794127
796865
799597
802325
805048
807766
810479
813187
815890
818588
821281
823970
826653
829332
832006
834675
837339
839998
842653
845302
847947
850587
853222
855852
858477
861097
863713
866324
868930
871531
874127
876719
879305
881887
884465
887037
889604
892167
894725
897278
899827
902371
904909
907444
909973
912498
915018
917533
920043
922549
925050
927546
930037
932524
935006
937484
939956
942424
944888
947346
949800
952249
954694
957133
959569
961999
964425
966846
969262
971674
974081
976484
978882
981275
983664
986047
988427
990801
993172
995537
997898
1.00025e+06
1.00261e+06
1.00495e+06
1.0073e+06
1.00963e+06
1.01197e+06
1.0143e+06
1.01662e+06
1.01894e+06
1.02125e+06
1.02356e+06
1.02587e+06
1.02817e+06
1.03047e+06
1.03276e+06
1.03505e+06
1.03733e+06
1.03961e+06
1.04188e+06
1.04415e+06
1.04642e+06
1.04868e+06
1.05093e+06
1.05318e+06
1.05543e+06
1.05767e+06
1.05991e+06
1.06214e+06
1.06437e+06
1.0666e+06
1.06882e+06
1.07103e+06
1.07324e+06
1.07545e+06
1.07765e+06
1.07985e+06
1.08204e+06
1.08423e+06
1.08641e+06
1.08859e+06
1.09077e+06
1.09294e+06
1.09511e+06
1.09727e+06
1.09942e+06
1.10158e+06
1.10373e+06
1.10587e+06
1.10801e+06
1.11014e+06
1.11228e+06
1.1144e+06
1.11652e+06
1.11864e+06
1.12075e+06
1.12286e+06
1.12497e+06
1.12707e+06
1.12916e+06
1.13125e+06
1.13334e+06
1.13542e+06
1.1375e+06
1.13957e+06
1.14164e+06
1.14371e+06
1.14577e+06
1.14783e+06
1.14988e+06
1.15193e+06
1.15397e+06
1.15601e+06
1.15804e+06
1.16007e+06
1.1621e+06
1.16412e+06
1.16614e+06
1.16815e+06
1.17016e+06
1.17216e+06
1.17416e+06
1.17616e+06
1.17815e+06
1.18014e+06
1.18212e+06
1.1841e+06
1.18607e+06
1.18804e+06
1.19001e+06
1.19197e+06
1.19393e+06
1.19588e+06
1.19783e+06
1.19977e+06
1.20171e+06
1.20365e+06
1.20558e+06
1.20751e+06
1.20943e+06
1.21135e+06
1.21327e+06
1.21518e+06
1.21708e+06
1.21899e+06
1.22088e+06
1.22278e+06
1.22467e+06
1.22655e+06
1.22843e+06
1.23031e+06
1.23218e+06
1.23405e+06
1.23592e+06
1.23778e+06
1.23963e+06
1.24148e+06
1.24333e+06
1.24517e+06
1.24701e+06
1.24885e+06
1.25068e+06
1.25251e+06
1.25433e+06
1.25615e+06
1.25796e+06
1.25977e+06
1.26158e+06
1.26338e+06
1.26518e+06
1.26697e+06
1.26876e+06
1.27055e+06
1.27233e+06
1.27411e+06
1.27588e+06
1.27765e+06
1.27942e+06
1.28118e+06
1.28293e+06
1.28469e+06
1.28644e+06
1.28818e+06
1.28992e+06
1.29166e+06
1.29339e+06
1.29512e+06
1.29684e+06
1.29857e+06
1.30028e+06
1.30199e+06
1.3037e+06
1.30541e+06
1.30711e+06
1.3088e+06
1.3105e+06
1.31218e+06
1.31387e+06
1.31555e+06
1.31722e+06
1.3189e+06
1.32056e+06
1.32223e+06
1.32389e+06
1.32554e+06
1.3272e+06
1.32885e+06
1.33049e+06
1.33213e+06
1.33377e+06
1.3354e+06
1.33703e+06
1.33865e+06
1.34027e+06
1.34189e+06
1.3435e+06
1.34511e+06
1.34671e+06
1.34831e+06
1.34991e+06
1.3515e+06
1.35309e+06
1.35468e+06
1.35626e+06
1.35784e+06
1.35941e+06
1.36098e+06
1.36254e+06
1.36411e+06
1.36566e+06
1.36722e+06
1.36877e+06
1.37031e+06
1.37185e+06
1.37339e+06
1.37493e+06
1.37646e+06
1.37798e+06
1.37951e+06
1.38103e+06
1.38254e+06
1.38405e+06
1.38556e+06
1.38706e+06
1.38856e+06
1.39006e+06
1.39155e+06
1.39304e+06
1.39452e+06
1.396e+06
1.39748e+06
1.39895e+06
1.40042e+06
1.40189e+06