/*--------------------------------*- C++ -*----------------------------------*\
  =========                 |
  \\      /  F ield         | OpenFOAM: The Open Source CFD Toolbox
   \\    /   O peration     | Website:  https://openfoam.org
    \\  /    A nd           | Version:  9
     \\/     M anipulation  |
\*---------------------------------------------------------------------------*/
FoamFile
{
    format      ascii;
    class       volScalarField;
    location    "0.008";
    object      p;
}
// * * * * * * * * * * * * * * * * * * * * * * * * * * * * * * * * * * * * * //

dimensions      [1 -1 -2 0 0 0 0];

internalField   nonuniform List<scalar> 
10000
(
100000
100000
100000
100000
100000
100000
100000
100000
100000
100000
100000
100000
100000
100000
100000
100000
100000
100000
100000
100000
100000
100000
100000
100000
100000
100000
100000
100000
100000
100000
100000
100000
100000
100000
100000
100000
100000
100000
100000
100000
100000
100000
100000
100000
100000
100000
100000
100000
100000
100000
100000
100000
100000
100000
100000
100000
100000
100000
100000
100000
100000
100000
100000
100000
100000
100000
100000
100000
100000
100000
100000
100000
100000
100000
100000
100000
100000
100000
100000
100000
100000
100000
100000
100000
100000
100000
100000
100000
100000
100000
100000
100000
100000
100000
100000
100000
100000
100000
100000
100000
100000
100000
100000
100000
100000
100000
100000
100000
100000
100000
100000
100000
100000
100000
100000
100000
100000
100000
100000
100000
100000
100000
100000
100000
100000
100000
100000
100000
100000
100000
100000
100000
100000
100000
100000
100000
100000
100000
100000
100000
100000
100000
100000
100000
100000
100000
100000
100000
100000
100000
100000
100000
100000
100000
100000
100000
100000
100000
100000
100000
100000
100000
100000
100000
100000
100000
100000
100000
100000
100000
100000
100000
100000
100000
100000
100000
100000
100000
100000
100000
100000
100000
100000
100000
100000
100000
100000
100000
100000
100000
100000
100000
100000
100000
100000
100000
100000
100000
100000
100000
100000
100000
100000
100000
100000
100000
100000
100000
100000
100000
100000
100000
100000
100000
100000
100000
100000
100000
100000
100000
100000
100000
100000
100000
100000
100000
100000
100000
100000
100000
100000
100000
100000
100000
100000
100000
100000
100000
100000
100000
100000
100000
100000
100000
100000
100000
100000
100000
100000
100000
100000
100000
100000
100000
100000
100000
100000
100000
100000
100000
100000
100000
100000
100000
100000
100000
100000
100000
100000
100000
100000
100000
100000
100000
100000
100000
100000
100000
100000
100000
100000
100000
100000
100000
100000
100000
100000
100000
100000
100000
100000
100000
100000
100000
100000
100000
100000
100000
100000
100000
100000
100000
100000
100000
100000
100000
100000
100000
100000
100000
100000
100000
100000
100000
100000
100000
100000
100000
100000
100000
100000
100000
100000
100000
100000
100000
100000
100000
100000
100000
100000
100000
100000
100000
100000
100000
100000
100000
100000
100000
100000
100000
100000
100000
100000
100000
100000
100000
100000
100000
100000
100000
100000
100000
100000
100000
100000
100000
100000
100000
100000
100000
100000
100000
100000
100000
100000
100000
100000
100000
100000
100000
100000
100000
100000
100000
100000
100000
100000
100000
100000
100000
100000
100000
100000
100000
100000
100000
100000
100000
100000
100000
100000
100000
100000
100000
100000
100000
100000
100000
100000
100000
100000
100000
100000
100000
100000
100000
100000
100000
100000
100000
100000
100000
100000
100000
100000
100000
100000
100000
100000
100000
100000
100000
100000
100000
100000
100000
100000
100000
100000
100000
100000
100000
100000
100000
100000
100000
100000
100000
100000
100000
100000
100000
100000
100000
100000
100000
100000
100000
100000
100000
100000
100000
100000
100000
100000
100000
100000
100000
100000
100000
100000
100000
100000
100000
100000
100000
100000
100000
100000
100000
100000
100000
100000
100000
100000
100000
100000
100000
100000
100000
100000
100000
100000
100000
100000
100000
100000
100000
100000
100000
100000
100000
100000
100000
100000
100000
100000
100000
100000
100000
100000
100000
100000
100000
100000
100000
100000
100000
100000
100000
100000
100000
100000
100000
100000
100000
100000
100000
100000
100000
100000
100000
100000
100000
100000
100000
100000
100000
100000
100000
100000
100000
100000
100000
100000
100000
100000
100000
100000
100000
100000
100000
100000
100000
100000
100000
100000
100000
100000
100000
100000
100000
100000
100000
100000
100000
100000
100000
100000
100000
100000
100000
100000
100000
100000
100000
100000
100000
100000
100000
100000
100000
100000
100000
100000
100000
100000
100000
100000
100000
100000
100000
100000
100000
100000
100000
100000
100000
100000
100000
100000
100000
100000
100000
100000
100000
100000
100000
100000
100000
100000
100000
100000
100000
100000
100000
100000
100000
100000
100000
100000
100000
100000
100000
100000
100000
100000
100000
100000
100000
100000
100000
100000
100000
100000
100000
100000
100000
100000
100000
100000
100000
100000
100000
100000
100000
100000
100000
100000
100000
100000
100000
100000
100000
100000
100000
100000
100000
100000
100000
100000
100000
100000
100000
100000
100000
100000
100000
100000
100000
100000
100000
100000
100000
100000
100000
100000
100000
100000
100000
100000
100000
100000
100000
100000
100000
100000
100000
100000
100000
100000
100000
100000
100000
100000
100000
100000
100000
100000
100000
100000
100000
100000
100000
100000
100000
100000
100000
100000
100000
100000
100000
100000
100000
100000
100000
100000
100000
100000
100000
100000
100000
100000
100000
100000
100000
100000
100000
100000
100000
100000
100000
100000
100000
100000
100000
100000
100000
100000
100000
100000
100000
100000
100000
100000
100000
100000
100000
100000
100000
100000
100000
100000
100000
100000
100000
100000
100000
100000
100000
100000
100000
100000
100000
100000
100000
100000
100000
100000
100000
100000
100000
100000
100000
100000
100000
100000
100000
100000
100000
100000
100000
100000
100000
100000
100000
100000
100000
100000
100000
100000
100000
100000
100000
100000
100000
100000
100000
100000
100000
100000
100000
100000
100000
100000
100000
100000
100000
100000
100000
100000
100000
100000
100000
100000
100000
100000
100000
100000
100000
100000
100000
100000
100000
100000
100000
100000
100000
100000
100000
100000
100000
100000
100000
100000
100000
100000
100000
100000
100000
100000
100000
100000
100000
100000
100000
100000
100000
100000
100000
100000
100000
100000
100000
100000
100000
100000
100000
100000
100000
100000
100000
100000
100000
100000
100000
100000
100000
100000
100000
100000
100000
100000
100000
100000
100000
100000
100000
100000
100000
100000
100000
100000
100000
100000
100000
100000
100000
100000
100000
100000
100000
100000
100000
100000
100000
100000
100000
100000
100000
100000
100000
100000
100000
100000
100000
100000
100000
100000
100000
100000
100000
100000
100000
100000
100000
100000
100000
100000
100000
100000
100000
100000
100000
100000
100000
100000
100000
100000
100000
100000
100000
100000
100000
100000
100000
100000
100000
100000
100000
100000
100000
100000
100000
100000
100000
100000
100000
100000
100000
100000
100000
100000
100000
100000
100000
100000
100000
100000
100000
100000
100000
100000
100000
100000
100000
100000
100000
100000
100000
100000
100000
100000
100000
100000
100000
100000
100000
100000
100000
100000
100000
100000
100000
100000
100000
100000
100000
100000
100000
100000
100000
100000
100000
100000
100000
100000
100000
100000
100000
100000
100000
100000
100000
100000
100000
100000
100000
100000
100000
100000
100000
100000
100000
100000
100000
100000
100000
100000
100000
100000
100000
100000
100000
100000
100000
100000
100000
100000
100000
100000
100000
100000
100000
100000
100000
100000
100000
100000
100000
100000
100000
100000
100000
100000
100000
100000
100000
100000
100000
100000
100000
100000
100000
100000
100000
100000
100000
100000
100000
100000
100000
100000
100000
100000
100000
100000
100000
100000
100000
100000
100000
100000
100000
100000
100000
100000
100000
100000
100000
100000
100000
100000
100000
100000
100000
100000
100000
100000
100000
100000
100000
100000
100000
100000
100000
100000
100000
100000
100000
100000
100000
100000
100000
100000
100000
100000
100000
100000
100000
100000
100000
100000
100000
100000
100000
100000
100000
100000
100000
100000
100000
100000
100000
100000
100000
100000
100000
100000
100000
100000
100000
100000
100000
100000
100000
100000
100000
100000
100000
100000
100000
100000
100000
100000
100000
100000
100000
100000
100000
100000
100000
100000
100000
100000
100000
100000
100000
100000
100000
100000
100000
100000
100000
100000
100000
100000
100000
100000
100000
100000
100000
100000
100000
100000
100000
100000
100000
100000
100000
100000
100000
100000
100000
100000
100000
100000
100000
100000
100000
100000
100000
100000
100000
100000
100000
100000
100000
100000
100000
100000
100000
100000
100000
100000
100000
100000
100000
100000
100000
100000
100000
100000
100000
100000
100000
100000
100000
100000
100000
100000
100000
100000
100000
100000
100000
100000
100000
100000
100000
100000
100000
100000
100000
100000
100000
100000
100000
100000
100000
100000
100000
100000
100000
100000
100000
100000
100000
100000
100000
100000
100000
100000
100000
100000
100000
100000
100000
100000
100000
100000
100000
100000
100000
100000
100000
100000
100000
100000
100000
100000
100000
100000
100000
100000
100000
100000
100000
100000
100000
100000
100000
100000
100000
100000
100000
100000
100000
100000
100000
100000
100000
100000
100000
100000
100000
100000
100000
100000
100000
100000
100000
100000
100000
100000
100000
100000
100000
100000
100000
100000
100000
100000
100000
100000
100000
100000
100000
100000
100000
100000
100000
100000
100000
100000
100000
100000
100000
100000
100000
100000
100000
100000
100000
100000
100000
100000
100000
100000
100000
100000
100000
100000
100000
100000
100000
100000
100000
100000
100000
100000
100000
100000
100000
100000
100000
100000
100000
100000
100000
100000
100000
100000
100000
100000
100000
100000
100000
100000
100000
100000
100000
100000
100000
100000
100000
100000
100000
100000
100000
100000
100000
100000
100000
100000
100000
100000
100000
100000
100000
100000
100000
100000
100000
100000
100000
100000
100000
100000
100000
100000
100000
100000
100000
100000
100000
100000
100000
100000
100000
100000
100000
100000
100000
100000
100000
100000
100000
100000
100000
100000
100000
100000
100000
100000
100000
100000
100000
100000
100000
100000
100000
100000
100000
100000
100000
100000
100000
100000
100000
100000
100000
100000
100000
100000
100000
100000
100000
100000
100000
100000
100000
100000
100000
100000
100000
100000
100000
100000
100000
100000
100000
100000
100000
100000
100000
100000
100000
100000
100000
100000
100000
100000
100000
100000
100000
100000
100000
100000
100000
100000
100000
100000
100000
100000
100000
100000
100000
100000
100000
100000
100000
100000
100000
100000
100000
100000
100000
100000
100000
100000
100000
100000
100000
100000
100000
100000
100000
100000
100000
100000
100000
100000
100000
100000
100000
100000
100000
100000
100000
100000
100000
100000
100000
100000
100000
100000
100000
100000
100000
100000
100000
100000
100000
100000
100000
100000
100000
100000
100000
100000
100000
100000
100000
100000
100000
100000
100000
100000
100000
100000
100000
100000
100000
100000
100000
100000
100000
100000
100000
100000
100000
100000
100000
100000
100000
100000
100000
100000
100000
100000
100000
100000
100000
100000
100000
100000
100000
100000
100000
100000
100000
100000
100000
100000
100000
100000
100000
100000
100000
100000
100000
100000
100000
100000
100000
100000
100000
100000
100000
100000
100000
100000
100000
100000
100000
100000
100000
100000
100000
100000
100000
100000
100000
100000
100000
100000
100000
100000
100000
100000
100000
100000
100000
100000
100000
100000
100000
100000
100000
100000
100000
100000
100000
100000
100000
100000
100000
100000
100000
100000
100000
100000
100000
100000
100000
100000
100000
100000
100000
100000
100000
100000
100000
100000
100000
100000
100000
100000
100000
100000
100000
100000
100000
100000
100000
100000
100000
100000
100000
100000
100000
100000
100000
100000
100000
100000
100000
100000
100000
100000
100000
100000
100000
100000
100000
100000
100000
100000
100000
100000
100000
100000
100000
100000
100000
100000
100000
100000
100000
100000
100000
100000
100000
100000
100000
100000
100000
100000
100000
100000
100000
100000
100000
100000
100000
100000
100000
100000
100000
100000
100000
100000
100000
100000
100000
100000
100000
100000
100000
100000
100000
100000
100000
100000
100000
100000
100000
100000
100000
100000
100000
100000
100000
100000
100000
100000
100000
100000
100000
100000
100000
100000
100000
100000
100000
100000
100000
100000
100000
100000
100000
100000
100000
100000
100000
100000
100000
100000
100000
100000
100000
100000
100000
100000
100000
100000
100000
100000
100000
100000
100000
100000
100000
100000
100000
100000
100000
100000
100000
100000
100000
100000
100000
100000
100000
100000
100000
100000
100000
100000
100000
100000
100000
100000
100000
100000
100000
100000
100000
100000
100000
100000
100000
100000
100000
100000
100000
100000
100000
100000
100000
100000
100000
100000
100000
100000
100000
100000
100000
100000
100000
100000
100000
100000
100000
100000
100000
100000
100000
100000
100000
100000
100000
100000
100000
100000
100000
100000
100000
100000
100000
100000
100000
100000
100000
100000
100000
100000
100000
100000
100000
100000
100000
100000
100000
100000
100000
100000
100000
100000
100000
100000
100000
100000
100000
100000
100000
100000
100000
100000
100000
100000
100000
100000
100000
100000
100000
100000
100000
100000
100000
100000
100000
100000
100000
100000
100000
100000
100000
100000
100000
100000
100000
100000
100000
100000
100000
100000
100000
100000
100000
100000
100000
100000
100000
100000
100000
100000
100000
100000
100000
100000
100000
100000
100000
100000
100000
100000
100000
100000
100000
100000
100000
100000
100000
100000
100000
100000
100000
100000
100000
100000
100000
100000
100000
100000
100000
100000
100000
100000
99999.9
99999.9
99999.9
99999.9
99999.9
99999.8
99999.8
99999.7
99999.7
99999.6
99999.5
99999.4
99999.2
99999
99998.8
99998.6
99998.2
99997.9
99997.4
99996.9
99996.2
99995.4
99994.5
99993.5
99992.2
99990.8
99989.1
99987.1
99984.8
99982.2
99979.2
99975.8
99971.9
99967.5
99962.5
99956.9
99950.7
99943.7
99936
99927.5
99918.2
99907.9
99896.8
99884.6
99871.6
99857.5
99842.4
99826.2
99809.1
99790.9
99771.7
99751.6
99730.4
99708.3
99685.3
99661.4
99636.7
99611.1
99584.8
99557.7
99529.9
99501.5
99472.5
99442.9
99412.8
99382.2
99351.1
99319.6
99287.7
99255.4
99222.8
99189.9
99156.6
99123.2
99089.4
99055.5
99021.3
98986.9
98952.4
98917.7
98882.8
98847.8
98812.6
98777.4
98742
98706.5
98670.9
98635.2
98599.5
98563.6
98527.7
98491.7
98455.7
98419.5
98383.4
98347.2
98310.9
98274.6
98238.2
98201.9
98165.4
98129
98092.5
98056
98019.4
97982.9
97946.3
97909.6
97873
97836.4
97799.7
97763
97726.3
97689.6
97652.9
97616.1
97579.4
97542.6
97505.8
97469.1
97432.3
97395.5
97358.7
97321.9
97285.1
97248.2
97211.4
97174.6
97137.8
97100.9
97064.1
97027.3
96990.4
96953.6
96916.8
96879.9
96843.1
96806.2
96769.4
96732.6
96695.7
96658.9
96622
96585.2
96548.4
96511.5
96474.7
96437.9
96401
96364.2
96327.4
96290.6
96253.8
96216.9
96180.1
96143.3
96106.5
96069.7
96032.9
95996.1
95959.3
95922.6
95885.8
95849
95812.2
95775.4
95738.7
95701.9
95665.2
95628.4
95591.7
95554.9
95518.2
95481.5
95444.7
95408
95371.3
95334.6
95297.9
95261.2
95224.5
95187.8
95151.1
95114.5
95077.8
95041.1
95004.5
94967.8
94931.2
94894.5
94857.9
94821.3
94784.7
94748
94711.4
94674.8
94638.2
94601.7
94565.1
94528.5
94491.9
94455.4
94418.8
94382.3
94345.8
94309.2
94272.7
94236.2
94199.7
94163.2
94126.7
94090.2
94053.8
94017.3
93980.8
93944.4
93907.9
93871.5
93835.1
93798.7
93762.3
93725.9
93689.5
93653.1
93616.7
93580.3
93544
93507.6
93471.3
93435
93398.6
93362.3
93326
93289.7
93253.4
93217.1
93180.9
93144.6
93108.4
93072.1
93035.9
92999.7
92963.4
92927.2
92891
92854.9
92818.7
92782.5
92746.4
92710.2
92674.1
92637.9
92601.8
92565.7
92529.6
92493.5
92457.4
92421.4
92385.3
92349.2
92313.2
92277.2
92241.2
92205.1
92169.1
92133.1
92097.2
92061.2
92025.2
91989.3
91953.3
91917.4
91881.5
91845.6
91809.7
91773.8
91737.9
91702
91666.2
91630.3
91594.5
91558.6
91522.8
91487
91451.2
91415.4
91379.7
91343.9
91308.1
91272.4
91236.6
91200.9
91165.2
91129.5
91093.8
91058.1
91022.5
90986.8
90951.1
90915.5
90879.9
90844.3
90808.6
90773
90737.5
90701.9
90666.3
90630.8
90595.2
90559.7
90524.2
90488.6
90453.1
90417.7
90382.2
90346.7
90311.2
90275.8
90240.4
90204.9
90169.5
90134.1
90098.7
90063.3
90028
89992.6
89957.3
89921.9
89886.6
89851.3
89816
89780.7
89745.4
89710.1
89674.9
89639.6
89604.4
89569.1
89533.9
89498.7
89463.5
89428.3
89393.2
89358
89322.8
89287.7
89252.6
89217.5
89182.3
89147.2
89112.2
89077.1
89042
89007
88971.9
88936.9
88901.9
88866.9
88831.9
88796.9
88761.9
88726.9
88692
88657
88622.1
88587.2
88552.3
88517.4
88482.5
88447.6
88412.8
88377.9
88343.1
88308.2
88273.4
88238.6
88203.8
88169
88134.2
88099.5
88064.7
88030
87995.3
87960.5
87925.8
87891.1
87856.4
87821.8
87787.1
87752.4
87717.8
87683.2
87648.6
87613.9
87579.3
87544.8
87510.2
87475.6
87441.1
87406.5
87372
87337.5
87303
87268.5
87234
87199.5
87165
87130.6
87096.2
87061.7
87027.3
86992.9
86958.5
86924.1
86889.7
86855.4
86821
86786.7
86752.4
86718
86683.7
86649.4
86615.2
86580.9
86546.6
86512.4
86478.1
86443.9
86409.7
86375.5
86341.3
86307.1
86272.9
86238.8
86204.6
86170.5
86136.3
86102.2
86068.1
86034
85999.9
85965.9
85931.8
85897.8
85863.7
85829.7
85795.7
85761.7
85727.7
85693.7
85659.7
85625.8
85591.8
85557.9
85523.9
85490
85456.1
85422.2
85388.3
85354.5
85320.6
85286.8
85252.9
85219.1
85185.3
85151.5
85117.7
85083.9
85050.1
85016.4
84982.6
84948.9
84915.2
84881.5
84847.8
84814.1
84780.4
84746.7
84713
84679.4
84645.8
84612.1
84578.5
84544.9
84511.3
84477.7
84444.2
84410.6
84377.1
84343.5
84310
84276.5
84243
84209.5
84176
84142.5
84109.1
84075.6
84042.2
84008.8
83975.4
83942
83908.6
83875.2
83841.8
83808.5
83775.1
83741.8
83708.4
83675.1
83641.8
83608.5
83575.3
83542
83508.7
83475.5
83442.2
83409
83375.8
83342.6
83309.4
83276.2
83243.1
83209.9
83176.8
83143.6
83110.5
83077.4
83044.3
83011.2
82978.1
82945
82912
82878.9
82845.9
82812.9
82779.8
82746.8
82713.8
82680.9
82647.9
82614.9
82582
82549
82516.1
82483.2
82450.3
82417.4
82384.5
82351.7
82318.8
82285.9
82253.1
82220.3
82187.5
82154.7
82121.9
82089.1
82056.3
82023.5
81990.8
81958.1
81925.3
81892.6
81859.9
81827.2
81794.5
81761.9
81729.2
81696.5
81663.9
81631.3
81598.7
81566
81533.5
81500.9
81468.3
81435.7
81403.2
81370.6
81338.1
81305.6
81273.1
81240.6
81208.1
81175.6
81143.2
81110.7
81078.3
81045.8
81013.4
80981
80948.6
80916.2
80883.8
80851.5
80819.1
80786.8
80754.4
80722.1
80689.8
80657.5
80625.2
80592.9
80560.7
80528.4
80496.2
80463.9
80431.7
80399.5
80367.3
80335.1
80302.9
80270.8
80238.6
80206.4
80174.3
80142.2
80110.1
80078
80045.9
80013.8
79981.7
79949.7
79917.6
79885.6
79853.5
79821.5
79789.5
79757.5
79725.5
79693.6
79661.6
79629.7
79597.7
79565.8
79533.9
79502
79470.1
79438.2
79406.3
79374.4
79342.6
79310.7
79278.9
79247.1
79215.3
79183.5
79151.7
79119.9
79088.1
79056.4
79024.6
78992.9
78961.2
78929.5
78897.8
78866.1
78834.4
78802.7
78771
78739.4
78707.8
78676.1
78644.5
78612.9
78581.3
78549.7
78518.2
78486.6
78455
78423.5
78392
78360.5
78328.9
78297.4
78266
78234.5
78203
78171.6
78140.1
78108.7
78077.3
78045.8
78014.4
77983.1
77951.7
77920.3
77888.9
77857.6
77826.3
77794.9
77763.6
77732.3
77701
77669.7
77638.5
77607.2
77575.9
77544.7
77513.5
77482.3
77451
77419.8
77388.7
77357.5
77326.3
77295.2
77264
77232.9
77201.8
77170.6
77139.5
77108.5
77077.4
77046.3
77015.2
76984.2
76953.2
76922.1
76891.1
76860.1
76829.1
76798.1
76767.1
76736.2
76705.2
76674.3
76643.4
76612.4
76581.5
76550.6
76519.7
76488.9
76458
76427.1
76396.3
76365.4
76334.6
76303.8
76273
76242.2
76211.4
76180.6
76149.9
76119.1
76088.4
76057.7
76026.9
75996.2
75965.5
75934.8
75904.2
75873.5
75842.8
75812.2
75781.6
75750.9
75720.3
75689.7
75659.1
75628.5
75598
75567.4
75536.8
75506.3
75475.8
75445.3
75414.7
75384.2
75353.8
75323.3
75292.8
75262.4
75231.9
75201.5
75171
75140.6
75110.2
75079.8
75049.4
75019.1
74988.7
74958.4
74928
74897.7
74867.4
74837
74806.7
74776.5
74746.2
74715.9
74685.7
74655.4
74625.2
74594.9
74564.7
74534.5
74504.3
74474.1
74444
74413.8
74383.6
74353.5
74323.4
74293.2
74263.1
74233
74202.9
74172.9
74142.8
74112.7
74082.7
74052.6
74022.6
73992.6
73962.6
73932.6
73902.6
73872.6
73842.6
73812.7
73782.7
73752.8
73722.9
73693
73663.1
73633.2
73603.3
73573.4
73543.5
73513.7
73483.8
73454
73424.2
73394.4
73364.6
73334.8
73305
73275.2
73245.5
73215.7
73186
73156.3
73126.5
73096.8
73067.1
73037.4
73007.8
72978.1
72948.4
72918.8
72889.2
72859.5
72829.9
72800.3
72770.7
72741.1
72711.5
72682
72652.4
72622.9
72593.3
72563.8
72534.3
72504.8
72475.3
72445.8
72416.4
72386.9
72357.4
72328
72298.6
72269.1
72239.7
72210.3
72180.9
72151.6
72122.2
72092.8
72063.5
72034.1
72004.8
71975.5
71946.2
71916.9
71887.6
71858.3
71829
71799.8
71770.5
71741.3
71712.1
71682.9
71653.6
71624.4
71595.3
71566.1
71536.9
71507.8
71478.6
71449.5
71420.3
71391.2
71362.1
71333
71303.9
71274.9
71245.8
71216.7
71187.7
71158.7
71129.6
71100.6
71071.6
71042.6
71013.6
70984.7
70955.7
70926.7
70897.8
70868.9
70839.9
70811
70782.1
70753.2
70724.3
70695.5
70666.6
70637.8
70608.9
70580.1
70551.3
70522.4
70493.6
70464.8
70436.1
70407.3
70378.5
70349.8
70321
70292.3
70263.6
70234.9
70206.2
70177.5
70148.8
70120.1
70091.4
70062.8
70034.1
70005.5
69976.9
69948.3
69919.7
69891.1
69862.5
69833.9
69805.4
69776.8
69748.3
69719.7
69691.2
69662.7
69634.2
69605.7
69577.2
69548.7
69520.3
69491.8
69463.4
69435
69406.5
69378.1
69349.7
69321.3
69292.9
69264.6
69236.2
69207.8
69179.5
69151.2
69122.8
69094.5
69066.2
69037.9
69009.6
68981.4
68953.1
68924.8
68896.6
68868.4
68840.1
68811.9
68783.7
68755.5
68727.3
68699.2
68671
68642.8
68614.7
68586.6
68558.4
68530.3
68502.2
68474.1
68446
68418
68389.9
68361.8
68333.8
68305.7
68277.7
68249.7
68221.7
68193.7
68165.7
68137.7
68109.8
68081.8
68053.8
68025.9
67998
67970.1
67942.1
67914.2
67886.4
67858.5
67830.6
67802.7
67774.9
67747.1
67719.2
67691.4
67663.6
67635.8
67608
67580.2
67552.4
67524.7
67496.9
67469.2
67441.4
67413.7
67386
67358.3
67330.6
67302.9
67275.2
67247.6
67219.9
67192.3
67164.6
67137
67109.4
67081.8
67054.2
67026.6
66999
66971.5
66943.9
66916.3
66888.8
66861.3
66833.8
66806.2
66778.7
66751.3
66723.8
66696.3
66668.8
66641.4
66613.9
66586.5
66559.1
66531.7
66504.3
66476.9
66449.5
66422.1
66394.8
66367.4
66340.1
66312.7
66285.4
66258.1
66230.8
66203.5
66176.2
66148.9
66121.6
66094.4
66067.1
66039.9
66012.7
65985.4
65958.2
65931
65903.8
65876.6
65849.5
65822.3
65795.2
65768
65740.9
65713.8
65686.6
65659.5
65632.4
65605.3
65578.3
65551.2
65524.1
65497.1
65470.1
65443
65416
65389
65362
65335
65308
65281.1
65254.1
65227.1
65200.2
65173.3
65146.3
65119.4
65092.5
65065.6
65038.7
65011.9
64985
64958.1
64931.3
64904.4
64877.6
64850.8
64824
64797.2
64770.4
64743.6
64716.8
64690.1
64663.3
64636.6
64609.8
64583.1
64556.4
64529.7
64503
64476.3
64449.6
64423
64396.3
64369.7
64343
64316.4
64289.8
64263.2
64236.6
64210
64183.4
64156.8
64130.2
64103.7
64077.1
64050.6
64024.1
63997.6
63971.1
63944.6
63918.1
63891.6
63865.1
63838.7
63812.2
63785.8
63759.3
63732.9
63706.5
63680.1
63653.7
63627.3
63600.9
63574.6
63548.2
63521.9
63495.5
63469.2
63442.9
63416.6
63390.3
63364
63337.7
63311.4
63285.2
63258.9
63232.7
63206.4
63180.2
63154
63127.8
63101.6
63075.4
63049.2
63023
62996.9
62970.7
62944.6
62918.4
62892.3
62866.2
62840.1
62814
62787.9
62761.8
62735.8
62709.7
62683.6
62657.6
62631.6
62605.6
62579.5
62553.5
62527.5
62501.6
62475.6
62449.6
62423.7
62397.7
62371.8
62345.8
62319.9
62294
62268.1
62242.2
62216.3
62190.5
62164.6
62138.7
62112.9
62087.1
62061.2
62035.4
62009.6
61983.8
61958
61932.2
61906.4
61880.7
61854.9
61829.2
61803.4
61777.7
61752
61726.3
61700.6
61674.9
61649.2
61623.5
61597.9
61572.2
61546.6
61521
61495.3
61469.7
61444.1
61418.5
61392.9
61367.3
61341.8
61316.2
61290.6
61265.1
61239.6
61214
61188.5
61163
61137.5
61112
61086.5
61061.1
61035.6
61010.2
60984.7
60959.3
60933.9
60908.4
60883
60857.6
60832.2
60806.9
60781.5
60756.1
60730.8
60705.4
60680.1
60654.8
60629.5
60604.2
60578.9
60553.6
60528.3
60503
60477.7
60452.5
60427.3
60402
60376.8
60351.6
60326.4
60301.2
60276
60250.8
60225.6
60200.5
60175.3
60150.2
60125
60099.9
60074.8
60049.7
60024.6
59999.5
59974.4
59949.3
59924.3
59899.2
59874.2
59849.1
59824.1
59799.1
59774.1
59749.1
59724.1
59699.1
59674.1
59649.1
59624.2
59599.2
59574.3
59549.4
59524.5
59499.5
59474.6
59449.7
59424.9
59400
59375.1
59350.3
59325.4
59300.6
59275.7
59250.9
59226.1
59201.3
59176.5
59151.7
59126.9
59102.2
59077.4
59052.7
59027.9
59003.2
58978.5
58953.7
58929
58904.3
58879.7
58855
58830.3
58805.6
58781
58756.3
58731.7
58707.1
58682.5
58657.9
58633.3
58608.7
58584.1
58559.5
58534.9
58510.4
58485.8
58461.3
58436.8
58412.3
58387.7
58363.2
58338.7
58314.3
58289.8
58265.3
58240.9
58216.4
58192
58167.5
58143.1
58118.7
58094.3
58069.9
58045.5
58021.1
57996.8
57972.4
57948
57923.7
57899.4
57875
57850.7
57826.4
57802.1
57777.8
57753.5
57729.3
57705
57680.7
57656.5
57632.2
57608
57583.8
57559.6
57535.4
57511.2
57487
57462.8
57438.6
57414.5
57390.3
57366.2
57342.1
57317.9
57293.8
57269.7
57245.6
57221.5
57197.4
57173.4
57149.3
57125.2
57101.2
57077.1
57053.1
57029.1
57005.1
56981.1
56957.1
56933.1
56909.1
56885.2
56861.2
56837.2
56813.3
56789.4
56765.4
56741.5
56717.6
56693.7
56669.8
56645.9
56622.1
56598.2
56574.3
56550.5
56526.6
56502.8
56479
56455.2
56431.4
56407.6
56383.8
56360
56336.2
56312.5
56288.7
56265
56241.2
56217.5
56193.8
56170.1
56146.4
56122.7
56099
56075.3
56051.7
56028
56004.4
55980.7
55957.1
55933.5
55909.8
55886.2
55862.6
55839
55815.5
55791.9
55768.3
55744.8
55721.2
55697.7
55674.1
55650.6
55627.1
55603.6
55580.1
55556.6
55533.1
55509.7
55486.2
55462.8
55439.3
55415.9
55392.4
55369
55345.6
55322.2
55298.8
55275.4
55252.1
55228.7
55205.3
55182
55158.6
55135.3
55112
55088.7
55065.3
55042
55018.7
54995.5
54972.2
54948.9
54925.7
54902.4
54879.2
54855.9
54832.7
54809.5
54786.3
54763.1
54739.9
54716.7
54693.5
54670.4
54647.2
54624.1
54600.9
54577.8
54554.7
54531.6
54508.5
54485.4
54462.3
54439.2
54416.1
54393
54370
54346.9
54323.9
54300.9
54277.8
54254.8
54231.8
54208.8
54185.8
54162.9
54139.9
54116.9
54094
54071
54048.1
54025.1
54002.2
53979.3
53956.4
53933.5
53910.6
53887.7
53864.9
53842
53819.1
53796.3
53773.5
53750.6
53727.8
53705
53682.2
53659.4
53636.6
53613.8
53591.1
53568.3
53545.5
53522.8
53500
53477.3
53454.6
53431.9
53409.2
53386.5
53363.8
53341.1
53318.4
53295.8
53273.1
53250.5
53227.8
53205.2
53182.6
53160
53137.3
53114.7
53092.2
53069.6
53047
53024.4
53001.9
52979.3
52956.8
52934.3
52911.7
52889.2
52866.7
52844.2
52821.7
52799.2
52776.8
52754.3
52731.8
52709.4
52687
52664.5
52642.1
52619.7
52597.3
52574.9
52552.5
52530.1
52507.7
52485.3
52463
52440.6
52418.3
52396
52373.6
52351.3
52329
52306.7
52284.4
52262.1
52239.8
52217.6
52195.3
52173.1
52150.8
52128.6
52106.3
52084.1
52061.9
52039.7
52017.5
51995.3
51973.1
51951
51928.8
51906.7
51884.5
51862.4
51840.2
51818.1
51796
51773.9
51751.8
51729.7
51707.6
51685.5
51663.5
51641.4
51619.4
51597.3
51575.3
51553.3
51531.3
51509.2
51487.2
51465.2
51443.3
51421.3
51399.3
51377.4
51355.4
51333.5
51311.5
51289.6
51267.7
51245.8
51223.9
51202
51180.1
51158.2
51136.3
51114.5
51092.6
51070.8
51048.9
51027.1
51005.3
50983.4
50961.6
50939.8
50918
50896.3
50874.5
50852.7
50831
50809.2
50787.5
50765.7
50744
50722.3
50700.6
50678.9
50657.2
50635.5
50613.8
50592.1
50570.5
50548.8
50527.2
50505.5
50483.9
50462.3
50440.6
50419
50397.4
50375.8
50354.3
50332.7
50311.1
50289.6
50268
50246.5
50224.9
50203.4
50181.9
50160.4
50138.9
50117.4
50095.9
50074.4
50052.9
50031.5
50010
49988.5
49967.1
49945.7
49924.2
49902.8
49881.4
49860
49838.6
49817.2
49795.9
49774.5
49753.1
49731.8
49710.4
49689.1
49667.8
49646.4
49625.1
49603.8
49582.5
49561.2
49539.9
49518.7
49497.4
49476.1
49454.9
49433.6
49412.4
49391.2
49370
49348.8
49327.5
49306.4
49285.2
49264
49242.8
49221.6
49200.5
49179.3
49158.2
49137.1
49115.9
49094.8
49073.7
49052.6
49031.5
49010.4
48989.3
48968.3
48947.2
48926.2
48905.1
48884.1
48863
48842
48821
48800
48779
48758
48737
48716
48695.1
48674.1
48653.1
48632.2
48611.3
48590.3
48569.4
48548.5
48527.6
48506.7
48485.8
48464.9
48444
48423.1
48402.3
48381.4
48360.6
48339.8
48318.9
48298.1
48277.3
48256.5
48235.7
48214.9
48194.1
48173.3
48152.6
48131.8
48111
48090.3
48069.6
48048.8
48028.1
48007.4
47986.7
47966
47945.3
47924.6
47903.9
47883.3
47862.6
47842
47821.3
47800.7
47780
47759.4
47738.8
47718.2
47697.6
47677
47656.4
47635.9
47615.3
47594.7
47574.2
47553.6
47533.1
47512.6
47492
47471.5
47451
47430.5
47410
47389.5
47369.1
47348.6
47328.1
47307.7
47287.2
47266.8
47246.4
47225.9
47205.5
47185.1
47164.7
47144.3
47123.9
47103.6
47083.2
47062.8
47042.5
47022.1
47001.8
46981.5
46961.1
46940.8
46920.5
46900.2
46879.9
46859.6
46839.3
46819.1
46798.8
46778.6
46758.3
46738.1
46717.8
46697.6
46677.4
46657.2
46637
46616.8
46596.6
46576.4
46556.2
46536.1
46515.9
46495.8
46475.6
46455.5
46435.4
46415.2
46395.1
46375
46354.9
46334.8
46314.8
46294.7
46274.6
46254.5
46234.5
46214.5
46194.4
46174.4
46154.4
46134.3
46114.3
46094.3
46074.3
46054.4
46034.4
46014.4
45994.5
45974.5
45954.6
45934.6
45914.7
45894.8
45874.8
45854.9
45835
45815.1
45795.2
45775.4
45755.5
45735.6
45715.8
45695.9
45676.1
45656.2
45636.4
45616.6
45596.8
45577
45557.2
45537.4
45517.6
45497.8
45478.1
45458.3
45438.5
45418.8
45399.1
45379.3
45359.6
45339.9
45320.2
45300.5
45280.8
45261.1
45241.4
45221.8
45202.1
45182.4
45162.8
45143.1
45123.5
45103.9
45084.3
45064.6
45045
45025.4
45005.8
44986.3
44966.7
44947.1
44927.6
44908
44888.5
44868.9
44849.4
44829.9
44810.4
44790.8
44771.3
44751.8