/*--------------------------------*- C++ -*----------------------------------*\
  =========                 |
  \\      /  F ield         | OpenFOAM: The Open Source CFD Toolbox
   \\    /   O peration     | Website:  https://openfoam.org
    \\  /    A nd           | Version:  9
     \\/     M anipulation  |
\*---------------------------------------------------------------------------*/
FoamFile
{
    format      ascii;
    class       surfaceScalarField;
    location    "0.008";
    object      phi;
}
// * * * * * * * * * * * * * * * * * * * * * * * * * * * * * * * * * * * * * //

dimensions      [1 0 -1 0 0 0 0];

internalField   nonuniform List<scalar> 
9999
(
-3.44471e-11
-3.11218e-11
-2.86207e-11
-2.50395e-11
-2.67164e-11
-2.46416e-11
-2.35048e-11
-2.60911e-11
-2.87912e-11
-2.75691e-11
-3.06954e-11
-3.22018e-11
-3.57829e-11
-3.6124e-11
-3.67777e-11
-3.86251e-11
-3.94493e-11
-4.18368e-11
-4.21778e-11
-4.41105e-11
-4.24905e-11
-4.28315e-11
-4.03304e-11
-3.78577e-11
-3.78577e-11
-4.18368e-11
-4.21778e-11
-3.94493e-11
-4.2462e-11
-3.95914e-11
-3.99041e-11
-3.73461e-11
-3.51292e-11
-3.45324e-11
-3.1207e-11
-3.08376e-11
-2.76543e-11
-2.62332e-11
-2.41585e-11
-2.40732e-11
-2.37321e-11
-2.0691e-11
-2.15437e-11
-2.33342e-11
-2.50395e-11
-2.39311e-11
-2.467e-11
-2.68585e-11
-2.84217e-11
-2.79101e-11
-3.13776e-11
-3.4305e-11
-3.75451e-11
-3.91651e-11
-4.03872e-11
-4.25189e-11
-4.18652e-11
-4.41673e-11
-4.39968e-11
-4.67537e-11
-4.60147e-11
-4.556e-11
-4.34284e-11
-4.36557e-11
-4.21778e-11
-4.31442e-11
-4.11262e-11
-4.10694e-11
-4.07283e-11
-4.3201e-11
-3.97051e-11
-3.84262e-11
-3.69766e-11
-3.69482e-11
-3.86819e-11
-4.22347e-11
-4.11262e-11
-4.19504e-11
-4.43094e-11
-4.37979e-11
-4.50768e-11
-4.65263e-11
-4.37979e-11
-4.41105e-11
-4.71232e-11
-5.14433e-11
-5.21254e-11
-5.29781e-11
-5.31202e-11
-5.5195e-11
-5.46265e-11
-5.24096e-11
-5.34328e-11
-5.49107e-11
-5.64171e-11
-5.74971e-11
-5.99698e-11
-5.95719e-11
-5.98561e-11
-5.99698e-11
-5.92593e-11
-5.76961e-11
-5.64739e-11
-5.47971e-11
-5.11591e-11
-5.00506e-11
-4.76064e-11
-4.66969e-11
-4.48779e-11
-4.43663e-11
-4.61284e-11
-4.66969e-11
-4.71232e-11
-4.48779e-11
-4.49916e-11
-4.47358e-11
-4.45084e-11
-4.43663e-11
-4.61853e-11
-4.43094e-11
-4.51337e-11
-4.41673e-11
-4.09273e-11
-3.57261e-11
-3.33955e-11
-3.07523e-11
-3.05533e-11
-3.28555e-11
-2.93312e-11
-2.86491e-11
-2.87343e-11
-2.99849e-11
-3.14913e-11
-3.28271e-11
-3.47882e-11
-3.8483e-11
-3.99893e-11
-4.24336e-11
-4.28884e-11
-4.51053e-11
-4.67821e-11
-4.73506e-11
-4.72937e-11
-4.7919e-11
-4.87717e-11
-4.62421e-11
-4.4821e-11
-4.30873e-11
-4.46221e-11
-4.64411e-11
-4.87148e-11
-4.88285e-11
-4.90843e-11
-4.90274e-11
-4.97664e-11
-5.00506e-11
-4.96811e-11
-5.11875e-11
-5.17844e-11
-5.26086e-11
-5.22675e-11
-5.13012e-11
-5.28928e-11
-5.36886e-11
-5.12443e-11
-4.8118e-11
-4.49916e-11
-4.44231e-11
-4.31157e-11
-3.93925e-11
-3.53566e-11
-3.34808e-11
-3.47598e-11
-3.25144e-11
-3.06954e-11
-2.95586e-11
-2.96723e-11
-2.81943e-11
-2.82796e-11
-2.62617e-11
-2.81091e-11
-2.8308e-11
-2.75691e-11
-2.79385e-11
-2.85354e-11
-2.77396e-11
-2.51532e-11
-2.57785e-11
-2.34195e-11
-2.31353e-11
-2.60059e-11
-2.80806e-11
-2.82796e-11
-2.96438e-11
-3.09512e-11
-3.35092e-11
-3.54134e-11
-3.5385e-11
-3.76303e-11
-3.78577e-11
-3.91935e-11
-4.28599e-11
-4.15525e-11
-4.28031e-11
-4.67253e-11
-5.11307e-11
-5.42002e-11
-5.59623e-11
-5.97993e-11
-5.92877e-11
-5.96572e-11
-6.15898e-11
-6.37783e-11
-6.78426e-11
-6.92353e-11
-6.87521e-11
-6.93774e-11
-7.04006e-11
-7.03153e-11
-6.81553e-11
-6.84111e-11
-6.65352e-11
-6.72173e-11
-6.753e-11
-6.51994e-11
-6.38067e-11
-6.40341e-11
-6.12204e-11
-5.92308e-11
-5.74687e-11
-5.74971e-11
-5.51381e-11
-5.44276e-11
-5.30065e-11
-4.98517e-11
-5.06475e-11
-4.84306e-11
-4.82601e-11
-4.82316e-11
-4.99085e-11
-5.25233e-11
-5.40297e-11
-5.63887e-11
-5.38591e-11
-5.48539e-11
-5.34897e-11
-5.48823e-11
-5.8975e-11
-5.93445e-11
-5.76108e-11
-5.5195e-11
-5.26086e-11
-5.19265e-11
-4.98517e-11
-5.22107e-11
-4.79758e-11
-4.63558e-11
-4.76064e-11
-4.73221e-11
-4.89138e-11
-5.0477e-11
-5.05906e-11
-4.68106e-11
-4.77485e-11
-4.89706e-11
-4.84874e-11
-4.91411e-11
-4.9738e-11
-5.14433e-11
-5.48255e-11
-5.34044e-11
-5.14149e-11
-5.1557e-11
-5.34328e-11
-5.70139e-11
-6.19025e-11
-6.41194e-11
-6.42331e-11
-6.20162e-11
-6.24141e-11
-6.25562e-11
-6.16467e-11
-6.17888e-11
-6.29257e-11
-6.35225e-11
-6.16751e-11
-5.78382e-11
-5.86624e-11
-5.6076e-11
-5.63034e-11
-5.45697e-11
-5.4257e-11
-5.40865e-11
-5.24381e-11
-5.0818e-11
-4.75211e-11
-4.36842e-11
-4.02451e-11
-3.69482e-11
-3.66924e-11
-3.33387e-11
-3.11786e-11
-2.96438e-11
-2.71427e-11
-3.13207e-11
-3.11786e-11
-2.9388e-11
-3.05249e-11
-2.98428e-11
-3.07239e-11
-3.06954e-11
-3.3566e-11
-3.79146e-11
-3.79146e-11
-3.87104e-11
-3.70619e-11
-3.62661e-11
-3.56692e-11
-3.6863e-11
-3.63798e-11
-3.76872e-11
-4.16662e-11
-4.28599e-11
-4.49063e-11
-4.74358e-11
-4.8118e-11
-4.73221e-11
-4.9198e-11
-4.86864e-11
-4.86011e-11
-5.00791e-11
-4.88001e-11
-4.80895e-11
-4.64411e-11
-4.81464e-11
-4.8459e-11
-4.99654e-11
-4.72653e-11
-4.72653e-11
-4.5759e-11
-4.57305e-11
-4.81748e-11
-4.76916e-11
-4.61569e-11
-4.53895e-11
-4.31442e-11
-4.28315e-11
-3.98472e-11
-3.89093e-11
-3.83977e-11
-4.01599e-11
-4.15525e-11
-4.18083e-11
-4.16946e-11
-4.448e-11
-4.65548e-11
-4.49916e-11
-4.67253e-11
-5.01075e-11
-5.52518e-11
-5.50529e-11
-5.45413e-11
-5.60192e-11
-5.50813e-11
-5.2097e-11
-5.22959e-11
-4.99654e-11
-5.12443e-11
-5.12728e-11
-4.98233e-11
-4.89138e-11
-4.76916e-11
-4.75211e-11
-4.51053e-11
-4.67821e-11
-4.62705e-11
-4.48495e-11
-4.5759e-11
-4.58726e-11
-4.43947e-11
-4.39968e-11
-4.53042e-11
-4.8118e-11
-4.93969e-11
-4.9539e-11
-4.78053e-11
-4.88853e-11
-4.82885e-11
-4.88853e-11
-5.08464e-11
-5.18128e-11
-5.13296e-11
-5.2097e-11
-5.3916e-11
-5.67297e-11
-5.82361e-11
-5.59055e-11
-5.14717e-11
-5.16422e-11
-5.4456e-11
-5.65876e-11
-6.15614e-11
-6.28972e-11
-6.18456e-11
-6.42331e-11
-6.38352e-11
-6.8809e-11
-6.53984e-11
-6.51141e-11
-6.44036e-11
-6.27836e-11
-6.13909e-11
-6.04814e-11
-5.89182e-11
-5.90887e-11
-6.2073e-11
-6.44889e-11
-6.68194e-11
-6.39204e-11
-6.34941e-11
-6.24425e-11
-6.52278e-11
-6.45457e-11
-6.25278e-11
-6.23288e-11
-6.29257e-11
-6.08225e-11
-5.90319e-11
-5.77245e-11
-6.03393e-11
-5.84635e-11
-5.76392e-11
-5.61897e-11
-5.86056e-11
-5.81508e-11
-5.76392e-11
-5.96572e-11
-6.14762e-11
-5.96572e-11
-6.37499e-11
-6.40057e-11
-6.55405e-11
-6.53415e-11
-6.62794e-11
-6.4432e-11
-6.46594e-11
-6.61089e-11
-7.02016e-11
-7.11964e-11
-7.05143e-11
-7.19069e-11
-7.36406e-11
-7.39533e-11
-7.70228e-11
-7.6966e-11
-7.6426e-11
-7.36406e-11
-7.35838e-11
-7.49765e-11
-7.6426e-11
-7.71934e-11
-7.40954e-11
-7.19922e-11
-7.03153e-11
-6.92921e-11
-6.83258e-11
-6.92353e-11
-6.84111e-11
-6.81268e-11
-6.8809e-11
-7.27312e-11
-7.49765e-11
-7.52607e-11
-7.43228e-11
-7.27596e-11
-6.86953e-11
-6.61657e-11
-6.2613e-11
-6.27551e-11
-5.77245e-11
-5.24096e-11
-4.66116e-11
-4.63274e-11
-4.44231e-11
-4.50768e-11
-4.3201e-11
-4.38547e-11
-3.99041e-11
-4.19504e-11
-4.33715e-11
-4.30589e-11
-4.51905e-11
-4.41673e-11
-4.61853e-11
-4.75211e-11
-4.75495e-11
-4.87432e-11
-5.0818e-11
-5.09601e-11
-5.13865e-11
-5.12159e-11
-5.16991e-11
-5.39728e-11
-5.49392e-11
-5.56781e-11
-5.74971e-11
-5.80371e-11
-6.08225e-11
-6.46594e-11
-6.71889e-11
-6.86953e-11
-6.81553e-11
-7.03722e-11
-7.14238e-11
-7.17648e-11
-7.09974e-11
-7.10259e-11
-6.99174e-11
-7.05711e-11
-7.20775e-11
-7.42943e-11
-7.72786e-11
-7.6426e-11
-8.12861e-11
-8.08029e-11
-8.04334e-11
-8.18829e-11
-8.34177e-11
-8.28777e-11
-8.2764e-11
-8.4583e-11
-8.29061e-11
-7.88418e-11
-7.7307e-11
-7.80176e-11
-7.58575e-11
-7.41807e-11
-6.89511e-11
-6.65352e-11
-6.11067e-11
-5.78382e-11
-5.60476e-11
-5.72413e-11
-5.50529e-11
-5.18412e-11
-4.7919e-11
-4.93685e-11
-4.82316e-11
-4.85159e-11
-4.92832e-11
-4.7379e-11
-4.52758e-11
-4.63274e-11
-4.93685e-11
-5.17559e-11
-5.38023e-11
-6.00267e-11
-6.50289e-11
-6.81553e-11
-6.90363e-11
-7.03153e-11
-7.12248e-11
-7.32712e-11
-7.21911e-11
-7.39249e-11
-7.71081e-11
-7.61986e-11
-7.79039e-11
-7.90692e-11
-8.01492e-11
-7.79607e-11
-7.54028e-11
-7.32427e-11
-7.27027e-11
-6.63078e-11
-6.28972e-11
-6.00835e-11
-5.60192e-11
-5.14717e-11
-4.99369e-11
-4.86295e-11
-4.67253e-11
-4.35421e-11
-4.26326e-11
-3.98472e-11
-3.9023e-11
-3.98757e-11
-3.98188e-11
-4.28884e-11
-4.39115e-11
-4.10978e-11
-4.18936e-11
-4.11831e-11
-4.2121e-11
-4.45368e-11
-4.80611e-11
-4.99938e-11
-5.36318e-11
-5.28928e-11
-5.21254e-11
-5.32623e-11
-5.43139e-11
-5.71561e-11
-6.14193e-11
-6.48299e-11
-6.78142e-11
-6.92353e-11
-6.49152e-11
-6.66773e-11
-6.46594e-11
-6.33804e-11
-5.99982e-11
-6.15614e-11
-6.26414e-11
-6.44889e-11
-6.50289e-11
-6.30678e-11
-6.18172e-11
-6.31815e-11
-6.07372e-11
-6.25278e-11
-6.14762e-11
-6.51426e-11
-6.73879e-11
-6.42615e-11
-6.74447e-11
-7.04006e-11
-6.95763e-11
-7.19922e-11
-7.05427e-11
-7.15943e-11
-7.1509e-11
-7.07132e-11
-7.07132e-11
-7.01732e-11
-7.0969e-11
-7.03153e-11
-6.66205e-11
-6.39488e-11
-6.22435e-11
-5.84066e-11
-5.6815e-11
-5.3177e-11
-5.30349e-11
-5.01927e-11
-5.28644e-11
-5.24096e-11
-5.30633e-11
-5.27507e-11
-5.29781e-11
-5.32907e-11
-5.16707e-11
-4.99938e-11
-4.92832e-11
-4.75779e-11
-4.66116e-11
-4.8999e-11
-4.75495e-11
-4.43663e-11
-4.46505e-11
-4.52189e-11
-4.38547e-11
-4.03304e-11
-3.82272e-11
-3.72893e-11
-3.53566e-11
-3.39071e-11
-3.47598e-11
-3.46176e-11
-3.58682e-11
-3.67777e-11
-3.89377e-11
-4.0302e-11
-4.10978e-11
-4.36842e-11
-4.45084e-11
-4.47073e-11
-4.5361e-11
-4.64979e-11
-4.75495e-11
-4.71516e-11
-4.8459e-11
-4.69527e-11
-5.07328e-11
-5.05622e-11
-5.04201e-11
-4.90843e-11
-5.21823e-11
-5.53086e-11
-5.54792e-11
-5.52802e-11
-5.05622e-11
-4.93969e-11
-4.79758e-11
-4.80611e-11
-4.80895e-11
-4.59295e-11
-4.78053e-11
-4.67821e-11
-4.7919e-11
-4.98517e-11
-5.21823e-11
-5.2836e-11
-5.4257e-11
-5.37739e-11
-5.16138e-11
-5.09317e-11
-5.19549e-11
-4.91411e-11
-4.89422e-11
-4.82601e-11
-4.96243e-11
-5.09885e-11
-4.83453e-11
-4.97096e-11
-5.13296e-11
-5.36033e-11
-5.53655e-11
-5.83782e-11
-5.88045e-11
-5.94014e-11
-6.21867e-11
-6.2073e-11
-6.1732e-11
-6.27551e-11
-6.54552e-11
-6.54552e-11
-6.51994e-11
-6.27267e-11
-5.92024e-11
-5.86056e-11
-5.58487e-11
-5.53655e-11
-5.58202e-11
-5.09317e-11
-4.98517e-11
-5.00222e-11
-5.10454e-11
-5.33191e-11
-5.61045e-11
-5.38591e-11
-5.49392e-11
-5.6275e-11
-5.80087e-11
-5.8094e-11
-5.82361e-11
-5.75824e-11
-5.80087e-11
-5.56213e-11
-5.74119e-11
-5.64455e-11
-5.80087e-11
-5.77245e-11
-5.77245e-11
-5.7895e-11
-6.2272e-11
-6.34657e-11
-6.19877e-11
-6.27267e-11
-6.46025e-11
-6.38067e-11
-6.17604e-11
-6.12204e-11
-5.44276e-11
-5.45413e-11
-5.65308e-11
-5.6815e-11
-5.87761e-11
-5.9373e-11
-5.82645e-11
-5.82361e-11
-5.9913e-11
-5.70424e-11
-5.7355e-11
-5.66445e-11
-6.0254e-11
-5.92593e-11
-5.69571e-11
-5.58487e-11
-5.40012e-11
-5.26654e-11
-5.29781e-11
-5.31202e-11
-5.32907e-11
-5.13296e-11
-4.91411e-11
-4.85159e-11
-4.76632e-11
-4.8118e-11
-4.5361e-11
-4.46505e-11
-4.42526e-11
-4.22915e-11
-3.81704e-11
-3.74314e-11
-3.68914e-11
-3.4845e-11
-3.68061e-11
-3.47598e-11
-3.10081e-11
-2.82228e-11
-2.48406e-11
-2.27089e-11
-2.22826e-11
-2.37321e-11
-2.62617e-11
-2.9388e-11
-3.29408e-11
-3.57261e-11
-4.08136e-11
-4.05862e-11
-4.23483e-11
-4.55316e-11
-4.87717e-11
-5.1017e-11
-5.38591e-11
-5.54223e-11
-5.82077e-11
-6.11351e-11
-6.54836e-11
-6.7871e-11
-7.2049e-11
-7.32996e-11
-7.3527e-11
-7.71365e-11
-7.73639e-11
-7.57154e-11
-7.36691e-11
-7.44933e-11
-7.55733e-11
-7.4607e-11
-7.49196e-11
-7.67955e-11
-7.38964e-11
-7.18217e-11
-6.98037e-11
-6.92637e-11
-6.81268e-11
-6.90079e-11
-6.59668e-11
-6.23288e-11
-6.05667e-11
-5.9174e-11
-5.47686e-11
-5.23244e-11
-4.99938e-11
-4.83169e-11
-4.73506e-11
-4.75779e-11
-4.82316e-11
-4.91696e-11
-4.98233e-11
-5.1017e-11
-5.03633e-11
-5.23528e-11
-5.34612e-11
-5.63887e-11
-5.77245e-11
-6.09077e-11
-6.02256e-11
-6.32951e-11
-6.11919e-11
-6.1732e-11
-6.24709e-11
-6.46594e-11
-6.52278e-11
-6.6251e-11
-6.35509e-11
-6.09077e-11
-5.89182e-11
-5.95435e-11
-6.15046e-11
-6.30109e-11
-5.96856e-11
-5.60476e-11
-5.54223e-11
-5.40297e-11
-5.53939e-11
-5.22959e-11
-5.10738e-11
-5.30918e-11
-5.1017e-11
-5.17844e-11
-5.01075e-11
-5.08749e-11
-4.78906e-11
-4.79474e-11
-4.6299e-11
-4.73506e-11
-4.58442e-11
-4.62137e-11
-4.49063e-11
-4.22631e-11
-4.18083e-11
-3.83693e-11
-3.99325e-11
-3.91367e-11
-3.64082e-11
-3.40208e-11
-2.86775e-11
-3.00986e-11
-3.29408e-11
-3.31681e-11
-3.5584e-11
-3.6863e-11
-3.59819e-11
-3.84262e-11
-3.90799e-11
-4.10409e-11
-4.22631e-11
-4.31442e-11
-4.54463e-11
-4.56737e-11
-4.59863e-11
-4.55032e-11
-4.2661e-11
-4.49916e-11
-4.39968e-11
-4.67821e-11
-4.47926e-11
-4.64411e-11
-4.93117e-11
-5.03348e-11
-5.11307e-11
-5.02212e-11
-5.16422e-11
-5.19549e-11
-4.86295e-11
-5.05622e-11
-4.91696e-11
-4.92264e-11
-5.15001e-11
-5.2637e-11
-5.1898e-11
-4.75779e-11
-4.79474e-11
-4.80611e-11
-4.89422e-11
-4.78053e-11
-4.75779e-11
-4.54747e-11
-4.22062e-11
-4.3002e-11
-4.3741e-11
-4.45368e-11
-4.35136e-11
-4.556e-11
-4.89138e-11
-4.718e-11
-4.68674e-11
-4.77201e-11
-4.93685e-11
-4.84306e-11
-5.12728e-11
-5.10738e-11
-5.24096e-11
-5.01359e-11
-5.03348e-11
-5.16707e-11
-5.01643e-11
-5.15001e-11
-5.19549e-11
-5.34897e-11
-5.56781e-11
-5.84635e-11
-5.6815e-11
-5.72129e-11
-5.72982e-11
-5.56497e-11
-5.8094e-11
-5.82361e-11
-6.29825e-11
-6.44036e-11
-6.38352e-11
-6.3352e-11
-5.92877e-11
-5.65024e-11
-5.6616e-11
-5.78098e-11
-5.31486e-11
-4.90274e-11
-4.58726e-11
-4.5361e-11
-4.4821e-11
-4.53326e-11
-4.7379e-11
-4.62137e-11
-4.664e-11
-4.56737e-11
-4.88001e-11
-5.04201e-11
-4.98233e-11
-5.05338e-11
-4.92832e-11
-4.94822e-11
-4.80327e-11
-4.82316e-11
-4.70095e-11
-4.96811e-11
-4.75211e-11
-4.77485e-11
-4.9198e-11
-5.15286e-11
-5.13865e-11
-5.45128e-11
-5.18696e-11
-4.76064e-11
-4.33147e-11
-3.99041e-11
-3.71472e-11
-3.56692e-11
-3.2685e-11
-3.52145e-11
-3.12639e-11
-3.22586e-11
-3.44755e-11
-3.57829e-11
-3.7943e-11
-3.9023e-11
-3.88241e-11
-3.78577e-11
-3.89093e-11
-3.72609e-11
-3.58682e-11
-3.41629e-11
-3.51292e-11
-3.96483e-11
-3.89377e-11
-3.75167e-11
-3.89662e-11
-4.24905e-11
-4.38547e-11
-4.75495e-11
-4.41389e-11
-4.56737e-11
-4.76916e-11
-4.77201e-11
-4.93401e-11
-5.4456e-11
-5.57066e-11
-5.6815e-11
-5.46549e-11
-5.27507e-11
-5.57918e-11
-5.36318e-11
-5.30349e-11
-5.05906e-11
-5.01359e-11
-5.05622e-11
-4.71516e-11
-4.22347e-11
-3.92788e-11
-3.91367e-11
-3.89662e-11
-3.62093e-11
-3.46461e-11
-3.00702e-11
-2.51532e-11
-2.62332e-11
-2.42153e-11
-2.35332e-11
-2.45564e-11
-2.62617e-11
-2.467e-11
-2.72848e-11
-2.74269e-11
-3.1406e-11
-3.29123e-11
-3.60387e-11
-3.57261e-11
-3.71188e-11
-4.05862e-11
-4.33715e-11
-4.50484e-11
-4.74074e-11
-4.89138e-11
-5.37739e-11
-5.83782e-11
-6.1334e-11
-5.9913e-11
-6.19025e-11
-6.0993e-11
-6.45173e-11
-6.26699e-11
-6.14762e-11
-6.29825e-11
-6.09646e-11
-6.13909e-11
-6.01688e-11
-6.34941e-11
-6.49152e-11
-6.53699e-11
-6.645e-11
-6.3352e-11
-6.37215e-11
-5.90319e-11
-5.69571e-11
-5.39728e-11
-5.51381e-11
-5.51097e-11
-5.40012e-11
-5.27223e-11
-4.77201e-11
-4.45084e-11
-4.34852e-11
-4.43947e-11
-4.54179e-11
-4.53326e-11
-4.47926e-11
-4.42526e-11
-4.45937e-11
-4.59863e-11
-4.43094e-11
-4.59295e-11
-4.82601e-11
-5.05622e-11
-5.30065e-11
-5.28644e-11
-5.73834e-11
-5.73834e-11
-5.8094e-11
-5.66445e-11
-5.47118e-11
-5.40865e-11
-5.60192e-11
-5.5536e-11
-5.42855e-11
-5.53086e-11
-5.65024e-11
-5.58771e-11
-5.76961e-11
-5.81508e-11
-5.7895e-11
-5.59055e-11
-5.54223e-11
-5.12443e-11
-4.9738e-11
-4.97948e-11
-4.79758e-11
-4.35989e-11
-3.69482e-11
-3.50155e-11
-3.2685e-11
-3.03544e-11
-3.03828e-11
-2.94449e-11
-2.95017e-11
-3.03544e-11
-2.79385e-11
-2.8308e-11
-2.7228e-11
-2.5949e-11
-2.6688e-11
-2.32205e-11
-2.31068e-11
-2.10036e-11
-2.09468e-11
-2.03215e-11
-2.09752e-11
-2.02647e-11
-2.14584e-11
-2.1771e-11
-2.20552e-11
-2.12594e-11
-2.33911e-11
-2.467e-11
-2.69154e-11
-3.00702e-11
-3.43334e-11
-3.71756e-11
-3.98188e-11
-3.67208e-11
-3.20881e-11
-3.27418e-11
-3.1946e-11
-3.51861e-11
-3.74314e-11
-3.9762e-11
-4.35136e-11
-4.54179e-11
-4.58726e-11
-4.73506e-11
-4.85443e-11
-4.76916e-11
-4.76348e-11
-5.17275e-11
-5.24096e-11
-5.29496e-11
-5.30633e-11
-5.29212e-11
-5.31202e-11
-5.41718e-11
-5.16991e-11
-5.38591e-11
-5.30349e-11
-5.42286e-11
-5.30349e-11
-5.24665e-11
-5.58202e-11
-5.94582e-11
-6.08509e-11
-5.96856e-11
-5.68434e-11
-5.8975e-11
-5.86908e-11
-5.56213e-11
-5.75255e-11
-5.60476e-11
-5.62466e-11
-6.08225e-11
-6.34088e-11
-6.23288e-11
-6.60805e-11
-6.42615e-11
-6.38352e-11
-6.15898e-11
-6.30394e-11
-6.59952e-11
-6.50289e-11
-6.3892e-11
-6.23004e-11
-5.84635e-11
-5.08464e-11
-4.6299e-11
-4.38263e-11
-4.0643e-11
-3.92504e-11
-3.51008e-11
-3.38218e-11
-2.97007e-11
-3.00133e-11
-2.97291e-11
-2.9047e-11
-2.71427e-11
-2.71712e-11
-2.77396e-11
-2.94733e-11
-2.99849e-11
-3.06102e-11
-3.26281e-11
-3.26281e-11
-3.24292e-11
-3.36513e-11
-3.40208e-11
-3.80851e-11
-4.10125e-11
-4.06999e-11
-4.24905e-11
-4.23768e-11
-4.1922e-11
-4.31157e-11
-4.56453e-11
-4.80043e-11
-4.97096e-11
-5.10738e-11
-4.96811e-11
-4.67537e-11
-4.34852e-11
-4.05294e-11
-4.12683e-11
-4.12115e-11
-3.98472e-11
-3.67777e-11
-3.44755e-11
-3.12923e-11
-2.97007e-11
-2.85922e-11
-2.73985e-11
-2.9388e-11
-2.92175e-11
-2.97007e-11
-3.09228e-11
-3.18607e-11
-3.25713e-11
-3.10649e-11
-3.19744e-11
-3.65219e-11
-3.85398e-11
-4.27463e-11
-4.46789e-11
-4.67253e-11
-4.73506e-11
-4.65548e-11
-4.80611e-11
-4.96243e-11
-5.30633e-11
-5.34044e-11
-5.1557e-11
-4.87148e-11
-4.89422e-11
-4.70095e-11
-4.48495e-11
-4.42526e-11
-4.10694e-11
-3.93641e-11
-3.7204e-11
-3.46461e-11
-3.65219e-11
-3.74598e-11
-3.6664e-11
-3.61808e-11
-3.79146e-11
-4.10125e-11
-4.11831e-11
-4.1922e-11
-4.30589e-11
-4.14673e-11
-3.99325e-11
-3.87956e-11
-4.24336e-11
-4.19504e-11
-4.34e-11
-4.75495e-11
-4.80895e-11
-4.77769e-11
-4.61853e-11
-4.394e-11
-4.1922e-11
-4.38263e-11
-4.11546e-11
-4.02167e-11
-3.94778e-11
-3.88241e-11
-3.79714e-11
-3.60103e-11
-3.29408e-11
-2.85922e-11
-2.65459e-11
-2.12879e-11
-2.03215e-11
-1.8332e-11
-1.97531e-11
-1.93552e-11
-2.089e-11
-2.31637e-11
-2.39311e-11
-2.67733e-11
-2.62332e-11
-2.61764e-11
-2.62048e-11
-2.95017e-11
-3.00417e-11
-2.78533e-11
-2.83649e-11
-2.79385e-11
-2.94733e-11
-2.92459e-11
-3.16334e-11
-3.0326e-11
-2.9786e-11
-3.36229e-11
-3.45608e-11
-3.60671e-11
-3.67493e-11
-3.93356e-11
-4.2661e-11
-4.24052e-11
-4.17799e-11
-4.38263e-11
-4.52474e-11
-4.55032e-11
-4.5361e-11
-4.82316e-11
-4.80611e-11
-4.87148e-11
-4.65263e-11
-4.64127e-11
-4.36557e-11
-4.20926e-11
-4.04725e-11
-4.00746e-11
-3.84262e-11
-3.96767e-11
-3.60387e-11
-3.24007e-11
-3.08944e-11
-2.83364e-11
-2.62332e-11
-2.41016e-11
-2.32774e-11
-2.3789e-11
-2.39595e-11
-2.60059e-11
-2.54943e-11
-2.72564e-11
-2.89333e-11
-2.76259e-11
-2.60627e-11
-2.44711e-11
-2.59774e-11
-2.64038e-11
-2.96154e-11
-3.09797e-11
-2.99565e-11
-3.27987e-11
-3.70619e-11
-3.94493e-11
-4.17799e-11
-4.27747e-11
-4.04725e-11
-3.92788e-11
-3.93356e-11
-3.78577e-11
-3.50155e-11
-3.60103e-11
-3.35945e-11
-3.1747e-11
-2.98144e-11
-2.85922e-11
-2.79101e-11
-2.66311e-11
-2.55511e-11
-2.61196e-11
-2.33626e-11
-2.19984e-11
-2.02363e-11
-1.67972e-11
-1.60583e-11
-1.46656e-11
-1.33014e-11
-1.35287e-11
-1.50635e-11
-1.7593e-11
-1.86731e-11
-2.05773e-11
-2.40732e-11
-2.36469e-11
-2.50111e-11
-2.70575e-11
-2.86775e-11
-2.82796e-11
-3.21165e-11
-3.28555e-11
-3.36229e-11
-3.41061e-11
-3.40208e-11
-3.18039e-11
-3.21165e-11
-3.41345e-11
-3.23723e-11
-3.25144e-11
-3.15765e-11
-3.15197e-11
-3.10649e-11
-3.02975e-11
-3.10934e-11
-3.16902e-11
-3.01839e-11
-2.90754e-11
-3.09512e-11
-2.98144e-11
-2.86207e-11
-2.62901e-11
-2.60343e-11
-2.29932e-11
-1.9952e-11
-1.73088e-11
-1.59162e-11
-1.58593e-11
-1.38982e-11
-1.21645e-11
-1.25056e-11
-1.52909e-11
-1.54898e-11
-1.50351e-11
-1.58025e-11
-1.5973e-11
-1.78204e-11
-1.89004e-11
-2.20552e-11
-2.29079e-11
-2.29932e-11
-2.66311e-11
-2.71996e-11
-2.4329e-11
-2.68869e-11
-2.83364e-11
-2.75122e-11
-2.92459e-11
-2.95017e-11
-2.94733e-11
-2.88765e-11
-2.92744e-11
-3.14628e-11
-3.52713e-11
-3.67493e-11
-3.93356e-11
-4.01883e-11
-4.18936e-11
-4.45937e-11
-4.36557e-11
-4.36273e-11
-4.28315e-11
-4.43094e-11
-4.52474e-11
-4.556e-11
-4.32863e-11
-4.23483e-11
-4.17515e-11
-4.14104e-11
-3.80851e-11
-3.84262e-11
-3.96483e-11
-3.89093e-11
-3.60956e-11
-3.3566e-11
-3.10365e-11
-3.38787e-11
-3.3765e-11
-3.4305e-11
-3.28839e-11
-3.38787e-11
-3.19176e-11
-3.04112e-11
-3.02123e-11
-3.00986e-11
-3.11502e-11
-3.23155e-11
-2.9047e-11
-2.85638e-11
-2.54659e-11
-1.97531e-11
-1.72804e-11
-1.52909e-11
-1.36708e-11
-1.41256e-11
-1.12834e-11
-9.35074e-12
-7.5886e-12
-6.39488e-12
-7.13385e-12
-8.27072e-12
-7.78755e-12
-9.20863e-12
-1.02034e-11
-1.22782e-11
-1.13687e-11
-1.22498e-11
-9.9476e-12
-1.07718e-11
-1.07718e-11
-1.1255e-11
-1.19087e-11
-1.4893e-11
-1.68825e-11
-2.21974e-11
-2.3249e-11
-2.35048e-11
-2.60911e-11
-2.71996e-11
-2.93312e-11
-3.01554e-11
-3.01839e-11
-3.04112e-11
-3.22586e-11
-3.4305e-11
-3.75167e-11
-3.75167e-11
-3.93356e-11
-4.32578e-11
-4.44516e-11
-4.59579e-11
-4.65548e-11
-4.63842e-11
-4.65548e-11
-4.54747e-11
-4.51337e-11
-4.22631e-11
-4.11546e-11
-3.85114e-11
-3.61808e-11
-3.59819e-11
-3.19744e-11
-2.75122e-11
-2.27089e-11
-1.9412e-11
-1.62004e-11
-1.54898e-11
-1.73088e-11
-1.61151e-11
-1.50351e-11
-1.54614e-11
-1.5234e-11
-1.59446e-11
-1.72804e-11
-1.76215e-11
-1.7593e-11
-1.6712e-11
-1.47509e-11
-1.45519e-11
-1.49782e-11
-1.56604e-11
-1.4353e-11
-1.18803e-11
-1.20224e-11
-1.03739e-11
-8.46967e-12
-5.94014e-12
-6.90648e-12
-8.52651e-12
-1.15392e-11
-1.41256e-11
-1.75646e-11
-2.06342e-11
-2.21974e-11
-2.52385e-11
-2.54943e-11
-2.63753e-11
-2.53806e-11
-2.65175e-11
-2.74838e-11
-2.66311e-11
-2.86491e-11
-2.67733e-11
-2.81091e-11
-2.6489e-11
-2.34763e-11
-1.94689e-11
-1.62572e-11
-1.35856e-11
-1.10845e-11
-1.09424e-11
-1.04592e-11
-8.896e-12
-5.82645e-12
-5.05906e-12
-3.80851e-12
-6.48015e-12
-7.81597e-12
-9.60654e-12
-1.02034e-11
-1.28182e-11
-1.42677e-11
-1.42109e-11
-1.32445e-11
-1.53193e-11
-1.60014e-11
-1.58877e-11
-1.63425e-11
-1.87299e-11
-2.06626e-11
-2.43006e-11
-2.74838e-11
-2.58069e-11
-2.41585e-11
-2.251e-11
-2.03499e-11
-1.92415e-11
-1.65983e-11
-1.65414e-11
-1.63141e-11
-1.87299e-11
-1.73657e-11
-1.85594e-11
-1.60867e-11
-1.68825e-11
-1.7252e-11
-1.82752e-11
-1.85878e-11
-1.81331e-11
-1.92983e-11
-2.36184e-11
-2.46132e-11
-2.6489e-11
-2.67448e-11
-2.84217e-11
-2.98996e-11
-2.85354e-11
-2.77396e-11
-2.79385e-11
-2.58069e-11
-2.4329e-11
-2.43858e-11
-2.20552e-11
-1.92415e-11
-1.82183e-11
-1.89573e-11
-2.25953e-11
-2.33626e-11
-2.36184e-11
-2.46132e-11
-2.75122e-11
-2.50111e-11
-2.5409e-11
-2.62901e-11
-2.69154e-11
-2.47837e-11
-2.84501e-11
-3.00702e-11
-3.19176e-11
-3.35945e-11
-3.26565e-11
-2.95586e-11
-2.63469e-11
-2.10321e-11
-2.08047e-11
-1.74225e-11
-1.86446e-11
-2.07763e-11
-2.089e-11
-2.16858e-11
-2.27089e-11
-2.75691e-11
-2.62332e-11
-2.59206e-11
-2.56364e-11
-2.41585e-11
-2.40448e-11
-2.24247e-11
-2.04921e-11
-1.81899e-11
-1.76215e-11
-1.74225e-11
-1.71383e-11
-1.80762e-11
-1.87015e-11
-2.06626e-11
-2.21689e-11
-2.16573e-11
-1.92983e-11
-1.90141e-11
-1.95257e-11
-1.87867e-11
-1.78204e-11
-1.86446e-11
-1.99236e-11
-2.20552e-11
-2.20837e-11
-2.45279e-11
-2.41585e-11
-2.70575e-11
-2.83649e-11
-3.08091e-11
-3.11786e-11
-3.1207e-11
-3.24007e-11
-3.07523e-11
-3.09228e-11
-3.03544e-11
-2.81659e-11
-2.57216e-11
-2.36469e-11
-2.12026e-11
-2.0691e-11
-1.81899e-11
-1.78488e-11
-1.94404e-11
-1.64277e-11
-1.47793e-11
-1.24487e-11
-1.38982e-11
-1.27329e-11
-1.08002e-11
-1.26477e-11
-1.44382e-11
-1.68825e-11
-1.87299e-11
-2.03499e-11
-2.09752e-11
-2.43006e-11
-2.48974e-11
-2.64322e-11
-2.68869e-11
-2.57785e-11
-2.6688e-11
-2.77396e-11
-2.93312e-11
-2.97291e-11
-2.97575e-11
-2.82512e-11
-2.81659e-11
-2.98428e-11
-2.87628e-11
-2.9047e-11
-3.02407e-11
-2.73133e-11
-2.78533e-11
-2.87912e-11
-3.20313e-11
-3.40492e-11
-3.66356e-11
-3.68914e-11
-3.76872e-11
-3.84546e-11
-3.89093e-11
-4.27178e-11
-4.55032e-11
-4.72085e-11
-4.49063e-11
-4.65548e-11
-4.84022e-11
-5.0278e-11
-5.00791e-11
-4.92548e-11
-5.28928e-11
-5.27223e-11
-5.16991e-11
-5.12728e-11
-5.56497e-11
-5.42855e-11
-5.65024e-11
-5.70424e-11
-5.98561e-11
-5.95151e-11
-6.29257e-11
-6.46594e-11
-6.45457e-11
-6.4631e-11
-6.37783e-11
-6.3153e-11
-6.34657e-11
-6.49152e-11
-6.42331e-11
-6.32667e-11
-6.24993e-11
-6.14477e-11
-6.08509e-11
-5.86908e-11
-5.92877e-11
-5.66445e-11
-5.61329e-11
-5.84066e-11
-5.72413e-11
-5.80371e-11
-5.74971e-11
-5.73834e-11
-5.67582e-11
-5.5735e-11
-5.34612e-11
-4.88001e-11
-4.43947e-11
-4.09841e-11
-3.72893e-11
-3.47598e-11
-3.45608e-11
-3.15765e-11
-2.87343e-11
-2.66027e-11
-2.41585e-11
-2.15437e-11
-2.25668e-11
-2.04636e-11
-1.66835e-11
-1.46656e-11
-1.3415e-11
-1.39835e-11
-1.49782e-11
-1.76215e-11
-1.73941e-11
-1.70246e-11
-1.64846e-11
-1.77067e-11
-2.05205e-11
-2.56932e-11
-2.75691e-11
-2.79385e-11
-2.79954e-11
-2.96723e-11
-3.24576e-11
-3.46745e-11
-3.68061e-11
-3.93641e-11
-4.11262e-11
-4.11546e-11
-4.31157e-11
-4.60432e-11
-4.89706e-11
-4.88285e-11
-4.82885e-11
-4.99654e-11
-5.20401e-11
-5.26654e-11
-5.22391e-11
-4.93969e-11
-4.77769e-11
-4.55032e-11
-4.63274e-11
-4.5759e-11
-4.72085e-11
-4.49347e-11
-4.0643e-11
-3.80282e-11
-3.08091e-11
-2.73985e-11
-1.73088e-11
-6.87805e-12
9.23706e-12
2.83933e-11
5.22391e-11
8.5663e-11
1.31763e-10
1.93438e-10
2.7876e-10
3.96028e-10
5.57691e-10
7.8029e-10
1.09151e-09
1.51647e-09
2.09937e-09
2.89816e-09
3.99393e-09
5.49127e-09
7.53437e-09
1.03202e-08
1.41043e-08
1.92435e-08
2.62077e-08
3.56303e-08
4.83519e-08
6.55001e-08
8.85752e-08
1.19568e-07
1.61113e-07
2.16715e-07
2.90989e-07
3.90021e-07
5.21821e-07
6.96901e-07
9.29031e-07
1.23622e-06
1.64196e-06
2.17682e-06
2.88051e-06
3.80451e-06
5.01539e-06
6.59902e-06
8.66595e-06
1.13582e-05
1.48577e-05
1.93969e-05
2.52726e-05
3.2862e-05
4.26438e-05
5.52242e-05
7.13683e-05
9.20399e-05
0.000118449
0.000152113
0.000194926
0.000249247
0.00031801
0.000404847
0.000514245
0.000651733
0.000824095
0.00103964
0.0013085
0.00164301
0.00205812
0.00257188
0.00320603
0.00398667
0.00494498
0.00611809
0.00755006
0.00929295
0.011408
0.0139671
0.0170538
0.0207656
0.0252148
0.0305309
0.0368619
0.0443766
0.0532658
0.0637446
0.076054
0.0904617
0.107264
0.126786
0.149382
0.175435
0.205358
0.239589
0.27859
0.322844
0.372854
0.42913
0.492191
0.562556
0.640735
0.727224
0.822496
0.926994
1.04112
1.16523
1.29964
1.44458
1.60025
1.76677
1.94419
2.1325
2.33163
2.54143
2.76171
2.99221
3.23264
3.48267
3.74192
4.00998
4.28645
4.57089
4.86287
5.16194
5.46768
5.77964
6.09742
6.42061
6.74883
7.08171
7.41891
7.76009
8.10497
8.45325
8.80467
9.15898
9.51597
9.87541
10.2371
10.6009
10.9667
11.3342
11.7033
12.0739
12.446
12.8193
13.1938
13.5694
13.946
14.3235
14.7019
15.081
15.4609
15.8415
16.2226
16.6044
16.9866
17.3693
17.7525
18.1361
18.52
18.9043
19.2889
19.6738
20.0589
20.4443
20.8298
21.2156
21.6015
21.9876
22.3738
22.7602
23.1466
23.5332
23.9198
24.3065
24.6932
25.08
25.4668
25.8536
26.2405
26.6273
27.0142
27.401
27.7879
28.1747
28.5614
28.9482
29.3349
29.7216
30.1082
30.4947
30.8812
31.2677
31.654
32.0403
32.4266
32.8127
33.1988
33.5848
33.9707
34.3565
34.7422
35.1278
35.5133
35.8987
36.2841
36.6693
37.0544
37.4394
37.8243
38.2091
38.5937
38.9783
39.3627
39.747
40.1312
40.5153
40.8993
41.2831
41.6668
42.0504
42.4339
42.8172
43.2004
43.5835
43.9664
44.3492
44.7319
45.1144
45.4968
45.879
46.2612
46.6431
47.025
47.4067
47.7883
48.1697
48.5509
48.9321
49.3131
49.6939
50.0746
50.4551
50.8355
51.2158
51.5959
51.9758
52.3556
52.7353
53.1148
53.4941
53.8733
54.2523
54.6312
55.0099
55.3884
55.7668
56.1451
56.5231
56.9011
57.2788
57.6564
58.0339
58.4111
58.7882
59.1652
59.542
59.9186
60.295
60.6713
61.0474
61.4234
61.7991
62.1747
62.5502
62.9254
63.3005
63.6755
64.0502
64.4248
64.7992
65.1734
65.5475
65.9214
66.2951
66.6686
67.042
67.4152
67.7882
68.161
68.5337
68.9061
69.2784
69.6505
70.0225
70.3942
70.7658
71.1372
71.5084
71.8794
72.2503
72.6209
72.9914
73.3617
73.7318
74.1017
74.4715
74.841
75.2104
75.5796
75.9486
76.3174
76.686
77.0545
77.4227
77.7908
78.1587
78.5264
78.8939
79.2612
79.6283
79.9952
80.362
80.7285
81.0949
81.4611
81.827
82.1928
82.5584
82.9239
83.2891
83.6541
84.0189
84.3836
84.748
85.1123
85.4764
85.8402
86.2039
86.5674
86.9307
87.2938
87.6567
88.0194
88.3819
88.7442
89.1064
89.4683
89.83
90.1916
90.5529
90.9141
91.2751
91.6358
91.9964
92.3568
92.7169
93.0769
93.4367
93.7963
94.1557
94.5149
94.8739
95.2327
95.5913
95.9497
96.3079
96.6659
97.0237
97.3814
97.7388
98.096
98.4531
98.8099
99.1665
99.523
99.8792
100.235
100.591
100.947
101.302
101.657
102.012
102.367
102.722
103.076
103.431
103.785
104.139
104.492
104.846
105.199
105.552
105.905
106.258
106.61
106.962
107.315
107.666
108.018
108.37
108.721
109.072
109.423
109.774
110.124
110.474
110.824
111.174
111.524
111.873
112.223
112.572
112.921
113.269
113.618
113.966
114.314
114.662
115.01
115.357
115.705
116.052
116.399
116.746
117.092
117.438
117.784
118.13
118.476
118.822
119.167
119.512
119.857
120.202
120.546
120.891
121.235
121.579
121.922
122.266
122.609
122.952
123.295
123.638
123.98
124.323
124.665
125.007
125.349
125.69
126.031
126.373
126.714
127.054
127.395
127.735
128.075
128.415
128.755
129.095
129.434
129.773
130.112
130.451
130.789
131.128
131.466
131.804
132.142
132.479
132.817
133.154
133.491
133.828
134.164
134.5
134.837
135.173
135.508
135.844
136.179
136.515
136.85
137.184
137.519
137.853
138.188
138.522
138.855
139.189
139.522
139.856
140.189
140.521
140.854
141.186
141.519
141.851
142.183
142.514
142.846
143.177
143.508
143.839
144.169
144.5
144.83
145.16
145.49
145.82
146.149
146.478
146.807
147.136
147.465
147.794
148.122
148.45
148.778
149.105
149.433
149.76
150.087
150.414
150.741
151.068
151.394
151.72
152.046
152.372
152.697
153.022
153.348
153.673
153.997
154.322
154.646
154.97
155.294
155.618
155.942
156.265
156.588
156.911
157.234
157.557
157.879
158.201
158.523
158.845
159.167
159.488
159.809
160.13
160.451
160.772
161.092
161.413
161.733
162.053
162.372
162.692
163.011
163.33
163.649
163.968
164.286
164.605
164.923
165.241
165.558
165.876
166.193
166.51
166.827
167.144
167.461
167.777
168.093
168.409
168.725
169.041
169.356
169.671
169.986
170.301
170.616
170.93
171.244
171.558
171.872
172.186
172.499
172.813
173.126
173.439
173.751
174.064
174.376
174.688
175