/*--------------------------------*- C++ -*----------------------------------*\
  =========                 |
  \\      /  F ield         | OpenFOAM: The Open Source CFD Toolbox
   \\    /   O peration     | Website:  https://openfoam.org
    \\  /    A nd           | Version:  9
     \\/     M anipulation  |
\*---------------------------------------------------------------------------*/
FoamFile
{
    format      ascii;
    class       volScalarField;
    location    "0.008";
    object      rho_0;
}
// * * * * * * * * * * * * * * * * * * * * * * * * * * * * * * * * * * * * * //

dimensions      [1 -3 0 0 0 0 0];

internalField   nonuniform List<scalar> 
10000
(
0.997574
0.997574
0.997574
0.997574
0.997574
0.997574
0.997574
0.997574
0.997574
0.997574
0.997574
0.997574
0.997574
0.997574
0.997574
0.997574
0.997574
0.997574
0.997574
0.997574
0.997574
0.997574
0.997574
0.997574
0.997574
0.997574
0.997574
0.997574
0.997574
0.997574
0.997574
0.997574
0.997574
0.997574
0.997574
0.997574
0.997574
0.997574
0.997574
0.997574
0.997574
0.997574
0.997574
0.997574
0.997574
0.997574
0.997574
0.997574
0.997574
0.997574
0.997574
0.997574
0.997574
0.997574
0.997574
0.997574
0.997574
0.997574
0.997574
0.997574
0.997574
0.997574
0.997574
0.997574
0.997574
0.997574
0.997574
0.997574
0.997574
0.997574
0.997574
0.997574
0.997574
0.997574
0.997574
0.997574
0.997574
0.997574
0.997574
0.997574
0.997574
0.997574
0.997574
0.997574
0.997574
0.997574
0.997574
0.997574
0.997574
0.997574
0.997574
0.997574
0.997574
0.997574
0.997574
0.997574
0.997574
0.997574
0.997574
0.997574
0.997574
0.997574
0.997574
0.997574
0.997574
0.997574
0.997574
0.997574
0.997574
0.997574
0.997574
0.997574
0.997574
0.997574
0.997574
0.997574
0.997574
0.997574
0.997574
0.997574
0.997574
0.997574
0.997574
0.997574
0.997574
0.997574
0.997574
0.997574
0.997574
0.997574
0.997574
0.997574
0.997574
0.997574
0.997574
0.997574
0.997574
0.997574
0.997574
0.997574
0.997574
0.997574
0.997574
0.997574
0.997574
0.997574
0.997574
0.997574
0.997574
0.997574
0.997574
0.997574
0.997574
0.997574
0.997574
0.997574
0.997574
0.997574
0.997574
0.997574
0.997574
0.997574
0.997574
0.997574
0.997574
0.997574
0.997574
0.997574
0.997574
0.997574
0.997574
0.997574
0.997574
0.997574
0.997574
0.997574
0.997574
0.997574
0.997574
0.997574
0.997574
0.997574
0.997574
0.997574
0.997574
0.997574
0.997574
0.997574
0.997574
0.997574
0.997574
0.997574
0.997574
0.997574
0.997574
0.997574
0.997574
0.997574
0.997574
0.997574
0.997574
0.997574
0.997574
0.997574
0.997574
0.997574
0.997574
0.997574
0.997574
0.997574
0.997574
0.997574
0.997574
0.997574
0.997574
0.997574
0.997574
0.997574
0.997574
0.997574
0.997574
0.997574
0.997574
0.997574
0.997574
0.997574
0.997574
0.997574
0.997574
0.997574
0.997574
0.997574
0.997574
0.997574
0.997574
0.997574
0.997574
0.997574
0.997574
0.997574
0.997574
0.997574
0.997574
0.997574
0.997574
0.997574
0.997574
0.997574
0.997574
0.997574
0.997574
0.997574
0.997574
0.997574
0.997574
0.997574
0.997574
0.997574
0.997574
0.997574
0.997574
0.997574
0.997574
0.997574
0.997574
0.997574
0.997574
0.997574
0.997574
0.997574
0.997574
0.997574
0.997574
0.997574
0.997574
0.997574
0.997574
0.997574
0.997574
0.997574
0.997574
0.997574
0.997574
0.997574
0.997574
0.997574
0.997574
0.997574
0.997574
0.997574
0.997574
0.997574
0.997574
0.997574
0.997574
0.997574
0.997574
0.997574
0.997574
0.997574
0.997574
0.997574
0.997574
0.997574
0.997574
0.997574
0.997574
0.997574
0.997574
0.997574
0.997574
0.997574
0.997574
0.997574
0.997574
0.997574
0.997574
0.997574
0.997574
0.997574
0.997574
0.997574
0.997574
0.997574
0.997574
0.997574
0.997574
0.997574
0.997574
0.997574
0.997574
0.997574
0.997574
0.997574
0.997574
0.997574
0.997574
0.997574
0.997574
0.997574
0.997574
0.997574
0.997574
0.997574
0.997574
0.997574
0.997574
0.997574
0.997574
0.997574
0.997574
0.997574
0.997574
0.997574
0.997574
0.997574
0.997574
0.997574
0.997574
0.997574
0.997574
0.997574
0.997574
0.997574
0.997574
0.997574
0.997574
0.997574
0.997574
0.997574
0.997574
0.997574
0.997574
0.997574
0.997574
0.997574
0.997574
0.997574
0.997574
0.997574
0.997574
0.997574
0.997574
0.997574
0.997574
0.997574
0.997574
0.997574
0.997574
0.997574
0.997574
0.997574
0.997574
0.997574
0.997574
0.997574
0.997574
0.997574
0.997574
0.997574
0.997574
0.997574
0.997574
0.997574
0.997574
0.997574
0.997574
0.997574
0.997574
0.997574
0.997574
0.997574
0.997574
0.997574
0.997574
0.997574
0.997574
0.997574
0.997574
0.997574
0.997574
0.997574
0.997574
0.997574
0.997574
0.997574
0.997574
0.997574
0.997574
0.997574
0.997574
0.997574
0.997574
0.997574
0.997574
0.997574
0.997574
0.997574
0.997574
0.997574
0.997574
0.997574
0.997574
0.997574
0.997574
0.997574
0.997574
0.997574
0.997574
0.997574
0.997574
0.997574
0.997574
0.997574
0.997574
0.997574
0.997574
0.997574
0.997574
0.997574
0.997574
0.997574
0.997574
0.997574
0.997574
0.997574
0.997574
0.997574
0.997574
0.997574
0.997574
0.997574
0.997574
0.997574
0.997574
0.997574
0.997574
0.997574
0.997574
0.997574
0.997574
0.997574
0.997574
0.997574
0.997574
0.997574
0.997574
0.997574
0.997574
0.997574
0.997574
0.997574
0.997574
0.997574
0.997574
0.997574
0.997574
0.997574
0.997574
0.997574
0.997574
0.997574
0.997574
0.997574
0.997574
0.997574
0.997574
0.997574
0.997574
0.997574
0.997574
0.997574
0.997574
0.997574
0.997574
0.997574
0.997574
0.997574
0.997574
0.997574
0.997574
0.997574
0.997574
0.997574
0.997574
0.997574
0.997574
0.997574
0.997574
0.997574
0.997574
0.997574
0.997574
0.997574
0.997574
0.997574
0.997574
0.997574
0.997574
0.997574
0.997574
0.997574
0.997574
0.997574
0.997574
0.997574
0.997574
0.997574
0.997574
0.997574
0.997574
0.997574
0.997574
0.997574
0.997574
0.997574
0.997574
0.997574
0.997574
0.997574
0.997574
0.997574
0.997574
0.997574
0.997574
0.997574
0.997574
0.997574
0.997574
0.997574
0.997574
0.997574
0.997574
0.997574
0.997574
0.997574
0.997574
0.997574
0.997574
0.997574
0.997574
0.997574
0.997574
0.997574
0.997574
0.997574
0.997574
0.997574
0.997574
0.997574
0.997574
0.997574
0.997574
0.997574
0.997574
0.997574
0.997574
0.997574
0.997574
0.997574
0.997574
0.997574
0.997574
0.997574
0.997574
0.997574
0.997574
0.997574
0.997574
0.997574
0.997574
0.997574
0.997574
0.997574
0.997574
0.997574
0.997574
0.997574
0.997574
0.997574
0.997574
0.997574
0.997574
0.997574
0.997574
0.997574
0.997574
0.997574
0.997574
0.997574
0.997574
0.997574
0.997574
0.997574
0.997574
0.997574
0.997574
0.997574
0.997574
0.997574
0.997574
0.997574
0.997574
0.997574
0.997574
0.997574
0.997574
0.997574
0.997574
0.997574
0.997574
0.997574
0.997574
0.997574
0.997574
0.997574
0.997574
0.997574
0.997574
0.997574
0.997574
0.997574
0.997574
0.997574
0.997574
0.997574
0.997574
0.997574
0.997574
0.997574
0.997574
0.997574
0.997574
0.997574
0.997574
0.997574
0.997574
0.997574
0.997574
0.997574
0.997574
0.997574
0.997574
0.997574
0.997574
0.997574
0.997574
0.997574
0.997574
0.997574
0.997574
0.997574
0.997574
0.997574
0.997574
0.997574
0.997574
0.997574
0.997574
0.997574
0.997574
0.997574
0.997574
0.997574
0.997574
0.997574
0.997574
0.997574
0.997574
0.997574
0.997574
0.997574
0.997574
0.997574
0.997574
0.997574
0.997574
0.997574
0.997574
0.997574
0.997574
0.997574
0.997574
0.997574
0.997574
0.997574
0.997574
0.997574
0.997574
0.997574
0.997574
0.997574
0.997574
0.997574
0.997574
0.997574
0.997574
0.997574
0.997574
0.997574
0.997574
0.997574
0.997574
0.997574
0.997574
0.997574
0.997574
0.997574
0.997574
0.997574
0.997574
0.997574
0.997574
0.997574
0.997574
0.997574
0.997574
0.997574
0.997574
0.997574
0.997574
0.997574
0.997574
0.997574
0.997574
0.997574
0.997574
0.997574
0.997574
0.997574
0.997574
0.997574
0.997574
0.997574
0.997574
0.997574
0.997574
0.997574
0.997574
0.997574
0.997574
0.997574
0.997574
0.997574
0.997574
0.997574
0.997574
0.997574
0.997574
0.997574
0.997574
0.997574
0.997574
0.997574
0.997574
0.997574
0.997574
0.997574
0.997574
0.997574
0.997574
0.997574
0.997574
0.997574
0.997574
0.997574
0.997574
0.997574
0.997574
0.997574
0.997574
0.997574
0.997574
0.997574
0.997574
0.997574
0.997574
0.997574
0.997574
0.997574
0.997574
0.997574
0.997574
0.997574
0.997574
0.997574
0.997574
0.997574
0.997574
0.997574
0.997574
0.997574
0.997574
0.997574
0.997574
0.997574
0.997574
0.997574
0.997574
0.997574
0.997574
0.997574
0.997574
0.997574
0.997574
0.997574
0.997574
0.997574
0.997574
0.997574
0.997574
0.997574
0.997574
0.997574
0.997574
0.997574
0.997574
0.997574
0.997574
0.997574
0.997574
0.997574
0.997574
0.997574
0.997574
0.997574
0.997574
0.997574
0.997574
0.997574
0.997574
0.997574
0.997574
0.997574
0.997574
0.997574
0.997574
0.997574
0.997574
0.997574
0.997574
0.997574
0.997574
0.997574
0.997574
0.997574
0.997574
0.997574
0.997574
0.997574
0.997574
0.997574
0.997574
0.997574
0.997574
0.997574
0.997574
0.997574
0.997574
0.997574
0.997574
0.997574
0.997574
0.997574
0.997574
0.997574
0.997574
0.997574
0.997574
0.997574
0.997574
0.997574
0.997574
0.997574
0.997574
0.997574
0.997574
0.997574
0.997574
0.997574
0.997574
0.997574
0.997574
0.997574
0.997574
0.997574
0.997574
0.997574
0.997574
0.997574
0.997574
0.997574
0.997574
0.997574
0.997574
0.997574
0.997574
0.997574
0.997574
0.997574
0.997574
0.997574
0.997574
0.997574
0.997574
0.997574
0.997574
0.997574
0.997574
0.997574
0.997574
0.997574
0.997574
0.997574
0.997574
0.997574
0.997574
0.997574
0.997574
0.997574
0.997574
0.997574
0.997574
0.997574
0.997574
0.997574
0.997574
0.997574
0.997574
0.997574
0.997574
0.997574
0.997574
0.997574
0.997574
0.997574
0.997574
0.997574
0.997574
0.997574
0.997574
0.997574
0.997574
0.997574
0.997574
0.997574
0.997574
0.997574
0.997574
0.997574
0.997574
0.997574
0.997574
0.997574
0.997574
0.997574
0.997574
0.997574
0.997574
0.997574
0.997574
0.997574
0.997574
0.997574
0.997574
0.997574
0.997574
0.997574
0.997574
0.997574
0.997574
0.997574
0.997574
0.997574
0.997574
0.997574
0.997574
0.997574
0.997574
0.997574
0.997574
0.997574
0.997574
0.997574
0.997574
0.997574
0.997574
0.997574
0.997574
0.997574
0.997574
0.997574
0.997574
0.997574
0.997574
0.997574
0.997574
0.997574
0.997574
0.997574
0.997574
0.997574
0.997574
0.997574
0.997574
0.997574
0.997574
0.997574
0.997574
0.997574
0.997574
0.997574
0.997574
0.997574
0.997574
0.997574
0.997574
0.997574
0.997574
0.997574
0.997574
0.997574
0.997574
0.997574
0.997574
0.997574
0.997574
0.997574
0.997574
0.997574
0.997574
0.997574
0.997574
0.997574
0.997574
0.997574
0.997574
0.997574
0.997574
0.997574
0.997574
0.997574
0.997574
0.997574
0.997574
0.997574
0.997574
0.997574
0.997574
0.997574
0.997574
0.997574
0.997574
0.997574
0.997574
0.997574
0.997574
0.997574
0.997574
0.997574
0.997574
0.997574
0.997574
0.997574
0.997574
0.997574
0.997574
0.997574
0.997574
0.997574
0.997574
0.997574
0.997574
0.997574
0.997574
0.997574
0.997574
0.997574
0.997574
0.997574
0.997574
0.997574
0.997574
0.997574
0.997574
0.997574
0.997574
0.997574
0.997574
0.997574
0.997574
0.997574
0.997574
0.997574
0.997574
0.997574
0.997574
0.997574
0.997574
0.997574
0.997574
0.997574
0.997574
0.997574
0.997574
0.997574
0.997574
0.997574
0.997574
0.997574
0.997574
0.997574
0.997574
0.997574
0.997574
0.997574
0.997574
0.997574
0.997574
0.997574
0.997574
0.997574
0.997574
0.997574
0.997574
0.997574
0.997574
0.997574
0.997574
0.997574
0.997574
0.997574
0.997574
0.997574
0.997574
0.997574
0.997574
0.997574
0.997574
0.997574
0.997574
0.997574
0.997574
0.997574
0.997574
0.997574
0.997574
0.997574
0.997574
0.997574
0.997574
0.997574
0.997574
0.997574
0.997574
0.997574
0.997574
0.997574
0.997574
0.997574
0.997574
0.997574
0.997574
0.997574
0.997574
0.997574
0.997574
0.997574
0.997574
0.997574
0.997574
0.997574
0.997574
0.997574
0.997574
0.997574
0.997574
0.997574
0.997574
0.997574
0.997574
0.997574
0.997574
0.997574
0.997574
0.997574
0.997574
0.997574
0.997574
0.997574
0.997574
0.997574
0.997574
0.997574
0.997574
0.997574
0.997574
0.997574
0.997574
0.997574
0.997574
0.997574
0.997574
0.997574
0.997574
0.997574
0.997574
0.997574
0.997574
0.997574
0.997574
0.997574
0.997574
0.997574
0.997574
0.997574
0.997574
0.997574
0.997574
0.997574
0.997574
0.997574
0.997574
0.997574
0.997574
0.997574
0.997574
0.997574
0.997574
0.997574
0.997574
0.997574
0.997574
0.997574
0.997574
0.997574
0.997574
0.997574
0.997574
0.997574
0.997574
0.997574
0.997574
0.997574
0.997574
0.997574
0.997574
0.997574
0.997574
0.997574
0.997574
0.997574
0.997574
0.997574
0.997574
0.997574
0.997574
0.997574
0.997574
0.997574
0.997574
0.997574
0.997574
0.997574
0.997574
0.997574
0.997574
0.997574
0.997574
0.997574
0.997574
0.997574
0.997574
0.997574
0.997574
0.997574
0.997574
0.997574
0.997574
0.997574
0.997574
0.997574
0.997574
0.997574
0.997574
0.997574
0.997574
0.997574
0.997574
0.997574
0.997574
0.997574
0.997574
0.997574
0.997574
0.997574
0.997574
0.997574
0.997574
0.997574
0.997574
0.997574
0.997574
0.997574
0.997574
0.997574
0.997574
0.997574
0.997574
0.997574
0.997574
0.997574
0.997574
0.997574
0.997574
0.997574
0.997574
0.997574
0.997574
0.997574
0.997574
0.997574
0.997574
0.997574
0.997574
0.997574
0.997574
0.997574
0.997574
0.997574
0.997574
0.997574
0.997574
0.997574
0.997574
0.997574
0.997574
0.997574
0.997574
0.997574
0.997574
0.997574
0.997574
0.997574
0.997574
0.997574
0.997574
0.997574
0.997574
0.997574
0.997574
0.997574
0.997574
0.997574
0.997574
0.997574
0.997574
0.997574
0.997574
0.997574
0.997574
0.997574
0.997574
0.997574
0.997574
0.997574
0.997574
0.997574
0.997574
0.997574
0.997574
0.997574
0.997574
0.997574
0.997574
0.997574
0.997574
0.997574
0.997574
0.997574
0.997574
0.997574
0.997574
0.997574
0.997574
0.997574
0.997574
0.997574
0.997574
0.997574
0.997574
0.997574
0.997574
0.997574
0.997574
0.997574
0.997574
0.997574
0.997574
0.997574
0.997574
0.997574
0.997574
0.997574
0.997574
0.997574
0.997574
0.997574
0.997574
0.997574
0.997574
0.997574
0.997574
0.997574
0.997574
0.997574
0.997574
0.997574
0.997574
0.997574
0.997574
0.997574
0.997574
0.997574
0.997574
0.997574
0.997574
0.997574
0.997574
0.997574
0.997574
0.997574
0.997574
0.997574
0.997574
0.997574
0.997574
0.997574
0.997574
0.997574
0.997574
0.997574
0.997574
0.997574
0.997574
0.997574
0.997574
0.997574
0.997574
0.997574
0.997574
0.997574
0.997574
0.997574
0.997574
0.997574
0.997574
0.997574
0.997574
0.997574
0.997574
0.997574
0.997574
0.997574
0.997574
0.997574
0.997574
0.997574
0.997574
0.997574
0.997574
0.997574
0.997574
0.997574
0.997574
0.997574
0.997574
0.997574
0.997574
0.997574
0.997574
0.997574
0.997574
0.997574
0.997574
0.997574
0.997574
0.997574
0.997574
0.997574
0.997574
0.997574
0.997574
0.997574
0.997574
0.997574
0.997574
0.997574
0.997574
0.997574
0.997574
0.997574
0.997574
0.997574
0.997574
0.997574
0.997574
0.997574
0.997574
0.997574
0.997574
0.997574
0.997574
0.997574
0.997574
0.997574
0.997574
0.997574
0.997574
0.997574
0.997574
0.997574
0.997574
0.997574
0.997574
0.997574
0.997574
0.997574
0.997574
0.997574
0.997574
0.997574
0.997574
0.997574
0.997574
0.997574
0.997574
0.997574
0.997574
0.997574
0.997574
0.997574
0.997574
0.997574
0.997574
0.997574
0.997574
0.997574
0.997574
0.997574
0.997574
0.997574
0.997574
0.997574
0.997574
0.997574
0.997574
0.997574
0.997574
0.997574
0.997574
0.997574
0.997574
0.997574
0.997574
0.997574
0.997574
0.997574
0.997574
0.997574
0.997574
0.997574
0.997574
0.997574
0.997574
0.997574
0.997574
0.997574
0.997574
0.997574
0.997574
0.997574
0.997574
0.997574
0.997574
0.997574
0.997574
0.997574
0.997574
0.997574
0.997574
0.997574
0.997574
0.997574
0.997574
0.997574
0.997574
0.997574
0.997574
0.997574
0.997574
0.997574
0.997574
0.997574
0.997574
0.997574
0.997574
0.997574
0.997574
0.997574
0.997574
0.997574
0.997574
0.997574
0.997574
0.997574
0.997574
0.997574
0.997574
0.997574
0.997574
0.997574
0.997574
0.997574
0.997574
0.997574
0.997574
0.997574
0.997574
0.997574
0.997574
0.997574
0.997574
0.997574
0.997574
0.997574
0.997574
0.997574
0.997574
0.997574
0.997574
0.997574
0.997574
0.997574
0.997574
0.997574
0.997574
0.997574
0.997574
0.997574
0.997574
0.997574
0.997574
0.997574
0.997574
0.997574
0.997574
0.997574
0.997574
0.997574
0.997574
0.997574
0.997574
0.997574
0.997574
0.997574
0.997574
0.997574
0.997574
0.997574
0.997574
0.997574
0.997574
0.997574
0.997574
0.997574
0.997574
0.997574
0.997574
0.997574
0.997574
0.997574
0.997574
0.997574
0.997574
0.997574
0.997574
0.997574
0.997574
0.997574
0.997574
0.997574
0.997574
0.997574
0.997574
0.997574
0.997574
0.997574
0.997574
0.997574
0.997574
0.997574
0.997574
0.997574
0.997574
0.997574
0.997574
0.997574
0.997574
0.997574
0.997574
0.997574
0.997574
0.997574
0.997574
0.997574
0.997574
0.997574
0.997574
0.997574
0.997574
0.997574
0.997574
0.997574
0.997574
0.997574
0.997574
0.997574
0.997574
0.997574
0.997574
0.997574
0.997574
0.997574
0.997574
0.997574
0.997574
0.997574
0.997574
0.997574
0.997574
0.997574
0.997574
0.997574
0.997574
0.997574
0.997574
0.997574
0.997574
0.997574
0.997574
0.997574
0.997574
0.997574
0.997574
0.997574
0.997574
0.997574
0.997574
0.997574
0.997574
0.997574
0.997574
0.997574
0.997574
0.997574
0.997574
0.997574
0.997574
0.997574
0.997574
0.997574
0.997574
0.997574
0.997574
0.997574
0.997574
0.997574
0.997574
0.997574
0.997574
0.997574
0.997574
0.997574
0.997574
0.997574
0.997574
0.997574
0.997574
0.997574
0.997574
0.997574
0.997574
0.997574
0.997574
0.997574
0.997574
0.997574
0.997574
0.997574
0.997574
0.997574
0.997574
0.997574
0.997574
0.997574
0.997574
0.997574
0.997574
0.997574
0.997574
0.997574
0.997574
0.997574
0.997574
0.997574
0.997574
0.997574
0.997574
0.997574
0.997574
0.997574
0.997574
0.997574
0.997574
0.997574
0.997574
0.997574
0.997574
0.997574
0.997574
0.997574
0.997574
0.997574
0.997574
0.997574
0.997574
0.997574
0.997574
0.997574
0.997574
0.997574
0.997574
0.997574
0.997574
0.997574
0.997574
0.997574
0.997574
0.997574
0.997574
0.997574
0.997574
0.997574
0.997574
0.997574
0.997574
0.997574
0.997574
0.997574
0.997574
0.997574
0.997574
0.997574
0.997574
0.997574
0.997574
0.997574
0.997574
0.997574
0.997574
0.997574
0.997574
0.997574
0.997574
0.997574
0.997574
0.997574
0.997574
0.997574
0.997574
0.997574
0.997574
0.997574
0.997574
0.997574
0.997574
0.997574
0.997574
0.997574
0.997574
0.997574
0.997574
0.997574
0.997574
0.997574
0.997574
0.997574
0.997574
0.997574
0.997574
0.997574
0.997574
0.997574
0.997574
0.997574
0.997574
0.997573
0.997573
0.997573
0.997572
0.997572
0.997572
0.997571
0.99757
0.997569
0.997568
0.997566
0.997565
0.997563
0.99756
0.997557
0.997553
0.997549
0.997544
0.997538
0.997531
0.997522
0.997513
0.997501
0.997488
0.997473
0.997455
0.997435
0.997411
0.997385
0.997355
0.997321
0.997283
0.99724
0.997193
0.99714
0.997082
0.997017
0.996947
0.99687
0.996786
0.996695
0.996598
0.996493
0.996381
0.996261
0.996134
0.996
0.995859
0.995711
0.995556
0.995395
0.995227
0.995052
0.994872
0.994687
0.994496
0.994299
0.994099
0.993893
0.993684
0.99347
0.993253
0.993033
0.992809
0.992582
0.992353
0.992121
0.991887
0.991651
0.991412
0.991172
0.99093
0.990687
0.990442
0.990196
0.989948
0.9897
0.98945
0.989199
0.988947
0.988695
0.988441
0.988187
0.987932
0.987677
0.987421
0.987164
0.986907
0.986649
0.986391
0.986133
0.985874
0.985614
0.985355
0.985095
0.984834
0.984574
0.984313
0.984052
0.98379
0.983529
0.983267
0.983005
0.982742
0.98248
0.982218
0.981955
0.981692
0.981429
0.981166
0.980902
0.980639
0.980376
0.980112
0.979848
0.979585
0.979321
0.979057
0.978793
0.978529
0.978264
0.978
0.977736
0.977472
0.977207
0.976943
0.976678
0.976414
0.976149
0.975884
0.97562
0.975355
0.97509
0.974826
0.974561
0.974296
0.974031
0.973766
0.973501
0.973236
0.972972
0.972707
0.972442
0.972177
0.971912
0.971647
0.971382
0.971117
0.970852
0.970587
0.970321
0.970056
0.969791
0.969526
0.969261
0.968996
0.968731
0.968466
0.968201
0.967936
0.967671
0.967406
0.967141
0.966876
0.966611
0.966345
0.96608
0.965815
0.96555
0.965285
0.96502
0.964755
0.96449
0.964225
0.96396
0.963695
0.96343
0.963165
0.9629
0.962636
0.962371
0.962106
0.961841
0.961576
0.961311
0.961046
0.960781
0.960517
0.960252
0.959987
0.959722
0.959458
0.959193
0.958928
0.958664
0.958399
0.958134
0.95787
0.957605
0.957341
0.957076
0.956812
0.956547
0.956283
0.956018
0.955754
0.955489
0.955225
0.954961
0.954697
0.954432
0.954168
0.953904
0.95364
0.953376
0.953111
0.952847
0.952583
0.952319
0.952055
0.951791
0.951527
0.951263
0.951
0.950736
0.950472
0.950208
0.949944
0.949681
0.949417
0.949154
0.94889
0.948626
0.948363
0.948099
0.947836
0.947573
0.947309
0.947046
0.946783
0.946519
0.946256
0.945993
0.94573
0.945467
0.945204
0.944941
0.944678
0.944415
0.944152
0.943889
0.943626
0.943363
0.943101
0.942838
0.942575
0.942313
0.94205
0.941788
0.941525
0.941263
0.941
0.940738
0.940476
0.940214
0.939951
0.939689
0.939427
0.939165
0.938903
0.938641
0.938379
0.938117
0.937855
0.937594
0.937332
0.93707
0.936808
0.936547
0.936285
0.936024
0.935762
0.935501
0.935239
0.934978
0.934717
0.934456
0.934194
0.933933
0.933672
0.933411
0.93315
0.932889
0.932628
0.932367
0.932107
0.931846
0.931585
0.931324
0.931064
0.930803
0.930543
0.930282
0.930022
0.929761
0.929501
0.929241
0.928981
0.92872
0.92846
0.9282
0.92794
0.92768
0.92742
0.92716
0.926901
0.926641
0.926381
0.926122
0.925862
0.925602
0.925343
0.925083
0.924824
0.924565
0.924305
0.924046
0.923787
0.923528
0.923269
0.923009
0.92275
0.922491
0.922233
0.921974
0.921715
0.921456
0.921197
0.920939
0.92068
0.920422
0.920163
0.919905
0.919646
0.919388
0.91913
0.918872
0.918613
0.918355
0.918097
0.917839
0.917581
0.917323
0.917065
0.916808
0.91655
0.916292
0.916034
0.915777
0.915519
0.915262
0.915004
0.914747
0.91449
0.914232
0.913975
0.913718
0.913461
0.913204
0.912947
0.91269
0.912433
0.912176
0.911919
0.911662
0.911406
0.911149
0.910892
0.910636
0.910379
0.910123
0.909867
0.90961
0.909354
0.909098
0.908842
0.908586
0.908329
0.908073
0.907818
0.907562
0.907306
0.90705
0.906794
0.906539
0.906283
0.906027
0.905772
0.905516
0.905261
0.905006
0.90475
0.904495
0.90424
0.903985
0.90373
0.903474
0.90322
0.902965
0.90271
0.902455
0.9022
0.901945
0.901691
0.901436
0.901182
0.900927
0.900673
0.900418
0.900164
0.89991
0.899655
0.899401
0.899147
0.898893
0.898639
0.898385
0.898131
0.897877
0.897623
0.89737
0.897116
0.896862
0.896609
0.896355
0.896102
0.895848
0.895595
0.895342
0.895088
0.894835
0.894582
0.894329
0.894076
0.893823
0.89357
0.893317
0.893064
0.892812
0.892559
0.892306
0.892054
0.891801
0.891549
0.891296
0.891044
0.890792
0.890539
0.890287
0.890035
0.889783
0.889531
0.889279
0.889027
0.888775
0.888523
0.888271
0.88802
0.887768
0.887516
0.887265
0.887013
0.886762
0.88651
0.886259
0.886008
0.885756
0.885505
0.885254
0.885003
0.884752
0.884501
0.88425
0.883999
0.883749
0.883498
0.883247
0.882996
0.882746
0.882495
0.882245
0.881994
0.881744
0.881494
0.881244
0.880993
0.880743
0.880493
0.880243
0.879993
0.879743
0.879493
0.879244
0.878994
0.878744
0.878494
0.878245
0.877995
0.877746
0.877496
0.877247
0.876998
0.876748
0.876499
0.87625
0.876001
0.875752
0.875503
0.875254
0.875005
0.874756
0.874508
0.874259
0.87401
0.873762
0.873513
0.873265
0.873016
0.872768
0.872519
0.872271
0.872023
0.871775
0.871527
0.871279
0.871031
0.870783
0.870535
0.870287
0.870039
0.869791
0.869544
0.869296
0.869048
0.868801
0.868553
0.868306
0.868059
0.867811
0.867564
0.867317
0.86707
0.866823
0.866576
0.866329
0.866082
0.865835
0.865588
0.865342
0.865095
0.864848
0.864602
0.864355
0.864109
0.863862
0.863616
0.86337
0.863123
0.862877
0.862631
0.862385
0.862139
0.861893
0.861647
0.861401
0.861155
0.86091
0.860664
0.860418
0.860173
0.859927
0.859682
0.859436
0.859191
0.858945
0.8587
0.858455
0.85821
0.857965
0.85772
0.857475
0.85723
0.856985
0.85674
0.856495
0.856251
0.856006
0.855761
0.855517
0.855272
0.855028
0.854783
0.854539
0.854295
0.854051
0.853806
0.853562
0.853318
0.853074
0.85283
0.852586
0.852343
0.852099
0.851855
0.851611
0.851368
0.851124
0.850881
0.850637
0.850394
0.85015
0.849907
0.849664
0.849421
0.849178
0.848935
0.848692
0.848449
0.848206
0.847963
0.84772
0.847477
0.847235
0.846992
0.846749
0.846507
0.846264
0.846022
0.84578
0.845537
0.845295
0.845053
0.844811
0.844569
0.844326
0.844085
0.843843
0.843601
0.843359
0.843117
0.842875
0.842634
0.842392
0.842151
0.841909
0.841668
0.841426
0.841185
0.840944
0.840702
0.840461
0.84022
0.839979
0.839738
0.839497
0.839256
0.839015
0.838775
0.838534
0.838293
0.838053
0.837812
0.837572
0.837331
0.837091
0.83685
0.83661
0.83637
0.83613
0.835889
0.835649
0.835409
0.835169
0.834929
0.83469
0.83445
0.83421
0.83397
0.833731
0.833491
0.833252
0.833012
0.832773
0.832533
0.832294
0.832055
0.831815
0.831576
0.831337
0.831098
0.830859
0.83062
0.830381
0.830143
0.829904
0.829665
0.829426
0.829188
0.828949
0.828711
0.828472
0.828234
0.827995
0.827757
0.827519
0.827281
0.827043
0.826805
0.826567
0.826329
0.826091
0.825853
0.825615
0.825377
0.82514
0.824902
0.824664
0.824427
0.824189
0.823952
0.823715
0.823477
0.82324
0.823003
0.822766
0.822529
0.822292
0.822055
0.821818
0.821581
0.821344
0.821107
0.82087
0.820634
0.820397
0.820161
0.819924
0.819688
0.819451
0.819215
0.818979
0.818742
0.818506
0.81827
0.818034
0.817798
0.817562
0.817326
0.81709
0.816854
0.816619
0.816383
0.816147
0.815912
0.815676
0.815441
0.815205
0.81497
0.814735
0.814499
0.814264
0.814029
0.813794
0.813559
0.813324
0.813089
0.812854
0.812619
0.812384
0.81215
0.811915
0.81168
0.811446
0.811211
0.810977
0.810742
0.810508
0.810274
0.810039
0.809805
0.809571
0.809337
0.809103
0.808869
0.808635
0.808401
0.808167
0.807934
0.8077
0.807466
0.807233
0.806999
0.806766
0.806532
0.806299
0.806066
0.805832
0.805599
0.805366
0.805133
0.8049
0.804667
0.804434
0.804201
0.803968
0.803735
0.803502
0.80327
0.803037
0.802804
0.802572
0.802339
0.802107
0.801875
0.801642
0.80141
0.801178
0.800946
0.800714
0.800482
0.80025
0.800018
0.799786
0.799554
0.799322
0.79909
0.798859
0.798627
0.798396
0.798164
0.797933
0.797701
0.79747
0.797238
0.797007
0.796776
0.796545
0.796314
0.796083
0.795852
0.795621
0.79539
0.795159
0.794928
0.794698
0.794467
0.794236
0.794006
0.793775
0.793545
0.793314
0.793084
0.792854
0.792624
0.792393
0.792163
0.791933
0.791703
0.791473
0.791243
0.791013
0.790784
0.790554
0.790324
0.790094
0.789865
0.789635
0.789406
0.789176
0.788947
0.788718
0.788488
0.788259
0.78803
0.787801
0.787572
0.787343
0.787114
0.786885
0.786656
0.786427
0.786198
0.78597
0.785741
0.785512
0.785284
0.785055
0.784827
0.784599
0.78437
0.784142
0.783914
0.783686
0.783457
0.783229
0.783001
0.782773
0.782545
0.782318
0.78209
0.781862
0.781634
0.781407
0.781179
0.780952
0.780724
0.780497
0.780269
0.780042
0.779815
0.779587
0.77936
0.779133
0.778906
0.778679
0.778452
0.778225
0.777998
0.777772
0.777545
0.777318
0.777091
0.776865
0.776638
0.776412
0.776185
0.775959
0.775733
0.775506
0.77528
0.775054
0.774828
0.774602
0.774376
0.77415
0.773924
0.773698
0.773472
0.773247
0.773021
0.772795
0.77257
0.772344
0.772119
0.771893
0.771668
0.771442
0.771217
0.770992
0.770767
0.770542
0.770317
0.770092
0.769867
0.769642
0.769417
0.769192
0.768967
0.768743
0.768518
0.768293
0.768069
0.767844
0.76762
0.767395
0.767171
0.766947
0.766723
0.766498
0.766274
0.76605
0.765826
0.765602
0.765378
0.765154
0.764931
0.764707
0.764483
0.764259
0.764036
0.763812
0.763589
0.763365
0.763142
0.762919
0.762695
0.762472
0.762249
0.762026
0.761803
0.76158
0.761357
0.761134
0.760911
0.760688
0.760465
0.760242
0.76002
0.759797
0.759575
0.759352
0.75913
0.758907
0.758685
0.758463
0.75824
0.758018
0.757796
0.757574
0.757352
0.75713
0.756908
0.756686
0.756464
0.756242
0.756021
0.755799
0.755577
0.755356
0.755134
0.754913
0.754691
0.75447
0.754249
0.754027
0.753806
0.753585
0.753364
0.753143
0.752922
0.752701
0.75248
0.752259
0.752038
0.751817
0.751597
0.751376
0.751156
0.750935
0.750714
0.750494
0.750274
0.750053
0.749833
0.749613
0.749393
0.749172
0.748952
0.748732
0.748512
0.748292
0.748073
0.747853
0.747633
0.747413
0.747194
0.746974
0.746754
0.746535
0.746315
0.746096
0.745877
0.745657
0.745438
0.745219
0.745
0.744781
0.744562
0.744343
0.744124
0.743905
0.743686
0.743467
0.743248
0.74303
0.742811
0.742592
0.742374
0.742155
0.741937
0.741719
0.7415
0.741282
0.741064
0.740846
0.740627
0.740409
0.740191
0.739973
0.739755
0.739538
0.73932
0.739102
0.738884
0.738667
0.738449
0.738231
0.738014
0.737796
0.737579
0.737362
0.737144
0.736927
0.73671
0.736493
0.736276
0.736059
0.735842
0.735625
0.735408
0.735191
0.734974
0.734757
0.734541
0.734324
0.734107
0.733891
0.733674
0.733458
0.733242
0.733025
0.732809
0.732593
0.732377
0.73216
0.731944
0.731728
0.731512
0.731296
0.731081
0.730865
0.730649
0.730433
0.730218
0.730002
0.729786
0.729571
0.729355
0.72914
0.728925
0.728709
0.728494
0.728279
0.728064
0.727848
0.727633
0.727418
0.727203
0.726988
0.726774
0.726559
0.726344
0.726129
0.725915
0.7257
0.725486
0.725271
0.725057
0.724842
0.724628
0.724413
0.724199
0.723985
0.723771
0.723557
0.723343
0.723129
0.722915
0.722701
0.722487
0.722273
0.722059
0.721846
0.721632
0.721419
0.721205
0.720991
0.720778
0.720565
0.720351
0.720138
0.719925
0.719712
0.719498
0.719285
0.719072
0.718859
0.718646
0.718433
0.718221
0.718008
0.717795
0.717582
0.71737
0.717157
0.716945
0.716732
0.71652
0.716307
0.716095
0.715883
0.71567
0.715458
0.715246
0.715034
0.714822
0.71461
0.714398
0.714186
0.713974
0.713763
0.713551
0.713339
0.713128
0.712916
0.712704
0.712493
0.712282
0.71207
0.711859
0.711648
0.711436
0.711225
0.711014
0.710803
0.710592
0.710381
0.71017
0.709959
0.709748
0.709538
0.709327
0.709116
0.708905
0.708695
0.708484
0.708274
0.708063
0.707853
0.707643
0.707432
0.707222
0.707012
0.706802
0.706592
0.706382
0.706172
0.705962
0.705752
0.705542
0.705332
0.705123
0.704913
0.704703
0.704494
0.704284
0.704075
0.703865
0.703656
0.703447
0.703237
0.703028
0.702819
0.70261
0.702401
0.702192
0.701983
0.701774
0.701565
0.701356
0.701147
0.700939
0.70073
0.700521
0.700313
0.700104
0.699896
0.699687
0.699479
0.69927
0.699062
0.698854
0.698646
0.698438
0.69823
0.698022
0.697814
0.697606
0.697398
0.69719
0.696982
0.696774
0.696567
0.696359
0.696151
0.695944
0.695736
0.695529
0.695322
0.695114
0.694907
0.6947
0.694492
0.694285
0.694078
0.693871
0.693664
0.693457
0.69325
0.693043
0.692837
0.69263
0.692423
0.692217
0.69201
0.691803
0.691597
0.69139
0.691184