/*--------------------------------*- C++ -*----------------------------------*\
  =========                 |
  \\      /  F ield         | OpenFOAM: The Open Source CFD Toolbox
   \\    /   O peration     | Website:  https://openfoam.org
    \\  /    A nd           | Version:  9
     \\/     M anipulation  |
\*---------------------------------------------------------------------------*/
FoamFile
{
    format      ascii;
    class       volVectorField;
    location    "0.008";
    object      U;
}
// * * * * * * * * * * * * * * * * * * * * * * * * * * * * * * * * * * * * * //

dimensions      [0 1 -1 0 0 0 0];

internalField   nonuniform List<vector> 
10000
(
(-9.12013e-12 0 0)
(-8.21956e-12 0 0)
(-7.67292e-12 0 0)
(-6.63952e-12 0 0)
(-6.49749e-12 0 0)
(-6.3401e-12 0 0)
(-6.11899e-12 0 0)
(-5.99077e-12 0 0)
(-6.97043e-12 0 0)
(-7.0019e-12 0 0)
(-7.27983e-12 0 0)
(-7.72973e-12 0 0)
(-8.6495e-12 0 0)
(-8.87983e-12 0 0)
(-9.32589e-12 0 0)
(-9.27138e-12 0 0)
(-9.99384e-12 0 0)
(-9.95852e-12 0 0)
(-1.06295e-11 0 0)
(-1.06395e-11 0 0)
(-1.10318e-11 0 0)
(-1.05497e-11 0 0)
(-1.03892e-11 0 0)
(-9.79806e-12 0 0)
(-9.42647e-12 0 0)
(-9.91476e-12 0 0)
(-1.0446e-11 0 0)
(-1.03178e-11 0 0)
(-1.02387e-11 0 0)
(-1.03155e-11 0 0)
(-1.00215e-11 0 0)
(-9.67983e-12 0 0)
(-8.96965e-12 0 0)
(-8.77695e-12 0 0)
(-8.24029e-12 0 0)
(-7.79653e-12 0 0)
(-7.19691e-12 0 0)
(-6.92666e-12 0 0)
(-6.28636e-12 0 0)
(-5.97081e-12 0 0)
(-5.99999e-12 0 0)
(-5.47024e-12 0 0)
(-5.28521e-12 0 0)
(-5.51861e-12 0 0)
(-6.21419e-12 0 0)
(-5.80498e-12 0 0)
(-6.4783e-12 0 0)
(-6.18425e-12 0 0)
(-7.07331e-12 0 0)
(-6.83223e-12 0 0)
(-7.71438e-12 0 0)
(-7.84413e-12 0 0)
(-9.29518e-12 0 0)
(-9.24758e-12 0 0)
(-1.02649e-11 0 0)
(-1.01174e-11 0 0)
(-1.07961e-11 0 0)
(-1.06487e-11 0 0)
(-1.11823e-11 0 0)
(-1.13551e-11 0 0)
(-1.16529e-11 0 0)
(-1.14226e-11 0 0)
(-1.12499e-11 0 0)
(-1.07163e-11 0 0)
(-1.10572e-11 0 0)
(-1.05159e-11 0 0)
(-1.0737e-11 0 0)
(-1.01366e-11 0 0)
(-1.04468e-11 0 0)
(-1.03915e-11 0 0)
(-1.04944e-11 0 0)
(-9.6115e-12 0 0)
(-9.58923e-12 0 0)
(-9.11015e-12 0 0)
(-9.53088e-12 0 0)
(-9.93165e-12 0 0)
(-1.05773e-11 0 0)
(-1.01658e-11 0 0)
(-1.09804e-11 0 0)
(-1.0972e-11 0 0)
(-1.12829e-11 0 0)
(-1.14495e-11 0 0)
(-1.13389e-11 0 0)
(-1.09535e-11 0 0)
(-1.14986e-11 0 0)
(-1.2248e-11 0 0)
(-1.31048e-11 0 0)
(-1.30357e-11 0 0)
(-1.33758e-11 0 0)
(-1.33896e-11 0 0)
(-1.40061e-11 0 0)
(-1.32399e-11 0 0)
(-1.34226e-11 0 0)
(-1.33981e-11 0 0)
(-1.4208e-11 0 0)
(-1.40783e-11 0 0)
(-1.47908e-11 0 0)
(-1.49266e-11 0 0)
(-1.49673e-11 0 0)
(-1.49789e-11 0 0)
(-1.50318e-11 0 0)
(-1.46871e-11 0 0)
(-1.4066e-11 0 0)
(-1.42172e-11 0 0)
(-1.3167e-11 0 0)
(-1.28169e-11 0 0)
(-1.20437e-11 0 0)
(-1.20721e-11 0 0)
(-1.13888e-11 0 0)
(-1.11562e-11 0 0)
(-1.13735e-11 0 0)
(-1.17397e-11 0 0)
(-1.14503e-11 0 0)
(-1.1709e-11 0 0)
(-1.09888e-11 0 0)
(-1.15324e-11 0 0)
(-1.08952e-11 0 0)
(-1.11777e-11 0 0)
(-1.11501e-11 0 0)
(-1.15815e-11 0 0)
(-1.09574e-11 0 0)
(-1.14549e-11 0 0)
(-1.04675e-11 0 0)
(-9.76351e-12 0 0)
(-8.57042e-12 0 0)
(-8.06064e-12 0 0)
(-7.78424e-12 0 0)
(-7.93396e-12 0 0)
(-7.92935e-12 0 0)
(-7.05027e-12 0 0)
(-7.27062e-12 0 0)
(-7.40421e-12 0 0)
(-7.59384e-12 0 0)
(-8.24797e-12 0 0)
(-8.50133e-12 0 0)
(-9.22685e-12 0 0)
(-9.62148e-12 0 0)
(-1.06288e-11 0 0)
(-1.04123e-11 0 0)
(-1.12737e-11 0 0)
(-1.13144e-11 0 0)
(-1.20299e-11 0 0)
(-1.17359e-11 0 0)
(-1.19309e-11 0 0)
(-1.22449e-11 0 0)
(-1.18925e-11 0 0)
(-1.13274e-11 0 0)
(-1.11854e-11 0 0)
(-1.06979e-11 0 0)
(-1.16284e-11 0 0)
(-1.18226e-11 0 0)
(-1.239e-11 0 0)
(-1.20637e-11 0 0)
(-1.24207e-11 0 0)
(-1.23823e-11 0 0)
(-1.25743e-11 0 0)
(-1.25451e-11 0 0)
(-1.26257e-11 0 0)
(-1.28952e-11 0 0)
(-1.30418e-11 0 0)
(-1.31531e-11 0 0)
(-1.31032e-11 0 0)
(-1.27808e-11 0 0)
(-1.35923e-11 0 0)
(-1.30165e-11 0 0)
(-1.26249e-11 0 0)
(-1.14295e-11 0 0)
(-1.15339e-11 0 0)
(-1.05627e-11 0 0)
(-1.07101e-11 0 0)
(-8.85526e-12 0 0)
(-9.18309e-12 0 0)
(-7.95008e-12 0 0)
(-8.87906e-12 0 0)
(-7.50018e-12 0 0)
(-7.8687e-12 0 0)
(-7.07714e-12 0 0)
(-7.71208e-12 0 0)
(-6.56429e-12 0 0)
(-7.34893e-12 0 0)
(-6.35776e-12 0 0)
(-7.47638e-12 0 0)
(-6.66563e-12 0 0)
(-7.19768e-12 0 0)
(-6.71476e-12 0 0)
(-7.40497e-12 0 0)
(-6.36006e-12 0 0)
(-6.54202e-12 0 0)
(-5.97849e-12 0 0)
(-5.9877e-12 0 0)
(-5.80651e-12 0 0)
(-7.06332e-12 0 0)
(-6.92666e-12 0 0)
(-7.33741e-12 0 0)
(-7.60382e-12 0 0)
(-8.21419e-12 0 0)
(-8.41073e-12 0 0)
(-9.10939e-12 0 0)
(-8.88367e-12 0 0)
(-9.66063e-12 0 0)
(-9.34816e-12 0 0)
(-1.05466e-11 0 0)
(-1.03432e-11 0 0)
(-1.08967e-11 0 0)
(-1.09927e-11 0 0)
(-1.26395e-11 0 0)
(-1.28437e-11 0 0)
(-1.41274e-11 0 0)
(-1.42172e-11 0 0)
(-1.51055e-11 0 0)
(-1.47746e-11 0 0)
(-1.53382e-11 0 0)
(-1.55961e-11 0 0)
(-1.67554e-11 0 0)
(-1.68161e-11 0 0)
(-1.75969e-11 0 0)
(-1.718e-11 0 0)
(-1.76076e-11 0 0)
(-1.73988e-11 0 0)
(-1.75754e-11 0 0)
(-1.67854e-11 0 0)
(-1.6965e-11 0 0)
(-1.67263e-11 0 0)
(-1.70119e-11 0 0)
(-1.62503e-11 0 0)
(-1.66257e-11 0 0)
(-1.56813e-11 0 0)
(-1.5765e-11 0 0)
(-1.52629e-11 0 0)
(-1.46979e-11 0 0)
(-1.42119e-11 0 0)
(-1.42794e-11 0 0)
(-1.35685e-11 0 0)
(-1.35961e-11 0 0)
(-1.27685e-11 0 0)
(-1.27101e-11 0 0)
(-1.24146e-11 0 0)
(-1.21075e-11 0 0)
(-1.20038e-11 0 0)
(-1.23539e-11 0 0)
(-1.28514e-11 0 0)
(-1.33957e-11 0 0)
(-1.39685e-11 0 0)
(-1.35639e-11 0 0)
(-1.38126e-11 0 0)
(-1.34764e-11 0 0)
(-1.35247e-11 0 0)
(-1.42265e-11 0 0)
(-1.51101e-11 0 0)
(-1.44092e-11 0 0)
(-1.43086e-11 0 0)
(-1.33981e-11 0 0)
(-1.32007e-11 0 0)
(-1.25566e-11 0 0)
(-1.29835e-11 0 0)
(-1.24291e-11 0 0)
(-1.18741e-11 0 0)
(-1.1765e-11 0 0)
(-1.19347e-11 0 0)
(-1.20192e-11 0 0)
(-1.25481e-11 0 0)
(-1.2671e-11 0 0)
(-1.21013e-11 0 0)
(-1.18687e-11 0 0)
(-1.20345e-11 0 0)
(-1.21934e-11 0 0)
(-1.2251e-11 0 0)
(-1.22564e-11 0 0)
(-1.28299e-11 0 0)
(-1.31685e-11 0 0)
(-1.36775e-11 0 0)
(-1.30618e-11 0 0)
(-1.29351e-11 0 0)
(-1.32299e-11 0 0)
(-1.3861e-11 0 0)
(-1.48153e-11 0 0)
(-1.58195e-11 0 0)
(-1.62595e-11 0 0)
(-1.58103e-11 0 0)
(-1.54403e-11 0 0)
(-1.59547e-11 0 0)
(-1.5514e-11 0 0)
(-1.54464e-11 0 0)
(-1.57773e-11 0 0)
(-1.56829e-11 0 0)
(-1.56514e-11 0 0)
(-1.51639e-11 0 0)
(-1.44599e-11 0 0)
(-1.44115e-11 0 0)
(-1.40176e-11 0 0)
(-1.40353e-11 0 0)
(-1.33021e-11 0 0)
(-1.40046e-11 0 0)
(-1.29558e-11 0 0)
(-1.31516e-11 0 0)
(-1.22142e-11 0 0)
(-1.15777e-11 0 0)
(-1.04176e-11 0 0)
(-9.78501e-12 0 0)
(-9.05564e-12 0 0)
(-9.03107e-12 0 0)
(-8.04067e-12 0 0)
(-7.81649e-12 0 0)
(-6.90747e-12 0 0)
(-7.55699e-12 0 0)
(-7.53933e-12 0 0)
(-7.79499e-12 0 0)
(-7.19231e-12 0 0)
(-7.83031e-12 0 0)
(-7.29519e-12 0 0)
(-8.06831e-12 0 0)
(-7.76812e-12 0 0)
(-9.16159e-12 0 0)
(-9.34739e-12 0 0)
(-9.81649e-12 0 0)
(-9.14393e-12 0 0)
(-9.64528e-12 0 0)
(-8.75699e-12 0 0)
(-9.25526e-12 0 0)
(-9.00881e-12 0 0)
(-9.4948e-12 0 0)
(-9.53011e-12 0 0)
(-1.08399e-11 0 0)
(-1.08299e-11 0 0)
(-1.17773e-11 0 0)
(-1.17228e-11 0 0)
(-1.21558e-11 0 0)
(-1.1841e-11 0 0)
(-1.25374e-11 0 0)
(-1.19409e-11 0 0)
(-1.25374e-11 0 0)
(-1.21282e-11 0 0)
(-1.24245e-11 0 0)
(-1.16576e-11 0 0)
(-1.20284e-11 0 0)
(-1.18894e-11 0 0)
(-1.25228e-11 0 0)
(-1.20268e-11 0 0)
(-1.20553e-11 0 0)
(-1.14602e-11 0 0)
(-1.14948e-11 0 0)
(-1.19178e-11 0 0)
(-1.19255e-11 0 0)
(-1.17766e-11 0 0)
(-1.1418e-11 0 0)
(-1.11501e-11 0 0)
(-1.07839e-11 0 0)
(-1.03501e-11 0 0)
(-9.81265e-12 0 0)
(-9.80881e-12 0 0)
(-9.73894e-12 0 0)
(-1.01712e-11 0 0)
(-1.04422e-11 0 0)
(-1.06349e-11 0 0)
(-1.05958e-11 0 0)
(-1.1471e-11 0 0)
(-1.1372e-11 0 0)
(-1.16184e-11 0 0)
(-1.19969e-11 0 0)
(-1.33382e-11 0 0)
(-1.36307e-11 0 0)
(-1.3785e-11 0 0)
(-1.3795e-11 0 0)
(-1.40545e-11 0 0)
(-1.33075e-11 0 0)
(-1.31931e-11 0 0)
(-1.27347e-11 0 0)
(-1.27608e-11 0 0)
(-1.27854e-11 0 0)
(-1.26802e-11 0 0)
(-1.22994e-11 0 0)
(-1.20921e-11 0 0)
(-1.19409e-11 0 0)
(-1.14979e-11 0 0)
(-1.16499e-11 0 0)
(-1.13865e-11 0 0)
(-1.15593e-11 0 0)
(-1.13251e-11 0 0)
(-1.14149e-11 0 0)
(-1.13113e-11 0 0)
(-1.10349e-11 0 0)
(-1.14004e-11 0 0)
(-1.13712e-11 0 0)
(-1.24952e-11 0 0)
(-1.2324e-11 0 0)
(-1.23124e-11 0 0)
(-1.18203e-11 0 0)
(-1.25443e-11 0 0)
(-1.1742e-11 0 0)
(-1.29627e-11 0 0)
(-1.26065e-11 0 0)
(-1.31209e-11 0 0)
(-1.2595e-11 0 0)
(-1.35171e-11 0 0)
(-1.36376e-11 0 0)
(-1.45113e-11 0 0)
(-1.40998e-11 0 0)
(-1.3557e-11 0 0)
(-1.28015e-11 0 0)
(-1.33796e-11 0 0)
(-1.38917e-11 0 0)
(-1.47439e-11 0 0)
(-1.56414e-11 0 0)
(-1.56192e-11 0 0)
(-1.58011e-11 0 0)
(-1.60575e-11 0 0)
(-1.66817e-11 0 0)
(-1.68099e-11 0 0)
(-1.63877e-11 0 0)
(-1.61612e-11 0 0)
(-1.5861e-11 0 0)
(-1.54886e-11 0 0)
(-1.52982e-11 0 0)
(-1.49313e-11 0 0)
(-1.479e-11 0 0)
(-1.51432e-11 0 0)
(-1.5798e-11 0 0)
(-1.64506e-11 0 0)
(-1.64698e-11 0 0)
(-1.59385e-11 0 0)
(-1.57689e-11 0 0)
(-1.59693e-11 0 0)
(-1.62764e-11 0 0)
(-1.59946e-11 0 0)
(-1.55931e-11 0 0)
(-1.58779e-11 0 0)
(-1.53305e-11 0 0)
(-1.52714e-11 0 0)
(-1.45167e-11 0 0)
(-1.49635e-11 0 0)
(-1.47263e-11 0 0)
(-1.4651e-11 0 0)
(-1.43155e-11 0 0)
(-1.43746e-11 0 0)
(-1.44038e-11 0 0)
(-1.46172e-11 0 0)
(-1.45934e-11 0 0)
(-1.53481e-11 0 0)
(-1.49466e-11 0 0)
(-1.5524e-11 0 0)
(-1.58687e-11 0 0)
(-1.64637e-11 0 0)
(-1.63247e-11 0 0)
(-1.66272e-11 0 0)
(-1.61696e-11 0 0)
(-1.64852e-11 0 0)
(-1.61896e-11 0 0)
(-1.73105e-11 0 0)
(-1.74587e-11 0 0)
(-1.80107e-11 0 0)
(-1.77036e-11 0 0)
(-1.84222e-11 0 0)
(-1.83009e-11 0 0)
(-1.90717e-11 0 0)
(-1.9193e-11 0 0)
(-1.9428e-11 0 0)
(-1.85865e-11 0 0)
(-1.86157e-11 0 0)
(-1.8446e-11 0 0)
(-1.92184e-11 0 0)
(-1.9041e-11 0 0)
(-1.92023e-11 0 0)
(-1.8238e-11 0 0)
(-1.78042e-11 0 0)
(-1.74073e-11 0 0)
(-1.72376e-11 0 0)
(-1.7213e-11 0 0)
(-1.72199e-11 0 0)
(-1.71132e-11 0 0)
(-1.72169e-11 0 0)
(-1.76061e-11 0 0)
(-1.86218e-11 0 0)
(-1.87823e-11 0 0)
(-1.88061e-11 0 0)
(-1.83032e-11 0 0)
(-1.78426e-11 0 0)
(-1.67593e-11 0 0)
(-1.62932e-11 0 0)
(-1.55362e-11 0 0)
(-1.52952e-11 0 0)
(-1.35232e-11 0 0)
(-1.25719e-11 0 0)
(-1.1557e-11 0 0)
(-1.15854e-11 0 0)
(-1.08698e-11 0 0)
(-1.14142e-11 0 0)
(-1.06134e-11 0 0)
(-1.05543e-11 0 0)
(-1.01382e-11 0 0)
(-1.07915e-11 0 0)
(-1.06533e-11 0 0)
(-1.11885e-11 0 0)
(-1.09336e-11 0 0)
(-1.15662e-11 0 0)
(-1.15639e-11 0 0)
(-1.2023e-11 0 0)
(-1.2023e-11 0 0)
(-1.25313e-11 0 0)
(-1.26549e-11 0 0)
(-1.30679e-11 0 0)
(-1.27585e-11 0 0)
(-1.3051e-11 0 0)
(-1.30718e-11 0 0)
(-1.3805e-11 0 0)
(-1.36192e-11 0 0)
(-1.45796e-11 0 0)
(-1.43017e-11 0 0)
(-1.50595e-11 0 0)
(-1.5527e-11 0 0)
(-1.66549e-11 0 0)
(-1.68975e-11 0 0)
(-1.72276e-11 0 0)
(-1.72245e-11 0 0)
(-1.79431e-11 0 0)
(-1.78472e-11 0 0)
(-1.78479e-11 0 0)
(-1.79646e-11 0 0)
(-1.73658e-11 0 0)
(-1.78863e-11 0 0)
(-1.75608e-11 0 0)
(-1.86671e-11 0 0)
(-1.86756e-11 0 0)
(-1.95101e-11 0 0)
(-1.97074e-11 0 0)
(-2.05735e-11 0 0)
(-2.00069e-11 0 0)
(-2.04637e-11 0 0)
(-2.07539e-11 0 0)
(-2.08652e-11 0 0)
(-2.04161e-11 0 0)
(-2.14595e-11 0 0)
(-2.04629e-11 0 0)
(-2.06694e-11 0 0)
(-1.94134e-11 0 0)
(-1.96061e-11 0 0)
(-1.90103e-11 0 0)
(-1.9246e-11 0 0)
(-1.75393e-11 0 0)
(-1.72314e-11 0 0)
(-1.55109e-11 0 0)
(-1.54126e-11 0 0)
(-1.37059e-11 0 0)
(-1.48169e-11 0 0)
(-1.34902e-11 0 0)
(-1.37528e-11 0 0)
(-1.2162e-11 0 0)
(-1.23401e-11 0 0)
(-1.19877e-11 0 0)
(-1.22648e-11 0 0)
(-1.19631e-11 0 0)
(-1.24591e-11 0 0)
(-1.12453e-11 0 0)
(-1.18242e-11 0 0)
(-1.16652e-11 0 0)
(-1.30157e-11 0 0)
(-1.28199e-11 0 0)
(-1.45589e-11 0 0)
(-1.52506e-11 0 0)
(-1.70257e-11 0 0)
(-1.69282e-11 0 0)
(-1.76552e-11 0 0)
(-1.74472e-11 0 0)
(-1.84668e-11 0 0)
(-1.78464e-11 0 0)
(-1.86003e-11 0 0)
(-1.87539e-11 0 0)
(-1.94357e-11 0 0)
(-1.90679e-11 0 0)
(-2.00468e-11 0 0)
(-1.96476e-11 0 0)
(-2.00099e-11 0 0)
(-1.9127e-11 0 0)
(-1.87316e-11 0 0)
(-1.80314e-11 0 0)
(-1.75646e-11 0 0)
(-1.61021e-11 0 0)
(-1.55432e-11 0 0)
(-1.4486e-11 0 0)
(-1.36176e-11 0 0)
(-1.25835e-11 0 0)
(-1.23731e-11 0 0)
(-1.17712e-11 0 0)
(-1.15293e-11 0 0)
(-1.05006e-11 0 0)
(-1.07816e-11 0 0)
(-9.4019e-12 0 0)
(-1.02165e-11 0 0)
(-9.58386e-12 0 0)
(-1.06457e-11 0 0)
(-1.06748e-11 0 0)
(-1.06787e-11 0 0)
(-1.01965e-11 0 0)
(-1.04545e-11 0 0)
(-1.041e-11 0 0)
(-1.0932e-11 0 0)
(-1.14963e-11 0 0)
(-1.22933e-11 0 0)
(-1.30625e-11 0 0)
(-1.3223e-11 0 0)
(-1.33412e-11 0 0)
(-1.30518e-11 0 0)
(-1.37044e-11 0 0)
(-1.3732e-11 0 0)
(-1.50825e-11 0 0)
(-1.55562e-11 0 0)
(-1.67977e-11 0 0)
(-1.6975e-11 0 0)
(-1.70341e-11 0 0)
(-1.63501e-11 0 0)
(-1.66671e-11 0 0)
(-1.57635e-11 0 0)
(-1.56038e-11 0 0)
(-1.49781e-11 0 0)
(-1.56906e-11 0 0)
(-1.58718e-11 0 0)
(-1.62418e-11 0 0)
(-1.60821e-11 0 0)
(-1.57466e-11 0 0)
(-1.55032e-11 0 0)
(-1.57082e-11 0 0)
(-1.51524e-11 0 0)
(-1.5798e-11 0 0)
(-1.56668e-11 0 0)
(-1.69205e-11 0 0)
(-1.6218e-11 0 0)
(-1.66625e-11 0 0)
(-1.73481e-11 0 0)
(-1.7322e-11 0 0)
(-1.78249e-11 0 0)
(-1.79263e-11 0 0)
(-1.77812e-11 0 0)
(-1.77435e-11 0 0)
(-1.79869e-11 0 0)
(-1.77558e-11 0 0)
(-1.7385e-11 0 0)
(-1.8033e-11 0 0)
(-1.74172e-11 0 0)
(-1.71762e-11 0 0)
(-1.64238e-11 0 0)
(-1.5805e-11 0 0)
(-1.49988e-11 0 0)
(-1.46449e-11 0 0)
(-1.35685e-11 0 0)
(-1.35217e-11 0 0)
(-1.27032e-11 0 0)
(-1.30349e-11 0 0)
(-1.31838e-11 0 0)
(-1.3256e-11 0 0)
(-1.31862e-11 0 0)
(-1.318e-11 0 0)
(-1.34334e-11 0 0)
(-1.30487e-11 0 0)
(-1.28798e-11 0 0)
(-1.22748e-11 0 0)
(-1.22126e-11 0 0)
(-1.16975e-11 0 0)
(-1.21888e-11 0 0)
(-1.18057e-11 0 0)
(-1.17505e-11 0 0)
(-1.09666e-11 0 0)
(-1.13673e-11 0 0)
(-1.10027e-11 0 0)
(-1.07017e-11 0 0)
(-9.60919e-12 0 0)
(-9.54009e-12 0 0)
(-9.06025e-12 0 0)
(-8.69941e-12 0 0)
(-8.47445e-12 0 0)
(-8.78463e-12 0 0)
(-8.74086e-12 0 0)
(-9.07637e-12 0 0)
(-9.41188e-12 0 0)
(-1.00368e-11 0 0)
(-9.9923e-12 0 0)
(-1.07846e-11 0 0)
(-1.08222e-11 0 0)
(-1.15094e-11 0 0)
(-1.10334e-11 0 0)
(-1.18794e-11 0 0)
(-1.1395e-11 0 0)
(-1.2205e-11 0 0)
(-1.16407e-11 0 0)
(-1.22533e-11 0 0)
(-1.19685e-11 0 0)
(-1.28614e-11 0 0)
(-1.2522e-11 0 0)
(-1.25243e-11 0 0)
(-1.27078e-11 0 0)
(-1.33497e-11 0 0)
(-1.40076e-11 0 0)
(-1.3828e-11 0 0)
(-1.32913e-11 0 0)
(-1.24529e-11 0 0)
(-1.23339e-11 0 0)
(-1.18172e-11 0 0)
(-1.21512e-11 0 0)
(-1.15409e-11 0 0)
(-1.19416e-11 0 0)
(-1.16215e-11 0 0)
(-1.20322e-11 0 0)
(-1.19455e-11 0 0)
(-1.30126e-11 0 0)
(-1.30871e-11 0 0)
(-1.33489e-11 0 0)
(-1.35055e-11 0 0)
(-1.33343e-11 0 0)
(-1.27754e-11 0 0)
(-1.29766e-11 0 0)
(-1.25896e-11 0 0)
(-1.24698e-11 0 0)
(-1.2129e-11 0 0)
(-1.23332e-11 0 0)
(-1.24437e-11 0 0)
(-1.2529e-11 0 0)
(-1.22249e-11 0 0)
(-1.27132e-11 0 0)
(-1.31178e-11 0 0)
(-1.35639e-11 0 0)
(-1.43762e-11 0 0)
(-1.46387e-11 0 0)
(-1.48844e-11 0 0)
(-1.51815e-11 0 0)
(-1.56629e-11 0 0)
(-1.55908e-11 0 0)
(-1.54119e-11 0 0)
(-1.62963e-11 0 0)
(-1.6271e-11 0 0)
(-1.63293e-11 0 0)
(-1.61351e-11 0 0)
(-1.53051e-11 0 0)
(-1.46679e-11 0 0)
(-1.43531e-11 0 0)
(-1.40668e-11 0 0)
(-1.37781e-11 0 0)
(-1.34518e-11 0 0)
(-1.26073e-11 0 0)
(-1.25481e-11 0 0)
(-1.26648e-11 0 0)
(-1.31877e-11 0 0)
(-1.37021e-11 0 0)
(-1.37028e-11 0 0)
(-1.35401e-11 0 0)
(-1.396e-11 0 0)
(-1.41512e-11 0 0)
(-1.47232e-11 0 0)
(-1.42441e-11 0 0)
(-1.4833e-11 0 0)
(-1.42426e-11 0 0)
(-1.45082e-11 0 0)
(-1.38948e-11 0 0)
(-1.46119e-11 0 0)
(-1.397e-11 0 0)
(-1.4823e-11 0 0)
(-1.40476e-11 0 0)
(-1.4975e-11 0 0)
(-1.45996e-11 0 0)
(-1.60875e-11 0 0)
(-1.52775e-11 0 0)
(-1.61466e-11 0 0)
(-1.54694e-11 0 0)
(-1.65013e-11 0 0)
(-1.53412e-11 0 0)
(-1.56883e-11 0 0)
(-1.40982e-11 0 0)
(-1.39654e-11 0 0)
(-1.36161e-11 0 0)
(-1.46687e-11 0 0)
(-1.40583e-11 0 0)
(-1.53297e-11 0 0)
(-1.42195e-11 0 0)
(-1.50971e-11 0 0)
(-1.44936e-11 0 0)
(-1.47908e-11 0 0)
(-1.41397e-11 0 0)
(-1.45865e-11 0 0)
(-1.42034e-11 0 0)
(-1.54326e-11 0 0)
(-1.41689e-11 0 0)
(-1.45251e-11 0 0)
(-1.34042e-11 0 0)
(-1.36023e-11 0 0)
(-1.30487e-11 0 0)
(-1.34541e-11 0 0)
(-1.32675e-11 0 0)
(-1.31585e-11 0 0)
(-1.24906e-11 0 0)
(-1.23178e-11 0 0)
(-1.20123e-11 0 0)
(-1.20023e-11 0 0)
(-1.16046e-11 0 0)
(-1.14572e-11 0 0)
(-1.09505e-11 0 0)
(-1.10641e-11 0 0)
(-9.8948e-12 0 0)
(-9.67829e-12 0 0)
(-9.06255e-12 0 0)
(-9.21917e-12 0 0)
(-8.84681e-12 0 0)
(-9.08789e-12 0 0)
(-8.07676e-12 0 0)
(-7.34509e-12 0 0)
(-6.63569e-12 0 0)
(-5.97004e-12 0 0)
(-5.48252e-12 0 0)
(-5.87254e-12 0 0)
(-6.10287e-12 0 0)
(-6.94893e-12 0 0)
(-7.92781e-12 0 0)
(-8.57887e-12 0 0)
(-9.5209e-12 0 0)
(-1.03002e-11 0 0)
(-1.02034e-11 0 0)
(-1.11723e-11 0 0)
(-1.1527e-11 0 0)
(-1.28706e-11 0 0)
(-1.30587e-11 0 0)
(-1.37973e-11 0 0)
(-1.38933e-11 0 0)
(-1.53597e-11 0 0)
(-1.5557e-11 0 0)
(-1.67186e-11 0 0)
(-1.77489e-11 0 0)
(-1.81451e-11 0 0)
(-1.83861e-11 0 0)
(-1.8952e-11 0 0)
(-1.92929e-11 0 0)
(-1.9223e-11 0 0)
(-1.8803e-11 0 0)
(-1.85074e-11 0 0)
(-1.8727e-11 0 0)
(-1.91984e-11 0 0)
(-1.84399e-11 0 0)
(-1.91923e-11 0 0)
(-1.86188e-11 0 0)
(-1.84145e-11 0 0)
(-1.75147e-11 0 0)
(-1.75393e-11 0 0)
(-1.73604e-11 0 0)
(-1.72115e-11 0 0)
(-1.66787e-11 0 0)
(-1.61819e-11 0 0)
(-1.54602e-11 0 0)
(-1.48537e-11 0 0)
(-1.43723e-11 0 0)
(-1.33566e-11 0 0)
(-1.29075e-11 0 0)
(-1.2337e-11 0 0)
(-1.20522e-11 0 0)
(-1.18986e-11 0 0)
(-1.19455e-11 0 0)
(-1.21029e-11 0 0)
(-1.24361e-11 0 0)
(-1.25013e-11 0 0)
(-1.28268e-11 0 0)
(-1.28483e-11 0 0)
(-1.32975e-11 0 0)
(-1.37259e-11 0 0)
(-1.43593e-11 0 0)
(-1.49274e-11 0 0)
(-1.52752e-11 0 0)
(-1.52138e-11 0 0)
(-1.57773e-11 0 0)
(-1.52813e-11 0 0)
(-1.5567e-11 0 0)
(-1.60952e-11 0 0)
(-1.62311e-11 0 0)
(-1.65704e-11 0 0)
(-1.6317e-11 0 0)
(-1.53758e-11 0 0)
(-1.51516e-11 0 0)
(-1.47063e-11 0 0)
(-1.51623e-11 0 0)
(-1.57113e-11 0 0)
(-1.54272e-11 0 0)
(-1.44637e-11 0 0)
(-1.40522e-11 0 0)
(-1.37098e-11 0 0)
(-1.36161e-11 0 0)
(-1.35608e-11 0 0)
(-1.29228e-11 0 0)
(-1.3028e-11 0 0)
(-1.30771e-11 0 0)
(-1.28637e-11 0 0)
(-1.28437e-11 0 0)
(-1.23362e-11 0 0)
(-1.26042e-11 0 0)
(-1.19286e-11 0 0)
(-1.19078e-11 0 0)
(-1.17888e-11 0 0)
(-1.15823e-11 0 0)
(-1.16284e-11 0 0)
(-1.1309e-11 0 0)
(-1.09842e-11 0 0)
(-1.04898e-11 0 0)
(-1.02257e-11 0 0)
(-9.77503e-12 0 0)
(-9.95622e-12 0 0)
(-9.30977e-12 0 0)
(-8.89058e-12 0 0)
(-7.69749e-12 0 0)
(-7.48712e-12 0 0)
(-7.80804e-12 0 0)
(-8.27177e-12 0 0)
(-8.69864e-12 0 0)
(-9.05104e-12 0 0)
(-9.0994e-12 0 0)
(-9.29365e-12 0 0)
(-9.73203e-12 0 0)
(-9.95622e-12 0 0)
(-1.04798e-11 0 0)
(-1.07194e-11 0 0)
(-1.11201e-11 0 0)
(-1.14579e-11 0 0)
(-1.12952e-11 0 0)
(-1.16967e-11 0 0)
(-1.08844e-11 0 0)
(-1.10986e-11 0 0)
(-1.11601e-11 0 0)
(-1.12737e-11 0 0)
(-1.14787e-11 0 0)
(-1.13543e-11 0 0)
(-1.20115e-11 0 0)
(-1.24967e-11 0 0)
(-1.2727e-11 0 0)
(-1.26134e-11 0 0)
(-1.27931e-11 0 0)
(-1.27247e-11 0 0)
(-1.2757e-11 0 0)
(-1.22027e-11 0 0)
(-1.27163e-11 0 0)
(-1.20906e-11 0 0)
(-1.27286e-11 0 0)
(-1.29174e-11 0 0)
(-1.32522e-11 0 0)
(-1.23508e-11 0 0)
(-1.20599e-11 0 0)
(-1.17689e-11 0 0)
(-1.23355e-11 0 0)
(-1.18357e-11 0 0)
(-1.20706e-11 0 0)
(-1.1494e-11 0 0)
(-1.1104e-11 0 0)
(-1.06057e-11 0 0)
(-1.1038e-11 0 0)
(-1.10349e-11 0 0)
(-1.10664e-11 0 0)
(-1.11869e-11 0 0)
(-1.18672e-11 0 0)
(-1.2033e-11 0 0)
(-1.17873e-11 0 0)
(-1.18265e-11 0 0)
(-1.22518e-11 0 0)
(-1.2132e-11 0 0)
(-1.26318e-11 0 0)
(-1.26879e-11 0 0)
(-1.31416e-11 0 0)
(-1.26418e-11 0 0)
(-1.28207e-11 0 0)
(-1.26441e-11 0 0)
(-1.29228e-11 0 0)
(-1.25704e-11 0 0)
(-1.317e-11 0 0)
(-1.30119e-11 0 0)
(-1.38748e-11 0 0)
(-1.40744e-11 0 0)
(-1.46426e-11 0 0)
(-1.41934e-11 0 0)
(-1.44921e-11 0 0)
(-1.40737e-11 0 0)
(-1.42364e-11 0 0)
(-1.46288e-11 0 0)
(-1.50856e-11 0 0)
(-1.62065e-11 0 0)
(-1.60729e-11 0 0)
(-1.56422e-11 0 0)
(-1.55831e-11 0 0)
(-1.43547e-11 0 0)
(-1.42441e-11 0 0)
(-1.43186e-11 0 0)
(-1.39593e-11 0 0)
(-1.27301e-11 0 0)
(-1.18733e-11 0 0)
(-1.14318e-11 0 0)
(-1.12545e-11 0 0)
(-1.12299e-11 0 0)
(-1.1762e-11 0 0)
(-1.16007e-11 0 0)
(-1.17067e-11 0 0)
(-1.14541e-11 0 0)
(-1.19731e-11 0 0)
(-1.23386e-11 0 0)
(-1.2542e-11 0 0)
(-1.27255e-11 0 0)
(-1.22602e-11 0 0)
(-1.26802e-11 0 0)
(-1.20238e-11 0 0)
(-1.22219e-11 0 0)
(-1.18265e-11 0 0)
(-1.23148e-11 0 0)
(-1.18434e-11 0 0)
(-1.21781e-11 0 0)
(-1.19232e-11 0 0)
(-1.28261e-11 0 0)
(-1.26779e-11 0 0)
(-1.35869e-11 0 0)
(-1.28576e-11 0 0)
(-1.28652e-11 0 0)
(-1.10925e-11 0 0)
(-1.07923e-11 0 0)
(-9.40958e-12 0 0)
(-9.31591e-12 0 0)
(-8.33242e-12 0 0)
(-8.65488e-12 0 0)
(-8.09288e-12 0 0)
(-8.22954e-12 0 0)
(-8.25488e-12 0 0)
(-8.82455e-12 0 0)
(-9.30593e-12 0 0)
(-9.61533e-12 0 0)
(-9.71745e-12 0 0)
(-9.69748e-12 0 0)
(-9.62455e-12 0 0)
(-9.45871e-12 0 0)
(-9.29057e-12 0 0)
(-8.82378e-12 0 0)
(-8.62417e-12 0 0)
(-9.43184e-12 0 0)
(-9.93856e-12 0 0)
(-9.56006e-12 0 0)
(-9.52781e-12 0 0)
(-1.02702e-11 0 0)
(-1.06387e-11 0 0)
(-1.15562e-11 0 0)
(-1.13259e-11 0 0)
(-1.13666e-11 0 0)
(-1.14986e-11 0 0)
(-1.21789e-11 0 0)
(-1.19562e-11 0 0)
(-1.32015e-11 0 0)
(-1.35355e-11 0 0)
(-1.44015e-11 0 0)
(-1.35432e-11 0 0)
(-1.38464e-11 0 0)
(-1.31961e-11 0 0)
(-1.41128e-11 0 0)
(-1.30817e-11 0 0)
(-1.31885e-11 0 0)
(-1.2367e-11 0 0)
(-1.28867e-11 0 0)
(-1.20138e-11 0 0)
(-1.13574e-11 0 0)
(-1.00376e-11 0 0)
(-9.84643e-12 0 0)
(-9.78961e-12 0 0)
(-9.41034e-12 0 0)
(-8.92589e-12 0 0)
(-8.04451e-12 0 0)
(-7.00958e-12 0 0)
(-6.31246e-12 0 0)
(-6.48367e-12 0 0)
(-5.83646e-12 0 0)
(-6.06294e-12 0 0)
(-6.35392e-12 0 0)
(-6.42609e-12 0 0)
(-6.42839e-12 0 0)
(-6.7616e-12 0 0)
(-7.39423e-12 0 0)
(-7.97081e-12 0 0)
(-8.70401e-12 0 0)
(-9.0495e-12 0 0)
(-9.05411e-12 0 0)
(-9.83952e-12 0 0)
(-1.06303e-11 0 0)
(-1.10073e-11 0 0)
(-1.17075e-11 0 0)
(-1.19378e-11 0 0)
(-1.29965e-11 0 0)
(-1.40683e-11 0 0)
(-1.48929e-11 0 0)
(-1.52967e-11 0 0)
(-1.52883e-11 0 0)
(-1.51554e-11 0 0)
(-1.59163e-11 0 0)
(-1.59063e-11 0 0)
(-1.55654e-11 0 0)
(-1.55869e-11 0 0)
(-1.54932e-11 0 0)
(-1.52445e-11 0 0)
(-1.5276e-11 0 0)
(-1.54295e-11 0 0)
(-1.61727e-11 0 0)
(-1.62111e-11 0 0)
(-1.66733e-11 0 0)
(-1.61305e-11 0 0)
(-1.59646e-11 0 0)
(-1.52729e-11 0 0)
(-1.46587e-11 0 0)
(-1.36299e-11 0 0)
(-1.40506e-11 0 0)
(-1.34748e-11 0 0)
(-1.39416e-11 0 0)
(-1.31171e-11 0 0)
(-1.28261e-11 0 0)
(-1.10472e-11 0 0)
(-1.15409e-11 0 0)
(-1.0522e-11 0 0)
(-1.16775e-11 0 0)
(-1.10211e-11 0 0)
(-1.16023e-11 0 0)
(-1.09228e-11 0 0)
(-1.13466e-11 0 0)
(-1.1114e-11 0 0)
(-1.16499e-11 0 0)
(-1.10656e-11 0 0)
(-1.19086e-11 0 0)
(-1.21712e-11 0 0)
(-1.30794e-11 0 0)
(-1.31009e-11 0 0)
(-1.40215e-11 0 0)
(-1.42648e-11 0 0)
(-1.45259e-11 0 0)
(-1.44061e-11 0 0)
(-1.39163e-11 0 0)
(-1.36322e-11 0 0)
(-1.37013e-11 0 0)
(-1.41405e-11 0 0)
(-1.35685e-11 0 0)
(-1.39247e-11 0 0)
(-1.37896e-11 0 0)
(-1.42963e-11 0 0)
(-1.38019e-11 0 0)
(-1.49443e-11 0 0)
(-1.43147e-11 0 0)
(-1.44906e-11 0 0)
(-1.36898e-11 0 0)
(-1.36468e-11 0 0)
(-1.25397e-11 0 0)
(-1.26495e-11 0 0)
(-1.2023e-11 0 0)
(-1.17412e-11 0 0)
(-9.86025e-12 0 0)
(-9.16927e-12 0 0)
(-8.20958e-12 0 0)
(-8.09518e-12 0 0)
(-7.38194e-12 0 0)
(-7.64835e-12 0 0)
(-7.28137e-12 0 0)
(-7.7282e-12 0 0)
(-7.05949e-12 0 0)
(-7.27062e-12 0 0)
(-6.81995e-12 0 0)
(-6.9305e-12 0 0)
(-6.26716e-12 0 0)
(-6.49519e-12 0 0)
(-5.58156e-12 0 0)
(-5.65834e-12 0 0)
(-5.10479e-12 0 0)
(-5.19385e-12 0 0)
(-5.16851e-12 0 0)
(-5.114e-12 0 0)
(-5.07024e-12 0 0)
(-5.46333e-12 0 0)
(-5.5117e-12 0 0)
(-5.34202e-12 0 0)
(-5.68674e-12 0 0)
(-5.81649e-12 0 0)
(-6.61035e-12 0 0)
(-7.02724e-12 0 0)
(-8.19729e-12 0 0)
(-8.85142e-12 0 0)
(-9.74278e-12 0 0)
(-9.51322e-12 0 0)
(-8.66332e-12 0 0)
(-8.11668e-12 0 0)
(-8.04144e-12 0 0)
(-8.45756e-12 0 0)
(-9.07714e-12 0 0)
(-9.8042e-12 0 0)
(-1.01973e-11 0 0)
(-1.12721e-11 0 0)
(-1.13021e-11 0 0)
(-1.18103e-11 0 0)
(-1.19109e-11 0 0)
(-1.20698e-11 0 0)
(-1.1967e-11 0 0)
(-1.24e-11 0 0)
(-1.31286e-11 0 0)
(-1.31332e-11 0 0)
(-1.32814e-11 0 0)
(-1.33566e-11 0 0)
(-1.32199e-11 0 0)
(-1.3557e-11 0 0)
(-1.31048e-11 0 0)
(-1.33489e-11 0 0)
(-1.33558e-11 0 0)
(-1.34833e-11 0 0)
(-1.33696e-11 0 0)
(-1.33911e-11 0 0)
(-1.35432e-11 0 0)
(-1.45435e-11 0 0)
(-1.50303e-11 0 0)
(-1.51693e-11 0 0)
(-1.4522e-11 0 0)
(-1.45197e-11 0 0)
(-1.45927e-11 0 0)
(-1.46963e-11 0 0)
(-1.37113e-11 0 0)
(-1.45673e-11 0 0)
(-1.37965e-11 0 0)
(-1.49236e-11 0 0)
(-1.53067e-11 0 0)
(-1.60614e-11 0 0)
(-1.55992e-11 0 0)
(-1.67032e-11 0 0)
(-1.5633e-11 0 0)
(-1.60982e-11 0 0)
(-1.53466e-11 0 0)
(-1.6509e-11 0 0)
(-1.62142e-11 0 0)
(-1.62971e-11 0 0)
(-1.56944e-11 0 0)
(-1.5286e-11 0 0)
(-1.34441e-11 0 0)
(-1.24146e-11 0 0)
(-1.1157e-11 0 0)
(-1.07531e-11 0 0)
(-9.75583e-12 0 0)
(-9.57541e-12 0 0)
(-8.24873e-12 0 0)
(-8.20267e-12 0 0)
(-7.23377e-12 0 0)
(-7.69595e-12 0 0)
(-7.11323e-12 0 0)
(-7.38117e-12 0 0)
(-6.51592e-12 0 0)
(-7.1186e-12 0 0)
(-7.00267e-12 0 0)
(-7.52705e-12 0 0)
(-7.66755e-12 0 0)
(-7.86486e-12 0 0)
(-8.28712e-12 0 0)
(-8.11054e-12 0 0)
(-8.32167e-12 0 0)
(-8.41073e-12 0 0)
(-9.13011e-12 0 0)
(-9.76274e-12 0 0)
(-1.03186e-11 0 0)
(-1.03063e-11 0 0)
(-1.06587e-11 0 0)
(-1.05766e-11 0 0)
(-1.07478e-11 0 0)
(-1.10088e-11 0 0)
(-1.1904e-11 0 0)
(-1.2119e-11 0 0)
(-1.28261e-11 0 0)
(-1.21865e-11 0 0)
(-1.26848e-11 0 0)
(-1.09021e-11 0 0)
(-1.07969e-11 0 0)
(-9.8495e-12 0 0)
(-1.06288e-11 0 0)
(-9.79499e-12 0 0)
(-9.77579e-12 0 0)
(-8.73549e-12 0 0)
(-8.50977e-12 0 0)
(-7.37043e-12 0 0)
(-7.54394e-12 0 0)
(-6.85373e-12 0 0)
(-7.3282e-12 0 0)
(-7.10862e-12 0 0)
(-7.60536e-12 0 0)
(-7.39576e-12 0 0)
(-8.11361e-12 0 0)
(-7.79269e-12 0 0)
(-8.20267e-12 0 0)
(-7.56083e-12 0 0)
(-8.95276e-12 0 0)
(-9.11629e-12 0 0)
(-1.04898e-11 0 0)
(-1.07002e-11 0 0)
(-1.16591e-11 0 0)
(-1.16706e-11 0 0)
(-1.2003e-11 0 0)
(-1.15601e-11 0 0)
(-1.25635e-11 0 0)
(-1.27685e-11 0 0)
(-1.33405e-11 0 0)
(-1.30249e-11 0 0)
(-1.27078e-11 0 0)
(-1.22387e-11 0 0)
(-1.20936e-11 0 0)
(-1.14449e-11 0 0)
(-1.11654e-11 0 0)
(-1.0714e-11 0 0)
(-1.01036e-11 0 0)
(-9.68827e-12 0 0)
(-8.9328e-12 0 0)
(-8.87138e-12 0 0)
(-9.2637e-12 0 0)
(-9.24835e-12 0 0)
(-8.98501e-12 0 0)
(-9.50324e-12 0 0)
(-9.78961e-12 0 0)
(-1.03032e-11 0 0)
(-1.04721e-11 0 0)
(-1.04476e-11 0 0)
(-1.078e-11 0 0)
(-9.89326e-12 0 0)
(-1.01673e-11 0 0)
(-9.89556e-12 0 0)
(-1.08322e-11 0 0)
(-1.0552e-11 0 0)
(-1.15309e-11 0 0)
(-1.16883e-11 0 0)
(-1.23347e-11 0 0)
(-1.15217e-11 0 0)
(-1.13842e-11 0 0)
(-1.07094e-11 0 0)
(-1.07163e-11 0 0)
(-1.05428e-11 0 0)
(-1.02925e-11 0 0)
(-9.90478e-12 0 0)
(-9.72052e-12 0 0)
(-9.61226e-12 0 0)
(-9.39192e-12 0 0)
(-8.60344e-12 0 0)
(-7.58847e-12 0 0)
(-7.04797e-12 0 0)
(-5.87791e-12 0 0)
(-5.33511e-12 0 0)
(-4.68022e-12 0 0)
(-4.88828e-12 0 0)
(-4.79154e-12 0 0)
(-4.95891e-12 0 0)
(-5.69826e-12 0 0)
(-5.68905e-12 0 0)
(-6.6664e-12 0 0)
(-6.30555e-12 0 0)
(-6.83146e-12 0 0)
(-6.26793e-12 0 0)
(-7.26831e-12 0 0)
(-7.11476e-12 0 0)
(-7.35123e-12 0 0)
(-6.80229e-12 0 0)
(-7.20306e-12 0 0)
(-7.05258e-12 0 0)
(-7.61073e-12 0 0)
(-7.32897e-12 0 0)
(-7.93703e-12 0 0)
(-7.3543e-12 0 0)
(-8.24643e-12 0 0)
(-8.25641e-12 0 0)
(-9.01956e-12 0 0)
(-8.91284e-12 0 0)
(-9.80036e-12 0 0)
(-1.00184e-11 0 0)
(-1.08069e-11 0 0)
(-1.04483e-11 0 0)
(-1.079e-11 0 0)
(-1.12629e-11 0 0)
(-1.11716e-11 0 0)
(-1.15363e-11 0 0)
(-1.16069e-11 0 0)
(-1.21182e-11 0 0)
(-1.22288e-11 0 0)
(-1.19132e-11 0 0)
(-1.15071e-11 0 0)
(-1.12606e-11 0 0)
(-1.07885e-11 0 0)
(-1.03739e-11 0 0)
(-1.00967e-11 0 0)
(-9.8756e-12 0 0)
(-9.86255e-12 0 0)
(-9.3543e-12 0 0)
(-8.56658e-12 0 0)
(-7.93933e-12 0 0)
(-7.45027e-12 0 0)
(-6.81611e-12 0 0)
(-6.25411e-12 0 0)
(-5.95469e-12 0 0)
(-5.83722e-12 0 0)
(-6.08367e-12 0 0)
(-6.09903e-12 0 0)
(-6.61112e-12 0 0)
(-6.45987e-12 0 0)
(-7.13242e-12 0 0)
(-6.90977e-12 0 0)
(-6.84912e-12 0 0)
(-6.34548e-12 0 0)
(-6.36544e-12 0 0)
(-6.48214e-12 0 0)
(-7.08636e-12 0 0)
(-7.40651e-12 0 0)
(-7.75277e-12 0 0)
(-7.76812e-12 0 0)
(-8.85142e-12 0 0)
(-9.39115e-12 0 0)
(-1.03915e-11 0 0)
(-1.01681e-11 0 0)
(-1.05712e-11 0 0)
(-9.91553e-12 0 0)
(-9.91399e-12 0 0)
(-9.51246e-12 0 0)
(-9.46562e-12 0 0)
(-8.71553e-12 0 0)
(-8.83607e-12 0 0)
(-7.80037e-12 0 0)
(-8.13664e-12 0 0)
(-6.99576e-12 0 0)
(-7.2591e-12 0 0)
(-6.68636e-12 0 0)
(-6.76774e-12 0 0)
(-6.25565e-12 0 0)
(-6.552e-12 0 0)
(-5.23991e-12 0 0)
(-5.73895e-12 0 0)
(-4.13895e-12 0 0)
(-4.53051e-12 0 0)
(-3.3451e-12 0 0)
(-3.86333e-12 0 0)
(-2.97734e-12 0 0)
(-3.90325e-12 0 0)
(-3.78195e-12 0 0)
(-4.80997e-12 0 0)
(-4.67485e-12 0 0)
(-5.85642e-12 0 0)
(-5.74049e-12 0 0)
(-6.35162e-12 0 0)
(-6.30325e-12 0 0)
(-7.17311e-12 0 0)
(-6.93895e-12 0 0)
(-7.80728e-12 0 0)
(-7.9401e-12 0 0)
(-8.62877e-12 0 0)
(-8.35852e-12 0 0)
(-8.64336e-12 0 0)
(-8.23568e-12 0 0)
(-8.00459e-12 0 0)
(-8.3923e-12 0 0)
(-8.2211e-12 0 0)
(-8.26409e-12 0 0)
(-7.92781e-12 0 0)
(-7.97465e-12 0 0)
(-7.62916e-12 0 0)
(-7.85565e-12 0 0)
(-7.60996e-12 0 0)
(-7.99154e-12 0 0)
(-7.60305e-12 0 0)
(-7.51476e-12 0 0)
(-7.52167e-12 0 0)
(-7.51553e-12 0 0)
(-7.37273e-12 0 0)
(-6.90286e-12 0 0)
(-6.57734e-12 0 0)
(-6.09672e-12 0 0)
(-5.33127e-12 0 0)
(-4.8069e-12 0 0)
(-4.09442e-12 0 0)
(-3.92705e-12 0 0)
(-3.76122e-12 0 0)
(-3.13473e-12 0 0)
(-3.14932e-12 0 0)
(-3.28828e-12 0 0)
(-3.98157e-12 0 0)
(-3.60076e-12 0 0)
(-4.13051e-12 0 0)
(-3.76506e-12 0 0)
(-4.43684e-12 0 0)
(-4.4092e-12 0 0)
(-5.36198e-12 0 0)
(-5.39269e-12 0 0)
(-5.89864e-12 0 0)
(-6.0092e-12 0 0)
(-7.00881e-12 0 0)
(-6.32935e-12 0 0)
(-6.60037e-12 0 0)
(-6.69787e-12 0 0)
(-7.23069e-12 0 0)
(-6.71323e-12 0 0)
(-7.6806e-12 0 0)
(-6.98041e-12 0 0)
(-7.49173e-12 0 0)
(-7.12167e-12 0 0)
(-7.78655e-12 0 0)
(-8.28328e-12 0 0)
(-9.10862e-12 0 0)
(-9.36044e-12 0 0)
(-1.03201e-11 0 0)
(-9.83568e-12 0 0)
(-1.12675e-11 0 0)
(-1.06633e-11 0 0)
(-1.12652e-11 0 0)
(-1.04192e-11 0 0)
(-1.13159e-11 0 0)
(-1.0843e-11 0 0)
(-1.17098e-11 0 0)
(-1.0767e-11 0 0)
(-1.10625e-11 0 0)
(-1.04238e-11 0 0)
(-1.0565e-11 0 0)
(-9.78424e-12 0 0)
(-9.75046e-12 0 0)
(-9.63606e-12 0 0)
(-9.828e-12 0 0)
(-9.42416e-12 0 0)
(-8.60881e-12 0 0)
(-8.24336e-12 0 0)
(-8.06371e-12 0 0)
(-8.56812e-12 0 0)
(-8.39461e-12 0 0)
(-8.5758e-12 0 0)
(-8.30939e-12 0 0)
(-8.15507e-12 0 0)
(-7.79115e-12 0 0)
(-7.60229e-12 0 0)
(-7.49634e-12 0 0)
(-7.8234e-12 0 0)
(-7.65756e-12 0 0)
(-8.03914e-12 0 0)
(-7.01112e-12 0 0)
(-7.00267e-12 0 0)
(-5.28828e-12 0 0)
(-4.9474e-12 0 0)
(-3.80345e-12 0 0)
(-3.90402e-12 0 0)
(-3.1309e-12 0 0)
(-3.47331e-12 0 0)
(-2.28483e-12 0 0)
(-2.26257e-12 0 0)
(-1.59155e-12 0 0)
(-1.86794e-12 0 0)
(-1.84414e-12 0 0)
(-2.09289e-12 0 0)
(-2.01305e-12 0 0)
(-2.56813e-12 0 0)
(-2.69174e-12 0 0)
(-2.99731e-12 0 0)
(-3.03186e-12 0 0)
(-2.65028e-12 0 0)
(-2.70863e-12 0 0)
(-2.62418e-12 0 0)
(-2.71477e-12 0 0)
(-2.75546e-12 0 0)
(-3.49481e-12 0 0)
(-3.89865e-12 0 0)
(-4.8998e-12 0 0)
(-5.72283e-12 0 0)
(-5.83108e-12 0 0)
(-6.34931e-12 0 0)
(-6.64183e-12 0 0)
(-7.21918e-12 0 0)
(-7.4733e-12 0 0)
(-7.69902e-12 0 0)