/*--------------------------------*- C++ -*----------------------------------*\
  =========                 |
  \\      /  F ield         | OpenFOAM: The Open Source CFD Toolbox
   \\    /   O peration     | Website:  https://openfoam.org
    \\  /    A nd           | Version:  9
     \\/     M anipulation  |
\*---------------------------------------------------------------------------*/
FoamFile
{
    format      ascii;
    class       volVectorField;
    location    "0.008";
    object      U_0;
}
// * * * * * * * * * * * * * * * * * * * * * * * * * * * * * * * * * * * * * //

dimensions      [0 1 -1 0 0 0 0];

internalField   nonuniform List<vector> 
10000
(
(-9.26677e-12 0 0)
(-8.49749e-12 0 0)
(-7.94317e-12 0 0)
(-6.87139e-12 0 0)
(-6.56198e-12 0 0)
(-6.51592e-12 0 0)
(-6.43146e-12 0 0)
(-6.19346e-12 0 0)
(-7.03031e-12 0 0)
(-7.01572e-12 0 0)
(-7.3067e-12 0 0)
(-7.77426e-12 0 0)
(-8.64413e-12 0 0)
(-8.74163e-12 0 0)
(-9.16466e-12 0 0)
(-9.22071e-12 0 0)
(-9.9209e-12 0 0)
(-9.59998e-12 0 0)
(-1.05205e-11 0 0)
(-1.06641e-11 0 0)
(-1.0886e-11 0 0)
(-1.0433e-11 0 0)
(-1.02587e-11 0 0)
(-9.73817e-12 0 0)
(-9.35046e-12 0 0)
(-9.81956e-12 0 0)
(-1.06027e-11 0 0)
(-1.07178e-11 0 0)
(-1.05673e-11 0 0)
(-1.04921e-11 0 0)
(-1.00207e-11 0 0)
(-9.62224e-12 0 0)
(-9.05564e-12 0 0)
(-8.92436e-12 0 0)
(-8.29173e-12 0 0)
(-7.81112e-12 0 0)
(-7.26985e-12 0 0)
(-7.00728e-12 0 0)
(-6.31553e-12 0 0)
(-5.83031e-12 0 0)
(-5.83185e-12 0 0)
(-5.47024e-12 0 0)
(-5.40114e-12 0 0)
(-5.62072e-12 0 0)
(-6.19346e-12 0 0)
(-5.5639e-12 0 0)
(-6.17043e-12 0 0)
(-5.95085e-12 0 0)
(-6.82609e-12 0 0)
(-6.64183e-12 0 0)
(-7.55238e-12 0 0)
(-7.70593e-12 0 0)
(-9.17925e-12 0 0)
(-9.00651e-12 0 0)
(-1.01343e-11 0 0)
(-1.0053e-11 0 0)
(-1.07378e-11 0 0)
(-1.06556e-11 0 0)
(-1.11524e-11 0 0)
(-1.13773e-11 0 0)
(-1.17059e-11 0 0)
(-1.14011e-11 0 0)
(-1.11401e-11 0 0)
(-1.06434e-11 0 0)
(-1.10572e-11 0 0)
(-1.05604e-11 0 0)
(-1.07078e-11 0 0)
(-1.02157e-11 0 0)
(-1.06572e-11 0 0)
(-1.04437e-11 0 0)
(-1.05105e-11 0 0)
(-9.68366e-12 0 0)
(-9.66908e-12 0 0)
(-9.10171e-12 0 0)
(-9.36889e-12 0 0)
(-9.74278e-12 0 0)
(-1.04837e-11 0 0)
(-1.02526e-11 0 0)
(-1.11332e-11 0 0)
(-1.11478e-11 0 0)
(-1.12967e-11 0 0)
(-1.14871e-11 0 0)
(-1.14418e-11 0 0)
(-1.10464e-11 0 0)
(-1.16645e-11 0 0)
(-1.24169e-11 0 0)
(-1.31785e-11 0 0)
(-1.32261e-11 0 0)
(-1.36537e-11 0 0)
(-1.3448e-11 0 0)
(-1.39117e-11 0 0)
(-1.31808e-11 0 0)
(-1.33558e-11 0 0)
(-1.34057e-11 0 0)
(-1.42218e-11 0 0)
(-1.40268e-11 0 0)
(-1.48069e-11 0 0)
(-1.5051e-11 0 0)
(-1.52007e-11 0 0)
(-1.50526e-11 0 0)
(-1.50395e-11 0 0)
(-1.47885e-11 0 0)
(-1.42042e-11 0 0)
(-1.43869e-11 0 0)
(-1.33719e-11 0 0)
(-1.30349e-11 0 0)
(-1.22403e-11 0 0)
(-1.23055e-11 0 0)
(-1.15347e-11 0 0)
(-1.10165e-11 0 0)
(-1.10149e-11 0 0)
(-1.13021e-11 0 0)
(-1.09397e-11 0 0)
(-1.13021e-11 0 0)
(-1.08061e-11 0 0)
(-1.14887e-11 0 0)
(-1.09604e-11 0 0)
(-1.13159e-11 0 0)
(-1.12023e-11 0 0)
(-1.16107e-11 0 0)
(-1.08837e-11 0 0)
(-1.13029e-11 0 0)
(-1.06311e-11 0 0)
(-9.87253e-12 0 0)
(-8.56966e-12 0 0)
(-8.0376e-12 0 0)
(-7.76659e-12 0 0)
(-7.97849e-12 0 0)
(-8.14969e-12 0 0)
(-7.45027e-12 0 0)
(-7.58386e-12 0 0)
(-7.64451e-12 0 0)
(-7.84106e-12 0 0)
(-8.56889e-12 0 0)
(-8.64566e-12 0 0)
(-9.22685e-12 0 0)
(-9.56389e-12 0 0)
(-1.05489e-11 0 0)
(-1.05151e-11 0 0)
(-1.13612e-11 0 0)
(-1.12345e-11 0 0)
(-1.18994e-11 0 0)
(-1.17213e-11 0 0)
(-1.19961e-11 0 0)
(-1.22748e-11 0 0)
(-1.2003e-11 0 0)
(-1.15831e-11 0 0)
(-1.13297e-11 0 0)
(-1.08199e-11 0 0)
(-1.18034e-11 0 0)
(-1.18441e-11 0 0)
(-1.24284e-11 0 0)
(-1.20775e-11 0 0)
(-1.24422e-11 0 0)
(-1.24775e-11 0 0)
(-1.25528e-11 0 0)
(-1.25451e-11 0 0)
(-1.26042e-11 0 0)
(-1.26249e-11 0 0)
(-1.27424e-11 0 0)
(-1.30303e-11 0 0)
(-1.29781e-11 0 0)
(-1.27071e-11 0 0)
(-1.36675e-11 0 0)
(-1.3084e-11 0 0)
(-1.26395e-11 0 0)
(-1.14288e-11 0 0)
(-1.14526e-11 0 0)
(-1.04837e-11 0 0)
(-1.05727e-11 0 0)
(-8.84681e-12 0 0)
(-9.45948e-12 0 0)
(-7.97158e-12 0 0)
(-8.75545e-12 0 0)
(-7.40574e-12 0 0)
(-7.65603e-12 0 0)
(-6.96198e-12 0 0)
(-7.63146e-12 0 0)
(-6.5781e-12 0 0)
(-7.45795e-12 0 0)
(-6.45219e-12 0 0)
(-7.46179e-12 0 0)
(-6.68789e-12 0 0)
(-7.24835e-12 0 0)
(-6.79538e-12 0 0)
(-7.57465e-12 0 0)
(-6.39538e-12 0 0)
(-6.56352e-12 0 0)
(-6.05219e-12 0 0)
(-6.03684e-12 0 0)
(-5.79807e-12 0 0)
(-6.94663e-12 0 0)
(-7.00728e-12 0 0)
(-7.59384e-12 0 0)
(-7.74202e-12 0 0)
(-8.18348e-12 0 0)
(-8.35315e-12 0 0)
(-9.13088e-12 0 0)
(-8.8829e-12 0 0)
(-9.78578e-12 0 0)
(-9.45718e-12 0 0)
(-1.05251e-11 0 0)
(-1.0294e-11 0 0)
(-1.09313e-11 0 0)
(-1.09904e-11 0 0)
(-1.26257e-11 0 0)
(-1.28376e-11 0 0)
(-1.41566e-11 0 0)
(-1.41443e-11 0 0)
(-1.50771e-11 0 0)
(-1.48545e-11 0 0)
(-1.53742e-11 0 0)
(-1.57927e-11 0 0)
(-1.66748e-11 0 0)
(-1.66349e-11 0 0)
(-1.76645e-11 0 0)
(-1.70764e-11 0 0)
(-1.73013e-11 0 0)
(-1.72468e-11 0 0)
(-1.76491e-11 0 0)
(-1.66833e-11 0 0)
(-1.67163e-11 0 0)
(-1.66671e-11 0 0)
(-1.68598e-11 0 0)
(-1.59662e-11 0 0)
(-1.65082e-11 0 0)
(-1.56813e-11 0 0)
(-1.58833e-11 0 0)
(-1.53858e-11 0 0)
(-1.46756e-11 0 0)
(-1.40384e-11 0 0)
(-1.40599e-11 0 0)
(-1.34948e-11 0 0)
(-1.35324e-11 0 0)
(-1.28775e-11 0 0)
(-1.2833e-11 0 0)
(-1.23854e-11 0 0)
(-1.21428e-11 0 0)
(-1.20691e-11 0 0)
(-1.24184e-11 0 0)
(-1.28583e-11 0 0)
(-1.3484e-11 0 0)
(-1.41673e-11 0 0)
(-1.36583e-11 0 0)
(-1.38848e-11 0 0)
(-1.35708e-11 0 0)
(-1.37497e-11 0 0)
(-1.43293e-11 0 0)
(-1.517e-11 0 0)
(-1.44844e-11 0 0)
(-1.4367e-11 0 0)
(-1.34334e-11 0 0)
(-1.3223e-11 0 0)
(-1.26948e-11 0 0)
(-1.29474e-11 0 0)
(-1.23647e-11 0 0)
(-1.19086e-11 0 0)
(-1.17643e-11 0 0)
(-1.18472e-11 0 0)
(-1.1785e-11 0 0)
(-1.2162e-11 0 0)
(-1.22933e-11 0 0)
(-1.17873e-11 0 0)
(-1.15462e-11 0 0)
(-1.17505e-11 0 0)
(-1.19746e-11 0 0)
(-1.20537e-11 0 0)
(-1.21466e-11 0 0)
(-1.28291e-11 0 0)
(-1.33005e-11 0 0)
(-1.38195e-11 0 0)
(-1.31124e-11 0 0)
(-1.28384e-11 0 0)
(-1.30242e-11 0 0)
(-1.37643e-11 0 0)
(-1.47355e-11 0 0)
(-1.57858e-11 0 0)
(-1.61658e-11 0 0)
(-1.56276e-11 0 0)
(-1.54833e-11 0 0)
(-1.60721e-11 0 0)
(-1.55132e-11 0 0)
(-1.55186e-11 0 0)
(-1.59969e-11 0 0)
(-1.58671e-11 0 0)
(-1.56529e-11 0 0)
(-1.517e-11 0 0)
(-1.43278e-11 0 0)
(-1.41773e-11 0 0)
(-1.37766e-11 0 0)
(-1.39409e-11 0 0)
(-1.33466e-11 0 0)
(-1.39685e-11 0 0)
(-1.28752e-11 0 0)
(-1.31148e-11 0 0)
(-1.22817e-11 0 0)
(-1.14618e-11 0 0)
(-1.00952e-11 0 0)
(-9.62378e-12 0 0)
(-9.15161e-12 0 0)
(-9.23606e-12 0 0)
(-8.20113e-12 0 0)
(-7.92551e-12 0 0)
(-6.95507e-12 0 0)
(-7.53396e-12 0 0)
(-7.57158e-12 0 0)
(-7.87484e-12 0 0)
(-7.19077e-12 0 0)
(-7.9401e-12 0 0)
(-7.49941e-12 0 0)
(-8.30094e-12 0 0)
(-8.07983e-12 0 0)
(-9.38885e-12 0 0)
(-9.43645e-12 0 0)
(-9.83875e-12 0 0)
(-9.22455e-12 0 0)
(-9.81265e-12 0 0)
(-8.8591e-12 0 0)
(-9.26985e-12 0 0)
(-8.98578e-12 0 0)
(-9.5877e-12 0 0)
(-9.61841e-12 0 0)
(-1.07677e-11 0 0)
(-1.08729e-11 0 0)
(-1.18372e-11 0 0)
(-1.16437e-11 0 0)
(-1.198e-11 0 0)
(-1.17244e-11 0 0)
(-1.25313e-11 0 0)
(-1.19247e-11 0 0)
(-1.25236e-11 0 0)
(-1.2172e-11 0 0)
(-1.25643e-11 0 0)
(-1.18541e-11 0 0)
(-1.20192e-11 0 0)
(-1.18457e-11 0 0)
(-1.25174e-11 0 0)
(-1.20414e-11 0 0)
(-1.23616e-11 0 0)
(-1.16506e-11 0 0)
(-1.15293e-11 0 0)
(-1.19178e-11 0 0)
(-1.18971e-11 0 0)
(-1.18718e-11 0 0)
(-1.15501e-11 0 0)
(-1.12299e-11 0 0)
(-1.09159e-11 0 0)
(-1.06057e-11 0 0)
(-9.99384e-12 0 0)
(-9.88021e-12 0 0)
(-9.67292e-12 0 0)
(-1.00115e-11 0 0)
(-1.02526e-11 0 0)
(-1.03631e-11 0 0)
(-1.0413e-11 0 0)
(-1.12253e-11 0 0)
(-1.10364e-11 0 0)
(-1.13973e-11 0 0)
(-1.17911e-11 0 0)
(-1.31132e-11 0 0)
(-1.33489e-11 0 0)
(-1.35217e-11 0 0)
(-1.36867e-11 0 0)
(-1.40345e-11 0 0)
(-1.31608e-11 0 0)
(-1.29735e-11 0 0)
(-1.27347e-11 0 0)
(-1.26142e-11 0 0)
(-1.2509e-11 0 0)
(-1.25205e-11 0 0)
(-1.22119e-11 0 0)
(-1.21428e-11 0 0)
(-1.18687e-11 0 0)
(-1.14019e-11 0 0)
(-1.15908e-11 0 0)
(-1.1322e-11 0 0)
(-1.16169e-11 0 0)
(-1.1405e-11 0 0)
(-1.14011e-11 0 0)
(-1.1362e-11 0 0)
(-1.10487e-11 0 0)
(-1.13996e-11 0 0)
(-1.13704e-11 0 0)
(-1.24376e-11 0 0)
(-1.23839e-11 0 0)
(-1.2575e-11 0 0)
(-1.19432e-11 0 0)
(-1.25735e-11 0 0)
(-1.20414e-11 0 0)
(-1.31808e-11 0 0)
(-1.2767e-11 0 0)
(-1.33842e-11 0 0)
(-1.26526e-11 0 0)
(-1.34579e-11 0 0)
(-1.37028e-11 0 0)
(-1.45934e-11 0 0)
(-1.42779e-11 0 0)
(-1.39071e-11 0 0)
(-1.31186e-11 0 0)
(-1.35324e-11 0 0)
(-1.40146e-11 0 0)
(-1.48829e-11 0 0)
(-1.57243e-11 0 0)
(-1.57789e-11 0 0)
(-1.599e-11 0 0)
(-1.61942e-11 0 0)
(-1.68737e-11 0 0)
(-1.68276e-11 0 0)
(-1.6175e-11 0 0)
(-1.59424e-11 0 0)
(-1.56929e-11 0 0)
(-1.53282e-11 0 0)
(-1.51739e-11 0 0)
(-1.49013e-11 0 0)
(-1.48622e-11 0 0)
(-1.50848e-11 0 0)
(-1.55347e-11 0 0)
(-1.62848e-11 0 0)
(-1.64061e-11 0 0)
(-1.5623e-11 0 0)
(-1.55055e-11 0 0)
(-1.58311e-11 0 0)
(-1.61098e-11 0 0)
(-1.60015e-11 0 0)
(-1.56291e-11 0 0)
(-1.58856e-11 0 0)
(-1.53389e-11 0 0)
(-1.53581e-11 0 0)
(-1.47339e-11 0 0)
(-1.50656e-11 0 0)
(-1.46909e-11 0 0)
(-1.47171e-11 0 0)
(-1.44092e-11 0 0)
(-1.44253e-11 0 0)
(-1.44123e-11 0 0)
(-1.46088e-11 0 0)
(-1.46656e-11 0 0)
(-1.52468e-11 0 0)
(-1.48806e-11 0 0)
(-1.56913e-11 0 0)
(-1.59562e-11 0 0)
(-1.66541e-11 0 0)
(-1.65366e-11 0 0)
(-1.67217e-11 0 0)
(-1.64545e-11 0 0)
(-1.69812e-11 0 0)
(-1.6575e-11 0 0)
(-1.74787e-11 0 0)
(-1.7504e-11 0 0)
(-1.82073e-11 0 0)
(-1.79293e-11 0 0)
(-1.84729e-11 0 0)
(-1.82856e-11 0 0)
(-1.91155e-11 0 0)
(-1.92975e-11 0 0)
(-1.94871e-11 0 0)
(-1.85128e-11 0 0)
(-1.85635e-11 0 0)
(-1.84453e-11 0 0)
(-1.92261e-11 0 0)
(-1.90802e-11 0 0)
(-1.92898e-11 0 0)
(-1.83762e-11 0 0)
(-1.77681e-11 0 0)
(-1.7246e-11 0 0)
(-1.71424e-11 0 0)
(-1.72268e-11 0 0)
(-1.75117e-11 0 0)
(-1.72959e-11 0 0)
(-1.71055e-11 0 0)
(-1.73788e-11 0 0)
(-1.82879e-11 0 0)
(-1.84545e-11 0 0)
(-1.86403e-11 0 0)
(-1.81374e-11 0 0)
(-1.7762e-11 0 0)
(-1.68245e-11 0 0)
(-1.63432e-11 0 0)
(-1.54932e-11 0 0)
(-1.52468e-11 0 0)
(-1.34871e-11 0 0)
(-1.26863e-11 0 0)
(-1.1709e-11 0 0)
(-1.14894e-11 0 0)
(-1.07892e-11 0 0)
(-1.1408e-11 0 0)
(-1.05627e-11 0 0)
(-1.0575e-11 0 0)
(-1.01589e-11 0 0)
(-1.06096e-11 0 0)
(-1.0499e-11 0 0)
(-1.11746e-11 0 0)
(-1.09052e-11 0 0)
(-1.13681e-11 0 0)
(-1.14188e-11 0 0)
(-1.19063e-11 0 0)
(-1.19347e-11 0 0)
(-1.27577e-11 0 0)
(-1.29036e-11 0 0)
(-1.31554e-11 0 0)
(-1.29489e-11 0 0)
(-1.32537e-11 0 0)
(-1.3041e-11 0 0)
(-1.36015e-11 0 0)
(-1.35393e-11 0 0)
(-1.45865e-11 0 0)
(-1.43524e-11 0 0)
(-1.51531e-11 0 0)
(-1.55708e-11 0 0)
(-1.67731e-11 0 0)
(-1.69574e-11 0 0)
(-1.72483e-11 0 0)
(-1.73689e-11 0 0)
(-1.81497e-11 0 0)
(-1.78479e-11 0 0)
(-1.75631e-11 0 0)
(-1.76445e-11 0 0)
(-1.71309e-11 0 0)
(-1.78264e-11 0 0)
(-1.76414e-11 0 0)
(-1.88353e-11 0 0)
(-1.87792e-11 0 0)
(-1.95385e-11 0 0)
(-1.97358e-11 0 0)
(-2.05973e-11 0 0)
(-2.00061e-11 0 0)
(-2.05719e-11 0 0)
(-2.08721e-11 0 0)
(-2.06541e-11 0 0)
(-2.01374e-11 0 0)
(-2.13727e-11 0 0)
(-2.05174e-11 0 0)
(-2.07055e-11 0 0)
(-1.95355e-11 0 0)
(-1.95769e-11 0 0)
(-1.88867e-11 0 0)
(-1.92775e-11 0 0)
(-1.76192e-11 0 0)
(-1.73558e-11 0 0)
(-1.5613e-11 0 0)
(-1.53965e-11 0 0)
(-1.36967e-11 0 0)
(-1.49558e-11 0 0)
(-1.35585e-11 0 0)
(-1.35923e-11 0 0)
(-1.20652e-11 0 0)
(-1.23831e-11 0 0)
(-1.18487e-11 0 0)
(-1.20967e-11 0 0)
(-1.18979e-11 0 0)
(-1.23731e-11 0 0)
(-1.13244e-11 0 0)
(-1.20998e-11 0 0)
(-1.18472e-11 0 0)
(-1.31324e-11 0 0)
(-1.29282e-11 0 0)
(-1.43009e-11 0 0)
(-1.49673e-11 0 0)
(-1.68898e-11 0 0)
(-1.69074e-11 0 0)
(-1.74871e-11 0 0)
(-1.71693e-11 0 0)
(-1.84752e-11 0 0)
(-1.78833e-11 0 0)
(-1.85765e-11 0 0)
(-1.86533e-11 0 0)
(-1.92314e-11 0 0)
(-1.89873e-11 0 0)
(-1.99009e-11 0 0)
(-1.9408e-11 0 0)
(-1.98372e-11 0 0)
(-1.90241e-11 0 0)
(-1.86871e-11 0 0)
(-1.7924e-11 0 0)
(-1.75071e-11 0 0)
(-1.62249e-11 0 0)
(-1.57842e-11 0 0)
(-1.47416e-11 0 0)
(-1.3894e-11 0 0)
(-1.28015e-11 0 0)
(-1.25259e-11 0 0)
(-1.17865e-11 0 0)
(-1.16238e-11 0 0)
(-1.05881e-11 0 0)
(-1.07232e-11 0 0)
(-9.40727e-12 0 0)
(-1.03178e-11 0 0)
(-9.88174e-12 0 0)
(-1.1018e-11 0 0)
(-1.07432e-11 0 0)
(-1.06633e-11 0 0)
(-1.02103e-11 0 0)
(-1.03524e-11 0 0)
(-1.03508e-11 0 0)
(-1.09965e-11 0 0)
(-1.17013e-11 0 0)
(-1.24606e-11 0 0)
(-1.30702e-11 0 0)
(-1.31815e-11 0 0)
(-1.33113e-11 0 0)
(-1.29412e-11 0 0)
(-1.37328e-11 0 0)
(-1.38257e-11 0 0)
(-1.51255e-11 0 0)
(-1.55869e-11 0 0)
(-1.67623e-11 0 0)
(-1.6803e-11 0 0)
(-1.69167e-11 0 0)
(-1.64583e-11 0 0)
(-1.6866e-11 0 0)
(-1.56906e-11 0 0)
(-1.55293e-11 0 0)
(-1.51439e-11 0 0)
(-1.58879e-11 0 0)
(-1.58211e-11 0 0)
(-1.59946e-11 0 0)
(-1.60829e-11 0 0)
(-1.5775e-11 0 0)
(-1.53289e-11 0 0)
(-1.55393e-11 0 0)
(-1.50349e-11 0 0)
(-1.58126e-11 0 0)
(-1.56867e-11 0 0)
(-1.68944e-11 0 0)
(-1.63416e-11 0 0)
(-1.6565e-11 0 0)
(-1.71677e-11 0 0)
(-1.73159e-11 0 0)
(-1.78618e-11 0 0)
(-1.79708e-11 0 0)
(-1.75393e-11 0 0)
(-1.75324e-11 0 0)
(-1.79508e-11 0 0)
(-1.76529e-11 0 0)
(-1.72245e-11 0 0)
(-1.7924e-11 0 0)
(-1.73827e-11 0 0)
(-1.71769e-11 0 0)
(-1.64959e-11 0 0)
(-1.58265e-11 0 0)
(-1.51662e-11 0 0)
(-1.49297e-11 0 0)
(-1.37719e-11 0 0)
(-1.35508e-11 0 0)
(-1.28046e-11 0 0)
(-1.32821e-11 0 0)
(-1.32867e-11 0 0)
(-1.3395e-11 0 0)
(-1.3223e-11 0 0)
(-1.31716e-11 0 0)
(-1.34848e-11 0 0)
(-1.30203e-11 0 0)
(-1.29021e-11 0 0)
(-1.22825e-11 0 0)
(-1.21105e-11 0 0)
(-1.15263e-11 0 0)
(-1.21382e-11 0 0)
(-1.18457e-11 0 0)
(-1.17497e-11 0 0)
(-1.08407e-11 0 0)
(-1.12077e-11 0 0)
(-1.08222e-11 0 0)
(-1.03447e-11 0 0)
(-9.22839e-12 0 0)
(-9.27676e-12 0 0)
(-8.99499e-12 0 0)
(-8.77925e-12 0 0)
(-8.51745e-12 0 0)
(-8.68866e-12 0 0)
(-8.63798e-12 0 0)
(-9.2161e-12 0 0)
(-9.57234e-12 0 0)
(-1.00222e-11 0 0)
(-9.99153e-12 0 0)
(-1.08798e-11 0 0)
(-1.0853e-11 0 0)
(-1.15232e-11 0 0)
(-1.11278e-11 0 0)
(-1.19524e-11 0 0)
(-1.15424e-11 0 0)
(-1.238e-11 0 0)
(-1.16476e-11 0 0)
(-1.22672e-11 0 0)
(-1.19831e-11 0 0)
(-1.2724e-11 0 0)
(-1.22886e-11 0 0)
(-1.2509e-11 0 0)
(-1.29251e-11 0 0)
(-1.35255e-11 0 0)
(-1.41182e-11 0 0)
(-1.38088e-11 0 0)
(-1.31969e-11 0 0)
(-1.23785e-11 0 0)
(-1.20629e-11 0 0)
(-1.14887e-11 0 0)
(-1.18533e-11 0 0)
(-1.11969e-11 0 0)
(-1.16053e-11 0 0)
(-1.12138e-11 0 0)
(-1.16077e-11 0 0)
(-1.17482e-11 0 0)
(-1.29481e-11 0 0)
(-1.30004e-11 0 0)
(-1.32975e-11 0 0)
(-1.35723e-11 0 0)
(-1.35316e-11 0 0)
(-1.29059e-11 0 0)
(-1.29405e-11 0 0)
(-1.25673e-11 0 0)
(-1.25505e-11 0 0)
(-1.21359e-11 0 0)
(-1.23762e-11 0 0)
(-1.24007e-11 0 0)
(-1.25796e-11 0 0)
(-1.24936e-11 0 0)
(-1.29827e-11 0 0)
(-1.32698e-11 0 0)
(-1.36652e-11 0 0)
(-1.46042e-11 0 0)
(-1.48806e-11 0 0)
(-1.49781e-11 0 0)
(-1.53351e-11 0 0)
(-1.57881e-11 0 0)
(-1.57067e-11 0 0)
(-1.56883e-11 0 0)
(-1.64721e-11 0 0)
(-1.63009e-11 0 0)
(-1.63455e-11 0 0)
(-1.6056e-11 0 0)
(-1.52307e-11 0 0)
(-1.46395e-11 0 0)
(-1.43746e-11 0 0)
(-1.41896e-11 0 0)
(-1.37359e-11 0 0)
(-1.33643e-11 0 0)
(-1.27731e-11 0 0)
(-1.27155e-11 0 0)
(-1.28675e-11 0 0)
(-1.34357e-11 0 0)
(-1.37551e-11 0 0)
(-1.3762e-11 0 0)
(-1.37282e-11 0 0)
(-1.42579e-11 0 0)
(-1.43562e-11 0 0)
(-1.48046e-11 0 0)
(-1.42449e-11 0 0)
(-1.46718e-11 0 0)
(-1.40307e-11 0 0)
(-1.44783e-11 0 0)
(-1.38871e-11 0 0)
(-1.44959e-11 0 0)
(-1.3861e-11 0 0)
(-1.47147e-11 0 0)
(-1.37988e-11 0 0)
(-1.46956e-11 0 0)
(-1.43885e-11 0 0)
(-1.58702e-11 0 0)
(-1.50956e-11 0 0)
(-1.59416e-11 0 0)
(-1.51931e-11 0 0)
(-1.61082e-11 0 0)
(-1.4962e-11 0 0)
(-1.53842e-11 0 0)
(-1.38426e-11 0 0)
(-1.38441e-11 0 0)
(-1.36599e-11 0 0)
(-1.48599e-11 0 0)
(-1.42111e-11 0 0)
(-1.53812e-11 0 0)
(-1.43293e-11 0 0)
(-1.54172e-11 0 0)
(-1.47201e-11 0 0)
(-1.50764e-11 0 0)
(-1.45405e-11 0 0)
(-1.49059e-11 0 0)
(-1.43716e-11 0 0)
(-1.54203e-11 0 0)
(-1.42848e-11 0 0)
(-1.46641e-11 0 0)
(-1.3484e-11 0 0)
(-1.38863e-11 0 0)
(-1.33182e-11 0 0)
(-1.35631e-11 0 0)
(-1.32322e-11 0 0)
(-1.31017e-11 0 0)
(-1.23723e-11 0 0)
(-1.21052e-11 0 0)
(-1.2013e-11 0 0)
(-1.20844e-11 0 0)
(-1.16107e-11 0 0)
(-1.15286e-11 0 0)
(-1.1091e-11 0 0)
(-1.10649e-11 0 0)
(-9.74048e-12 0 0)
(-9.7067e-12 0 0)
(-9.17311e-12 0 0)
(-9.25372e-12 0 0)
(-8.86908e-12 0 0)
(-9.01802e-12 0 0)
(-7.96083e-12 0 0)
(-7.06716e-12 0 0)
(-6.42379e-12 0 0)
(-5.85949e-12 0 0)
(-5.32053e-12 0 0)
(-5.84874e-12 0 0)
(-6.18271e-12 0 0)
(-7.02878e-12 0 0)
(-7.93549e-12 0 0)
(-8.53434e-12 0 0)
(-9.39038e-12 0 0)
(-1.02142e-11 0 0)
(-1.02602e-11 0 0)
(-1.12307e-11 0 0)
(-1.14034e-11 0 0)
(-1.27025e-11 0 0)
(-1.29282e-11 0 0)
(-1.36146e-11 0 0)
(-1.36668e-11 0 0)
(-1.51186e-11 0 0)
(-1.52944e-11 0 0)
(-1.63969e-11 0 0)
(-1.76107e-11 0 0)
(-1.8162e-11 0 0)
(-1.8436e-11 0 0)
(-1.91201e-11 0 0)
(-1.94856e-11 0 0)
(-1.93113e-11 0 0)
(-1.88314e-11 0 0)
(-1.84107e-11 0 0)
(-1.85735e-11 0 0)
(-1.91117e-11 0 0)
(-1.83954e-11 0 0)
(-1.90702e-11 0 0)
(-1.83869e-11 0 0)
(-1.82103e-11 0 0)
(-1.7405e-11 0 0)
(-1.76407e-11 0 0)
(-1.75931e-11 0 0)
(-1.72622e-11 0 0)
(-1.6724e-11 0 0)
(-1.62771e-11 0 0)
(-1.55616e-11 0 0)
(-1.4694e-11 0 0)
(-1.42265e-11 0 0)
(-1.35608e-11 0 0)
(-1.29881e-11 0 0)
(-1.2241e-11 0 0)
(-1.19631e-11 0 0)
(-1.17958e-11 0 0)
(-1.19969e-11 0 0)
(-1.2271e-11 0 0)
(-1.24284e-11 0 0)
(-1.24944e-11 0 0)
(-1.29359e-11 0 0)
(-1.29865e-11 0 0)
(-1.32744e-11 0 0)
(-1.3484e-11 0 0)
(-1.41551e-11 0 0)
(-1.47316e-11 0 0)
(-1.51877e-11 0 0)
(-1.52015e-11 0 0)
(-1.57197e-11 0 0)
(-1.53075e-11 0 0)
(-1.57635e-11 0 0)
(-1.64099e-11 0 0)
(-1.66487e-11 0 0)
(-1.68491e-11 0 0)
(-1.62664e-11 0 0)
(-1.53673e-11 0 0)
(-1.53405e-11 0 0)
(-1.49167e-11 0 0)
(-1.52414e-11 0 0)
(-1.56399e-11 0 0)
(-1.53282e-11 0 0)
(-1.44629e-11 0 0)
(-1.4175e-11 0 0)
(-1.3818e-11 0 0)
(-1.36529e-11 0 0)
(-1.34748e-11 0 0)
(-1.27455e-11 0 0)
(-1.29551e-11 0 0)
(-1.3071e-11 0 0)
(-1.26741e-11 0 0)
(-1.25881e-11 0 0)
(-1.22203e-11 0 0)
(-1.25827e-11 0 0)
(-1.18042e-11 0 0)
(-1.17397e-11 0 0)
(-1.17013e-11 0 0)
(-1.15754e-11 0 0)
(-1.15547e-11 0 0)
(-1.11347e-11 0 0)
(-1.09911e-11 0 0)
(-1.06948e-11 0 0)
(-1.05098e-11 0 0)
(-9.99384e-12 0 0)
(-9.9209e-12 0 0)
(-9.19998e-12 0 0)
(-8.8852e-12 0 0)
(-7.87868e-12 0 0)
(-7.68751e-12 0 0)
(-7.94624e-12 0 0)
(-8.53357e-12 0 0)
(-9.071e-12 0 0)
(-9.31591e-12 0 0)
(-9.20843e-12 0 0)
(-9.26294e-12 0 0)
(-9.64451e-12 0 0)
(-9.94163e-12 0 0)
(-1.05167e-11 0 0)
(-1.08138e-11 0 0)
(-1.12153e-11 0 0)
(-1.14518e-11 0 0)
(-1.13835e-11 0 0)
(-1.17635e-11 0 0)
(-1.08453e-11 0 0)
(-1.11931e-11 0 0)
(-1.13942e-11 0 0)
(-1.13405e-11 0 0)
(-1.1253e-11 0 0)
(-1.09144e-11 0 0)
(-1.15078e-11 0 0)
(-1.21182e-11 0 0)
(-1.2443e-11 0 0)
(-1.25182e-11 0 0)
(-1.27792e-11 0 0)
(-1.25082e-11 0 0)
(-1.24936e-11 0 0)
(-1.19455e-11 0 0)
(-1.25566e-11 0 0)
(-1.19217e-11 0 0)
(-1.24215e-11 0 0)
(-1.28683e-11 0 0)
(-1.32184e-11 0 0)
(-1.22549e-11 0 0)
(-1.197e-11 0 0)
(-1.1623e-11 0 0)
(-1.19854e-11 0 0)
(-1.16107e-11 0 0)
(-1.20576e-11 0 0)
(-1.15232e-11 0 0)
(-1.12852e-11 0 0)
(-1.08675e-11 0 0)
(-1.12268e-11 0 0)
(-1.13197e-11 0 0)
(-1.15616e-11 0 0)
(-1.15501e-11 0 0)
(-1.20883e-11 0 0)
(-1.20629e-11 0 0)
(-1.17865e-11 0 0)
(-1.19938e-11 0 0)
(-1.22886e-11 0 0)
(-1.20721e-11 0 0)
(-1.2661e-11 0 0)
(-1.27769e-11 0 0)
(-1.31716e-11 0 0)
(-1.25758e-11 0 0)
(-1.29144e-11 0 0)
(-1.27401e-11 0 0)
(-1.29881e-11 0 0)
(-1.27293e-11 0 0)
(-1.32652e-11 0 0)
(-1.30119e-11 0 0)
(-1.37727e-11 0 0)
(-1.38641e-11 0 0)
(-1.44959e-11 0 0)
(-1.42004e-11 0 0)
(-1.44721e-11 0 0)
(-1.3927e-11 0 0)
(-1.39954e-11 0 0)
(-1.44668e-11 0 0)
(-1.50265e-11 0 0)
(-1.61581e-11 0 0)
(-1.61458e-11 0 0)
(-1.57305e-11 0 0)
(-1.56936e-11 0 0)
(-1.46165e-11 0 0)
(-1.45635e-11 0 0)
(-1.45174e-11 0 0)
(-1.39547e-11 0 0)
(-1.26487e-11 0 0)
(-1.19155e-11 0 0)
(-1.16276e-11 0 0)
(-1.15101e-11 0 0)
(-1.13382e-11 0 0)
(-1.15869e-11 0 0)
(-1.1448e-11 0 0)
(-1.17067e-11 0 0)
(-1.13581e-11 0 0)
(-1.17981e-11 0 0)
(-1.21282e-11 0 0)
(-1.23677e-11 0 0)
(-1.25144e-11 0 0)
(-1.19977e-11 0 0)
(-1.25412e-11 0 0)
(-1.18779e-11 0 0)
(-1.20468e-11 0 0)
(-1.16944e-11 0 0)
(-1.22196e-11 0 0)
(-1.18664e-11 0 0)
(-1.22933e-11 0 0)
(-1.20023e-11 0 0)
(-1.29719e-11 0 0)
(-1.28752e-11 0 0)
(-1.36245e-11 0 0)
(-1.28391e-11 0 0)
(-1.28729e-11 0 0)
(-1.11647e-11 0 0)
(-1.08798e-11 0 0)
(-9.39422e-12 0 0)
(-9.24297e-12 0 0)
(-8.22186e-12 0 0)
(-8.48751e-12 0 0)
(-7.93933e-12 0 0)
(-8.2042e-12 0 0)
(-8.30632e-12 0 0)
(-8.84681e-12 0 0)
(-9.32819e-12 0 0)
(-9.77733e-12 0 0)
(-9.89326e-12 0 0)
(-9.81418e-12 0 0)
(-9.74125e-12 0 0)
(-9.48865e-12 0 0)
(-9.33434e-12 0 0)
(-8.90977e-12 0 0)
(-8.82608e-12 0 0)
(-9.65219e-12 0 0)
(-9.99844e-12 0 0)
(-9.6614e-12 0 0)
(-9.76658e-12 0 0)
(-1.05174e-11 0 0)
(-1.0727e-11 0 0)
(-1.14119e-11 0 0)
(-1.13635e-11 0 0)
(-1.15616e-11 0 0)
(-1.16084e-11 0 0)
(-1.22372e-11 0 0)
(-1.19247e-11 0 0)
(-1.29251e-11 0 0)
(-1.32814e-11 0 0)
(-1.4228e-11 0 0)
(-1.32883e-11 0 0)
(-1.37719e-11 0 0)
(-1.30956e-11 0 0)
(-1.38364e-11 0 0)
(-1.2929e-11 0 0)
(-1.31224e-11 0 0)
(-1.22341e-11 0 0)
(-1.2661e-11 0 0)
(-1.1914e-11 0 0)
(-1.13136e-11 0 0)
(-1.00138e-11 0 0)
(-9.86025e-12 0 0)
(-9.72435e-12 0 0)
(-9.35276e-12 0 0)
(-8.93511e-12 0 0)
(-8.01687e-12 0 0)
(-7.05795e-12 0 0)
(-6.48674e-12 0 0)
(-6.75392e-12 0 0)
(-6.0545e-12 0 0)
(-6.02532e-12 0 0)
(-6.27484e-12 0 0)
(-6.43914e-12 0 0)
(-6.35392e-12 0 0)
(-6.7401e-12 0 0)
(-7.47484e-12 0 0)
(-8.0138e-12 0 0)
(-8.85065e-12 0 0)
(-9.0948e-12 0 0)
(-9.2637e-12 0 0)
(-1.01167e-11 0 0)
(-1.07762e-11 0 0)
(-1.1233e-11 0 0)
(-1.19416e-11 0 0)
(-1.20315e-11 0 0)
(-1.30457e-11 0 0)
(-1.41205e-11 0 0)
(-1.4866e-11 0 0)
(-1.52238e-11 0 0)
(-1.52522e-11 0 0)
(-1.51846e-11 0 0)
(-1.5851e-11 0 0)
(-1.56668e-11 0 0)
(-1.55355e-11 0 0)
(-1.55508e-11 0 0)
(-1.54495e-11 0 0)
(-1.52084e-11 0 0)
(-1.51654e-11 0 0)
(-1.5319e-11 0 0)
(-1.60353e-11 0 0)
(-1.6036e-11 0 0)
(-1.63908e-11 0 0)
(-1.59631e-11 0 0)
(-1.57243e-11 0 0)
(-1.49819e-11 0 0)
(-1.44675e-11 0 0)
(-1.34464e-11 0 0)
(-1.39409e-11 0 0)
(-1.33228e-11 0 0)
(-1.38034e-11 0 0)
(-1.29727e-11 0 0)
(-1.26802e-11 0 0)
(-1.11839e-11 0 0)
(-1.17374e-11 0 0)
(-1.06518e-11 0 0)
(-1.19409e-11 0 0)
(-1.12407e-11 0 0)
(-1.1689e-11 0 0)
(-1.10541e-11 0 0)
(-1.1448e-11 0 0)
(-1.11585e-11 0 0)
(-1.1861e-11 0 0)
(-1.13059e-11 0 0)
(-1.201e-11 0 0)
(-1.22434e-11 0 0)
(-1.32483e-11 0 0)
(-1.33551e-11 0 0)
(-1.41681e-11 0 0)
(-1.43025e-11 0 0)
(-1.46357e-11 0 0)
(-1.45904e-11 0 0)
(-1.39378e-11 0 0)
(-1.36591e-11 0 0)
(-1.38257e-11 0 0)
(-1.41996e-11 0 0)
(-1.37443e-11 0 0)
(-1.38879e-11 0 0)
(-1.36284e-11 0 0)
(-1.4281e-11 0 0)
(-1.37282e-11 0 0)
(-1.49305e-11 0 0)
(-1.44176e-11 0 0)
(-1.45497e-11 0 0)
(-1.36698e-11 0 0)
(-1.36468e-11 0 0)
(-1.24936e-11 0 0)
(-1.25259e-11 0 0)
(-1.18656e-11 0 0)
(-1.15094e-11 0 0)
(-9.63299e-12 0 0)
(-8.8829e-12 0 0)
(-8.04912e-12 0 0)
(-8.14509e-12 0 0)
(-7.36659e-12 0 0)
(-7.73588e-12 0 0)
(-7.4925e-12 0 0)
(-7.83799e-12 0 0)
(-7.09557e-12 0 0)
(-7.3067e-12 0 0)
(-6.79845e-12 0 0)
(-6.88674e-12 0 0)
(-6.16659e-12 0 0)
(-6.34931e-12 0 0)
(-5.52935e-12 0 0)
(-5.70978e-12 0 0)
(-5.13319e-12 0 0)
(-5.17926e-12 0 0)
(-5.00037e-12 0 0)
(-4.80767e-12 0 0)
(-4.74932e-12 0 0)
(-5.15008e-12 0 0)
(-5.33665e-12 0 0)
(-5.21074e-12 0 0)
(-5.51016e-12 0 0)
(-5.6998e-12 0 0)
(-6.54432e-12 0 0)
(-6.92359e-12 0 0)
(-8.19806e-12 0 0)
(-8.96121e-12 0 0)
(-9.78117e-12 0 0)
(-9.62608e-12 0 0)
(-8.74931e-12 0 0)
(-8.19499e-12 0 0)
(-8.17273e-12 0 0)
(-8.33933e-12 0 0)
(-8.91668e-12 0 0)
(-9.74508e-12 0 0)
(-1.01827e-11 0 0)
(-1.13904e-11 0 0)
(-1.14119e-11 0 0)
(-1.17435e-11 0 0)
(-1.18902e-11 0 0)
(-1.21144e-11 0 0)
(-1.20737e-11 0 0)
(-1.26341e-11 0 0)
(-1.33712e-11 0 0)
(-1.32345e-11 0 0)
(-1.33036e-11 0 0)
(-1.32698e-11 0 0)
(-1.31094e-11 0 0)
(-1.35877e-11 0 0)
(-1.31777e-11 0 0)
(-1.32967e-11 0 0)
(-1.33121e-11 0 0)
(-1.35923e-11 0 0)
(-1.3633e-11 0 0)
(-1.36821e-11 0 0)
(-1.36353e-11 0 0)
(-1.45512e-11 0 0)
(-1.50541e-11 0 0)
(-1.51931e-11 0 0)
(-1.45213e-11 0 0)
(-1.45927e-11 0 0)
(-1.46311e-11 0 0)
(-1.47455e-11 0 0)
(-1.37474e-11 0 0)
(-1.45021e-11 0 0)
(-1.3947e-11 0 0)
(-1.51785e-11 0 0)
(-1.53673e-11 0 0)
(-1.60606e-11 0 0)
(-1.56437e-11 0 0)
(-1.65896e-11 0 0)
(-1.52959e-11 0 0)
(-1.58195e-11 0 0)
(-1.53451e-11 0 0)
(-1.66341e-11 0 0)
(-1.64353e-11 0 0)
(-1.64575e-11 0 0)
(-1.5732e-11 0 0)
(-1.53028e-11 0 0)
(-1.33712e-11 0 0)
(-1.2413e-11 0 0)
(-1.12514e-11 0 0)
(-1.09428e-11 0 0)
(-9.87253e-12 0 0)
(-9.61917e-12 0 0)
(-8.25641e-12 0 0)
(-8.06908e-12 0 0)
(-7.32666e-12 0 0)
(-7.92321e-12 0 0)
(-7.27446e-12 0 0)
(-7.65142e-12 0 0)
(-6.72628e-12 0 0)
(-7.13933e-12 0 0)
(-6.9735e-12 0 0)
(-7.51323e-12 0 0)
(-7.59461e-12 0 0)
(-7.79192e-12 0 0)
(-8.21419e-12 0 0)
(-8.09595e-12 0 0)
(-8.35085e-12 0 0)
(-8.40152e-12 0 0)
(-9.20919e-12 0 0)
(-9.85948e-12 0 0)
(-1.03631e-11 0 0)
(-1.03132e-11 0 0)
(-1.05497e-11 0 0)
(-1.05474e-11 0 0)
(-1.08645e-11 0 0)
(-1.09274e-11 0 0)
(-1.16115e-11 0 0)
(-1.19309e-11 0 0)
(-1.26457e-11 0 0)
(-1.19186e-11 0 0)
(-1.23562e-11 0 0)
(-1.07194e-11 0 0)
(-1.07301e-11 0 0)
(-9.75353e-12 0 0)
(-1.05497e-11 0 0)
(-9.76735e-12 0 0)
(-9.6591e-12 0 0)
(-8.56044e-12 0 0)
(-8.32705e-12 0 0)
(-7.23837e-12 0 0)
(-7.44259e-12 0 0)
(-6.69864e-12 0 0)
(-7.15162e-12 0 0)
(-6.91284e-12 0 0)
(-7.40728e-12 0 0)
(-7.41035e-12 0 0)
(-8.26716e-12 0 0)
(-7.9186e-12 0 0)
(-8.28328e-12 0 0)
(-7.71131e-12 0 0)
(-9.12013e-12 0 0)
(-9.15238e-12 0 0)
(-1.04522e-11 0 0)
(-1.06718e-11 0 0)
(-1.17696e-11 0 0)
(-1.18695e-11 0 0)
(-1.21121e-11 0 0)
(-1.16092e-11 0 0)
(-1.27301e-11 0 0)
(-1.28499e-11 0 0)
(-1.32698e-11 0 0)
(-1.30771e-11 0 0)
(-1.28898e-11 0 0)
(-1.24944e-11 0 0)
(-1.23493e-11 0 0)
(-1.17136e-11 0 0)
(-1.14794e-11 0 0)
(-1.09704e-11 0 0)
(-1.03078e-11 0 0)
(-9.8994e-12 0 0)
(-9.01879e-12 0 0)
(-8.80459e-12 0 0)
(-9.22071e-12 0 0)
(-9.24835e-12 0 0)
(-9.04259e-12 0 0)
(-9.51706e-12 0 0)
(-9.70286e-12 0 0)
(-1.01566e-11 0 0)
(-1.05305e-11 0 0)
(-1.05804e-11 0 0)
(-1.07447e-11 0 0)
(-9.80497e-12 0 0)
(-1.02096e-11 0 0)
(-9.947e-12 0 0)
(-1.07746e-11 0 0)
(-1.03892e-11 0 0)
(-1.12606e-11 0 0)
(-1.15155e-11 0 0)
(-1.22564e-11 0 0)
(-1.13397e-11 0 0)
(-1.11363e-11 0 0)
(-1.03931e-11 0 0)
(-1.03516e-11 0 0)
(-1.03769e-11 0 0)
(-1.02625e-11 0 0)
(-9.92627e-12 0 0)
(-9.77272e-12 0 0)
(-9.62071e-12 0 0)
(-9.21687e-12 0 0)
(-8.41457e-12 0 0)
(-7.47177e-12 0 0)
(-6.95354e-12 0 0)
(-5.90709e-12 0 0)
(-5.51553e-12 0 0)
(-4.77465e-12 0 0)
(-4.84375e-12 0 0)
(-4.83454e-12 0 0)
(-5.00114e-12 0 0)
(-5.63223e-12 0 0)
(-5.68905e-12 0 0)
(-6.66025e-12 0 0)
(-6.39461e-12 0 0)
(-6.91131e-12 0 0)
(-6.20805e-12 0 0)
(-7.15085e-12 0 0)
(-6.94202e-12 0 0)
(-7.3735e-12 0 0)
(-6.91822e-12 0 0)
(-7.31975e-12 0 0)
(-7.07407e-12 0 0)
(-7.77042e-12 0 0)
(-7.63607e-12 0 0)
(-8.13511e-12 0 0)
(-7.57158e-12 0 0)
(-8.35545e-12 0 0)
(-8.25641e-12 0 0)
(-9.12858e-12 0 0)
(-9.18309e-12 0 0)
(-1.0165e-11 0 0)
(-1.01213e-11 0 0)
(-1.08883e-11 0 0)
(-1.05505e-11 0 0)
(-1.07086e-11 0 0)
(-1.12123e-11 0 0)
(-1.1266e-11 0 0)
(-1.16583e-11 0 0)
(-1.17681e-11 0 0)
(-1.22295e-11 0 0)
(-1.23316e-11 0 0)
(-1.20668e-11 0 0)
(-1.158e-11 0 0)
(-1.12906e-11 0 0)
(-1.07585e-11 0 0)
(-1.02933e-11 0 0)
(-1.00161e-11 0 0)
(-9.86101e-12 0 0)
(-9.80497e-12 0 0)
(-9.17388e-12 0 0)
(-8.43453e-12 0 0)
(-7.80728e-12 0 0)
(-7.31208e-12 0 0)
(-6.67023e-12 0 0)
(-6.12283e-12 0 0)
(-5.86563e-12 0 0)
(-5.77734e-12 0 0)
(-6.04682e-12 0 0)
(-6.03454e-12 0 0)
(-6.50133e-12 0 0)
(-6.28406e-12 0 0)
(-6.8783e-12 0 0)
(-6.75853e-12 0 0)
(-6.80536e-12 0 0)
(-6.3877e-12 0 0)
(-6.47369e-12 0 0)
(-6.5758e-12 0 0)
(-7.20997e-12 0 0)
(-7.51783e-12 0 0)
(-8.05142e-12 0 0)
(-8.07906e-12 0 0)
(-8.95353e-12 0 0)
(-9.48789e-12 0 0)
(-1.04437e-11 0 0)
(-1.01182e-11 0 0)
(-1.04407e-11 0 0)
(-9.79806e-12 0 0)
(-9.84873e-12 0 0)
(-9.43338e-12 0 0)
(-9.53779e-12 0 0)
(-8.73703e-12 0 0)
(-8.70478e-12 0 0)
(-7.65449e-12 0 0)
(-7.99077e-12 0 0)
(-6.94509e-12 0 0)
(-7.19384e-12 0 0)
(-6.48214e-12 0 0)
(-6.5259e-12 0 0)
(-6.05987e-12 0 0)
(-6.43607e-12 0 0)
(-5.11554e-12 0 0)
(-5.52705e-12 0 0)
(-4.02917e-12 0 0)
(-4.47293e-12 0 0)
(-3.16237e-12 0 0)
(-3.69443e-12 0 0)
(-2.95431e-12 0 0)
(-3.85182e-12 0 0)
(-3.64299e-12 0 0)
(-4.6925e-12 0 0)
(-4.70325e-12 0 0)
(-5.86486e-12 0 0)
(-5.7044e-12 0 0)
(-6.39461e-12 0 0)
(-6.25258e-12 0 0)
(-7.03492e-12 0 0)
(-7.114e-12 0 0)
(-7.96006e-12 0 0)
(-8.02916e-12 0 0)
(-8.8852e-12 0 0)
(-8.63491e-12 0 0)
(-8.89211e-12 0 0)
(-8.47599e-12 0 0)
(-8.17042e-12 0 0)
(-8.48827e-12 0 0)
(-8.44067e-12 0 0)
(-8.55507e-12 0 0)
(-8.19806e-12 0 0)
(-8.14278e-12 0 0)
(-7.61457e-12 0 0)
(-7.85488e-12 0 0)
(-7.79192e-12 0 0)
(-8.07292e-12 0 0)
(-7.47254e-12 0 0)
(-7.45488e-12 0 0)
(-7.46332e-12 0 0)
(-7.37043e-12 0 0)
(-7.40267e-12 0 0)
(-7.05641e-12 0 0)
(-6.63569e-12 0 0)
(-6.09826e-12 0 0)
(-5.35277e-12 0 0)
(-4.80613e-12 0 0)
(-4.02072e-12 0 0)
(-3.78195e-12 0 0)
(-3.55777e-12 0 0)
(-2.94356e-12 0 0)
(-2.98656e-12 0 0)
(-3.04721e-12 0 0)
(-3.68368e-12 0 0)
(-3.4188e-12 0 0)
(-4.04375e-12 0 0)
(-3.70671e-12 0 0)
(-4.39078e-12 0 0)
(-4.56122e-12 0 0)
(-5.58847e-12 0 0)
(-5.53319e-12 0 0)
(-5.99231e-12 0 0)
(-6.03837e-12 0 0)
(-6.98194e-12 0 0)
(-6.40152e-12 0 0)
(-6.63569e-12 0 0)
(-6.58962e-12 0 0)
(-7.12167e-12 0 0)
(-6.60344e-12 0 0)
(-7.66601e-12 0 0)
(-6.96582e-12 0 0)
(-7.47638e-12 0 0)
(-7.26678e-12 0 0)
(-7.92398e-12 0 0)
(-8.37848e-12 0 0)
(-9.13856e-12 0 0)
(-9.54931e-12 0 0)
(-1.05981e-11 0 0)
(-9.97387e-12 0 0)
(-1.13052e-11 0 0)
(-1.06418e-11 0 0)
(-1.1375e-11 0 0)
(-1.0572e-11 0 0)
(-1.14825e-11 0 0)
(-1.09244e-11 0 0)
(-1.15716e-11 0 0)
(-1.06733e-11 0 0)
(-1.11501e-11 0 0)
(-1.03938e-11 0 0)
(-1.04054e-11 0 0)
(-9.64604e-12 0 0)
(-9.55161e-12 0 0)
(-9.32205e-12 0 0)
(-9.66217e-12 0 0)
(-9.36735e-12 0 0)
(-8.52129e-12 0 0)
(-8.21879e-12 0 0)
(-7.93165e-12 0 0)
(-8.35699e-12 0 0)
(-8.39538e-12 0 0)
(-8.64182e-12 0 0)
(-8.20804e-12 0 0)
(-8.0829e-12 0 0)
(-7.76812e-12 0 0)
(-7.55008e-12 0 0)
(-7.5616e-12 0 0)
(-7.93933e-12 0 0)
(-7.65219e-12 0 0)
(-7.98079e-12 0 0)
(-6.92436e-12 0 0)
(-6.91745e-12 0 0)
(-5.29519e-12 0 0)
(-4.8806e-12 0 0)
(-3.67907e-12 0 0)
(-3.83032e-12 0 0)
(-3.05105e-12 0 0)
(-3.40882e-12 0 0)
(-2.21881e-12 0 0)
(-2.21804e-12 0 0)
(-1.56775e-12 0 0)
(-1.8595e-12 0 0)
(-1.85259e-12 0 0)
(-2.12898e-12 0 0)
(-2.01996e-12 0 0)
(-2.55355e-12 0 0)
(-2.64184e-12 0 0)
(-2.99731e-12 0 0)
(-3.11247e-12 0 0)
(-2.83301e-12 0 0)
(-2.88291e-12 0 0)
(-2.69712e-12 0 0)
(-2.69174e-12 0 0)
(-2.82763e-12 0 0)
(-3.71362e-12 0 0)
(-4.05757e-12 0 0)
(-4.96582e-12 0 0)
(-5.7758e-12 0 0)
(-5.97004e-12 0 0)
(-6.48751e-12 0 0)
(-6.74394e-12 0 0)
(-7.27753e-12 0 0)
(-7.58309e-12 0 0)