/*--------------------------------*- C++ -*----------------------------------*\
  =========                 |
  \\      /  F ield         | OpenFOAM: The Open Source CFD Toolbox
   \\    /   O peration     | Website:  https://openfoam.org
    \\  /    A nd           | Version:  9
     \\/     M anipulation  |
\*---------------------------------------------------------------------------*/
FoamFile
{
    format      ascii;
    class       volScalarField;
    location    "0.04";
    object      p;
}
// * * * * * * * * * * * * * * * * * * * * * * * * * * * * * * * * * * * * * //

dimensions      [1 -1 -2 0 0 0 0];

internalField   nonuniform List<scalar> 
10000
(
45632
45625.7
45621.9
45617.7
45613.7
45609.6
45605.5
45601.4
45597.4
45593.3
45589.2
45585.1
45581
45577
45572.9
45568.8
45564.7
45560.7
45556.6
45552.5
45548.4
45544.4
45540.3
45536.2
45532.1
45528.1
45524
45519.9
45515.8
45511.8
45507.7
45503.6
45499.5
45495.5
45491.4
45487.3
45483.3
45479.2
45475.1
45471.1
45467
45462.9
45458.9
45454.8
45450.8
45446.7
45442.6
45438.6
45434.5
45430.4
45426.3
45422.3
45418.2
45414.1
45410.1
45406
45401.9
45397.9
45393.8
45389.7
45385.7
45381.6
45377.6
45373.5
45369.4
45365.4
45361.3
45357.3
45353.2
45349.1
45345
45340.9
45336.9
45332.8
45328.7
45324.7
45320.6
45316.5
45312.5
45308.4
45304.4
45300.4
45296.3
45292.3
45288.2
45284.2
45280.1
45276.1
45272
45268
45263.9
45259.9
45255.8
45251.7
45247.7
45243.7
45239.7
45235.7
45231.6
45227.5
45223.4
45219.4
45215.4
45211.3
45207.3
45203.2
45199.2
45195.1
45191.1
45187
45182.9
45178.9
45174.9
45171
45167
45162.9
45158.7
45154.6
45150.5
45146.5
45142.6
45138.7
45134.7
45130.5
45126.3
45122.2
45118.2
45114.2
45110.3
45106.2
45102.2
45098.1
45094
45090
45086
45082
45077.9
45073.8
45069.7
45065.8
45061.9
45057.9
45053.8
45049.6
45045.4
45041.4
45037.6
45034
45030
45025.7
45021.3
45016.9
45012.8
45009.3
45005.9
45002
44997.6
44993.1
44988.7
44984.5
44980.7
44977.4
44973.7
44969.5
44965.1
44960.7
44956.5
44952.4
44948.8
44945.4
44941.5
44937.2
44932.7
44928.3
44924
44920.5
44917.8
44913.9
44909.3
44904.6
44900
44895.5
44891.5
44888.8
44885.9
44881.5
44876.8
44872.1
44867.5
44863.2
44859.7
44857.2
44853.4
44848.8
44844.2
44839.6
44835.3
44831.5
44829.1
44825.7
44821.1
44816.4
44811.8
44807.3
44803.4
44801.1
44798.1
44793.5
44788.7
44783.9
44779.2
44774.7
44770.7
44768.7
44766
44761.4
44756.6
44751.8
44747
44742.4
44738.2
44735.7
44733.3
44729
44724.2
44719.6
44715.1
44711.6
44709.1
44705
44700.3
44695.5
44690.9
44686.7
44684.1
44681.6
44677.2
44672.4
44667.6
44662.8
44658.2
44654
44651.6
44649.4
44645.1
44640.4
44635.5
44630.8
44626.3
44622.2
44620
44617.1
44612.6
44607.8
44603.2
44598.8
44595.5
44593.4
44589.3
44584.6
44579.8
44575.1
44570.6
44566.7
44564.7
44561.6
44557
44552.2
44547.4
44542.7
44538.3
44534.7
44532.9
44529.4
44524.8
44519.9
44515.2
44510.5
44506.2
44502.9
44501.1
44497.2
44492.5
44487.7
44483
44478.4
44474.2
44471.6
44469.2
44464.9
44460.2
44455.4
44450.7
44446.3
44442.5
44439.8
44436.4
44432.3
44428.4
44425.3
44421.9
44417.3
44412.6
44407.9
44403.3
44398.9
44395.5
44393.4
44389.5
44384.8
44380
44375.3
44370.7
44366.5
44363.8
44361.7
44357.5
44352.7
44347.9
44343.2
44338.7
44334.6
44332.1
44329.7
44325.3
44320.6
44315.9
44311.3
44306.9
44303.8
44301.7
44297.6
44292.9
44288.2
44283.6
44279.4
44276.9
44274.5
44270.2
44265.4
44260.7
44256
44251.5
44247.7
44245.7
44242.5
44237.9
44233.1
44228.4
44223.7
44219.3
44215.5
44213.7
44210.7
44206.1
44201.4
44196.6
44192
44187.7
44184.5
44182.6
44178.8
44174.2
44169.4
44164.8
44160.3
44156.5
44154.4
44151.3
44146.7
44142
44137.2
44132.6
44128.2
44124.8
44123
44119.5
44114.9
44110.1
44105.2
44100.6
44096.1
44092
44090
44088.3
44084.1
44079.3
44074.4
44069.7
44065.1
44060.8
44057.6
44055.9
44052.1
44047.4
44042.7
44038
44033.5
44029.3
44026.6
44024.2
44020
44015.3
44010.6
44006
44001.6
43998
43996.1
43992.7
43988.1
43983.4
43978.7
43974.1
43969.7
43966.3
43964.7
43961.2
43956.6
43951.8
43947
43942.4
43938
43934.1
43932.3
43929.5
43925
43920.2
43915.2
43910.5
43905.9
43901.5
43897.9
43897.1
43895.1
43890.7
43885.8
43880.7
43875.9
43871.4
43867.1
43864
43862.1
43858.3
43853.7
43849
43844.4
43840.1
43836.6
43833.4
43829
43824.3
43819.7
43815
43810.5
43806.3
43803.5
43804.3
43802.6
43798
43793
43787.1
43781.8
43777.2
43772.7
43768.6
43766
43763.7
43759.4
43754.7
43750.1
43745.4
43741
43736.9
43734.4
43731.8
43727.4
43722.8
43718
43713.4
43708.9
43704.6
43701.5
43700.1
43696.5
43691.9
43687.1
43682.3
43677.7
43673.2
43669.3
43667.9
43667.6
43663.7
43658.9
43653.4
43648
43643.3
43638.7
43634.6
43631.7
43629.8
43625.8
43621.2
43616.5
43611.8
43607.2
43602.9
43599.6
43598
43594.7
43590.1
43585.4
43580.8
43576.2
43571.8
43568.1
43566.5
43563.6
43559.2
43554.5
43549.9
43545.4
43541.2
43538
43534.8
43530.4
43525.8
43521.1
43516.5
43511.9
43507.4
43503.5
43501.9
43502.9
43500
43495.4
43490.1
43484.4
43479.5
43474.9
43470.5
43466.6
43464.1
43460.8
43456.4
43451.8
43447.2
43442.6
43438.2
43434.2
43431.9
43429.7
43425.5
43420.9
43416.1
43411.4
43406.9
43402.7
43399.5
43399.6
43397.9
43393.5
43388.6
43382.9
43377.8
43373.2
43368.8
43364.8
43362.3
43359.5
43355.2
43350.6
43346.1
43341.6
43337.3
43334.2
43331.8
43327.8
43323.2
43318.7
43314.2
43309.8
43306.3
43304.1
43300.5
43296
43291.4
43286.8
43282.3
43277.9
43274.2
43273.1
43271.5
43267.2
43262.5
43257.7
43253.1
43248.7
43244.4
43241.1
43237.6
43233.3
43228.8
43224.4
43220.3
43217.3
43215.2
43211.3
43206.7
43202.1
43197.6
43193.1
43188.8
43185.6
43183
43178.9
43174.4
43169.8
43165.1
43160.6
43156.2
43152.2
43150
43151.2
43149.1
43144.7
43139.7
43133.9
43128.8
43124.3
43119.8
43115.4
43111.6
43108.6
43105
43100.8
43096.6
43092.9
43090.4
43086.7
43082.3
43077.7
43073.2
43068.6
43064.2
43060.1
43057.3
43055.3
43051.4
43046.8
43042.1
43037.3
43032.7
43028.2
43024.1
43021
43021.4
43020.6
43016.4
43011.6
43006
43000.8
42996.2
42991.8
42987.6
42984.5
42981.4
42977.1
42972.6
42968.1
42963.7
42959.7
42957.2
42955.3
42951.3
42946.8
42942.2
42937.7
42933.3
42929.3
42926.5
42923.5
42919.2
42914.7
42910.2
42905.8
42901.9
42899.2
42895.9
42891.6
42887
42882.4
42877.9
42873.4
42869.1
42865.3
42864
42865.3
42862.4
42857.9
42852.8
42847.1
42842.3
42837.8
42833.4
42829.4
42826.3
42822.5
42818.1
42813.6
42809.1
42804.8
42800.8
42798.4
42796.9
42793
42788.4
42783.8
42779.2
42774.7
42770.4
42766.6
42764.4
42761.7
42757.4
42752.9
42748.4
42744
42739.7
42736.2
42734.5
42731.6
42727.3
42722.7
42718.2
42713.8
42709.6
42706.2
42703.1
42699
42694.5
42690.1
42685.6
42681.4
42677.9
42676.3
42673.3
42668.9
42664.4
42659.8
42655.3
42650.9
42646.8
42643.7
42641.5
42637.5
42633
42628.3
42623.4
42618.7
42614.3
42609.9
42606.1
42604.1
42606
42604.8
42600.6
42595.7
42589.6
42582.8
42577.7
42573.2
42568.8
42564.7
42561.6
42561.5
42559.6
42555.2
42550.5
42545.2
42540.5
42536
42531.7
42527.9
42525.9
42523.5
42519.4
42514.9
42510.4
42505.9
42501.6
42497.6
42495
42492.1
42487.9
42483.4
42479
42474.6
42470.5
42467.4
42465.1
42461.1
42456.7
42452.3
42447.8
42443.6
42439.8
42437.4
42434.3
42430
42425.5
42421.1
42416.6
42412.3
42408.4
42406
42404.2
42400.2
42395.8
42391.2
42386.7
42382.3
42378.1
42374.4
42372
42368.7
42364.4
42359.9
42355.2
42350.6
42346.2
42341.8
42337.9
42335.3
42336.6
42335.7
42331.6
42326.9
42321.3
42315.6
42311
42306.6
42302.3
42298.5
42295.6
42292
42287.7
42283.3
42278.9
42274.7
42271
42269.3
42266.8
42262.5
42258.1
42253.5
42249
42244.5
42240.1
42235.8
42231.4
42227.3
42223.8
42222.3
42221.1
42217.3
42212.8
42208.3
42203.7
42198.8
42193.9
42189.4
42185
42180.7
42177
42175.3
42177.3
42175.8
42171.5
42166.7
42160.6
42153.7
42148.6
42144.1
42139.7
42135.7
42132.5
42132.2
42130.5
42126.3
42121.6
42116.4
42111.6
42107.2
42102.9
42099
42096.6
42095.1
42091.3
42086.9
42082.3
42077.9
42073.5
42069.3
42065.5
42062.9
42059.7
42055.4
42051.1
42046.7
42042.4
42038.6
42035.6
42031.9
42027.6
42023.2
42018.9
42014.7
42011
42009.6
42008
42004
41999.5
41994.9
41990.3
41985.9
41981.7
41977.9
41975.5
41972.8
41968.6
41964.3
41959.9
41955.5
41951.2
41947.2
41944.3
41941.8
41937.9
41933.5
41929.1
41924.8
41920.5
41916.4
41912.4
41908.2
41903.9
41899.5
41895.2
41891.1
41887.6
41886.9
41888.8
41886.2
41881.8
41876.9
41870.5
41864
41859.2
41854.8
41850.6
41846.7
41844
41844.2
41841.7
41837.4
41832.7
41827.7
41823.1
41818.8
41814.6
41811
41808.8
41805.8
41801.6
41797.2
41792.9
41788.5
41784.4
41780.7
41777.9
41774.3
41770.2
41766.1
41762.2
41759.1
41755.8
41751.6
41747.2
41742.9
41738.5
41734.3
41730.3
41727.4
41725.8
41722.3
41718
41713.6
41709.1
41704.8
41700.5
41696.5
41693.2
41690.4
41686.4
41682.1
41677.7
41673.4
41669.1
41665.1
41662.1
41662.4
41662
41658.1
41653.5
41648.3
41642.6
41637.9
41633.6
41629.3
41625.4
41622.5
41619.7
41615.7
41611.3
41607
41602.8
41598.8
41595.9
41593.6
41589.7
41585.3
41581
41576.7
41572.5
41568.5
41565.7
41563.1
41559
41554.7
41550.4
41546.1
41542.1
41538.7
41536.7
41533.3
41529
41524.7
41520.4
41516.1
41512
41508.6
41506.7
41503.6
41499.4
41495
41490.7
41486.3
41482.1
41478.1
41474.8
41471.8
41467.8
41463.5
41459.2
41454.9
41450.7
41446.8
41443.9
41442.5
41439.1
41434.8
41430.3
41425.4
41420.7
41416.4
41412.1
41408.2
41405.1
41405.6
41406.1
41402.5
41398.1
41392.9
41386
41380
41375.4
41371.1
41366.9
41363.1
41360.9
41361.4
41358.9
41354.6
41350
41345.1
41340.7
41336.4
41332.3
41329
41326.9
41323.5
41319.2
41314.9
41310.5
41306.2
41301.9
41297.9
41294.3
41292.5
41289.9
41285.8
41281.5
41277.1
41272.8
41268.6
41264.4
41260.5
41257.6
41254.5
41250.4
41246.3
41242.1
41238.1
41234.6
41230.6
41226.4
41222.1
41217.8
41213.6
41209.3
41205.1
41201.3
41198.5
41199.6
41200.2
41196.6
41192.2
41187.1
41180.3
41174.1
41169.5
41165.3
41161.1
41157.3
41154.8
41155.7
41154.3
41150.2
41145.7
41140.4
41134.2
41129.4
41125.1
41120.9
41116.6
41112.4
41108.5
41105.3
41105.3
41104.7
41100.9
41096.5
41091.6
41086.4
41081.9
41077.7
41073.5
41069.5
41066.3
41064.3
41060.7
41056.5
41052.3
41048
41043.8
41039.7
41035.9
41032.8
41028.9
41024.7
41020.5
41016.2
41012
41007.8
41004
41001.2
41002.2
41002.7
40999.1
40994.7
40989.8
40983.2
40977
40972.5
40968.2
40964
40959.8
40955.6
40951.5
40947.8
40945.8
40947.3
40946
40941.9
40937.4
40932.2
40926.8
40922.3
40918.1
40913.9
40910
40906.7
40903.4
40899.3
40895.1
40890.8
40886.5
40882.2
40878
40873.8
40869.8
40866.4
40865.7
40866.6
40863.5
40859.2
40854.5
40848.9
40843.8
40839.5
40835.3
40831.2
40827.5
40824.3
40820.5
40816.3
40812.1
40807.9
40803.7
40799.5
40795.5
40792
40790.9
40792.5
40790.2
40786
40781.4
40775.7
40769.6
40764.9
40760.7
40756.5
40752.7
40749.7
40748.8
40746
40741.8
40737.5
40732.8
40728
40723.6
40719.4
40715.2
40711
40706.8
40702.6
40698.4
40694.3
40690.4
40687.1
40686.9
40689
40686.6
40682.4
40677.8
40672.2
40665.4
40660.4
40656.1
40651.9
40648
40644.7
40644.4
40645.4
40642.4
40638.1
40633.4
40627.2
40620.8
40616.2
40612
40607.8
40604
40600.9
40600.4
40598.4
40594.3
40590
40585.3
40580.9
40576.7
40572.5
40568.6
40565.6
40563.6
40560.1
40556
40551.8
40547.6
40543.5
40539.6
40536.4
40533.1
40529
40524.9
40520.6
40516.4
40512.1
40508
40503.8
40500
40497
40497.2
40496.7
40492.9
40488.6
40483.7
40477.6
40472.7
40468.4
40464.3
40460.3
40456.9
40456
40455
40451.2
40446.9
40442.2
40436.2
40430.9
40426.6
40422.4
40418.3
40414.1
40410
40406
40402.4
40400.5
40403.1
40404
40400.6
40396.3
40391.5
40385
40377.6
40372.7
40368.5
40364.3
40360.3
40356.6
40354.2
40355.1
40353.6
40349.6
40345.2
40340
40333.7
40328.7
40324.4
40320.3
40316.2
40312.2
40308.8
40307.7
40308
40304.8
40300.5
40295.9
40290.3
40284.7
40280.3
40276.1
40272
40267.9
40264
40260.6
40259.8
40261.5
40259
40254.9
40250.4
40244.8
40238.2
40233.3
40229.1
40225
40221.1
40217.6
40216.5
40216.5
40213.2
40208.9
40204.3
40198.3
40192.3
40187.8
40183.7
40179.5
40175.5
40171.7
40168.8
40169.2
40169.7
40166.4
40162.1
40157.5
40151.5
40145.9
40141.5
40137.4
40133.3
40129.5
40126.7
40127.3
40126.9
40123.2
40119
40114.2
40108.7
40104
40099.8
40095.7
40091.6
40087.8
40084.2
40080.2
40076.1
40072
40067.9
40063.8
40059.7
40055.9
40052.9
40052.8
40052.7
40049.2
40045
40040.3
40034.8
40030.1
40025.9
40021.8
40017.9
40014.6
40012.8
40009.9
40005.8
40001.7
39997.4
39992.7
39988.3
39984.2
39980.1
39976.1
39972.5
39970.1
39970.3
39967.9
39963.8
39959.5
39954.6
39949.9
39945.7
39941.7
39937.7
39934
39931.5
39928.8
39924.9
39920.8
39916.7
39912.6
39908.5
39904.5
39900.7
39897.3
39893.7
39889.6
39885.6
39881.5
39877.6
39874
39871.9
39872.9
39870.9
39866.9
39862.6
39857.4
39850.9
39845.8
39841.6
39837.5
39833.6
39830
39828.3
39829
39826.5
39822.4
39818.1
39813.1
39808.3
39804.2
39800.1
39796.2
39792.7
39790.4
39787.5
39783.5
39779.5
39775.4
39771.3
39767.3
39763.3
39759.9
39756.4
39752.5
39748.4
39744.4
39740.3
39736.3
39732.5
39729.3
39729
39728.9
39725.5
39721.3
39716.8
39711.3
39706.5
39702.4
39698.3
39694.4
39690.8
39688.3
39685.8
39681.9
39677.9
39673.8
39669.8
39665.8
39662.1
39659.2
39656.3
39652.5
39648.4
39644.3
39640.1
39635.8
39631.7
39627.7
39623.7
39620
39617.3
39617.7
39616.4
39612.5
39608.3
39603.6
39598.3
39593.9
39589.9
39585.9
39582
39578.7
39576.2
39572.7
39568.7
39564.7
39560.6
39556.6
39552.6
39548.7
39545.3
39541.6
39537.6
39533.6
39529.6
39525.6
39521.8
39518.6
39518.2
39520.3
39518.1
39514.1
39509.8
39504.6
39497.2
39490.8
39486.4
39482.3
39478.3
39474.3
39470.4
39467
39465.5
39467.4
39465.9
39462
39457.8
39452.9
39447.2
39442.5
39438.4
39434.4
39430.5
39426.9
39424.3
39421.4
39417.6
39413.6
39409.5
39405.5
39401.5
39397.5
39393.8
39390.8
39388.6
39385.1
39381.1
39377
39372.8
39368
39363.4
39359.4
39355.3
39351.4
39347.8
39345.5
39347
39348
39344.8
39340.7
39336.2
39330.4
39323.7
39319
39314.9
39310.9
39306.9
39303.3
39300.8
39300.5
39298
39294
39289.9
39285.5
39281.3
39277.2
39273.3
39269.4
39266
39263.5
39260.1
39256.1
39252.1
39248.1
39244.1
39240
39236
39232
39228
39223.9
39219.9
39215.9
39211.9
39207.9
39204
39200.3
39197.3
39197.5
39200.3
39198.3
39194.3
39190.1
39185.1
39178.1
39171.7
39167.3
39163.3
39159.3
39155.4
39151.8
39149.4
39149.9
39148
39144.1
39140
39135.5
39130.9
39126.8
39122.8
39118.9
39115.2
39111.9
39108.3
39104.4
39100.4
39096.3
39092.1
39087.7
39083.6
39079.7
39075.7
39071.8
39068.2
39065.5
39066.5
39067.5
39064.4
39060.3
39056
39050.6
39044.2
39039.4
39035.3
39031.3
39027.4
39023.4
39019.5
39015.8
39012.8
39012.3
39010.6
39006.8
39002.8
38998.5
38993.4
38988.5
38984.4
38980.4
38976.5
38972.6
38968.7
38965.3
38963.7
38964.8
38962.8
38958.9
38954.7
38950
38944.8
38940.6
38936.6
38932.7
38929
38926
38925.1
38922.9
38919.1
38915.1
38910.8
38906.1
38901.7
38897.7
38893.7
38889.8
38885.9
38882
38878.1
38874.2
38870.3
38866.3
38862.4
38858.6
38855.1
38853.1
38854
38852
38848.2
38844.1
38839.4
38834.2
38829.8
38825.8
38821.9
38818
38814.4
38811.5
38808.2
38804.4
38800.5
38796.5
38792.6
38788.7
38785
38782.2
38781.1
38778.6
38774.7
38770.8
38766.8
38762.9
38759
38755.2
38751.8
38748.9
38745.2
38741.3
38737.3
38733.4
38729.4
38725.5
38721.6
38717.7
38714.2
38712.1
38712.7
38710.7
38706.8
38702.7
38698.1
38692.2
38686.9
38682.8
38678.8
38674.9
38671
38667.1
38663.1
38659.2
38655.3
38651.7
38648.7
38648.4
38649.6
38646.9
38643
38638.8
38633.8
38627.7
38622.9
38618.9
38615
38611.1
38607.6
38605.2
38605.3
38603.2
38599.4
38595.3
38590.7
38584.8
38579.8
38575.7
38571.8
38567.9
38564.3
38561.5
38561.5
38561.1
38557.7
38553.7
38549.5
38544.4
38539.7
38535.7
38531.7
38527.9
38524
38520.4
38516.9
38513
38509.1
38505.2
38501.3
38497.4
38493.6
38490
38487.1
38487.2
38487.2
38483.9
38479.9
38475.7
38470.7
38465.8
38461.7
38457.8
38454
38450.3
38447
38444.2
38440.6
38436.8
38432.8
38428.9
38424.7
38420.4
38416.4
38412.5
38408.6
38404.7
38400.8
38397
38393.7
38391.7
38393.4
38393.1
38389.7
38385.7
38381.4
38375.9
38369.4
38364.8
38360.8
38356.9
38353.1
38349.5
38346.5
38346.3
38346
38342.6
38338.6
38334.4
38329.4
38324.5
38320.4
38316.5
38312.6
38308.8
38304.9
38301.1
38297.2
38293.4
38289.5
38285.6
38281.7
38277.9
38274
38270.3
38267
38265.3
38267.3
38266.8
38263.2
38259.2
38254.9
38249.3
38242.7
38238.1
38234.2
38230.3
38226.5
38222.9
38220.1
38220
38218.6
38214.9
38210.9
38206.6
38201
38194.6
38190.1
38186.1
38182.3
38178.4
38174.7
38171.6
38170.5
38173.5
38173.3
38169.8
38165.9
38161.6
38156
38148
38142.1
38137.9
38134
38130.2
38126.4
38122.9
38120.5
38121.5
38122
38118.8
38114.9
38110.7
38105.7
38099.8
38095.3
38091.4
38087.5
38083.7
38080
38076.8
38074.1
38070.5
38066.7
38062.8
38059
38055.2
38051.4
38047.9
38045.2
38045.4
38044.1
38040.5
38036.5
38032.3
38027
38021.6
38017.4
38013.5
38009.7
38006
38002.8
38001.6
38001.5
37998.4
37994.5
37990.5
37985.7
37979.6
37974.6
37970.6
37966.8
37962.9
37959.1
37955.3
37951.7
37948.8
37948.4
37950.8
37949
37945.3
37941.3
37936.8
37930.7
37923.1
37918.1
37914.1
37910.3
37906.5
37902.7
37899.4
37897.3
37898.7
37897.9
37894.4
37890.5
37886.3
37881
37875.2
37870.9
37867
37863.2
37859.4
37856.1
37853.9
37855
37854
37850.5
37846.6
37842.4
37837.2
37831.1
37826.5
37822.6
37818.7
37814.9
37811.1
37807.3
37803.5
37799.7
37795.9
37792.1
37788.3
37784.9
37782.3
37782.8
37783.2
37780.1
37776.3
37772.2
37767.5
37762.1
37757.8
37753.9
37750.1
37746.4
37742.8
37739.9
37737.9
37734.7
37731
37727.2
37723.4
37719.6
37716
37712.7
37709.5
37705.8
37702
37698.2
37694.3
37690.1
37685.7
37681.7
37677.9
37674.1
37670.3
37666.8
37664
37664
37665.2
37662.6
37658.8
37654.8
37650.2
37643.9
37637.9
37633.7
37629.9
37626.1
37622.4
37619
37616.4
37617.1
37616.8
37613.5
37609.7
37605.6
37600.9
37595.7
37591.5
37587.7
37583.9
37580.1
37576.4
37572.9
37569.3
37565.5
37561.7
37558
37554.2
37550.4
37546.7
37543.1
37540.1
37539.3
37538.9
37535.7
37531.9
37527.9
37523.3
37518.1
37513.9
37510.1
37506.3
37502.6
37499.3
37497.3
37497.5
37495
37491.3
37487.4
37483.1
37477.5
37471.6
37467.4
37463.6
37459.8
37456.1
37452.3
37448.6
37445
37441.9
37440.8
37443.2
37442.1
37438.6
37434.7
37430.6
37425.5
37419
37414.2
37410.3
37406.5
37402.8
37399.1
37395.8
37394
37394.1
37391.5
37387.8
37383.9
37379.8
37375.4
37371.5
37367.7
37364
37360.3
37356.7
37353.2
37349.5
37345.7
37342
37338.2
37334.2
37330
37325.9
37322.2
37318.4
37314.7
37310.9
37307.2
37303.6
37300.5
37299.3
37302.3
37302.7
37299.5
37295.7
37291.8
37287.2
37280.5
37272.9
37268.2
37264.3
37260.6
37256.8
37253.1
37249.3
37245.6
37241.9
37238.2
37234.6
37231.4
37229.9
37232
37231.3
37227.9
37224.1
37220.1
37215.2
37209.3
37204.8
37200.9
37197.2
37193.5
37190
37187.2
37186.6
37185.2
37181.7
37177.9
37173.9
37169.2
37163.5
37159.2
37155.4
37151.7
37148
37144.6
37142.2
37142.6
37141.7
37138.3
37134.5
37130.6
37126
37120.9
37116.7
37112.9
37109.2
37105.4
37101.7
37098
37094.2
37090.3
37086.1
37082.1
37078.3
37074.6
37070.9
37067.2
37063.6
37060.3
37058.4
37060
37059.7
37056.4
37052.7
37048.7
37044.2
37039
37034.9
37031.1
37027.4
37023.8
37020.3
37017.5
37014.4
37010.8
37007.1
37003.3
36999.4
36994.8
36990.1
36986.2
36982.5
36978.8
36975.2
36972
36970.3
36972.7
36973.6
36970.6
36966.9
36963
36958.7
36952.7
36946.2
36941.8
36938.1
36934.4
36930.7
36927
36923.3
36919.7
36916.3
36913.8
36913.3
36911.1
36907.5
36903.8
36899.9
36895.7
36890.4
36885.4
36881.5
36877.8
36874.1
36870.4
36866.7
36863.1
36859.6
36856.7
36855.9
36857.8
36855.9
36852.3
36848.6
36844.6
36839.8
36833.6
36828.8
36825
36821.3
36817.6
36813.9
36810.2
36806.5
36802.8
36799.2
36795.6
36792.5
36790.8
36791
36788.5
36784.8
36781.1
36777.1
36772.9
36769
36765.3
36761.6
36758
36754.5
36751.3
36748.3
36744.8
36741.1
36737.4
36733.7
36730
36726.3
36722.7
36719
36715.5
36712.2
36710.2
36710.2
36707.8
36704.2
36700.5
36696.7
36692.6
36688.8
36685.1
36681.5
36677.8
36674.2
36670.7
36667
36663.4
36659.7
36656.1
36652.4
36648.7
36645.1
36641.5
36638.3
36636.2
36634.6
36631.4
36627.8
36624.1
36620.3
36616.3
36612.4
36608.7
36605
36601.4
36598.1
36595.7
36594.7
36592.1
36588.5
36584.8
36581
36576.8
36572.6
36568.8
36565.2
36561.5
36558
36554.8
36552.4
36549.3
36545.7
36542.1
36538.4
36534.6
36530.4
36526
36522.2
36518.5
36514.9
36511.2
36507.6
36504.2
36501.4
36500.8
36500.8
36497.8
36494.2
36490.4
36486.3
36481.4
36477
36473.2
36469.6
36466
36462.5
36459.6
36458.4
36456.8
36453.5
36449.8
36446.1
36442
36437.1
36432.7
36428.9
36425.3
36421.7
36418.2
36415.2
36414.1
36413.3
36410.1
36406.5
36402.8
36398.9
36394.6
36390.5
36386.7
36383.1
36379.5
36375.8
36372.2
36368.6
36364.9
36361.1
36357.1
36353.3
36349.6
36346
36342.4
36338.8
36335.5
36333.1
36333.7
36335.1
36332.6
36329
36325.3
36321.3
36316.3
36309.9
36305.2
36301.4
36297.8
36294.2
36290.6
36287.3
36284.6
36283.5
36281.1
36277.6
36273.9
36270.2
36266.2
36261.3
36256.2
36252.2
36248.6
36245
36241.4
36237.8
36234.4
36231.5
36230.7
36231.4
36228.9
36225.3
36221.6
36217.7
36213.1
36208.5
36204.7
36201.1
36197.5
36194
36190.8
36188.8
36189.1
36186.9
36183.4
36179.8
36175.9
36171.5
36165.5
36160.1
36156.2
36152.6
36149
36145.4
36141.8
36138.2
36134.6
36131
36127.4
36123.8
36120.5
36117.6
36117
36117.8
36115.2
36111.6
36108
36104.2
36099.8
36095.6
36092
36088.4
36084.8
36081.4
36078.4
36077.2
36075.8
36072.5
36068.9
36065.2
36061.4
36056.7
36050.9
36046.4
36042.7
36039.1
36035.5
36031.9
36028.3
36024.8
36021.2
36017.6
36014
36010.6
36007.4
36005.5
36006.1
36004.3
36000.8
35997.2
35993.5
35989.2
35984.3
35980.3
35976.6
35973.1
35969.5
35966.1
35963.1
35961.6
35959.7
35956.3
35952.8
35949.2
35945.6
35941.8
35937.8
35934.2
35930.6
35927
35923.5
35919.9
35916.3
35912.8
35909.2
35905.8
35902.7
35901
35900.1
35897.1
35893.6
35890
35886.4
35882.7
35878.6
35874.3
35870.7
35867.1
35863.5
35860
35856.7
35853.9
35853.3
35852.3
35849.1
35845.5
35841.9
35838.1
35833.7
35829.6
35825.9
35822.4
35818.8
35815.3
35811.7
35808.2
35804.6
35801.1
35797.5
35793.9
35790
35785.9
35782.2
35778.6
35775.1
35771.5
35768
35764.6
35761.6
35760
35759
35756
35752.4
35748.9
35745.2
35741.2
35737.2
35733.6
35730
35726.5
35723.1
35720.1
35718.6
35717.8
35714.8
35711.2
35707.7
35703.9
35699.6
35695.5
35691.9
35688.4
35684.9
35681.5
35678.7
35677
35674.3
35670.9
35667.3
35663.7
35659.9
35655.4
35651.2
35647.6
35644.1
35640.6
35637.2
35634.4
35633.2
35631.6
35628.3
35624.7
35621.2
35617.4
35613.3
35609.4
35605.8
35602.3
35598.8
35595.4
35592.3
35590.2
35587.5
35584
35580.5
35577
35573.5
35570
35566.4
35562.8
35559
35554.6
35550.5
35546.9
35543.4
35539.8
35536.3
35532.8
35529.3
35525.9
35522.9
35521.1
35522.8
35522.9
35519.9
35516.4
35512.8
35509
35504.3
35498.2
35493.6
35489.9
35486.4
35482.9
35479.5
35476.2
35473.6
35471.4
35468.1
35464.7
35461.1
35457.6
35453.8
35449.5
35445.2
35441.5
35438
35434.5
35431
35427.6
35424.6
35423.1
35424.8
35424.2
35421
35417.5
35413.9
35410
35405.3
35398.5
35392.9
35389.1
35385.5
35382
35378.5
35375
35371.5
35368
35364.5
35361.1
35357.9
35355.5
35355.8
35357
35354.5
35351
35347.5
35343.9
35339.9
35334.8
35329.5
35325.6
35322.1
35318.6
35315.1
35311.6
35308.1
35304.6
35301
35297.2
35293.5
35290
35286.5
35283
35279.5
35276.1
35272.7
35269.6
35267.4
35268.5
35269.8
35267.2
35263.8
35260.3
35256.6
35252.4
35246.4
35239.2
35234.7
35231.1
35227.6
35224.1
35220.6
35217.2
35213.8
35210.6
35208.3
35208.7
35208.1
35205
35201.5
35197.9
35194.2
35189.5
35183.1
35178
35174.3
35170.8
35167.3
35163.9
35160.6
35157.8
35157.1
35159.7
35158.8
35155.6
35152.2
35148.6
35144.9
35140.2
35134.2
35129.6
35126
35122.5
35119
35115.5
35112.1
35108.7
35105.5
35102.4
35099.1
35095.7
35092.2
35088.8
35085.4
35082.2
35079.5
35078.9
35078.2
35075.2
35071.7
35068.3
35064.6
35060.5
35054.9
35048.8
35044.7
35041.1
35037.7
35034.2
35030.8
35027.3
35023.9
35020.5
35017.3
35014.7
35014.5
35016.9
35015.3
35012
35008.6
35005
35001.3
34996.9
34991.2
34986.9
34983.3
34979.8
34976.3
34972.9
34969.4
34966
34962.6
34959.1
34955.6
34952.1
34948.5
34945
34941.5
34938.1
34934.6
34931.2
34927.9
34925
34923.6
34923.5
34920.9
34917.5
34914
34910.5
34906.7
34902.2
34898.1
34894.6
34891.2
34887.8
34884.4
34881.1
34878.2
34875.2
34871.9
34868.4
34865
34861.5
34857.9
34854.1
34850.6
34847.1
34843.7
34840.3
34837.1
34834.4
34833.5
34832.1
34829
34825.5
34822.1
34818.5
34814.4
34809.7
34805.9
34802.4
34799
34795.6
34792.4
34789.7
34788.5
34786.5
34783.3
34779.9
34776.4
34772.8
34768.7
34764.4
34760.8
34757.3
34753.9
34750.6
34747.5
34745.3
34744.8
34742.6
34739.3
34735.9
34732.4
34728.7
34724.3
34718.9
34714.7
34711.2
34707.8
34704.4
34701
34697.6
34694.2
34690.8
34687.8
34685.6
34686
34684.8
34681.6
34678.2
34674.8
34671.3
34667.3
34662.3
34657.4
34653.7
34650.3
34646.8
34643.4
34640
34636.6
34633.3
34629.9
34626.7
34623.9
34623.1
34623.7
34621.3
34618
34614.6
34611.1
34607.4
34602.8
34596.5
34591.8
34588.1
34584.7
34581.3
34577.9
34574.5
34571.2
34568
34565.3
34564.4
34563.2
34560.2
34556.8
34553.4
34550
34546.4
34542.9
34539.5
34536.1
34532.8
34529.4
34526.3
34523.3
34520
34516.6
34513.3
34509.8
34506.2
34502.2
34497.7
34494.1
34490.7
34487.3
34484
34480.7
34477.8
34476.1
34477
34475.4
34472.2
34468.8
34465.4
34461.9
34458
34453.6
34449.9
34446.5
34443.1
34439.7
34436.3
34433
34429.7
34426.4
34423
34419.6
34416.2
34412.9
34409.5
34406.2
34402.9
34399.8
34397.6
34395.3
34392.1
34388.8
34385.4
34382
34378.5
34374.9
34371.5
34368.1
34364.7
34361.4
34358.2
34355.6
34354.4
34352.1
34348.9
34345.5
34342.1
34338.6
34334.8
34330.6
34327
34323.6
34320.3
34316.9
34313.7
34310.9
34309.1
34306.6
34303.4
34300
34296.6
34293.3
34289.8
34286.2
34282
34277.6
34274.1
34270.7
34267.3
34263.9
34260.6
34257.2
34253.9
34250.5
34247.2
34243.8
34240.5
34237.3
34234.6
34233.7
34234.9
34233.1
34229.9
34226.5
34223.1
34219.7
34215.9
34211.1
34204.6
34200
34196.5
34193.1
34189.7
34186.4
34183
34179.7
34176.3
34173
34169.7
34166.4
34163.4
34161.4
34162
34161.1
34158.1
34154.7
34151.4
34147.9
34144.2
34139.9
34136
34132.5
34129.2
34125.8
34122.5
34119.4
34116.6
34114.5
34111.7
34108.4
34105.1
34101.7
34098.4
34095
34091.5
34087.6
34083.7
34080.3
34076.9
34073.6
34070.3
34066.9
34063.6
34060.3
34057
34053.7
34050.8
34048.8
34048.3
34045.9
34042.7
34039.4
34036
34032.6
34028.9
34024.1
34018.9
34015.1
34011.8
34008.4
34005.1
34001.8
33998.5
33995.3
33992.3
33990.3
33991.3
33991
33988.2
33984.9
33981.5
33978.1
33974.4
33969.6
33962.6
33957.1
33953.4
33950
33946.7
33943.4
33940.1
33936.9
33934
33932.3
33934
33934.4
33931.7
33928.4
33925.1
33921.7
33918.2
33914.1
33908.3
33903
33899.3
33895.9
33892.6
33889.3
33886
33882.7
33879.4
33876.1
33872.8
33869.8
33867.5
33865.4
33862.4
33859.1
33855.8
33852.5
33849.1
33845.7
33842
33838.7
33835.3
33832
33828.8
33825.6
33822.8
33821.3
33821.2
33818.8
33815.6
33812.3
33809
33805.5
33801.6
33796.3
33790.5
33786.6
33783.3
33779.9
33776.7
33773.4
33770.1
33766.8
33763.5
33760.3
33757.5
33755.9
33756.4
33754.5
33751.3
33748.1
33744.7
33741.4
33737.8
33733.8
33730.3
33727
33723.7
33720.4
33717.3
33714.4
33712.3
33709.7
33706.5
33703.2
33699.9
33696.5
33692.9
33688.5
33682.9
33678.9
33675.5
33672.2
33668.9
33665.6
33662.3
33659.1
33656.2
33654.1
33654.3
33653.1
33650.1
33646.9
33643.6
33640.2
33636.7
33632.3
33627.8
33624.3
33621
33617.7
33614.5
33611.3
33608.4
33606.6
33606
33603.5
33600.3
33597.1
33593.8
33590.5
33587.2
33583.8
33580.1
33576
33572.3
33568.9
33565.6
33562.1
33558.4
33554.5
33551
33547.7
33544.4
33541.2
33537.9
33534.7
33531.4
33528.2
33525
33522.1
33520.3
33520.9
33519.4
33516.3
33513.1
33509.8
33506.5
33503.2
33499.7
33495.7
33492.1
33488.8
33485.5
33482.2
33479
33475.7
33472.4
33469.2
33465.8
33462.4
33458.4
33453.5
33449.4
33446.1
33442.8
33439.5
33436.3
33433
33429.8
33426.7
33424
33422.8
33424.4
33423.3
33420.3
33417.1
33413.8
33410.5
33407.1
33403.1
33397.5
33391.8
33388
33384.7
33381.4
33378.2
33374.9
33371.7
33368.4
33365.2
33362
33358.8
33355.9
33353.8
33353.3
33351.3
33348.2
33344.9
33341.7
33338.4
33335.1
33331.6
33328
33324.7
33321.4
33318.2
33314.9
33311.7
33308.5
33305.4
33302.2
33298.9
33295.7
33292.5
33289.2
33286
33282.8
33279.6
33276.5
33273.7
33270.8
33267.6
33264.4
33261.2
33257.9
33254.7
33251.5
33248.3
33245.1
33242
33239.2
33237.4
33235.6
33232.7
33229.5
33226.2
33223
33219.7
33216.2
33212
33208.2
33204.9
33201.7
33198.5
33195.3
33192.2
33189.3
33187.4
33185
33181.9
33178.7
33175.5
33172.2
33168.9
33165.4
33161.5
33158.1
33154.9
33151.7
33148.4
33145.3
33142.3
33139.8
33138.6
33136.3
33133.2
33130
33126.8
33123.5
33120.3
33116.9
33113.1
33109.1
33105.7
33102.4
33099.2
33096
33092.8
33089.6
33086.4
33083.3
33080.2
33077.7
33076.3
33074.1
33071.1
33067.9
33064.7
33061.5
33058.2
33054.7
33050.5
33045.7
33041.9
33038.7
33035.5
33032.3
33029.1
33025.9
33022.7
33019.8
33017.4
33017.2
33017
33014.4
33011.2
33008
33004.8
33001.6
32998.3
32994.6
32989.8
32984.3
32980.5
32977.2
32974
32970.8
32967.6
32964.4
32961.2
32958
32954.8
32951.7
32948.6
32946
32944.8
32944.4
32941.8
32938.7
32935.5
32932.3
32929
32925.5
32921.1
32915.1
32910.7
32907.3
32904.1
32900.9
32897.7
32894.5
32891.5
32888.9
32888
32890.2
32889.3
32886.4
32883.3
32880.1
32876.9
32873.5
32869.7
32864.4
32857.5
32853.1
32849.7
32846.5
32843.3
32840.1
32837
32833.8
32830.6
32827.5
32824.6
32822.4
32822.1
32820.7
32817.8
32814.6
32811.5
32808.3
32805
32801.4
32797.1
32793.2
32789.9
32786.7
32783.6
32780.4
32777.3
32774.3
32771.7
32769
32765.9
32762.7
32759.5
32756.4
32753.2
32750.1
32746.9
32743.8
32740.7
32737.9
32735.6
32732.9
32729.8
32726.6
32723.5
32720.3
32717.1
32714
32710.7
32707.4
32704.2
32701
32697.9
32694.7
32691.5
32688.4
32685.3
32682.2
32679.4
32677.3
32674.8
32671.7
32668.6
32665.4
32662.2
32659.1
32655.9
32652.7
32649.5
32646.2
32643
32639.8
32636.7
32633.5
32630.4
32627.3
32624.2
32621.2
32618.3
32615.2
32612.1
32608.9
32605.8
32602.7
32599.7
32596.7
32593.6
32590.4
32587.3
32584.2
32581
32577.8
32574.7
32571.5
32568.4
32565.3
32562.2
32559.4
32557.5
32556.4
32553.8
32550.7
32547.6
32544.4
32541.2
32538
32534.5
32530.1
32525.4
32521.9
32518.7
32515.6
32512.4
32509.3
32506.2
32503.1
32500
32497
32494.5
32493.5
32492.2
32489.3
32486.2
32483.1
32480
32476.8
32473.7
32470.5
32467.4
32464.3
32461.1
32458
32454.9
32451.8
32448.6
32445.5
32442.4
32439.2
32435.8
32431.9
32426.8
32422.7
32419.4
32416.3
32413.1
32410
32406.9
32403.8
32400.7
32397.8
32395.3
32394.6
32394.5
32392.1
32389.1
32385.9
32382.8
32379.7
32376.4
32372.9
32368.2
32363.1
32359.6
32356.4
32353.2
32350.1
32347
32343.9
32340.8
32337.7
32334.7
32332.1
32330.8
32330.6