/*--------------------------------*- C++ -*----------------------------------*\
  =========                 |
  \\      /  F ield         | OpenFOAM: The Open Source CFD Toolbox
   \\    /   O peration     | Website:  https://openfoam.org
    \\  /    A nd           | Version:  9
     \\/     M anipulation  |
\*---------------------------------------------------------------------------*/
FoamFile
{
    format      ascii;
    class       volScalarField;
    location    "0.04";
    object      rho;
}
// * * * * * * * * * * * * * * * * * * * * * * * * * * * * * * * * * * * * * //

dimensions      [1 -3 0 0 0 0 0];

internalField   nonuniform List<scalar> 
10000
(
0.570779
0.570723
0.570689
0.570652
0.570615
0.570579
0.570542
0.570506
0.57047
0.570433
0.570397
0.57036
0.570324
0.570287
0.570251
0.570214
0.570178
0.570142
0.570105
0.570069
0.570032
0.569996
0.569959
0.569923
0.569887
0.56985
0.569814
0.569777
0.569741
0.569705
0.569668
0.569632
0.569595
0.569559
0.569523
0.569486
0.56945
0.569414
0.569377
0.569341
0.569304
0.569268
0.569232
0.569195
0.569159
0.569123
0.569086
0.56905
0.569014
0.568977
0.568941
0.568904
0.568868
0.568832
0.568795
0.568759
0.568722
0.568686
0.56865
0.568613
0.568577
0.568541
0.568504
0.568468
0.568431
0.568395
0.568359
0.568323
0.568286
0.56825
0.568213
0.568177
0.56814
0.568104
0.568067
0.568031
0.567995
0.567958
0.567922
0.567886
0.56785
0.567813
0.567777
0.567741
0.567705
0.567668
0.567632
0.567596
0.56756
0.567524
0.567487
0.567451
0.567414
0.567378
0.567342
0.567306
0.56727
0.567234
0.567198
0.567161
0.567125
0.567088
0.567052
0.567016
0.56698
0.566944
0.566908
0.566871
0.566835
0.566798
0.566762
0.566726
0.56669
0.566655
0.566619
0.566582
0.566545
0.566508
0.566471
0.566436
0.566401
0.566366
0.56633
0.566292
0.566255
0.566218
0.566181
0.566146
0.566111
0.566075
0.566038
0.566001
0.565965
0.565929
0.565894
0.565857
0.565821
0.565784
0.565747
0.565712
0.565677
0.565642
0.565605
0.565567
0.565529
0.565493
0.56546
0.565427
0.565391
0.565352
0.565313
0.565274
0.565237
0.565205
0.565175
0.56514
0.565101
0.565061
0.565021
0.564983
0.564949
0.564919
0.564886
0.564848
0.564809
0.56477
0.564732
0.564695
0.564663
0.564633
0.564598
0.564559
0.564518
0.564479
0.564441
0.564409
0.564385
0.56435
0.564308
0.564267
0.564225
0.564185
0.564149
0.564125
0.564098
0.564059
0.564016
0.563975
0.563933
0.563895
0.563863
0.56384
0.563806
0.563765
0.563724
0.563683
0.563644
0.56361
0.563588
0.563558
0.563517
0.563475
0.563433
0.563393
0.563358
0.563337
0.56331
0.563269
0.563226
0.563183
0.56314
0.5631
0.563064
0.563047
0.563022
0.562981
0.562937
0.562894
0.562851
0.56281
0.562772
0.56275
0.562728
0.562689
0.562647
0.562605
0.562565
0.562533
0.56251
0.562474
0.562431
0.562389
0.562347
0.56231
0.562286
0.562264
0.562224
0.562181
0.562138
0.562095
0.562054
0.562016
0.561994
0.561975
0.561936
0.561893
0.561849
0.561807
0.561766
0.56173
0.56171
0.561684
0.561643
0.561601
0.561558
0.561519
0.56149
0.56147
0.561434
0.561391
0.561348
0.561306
0.561265
0.56123
0.561212
0.561185
0.561143
0.5611
0.561057
0.561015
0.560975
0.560943
0.560927
0.560895
0.560853
0.56081
0.560767
0.560725
0.560686
0.560657
0.56064
0.560606
0.560563
0.56052
0.560477
0.560436
0.560398
0.560375
0.560354
0.560315
0.560272
0.560229
0.560187
0.560147
0.560113
0.560089
0.560058
0.560022
0.559986
0.559958
0.559927
0.559887
0.559844
0.559802
0.55976
0.55972
0.55969
0.559671
0.559636
0.559594
0.559551
0.559509
0.559467
0.559429
0.559405
0.559386
0.559348
0.559305
0.559262
0.559219
0.559178
0.559141
0.559119
0.559098
0.559058
0.559016
0.558973
0.558931
0.558892
0.558864
0.558845
0.558808
0.558766
0.558724
0.558682
0.558645
0.558622
0.5586
0.558561
0.558518
0.558476
0.558433
0.558393
0.558359
0.558341
0.558312
0.55827
0.558227
0.558185
0.558143
0.558103
0.558069
0.558053
0.558025
0.557984
0.557941
0.557899
0.557857
0.557818
0.557789
0.557772
0.557738
0.557696
0.557653
0.557611
0.557571
0.557536
0.557518
0.557489
0.557448
0.557405
0.557363
0.557321
0.557282
0.55725
0.557235
0.557203
0.557161
0.557118
0.557074
0.557032
0.556991
0.556955
0.556937
0.556922
0.556884
0.556841
0.556796
0.556753
0.556712
0.556673
0.556645
0.556629
0.556595
0.556553
0.55651
0.556468
0.556427
0.556389
0.556365
0.556343
0.556305
0.556262
0.55622
0.556178
0.556139
0.556106
0.556089
0.556059
0.556017
0.555974
0.555932
0.55589
0.555851
0.555821
0.555806
0.555774
0.555732
0.555689
0.555646
0.555604
0.555564
0.55553
0.555514
0.555488
0.555447
0.555404
0.555359
0.555316
0.555275
0.555235
0.555203
0.555195
0.555178
0.555137
0.555093
0.555047
0.555004
0.554963
0.554924
0.554896
0.55488
0.554845
0.554803
0.554761
0.55472
0.55468
0.554649
0.55462
0.55458
0.554538
0.554496
0.554454
0.554413
0.554375
0.55435
0.554357
0.554341
0.5543
0.554255
0.554201
0.554154
0.554112
0.554071
0.554034
0.554011
0.55399
0.553951
0.553909
0.553867
0.553825
0.553784
0.553748
0.553725
0.553701
0.553662
0.55362
0.553577
0.553535
0.553494
0.553456
0.553428
0.553415
0.553383
0.553341
0.553297
0.553254
0.553212
0.553172
0.553137
0.553124
0.553121
0.553086
0.553042
0.552993
0.552944
0.552901
0.55286
0.552822
0.552796
0.552779
0.552743
0.552701
0.552658
0.552616
0.552575
0.552536
0.552505
0.552491
0.552461
0.55242
0.552377
0.552335
0.552294
0.552254
0.552221
0.552206
0.55218
0.55214
0.552098
0.552056
0.552015
0.551977
0.551948
0.551919
0.551879
0.551838
0.551795
0.551753
0.551712
0.551671
0.551636
0.551621
0.55163
0.551604
0.551562
0.551515
0.551463
0.551418
0.551377
0.551337
0.551301
0.551279
0.551249
0.551209
0.551167
0.551125
0.551084
0.551044
0.551008
0.550987
0.550967
0.550929
0.550887
0.550844
0.550802
0.550761
0.550722
0.550693
0.550694
0.550679
0.550639
0.550594
0.550543
0.550497
0.550455
0.550415
0.550379
0.550356
0.550331
0.550292
0.55025
0.550209
0.550168
0.55013
0.550101
0.55008
0.550044
0.550002
0.549961
0.54992
0.549881
0.549848
0.549829
0.549796
0.549755
0.549714
0.549672
0.549631
0.549592
0.549558
0.549547
0.549533
0.549494
0.549452
0.549408
0.549367
0.549326
0.549288
0.549257
0.549226
0.549186
0.549146
0.549106
0.549068
0.549041
0.549022
0.548987
0.548945
0.548904
0.548862
0.548822
0.548783
0.548754
0.54873
0.548693
0.548652
0.54861
0.548568
0.548527
0.548487
0.548451
0.548431
0.548442
0.548423
0.548382
0.548337
0.548285
0.548239
0.548197
0.548156
0.548117
0.548082
0.548055
0.548022
0.547984
0.547946
0.547913
0.547889
0.547856
0.547816
0.547774
0.547733
0.547692
0.547652
0.547614
0.547589
0.547571
0.547535
0.547494
0.547451
0.547407
0.547366
0.547325
0.547287
0.547259
0.547263
0.547255
0.547217
0.547174
0.547123
0.547076
0.547034
0.546994
0.546956
0.546927
0.546899
0.54686
0.546819
0.546779
0.546739
0.546702
0.546679
0.546662
0.546626
0.546585
0.546543
0.546502
0.546462
0.546426
0.5464
0.546373
0.546334
0.546293
0.546252
0.546212
0.546177
0.546152
0.546123
0.546083
0.546042
0.546
0.545958
0.545918
0.545878
0.545844
0.545833
0.545844
0.545818
0.545776
0.54573
0.545678
0.545634
0.545594
0.545554
0.545518
0.545489
0.545455
0.545415
0.545374
0.545333
0.545293
0.545257
0.545236
0.545221
0.545186
0.545145
0.545102
0.54506
0.54502
0.544981
0.544946
0.544926
0.544902
0.544863
0.544822
0.544781
0.54474
0.544702
0.544669
0.544654
0.544628
0.544588
0.544547
0.544506
0.544466
0.544427
0.544396
0.544369
0.544331
0.54429
0.544249
0.544209
0.544171
0.544139
0.544124
0.544097
0.544057
0.544016
0.543974
0.543933
0.543893
0.543855
0.543828
0.543807
0.54377
0.54373
0.543687
0.543642
0.5436
0.543559
0.54352
0.543485
0.543467
0.543484
0.543473
0.543434
0.54339
0.543335
0.543272
0.543226
0.543185
0.543145
0.543108
0.543079
0.543078
0.543061
0.543021
0.542978
0.54293
0.542887
0.542846
0.542807
0.542772
0.542753
0.542732
0.542694
0.542653
0.542612
0.542572
0.542532
0.542496
0.542472
0.542446
0.542407
0.542367
0.542326
0.542286
0.542249
0.542221
0.542199
0.542164
0.542123
0.542083
0.542042
0.542003
0.541969
0.541947
0.541919
0.541879
0.541839
0.541798
0.541758
0.541718
0.541682
0.54166
0.541644
0.541608
0.541567
0.541526
0.541485
0.541445
0.541406
0.541372
0.541351
0.54132
0.541281
0.54124
0.541197
0.541155
0.541115
0.541075
0.541039
0.541016
0.541027
0.541019
0.540982
0.540939
0.540887
0.540836
0.540794
0.540753
0.540714
0.540679
0.540653
0.540621
0.540581
0.540541
0.540501
0.540462
0.540429
0.540413
0.54039
0.540351
0.54031
0.540268
0.540227
0.540187
0.540147
0.540107
0.540067
0.54003
0.539997
0.539984
0.539973
0.539938
0.539897
0.539856
0.539814
0.539769
0.539724
0.539683
0.539643
0.539604
0.53957
0.539554
0.539572
0.539559
0.53952
0.539476
0.53942
0.539357
0.53931
0.539269
0.53923
0.539192
0.539163
0.539161
0.539145
0.539106
0.539064
0.539017
0.538972
0.538932
0.538893
0.538857
0.538835
0.538821
0.538786
0.538746
0.538705
0.538664
0.538624
0.538585
0.538551
0.538527
0.538498
0.538459
0.538419
0.538379
0.53834
0.538305
0.538278
0.538244
0.538204
0.538164
0.538124
0.538086
0.538053
0.53804
0.538025
0.537989
0.537948
0.537905
0.537863
0.537823
0.537784
0.537749
0.537727
0.537703
0.537665
0.537625
0.537585
0.537545
0.537505
0.537469
0.537442
0.53742
0.537384
0.537344
0.537303
0.537264
0.537224
0.537187
0.537151
0.537112
0.537072
0.537032
0.536993
0.536955
0.536923
0.536917
0.536934
0.53691
0.53687
0.536825
0.536767
0.536707
0.536663
0.536623
0.536584
0.536548
0.536524
0.536526
0.536503
0.536464
0.536421
0.536375
0.536333
0.536293
0.536255
0.536222
0.536202
0.536174
0.536136
0.536096
0.536056
0.536016
0.535978
0.535944
0.535918
0.535886
0.535848
0.535811
0.535775
0.535747
0.535716
0.535677
0.535638
0.535598
0.535558
0.535519
0.535483
0.535456
0.535442
0.535409
0.53537
0.535329
0.535288
0.535249
0.53521
0.535172
0.535143
0.535117
0.53508
0.535041
0.535001
0.534961
0.534922
0.534885
0.534857
0.534861
0.534856
0.534821
0.534779
0.534731
0.534678
0.534636
0.534596
0.534557
0.534521
0.534494
0.534469
0.534431
0.534392
0.534352
0.534313
0.534277
0.534251
0.534229
0.534193
0.534153
0.534114
0.534074
0.534035
0.533999
0.533973
0.533949
0.533912
0.533872
0.533833
0.533794
0.533756
0.533726
0.533707
0.533676
0.533637
0.533597
0.533557
0.533518
0.533481
0.533449
0.533432
0.533403
0.533364
0.533325
0.533285
0.533245
0.533206
0.533169
0.533139
0.533112
0.533075
0.533035
0.532996
0.532956
0.532918
0.532882
0.532856
0.532843
0.532811
0.532772
0.532731
0.532686
0.532643
0.532603
0.532564
0.532527
0.532499
0.532504
0.532508
0.532476
0.532434
0.532387
0.532324
0.532268
0.532226
0.532187
0.532148
0.532113
0.532093
0.532097
0.532074
0.532035
0.531992
0.531948
0.531907
0.531868
0.531831
0.5318
0.53178
0.531749
0.53171
0.53167
0.53163
0.53159
0.531551
0.531514
0.531481
0.531464
0.531441
0.531403
0.531364
0.531323
0.531284
0.531244
0.531206
0.53117
0.531143
0.531115
0.531078
0.531039
0.531001
0.530965
0.530932
0.530895
0.530856
0.530817
0.530778
0.530739
0.5307
0.530661
0.530626
0.5306
0.530611
0.530615
0.530583
0.530542
0.530495
0.530432
0.530376
0.530333
0.530294
0.530256
0.530221
0.530198
0.530207
0.530194
0.530156
0.530115
0.530065
0.530009
0.529965
0.529925
0.529886
0.529847
0.529808
0.529772
0.529743
0.529742
0.529737
0.529702
0.529662
0.529616
0.529569
0.529528
0.529488
0.52945
0.529413
0.529384
0.529365
0.529332
0.529294
0.529254
0.529215
0.529176
0.529138
0.529104
0.529075
0.529039
0.529001
0.528962
0.528923
0.528883
0.528845
0.52881
0.528785
0.528794
0.528798
0.528765
0.528725
0.528679
0.528618
0.528562
0.528519
0.52848
0.528441
0.528402
0.528364
0.528326
0.528292
0.528274
0.528288
0.528275
0.528238
0.528197
0.528148
0.528099
0.528058
0.528019
0.52798
0.527944
0.527913
0.527883
0.527845
0.527806
0.527767
0.527727
0.527687
0.527649
0.52761
0.527573
0.527542
0.527536
0.527544
0.527515
0.527476
0.527432
0.52738
0.527334
0.527294
0.527255
0.527218
0.527183
0.527154
0.527119
0.52708
0.527041
0.527002
0.526963
0.526925
0.526888
0.526856
0.526845
0.526861
0.52684
0.526801
0.526758
0.526706
0.526649
0.526606
0.526567
0.526529
0.526493
0.526466
0.526457
0.526431
0.526393
0.526353
0.52631
0.526265
0.526225
0.526186
0.526147
0.526108
0.52607
0.526031
0.525992
0.525954
0.525918
0.525888
0.525886
0.525905
0.525883
0.525844
0.525802
0.52575
0.525687
0.525641
0.525602
0.525563
0.525527
0.525497
0.525493
0.525503
0.525475
0.525436
0.525392
0.525335
0.525276
0.525233
0.525194
0.525156
0.52512
0.525092
0.525087
0.525069
0.525031
0.524991
0.524948
0.524907
0.524868
0.52483
0.524794
0.524766
0.524747
0.524715
0.524677
0.524638
0.5246
0.524562
0.524526
0.524496
0.524466
0.524428
0.52439
0.524351
0.524311
0.524272
0.524233
0.524195
0.52416
0.524132
0.524134
0.524129
0.524094
0.524054
0.524009
0.523953
0.523907
0.523868
0.523829
0.523793
0.523761
0.523753
0.523744
0.523709
0.523669
0.523625
0.52357
0.523521
0.523481
0.523442
0.523404
0.523366
0.523327
0.52329
0.523257
0.52324
0.523263
0.523272
0.523241
0.523201
0.523156
0.523096
0.523028
0.522983
0.522943
0.522905
0.522867
0.522833
0.522811
0.52282
0.522806
0.522769
0.522728
0.52268
0.522622
0.522575
0.522536
0.522498
0.52246
0.522423
0.522392
0.522381
0.522384
0.522354
0.522315
0.522272
0.52222
0.522168
0.522127
0.522089
0.52205
0.522012
0.521976
0.521945
0.521938
0.521953
0.52193
0.521892
0.52185
0.521798
0.521738
0.521693
0.521654
0.521616
0.521579
0.521547
0.521537
0.521537
0.521506
0.521467
0.521424
0.521368
0.521313
0.521271
0.521232
0.521194
0.521157
0.521122
0.521095
0.521099
0.521104
0.521072
0.521033
0.52099
0.520935
0.520882
0.520842
0.520804
0.520766
0.520731
0.520705
0.52071
0.520707
0.520673
0.520633
0.520589
0.520537
0.520494
0.520455
0.520417
0.52038
0.520344
0.520311
0.520274
0.520236
0.520198
0.52016
0.520122
0.520084
0.520049
0.52002
0.52002
0.520019
0.519986
0.519947
0.519904
0.519852
0.519809
0.51977
0.519732
0.519696
0.519666
0.519649
0.519621
0.519584
0.519546
0.519505
0.519462
0.519422
0.519384
0.519346
0.519308
0.519275
0.519253
0.519255
0.519232
0.519194
0.519154
0.519109
0.519065
0.519027
0.518989
0.518952
0.518918
0.518894
0.51887
0.518833
0.518795
0.518757
0.518719
0.518681
0.518644
0.518609
0.518577
0.518543
0.518506
0.518468
0.518431
0.518394
0.518361
0.518342
0.51835
0.518332
0.518295
0.518254
0.518206
0.518146
0.518099
0.51806
0.518022
0.517985
0.517953
0.517936
0.517943
0.51792
0.517882
0.517841
0.517795
0.517751
0.517712
0.517675
0.517638
0.517605
0.517584
0.517557
0.517521
0.517483
0.517445
0.517407
0.517369
0.517333
0.517301
0.517269
0.517232
0.517194
0.517157
0.517119
0.517081
0.517046
0.517017
0.517014
0.517013
0.516981
0.516942
0.5169
0.51685
0.516805
0.516766
0.516729
0.516692
0.516658
0.516636
0.516612
0.516576
0.516539
0.516501
0.516463
0.516426
0.516392
0.516365
0.516338
0.516302
0.516265
0.516227
0.516187
0.516148
0.51611
0.516072
0.516035
0.516001
0.515976
0.515979
0.515967
0.515931
0.515892
0.515848
0.515799
0.515758
0.51572
0.515683
0.515647
0.515616
0.515593
0.51556
0.515523
0.515486
0.515448
0.51541
0.515373
0.515337
0.515305
0.515271
0.515234
0.515197
0.515159
0.515122
0.515087
0.515057
0.515053
0.515072
0.515052
0.515015
0.514975
0.514926
0.514857
0.514798
0.514757
0.514719
0.514681
0.514644
0.514608
0.514577
0.514563
0.51458
0.514566
0.51453
0.514491
0.514446
0.514392
0.514349
0.51431
0.514273
0.514237
0.514203
0.514179
0.514152
0.514116
0.514079
0.514041
0.514004
0.513966
0.513929
0.513895
0.513867
0.513847
0.513814
0.513777
0.513739
0.513699
0.513654
0.513612
0.513574
0.513537
0.5135
0.513467
0.513444
0.513459
0.513468
0.513438
0.5134
0.513358
0.513304
0.513242
0.513197
0.513159
0.513122
0.513085
0.513051
0.513028
0.513025
0.513002
0.512965
0.512927
0.512886
0.512846
0.512808
0.512771
0.512735
0.512704
0.51268
0.512649
0.512612
0.512574
0.512537
0.512499
0.512461
0.512424
0.512386
0.512349
0.512311
0.512274
0.512236
0.512199
0.512162
0.512125
0.512091
0.512063
0.512065
0.512091
0.512072
0.512035
0.511996
0.511949
0.511883
0.511824
0.511783
0.511745
0.511708
0.511672
0.511638
0.511616
0.51162
0.511603
0.511567
0.511528
0.511486
0.511443
0.511405
0.511368
0.511331
0.511297
0.511266
0.511232
0.511195
0.511158
0.51112
0.511081
0.51104
0.511002
0.510965
0.510928
0.510891
0.510857
0.510833
0.510842
0.510851
0.510822
0.510784
0.510744
0.510694
0.510634
0.510589
0.510551
0.510513
0.510476
0.510439
0.510403
0.510368
0.510341
0.510336
0.51032
0.510285
0.510247
0.510206
0.510159
0.510114
0.510075
0.510038
0.510001
0.509964
0.509929
0.509897
0.509881
0.509892
0.509873
0.509836
0.509798
0.509753
0.509705
0.509665
0.509628
0.509592
0.509557
0.509529
0.50952
0.5095
0.509465
0.509427
0.509387
0.509343
0.509302
0.509264
0.509227
0.509191
0.509154
0.509118
0.509082
0.509045
0.509008
0.508971
0.508934
0.508898
0.508866
0.508848
0.508856
0.508838
0.508801
0.508763
0.50872
0.50867
0.50863
0.508592
0.508555
0.508519
0.508486
0.508458
0.508428
0.508392
0.508355
0.508318
0.508281
0.508245
0.508211
0.508184
0.508174
0.50815
0.508114
0.508077
0.50804
0.508003
0.507967
0.507931
0.5079
0.507872
0.507838
0.507801
0.507764
0.507727
0.50769
0.507653
0.507617
0.507581
0.507548
0.507528
0.507534
0.507514
0.507478
0.50744
0.507397
0.507341
0.507292
0.507254
0.507217
0.50718
0.507143
0.507106
0.507069
0.507033
0.506996
0.506962
0.506934
0.506931
0.506943
0.506917
0.506881
0.506841
0.506795
0.506737
0.506693
0.506655
0.506618
0.506582
0.506549
0.506526
0.506528
0.506508
0.506472
0.506434
0.506391
0.506336
0.506289
0.506251
0.506214
0.506178
0.506144
0.506117
0.506117
0.506114
0.506082
0.506044
0.506004
0.505957
0.505913
0.505875
0.505838
0.505802
0.505766
0.505732
0.505699
0.505663
0.505626
0.505589
0.505553
0.505516
0.50548
0.505446
0.50542
0.50542
0.50542
0.505389
0.505352
0.505312
0.505265
0.50522
0.505182
0.505145
0.505109
0.505074
0.505044
0.505018
0.504984
0.504947
0.504911
0.504873
0.504834
0.504794
0.504756
0.504719
0.504683
0.504647
0.50461
0.504575
0.504543
0.504524
0.50454
0.504538
0.504505
0.504468
0.504428
0.504376
0.504315
0.504272
0.504234
0.504198
0.504162
0.504128
0.504101
0.504099
0.504095
0.504063
0.504026
0.503987
0.50394
0.503893
0.503855
0.503819
0.503782
0.503746
0.50371
0.503674
0.503638
0.503601
0.503565
0.503528
0.503492
0.503456
0.50342
0.503384
0.503353
0.503338
0.503357
0.503351
0.503318
0.503281
0.50324
0.503187
0.503126
0.503082
0.503045
0.503009
0.502973
0.502939
0.502913
0.502912
0.502899
0.502864
0.502827
0.502786
0.502733
0.502673
0.502631
0.502594
0.502557
0.502521
0.502487
0.502457
0.502447
0.502475
0.502473
0.502441
0.502403
0.502363
0.502311
0.502236
0.502179
0.50214
0.502104
0.502067
0.502032
0.501999
0.501977
0.501986
0.50199
0.50196
0.501924
0.501885
0.501837
0.501782
0.50174
0.501703
0.501667
0.501631
0.501596
0.501566
0.50154
0.501507
0.501471
0.501434
0.501398
0.501362
0.501326
0.501293
0.501269
0.50127
0.501258
0.501224
0.501187
0.501147
0.501097
0.501046
0.501007
0.50097
0.500935
0.5009
0.50087
0.500858
0.500857
0.500828
0.500791
0.500753
0.500708
0.500651
0.500604
0.500566
0.50053
0.500494
0.500458
0.500422
0.500389
0.500361
0.500357
0.50038
0.500363
0.500328
0.50029
0.500248
0.500191
0.500119
0.500072
0.500034
0.499998
0.499962
0.499927
0.499895
0.499876
0.499889
0.499882
0.499849
0.499812
0.499772
0.499722
0.499667
0.499627
0.49959
0.499554
0.499519
0.499487
0.499467
0.499477
0.499468
0.499435
0.499398
0.499359
0.49931
0.499252
0.499209
0.499172
0.499136
0.4991
0.499064
0.499028
0.498992
0.498956
0.49892
0.498884
0.498849
0.498816
0.498792
0.498797
0.498801
0.498771
0.498735
0.498697
0.498653
0.498601
0.498561
0.498525
0.498489
0.498453
0.49842
0.498392
0.498374
0.498344
0.498308
0.498272
0.498237
0.498201
0.498167
0.498136
0.498105
0.49807
0.498035
0.497999
0.497962
0.497923
0.497881
0.497843
0.497807
0.497771
0.497736
0.497703
0.497676
0.497676
0.497688
0.497663
0.497627
0.497589
0.497546
0.497486
0.49743
0.497391
0.497354
0.497319
0.497284
0.497251
0.497227
0.497233
0.497231
0.4972
0.497163
0.497125
0.497081
0.497031
0.496992
0.496956
0.49692
0.496885
0.49685
0.496816
0.496782
0.496747
0.496711
0.496675
0.49664
0.496604
0.496569
0.496535
0.496506
0.496499
0.496495
0.496465
0.496429
0.496391
0.496348
0.496299
0.496259
0.496223
0.496187
0.496153
0.496121
0.496103
0.496104
0.496081
0.496046
0.496009
0.495968
0.495915
0.49586
0.49582
0.495784
0.495748
0.495713
0.495677
0.495642
0.495608
0.495579
0.495568
0.495591
0.49558
0.495547
0.495511
0.495472
0.495423
0.495362
0.495317
0.49528
0.495244
0.495209
0.495174
0.495143
0.495125
0.495126
0.495102
0.495067
0.495031
0.494992
0.49495
0.494913
0.494877
0.494842
0.494807
0.494773
0.49474
0.494705
0.494669
0.494634
0.494598
0.49456
0.49452
0.494482
0.494446
0.494411
0.494375
0.49434
0.494305
0.494271
0.494242
0.49423
0.494258
0.494262
0.494232
0.494196
0.494159
0.494115
0.494052
0.49398
0.493936
0.493899
0.493863
0.493828
0.493792
0.493757
0.493722
0.493686
0.493651
0.493617
0.493587
0.493573
0.493593
0.493586
0.493554
0.493518
0.49348
0.493434
0.493378
0.493335
0.493299
0.493263
0.493229
0.493195
0.493168
0.493163
0.493149
0.493116
0.493081
0.493043
0.492998
0.492945
0.492903
0.492867
0.492832
0.492797
0.492765
0.492742
0.492746
0.492737
0.492705
0.492669
0.492632
0.492589
0.49254
0.492501
0.492465
0.492429
0.492394
0.492359
0.492323
0.492288
0.492251
0.492211
0.492173
0.492137
0.492102
0.492066
0.492031
0.491997
0.491966
0.491948
0.491963
0.491961
0.49193
0.491894
0.491857
0.491814
0.491764
0.491725
0.49169
0.491654
0.49162
0.491587
0.49156
0.491531
0.491497
0.491462
0.491426
0.491389
0.491345
0.491301
0.491264
0.491228
0.491194
0.49116
0.491129
0.491113
0.491135
0.491144
0.491116
0.49108
0.491044
0.491002
0.490946
0.490884
0.490843
0.490807
0.490772
0.490737
0.490701
0.490667
0.490632
0.4906
0.490577
0.490572
0.490551
0.490517
0.490481
0.490445
0.490405
0.490354
0.490307
0.49027
0.490235
0.4902
0.490165
0.49013
0.490095
0.490062
0.490034
0.490027
0.490045
0.490027
0.489993
0.489957
0.48992
0.489874
0.489815
0.48977
0.489733
0.489698
0.489663
0.489628
0.489593
0.489558
0.489523
0.489488
0.489455
0.489425
0.489409
0.48941
0.489386
0.489352
0.489316
0.489279
0.489238
0.489201
0.489166
0.489131
0.489097
0.489063
0.489034
0.489005
0.488971
0.488936
0.488901
0.488866
0.488831
0.488796
0.488761
0.488727
0.488693
0.488662
0.488643
0.488643
0.48862
0.488586
0.488551
0.488514
0.488475
0.488439
0.488404
0.488369
0.488335
0.488301
0.488267
0.488232
0.488198
0.488163
0.488128
0.488093
0.488058
0.488024
0.48799
0.487959
0.487939
0.487924
0.487894
0.487859
0.487824
0.487788
0.487749
0.487712
0.487677
0.487643
0.487608
0.487577
0.487554
0.487545
0.487519
0.487485
0.48745
0.487414
0.487374
0.487334
0.487298
0.487263
0.487229
0.487195
0.487165
0.487142
0.487112
0.487078
0.487044
0.487008
0.486972
0.486932
0.48689
0.486854
0.486819
0.486785
0.48675
0.486716
0.486683
0.486656
0.486651
0.48665
0.486622
0.486587
0.486552
0.486513
0.486466
0.486424
0.486388
0.486353
0.486319
0.486286
0.486258
0.486246
0.486232
0.4862
0.486165
0.486129
0.486091
0.486044
0.486002
0.485966
0.485931
0.485897
0.485864
0.485835
0.485825
0.485817
0.485787
0.485752
0.485717
0.48568
0.485639
0.485599
0.485564
0.485529
0.485495
0.48546
0.485426
0.485391
0.485356
0.485319
0.485281
0.485245
0.48521
0.485176
0.485141
0.485107
0.485076
0.485052
0.485058
0.485072
0.485048
0.485014
0.484978
0.48494
0.484893
0.484831
0.484787
0.484751
0.484716
0.484682
0.484648
0.484616
0.48459
0.48458
0.484557
0.484523
0.484489
0.484453
0.484415
0.484368
0.484319
0.484281
0.484247
0.484212
0.484178
0.484144
0.484111
0.484084
0.484076
0.484083
0.484059
0.484025
0.48399
0.483952
0.483908
0.483864
0.483828
0.483793
0.483759
0.483725
0.483695
0.483676
0.483679
0.483658
0.483625
0.48359
0.483553
0.483511
0.483453
0.483402
0.483365
0.48333
0.483296
0.483261
0.483227
0.483193
0.483158
0.483124
0.48309
0.483056
0.483024
0.482997
0.482991
0.482998
0.482973
0.482939
0.482905
0.482868
0.482826
0.482787
0.482751
0.482717
0.482683
0.48265
0.482622
0.48261
0.482597
0.482565
0.482531
0.482496
0.482459
0.482415
0.482359
0.482316
0.482281
0.482246
0.482212
0.482178
0.482143
0.482109
0.482075
0.482041
0.482007
0.481974
0.481944
0.481926
0.481931
0.481914
0.481881
0.481846
0.48181
0.48177
0.481723
0.481684
0.481649
0.481615
0.481581
0.481549
0.48152
0.481506
0.481487
0.481455
0.481421
0.481387
0.481352
0.481316
0.481278
0.481243
0.481209
0.481175
0.481141
0.481107
0.481072
0.481038
0.481005
0.480972
0.480942
0.480926
0.480917
0.480889
0.480855
0.480821
0.480786
0.480751
0.480711
0.480671
0.480636
0.480601
0.480567
0.480534
0.480502
0.480475
0.480469
0.48046
0.480429
0.480395
0.48036
0.480324
0.480282
0.480242
0.480207
0.480173
0.480139
0.480105
0.480071
0.480037
0.480003
0.479969
0.479935
0.479901
0.479864
0.479824
0.479789
0.479755
0.479721
0.479687
0.479653
0.47962
0.479591
0.479576
0.479567
0.479537
0.479504
0.47947
0.479434
0.479396
0.479358
0.479323
0.479289
0.479255
0.479223
0.479194
0.47918
0.479172
0.479143
0.479109
0.479075
0.479039
0.478998
0.478959
0.478924
0.47889
0.478857
0.478824
0.478797
0.478781
0.478755
0.478722
0.478688
0.478654
0.478617
0.478574
0.478534
0.478499
0.478466
0.478432
0.4784
0.478372
0.478361
0.478345
0.478314
0.47828
0.478246
0.47821
0.478171
0.478133
0.478099
0.478065
0.478031
0.477999
0.477969
0.477949
0.477923
0.47789
0.477856
0.477822
0.477789
0.477755
0.477721
0.477686
0.47765
0.477608
0.477568
0.477533
0.4775
0.477466
0.477432
0.477398
0.477365
0.477332
0.477303
0.477286
0.477302
0.477303
0.477275
0.477241
0.477207
0.47717
0.477125
0.477066
0.477022
0.476987
0.476953
0.47692
0.476886
0.476855
0.476831
0.476809
0.476778
0.476744
0.476711
0.476676
0.47664
0.476599
0.476557
0.476522
0.476488
0.476454
0.476421
0.476389
0.47636
0.476345
0.476361
0.476355
0.476325
0.476291
0.476257
0.47622
0.476174
0.476109
0.476055
0.476018
0.475984
0.47595
0.475917
0.475883
0.47585
0.475816
0.475783
0.47575
0.475719
0.475695
0.475699
0.47571
0.475686
0.475653
0.475619
0.475584
0.475546
0.475497
0.475446
0.475409
0.475375
0.475341
0.475307
0.475274
0.47524
0.475206
0.475172
0.475136
0.4751
0.475066
0.475033
0.474999
0.474966
0.474932
0.4749
0.47487
0.474849
0.47486
0.474872
0.474847
0.474814
0.47478
0.474745
0.474705
0.474647
0.474578
0.474534
0.4745
0.474466
0.474432
0.474399
0.474366
0.474333
0.474303
0.474281
0.474285
0.474278
0.474248
0.474215
0.474181
0.474145
0.4741
0.474038
0.473989
0.473953
0.47392
0.473886
0.473853
0.473822
0.473795
0.473788
0.473813
0.473805
0.473774
0.473741
0.473706
0.47367
0.473626
0.473567
0.473523
0.473488
0.473455
0.473421
0.473388
0.473355
0.473322
0.473291
0.473262
0.47323
0.473197
0.473164
0.473131
0.473098
0.473067
0.473041
0.473035
0.473028
0.472999
0.472966
0.472933
0.472898
0.472858
0.472804
0.472745
0.472706
0.472671
0.472638
0.472605
0.472572
0.472538
0.472505
0.472472
0.472442
0.472416
0.472414
0.472437
0.472422
0.472391
0.472357
0.472324
0.472288
0.472245
0.47219
0.472148
0.472114
0.47208
0.472047
0.472014
0.471981
0.471947
0.471914
0.471881
0.471847
0.471813
0.471778
0.471744
0.471711
0.471678
0.471645
0.471612
0.47158
0.471552
0.471539
0.471538
0.471512
0.471479
0.471446
0.471412
0.471375
0.471332
0.471293
0.471259
0.471226
0.471193
0.47116
0.471129
0.471101
0.471072
0.471039
0.471006
0.470973
0.47094
0.470905
0.470868
0.470834
0.470801
0.470768
0.470735
0.470704
0.470678
0.47067
0.470656
0.470626
0.470593
0.470559
0.470524
0.470485
0.47044
0.470403
0.470369
0.470336
0.470304
0.470272
0.470246
0.470235
0.470216
0.470185
0.470152
0.470118
0.470084
0.470044
0.470002
0.469967
0.469934
0.469901
0.469869
0.469839
0.469818
0.469814
0.469792
0.46976
0.469727
0.469693
0.469658
0.469616
0.469563
0.469523
0.469489
0.469456
0.469423
0.46939
0.469357
0.469324
0.469292
0.469262
0.469242
0.469245
0.469234
0.469203
0.46917
0.469137
0.469103
0.469065
0.469016
0.468969
0.468933
0.4689
0.468867
0.468834
0.468801
0.468768
0.468736
0.468703
0.468672
0.468645
0.468637
0.468643
0.46862
0.468588
0.468555
0.468521
0.468485
0.468441
0.46838
0.468334
0.468299
0.468266
0.468233
0.468201
0.468168
0.468135
0.468105
0.468079
0.46807
0.468059
0.468029
0.467996
0.467963
0.46793
0.467896
0.467862
0.467829
0.467796
0.467764
0.467732
0.467702
0.467673
0.467641
0.467608
0.467575
0.467542
0.467507
0.467468
0.467425
0.46739
0.467357
0.467324
0.467292
0.46726
0.467232
0.467216
0.467224
0.467209
0.467178
0.467145
0.467112
0.467078
0.46704
0.466998
0.466962
0.466929
0.466896
0.466863
0.466831
0.466798
0.466766
0.466734
0.466702
0.466669
0.466636
0.466604
0.466571
0.466538
0.466507
0.466477
0.466456
0.466433
0.466403
0.46637
0.466337
0.466304
0.466271
0.466236
0.466202
0.46617
0.466137
0.466105
0.466074
0.466049
0.466037
0.466015
0.465983
0.465951
0.465918
0.465884
0.465847
0.465807
0.465772
0.465739
0.465706
0.465674
0.465643
0.465616
0.465598
0.465574
0.465543
0.46551
0.465477
0.465445
0.465412
0.465376
0.465335
0.465293
0.465259
0.465226
0.465193
0.46516
0.465128
0.465095
0.465063
0.46503
0.464998
0.464965
0.464933
0.464902
0.464876
0.464867
0.464879
0.464861
0.46483
0.464797
0.464765
0.464731
0.464695
0.464648
0.464585
0.464541
0.464506
0.464473
0.464441
0.464408
0.464376
0.464343
0.464311
0.464278
0.464246
0.464215
0.464186
0.464166
0.464172
0.464163
0.464133
0.464101
0.464069
0.464035
0.463999
0.463957
0.463919
0.463886
0.463853
0.463821
0.463789
0.463758
0.463731
0.463711
0.463683
0.463652
0.463619
0.463587
0.463554
0.463522
0.463488
0.46345
0.463412
0.463378
0.463346
0.463314
0.463281
0.463249
0.463217
0.463184
0.463152
0.463121
0.463092
0.463073
0.463068
0.463045
0.463014
0.462981
0.462949
0.462915
0.462879
0.462833
0.462782
0.462746
0.462713
0.462681
0.462648
0.462616
0.462584
0.462553
0.462524
0.462505
0.462514
0.462512
0.462484
0.462452
0.462419
0.462386
0.46235
0.462304
0.462235
0.462182
0.462146
0.462113
0.462081
0.462049
0.462017
0.461986
0.461958
0.461941
0.461958
0.461961
0.461934
0.461903
0.46187
0.461838
0.461803
0.461763
0.461707
0.461656
0.46162
0.461587
0.461554
0.461522
0.46149
0.461458
0.461426
0.461394
0.461362
0.461333
0.46131
0.46129
0.461261
0.461229
0.461197
0.461165
0.461132
0.461098
0.461063
0.46103
0.460998
0.460966
0.460934
0.460903
0.460875
0.460861
0.46086
0.460837
0.460805
0.460773
0.460741
0.460707
0.460669
0.460618
0.460561
0.460524
0.460491
0.460459
0.460426
0.460394
0.460362
0.46033
0.460299
0.460268
0.46024
0.460224
0.460229
0.460211