/*--------------------------------*- C++ -*----------------------------------*\
  =========                 |
  \\      /  F ield         | OpenFOAM: The Open Source CFD Toolbox
   \\    /   O peration     | Website:  https://openfoam.org
    \\  /    A nd           | Version:  9
     \\/     M anipulation  |
\*---------------------------------------------------------------------------*/
FoamFile
{
    format      ascii;
    class       surfaceScalarField;
    location    "0.028";
    object      phi;
}
// * * * * * * * * * * * * * * * * * * * * * * * * * * * * * * * * * * * * * //

dimensions      [1 0 -1 0 0 0 0];

internalField   nonuniform List<scalar> 
99
(
61.4899
67.7582
73.9882
80.1965
86.3713
92.5359
98.6915
104.828
110.927
117.004
123.036
129.05
135.022
140.948
146.873
152.75
158.559
164.385
170.2
175.922
181.584
187.288
192.995
198.607
204.125
209.653
215.242
220.775
226.184
231.52
236.903
242.312
247.606
252.744
257.804
262.892
267.986
272.972
277.925
282.824
287.776
292.796
297.825
302.817
307.758
312.682
317.821
322.962
327.939
332.682
336.896
340.702
346.216
351.492
356.477
361.3
366.162
370.949
375.597
380.449
385.438
390.411
395.201
399.96
404.974
410.215
415.562
420.862
425.935
430.791
435.558
440.281
444.95
449.54
454.052
458.493
462.781
466.836
470.69
474.382
477.954
481.401
484.48
487.321
489.441
491.069
492.203
492.48
490.795
486.053
469.436
464.685
462.917
471.652
471.226
464.833
462.508
463.634
467.629
)
;

boundaryField
{
    sides
    {
        type            calculated;
        value           nonuniform List<scalar> 2(471.508 -55.146);
    }
    empty
    {
        type            empty;
        value           nonuniform List<scalar> 0();
    }
}


// ************************************************************************* //
