/*--------------------------------*- C++ -*----------------------------------*\
  =========                 |
  \\      /  F ield         | OpenFOAM: The Open Source CFD Toolbox
   \\    /   O peration     | Website:  https://openfoam.org
    \\  /    A nd           | Version:  9
     \\/     M anipulation  |
\*---------------------------------------------------------------------------*/
FoamFile
{
    format      ascii;
    class       volVectorField;
    location    "0.028";
    object      U;
}
// * * * * * * * * * * * * * * * * * * * * * * * * * * * * * * * * * * * * * //

dimensions      [0 1 -1 0 0 0 0];

internalField   nonuniform List<vector> 
100
(
(35.6267 0 0)
(40.3635 0 0)
(46.4245 0 0)
(49.8709 0 0)
(54.1254 0 0)
(58.3971 0 0)
(62.5956 0 0)
(66.8009 0 0)
(70.9769 0 0)
(75.211 0 0)
(79.3658 0 0)
(83.5898 0 0)
(87.785 0 0)
(91.9563 0 0)
(96.1998 0 0)
(100.374 0 0)
(104.527 0 0)
(108.754 0 0)
(112.984 0 0)
(117.108 0 0)
(121.257 0 0)
(125.489 0 0)
(129.702 0 0)
(133.803 0 0)
(137.913 0 0)
(142.081 0 0)
(146.305 0 0)
(150.391 0 0)
(154.435 0 0)
(158.496 0 0)
(162.624 0 0)
(166.721 0 0)
(170.655 0 0)
(174.528 0 0)
(178.392 0 0)
(182.291 0 0)
(186 0 0)
(189.542 0 0)
(193.1 0 0)
(196.711 0 0)
(200.377 0 0)
(204.016 0 0)
(207.611 0 0)
(211.191 0 0)
(214.767 0 0)
(218.341 0 0)
(221.949 0 0)
(225.375 0 0)
(228.603 0 0)
(231.587 0 0)
(234.03 0 0)
(236.257 0 0)
(238.646 0 0)
(241.358 0 0)
(243.616 0 0)
(245.727 0 0)
(247.405 0 0)
(249.024 0 0)
(250.753 0 0)
(252.67 0 0)
(254.305 0 0)
(255.833 0 0)
(257.514 0 0)
(259.404 0 0)
(261.372 0 0)
(263.136 0 0)
(264.864 0 0)
(266.538 0 0)
(268.107 0 0)
(269.66 0 0)
(271.218 0 0)
(272.766 0 0)
(274.281 0 0)
(275.759 0 0)
(277.198 0 0)
(278.545 0 0)
(279.808 0 0)
(280.985 0 0)
(282.06 0 0)
(283.07 0 0)
(283.985 0 0)
(284.831 0 0)
(285.576 0 0)
(286.307 0 0)
(286.551 0 0)
(286.114 0 0)
(284.477 0 0)
(280.019 0 0)
(270.226 0 0)
(249.996 0 0)
(209.788 0 0)
(171.205 0 0)
(182.816 0 0)
(195.915 0 0)
(206.81 0 0)
(214.803 0 0)
(218.664 0 0)
(220.203 0 0)
(222.227 0 0)
(224.667 0 0)
)
;

boundaryField
{
    sides
    {
        type            zeroGradient;
    }
    empty
    {
        type            empty;
    }
}


// ************************************************************************* //
