/*--------------------------------*- C++ -*----------------------------------*\
  =========                 |
  \\      /  F ield         | OpenFOAM: The Open Source CFD Toolbox
   \\    /   O peration     | Website:  https://openfoam.org
    \\  /    A nd           | Version:  9
     \\/     M anipulation  |
\*---------------------------------------------------------------------------*/
FoamFile
{
    format      ascii;
    class       volVectorField;
    location    "0.019";
    object      U;
}
// * * * * * * * * * * * * * * * * * * * * * * * * * * * * * * * * * * * * * //

dimensions      [0 1 -1 0 0 0 0];

internalField   nonuniform List<vector> 
10000
(
(1.62546 0 0)
(1.74842 0 0)
(1.82466 0 0)
(1.8974 0 0)
(1.97469 0 0)
(2.05347 0 0)
(2.13181 0 0)
(2.20974 0 0)
(2.28763 0 0)
(2.36559 0 0)
(2.44356 0 0)
(2.52152 0 0)
(2.59947 0 0)
(2.67742 0 0)
(2.75537 0 0)
(2.83333 0 0)
(2.91128 0 0)
(2.98923 0 0)
(3.06719 0 0)
(3.14514 0 0)
(3.2231 0 0)
(3.30105 0 0)
(3.37901 0 0)
(3.45696 0 0)
(3.53492 0 0)
(3.61288 0 0)
(3.69083 0 0)
(3.76879 0 0)
(3.84675 0 0)
(3.92471 0 0)
(4.00267 0 0)
(4.08063 0 0)
(4.15859 0 0)
(4.23655 0 0)
(4.31451 0 0)
(4.39247 0 0)
(4.47043 0 0)
(4.5484 0 0)
(4.62636 0 0)
(4.70432 0 0)
(4.78229 0 0)
(4.86025 0 0)
(4.93822 0 0)
(5.01618 0 0)
(5.09415 0 0)
(5.17211 0 0)
(5.25008 0 0)
(5.32805 0 0)
(5.40601 0 0)
(5.48398 0 0)
(5.56195 0 0)
(5.63992 0 0)
(5.71789 0 0)
(5.79586 0 0)
(5.87383 0 0)
(5.9518 0 0)
(6.02977 0 0)
(6.10774 0 0)
(6.18572 0 0)
(6.26369 0 0)
(6.34166 0 0)
(6.41963 0 0)
(6.49761 0 0)
(6.57558 0 0)
(6.65356 0 0)
(6.73153 0 0)
(6.80951 0 0)
(6.88749 0 0)
(6.96546 0 0)
(7.04344 0 0)
(7.12142 0 0)
(7.1994 0 0)
(7.27738 0 0)
(7.35535 0 0)
(7.43333 0 0)
(7.51131 0 0)
(7.5893 0 0)
(7.66728 0 0)
(7.74526 0 0)
(7.82324 0 0)
(7.90122 0 0)
(7.97921 0 0)
(8.05719 0 0)
(8.13517 0 0)
(8.21316 0 0)
(8.29114 0 0)
(8.36913 0 0)
(8.44711 0 0)
(8.5251 0 0)
(8.60309 0 0)
(8.68107 0 0)
(8.75906 0 0)
(8.83705 0 0)
(8.91504 0 0)
(8.99303 0 0)
(9.07102 0 0)
(9.14901 0 0)
(9.227 0 0)
(9.30499 0 0)
(9.38298 0 0)
(9.46097 0 0)
(9.53896 0 0)
(9.61696 0 0)
(9.69495 0 0)
(9.77294 0 0)
(9.85094 0 0)
(9.92893 0 0)
(10.0069 0 0)
(10.0849 0 0)
(10.1629 0 0)
(10.2409 0 0)
(10.3189 0 0)
(10.3969 0 0)
(10.4749 0 0)
(10.5529 0 0)
(10.6309 0 0)
(10.7089 0 0)
(10.7869 0 0)
(10.8649 0 0)
(10.9429 0 0)
(11.0209 0 0)
(11.0989 0 0)
(11.1769 0 0)
(11.2549 0 0)
(11.3329 0 0)
(11.4109 0 0)
(11.4889 0 0)
(11.5669 0 0)
(11.6449 0 0)
(11.7229 0 0)
(11.8009 0 0)
(11.879 0 0)
(11.957 0 0)
(12.035 0 0)
(12.113 0 0)
(12.191 0 0)
(12.269 0 0)
(12.347 0 0)
(12.425 0 0)
(12.503 0 0)
(12.581 0 0)
(12.659 0 0)
(12.7371 0 0)
(12.8151 0 0)
(12.8931 0 0)
(12.9711 0 0)
(13.0491 0 0)
(13.1271 0 0)
(13.2051 0 0)
(13.2831 0 0)
(13.3612 0 0)
(13.4392 0 0)
(13.5172 0 0)
(13.5952 0 0)
(13.6732 0 0)
(13.7512 0 0)
(13.8293 0 0)
(13.9073 0 0)
(13.9853 0 0)
(14.0633 0 0)
(14.1413 0 0)
(14.2194 0 0)
(14.2974 0 0)
(14.3754 0 0)
(14.4534 0 0)
(14.5314 0 0)
(14.6095 0 0)
(14.6875 0 0)
(14.7655 0 0)
(14.8435 0 0)
(14.9216 0 0)
(14.9996 0 0)
(15.0776 0 0)
(15.1556 0 0)
(15.2337 0 0)
(15.3117 0 0)
(15.3897 0 0)
(15.4678 0 0)
(15.5458 0 0)
(15.6238 0 0)
(15.7018 0 0)
(15.7799 0 0)
(15.8579 0 0)
(15.9359 0 0)
(16.014 0 0)
(16.092 0 0)
(16.17 0 0)
(16.2481 0 0)
(16.3261 0 0)
(16.4041 0 0)
(16.4822 0 0)
(16.5602 0 0)
(16.6382 0 0)
(16.7163 0 0)
(16.7943 0 0)
(16.8723 0 0)
(16.9504 0 0)
(17.0284 0 0)
(17.1064 0 0)
(17.1845 0 0)
(17.2625 0 0)
(17.3406 0 0)
(17.4186 0 0)
(17.4966 0 0)
(17.5747 0 0)
(17.6527 0 0)
(17.7308 0 0)
(17.8088 0 0)
(17.8869 0 0)
(17.9649 0 0)
(18.0429 0 0)
(18.121 0 0)
(18.199 0 0)
(18.2771 0 0)
(18.3551 0 0)
(18.4332 0 0)
(18.5112 0 0)
(18.5893 0 0)
(18.6673 0 0)
(18.7453 0 0)
(18.8234 0 0)
(18.9014 0 0)
(18.9795 0 0)
(19.0575 0 0)
(19.1356 0 0)
(19.2136 0 0)
(19.2917 0 0)
(19.3697 0 0)
(19.4478 0 0)
(19.5259 0 0)
(19.6039 0 0)
(19.682 0 0)
(19.76 0 0)
(19.8381 0 0)
(19.9161 0 0)
(19.9942 0 0)
(20.0722 0 0)
(20.1503 0 0)
(20.2283 0 0)
(20.3064 0 0)
(20.3845 0 0)
(20.4625 0 0)
(20.5406 0 0)
(20.6186 0 0)
(20.6967 0 0)
(20.7748 0 0)
(20.8528 0 0)
(20.9309 0 0)
(21.0089 0 0)
(21.087 0 0)
(21.1651 0 0)
(21.2431 0 0)
(21.3212 0 0)
(21.3992 0 0)
(21.4773 0 0)
(21.5554 0 0)
(21.6334 0 0)
(21.7115 0 0)
(21.7896 0 0)
(21.8676 0 0)
(21.9457 0 0)
(22.0238 0 0)
(22.1018 0 0)
(22.1799 0 0)
(22.258 0 0)
(22.336 0 0)
(22.4141 0 0)
(22.4922 0 0)
(22.5703 0 0)
(22.6483 0 0)
(22.7264 0 0)
(22.8045 0 0)
(22.8825 0 0)
(22.9606 0 0)
(23.0387 0 0)
(23.1168 0 0)
(23.1948 0 0)
(23.2729 0 0)
(23.351 0 0)
(23.4291 0 0)
(23.5071 0 0)
(23.5852 0 0)
(23.6633 0 0)
(23.7414 0 0)
(23.8195 0 0)
(23.8975 0 0)
(23.9756 0 0)
(24.0537 0 0)
(24.1318 0 0)
(24.2099 0 0)
(24.2879 0 0)
(24.366 0 0)
(24.4441 0 0)
(24.5222 0 0)
(24.6003 0 0)
(24.6783 0 0)
(24.7564 0 0)
(24.8345 0 0)
(24.9126 0 0)
(24.9907 0 0)
(25.0688 0 0)
(25.1469 0 0)
(25.2249 0 0)
(25.303 0 0)
(25.3811 0 0)
(25.4592 0 0)
(25.5373 0 0)
(25.6154 0 0)
(25.6935 0 0)
(25.7716 0 0)
(25.8497 0 0)
(25.9277 0 0)
(26.0058 0 0)
(26.0839 0 0)
(26.162 0 0)
(26.2401 0 0)
(26.3182 0 0)
(26.3963 0 0)
(26.4744 0 0)
(26.5525 0 0)
(26.6306 0 0)
(26.7087 0 0)
(26.7868 0 0)
(26.8649 0 0)
(26.943 0 0)
(27.0211 0 0)
(27.0992 0 0)
(27.1773 0 0)
(27.2554 0 0)
(27.3335 0 0)
(27.4116 0 0)
(27.4897 0 0)
(27.5678 0 0)
(27.6459 0 0)
(27.724 0 0)
(27.8021 0 0)
(27.8802 0 0)
(27.9583 0 0)
(28.0364 0 0)
(28.1145 0 0)
(28.1926 0 0)
(28.2707 0 0)
(28.3488 0 0)
(28.4269 0 0)
(28.505 0 0)
(28.5831 0 0)
(28.6612 0 0)
(28.7393 0 0)
(28.8174 0 0)
(28.8955 0 0)
(28.9737 0 0)
(29.0518 0 0)
(29.1299 0 0)
(29.208 0 0)
(29.2861 0 0)
(29.3642 0 0)
(29.4423 0 0)
(29.5204 0 0)
(29.5985 0 0)
(29.6767 0 0)
(29.7548 0 0)
(29.8329 0 0)
(29.911 0 0)
(29.9891 0 0)
(30.0672 0 0)
(30.1453 0 0)
(30.2235 0 0)
(30.3016 0 0)
(30.3797 0 0)
(30.4578 0 0)
(30.5359 0 0)
(30.6141 0 0)
(30.6922 0 0)
(30.7703 0 0)
(30.8484 0 0)
(30.9265 0 0)
(31.0047 0 0)
(31.0828 0 0)
(31.1609 0 0)
(31.239 0 0)
(31.3171 0 0)
(31.3953 0 0)
(31.4734 0 0)
(31.5515 0 0)
(31.6296 0 0)
(31.7078 0 0)
(31.7859 0 0)
(31.864 0 0)
(31.9421 0 0)
(32.0203 0 0)
(32.0984 0 0)
(32.1765 0 0)
(32.2547 0 0)
(32.3328 0 0)
(32.4109 0 0)
(32.489 0 0)
(32.5672 0 0)
(32.6453 0 0)
(32.7234 0 0)
(32.8016 0 0)
(32.8797 0 0)
(32.9578 0 0)
(33.036 0 0)
(33.1141 0 0)
(33.1922 0 0)
(33.2704 0 0)
(33.3485 0 0)
(33.4266 0 0)
(33.5048 0 0)
(33.5829 0 0)
(33.6611 0 0)
(33.7392 0 0)
(33.8173 0 0)
(33.8955 0 0)
(33.9736 0 0)
(34.0517 0 0)
(34.1299 0 0)
(34.208 0 0)
(34.2862 0 0)
(34.3643 0 0)
(34.4425 0 0)
(34.5206 0 0)
(34.5987 0 0)
(34.6769 0 0)
(34.755 0 0)
(34.8332 0 0)
(34.9113 0 0)
(34.9895 0 0)
(35.0676 0 0)
(35.1458 0 0)
(35.2239 0 0)
(35.302 0 0)
(35.3802 0 0)
(35.4583 0 0)
(35.5365 0 0)
(35.6146 0 0)
(35.6928 0 0)
(35.7709 0 0)
(35.8491 0 0)
(35.9272 0 0)
(36.0054 0 0)
(36.0835 0 0)
(36.1617 0 0)
(36.2398 0 0)
(36.318 0 0)
(36.3962 0 0)
(36.4743 0 0)
(36.5525 0 0)
(36.6306 0 0)
(36.7088 0 0)
(36.7869 0 0)
(36.8651 0 0)
(36.9432 0 0)
(37.0214 0 0)
(37.0996 0 0)
(37.1777 0 0)
(37.2559 0 0)
(37.334 0 0)
(37.4122 0 0)
(37.4904 0 0)
(37.5685 0 0)
(37.6467 0 0)
(37.7248 0 0)
(37.803 0 0)
(37.8812 0 0)
(37.9593 0 0)
(38.0375 0 0)
(38.1156 0 0)
(38.1938 0 0)
(38.272 0 0)
(38.3501 0 0)
(38.4283 0 0)
(38.5065 0 0)
(38.5846 0 0)
(38.6628 0 0)
(38.741 0 0)
(38.8191 0 0)
(38.8973 0 0)
(38.9755 0 0)
(39.0537 0 0)
(39.1318 0 0)
(39.21 0 0)
(39.2882 0 0)
(39.3663 0 0)
(39.4445 0 0)
(39.5227 0 0)
(39.6009 0 0)
(39.679 0 0)
(39.7572 0 0)
(39.8354 0 0)
(39.9135 0 0)
(39.9917 0 0)
(40.0699 0 0)
(40.1481 0 0)
(40.2262 0 0)
(40.3044 0 0)
(40.3826 0 0)
(40.4608 0 0)
(40.539 0 0)
(40.6171 0 0)
(40.6953 0 0)
(40.7735 0 0)
(40.8517 0 0)
(40.9299 0 0)
(41.008 0 0)
(41.0862 0 0)
(41.1644 0 0)
(41.2426 0 0)
(41.3208 0 0)
(41.3989 0 0)
(41.4771 0 0)
(41.5553 0 0)
(41.6335 0 0)
(41.7117 0 0)
(41.7899 0 0)
(41.8681 0 0)
(41.9462 0 0)
(42.0244 0 0)
(42.1026 0 0)
(42.1808 0 0)
(42.259 0 0)
(42.3372 0 0)
(42.4154 0 0)
(42.4936 0 0)
(42.5718 0 0)
(42.6499 0 0)
(42.7281 0 0)
(42.8063 0 0)
(42.8845 0 0)
(42.9627 0 0)
(43.0409 0 0)
(43.1191 0 0)
(43.1973 0 0)
(43.2755 0 0)
(43.3537 0 0)
(43.4319 0 0)
(43.5101 0 0)
(43.5883 0 0)
(43.6665 0 0)
(43.7447 0 0)
(43.8229 0 0)
(43.9011 0 0)
(43.9793 0 0)
(44.0575 0 0)
(44.1357 0 0)
(44.2139 0 0)
(44.2921 0 0)
(44.3703 0 0)
(44.4485 0 0)
(44.5267 0 0)
(44.6049 0 0)
(44.6831 0 0)
(44.7613 0 0)
(44.8395 0 0)
(44.9177 0 0)
(44.9959 0 0)
(45.0741 0 0)
(45.1523 0 0)
(45.2305 0 0)
(45.3087 0 0)
(45.3869 0 0)
(45.4651 0 0)
(45.5433 0 0)
(45.6215 0 0)
(45.6997 0 0)
(45.778 0 0)
(45.8562 0 0)
(45.9344 0 0)
(46.0126 0 0)
(46.0908 0 0)
(46.169 0 0)
(46.2472 0 0)
(46.3254 0 0)
(46.4036 0 0)
(46.4819 0 0)
(46.5601 0 0)
(46.6383 0 0)
(46.7165 0 0)
(46.7947 0 0)
(46.8729 0 0)
(46.9512 0 0)
(47.0294 0 0)
(47.1076 0 0)
(47.1858 0 0)
(47.264 0 0)
(47.3422 0 0)
(47.4205 0 0)
(47.4987 0 0)
(47.5769 0 0)
(47.6551 0 0)
(47.7333 0 0)
(47.8116 0 0)
(47.8898 0 0)
(47.968 0 0)
(48.0462 0 0)
(48.1245 0 0)
(48.2027 0 0)
(48.2809 0 0)
(48.3591 0 0)
(48.4373 0 0)
(48.5156 0 0)
(48.5938 0 0)
(48.672 0 0)
(48.7503 0 0)
(48.8285 0 0)
(48.9067 0 0)
(48.9849 0 0)
(49.0632 0 0)
(49.1414 0 0)
(49.2196 0 0)
(49.2979 0 0)
(49.3761 0 0)
(49.4543 0 0)
(49.5325 0 0)
(49.6108 0 0)
(49.689 0 0)
(49.7672 0 0)
(49.8455 0 0)
(49.9237 0 0)
(50.0019 0 0)
(50.0802 0 0)
(50.1584 0 0)
(50.2367 0 0)
(50.3149 0 0)
(50.3931 0 0)
(50.4714 0 0)
(50.5496 0 0)
(50.6278 0 0)
(50.7061 0 0)
(50.7843 0 0)
(50.8626 0 0)
(50.9408 0 0)
(51.019 0 0)
(51.0973 0 0)
(51.1755 0 0)
(51.2538 0 0)
(51.332 0 0)
(51.4102 0 0)
(51.4885 0 0)
(51.5667 0 0)
(51.645 0 0)
(51.7232 0 0)
(51.8015 0 0)
(51.8797 0 0)
(51.958 0 0)
(52.0362 0 0)
(52.1144 0 0)
(52.1927 0 0)
(52.2709 0 0)
(52.3492 0 0)
(52.4274 0 0)
(52.5057 0 0)
(52.5839 0 0)
(52.6622 0 0)
(52.7404 0 0)
(52.8187 0 0)
(52.8969 0 0)
(52.9752 0 0)
(53.0534 0 0)
(53.1317 0 0)
(53.2099 0 0)
(53.2882 0 0)
(53.3665 0 0)
(53.4447 0 0)
(53.523 0 0)
(53.6012 0 0)
(53.6795 0 0)
(53.7577 0 0)
(53.836 0 0)
(53.9142 0 0)
(53.9925 0 0)
(54.0708 0 0)
(54.149 0 0)
(54.2273 0 0)
(54.3055 0 0)
(54.3838 0 0)
(54.4621 0 0)
(54.5403 0 0)
(54.6186 0 0)
(54.6968 0 0)
(54.7751 0 0)
(54.8534 0 0)
(54.9316 0 0)
(55.0099 0 0)
(55.0882 0 0)
(55.1664 0 0)
(55.2447 0 0)
(55.323 0 0)
(55.4012 0 0)
(55.4795 0 0)
(55.5578 0 0)
(55.636 0 0)
(55.7143 0 0)
(55.7926 0 0)
(55.8708 0 0)
(55.9491 0 0)
(56.0274 0 0)
(56.1056 0 0)
(56.1839 0 0)
(56.2622 0 0)
(56.3405 0 0)
(56.4187 0 0)
(56.497 0 0)
(56.5753 0 0)
(56.6535 0 0)
(56.7318 0 0)
(56.8101 0 0)
(56.8884 0 0)
(56.9666 0 0)
(57.0449 0 0)
(57.1232 0 0)
(57.2015 0 0)
(57.2797 0 0)
(57.358 0 0)
(57.4363 0 0)
(57.5146 0 0)
(57.5929 0 0)
(57.6711 0 0)
(57.7494 0 0)
(57.8277 0 0)
(57.906 0 0)
(57.9843 0 0)
(58.0625 0 0)
(58.1408 0 0)
(58.2191 0 0)
(58.2974 0 0)
(58.3757 0 0)
(58.454 0 0)
(58.5322 0 0)
(58.6105 0 0)
(58.6888 0 0)
(58.7671 0 0)
(58.8454 0 0)
(58.9237 0 0)
(59.002 0 0)
(59.0802 0 0)
(59.1585 0 0)
(59.2368 0 0)
(59.3151 0 0)
(59.3934 0 0)
(59.4717 0 0)
(59.55 0 0)
(59.6283 0 0)
(59.7066 0 0)
(59.7849 0 0)
(59.8631 0 0)
(59.9414 0 0)
(60.0197 0 0)
(60.098 0 0)
(60.1763 0 0)
(60.2546 0 0)
(60.3329 0 0)
(60.4112 0 0)
(60.4895 0 0)
(60.5678 0 0)
(60.6461 0 0)
(60.7244 0 0)
(60.8027 0 0)
(60.881 0 0)
(60.9593 0 0)
(61.0376 0 0)
(61.1159 0 0)
(61.1942 0 0)
(61.2725 0 0)
(61.3508 0 0)
(61.4291 0 0)
(61.5074 0 0)
(61.5857 0 0)
(61.664 0 0)
(61.7423 0 0)
(61.8206 0 0)
(61.8989 0 0)
(61.9772 0 0)
(62.0555 0 0)
(62.1338 0 0)
(62.2121 0 0)
(62.2904 0 0)
(62.3687 0 0)
(62.447 0 0)
(62.5254 0 0)
(62.6037 0 0)
(62.682 0 0)
(62.7603 0 0)
(62.8386 0 0)
(62.9169 0 0)
(62.9952 0 0)
(63.0735 0 0)
(63.1518 0 0)
(63.2301 0 0)
(63.3085 0 0)
(63.3868 0 0)
(63.4651 0 0)
(63.5434 0 0)
(63.6217 0 0)
(63.7 0 0)
(63.7783 0 0)
(63.8567 0 0)
(63.935 0 0)
(64.0133 0 0)
(64.0916 0 0)
(64.1699 0 0)
(64.2482 0 0)
(64.3266 0 0)
(64.4049 0 0)
(64.4832 0 0)
(64.5615 0 0)
(64.6398 0 0)
(64.7182 0 0)
(64.7965 0 0)
(64.8748 0 0)
(64.9531 0 0)
(65.0314 0 0)
(65.1098 0 0)
(65.1881 0 0)
(65.2664 0 0)
(65.3447 0 0)
(65.4231 0 0)
(65.5014 0 0)
(65.5797 0 0)
(65.658 0 0)
(65.7364 0 0)
(65.8147 0 0)
(65.893 0 0)
(65.9713 0 0)
(66.0497 0 0)
(66.128 0 0)
(66.2063 0 0)
(66.2847 0 0)
(66.363 0 0)
(66.4413 0 0)
(66.5197 0 0)
(66.598 0 0)
(66.6763 0 0)
(66.7547 0 0)
(66.833 0 0)
(66.9113 0 0)
(66.9897 0 0)
(67.068 0 0)
(67.1463 0 0)
(67.2247 0 0)
(67.303 0 0)
(67.3813 0 0)
(67.4597 0 0)
(67.538 0 0)
(67.6163 0 0)
(67.6947 0 0)
(67.773 0 0)
(67.8514 0 0)
(67.9297 0 0)
(68.008 0 0)
(68.0864 0 0)
(68.1647 0 0)
(68.2431 0 0)
(68.3214 0 0)
(68.3997 0 0)
(68.4781 0 0)
(68.5564 0 0)
(68.6348 0 0)
(68.7131 0 0)
(68.7915 0 0)
(68.8698 0 0)
(68.9481 0 0)
(69.0265 0 0)
(69.1048 0 0)
(69.1832 0 0)
(69.2615 0 0)
(69.3399 0 0)
(69.4182 0 0)
(69.4966 0 0)
(69.5749 0 0)
(69.6533 0 0)
(69.7316 0 0)
(69.81 0 0)
(69.8883 0 0)
(69.9667 0 0)
(70.045 0 0)
(70.1234 0 0)
(70.2017 0 0)
(70.2801 0 0)
(70.3584 0 0)
(70.4368 0 0)
(70.5151 0 0)
(70.5935 0 0)
(70.6718 0 0)
(70.7502 0 0)
(70.8286 0 0)
(70.9069 0 0)
(70.9853 0 0)
(71.0636 0 0)
(71.142 0 0)
(71.2203 0 0)
(71.2987 0 0)
(71.3771 0 0)
(71.4554 0 0)
(71.5338 0 0)
(71.6121 0 0)
(71.6905 0 0)
(71.7689 0 0)
(71.8472 0 0)
(71.9256 0 0)
(72.004 0 0)
(72.0823 0 0)
(72.1607 0 0)
(72.239 0 0)
(72.3174 0 0)
(72.3958 0 0)
(72.4741 0 0)
(72.5525 0 0)
(72.6309 0 0)
(72.7092 0 0)
(72.7876 0 0)
(72.866 0 0)
(72.9443 0 0)
(73.0227 0 0)
(73.1011 0 0)
(73.1794 0 0)
(73.2578 0 0)
(73.3362 0 0)
(73.4146 0 0)
(73.4929 0 0)
(73.5713 0 0)
(73.6497 0 0)
(73.728 0 0)
(73.8064 0 0)
(73.8848 0 0)
(73.9632 0 0)
(74.0415 0 0)
(74.1199 0 0)
(74.1983 0 0)
(74.2767 0 0)
(74.355 0 0)
(74.4334 0 0)
(74.5118 0 0)
(74.5902 0 0)
(74.6686 0 0)
(74.7469 0 0)
(74.8253 0 0)
(74.9037 0 0)
(74.9821 0 0)
(75.0604 0 0)
(75.1388 0 0)
(75.2172 0 0)
(75.2956 0 0)
(75.374 0 0)
(75.4524 0 0)
(75.5307 0 0)
(75.6091 0 0)
(75.6875 0 0)
(75.7659 0 0)
(75.8443 0 0)
(75.9227 0 0)
(76.001 0 0)
(76.0794 0 0)
(76.1578 0 0)
(76.2362 0 0)
(76.3146 0 0)
(76.393 0 0)
(76.4714 0 0)
(76.5498 0 0)
(76.6281 0 0)
(76.7065 0 0)
(76.7849 0 0)
(76.8633 0 0)
(76.9417 0 0)
(77.0201 0 0)
(77.0985 0 0)
(77.1769 0 0)
(77.2553 0 0)
(77.3337 0 0)
(77.4121 0 0)
(77.4905 0 0)
(77.5689 0 0)
(77.6472 0 0)
(77.7256 0 0)
(77.804 0 0)
(77.8824 0 0)
(77.9608 0 0)
(78.0392 0 0)
(78.1176 0 0)
(78.196 0 0)
(78.2744 0 0)
(78.3528 0 0)
(78.4312 0 0)
(78.5096 0 0)
(78.588 0 0)
(78.6664 0 0)
(78.7448 0 0)
(78.8232 0 0)
(78.9016 0 0)
(78.98 0 0)
(79.0584 0 0)
(79.1368 0 0)
(79.2152 0 0)
(79.2936 0 0)
(79.372 0 0)
(79.4505 0 0)
(79.5289 0 0)
(79.6073 0 0)
(79.6857 0 0)
(79.7641 0 0)
(79.8425 0 0)
(79.9209 0 0)
(79.9993 0 0)
(80.0777 0 0)
(80.1561 0 0)
(80.2345 0 0)
(80.3129 0 0)
(80.3914 0 0)
(80.4698 0 0)
(80.5482 0 0)
(80.6266 0 0)
(80.705 0 0)
(80.7834 0 0)
(80.8618 0 0)
(80.9402 0 0)
(81.0187 0 0)
(81.0971 0 0)
(81.1755 0 0)
(81.2539 0 0)
(81.3323 0 0)
(81.4107 0 0)
(81.4891 0 0)
(81.5676 0 0)
(81.646 0 0)
(81.7244 0 0)
(81.8028 0 0)
(81.8812 0 0)
(81.9597 0 0)
(82.0381 0 0)
(82.1165 0 0)
(82.1949 0 0)
(82.2733 0 0)
(82.3518 0 0)
(82.4302 0 0)
(82.5086 0 0)
(82.587 0 0)
(82.6655 0 0)
(82.7439 0 0)
(82.8223 0 0)
(82.9007 0 0)
(82.9792 0 0)
(83.0576 0 0)
(83.136 0 0)
(83.2144 0 0)
(83.2929 0 0)
(83.3713 0 0)
(83.4497 0 0)
(83.5281 0 0)
(83.6066 0 0)
(83.685 0 0)
(83.7634 0 0)
(83.8419 0 0)
(83.9203 0 0)
(83.9987 0 0)
(84.0772 0 0)
(84.1556 0 0)
(84.234 0 0)
(84.3124 0 0)
(84.3909 0 0)
(84.4693 0 0)
(84.5477 0 0)
(84.6262 0 0)
(84.7046 0 0)
(84.7831 0 0)
(84.8615 0 0)
(84.9399 0 0)
(85.0184 0 0)
(85.0968 0 0)
(85.1752 0 0)
(85.2537 0 0)
(85.3321 0 0)
(85.4106 0 0)
(85.489 0 0)
(85.5674 0 0)
(85.6459 0 0)
(85.7243 0 0)
(85.8028 0 0)
(85.8812 0 0)
(85.9596 0 0)
(86.0381 0 0)
(86.1165 0 0)
(86.195 0 0)
(86.2734 0 0)
(86.3519 0 0)
(86.4303 0 0)
(86.5087 0 0)
(86.5872 0 0)
(86.6656 0 0)
(86.7441 0 0)
(86.8225 0 0)
(86.901 0 0)
(86.9794 0 0)
(87.0579 0 0)
(87.1363 0 0)
(87.2148 0 0)
(87.2932 0 0)
(87.3717 0 0)
(87.4501 0 0)
(87.5286 0 0)
(87.607 0 0)
(87.6855 0 0)
(87.7639 0 0)
(87.8424 0 0)
(87.9208 0 0)
(87.9993 0 0)
(88.0777 0 0)
(88.1562 0 0)
(88.2346 0 0)
(88.3131 0 0)
(88.3916 0 0)
(88.47 0 0)
(88.5485 0 0)
(88.6269 0 0)
(88.7054 0 0)
(88.7838 0 0)
(88.8623 0 0)
(88.9408 0 0)
(89.0192 0 0)
(89.0977 0 0)
(89.1761 0 0)
(89.2546 0 0)
(89.333 0 0)
(89.4115 0 0)
(89.49 0 0)
(89.5684 0 0)
(89.6469 0 0)
(89.7254 0 0)
(89.8038 0 0)
(89.8823 0 0)
(89.9607 0 0)
(90.0392 0 0)
(90.1177 0 0)
(90.1961 0 0)
(90.2746 0 0)
(90.3531 0 0)
(90.4315 0 0)
(90.51 0 0)
(90.5885 0 0)
(90.6669 0 0)
(90.7454 0 0)
(90.8239 0 0)
(90.9024 0 0)
(90.9808 0 0)
(91.0593 0 0)
(91.1378 0 0)
(91.2162 0 0)
(91.2947 0 0)
(91.3732 0 0)
(91.4516 0 0)
(91.5301 0 0)
(91.6086 0 0)
(91.6871 0 0)
(91.7655 0 0)
(91.844 0 0)
(91.9225 0 0)
(92.001 0 0)
(92.0794 0 0)
(92.1579 0 0)
(92.2364 0 0)
(92.3149 0 0)
(92.3933 0 0)
(92.4718 0 0)
(92.5503 0 0)
(92.6288 0 0)
(92.7073 0 0)
(92.7857 0 0)
(92.8642 0 0)
(92.9427 0 0)
(93.0212 0 0)
(93.0997 0 0)
(93.1781 0 0)
(93.2566 0 0)
(93.3351 0 0)
(93.4136 0 0)
(93.4921 0 0)
(93.5706 0 0)
(93.649 0 0)
(93.7275 0 0)
(93.806 0 0)
(93.8845 0 0)
(93.963 0 0)
(94.0415 0 0)
(94.12 0 0)
(94.1984 0 0)
(94.2769 0 0)
(94.3554 0 0)
(94.4339 0 0)
(94.5124 0 0)
(94.5909 0 0)
(94.6694 0 0)
(94.7479 0 0)
(94.8264 0 0)
(94.9048 0 0)
(94.9833 0 0)
(95.0618 0 0)
(95.1403 0 0)
(95.2188 0 0)
(95.2973 0 0)
(95.3758 0 0)
(95.4543 0 0)
(95.5328 0 0)
(95.6113 0 0)
(95.6898 0 0)
(95.7683 0 0)
(95.8468 0 0)
(95.9253 0 0)
(96.0038 0 0)
(96.0823 0 0)
(96.1608 0 0)
(96.2393 0 0)
(96.3178 0 0)
(96.3963 0 0)
(96.4748 0 0)
(96.5533 0 0)
(96.6318 0 0)
(96.7103 0 0)
(96.7888 0 0)
(96.8673 0 0)
(96.9458 0 0)
(97.0243 0 0)
(97.1028 0 0)
(97.1813 0 0)
(97.2598 0 0)
(97.3383 0 0)
(97.4168 0 0)
(97.4953 0 0)
(97.5738 0 0)
(97.6523 0 0)
(97.7308 0 0)
(97.8093 0 0)
(97.8878 0 0)
(97.9663 0 0)
(98.0448 0 0)
(98.1233 0 0)
(98.2018 0 0)
(98.2804 0 0)
(98.3589 0 0)
(98.4374 0 0)
(98.5159 0 0)
(98.5944 0 0)
(98.6729 0 0)
(98.7514 0 0)
(98.8299 0 0)
(98.9084 0 0)
(98.9869 0 0)
(99.0655 0 0)
(99.144 0 0)
(99.2225 0 0)
(99.301 0 0)
(99.3795 0 0)
(99.458 0 0)
(99.5365 0 0)
(99.6151 0 0)
(99.6936 0 0)
(99.7721 0 0)
(99.8506 0 0)
(99.9291 0 0)
(100.008 0 0)
(100.086 0 0)
(100.165 0 0)
(100.243 0 0)
(100.322 0 0)
(100.4 0 0)
(100.479 0 0)
(100.557 0 0)
(100.636 0 0)
(100.714 0 0)
(100.793 0 0)
(100.871 0 0)
(100.95 0 0)
(101.028 0 0)
(101.107 0 0)
(101.185 0 0)
(101.264 0 0)
(101.343 0 0)
(101.421 0 0)
(101.5 0 0)
(101.578 0 0)
(101.657 0 0)
(101.735 0 0)
(101.814 0 0)
(101.892 0 0)
(101.971 0 0)
(102.049 0 0)
(102.128 0 0)
(102.206 0 0)
(102.285 0 0)
(102.363 0 0)
(102.442 0 0)
(102.52 0 0)
(102.599 0 0)
(102.678 0 0)
(102.756 0 0)
(102.835 0 0)
(102.913 0 0)
(102.992 0 0)
(103.07 0 0)
(103.149 0 0)
(103.227 0 0)
(103.306 0 0)
(103.384 0 0)
(103.463 0 0)
(103.541 0 0)
(103.62 0 0)
(103.698 0 0)
(103.777 0 0)
(103.856 0 0)
(103.934 0 0)
(104.013 0 0)
(104.091 0 0)
(104.17 0 0)
(104.248 0 0)
(104.327 0 0)
(104.405 0 0)
(104.484 0 0)
(104.562 0 0)
(104.641 0 0)
(104.719 0 0)
(104.798 0 0)
(104.877 0 0)
(104.955 0 0)
(105.034 0 0)
(105.112 0 0)
(105.191 0 0)
(105.269 0 0)
(105.348 0 0)
(105.426 0 0)
(105.505 0 0)
(105.583 0 0)
(105.662 0 0)
(105.741 0 0)
(105.819 0 0)
(105.898 0 0)
(105.976 0 0)
(106.055 0 0)
(106.133 0 0)
(106.212 0 0)
(106.29 0 0)
(106.369 0 0)
(106.447 0 0)
(106.526 0 0)
(106.605 0 0)
(106.683 0 0)
(106.762 0 0)
(106.84 0 0)
(106.919 0 0)
(106.997 0 0)
(107.076 0 0)
(107.154 0 0)
(107.233 0 0)
(107.312 0 0)
(107.39 0 0)
(107.469 0 0)
(107.547 0 0)
(107.626 0 0)
(107.704 0 0)
(107.783 0 0)
(107.861 0 0)
(107.94 0 0)
(108.019 0 0)
(108.097 0 0)
(108.176 0 0)
(108.254 0 0)
(108.333 0 0)
(108.411 0 0)
(108.49 0 0)
(108.569 0 0)
(108.647 0 0)
(108.726 0 0)
(108.804 0 0)
(108.883 0 0)
(108.961 0 0)
(109.04 0 0)
(109.118 0 0)
(109.197 0 0)
(109.276 0 0)
(109.354 0 0)
(109.433 0 0)
(109.511 0 0)
(109.59 0 0)
(109.668 0 0)
(109.747 0 0)
(109.826 0 0)
(109.904 0 0)
(109.983 0 0)
(110.061 0 0)
(110.14 0 0)
(110.218 0 0)
(110.297 0 0)
(110.376 0 0)
(110.454 0 0)
(110.533 0 0)
(110.611 0 0)
(110.69 0 0)
(110.768 0 0)
(110.847 0 0)
(110.926 0 0)
(111.004 0 0)
(111.083 0 0)
(111.161 0 0)
(111.24 0 0)
(111.318 0 0)
(111.397 0 0)
(111.476 0 0)
(111.554 0 0)
(111.633 0 0)
(111.711 0 0)
(111.79 0 0)
(111.868 0 0)
(111.947 0 0)
(112.026 0 0)
(112.104 0 0)
(112.183 0 0)
(112.261 0 0)
(112.34 0 0)
(112.418 0 0)
(112.497 0 0)
(112.576 0 0)
(112.654 0 0)
(112.733 0 0)
(112.811 0 0)
(112.89 0 0)
(112.969 0 0)
(113.047 0 0)
(113.126 0 0)
(113.204 0 0)
(113.283 0 0)
(113.361 0 0)
(113.44 0 0)
(113.519 0 0)
(113.597 0 0)
(113.676 0 0)
(113.754 0 0)
(113.833 0 0)
(113.912 0 0)
(113.99 0 0)
(114.069 0 0)
(114.147 0 0)
(114.226 0 0)
(114.304 0 0)
(114.383 0 0)
(114.462 0 0)
(114.54 0 0)
(114.619 0 0)
(114.697 0 0)
(114.776 0 0)
(114.855 0 0)
(114.933 0 0)
(115.012 0 0)
(115.09 0 0)
(115.169 0 0)
(115.248 0 0)
(115.326 0 0)
(115.405 0 0)
(115.483 0 0)
(115.562 0 0)
(115.641 0 0)
(115.719 0 0)
(115.798 0 0)
(115.876 0 0)
(115.955 0 0)
(116.033 0 0)
(116.112 0 0)
(116.191 0 0)
(116.269 0 0)
(116.348 0 0)
(116.426 0 0)
(116.505 0 0)
(116.584 0 0)
(116.662 0 0)
(116.741 0 0)
(116.819 0 0)
(116.898 0 0)
(116.977 0 0)
(117.055 0 0)
(117.134 0 0)
(117.212 0 0)
(117.291 0 0)
(117.37 0 0)
(117.448 0 0)
(117.527 0 0)
(117.605 0 0)
(117.684 0 0)
(117.763 0 0)
(117.841 0 0)
(117.92 0 0)
(117.998 0 0)
(118.077 0 0)
(118.156 0 0)
(118.234 0 0)
(118.313 0 0)
(118.392 0 0)
(118.47 0 0)
(118.549 0 0)
(118.627 0 0)
(118.706 0 0)
(118.785 0 0)
(118.863 0 0)
(118.942 0 0)
(119.02 0 0)
(119.099 0 0)
(119.178 0 0)
(119.256 0 0)
(119.335 0 0)
(119.413 0 0)
(119.492 0 0)
(119.571 0 0)
(119.649 0 0)
(119.728 0 0)
(119.806 0 0)
(119.885 0 0)
(119.964 0 0)
(120.042 0 0)
(120.121 0 0)
(120.2 0 0)
(120.278 0 0)
(120.357 0 0)
(120.435 0 0)
(120.514 0 0)
(120.593 0 0)
(120.671 0 0)
(120.75 0 0)
(120.828 0 0)
(120.907 0 0)
(120.986 0 0)
(121.064 0 0)
(121.143 0 0)
(121.222 0 0)
(121.3 0 0)
(121.379 0 0)
(121.457 0 0)
(121.536 0 0)
(121.615 0 0)
(121.693 0 0)
(121.772 0 0)
(121.85 0 0)
(121.929 0 0)
(122.008 0 0)
(122.086 0 0)
(122.165 0 0)
(122.244 0 0)
(122.322 0 0)
(122.401 0 0)
(122.479 0 0)
(122.558 0 0)
(122.637 0 0)
(122.715 0 0)
(122.794 0 0)
(122.873 0 0)
(122.951 0 0)
(123.03 0 0)
(123.108 0 0)
(123.187 0 0)
(123.266 0 0)
(123.344 0 0)
(123.423 0 0)
(123.502 0 0)
(123.58 0 0)
(123.659 0 0)
(123.737 0 0)
(123.816 0 0)
(123.895 0 0)
(123.973 0 0)
(124.052 0 0)
(124.131 0 0)
(124.209 0 0)
(124.288 0 0)
(124.366 0 0)
(124.445 0 0)
(124.524 0 0)
(124.602 0 0)
(124.681 0 0)
(124.76 0 0)
(124.838 0 0)
(124.917 0 0)
(124.996 0 0)
(125.074 0 0)
(125.153 0 0)
(125.231 0 0)
(125.31 0 0)
(125.389 0 0)
(125.467 0 0)
(125.546 0 0)
(125.625 0 0)
(125.703 0 0)
(125.782 0 0)
(125.86 0 0)
(125.939 0 0)
(126.018 0 0)
(126.096 0 0)
(126.175 0 0)
(126.254 0 0)
(126.332 0 0)
(126.411 0 0)
(126.49 0 0)
(126.568 0 0)
(126.647 0 0)
(126.725 0 0)
(126.804 0 0)
(126.883 0 0)
(126.961 0 0)
(127.04 0 0)
(127.119 0 0)
(127.197 0 0)
(127.276 0 0)
(127.355 0 0)
(127.433 0 0)
(127.512 0 0)
(127.591 0 0)
(127.669 0 0)
(127.748 0 0)
(127.826 0 0)
(127.905 0 0)
(127.984 0 0)
(128.062 0 0)
(128.141 0 0)
(128.22 0 0)
(128.298 0 0)
(128.377 0 0)
(128.456 0 0)
(128.534 0 0)
(128.613 0 0)
(128.692 0 0)
(128.77 0 0)
(128.849 0 0)
(128.927 0 0)
(129.006 0 0)
(129.085 0 0)
(129.163 0 0)
(129.242 0 0)
(129.321 0 0)
(129.399 0 0)
(129.478 0 0)
(129.557 0 0)
(129.635 0 0)
(129.714 0 0)
(129.793 0 0)
(129.871 0 0)
(129.95 0 0)
(130.029 0 0)
(130.107 0 0)
(130.186 0 0)
(130.264 0 0)
(130.343 0 0)
(130.422 0 0)
(130.5 0 0)
(130.579 0 0)
(130.658 0 0)
(130.736 0 0)
(130.815 0 0)
(130.894 0 0)
(130.972 0 0)
(131.051 0 0)
(131.13 0 0)
(131.208 0 0)
(131.287 0 0)
(131.366 0 0)
(131.444 0 0)
(131.523 0 0)
(131.602 0 0)
(131.68 0 0)
(131.759 0 0)
(131.837 0 0)
(131.916 0 0)
(131.995 0 0)
(132.073 0 0)
(132.152 0 0)
(132.231 0 0)
(132.309 0 0)
(132.388 0 0)
(132.467 0 0)
(132.545 0 0)
(132.624 0 0)
(132.703 0 0)
(132.781 0 0)
(132.86 0 0)
(132.939 0 0)
(133.017 0 0)
(133.096 0 0)
(133.175 0 0)
(133.253 0 0)
(133.332 0 0)
(133.411 0 0)
(133.489 0 0)
(133.568 0 0)
(133.647 0 0)
(133.725 0 0)
(133.804 0 0)
(133.883 0 0)
(133.961 0 0)
(134.04 0 0)
(134.118 0 0)
(134.197 0 0)
(134.276 0 0)
(134.354 0 0)
(134.433 0 0)
(134.512 0 0)
(134.59 0 0)
(134.669 0 0)
(134.748 0 0)
(134.826 0 0)
(134.905 0 0)
(134.984 0 0)
(135.062 0 0)
(135.141 0 0)
(135.22 0 0)
(135.298 0 0)
(135.377 0 0)
(135.456 0 0)
(135.534 0 0)
(135.613 0 0)
(135.692 0 0)
(135.77 0 0)
(135.849 0 0)
(135.928 0 0)
(136.006 0 0)
(136.085 0 0)
(136.164 0 0)
(136.242 0 0)
(136.321 0 0)
(136.4 0 0)
(136.478 0 0)
(136.557 0 0)
(136.636 0 0)
(136.714 0 0)
(136.793 0 0)
(136.872 0 0)
(136.95 0 0)
(137.029 0 0)
(137.108 0 0)
(137.186 0 0)
(137.265 0 0)
(137.344 0 0)
(137.422 0 0)
(137.501 0 0)
(137.58 0 0)
(137.658 0 0)
(137.737 0 0)
(137.816 0 0)
(137.894 0 0)
(137.973 0 0)
(138.052 0 0)
(138.13 0 0)
(138.209 0 0)
(138.288 0 0)
(138.366 0 0)
(138.445 0 0)
(138.524 0 0)
(138.602 0 0)
(138.681 0 0)
(138.76 0 0)
(138.838 0 0)
(138.917 0 0)
(138.996 0 0)
(139.074 0 0)
(139.153 0 0)
(139.232 0 0)
(139.31 0 0)
(139.389 0 0)
(139.468 0 0)
(139.546 0 0)
(139.625 0 0)
(139.704 0 0)
(139.782 0 0)
(139.861 0 0)
(139.94 0 0)
(140.018 0 0)
(140.097 0 0)
(140.176 0 0)
(140.254 0 0)
(140.333 0 0)
(140.412 0 0)
(140.49 0 0)
(140.569 0 0)
(140.648 0 0)
(140.726 0 0)
(140.805 0 0)
(140.884 0 0)
(140.962 0 0)
(141.041 0 0)
(141.12 0 0)
(141.198 0 0)
(141.277 0 0)
(141.356 0 0)
(141.434 0 0)
(141.513 0 0)
(141.592 0 0)
(141.67 0 0)
(141.749 0 0)
(141.828 0 0)
(141.906 0 0)
(141.985 0 0)
(142.064 0 0)
(142.142 0 0)
(142.221 0 0)
(142.3 0 0)
(142.378 0 0)
(142.457 0 0)
(142.536 0 0)
(142.614 0 0)
(142.693 0 0)
(142.772 0 0)
(142.85 0 0)
(142.929 0 0)
(143.008 0 0)
(143.086 0 0)
(143.165 0 0)
(143.244 0 0)
(143.322 0 0)
(143.401 0 0)
(143.48 0 0)
(143.558 0 0)
(143.637 0 0)
(143.716 0 0)
(143.794 0 0)
(143.873 0 0)
(143.952 0 0)
(144.03 0 0)
(144.109 0 0)
(144.188 0 0)
(144.266 0 0)
(144.345 0 0)
(144.424 0 0)
(144.502 0 0)
(144.581 0 0)
(144.66 0 0)
(144.738 0 0)
(144.817 0 0)
(144.896 0 0)
(144.974 0 0)
(145.053 0 0)
(145.132 0 0)
(145.21 0 0)
(145.289 0 0)
(145.368 0 0)
(145.446 0 0)
(145.525 0 0)
(145.604 0 0)
(145.682 0 0)
(145.761 0 0)
(145.84 0 0)
(145.918 0 0)
(145.997 0 0)
(146.076 0 0)
(146.154 0 0)
(146.233 0 0)
(146.312 0 0)
(146.39 0 0)
(146.469 0 0)
(146.548 0 0)
(146.626 0 0)
(146.705 0 0)
(146.784 0 0)
(146.862 0 0)
(146.941 0 0)
(147.02 0 0)
(147.098 0 0)
(147.177 0 0)
(147.256 0 0)
(147.334 0 0)
(147.413 0 0)
(147.492 0 0)
(147.57 0 0)
(147.649 0 0)
(147.728 0 0)
(147.806 0 0)
(147.885 0 0)
(147.964 0 0)
(148.042 0 0)
(148.121 0 0)
(148.2 0 0)
(148.278 0 0)
(148.357 0 0)
(148.436 0 0)
(148.514 0 0)
(148.593 0 0)
(148.672 0 0)
(148.75 0 0)
(148.829 0 0)
(148.908 0 0)
(148.986 0 0)
(149.065 0 0)
(149.144 0 0)
(149.222 0 0)
(149.301 0 0)
(149.38 0 0)
(149.458 0 0)
(149.537 0 0)
(149.616 0 0)
(149.694 0 0)
(149.773 0 0)
(149.852 0 0)
(149.93 0 0)
(150.009 0 0)
(150.088 0 0)
(150.166 0 0)
(150.245 0 0)
(150.324 0 0)
(150.402 0 0)
(150.481 0 0)
(150.56 0 0)
(150.638 0 0)
(150.717 0 0)
(150.796 0 0)
(150.874 0 0)
(150.953 0 0)
(151.032 0 0)
(151.11 0 0)
(151.189 0 0)
(151.268 0 0)
(151.346 0 0)
(151.425 0 0)
(151.503 0 0)
(151.582 0 0)
(151.661 0 0)
(151.739 0 0)
(151.818 0 0)
(151.897 0 0)
(151.975 0 0)
(152.054 0 0)
(152.133 0 0)
(152.211 0 0)
(152.29 0 0)
(152.369 0 0)
(152.447 0 0)
(152.526 0 0)
(152.605 0 0)
(152.683 0 0)
(152.762 0 0)
(152.841 0 0)
(152.919 0 0)
(152.998 0 0)
(153.077 0 0)
(153.155 0 0)
(153.234 0 0)
(153.312 0 0)
(153.391 0 0)
(153.47 0 0)
(153.548 0 0)
(153.627 0 0)
(153.706 0 0)
(153.784 0 0)
(153.863 0 0)
(153.942 0 0)
(154.02 0 0)
(154.099 0 0)
(154.178 0 0)
(154.256 0 0)
(154.335 0 0)
(154.414 0 0)
(154.492 0 0)
(154.571 0 0)
(154.649 0 0)
(154.728 0 0)
(154.807 0 0)
(154.885 0 0)
(154.964 0 0)
(155.043 0 0)
(155.121 0 0)
(155.2 0 0)
(155.279 0 0)
(155.357 0 0)
(155.436 0 0)
(155.514 0 0)
(155.593 0 0)
(155.672 0 0)
(155.75 0 0)
(155.829 0 0)
(155.908 0 0)
(155.986 0 0)
(156.065 0 0)
(156.144 0 0)
(156.222 0 0)
(156.301 0 0)
(156.379 0 0)
(156.458 0 0)
(156.537 0 0)
(156.615 0 0)
(156.694 0 0)
(156.773 0 0)
(156.851 0 0)
(156.93 0 0)
(157.008 0 0)
(157.087 0 0)
(157.166 0 0)
(157.244 0 0)
(157.323 0 0)
(157.402 0 0)
(157.48 0 0)
(157.559 0 0)
(157.637 0 0)
(157.716 0 0)
(157.795 0 0)
(157.873 0 0)
(157.952 0 0)
(158.031 0 0)
(158.109 0 0)
(158.188 0 0)
(158.266 0 0)
(158.345 0 0)
(158.424 0 0)
(158.502 0 0)
(158.581 0 0)
(158.66 0 0)
(158.738 0 0)
(158.817 0 0)
(158.895 0 0)
(158.974 0 0)
(159.053 0 0)
(159.131 0 0)
(159.21 0 0)
(159.288 0 0)
(159.367 0 0)
(159.446 0 0)
(159.524 0 0)
(159.603 0 0)
(159.681 0 0)
(159.76 0 0)
(159.839 0 0)
(159.917 0 0)
(159.996 0 0)
(160.074 0 0)
(160.153 0 0)
(160.232 0 0)
(160.31 0 0)
(160.389 0 0)
(160.467 0 0)
(160.546 0 0)
(160.625 0 0)
(160.703 0 0)
(160.782 0 0)
(160.86 0 0)
(160.939 0 0)
(161.018 0 0)
(161.096 0 0)
(161.175 0 0)
(161.253 0 0)
(161.332 0 0)
(161.411 0 0)
(161.489 0 0)
(161.568 0 0)
(161.646 0 0)
(161.725 0 0)
(161.803 0 0)
(161.882 0 0)
(161.961 0 0)
(162.039 0 0)
(162.118 0 0)
(162.196 0 0)
(162.275 0 0)
(162.354 0 0)
(162.432 0 0)
(162.511 0 0)
(162.589 0 0)
(162.668 0 0)
(162.746 0 0)
(162.825 0 0)
(162.904 0 0)
(162.982 0 0)
(163.061 0 0)
(163.139 0 0)
(163.218 0 0)
(163.296 0 0)
(163.375 0 0)
(163.453 0 0)
(163.532 0 0)
(163.611 0 0)
(163.689 0 0)
(163.768 0 0)
(163.846 0 0)
(163.925 0 0)
(164.003 0 0)
(164.082 0 0)
(164.16 0 0)
(164.239 0 0)
(164.318 0 0)
(164.396 0 0)
(164.475 0 0)
(164.553 0 0)
(164.632 0 0)
(164.71 0 0)
(164.789 0 0)
(164.867 0 0)
(164.946 0 0)
(165.024 0 0)
(165.103 0 0)
(165.182 0 0)
(165.26 0 0)
(165.339 0 0)
(165.417 0 0)
(165.496 0 0)
(165.574 0 0)
(165.653 0 0)
(165.731 0 0)
(165.81 0 0)
(165.888 0 0)
(165.967 0 0)
(166.045 0 0)
(166.124 0 0)
(166.202 0 0)
(166.281 0 0)
(166.359 0 0)
(166.438 0 0)
(166.516 0 0)
(166.595 0 0)
(166.673 0 0)
(166.752 0 0)
(166.83 0 0)
(166.909 0 0)
(166.988 0 0)
(167.066 0 0)
(167.145 0 0)