/*--------------------------------*- C++ -*----------------------------------*\
  =========                 |
  \\      /  F ield         | OpenFOAM: The Open Source CFD Toolbox
   \\    /   O peration     | Website:  https://openfoam.org
    \\  /    A nd           | Version:  9
     \\/     M anipulation  |
\*---------------------------------------------------------------------------*/
FoamFile
{
    format      ascii;
    class       volScalarField;
    location    "0.036";
    object      mag(U);
}
// * * * * * * * * * * * * * * * * * * * * * * * * * * * * * * * * * * * * * //

dimensions      [0 1 -1 0 0 0 0];

internalField   nonuniform List<scalar> 
1000
(
202.997
203.36
203.571
203.801
204.027
204.253
204.479
204.706
204.932
205.159
205.386
205.613
205.839
206.066
206.292
206.519
206.745
206.972
207.198
207.425
207.652
207.879
208.106
208.333
208.56
208.787
209.013
209.24
209.467
209.693
209.92
210.147
210.374
210.601
210.828
211.055
211.282
211.509
211.736
211.963
212.19
212.417
212.643
212.87
213.097
213.324
213.551
213.778
214.005
214.232
214.459
214.685
214.912
215.139
215.366
215.593
215.82
216.047
216.274
216.501
216.728
216.955
217.182
217.408
217.635
217.862
218.089
218.316
218.543
218.77
218.997
219.224
219.451
219.678
219.904
220.131
220.358
220.585
220.812
221.039
221.266
221.493
221.72
221.947
222.173
222.4
222.627
222.854
223.081
223.308
223.535
223.762
223.988
224.215
224.442
224.669
224.896
225.122
225.349
225.576
225.803
226.03
226.256
226.483
226.71
226.937
227.164
227.39
227.617
227.844
228.071
228.297
228.524
228.751
228.978
229.204
229.431
229.658
229.885
230.111
230.338
230.565
230.791
231.018
231.245
231.471
231.698
231.925
232.151
232.378
232.605
232.831
233.058
233.285
233.511
233.738
233.964
234.191
234.418
234.644
234.871
235.098
235.324
235.551
235.777
236.004
236.231
236.457
236.684
236.911
237.137
237.364
237.591
237.817
238.044
238.27
238.497
238.723
238.95
239.177
239.403
239.63
239.856
240.083
240.31
240.536
240.763
240.989
241.216
241.443
241.669
241.896
242.122
242.349
242.575
242.802
243.028
243.255
243.482
243.708
243.935
244.161
244.388
244.614
244.841
245.067
245.294
245.521
245.747
245.974
246.2
246.427
246.653
246.88
247.106
247.333
247.559
247.786
248.012
248.239
248.465
248.692
248.918
249.145
249.371
249.598
249.824
250.051
250.277
250.504
250.73
250.957
251.183
251.41
251.636
251.862
252.089
252.315
252.542
252.768
252.994
253.221
253.447
253.674
253.9
254.127
254.353
254.58
254.807
255.033
255.26
255.487
255.714
255.94
256.167
256.393
256.619
256.846
257.072
257.298
257.524
257.75
257.976
258.203
258.429
258.655
258.881
259.107
259.334
259.56
259.787
260.013
260.238
260.464
260.692
260.92
261.146
261.369
261.592
261.822
262.058
262.284
262.503
262.721
262.949
263.196
263.425
263.64
263.855
264.076
264.322
264.563
264.78
264.993
265.208
265.44
265.694
265.919
266.133
266.346
266.565
266.811
267.056
267.273
267.486
267.7
267.927
268.18
268.412
268.627
268.841
269.057
269.291
269.545
269.768
269.983
270.197
270.415
270.657
270.905
271.125
271.339
271.554
271.775
272.022
272.265
272.482
272.697
272.912
273.133
273.379
273.622
273.841
274.057
274.275
274.508
274.762
274.987
275.201
275.415
275.629
275.846
276.083
276.336
276.558
276.773
276.987
277.203
277.425
277.673
277.913
278.131
278.346
278.561
278.777
279.001
279.251
279.487
279.704
279.92
280.135
280.352
280.572
280.812
281.06
281.282
281.498
281.714
281.93
282.148
282.373
282.625
282.868
283.089
283.306
283.523
283.741
283.964
284.208
284.454
284.677
284.896
285.115
285.335
285.566
285.809
286.035
286.255
286.475
286.698
286.934
287.171
287.392
287.612
287.83
288.05
288.271
288.503
288.739
288.962
289.182
289.401
289.621
289.841
290.068
290.307
290.532
290.752
290.971
291.189
291.408
291.629
291.857
292.098
292.323
292.543
292.762
292.98
293.199
293.42
293.65
293.883
294.104
294.323
294.539
294.755
294.973
295.194
295.42
295.638
295.852
296.061
296.268
296.476
296.683
296.89
297.092
297.287
297.476
297.659
297.839
298.014
298.184
298.343
298.492
298.627
298.745
298.851
298.943
299.018
299.079
299.125
299.156
299.172
299.181
299.186
299.184
299.179
299.169
299.15
299.12
299.087
299.052
299.019
298.989
298.957
298.919
298.883
298.855
298.83
298.805
298.779
298.744
298.698
298.66
298.626
298.594
298.565
298.535
298.498
298.479
298.471
298.468
298.474
298.49
298.527
298.573
298.615
298.65
298.679
298.7
298.715
298.724
298.726
298.707
298.69
298.688
298.687
298.684
298.68
298.67
298.647
298.62
298.605
298.592
298.578
298.563
298.545
298.518
298.475
298.446
298.423
298.403
298.384
298.368
298.347
298.316
298.303
298.3
298.308
298.327
298.351
298.364
298.368
298.384
298.4
298.414
298.424
298.429
298.417
298.41
298.41
298.411
298.411
298.408
298.397
298.374
298.365
298.358
298.351
298.341
298.327
298.301
298.274
298.259
298.246
298.231
298.214
298.19
298.153
298.131
298.118
298.108
298.1
298.091
298.073
298.061
298.073
298.095
298.119
298.139
298.149
298.142
298.143
298.15
298.156
298.162
298.165
298.161
298.141
298.134
298.132
298.131
298.128
298.124
298.111
298.084
298.069
298.059
298.05
298.04
298.028
298.009
297.974
297.952
297.937
297.923
297.91
297.895
297.876
297.844
297.827
297.822
297.821
297.826
297.839
297.853
297.85
297.856
297.869
297.88
297.888
297.894
297.895
297.883
297.867
297.867
297.868
297.869
297.869
297.864
297.847
297.825
297.817
297.811
297.805
297.797
297.785
297.758
297.733
297.721
297.71
297.698
297.685
297.665
297.632
297.613
297.602
297.595
297.59
297.584
297.569
297.556
297.566
297.581
297.596
297.609
297.616
297.606
297.597
297.598
297.601
297.604
297.605
297.605
297.593
297.572
297.567
297.565
297.562
297.559
297.552
297.536
297.508
297.496
297.488
297.48
297.471
297.459
297.434
297.404
297.39
297.379
297.37
297.36
297.346
297.319
297.304
297.301
297.304
297.313
297.322
297.322
297.308
297.312
297.32
297.327
297.333
297.338
297.34
297.341
297.337
297.309
297.259
297.248
297.246
297.246
297.244
297.242
297.239
297.237
297.233
297.229
297.224
297.219
297.213
297.204
297.191
297.158
297.096
297.072
297.062
297.056
297.052
297.05
297.049
297.051
297.057
297.064
297.064
297.052
297.044
297.035
297.021
297.019
297.022
297.026
297.028
297.03
297.032
297.032
297.033
297.032
297.026
296.999
296.952
296.938
296.933
296.929
296.925
296.921
296.917
296.913
296.908
296.901
296.892
296.876
296.83
296.768
296.753
296.748
296.746
296.745
296.746
296.75
296.758
296.769
296.778
296.786
296.791
296.794
296.796
296.787
296.751
296.735
296.734
296.734
296.734
296.734
296.732
296.724
296.697
296.673
296.668
296.664
296.66
296.654
296.645
296.622
296.591
296.582
296.576
296.57
296.564
296.558
296.551
296.54
296.507
296.483
296.479
296.479
296.482
296.487
296.494
296.502
296.509
296.515
296.519
296.521
296.519
296.501
296.434
296.399
296.395
296.396
296.396
296.396
296.395
296.394
296.394
296.395
296.394
296.392
296.39
296.386
296.383
296.378
296.371
296.354
296.295
296.248
296.236
296.23
296.226
296.223
296.222
296.221
296.224
296.227
296.231
296.235
296.237
296.234
296.203
296.16
296.154
296.154
296.154
296.155
296.155
296.156
296.157
296.157
296.152
296.13
296.11
296.105
296.101
296.097
296.09
296.071
296.048
296.041
296.035
296.031
296.026
296.019
296.004
295.975
295.963
295.958
295.954
295.95
295.947
295.938
295.915
295.909
295.911
295.913
295.914
295.915
295.908
295.886
295.879
295.879
295.878
295.877
295.874
295.864
295.84
295.831
295.828
295.827
295.823
295.816
295.795
295.773
295.768
295.766
295.764
295.761
295.757
295.746
295.718
295.698
295.692
295.689
295.686
295.683
295.679
295.668
295.626
295.594
295.589
295.58
295.54
295.379
294.707
292.504
290.079
288.891
288.436
288.307
288.248
288.173
288.129
288.103
288.099
288.101
288.106
288.106
288.105
288.105
288.105
288.109
288.112
288.112
288.117
288.122
288.124
288.121
288.099
288.029
287.986
287.978
287.982
287.985
287.99
287.996
288.006
288.01
288.012
288.015
288.012
287.991
287.934
287.911
287.909
287.912
287.916
287.923
287.932
287.942
287.947
287.95
287.95
287.936
287.879
287.846
287.829
287.786
287.663
287.257
286.017
284.166
282.96
282.365
282.089
281.992
281.959
281.946
281.934
281.91
281.828
281.776
281.772
281.774
281.778
281.786
281.802
281.811
281.814
281.817
281.815
281.803
281.746
281.694
281.685
281.683
281.685
281.693
281.72
281.735
281.737
281.735
281.727
281.686
281.617
281.602
281.599
281.598
281.599
281.603
281.62
281.642
281.646
281.646
281.645
281.637
281.597
281.528
281.512
281.509
281.508
281.508
281.512
281.531
281.544
281.544
281.543
281.538
281.52
281.455
281.413
281.404
281.402
281.401
281.408
281.412
281.409
)
;

boundaryField
{
    sides
    {
        type            calculated;
        value           nonuniform List<scalar> 2(281.409 202.997);
    }
    empty
    {
        type            empty;
    }
}


// ************************************************************************* //
