/*--------------------------------*- C++ -*----------------------------------*\
  =========                 |
  \\      /  F ield         | OpenFOAM: The Open Source CFD Toolbox
   \\    /   O peration     | Website:  https://openfoam.org
    \\  /    A nd           | Version:  9
     \\/     M anipulation  |
\*---------------------------------------------------------------------------*/
FoamFile
{
    format      ascii;
    class       volScalarField;
    location    "0.048";
    object      ddt0(rho,e);
}
// * * * * * * * * * * * * * * * * * * * * * * * * * * * * * * * * * * * * * //

dimensions      [1 -1 -3 0 0 0 0];

internalField   nonuniform List<scalar> 
100
(
422560
421491
418265
413365
410414
409914
406328
400161
396903
398214
396871
393887
389386
384641
380714
376034
368772
363133
360694
360535
358078
356776
355481
365058
342853
348573
340259
323605
338752
350681
352384
361142
361038
348706
342939
345211
349737
353645
353523
348230
340363
332515
326572
327297
334842
341005
337886
326500
316047
313823
319893
328835
333536
330603
323524
318910
319828
325870
334689
341752
342328
336233
328061
325998
330595
342530
355184
359841
353685
344581
337207
338576
349028
367932
378649
377659
364839
350464
345345
363924
398363
431119
450369
446513
417330
401358
400306
426680
465287
482637
480521
462318
429194
387864
383798
405394
411989
427196
433112
416953
)
;

boundaryField
{
    sides
    {
        type            calculated;
        value           nonuniform List<scalar> 2(416953 422560);
    }
    empty
    {
        type            empty;
    }
}


// ************************************************************************* //
