/*--------------------------------*- C++ -*----------------------------------*\
  =========                 |
  \\      /  F ield         | OpenFOAM: The Open Source CFD Toolbox
   \\    /   O peration     | Website:  https://openfoam.org
    \\  /    A nd           | Version:  9
     \\/     M anipulation  |
\*---------------------------------------------------------------------------*/
FoamFile
{
    format      ascii;
    class       volVectorField;
    location    "0.048";
    object      ddtCorrDdt0(rho,U);
}
// * * * * * * * * * * * * * * * * * * * * * * * * * * * * * * * * * * * * * //

dimensions      [1 -2 -2 0 0 0 0];

internalField   nonuniform List<vector> 
100
(
(-154.949 0 0)
(-181.79 0 0)
(-218.227 0 0)
(-245.906 0 0)
(-271.104 0 0)
(-297.287 0 0)
(-322.328 0 0)
(-346.947 0 0)
(-372.325 0 0)
(-397.727 0 0)
(-421.726 0 0)
(-445.534 0 0)
(-469.038 0 0)
(-492.278 0 0)
(-515.446 0 0)
(-538.489 0 0)
(-561.268 0 0)
(-583.901 0 0)
(-601.979 0 0)
(-617.913 0 0)
(-635.211 0 0)
(-658.317 0 0)
(-683.778 0 0)
(-722.293 0 0)
(-755.814 0 0)
(-835.012 0 0)
(-860.966 0 0)
(-833.813 0 0)
(-857.09 0 0)
(-880.2 0 0)
(-879.026 0 0)
(-898.25 0 0)
(-917.375 0 0)
(-923.534 0 0)
(-933.665 0 0)
(-956.629 0 0)
(-987.396 0 0)
(-1012.53 0 0)
(-1031.65 0 0)
(-1053.3 0 0)
(-1074.6 0 0)
(-1091.86 0 0)
(-1110.51 0 0)
(-1135.65 0 0)
(-1163.66 0 0)
(-1186.53 0 0)
(-1201.61 0 0)
(-1214.16 0 0)
(-1230.53 0 0)
(-1251.67 0 0)
(-1274.76 0 0)
(-1296.74 0 0)
(-1315.37 0 0)
(-1330.57 0 0)
(-1345.24 0 0)
(-1362.73 0 0)
(-1383.15 0 0)
(-1404.06 0 0)
(-1423.08 0 0)
(-1439.24 0 0)
(-1453.34 0 0)
(-1467.73 0 0)
(-1484.59 0 0)
(-1505.17 0 0)
(-1527.05 0 0)
(-1548.87 0 0)
(-1567.89 0 0)
(-1582.16 0 0)
(-1592.87 0 0)
(-1604.4 0 0)
(-1618.71 0 0)
(-1638.05 0 0)
(-1661.6 0 0)
(-1687.62 0 0)
(-1708.57 0 0)
(-1723.24 0 0)
(-1732.11 0 0)
(-1739.93 0 0)
(-1752.05 0 0)
(-1773.9 0 0)
(-1801.07 0 0)
(-1825.29 0 0)
(-1841.74 0 0)
(-1846.4 0 0)
(-1841.57 0 0)
(-1846.27 0 0)
(-1863.84 0 0)
(-1900.22 0 0)
(-1950.4 0 0)
(-1995.9 0 0)
(-2042.99 0 0)
(-2088.16 0 0)
(-2119.79 0 0)
(-2146.74 0 0)
(-2194.09 0 0)
(-2237.58 0 0)
(-2263.25 0 0)
(-2284.97 0 0)
(-2299.83 0 0)
(-2309.4 0 0)
)
;

boundaryField
{
    sides
    {
        type            calculated;
        value           nonuniform List<vector> 2((-2309.4 0 0) (-154.949 0 0));
    }
    empty
    {
        type            empty;
    }
}


// ************************************************************************* //
