/*--------------------------------*- C++ -*----------------------------------*\
  =========                 |
  \\      /  F ield         | OpenFOAM: The Open Source CFD Toolbox
   \\    /   O peration     | Website:  https://openfoam.org
    \\  /    A nd           | Version:  9
     \\/     M anipulation  |
\*---------------------------------------------------------------------------*/
FoamFile
{
    format      ascii;
    class       surfaceScalarField;
    location    "0.039";
    object      phi;
}
// * * * * * * * * * * * * * * * * * * * * * * * * * * * * * * * * * * * * * //

dimensions      [1 0 -1 0 0 0 0];

internalField   nonuniform List<scalar> 
9999
(
6.43569
6.4635
6.4913
6.5191
6.54689
6.57469
6.60249
6.63028
6.65808
6.68587
6.71367
6.74146
6.76925
6.79704
6.82483
6.85262
6.8804
6.90819
6.93598
6.96376
6.99154
7.01933
7.04711
7.07489
7.10267
7.13045
7.15823
7.186
7.21378
7.24155
7.26933
7.2971
7.32487
7.35264
7.38041
7.40818
7.43595
7.46372
7.49149
7.51925
7.54702
7.57478
7.60254
7.63031
7.65807
7.68583
7.71359
7.74134
7.7691
7.79686
7.82461
7.85237
7.88012
7.90787
7.93563
7.96338
7.99113
8.01888
8.04663
8.07437
8.10212
8.12986
8.15761
8.18535
8.21309
8.24084
8.26858
8.29632
8.32406
8.3518
8.37953
8.40727
8.435
8.46274
8.49047
8.51821
8.54594
8.57367
8.6014
8.62913
8.65685
8.68458
8.71231
8.74004
8.76776
8.79549
8.82322
8.85094
8.87866
8.90637
8.93409
8.9618
8.98952
9.01724
9.04496
9.07269
9.1004
9.12812
9.15583
9.18354
9.21125
9.23895
9.26665
9.29436
9.32207
9.34978
9.37749
9.40521
9.43292
9.46063
9.48833
9.51603
9.54373
9.57142
9.59911
9.6268
9.65449
9.68219
9.70989
9.73759
9.7653
9.793
9.82071
9.84841
9.87611
9.9038
9.93149
9.95917
9.98685
10.0145
10.0422
10.0699
10.0975
10.1252
10.1529
10.1806
10.2083
10.236
10.2637
10.2914
10.3191
10.3468
10.3745
10.4022
10.4299
10.4575
10.4852
10.5129
10.5405
10.5682
10.5958
10.6235
10.6511
10.6788
10.7064
10.7341
10.7617
10.7894
10.8171
10.8447
10.8724
10.9001
10.9278
10.9556
10.9833
11.011
11.0388
11.0665
11.0943
11.1221
11.1498
11.1776
11.2054
11.2332
11.2609
11.2887
11.3165
11.3443
11.372
11.3998
11.4276
11.4554
11.4832
11.511
11.5388
11.5666
11.5944
11.6222
11.65
11.6778
11.7056
11.7334
11.7612
11.789
11.8168
11.8446
11.8724
11.9002
11.928
11.9558
11.9836
12.0114
12.0392
12.067
12.0948
12.1226
12.1504
12.1782
12.206
12.2338
12.2615
12.2893
12.3171
12.3449
12.3727
12.4005
12.4283
12.4561
12.4839
12.5117
12.5395
12.5673
12.5951
12.6229
12.6506
12.6784
12.7062
12.734
12.7618
12.7896
12.8174
12.8452
12.873
12.9008
12.9286
12.9563
12.9841
13.0119
13.0397
13.0675
13.0953
13.1231
13.1509
13.1787
13.2064
13.2342
13.262
13.2898
13.3176
13.3454
13.3732
13.401
13.4287
13.4565
13.4843
13.5121
13.5399
13.5677
13.5955
13.6232
13.651
13.6788
13.7066
13.7344
13.7622
13.79
13.8177
13.8455
13.8733
13.9011
13.9289
13.9567
13.9844
14.0122
14.04
14.0678
14.0956
14.1233
14.1511
14.1789
14.2067
14.2345
14.2622
14.29
14.3178
14.3456
14.3734
14.4011
14.4289
14.4567
14.4845
14.5123
14.54
14.5678
14.5956
14.6234
14.6512
14.6789
14.7067
14.7345
14.7623
14.79
14.8178
14.8456
14.8734
14.9012
14.9289
14.9567
14.9845
15.0123
15.04
15.0678
15.0956
15.1234
15.1511
15.1789
15.2067
15.2344
15.2622
15.29
15.3178
15.3455
15.3733
15.4011
15.4289
15.4566
15.4844
15.5122
15.5399
15.5677
15.5955
15.6233
15.651
15.6788
15.7066
15.7343
15.7621
15.7899
15.8177
15.8454
15.8732
15.901
15.9287
15.9565
15.9843
16.012
16.0398
16.0676
16.0953
16.1231
16.1509
16.1786
16.2064
16.2342
16.2619
16.2897
16.3175
16.3452
16.373
16.4008
16.4285
16.4563
16.4841
16.5118
16.5396
16.5674
16.5951
16.6229
16.6506
16.6784
16.7062
16.7339
16.7617
16.7895
16.8172
16.845
16.8727
16.9005
16.9283
16.956
16.9838
17.0115
17.0393
17.0671
17.0948
17.1226
17.1503
17.1781
17.2059
17.2336
17.2614
17.2891
17.3169
17.3447
17.3724
17.4002
17.4279
17.4557
17.4834
17.5112
17.539
17.5667
17.5945
17.6222
17.65
17.6777
17.7055
17.7333
17.761
17.7888
17.8165
17.8443
17.872
17.8998
17.9275
17.9553
17.983
18.0108
18.0385
18.0663
18.0941
18.1218
18.1496
18.1773
18.2051
18.2328
18.2606
18.2883
18.3161
18.3438
18.3716
18.3993
18.4271
18.4548
18.4826
18.5103
18.5381
18.5658
18.5936
18.6213
18.6491
18.6768
18.7046
18.7323
18.76
18.7878
18.8155
18.8433
18.871
18.8988
18.9265
18.9543
18.982
19.0098
19.0375
19.0653
19.093
19.1207
19.1485
19.1762
19.204
19.2317
19.2595
19.2872
19.315
19.3427
19.3704
19.3982
19.4259
19.4537
19.4814
19.5091
19.5369
19.5646
19.5924
19.6201
19.6479
19.6756
19.7033
19.7311
19.7588
19.7866
19.8143
19.842
19.8698
19.8975
19.9252
19.953
19.9807
20.0085
20.0362
20.0639
20.0917
20.1194
20.1471
20.1749
20.2026
20.2304
20.2581
20.2858
20.3136
20.3413
20.369
20.3968
20.4245
20.4522
20.48
20.5077
20.5354
20.5632
20.5909
20.6186
20.6464
20.6741
20.7018
20.7296
20.7573
20.785
20.8128
20.8405
20.8682
20.8959
20.9237
20.9514
20.9791
21.0069
21.0346
21.0623
21.0901
21.1178
21.1455
21.1732
21.201
21.2287
21.2564
21.2841
21.3119
21.3396
21.3673
21.3951
21.4228
21.4505
21.4782
21.506
21.5337
21.5614
21.5891
21.6169
21.6446
21.6723
21.7
21.7278
21.7555
21.7832
21.8109
21.8386
21.8664
21.8941
21.9218
21.9495
21.9773
22.005
22.0327
22.0604
22.0881
22.1159
22.1436
22.1713
22.199
22.2267
22.2545
22.2822
22.3099
22.3376
22.3653
22.3931
22.4208
22.4485
22.4762
22.5039
22.5316
22.5594
22.5871
22.6148
22.6425
22.6702
22.6979
22.7257
22.7534
22.7811
22.8088
22.8365
22.8642
22.8919
22.9197
22.9474
22.9751
23.0028
23.0305
23.0582
23.0859
23.1136
23.1414
23.1691
23.1968
23.2245
23.2522
23.2799
23.3076
23.3353
23.363
23.3908
23.4185
23.4462
23.4739
23.5016
23.5293
23.557
23.5847
23.6124
23.6401
23.6678
23.6955
23.7233
23.751
23.7787
23.8064
23.8341
23.8618
23.8895
23.9172
23.9449
23.9726
24.0003
24.028
24.0557
24.0834
24.1111
24.1388
24.1665
24.1942
24.2219
24.2496
24.2773
24.305
24.3327
24.3604
24.3882
24.4159
24.4436
24.4713
24.4989
24.5267
24.5544
24.5821
24.6098
24.6374
24.6652
24.6928
24.7205
24.7482
24.7759
24.8036
24.8313
24.859
24.8867
24.9144
24.9421
24.9698
24.9975
25.0252
25.0529
25.0806
25.1083
25.136
25.1637
25.1914
25.2191
25.2468
25.2745
25.3022
25.3298
25.3575
25.3852
25.4129
25.4406
25.4683
25.496
25.5237
25.5514
25.5791
25.6068
25.6345
25.6621
25.6898
25.7175
25.7452
25.7729
25.8006
25.8283
25.856
25.8836
25.9113
25.939
25.9667
25.9944
26.0221
26.0498
26.0775
26.1051
26.1328
26.1605
26.1882
26.2159
26.2436
26.2713
26.2989
26.3266
26.3543
26.382
26.4097
26.4374
26.465
26.4927
26.5204
26.5481
26.5758
26.6035
26.6311
26.6588
26.6865
26.7142
26.7419
26.7695
26.7972
26.8249
26.8526
26.8803
26.9079
26.9356
26.9633
26.991
27.0186
27.0463
27.074
27.1017
27.1293
27.157
27.1847
27.2124
27.2401
27.2677
27.2954
27.3231
27.3508
27.3784
27.4061
27.4338
27.4615
27.4891
27.5168
27.5445
27.5721
27.5998
27.6275
27.6552
27.6828
27.7105
27.7382
27.7658
27.7935
27.8212
27.8489
27.8765
27.9042
27.9319
27.9595
27.9872
28.0149
28.0425
28.0702
28.0979
28.1255
28.1532
28.1809
28.2085
28.2362
28.2639
28.2915
28.3192
28.3469
28.3745
28.4022
28.4299
28.4575
28.4852
28.5129
28.5405
28.5682
28.5959
28.6235
28.6512
28.6788
28.7065
28.7342
28.7618
28.7895
28.8171
28.8448
28.8725
28.9001
28.9278
28.9554
28.9831
29.0108
29.0384
29.0661
29.0937
29.1214
29.1491
29.1767
29.2044
29.232
29.2597
29.2873
29.315
29.3426
29.3703
29.398
29.4256
29.4533
29.4809
29.5086
29.5362
29.5639
29.5915
29.6192
29.6468
29.6745
29.7021
29.7298
29.7574
29.7851
29.8128
29.8404
29.8681
29.8957
29.9233
29.951
29.9787
30.0063
30.0339
30.0616
30.0892
30.1169
30.1446
30.1722
30.1998
30.2275
30.2551
30.2828
30.3104
30.3381
30.3657
30.3934
30.421
30.4486
30.4763
30.5039
30.5316
30.5592
30.5869
30.6145
30.6422
30.6698
30.6974
30.7251
30.7527
30.7804
30.808
30.8357
30.8633
30.8909
30.9186
30.9462
30.9739
31.0015
31.0291
31.0568
31.0844
31.112
31.1397
31.1673
31.195
31.2226
31.2502
31.2779
31.3055
31.3331
31.3608
31.3884
31.4161
31.4437
31.4713
31.499
31.5266
31.5542
31.5819
31.6095
31.6371
31.6648
31.6924
31.72
31.7476
31.7753
31.8029
31.8305
31.8582
31.8858
31.9134
31.9411
31.9687
31.9963
32.024
32.0516
32.0792
32.1068
32.1345
32.1621
32.1897
32.2174
32.245
32.2726
32.3002
32.3279
32.3555
32.3831
32.4107
32.4384
32.466
32.4936
32.5212
32.5488
32.5765
32.6041
32.6317
32.6593
32.687
32.7146
32.7422
32.7698
32.7974
32.8251
32.8527
32.8803
32.9079
32.9356
32.9632
32.9908
33.0184
33.046
33.0736
33.1013
33.1289
33.1565
33.1841
33.2117
33.2393
33.267
33.2946
33.3222
33.3498
33.3774
33.405
33.4326
33.4603
33.4879
33.5155
33.5431
33.5707
33.5983
33.6259
33.6536
33.6812
33.7088
33.7364
33.764
33.7916
33.8192
33.8468
33.8744
33.902
33.9297
33.9573
33.9849
34.0125
34.0401
34.0677
34.0953
34.1229
34.1505
34.1781
34.2057
34.2333
34.2609
34.2885
34.3162
34.3438
34.3714
34.399
34.4266
34.4542
34.4818
34.5094
34.537
34.5646
34.5922
34.6198
34.6474
34.675
34.7026
34.7302
34.7578
34.7854
34.813
34.8406
34.8682
34.8958
34.9234
34.951
34.9786
35.0062
35.0338
35.0614
35.089
35.1166
35.1441
35.1718
35.1993
35.2269
35.2545
35.2821
35.3097
35.3373
35.3649
35.3925
35.4201
35.4477
35.4753
35.5029
35.5305
35.5581
35.5856
35.6132
35.6408
35.6684
35.696
35.7236
35.7512
35.7788
35.8064
35.8339
35.8615
35.8891
35.9167
35.9443
35.9719
35.9995
36.027
36.0546
36.0822
36.1098
36.1374
36.165
36.1926
36.2201
36.2477
36.2753
36.3029
36.3305
36.3581
36.3856
36.4132
36.4408
36.4684
36.496
36.5235
36.5511
36.5787
36.6063
36.6339
36.6614
36.689
36.7166
36.7442
36.7717
36.7993
36.8269
36.8545
36.882
36.9096
36.9372
36.9648
36.9923
37.0199
37.0475
37.0751
37.1026
37.1302
37.1578
37.1854
37.2129
37.2405
37.2681
37.2956
37.3232
37.3508
37.3784
37.4059
37.4335
37.4611
37.4886
37.5162
37.5438
37.5713
37.5989
37.6265
37.6541
37.6816
37.7092
37.7367
37.7643
37.7919
37.8194
37.847
37.8746
37.9021
37.9297
37.9573
37.9848
38.0124
38.04
38.0675
38.0951
38.1226
38.1502
38.1778
38.2053
38.2329
38.2604
38.288
38.3155
38.3431
38.3707
38.3982
38.4258
38.4533
38.4809
38.5084
38.536
38.5636
38.5911
38.6187
38.6462
38.6738
38.7013
38.7289
38.7565
38.784
38.8115
38.8391
38.8667
38.8942
38.9218
38.9493
38.9769
39.0044
39.032
39.0595
39.0871
39.1146
39.1422
39.1697
39.1973
39.2248
39.2524
39.2799
39.3074
39.335
39.3625
39.3901
39.4176
39.4452
39.4727
39.5003
39.5278
39.5553
39.5829
39.6104
39.638
39.6655
39.6931
39.7206
39.7481
39.7757
39.8032
39.8308
39.8583
39.8858
39.9134
39.9409
39.9685
39.996
40.0235
40.0511
40.0786
40.1062
40.1337
40.1612
40.1888
40.2163
40.2438
40.2714
40.2989
40.3264
40.354
40.3815
40.409
40.4366
40.4641
40.4916
40.5192
40.5467
40.5742
40.6017
40.6293
40.6568
40.6843
40.7119
40.7394
40.7669
40.7944
40.822
40.8495
40.877
40.9046
40.9321
40.9596
40.9871
41.0147
41.0422
41.0697
41.0972
41.1248
41.1523
41.1798
41.2073
41.2348
41.2624
41.2899
41.3174
41.3449
41.3724
41.4
41.4275
41.455
41.4825
41.51
41.5376
41.5651
41.5926
41.6201
41.6476
41.6751
41.7027
41.7302
41.7577
41.7852
41.8127
41.8402
41.8677
41.8953
41.9228
41.9503
41.9778
42.0053
42.0328
42.0603
42.0878
42.1154
42.1429
42.1704
42.1979
42.2254
42.2529
42.2804
42.3079
42.3354
42.3629
42.3904
42.4179
42.4454
42.473
42.5005
42.528
42.5555
42.583
42.6105
42.638
42.6655
42.693
42.7205
42.748
42.7755
42.803
42.8305
42.858
42.8855
42.913
42.9405
42.968
42.9955
43.023
43.0505
43.078
43.1055
43.133
43.1605
43.188
43.2154
43.2429
43.2704
43.2979
43.3254
43.3529
43.3804
43.4079
43.4354
43.4629
43.4904
43.5179
43.5454
43.5728
43.6003
43.6278
43.6553
43.6828
43.7103
43.7378
43.7653
43.7927
43.8202
43.8477
43.8752
43.9027
43.9302
43.9577
43.9851
44.0126
44.0401
44.0676
44.0951
44.1226
44.15
44.1775
44.205
44.2325
44.26
44.2874
44.3149
44.3424
44.3699
44.3974
44.4248
44.4523
44.4798
44.5073
44.5347
44.5622
44.5897
44.6172
44.6446
44.6721
44.6996
44.7271
44.7545
44.782
44.8095
44.8369
44.8644
44.8919
44.9194
44.9468
44.9743
45.0018
45.0292
45.0567
45.0842
45.1116
45.1391
45.1666
45.194
45.2215
45.249
45.2764
45.3039
45.3314
45.3588
45.3863
45.4137
45.4412
45.4687
45.4961
45.5236
45.5511
45.5785
45.606
45.6334
45.6609
45.6883
45.7158
45.7433
45.7707
45.7982
45.8256
45.8531
45.8805
45.908
45.9354
45.9629
45.9904
46.0178
46.0453
46.0727
46.1002
46.1276
46.1551
46.1825
46.21
46.2374
46.2649
46.2923
46.3198
46.3472
46.3747
46.4021
46.4296
46.457
46.4844
46.5119
46.5393
46.5668
46.5942
46.6217
46.6491
46.6766
46.704
46.7314
46.7589
46.7863
46.8138
46.8412
46.8686
46.8961
46.9235
46.951
46.9784
47.0058
47.0333
47.0607
47.0881
47.1156
47.143
47.1704
47.1979
47.2253
47.2527
47.2802
47.3076
47.335
47.3625
47.3899
47.4173
47.4448
47.4722
47.4996
47.527
47.5545
47.5819
47.6093
47.6368
47.6642
47.6916
47.719
47.7465
47.7739
47.8013
47.8287
47.8561
47.8836
47.911
47.9384
47.9658
47.9933
48.0207
48.0481
48.0755
48.1029
48.1304
48.1578
48.1852
48.2126
48.24
48.2674
48.2948
48.3223
48.3497
48.3771
48.4045
48.4319
48.4593
48.4867
48.5142
48.5416
48.569
48.5964
48.6238
48.6512
48.6786
48.706
48.7334
48.7608
48.7882
48.8156
48.8431
48.8705
48.8979
48.9253
48.9527
48.9801
49.0075
49.0349
49.0623
49.0897
49.1171
49.1445
49.1719
49.1993
49.2267
49.2541
49.2815
49.3089
49.3363
49.3637
49.3911
49.4185
49.4459
49.4732
49.5006
49.528
49.5554
49.5828
49.6102
49.6376
49.665
49.6924
49.7198
49.7472
49.7745
49.8019
49.8293
49.8567
49.8841
49.9115
49.9389
49.9663
49.9936
50.021
50.0484
50.0758
50.1032
50.1305
50.1579
50.1853
50.2127
50.2401
50.2674
50.2948
50.3222
50.3496
50.377
50.4043
50.4317
50.4591
50.4865
50.5138
50.5412
50.5686
50.596
50.6233
50.6507
50.6781
50.7054
50.7328
50.7602
50.7876
50.8149
50.8423
50.8697
50.897
50.9244
50.9518
50.9791
51.0065
51.0338
51.0612
51.0886
51.1159
51.1433
51.1707
51.198
51.2254
51.2527
51.2801
51.3075
51.3348
51.3622
51.3895
51.4169
51.4442
51.4716
51.4989
51.5263
51.5537
51.581
51.6084
51.6357
51.6631
51.6904
51.7178
51.7451
51.7725
51.7998
51.8272
51.8545
51.8818
51.9092
51.9365
51.9639
51.9912
52.0186
52.0459
52.0733
52.1006
52.1279
52.1553
52.1826
52.21
52.2373
52.2646
52.292
52.3193
52.3466
52.374
52.4013
52.4287
52.456
52.4833
52.5107
52.538
52.5653
52.5926
52.62
52.6473
52.6746
52.702
52.7293
52.7566
52.7839
52.8113
52.8386
52.8659
52.8932
52.9206
52.9479
52.9752
53.0025
53.0299
53.0572
53.0845
53.1118
53.1391
53.1665
53.1938
53.2211
53.2484
53.2757
53.303
53.3304
53.3577
53.385
53.4123
53.4396
53.4669
53.4942
53.5215
53.5488
53.5761
53.6035
53.6308
53.6581
53.6854
53.7127
53.74
53.7673
53.7946
53.8219
53.8492
53.8765
53.9038
53.9311
53.9584
53.9857
54.013
54.0403
54.0676
54.0949
54.1222
54.1495
54.1768
54.2041
54.2314
54.2586
54.2859
54.3132
54.3405
54.3678
54.3951
54.4224
54.4497
54.477
54.5042
54.5315
54.5588
54.5861
54.6134
54.6407
54.6679
54.6952
54.7225
54.7498
54.7771
54.8043
54.8316
54.8589
54.8862
54.9134
54.9407
54.968
54.9953
55.0225
55.0498
55.0771
55.1043
55.1316
55.1589
55.1862
55.2134
55.2407
55.268
55.2952
55.3225
55.3497
55.377
55.4043
55.4315
55.4588
55.486
55.5133
55.5406
55.5678
55.5951
55.6223
55.6496
55.6768
55.7041
55.7314
55.7586
55.7859
55.8131
55.8404
55.8676
55.8949
55.9221
55.9494
55.9766
56.0038
56.0311
56.0583
56.0856
56.1128
56.1401
56.1673
56.1945
56.2218
56.249
56.2763
56.3035
56.3307
56.358
56.3852
56.4124
56.4397
56.4669
56.4941
56.5214
56.5486
56.5758
56.603
56.6303
56.6575
56.6847
56.7119
56.7392
56.7664
56.7936
56.8208
56.8481
56.8753
56.9025
56.9297
56.9569
56.9841
57.0114
57.0386
57.0658
57.093
57.1202
57.1474
57.1746
57.2018
57.2291
57.2563
57.2835
57.3107
57.3379
57.3651
57.3923
57.4195
57.4467
57.4739
57.5011
57.5283
57.5555
57.5827
57.6099
57.6371
57.6643
57.6915
57.7187
57.7458
57.773
57.8002
57.8274
57.8546
57.8818
57.909
57.9362
57.9633
57.9905
58.0177
58.0449
58.0721
58.0993
58.1264
58.1536
58.1808
58.208
58.2351
58.2623
58.2895
58.3167
58.3438
58.371
58.3982
58.4253
58.4525
58.4797
58.5068
58.534
58.5612
58.5883
58.6155
58.6426
58.6698
58.697
58.7241
58.7513
58.7784
58.8056
58.8327
58.8599
58.887
58.9142
58.9413
58.9685
58.9956
59.0228
59.0499
59.0771
59.1042
59.1314
59.1585
59.1856
59.2128
59.2399
59.2671
59.2942
59.3213
59.3485
59.3756
59.4027
59.4299
59.457
59.4841
59.5112
59.5384
59.5655
59.5926
59.6197
59.6469
59.674
59.7011
59.7282
59.7553
59.7825
59.8096
59.8367
59.8638
59.8909
59.918
59.9451
59.9722
59.9994
60.0265
60.0536
60.0807
60.1078
60.1349
60.162
60.1891
60.2162
60.2433
60.2704
60.2975
60.3246
60.3516
60.3787
60.4058
60.4329
60.46
60.4871
60.5142
60.5413
60.5683
60.5954
60.6225
60.6496
60.6767
60.7037
60.7308
60.7579
60.785
60.812
60.8391
60.8662
60.8932
60.9203
60.9474
60.9744
61.0015
61.0286
61.0556
61.0827
61.1097
61.1368
61.1639
61.1909
61.218
61.245
61.2721
61.2991
61.3262
61.3532
61.3802
61.4073
61.4343
61.4614
61.4884
61.5154
61.5425
61.5695
61.5966
61.6236
61.6506
61.6776
61.7047
61.7317
61.7587
61.7857
61.8128
61.8398
61.8668
61.8938
61.9208
61.9479
61.9749
62.0019
62.0289
62.0559
62.0829
62.1099
62.1369
62.1639
62.1909
62.2179
62.2449
62.2719
62.2989
62.3259
62.3529
62.3799
62.4069
62.4339
62.4609
62.4879
62.5148
62.5418
62.5688
62.5958
62.6228
62.6497
62.6767
62.7037
62.7307
62.7576
62.7846
62.8116
62.8385
62.8655
62.8925
62.9194
62.9464
62.9733
63.0003
63.0272
63.0542
63.0811
63.1081
63.135
63.162
63.1889
63.2159
63.2428
63.2697
63.2967
63.3236
63.3505
63.3775
63.4044
63.4313
63.4583
63.4852
63.5121
63.539
63.5659
63.5929
63.6198
63.6467
63.6736
63.7005
63.7274
63.7543
63.7812
63.8081
63.835
63.8619
63.8888
63.9157
63.9426
63.9695
63.9964
64.0233
64.0502
64.0771
64.1039
64.1308
64.1577
64.1846
64.2114
64.2383
64.2652
64.2921
64.3189
64.3458
64.3726
64.3995
64.4264
64.4532
64.4801
64.5069
64.5338
64.5606
64.5875
64.6143
64.6412
64.668
64.6948
64.7217
64.7485
64.7753
64.8022
64.829
64.8558
64.8826
64.9094
64.9363
64.9631
64.9899
65.0167
65.0435
65.0703
65.0971
65.1239
65.1507
65.1775
65.2043
65.2311
65.2579
65.2847
65.3115
65.3383
65.365
65.3918
65.4186
65.4454
65.4721
65.4989
65.5257
65.5524
65.5792
65.606
65.6327
65.6595
65.6862
65.713
65.7397
65.7665
65.7932
65.8199
65.8467
65.8734
65.9001
65.9269
65.9536
65.9803
66.007
66.0338
66.0605
66.0872
66.1139
66.1406
66.1673
66.194
66.2207
66.2474
66.2741
66.3008
66.3275
66.3542
66.3808
66.4075
66.4342
66.4609
66.4875
66.5142
66.5409
66.5675
66.5942
66.6209
66.6475
66.6742
66.7008
66.7275
66.7541
66.7807
66.8074
66.834
66.8606
66.8873
66.9139
66.9405
66.9671
66.9937
67.0204
67.047
67.0736
67.1002
67.1268
67.1534
67.18
67.2065
67.2331
67.2597
67.2863
67.3129
67.3394
67.366
67.3926
67.4191
67.4457
67.4722
67.4988
67.5253
67.5519
67.5784
67.605
67.6315
67.658
67.6846
67.7111
67.7376
67.7641
67.7906
67.8171
67.8436
67.8701
67.8966
67.9231
67.9496
67.9761
68.0026
68.0291
68.0556
68.082
68.1085
68.135
68.1614
68.1879
68.2143
68.2408
68.2672
68.2937
68.3201
68.3465
68.373
68.3994
68.4258
68.4522
68.4786
68.505
68.5314
68.5578
68.5842
68.6106
68.637
68.6634
68.6898
68.7161
68.7425
68.7689
68.7952
68.8216
68.8479
68.8743
68.9006
68.9269
68.9533
68.9796
69.0059
69.0322
69.0586
69.0849
69.1112
69.1375
69.1638
69.1901
69.2163
69.2426
69.2689
69.2952
69.3214
69.3477
69.3739
69.4002
69.4264
69.4527
69.4789
69.5051
69.5314
69.5576
69.5838
69.61
69.6362
69.6624
69.6886
69.7148
69.741
69.7671
69.7933
69.8195
69.8456
69.8718
69.8979
69.9241
69.9502
69.9763
70.0025
70.0286
70.0547
70.0808
70.1069
70.133
70.1591
70.1852
70.2113
70.2374
70.2634
70.2895
70.3156
70.3416
70.3677
70.3937
70.4197
70.4458
70.4718
70.4978
70.5238
70.5498
70.5758
70.6018
70.6277
70.6537
70.6797
70.7056
70.7316
70.7575
70.7835
70.8094
70.8353
70.8613
70.8872
70.9131
70.939
70.9649
70.9907
71.0166
71.0425
71.0683
71.0942
71.12
71.1459
71.1717
71.1975
71.2234
71.2492
71.275
71.3008
71.3265
71.3523
71.3781
71.4039
71.4296
71.4554
71.4811
71.5068
71.5325
71.5583
71.584
71.6097
71.6354
71.661
71.6867
71.7124
71.738
71.7637
71.7893
71.8149
71.8406
71.8662
71.8918
71.9174
71.943
71.9685
71.9941
72.0197
72.0452
72.0708
72.0963
72.1218
72.1473
72.1728
72.1983
72.2238
72.2493
72.2747
72.3002
72.3256
72.3511
72.3765
72.4019
72.4273
72.4527
72.4781
72.5035
72.5288
72.5542
72.5795
72.6049
72.6302
72.6555
72.6808
72.7061
72.7314
72.7566
72.7819
72.8072
72.8324
72.8576
72.8828
72.908
72.9332
72.9584
72.9836
73.0087
73.0339
73.059
73.0841
73.1092
73.1343
73.1594
73.1845
73.2096
73.2346
73.2597
73.2847
73.3097
73.3347
73.3597
73.3847
73.4096
73.4346
73.4595
73.4844
73.5093
73.5342
73.5591
73.584
73.6089
73.6337
73.6585
73.6833
73.7081
73.7329
73.7577
73.7825
73.8072
73.832
73.8567
73.8814
73.9061
73.9308
73.9554
73.9801
74.0047
74.0293
74.0539
74.0785
74.1031
74.1276
74.1522
74.1767
74.2012
74.2257
74.2502
74.2747
74.2991
74.3236
74.348
74.3724
74.3968
74.4211
74.4455
74.4698
74.4941
74.5185
74.5427
74.567
74.5913
74.6155
74.6397
74.6639
74.6881
74.7123
74.7364
74.7606
74.7847
74.8088
74.8329
74.8569
74.881
74.905
74.929
74.953
74.9769
75.0009
75.0248
75.0487
75.0726
75.0965
75.1204
75.1442
75.168
75.1918
75.2156
75.2394
75.2631
75.2868
75.3105
75.3342
75.3579
75.3815
75.4051
75.4287
75.4523
75.4759
75.4994
75.5229
75.5464
75.5699
75.5934
75.6168
75.6402
75.6636
75.687
75.7103
75.7336
75.7569
75.7802
75.8035
75.8267
75.8499
75.8731
75.8963
75.9194
75.9426
75.9657
75.9887
76.0118
76.0348
76.0578
76.0808
76.1038
76.1267
76.1496
76.1725
76.1954
76.2182
76.2411
76.2639
76.2866
76.3094
76.3321
76.3548
76.3775
76.4001
76.4227
76.4453
76.4679
76.4905
76.513
76.5355
76.558
76.5804
76.6028
76.6252
76.6476
76.67
76.6923
76.7146
76.7369
76.7591
76.7813
76.8035
76.8257
76.8478
76.8699
76.892
76.9141
76.9361
76.9581
76.9801
77.002
77.024
77.0459
77.0677
77.0896
77.1114
77.1332
77.155
77.1767
77.1984
77.2201
77.2417
77.2634
77.285
77.3065
77.3281
77.3496
77.3711
77.3926
77.414
77.4354
77.4568
77.4781
77.4994
77.5207
77.542
77.5632
77.5845
77.6056
77.6268
77.6479
77.669
77.6901
77.7111
77.7322
77.7531
77.7741
77.795
77.8159
77.8368
77.8577
77.8785
77.8993
77.92
77.9408
77.9615
77.9822
78.0028
78.0235
78.0441
78.0646
78.0852
78.1057
78.1262
78.1466
78.1671
78.1875
78.2078
78.2282
78.2485
78.2688
78.2891
78.3093
78.3295
78.3497
78.3699
78.39
78.4101
78.4302
78.4503
78.4703
78.4903
78.5103
78.5302
78.5502
78.5701
78.5899
78.6098
78.6296
78.6494
78.6692
78.6889
78.7086
78.7283
78.748
78.7677
78.7873
78.8069
78.8264
78.846
78.8655
78.885
78.9045
78.924
78.9434
78.9628
78.9822
79.0015
79.0209
79.0402
79.0595
79.0787
79.098
79.1172
79.1364
79.1556
79.1748
79.1939
79.213
79.2321
79.2512
79.2702
79.2893
79.3083
79.3273
79.3463
79.3652
79.3842
79.4031
79.422
79.4408
79.4597
79.4785
79.4974
79.5162
79.5349
79.5537
79.5725
79.5912
79.6099
79.6286
79.6473
79.6659
79.6846
79.7032
79.7218
79.7404
79.759
79.7776
79.7961
79.8147
79.8332
79.8517
79.8702
79.8887
79.9071
79.9256
79.944
79.9624
79.9809
79.9992
80.0176
80.036
80.0544
80.0727
80.091
80.1094
80.1277
80.146
80.1643
80.1825
80.2008
80.219
80.2373
80.2555
80.2737
80.292
80.3102
80.3284
80.3465
80.3647
80.3829
80.401
80.4192
80.4373
80.4554
80.4736
80.4917
80.5098
80.5279
80.546
80.5641
80.5821
80.6002
80.6183
80.6363
80.6544
80.6724
80.6904
80.7085
80.7265
80.7445
80.7625
80.7805
80.7985
80.8165
80.8345
80.8525
80.8705
80.8884
80.9064
80.9244
80.9423
80.9603
80.9782
80.9962
81.0141
81.0321
81.05
81.0679
81.0859
81.1038
81.1217
81.1397
81.1576
81.1755
81.1934
81.2113
81.2292
81.2471
81.265
81.2829
81.3008
81.3187
81.3366
81.3545
81.3724
81.3903
81.4082
81.4261
81.444
81.4618
81.4797
81.4976
81.5155
81.5334
81.5512
81.5691
81.587
81.6049
81.6227
81.6406
81.6585
81.6764
81.6942
81.7121
81.73
81.7479
81.7657
81.7836
81.8015
81.8194
81.8372
81.8551
81.873
81.8909
81.9087
81.9266
81.9445
81.9624
81.9802
81.9981
82.016
82.0339
82.0517
82.0696
82.0875
82.1054
82.1233
82.1411
82.159
82.1769
82.1948
82.2127
82.2306
82.2485
82.2663
82.2842
82.3021
82.32
82.3379
82.3558
82.3737
82.3916
82.4095
82.4274
82.4453
82.4632
82.4811
82.499
82.5169
82.5348
82.5528
82.5707
82.5886
82.6065
82.6244
82.6423
82.6602
82.6782
82.6961
82.714
82.7319
82.7499
82.7678
82.7857
82.8037
82.8216
82.8395
82.8575
82.8754
82.8934
82.9113
82.9292
82.9472
82.9651
82.9831
83.001
83.019
83.037
83.0549
83.0729
83.0908
83.1088
83.1268
83.1447
83.1627
83.1807
83.1986
83.2166
83.2346
83.2526
83.2706
83.2885
83.3065
83.3245
83.3425
83.3605
83.3785
83.3965
83.4145
83.4325
83.4505
83.4685
83.4865
83.5045
83.5225
83.5405
83.5585
83.5765
83.5945
83.6126
83.6306
83.6486
83.6666
83.6846
83.7027
83.7207
83.7387
83.7568
83.7748
83.7928
83.8109
83.8289
83.847
83.865
83.8831
83.9011
83.9192
83.9372
83.9553
83.9733
83.9914
84.0095
84.0275
84.0456
84.0637
84.0817
84.0998
84.1179
84.136
84.154
84.1721
84.1902
84.2083
84.2264
84.2445
84.2625
84.2806
84.2987
84.3168
84.3349
84.353
84.3711
84.3892
84.4074
84.4255
84.4436
84.4617
84.4798
84.4979
84.516
84.5342
84.5523
84.5704
84.5885
84.6067
84.6248
84.6429
84.6611
84.6792
84.6974
84.7155
84.7336
84.7518
84.7699
84.7881
84.8062
84.8244
84.8426
84.8607
84.8789
84.897
84.9152
84.9334
84.9515
84.9697
84.9879
85.0061
85.0242
85.0424
85.0606
85.0788
85.097
85.1152
85.1333
85.1515
85.1697
85.1879
85.2061
85.2243
85.2425
85.2607
85.2789
85.2971
85.3154
85.3336
85.3518
85.37
85.3882
85.4064
85.4247
85.4429
85.4611
85.4793
85.4976
85.5158
85.5341
85.5523
85.5705
85.5888
85.607
85.6253
85.6435
85.6618
85.68
85.6983
85.7165
85.7348
85.753
85.7713
85.7896
85.8078
85.8261
85.8444
85.8626
85.8809
85.8992
85.9175
85.9358
85.954
85.9723
85.9906
86.0089
86.0272
86.0455
86.0638
86.0821
86.1004
86.1187
86.137
86.1553
86.1736
86.1919
86.2102
86.2285
86.2469
86.2652
86.2835
86.3018
86.3201
86.3385
86.3568
86.3751
86.3935
86.4118
86.4301
86.4485
86.4668
86.4852
86.5035
86.5219
86.5402
86.5586
86.5769
86.5953
86.6136
86.632
86.6503
86.6687
86.6871
86.7054
86.7238
86.7422
86.7606
86.7789
86.7973
86.8157
86.8341
86.8525
86.8708
86.8892
86.9076
86.926
86.9444
86.9628
86.9812
86.9996
87.018
87.0364
87.0548
87.0732
87.0917
87.1101
87.1285
87.1469
87.1653
87.1837
87.2022
87.2206
87.239
87.2575
87.2759
87.2943
87.3128
87.3312
87.3496
87.3681
87.3865
87.405
87.4234
87.4419
87.4603
87.4788
87.4973
87.5157
87.5342
87.5526
87.5711
87.5896
87.608
87.6265
87.645
87.6635
87.6819
87.7004
87.7189
87.7374
87.7559
87.7744
87.7929
87.8114
87.8299
87.8483
87.8668
87.8853
87.9039
87.9224
87.9409
87.9594
87.9779
87.9964
88.0149
88.0334
88.052
88.0705
88.089
88.1075
88.1261
88.1446
88.1631
88.1817
88.2002
88.2187
88.2373
88.2558
88.2744
88.2929
88.3115
88.33
88.3486
88.3671
88.3857
88.4042
88.4228
88.4414
88.4599
88.4785
88.4971
88.5157
88.5342
88.5528
88.5714
88.59
88.6085
88.6271
88.6457
88.6643
88.6829
88.7015
88.7201
88.7387
88.7573
88.7759
88.7945
88.8131
88.8317
88.8503
88.8689
88.8875
88.9062
88.9248
88.9434
88.962
88.9807
88.9993
89.0179
89.0365
89.0552
89.0738
89.0924
89.1111
89.1297
89.1484
89.167
89.1857
89.2043
89.223
89.2416
89.2603
89.2789
89.2976
89.3163
89.3349
89.3536
89.3723
89.3909
89.4096
89.4283
89.447
89.4656
89.4843
89.503
89.5217
89.5404
89.5591
89.5778
89.5965
89.6152
89.6339
89.6526
89.6713
89.69
89.7087
89.7274
89.7461
89.7648
89.7835
89.8022
89.821
89.8397
89.8584
89.8771
89.8959
89.9146
89.9333
89.9521
89.9708
89.9895
90.0083
90.027
90.0458
90.0645
90.0833
90.102
90.1208
90.1395
90.1583
90.177
90.1958
90.2146
90.2333
90.2521
90.2709
90.2896
90.3084
90.3272
90.346
90.3647
90.3835
90.4023
90.4211
90.4399
90.4587
90.4775
90.4963
90.5151
90.5339
90.5527
90.5715
90.5903
90.6091
90.6279
90.6467
90.6655
90.6843
90.7032
90.722
90.7408
90.7596
90.7785
90.7973
90.8161
90.835
90.8538
90.8726
90.8915
90.9103
90.9292
90.948
90.9668
90.9857
91.0046
91.0234
91.0423
91.0611
91.08
91.0988
91.1177
91.1366
91.1555
91.1743
91.1932
91.2121
91.231
91.2498
91.2687
91.2876
91.3065
91.3254
91.3443
91.3632
91.3821
91.401
91.4199
91.4388
91.4577
91.4766
91.4955
91.5144
91.5333
91.5522
91.5711
91.59
91.609
91.6279
91.6468
91.6657
91.6847
91.7036
91.7225
91.7415
91.7604
91.7793
91.7983
91.8172
91.8362
91.8551
91.8741
91.893
91.912
91.9309
91.9499
91.9689
91.9878
92.0068
92.0258
92.0447
92.0637
92.0827
92.1017
92.1206
92.1396
92.1586
92.1776
92.1966
92.2156
92.2345
92.2535
92.2725
92.2915
92.3105
92.3295
92.3485
92.3675
92.3866
92.4056
92.4246
92.4436
92.4626
92.4816
92.5006
92.5197
92.5387
92.5577
92.5768
92.5958
92.6148
92.6339
92.6529
92.6719
92.691
92.71
92.7291
92.7481
92.7672
92.7862
92.8053
92.8243
92.8434
92.8625
92.8815
92.9006
92.9197
92.9387
92.9578
92.9769
92.996
93.015
93.0341
93.0532
93.0723
93.0914
93.1105
93.1296
93.1487
93.1677
93.1868
93.2059
93.2251
93.2442
93.2633
93.2824
93.3015
93.3206
93.3397
93.3588
93.378
93.3971
93.4162
93.4353
93.4545
93.4736
93.4927
93.5119
93.531
93.5501
93.5693
93.5884
93.6076
93.6267
93.6459
93.665
93.6842
93.7033
93.7225
93.7416
93.7608
93.78
93.7991
93.8183
93.8375
93.8567
93.8758
93.895
93.9142
93.9334
93.9526
93.9718
93.9909
94.0101
94.0293
94.0485
94.0677
94.0869
94.1061
94.1253
94.1445
94.1637
94.183
94.2022
94.2214
94.2406
94.2598
94.279
94.2983
94.3175
94.3367
94.356
94.3752
94.3944
94.4137
94.4329
94.4521
94.4714
94.4906
94.5099
94.5291
94.5484
94.5676
94.5869
94.6061
94.6254
94.6447
94.6639
94.6832
94.7025
94.7217
94.741
94.7603
94.7796
94.7989
94.8181
94.8374
94.8567
94.876
94.8953
94.9146
94.9339
94.9532
94.9725
94.9918
95.0111
95.0304
95.0497
95.069
95.0883
95.1076
95.127
95.1463
95.1656
95.1849
95.2042
95.2236
95.2429
95.2622
95.2816
95.3009
95.3203
95.3396
95.3589
95.3783
95.3976
95.417
95.4363
95.4557
95.475
95.4944
95.5138
95.5331
95.5525
95.5719
95.5912
95.6106
95.63
95.6494
95.6687
95.6881
95.7075
95.7269
95.7463
95.7657
95.785
95.8044
95.8238
95.8432
95.8626
95.882
95.9014
95.9208
95.9403
95.9597
95.9791
95.9985
96.0179
96.0373
96.0568
96.0762
96.0956
96.115
96.1345
96.1539
96.1733
96.1928
96.2122
96.2317
96.2511
96.2705
96.29
96.3094
96.3289
96.3483
96.3678
96.3873
96.4067
96.4262
96.4457
96.4651
96.4846
96.5041
96.5235
96.543
96.5625
96.582
96.6015
96.6209
96.6404
96.6599
96.6794
96.6989
96.7184
96.7379
96.7574
96.7769
96.7964
96.8159
96.8354
96.8549
96.8744
96.894
96.9135
96.933
96.9525
96.9721
96.9916
97.0111
97.0306
97.0502
97.0697
97.0892
97.1088
97.1283
97.1479
97.1674
97.187
97.2065
97.2261
97.2456
97.2652
97.2847
97.3043
97.3239
97.3434
97.363
97.3826
97.4021
97.4217
97.4413
97.4609
97.4805
97.5
97.5196
97.5392
97.5588
97.5784
97.598
97.6176
97.6372
97.6568
97.6764
97.696
97.7156
97.7352
97.7548
97.7744
97.7941
97.8137
97.8333
97.8529
97.8725
97.8922
97.9118
97.9314
97.9511
97.9707
97.9903