/*--------------------------------*- C++ -*----------------------------------*\
  =========                 |
  \\      /  F ield         | OpenFOAM: The Open Source CFD Toolbox
   \\    /   O peration     | Website:  https://openfoam.org
    \\  /    A nd           | Version:  9
     \\/     M anipulation  |
\*---------------------------------------------------------------------------*/
FoamFile
{
    format      ascii;
    class       volScalarField;
    location    "0.024";
    object      ddt0(rho);
}
// * * * * * * * * * * * * * * * * * * * * * * * * * * * * * * * * * * * * * //

dimensions      [1 -3 -1 0 0 0 0];

internalField   nonuniform List<scalar> 
10000
(
-23.717
-23.7162
-23.7144
-23.7138
-23.7135
-23.7119
-23.709
-23.7072
-23.7076
-23.7088
-23.7082
-23.7049
-23.7006
-23.6979
-23.6983
-23.7009
-23.7037
-23.7044
-23.7019
-23.6968
-23.6906
-23.6853
-23.6823
-23.6824
-23.6855
-23.691
-23.698
-23.7056
-23.7128
-23.7193
-23.7245
-23.7284
-23.7309
-23.7322
-23.7325
-23.7327
-23.7337
-23.7371
-23.738
-23.7377
-23.7375
-23.7372
-23.737
-23.7369
-23.7367
-23.7366
-23.7365
-23.7364
-23.7362
-23.7361
-23.736
-23.7359
-23.7358
-23.7357
-23.7356
-23.7355
-23.7354
-23.7353
-23.7352
-23.7351
-23.735
-23.7349
-23.7348
-23.7347
-23.7345
-23.7344
-23.7343
-23.7342
-23.7341
-23.734
-23.7339
-23.7338
-23.7337
-23.7336
-23.7335
-23.7334
-23.7332
-23.7331
-23.733
-23.7329
-23.7328
-23.7327
-23.7326
-23.7325
-23.7323
-23.7322
-23.7321
-23.732
-23.7319
-23.7318
-23.7317
-23.7315
-23.7314
-23.7313
-23.7312
-23.7311
-23.731
-23.7309
-23.7307
-23.7306
-23.7305
-23.7304
-23.7303
-23.7302
-23.73
-23.7299
-23.7298
-23.7297
-23.7296
-23.7295
-23.7293
-23.7292
-23.7291
-23.729
-23.7289
-23.7287
-23.7286
-23.7285
-23.7284
-23.7283
-23.7281
-23.728
-23.7279
-23.7278
-23.7277
-23.7275
-23.7274
-23.7273
-23.7272
-23.727
-23.7269
-23.7268
-23.7267
-23.7265
-23.7264
-23.7263
-23.7262
-23.726
-23.7259
-23.7258
-23.7257
-23.7255
-23.7254
-23.7253
-23.7252
-23.725
-23.7249
-23.7248
-23.7247
-23.7245
-23.7244
-23.7243
-23.7241
-23.724
-23.7239
-23.7238
-23.7236
-23.7235
-23.7234
-23.7232
-23.7231
-23.723
-23.7228
-23.7227
-23.7226
-23.7224
-23.7223
-23.7222
-23.7221
-23.7219
-23.7218
-23.7217
-23.7215
-23.7214
-23.7213
-23.7211
-23.721
-23.7208
-23.7207
-23.7206
-23.7204
-23.7203
-23.7202
-23.72
-23.7199
-23.7198
-23.7196
-23.7195
-23.7194
-23.7192
-23.7191
-23.7189
-23.7188
-23.7187
-23.7185
-23.7184
-23.7182
-23.7181
-23.718
-23.7178
-23.7177
-23.7175
-23.7174
-23.7173
-23.7171
-23.717
-23.7168
-23.7167
-23.7166
-23.7164
-23.7163
-23.7161
-23.716
-23.7158
-23.7157
-23.7156
-23.7154
-23.7153
-23.7151
-23.715
-23.7148
-23.7147
-23.7145
-23.7144
-23.7143
-23.7141
-23.714
-23.7138
-23.7137
-23.7135
-23.7134
-23.7132
-23.7131
-23.7129
-23.7128
-23.7126
-23.7125
-23.7123
-23.7122
-23.712
-23.7119
-23.7117
-23.7116
-23.7114
-23.7113
-23.7111
-23.711
-23.7108
-23.7107
-23.7105
-23.7104
-23.7102
-23.7101
-23.7099
-23.7098
-23.7096
-23.7095
-23.7093
-23.7092
-23.709
-23.7088
-23.7087
-23.7085
-23.7084
-23.7082
-23.7081
-23.7079
-23.7078
-23.7076
-23.7074
-23.7073
-23.7071
-23.707
-23.7068
-23.7067
-23.7065
-23.7063
-23.7062
-23.706
-23.7059
-23.7057
-23.7055
-23.7054
-23.7052
-23.7051
-23.7049
-23.7047
-23.7046
-23.7044
-23.7043
-23.7041
-23.7039
-23.7038
-23.7036
-23.7035
-23.7033
-23.7031
-23.703
-23.7028
-23.7026
-23.7025
-23.7023
-23.7021
-23.702
-23.7018
-23.7016
-23.7015
-23.7013
-23.7012
-23.701
-23.7008
-23.7007
-23.7005
-23.7003
-23.7002
-23.7
-23.6998
-23.6996
-23.6995
-23.6993
-23.6991
-23.699
-23.6988
-23.6986
-23.6985
-23.6983
-23.6981
-23.698
-23.6978
-23.6976
-23.6974
-23.6973
-23.6971
-23.6969
-23.6968
-23.6966
-23.6964
-23.6962
-23.6961
-23.6959
-23.6957
-23.6955
-23.6954
-23.6952
-23.695
-23.6948
-23.6947
-23.6945
-23.6943
-23.6941
-23.694
-23.6938
-23.6936
-23.6934
-23.6933
-23.6931
-23.6929
-23.6927
-23.6926
-23.6924
-23.6922
-23.692
-23.6918
-23.6917
-23.6915
-23.6913
-23.6911
-23.6909
-23.6908
-23.6906
-23.6904
-23.6902
-23.69
-23.6899
-23.6897
-23.6895
-23.6893
-23.6891
-23.6889
-23.6888
-23.6886
-23.6884
-23.6882
-23.688
-23.6878
-23.6877
-23.6875
-23.6873
-23.6871
-23.6869
-23.6867
-23.6865
-23.6864
-23.6862
-23.686
-23.6858
-23.6856
-23.6854
-23.6852
-23.6851
-23.6849
-23.6847
-23.6845
-23.6843
-23.6841
-23.6839
-23.6837
-23.6835
-23.6834
-23.6832
-23.683
-23.6828
-23.6826
-23.6824
-23.6822
-23.682
-23.6818
-23.6816
-23.6814
-23.6812
-23.6811
-23.6809
-23.6807
-23.6805
-23.6803
-23.6801
-23.6799
-23.6797
-23.6795
-23.6793
-23.6791
-23.6789
-23.6787
-23.6785
-23.6783
-23.6781
-23.6779
-23.6777
-23.6775
-23.6774
-23.6772
-23.677
-23.6768
-23.6766
-23.6764
-23.6762
-23.676
-23.6758
-23.6756
-23.6754
-23.6752
-23.675
-23.6748
-23.6746
-23.6744
-23.6742
-23.674
-23.6738
-23.6736
-23.6734
-23.6732
-23.673
-23.6728
-23.6725
-23.6723
-23.6721
-23.6719
-23.6717
-23.6715
-23.6713
-23.6711
-23.6709
-23.6707
-23.6705
-23.6703
-23.6701
-23.6699
-23.6697
-23.6695
-23.6693
-23.6691
-23.6689
-23.6687
-23.6685
-23.6682
-23.668
-23.6678
-23.6676
-23.6674
-23.6672
-23.667
-23.6668
-23.6666
-23.6664
-23.6662
-23.666
-23.6657
-23.6655
-23.6653
-23.6651
-23.6649
-23.6647
-23.6645
-23.6643
-23.6641
-23.6639
-23.6636
-23.6634
-23.6632
-23.663
-23.6628
-23.6626
-23.6624
-23.6621
-23.6619
-23.6617
-23.6615
-23.6613
-23.6611
-23.6608
-23.6606
-23.6604
-23.6602
-23.66
-23.6598
-23.6595
-23.6593
-23.6591
-23.6589
-23.6586
-23.6584
-23.6582
-23.658
-23.6577
-23.6575
-23.6573
-23.6571
-23.6568
-23.6566
-23.6564
-23.6562
-23.6559
-23.6557
-23.6555
-23.6552
-23.655
-23.6548
-23.6545
-23.6543
-23.6541
-23.6539
-23.6536
-23.6534
-23.6532
-23.6529
-23.6527
-23.6525
-23.6522
-23.652
-23.6518
-23.6515
-23.6513
-23.6511
-23.6509
-23.6506
-23.6504
-23.6502
-23.6499
-23.6497
-23.6495
-23.6492
-23.649
-23.6488
-23.6486
-23.6483
-23.6481
-23.6479
-23.6476
-23.6474
-23.6472
-23.647
-23.6467
-23.6465
-23.6463
-23.646
-23.6458
-23.6456
-23.6453
-23.6451
-23.6449
-23.6447
-23.6444
-23.6442
-23.644
-23.6437
-23.6435
-23.6433
-23.643
-23.6428
-23.6426
-23.6423
-23.6421
-23.6418
-23.6416
-23.6414
-23.6411
-23.6409
-23.6407
-23.6404
-23.6402
-23.6399
-23.6397
-23.6395
-23.6392
-23.639
-23.6387
-23.6385
-23.6382
-23.638
-23.6378
-23.6375
-23.6373
-23.637
-23.6368
-23.6365
-23.6363
-23.636
-23.6358
-23.6356
-23.6353
-23.6351
-23.6348
-23.6346
-23.6343
-23.6341
-23.6338
-23.6336
-23.6333
-23.6331
-23.6328
-23.6326
-23.6323
-23.6321
-23.6318
-23.6316
-23.6313
-23.6311
-23.6308
-23.6306
-23.6303
-23.6301
-23.6298
-23.6296
-23.6293
-23.6291
-23.6288
-23.6285
-23.6283
-23.628
-23.6278
-23.6275
-23.6273
-23.627
-23.6268
-23.6265
-23.6263
-23.626
-23.6257
-23.6255
-23.6252
-23.625
-23.6247
-23.6245
-23.6242
-23.6239
-23.6237
-23.6234
-23.6232
-23.6229
-23.6226
-23.6224
-23.6221
-23.6219
-23.6216
-23.6213
-23.6211
-23.6208
-23.6206
-23.6203
-23.62
-23.6198
-23.6195
-23.6192
-23.619
-23.6187
-23.6185
-23.6182
-23.6179
-23.6177
-23.6174
-23.6171
-23.6169
-23.6166
-23.6163
-23.6161
-23.6158
-23.6155
-23.6153
-23.615
-23.6147
-23.6145
-23.6142
-23.6139
-23.6136
-23.6134
-23.6131
-23.6128
-23.6126
-23.6123
-23.612
-23.6118
-23.6115
-23.6112
-23.6109
-23.6107
-23.6104
-23.6101
-23.6099
-23.6096
-23.6093
-23.609
-23.6088
-23.6085
-23.6082
-23.6079
-23.6077
-23.6074
-23.6071
-23.6068
-23.6066
-23.6063
-23.606
-23.6057
-23.6055
-23.6052
-23.6049
-23.6046
-23.6043
-23.6041
-23.6038
-23.6035
-23.6032
-23.6029
-23.6027
-23.6024
-23.6021
-23.6018
-23.6015
-23.6013
-23.601
-23.6007
-23.6004
-23.6001
-23.5999
-23.5996
-23.5993
-23.599
-23.5987
-23.5984
-23.5982
-23.5979
-23.5976
-23.5973
-23.597
-23.5967
-23.5964
-23.5962
-23.5959
-23.5956
-23.5953
-23.595
-23.5947
-23.5944
-23.5941
-23.5939
-23.5936
-23.5933
-23.593
-23.5927
-23.5924
-23.5921
-23.5918
-23.5915
-23.5913
-23.591
-23.5907
-23.5904
-23.5901
-23.5898
-23.5895
-23.5892
-23.5889
-23.5886
-23.5883
-23.588
-23.5877
-23.5874
-23.5872
-23.5869
-23.5866
-23.5863
-23.586
-23.5857
-23.5854
-23.5851
-23.5848
-23.5845
-23.5842
-23.5839
-23.5836
-23.5833
-23.583
-23.5827
-23.5824
-23.5821
-23.5818
-23.5815
-23.5812
-23.5809
-23.5806
-23.5803
-23.58
-23.5797
-23.5794
-23.5791
-23.5788
-23.5785
-23.5782
-23.5779
-23.5776
-23.5773
-23.577
-23.5767
-23.5764
-23.5761
-23.5758
-23.5754
-23.5751
-23.5748
-23.5745
-23.5742
-23.5739
-23.5736
-23.5733
-23.573
-23.5727
-23.5724
-23.5721
-23.5718
-23.5715
-23.5711
-23.5708
-23.5705
-23.5702
-23.5699
-23.5696
-23.5693
-23.569
-23.5687
-23.5683
-23.568
-23.5677
-23.5674
-23.5671
-23.5668
-23.5665
-23.5662
-23.5658
-23.5655
-23.5652
-23.5649
-23.5646
-23.5643
-23.564
-23.5636
-23.5633
-23.563
-23.5627
-23.5624
-23.5621
-23.5617
-23.5614
-23.5611
-23.5608
-23.5605
-23.5601
-23.5598
-23.5595
-23.5592
-23.5589
-23.5585
-23.5582
-23.5579
-23.5576
-23.5573
-23.5569
-23.5566
-23.5563
-23.556
-23.5556
-23.5553
-23.555
-23.5547
-23.5544
-23.554
-23.5537
-23.5534
-23.5531
-23.5527
-23.5524
-23.5521
-23.5518
-23.5514
-23.5511
-23.5508
-23.5504
-23.5501
-23.5498
-23.5495
-23.5491
-23.5488
-23.5485
-23.5481
-23.5478
-23.5475
-23.5472
-23.5468
-23.5465
-23.5462
-23.5458
-23.5455
-23.5452
-23.5448
-23.5445
-23.5442
-23.5438
-23.5435
-23.5432
-23.5428
-23.5425
-23.5422
-23.5418
-23.5415
-23.5412
-23.5408
-23.5405
-23.5402
-23.5398
-23.5395
-23.5392
-23.5388
-23.5385
-23.5381
-23.5378
-23.5375
-23.5371
-23.5368
-23.5364
-23.5361
-23.5358
-23.5354
-23.5351
-23.5347
-23.5344
-23.5341
-23.5337
-23.5334
-23.533
-23.5327
-23.5324
-23.532
-23.5317
-23.5313
-23.531
-23.5306
-23.5303
-23.5299
-23.5296
-23.5293
-23.5289
-23.5286
-23.5282
-23.5279
-23.5275
-23.5272
-23.5268
-23.5265
-23.5261
-23.5258
-23.5254
-23.5251
-23.5248
-23.5244
-23.5241
-23.5237
-23.5234
-23.523
-23.5227
-23.5223
-23.522
-23.5216
-23.5212
-23.5209
-23.5205
-23.5202
-23.5198
-23.5195
-23.5191
-23.5188
-23.5184
-23.5181
-23.5177
-23.5174
-23.517
-23.5167
-23.5163
-23.5159
-23.5156
-23.5152
-23.5149
-23.5145
-23.5142
-23.5138
-23.5134
-23.5131
-23.5127
-23.5124
-23.512
-23.5117
-23.5113
-23.5109
-23.5106
-23.5102
-23.5099
-23.5095
-23.5091
-23.5088
-23.5084
-23.508
-23.5077
-23.5073
-23.507
-23.5066
-23.5062
-23.5059
-23.5055
-23.5051
-23.5048
-23.5044
-23.504
-23.5037
-23.5033
-23.503
-23.5026
-23.5022
-23.5019
-23.5015
-23.5011
-23.5008
-23.5004
-23.5
-23.4996
-23.4993
-23.4989
-23.4985
-23.4982
-23.4978
-23.4974
-23.4971
-23.4967
-23.4963
-23.4959
-23.4956
-23.4952
-23.4948
-23.4945
-23.4941
-23.4937
-23.4933
-23.493
-23.4926
-23.4922
-23.4918
-23.4915
-23.4911
-23.4907
-23.4903
-23.49
-23.4896
-23.4892
-23.4888
-23.4885
-23.4881
-23.4877
-23.4873
-23.487
-23.4866
-23.4862
-23.4858
-23.4854
-23.4851
-23.4847
-23.4843
-23.4839
-23.4835
-23.4832
-23.4828
-23.4824
-23.482
-23.4816
-23.4813
-23.4809
-23.4805
-23.4801
-23.4797
-23.4793
-23.479
-23.4786
-23.4782
-23.4778
-23.4774
-23.477
-23.4766
-23.4763
-23.4759
-23.4755
-23.4751
-23.4747
-23.4743
-23.4739
-23.4735
-23.4732
-23.4728
-23.4724
-23.472
-23.4716
-23.4712
-23.4708
-23.4704
-23.47
-23.4697
-23.4693
-23.4689
-23.4685
-23.4681
-23.4677
-23.4673
-23.4669
-23.4665
-23.4661
-23.4657
-23.4653
-23.4649
-23.4645
-23.4642
-23.4638
-23.4634
-23.463
-23.4626
-23.4622
-23.4618
-23.4614
-23.461
-23.4606
-23.4602
-23.4598
-23.4594
-23.459
-23.4586
-23.4582
-23.4578
-23.4574
-23.457
-23.4566
-23.4562
-23.4558
-23.4554
-23.455
-23.4546
-23.4542
-23.4538
-23.4534
-23.453
-23.4526
-23.4522
-23.4518
-23.4514
-23.451
-23.4506
-23.4502
-23.4498
-23.4494
-23.4489
-23.4485
-23.4481
-23.4477
-23.4473
-23.4469
-23.4465
-23.4461
-23.4457
-23.4453
-23.4449
-23.4445
-23.4441
-23.4436
-23.4432
-23.4428
-23.4424
-23.442
-23.4416
-23.4412
-23.4408
-23.4404
-23.44
-23.4395
-23.4391
-23.4387
-23.4383
-23.4379
-23.4375
-23.437
-23.4367
-23.4361
-23.436
-23.4352
-23.4352
-23.4343
-23.4345
-23.4333
-23.4339
-23.4323
-23.4333
-23.4312
-23.4327
-23.43
-23.4322
-23.4289
-23.4317
-23.4278
-23.4309
-23.4271
-23.4298
-23.4268
-23.428
-23.427
-23.4263
-23.4263
-23.4259
-23.4252
-23.4249
-23.4247
-23.4241
-23.4236
-23.4232
-23.4229
-23.4224
-23.422
-23.4215
-23.4212
-23.4207
-23.4203
-23.4198
-23.4197
-23.4183
-23.4199
-23.4161
-23.4205
-23.4137
-23.4212
-23.4115
-23.4213
-23.4104
-23.4199
-23.411
-23.4167
-23.4132
-23.4122
-23.416
-23.4079
-23.4182
-23.4049
-23.4182
-23.4046
-23.4152
-23.4075
-23.4095
-23.4119
-23.4036
-23.4152
-23.3999
-23.4152
-23.4003
-23.4111
-23.4045
-23.4038
-23.41
-23.3979
-23.4128
-23.3954
-23.4107
-23.3981
-23.4042
-23.4042
-23.3965
-23.4087
-23.3922
-23.4091
-23.3929
-23.4038
-23.3984
-23.3958
-23.4043
-23.3893
-23.4067
-23.3883
-23.4027
-23.3934
-23.3938
-23.4011
-23.3856
-23.4047
-23.3843
-23.3999
-23.3911
-23.389
-23.4001
-23.3807
-23.4022
-23.3821
-23.394
-23.392
-23.3819
-23.3999
-23.3769
-23.3973
-23.3831
-23.3855
-23.3942
-23.375
-23.3978
-23.3757
-23.3894
-23.3866
-23.3758
-23.3956
-23.3707
-23.3918
-23.3792
-23.3776
-23.3912
-23.3683
-23.3921
-23.3726
-23.3802
-23.3852
-23.3674
-23.3911
-23.367
-23.3823
-23.3791
-23.3673
-23.3889
-23.3628
-23.3831
-23.3739
-23.3669
-23.3862
-23.3594
-23.3827
-23.3696
-23.3658
-23.3838
-23.3564
-23.3815
-23.3666
-23.3638
-23.3818
-23.3536
-23.3795
-23.3644
-23.3608
-23.3803
-23.3509
-23.3768
-23.3634
-23.3568
-23.3794
-23.3484
-23.3731
-23.3636
-23.3522
-23.378
-23.3469
-23.3686
-23.3637
-23.3485
-23.3756
-23.3461
-23.3643
-23.3631
-23.345
-23.3734
-23.3449
-23.3594
-23.3639
-23.3403
-23.3713
-23.3451
-23.3527
-23.3659
-23.336
-23.3673
-23.3476
-23.3444
-23.3675
-23.3338
-23.3605
-23.3519
-23.3365
-23.367
-23.3345
-23.3516
-23.3567
-23.33
-23.3635
-23.338
-23.3411
-23.3607
-23.3265
-23.3563
-23.3445
-23.3305
-23.3615
-23.3278
-23.3452
-23.3514
-23.3231
-23.3571
-23.3336
-23.3327
-23.3558
-23.3211
-23.3473
-23.3418
-23.3221
-23.3548
-23.325
-23.334
-23.3492
-23.3163
-23.3472
-23.3339
-23.3203
-23.3519
-23.3183
-23.333
-23.3443
-23.3115
-23.3453
-23.3287
-23.3165
-23.3488
-23.3137
-23.3292
-23.3409
-23.3073
-23.3412
-23.3257
-23.3118
-23.345
-23.3109
-23.3237
-23.3382
-23.3037
-23.3355
-23.3239
-23.3069
-23.3405
-23.3089
-23.3176
-23.3356
-23.3
-23.3298
-23.3229
-23.3003
-23.337
-23.3079
-23.3086
-23.3357
-23.2967
-23.3202
-23.3263
-23.293
-23.3295
-23.3125
-23.2974
-23.3323
-23.2995
-23.3069
-23.3276
-23.2915
-23.3173
-23.3168
-23.2905
-23.3244
-23.3037
-23.2958
-23.3254
-23.2922
-23.3048
-23.3202
-23.2854
-23.3139
-23.3103
-23.2843
-23.32
-23.2986
-23.2884
-23.3213
-23.2881
-23.2957
-23.3173
-23.2811
-23.3038
-23.3092
-23.2785
-23.3101
-23.2989
-23.2804
-23.3129
-23.2886
-23.2856
-23.3118
-23.2802
-23.2923
-23.3069
-23.2748
-23.2988
-23.2993
-23.2728
-23.3038
-23.2903
-23.2741
-23.3061
-23.2816
-23.2776
-23.3054
-23.2742
-23.2822
-23.302
-23.269
-23.2871
-23.2963
-23.2663
-23.2912
-23.2891
-23.2659
-23.294
-23.2814
-23.2674
-23.295
-23.274
-23.2701
-23.2943
-23.2676
-23.2734
-23.2918
-23.2625
-23.2767
-23.288
-23.2591
-23.2795
-23.2832
-23.2572
-23.2814
-23.2779
-23.2568
-23.2824
-23.2722
-23.2574
-23.2825
-23.2667
-23.2587
-23.2816
-23.2616
-23.2604
-23.2798
-23.2573
-23.2621
-23.2773
-23.2536
-23.2637
-23.2743
-23.2507
-23.2651
-23.2709
-23.2484
-23.266
-23.2672
-23.2469
-23.2663
-23.2636
-23.2459
-23.2661
-23.2599
-23.2454
-23.2655
-23.2561
-23.2453
-23.2646
-23.2522
-23.2454
-23.2635
-23.2486
-23.2453
-23.2625
-23.2452
-23.2449
-23.2614
-23.2424
-23.2441
-23.2598
-23.2402
-23.2433
-23.2577
-23.2385
-23.2425
-23.2552
-23.2368
-23.2421
-23.2525
-23.235
-23.242
-23.2499
-23.2329
-23.2417
-23.2478
-23.2306
-23.2409
-23.2462
-23.2284
-23.2395
-23.2448
-23.2268
-23.2377
-23.2431
-23.2258
-23.2357
-23.2409
-23.2251
-23.2341
-23.2384
-23.224
-23.2332
-23.2358
-23.2223
-23.2324
-23.2338
-23.2202
-23.2312
-23.2327
-23.218
-23.2291
-23.232
-23.2164
-23.2266
-23.2308
-23.2155
-23.224
-23.229
-23.215
-23.2217
-23.2269
-23.2141
-23.2202
-23.2247
-23.2125
-23.219
-23.223
-23.2105
-23.2172
-23.2222
-23.2086
-23.2145
-23.2216
-23.2075
-23.2114
-23.2203
-23.2072
-23.2086
-23.2179
-23.2072
-23.2066
-23.2153
-23.2061
-23.2053
-23.2134
-23.2042
-23.2037
-23.2122
-23.2027
-23.2009
-23.211
-23.2023
-23.1977
-23.2091
-23.2024
-23.1954
-23.2061
-23.2021
-23.1941
-23.2029
-23.2012
-23.193
-23.2006
-23.1998
-23.1914
-23.1986
-23.1986
-23.1895
-23.1961
-23.198
-23.1879
-23.193
-23.1974
-23.187
-23.1898
-23.1959
-23.1867
-23.187
-23.1939
-23.1863
-23.1847
-23.1918
-23.1853
-23.1825
-23.19
-23.1844
-23.1801
-23.1879
-23.1842
-23.1776
-23.1852
-23.1841
-23.1759
-23.1819
-23.1834
-23.1751
-23.1788
-23.182
-23.1743
-23.1761
-23.1805
-23.1731
-23.1736
-23.179
-23.1723
-23.1708
-23.1773
-23.172
-23.1679
-23.175
-23.1718
-23.1658
-23.1719
-23.1715
-23.1645
-23.1686
-23.1706
-23.1635
-23.1658
-23.1691
-23.1625
-23.1631
-23.1675
-23.1618
-23.1603
-23.1658
-23.1612
-23.1576
-23.1635
-23.161
-23.1555
-23.1604
-23.1608
-23.1541
-23.1571
-23.1597
-23.1533
-23.1542
-23.1579
-23.1527
-23.1516
-23.156
-23.1519
-23.1491
-23.1539
-23.1513
-23.1468
-23.1512
-23.1511
-23.145
-23.1479
-23.1504
-23.1442
-23.1446
-23.1485
-23.1441
-23.142
-23.146
-23.1434
-23.14
-23.1438
-23.1423
-23.138
-23.1413
-23.1418
-23.1362
-23.1379
-23.1411
-23.1357
-23.1345
-23.1389
-23.1359
-23.1322
-23.1357
-23.1351
-23.1309
-23.1332
-23.1335
-23.1294
-23.1308
-23.1326
-23.1279
-23.1274
-23.1314
-23.1277
-23.1244
-23.1283
-23.1278
-23.1231
-23.1248
-23.1264
-23.1223
-23.1224
-23.1243
-23.1211
-23.12
-23.1228
-23.1201
-23.1171
-23.1206
-23.12
-23.1153
-23.1168
-23.1191
-23.115
-23.1137
-23.1166
-23.1144
-23.112
-23.114
-23.113
-23.11
-23.1119
-23.1122
-23.108
-23.1088
-23.1112
-23.1077
-23.1055
-23.1085
-23.1075
-23.1039
-23.1053
-23.106
-23.1029
-23.1029
-23.1043
-23.1014
-23.1005
-23.1027
-23.1005
-23.0977
-23.1
-23.1003
-23.0962
-23.0965
-23.0986
-23.0959
-23.0941
-23.0959
-23.0948
-23.0924
-23.0937
-23.0934
-23.0904
-23.0911
-23.0925
-23.0894
-23.0878
-23.0903
-23.0891
-23.086
-23.0871
-23.0877
-23.085
-23.0845
-23.0858
-23.0836
-23.0822
-23.0838
-23.0827
-23.0799
-23.081
-23.0818
-23.0788
-23.0781
-23.0797
-23.0781
-23.0759
-23.0772
-23.0768
-23.0742
-23.0746
-23.0754
-23.073
-23.0717
-23.0734
-23.0722
-23.0697
-23.0706
-23.0708
-23.0684
-23.068
-23.0691
-23.0671
-23.0655
-23.0669
-23.0663
-23.0636
-23.0638
-23.0649
-23.0627
-23.0615
-23.0624
-23.0615
-23.0595
-23.0602
-23.0602
-23.0577
-23.0574
-23.0586
-23.0569
-23.0548
-23.0559
-23.0559
-23.0535
-23.0532
-23.0538
-23.0522
-23.051
-23.0519
-23.0508
-23.0488
-23.0493
-23.0498
-23.0475
-23.0463
-23.0475
-23.0467
-23.0446
-23.0447
-23.0449
-23.0432
-23.0426
-23.0431
-23.0415
-23.0401
-23.0409
-23.0408
-23.0383
-23.0378
-23.0388
-23.0376
-23.0358
-23.036
-23.0359
-23.0342
-23.034
-23.0341
-23.0325
-23.0314
-23.0322
-23.0316
-23.0293
-23.0292
-23.03
-23.0285
-23.0269
-23.0272
-23.0269
-23.0254
-23.0251
-23.025
-23.0235
-23.0226
-23.0234
-23.0225
-23.0204
-23.0203
-23.021
-23.0195
-23.018
-23.0183
-23.0178
-23.0165
-23.0162
-23.0161
-23.0145
-23.0136
-23.0143
-23.0135
-23.0116
-23.0113
-23.0118
-23.0105
-23.0091
-23.0093
-23.0088
-23.0074
-23.007
-23.0071
-23.0057
-23.0047
-23.005
-23.0044
-23.0026
-23.0023
-23.0027
-23.0015
-23
-23
-22.9999
-22.9985
-22.9978
-22.9978
-22.9967
-22.9956
-22.9957
-22.9954
-22.9937
-22.993
-22.9934
-22.9926
-22.991
-22.9907
-22.9907
-22.9895
-22.9887
-22.9885
-22.9877
-22.9864
-22.9864
-22.9863
-22.9848
-22.9837
-22.9839
-22.9836
-22.9821
-22.9814
-22.9813
-22.9804
-22.9794
-22.9793
-22.9787
-22.9773
-22.9768
-22.9769
-22.976
-22.9745
-22.9744
-22.9743
-22.9731
-22.9721
-22.9719
-22.9713
-22.9702
-22.9699
-22.9695
-22.9683
-22.9673
-22.9674
-22.967
-22.9656
-22.9648
-22.9647
-22.964
-22.9629
-22.9626
-22.9621
-22.9609
-22.9602
-22.9602
-22.9595
-22.9581
-22.9576
-22.9575
-22.9566
-22.9555
-22.9552
-22.9547
-22.9536
-22.9529
-22.9528
-22.952
-22.9507
-22.9504
-22.9501
-22.9491
-22.9481
-22.9479
-22.9473
-22.9461
-22.9455
-22.9454
-22.9446
-22.9434
-22.943
-22.9426
-22.9417
-22.9408
-22.9405
-22.9398
-22.9386
-22.9382
-22.938
-22.9371
-22.9358
-22.9355
-22.9352
-22.9343
-22.9334
-22.933
-22.9322
-22.9312
-22.9309
-22.9306
-22.9295
-22.9283
-22.928
-22.9278
-22.9269
-22.9259
-22.9253
-22.9247
-22.9238
-22.9234
-22.923
-22.9219
-22.9208
-22.9206
-22.9204
-22.9193
-22.9182
-22.9177
-22.9173
-22.9165
-22.9159
-22.9153
-22.9143
-22.9133
-22.9131
-22.9129
-22.9117
-22.9106
-22.9101
-22.9099
-22.909
-22.9082
-22.9076
-22.9067
-22.9059
-22.9056
-22.9052
-22.9041
-22.9029
-22.9025
-22.9024
-22.9015
-22.9005
-22.8998
-22.8991
-22.8984
-22.898
-22.8975
-22.8964
-22.8953
-22.8949
-22.8948
-22.8939
-22.8928
-22.8921
-22.8915
-22.8909
-22.8903
-22.8898
-22.8888
-22.8877
-22.8872
-22.887
-22.8863
-22.8852
-22.8844
-22.8839
-22.8833
-22.8825
-22.882
-22.8812
-22.8802
-22.8795
-22.8793
-22.8786
-22.8775
-22.8767
-22.8762
-22.8756
-22.8748
-22.8742
-22.8734
-22.8725
-22.8718
-22.8714
-22.8708
-22.8698
-22.8689
-22.8684
-22.8679
-22.8671
-22.8663
-22.8657
-22.8649
-22.864
-22.8635
-22.863
-22.8621
-22.8612
-22.8606
-22.8601
-22.8593
-22.8585
-22.8578
-22.8571
-22.8563
-22.8556
-22.8551
-22.8544
-22.8534
-22.8527
-22.8522
-22.8515
-22.8506
-22.85
-22.8494
-22.8485
-22.8477
-22.8471
-22.8465
-22.8457
-22.8449
-22.8443
-22.8436
-22.8428
-22.842
-22.8415
-22.8408
-22.8399
-22.8391
-22.8385
-22.8379
-22.8371
-22.8364
-22.8357
-22.8348
-22.834
-22.8334
-22.833
-22.8322
-22.8313
-22.8304
-22.8298
-22.8291
-22.8285
-22.8279
-22.8271
-22.8261
-22.8252
-22.8248
-22.8243
-22.8235
-22.8226
-22.8218
-22.821
-22.8203
-22.8198
-22.8193
-22.8184
-22.8173
-22.8166
-22.8161
-22.8156
-22.8148
-22.814
-22.8131
-22.8122
-22.8116
-22.8112
-22.8106
-22.8096
-22.8086
-22.8079
-22.8074
-22.8067
-22.806
-22.8053
-22.8044
-22.8034
-22.8028
-22.8024
-22.8017
-22.8008
-22.7998
-22.7991
-22.7985
-22.7979
-22.7972
-22.7965
-22.7955
-22.7946
-22.794
-22.7935
-22.7929
-22.7919
-22.7911
-22.7903
-22.7896
-22.7889
-22.7884
-22.7877
-22.7867
-22.7858
-22.7851
-22.7846
-22.7839
-22.7832
-22.7823
-22.7815
-22.7806
-22.78
-22.7794
-22.7788
-22.7779
-22.777
-22.7762
-22.7755
-22.7749
-22.7742
-22.7735
-22.7727
-22.7718
-22.771
-22.7704
-22.7697
-22.7689
-22.7681
-22.7674
-22.7666
-22.7658
-22.7651
-22.7645
-22.7637
-22.7629
-22.7621
-22.7614
-22.7607
-22.7599
-22.7592
-22.7585
-22.7577
-22.7568
-22.7561
-22.7554
-22.7547
-22.7539
-22.7531
-22.7524
-22.7516
-22.7507
-22.7501
-22.7494
-22.7487
-22.7478
-22.7471
-22.7463
-22.7455
-22.7447
-22.7441
-22.7434
-22.7426
-22.7417
-22.7409
-22.7402
-22.7395
-22.7388
-22.7381
-22.7373
-22.7365
-22.7356
-22.7348
-22.7342
-22.7335
-22.7327
-22.732
-22.7311
-22.7303
-22.7295
-22.7288
-22.7282
-22.7274
-22.7266
-22.7257
-22.725
-22.7242
-22.7235
-22.7228
-22.7221
-22.7212
-22.7204
-22.7196
-22.7189
-22.7182
-22.7174
-22.7166
-22.7158
-22.715
-22.7142
-22.7135
-22.7128
-22.712
-22.7112
-22.7104
-22.7096
-22.7088
-22.7081
-22.7074
-22.7067
-22.7058
-22.705
-22.7042
-22.7035
-22.7027
-22.7019
-22.7012
-22.7004
-22.6996
-22.6988
-22.698
-22.6973
-22.6965
-22.6957
-22.6949
-22.6941
-22.6934
-22.6926
-22.6919
-22.6911
-22.6903
-22.6894
-22.6886
-22.6879
-22.6872
-22.6864
-22.6856
-22.6848
-22.684
-22.6832
-22.6824
-22.6817
-22.681
-22.6802
-22.6793
-22.6785
-22.6777
-22.6769
-22.6762
-22.6755
-22.6747
-22.6739
-22.673
-22.6722
-22.6714
-22.6707
-22.6699
-22.6692
-22.6684
-22.6675
-22.6667
-22.6659
-22.6652
-22.6644
-22.6637
-22.6629
-22.6621
-22.6612
-22.6604
-22.6596
-22.6589
-22.6581
-22.6573
-22.6565
-22.6557
-22.6549
-22.654
-22.6533
-22.6525
-22.6518
-22.651
-22.6501
-22.6493
-22.6485
-22.6477
-22.6469
-22.6462
-22.6454
-22.6446
-22.6437
-22.643
-22.6422
-22.6414
-22.6406
-22.6398
-22.639
-22.6382
-22.6374
-22.6366
-22.6358
-22.635
-22.6342
-22.6334
-22.6326
-22.6318
-22.631
-22.6302
-22.6294
-22.6286
-22.6278
-22.627
-22.6262
-22.6254
-22.6245
-22.6237
-22.6229
-22.6221
-22.6213
-22.6205
-22.6198
-22.6189
-22.6181
-22.6173
-22.6164
-22.6156
-22.6148
-22.614
-22.6133
-22.6125
-22.6117
-22.6108
-22.61
-22.6092
-22.6083
-22.6076
-22.6068
-22.606
-22.6052
-22.6043
-22.6035
-22.6027
-22.6019
-22.6011
-22.6003
-22.5995
-22.5987
-22.5979
-22.597
-22.5962
-22.5954
-22.5945
-22.5937
-22.5929
-22.5921
-22.5913
-22.5905
-22.5897
-22.5888
-22.588
-22.5872
-22.5864
-22.5856
-22.5848
-22.5839
-22.5831
-22.5823
-22.5815
-22.5806
-22.5798
-22.579
-22.5782
-22.5774
-22.5765
-22.5757
-22.5749
-22.5741
-22.5732
-22.5724
-22.5716
-22.5707
-22.5699
-22.5691
-22.5683
-22.5675
-22.5667
-22.5658
-22.565
-22.5641
-22.5633
-22.5625
-22.5617
-22.5609
-22.5601
-22.5592
-22.5584
-22.5575
-22.5567
-22.5558
-22.555
-22.5542
-22.5534
-22.5525
-22.5517
-22.5508
-22.55
-22.5491
-22.5483
-22.5475
-22.5467
-22.5459
-22.5451
-22.5442
-22.5434
-22.5425
-22.5417
-22.5409
-22.5401
-22.5392
-22.5384
-22.5375
-22.5366
-22.5358
-22.5349
-22.5341
-22.5333
-22.5326
-22.5317
-22.5308
-22.53
-22.5291
-22.5282
-22.5274
-22.5266
-22.5257
-22.5249
-22.5241
-22.5233
-22.5224
-22.5215
-22.5207
-22.5198
-22.519
-22.5182
-22.5174
-22.5165
-22.5157
-22.5148
-22.514
-22.5131
-22.5122
-22.5114
-22.5105
-22.5097
-22.5089
-22.508
-22.5072
-22.5063
-22.5054
-22.5046
-22.5037
-22.5029
-22.502
-22.5012
-22.5004
-22.4995
-22.4986
-22.4978
-22.4969
-22.4961
-22.4952
-22.4944
-22.4936
-22.4927
-22.4919
-22.491
-22.4901
-22.4893
-22.4884
-22.4876
-22.4867
-22.4859
-22.485
-22.4841
-22.4833
-22.4824
-22.4815
-22.4807
-22.4798
-22.479
-22.4781
-22.4773
-22.4764
-22.4755
-22.4746
-22.4738
-22.4729
-22.472
-22.4712
-22.4704
-22.4695
-22.4687
-22.4678
-22.467
-22.4661
-22.4652
-22.4643
-22.4634
-22.4626
-22.4617
-22.4609
-22.4601
-22.4592
-22.4583
-22.4574
-22.4565
-22.4556
-22.4547
-22.4538
-22.453
-22.4522
-22.4513
-22.4505
-22.4497
-22.4488
-22.4479
-22.447
-22.446
-22.4451
-22.4443
-22.4434
-22.4426
-22.4418
-22.4409
-22.4401
-22.4392
-22.4383
-22.4374
-22.4365
-22.4355
-22.4347
-22.4338
-22.433
-22.4322
-22.4313
-22.4305
-22.4296
-22.4287
-22.4278
-22.4268
-22.4259
-22.4251
-22.4242
-22.4234
-22.4225
-22.4217
-22.4208
-22.4199
-22.419
-22.418
-22.4171
-22.4162
-22.4153
-22.4145
-22.4137
-22.4128
-22.412
-22.4111
-22.4102
-22.4093
-22.4083
-22.4073
-22.4064
-22.4055
-22.4047
-22.4039
-22.4031
-22.4023
-22.4014
-22.4006
-22.3996
-22.3987
-22.3977
-22.3967
-22.3958
-22.3949
-22.394
-22.3932
-22.3924
-22.3916
-22.3908
-22.3899
-22.389
-22.388
-22.387
-22.3861
-22.3851
-22.3842
-22.3834
-22.3825
-22.3817
-22.3809
-22.38
-22.3791
-22.3782
-22.3772
-22.3763
-22.3753
-22.3744
-22.3735
-22.3727
-22.3718
-22.371
-22.3702
-22.3693
-22.3684
-22.3674
-22.3665
-22.3655
-22.3646
-22.3636
-22.3627
-22.3619
-22.361
-22.3602
-22.3593
-22.3585
-22.3576
-22.3566
-22.3556
-22.3547
-22.3537
-22.3528
-22.3519
-22.351
-22.3501
-22.3493
-22.3485
-22.3476
-22.3467
-22.3458
-22.3449
-22.344
-22.343
-22.342
-22.3411
-22.3401
-22.3392
-22.3383
-22.3375
-22.3366
-22.3357
-22.3348
-22.3339
-22.333
-22.3321
-22.3311
-22.3302
-22.3292
-22.3283
-22.3274
-22.3265
-22.3256
-22.3247
-22.3238
-22.3229
-22.3221
-22.3211
-22.3202
-22.3193
-22.3184
-22.3174
-22.3165
-22.3156
-22.3146
-22.3137
-22.3128
-22.3119
-22.311
-22.3101
-22.3092
-22.3083
-22.3074
-22.3065
-22.3055
-22.3046
-22.3036
-22.3027
-22.3018
-22.3008
-22.2999
-22.299
-22.2981
-22.2972
-22.2963
-22.2954
-22.2945
-22.2936
-22.2927
-22.2917
-22.2908
-22.2898
-22.2888
-22.2879
-22.2869
-22.2859
-22.285
-22.2841
-22.2832
-22.2823
-22.2814
-22.2806
-22.2797
-22.2789
-22.278
-22.2771
-22.2761
-22.2752
-22.2742
-22.2732
-22.2722
-22.2712
-22.2702
-22.2692
-22.2682
-22.2673
-22.2664
-22.2655
-22.2646
-22.2637
-22.2629
-22.262
-22.2611
-22.2601
-22.2592
-22.2582
-22.2572
-22.2562
-22.2552
-22.2543
-22.2533
-22.2524
-22.2514
-22.2505
-22.2496
-22.2488
-22.2479
-22.247
-22.2461
-22.2452
-22.2443
-22.2434
-22.2424
-22.2414
-22.2404
-22.2394
-22.2384
-22.2374
-22.2364
-22.2355
-22.2345
-22.2336
-22.2326
-22.2317
-22.2308
-22.23
-22.229
-22.2281
-22.2272
-22.2263
-22.2253
-22.2244
-22.2234
-22.2224
-22.2214
-22.2204
-22.2194
-22.2184
-22.2175
-22.2165
-22.2156
-22.2147
-22.2138
-22.2129
-22.212
-22.2111
-22.2102
-22.2093
-22.2084
-22.2074
-22.2065
-22.2055
-22.2046
-22.2036
-22.2026
-22.2016
-22.2006
-22.1996
-22.1986
-22.1977
-22.1967
-22.1957
-22.1948
-22.1938
-22.1929
-22.1919
-22.191
-22.1901
-22.1891
-22.1882
-22.1872
-22.1863
-22.1853
-22.1843
-22.1833
-22.1824
-22.1814
-22.1804
-22.1793
-22.1783
-22.1773
-22.1763
-22.1753
-22.1743
-22.1733
-22.1723
-22.1713
-22.1703
-22.1693
-22.1683
-22.1673
-22.1663
-22.1653
-22.1643
-22.1633
-22.1623
-22.1613
-22.1603
-22.1593
-22.1583
-22.1573
-22.1563
-22.1553
-22.1543
-22.1533
-22.1524
-22.1514
-22.1504
-22.1495
-22.1485
-22.1476
-22.1467
-22.1458
-22.1448
-22.1439
-22.143
-22.1421
-22.1412
-22.1403
-22.1394
-22.1385
-22.1376
-22.1367
-22.1358
-22.1349
-22.134
-22.133
-22.1321
-22.1312
-22.1302
-22.1292
-22.1283
-22.1273
-22.1263
-22.1254
-22.1244
-22.1234
-22.1224
-22.1214
-22.1204
-22.1194
-22.1184
-22.1174
-22.1164
-22.1154
-22.1144
-22.1134
-22.1124
-22.1114
-22.1104
-22.1093
-22.1083
-22.1073
-22.1063
-22.1053
-22.1043
-22.1033
-22.1023
-22.1013
-22.1003
-22.0993
-22.0983
-22.0973
-22.0963
-22.0953
-22.0943
-22.0933
-22.0923
-22.0914
-22.0904
-22.0894
-22.0884
-22.0874
-22.0864
-22.0854
-22.0844
-22.0834
-22.0824
-22.0814
-22.0804
-22.0794
-22.0784
-22.0774
-22.0764
-22.0754
-22.0744
-22.0734
-22.0724
-22.0714
-22.0704
-22.0694
-22.0684
-22.0674
-22.0664
-22.0654
-22.0644
-22.0634
-22.0624
-22.0614
-22.0604
-22.0594
-22.0584
-22.0574
-22.0564
-22.0554
-22.0544
-22.0534
-22.0524
-22.0514
-22.0504
-22.0493
-22.0483
-22.0473
-22.0463
-22.0453
-22.0443
-22.0433
-22.0423
-22.0413
-22.0403
-22.0393
-22.0383
-22.0373
-22.0362
-22.0352
-22.0342
-22.0332
-22.0322
-22.0312
-22.0302
-22.0292
-22.0281
-22.0271
-22.0261
-22.0251
-22.0241
-22.0231
-22.0221
-22.021
-22.02
-22.019
-22.018
-22.017
-22.016
-22.0149
-22.0139
-22.0129
-22.0119
-22.0109
-22.0098
-22.0088
-22.0078
-22.0068
-22.0058
-22.0047
-22.0037
-22.0027
-22.0017
-22.0007
-21.9996
-21.9986
-21.9976
-21.9966
-21.9955
-21.9945
-21.9935
-21.9925
-21.9914
-21.9904
-21.9894
-21.9884
-21.9873
-21.9863
-21.9853
-21.9843
-21.9832
-21.9822
-21.9812
-21.9801
-21.9791
-21.9781
-21.977
-21.976
-21.975
-21.974
-21.9729
-21.9719
-21.9709
-21.9698
-21.9688
-21.9678
-21.9667
-21.9657
-21.9647
-21.9636
-21.9626
-21.9615
-21.9605
-21.9595
-21.9584
-21.9574
-21.9564