/*--------------------------------*- C++ -*----------------------------------*\
  =========                 |
  \\      /  F ield         | OpenFOAM: The Open Source CFD Toolbox
   \\    /   O peration     | Website:  https://openfoam.org
    \\  /    A nd           | Version:  9
     \\/     M anipulation  |
\*---------------------------------------------------------------------------*/
FoamFile
{
    format      ascii;
    class       volScalarField;
    location    "0.024";
    object      ddt0(p);
}
// * * * * * * * * * * * * * * * * * * * * * * * * * * * * * * * * * * * * * //

dimensions      [1 -1 -3 0 0 0 0];

internalField   nonuniform List<scalar> 
10000
(
-2.33855e+06
-2.33852e+06
-2.33851e+06
-2.3385e+06
-2.33849e+06
-2.33847e+06
-2.33846e+06
-2.33844e+06
-2.33843e+06
-2.33841e+06
-2.3384e+06
-2.33839e+06
-2.33837e+06
-2.33836e+06
-2.33834e+06
-2.33833e+06
-2.33831e+06
-2.3383e+06
-2.33828e+06
-2.33827e+06
-2.33825e+06
-2.33824e+06
-2.33823e+06
-2.33821e+06
-2.3382e+06
-2.33818e+06
-2.33817e+06
-2.33815e+06
-2.33814e+06
-2.33812e+06
-2.33811e+06
-2.33809e+06
-2.33808e+06
-2.33806e+06
-2.33805e+06
-2.33803e+06
-2.33802e+06
-2.338e+06
-2.33798e+06
-2.33797e+06
-2.33796e+06
-2.33794e+06
-2.33793e+06
-2.33791e+06
-2.3379e+06
-2.33788e+06
-2.33787e+06
-2.33785e+06
-2.33783e+06
-2.33782e+06
-2.3378e+06
-2.33779e+06
-2.33777e+06
-2.33776e+06
-2.33774e+06
-2.33773e+06
-2.33771e+06
-2.33769e+06
-2.33768e+06
-2.33766e+06
-2.33765e+06
-2.33763e+06
-2.33762e+06
-2.3376e+06
-2.33758e+06
-2.33757e+06
-2.33755e+06
-2.33754e+06
-2.33752e+06
-2.33751e+06
-2.33749e+06
-2.33747e+06
-2.33746e+06
-2.33744e+06
-2.33743e+06
-2.33741e+06
-2.33739e+06
-2.33738e+06
-2.33736e+06
-2.33734e+06
-2.33733e+06
-2.33731e+06
-2.3373e+06
-2.33728e+06
-2.33726e+06
-2.33725e+06
-2.33723e+06
-2.33721e+06
-2.3372e+06
-2.33718e+06
-2.33716e+06
-2.33715e+06
-2.33713e+06
-2.33711e+06
-2.3371e+06
-2.33708e+06
-2.33707e+06
-2.33705e+06
-2.33703e+06
-2.33702e+06
-2.337e+06
-2.33698e+06
-2.33697e+06
-2.33695e+06
-2.33693e+06
-2.33691e+06
-2.3369e+06
-2.33688e+06
-2.33686e+06
-2.33685e+06
-2.33683e+06
-2.33681e+06
-2.3368e+06
-2.33678e+06
-2.33676e+06
-2.33674e+06
-2.33673e+06
-2.33671e+06
-2.33669e+06
-2.33668e+06
-2.33666e+06
-2.33664e+06
-2.33662e+06
-2.33661e+06
-2.33659e+06
-2.33657e+06
-2.33655e+06
-2.33654e+06
-2.33652e+06
-2.3365e+06
-2.33648e+06
-2.33647e+06
-2.33645e+06
-2.33643e+06
-2.33641e+06
-2.3364e+06
-2.33638e+06
-2.33636e+06
-2.33634e+06
-2.33632e+06
-2.33631e+06
-2.33629e+06
-2.33627e+06
-2.33625e+06
-2.33624e+06
-2.33622e+06
-2.3362e+06
-2.33618e+06
-2.33616e+06
-2.33615e+06
-2.33613e+06
-2.33611e+06
-2.33609e+06
-2.33607e+06
-2.33605e+06
-2.33604e+06
-2.33602e+06
-2.336e+06
-2.33598e+06
-2.33596e+06
-2.33595e+06
-2.33593e+06
-2.33591e+06
-2.33589e+06
-2.33587e+06
-2.33585e+06
-2.33583e+06
-2.33582e+06
-2.3358e+06
-2.33578e+06
-2.33576e+06
-2.33574e+06
-2.33572e+06
-2.3357e+06
-2.33569e+06
-2.33567e+06
-2.33565e+06
-2.33563e+06
-2.33561e+06
-2.33559e+06
-2.33557e+06
-2.33555e+06
-2.33553e+06
-2.33552e+06
-2.3355e+06
-2.33548e+06
-2.33546e+06
-2.33544e+06
-2.33542e+06
-2.3354e+06
-2.33538e+06
-2.33536e+06
-2.33534e+06
-2.33533e+06
-2.33531e+06
-2.33529e+06
-2.33527e+06
-2.33525e+06
-2.33523e+06
-2.33521e+06
-2.33519e+06
-2.33517e+06
-2.33515e+06
-2.33513e+06
-2.33511e+06
-2.33509e+06
-2.33507e+06
-2.33505e+06
-2.33503e+06
-2.33501e+06
-2.33499e+06
-2.33497e+06
-2.33495e+06
-2.33493e+06
-2.33492e+06
-2.3349e+06
-2.33488e+06
-2.33486e+06
-2.33484e+06
-2.33482e+06
-2.3348e+06
-2.33478e+06
-2.33476e+06
-2.33474e+06
-2.33472e+06
-2.3347e+06
-2.33468e+06
-2.33466e+06
-2.33464e+06
-2.33462e+06
-2.3346e+06
-2.33457e+06
-2.33455e+06
-2.33453e+06
-2.33451e+06
-2.33449e+06
-2.33447e+06
-2.33445e+06
-2.33443e+06
-2.33441e+06
-2.33439e+06
-2.33437e+06
-2.33435e+06
-2.33433e+06
-2.33431e+06
-2.33429e+06
-2.33427e+06
-2.33425e+06
-2.33423e+06
-2.33421e+06
-2.33419e+06
-2.33416e+06
-2.33414e+06
-2.33412e+06
-2.3341e+06
-2.33408e+06
-2.33406e+06
-2.33404e+06
-2.33402e+06
-2.334e+06
-2.33398e+06
-2.33396e+06
-2.33393e+06
-2.33391e+06
-2.33389e+06
-2.33387e+06
-2.33385e+06
-2.33383e+06
-2.33381e+06
-2.33379e+06
-2.33377e+06
-2.33374e+06
-2.33372e+06
-2.3337e+06
-2.33368e+06
-2.33366e+06
-2.33364e+06
-2.33362e+06
-2.33359e+06
-2.33357e+06
-2.33355e+06
-2.33353e+06
-2.33351e+06
-2.33349e+06
-2.33346e+06
-2.33344e+06
-2.33342e+06
-2.3334e+06
-2.33338e+06
-2.33336e+06
-2.33333e+06
-2.33331e+06
-2.33329e+06
-2.33327e+06
-2.33325e+06
-2.33322e+06
-2.3332e+06
-2.33318e+06
-2.33316e+06
-2.33314e+06
-2.33311e+06
-2.33309e+06
-2.33307e+06
-2.33305e+06
-2.33303e+06
-2.333e+06
-2.33298e+06
-2.33296e+06
-2.33294e+06
-2.33292e+06
-2.33289e+06
-2.33287e+06
-2.33285e+06
-2.33283e+06
-2.3328e+06
-2.33278e+06
-2.33276e+06
-2.33274e+06
-2.33271e+06
-2.33269e+06
-2.33267e+06
-2.33265e+06
-2.33262e+06
-2.3326e+06
-2.33258e+06
-2.33255e+06
-2.33253e+06
-2.33251e+06
-2.33249e+06
-2.33246e+06
-2.33244e+06
-2.33242e+06
-2.33239e+06
-2.33237e+06
-2.33235e+06
-2.33233e+06
-2.3323e+06
-2.33228e+06
-2.33226e+06
-2.33223e+06
-2.33221e+06
-2.33219e+06
-2.33216e+06
-2.33214e+06
-2.33212e+06
-2.33209e+06
-2.33207e+06
-2.33205e+06
-2.33202e+06
-2.332e+06
-2.33198e+06
-2.33195e+06
-2.33193e+06
-2.33191e+06
-2.33188e+06
-2.33186e+06
-2.33184e+06
-2.33181e+06
-2.33179e+06
-2.33177e+06
-2.33174e+06
-2.33172e+06
-2.33169e+06
-2.33167e+06
-2.33165e+06
-2.33162e+06
-2.3316e+06
-2.33158e+06
-2.33155e+06
-2.33153e+06
-2.3315e+06
-2.33148e+06
-2.33146e+06
-2.33143e+06
-2.33141e+06
-2.33138e+06
-2.33136e+06
-2.33134e+06
-2.33131e+06
-2.33129e+06
-2.33126e+06
-2.33124e+06
-2.33122e+06
-2.33119e+06
-2.33117e+06
-2.33114e+06
-2.33112e+06
-2.33109e+06
-2.33107e+06
-2.33104e+06
-2.33102e+06
-2.331e+06
-2.33097e+06
-2.33095e+06
-2.33092e+06
-2.3309e+06
-2.33087e+06
-2.33085e+06
-2.33082e+06
-2.3308e+06
-2.33077e+06
-2.33075e+06
-2.33072e+06
-2.3307e+06
-2.33068e+06
-2.33065e+06
-2.33063e+06
-2.3306e+06
-2.33058e+06
-2.33055e+06
-2.33053e+06
-2.3305e+06
-2.33048e+06
-2.33045e+06
-2.33043e+06
-2.3304e+06
-2.33038e+06
-2.33035e+06
-2.33032e+06
-2.3303e+06
-2.33027e+06
-2.33025e+06
-2.33022e+06
-2.3302e+06
-2.33017e+06
-2.33015e+06
-2.33012e+06
-2.3301e+06
-2.33007e+06
-2.33005e+06
-2.33002e+06
-2.32999e+06
-2.32997e+06
-2.32994e+06
-2.32992e+06
-2.32989e+06
-2.32987e+06
-2.32984e+06
-2.32982e+06
-2.32979e+06
-2.32976e+06
-2.32974e+06
-2.32971e+06
-2.32969e+06
-2.32966e+06
-2.32963e+06
-2.32961e+06
-2.32958e+06
-2.32956e+06
-2.32953e+06
-2.3295e+06
-2.32948e+06
-2.32945e+06
-2.32943e+06
-2.3294e+06
-2.32937e+06
-2.32935e+06
-2.32932e+06
-2.3293e+06
-2.32927e+06
-2.32924e+06
-2.32922e+06
-2.32919e+06
-2.32916e+06
-2.32914e+06
-2.32911e+06
-2.32908e+06
-2.32906e+06
-2.32903e+06
-2.329e+06
-2.32898e+06
-2.32895e+06
-2.32893e+06
-2.3289e+06
-2.32887e+06
-2.32885e+06
-2.32882e+06
-2.32879e+06
-2.32877e+06
-2.32874e+06
-2.32871e+06
-2.32868e+06
-2.32866e+06
-2.32863e+06
-2.3286e+06
-2.32858e+06
-2.32855e+06
-2.32852e+06
-2.3285e+06
-2.32847e+06
-2.32844e+06
-2.32842e+06
-2.32839e+06
-2.32836e+06
-2.32833e+06
-2.32831e+06
-2.32828e+06
-2.32825e+06
-2.32823e+06
-2.3282e+06
-2.32817e+06
-2.32814e+06
-2.32812e+06
-2.32809e+06
-2.32806e+06
-2.32804e+06
-2.32801e+06
-2.32798e+06
-2.32795e+06
-2.32793e+06
-2.3279e+06
-2.32787e+06
-2.32784e+06
-2.32781e+06
-2.32779e+06
-2.32776e+06
-2.32773e+06
-2.3277e+06
-2.32768e+06
-2.32765e+06
-2.32762e+06
-2.32759e+06
-2.32756e+06
-2.32754e+06
-2.32751e+06
-2.32748e+06
-2.32745e+06
-2.32742e+06
-2.32739e+06
-2.32736e+06
-2.32734e+06
-2.32731e+06
-2.32728e+06
-2.32725e+06
-2.32722e+06
-2.32719e+06
-2.32716e+06
-2.32713e+06
-2.32711e+06
-2.32708e+06
-2.32705e+06
-2.32702e+06
-2.32699e+06
-2.32696e+06
-2.32693e+06
-2.3269e+06
-2.32687e+06
-2.32684e+06
-2.32681e+06
-2.32678e+06
-2.32675e+06
-2.32672e+06
-2.32669e+06
-2.32667e+06
-2.32664e+06
-2.32661e+06
-2.32658e+06
-2.32655e+06
-2.32652e+06
-2.32649e+06
-2.32646e+06
-2.32643e+06
-2.3264e+06
-2.32637e+06
-2.32634e+06
-2.32631e+06
-2.32628e+06
-2.32625e+06
-2.32622e+06
-2.3262e+06
-2.32617e+06
-2.32614e+06
-2.32611e+06
-2.32608e+06
-2.32605e+06
-2.32602e+06
-2.32599e+06
-2.32596e+06
-2.32593e+06
-2.3259e+06
-2.32587e+06
-2.32584e+06
-2.32581e+06
-2.32578e+06
-2.32575e+06
-2.32573e+06
-2.3257e+06
-2.32567e+06
-2.32564e+06
-2.32561e+06
-2.32558e+06
-2.32555e+06
-2.32552e+06
-2.32549e+06
-2.32546e+06
-2.32543e+06
-2.3254e+06
-2.32537e+06
-2.32534e+06
-2.32531e+06
-2.32528e+06
-2.32525e+06
-2.32522e+06
-2.32519e+06
-2.32516e+06
-2.32513e+06
-2.3251e+06
-2.32507e+06
-2.32504e+06
-2.32501e+06
-2.32498e+06
-2.32495e+06
-2.32492e+06
-2.32489e+06
-2.32485e+06
-2.32482e+06
-2.32479e+06
-2.32476e+06
-2.32473e+06
-2.3247e+06
-2.32467e+06
-2.32464e+06
-2.32461e+06
-2.32458e+06
-2.32455e+06
-2.32451e+06
-2.32448e+06
-2.32445e+06
-2.32442e+06
-2.32439e+06
-2.32436e+06
-2.32433e+06
-2.3243e+06
-2.32427e+06
-2.32423e+06
-2.3242e+06
-2.32417e+06
-2.32414e+06
-2.32411e+06
-2.32408e+06
-2.32405e+06
-2.32401e+06
-2.32398e+06
-2.32395e+06
-2.32392e+06
-2.32389e+06
-2.32386e+06
-2.32382e+06
-2.32379e+06
-2.32376e+06
-2.32373e+06
-2.3237e+06
-2.32367e+06
-2.32363e+06
-2.3236e+06
-2.32357e+06
-2.32354e+06
-2.32351e+06
-2.32347e+06
-2.32344e+06
-2.32341e+06
-2.32338e+06
-2.32334e+06
-2.32331e+06
-2.32328e+06
-2.32325e+06
-2.32322e+06
-2.32318e+06
-2.32315e+06
-2.32312e+06
-2.32309e+06
-2.32305e+06
-2.32302e+06
-2.32299e+06
-2.32296e+06
-2.32292e+06
-2.32289e+06
-2.32286e+06
-2.32283e+06
-2.32279e+06
-2.32276e+06
-2.32273e+06
-2.3227e+06
-2.32266e+06
-2.32263e+06
-2.3226e+06
-2.32256e+06
-2.32253e+06
-2.3225e+06
-2.32247e+06
-2.32243e+06
-2.3224e+06
-2.32237e+06
-2.32233e+06
-2.3223e+06
-2.32227e+06
-2.32223e+06
-2.3222e+06
-2.32217e+06
-2.32213e+06
-2.3221e+06
-2.32207e+06
-2.32204e+06
-2.322e+06
-2.32197e+06
-2.32193e+06
-2.3219e+06
-2.32187e+06
-2.32183e+06
-2.3218e+06
-2.32177e+06
-2.32173e+06
-2.3217e+06
-2.32167e+06
-2.32163e+06
-2.3216e+06
-2.32157e+06
-2.32153e+06
-2.3215e+06
-2.32146e+06
-2.32143e+06
-2.3214e+06
-2.32136e+06
-2.32133e+06
-2.32129e+06
-2.32126e+06
-2.32123e+06
-2.32119e+06
-2.32116e+06
-2.32112e+06
-2.32109e+06
-2.32106e+06
-2.32102e+06
-2.32099e+06
-2.32095e+06
-2.32092e+06
-2.32088e+06
-2.32085e+06
-2.32082e+06
-2.32078e+06
-2.32075e+06
-2.32071e+06
-2.32068e+06
-2.32064e+06
-2.32061e+06
-2.32057e+06
-2.32054e+06
-2.3205e+06
-2.32047e+06
-2.32044e+06
-2.3204e+06
-2.32037e+06
-2.32033e+06
-2.3203e+06
-2.32026e+06
-2.32023e+06
-2.32019e+06
-2.32016e+06
-2.32012e+06
-2.32009e+06
-2.32005e+06
-2.32002e+06
-2.31998e+06
-2.31995e+06
-2.31991e+06
-2.31988e+06
-2.31984e+06
-2.3198e+06
-2.31977e+06
-2.31973e+06
-2.3197e+06
-2.31966e+06
-2.31963e+06
-2.31959e+06
-2.31956e+06
-2.31952e+06
-2.31949e+06
-2.31945e+06
-2.31942e+06
-2.31938e+06
-2.31934e+06
-2.31931e+06
-2.31927e+06
-2.31924e+06
-2.3192e+06
-2.31917e+06
-2.31913e+06
-2.31909e+06
-2.31906e+06
-2.31902e+06
-2.31899e+06
-2.31895e+06
-2.31891e+06
-2.31888e+06
-2.31884e+06
-2.31881e+06
-2.31877e+06
-2.31873e+06
-2.3187e+06
-2.31866e+06
-2.31862e+06
-2.31859e+06
-2.31855e+06
-2.31852e+06
-2.31848e+06
-2.31844e+06
-2.31841e+06
-2.31837e+06
-2.31833e+06
-2.3183e+06
-2.31826e+06
-2.31822e+06
-2.31819e+06
-2.31815e+06
-2.31811e+06
-2.31808e+06
-2.31804e+06
-2.318e+06
-2.31797e+06
-2.31793e+06
-2.31789e+06
-2.31786e+06
-2.31782e+06
-2.31778e+06
-2.31775e+06
-2.31771e+06
-2.31767e+06
-2.31763e+06
-2.3176e+06
-2.31756e+06
-2.31752e+06
-2.31749e+06
-2.31745e+06
-2.31741e+06
-2.31737e+06
-2.31734e+06
-2.3173e+06
-2.31726e+06
-2.31722e+06
-2.31719e+06
-2.31715e+06
-2.31711e+06
-2.31707e+06
-2.31704e+06
-2.317e+06
-2.31696e+06
-2.31692e+06
-2.31689e+06
-2.31685e+06
-2.31681e+06
-2.31677e+06
-2.31674e+06
-2.3167e+06
-2.31666e+06
-2.31662e+06
-2.31658e+06
-2.31655e+06
-2.31651e+06
-2.31647e+06
-2.31643e+06
-2.31639e+06
-2.31636e+06
-2.31632e+06
-2.31628e+06
-2.31624e+06
-2.3162e+06
-2.31616e+06
-2.31613e+06
-2.31609e+06
-2.31605e+06
-2.31601e+06
-2.31597e+06
-2.31593e+06
-2.3159e+06
-2.31586e+06
-2.31582e+06
-2.31578e+06
-2.31574e+06
-2.3157e+06
-2.31567e+06
-2.31563e+06
-2.31559e+06
-2.31555e+06
-2.31551e+06
-2.31547e+06
-2.31543e+06
-2.31539e+06
-2.31535e+06
-2.31532e+06
-2.31528e+06
-2.31524e+06
-2.3152e+06
-2.31516e+06
-2.31512e+06
-2.31508e+06
-2.31504e+06
-2.315e+06
-2.31496e+06
-2.31492e+06
-2.31489e+06
-2.31485e+06
-2.31481e+06
-2.31477e+06
-2.31473e+06
-2.31469e+06
-2.31465e+06
-2.31461e+06
-2.31457e+06
-2.31453e+06
-2.31449e+06
-2.31445e+06
-2.31441e+06
-2.31437e+06
-2.31433e+06
-2.31429e+06
-2.31425e+06
-2.31421e+06
-2.31417e+06
-2.31413e+06
-2.31409e+06
-2.31405e+06
-2.31401e+06
-2.31397e+06
-2.31393e+06
-2.31389e+06
-2.31385e+06
-2.31381e+06
-2.31377e+06
-2.31373e+06
-2.31369e+06
-2.31365e+06
-2.31361e+06
-2.31357e+06
-2.31353e+06
-2.31349e+06
-2.31345e+06
-2.31341e+06
-2.31337e+06
-2.31333e+06
-2.31329e+06
-2.31325e+06
-2.31321e+06
-2.31317e+06
-2.31313e+06
-2.31309e+06
-2.31305e+06
-2.31301e+06
-2.31297e+06
-2.31293e+06
-2.31288e+06
-2.31284e+06
-2.3128e+06
-2.31276e+06
-2.31272e+06
-2.31268e+06
-2.31264e+06
-2.3126e+06
-2.31256e+06
-2.31252e+06
-2.31248e+06
-2.31243e+06
-2.31239e+06
-2.31235e+06
-2.31231e+06
-2.31227e+06
-2.31223e+06
-2.31219e+06
-2.31215e+06
-2.3121e+06
-2.31206e+06
-2.31202e+06
-2.31198e+06
-2.31194e+06
-2.3119e+06
-2.31186e+06
-2.31181e+06
-2.31177e+06
-2.31173e+06
-2.31169e+06
-2.31165e+06
-2.31161e+06
-2.31156e+06
-2.31152e+06
-2.31148e+06
-2.31144e+06
-2.3114e+06
-2.31135e+06
-2.31131e+06
-2.31127e+06
-2.31123e+06
-2.31119e+06
-2.31114e+06
-2.3111e+06
-2.31106e+06
-2.31102e+06
-2.31098e+06
-2.31093e+06
-2.31089e+06
-2.31085e+06
-2.31081e+06
-2.31076e+06
-2.31072e+06
-2.31068e+06
-2.31064e+06
-2.31059e+06
-2.31055e+06
-2.31051e+06
-2.31047e+06
-2.31042e+06
-2.31038e+06
-2.31034e+06
-2.3103e+06
-2.31025e+06
-2.31021e+06
-2.31017e+06
-2.31013e+06
-2.31008e+06
-2.31004e+06
-2.31e+06
-2.30995e+06
-2.30991e+06
-2.30987e+06
-2.30983e+06
-2.30978e+06
-2.30974e+06
-2.3097e+06
-2.30965e+06
-2.30961e+06
-2.30957e+06
-2.30952e+06
-2.30948e+06
-2.30944e+06
-2.30939e+06
-2.30935e+06
-2.30931e+06
-2.30926e+06
-2.30922e+06
-2.30918e+06
-2.30913e+06
-2.30909e+06
-2.30905e+06
-2.309e+06
-2.30896e+06
-2.30891e+06
-2.30887e+06
-2.30883e+06
-2.30878e+06
-2.30874e+06
-2.3087e+06
-2.30865e+06
-2.30861e+06
-2.30856e+06
-2.30852e+06
-2.30848e+06
-2.30843e+06
-2.30839e+06
-2.30834e+06
-2.3083e+06
-2.30826e+06
-2.30821e+06
-2.30817e+06
-2.30812e+06
-2.30808e+06
-2.30804e+06
-2.30799e+06
-2.30795e+06
-2.3079e+06
-2.30786e+06
-2.30781e+06
-2.30777e+06
-2.30772e+06
-2.30768e+06
-2.30764e+06
-2.30759e+06
-2.30755e+06
-2.3075e+06
-2.30746e+06
-2.30741e+06
-2.30737e+06
-2.30732e+06
-2.30728e+06
-2.30723e+06
-2.30719e+06
-2.30714e+06
-2.3071e+06
-2.30705e+06
-2.30701e+06
-2.30696e+06
-2.30692e+06
-2.30687e+06
-2.30683e+06
-2.30678e+06
-2.30674e+06
-2.30669e+06
-2.30665e+06
-2.3066e+06
-2.30656e+06
-2.30651e+06
-2.30647e+06
-2.30642e+06
-2.30638e+06
-2.30633e+06
-2.30628e+06
-2.30624e+06
-2.30619e+06
-2.30615e+06
-2.3061e+06
-2.30606e+06
-2.30601e+06
-2.30597e+06
-2.30592e+06
-2.30587e+06
-2.30583e+06
-2.30578e+06
-2.30574e+06
-2.30569e+06
-2.30564e+06
-2.3056e+06
-2.30555e+06
-2.30551e+06
-2.30546e+06
-2.30541e+06
-2.30537e+06
-2.30532e+06
-2.30528e+06
-2.30523e+06
-2.30518e+06
-2.30514e+06
-2.30509e+06
-2.30504e+06
-2.305e+06
-2.30495e+06
-2.30491e+06
-2.30486e+06
-2.30481e+06
-2.30477e+06
-2.30472e+06
-2.30467e+06
-2.30463e+06
-2.30458e+06
-2.30453e+06
-2.30449e+06
-2.30444e+06
-2.30439e+06
-2.30435e+06
-2.3043e+06
-2.30425e+06
-2.30421e+06
-2.30416e+06
-2.30411e+06
-2.30406e+06
-2.30402e+06
-2.30397e+06
-2.30392e+06
-2.30388e+06
-2.30383e+06
-2.30378e+06
-2.30374e+06
-2.30369e+06
-2.30364e+06
-2.30359e+06
-2.30355e+06
-2.3035e+06
-2.30345e+06
-2.3034e+06
-2.30336e+06
-2.30331e+06
-2.30326e+06
-2.30321e+06
-2.30317e+06
-2.30312e+06
-2.30307e+06
-2.30302e+06
-2.30298e+06
-2.30293e+06
-2.30288e+06
-2.30283e+06
-2.30279e+06
-2.30274e+06
-2.30269e+06
-2.30264e+06
-2.30259e+06
-2.30255e+06
-2.3025e+06
-2.30245e+06
-2.3024e+06
-2.30235e+06
-2.30231e+06
-2.30226e+06
-2.30221e+06
-2.30216e+06
-2.30211e+06
-2.30206e+06
-2.30202e+06
-2.30197e+06
-2.30192e+06
-2.30187e+06
-2.30182e+06
-2.30177e+06
-2.30173e+06
-2.30168e+06
-2.30163e+06
-2.30158e+06
-2.30153e+06
-2.30148e+06
-2.30143e+06
-2.30139e+06
-2.30134e+06
-2.30129e+06
-2.30124e+06
-2.30119e+06
-2.30114e+06
-2.30109e+06
-2.30104e+06
-2.30099e+06
-2.30095e+06
-2.3009e+06
-2.30085e+06
-2.3008e+06
-2.30075e+06
-2.3007e+06
-2.30065e+06
-2.3006e+06
-2.30055e+06
-2.3005e+06
-2.30045e+06
-2.30041e+06
-2.30036e+06
-2.30031e+06
-2.30026e+06
-2.30021e+06
-2.30016e+06
-2.30011e+06
-2.30006e+06
-2.30001e+06
-2.29996e+06
-2.29991e+06
-2.29986e+06
-2.29981e+06
-2.29976e+06
-2.29971e+06
-2.29966e+06
-2.29961e+06
-2.29956e+06
-2.29951e+06
-2.29946e+06
-2.29941e+06
-2.29936e+06
-2.29931e+06
-2.29926e+06
-2.29921e+06
-2.29916e+06
-2.29912e+06
-2.29906e+06
-2.29901e+06
-2.29896e+06
-2.29891e+06
-2.29886e+06
-2.29881e+06
-2.29876e+06
-2.29871e+06
-2.29867e+06
-2.29861e+06
-2.29856e+06
-2.29851e+06
-2.29846e+06
-2.29841e+06
-2.29836e+06
-2.2983e+06
-2.29825e+06
-2.29821e+06
-2.29816e+06
-2.29811e+06
-2.29805e+06
-2.298e+06
-2.29795e+06
-2.2979e+06
-2.29785e+06
-2.2978e+06
-2.29775e+06
-2.2977e+06
-2.29764e+06
-2.29759e+06
-2.29755e+06
-2.2975e+06
-2.29744e+06
-2.29738e+06
-2.29735e+06
-2.29727e+06
-2.29724e+06
-2.29719e+06
-2.29713e+06
-2.29708e+06
-2.29703e+06
-2.29698e+06
-2.29693e+06
-2.29689e+06
-2.29681e+06
-2.29677e+06
-2.29672e+06
-2.29667e+06
-2.29662e+06
-2.29657e+06
-2.29652e+06
-2.29646e+06
-2.2964e+06
-2.29637e+06
-2.29632e+06
-2.29626e+06
-2.2962e+06
-2.29615e+06
-2.29609e+06
-2.29606e+06
-2.29599e+06
-2.29595e+06
-2.29588e+06
-2.29585e+06
-2.29579e+06
-2.29573e+06
-2.29568e+06
-2.29562e+06
-2.2956e+06
-2.29551e+06
-2.29548e+06
-2.29543e+06
-2.29537e+06
-2.29532e+06
-2.29526e+06
-2.29521e+06
-2.29516e+06
-2.29511e+06
-2.29505e+06
-2.295e+06
-2.29495e+06
-2.2949e+06
-2.29484e+06
-2.29479e+06
-2.29474e+06
-2.29468e+06
-2.29463e+06
-2.29458e+06
-2.29453e+06
-2.29447e+06
-2.29442e+06
-2.29437e+06
-2.29431e+06
-2.29427e+06
-2.29421e+06
-2.29416e+06
-2.2941e+06
-2.29405e+06
-2.294e+06
-2.29394e+06
-2.29389e+06
-2.29383e+06
-2.29378e+06
-2.29373e+06
-2.29368e+06
-2.29362e+06
-2.29357e+06
-2.29351e+06
-2.29348e+06
-2.29341e+06
-2.29335e+06
-2.2933e+06
-2.29324e+06
-2.29319e+06
-2.29314e+06
-2.29309e+06
-2.29303e+06
-2.29298e+06
-2.29293e+06
-2.29287e+06
-2.29282e+06
-2.29276e+06
-2.29271e+06
-2.29266e+06
-2.2926e+06
-2.29255e+06
-2.29249e+06
-2.29244e+06
-2.29239e+06
-2.29233e+06
-2.29228e+06
-2.29222e+06
-2.29217e+06
-2.29211e+06
-2.29206e+06
-2.29201e+06
-2.29195e+06
-2.2919e+06
-2.29184e+06
-2.29179e+06
-2.29174e+06
-2.29168e+06
-2.29162e+06
-2.29157e+06
-2.29152e+06
-2.29146e+06
-2.2914e+06
-2.29136e+06
-2.2913e+06
-2.29125e+06
-2.29117e+06
-2.29114e+06
-2.29108e+06
-2.29102e+06
-2.29097e+06
-2.29091e+06
-2.29085e+06
-2.29081e+06
-2.29075e+06
-2.29069e+06
-2.29064e+06
-2.29058e+06
-2.29053e+06
-2.29047e+06
-2.29042e+06
-2.29036e+06
-2.29031e+06
-2.29025e+06
-2.2902e+06
-2.29014e+06
-2.29008e+06
-2.29003e+06
-2.28997e+06
-2.28992e+06
-2.28986e+06
-2.28981e+06
-2.28975e+06
-2.28969e+06
-2.28964e+06
-2.28959e+06
-2.28953e+06
-2.28947e+06
-2.28942e+06
-2.28936e+06
-2.28931e+06
-2.28925e+06
-2.28919e+06
-2.28914e+06
-2.28908e+06
-2.28903e+06
-2.28897e+06
-2.28891e+06
-2.28886e+06
-2.2888e+06
-2.28874e+06
-2.28869e+06
-2.28863e+06
-2.28858e+06
-2.28852e+06
-2.28846e+06
-2.28841e+06
-2.28835e+06
-2.2883e+06
-2.28824e+06
-2.28818e+06
-2.28812e+06
-2.28807e+06
-2.28801e+06
-2.28795e+06
-2.2879e+06
-2.28784e+06
-2.28779e+06
-2.28773e+06
-2.28767e+06
-2.28761e+06
-2.28756e+06
-2.2875e+06
-2.28744e+06
-2.28739e+06
-2.28733e+06
-2.28727e+06
-2.28722e+06
-2.28716e+06
-2.2871e+06
-2.28705e+06
-2.28699e+06
-2.28693e+06
-2.28687e+06
-2.28682e+06
-2.28676e+06
-2.2867e+06
-2.28664e+06
-2.28659e+06
-2.28653e+06
-2.28647e+06
-2.28641e+06
-2.28636e+06
-2.2863e+06
-2.28624e+06
-2.28619e+06
-2.28613e+06
-2.28607e+06
-2.28601e+06
-2.28595e+06
-2.2859e+06
-2.28584e+06
-2.28578e+06
-2.28572e+06
-2.28567e+06
-2.28561e+06
-2.28555e+06
-2.28549e+06
-2.28543e+06
-2.28538e+06
-2.28532e+06
-2.28526e+06
-2.2852e+06
-2.28514e+06
-2.28509e+06
-2.28503e+06
-2.28497e+06
-2.28491e+06
-2.28485e+06
-2.28479e+06
-2.28474e+06
-2.28468e+06
-2.28462e+06
-2.28456e+06
-2.2845e+06
-2.28444e+06
-2.28438e+06
-2.28433e+06
-2.28427e+06
-2.28421e+06
-2.28415e+06
-2.28409e+06
-2.28403e+06
-2.28397e+06
-2.28391e+06
-2.28386e+06
-2.2838e+06
-2.28374e+06
-2.28368e+06
-2.28362e+06
-2.28356e+06
-2.2835e+06
-2.28344e+06
-2.28338e+06
-2.28333e+06
-2.28327e+06
-2.28321e+06
-2.28315e+06
-2.28309e+06
-2.28303e+06
-2.28297e+06
-2.28291e+06
-2.28285e+06
-2.28279e+06
-2.28273e+06
-2.28267e+06
-2.28261e+06
-2.28255e+06
-2.28249e+06
-2.28244e+06
-2.28237e+06
-2.28232e+06
-2.28226e+06
-2.2822e+06
-2.28214e+06
-2.28208e+06
-2.28202e+06
-2.28196e+06
-2.2819e+06
-2.28184e+06
-2.28178e+06
-2.28172e+06
-2.28166e+06
-2.2816e+06
-2.28154e+06
-2.28148e+06
-2.28142e+06
-2.28136e+06
-2.2813e+06
-2.28124e+06
-2.28118e+06
-2.28112e+06
-2.28106e+06
-2.281e+06
-2.28094e+06
-2.28087e+06
-2.28081e+06
-2.28075e+06
-2.28069e+06
-2.28063e+06
-2.28057e+06
-2.28051e+06
-2.28045e+06
-2.28039e+06
-2.28033e+06
-2.28027e+06
-2.28021e+06
-2.28015e+06
-2.28009e+06
-2.28003e+06
-2.27996e+06
-2.2799e+06
-2.27984e+06
-2.27978e+06
-2.27972e+06
-2.27966e+06
-2.2796e+06
-2.27954e+06
-2.27948e+06
-2.27942e+06
-2.27936e+06
-2.27929e+06
-2.27923e+06
-2.27917e+06
-2.27911e+06
-2.27905e+06
-2.27899e+06
-2.27893e+06
-2.27886e+06
-2.2788e+06
-2.27874e+06
-2.27868e+06
-2.27862e+06
-2.27856e+06
-2.2785e+06
-2.27843e+06
-2.27837e+06
-2.27831e+06
-2.27825e+06
-2.27819e+06
-2.27813e+06
-2.27806e+06
-2.278e+06
-2.27794e+06
-2.27788e+06
-2.27782e+06
-2.27775e+06
-2.27769e+06
-2.27763e+06
-2.27757e+06
-2.27751e+06
-2.27744e+06
-2.27738e+06
-2.27732e+06
-2.27726e+06
-2.27719e+06
-2.27713e+06
-2.27707e+06
-2.27701e+06
-2.27695e+06
-2.27688e+06
-2.27682e+06
-2.27676e+06
-2.2767e+06
-2.27663e+06
-2.27657e+06
-2.27651e+06
-2.27645e+06
-2.27638e+06
-2.27632e+06
-2.27626e+06
-2.27619e+06
-2.27613e+06
-2.27607e+06
-2.27601e+06
-2.27594e+06
-2.27588e+06
-2.27582e+06
-2.27575e+06
-2.27569e+06
-2.27563e+06
-2.27556e+06
-2.2755e+06
-2.27544e+06
-2.27538e+06
-2.27531e+06
-2.27525e+06
-2.27519e+06
-2.27512e+06
-2.27506e+06
-2.275e+06
-2.27493e+06
-2.27487e+06
-2.27481e+06
-2.27474e+06
-2.27468e+06
-2.27461e+06
-2.27455e+06
-2.27449e+06
-2.27442e+06
-2.27436e+06
-2.2743e+06
-2.27423e+06
-2.27417e+06
-2.27411e+06
-2.27404e+06
-2.27398e+06
-2.27391e+06
-2.27385e+06
-2.27379e+06
-2.27372e+06
-2.27366e+06
-2.27359e+06
-2.27353e+06
-2.27347e+06
-2.2734e+06
-2.27334e+06
-2.27327e+06
-2.27321e+06
-2.27314e+06
-2.27308e+06
-2.27302e+06
-2.27295e+06
-2.27289e+06
-2.27282e+06
-2.27276e+06
-2.27269e+06
-2.27263e+06
-2.27257e+06
-2.2725e+06
-2.27244e+06
-2.27237e+06
-2.27231e+06
-2.27224e+06
-2.27218e+06
-2.27211e+06
-2.27205e+06
-2.27198e+06
-2.27192e+06
-2.27185e+06
-2.27179e+06
-2.27172e+06
-2.27166e+06
-2.27159e+06
-2.27153e+06
-2.27146e+06
-2.2714e+06
-2.27133e+06
-2.27127e+06
-2.2712e+06
-2.27114e+06
-2.27107e+06
-2.27101e+06
-2.27094e+06
-2.27088e+06
-2.27081e+06
-2.27074e+06
-2.27068e+06
-2.27061e+06
-2.27055e+06
-2.27048e+06
-2.27042e+06
-2.27035e+06
-2.27029e+06
-2.27022e+06
-2.27015e+06
-2.27009e+06
-2.27002e+06
-2.26996e+06
-2.26989e+06
-2.26983e+06
-2.26976e+06
-2.26969e+06
-2.26963e+06
-2.26956e+06
-2.2695e+06
-2.26943e+06
-2.26936e+06
-2.2693e+06
-2.26923e+06
-2.26917e+06
-2.2691e+06
-2.26903e+06
-2.26897e+06
-2.2689e+06
-2.26883e+06
-2.26877e+06
-2.2687e+06
-2.26863e+06
-2.26857e+06
-2.2685e+06
-2.26844e+06
-2.26837e+06
-2.2683e+06
-2.26824e+06
-2.26817e+06
-2.2681e+06
-2.26804e+06
-2.26797e+06
-2.2679e+06
-2.26784e+06
-2.26777e+06
-2.2677e+06
-2.26763e+06
-2.26757e+06
-2.2675e+06
-2.26743e+06
-2.26737e+06
-2.2673e+06
-2.26723e+06
-2.26717e+06
-2.2671e+06
-2.26703e+06
-2.26696e+06
-2.2669e+06
-2.26683e+06
-2.26676e+06
-2.26669e+06
-2.26663e+06
-2.26656e+06
-2.26649e+06
-2.26643e+06
-2.26636e+06
-2.26629e+06
-2.26622e+06
-2.26616e+06
-2.26609e+06
-2.26602e+06
-2.26595e+06
-2.26588e+06
-2.26582e+06
-2.26575e+06
-2.26568e+06
-2.26561e+06
-2.26555e+06
-2.26548e+06
-2.26541e+06
-2.26534e+06
-2.26527e+06
-2.26521e+06
-2.26514e+06
-2.26507e+06
-2.265e+06
-2.26493e+06
-2.26486e+06
-2.2648e+06
-2.26473e+06
-2.26466e+06
-2.26459e+06
-2.26452e+06
-2.26446e+06
-2.26439e+06
-2.26432e+06
-2.26425e+06
-2.26418e+06
-2.26411e+06
-2.26404e+06
-2.26398e+06
-2.26391e+06
-2.26384e+06
-2.26377e+06
-2.2637e+06
-2.26363e+06
-2.26356e+06
-2.26349e+06
-2.26343e+06
-2.26336e+06
-2.26329e+06
-2.26322e+06
-2.26315e+06
-2.26308e+06
-2.26301e+06
-2.26294e+06
-2.26287e+06
-2.2628e+06
-2.26274e+06
-2.26267e+06
-2.2626e+06
-2.26253e+06
-2.26246e+06
-2.26239e+06
-2.26232e+06
-2.26225e+06
-2.26218e+06
-2.26211e+06
-2.26204e+06
-2.26197e+06
-2.2619e+06
-2.26183e+06
-2.26176e+06
-2.26169e+06
-2.26163e+06
-2.26156e+06
-2.26149e+06
-2.26142e+06
-2.26135e+06
-2.26128e+06
-2.26121e+06
-2.26114e+06
-2.26107e+06
-2.261e+06
-2.26093e+06
-2.26086e+06
-2.26079e+06
-2.26072e+06
-2.26065e+06
-2.26058e+06
-2.26051e+06
-2.26044e+06
-2.26037e+06
-2.2603e+06
-2.26023e+06
-2.26016e+06
-2.26008e+06
-2.26001e+06
-2.25994e+06
-2.25987e+06
-2.2598e+06
-2.25973e+06
-2.25966e+06
-2.25959e+06
-2.25952e+06
-2.25945e+06
-2.25938e+06
-2.25931e+06
-2.25924e+06
-2.25917e+06
-2.2591e+06
-2.25903e+06
-2.25896e+06
-2.25888e+06
-2.25881e+06
-2.25874e+06
-2.25867e+06
-2.2586e+06
-2.25853e+06
-2.25846e+06
-2.25839e+06
-2.25832e+06
-2.25824e+06
-2.25817e+06
-2.2581e+06
-2.25803e+06
-2.25796e+06
-2.25789e+06
-2.25782e+06
-2.25775e+06
-2.25767e+06
-2.2576e+06
-2.25753e+06
-2.25746e+06
-2.25739e+06
-2.25732e+06
-2.25725e+06
-2.25717e+06
-2.2571e+06
-2.25703e+06
-2.25696e+06
-2.25689e+06
-2.25682e+06
-2.25674e+06
-2.25667e+06
-2.2566e+06
-2.25653e+06
-2.25646e+06
-2.25638e+06
-2.25631e+06
-2.25624e+06
-2.25617e+06
-2.2561e+06
-2.25602e+06
-2.25595e+06
-2.25588e+06
-2.25581e+06
-2.25573e+06
-2.25566e+06
-2.25559e+06
-2.25552e+06
-2.25545e+06
-2.25537e+06
-2.2553e+06
-2.25523e+06
-2.25516e+06
-2.25508e+06
-2.25501e+06
-2.25494e+06
-2.25487e+06
-2.25479e+06
-2.25472e+06
-2.25465e+06
-2.25457e+06
-2.2545e+06
-2.25443e+06
-2.25436e+06
-2.25428e+06
-2.25421e+06
-2.25414e+06
-2.25406e+06
-2.25399e+06
-2.25392e+06
-2.25385e+06
-2.25377e+06
-2.2537e+06
-2.25363e+06
-2.25355e+06
-2.25348e+06
-2.25341e+06
-2.25333e+06
-2.25326e+06
-2.25319e+06
-2.25311e+06
-2.25304e+06
-2.25297e+06
-2.25289e+06
-2.25282e+06
-2.25275e+06
-2.25267e+06
-2.2526e+06
-2.25253e+06
-2.25245e+06
-2.25238e+06
-2.2523e+06
-2.25223e+06
-2.25216e+06
-2.25208e+06
-2.25201e+06
-2.25194e+06
-2.25186e+06
-2.25179e+06
-2.25171e+06
-2.25164e+06
-2.25157e+06
-2.25149e+06
-2.25142e+06
-2.25134e+06
-2.25127e+06
-2.25119e+06
-2.25112e+06
-2.25105e+06
-2.25097e+06
-2.2509e+06
-2.25082e+06
-2.25075e+06
-2.25067e+06
-2.2506e+06
-2.25053e+06
-2.25045e+06
-2.25038e+06
-2.2503e+06
-2.25023e+06
-2.25015e+06
-2.25008e+06
-2.25e+06
-2.24993e+06
-2.24985e+06
-2.24978e+06
-2.2497e+06
-2.24963e+06
-2.24956e+06
-2.24948e+06
-2.24941e+06
-2.24933e+06
-2.24926e+06
-2.24918e+06
-2.24911e+06
-2.24903e+06
-2.24896e+06
-2.24888e+06
-2.2488e+06
-2.24873e+06
-2.24865e+06
-2.24858e+06
-2.2485e+06
-2.24843e+06
-2.24835e+06
-2.24828e+06
-2.2482e+06
-2.24813e+06
-2.24805e+06
-2.24798e+06
-2.2479e+06
-2.24782e+06
-2.24775e+06
-2.24767e+06
-2.2476e+06
-2.24752e+06
-2.24745e+06
-2.24737e+06
-2.24729e+06
-2.24722e+06
-2.24714e+06
-2.24707e+06
-2.24699e+06
-2.24692e+06
-2.24684e+06
-2.24676e+06
-2.24669e+06
-2.24661e+06
-2.24654e+06
-2.24646e+06
-2.24638e+06
-2.24631e+06
-2.24623e+06
-2.24615e+06
-2.24608e+06
-2.246e+06
-2.24593e+06
-2.24585e+06
-2.24577e+06
-2.2457e+06
-2.24562e+06
-2.24554e+06
-2.24547e+06
-2.24539e+06
-2.24531e+06
-2.24524e+06
-2.24516e+06
-2.24508e+06
-2.24501e+06
-2.24493e+06
-2.24485e+06
-2.24478e+06
-2.2447e+06
-2.24462e+06
-2.24455e+06
-2.24447e+06
-2.24439e+06
-2.24431e+06
-2.24424e+06
-2.24416e+06
-2.24408e+06
-2.24401e+06
-2.24393e+06
-2.24385e+06
-2.24377e+06
-2.2437e+06
-2.24362e+06
-2.24354e+06
-2.24347e+06
-2.24339e+06
-2.24331e+06
-2.24323e+06
-2.24316e+06
-2.24308e+06
-2.243e+06
-2.24292e+06
-2.24285e+06
-2.24277e+06
-2.24269e+06
-2.24261e+06
-2.24254e+06
-2.24246e+06
-2.24238e+06
-2.2423e+06
-2.24222e+06
-2.24215e+06
-2.24207e+06
-2.24199e+06
-2.24191e+06
-2.24183e+06
-2.24176e+06
-2.24168e+06
-2.2416e+06
-2.24152e+06
-2.24144e+06
-2.24137e+06
-2.24129e+06
-2.24121e+06
-2.24113e+06
-2.24105e+06
-2.24097e+06
-2.2409e+06
-2.24082e+06
-2.24074e+06
-2.24066e+06
-2.24058e+06
-2.2405e+06
-2.24043e+06
-2.24035e+06
-2.24027e+06
-2.24019e+06
-2.24011e+06
-2.24003e+06
-2.23995e+06
-2.23987e+06
-2.2398e+06
-2.23972e+06
-2.23964e+06
-2.23956e+06
-2.23948e+06
-2.2394e+06
-2.23932e+06
-2.23924e+06
-2.23916e+06
-2.23909e+06
-2.23901e+06
-2.23893e+06
-2.23885e+06
-2.23877e+06
-2.23869e+06
-2.23861e+06
-2.23853e+06
-2.23845e+06
-2.23837e+06
-2.23829e+06
-2.23821e+06
-2.23813e+06
-2.23805e+06
-2.23797e+06
-2.2379e+06
-2.23782e+06
-2.23774e+06
-2.23766e+06
-2.23758e+06
-2.2375e+06
-2.23742e+06
-2.23734e+06
-2.23726e+06
-2.23718e+06
-2.2371e+06
-2.23702e+06
-2.23694e+06
-2.23686e+06
-2.23678e+06
-2.2367e+06
-2.23662e+06
-2.23654e+06
-2.23646e+06
-2.23638e+06
-2.2363e+06
-2.23622e+06
-2.23614e+06
-2.23606e+06
-2.23598e+06
-2.2359e+06
-2.23582e+06
-2.23574e+06
-2.23566e+06
-2.23557e+06
-2.23549e+06
-2.23541e+06
-2.23533e+06
-2.23525e+06
-2.23517e+06
-2.23509e+06
-2.23501e+06
-2.23493e+06
-2.23485e+06
-2.23477e+06
-2.23469e+06
-2.23461e+06
-2.23453e+06
-2.23445e+06
-2.23436e+06
-2.23428e+06
-2.2342e+06
-2.23412e+06
-2.23404e+06
-2.23396e+06
-2.23388e+06
-2.2338e+06
-2.23372e+06
-2.23363e+06
-2.23355e+06
-2.23347e+06
-2.23339e+06
-2.23331e+06
-2.23323e+06
-2.23315e+06
-2.23307e+06
-2.23298e+06
-2.2329e+06
-2.23282e+06
-2.23274e+06
-2.23266e+06
-2.23258e+06
-2.23249e+06
-2.23241e+06
-2.23233e+06
-2.23225e+06
-2.23217e+06
-2.23209e+06
-2.232e+06
-2.23192e+06
-2.23184e+06
-2.23176e+06
-2.23168e+06
-2.23159e+06
-2.23151e+06