/*--------------------------------*- C++ -*----------------------------------*\
  =========                 |
  \\      /  F ield         | OpenFOAM: The Open Source CFD Toolbox
   \\    /   O peration     | Website:  https://openfoam.org
    \\  /    A nd           | Version:  9
     \\/     M anipulation  |
\*---------------------------------------------------------------------------*/
FoamFile
{
    format      ascii;
    class       volScalarField;
    location    "0.024";
    object      ddt0(rho,e);
}
// * * * * * * * * * * * * * * * * * * * * * * * * * * * * * * * * * * * * * //

dimensions      [1 -1 -3 0 0 0 0];

internalField   nonuniform List<scalar> 
10000
(
1.27601e+06
1.27581e+06
1.27532e+06
1.27515e+06
1.27511e+06
1.27465e+06
1.27383e+06
1.27333e+06
1.27349e+06
1.27388e+06
1.27373e+06
1.27279e+06
1.27154e+06
1.27076e+06
1.2709e+06
1.27173e+06
1.2726e+06
1.27284e+06
1.27214e+06
1.27065e+06
1.26884e+06
1.26727e+06
1.26641e+06
1.26647e+06
1.26745e+06
1.26914e+06
1.27127e+06
1.27356e+06
1.27578e+06
1.27775e+06
1.27936e+06
1.28055e+06
1.28134e+06
1.28177e+06
1.2819e+06
1.28199e+06
1.28233e+06
1.28337e+06
1.28369e+06
1.28365e+06
1.2836e+06
1.28357e+06
1.28355e+06
1.28354e+06
1.28353e+06
1.28353e+06
1.28354e+06
1.28354e+06
1.28355e+06
1.28355e+06
1.28356e+06
1.28357e+06
1.28357e+06
1.28358e+06
1.28359e+06
1.2836e+06
1.2836e+06
1.28361e+06
1.28362e+06
1.28362e+06
1.28363e+06
1.28364e+06
1.28365e+06
1.28365e+06
1.28366e+06
1.28367e+06
1.28367e+06
1.28368e+06
1.28369e+06
1.2837e+06
1.2837e+06
1.28371e+06
1.28372e+06
1.28372e+06
1.28373e+06
1.28374e+06
1.28375e+06
1.28375e+06
1.28376e+06
1.28377e+06
1.28377e+06
1.28378e+06
1.28379e+06
1.28379e+06
1.2838e+06
1.28381e+06
1.28382e+06
1.28382e+06
1.28383e+06
1.28384e+06
1.28384e+06
1.28385e+06
1.28386e+06
1.28386e+06
1.28387e+06
1.28388e+06
1.28389e+06
1.28389e+06
1.2839e+06
1.28391e+06
1.28391e+06
1.28392e+06
1.28393e+06
1.28393e+06
1.28394e+06
1.28395e+06
1.28395e+06
1.28396e+06
1.28397e+06
1.28398e+06
1.28398e+06
1.28399e+06
1.284e+06
1.284e+06
1.28401e+06
1.28402e+06
1.28402e+06
1.28403e+06
1.28404e+06
1.28404e+06
1.28405e+06
1.28406e+06
1.28406e+06
1.28407e+06
1.28408e+06
1.28409e+06
1.28409e+06
1.2841e+06
1.28411e+06
1.28411e+06
1.28412e+06
1.28413e+06
1.28413e+06
1.28414e+06
1.28415e+06
1.28415e+06
1.28416e+06
1.28417e+06
1.28417e+06
1.28418e+06
1.28419e+06
1.28419e+06
1.2842e+06
1.28421e+06
1.28421e+06
1.28422e+06
1.28423e+06
1.28423e+06
1.28424e+06
1.28425e+06
1.28425e+06
1.28426e+06
1.28427e+06
1.28427e+06
1.28428e+06
1.28429e+06
1.28429e+06
1.2843e+06
1.28431e+06
1.28431e+06
1.28432e+06
1.28433e+06
1.28433e+06
1.28434e+06
1.28435e+06
1.28435e+06
1.28436e+06
1.28437e+06
1.28437e+06
1.28438e+06
1.28439e+06
1.28439e+06
1.2844e+06
1.28441e+06
1.28441e+06
1.28442e+06
1.28443e+06
1.28443e+06
1.28444e+06
1.28444e+06
1.28445e+06
1.28446e+06
1.28446e+06
1.28447e+06
1.28448e+06
1.28448e+06
1.28449e+06
1.2845e+06
1.2845e+06
1.28451e+06
1.28452e+06
1.28452e+06
1.28453e+06
1.28454e+06
1.28454e+06
1.28455e+06
1.28455e+06
1.28456e+06
1.28457e+06
1.28457e+06
1.28458e+06
1.28459e+06
1.28459e+06
1.2846e+06
1.28461e+06
1.28461e+06
1.28462e+06
1.28463e+06
1.28463e+06
1.28464e+06
1.28464e+06
1.28465e+06
1.28466e+06
1.28466e+06
1.28467e+06
1.28468e+06
1.28468e+06
1.28469e+06
1.28469e+06
1.2847e+06
1.28471e+06
1.28471e+06
1.28472e+06
1.28473e+06
1.28473e+06
1.28474e+06
1.28475e+06
1.28475e+06
1.28476e+06
1.28476e+06
1.28477e+06
1.28478e+06
1.28478e+06
1.28479e+06
1.2848e+06
1.2848e+06
1.28481e+06
1.28481e+06
1.28482e+06
1.28483e+06
1.28483e+06
1.28484e+06
1.28484e+06
1.28485e+06
1.28486e+06
1.28486e+06
1.28487e+06
1.28488e+06
1.28488e+06
1.28489e+06
1.28489e+06
1.2849e+06
1.28491e+06
1.28491e+06
1.28492e+06
1.28492e+06
1.28493e+06
1.28494e+06
1.28494e+06
1.28495e+06
1.28496e+06
1.28496e+06
1.28497e+06
1.28497e+06
1.28498e+06
1.28499e+06
1.28499e+06
1.285e+06
1.285e+06
1.28501e+06
1.28502e+06
1.28502e+06
1.28503e+06
1.28503e+06
1.28504e+06
1.28505e+06
1.28505e+06
1.28506e+06
1.28506e+06
1.28507e+06
1.28508e+06
1.28508e+06
1.28509e+06
1.28509e+06
1.2851e+06
1.28511e+06
1.28511e+06
1.28512e+06
1.28512e+06
1.28513e+06
1.28514e+06
1.28514e+06
1.28515e+06
1.28515e+06
1.28516e+06
1.28516e+06
1.28517e+06
1.28518e+06
1.28518e+06
1.28519e+06
1.28519e+06
1.2852e+06
1.28521e+06
1.28521e+06
1.28522e+06
1.28522e+06
1.28523e+06
1.28524e+06
1.28524e+06
1.28525e+06
1.28525e+06
1.28526e+06
1.28526e+06
1.28527e+06
1.28528e+06
1.28528e+06
1.28529e+06
1.28529e+06
1.2853e+06
1.2853e+06
1.28531e+06
1.28532e+06
1.28532e+06
1.28533e+06
1.28533e+06
1.28534e+06
1.28534e+06
1.28535e+06
1.28536e+06
1.28536e+06
1.28537e+06
1.28537e+06
1.28538e+06
1.28538e+06
1.28539e+06
1.2854e+06
1.2854e+06
1.28541e+06
1.28541e+06
1.28542e+06
1.28542e+06
1.28543e+06
1.28544e+06
1.28544e+06
1.28545e+06
1.28545e+06
1.28546e+06
1.28546e+06
1.28547e+06
1.28548e+06
1.28548e+06
1.28549e+06
1.28549e+06
1.2855e+06
1.2855e+06
1.28551e+06
1.28551e+06
1.28552e+06
1.28553e+06
1.28553e+06
1.28554e+06
1.28554e+06
1.28555e+06
1.28555e+06
1.28556e+06
1.28556e+06
1.28557e+06
1.28558e+06
1.28558e+06
1.28559e+06
1.28559e+06
1.2856e+06
1.2856e+06
1.28561e+06
1.28561e+06
1.28562e+06
1.28562e+06
1.28563e+06
1.28564e+06
1.28564e+06
1.28565e+06
1.28565e+06
1.28566e+06
1.28566e+06
1.28567e+06
1.28567e+06
1.28568e+06
1.28568e+06
1.28569e+06
1.2857e+06
1.2857e+06
1.28571e+06
1.28571e+06
1.28572e+06
1.28572e+06
1.28573e+06
1.28573e+06
1.28574e+06
1.28574e+06
1.28575e+06
1.28575e+06
1.28576e+06
1.28576e+06
1.28577e+06
1.28578e+06
1.28578e+06
1.28579e+06
1.28579e+06
1.2858e+06
1.2858e+06
1.28581e+06
1.28581e+06
1.28582e+06
1.28582e+06
1.28583e+06
1.28583e+06
1.28584e+06
1.28584e+06
1.28585e+06
1.28585e+06
1.28586e+06
1.28586e+06
1.28587e+06
1.28588e+06
1.28588e+06
1.28589e+06
1.28589e+06
1.2859e+06
1.2859e+06
1.28591e+06
1.28591e+06
1.28592e+06
1.28592e+06
1.28593e+06
1.28593e+06
1.28594e+06
1.28594e+06
1.28595e+06
1.28595e+06
1.28596e+06
1.28596e+06
1.28597e+06
1.28597e+06
1.28598e+06
1.28598e+06
1.28599e+06
1.28599e+06
1.286e+06
1.286e+06
1.28601e+06
1.28601e+06
1.28602e+06
1.28602e+06
1.28603e+06
1.28603e+06
1.28604e+06
1.28604e+06
1.28605e+06
1.28605e+06
1.28606e+06
1.28606e+06
1.28607e+06
1.28607e+06
1.28608e+06
1.28608e+06
1.28609e+06
1.28609e+06
1.2861e+06
1.2861e+06
1.28611e+06
1.28611e+06
1.28612e+06
1.28612e+06
1.28613e+06
1.28613e+06
1.28614e+06
1.28614e+06
1.28615e+06
1.28615e+06
1.28616e+06
1.28616e+06
1.28617e+06
1.28617e+06
1.28618e+06
1.28618e+06
1.28619e+06
1.28619e+06
1.2862e+06
1.2862e+06
1.28621e+06
1.28621e+06
1.28622e+06
1.28622e+06
1.28623e+06
1.28623e+06
1.28624e+06
1.28624e+06
1.28625e+06
1.28625e+06
1.28626e+06
1.28626e+06
1.28627e+06
1.28627e+06
1.28628e+06
1.28628e+06
1.28629e+06
1.28629e+06
1.2863e+06
1.2863e+06
1.28631e+06
1.28631e+06
1.28632e+06
1.28632e+06
1.28632e+06
1.28633e+06
1.28633e+06
1.28634e+06
1.28634e+06
1.28635e+06
1.28635e+06
1.28636e+06
1.28636e+06
1.28637e+06
1.28637e+06
1.28638e+06
1.28638e+06
1.28638e+06
1.28639e+06
1.28639e+06
1.2864e+06
1.2864e+06
1.28641e+06
1.28641e+06
1.28642e+06
1.28642e+06
1.28642e+06
1.28643e+06
1.28643e+06
1.28644e+06
1.28644e+06
1.28645e+06
1.28645e+06
1.28645e+06
1.28646e+06
1.28646e+06
1.28647e+06
1.28647e+06
1.28647e+06
1.28648e+06
1.28648e+06
1.28649e+06
1.28649e+06
1.28649e+06
1.2865e+06
1.2865e+06
1.28651e+06
1.28651e+06
1.28652e+06
1.28652e+06
1.28652e+06
1.28653e+06
1.28653e+06
1.28654e+06
1.28654e+06
1.28655e+06
1.28655e+06
1.28655e+06
1.28656e+06
1.28656e+06
1.28657e+06
1.28657e+06
1.28658e+06
1.28658e+06
1.28658e+06
1.28659e+06
1.28659e+06
1.2866e+06
1.2866e+06
1.28661e+06
1.28661e+06
1.28662e+06
1.28662e+06
1.28662e+06
1.28663e+06
1.28663e+06
1.28664e+06
1.28664e+06
1.28665e+06
1.28665e+06
1.28666e+06
1.28666e+06
1.28666e+06
1.28667e+06
1.28667e+06
1.28668e+06
1.28668e+06
1.28669e+06
1.28669e+06
1.28669e+06
1.2867e+06
1.2867e+06
1.28671e+06
1.28671e+06
1.28672e+06
1.28672e+06
1.28672e+06
1.28673e+06
1.28673e+06
1.28674e+06
1.28674e+06
1.28675e+06
1.28675e+06
1.28675e+06
1.28676e+06
1.28676e+06
1.28677e+06
1.28677e+06
1.28677e+06
1.28678e+06
1.28678e+06
1.28679e+06
1.28679e+06
1.28679e+06
1.2868e+06
1.2868e+06
1.28681e+06
1.28681e+06
1.28681e+06
1.28682e+06
1.28682e+06
1.28682e+06
1.28683e+06
1.28683e+06
1.28684e+06
1.28684e+06
1.28684e+06
1.28685e+06
1.28685e+06
1.28686e+06
1.28686e+06
1.28686e+06
1.28687e+06
1.28687e+06
1.28687e+06
1.28688e+06
1.28688e+06
1.28689e+06
1.28689e+06
1.28689e+06
1.2869e+06
1.2869e+06
1.2869e+06
1.28691e+06
1.28691e+06
1.28692e+06
1.28692e+06
1.28692e+06
1.28693e+06
1.28693e+06
1.28693e+06
1.28694e+06
1.28694e+06
1.28695e+06
1.28695e+06
1.28695e+06
1.28696e+06
1.28696e+06
1.28696e+06
1.28697e+06
1.28697e+06
1.28697e+06
1.28698e+06
1.28698e+06
1.28699e+06
1.28699e+06
1.28699e+06
1.287e+06
1.287e+06
1.287e+06
1.28701e+06
1.28701e+06
1.28701e+06
1.28702e+06
1.28702e+06
1.28702e+06
1.28703e+06
1.28703e+06
1.28703e+06
1.28704e+06
1.28704e+06
1.28705e+06
1.28705e+06
1.28705e+06
1.28706e+06
1.28706e+06
1.28706e+06
1.28707e+06
1.28707e+06
1.28707e+06
1.28708e+06
1.28708e+06
1.28708e+06
1.28709e+06
1.28709e+06
1.28709e+06
1.2871e+06
1.2871e+06
1.2871e+06
1.28711e+06
1.28711e+06
1.28711e+06
1.28712e+06
1.28712e+06
1.28712e+06
1.28713e+06
1.28713e+06
1.28713e+06
1.28714e+06
1.28714e+06
1.28714e+06
1.28715e+06
1.28715e+06
1.28715e+06
1.28716e+06
1.28716e+06
1.28716e+06
1.28717e+06
1.28717e+06
1.28717e+06
1.28718e+06
1.28718e+06
1.28718e+06
1.28718e+06
1.28719e+06
1.28719e+06
1.28719e+06
1.2872e+06
1.2872e+06
1.2872e+06
1.28721e+06
1.28721e+06
1.28721e+06
1.28722e+06
1.28722e+06
1.28722e+06
1.28723e+06
1.28723e+06
1.28723e+06
1.28723e+06
1.28724e+06
1.28724e+06
1.28724e+06
1.28725e+06
1.28725e+06
1.28725e+06
1.28726e+06
1.28726e+06
1.28726e+06
1.28726e+06
1.28727e+06
1.28727e+06
1.28727e+06
1.28728e+06
1.28728e+06
1.28728e+06
1.28729e+06
1.28729e+06
1.28729e+06
1.28729e+06
1.2873e+06
1.2873e+06
1.2873e+06
1.28731e+06
1.28731e+06
1.28731e+06
1.28731e+06
1.28732e+06
1.28732e+06
1.28732e+06
1.28733e+06
1.28733e+06
1.28733e+06
1.28733e+06
1.28734e+06
1.28734e+06
1.28734e+06
1.28735e+06
1.28735e+06
1.28735e+06
1.28735e+06
1.28736e+06
1.28736e+06
1.28736e+06
1.28736e+06
1.28737e+06
1.28737e+06
1.28737e+06
1.28738e+06
1.28738e+06
1.28738e+06
1.28738e+06
1.28739e+06
1.28739e+06
1.28739e+06
1.28739e+06
1.2874e+06
1.2874e+06
1.2874e+06
1.28741e+06
1.28741e+06
1.28741e+06
1.28741e+06
1.28742e+06
1.28742e+06
1.28742e+06
1.28742e+06
1.28743e+06
1.28743e+06
1.28743e+06
1.28743e+06
1.28744e+06
1.28744e+06
1.28744e+06
1.28744e+06
1.28745e+06
1.28745e+06
1.28745e+06
1.28745e+06
1.28746e+06
1.28746e+06
1.28746e+06
1.28746e+06
1.28747e+06
1.28747e+06
1.28747e+06
1.28747e+06
1.28748e+06
1.28748e+06
1.28748e+06
1.28748e+06
1.28749e+06
1.28749e+06
1.28749e+06
1.28749e+06
1.28749e+06
1.2875e+06
1.2875e+06
1.2875e+06
1.2875e+06
1.28751e+06
1.28751e+06
1.28751e+06
1.28751e+06
1.28752e+06
1.28752e+06
1.28752e+06
1.28752e+06
1.28752e+06
1.28753e+06
1.28753e+06
1.28753e+06
1.28753e+06
1.28754e+06
1.28754e+06
1.28754e+06
1.28754e+06
1.28754e+06
1.28755e+06
1.28755e+06
1.28755e+06
1.28755e+06
1.28756e+06
1.28756e+06
1.28756e+06
1.28756e+06
1.28756e+06
1.28757e+06
1.28757e+06
1.28757e+06
1.28757e+06
1.28757e+06
1.28758e+06
1.28758e+06
1.28758e+06
1.28758e+06
1.28758e+06
1.28759e+06
1.28759e+06
1.28759e+06
1.28759e+06
1.2876e+06
1.2876e+06
1.2876e+06
1.2876e+06
1.2876e+06
1.28761e+06
1.28761e+06
1.28761e+06
1.28761e+06
1.28761e+06
1.28761e+06
1.28762e+06
1.28762e+06
1.28762e+06
1.28762e+06
1.28762e+06
1.28763e+06
1.28763e+06
1.28763e+06
1.28763e+06
1.28763e+06
1.28764e+06
1.28764e+06
1.28764e+06
1.28764e+06
1.28764e+06
1.28765e+06
1.28765e+06
1.28765e+06
1.28765e+06
1.28765e+06
1.28765e+06
1.28766e+06
1.28766e+06
1.28766e+06
1.28766e+06
1.28766e+06
1.28766e+06
1.28767e+06
1.28767e+06
1.28767e+06
1.28767e+06
1.28767e+06
1.28767e+06
1.28768e+06
1.28768e+06
1.28768e+06
1.28768e+06
1.28768e+06
1.28768e+06
1.28769e+06
1.28769e+06
1.28769e+06
1.28769e+06
1.28769e+06
1.28769e+06
1.2877e+06
1.2877e+06
1.2877e+06
1.2877e+06
1.2877e+06
1.2877e+06
1.28771e+06
1.28771e+06
1.28771e+06
1.28771e+06
1.28771e+06
1.28771e+06
1.28771e+06
1.28772e+06
1.28772e+06
1.28772e+06
1.28772e+06
1.28772e+06
1.28772e+06
1.28773e+06
1.28773e+06
1.28773e+06
1.28773e+06
1.28773e+06
1.28773e+06
1.28773e+06
1.28774e+06
1.28774e+06
1.28774e+06
1.28774e+06
1.28774e+06
1.28774e+06
1.28774e+06
1.28774e+06
1.28775e+06
1.28775e+06
1.28775e+06
1.28775e+06
1.28775e+06
1.28775e+06
1.28775e+06
1.28776e+06
1.28776e+06
1.28776e+06
1.28776e+06
1.28776e+06
1.28776e+06
1.28776e+06
1.28776e+06
1.28777e+06
1.28777e+06
1.28777e+06
1.28777e+06
1.28777e+06
1.28777e+06
1.28777e+06
1.28777e+06
1.28777e+06
1.28778e+06
1.28778e+06
1.28778e+06
1.28778e+06
1.28778e+06
1.28778e+06
1.28778e+06
1.28778e+06
1.28778e+06
1.28779e+06
1.28779e+06
1.28779e+06
1.28779e+06
1.28779e+06
1.28779e+06
1.28779e+06
1.28779e+06
1.28779e+06
1.2878e+06
1.2878e+06
1.2878e+06
1.2878e+06
1.2878e+06
1.2878e+06
1.2878e+06
1.2878e+06
1.2878e+06
1.2878e+06
1.2878e+06
1.28781e+06
1.28781e+06
1.28781e+06
1.28781e+06
1.28781e+06
1.28781e+06
1.28781e+06
1.28781e+06
1.28781e+06
1.28781e+06
1.28781e+06
1.28782e+06
1.28782e+06
1.28782e+06
1.28782e+06
1.28782e+06
1.28782e+06
1.28782e+06
1.28782e+06
1.28782e+06
1.28782e+06
1.28782e+06
1.28782e+06
1.28783e+06
1.28783e+06
1.28783e+06
1.28783e+06
1.28783e+06
1.28783e+06
1.28783e+06
1.28783e+06
1.28783e+06
1.28783e+06
1.28783e+06
1.28783e+06
1.28783e+06
1.28783e+06
1.28783e+06
1.28784e+06
1.28784e+06
1.28784e+06
1.28784e+06
1.28784e+06
1.28784e+06
1.28784e+06
1.28784e+06
1.28784e+06
1.28784e+06
1.28784e+06
1.28784e+06
1.28784e+06
1.28784e+06
1.28784e+06
1.28784e+06
1.28784e+06
1.28784e+06
1.28785e+06
1.28785e+06
1.28785e+06
1.28785e+06
1.28785e+06
1.28785e+06
1.28785e+06
1.28785e+06
1.28785e+06
1.28785e+06
1.28785e+06
1.28785e+06
1.28785e+06
1.28785e+06
1.28785e+06
1.28785e+06
1.28785e+06
1.28785e+06
1.28785e+06
1.28785e+06
1.28785e+06
1.28785e+06
1.28785e+06
1.28785e+06
1.28786e+06
1.28786e+06
1.28786e+06
1.28786e+06
1.28786e+06
1.28786e+06
1.28786e+06
1.28786e+06
1.28786e+06
1.28786e+06
1.28786e+06
1.28786e+06
1.28786e+06
1.28786e+06
1.28786e+06
1.28786e+06
1.28786e+06
1.28786e+06
1.28786e+06
1.28786e+06
1.28786e+06
1.28786e+06
1.28786e+06
1.28786e+06
1.28786e+06
1.28786e+06
1.28786e+06
1.28786e+06
1.28786e+06
1.28786e+06
1.28786e+06
1.28786e+06
1.28786e+06
1.28786e+06
1.28786e+06
1.28786e+06
1.28786e+06
1.28786e+06
1.28786e+06
1.28786e+06
1.28786e+06
1.28786e+06
1.28786e+06
1.28786e+06
1.28786e+06
1.28786e+06
1.28786e+06
1.28786e+06
1.28786e+06
1.28786e+06
1.28786e+06
1.28786e+06
1.28786e+06
1.28786e+06
1.28786e+06
1.28786e+06
1.28786e+06
1.28786e+06
1.28786e+06
1.28786e+06
1.28786e+06
1.28786e+06
1.28786e+06
1.28786e+06
1.28786e+06
1.28786e+06
1.28786e+06
1.28786e+06
1.28786e+06
1.28786e+06
1.28786e+06
1.28786e+06
1.28786e+06
1.28786e+06
1.28786e+06
1.28786e+06
1.28786e+06
1.28786e+06
1.28785e+06
1.28785e+06
1.28785e+06
1.28785e+06
1.28785e+06
1.28785e+06
1.28785e+06
1.28785e+06
1.28785e+06
1.28785e+06
1.28785e+06
1.28785e+06
1.28785e+06
1.28785e+06
1.28785e+06
1.28785e+06
1.28785e+06
1.28785e+06
1.28785e+06
1.28785e+06
1.28785e+06
1.28785e+06
1.28785e+06
1.28785e+06
1.28785e+06
1.28784e+06
1.28784e+06
1.28784e+06
1.28784e+06
1.28784e+06
1.28784e+06
1.28784e+06
1.28784e+06
1.28784e+06
1.28784e+06
1.28784e+06
1.28783e+06
1.28785e+06
1.28783e+06
1.28785e+06
1.28782e+06
1.28786e+06
1.2878e+06
1.28787e+06
1.28778e+06
1.2879e+06
1.28775e+06
1.28794e+06
1.2877e+06
1.28799e+06
1.28763e+06
1.28806e+06
1.28755e+06
1.28815e+06
1.28745e+06
1.28825e+06
1.28736e+06
1.28832e+06
1.2873e+06
1.28835e+06
1.28732e+06
1.28827e+06
1.28748e+06
1.288e+06
1.28782e+06
1.28774e+06
1.28784e+06
1.28786e+06
1.28778e+06
1.28779e+06
1.28787e+06
1.28781e+06
1.2878e+06
1.28779e+06
1.28783e+06
1.28781e+06
1.28781e+06
1.28779e+06
1.28782e+06
1.2878e+06
1.28781e+06
1.28778e+06
1.28789e+06
1.28759e+06
1.28819e+06
1.2872e+06
1.28864e+06
1.28671e+06
1.28911e+06
1.28631e+06
1.28937e+06
1.28624e+06
1.2892e+06
1.28667e+06
1.2885e+06
1.28761e+06
1.2874e+06
1.28872e+06
1.28636e+06
1.2896e+06
1.28574e+06
1.28985e+06
1.28592e+06
1.2892e+06
1.28701e+06
1.28773e+06
1.28863e+06
1.28626e+06
1.28983e+06
1.28542e+06
1.29012e+06
1.28576e+06
1.28913e+06
1.2873e+06
1.28725e+06
1.28918e+06
1.28567e+06
1.29028e+06
1.28521e+06
1.28995e+06
1.2863e+06
1.28822e+06
1.28839e+06
1.28618e+06
1.29001e+06
1.28514e+06
1.29033e+06
1.28564e+06
1.28903e+06
1.28754e+06
1.28685e+06
1.2896e+06
1.28521e+06
1.29055e+06
1.28517e+06
1.28961e+06
1.28697e+06
1.28721e+06
1.28952e+06
1.28502e+06
1.29086e+06
1.28488e+06
1.28967e+06
1.28719e+06
1.28669e+06
1.29015e+06
1.28447e+06
1.29104e+06
1.28517e+06
1.28883e+06
1.28836e+06
1.28548e+06
1.29099e+06
1.28423e+06
1.29051e+06
1.28636e+06
1.28721e+06
1.28993e+06
1.28436e+06
1.29132e+06
1.28481e+06
1.28905e+06
1.28832e+06
1.28524e+06
1.29131e+06
1.28396e+06
1.29043e+06
1.28681e+06
1.28644e+06
1.29066e+06
1.28389e+06
1.2912e+06
1.28549e+06
1.28789e+06
1.28952e+06
1.28431e+06
1.29156e+06
1.28447e+06
1.28919e+06
1.28837e+06
1.28495e+06
1.29157e+06
1.28386e+06
1.29009e+06
1.28747e+06
1.28552e+06
1.29144e+06
1.28353e+06
1.29067e+06
1.28687e+06
1.28587e+06
1.2914e+06
1.28331e+06
1.29096e+06
1.28663e+06
1.28594e+06
1.29146e+06
1.28316e+06
1.29105e+06
1.28666e+06
1.28572e+06
1.29171e+06
1.283e+06
1.29093e+06
1.28704e+06
1.2852e+06
1.29209e+06
1.28296e+06
1.2905e+06
1.28776e+06
1.28451e+06
1.29236e+06
1.28321e+06
1.28982e+06
1.28846e+06
1.28409e+06
1.29231e+06
1.28362e+06
1.28922e+06
1.289e+06
1.28371e+06
1.29237e+06
1.28395e+06
1.28846e+06
1.28993e+06
1.28299e+06
1.29241e+06
1.28471e+06
1.28714e+06
1.29121e+06
1.28238e+06
1.29192e+06
1.28615e+06
1.28534e+06
1.29239e+06
1.28242e+06
1.29058e+06
1.28814e+06
1.28364e+06
1.29293e+06
1.28331e+06
1.28858e+06
1.29025e+06
1.28241e+06
1.29259e+06
1.28508e+06
1.28613e+06
1.29214e+06
1.28204e+06
1.29111e+06
1.28771e+06
1.28366e+06
1.29309e+06
1.28312e+06
1.28849e+06
1.29049e+06
1.28214e+06
1.29248e+06
1.28556e+06
1.28543e+06
1.2925e+06
1.28225e+06
1.29024e+06
1.28872e+06
1.28296e+06
1.29292e+06
1.28412e+06
1.28695e+06
1.29166e+06
1.28193e+06
1.29133e+06
1.28749e+06
1.28354e+06
1.29316e+06
1.28324e+06
1.28778e+06
1.29133e+06
1.28161e+06
1.2919e+06
1.28706e+06
1.28355e+06
1.29338e+06
1.283e+06
1.28779e+06
1.29143e+06
1.28149e+06
1.2918e+06
1.28729e+06
1.28329e+06
1.29338e+06
1.28328e+06
1.28727e+06
1.29176e+06
1.28156e+06
1.29125e+06
1.2879e+06
1.28294e+06
1.29316e+06
1.28385e+06
1.2866e+06
1.29212e+06
1.28161e+06
1.29067e+06
1.28876e+06
1.28213e+06
1.29327e+06
1.2847e+06
1.28504e+06
1.29331e+06
1.28176e+06
1.28894e+06
1.29092e+06
1.2811e+06
1.29216e+06
1.28722e+06
1.28283e+06
1.29346e+06
1.28376e+06
1.28613e+06
1.29246e+06
1.2818e+06
1.28969e+06
1.28968e+06
1.28192e+06
1.29223e+06
1.28619e+06
1.28396e+06
1.29299e+06
1.28318e+06
1.28709e+06
1.29185e+06
1.28156e+06
1.29026e+06
1.28932e+06
1.28168e+06
1.29253e+06
1.28627e+06
1.28334e+06
1.29335e+06
1.28356e+06
1.28599e+06
1.2926e+06
1.28188e+06
1.28884e+06
1.29061e+06
1.28157e+06
1.29116e+06
1.28796e+06
1.28258e+06
1.29246e+06
1.28532e+06
1.28456e+06
1.29256e+06
1.28323e+06
1.28701e+06
1.29154e+06
1.28205e+06
1.28942e+06
1.28971e+06
1.28192e+06
1.29135e+06
1.28747e+06
1.28274e+06
1.29249e+06
1.28529e+06
1.28423e+06
1.29274e+06
1.28353e+06
1.28608e+06
1.29216e+06
1.28242e+06
1.28798e+06
1.2909e+06
1.28205e+06
1.28967e+06
1.28918e+06
1.28239e+06
1.29095e+06
1.28731e+06
1.28328e+06
1.2917e+06
1.28555e+06
1.28453e+06
1.29192e+06
1.28408e+06
1.28596e+06
1.29165e+06
1.28302e+06
1.2874e+06
1.29095e+06
1.28243e+06
1.2887e+06
1.28996e+06
1.28233e+06
1.28973e+06
1.28881e+06
1.28265e+06
1.29047e+06
1.28759e+06
1.28329e+06
1.29095e+06
1.28638e+06
1.28414e+06
1.29114e+06
1.28531e+06
1.2851e+06
1.29106e+06
1.28446e+06
1.28607e+06
1.29077e+06
1.28382e+06
1.28701e+06
1.29032e+06
1.28339e+06
1.28787e+06
1.28975e+06
1.28317e+06
1.2886e+06
1.28912e+06
1.28317e+06
1.28916e+06
1.28848e+06
1.28333e+06
1.28955e+06
1.28783e+06
1.28364e+06
1.28983e+06
1.28715e+06
1.28408e+06
1.29002e+06
1.28647e+06
1.28457e+06
1.29016e+06
1.28582e+06
1.28501e+06
1.29031e+06
1.28528e+06
1.28533e+06
1.29043e+06
1.28489e+06
1.28557e+06
1.29043e+06
1.2847e+06
1.28578e+06
1.29026e+06
1.28466e+06
1.28603e+06
1.28997e+06
1.28463e+06
1.28637e+06
1.28963e+06
1.28454e+06
1.28679e+06
1.28931e+06
1.28437e+06
1.28717e+06
1.28914e+06
1.28414e+06
1.2874e+06
1.28916e+06
1.28396e+06
1.28745e+06
1.2892e+06
1.28396e+06
1.28737e+06
1.28914e+06
1.28414e+06
1.28725e+06
1.28896e+06
1.28438e+06
1.28724e+06
1.28867e+06
1.28452e+06
1.28743e+06
1.28838e+06
1.28449e+06
1.28767e+06
1.28826e+06
1.28433e+06
1.28777e+06
1.2884e+06
1.28414e+06
1.28763e+06
1.28866e+06
1.28412e+06
1.28734e+06
1.28878e+06
1.28434e+06
1.28704e+06
1.28872e+06
1.28466e+06
1.28684e+06
1.28855e+06
1.28486e+06
1.28685e+06
1.28837e+06
1.28486e+06
1.28697e+06
1.28834e+06
1.28474e+06
1.28691e+06
1.28857e+06
1.28466e+06
1.28658e+06
1.28888e+06
1.2848e+06
1.28612e+06
1.28896e+06
1.2852e+06
1.28576e+06
1.28873e+06
1.28566e+06
1.28565e+06
1.28843e+06
1.28583e+06
1.28574e+06
1.28832e+06
1.28575e+06
1.28573e+06
1.28844e+06
1.28577e+06
1.2854e+06
1.28859e+06
1.28612e+06
1.28492e+06
1.28848e+06
1.28663e+06
1.28471e+06
1.28806e+06
1.28704e+06
1.28481e+06
1.28761e+06
1.28723e+06
1.28494e+06
1.28738e+06
1.2873e+06
1.28495e+06
1.28727e+06
1.28744e+06
1.28489e+06
1.28702e+06
1.28776e+06
1.2849e+06
1.28657e+06
1.28806e+06
1.2851e+06
1.28611e+06
1.28811e+06
1.28549e+06
1.28576e+06
1.28797e+06
1.28586e+06
1.28554e+06
1.28785e+06
1.28607e+06
1.28539e+06
1.28778e+06
1.28628e+06
1.28516e+06
1.28766e+06
1.28671e+06
1.28489e+06
1.28733e+06
1.28718e+06
1.28487e+06
1.28685e+06
1.28745e+06
1.28512e+06
1.2864e+06
1.28754e+06
1.28537e+06
1.28609e+06
1.28757e+06
1.28553e+06
1.28585e+06
1.28761e+06
1.28577e+06
1.28549e+06
1.28759e+06
1.28618e+06
1.28513e+06
1.2874e+06
1.28663e+06
1.28499e+06
1.28698e+06
1.28702e+06
1.28509e+06
1.28649e+06
1.28725e+06
1.28528e+06
1.28615e+06
1.28731e+06
1.28549e+06
1.28585e+06
1.28733e+06
1.28577e+06
1.28549e+06
1.28731e+06
1.28611e+06
1.2852e+06
1.28713e+06
1.28653e+06
1.28505e+06
1.28671e+06
1.28697e+06
1.28513e+06
1.28621e+06
1.28715e+06
1.28541e+06
1.28584e+06
1.28711e+06
1.28572e+06
1.28556e+06
1.28706e+06
1.286e+06
1.28531e+06
1.28694e+06
1.28632e+06
1.28514e+06
1.28663e+06
1.28675e+06
1.2851e+06
1.28614e+06
1.28706e+06
1.28538e+06
1.28564e+06
1.287e+06
1.28585e+06
1.28538e+06
1.28676e+06
1.28614e+06
1.2853e+06
1.28659e+06
1.28633e+06
1.28521e+06
1.28635e+06
1.28668e+06
1.28518e+06
1.28586e+06
1.28698e+06
1.28552e+06
1.28534e+06
1.28682e+06
1.28609e+06
1.28517e+06
1.28638e+06
1.28637e+06
1.28529e+06
1.28614e+06
1.28642e+06
1.28533e+06
1.28592e+06
1.28665e+06
1.2854e+06
1.28544e+06
1.28679e+06
1.28587e+06
1.28506e+06
1.28638e+06
1.2864e+06
1.28516e+06
1.28585e+06
1.2865e+06
1.28545e+06
1.28565e+06
1.2864e+06
1.28559e+06
1.28546e+06
1.28646e+06
1.28582e+06
1.2851e+06
1.2863e+06
1.2863e+06
1.28506e+06
1.2857e+06
1.28656e+06
1.28549e+06
1.28529e+06
1.28631e+06
1.28582e+06
1.2853e+06
1.28608e+06
1.28594e+06
1.28522e+06
1.28597e+06
1.28622e+06
1.28514e+06
1.28554e+06
1.28644e+06
1.28555e+06
1.28507e+06
1.28617e+06
1.28603e+06
1.28511e+06
1.28573e+06
1.2861e+06
1.28535e+06
1.28553e+06
1.2861e+06
1.28541e+06
1.28532e+06
1.28617e+06
1.28567e+06
1.28501e+06
1.28588e+06
1.28615e+06
1.2851e+06
1.28535e+06
1.28616e+06
1.28553e+06
1.28517e+06
1.28586e+06
1.28572e+06
1.28517e+06
1.28576e+06
1.28584e+06
1.2851e+06
1.28548e+06
1.28608e+06
1.28533e+06
1.28503e+06
1.28595e+06
1.28576e+06
1.28501e+06
1.28551e+06
1.28589e+06
1.28524e+06
1.28529e+06
1.28585e+06
1.28536e+06
1.28513e+06
1.28579e+06
1.28563e+06
1.28497e+06
1.28548e+06
1.28589e+06
1.28515e+06
1.28512e+06
1.28578e+06
1.28547e+06
1.28501e+06
1.28557e+06
1.28564e+06
1.28502e+06
1.28533e+06
1.28576e+06
1.28519e+06
1.28501e+06
1.28568e+06
1.28549e+06
1.28494e+06
1.28538e+06
1.28563e+06
1.28508e+06
1.28514e+06
1.28566e+06
1.28522e+06
1.28493e+06
1.28552e+06
1.28553e+06
1.2849e+06
1.28515e+06
1.28563e+06
1.28516e+06
1.28497e+06
1.28544e+06
1.28533e+06
1.28493e+06
1.28531e+06
1.28548e+06
1.28491e+06
1.28502e+06
1.28556e+06
1.28522e+06
1.28478e+06
1.28527e+06
1.28545e+06
1.28494e+06
1.28501e+06
1.28537e+06
1.28509e+06
1.28491e+06
1.28534e+06
1.2852e+06
1.28477e+06
1.28513e+06
1.28545e+06
1.28493e+06
1.28475e+06
1.28531e+06
1.28525e+06
1.28481e+06
1.285e+06
1.28524e+06
1.28492e+06
1.28492e+06
1.28526e+06
1.28497e+06
1.28472e+06
1.28515e+06
1.28528e+06
1.28473e+06
1.28476e+06
1.28526e+06
1.28506e+06
1.28471e+06
1.28496e+06
1.28512e+06
1.28479e+06
1.28489e+06
1.28512e+06
1.28482e+06
1.28468e+06
1.28511e+06
1.2851e+06
1.28459e+06
1.28475e+06
1.28517e+06
1.28492e+06
1.2846e+06
1.28489e+06
1.28499e+06
1.28471e+06
1.28483e+06
1.28498e+06
1.2847e+06
1.28462e+06
1.28504e+06
1.28495e+06
1.2845e+06
1.28467e+06
1.28505e+06
1.28481e+06
1.28453e+06
1.28479e+06
1.28485e+06
1.28463e+06
1.28473e+06
1.28488e+06
1.2846e+06
1.28452e+06
1.2849e+06
1.28484e+06
1.28446e+06
1.28456e+06
1.2849e+06
1.28469e+06
1.28447e+06
1.2847e+06
1.28476e+06
1.28452e+06
1.28458e+06
1.28478e+06
1.28455e+06
1.28444e+06
1.28472e+06
1.28473e+06
1.28439e+06
1.28447e+06
1.28478e+06
1.2846e+06
1.28436e+06
1.28455e+06
1.28469e+06
1.28445e+06
1.28445e+06
1.28463e+06
1.28449e+06
1.28435e+06
1.28457e+06
1.28465e+06
1.28432e+06
1.28433e+06
1.28462e+06
1.28456e+06
1.28427e+06
1.28438e+06
1.28457e+06
1.2844e+06
1.28434e+06
1.28448e+06
1.28443e+06
1.28423e+06
1.28441e+06
1.28457e+06
1.2843e+06
1.28416e+06
1.28442e+06
1.28451e+06
1.28424e+06
1.28424e+06
1.2844e+06
1.28432e+06
1.28421e+06
1.28436e+06
1.28438e+06
1.28415e+06
1.2842e+06
1.28442e+06
1.28431e+06
1.28407e+06
1.28422e+06
1.28439e+06
1.28422e+06
1.2841e+06
1.28424e+06
1.28426e+06
1.28411e+06
1.28421e+06
1.2843e+06
1.28411e+06
1.284e+06
1.28423e+06
1.2843e+06
1.28406e+06
1.28401e+06
1.28418e+06
1.28417e+06
1.28403e+06
1.28412e+06
1.28417e+06
1.284e+06
1.28398e+06
1.28417e+06
1.28415e+06
1.28393e+06
1.28398e+06
1.28413e+06
1.28406e+06
1.28392e+06
1.28404e+06
1.28408e+06
1.28392e+06
1.28392e+06
1.28407e+06
1.28403e+06
1.28385e+06
1.28393e+06
1.28403e+06
1.28393e+06
1.28384e+06
1.28397e+06
1.28398e+06
1.28381e+06
1.28383e+06
1.28399e+06
1.28393e+06
1.28376e+06
1.28384e+06
1.28392e+06
1.28384e+06
1.28378e+06
1.28389e+06
1.28386e+06
1.2837e+06
1.28377e+06
1.28392e+06
1.28383e+06
1.28365e+06
1.28373e+06
1.28384e+06
1.28377e+06
1.28371e+06
1.28376e+06
1.28373e+06
1.28362e+06
1.28372e+06
1.28383e+06
1.28371e+06
1.28354e+06
1.28364e+06
1.28378e+06
1.2837e+06
1.2836e+06
1.28363e+06
1.28364e+06
1.28357e+06
1.28365e+06
1.28371e+06
1.28358e+06
1.28345e+06
1.28358e+06
1.28371e+06
1.2836e+06
1.28346e+06
1.2835e+06
1.28357e+06
1.28353e+06
1.28355e+06
1.28357e+06
1.28346e+06
1.28338e+06
1.28351e+06
1.28363e+06
1.28348e+06
1.28334e+06
1.2834e+06
1.28352e+06
1.28347e+06
1.28343e+06
1.28343e+06
1.28337e+06
1.28332e+06
1.28343e+06
1.28352e+06
1.28337e+06
1.28323e+06
1.28331e+06
1.28345e+06
1.28339e+06
1.2833e+06
1.28329e+06
1.28328e+06
1.28326e+06
1.28333e+06
1.2834e+06
1.28326e+06
1.28313e+06
1.2832e+06
1.28336e+06
1.28332e+06
1.28319e+06
1.28317e+06
1.28319e+06
1.28319e+06
1.28322e+06
1.28328e+06
1.28318e+06
1.28305e+06
1.2831e+06
1.28325e+06
1.28322e+06
1.28309e+06
1.28306e+06
1.28311e+06
1.28312e+06
1.2831e+06
1.28314e+06
1.28309e+06
1.28299e+06
1.283e+06
1.28312e+06
1.28312e+06
1.28299e+06
1.28295e+06
1.28302e+06
1.28304e+06
1.28299e+06
1.283e+06
1.28299e+06
1.28292e+06
1.2829e+06
1.28299e+06
1.28302e+06
1.28291e+06
1.28284e+06
1.2829e+06
1.28295e+06
1.2829e+06
1.28288e+06
1.28289e+06
1.28285e+06
1.2828e+06
1.28286e+06
1.28291e+06
1.28284e+06
1.28275e+06
1.28278e+06
1.28285e+06
1.28281e+06
1.28277e+06
1.28278e+06
1.28277e+06
1.28272e+06
1.28272e+06
1.28278e+06
1.28276e+06
1.28268e+06
1.28266e+06
1.28272e+06
1.28271e+06
1.28266e+06
1.28266e+06
1.28269e+06
1.28264e+06
1.28259e+06
1.28263e+06
1.28266e+06
1.28262e+06
1.28257e+06
1.2826e+06
1.2826e+06
1.28255e+06
1.28253e+06
1.28259e+06
1.28259e+06
1.28251e+06
1.28248e+06
1.28251e+06
1.28253e+06
1.28249e+06
1.28251e+06
1.2825e+06
1.28244e+06
1.28238e+06
1.28243e+06
1.28251e+06
1.28248e+06
1.2824e+06
1.28236e+06
1.28237e+06
1.28236e+06
1.2824e+06
1.28244e+06
1.2824e+06
1.28229e+06
1.28224e+06
1.28233e+06
1.28239e+06
1.28236e+06
1.28229e+06
1.28226e+06
1.28222e+06
1.28223e+06
1.28229e+06
1.28234e+06
1.28227e+06
1.28215e+06
1.28214e+06
1.28221e+06
1.28226e+06
1.28223e+06
1.2822e+06
1.28214e+06
1.28209e+06
1.2821e+06
1.28219e+06
1.28222e+06
1.28213e+06
1.28204e+06
1.28203e+06
1.28209e+06
1.28211e+06
1.28212e+06
1.28209e+06
1.28203e+06
1.28196e+06
1.28198e+06
1.28207e+06
1.28208e+06
1.28201e+06
1.28193e+06
1.28194e+06
1.28195e+06
1.28197e+06
1.28199e+06
1.28199e+06
1.28191e+06
1.28184e+06
1.28186e+06
1.28193e+06
1.28195e+06
1.28188e+06
1.28184e+06
1.28181e+06
1.28181e+06
1.28183e+06
1.28187e+06
1.28187e+06
1.28179e+06
1.28172e+06
1.28173e+06
1.28179e+06
1.2818e+06
1.28178e+06
1.28175e+06
1.28171e+06
1.28166e+06
1.28167e+06
1.28173e+06
1.28175e+06
1.28169e+06
1.28163e+06
1.28162e+06
1.28163e+06
1.28163e+06
1.28164e+06
1.28165e+06
1.28161e+06
1.28155e+06
1.28153e+06
1.28157e+06
1.28159e+06
1.28156e+06
1.28154e+06
1.28152e+06
1.28151e+06
1.28148e+06
1.28149e+06
1.28151e+06
1.2815e+06
1.28145e+06
1.28142e+06
1.28144e+06
1.28143e+06
1.28142e+06
1.28141e+06
1.28142e+06
1.28139e+06
1.28135e+06
1.28134e+06
1.28136e+06
1.28136e+06
1.28133e+06
1.28133e+06
1.28132e+06
1.28129e+06
1.28125e+06
1.28127e+06
1.28129e+06
1.28128e+06
1.28125e+06
1.28123e+06
1.28122e+06
1.28119e+06
1.28118e+06
1.2812e+06
1.28122e+06
1.28119e+06
1.28114e+06
1.28111e+06
1.28112e+06
1.28111e+06
1.28112e+06
1.28113e+06
1.28113e+06
1.28108e+06
1.28103e+06
1.28103e+06
1.28105e+06
1.28106e+06
1.28104e+06
1.28103e+06
1.281e+06
1.28096e+06
1.28094e+06
1.28096e+06
1.28099e+06
1.28098e+06
1.28094e+06
1.2809e+06
1.28089e+06
1.28087e+06
1.28088e+06
1.28089e+06
1.2809e+06
1.28087e+06
1.28082e+06
1.28081e+06
1.28082e+06
1.28082e+06
1.28081e+06
1.2808e+06
1.28079e+06
1.28076e+06
1.28073e+06
1.28074e+06
1.28075e+06
1.28074e+06
1.28071e+06
1.28068e+06
1.28068e+06