/*--------------------------------*- C++ -*----------------------------------*\
  =========                 |
  \\      /  F ield         | OpenFOAM: The Open Source CFD Toolbox
   \\    /   O peration     | Website:  https://openfoam.org
    \\  /    A nd           | Version:  9
     \\/     M anipulation  |
\*---------------------------------------------------------------------------*/
FoamFile
{
    format      ascii;
    class       volVectorField;
    location    "0.024";
    object      ddt0(rho,U);
}
// * * * * * * * * * * * * * * * * * * * * * * * * * * * * * * * * * * * * * //

dimensions      [1 -2 -2 0 0 0 0];

internalField   nonuniform List<vector> 
10000
(
(37.3969 0 0)
(33.0251 0 0)
(30.5712 0 0)
(28.3132 0 0)
(25.7737 0 0)
(23.13 0 0)
(20.4963 0 0)
(17.8823 0 0)
(15.2752 0 0)
(12.6751 0 0)
(10.0829 0 0)
(7.49135 0 0)
(4.891 0 0)
(2.27869 0 0)
(-0.341089 0 0)
(-2.95874 0 0)
(-5.56587 0 0)
(-8.15979 0 0)
(-10.743 0 0)
(-13.3225 0 0)
(-15.9063 0 0)
(-18.5007 0 0)
(-21.1089 0 0)
(-23.7307 0 0)
(-26.3643 0 0)
(-29.0056 0 0)
(-31.6499 0 0)
(-34.294 0 0)
(-36.9346 0 0)
(-39.5697 0 0)
(-42.1982 0 0)
(-44.82 0 0)
(-47.4357 0 0)
(-50.0468 0 0)
(-52.6553 0 0)
(-55.265 0 0)
(-57.8751 0 0)
(-60.5084 0 0)
(-63.1163 0 0)
(-65.7101 0 0)
(-68.3196 0 0)
(-70.9262 0 0)
(-73.5317 0 0)
(-76.1373 0 0)
(-78.7434 0 0)
(-81.3493 0 0)
(-83.9551 0 0)
(-86.561 0 0)
(-89.1672 0 0)
(-91.7732 0 0)
(-94.3791 0 0)
(-96.985 0 0)
(-99.591 0 0)
(-102.197 0 0)
(-104.803 0 0)
(-107.409 0 0)
(-110.015 0 0)
(-112.621 0 0)
(-115.227 0 0)
(-117.833 0 0)
(-120.439 0 0)
(-123.046 0 0)
(-125.652 0 0)
(-128.257 0 0)
(-130.863 0 0)
(-133.469 0 0)
(-136.075 0 0)
(-138.681 0 0)
(-141.288 0 0)
(-143.894 0 0)
(-146.5 0 0)
(-149.107 0 0)
(-151.713 0 0)
(-154.318 0 0)
(-156.924 0 0)
(-159.53 0 0)
(-162.136 0 0)
(-164.742 0 0)
(-167.347 0 0)
(-169.953 0 0)
(-172.56 0 0)
(-175.166 0 0)
(-177.771 0 0)
(-180.377 0 0)
(-182.983 0 0)
(-185.59 0 0)
(-188.196 0 0)
(-190.802 0 0)
(-193.407 0 0)
(-196.012 0 0)
(-198.618 0 0)
(-201.223 0 0)
(-203.829 0 0)
(-206.435 0 0)
(-209.041 0 0)
(-211.648 0 0)
(-214.254 0 0)
(-216.86 0 0)
(-219.466 0 0)
(-222.072 0 0)
(-224.678 0 0)
(-227.284 0 0)
(-229.89 0 0)
(-232.496 0 0)
(-235.102 0 0)
(-237.707 0 0)
(-240.313 0 0)
(-242.919 0 0)
(-245.525 0 0)
(-248.131 0 0)
(-250.737 0 0)
(-253.343 0 0)
(-255.949 0 0)
(-258.555 0 0)
(-261.16 0 0)
(-263.766 0 0)
(-266.372 0 0)
(-268.978 0 0)
(-271.584 0 0)
(-274.19 0 0)
(-276.795 0 0)
(-279.401 0 0)
(-282.007 0 0)
(-284.613 0 0)
(-287.219 0 0)
(-289.825 0 0)
(-292.431 0 0)
(-295.037 0 0)
(-297.643 0 0)
(-300.249 0 0)
(-302.855 0 0)
(-305.461 0 0)
(-308.067 0 0)
(-310.672 0 0)
(-313.278 0 0)
(-315.883 0 0)
(-318.489 0 0)
(-321.095 0 0)
(-323.7 0 0)
(-326.307 0 0)
(-328.912 0 0)
(-331.518 0 0)
(-334.124 0 0)
(-336.729 0 0)
(-339.334 0 0)
(-341.939 0 0)
(-344.545 0 0)
(-347.151 0 0)
(-349.756 0 0)
(-352.362 0 0)
(-354.968 0 0)
(-357.574 0 0)
(-360.18 0 0)
(-362.786 0 0)
(-365.391 0 0)
(-367.997 0 0)
(-370.603 0 0)
(-373.208 0 0)
(-375.814 0 0)
(-378.42 0 0)
(-381.025 0 0)
(-383.631 0 0)
(-386.237 0 0)
(-388.842 0 0)
(-391.448 0 0)
(-394.054 0 0)
(-396.659 0 0)
(-399.265 0 0)
(-401.87 0 0)
(-404.476 0 0)
(-407.082 0 0)
(-409.687 0 0)
(-412.293 0 0)
(-414.898 0 0)
(-417.504 0 0)
(-420.109 0 0)
(-422.715 0 0)
(-425.32 0 0)
(-427.926 0 0)
(-430.531 0 0)
(-433.137 0 0)
(-435.742 0 0)
(-438.348 0 0)
(-440.953 0 0)
(-443.559 0 0)
(-446.165 0 0)
(-448.77 0 0)
(-451.376 0 0)
(-453.982 0 0)
(-456.587 0 0)
(-459.193 0 0)
(-461.798 0 0)
(-464.403 0 0)
(-467.009 0 0)
(-469.614 0 0)
(-472.22 0 0)
(-474.825 0 0)
(-477.43 0 0)
(-480.036 0 0)
(-482.641 0 0)
(-485.246 0 0)
(-487.851 0 0)
(-490.456 0 0)
(-493.061 0 0)
(-495.666 0 0)
(-498.271 0 0)
(-500.877 0 0)
(-503.482 0 0)
(-506.088 0 0)
(-508.693 0 0)
(-511.298 0 0)
(-513.904 0 0)
(-516.509 0 0)
(-519.114 0 0)
(-521.72 0 0)
(-524.325 0 0)
(-526.93 0 0)
(-529.535 0 0)
(-532.141 0 0)
(-534.746 0 0)
(-537.351 0 0)
(-539.956 0 0)
(-542.561 0 0)
(-545.167 0 0)
(-547.772 0 0)
(-550.377 0 0)
(-552.982 0 0)
(-555.587 0 0)
(-558.192 0 0)
(-560.797 0 0)
(-563.403 0 0)
(-566.008 0 0)
(-568.613 0 0)
(-571.218 0 0)
(-573.823 0 0)
(-576.428 0 0)
(-579.033 0 0)
(-581.638 0 0)
(-584.243 0 0)
(-586.848 0 0)
(-589.453 0 0)
(-592.058 0 0)
(-594.663 0 0)
(-597.268 0 0)
(-599.873 0 0)
(-602.478 0 0)
(-605.083 0 0)
(-607.688 0 0)
(-610.293 0 0)
(-612.898 0 0)
(-615.503 0 0)
(-618.108 0 0)
(-620.713 0 0)
(-623.318 0 0)
(-625.923 0 0)
(-628.528 0 0)
(-631.133 0 0)
(-633.737 0 0)
(-636.342 0 0)
(-638.946 0 0)
(-641.551 0 0)
(-644.155 0 0)
(-646.76 0 0)
(-649.365 0 0)
(-651.969 0 0)
(-654.574 0 0)
(-657.179 0 0)
(-659.784 0 0)
(-662.388 0 0)
(-664.993 0 0)
(-667.598 0 0)
(-670.203 0 0)
(-672.807 0 0)
(-675.412 0 0)
(-678.017 0 0)
(-680.621 0 0)
(-683.226 0 0)
(-685.831 0 0)
(-688.435 0 0)
(-691.04 0 0)
(-693.644 0 0)
(-696.249 0 0)
(-698.854 0 0)
(-701.458 0 0)
(-704.063 0 0)
(-706.667 0 0)
(-709.272 0 0)
(-711.876 0 0)
(-714.481 0 0)
(-717.085 0 0)
(-719.69 0 0)
(-722.294 0 0)
(-724.898 0 0)
(-727.503 0 0)
(-730.107 0 0)
(-732.712 0 0)
(-735.316 0 0)
(-737.92 0 0)
(-740.525 0 0)
(-743.129 0 0)
(-745.733 0 0)
(-748.338 0 0)
(-750.942 0 0)
(-753.546 0 0)
(-756.15 0 0)
(-758.755 0 0)
(-761.359 0 0)
(-763.963 0 0)
(-766.567 0 0)
(-769.172 0 0)
(-771.776 0 0)
(-774.38 0 0)
(-776.985 0 0)
(-779.589 0 0)
(-782.193 0 0)
(-784.798 0 0)
(-787.402 0 0)
(-790.006 0 0)
(-792.61 0 0)
(-795.214 0 0)
(-797.817 0 0)
(-800.421 0 0)
(-803.025 0 0)
(-805.629 0 0)
(-808.233 0 0)
(-810.837 0 0)
(-813.441 0 0)
(-816.045 0 0)
(-818.649 0 0)
(-821.253 0 0)
(-823.857 0 0)
(-826.461 0 0)
(-829.065 0 0)
(-831.669 0 0)
(-834.272 0 0)
(-836.876 0 0)
(-839.48 0 0)
(-842.084 0 0)
(-844.688 0 0)
(-847.292 0 0)
(-849.896 0 0)
(-852.499 0 0)
(-855.103 0 0)
(-857.707 0 0)
(-860.311 0 0)
(-862.914 0 0)
(-865.518 0 0)
(-868.122 0 0)
(-870.725 0 0)
(-873.329 0 0)
(-875.933 0 0)
(-878.536 0 0)
(-881.14 0 0)
(-883.743 0 0)
(-886.347 0 0)
(-888.951 0 0)
(-891.554 0 0)
(-894.158 0 0)
(-896.761 0 0)
(-899.365 0 0)
(-901.968 0 0)
(-904.572 0 0)
(-907.175 0 0)
(-909.779 0 0)
(-912.382 0 0)
(-914.985 0 0)
(-917.589 0 0)
(-920.192 0 0)
(-922.795 0 0)
(-925.399 0 0)
(-928.002 0 0)
(-930.605 0 0)
(-933.209 0 0)
(-935.812 0 0)
(-938.416 0 0)
(-941.019 0 0)
(-943.622 0 0)
(-946.226 0 0)
(-948.829 0 0)
(-951.432 0 0)
(-954.035 0 0)
(-956.638 0 0)
(-959.241 0 0)
(-961.844 0 0)
(-964.447 0 0)
(-967.05 0 0)
(-969.653 0 0)
(-972.256 0 0)
(-974.859 0 0)
(-977.462 0 0)
(-980.065 0 0)
(-982.668 0 0)
(-985.271 0 0)
(-987.874 0 0)
(-990.477 0 0)
(-993.08 0 0)
(-995.683 0 0)
(-998.286 0 0)
(-1000.89 0 0)
(-1003.49 0 0)
(-1006.09 0 0)
(-1008.7 0 0)
(-1011.3 0 0)
(-1013.9 0 0)
(-1016.51 0 0)
(-1019.11 0 0)
(-1021.71 0 0)
(-1024.31 0 0)
(-1026.92 0 0)
(-1029.52 0 0)
(-1032.12 0 0)
(-1034.73 0 0)
(-1037.33 0 0)
(-1039.93 0 0)
(-1042.53 0 0)
(-1045.14 0 0)
(-1047.74 0 0)
(-1050.34 0 0)
(-1052.94 0 0)
(-1055.55 0 0)
(-1058.15 0 0)
(-1060.75 0 0)
(-1063.35 0 0)
(-1065.96 0 0)
(-1068.56 0 0)
(-1071.16 0 0)
(-1073.76 0 0)
(-1076.37 0 0)
(-1078.97 0 0)
(-1081.57 0 0)
(-1084.17 0 0)
(-1086.77 0 0)
(-1089.38 0 0)
(-1091.98 0 0)
(-1094.58 0 0)
(-1097.18 0 0)
(-1099.79 0 0)
(-1102.39 0 0)
(-1104.99 0 0)
(-1107.59 0 0)
(-1110.19 0 0)
(-1112.8 0 0)
(-1115.4 0 0)
(-1118 0 0)
(-1120.6 0 0)
(-1123.2 0 0)
(-1125.81 0 0)
(-1128.41 0 0)
(-1131.01 0 0)
(-1133.61 0 0)
(-1136.21 0 0)
(-1138.82 0 0)
(-1141.42 0 0)
(-1144.02 0 0)
(-1146.62 0 0)
(-1149.22 0 0)
(-1151.83 0 0)
(-1154.43 0 0)
(-1157.03 0 0)
(-1159.63 0 0)
(-1162.23 0 0)
(-1164.83 0 0)
(-1167.44 0 0)
(-1170.04 0 0)
(-1172.64 0 0)
(-1175.24 0 0)
(-1177.84 0 0)
(-1180.44 0 0)
(-1183.04 0 0)
(-1185.65 0 0)
(-1188.25 0 0)
(-1190.85 0 0)
(-1193.45 0 0)
(-1196.05 0 0)
(-1198.65 0 0)
(-1201.25 0 0)
(-1203.85 0 0)
(-1206.46 0 0)
(-1209.06 0 0)
(-1211.66 0 0)
(-1214.26 0 0)
(-1216.86 0 0)
(-1219.46 0 0)
(-1222.06 0 0)
(-1224.66 0 0)
(-1227.26 0 0)
(-1229.86 0 0)
(-1232.46 0 0)
(-1235.07 0 0)
(-1237.67 0 0)
(-1240.27 0 0)
(-1242.87 0 0)
(-1245.47 0 0)
(-1248.07 0 0)
(-1250.67 0 0)
(-1253.27 0 0)
(-1255.87 0 0)
(-1258.47 0 0)
(-1261.07 0 0)
(-1263.67 0 0)
(-1266.27 0 0)
(-1268.87 0 0)
(-1271.47 0 0)
(-1274.07 0 0)
(-1276.67 0 0)
(-1279.27 0 0)
(-1281.87 0 0)
(-1284.47 0 0)
(-1287.07 0 0)
(-1289.67 0 0)
(-1292.27 0 0)
(-1294.87 0 0)
(-1297.47 0 0)
(-1300.07 0 0)
(-1302.67 0 0)
(-1305.27 0 0)
(-1307.87 0 0)
(-1310.47 0 0)
(-1313.07 0 0)
(-1315.67 0 0)
(-1318.28 0 0)
(-1320.88 0 0)
(-1323.48 0 0)
(-1326.08 0 0)
(-1328.68 0 0)
(-1331.28 0 0)
(-1333.88 0 0)
(-1336.48 0 0)
(-1339.08 0 0)
(-1341.68 0 0)
(-1344.28 0 0)
(-1346.88 0 0)
(-1349.48 0 0)
(-1352.09 0 0)
(-1354.69 0 0)
(-1357.29 0 0)
(-1359.89 0 0)
(-1362.49 0 0)
(-1365.09 0 0)
(-1367.69 0 0)
(-1370.29 0 0)
(-1372.89 0 0)
(-1375.5 0 0)
(-1378.1 0 0)
(-1380.7 0 0)
(-1383.3 0 0)
(-1385.9 0 0)
(-1388.5 0 0)
(-1391.1 0 0)
(-1393.7 0 0)
(-1396.3 0 0)
(-1398.91 0 0)
(-1401.51 0 0)
(-1404.11 0 0)
(-1406.71 0 0)
(-1409.31 0 0)
(-1411.91 0 0)
(-1414.51 0 0)
(-1417.11 0 0)
(-1419.71 0 0)
(-1422.31 0 0)
(-1424.91 0 0)
(-1427.51 0 0)
(-1430.11 0 0)
(-1432.7 0 0)
(-1435.3 0 0)
(-1437.9 0 0)
(-1440.5 0 0)
(-1443.1 0 0)
(-1445.7 0 0)
(-1448.3 0 0)
(-1450.89 0 0)
(-1453.49 0 0)
(-1456.09 0 0)
(-1458.69 0 0)
(-1461.28 0 0)
(-1463.88 0 0)
(-1466.48 0 0)
(-1469.08 0 0)
(-1471.67 0 0)
(-1474.27 0 0)
(-1476.87 0 0)
(-1479.46 0 0)
(-1482.06 0 0)
(-1484.66 0 0)
(-1487.25 0 0)
(-1489.85 0 0)
(-1492.45 0 0)
(-1495.05 0 0)
(-1497.64 0 0)
(-1500.24 0 0)
(-1502.83 0 0)
(-1505.43 0 0)
(-1508.03 0 0)
(-1510.62 0 0)
(-1513.22 0 0)
(-1515.82 0 0)
(-1518.41 0 0)
(-1521.01 0 0)
(-1523.61 0 0)
(-1526.2 0 0)
(-1528.8 0 0)
(-1531.4 0 0)
(-1533.99 0 0)
(-1536.59 0 0)
(-1539.19 0 0)
(-1541.78 0 0)
(-1544.38 0 0)
(-1546.98 0 0)
(-1549.57 0 0)
(-1552.17 0 0)
(-1554.77 0 0)
(-1557.37 0 0)
(-1559.96 0 0)
(-1562.56 0 0)
(-1565.16 0 0)
(-1567.75 0 0)
(-1570.35 0 0)
(-1572.95 0 0)
(-1575.54 0 0)
(-1578.14 0 0)
(-1580.74 0 0)
(-1583.33 0 0)
(-1585.93 0 0)
(-1588.53 0 0)
(-1591.12 0 0)
(-1593.72 0 0)
(-1596.31 0 0)
(-1598.91 0 0)
(-1601.51 0 0)
(-1604.1 0 0)
(-1606.7 0 0)
(-1609.3 0 0)
(-1611.89 0 0)
(-1614.49 0 0)
(-1617.09 0 0)
(-1619.68 0 0)
(-1622.28 0 0)
(-1624.87 0 0)
(-1627.47 0 0)
(-1630.07 0 0)
(-1632.66 0 0)
(-1635.26 0 0)
(-1637.85 0 0)
(-1640.45 0 0)
(-1643.04 0 0)
(-1645.64 0 0)
(-1648.24 0 0)
(-1650.83 0 0)
(-1653.43 0 0)
(-1656.02 0 0)
(-1658.62 0 0)
(-1661.21 0 0)
(-1663.81 0 0)
(-1666.4 0 0)
(-1669 0 0)
(-1671.59 0 0)
(-1674.19 0 0)
(-1676.79 0 0)
(-1679.38 0 0)
(-1681.98 0 0)
(-1684.57 0 0)
(-1687.17 0 0)
(-1689.76 0 0)
(-1692.36 0 0)
(-1694.95 0 0)
(-1697.55 0 0)
(-1700.14 0 0)
(-1702.74 0 0)
(-1705.33 0 0)
(-1707.92 0 0)
(-1710.52 0 0)
(-1713.11 0 0)
(-1715.71 0 0)
(-1718.3 0 0)
(-1720.9 0 0)
(-1723.49 0 0)
(-1726.09 0 0)
(-1728.68 0 0)
(-1731.28 0 0)
(-1733.87 0 0)
(-1736.46 0 0)
(-1739.06 0 0)
(-1741.65 0 0)
(-1744.25 0 0)
(-1746.84 0 0)
(-1749.43 0 0)
(-1752.03 0 0)
(-1754.62 0 0)
(-1757.22 0 0)
(-1759.81 0 0)
(-1762.4 0 0)
(-1765 0 0)
(-1767.59 0 0)
(-1770.19 0 0)
(-1772.78 0 0)
(-1775.37 0 0)
(-1777.97 0 0)
(-1780.56 0 0)
(-1783.15 0 0)
(-1785.75 0 0)
(-1788.34 0 0)
(-1790.93 0 0)
(-1793.53 0 0)
(-1796.12 0 0)
(-1798.71 0 0)
(-1801.31 0 0)
(-1803.9 0 0)
(-1806.49 0 0)
(-1809.09 0 0)
(-1811.68 0 0)
(-1814.27 0 0)
(-1816.86 0 0)
(-1819.46 0 0)
(-1822.05 0 0)
(-1824.64 0 0)
(-1827.24 0 0)
(-1829.83 0 0)
(-1832.42 0 0)
(-1835.01 0 0)
(-1837.61 0 0)
(-1840.2 0 0)
(-1842.79 0 0)
(-1845.38 0 0)
(-1847.98 0 0)
(-1850.57 0 0)
(-1853.16 0 0)
(-1855.75 0 0)
(-1858.34 0 0)
(-1860.94 0 0)
(-1863.53 0 0)
(-1866.12 0 0)
(-1868.71 0 0)
(-1871.3 0 0)
(-1873.9 0 0)
(-1876.49 0 0)
(-1879.08 0 0)
(-1881.67 0 0)
(-1884.26 0 0)
(-1886.86 0 0)
(-1889.45 0 0)
(-1892.04 0 0)
(-1894.63 0 0)
(-1897.22 0 0)
(-1899.81 0 0)
(-1902.4 0 0)
(-1905 0 0)
(-1907.59 0 0)
(-1910.18 0 0)
(-1912.77 0 0)
(-1915.36 0 0)
(-1917.95 0 0)
(-1920.54 0 0)
(-1923.13 0 0)
(-1925.73 0 0)
(-1928.32 0 0)
(-1930.91 0 0)
(-1933.5 0 0)
(-1936.09 0 0)
(-1938.68 0 0)
(-1941.27 0 0)
(-1943.86 0 0)
(-1946.45 0 0)
(-1949.04 0 0)
(-1951.63 0 0)
(-1954.22 0 0)
(-1956.81 0 0)
(-1959.4 0 0)
(-1961.99 0 0)
(-1964.58 0 0)
(-1967.17 0 0)
(-1969.76 0 0)
(-1972.35 0 0)
(-1974.94 0 0)
(-1977.53 0 0)
(-1980.12 0 0)
(-1982.71 0 0)
(-1985.3 0 0)
(-1987.89 0 0)
(-1990.48 0 0)
(-1993.07 0 0)
(-1995.66 0 0)
(-1998.25 0 0)
(-2000.84 0 0)
(-2003.43 0 0)
(-2006.02 0 0)
(-2008.61 0 0)
(-2011.2 0 0)
(-2013.79 0 0)
(-2016.38 0 0)
(-2018.97 0 0)
(-2021.56 0 0)
(-2024.15 0 0)
(-2026.74 0 0)
(-2029.32 0 0)
(-2031.91 0 0)
(-2034.5 0 0)
(-2037.09 0 0)
(-2039.68 0 0)
(-2042.27 0 0)
(-2044.86 0 0)
(-2047.45 0 0)
(-2050.03 0 0)
(-2052.62 0 0)
(-2055.21 0 0)
(-2057.8 0 0)
(-2060.39 0 0)
(-2062.98 0 0)
(-2065.57 0 0)
(-2068.15 0 0)
(-2070.74 0 0)
(-2073.33 0 0)
(-2075.92 0 0)
(-2078.51 0 0)
(-2081.09 0 0)
(-2083.68 0 0)
(-2086.27 0 0)
(-2088.86 0 0)
(-2091.45 0 0)
(-2094.03 0 0)
(-2096.62 0 0)
(-2099.21 0 0)
(-2101.8 0 0)
(-2104.38 0 0)
(-2106.97 0 0)
(-2109.56 0 0)
(-2112.15 0 0)
(-2114.73 0 0)
(-2117.32 0 0)
(-2119.91 0 0)
(-2122.5 0 0)
(-2125.08 0 0)
(-2127.67 0 0)
(-2130.26 0 0)
(-2132.84 0 0)
(-2135.43 0 0)
(-2138.02 0 0)
(-2140.61 0 0)
(-2143.19 0 0)
(-2145.78 0 0)
(-2148.37 0 0)
(-2150.95 0 0)
(-2153.54 0 0)
(-2156.13 0 0)
(-2158.71 0 0)
(-2161.3 0 0)
(-2163.88 0 0)
(-2166.47 0 0)
(-2169.06 0 0)
(-2171.64 0 0)
(-2174.23 0 0)
(-2176.82 0 0)
(-2179.4 0 0)
(-2181.99 0 0)
(-2184.57 0 0)
(-2187.16 0 0)
(-2189.75 0 0)
(-2192.33 0 0)
(-2194.92 0 0)
(-2197.5 0 0)
(-2200.09 0 0)
(-2202.67 0 0)
(-2205.26 0 0)
(-2207.84 0 0)
(-2210.43 0 0)
(-2213.02 0 0)
(-2215.6 0 0)
(-2218.19 0 0)
(-2220.77 0 0)
(-2223.36 0 0)
(-2225.94 0 0)
(-2228.53 0 0)
(-2231.11 0 0)
(-2233.7 0 0)
(-2236.28 0 0)
(-2238.87 0 0)
(-2241.45 0 0)
(-2244.03 0 0)
(-2246.62 0 0)
(-2249.2 0 0)
(-2251.79 0 0)
(-2254.37 0 0)
(-2256.96 0 0)
(-2259.54 0 0)
(-2262.13 0 0)
(-2264.71 0 0)
(-2267.29 0 0)
(-2269.88 0 0)
(-2272.46 0 0)
(-2275.05 0 0)
(-2277.63 0 0)
(-2280.21 0 0)
(-2282.8 0 0)
(-2285.38 0 0)
(-2287.97 0 0)
(-2290.55 0 0)
(-2293.13 0 0)
(-2295.72 0 0)
(-2298.3 0 0)
(-2300.88 0 0)
(-2303.47 0 0)
(-2306.05 0 0)
(-2308.63 0 0)
(-2311.22 0 0)
(-2313.8 0 0)
(-2316.38 0 0)
(-2318.97 0 0)
(-2321.55 0 0)
(-2324.13 0 0)
(-2326.71 0 0)
(-2329.3 0 0)
(-2331.88 0 0)
(-2334.46 0 0)
(-2337.05 0 0)
(-2339.63 0 0)
(-2342.21 0 0)
(-2344.79 0 0)
(-2347.38 0 0)
(-2349.96 0 0)
(-2352.54 0 0)
(-2355.12 0 0)
(-2357.7 0 0)
(-2360.29 0 0)
(-2362.87 0 0)
(-2365.45 0 0)
(-2368.03 0 0)
(-2370.61 0 0)
(-2373.2 0 0)
(-2375.78 0 0)
(-2378.36 0 0)
(-2380.94 0 0)
(-2383.52 0 0)
(-2386.1 0 0)
(-2388.69 0 0)
(-2391.27 0 0)
(-2393.85 0 0)
(-2396.43 0 0)
(-2399.01 0 0)
(-2401.59 0 0)
(-2404.17 0 0)
(-2406.75 0 0)
(-2409.34 0 0)
(-2411.92 0 0)
(-2414.5 0 0)
(-2417.08 0 0)
(-2419.66 0 0)
(-2422.24 0 0)
(-2424.82 0 0)
(-2427.4 0 0)
(-2429.98 0 0)
(-2432.56 0 0)
(-2435.14 0 0)
(-2437.72 0 0)
(-2440.3 0 0)
(-2442.88 0 0)
(-2445.46 0 0)
(-2448.04 0 0)
(-2450.62 0 0)
(-2453.2 0 0)
(-2455.78 0 0)
(-2458.36 0 0)
(-2460.94 0 0)
(-2463.52 0 0)
(-2466.1 0 0)
(-2468.68 0 0)
(-2471.26 0 0)
(-2473.84 0 0)
(-2476.42 0 0)
(-2479 0 0)
(-2481.58 0 0)
(-2484.16 0 0)
(-2486.74 0 0)
(-2489.32 0 0)
(-2491.89 0 0)
(-2494.47 0 0)
(-2497.05 0 0)
(-2499.63 0 0)
(-2502.21 0 0)
(-2504.79 0 0)
(-2507.37 0 0)
(-2509.95 0 0)
(-2512.52 0 0)
(-2515.1 0 0)
(-2517.68 0 0)
(-2520.26 0 0)
(-2522.84 0 0)
(-2525.42 0 0)
(-2527.99 0 0)
(-2530.57 0 0)
(-2533.15 0 0)
(-2535.73 0 0)
(-2538.31 0 0)
(-2540.88 0 0)
(-2543.46 0 0)
(-2546.04 0 0)
(-2548.62 0 0)
(-2551.2 0 0)
(-2553.77 0 0)
(-2556.35 0 0)
(-2558.93 0 0)
(-2561.51 0 0)
(-2564.08 0 0)
(-2566.66 0 0)
(-2569.24 0 0)
(-2571.81 0 0)
(-2574.39 0 0)
(-2576.97 0 0)
(-2579.54 0 0)
(-2582.12 0 0)
(-2584.7 0 0)
(-2587.28 0 0)
(-2589.85 0 0)
(-2592.43 0 0)
(-2595 0 0)
(-2597.58 0 0)
(-2600.16 0 0)
(-2602.73 0 0)
(-2605.31 0 0)
(-2607.89 0 0)
(-2610.46 0 0)
(-2613.04 0 0)
(-2615.61 0 0)
(-2618.19 0 0)
(-2620.77 0 0)
(-2623.34 0 0)
(-2625.92 0 0)
(-2628.49 0 0)
(-2631.07 0 0)
(-2633.64 0 0)
(-2636.22 0 0)
(-2638.8 0 0)
(-2641.37 0 0)
(-2643.95 0 0)
(-2646.52 0 0)
(-2649.1 0 0)
(-2651.67 0 0)
(-2654.25 0 0)
(-2656.82 0 0)
(-2659.4 0 0)
(-2661.97 0 0)
(-2664.55 0 0)
(-2667.12 0 0)
(-2669.7 0 0)
(-2672.27 0 0)
(-2674.84 0 0)
(-2677.42 0 0)
(-2679.99 0 0)
(-2682.57 0 0)
(-2685.14 0 0)
(-2687.72 0 0)
(-2690.29 0 0)
(-2692.86 0 0)
(-2695.44 0 0)
(-2698.01 0 0)
(-2700.59 0 0)
(-2703.16 0 0)
(-2705.73 0 0)
(-2708.31 0 0)
(-2710.88 0 0)
(-2713.45 0 0)
(-2716.03 0 0)
(-2718.6 0 0)
(-2721.17 0 0)
(-2723.75 0 0)
(-2726.32 0 0)
(-2728.89 0 0)
(-2731.47 0 0)
(-2734.04 0 0)
(-2736.61 0 0)
(-2739.18 0 0)
(-2741.76 0 0)
(-2744.33 0 0)
(-2746.9 0 0)
(-2749.48 0 0)
(-2752.05 0 0)
(-2754.62 0 0)
(-2757.19 0 0)
(-2759.76 0 0)
(-2762.34 0 0)
(-2764.91 0 0)
(-2767.48 0 0)
(-2770.05 0 0)
(-2772.62 0 0)
(-2775.2 0 0)
(-2777.77 0 0)
(-2780.34 0 0)
(-2782.91 0 0)
(-2785.48 0 0)
(-2788.06 0 0)
(-2790.63 0 0)
(-2793.2 0 0)
(-2795.77 0 0)
(-2798.34 0 0)
(-2800.91 0 0)
(-2803.48 0 0)
(-2806.05 0 0)
(-2808.62 0 0)
(-2811.2 0 0)
(-2813.77 0 0)
(-2816.34 0 0)
(-2818.91 0 0)
(-2821.48 0 0)
(-2824.05 0 0)
(-2826.62 0 0)
(-2829.19 0 0)
(-2831.76 0 0)
(-2834.33 0 0)
(-2836.9 0 0)
(-2839.47 0 0)
(-2842.04 0 0)
(-2844.61 0 0)
(-2847.18 0 0)
(-2849.75 0 0)
(-2852.32 0 0)
(-2854.89 0 0)
(-2857.46 0 0)
(-2860.03 0 0)
(-2862.6 0 0)
(-2865.17 0 0)
(-2867.74 0 0)
(-2870.31 0 0)
(-2872.88 0 0)
(-2875.44 0 0)
(-2878.01 0 0)
(-2880.58 0 0)
(-2883.15 0 0)
(-2885.72 0 0)
(-2888.29 0 0)
(-2890.86 0 0)
(-2893.43 0 0)
(-2896 0 0)
(-2898.56 0 0)
(-2901.13 0 0)
(-2903.7 0 0)
(-2906.27 0 0)
(-2908.84 0 0)
(-2911.41 0 0)
(-2913.97 0 0)
(-2916.54 0 0)
(-2919.11 0 0)
(-2921.68 0 0)
(-2924.24 0 0)
(-2926.81 0 0)
(-2929.38 0 0)
(-2931.95 0 0)
(-2934.51 0 0)
(-2937.08 0 0)
(-2939.65 0 0)
(-2942.22 0 0)
(-2944.78 0 0)
(-2947.35 0 0)
(-2949.92 0 0)
(-2952.48 0 0)
(-2955.05 0 0)
(-2957.62 0 0)
(-2960.19 0 0)
(-2962.75 0 0)
(-2965.32 0 0)
(-2967.88 0 0)
(-2970.45 0 0)
(-2973.02 0 0)
(-2975.58 0 0)
(-2978.15 0 0)
(-2980.72 0 0)
(-2983.28 0 0)
(-2985.85 0 0)
(-2988.41 0 0)
(-2990.98 0 0)
(-2993.55 0 0)
(-2996.11 0 0)
(-2998.68 0 0)
(-3001.24 0 0)
(-3003.81 0 0)
(-3006.37 0 0)
(-3008.94 0 0)
(-3011.5 0 0)
(-3014.07 0 0)
(-3016.63 0 0)
(-3019.2 0 0)
(-3021.76 0 0)
(-3024.33 0 0)
(-3026.89 0 0)
(-3029.46 0 0)
(-3032.02 0 0)
(-3034.59 0 0)
(-3037.15 0 0)
(-3039.72 0 0)
(-3042.28 0 0)
(-3044.85 0 0)
(-3047.41 0 0)
(-3049.97 0 0)
(-3052.54 0 0)
(-3055.1 0 0)
(-3057.67 0 0)
(-3060.23 0 0)
(-3062.79 0 0)
(-3065.36 0 0)
(-3067.92 0 0)
(-3070.48 0 0)
(-3073.05 0 0)
(-3075.61 0 0)
(-3078.18 0 0)
(-3080.74 0 0)
(-3083.3 0 0)
(-3085.86 0 0)
(-3088.43 0 0)
(-3090.99 0 0)
(-3093.55 0 0)
(-3096.12 0 0)
(-3098.68 0 0)
(-3101.24 0 0)
(-3103.8 0 0)
(-3106.37 0 0)
(-3108.93 0 0)
(-3111.49 0 0)
(-3114.05 0 0)
(-3116.62 0 0)
(-3119.18 0 0)
(-3121.74 0 0)
(-3124.3 0 0)
(-3126.86 0 0)
(-3129.42 0 0)
(-3131.99 0 0)
(-3134.55 0 0)
(-3137.11 0 0)
(-3139.67 0 0)
(-3142.23 0 0)
(-3144.79 0 0)
(-3147.36 0 0)
(-3149.91 0 0)
(-3152.48 0 0)
(-3155.03 0 0)
(-3157.61 0 0)
(-3160.15 0 0)
(-3162.73 0 0)
(-3165.27 0 0)
(-3167.86 0 0)
(-3170.38 0 0)
(-3172.99 0 0)
(-3175.49 0 0)
(-3178.12 0 0)
(-3180.6 0 0)
(-3183.26 0 0)
(-3185.69 0 0)
(-3188.41 0 0)
(-3190.79 0 0)
(-3193.55 0 0)
(-3195.88 0 0)
(-3198.69 0 0)
(-3200.99 0 0)
(-3203.82 0 0)
(-3206.11 0 0)
(-3208.91 0 0)
(-3211.28 0 0)
(-3213.97 0 0)
(-3216.49 0 0)
(-3219.01 0 0)
(-3221.59 0 0)
(-3224.16 0 0)
(-3226.71 0 0)
(-3229.28 0 0)
(-3231.86 0 0)
(-3234.39 0 0)
(-3236.94 0 0)
(-3239.49 0 0)
(-3242.07 0 0)
(-3244.62 0 0)
(-3247.18 0 0)
(-3249.73 0 0)
(-3252.3 0 0)
(-3254.86 0 0)
(-3257.43 0 0)
(-3259.98 0 0)
(-3262.56 0 0)
(-3265.03 0 0)
(-3267.74 0 0)
(-3270.04 0 0)
(-3272.98 0 0)
(-3275.03 0 0)
(-3278.21 0 0)
(-3280.04 0 0)
(-3283.4 0 0)
(-3285.15 0 0)
(-3288.47 0 0)
(-3290.37 0 0)
(-3293.4 0 0)
(-3295.73 0 0)
(-3298.22 0 0)
(-3301.1 0 0)
(-3303.08 0 0)
(-3306.48 0 0)
(-3308.01 0 0)
(-3311.65 0 0)
(-3313.18 0 0)
(-3316.59 0 0)
(-3318.58 0 0)
(-3321.34 0 0)
(-3324.11 0 0)
(-3326.03 0 0)
(-3329.55 0 0)
(-3330.93 0 0)
(-3334.73 0 0)
(-3336.14 0 0)
(-3339.56 0 0)
(-3341.66 0 0)
(-3344.18 0 0)
(-3347.26 0 0)
(-3348.93 0 0)
(-3352.66 0 0)
(-3353.86 0 0)
(-3357.7 0 0)
(-3359.27 0 0)
(-3362.34 0 0)
(-3364.94 0 0)
(-3366.9 0 0)
(-3370.46 0 0)
(-3371.74 0 0)
(-3375.68 0 0)
(-3376.95 0 0)
(-3380.45 0 0)
(-3382.61 0 0)
(-3384.98 0 0)
(-3388.23 0 0)
(-3389.62 0 0)
(-3393.63 0 0)
(-3394.72 0 0)
(-3398.46 0 0)
(-3400.31 0 0)
(-3402.92 0 0)
(-3406.11 0 0)
(-3407.46 0 0)
(-3411.58 0 0)
(-3412.52 0 0)
(-3416.37 0 0)
(-3418.25 0 0)
(-3420.67 0 0)
(-3424.15 0 0)
(-3425.16 0 0)
(-3429.5 0 0)
(-3430.46 0 0)
(-3434 0 0)
(-3436.43 0 0)
(-3438.2 0 0)
(-3442.26 0 0)
(-3442.98 0 0)
(-3447.21 0 0)
(-3448.64 0 0)
(-3451.45 0 0)
(-3454.75 0 0)
(-3455.75 0 0)
(-3460.2 0 0)
(-3460.98 0 0)
(-3464.68 0 0)
(-3467.05 0 0)
(-3468.77 0 0)
(-3472.97 0 0)
(-3473.49 0 0)
(-3477.83 0 0)
(-3479.42 0 0)
(-3481.83 0 0)
(-3485.52 0 0)
(-3486.28 0 0)
(-3490.8 0 0)
(-3491.76 0 0)
(-3495 0 0)
(-3497.98 0 0)
(-3499.1 0 0)
(-3503.67 0 0)
(-3504.24 0 0)
(-3508.1 0 0)
(-3510.43 0 0)
(-3512.03 0 0)
(-3516.42 0 0)
(-3516.83 0 0)
(-3521.1 0 0)
(-3522.92 0 0)
(-3524.93 0 0)
(-3529.13 0 0)
(-3529.47 0 0)
(-3534.01 0 0)
(-3535.5 0 0)
(-3537.77 0 0)
(-3541.87 0 0)
(-3542.16 0 0)
(-3546.85 0 0)
(-3548.18 0 0)
(-3550.54 0 0)
(-3554.63 0 0)
(-3554.85 0 0)
(-3559.62 0 0)
(-3560.93 0 0)
(-3563.22 0 0)
(-3567.45 0 0)
(-3567.54 0 0)
(-3572.33 0 0)
(-3573.79 0 0)
(-3575.81 0 0)
(-3580.3 0 0)
(-3580.27 0 0)
(-3584.96 0 0)
(-3586.71 0 0)
(-3588.35 0 0)
(-3593.13 0 0)
(-3593.03 0 0)
(-3597.51 0 0)
(-3599.68 0 0)
(-3600.96 0 0)
(-3605.85 0 0)
(-3605.92 0 0)
(-3610.06 0 0)
(-3612.55 0 0)
(-3613.59 0 0)
(-3618.6 0 0)
(-3618.73 0 0)
(-3622.57 0 0)
(-3625.55 0 0)
(-3626.11 0 0)
(-3631.36 0 0)
(-3631.69 0 0)
(-3634.93 0 0)
(-3638.65 0 0)
(-3638.66 0 0)
(-3643.94 0 0)
(-3644.83 0 0)
(-3647.13 0 0)
(-3651.7 0 0)
(-3651.4 0 0)
(-3656.29 0 0)
(-3658.13 0 0)
(-3659.38 0 0)
(-3664.61 0 0)
(-3664.37 0 0)
(-3668.44 0 0)
(-3671.46 0 0)
(-3671.73 0 0)
(-3677.23 0 0)
(-3677.59 0 0)
(-3680.45 0 0)
(-3684.74 0 0)
(-3684.35 0 0)
(-3689.53 0 0)
(-3691.09 0 0)
(-3692.45 0 0)
(-3697.75 0 0)
(-3697.38 0 0)
(-3701.49 0 0)
(-3704.61 0 0)
(-3704.71 0 0)
(-3710.28 0 0)
(-3710.8 0 0)
(-3713.31 0 0)
(-3717.92 0 0)
(-3717.46 0 0)
(-3722.35 0 0)
(-3724.45 0 0)
(-3725.3 0 0)
(-3730.77 0 0)
(-3730.72 0 0)
(-3734.1 0 0)
(-3738.02 0 0)
(-3737.7 0 0)
(-3743.02 0 0)
(-3744.42 0 0)
(-3745.8 0 0)
(-3751.19 0 0)
(-3750.79 0 0)
(-3754.68 0 0)
(-3758.27 0 0)
(-3757.93 0 0)
(-3763.52 0 0)
(-3764.63 0 0)
(-3766.13 0 0)
(-3771.59 0 0)
(-3771.04 0 0)
(-3775.01 0 0)
(-3778.64 0 0)
(-3778.22 0 0)
(-3783.83 0 0)
(-3785.03 0 0)
(-3786.37 0 0)
(-3791.93 0 0)
(-3791.45 0 0)
(-3795.18 0 0)
(-3799.06 0 0)
(-3798.55 0 0)
(-3804 0 0)
(-3805.53 0 0)
(-3806.59 0 0)
(-3812.2 0 0)
(-3811.94 0 0)
(-3815.3 0 0)
(-3819.5 0 0)
(-3818.88 0 0)
(-3824.15 0 0)
(-3826.11 0 0)
(-3826.65 0 0)
(-3832.55 0 0)
(-3832.5 0 0)
(-3835.14 0 0)
(-3840.18 0 0)
(-3839.23 0 0)
(-3843.94 0 0)
(-3847.08 0 0)
(-3846.64 0 0)
(-3852.53 0 0)
(-3853.57 0 0)
(-3854.78 0 0)
(-3860.54 0 0)
(-3860.13 0 0)
(-3863.39 0 0)
(-3867.86 0 0)
(-3867.15 0 0)
(-3872.09 0 0)
(-3874.62 0 0)
(-3874.79 0 0)
(-3880.48 0 0)
(-3881.17 0 0)
(-3883.03 0 0)
(-3888.32 0 0)
(-3887.86 0 0)
(-3891.6 0 0)
(-3895.59 0 0)
(-3894.97 0 0)
(-3900.18 0 0)
(-3902.43 0 0)
(-3902.61 0 0)
(-3908.49 0 0)
(-3909.1 0 0)
(-3910.73 0 0)
(-3916.35 0 0)
(-3915.87 0 0)
(-3919.15 0 0)
(-3923.73 0 0)
(-3922.95 0 0)
(-3927.64 0 0)
(-3930.72 0 0)
(-3930.46 0 0)
(-3935.97 0 0)
(-3937.51 0 0)
(-3938.38 0 0)
(-3943.98 0 0)
(-3944.3 0 0)
(-3946.6 0 0)
(-3951.62 0 0)
(-3951.25 0 0)
(-3954.96 0 0)
(-3958.91 0 0)
(-3958.48 0 0)
(-3963.32 0 0)
(-3965.94 0 0)
(-3966.04 0 0)
(-3971.52 0 0)
(-3972.84 0 0)
(-3973.9 0 0)
(-3979.48 0 0)
(-3979.76 0 0)
(-3981.97 0 0)
(-3987.16 0 0)
(-3986.81 0 0)
(-3990.14 0 0)
(-3994.59 0 0)
(-3994.06 0 0)
(-3998.34 0 0)
(-4001.79 0 0)
(-4001.54 0 0)
(-4006.47 0 0)
(-4008.85 0 0)
(-4009.24 0 0)
(-4014.47 0 0)
(-4015.85 0 0)
(-4017.12 0 0)
(-4022.31 0 0)
(-4022.89 0 0)
(-4025.11 0 0)
(-4029.98 0 0)
(-4030.02 0 0)
(-4033.15 0 0)
(-4037.49 0 0)
(-4037.28 0 0)
(-4041.21 0 0)
(-4044.86 0 0)
(-4044.68 0 0)
(-4049.21 0 0)
(-4052.14 0 0)
(-4052.24 0 0)
(-4057.14 0 0)
(-4059.37 0 0)
(-4059.93 0 0)
(-4064.97 0 0)
(-4066.57 0 0)
(-4067.73 0 0)
(-4072.71 0 0)
(-4073.78 0 0)
(-4075.59 0 0)
(-4080.36 0 0)
(-4081.02 0 0)
(-4083.49 0 0)
(-4087.93 0 0)
(-4088.34 0 0)
(-4091.39 0 0)
(-4095.43 0 0)
(-4095.72 0 0)
(-4099.28 0 0)
(-4102.87 0 0)
(-4103.16 0 0)
(-4107.14 0 0)
(-4110.28 0 0)
(-4110.68 0 0)
(-4114.96 0 0)
(-4117.66 0 0)
(-4118.26 0 0)
(-4122.73 0 0)
(-4125.04 0 0)
(-4125.9 0 0)
(-4130.44 0 0)
(-4132.41 0 0)
(-4133.58 0 0)
(-4138.12 0 0)
(-4139.77 0 0)
(-4141.3 0 0)
(-4145.76 0 0)
(-4147.13 0 0)
(-4149.04 0 0)
(-4153.39 0 0)
(-4154.5 0 0)
(-4156.76 0 0)
(-4161.03 0 0)
(-4161.9 0 0)
(-4164.45 0 0)
(-4168.65 0 0)
(-4169.36 0 0)
(-4172.11 0 0)
(-4176.23 0 0)
(-4176.87 0 0)
(-4179.75 0 0)
(-4183.75 0 0)
(-4184.43 0 0)
(-4187.41 0 0)
(-4191.23 0 0)
(-4192 0 0)
(-4195.1 0 0)
(-4198.7 0 0)
(-4199.54 0 0)
(-4202.81 0 0)
(-4206.17 0 0)
(-4207.06 0 0)
(-4210.52 0 0)
(-4213.69 0 0)
(-4214.56 0 0)
(-4218.17 0 0)
(-4221.27 0 0)
(-4222.07 0 0)
(-4225.76 0 0)
(-4228.86 0 0)
(-4229.64 0 0)
(-4233.3 0 0)
(-4236.41 0 0)
(-4237.27 0 0)
(-4240.83 0 0)
(-4243.93 0 0)
(-4244.92 0 0)
(-4248.4 0 0)
(-4251.4 0 0)
(-4252.54 0 0)
(-4256.03 0 0)
(-4258.87 0 0)
(-4260.1 0 0)
(-4263.68 0 0)
(-4266.4 0 0)
(-4267.61 0 0)
(-4271.28 0 0)
(-4274.02 0 0)
(-4275.11 0 0)
(-4278.8 0 0)
(-4281.67 0 0)
(-4282.67 0 0)
(-4286.27 0 0)
(-4289.28 0 0)
(-4290.3 0 0)
(-4293.74 0 0)
(-4296.82 0 0)
(-4297.97 0 0)
(-4301.23 0 0)
(-4304.33 0 0)
(-4305.61 0 0)
(-4308.8 0 0)
(-4311.84 0 0)
(-4313.17 0 0)
(-4316.4 0 0)
(-4319.39 0 0)
(-4320.69 0 0)
(-4323.95 0 0)
(-4327.03 0 0)
(-4328.22 0 0)
(-4331.39 0 0)
(-4334.69 0 0)
(-4335.82 0 0)
(-4338.8 0 0)
(-4342.28 0 0)
(-4343.52 0 0)
(-4346.23 0 0)
(-4349.76 0 0)
(-4351.23 0 0)
(-4353.75 0 0)
(-4357.22 0 0)
(-4358.85 0 0)
(-4361.34 0 0)
(-4364.74 0 0)
(-4366.37 0 0)
(-4368.89 0 0)
(-4372.34 0 0)
(-4373.93 0 0)
(-4376.33 0 0)
(-4379.94 0 0)
(-4381.61 0 0)
(-4383.72 0 0)
(-4387.46 0 0)
(-4389.34 0 0)
(-4391.19 0 0)
(-4394.87 0 0)
(-4397.03 0 0)
(-4398.78 0 0)
(-4402.27 0 0)
(-4404.65 0 0)
(-4406.38 0 0)
(-4409.74 0 0)
(-4412.23 0 0)
(-4413.93 0 0)
(-4417.25 0 0)
(-4419.82 0 0)
(-4421.46 0 0)
(-4424.71 0 0)
(-4427.48 0 0)
(-4429.01 0 0)
(-4432.11 0 0)
(-4435.14 0 0)
(-4436.62 0 0)
(-4439.49 0 0)
(-4442.7 0 0)
(-4444.3 0 0)
(-4446.91 0 0)
(-4450.2 0 0)
(-4451.98 0 0)
(-4454.38 0 0)
(-4457.7 0 0)
(-4459.6 0 0)
(-4461.87 0 0)
(-4465.23 0 0)
(-4467.21 0 0)
(-4469.33 0 0)
(-4472.73 0 0)
(-4474.91 0 0)
(-4476.78 0 0)
(-4480.15 0 0)
(-4482.61 0 0)
(-4484.31 0 0)
(-4487.53 0 0)
(-4490.25 0 0)
(-4491.94 0 0)
(-4494.91 0 0)
(-4497.82 0 0)
(-4499.57 0 0)
(-4502.34 0 0)
(-4505.37 0 0)
(-4507.16 0 0)
(-4509.79 0 0)
(-4512.92 0 0)
(-4514.79 0 0)
(-4517.2 0 0)
(-4520.46 0 0)
(-4522.47 0 0)
(-4524.61 0 0)
(-4527.92 0 0)
(-4530.16 0 0)
(-4532.09 0 0)
(-4535.31 0 0)
(-4537.84 0 0)
(-4539.66 0 0)
(-4542.67 0 0)
(-4545.45 0 0)
(-4547.26 0 0)
(-4550.08 0 0)
(-4553.01 0 0)
(-4554.87 0 0)
(-4557.51 0 0)
(-4560.55 0 0)
(-4562.5 0 0)
(-4564.91 0 0)
(-4568.07 0 0)
(-4570.15 0 0)
(-4572.33 0 0)
(-4575.54 0 0)
(-4577.83 0 0)
(-4579.81 0 0)
(-4582.91 0 0)
(-4585.52 0 0)
(-4587.36 0 0)
(-4590.26 0 0)
(-4593.11 0 0)
(-4594.99 0 0)
(-4597.66 0 0)
(-4600.62 0 0)
(-4602.63 0 0)
(-4605.08 0 0)
(-4608.13 0 0)
(-4610.26 0 0)
(-4612.51 0 0)
(-4615.61 0 0)
(-4617.9 0 0)
(-4619.98 0 0)
(-4623.02 0 0)
(-4625.58 0 0)
(-4627.48 0 0)
(-4630.37 0 0)
(-4633.21 0 0)
(-4635.11 0 0)
(-4637.71 0 0)
(-4640.71 0 0)
(-4642.8 0 0)
(-4645.14 0 0)
(-4648.14 0 0)
(-4650.42 0 0)
(-4652.63 0 0)
(-4655.6 0 0)
(-4658.01 0 0)
(-4660.11 0 0)
(-4663.03 0 0)
(-4665.66 0 0)
(-4667.62 0 0)
(-4670.37 0 0)
(-4673.29 0 0)
(-4675.25 0 0)
(-4677.7 0 0)
(-4680.74 0 0)
(-4682.98 0 0)
(-4685.15 0 0)
(-4688.1 0 0)
(-4690.6 0 0)
(-4692.71 0 0)
(-4695.52 0 0)
(-4698.13 0 0)
(-4700.24 0 0)
(-4702.96 0 0)
(-4705.73 0 0)
(-4707.77 0 0)
(-4710.29 0 0)
(-4713.29 0 0)
(-4715.46 0 0)
(-4717.66 0 0)
(-4720.65 0 0)
(-4723.17 0 0)
(-4725.21 0 0)
(-4727.97 0 0)
(-4730.71 0 0)
(-4732.82 0 0)
(-4735.4 0 0)
(-4738.18 0 0)
(-4740.39 0 0)
(-4742.84 0 0)
(-4745.71 0 0)
(-4747.97 0 0)
(-4750.21 0 0)
(-4753.16 0 0)
(-4755.66 0 0)
(-4757.7 0 0)
(-4760.44 0 0)
(-4763.26 0 0)
(-4765.37 0 0)
(-4767.79 0 0)
(-4770.68 0 0)
(-4772.99 0 0)
(-4775.3 0 0)
(-4778.09 0 0)
(-4780.54 0 0)
(-4782.77 0 0)
(-4785.55 0 0)
(-4788.15 0 0)
(-4790.24 0 0)
(-4792.89 0 0)
(-4795.73 0 0)
(-4797.9 0 0)
(-4800.21 0 0)
(-4803.13 0 0)
(-4805.58 0 0)
(-4807.73 0 0)
(-4810.46 0 0)
(-4813.1 0 0)
(-4815.32 0 0)
(-4817.88 0 0)
(-4820.6 0 0)
(-4822.84 0 0)
(-4825.3 0 0)
(-4828.12 0 0)
(-4830.43 0 0)
(-4832.68 0 0)
(-4835.51 0 0)
(-4838.11 0 0)
(-4840.21 0 0)
(-4842.8 0 0)
(-4845.61 0 0)
(-4847.86 0 0)
(-4850.22 0 0)
(-4852.99 0 0)
(-4855.43 0 0)
(-4857.72 0 0)
(-4860.44 0 0)
(-4862.97 0 0)
(-4865.18 0 0)
(-4867.83 0 0)
(-4870.55 0 0)
(-4872.76 0 0)
(-4875.14 0 0)
(-4877.99 0 0)
(-4880.41 0 0)
(-4882.62 0 0)
(-4885.31 0 0)
(-4887.95 0 0)
(-4890.2 0 0)
(-4892.71 0 0)
(-4895.42 0 0)
(-4897.73 0 0)
(-4900.14 0 0)
(-4902.89 0 0)
(-4905.32 0 0)
(-4907.56 0 0)
(-4910.25 0 0)
(-4912.9 0 0)
(-4915.11 0 0)
(-4917.6 0 0)
(-4920.35 0 0)
(-4922.72 0 0)
(-4925.04 0 0)
(-4927.75 0 0)
(-4930.27 0 0)
(-4932.52 0 0)
(-4935.14 0 0)
(-4937.8 0 0)
(-4940.07 0 0)
(-4942.49 0 0)
(-4945.25 0 0)
(-4947.67 0 0)
(-4949.95 0 0)
(-4952.61 0 0)
(-4955.2 0 0)
(-4957.48 0 0)
(-4959.99 0 0)
(-4962.69 0 0)
(-4965.01 0 0)
(-4967.39 0 0)
(-4970.11 0 0)
(-4972.61 0 0)
(-4974.85 0 0)
(-4977.44 0 0)
(-4980.12 0 0)
(-4982.43 0 0)
(-4984.85 0 0)
(-4987.52 0 0)
(-4989.97 0 0)
(-4992.3 0 0)
(-4994.94 0 0)
(-4997.5 0 0)
(-4999.77 0 0)
(-5002.3 0 0)
(-5005 0 0)
(-5007.36 0 0)
(-5009.68 0 0)
(-5012.36 0 0)
(-5014.92 0 0)
(-5017.21 0 0)
(-5019.73 0 0)
(-5022.36 0 0)