/*--------------------------------*- C++ -*----------------------------------*\
  =========                 |
  \\      /  F ield         | OpenFOAM: The Open Source CFD Toolbox
   \\    /   O peration     | Website:  https://openfoam.org
    \\  /    A nd           | Version:  9
     \\/     M anipulation  |
\*---------------------------------------------------------------------------*/
FoamFile
{
    format      ascii;
    class       surfaceScalarField;
    location    "0.024";
    object      ddtCorrDdt0(phi);
}
// * * * * * * * * * * * * * * * * * * * * * * * * * * * * * * * * * * * * * //

dimensions      [1 0 -2 0 0 0 0];

internalField   nonuniform List<scalar> 
9999
(
139.196
128.779
118.361
107.938
97.5199
87.1201
76.7237
66.3027
55.8572
45.4234
35.0273
24.6596
14.288
3.87704
-6.58241
-17.0613
-27.5212
-37.9316
-48.2829
-58.5987
-68.9108
-79.2533
-89.6496
-100.106
-110.622
-121.177
-131.755
-142.339
-152.911
-163.464
-173.99
-184.487
-194.956
-205.4
-215.827
-226.259
-236.702
-247.303
-257.629
-268.074
-278.499
-288.923
-299.343
-309.767
-320.191
-330.614
-341.037
-351.461
-361.886
-372.309
-382.733
-393.156
-403.581
-414.006
-424.43
-434.854
-445.277
-455.7
-466.125
-476.549
-486.974
-497.399
-507.821
-518.243
-528.667
-539.091
-549.515
-559.942
-570.368
-580.792
-591.218
-601.644
-612.066
-622.488
-632.912
-643.337
-653.759
-664.181
-674.604
-685.03
-695.455
-705.877
-716.298
-726.722
-737.148
-747.575
-758
-768.422
-778.842
-789.263
-799.684
-810.107
-820.531
-830.956
-841.381
-851.806
-862.23
-872.655
-883.079
-893.503
-903.926
-914.35
-924.774
-935.197
-945.621
-956.044
-966.468
-976.892
-987.315
-997.739
-1008.16
-1018.59
-1029.01
-1039.43
-1049.86
-1060.28
-1070.7
-1081.13
-1091.55
-1101.97
-1112.4
-1122.82
-1133.24
-1143.66
-1154.09
-1164.51
-1174.94
-1185.36
-1195.79
-1206.21
-1216.63
-1227.06
-1237.48
-1247.9
-1258.32
-1268.75
-1279.17
-1289.59
-1300.02
-1310.44
-1320.86
-1331.29
-1341.71
-1352.13
-1362.55
-1372.97
-1383.39
-1393.82
-1404.24
-1414.66
-1425.09
-1435.51
-1445.93
-1456.36
-1466.78
-1477.2
-1487.62
-1498.05
-1508.47
-1518.89
-1529.31
-1539.74
-1550.16
-1560.58
-1571
-1581.43
-1591.85
-1602.27
-1612.69
-1623.12
-1633.54
-1643.96
-1654.38
-1664.81
-1675.23
-1685.65
-1696.07
-1706.49
-1716.92
-1727.34
-1737.76
-1748.18
-1758.6
-1769.03
-1779.45
-1789.87
-1800.29
-1810.72
-1821.14
-1831.56
-1841.98
-1852.4
-1862.83
-1873.25
-1883.67
-1894.09
-1904.51
-1914.93
-1925.35
-1935.77
-1946.19
-1956.61
-1967.03
-1977.46
-1987.88
-1998.3
-2008.72
-2019.14
-2029.56
-2039.98
-2050.41
-2060.83
-2071.25
-2081.67
-2092.09
-2102.51
-2112.93
-2123.35
-2133.77
-2144.2
-2154.62
-2165.04
-2175.46
-2185.88
-2196.3
-2206.72
-2217.14
-2227.56
-2237.98
-2248.4
-2258.82
-2269.24
-2279.66
-2290.08
-2300.5
-2310.92
-2321.34
-2331.76
-2342.18
-2352.6
-2363.02
-2373.44
-2383.86
-2394.28
-2404.7
-2415.12
-2425.54
-2435.96
-2446.38
-2456.8
-2467.22
-2477.64
-2488.06
-2498.48
-2508.9
-2519.32
-2529.74
-2540.16
-2550.58
-2561
-2571.41
-2581.83
-2592.25
-2602.67
-2613.09
-2623.51
-2633.93
-2644.35
-2654.76
-2665.18
-2675.6
-2686.02
-2696.44
-2706.86
-2717.28
-2727.7
-2738.11
-2748.53
-2758.95
-2769.37
-2779.79
-2790.21
-2800.62
-2811.04
-2821.46
-2831.88
-2842.3
-2852.71
-2863.13
-2873.55
-2883.97
-2894.39
-2904.8
-2915.22
-2925.64
-2936.06
-2946.47
-2956.89
-2967.31
-2977.73
-2988.14
-2998.56
-3008.98
-3019.39
-3029.81
-3040.23
-3050.64
-3061.06
-3071.48
-3081.9
-3092.31
-3102.73
-3113.15
-3123.57
-3133.98
-3144.4
-3154.82
-3165.23
-3175.65
-3186.06
-3196.48
-3206.89
-3217.31
-3227.73
-3238.14
-3248.56
-3258.97
-3269.39
-3279.8
-3290.22
-3300.64
-3311.05
-3321.47
-3331.88
-3342.3
-3352.71
-3363.13
-3373.55
-3383.96
-3394.38
-3404.79
-3415.21
-3425.62
-3436.04
-3446.45
-3456.87
-3467.28
-3477.69
-3488.11
-3498.52
-3508.94
-3519.35
-3529.77
-3540.18
-3550.6
-3561.01
-3571.42
-3581.84
-3592.25
-3602.67
-3613.08
-3623.49
-3633.91
-3644.32
-3654.74
-3665.15
-3675.56
-3685.98
-3696.39
-3706.8
-3717.22
-3727.63
-3738.04
-3748.46
-3758.87
-3769.28
-3779.7
-3790.11
-3800.52
-3810.94
-3821.35
-3831.76
-3842.17
-3852.58
-3863
-3873.41
-3883.82
-3894.23
-3904.64
-3915.06
-3925.47
-3935.88
-3946.29
-3956.7
-3967.12
-3977.53
-3987.94
-3998.35
-4008.76
-4019.17
-4029.59
-4040
-4050.41
-4060.82
-4071.23
-4081.64
-4092.05
-4102.46
-4112.87
-4123.29
-4133.7
-4144.11
-4154.52
-4164.93
-4175.34
-4185.75
-4196.16
-4206.57
-4216.98
-4227.39
-4237.8
-4248.21
-4258.62
-4269.03
-4279.44
-4289.85
-4300.26
-4310.67
-4321.08
-4331.48
-4341.89
-4352.3
-4362.71
-4373.12
-4383.53
-4393.94
-4404.35
-4414.76
-4425.16
-4435.57
-4445.98
-4456.39
-4466.8
-4477.21
-4487.62
-4498.02
-4508.43
-4518.84
-4529.25
-4539.65
-4550.06
-4560.47
-4570.88
-4581.28
-4591.69
-4602.1
-4612.5
-4622.91
-4633.32
-4643.73
-4654.13
-4664.54
-4674.94
-4685.35
-4695.76
-4706.16
-4716.57
-4726.98
-4737.38
-4747.79
-4758.19
-4768.6
-4779
-4789.41
-4799.81
-4810.22
-4820.62
-4831.03
-4841.43
-4851.83
-4862.24
-4872.64
-4883.05
-4893.45
-4903.85
-4914.26
-4924.66
-4935.06
-4945.46
-4955.87
-4966.27
-4976.67
-4987.07
-4997.47
-5007.88
-5018.28
-5028.68
-5039.08
-5049.48
-5059.88
-5070.28
-5080.68
-5091.09
-5101.49
-5111.89
-5122.29
-5132.69
-5143.09
-5153.49
-5163.89
-5174.29
-5184.69
-5195.09
-5205.49
-5215.89
-5226.3
-5236.7
-5247.1
-5257.5
-5267.9
-5278.3
-5288.71
-5299.11
-5309.51
-5319.91
-5330.32
-5340.72
-5351.12
-5361.53
-5371.93
-5382.33
-5392.74
-5403.14
-5413.55
-5423.95
-5434.35
-5444.76
-5455.16
-5465.57
-5475.97
-5486.38
-5496.78
-5507.19
-5517.59
-5528
-5538.4
-5548.81
-5559.21
-5569.61
-5580.02
-5590.42
-5600.82
-5611.22
-5621.63
-5632.03
-5642.43
-5652.83
-5663.23
-5673.63
-5684.03
-5694.43
-5704.83
-5715.22
-5725.62
-5736.02
-5746.41
-5756.81
-5767.2
-5777.59
-5787.99
-5798.38
-5808.77
-5819.16
-5829.55
-5839.94
-5850.33
-5860.72
-5871.11
-5881.5
-5891.89
-5902.28
-5912.67
-5923.05
-5933.44
-5943.83
-5954.21
-5964.6
-5974.99
-5985.37
-5995.76
-6006.15
-6016.53
-6026.92
-6037.31
-6047.69
-6058.08
-6068.47
-6078.85
-6089.24
-6099.63
-6110.01
-6120.4
-6130.79
-6141.17
-6151.56
-6161.95
-6172.33
-6182.72
-6193.11
-6203.49
-6213.88
-6224.27
-6234.65
-6245.04
-6255.43
-6265.82
-6276.2
-6286.59
-6296.98
-6307.36
-6317.75
-6328.14
-6338.52
-6348.91
-6359.29
-6369.68
-6380.07
-6390.45
-6400.84
-6411.22
-6421.61
-6431.99
-6442.38
-6452.76
-6463.15
-6473.53
-6483.92
-6494.3
-6504.69
-6515.07
-6525.45
-6535.84
-6546.22
-6556.6
-6566.99
-6577.37
-6587.75
-6598.14
-6608.52
-6618.9
-6629.28
-6639.66
-6650.05
-6660.43
-6670.81
-6681.19
-6691.57
-6701.95
-6712.33
-6722.71
-6733.09
-6743.47
-6753.85
-6764.23
-6774.61
-6784.99
-6795.37
-6805.75
-6816.13
-6826.51
-6836.89
-6847.27
-6857.65
-6868.03
-6878.4
-6888.78
-6899.16
-6909.54
-6919.91
-6930.29
-6940.67
-6951.04
-6961.42
-6971.8
-6982.17
-6992.55
-7002.93
-7013.3
-7023.68
-7034.05
-7044.43
-7054.8
-7065.18
-7075.55
-7085.93
-7096.3
-7106.68
-7117.05
-7127.43
-7137.8
-7148.17
-7158.55
-7168.92
-7179.29
-7189.67
-7200.04
-7210.41
-7220.78
-7231.16
-7241.53
-7251.9
-7262.27
-7272.64
-7283.02
-7293.39
-7303.76
-7314.13
-7324.5
-7334.87
-7345.24
-7355.61
-7365.98
-7376.35
-7386.72
-7397.09
-7407.46
-7417.83
-7428.2
-7438.56
-7448.93
-7459.3
-7469.67
-7480.04
-7490.4
-7500.77
-7511.14
-7521.51
-7531.87
-7542.24
-7552.61
-7562.97
-7573.34
-7583.7
-7594.07
-7604.44
-7614.8
-7625.17
-7635.53
-7645.9
-7656.26
-7666.63
-7676.99
-7687.36
-7697.72
-7708.08
-7718.45
-7728.81
-7739.17
-7749.54
-7759.9
-7770.26
-7780.62
-7790.99
-7801.35
-7811.71
-7822.07
-7832.43
-7842.79
-7853.16
-7863.52
-7873.88
-7884.24
-7894.6
-7904.96
-7915.32
-7925.68
-7936.04
-7946.4
-7956.76
-7967.11
-7977.47
-7987.83
-7998.19
-8008.55
-8018.91
-8029.26
-8039.62
-8049.98
-8060.34
-8070.69
-8081.05
-8091.41
-8101.76
-8112.12
-8122.48
-8132.83
-8143.19
-8153.54
-8163.9
-8174.25
-8184.61
-8194.96
-8205.32
-8215.67
-8226.02
-8236.38
-8246.73
-8257.08
-8267.44
-8277.79
-8288.14
-8298.5
-8308.85
-8319.2
-8329.55
-8339.9
-8350.26
-8360.61
-8370.96
-8381.31
-8391.66
-8402.01
-8412.36
-8422.71
-8433.06
-8443.41
-8453.76
-8464.11
-8474.46
-8484.81
-8495.16
-8505.51
-8515.86
-8526.2
-8536.55
-8546.9
-8557.25
-8567.59
-8577.94
-8588.29
-8598.64
-8608.98
-8619.33
-8629.67
-8640.02
-8650.37
-8660.71
-8671.06
-8681.4
-8691.75
-8702.09
-8712.43
-8722.78
-8733.12
-8743.47
-8753.81
-8764.15
-8774.5
-8784.84
-8795.18
-8805.52
-8815.87
-8826.21
-8836.55
-8846.89
-8857.23
-8867.57
-8877.91
-8888.25
-8898.59
-8908.93
-8919.27
-8929.61
-8939.95
-8950.29
-8960.63
-8970.97
-8981.31
-8991.65
-9001.98
-9012.32
-9022.66
-9033
-9043.33
-9053.67
-9064.01
-9074.34
-9084.68
-9095.02
-9105.35
-9115.69
-9126.02
-9136.36
-9146.69
-9157.03
-9167.36
-9177.7
-9188.03
-9198.37
-9208.7
-9219.03
-9229.37
-9239.7
-9250.03
-9260.36
-9270.7
-9281.03
-9291.36
-9301.69
-9312.02
-9322.35
-9332.69
-9343.02
-9353.35
-9363.68
-9374.01
-9384.34
-9394.67
-9405
-9415.32
-9425.65
-9435.98
-9446.31
-9456.64
-9466.97
-9477.29
-9487.62
-9497.95
-9508.28
-9518.6
-9528.93
-9539.25
-9549.58
-9559.91
-9570.23
-9580.56
-9590.88
-9601.21
-9611.53
-9621.86
-9632.18
-9642.5
-9652.83
-9663.15
-9673.47
-9683.8
-9694.12
-9704.44
-9714.76
-9725.09
-9735.41
-9745.73
-9756.05
-9766.37
-9776.69
-9787.01
-9797.33
-9807.65
-9817.97
-9828.29
-9838.61
-9848.93
-9859.25
-9869.57
-9879.88
-9890.2
-9900.52
-9910.84
-9921.15
-9931.47
-9941.79
-9952.1
-9962.42
-9972.74
-9983.05
-9993.37
-10003.7
-10014
-10024.3
-10034.6
-10044.9
-10055.3
-10065.6
-10075.9
-10086.2
-10096.5
-10106.8
-10117.1
-10127.4
-10137.8
-10148.1
-10158.4
-10168.7
-10179
-10189.3
-10199.6
-10209.9
-10220.2
-10230.6
-10240.9
-10251.2
-10261.5
-10271.8
-10282.1
-10292.4
-10302.7
-10313
-10323.3
-10333.6
-10343.9
-10354.3
-10364.6
-10374.9
-10385.2
-10395.5
-10405.8
-10416.1
-10426.4
-10436.7
-10447
-10457.3
-10467.6
-10477.9
-10488.2
-10498.5
-10508.8
-10519.1
-10529.4
-10539.7
-10550
-10560.3
-10570.6
-10580.9
-10591.2
-10601.5
-10611.8
-10622.1
-10632.4
-10642.7
-10653
-10663.3
-10673.6
-10683.9
-10694.2
-10704.5
-10714.8
-10725.1
-10735.4
-10745.7
-10756
-10766.3
-10776.6
-10786.9
-10797.2
-10807.5
-10817.8
-10828.1
-10838.4
-10848.7
-10859
-10869.3
-10879.5
-10889.8
-10900.1
-10910.4
-10920.7
-10931
-10941.3
-10951.6
-10961.9
-10972.2
-10982.5
-10992.8
-11003
-11013.3
-11023.6
-11033.9
-11044.2
-11054.5
-11064.8
-11075.1
-11085.4
-11095.6
-11105.9
-11116.2
-11126.5
-11136.8
-11147.1
-11157.4
-11167.6
-11177.9
-11188.2
-11198.5
-11208.8
-11219.1
-11229.4
-11239.6
-11249.9
-11260.2
-11270.5
-11280.8
-11291.1
-11301.3
-11311.6
-11321.9
-11332.2
-11342.5
-11352.7
-11363
-11373.3
-11383.6
-11393.9
-11404.1
-11414.4
-11424.7
-11435
-11445.3
-11455.5
-11465.8
-11476.1
-11486.4
-11496.6
-11506.9
-11517.2
-11527.5
-11537.7
-11548
-11558.3
-11568.6
-11578.8
-11589.1
-11599.4
-11609.7
-11619.9
-11630.2
-11640.5
-11650.8
-11661
-11671.3
-11681.6
-11691.8
-11702.1
-11712.4
-11722.7
-11732.9
-11743.2
-11753.5
-11763.7
-11774
-11784.3
-11794.5
-11804.8
-11815.1
-11825.3
-11835.6
-11845.9
-11856.1
-11866.4
-11876.7
-11886.9
-11897.2
-11907.5
-11917.7
-11928
-11938.3
-11948.5
-11958.8
-11969.1
-11979.3
-11989.6
-11999.8
-12010.1
-12020.4
-12030.6
-12040.9
-12051.1
-12061.4
-12071.7
-12081.9
-12092.2
-12102.4
-12112.7
-12123
-12133.2
-12143.5
-12153.7
-12164
-12174.3
-12184.5
-12194.8
-12205
-12215.3
-12225.5
-12235.8
-12246
-12256.3
-12266.6
-12276.8
-12287.1
-12297.3
-12307.6
-12317.8
-12328.1
-12338.3
-12348.6
-12358.8
-12369.1
-12379.3
-12389.6
-12399.8
-12410.1
-12420.3
-12430.6
-12440.8
-12451.1
-12461.3
-12471.6
-12481.8
-12492.1
-12502.3
-12512.6
-12522.8
-12533.1
-12543.3
-12553.6
-12563.8
-12574.1
-12584.3
-12594.5
-12604.8
-12615
-12625.3
-12635.5
-12645.8
-12656
-12666.3
-12676.5
-12686.7
-12697
-12707.2
-12717.4
-12727.7
-12737.9
-12748.2
-12758.4
-12768.7
-12778.9
-12789.1
-12799.4
-12809.6
-12819.9
-12830
-12840.4
-12850.5
-12860.9
-12871
-12881.1
-12891.5
-12901.7
-12912
-12922.3
-12932.5
-12942.6
-12952.9
-12963.1
-12973.4
-12983.6
-12993.8
-13004
-13014.3
-13024.6
-13034.8
-13045.1
-13055.2
-13065.5
-13075.6
-13086
-13096
-13106.5
-13116.5
-13126.9
-13137.1
-13147.2
-13157.7
-13167.5
-13178.3
-13188
-13198.6
-13208.4
-13219.2
-13228.9
-13239.3
-13249.7
-13259.5
-13270.3
-13279.8
-13291
-13300.2
-13311.1
-13321
-13331.3
-13341.8
-13351.4
-13362.4
-13371.9
-13382.6
-13392.5
-13403.2
-13413
-13423.1
-13434
-13443.1
-13454.6
-13463.7
-13474.7
-13484.4
-13494.9
-13505.2
-13514.8
-13526.3
-13535.1
-13546.5
-13555.6
-13566.6
-13576.7
-13586.3
-13597.6
-13606.4
-13618
-13627.2
-13638.1
-13648.2
-13657.8
-13669.2
-13677.9
-13689.6
-13698.6
-13709.3
-13719.9
-13729
-13740.8
-13749.3
-13760.9
-13770.6
-13780.3
-13791.7
-13800.1
-13812.5
-13820.9
-13831.9
-13842.4
-13851.3
-13863.4
-13871.7
-13883.5
-13892.9
-13902.6
-13914.4
-13922.8
-13934.4
-13943.8
-13954.2
-13965.1
-13973.5
-13986
-13994.1
-14005.6
-14015.8
-14024.7
-14037
-14044.9
-14056.9
-14066.5
-14075.9
-14088
-14095.7
-14108.1
-14117.2
-14127
-14139
-14146.5
-14159.3
-14168.1
-14178
-14190.1
-14197.4
-14210.3
-14219
-14228.9
-14241.1
-14248.3
-14261.3
-14270
-14279.7
-14292.3
-14299.2
-14312.2
-14321.1
-14330.5
-14343.4
-14349.9
-14363.1
-14372.2
-14381
-14394.4
-14401.3
-14413.6
-14423.6
-14431.9
-14445.2
-14452.3
-14464.4
-14474.7
-14482.6
-14496.2
-14503.3
-14514.9
-14526.1
-14533.2
-14547.2
-14554.6
-14565.2
-14577.5
-14584
-14597.6
-14606.2
-14615.4
-14628.8
-14635
-14648
-14658
-14665.6
-14679.8
-14686.4
-14697.9
-14709.7
-14716.1
-14730.4
-14738.2
-14747.8
-14761.2
-14767.1
-14780.4
-14790.2
-14797.7
-14812.2
-14818.7
-14830
-14842.2
-14848.2
-14862.5
-14870.8
-14879.6
-14893.6
-14899.5
-14912.1
-14923
-14929.6
-14944.2
-14951.4
-14961.4
-14974.9
-14980.5
-14994
-15004
-15011
-15025.9
-15032.4
-15042.9
-15056.3
-15061.5
-15075.4
-15085.3
-15092.1
-15107.3
-15113.7
-15124.1
-15137.7
-15142.8
-15156.6
-15166.8
-15173.3
-15188.5
-15195.2
-15205.1
-15219.1
-15224.2
-15237.6
-15248.3
-15254.5
-15269.6
-15276.8
-15286
-15300.5
-15305.5
-15318.4
-15330.1
-15335.3
-15350.6
-15358.8
-15366.3
-15382
-15387.4
-15398.3
-15412.2
-15416.7
-15430.6
-15441.4
-15447
-15462.5
-15470
-15478.5
-15493.4
-15498.8
-15510.5
-15523.3
-15528.4
-15542.7
-15552.4
-15558.9
-15574.4
-15581.1
-15590.3
-15605.2
-15610.1
-15622.2
-15635.2
-15639.7
-15654.2
-15664.4
-15670
-15685.8
-15693.4
-15701.2
-15716.7
-15722.4
-15732.9
-15747
-15751.8
-15764.7
-15776.6
-15781.8
-15796.4
-15805.7
-15812.4
-15827.7
-15834.8
-15843.6
-15858.5
-15864
-15875.1
-15888.7
-15893.5
-15906.8
-15918.5
-15923.5
-15938.3
-15948
-15953.9
-15969.5
-15977.3
-15984.8
-16000.3
-16006.7
-16016
-16030.6
-16036.2
-16047.4
-16060.7
-16065.9
-16078.9
-16090.4
-16096
-16110.2
-16120
-16126.4
-16141.3
-16149.5
-16157
-16172.1
-16179.1
-16187.8
-16202.7
-16208.8
-16218.8
-16233
-16238.6
-16249.8
-16263.1
-16268.6
-16280.9
-16293
-16298.7
-16311.9
-16322.8
-16329
-16342.8
-16352.5
-16359.4
-16373.6
-16382.3
-16390
-16404.3
-16412.1
-16420.6
-16434.8
-16441.9
-16451.3
-16465.2
-16471.8
-16482
-16495.5
-16501.9
-16512.7
-16525.7
-16532
-16543.4
-16555.8
-16562.1
-16574.1
-16585.8
-16592.4
-16604.9
-16615.8
-16622.5
-16635.6
-16645.9
-16652.7
-16666.2
-16676
-16682.9
-16696.7
-16706.2
-16713.2
-16727
-16736.4
-16743.7
-16757.3
-16766.5
-16774.2
-16787.6
-16796.5
-16804.7
-16818
-16826.5
-16835.2
-16848.4
-16856.5
-16865.5
-16878.9
-16886.7
-16895.7
-16909.2
-16917
-16925.9
-16939.4
-16947.4
-16956.2
-16969.5
-16977.7
-16986.6
-16999.6
-17007.9
-17017.1
-17029.8
-17037.9
-17047.6
-17060.2
-17068
-17077.8
-17090.6
-17098.3
-17107.8
-17121
-17128.7
-17137.9
-17151.1
-17159.2
-17168.1
-17181.1
-17189.6
-17198.4
-17211.1
-17219.9
-17228.8
-17241.3
-17250
-17259.1
-17271.6
-17280.2
-17289.3
-17301.9
-17310.5
-17319.2
-17332.2
-17341
-17349.2
-17362.2
-17371.6
-17379.5
-17392
-17402
-17410
-17421.9
-17432.1
-17440.4
-17452.1
-17462.2
-17470.5
-17482.5
-17492.5
-17500.5
-17512.5
-17523.1
-17530.7
-17542.4
-17553.6
-17561.1
-17572.1
-17583.8
-17591.6
-17602.1
-17613.8
-17622.1
-17632.2
-17643.9
-17652.3
-17662.4
-17674.2
-17682.6
-17692.3
-17704.4
-17713
-17722.2
-17734.5
-17743.5
-17752.2
-17764.4
-17774
-17782.4
-17794.2
-17804.4
-17812.7
-17824.2
-17834.6
-17842.9
-17854.2
-17864.9
-17873.1
-17884.1
-17895.3
-17903.4
-17913.9
-17925.5
-17933.9
-17943.7
-17955.6
-17964.4
-17973.7
-17985.5
-17994.8
-18003.8
-18015.4
-18025.1
-18033.9
-18045.4
-18055.4
-18064
-18075.3
-18085.8
-18094.1
-18105.1
-18116.2
-18124.5
-18134.8
-18146.3
-18155
-18164.7
-18176.3
-18185.4
-18194.7
-18206.2
-18215.8
-18224.7
-18236.1
-18246.1
-18254.8
-18266
-18276.4
-18285
-18295.7
-18306.7
-18315.3
-18325.4
-18336.9
-18345.8
-18355.3
-18366.7
-18376.2
-18385.3
-18396.6
-18406.5
-18415.4
-18426.4
-18436.8
-18445.5
-18456.3
-18467
-18475.7
-18486
-18497.2
-18506.1
-18515.7
-18527.2
-18536.6
-18545.6
-18556.8
-18567
-18575.9
-18586.6
-18597.1
-18606.1
-18616.5
-18627.2
-18636.2
-18646.3
-18657.4
-18666.6
-18676
-18687.3
-18697.1
-18705.9
-18716.9
-18727.4
-18736.3
-18746.5
-18757.4
-18766.6
-18776.5
-18787.3
-18796.7
-18806.4
-18817.4
-18827
-18836.1
-18847.2
-18857.5
-18866.2
-18876.6
-18887.6
-18896.7
-18906.4
-18917.4
-18927.1
-18936.4
-18947.2
-18957.1
-18966.4
-18977.1
-18987.4
-18996.4
-19006.7
-19017.6
-19026.7
-19036.3
-19047.4
-19057.3
-19066.3
-19076.9
-19087.3
-19096.6
-19106.8
-19117.3
-19126.6
-19136.6
-19147.4
-19156.8
-19166.3
-19177.2
-19187.3
-19196.2
-19206.7
-19217.4
-19226.6
-19236.4
-19247.1
-19256.8
-19266.4
-19277
-19286.9
-19296.3
-19306.8
-19317.1
-19326.2
-19336.4
-19347.2
-19356.6
-19366
-19376.8
-19386.9
-19396.2
-19406.4
-19416.8
-19426.3
-19436.3
-19446.8
-19456.3
-19466
-19476.7
-19486.6
-19495.8
-19506.3
-19516.8
-19526.1
-19535.9
-19546.5
-19556.3
-19565.8
-19576.3
-19586.3
-19595.7
-19606
-19616.4
-19625.8
-19635.6
-19646.3
-19656
-19665.4
-19675.9
-19686.1
-19695.5
-19705.6
-19716
-19725.6
-19735.3
-19745.9
-19755.7
-19765.1
-19775.5
-19785.8
-19795.2
-19805.1
-19815.6
-19825.4
-19834.9
-19845.4
-19855.4
-19864.8
-19875
-19885.4
-19894.9
-19904.6
-19915.1
-19925.1
-19934.5
-19944.7
-19955
-19964.5
-19974.5
-19984.9
-19994.5
-20004.1
-20014.6
-20024.7
-20034.1
-20044.1
-20054.6
-20064.3
-20073.9
-20084.2
-20094.2
-20103.8
-20114
-20124.1
-20133.6
-20143.5
-20154
-20163.8
-20173.2
-20183.5
-20193.8
-20203.4
-20213.1
-20223.4
-20233.3
-20243
-20253.3
-20263.2
-20272.8
-20282.8
-20293.3
-20302.9
-20312.4
-20322.8
-20332.9
-20342.5
-20352.3
-20362.6
-20372.4
-20382.2
-20392.4
-20402.3
-20411.9
-20422
-20432.3
-20441.8
-20451.5
-20461.9
-20472
-20481.5
-20491.4
-20501.6
-20511.4
-20521.2
-20531.4
-20541.2
-20550.9
-20561.1
-20571.3
-20580.8
-20590.5
-20600.9
-20610.9
-20620.4
-20630.3
-20640.5
-20650.3
-20660.2
-20670.3
-20680.1
-20689.8
-20699.9
-20710.1
-20719.7
-20729.4
-20739.7
-20749.7
-20759.3
-20769.2
-20779.4
-20789.2
-20798.9
-20809.1
-20819
-20828.6
-20838.7
-20848.9
-20858.5
-20868.2
-20878.4
-20888.5
-20898
-20907.9
-20918.1
-20928
-20937.7
-20947.7
-20957.7
-20967.4
-20977.4
-20987.5
-20997.2
-21006.9
-21017
-21027.2
-21036.8
-21046.5
-21056.7
-21066.6
-21076.3
-21086.3
-21096.3
-21106
-21115.9
-21126.1
-21135.9
-21145.5
-21155.5
-21165.7
-21175.4
-21185.1
-21195.2
-21205.1
-21214.9
-21224.8
-21234.9
-21244.6
-21254.3
-21264.5
-21274.5
-21284.1
-21293.9
-21304.1
-21314
-21323.6
-21333.5
-21343.6
-21353.3
-21363.2
-21373.3
-21383.1
-21392.7
-21402.7
-21412.9
-21422.6
-21432.3
-21442.3
-21452.3
-21462
-21471.9
-21481.9
-21491.7
-21501.4
-21511.5
-21521.5
-21531.2
-21540.9
-21551
-21560.9
-21570.6
-21580.5
-21590.5
-21600.3
-21610.1
-21620.1
-21630
-21639.7
-21649.5
-21659.6
-21669.5
-21679.2
-21689.1
-21699.1
-21708.8
-21718.6
-21728.6
-21738.6
-21748.3
-21758.1
-21768.1
-21777.9
-21787.7
-21797.6
-21807.6
-21817.3
-21827.1
-21837.1
-21847.1
-21856.7
-21866.5
-21876.5
-21886.4
-21896.2
-21906
-21915.9
-21925.7
-21935.5
-21945.6
-21955.4
-21965.1
-21974.9
-21984.9
-21994.8
-22004.6
-22014.4
-22024.3
-22034.1
-22043.9
-22053.9
-22063.7
-22073.4
-22083.2
-22093.3
-22103.2
-22112.8
-22122.6
-22132.6
-22142.4
-22152.3
-22162.2
-22171.9
-22181.6
-22191.5
-22201.6
-22211.4
-22221
-22230.8
-22240.8
-22250.7
-22260.5
-22270.3
-22280.1
-22289.9
-22299.8
-22309.8
-22319.6
-22329.2
-22339
-22349
-22358.9
-22368.7
-22378.4
-22388.2
-22398.1
-22407.9
-22417.9
-22427.7
-22437.3
-22447.1
-22457.1
-22467.1
-22476.7
-22486.5
-22496.3
-22506.2
-22516
-22525.9
-22535.7
-22545.4
-22555.1
-22565.1
-22575.1
-22584.8
-22594.5
-22604.3
-22614.2
-22624
-22633.9
-22643.7
-22653.4
-22663.1
-22673.1
-22683
-22692.7
-22702.4
-22712.3
-22722.2
-22732
-22741.8
-22751.6
-22761.3
-22771.1
-22781
-22790.9
-22800.6
-22810.3
-22820.1
-22830
-22839.9
-22849.6
-22859.4
-22869.2
-22879
-22888.8
-22898.7
-22908.5
-22918.2
-22927.9
-22937.8
-22947.7
-22957.4
-22967.2
-22977
-22986.8
-22996.5
-23006.4
-23016.3
-23026
-23035.7
-23045.5
-23055.4
-23065.1
-23074.9
-23084.7
-23094.5
-23104.2
-23114
-23123.9
-23133.7
-23143.4
-23153.2
-23163
-23172.8
-23182.5
-23192.4
-23202.2
-23211.9
-23221.6
-23231.4
-23241.3
-23251.1
-23260.8
-23270.6
-23280.4
-23290.1
-23299.8
-23309.8
-23319.6
-23329.3
-23339
-23348.7
-23358.5
-23368.3
-23378.2
-23388
-23397.7
-23407.3
-23417.1
-23427
-23436.9
-23446.6
-23456.3
-23466
-23475.7
-23485.6
-23495.5
-23505.2
-23514.8
-23524.5
-23534.3
-23544.2
-23554
-23563.7
-23573.4
-23583.1
-23592.8
-23602.7
-23612.6
-23622.3
-23631.9
-23641.6
-23651.4
-23661.3
-23671.1
-23680.8
-23690.5
-23700.2
-23709.9
-23719.8
-23729.6
-23739.4
-23749
-23758.7
-23768.5
-23778.3
-23788.1
-23797.8
-23807.5
-23817.2
-23826.9
-23836.7
-23846.6
-23856.3
-23866
-23875.7
-23885.4
-23895.2
-23905
-23914.8
-23924.5
-23934.1
-23943.8
-23953.6
-23963.4
-23973.2
-23982.9
-23992.6
-24002.2
-24011.9
-24021.8
-24031.6
-24041.3
-24050.9
-24060.6
-24070.4
-24080.1
-24089.9
-24099.7
-24109.4
-24119
-24128.7
-24138.5
-24148.3
-24158
-24167.7
-24177.4
-24187.1
-24196.8
-24206.5
-24216.3
-24226.1
-24235.7
-24245.4
-24255.1
-24264.9
-24274.6
-24284.3
-24294.1
-24303.8
-24313.4
-24323.1
-24332.9
-24342.6
-24352.3
-24362
-24371.7
-24381.4
-24391.1
-24400.8
-24410.6
-24420.3
-24430
-24439.7
-24449.4
-24459.1
-24468.8
-24478.5
-24488.3
-24498
-24507.6
-24517.3
-24527
-24536.7
-24546.4
-24556.1
-24565.9
-24575.5
-24585.2
-24594.8
-24604.6
-24614.3
-24624
-24633.7
-24643.4
-24653
-24662.7
-24672.4
-24682.2
-24691.9
-24701.5
-24711.2
-24720.9
-24730.5
-24740.2
-24750
-24759.7
-24769.4
-24779
-24788.6
-24798.3
-24808.1
-24817.8
-24827.4
-24837.1
-24846.8
-24856.4
-24866.1
-24875.8
-24885.5
-24895.2
-24904.8
-24914.5
-24924.2
-24933.8
-24943.5
-24953.2
-24962.9
-24972.5
-24982.2
-24991.9
-25001.6
-25011.2
-25020.9
-25030.6
-25040.2
-25049.9
-25059.5
-25069.2
-25078.9
-25088.6
-25098.2
-25107.9
-25117.5
-25127.2
-25136.9
-25146.6
-25156.2
-25165.8
-25175.5
-25185.1
-25194.8
-25204.5
-25214.2
-25223.8
-25233.5
-25243.1
-25252.7
-25262.4
-25272.1
-25281.8
-25291.4
-25301
-25310.6
-25320.3
-25329.9
-25339.6
-25349.3
-25358.9
-25368.5
-25378.1
-25387.8
-25397.5
-25407.1
-25416.8
-25426.5
-25436.1
-25445.6
-25455.3
-25464.9
-25474.6
-25484.3
-25493.9
-25503.5
-25513.1
-25522.7
-25532.4
-25542
-25551.7
-25561.3
-25571
-25580.6
-25590.2
-25599.8
-25609.4
-25619.1
-25628.7
-25638.4
-25648
-25657.6
-25667.2
-25676.8
-25686.5
-25696.1
-25705.7
-25715.4
-25725
-25734.6
-25744.2
-25753.8
-25763.4
-25773.1
-25782.7
-25792.3
-25801.9
-25811.5
-25821.1
-25830.7
-25840.4
-25850
-25859.6
-25869.2
-25878.8
-25888.4
-25898
-25907.6
-25917.2
-25926.9
-25936.5
-25946.1
-25955.7
-25965.3
-25974.9
-25984.5
-25994.1
-26003.7
-26013.3
-26022.9
-26032.5
-26042.1
-26051.7
-26061.3
-26070.9
-26080.5
-26090.1
-26099.7
-26109.3
-26118.9
-26128.4
-26138
-26147.6
-26157.2
-26166.8
-26176.4
-26186
-26195.6
-26205.2
-26214.7
-26224.3
-26233.9
-26243.5
-26253.1
-26262.7
-26272.3
-26281.9
-26291.4
-26301
-26310.6
-26320.2
-26329.8
-26339.3
-26348.9
-26358.5
-26368.1
-26377.6
-26387.2
-26396.8
-26406.4
-26416
-26425.5
-26435.1
-26444.7
-26454.2
-26463.8
-26473.4
-26482.9
-26492.5
-26502.1
-26511.6
-26521.2
-26530.8
-26540.4
-26549.9
-26559.5
-26569
-26578.6
-26588.1
-26597.7
-26607.3
-26616.8
-26626.4
-26636
-26645.5
-26655.1
-26664.6
-26674.2
-26683.7
-26693.3
-26702.9
-26712.4
-26722
-26731.5
-26741
-26750.6
-26760.1
-26769.7
-26779.2
-26788.8
-26798.3
-26807.9
-26817.4
-26826.9
-26836.5
-26846
-26855.6
-26865.1
-26874.7
-26884.2
-26893.8
-26903.3
-26912.8
-26922.4
-26931.9
-26941.4
-26951
-26960.5
-26970
-26979.5
-26989.1
-26998.6
-27008.1
-27017.7
-27027.3
-27036.8
-27046.3
-27055.8
-27065.3
-27074.8
-27084.3
-27093.9
-27103.4
-27113
-27122.5
-27132
-27141.5
-27151
-27160.6
-27170.1
-27179.6
-27189.1
-27198.7
-27208.2
-27217.7
-27227.2
-27236.7
-27246.2
-27255.7
-27265.2
-27274.7
-27284.3
-27293.8
-27303.3
-27312.8
-27322.3
-27331.8
-27341.3
-27350.8
-27360.3
-27369.8
-27379.3
-27388.8
-27398.3
-27407.8
-27417.3
-27426.8
-27436.3
-27445.8
-27455.3
-27464.8
-27474.3
-27483.8
-27493.3
-27502.8
-27512.3
-27521.8
-27531.3
-27540.8
-27550.3
-27559.8
-27569.3
-27578.7
-27588.2
-27597.7
-27607.2
-27616.7
-27626.2
-27635.7
-27645.2
-27654.6
-27664.1
-27673.6
-27683.1
-27692.5
-27702
-27711.5
-27721
-27730.5
-27740
-27749.5
-27758.9
-27768.4
-27777.9
-27787.3
-27796.8
-27806.3
-27815.7
-27825.2
-27834.7
-27844.2
-27853.7
-27863.1
-27872.6
-27882
-27891.4
-27900.9
-27910.4
-27919.8
-27929.3
-27938.8
-27948.3
-27957.8
-27967.2
-27976.6
-27986.1
-27995.5
-28004.9
-28014.4
-28023.9
-28033.4
-28042.9
-28052.3
-28061.8
-28071.2
-28080.7
-28090.1
-28099.5
-28108.9
-28118.4
-28127.9
-28137.3
-28146.8
-28156.3
-28165.7
-28175.2
-28184.6
-28194
-28203.4
-28212.9
-28222.3
-28231.8
-28241.2
-28250.7
-28260.2
-28269.6
-28279
-28288.4
-28297.8
-28307.2
-28316.6
-28326.1
-28335.5
-28345
-28354.5
-28363.9
-28373.4
-28382.8
-28392.1
-28401.5
-28410.9
-28420.3
-28429.7
-28439.2
-28448.7
-28458.2
-28467.6
-28477.1
-28486.5
-28495.8
-28505.2
-28514.6
-28523.9
-28533.3
-28542.8
-28552.2
-28561.7
-28571.2
-28580.6
-28590.1
-28599.5
-28608.8
-28618.2
-28627.5
-28636.9
-28646.3
-28655.7
-28665.2
-28674.6
-28684.1
-28693.5
-28702.9
-28712.3
-28721.6
-28731
-28740.4
-28749.8
-28759.2
-28768.6
-28778
-28787.4
-28796.9
-28806.3
-28815.7
-28825.1
-28834.4
-28843.8
-28853.1
-28862.5
-28871.9
-28881.3
-28890.7
-28900.1
-28909.6
-28919
-28928.4
-28937.7
-28947.1
-28956.4
-28965.8
-28975.1
-28984.5
-28993.9
-29003.3
-29012.7
-29022.1
-29031.5
-29040.9
-29050.3
-29059.7
-29069.1
-29078.4
-29087.7
-29097.1
-29106.4
-29115.8
-29125.1
-29134.5
-29143.9
-29153.3
-29162.7
-29172.1
-29181.5
-29190.8
-29200.2
-29209.5
-29218.8
-29228.2
-29237.5
-29246.9
-29256.3
-29265.6
-29275
-29284.4
-29293.8
-29303.1
-29312.5
-29321.8
-29331.2
-29340.5
-29349.9
-29359.2
-29368.5
-29377.9
-29387.2
-29396.6
-29406
-29415.3
-29424.7
-29434
-29443.4
-29452.7
-29462.1
-29471.4
-29480.7
-29490
-29499.4
-29508.7
-29518
-29527.4
-29536.7
-29546.1
-29555.4
-29564.8
-29574.1
-29583.5
-29592.8
-29602.1
-29611.4
-29620.8
-29630.1
-29639.3
-29648.6
-29658
-29667.3
-29676.6
-29685.9
-29695.3
-29704.7
-29714
-29723.4
-29732.8
-29742.1
-29751.5
-29760.8
-29770.1
-29779.4
-29788.6
-29797.9
-29807.2
-29816.4
-29825.7
-29835
-29844.3
-29853.6
-29863
-29872.3
-29881.6
-29891
-29900.3
-29909.7
-29919
-29928.3
-29937.6
-29946.9
-29956.1
-29965.4
-29974.7
-29983.9
-29993.2
-30002.5
-30011.8
-30021.2
-30030.5
-30039.8
-30049.2
-30058.5
-30067.8
-30077.2
-30086.5
-30095.8
-30105
-30114.3
-30123.5
-30132.8
-30142
-30151.3
-30160.5
-30169.8
-30179.1
-30188.4
-30197.7
-30207
-30216.3
-30225.6
-30234.9
-30244.2
-30253.5
-30262.8
-30272.1
-30281.3
-30290.6
-30299.8
-30309.1
-30318.3
-30327.6
-30336.8
-30346.1
-30355.4
-30364.6
-30373.9
-30383.2
-30392.5
-30401.9
-30411.2
-30420.5
-30429.8
-30439
-30448.3
-30457.6
-30466.8
-30476.1
-30485.3
-30494.5
-30503.8
-30513
-30522.2
-30531.5
-30540.7
-30550
-30559.2
-30568.5
-30577.7
-30587
-30596.3
-30605.5
-30614.8
-30624
-30633.3
-30642.6
-30651.8
-30661
-30670.3
-30679.5
-30688.7
-30697.9
-30707.1
-30716.3
-30725.5
-30734.7
-30743.9
-30753.1
-30762.4
-30771.6
-30780.8
-30790
-30799.2
-30808.4
-30817.6
-30826.8
-30836
-30845.2
-30854.4
-30863.6
-30872.8
-30882
-30891.2
-30900.4
-30909.6
-30918.8
-30928
-30937.2
-30946.4
-30955.6
-30964.9
-30974.1
-30983.3
-30992.5
-31001.8
-31011
-31020.3
-31029.5
-31038.8
-31048.1
-31057.3
-31066.6
-31075.8
-31085.1
-31094.4
-31103.6
-31112.9
-31122.1
-31131.4
-31140.6
-31149.9
-31159.1
-31168.3
-31177.6
-31186.8
-31196
-31205.2
-31214.4
-31223.6
-31232.8
-31242
-31251.2
-31260.4
-31269.5
-31278.7
-31287.9
-31297.1
-31306.2
-31315.4
-31324.6
-31333.7
-31342.9
-31352.1
-31361.3
-31370.4
-31379.6
-31388.8
-31397.9
-31407.1
-31416.3
-31425.4
-31434.6
-31443.8
-31452.9
-31462.1
-31471.3
-31480.4
-31489.6
-31498.8
-31507.9
-31517.1
-31526.3
-31535.4
-31544.6
-31553.7
-31562.9
-31572.1
-31581.2
-31590.4
-31599.6
-31608.7
-31617.9
-31627
-31636.2
-31645.3
-31654.5
-31663.7
-31672.8
-31682
-31691.1
-31700.3
-31709.4
-31718.6
-31727.7
-31736.9
-31746
-31755.2
-31764.3
-31773.5
-31782.6
-31791.8
-31800.9
-31810
-31819.2
-31828.3
-31837.5
-31846.6
-31855.7
-31864.9
-31874
-31883.2
-31892.3
-31901.4
-31910.6
-31919.7
-31928.8
-31938
-31947.1
-31956.2
-31965.4
-31974.5
-31983.6
-31992.7
-32001.9
-32011
-32020.1
-32029.2
-32038.4
-32047.5
-32056.6
-32065.7
-32074.8
-32084
-32093.1
-32102.2
-32111.3
-32120.4
-32129.5
-32138.6
-32147.8
-32156.9
-32166
-32175.1
-32184.2
-32193.3
-32202.4
-32211.5
-32220.6
-32229.7
-32238.8
-32247.9
-32257
-32266.1
-32275.2
-32284.3
-32293.4
-32302.5
-32311.6
-32320.7
-32329.8
-32338.9
-32348
-32357.1
-32366.2
-32375.3
-32384.4
-32393.5
-32402.6
-32411.7
-32420.7
-32429.8
-32438.9
-32448
-32457.1
-32466.2
-32475.2
-32484.3
-32493.4
-32502.5
-32511.6
-32520.6
-32529.7
-32538.8
-32547.9
-32556.9
-32566
-32575.1
-32584.2
-32593.2
-32602.3
-32611.4
-32620.4
-32629.5
-32638.6
-32647.6
-32656.7
-32665.8
-32674.8
-32683.9
-32693
-32702
-32711.1
-32720.1
-32729.2
-32738.3
-32747.3
-32756.4
-32765.4
-32774.5
-32783.5
-32792.6
-32801.6
-32810.7
-32819.7
-32828.8
-32837.8
-32846.9
-32855.9
-32865
-32874
-32883.1
-32892.1
-32901.1
-32910.2
-32919.2
-32928.3
-32937.3
-32946.3
-32955.4
-32964.4