/*--------------------------------*- C++ -*----------------------------------*\
  =========                 |
  \\      /  F ield         | OpenFOAM: The Open Source CFD Toolbox
   \\    /   O peration     | Website:  https://openfoam.org
    \\  /    A nd           | Version:  9
     \\/     M anipulation  |
\*---------------------------------------------------------------------------*/
FoamFile
{
    format      ascii;
    class       volScalarField;
    location    "0.024";
    object      p;
}
// * * * * * * * * * * * * * * * * * * * * * * * * * * * * * * * * * * * * * //

dimensions      [1 -1 -2 0 0 0 0];

internalField   nonuniform List<scalar> 
10000
(
28957.1
28956.8
28956.6
28956.3
28956.1
28955.9
28955.7
28955.5
28955.3
28955.1
28954.8
28954.6
28954.4
28954.2
28954
28953.7
28953.5
28953.3
28953.1
28952.9
28952.7
28952.4
28952.2
28952
28951.8
28951.6
28951.3
28951.1
28950.9
28950.7
28950.5
28950.2
28950
28949.8
28949.6
28949.4
28949.1
28948.9
28948.7
28948.5
28948.3
28948
28947.8
28947.6
28947.4
28947.2
28946.9
28946.7
28946.5
28946.3
28946
28945.8
28945.6
28945.4
28945.2
28944.9
28944.7
28944.5
28944.3
28944
28943.8
28943.6
28943.4
28943.1
28942.9
28942.7
28942.5
28942.2
28942
28941.8
28941.6
28941.3
28941.1
28940.9
28940.7
28940.4
28940.2
28940
28939.8
28939.5
28939.3
28939.1
28938.9
28938.6
28938.4
28938.2
28938
28937.7
28937.5
28937.3
28937
28936.8
28936.6
28936.4
28936.1
28935.9
28935.7
28935.5
28935.2
28935
28934.8
28934.5
28934.3
28934.1
28933.8
28933.6
28933.4
28933.2
28932.9
28932.7
28932.5
28932.2
28932
28931.8
28931.5
28931.3
28931.1
28930.9
28930.6
28930.4
28930.2
28929.9
28929.7
28929.5
28929.2
28929
28928.8
28928.5
28928.3
28928.1
28927.8
28927.6
28927.4
28927.1
28926.9
28926.7
28926.4
28926.2
28926
28925.7
28925.5
28925.3
28925
28924.8
28924.6
28924.3
28924.1
28923.9
28923.6
28923.4
28923.2
28922.9
28922.7
28922.4
28922.2
28922
28921.7
28921.5
28921.3
28921
28920.8
28920.6
28920.3
28920.1
28919.8
28919.6
28919.4
28919.1
28918.9
28918.7
28918.4
28918.2
28917.9
28917.7
28917.5
28917.2
28917
28916.7
28916.5
28916.3
28916
28915.8
28915.5
28915.3
28915.1
28914.8
28914.6
28914.3
28914.1
28913.9
28913.6
28913.4
28913.1
28912.9
28912.7
28912.4
28912.2
28911.9
28911.7
28911.4
28911.2
28911
28910.7
28910.5
28910.2
28910
28909.7
28909.5
28909.3
28909
28908.8
28908.5
28908.3
28908
28907.8
28907.6
28907.3
28907.1
28906.8
28906.6
28906.3
28906.1
28905.8
28905.6
28905.4
28905.1
28904.9
28904.6
28904.4
28904.1
28903.9
28903.6
28903.4
28903.1
28902.9
28902.6
28902.4
28902.1
28901.9
28901.7
28901.4
28901.2
28900.9
28900.7
28900.4
28900.2
28899.9
28899.7
28899.4
28899.2
28898.9
28898.7
28898.4
28898.2
28897.9
28897.7
28897.4
28897.2
28896.9
28896.7
28896.4
28896.2
28895.9
28895.7
28895.4
28895.2
28894.9
28894.7
28894.4
28894.2
28893.9
28893.7
28893.4
28893.2
28892.9
28892.7
28892.4
28892.2
28891.9
28891.6
28891.4
28891.1
28890.9
28890.6
28890.4
28890.1
28889.9
28889.6
28889.4
28889.1
28888.9
28888.6
28888.3
28888.1
28887.8
28887.6
28887.3
28887.1
28886.8
28886.6
28886.3
28886.1
28885.8
28885.5
28885.3
28885
28884.8
28884.5
28884.3
28884
28883.7
28883.5
28883.2
28883
28882.7
28882.5
28882.2
28881.9
28881.7
28881.4
28881.2
28880.9
28880.7
28880.4
28880.1
28879.9
28879.6
28879.4
28879.1
28878.8
28878.6
28878.3
28878.1
28877.8
28877.5
28877.3
28877
28876.8
28876.5
28876.2
28876
28875.7
28875.5
28875.2
28874.9
28874.7
28874.4
28874.1
28873.9
28873.6
28873.4
28873.1
28872.8
28872.6
28872.3
28872
28871.8
28871.5
28871.3
28871
28870.7
28870.5
28870.2
28869.9
28869.7
28869.4
28869.1
28868.9
28868.6
28868.3
28868.1
28867.8
28867.5
28867.3
28867
28866.8
28866.5
28866.2
28866
28865.7
28865.4
28865.2
28864.9
28864.6
28864.4
28864.1
28863.8
28863.6
28863.3
28863
28862.8
28862.5
28862.2
28861.9
28861.7
28861.4
28861.1
28860.9
28860.6
28860.3
28860.1
28859.8
28859.5
28859.3
28859
28858.7
28858.4
28858.2
28857.9
28857.6
28857.4
28857.1
28856.8
28856.6
28856.3
28856
28855.7
28855.5
28855.2
28854.9
28854.7
28854.4
28854.1
28853.8
28853.6
28853.3
28853
28852.7
28852.5
28852.2
28851.9
28851.7
28851.4
28851.1
28850.8
28850.6
28850.3
28850
28849.7
28849.5
28849.2
28848.9
28848.6
28848.4
28848.1
28847.8
28847.5
28847.3
28847
28846.7
28846.4
28846.2
28845.9
28845.6
28845.3
28845.1
28844.8
28844.5
28844.2
28843.9
28843.7
28843.4
28843.1
28842.8
28842.6
28842.3
28842
28841.7
28841.4
28841.2
28840.9
28840.6
28840.3
28840.1
28839.8
28839.5
28839.2
28838.9
28838.7
28838.4
28838.1
28837.8
28837.5
28837.3
28837
28836.7
28836.4
28836.1
28835.9
28835.6
28835.3
28835
28834.7
28834.4
28834.2
28833.9
28833.6
28833.3
28833
28832.8
28832.5
28832.2
28831.9
28831.6
28831.3
28831.1
28830.8
28830.5
28830.2
28829.9
28829.6
28829.4
28829.1
28828.8
28828.5
28828.2
28827.9
28827.6
28827.4
28827.1
28826.8
28826.5
28826.2
28825.9
28825.6
28825.4
28825.1
28824.8
28824.5
28824.2
28823.9
28823.6
28823.4
28823.1
28822.8
28822.5
28822.2
28821.9
28821.6
28821.3
28821.1
28820.8
28820.5
28820.2
28819.9
28819.6
28819.3
28819
28818.7
28818.5
28818.2
28817.9
28817.6
28817.3
28817
28816.7
28816.4
28816.1
28815.8
28815.6
28815.3
28815
28814.7
28814.4
28814.1
28813.8
28813.5
28813.2
28812.9
28812.6
28812.3
28812.1
28811.8
28811.5
28811.2
28810.9
28810.6
28810.3
28810
28809.7
28809.4
28809.1
28808.8
28808.5
28808.2
28807.9
28807.7
28807.4
28807.1
28806.8
28806.5
28806.2
28805.9
28805.6
28805.3
28805
28804.7
28804.4
28804.1
28803.8
28803.5
28803.2
28802.9
28802.6
28802.3
28802
28801.7
28801.4
28801.1
28800.8
28800.5
28800.2
28799.9
28799.6
28799.4
28799.1
28798.8
28798.5
28798.2
28797.9
28797.6
28797.3
28797
28796.7
28796.4
28796.1
28795.8
28795.5
28795.2
28794.9
28794.6
28794.3
28794
28793.7
28793.4
28793.1
28792.8
28792.5
28792.2
28791.9
28791.5
28791.2
28790.9
28790.6
28790.3
28790
28789.7
28789.4
28789.1
28788.8
28788.5
28788.2
28787.9
28787.6
28787.3
28787
28786.7
28786.4
28786.1
28785.8
28785.5
28785.2
28784.9
28784.6
28784.3
28784
28783.7
28783.3
28783
28782.7
28782.4
28782.1
28781.8
28781.5
28781.2
28780.9
28780.6
28780.3
28780
28779.7
28779.4
28779.1
28778.7
28778.4
28778.1
28777.8
28777.5
28777.2
28776.9
28776.6
28776.3
28776
28775.7
28775.4
28775
28774.7
28774.4
28774.1
28773.8
28773.5
28773.2
28772.9
28772.6
28772.3
28771.9
28771.6
28771.3
28771
28770.7
28770.4
28770.1
28769.8
28769.5
28769.1
28768.8
28768.5
28768.2
28767.9
28767.6
28767.3
28767
28766.6
28766.3
28766
28765.7
28765.4
28765.1
28764.8
28764.4
28764.1
28763.8
28763.5
28763.2
28762.9
28762.6
28762.2
28761.9
28761.6
28761.3
28761
28760.7
28760.4
28760
28759.7
28759.4
28759.1
28758.8
28758.5
28758.1
28757.8
28757.5
28757.2
28756.9
28756.6
28756.2
28755.9
28755.6
28755.3
28755
28754.6
28754.3
28754
28753.7
28753.4
28753
28752.7
28752.4
28752.1
28751.8
28751.5
28751.1
28750.8
28750.5
28750.2
28749.9
28749.5
28749.2
28748.9
28748.6
28748.2
28747.9
28747.6
28747.3
28747
28746.6
28746.3
28746
28745.7
28745.4
28745
28744.7
28744.4
28744.1
28743.7
28743.4
28743.1
28742.8
28742.4
28742.1
28741.8
28741.5
28741.1
28740.8
28740.5
28740.2
28739.8
28739.5
28739.2
28738.9
28738.5
28738.2
28737.9
28737.6
28737.2
28736.9
28736.6
28736.3
28735.9
28735.6
28735.3
28735
28734.6
28734.3
28734
28733.7
28733.3
28733
28732.7
28732.3
28732
28731.7
28731.4
28731
28730.7
28730.4
28730
28729.7
28729.4
28729.1
28728.7
28728.4
28728.1
28727.7
28727.4
28727.1
28726.7
28726.4
28726.1
28725.8
28725.4
28725.1
28724.8
28724.4
28724.1
28723.8
28723.4
28723.1
28722.8
28722.4
28722.1
28721.8
28721.4
28721.1
28720.8
28720.4
28720.1
28719.8
28719.4
28719.1
28718.8
28718.4
28718.1
28717.8
28717.4
28717.1
28716.8
28716.4
28716.1
28715.8
28715.4
28715.1
28714.8
28714.4
28714.1
28713.7
28713.4
28713.1
28712.7
28712.4
28712.1
28711.7
28711.4
28711.1
28710.7
28710.4
28710
28709.7
28709.4
28709
28708.7
28708.4
28708
28707.7
28707.3
28707
28706.7
28706.3
28706
28705.6
28705.3
28705
28704.6
28704.3
28703.9
28703.6
28703.3
28702.9
28702.6
28702.2
28701.9
28701.6
28701.2
28700.9
28700.5
28700.2
28699.9
28699.5
28699.2
28698.8
28698.5
28698.1
28697.8
28697.5
28697.1
28696.8
28696.4
28696.1
28695.7
28695.4
28695.1
28694.7
28694.4
28694
28693.7
28693.3
28693
28692.7
28692.3
28692
28691.6
28691.3
28690.9
28690.6
28690.2
28689.9
28689.5
28689.2
28688.9
28688.5
28688.2
28687.8
28687.5
28687.1
28686.8
28686.4
28686.1
28685.7
28685.4
28685
28684.7
28684.3
28684
28683.6
28683.3
28682.9
28682.6
28682.2
28681.9
28681.5
28681.2
28680.9
28680.5
28680.2
28679.8
28679.5
28679.1
28678.8
28678.4
28678
28677.7
28677.3
28677
28676.6
28676.3
28675.9
28675.6
28675.2
28674.9
28674.5
28674.2
28673.8
28673.5
28673.1
28672.8
28672.4
28672.1
28671.7
28671.4
28671
28670.7
28670.3
28669.9
28669.6
28669.2
28668.9
28668.5
28668.2
28667.8
28667.5
28667.1
28666.8
28666.4
28666
28665.7
28665.3
28665
28664.6
28664.3
28663.9
28663.6
28663.2
28662.8
28662.5
28662.1
28661.8
28661.4
28661.1
28660.7
28660.3
28660
28659.6
28659.3
28658.9
28658.5
28658.2
28657.8
28657.5
28657.1
28656.8
28656.4
28656
28655.7
28655.3
28655
28654.6
28654.2
28653.9
28653.5
28653.2
28652.8
28652.4
28652.1
28651.7
28651.4
28651
28650.6
28650.3
28649.9
28649.5
28649.2
28648.8
28648.5
28648.1
28647.7
28647.4
28647
28646.6
28646.3
28645.9
28645.6
28645.2
28644.8
28644.5
28644.1
28643.7
28643.4
28643
28642.6
28642.3
28641.9
28641.5
28641.2
28640.8
28640.4
28640.1
28639.7
28639.3
28639
28638.6
28638.2
28637.9
28637.5
28637.1
28636.8
28636.4
28636
28635.7
28635.3
28634.9
28634.6
28634.2
28633.8
28633.5
28633.1
28632.7
28632.4
28632
28631.6
28631.3
28630.9
28630.5
28630.2
28629.8
28629.4
28629
28628.7
28628.3
28627.9
28627.6
28627.2
28626.8
28626.4
28626.1
28625.7
28625.3
28625
28624.6
28624.2
28623.8
28623.5
28623.1
28622.7
28622.4
28622
28621.6
28621.2
28620.9
28620.5
28620.1
28619.7
28619.4
28619
28618.6
28618.2
28617.9
28617.5
28617.1
28616.8
28616.4
28616
28615.6
28615.2
28614.9
28614.5
28614.1
28613.7
28613.4
28613
28612.6
28612.2
28611.9
28611.5
28611.1
28610.7
28610.4
28610
28609.6
28609.2
28608.8
28608.5
28608.1
28607.7
28607.3
28607
28606.6
28606.2
28605.8
28605.4
28605.1
28604.7
28604.3
28603.9
28603.5
28603.2
28602.8
28602.4
28602
28601.6
28601.3
28600.9
28600.5
28600.1
28599.7
28599.4
28599
28598.6
28598.2
28597.8
28597.4
28597.1
28596.7
28596.3
28595.9
28595.5
28595.1
28594.8
28594.4
28594
28593.6
28593.2
28592.8
28592.5
28592.1
28591.7
28591.3
28590.9
28590.5
28590.2
28589.8
28589.4
28589
28588.6
28588.2
28587.8
28587.5
28587.1
28586.7
28586.3
28585.9
28585.5
28585.1
28584.8
28584.4
28584
28583.6
28583.2
28582.8
28582.4
28582
28581.7
28581.3
28580.9
28580.5
28580.1
28579.7
28579.3
28578.9
28578.5
28578.2
28577.8
28577.4
28577
28576.6
28576.2
28575.8
28575.4
28575
28574.6
28574.3
28573.9
28573.5
28573.1
28572.7
28572.3
28571.9
28571.5
28571.1
28570.7
28570.3
28569.9
28569.6
28569.2
28568.8
28568.4
28568
28567.6
28567.2
28566.8
28566.4
28566
28565.6
28565.2
28564.8
28564.4
28564
28563.6
28563.2
28562.9
28562.5
28562.1
28561.7
28561.3
28560.9
28560.5
28560.1
28559.7
28559.3
28558.9
28558.5
28558.1
28557.7
28557.3
28556.9
28556.5
28556.1
28555.7
28555.3
28554.9
28554.5
28554.1
28553.7
28553.3
28552.9
28552.5
28552.1
28551.7
28551.3
28550.9
28550.5
28550.1
28549.7
28549.3
28548.9
28548.5
28548.1
28547.7
28547.3
28546.9
28546.5
28546.1
28545.7
28545.3
28544.9
28544.5
28544.1
28543.7
28543.3
28542.9
28542.5
28542.1
28541.7
28541.3
28540.9
28540.5
28540.1
28539.7
28539.3
28538.9
28538.5
28538.1
28537.7
28537.3
28536.9
28536.5
28536.1
28535.6
28535.2
28534.8
28534.4
28534
28533.6
28533.2
28532.8
28532.4
28532
28531.6
28531.2
28530.8
28530.4
28530
28529.6
28529.1
28528.7
28528.3
28527.9
28527.5
28527.1
28526.7
28526.3
28525.9
28525.5
28525.1
28524.7
28524.2
28523.8
28523.4
28523
28522.6
28522.2
28521.8
28521.4
28521
28520.6
28520.1
28519.7
28519.3
28518.9
28518.5
28518.1
28517.7
28517.3
28516.9
28516.4
28516
28515.6
28515.2
28514.8
28514.4
28514
28513.6
28513.1
28512.7
28512.3
28511.9
28511.5
28511.1
28510.7
28510.3
28509.8
28509.4
28509
28508.6
28508.2
28507.8
28507.3
28506.9
28506.5
28506.1
28505.7
28505.3
28504.9
28504.4
28504
28503.6
28503.2
28502.8
28502.4
28501.9
28501.5
28501.1
28500.7
28500.3
28499.9
28499.4
28499
28498.6
28498.2
28497.8
28497.3
28496.9
28496.5
28496.1
28495.7
28495.2
28494.8
28494.4
28494
28493.6
28493.1
28492.7
28492.3
28491.9
28491.5
28491
28490.6
28490.2
28489.8
28489.4
28488.9
28488.5
28488.1
28487.7
28487.3
28486.8
28486.4
28486
28485.6
28485.1
28484.7
28484.3
28483.9
28483.4
28483
28482.6
28482.2
28481.8
28481.3
28480.9
28480.5
28480.1
28479.6
28479.2
28478.8
28478.4
28477.9
28477.5
28477.1
28476.7
28476.2
28475.8
28475.4
28474.9
28474.5
28474.1
28473.7
28473.2
28472.8
28472.4
28472
28471.5
28471.1
28470.7
28470.2
28469.8
28469.4
28469
28468.5
28468.1
28467.7
28467.2
28466.8
28466.4
28466
28465.5
28465.1
28464.7
28464.2
28463.8
28463.4
28462.9
28462.5
28462.1
28461.7
28461.2
28460.8
28460.4
28459.9
28459.5
28459.1
28458.6
28458.2
28457.8
28457.3
28456.9
28456.5
28456
28455.6
28455.2
28454.7
28454.3
28453.9
28453.4
28453
28452.6
28452.1
28451.7
28451.3
28450.8
28450.4
28450
28449.5
28449.1
28448.7
28448.2
28447.8
28447.3
28446.9
28446.5
28446
28445.6
28445.2
28444.7
28444.3
28443.9
28443.4
28443
28442.5
28442.1
28441.7
28441.2
28440.8
28440.4
28439.9
28439.5
28439
28438.6
28438.2
28437.7
28437.3
28436.8
28436.4
28436
28435.5
28435.1
28434.6
28434.2
28433.8
28433.3
28432.9
28432.4
28432
28431.6
28431.1
28430.7
28430.2
28429.8
28429.3
28428.9
28428.5
28428
28427.6
28427.1
28426.7
28426.3
28425.8
28425.4
28424.9
28424.5
28424
28423.6
28423.1
28422.7
28422.3
28421.8
28421.4
28420.9
28420.5
28420
28419.6
28419.1
28418.7
28418.3
28417.8
28417.4
28416.9
28416.5
28416
28415.6
28415.1
28414.7
28414.2
28413.8
28413.3
28412.9
28412.4
28412
28411.5
28411.1
28410.7
28410.2
28409.8
28409.3
28408.9
28408.4
28408
28407.5
28407.1
28406.6
28406.2
28405.7
28405.3
28404.8
28404.4
28403.9
28403.5
28403
28402.6
28402.1
28401.7
28401.2
28400.8
28400.3
28399.9
28399.4
28398.9
28398.5
28398
28397.6
28397.1
28396.7
28396.2
28395.8
28395.3
28394.9
28394.4
28394
28393.5
28393.1
28392.6
28392.1
28391.7
28391.2
28390.8
28390.3
28389.9
28389.4
28389
28388.5
28388.1
28387.6
28387.1
28386.7
28386.2
28385.8
28385.3
28384.9
28384.4
28383.9
28383.5
28383
28382.6
28382.1
28381.7
28381.2
28380.7
28380.3
28379.8
28379.4
28378.9
28378.5
28378
28377.5
28377.1
28376.6
28376.2
28375.7
28375.2
28374.8
28374.3
28373.9
28373.4
28372.9
28372.5
28372
28371.6
28371.1
28370.6
28370.2
28369.7
28369.2
28368.8
28368.3
28367.9
28367.4
28366.9
28366.5
28366
28365.5
28365.1
28364.6
28364.2
28363.7
28363.2
28362.8
28362.3
28361.8
28361.4
28360.9
28360.4
28360
28359.5
28359
28358.6
28358.1
28357.7
28357.2
28356.7
28356.3
28355.8
28355.3
28354.9
28354.4
28353.9
28353.5
28353
28352.5
28352.1
28351.6
28351.1
28350.7
28350.2
28349.7
28349.2
28348.8
28348.3
28347.8
28347.4
28346.9
28346.4
28346
28345.5
28345
28344.6
28344.1
28343.6
28343.1
28342.7
28342.2
28341.7
28341.3
28340.8
28340.3
28339.9
28339.4
28338.9
28338.4
28338
28337.5
28337
28336.6
28336.1
28335.6
28335.1
28334.7
28334.2
28333.7
28333.2
28332.8
28332.3
28331.8
28331.3
28330.9
28330.4
28329.9
28329.5
28329
28328.5
28328
28327.6
28327.1
28326.6
28326.1
28325.7
28325.2
28324.7
28324.2
28323.7
28323.3
28322.8
28322.3
28321.8
28321.4
28320.9
28320.4
28319.9
28319.5
28319
28318.5
28318
28317.5
28317.1
28316.6
28316.1
28315.6
28315.1
28314.7
28314.2
28313.7
28313.2
28312.8
28312.3
28311.8
28311.3
28310.8
28310.4
28309.9
28309.4
28308.9
28308.4
28307.9
28307.5
28307
28306.5
28306
28305.5
28305.1
28304.6
28304.1
28303.6
28303.1
28302.6
28302.2
28301.7
28301.2
28300.7
28300.2
28299.7
28299.3
28298.8
28298.3
28297.8
28297.3
28296.8
28296.4
28295.9
28295.4
28294.9
28294.4
28293.9
28293.4
28293
28292.5
28292
28291.5
28291
28290.5
28290
28289.6
28289.1
28288.6
28288.1
28287.6
28287.1
28286.6
28286.1
28285.7
28285.2
28284.7
28284.2
28283.7
28283.2
28282.7
28282.2
28281.7
28281.3
28280.8
28280.3
28279.8
28279.3
28278.8
28278.3
28277.8
28277.3
28276.8
28276.3
28275.9
28275.4
28274.9
28274.4
28273.9
28273.4
28272.9
28272.4
28271.9
28271.4
28270.9
28270.4
28270
28269.5
28269
28268.5
28268
28267.5
28267
28266.5
28266
28265.5
28265
28264.5
28264
28263.5
28263
28262.5
28262
28261.6
28261.1
28260.6
28260.1
28259.6
28259.1
28258.6
28258.1
28257.6
28257.1
28256.6
28256.1
28255.6
28255.1
28254.6
28254.1
28253.6
28253.1
28252.6
28252.1
28251.6
28251.1
28250.6
28250.1
28249.6
28249.1
28248.6
28248.1
28247.6
28247.1
28246.6
28246.1
28245.6
28245.1
28244.6
28244.1
28243.6
28243.1
28242.6
28242.1
28241.6
28241.1
28240.6
28240.1
28239.6
28239.1
28238.6
28238.1
28237.6
28237.1
28236.6
28236.1
28235.6
28235.1
28234.6
28234.1
28233.6
28233.1
28232.6
28232.1
28231.6
28231
28230.5
28230
28229.5
28229
28228.5
28228
28227.5
28227
28226.5
28226
28225.5
28225
28224.5
28224
28223.5
28223
28222.4
28221.9
28221.4
28220.9
28220.4
28219.9
28219.4
28218.9
28218.4
28217.9
28217.4
28216.9
28216.4
28215.8
28215.3
28214.8
28214.3
28213.8
28213.3
28212.8
28212.3
28211.8
28211.3
28210.7
28210.2
28209.7
28209.2
28208.7
28208.2
28207.7
28207.2
28206.7
28206.1
28205.6
28205.1
28204.6
28204.1
28203.6
28203.1
28202.6
28202
28201.5
28201
28200.5
28200
28199.5
28199
28198.4
28197.9
28197.4
28196.9
28196.4
28195.9
28195.4
28194.8
28194.3
28193.8
28193.3
28192.8
28192.3
28191.7
28191.2
28190.7
28190.2
28189.7
28189.2
28188.6
28188.1
28187.6
28187.1
28186.6
28186.1
28185.5
28185
28184.5
28184
28183.5
28182.9
28182.4
28181.9
28181.4
28180.9
28180.4
28179.8
28179.3
28178.8
28178.3
28177.8
28177.2
28176.7
28176.2
28175.7
28175.1
28174.6
28174.1
28173.6
28173.1
28172.5
28172
28171.5
28171
28170.5
28169.9
28169.4
28168.9
28168.4
28167.8
28167.3
28166.8
28166.3
28165.7
28165.2
28164.7
28164.2
28163.6
28163.1
28162.6
28162.1
28161.5
28161
28160.5
28160
28159.4
28158.9
28158.4
28157.9
28157.3
28156.8
28156.3
28155.8
28155.2
28154.7
28154.2
28153.7
28153.1
28152.6
28152.1
28151.5
28151
28150.5
28150
28149.4
28148.9
28148.4
28147.8
28147.3
28146.8
28146.3
28145.7
28145.2
28144.7
28144.1
28143.6
28143.1
28142.6
28142
28141.5
28141
28140.4
28139.9
28139.4
28138.8
28138.3
28137.8
28137.2
28136.7
28136.2
28135.6
28135.1
28134.6
28134
28133.5
28133
28132.4
28131.9
28131.4
28130.8
28130.3
28129.8
28129.2
28128.7
28128.2
28127.6
28127.1
28126.6
28126
28125.5
28125
28124.4
28123.9
28123.4
28122.8
28122.3
28121.8
28121.2
28120.7
28120.1
28119.6
28119.1
28118.5
28118
28117.5
28116.9
28116.4
28115.8
28115.3
28114.8
28114.2
28113.7
28113.2
28112.6
28112.1
28111.5
28111
28110.5
28109.9
28109.4
28108.8
28108.3
28107.8
28107.2
28106.7
28106.1
28105.6
28105.1
28104.5
28104
28103.4
28102.9
28102.4
28101.8
28101.3
28100.7
28100.2
28099.6
28099.1
28098.6
28098
28097.5
28096.9
28096.4
28095.8
28095.3
28094.8
28094.2
28093.7
28093.1
28092.6
28092
28091.5
28090.9
28090.4
28089.9
28089.3
28088.8
28088.2
28087.7
28087.1
28086.6
28086
28085.5
28084.9
28084.4
28083.8
28083.3
28082.8
28082.2
28081.7
28081.1
28080.6
28080
28079.5
28078.9
28078.4
28077.8
28077.3
28076.7
28076.2
28075.6
28075.1
28074.5
28074
28073.4
28072.9
28072.3
28071.8
28071.2
28070.7
28070.1
28069.6
28069
28068.5
28067.9
28067.4
28066.8
28066.3
28065.7
28065.2
28064.6
28064.1
28063.5
28063
28062.4
28061.9
28061.3
28060.7
28060.2
28059.6
28059.1
28058.5
28058
28057.4
28056.9
28056.3
28055.8
28055.2
28054.7
28054.1
28053.5
28053
28052.4
28051.9
28051.3
28050.8
28050.2
28049.7
28049.1
28048.5
28048
28047.4
28046.9
28046.3
28045.8
28045.2
28044.6
28044.1
28043.5
28043
28042.4
28041.9
28041.3
28040.7
28040.2
28039.6
28039.1
28038.5
28037.9
28037.4
28036.8
28036.3
28035.7
28035.1
28034.6
28034
28033.5
28032.9
28032.3
28031.8
28031.2
28030.7
28030.1
28029.5
28029
28028.4
28027.9
28027.3
28026.7
28026.2
28025.6
28025
28024.5
28023.9
28023.4
28022.8
28022.2
28021.7
28021.1
28020.5
28020
28019.4
28018.8
28018.3
28017.7
28017.1
28016.6
28016
28015.5
28014.9
28014.3
28013.8
28013.2
28012.6
28012.1
28011.5
28010.9
28010.4
28009.8
28009.2
28008.7
28008.1
28007.5
28007
28006.4
28005.8
28005.3
28004.7
28004.1
28003.5
28003
28002.4
28001.8
28001.3
28000.7
28000.1
27999.6
27999
27998.4
27997.9
27997.3
27996.7
27996.1
27995.6
27995
27994.4
27993.9
27993.3
27992.7
27992.1
27991.6
27991
27990.4
27989.9
27989.3
27988.7
27988.1
27987.6
27987
27986.4
27985.9
27985.3
27984.7
27984.1
27983.6
27983
27982.4
27981.8
27981.3
27980.7
27980.1
27979.5
27979
27978.4
27977.8
27977.2
27976.7
27976.1
27975.5
27974.9
27974.4
27973.8
27973.2
27972.6
27972.1
27971.5
27970.9
27970.3
27969.7
27969.2
27968.6
27968
27967.4
27966.9
27966.3
27965.7
27965.1
27964.5
27964
27963.4
27962.8
27962.2
27961.6
27961.1
27960.5
27959.9
27959.3
27958.7
27958.2
27957.6
27957
27956.4
27955.8
27955.3
27954.7
27954.1
27953.5
27952.9
27952.4
27951.8
27951.2
27950.6
27950
27949.4
27948.9
27948.3
27947.7
27947.1
27946.5
27945.9
27945.4
27944.8
27944.2
27943.6
27943
27942.4
27941.9
27941.3
27940.7
27940.1
27939.5
27938.9
27938.3
27937.8
27937.2
27936.6
27936
27935.4
27934.8
27934.2
27933.7
27933.1
27932.5
27931.9
27931.3
27930.7
27930.1
27929.5
27929
27928.4
27927.8
27927.2
27926.6
27926
27925.4
27924.8
27924.3
27923.7
27923.1
27922.5
27921.9
27921.3
27920.7
27920.1
27919.5
27918.9
27918.4
27917.8
27917.2
27916.6
27916
27915.4
27914.8
27914.2
27913.6
27913
27912.4
27911.8
27911.3
27910.7
27910.1
27909.5
27908.9
27908.3
27907.7
27907.1
27906.5
27905.9
27905.3
27904.7
27904.1
27903.5
27902.9
27902.4
27901.8
27901.2
27900.6
27900
27899.4
27898.8
27898.2
27897.6
27897
27896.4
27895.8
27895.2
27894.6
27894
27893.4
27892.8
27892.2
27891.6
27891
27890.4
27889.8
27889.2
27888.6
27888
27887.4
27886.8
27886.2
27885.6
27885
27884.4
27883.8
27883.2
27882.6
27882
27881.4
27880.8
27880.2
27879.6
27879
27878.4
27877.8
27877.2
27876.6
27876
27875.4
27874.8
27874.2
27873.6
27873
27872.4
27871.8
27871.2
27870.6
27870
27869.4
27868.8
27868.2
27867.6
27867
27866.4
27865.8
27865.2
27864.6
27864
27863.4
27862.8
27862.2
27861.6
27861
27860.4
27859.8
27859.1
27858.5
27857.9
27857.3
27856.7
27856.1
27855.5
27854.9
27854.3
27853.7
27853.1
27852.5
27851.9
27851.3
27850.7
27850
27849.4
27848.8
27848.2
27847.6
27847
27846.4
27845.8
27845.2
27844.6
27844
27843.4
27842.7
27842.1
27841.5
27840.9
27840.3
27839.7
27839.1
27838.5
27837.9
27837.3
27836.6
27836
27835.4
27834.8
27834.2
27833.6
27833
27832.4
27831.7
27831.1
27830.5
27829.9
27829.3
27828.7
27828.1
27827.5
27826.8
27826.2
27825.6
27825
27824.4
27823.8
27823.2
27822.5
27821.9
27821.3
27820.7
27820.1
27819.5
27818.9
27818.2
27817.6
27817
27816.4
27815.8
27815.2
27814.5
27813.9
27813.3
27812.7
27812.1
27811.5
27810.8
27810.2
27809.6
27809
27808.4
27807.8
27807.1
27806.5
27805.9
27805.3
27804.7
27804
27803.4
27802.8
27802.2
27801.6
27801
27800.3
27799.7
27799.1
27798.5
27797.9
27797.2
27796.6
27796
27795.4
27794.7
27794.1
27793.5
27792.9
27792.3
27791.6
27791
27790.4
27789.8
27789.2
27788.5
27787.9
27787.3
27786.7
27786
27785.4
27784.8
27784.2
27783.5
27782.9
27782.3
27781.7
27781
27780.4
27779.8
27779.2
27778.5
27777.9
27777.3
27776.7
27776
27775.4
27774.8
27774.2
27773.5
27772.9
27772.3
27771.7
27771
27770.4
27769.8
27769.2
27768.5
27767.9
27767.3
27766.6
27766
27765.4
27764.8
27764.1
27763.5
27762.9
27762.2
27761.6
27761
27760.4
27759.7
27759.1
27758.5
27757.8
27757.2
27756.6
27755.9
27755.3
27754.7
27754.1
27753.4
27752.8
27752.2
27751.5
27750.9
27750.3
27749.6
27749
27748.4
27747.7
27747.1
27746.5
27745.8
27745.2
27744.6
27743.9
27743.3
27742.7
27742
27741.4
27740.8
27740.1
27739.5
27738.9
27738.2
27737.6
27737
27736.3
27735.7
27735.1
27734.4
27733.8
27733.2
27732.5
27731.9
27731.3
27730.6
27730
27729.3
27728.7
27728.1
27727.4
27726.8
27726.2
27725.5
27724.9
27724.2
27723.6
27723
27722.3
27721.7
27721.1
27720.4
27719.8
27719.1
27718.5
27717.9
27717.2
27716.6
27715.9
27715.3
27714.7
27714
27713.4
27712.7
27712.1
27711.5
27710.8
27710.2
27709.5
27708.9
27708.3
27707.6
27707
27706.3
27705.7
27705
27704.4
27703.8
27703.1
27702.5
27701.8
27701.2
27700.6
27699.9
27699.3
27698.6
27698
27697.3
27696.7
27696
27695.4
27694.8
27694.1
27693.5
27692.8
27692.2
27691.5
27690.9
27690.2
27689.6
27689
27688.3
27687.7
27687
27686.4
27685.7
27685.1
27684.4
27683.8
27683.1
27682.5
27681.8
27681.2
27680.5
27679.9
27679.2
27678.6
27678
27677.3
27676.7
27676
27675.4
27674.7
27674.1
27673.4
27672.8
27672.1
27671.5
27670.8
27670.2
27669.5
27668.9
27668.2
27667.6
27666.9
27666.3
27665.6
27665
27664.3
27663.7
27663
27662.4
27661.7
27661
27660.4
27659.7
27659.1
27658.4
27657.8
27657.1
27656.5
27655.8
27655.2
27654.5
27653.9
27653.2
27652.6
27651.9
27651.2
27650.6
27649.9
27649.3
27648.6
27648
27647.3
27646.7
27646
27645.4
27644.7
27644
27643.4
27642.7
27642.1
27641.4
27640.8
27640.1
27639.5
27638.8
27638.1
27637.5
27636.8
27636.2
27635.5
27634.8
27634.2
27633.5
27632.9
27632.2
27631.6
27630.9
27630.2
27629.6
27628.9
27628.3
27627.6
27626.9
27626.3
27625.6
27625
27624.3
27623.6
27623
27622.3
27621.7
27621
27620.3
27619.7
27619
27618.4
27617.7
27617
27616.4
27615.7
27615
27614.4
27613.7
27613.1
27612.4
27611.7
27611.1
27610.4
27609.7
27609.1
27608.4
27607.8
27607.1
27606.4
27605.8
27605.1
27604.4
27603.8
27603.1
27602.4
27601.8
27601.1
27600.4
27599.8
27599.1
27598.5
27597.8
27597.1
27596.5
27595.8
27595.1
27594.5
27593.8
27593.1
27592.5
27591.8
27591.1
27590.5
27589.8
27589.1
27588.5
27587.8
27587.1
27586.4
27585.8
27585.1
27584.4
27583.8
27583.1
27582.4
27581.8
27581.1
27580.4
27579.8
27579.1
27578.4
27577.7
27577.1
27576.4
27575.7
27575.1
27574.4
27573.7
27573.1
27572.4
27571.7
27571
27570.4
27569.7
27569
27568.4
27567.7
27567
27566.3
27565.7
27565
27564.3
27563.6
27563
27562.3
27561.6
27561
27560.3
27559.6
27558.9
27558.3
27557.6
27556.9
27556.2
27555.6
27554.9
27554.2
27553.5
27552.9
27552.2
27551.5
27550.8
27550.2
27549.5
27548.8
27548.1
27547.5
27546.8
27546.1
27545.4
27544.7
27544.1
27543.4
27542.7
27542
27541.4
27540.7
27540
27539.3
27538.6
27538
27537.3
27536.6
27535.9
27535.3
27534.6
27533.9
27533.2
27532.5
27531.9
27531.2
27530.5
27529.8
27529.1
27528.5
27527.8
27527.1
27526.4
27525.7
27525.1
27524.4
27523.7
27523
27522.3
27521.6
27521
27520.3
27519.6
27518.9
27518.2
27517.6
27516.9
27516.2
27515.5
27514.8
27514.1
27513.5
27512.8
27512.1
27511.4
27510.7
27510
27509.4
27508.7
27508
27507.3
27506.6
27505.9
27505.3
27504.6
27503.9
27503.2
27502.5
27501.8
27501.1
27500.5
27499.8
27499.1
27498.4
27497.7
27497
27496.3
27495.6
27495
27494.3
27493.6
27492.9
27492.2
27491.5
27490.8
27490.2
27489.5
27488.8
27488.1
27487.4
27486.7
27486
27485.3
27484.6
27484
27483.3
27482.6
27481.9
27481.2
27480.5
27479.8
27479.1
27478.4
27477.7
27477.1
27476.4
27475.7
27475
27474.3
27473.6
27472.9
27472.2
27471.5
27470.8
27470.1
27469.5
27468.8
27468.1
27467.4
27466.7
27466
27465.3
27464.6
27463.9
27463.2
27462.5
27461.8
27461.1
27460.4
27459.8
27459.1
27458.4
27457.7
27457
27456.3
27455.6
27454.9
27454.2
27453.5
27452.8
27452.1
27451.4
27450.7
27450
27449.3
27448.6
27447.9
27447.2
27446.5
27445.9
27445.2
27444.5
27443.8
27443.1
27442.4
27441.7
27441
27440.3
27439.6
27438.9
27438.2
27437.5
27436.8
27436.1
27435.4
27434.7
27434
27433.3
27432.6
27431.9
27431.2
27430.5
27429.8
27429.1
27428.4
27427.7
27427
27426.3
27425.6
27424.9
27424.2
27423.5
27422.8
27422.1
27421.4
27420.7
27420
27419.3
27418.6
27417.9
27417.2
27416.5
27415.8
27415.1
27414.4
27413.7
27413
27412.3
27411.6
27410.9
27410.2
27409.5
27408.8
27408.1
27407.4
27406.7
27406
27405.2
27404.5
27403.8
27403.1
27402.4
27401.7
27401
27400.3
27399.6
27398.9
27398.2
27397.5
27396.8
27396.1
27395.4
27394.7
27394
27393.3
27392.6
27391.9
27391.1
27390.4
27389.7
27389
27388.3
27387.6
27386.9
27386.2
27385.5
27384.8
27384.1
27383.4
27382.7
27382
27381.3
27380.5
27379.8
27379.1
27378.4
27377.7
27377
27376.3
27375.6
27374.9
27374.2
27373.5
27372.7
27372
27371.3
27370.6
27369.9
27369.2
27368.5
27367.8
27367.1
27366.4
27365.6
27364.9
27364.2
27363.5
27362.8
27362.1
27361.4
27360.7
27360
27359.2
27358.5
27357.8
27357.1
27356.4
27355.7
27355
27354.3
27353.5
27352.8
27352.1
27351.4
27350.7
27350
27349.3
27348.6
27347.8
27347.1
27346.4
27345.7
27345
27344.3
27343.6
27342.8
27342.1
27341.4
27340.7
27340
27339.3
27338.6
27337.8
27337.1
27336.4
27335.7
27335
27334.3
27333.6
27332.8
27332.1
27331.4
27330.7
27330
27329.3
27328.5
27327.8
27327.1
27326.4
27325.7
27325
27324.2
27323.5
27322.8
27322.1
27321.4
27320.7
27319.9
27319.2
27318.5
27317.8
27317.1
27316.3
27315.6
27314.9
27314.2
27313.5
27312.7
27312
27311.3
27310.6
27309.9
27309.2
27308.4
27307.7
27307
27306.3
27305.6
27304.8
27304.1
27303.4
27302.7
27302
27301.2
27300.5
27299.8
27299.1
27298.3
27297.6
27296.9
27296.2
27295.5
27294.7
27294
27293.3
27292.6
27291.9
27291.1
27290.4
27289.7
27289
27288.2
27287.5
27286.8
27286.1
27285.4
27284.6
27283.9
27283.2
27282.5
27281.7
27281
27280.3
27279.6
27278.8
27278.1
27277.4
27276.7
27275.9
27275.2
27274.5
27273.8
27273
27272.3
27271.6
27270.9
27270.1
27269.4
27268.7
27268
27267.2
27266.5
27265.8
27265.1
27264.3
27263.6
27262.9
27262.2
27261.4
27260.7
27260
27259.3
27258.5
27257.8
27257.1
27256.4
27255.6
27254.9
27254.2
27253.4
27252.7
27252
27251.3
27250.5
27249.8
27249.1
27248.4
27247.6
27246.9
27246.2
27245.4
27244.7
27244
27243.3
27242.5
27241.8
27241.1
27240.3
27239.6
27238.9
27238.2
27237.4
27236.7
27236
27235.2
27234.5
27233.8
27233.1
27232.3
27231.6
27230.9
27230.1
27229.4
27228.7
27227.9
27227.2
27226.5
27225.8
27225
27224.3
27223.6
27222.8
27222.1
27221.4
27220.6
27219.9
27219.2
27218.4
27217.7
27217
27216.3
27215.5
27214.8
27214.1
27213.3
27212.6
27211.9
27211.1
27210.4
27209.7
27208.9
27208.2
27207.5
27206.7
27206
27205.3
27204.5
27203.8
27203.1
27202.3
27201.6
27200.9
27200.1
27199.4
27198.7
27197.9
27197.2
27196.5
27195.7
27195
27194.3
27193.5
27192.8
27192.1
27191.3
27190.6
27189.9
27189.1
27188.4
27187.7
27186.9
27186.2
27185.5
27184.7
27184
27183.3
27182.5
27181.8
27181.1
27180.3
27179.6
27178.9
27178.1
27177.4
27176.7
27175.9
27175.2
27174.4
27173.7
27173
27172.2
27171.5
27170.8
27170
27169.3
27168.6
27167.8
27167.1
27166.4
27165.6
27164.9
27164.2
27163.4
27162.7
27161.9
27161.2
27160.5
27159.7
27159
27158.3
27157.5
27156.8
27156.1
27155.3
27154.6
27153.8
27153.1
27152.4
27151.6
27150.9
27150.2
27149.4
27148.7
27148
27147.2
27146.5
27145.7
27145