/*--------------------------------*- C++ -*----------------------------------*\
  =========                 |
  \\      /  F ield         | OpenFOAM: The Open Source CFD Toolbox
   \\    /   O peration     | Website:  https://openfoam.org
    \\  /    A nd           | Version:  9
     \\/     M anipulation  |
\*---------------------------------------------------------------------------*/
FoamFile
{
    format      ascii;
    class       volScalarField;
    location    "0.024";
    object      rho_0;
}
// * * * * * * * * * * * * * * * * * * * * * * * * * * * * * * * * * * * * * //

dimensions      [1 -3 0 0 0 0 0];

internalField   nonuniform List<scalar> 
10000
(
0.412207
0.412198
0.412185
0.412172
0.41216
0.412147
0.412134
0.412121
0.412108
0.412096
0.412084
0.412072
0.412059
0.412045
0.412032
0.412019
0.412007
0.411996
0.411985
0.411974
0.411961
0.411948
0.411934
0.411919
0.411906
0.411894
0.411883
0.411873
0.411865
0.411859
0.411854
0.41185
0.411846
0.411843
0.411839
0.411836
0.411833
0.411831
0.411829
0.411826
0.411824
0.411822
0.41182
0.411818
0.411815
0.411813
0.411811
0.411809
0.411806
0.411804
0.411802
0.4118
0.411797
0.411795
0.411793
0.411791
0.411788
0.411786
0.411784
0.411782
0.411779
0.411777
0.411775
0.411773
0.41177
0.411768
0.411766
0.411763
0.411761
0.411759
0.411757
0.411754
0.411752
0.41175
0.411747
0.411745
0.411743
0.411741
0.411738
0.411736
0.411734
0.411731
0.411729
0.411727
0.411724
0.411722
0.41172
0.411718
0.411715
0.411713
0.411711
0.411708
0.411706
0.411704
0.411701
0.411699
0.411697
0.411694
0.411692
0.41169
0.411688
0.411685
0.411683
0.411681
0.411678
0.411676
0.411674
0.411671
0.411669
0.411667
0.411664
0.411662
0.41166
0.411657
0.411655
0.411653
0.41165
0.411648
0.411645
0.411643
0.411641
0.411638
0.411636
0.411634
0.411631
0.411629
0.411627
0.411624
0.411622
0.41162
0.411617
0.411615
0.411613
0.41161
0.411608
0.411605
0.411603
0.411601
0.411598
0.411596
0.411594
0.411591
0.411589
0.411586
0.411584
0.411582
0.411579
0.411577
0.411574
0.411572
0.41157
0.411567
0.411565
0.411563
0.41156
0.411558
0.411555
0.411553
0.411551
0.411548
0.411546
0.411543
0.411541
0.411539
0.411536
0.411534
0.411531
0.411529
0.411526
0.411524
0.411522
0.411519
0.411517
0.411514
0.411512
0.41151
0.411507
0.411505
0.411502
0.4115
0.411497
0.411495
0.411493
0.41149
0.411488
0.411485
0.411483
0.41148
0.411478
0.411475
0.411473
0.411471
0.411468
0.411466
0.411463
0.411461
0.411458
0.411456
0.411453
0.411451
0.411448
0.411446
0.411444
0.411441
0.411439
0.411436
0.411434
0.411431
0.411429
0.411426
0.411424
0.411421
0.411419
0.411416
0.411414
0.411411
0.411409
0.411407
0.411404
0.411402
0.411399
0.411397
0.411394
0.411392
0.411389
0.411387
0.411384
0.411382
0.411379
0.411377
0.411374
0.411372
0.411369
0.411367
0.411364
0.411362
0.411359
0.411357
0.411354
0.411352
0.411349
0.411347
0.411344
0.411342
0.411339
0.411336
0.411334
0.411331
0.411329
0.411326
0.411324
0.411321
0.411319
0.411316
0.411314
0.411311
0.411309
0.411306
0.411304
0.411301
0.411299
0.411296
0.411293
0.411291
0.411288
0.411286
0.411283
0.411281
0.411278
0.411276
0.411273
0.411271
0.411268
0.411265
0.411263
0.41126
0.411258
0.411255
0.411253
0.41125
0.411247
0.411245
0.411242
0.41124
0.411237
0.411235
0.411232
0.411229
0.411227
0.411224
0.411222
0.411219
0.411217
0.411214
0.411211
0.411209
0.411206
0.411204
0.411201
0.411198
0.411196
0.411193
0.411191
0.411188
0.411185
0.411183
0.41118
0.411178
0.411175
0.411172
0.41117
0.411167
0.411165
0.411162
0.411159
0.411157
0.411154
0.411152
0.411149
0.411146
0.411144
0.411141
0.411138
0.411136
0.411133
0.411131
0.411128
0.411125
0.411123
0.41112
0.411117
0.411115
0.411112
0.411109
0.411107
0.411104
0.411102
0.411099
0.411096
0.411094
0.411091
0.411088
0.411086
0.411083
0.41108
0.411078
0.411075
0.411072
0.41107
0.411067
0.411064
0.411062
0.411059
0.411056
0.411054
0.411051
0.411048
0.411046
0.411043
0.41104
0.411038
0.411035
0.411032
0.41103
0.411027
0.411024
0.411022
0.411019
0.411016
0.411013
0.411011
0.411008
0.411005
0.411003
0.411
0.410997
0.410995
0.410992
0.410989
0.410987
0.410984
0.410981
0.410978
0.410976
0.410973
0.41097
0.410968
0.410965
0.410962
0.410959
0.410957
0.410954
0.410951
0.410949
0.410946
0.410943
0.41094
0.410938
0.410935
0.410932
0.410929
0.410927
0.410924
0.410921
0.410918
0.410916
0.410913
0.41091
0.410908
0.410905
0.410902
0.410899
0.410897
0.410894
0.410891
0.410888
0.410886
0.410883
0.41088
0.410877
0.410874
0.410872
0.410869
0.410866
0.410863
0.410861
0.410858
0.410855
0.410852
0.41085
0.410847
0.410844
0.410841
0.410838
0.410836
0.410833
0.41083
0.410827
0.410825
0.410822
0.410819
0.410816
0.410813
0.410811
0.410808
0.410805
0.410802
0.410799
0.410797
0.410794
0.410791
0.410788
0.410785
0.410783
0.41078
0.410777
0.410774
0.410771
0.410769
0.410766
0.410763
0.41076
0.410757
0.410754
0.410752
0.410749
0.410746
0.410743
0.41074
0.410738
0.410735
0.410732
0.410729
0.410726
0.410723
0.410721
0.410718
0.410715
0.410712
0.410709
0.410706
0.410703
0.410701
0.410698
0.410695
0.410692
0.410689
0.410686
0.410684
0.410681
0.410678
0.410675
0.410672
0.410669
0.410666
0.410664
0.410661
0.410658
0.410655
0.410652
0.410649
0.410646
0.410643
0.410641
0.410638
0.410635
0.410632
0.410629
0.410626
0.410623
0.41062
0.410617
0.410615
0.410612
0.410609
0.410606
0.410603
0.4106
0.410597
0.410594
0.410591
0.410589
0.410586
0.410583
0.41058
0.410577
0.410574
0.410571
0.410568
0.410565
0.410562
0.410559
0.410557
0.410554
0.410551
0.410548
0.410545
0.410542
0.410539
0.410536
0.410533
0.41053
0.410527
0.410524
0.410521
0.410519
0.410516
0.410513
0.41051
0.410507
0.410504
0.410501
0.410498
0.410495
0.410492
0.410489
0.410486
0.410483
0.41048
0.410477
0.410474
0.410471
0.410468
0.410465
0.410463
0.41046
0.410457
0.410454
0.410451
0.410448
0.410445
0.410442
0.410439
0.410436
0.410433
0.41043
0.410427
0.410424
0.410421
0.410418
0.410415
0.410412
0.410409
0.410406
0.410403
0.4104
0.410397
0.410394
0.410391
0.410388
0.410385
0.410382
0.410379
0.410376
0.410373
0.41037
0.410367
0.410364
0.410361
0.410358
0.410355
0.410352
0.410349
0.410346
0.410343
0.41034
0.410337
0.410334
0.410331
0.410328
0.410325
0.410322
0.410319
0.410316
0.410313
0.41031
0.410307
0.410304
0.410301
0.410298
0.410294
0.410291
0.410288
0.410285
0.410282
0.410279
0.410276
0.410273
0.41027
0.410267
0.410264
0.410261
0.410258
0.410255
0.410252
0.410249
0.410246
0.410243
0.41024
0.410236
0.410233
0.41023
0.410227
0.410224
0.410221
0.410218
0.410215
0.410212
0.410209
0.410206
0.410203
0.4102
0.410196
0.410193
0.41019
0.410187
0.410184
0.410181
0.410178
0.410175
0.410172
0.410169
0.410166
0.410162
0.410159
0.410156
0.410153
0.41015
0.410147
0.410144
0.410141
0.410138
0.410134
0.410131
0.410128
0.410125
0.410122
0.410119
0.410116
0.410113
0.41011
0.410106
0.410103
0.4101
0.410097
0.410094
0.410091
0.410088
0.410085
0.410081
0.410078
0.410075
0.410072
0.410069
0.410066
0.410063
0.410059
0.410056
0.410053
0.41005
0.410047
0.410044
0.41004
0.410037
0.410034
0.410031
0.410028
0.410025
0.410021
0.410018
0.410015
0.410012
0.410009
0.410006
0.410002
0.409999
0.409996
0.409993
0.40999
0.409987
0.409983
0.40998
0.409977
0.409974
0.409971
0.409967
0.409964
0.409961
0.409958
0.409955
0.409952
0.409948
0.409945
0.409942
0.409939
0.409936
0.409932
0.409929
0.409926
0.409923
0.40992
0.409916
0.409913
0.40991
0.409907
0.409903
0.4099
0.409897
0.409894
0.409891
0.409887
0.409884
0.409881
0.409878
0.409874
0.409871
0.409868
0.409865
0.409861
0.409858
0.409855
0.409852
0.409849
0.409845
0.409842
0.409839
0.409836
0.409832
0.409829
0.409826
0.409823
0.409819
0.409816
0.409813
0.40981
0.409806
0.409803
0.4098
0.409796
0.409793
0.40979
0.409787
0.409783
0.40978
0.409777
0.409774
0.40977
0.409767
0.409764
0.40976
0.409757
0.409754
0.409751
0.409747
0.409744
0.409741
0.409737
0.409734
0.409731
0.409728
0.409724
0.409721
0.409718
0.409714
0.409711
0.409708
0.409705
0.409701
0.409698
0.409695
0.409691
0.409688
0.409685
0.409681
0.409678
0.409675
0.409671
0.409668
0.409665
0.409661
0.409658
0.409655
0.409651
0.409648
0.409645
0.409641
0.409638
0.409635
0.409631
0.409628
0.409625
0.409621
0.409618
0.409615
0.409611
0.409608
0.409605
0.409601
0.409598
0.409595
0.409591
0.409588
0.409585
0.409581
0.409578
0.409575
0.409571
0.409568
0.409564
0.409561
0.409558
0.409554
0.409551
0.409548
0.409544
0.409541
0.409537
0.409534
0.409531
0.409527
0.409524
0.409521
0.409517
0.409514
0.40951
0.409507
0.409504
0.4095
0.409497
0.409493
0.40949
0.409487
0.409483
0.40948
0.409476
0.409473
0.40947
0.409466
0.409463
0.409459
0.409456
0.409453
0.409449
0.409446
0.409442
0.409439
0.409436
0.409432
0.409429
0.409425
0.409422
0.409418
0.409415
0.409412
0.409408
0.409405
0.409401
0.409398
0.409394
0.409391
0.409388
0.409384
0.409381
0.409377
0.409374
0.40937
0.409367
0.409363
0.40936
0.409356
0.409353
0.40935
0.409346
0.409343
0.409339
0.409336
0.409332
0.409329
0.409325
0.409322
0.409318
0.409315
0.409311
0.409308
0.409305
0.409301
0.409298
0.409294
0.409291
0.409287
0.409284
0.40928
0.409277
0.409273
0.40927
0.409266
0.409263
0.409259
0.409256
0.409252
0.409249
0.409245
0.409242
0.409238
0.409235
0.409231
0.409228
0.409224
0.409221
0.409217
0.409214
0.40921
0.409207
0.409203
0.4092
0.409196
0.409193
0.409189
0.409186
0.409182
0.409178
0.409175
0.409171
0.409168
0.409164
0.409161
0.409157
0.409154
0.40915
0.409147
0.409143
0.40914
0.409136
0.409133
0.409129
0.409125
0.409122
0.409118
0.409115
0.409111
0.409108
0.409104
0.409101
0.409097
0.409093
0.40909
0.409086
0.409083
0.409079
0.409076
0.409072
0.409068
0.409065
0.409061
0.409058
0.409054
0.409051
0.409047
0.409043
0.40904
0.409036
0.409033
0.409029
0.409025
0.409022
0.409018
0.409015
0.409011
0.409007
0.409004
0.409
0.408997
0.408993
0.408989
0.408986
0.408982
0.408979
0.408975
0.408971
0.408968
0.408964
0.408961
0.408957
0.408953
0.40895
0.408946
0.408942
0.408939
0.408935
0.408932
0.408928
0.408924
0.408921
0.408917
0.408913
0.40891
0.408906
0.408903
0.408899
0.408895
0.408892
0.408888
0.408884
0.408881
0.408877
0.408873
0.40887
0.408866
0.408862
0.408859
0.408855
0.408851
0.408848
0.408844
0.40884
0.408837
0.408833
0.408829
0.408826
0.408822
0.408818
0.408815
0.408811
0.408807
0.408804
0.4088
0.408796
0.408793
0.408789
0.408785
0.408782
0.408778
0.408774
0.408771
0.408767
0.408763
0.408759
0.408756
0.408752
0.408748
0.408745
0.408741
0.408737
0.408734
0.40873
0.408726
0.408722
0.408719
0.408715
0.408711
0.408708
0.408704
0.4087
0.408696
0.408693
0.408689
0.408685
0.408681
0.408678
0.408674
0.40867
0.408667
0.408663
0.408659
0.408655
0.408652
0.408648
0.408644
0.40864
0.408637
0.408633
0.408629
0.408625
0.408622
0.408618
0.408614
0.40861
0.408607
0.408603
0.408599
0.408595
0.408592
0.408588
0.408584
0.40858
0.408576
0.408573
0.408569
0.408565
0.408561
0.408558
0.408554
0.40855
0.408546
0.408543
0.408539
0.408535
0.408531
0.408527
0.408524
0.40852
0.408516
0.408512
0.408508
0.408505
0.408501
0.408497
0.408493
0.408489
0.408486
0.408482
0.408478
0.408474
0.40847
0.408467
0.408463
0.408459
0.408455
0.408451
0.408447
0.408444
0.40844
0.408436
0.408432
0.408428
0.408425
0.408421
0.408417
0.408413
0.408409
0.408405
0.408402
0.408398
0.408394
0.40839
0.408386
0.408382
0.408378
0.408375
0.408371
0.408367
0.408363
0.408359
0.408355
0.408351
0.408348
0.408344
0.40834
0.408336
0.408332
0.408328
0.408324
0.408321
0.408317
0.408313
0.408309
0.408305
0.408301
0.408297
0.408293
0.40829
0.408286
0.408282
0.408278
0.408274
0.40827
0.408266
0.408262
0.408258
0.408255
0.408251
0.408247
0.408243
0.408239
0.408235
0.408231
0.408227
0.408223
0.408219
0.408216
0.408212
0.408208
0.408204
0.4082
0.408196
0.408192
0.408188
0.408184
0.40818
0.408176
0.408172
0.408169
0.408165
0.408161
0.408157
0.408153
0.408149
0.408145
0.408141
0.408137
0.408133
0.408129
0.408125
0.408121
0.408117
0.408113
0.408109
0.408106
0.408101
0.408098
0.408093
0.40809
0.408085
0.408082
0.408078
0.408074
0.40807
0.408066
0.408062
0.408058
0.408054
0.40805
0.408046
0.408042
0.408038
0.408034
0.40803
0.408026
0.408022
0.408018
0.408014
0.408011
0.408006
0.408003
0.407998
0.407995
0.40799
0.407986
0.407982
0.407978
0.407974
0.40797
0.407966
0.407962
0.407958
0.407954
0.407951
0.407946
0.407942
0.407938
0.407934
0.40793
0.407926
0.407922
0.407918
0.407914
0.40791
0.407906
0.407902
0.407898
0.407894
0.40789
0.407886
0.407882
0.407878
0.407874
0.40787
0.407866
0.407862
0.407858
0.407853
0.40785
0.407845
0.407842
0.407837
0.407833
0.407829
0.407825
0.407821
0.407817
0.407813
0.407809
0.407805
0.407801
0.407797
0.407793
0.407788
0.407785
0.40778
0.407777
0.407772
0.407768
0.407764
0.40776
0.407756
0.407752
0.407748
0.407744
0.40774
0.407736
0.407731
0.407728
0.407723
0.407719
0.407715
0.407711
0.407707
0.407703
0.407699
0.407695
0.407691
0.407687
0.407682
0.407679
0.407674
0.40767
0.407666
0.407662
0.407658
0.407653
0.40765
0.407645
0.407641
0.407637
0.407633
0.407629
0.407625
0.407621
0.407617
0.407612
0.407608
0.407604
0.4076
0.407596
0.407591
0.407588
0.407583
0.407579
0.407575
0.407571
0.407567
0.407562
0.407559
0.407554
0.40755
0.407546
0.407541
0.407538
0.407533
0.407529
0.407525
0.407521
0.407517
0.407513
0.407508
0.407505
0.4075
0.407496
0.407492
0.407487
0.407484
0.407479
0.407475
0.407471
0.407466
0.407463
0.407458
0.407454
0.40745
0.407445
0.407442
0.407437
0.407433
0.407429
0.407424
0.407421
0.407416
0.407412
0.407408
0.407403
0.4074
0.407395
0.407391
0.407387
0.407382
0.407378
0.407374
0.40737
0.407366
0.407361
0.407357
0.407353
0.407348
0.407345
0.40734
0.407336
0.407332
0.407327
0.407324
0.407319
0.407315
0.407311
0.407306
0.407302
0.407298
0.407293
0.40729
0.407285
0.407281
0.407277
0.407272
0.407268
0.407264
0.407259
0.407256
0.407251
0.407247
0.407243
0.407238
0.407234
0.40723
0.407225
0.407221
0.407217
0.407213
0.407209
0.407204
0.4072
0.407195
0.407191
0.407187
0.407182
0.407178
0.407174
0.407169
0.407166
0.407161
0.407157
0.407153
0.407148
0.407144
0.40714
0.407135
0.407131
0.407127
0.407122
0.407118
0.407114
0.407109
0.407105
0.407101
0.407097
0.407092
0.407088
0.407084
0.407079
0.407075
0.407071
0.407066
0.407062
0.407058
0.407053
0.407049
0.407045
0.40704
0.407036
0.407031
0.407027
0.407023
0.407018
0.407014
0.40701
0.407005
0.407001
0.406997
0.406992
0.406988
0.406983
0.406979
0.406975
0.40697
0.406966
0.406962
0.406957
0.406953
0.406949
0.406944
0.40694
0.406935
0.406931
0.406927
0.406922
0.406918
0.406914
0.406909
0.406905
0.406901
0.406896
0.406892
0.406887
0.406883
0.406879
0.406874
0.40687
0.406866
0.406861
0.406857
0.406852
0.406848
0.406844
0.406839
0.406834
0.40683
0.406826
0.406821
0.406817
0.406812
0.406808
0.406804
0.406799
0.406795
0.406791
0.406786
0.406782
0.406777
0.406772
0.406768
0.406764
0.406759
0.406755
0.40675
0.406746
0.406742
0.406737
0.406733
0.406728
0.406724
0.406719
0.406715
0.40671
0.406706
0.406702
0.406697
0.406693
0.406688
0.406684
0.406679
0.406675
0.40667
0.406666
0.406661
0.406657
0.406653
0.406648
0.406643
0.406639
0.406634
0.40663
0.406626
0.406621
0.406617
0.406612
0.406607
0.406603
0.406599
0.406594
0.40659
0.406585
0.406581
0.406576
0.406572
0.406567
0.406563
0.406558
0.406554
0.406549
0.406545
0.40654
0.406536
0.406531
0.406527
0.406522
0.406517
0.406513
0.406509
0.406504
0.406499
0.406495
0.40649
0.406486
0.406481
0.406477
0.406472
0.406468
0.406463
0.406459
0.406454
0.406449
0.406445
0.406441
0.406436
0.406431
0.406427
0.406422
0.406418
0.406413
0.406408
0.406404
0.4064
0.406395
0.40639
0.406386
0.406381
0.406377
0.406372
0.406367
0.406363
0.406358
0.406354
0.406349
0.406345
0.40634
0.406336
0.406331
0.406326
0.406322
0.406317
0.406312
0.406308
0.406303
0.406299
0.406294
0.40629
0.406285
0.40628
0.406276
0.406271
0.406267
0.406262
0.406257
0.406253
0.406248
0.406243
0.406239
0.406234
0.40623
0.406225
0.40622
0.406216
0.406211
0.406207
0.406202
0.406197
0.406193
0.406188
0.406183
0.406179
0.406174
0.40617
0.406165
0.40616
0.406156
0.406151
0.406146
0.406142
0.406137
0.406132
0.406128
0.406123
0.406118
0.406114
0.406109
0.406104
0.4061
0.406095
0.40609
0.406086
0.406081
0.406076
0.406072
0.406067
0.406062
0.406058
0.406053
0.406048
0.406044
0.406039
0.406034
0.40603
0.406025
0.40602
0.406016
0.406011
0.406006
0.406002
0.405997
0.405992
0.405987
0.405983
0.405978
0.405973
0.405969
0.405964
0.405959
0.405955
0.40595
0.405945
0.40594
0.405936
0.405931
0.405926
0.405922
0.405917
0.405912
0.405907
0.405903
0.405898
0.405893
0.405889
0.405884
0.405879
0.405874
0.40587
0.405865
0.40586
0.405855
0.405851
0.405846
0.405841
0.405836
0.405832
0.405827
0.405822
0.405817
0.405813
0.405808
0.405803
0.405798
0.405794
0.405789
0.405784
0.405779
0.405775
0.40577
0.405765
0.40576
0.405756
0.405751
0.405746
0.405741
0.405736
0.405732
0.405727
0.405722
0.405717
0.405713
0.405708
0.405703
0.405698
0.405693
0.405688
0.405684
0.405679
0.405674
0.405669
0.405665
0.40566
0.405655
0.40565
0.405645
0.40564
0.405636
0.405631
0.405626
0.405621
0.405616
0.405612
0.405607
0.405602
0.405597
0.405592
0.405588
0.405583
0.405578
0.405573
0.405568
0.405563
0.405559
0.405554
0.405549
0.405544
0.405539
0.405534
0.405529
0.405525
0.40552
0.405515
0.40551
0.405505
0.4055
0.405495
0.405491
0.405486
0.405481
0.405476
0.405471
0.405466
0.405461
0.405457
0.405452
0.405447
0.405442
0.405437
0.405432
0.405427
0.405422
0.405418
0.405413
0.405408
0.405403
0.405398
0.405393
0.405388
0.405383
0.405378
0.405374
0.405369
0.405364
0.405359
0.405354
0.405349
0.405344
0.405339
0.405334
0.405329
0.405325
0.40532
0.405315
0.40531
0.405305
0.4053
0.405295
0.40529
0.405285
0.40528
0.405275
0.40527
0.405265
0.405261
0.405256
0.405251
0.405246
0.405241
0.405236
0.405231
0.405226
0.405221
0.405216
0.405211
0.405206
0.405201
0.405196
0.405191
0.405186
0.405181
0.405176
0.405172
0.405167
0.405162
0.405157
0.405152
0.405147
0.405142
0.405137
0.405132
0.405127
0.405122
0.405117
0.405112
0.405107
0.405102
0.405097
0.405092
0.405087
0.405082
0.405077
0.405072
0.405067
0.405062
0.405057
0.405052
0.405047
0.405042
0.405037
0.405032
0.405027
0.405022
0.405017
0.405012
0.405007
0.405002
0.404997
0.404992
0.404987
0.404982
0.404977
0.404972
0.404967
0.404962
0.404957
0.404952
0.404947
0.404942
0.404937
0.404932
0.404927
0.404922
0.404917
0.404912
0.404906
0.404901
0.404896
0.404891
0.404886
0.404881
0.404876
0.404871
0.404866
0.404861
0.404856
0.404851
0.404846
0.404841
0.404836
0.404831
0.404826
0.404821
0.404815
0.40481
0.404805
0.4048
0.404795
0.40479
0.404785
0.40478
0.404775
0.40477
0.404765
0.40476
0.404755
0.404749
0.404744
0.404739
0.404734
0.404729
0.404724
0.404719
0.404714
0.404709
0.404704
0.404698
0.404693
0.404688
0.404683
0.404678
0.404673
0.404668
0.404663
0.404658
0.404652
0.404647
0.404642
0.404637
0.404632
0.404627
0.404622
0.404617
0.404611
0.404606
0.404601
0.404596
0.404591
0.404586
0.404581
0.404575
0.40457
0.404565
0.40456
0.404555
0.40455
0.404545
0.404539
0.404534
0.404529
0.404524
0.404519
0.404514
0.404508
0.404503
0.404498
0.404493
0.404488
0.404483
0.404477
0.404472
0.404467
0.404462
0.404457
0.404452
0.404446
0.404441
0.404436
0.404431
0.404426
0.40442
0.404415
0.40441
0.404405
0.4044
0.404394
0.404389
0.404384
0.404379
0.404374
0.404368
0.404363
0.404358
0.404353
0.404348
0.404342
0.404337
0.404332
0.404327
0.404322
0.404316
0.404311
0.404306
0.404301
0.404295
0.40429
0.404285
0.40428
0.404274
0.404269
0.404264
0.404259
0.404254
0.404248
0.404243
0.404238
0.404233
0.404227
0.404222
0.404217
0.404212
0.404206
0.404201
0.404196
0.40419
0.404185
0.40418
0.404175
0.404169
0.404164
0.404159
0.404154
0.404148
0.404143
0.404138
0.404133
0.404127
0.404122
0.404117
0.404111
0.404106
0.404101
0.404096
0.40409
0.404085
0.40408
0.404074
0.404069
0.404064
0.404059
0.404053
0.404048
0.404043
0.404037
0.404032
0.404027
0.404021
0.404016
0.404011
0.404005
0.404
0.403995
0.403989
0.403984
0.403979
0.403974
0.403968
0.403963
0.403958
0.403952
0.403947
0.403942
0.403936
0.403931
0.403926
0.40392
0.403915
0.40391
0.403904
0.403899
0.403893
0.403888
0.403883
0.403877
0.403872
0.403867
0.403861
0.403856
0.403851
0.403845
0.40384
0.403835
0.403829
0.403824
0.403818
0.403813
0.403808
0.403802
0.403797
0.403792
0.403786
0.403781
0.403775
0.40377
0.403765
0.403759
0.403754
0.403749
0.403743
0.403738
0.403732
0.403727
0.403722
0.403716
0.403711
0.403705
0.4037
0.403695
0.403689
0.403684
0.403678
0.403673
0.403667
0.403662
0.403657
0.403651
0.403646
0.40364
0.403635
0.40363
0.403624
0.403619
0.403613
0.403608
0.403602
0.403597
0.403592
0.403586
0.403581
0.403575
0.40357
0.403564
0.403559
0.403553
0.403548
0.403543
0.403537
0.403532
0.403526
0.403521
0.403515
0.40351
0.403504
0.403499
0.403493
0.403488
0.403483
0.403477
0.403472
0.403466
0.403461
0.403455
0.40345
0.403444
0.403439
0.403433
0.403428
0.403422
0.403417
0.403411
0.403406
0.4034
0.403395
0.403389
0.403384
0.403378
0.403373
0.403367
0.403362
0.403356
0.403351
0.403345
0.40334
0.403334
0.403329
0.403323
0.403318
0.403312
0.403307
0.403301
0.403296
0.40329
0.403285
0.403279
0.403274
0.403268
0.403263
0.403257
0.403252
0.403246
0.40324
0.403235
0.403229
0.403224
0.403218
0.403213
0.403207
0.403202
0.403196
0.403191
0.403185
0.403179
0.403174
0.403168
0.403163
0.403157
0.403152
0.403146
0.403141
0.403135
0.403129
0.403124
0.403118
0.403113
0.403107
0.403102
0.403096
0.40309
0.403085
0.403079
0.403074
0.403068
0.403062
0.403057
0.403051
0.403046
0.40304
0.403035
0.403029
0.403023
0.403018
0.403012
0.403007
0.403001
0.402995
0.40299
0.402984
0.402978
0.402973
0.402967
0.402962
0.402956
0.40295
0.402945
0.402939
0.402934
0.402928
0.402922
0.402917
0.402911
0.402905
0.4029
0.402894
0.402889
0.402883
0.402877
0.402872
0.402866
0.40286
0.402855
0.402849
0.402843
0.402838
0.402832
0.402826
0.402821
0.402815
0.402809
0.402804
0.402798
0.402792
0.402787
0.402781
0.402775
0.40277
0.402764
0.402758
0.402753
0.402747
0.402741
0.402736
0.40273
0.402724
0.402719
0.402713
0.402707
0.402702
0.402696
0.40269
0.402685
0.402679
0.402673
0.402668
0.402662
0.402656
0.40265
0.402645
0.402639
0.402633
0.402628
0.402622
0.402616
0.40261
0.402605
0.402599
0.402593
0.402588
0.402582
0.402576
0.40257
0.402565
0.402559
0.402553
0.402548
0.402542
0.402536
0.40253
0.402525
0.402519
0.402513
0.402507
0.402502
0.402496
0.40249
0.402484
0.402479
0.402473
0.402467
0.402461
0.402456
0.40245
0.402444
0.402438
0.402433
0.402427
0.402421
0.402415
0.40241
0.402404
0.402398
0.402392
0.402386
0.402381
0.402375
0.402369
0.402363
0.402358
0.402352
0.402346
0.40234
0.402334
0.402329
0.402323
0.402317
0.402311
0.402305
0.4023
0.402294
0.402288
0.402282
0.402276
0.402271
0.402265
0.402259
0.402253
0.402247
0.402242
0.402236
0.40223
0.402224
0.402218
0.402213
0.402207
0.402201
0.402195
0.402189
0.402183
0.402178
0.402172
0.402166
0.40216
0.402154
0.402148
0.402143
0.402137
0.402131
0.402125
0.402119
0.402113
0.402107
0.402102
0.402096
0.40209
0.402084
0.402078
0.402072
0.402067
0.402061
0.402055
0.402049
0.402043
0.402037
0.402031
0.402025
0.40202
0.402014
0.402008
0.402002
0.401996
0.40199
0.401984
0.401978
0.401973
0.401967
0.401961
0.401955
0.401949
0.401943
0.401937
0.401931
0.401925
0.401919
0.401914
0.401908
0.401902
0.401896
0.40189
0.401884
0.401878
0.401872
0.401866
0.40186
0.401854
0.401849
0.401843
0.401837
0.401831
0.401825
0.401819
0.401813
0.401807
0.401801
0.401795
0.401789
0.401783
0.401777
0.401771
0.401766
0.40176
0.401754
0.401748
0.401742
0.401736
0.40173
0.401724
0.401718
0.401712
0.401706
0.4017
0.401694
0.401688
0.401682
0.401676
0.40167
0.401664
0.401658
0.401652
0.401646
0.40164
0.401634
0.401628
0.401622
0.401616
0.40161
0.401605
0.401599
0.401593
0.401587
0.401581
0.401575
0.401569
0.401563
0.401557
0.401551
0.401545
0.401539
0.401533
0.401527
0.401521
0.401515
0.401509
0.401503
0.401497
0.401491
0.401485
0.401478
0.401472
0.401466
0.40146
0.401454
0.401448
0.401442
0.401436
0.40143
0.401424
0.401418
0.401412
0.401406
0.4014
0.401394
0.401388
0.401382
0.401376
0.40137
0.401364
0.401358
0.401352
0.401346
0.40134
0.401334
0.401328
0.401321
0.401315
0.401309
0.401303
0.401297
0.401291
0.401285
0.401279
0.401273
0.401267
0.401261
0.401255
0.401249
0.401243
0.401237
0.40123
0.401224
0.401218
0.401212
0.401206
0.4012
0.401194
0.401188
0.401182
0.401176
0.40117
0.401163
0.401157
0.401151
0.401145
0.401139
0.401133
0.401127
0.401121
0.401115
0.401108
0.401102
0.401096
0.40109
0.401084
0.401078
0.401072
0.401066
0.401059
0.401053
0.401047
0.401041
0.401035
0.401029
0.401023
0.401017
0.40101
0.401004
0.400998
0.400992
0.400986
0.40098
0.400974
0.400967
0.400961
0.400955
0.400949
0.400943
0.400937
0.40093
0.400924
0.400918
0.400912
0.400906
0.4009
0.400893
0.400887
0.400881
0.400875
0.400869
0.400863
0.400856
0.40085
0.400844
0.400838
0.400832
0.400826
0.400819
0.400813
0.400807
0.400801
0.400795
0.400788
0.400782
0.400776
0.40077
0.400764
0.400757
0.400751
0.400745
0.400739
0.400733
0.400726
0.40072
0.400714
0.400708
0.400701
0.400695
0.400689
0.400683
0.400677
0.40067
0.400664
0.400658
0.400652
0.400645
0.400639
0.400633
0.400627
0.400621
0.400614
0.400608
0.400602
0.400596
0.400589
0.400583
0.400577
0.400571
0.400564
0.400558
0.400552
0.400546
0.400539
0.400533
0.400527
0.40052
0.400514
0.400508
0.400502
0.400495
0.400489
0.400483
0.400477
0.40047
0.400464
0.400458
0.400451
0.400445
0.400439
0.400433
0.400426
0.40042
0.400414
0.400407
0.400401
0.400395
0.400389
0.400382
0.400376
0.40037
0.400363
0.400357
0.400351
0.400344
0.400338
0.400332
0.400326
0.400319
0.400313
0.400307
0.4003
0.400294
0.400288
0.400281
0.400275
0.400269
0.400262
0.400256
0.40025
0.400243
0.400237
0.400231
0.400224
0.400218
0.400212
0.400205
0.400199
0.400193
0.400186
0.40018
0.400174
0.400167
0.400161
0.400155
0.400148
0.400142
0.400135
0.400129
0.400123
0.400116
0.40011
0.400104
0.400097
0.400091
0.400085
0.400078
0.400072
0.400065
0.400059
0.400053
0.400046
0.40004
0.400033
0.400027
0.400021
0.400014
0.400008
0.400002
0.399995
0.399989
0.399982
0.399976
0.39997
0.399963
0.399957
0.39995
0.399944
0.399938
0.399931
0.399925
0.399918
0.399912
0.399905
0.399899
0.399893
0.399886
0.39988
0.399873
0.399867
0.39986
0.399854
0.399848
0.399841
0.399835
0.399828
0.399822
0.399815
0.399809
0.399803
0.399796
0.39979
0.399783
0.399777
0.39977
0.399764
0.399757
0.399751
0.399745
0.399738
0.399732
0.399725
0.399719
0.399712
0.399706
0.399699
0.399693
0.399686
0.39968
0.399673
0.399667
0.39966
0.399654
0.399648
0.399641
0.399635
0.399628
0.399622
0.399615
0.399609
0.399602
0.399596
0.399589
0.399583
0.399576
0.39957
0.399563
0.399557
0.39955
0.399544
0.399537
0.399531
0.399524
0.399518
0.399511
0.399505
0.399498
0.399492
0.399485
0.399479
0.399472
0.399465
0.399459
0.399452
0.399446
0.399439
0.399433
0.399426
0.39942
0.399413
0.399407
0.3994
0.399394
0.399387
0.399381
0.399374
0.399367
0.399361
0.399354
0.399348
0.399341
0.399335
0.399328
0.399322
0.399315
0.399308
0.399302
0.399295
0.399289
0.399282
0.399276
0.399269
0.399263
0.399256
0.399249
0.399243
0.399236
0.39923
0.399223
0.399216
0.39921
0.399203
0.399197
0.39919
0.399184
0.399177
0.39917
0.399164
0.399157
0.399151
0.399144
0.399137
0.399131
0.399124
0.399118
0.399111
0.399104
0.399098
0.399091
0.399085
0.399078
0.399071
0.399065
0.399058
0.399051
0.399045
0.399038
0.399032
0.399025
0.399018
0.399012
0.399005
0.398998
0.398992
0.398985
0.398979
0.398972
0.398965
0.398959
0.398952
0.398945
0.398939
0.398932
0.398925
0.398919
0.398912
0.398905
0.398899
0.398892
0.398885
0.398879
0.398872
0.398865
0.398859
0.398852
0.398845
0.398839
0.398832
0.398825
0.398819
0.398812
0.398805
0.398799
0.398792
0.398785
0.398779
0.398772
0.398765
0.398759
0.398752
0.398745
0.398739
0.398732
0.398725
0.398718
0.398712
0.398705
0.398698
0.398692
0.398685
0.398678
0.398672
0.398665
0.398658
0.398651
0.398645
0.398638
0.398631
0.398625
0.398618
0.398611
0.398604
0.398598
0.398591
0.398584
0.398577
0.398571
0.398564
0.398557
0.398551
0.398544
0.398537
0.39853
0.398524
0.398517
0.39851
0.398503
0.398497
0.39849
0.398483
0.398476
0.39847
0.398463
0.398456
0.398449
0.398443
0.398436
0.398429
0.398422
0.398415
0.398409
0.398402
0.398395
0.398388
0.398382
0.398375
0.398368
0.398361
0.398355
0.398348
0.398341
0.398334
0.398327
0.398321
0.398314
0.398307
0.3983
0.398293
0.398287
0.39828
0.398273
0.398266
0.398259
0.398253
0.398246
0.398239
0.398232
0.398225
0.398219
0.398212
0.398205
0.398198
0.398191
0.398184
0.398178
0.398171
0.398164
0.398157
0.39815
0.398144
0.398137
0.39813
0.398123
0.398116
0.398109
0.398103
0.398096
0.398089
0.398082
0.398075
0.398068
0.398061
0.398055
0.398048
0.398041
0.398034
0.398027
0.39802
0.398013
0.398007
0.398
0.397993
0.397986
0.397979
0.397972
0.397965
0.397959
0.397952
0.397945
0.397938
0.397931
0.397924
0.397917
0.39791
0.397904
0.397897
0.39789
0.397883
0.397876
0.397869
0.397862
0.397855
0.397849
0.397842
0.397835
0.397828
0.397821
0.397814
0.397807
0.3978
0.397793
0.397786
0.39778
0.397773
0.397766
0.397759
0.397752
0.397745
0.397738
0.397731
0.397724
0.397717
0.39771
0.397703
0.397697
0.39769
0.397683
0.397676
0.397669
0.397662
0.397655
0.397648
0.397641
0.397634
0.397627
0.39762
0.397613
0.397606
0.397599
0.397592
0.397585
0.397579
0.397572
0.397565
0.397558
0.397551
0.397544
0.397537
0.39753
0.397523
0.397516
0.397509
0.397502
0.397495
0.397488
0.397481
0.397474
0.397467
0.39746
0.397453
0.397446
0.397439
0.397432
0.397425
0.397418
0.397411
0.397404
0.397397
0.39739
0.397383
0.397376
0.397369
0.397362
0.397355
0.397348
0.397341
0.397334
0.397327
0.39732
0.397313
0.397306
0.397299
0.397292
0.397285
0.397278
0.397271
0.397264
0.397257
0.39725
0.397243
0.397236
0.397229
0.397222
0.397215
0.397208
0.397201
0.397194
0.397187
0.39718
0.397173
0.397166
0.397159
0.397152
0.397145
0.397138
0.397131
0.397124
0.397117
0.397109
0.397102
0.397095
0.397088
0.397081
0.397074
0.397067
0.39706
0.397053
0.397046
0.397039
0.397032
0.397025
0.397018
0.397011
0.397004
0.396996
0.396989
0.396982
0.396975
0.396968
0.396961
0.396954
0.396947
0.39694
0.396933
0.396926
0.396919
0.396911
0.396904
0.396897
0.39689
0.396883
0.396876
0.396869
0.396862
0.396855
0.396848
0.396841
0.396833
0.396826
0.396819
0.396812
0.396805
0.396798
0.396791
0.396784
0.396777
0.396769
0.396762
0.396755