/*--------------------------------*- C++ -*----------------------------------*\
  =========                 |
  \\      /  F ield         | OpenFOAM: The Open Source CFD Toolbox
   \\    /   O peration     | Website:  https://openfoam.org
    \\  /    A nd           | Version:  9
     \\/     M anipulation  |
\*---------------------------------------------------------------------------*/
FoamFile
{
    format      ascii;
    class       volVectorField;
    location    "0.024";
    object      U_0;
}
// * * * * * * * * * * * * * * * * * * * * * * * * * * * * * * * * * * * * * //

dimensions      [0 1 -1 0 0 0 0];

internalField   nonuniform List<vector> 
10000
(
(3.77198 0 0)
(3.85113 0 0)
(3.91858 0 0)
(3.97548 0 0)
(4.03118 0 0)
(4.08828 0 0)
(4.14612 0 0)
(4.20395 0 0)
(4.26165 0 0)
(4.3193 0 0)
(4.37694 0 0)
(4.43459 0 0)
(4.49225 0 0)
(4.54992 0 0)
(4.60759 0 0)
(4.66527 0 0)
(4.72294 0 0)
(4.7806 0 0)
(4.83826 0 0)
(4.89591 0 0)
(4.95357 0 0)
(5.01123 0 0)
(5.0689 0 0)
(5.12658 0 0)
(5.18426 0 0)
(5.24195 0 0)
(5.29964 0 0)
(5.35732 0 0)
(5.41501 0 0)
(5.47269 0 0)
(5.53037 0 0)
(5.58804 0 0)
(5.64571 0 0)
(5.70338 0 0)
(5.76106 0 0)
(5.81873 0 0)
(5.8764 0 0)
(5.93408 0 0)
(5.99175 0 0)
(6.04942 0 0)
(6.10709 0 0)
(6.16476 0 0)
(6.22244 0 0)
(6.28011 0 0)
(6.33778 0 0)
(6.39546 0 0)
(6.45313 0 0)
(6.51081 0 0)
(6.56848 0 0)
(6.62616 0 0)
(6.68383 0 0)
(6.74151 0 0)
(6.79919 0 0)
(6.85686 0 0)
(6.91454 0 0)
(6.97222 0 0)
(7.0299 0 0)
(7.08758 0 0)
(7.14526 0 0)
(7.20294 0 0)
(7.26062 0 0)
(7.3183 0 0)
(7.37598 0 0)
(7.43366 0 0)
(7.49134 0 0)
(7.54902 0 0)
(7.6067 0 0)
(7.66439 0 0)
(7.72207 0 0)
(7.77975 0 0)
(7.83744 0 0)
(7.89512 0 0)
(7.95281 0 0)
(8.01049 0 0)
(8.06818 0 0)
(8.12586 0 0)
(8.18355 0 0)
(8.24124 0 0)
(8.29892 0 0)
(8.35661 0 0)
(8.4143 0 0)
(8.47199 0 0)
(8.52968 0 0)
(8.58736 0 0)
(8.64505 0 0)
(8.70274 0 0)
(8.76043 0 0)
(8.81813 0 0)
(8.87582 0 0)
(8.93351 0 0)
(8.9912 0 0)
(9.04889 0 0)
(9.10659 0 0)
(9.16428 0 0)
(9.22197 0 0)
(9.27967 0 0)
(9.33736 0 0)
(9.39505 0 0)
(9.45275 0 0)
(9.51045 0 0)
(9.56814 0 0)
(9.62584 0 0)
(9.68353 0 0)
(9.74123 0 0)
(9.79893 0 0)
(9.85663 0 0)
(9.91433 0 0)
(9.97202 0 0)
(10.0297 0 0)
(10.0874 0 0)
(10.1451 0 0)
(10.2028 0 0)
(10.2605 0 0)
(10.3182 0 0)
(10.3759 0 0)
(10.4336 0 0)
(10.4913 0 0)
(10.549 0 0)
(10.6067 0 0)
(10.6644 0 0)
(10.7221 0 0)
(10.7798 0 0)
(10.8376 0 0)
(10.8953 0 0)
(10.953 0 0)
(11.0107 0 0)
(11.0684 0 0)
(11.1261 0 0)
(11.1838 0 0)
(11.2415 0 0)
(11.2992 0 0)
(11.3569 0 0)
(11.4146 0 0)
(11.4723 0 0)
(11.53 0 0)
(11.5877 0 0)
(11.6455 0 0)
(11.7032 0 0)
(11.7609 0 0)
(11.8186 0 0)
(11.8763 0 0)
(11.934 0 0)
(11.9917 0 0)
(12.0494 0 0)
(12.1072 0 0)
(12.1649 0 0)
(12.2226 0 0)
(12.2803 0 0)
(12.338 0 0)
(12.3957 0 0)
(12.4534 0 0)
(12.5112 0 0)
(12.5689 0 0)
(12.6266 0 0)
(12.6843 0 0)
(12.742 0 0)
(12.7997 0 0)
(12.8575 0 0)
(12.9152 0 0)
(12.9729 0 0)
(13.0306 0 0)
(13.0883 0 0)
(13.1461 0 0)
(13.2038 0 0)
(13.2615 0 0)
(13.3192 0 0)
(13.377 0 0)
(13.4347 0 0)
(13.4924 0 0)
(13.5501 0 0)
(13.6078 0 0)
(13.6656 0 0)
(13.7233 0 0)
(13.781 0 0)
(13.8387 0 0)
(13.8965 0 0)
(13.9542 0 0)
(14.0119 0 0)
(14.0697 0 0)
(14.1274 0 0)
(14.1851 0 0)
(14.2428 0 0)
(14.3006 0 0)
(14.3583 0 0)
(14.416 0 0)
(14.4738 0 0)
(14.5315 0 0)
(14.5892 0 0)
(14.6469 0 0)
(14.7047 0 0)
(14.7624 0 0)
(14.8201 0 0)
(14.8779 0 0)
(14.9356 0 0)
(14.9933 0 0)
(15.0511 0 0)
(15.1088 0 0)
(15.1665 0 0)
(15.2243 0 0)
(15.282 0 0)
(15.3397 0 0)
(15.3975 0 0)
(15.4552 0 0)
(15.513 0 0)
(15.5707 0 0)
(15.6284 0 0)
(15.6862 0 0)
(15.7439 0 0)
(15.8016 0 0)
(15.8594 0 0)
(15.9171 0 0)
(15.9749 0 0)
(16.0326 0 0)
(16.0904 0 0)
(16.1481 0 0)
(16.2058 0 0)
(16.2636 0 0)
(16.3213 0 0)
(16.3791 0 0)
(16.4368 0 0)
(16.4945 0 0)
(16.5523 0 0)
(16.61 0 0)
(16.6678 0 0)
(16.7255 0 0)
(16.7833 0 0)
(16.841 0 0)
(16.8988 0 0)
(16.9565 0 0)
(17.0143 0 0)
(17.072 0 0)
(17.1298 0 0)
(17.1875 0 0)
(17.2453 0 0)
(17.303 0 0)
(17.3608 0 0)
(17.4185 0 0)
(17.4763 0 0)
(17.534 0 0)
(17.5918 0 0)
(17.6495 0 0)
(17.7073 0 0)
(17.765 0 0)
(17.8228 0 0)
(17.8805 0 0)
(17.9383 0 0)
(17.996 0 0)
(18.0538 0 0)
(18.1115 0 0)
(18.1693 0 0)
(18.2271 0 0)
(18.2848 0 0)
(18.3426 0 0)
(18.4003 0 0)
(18.4581 0 0)
(18.5158 0 0)
(18.5736 0 0)
(18.6314 0 0)
(18.6891 0 0)
(18.7469 0 0)
(18.8046 0 0)
(18.8624 0 0)
(18.9202 0 0)
(18.9779 0 0)
(19.0357 0 0)
(19.0934 0 0)
(19.1512 0 0)
(19.209 0 0)
(19.2667 0 0)
(19.3245 0 0)
(19.3823 0 0)
(19.44 0 0)
(19.4978 0 0)
(19.5555 0 0)
(19.6133 0 0)
(19.6711 0 0)
(19.7288 0 0)
(19.7866 0 0)
(19.8444 0 0)
(19.9021 0 0)
(19.9599 0 0)
(20.0177 0 0)
(20.0754 0 0)
(20.1332 0 0)
(20.191 0 0)
(20.2488 0 0)
(20.3065 0 0)
(20.3643 0 0)
(20.4221 0 0)
(20.4798 0 0)
(20.5376 0 0)
(20.5954 0 0)
(20.6532 0 0)
(20.7109 0 0)
(20.7687 0 0)
(20.8265 0 0)
(20.8843 0 0)
(20.942 0 0)
(20.9998 0 0)
(21.0576 0 0)
(21.1154 0 0)
(21.1731 0 0)
(21.2309 0 0)
(21.2887 0 0)
(21.3465 0 0)
(21.4042 0 0)
(21.462 0 0)
(21.5198 0 0)
(21.5776 0 0)
(21.6354 0 0)
(21.6931 0 0)
(21.7509 0 0)
(21.8087 0 0)
(21.8665 0 0)
(21.9243 0 0)
(21.982 0 0)
(22.0398 0 0)
(22.0976 0 0)
(22.1554 0 0)
(22.2132 0 0)
(22.271 0 0)
(22.3287 0 0)
(22.3865 0 0)
(22.4443 0 0)
(22.5021 0 0)
(22.5599 0 0)
(22.6177 0 0)
(22.6755 0 0)
(22.7332 0 0)
(22.791 0 0)
(22.8488 0 0)
(22.9066 0 0)
(22.9644 0 0)
(23.0222 0 0)
(23.08 0 0)
(23.1378 0 0)
(23.1956 0 0)
(23.2533 0 0)
(23.3111 0 0)
(23.3689 0 0)
(23.4267 0 0)
(23.4845 0 0)
(23.5423 0 0)
(23.6001 0 0)
(23.6579 0 0)
(23.7157 0 0)
(23.7735 0 0)
(23.8313 0 0)
(23.8891 0 0)
(23.9469 0 0)
(24.0047 0 0)
(24.0625 0 0)
(24.1203 0 0)
(24.178 0 0)
(24.2358 0 0)
(24.2936 0 0)
(24.3514 0 0)
(24.4092 0 0)
(24.467 0 0)
(24.5248 0 0)
(24.5826 0 0)
(24.6404 0 0)
(24.6982 0 0)
(24.756 0 0)
(24.8138 0 0)
(24.8716 0 0)
(24.9294 0 0)
(24.9873 0 0)
(25.0451 0 0)
(25.1029 0 0)
(25.1607 0 0)
(25.2185 0 0)
(25.2763 0 0)
(25.3341 0 0)
(25.3919 0 0)
(25.4497 0 0)
(25.5075 0 0)
(25.5653 0 0)
(25.6231 0 0)
(25.6809 0 0)
(25.7387 0 0)
(25.7965 0 0)
(25.8543 0 0)
(25.9121 0 0)
(25.97 0 0)
(26.0278 0 0)
(26.0856 0 0)
(26.1434 0 0)
(26.2012 0 0)
(26.259 0 0)
(26.3168 0 0)
(26.3746 0 0)
(26.4324 0 0)
(26.4903 0 0)
(26.5481 0 0)
(26.6059 0 0)
(26.6637 0 0)
(26.7215 0 0)
(26.7793 0 0)
(26.8372 0 0)
(26.895 0 0)
(26.9528 0 0)
(27.0106 0 0)
(27.0684 0 0)
(27.1262 0 0)
(27.1841 0 0)
(27.2419 0 0)
(27.2997 0 0)
(27.3575 0 0)
(27.4153 0 0)
(27.4731 0 0)
(27.531 0 0)
(27.5888 0 0)
(27.6466 0 0)
(27.7044 0 0)
(27.7623 0 0)
(27.8201 0 0)
(27.8779 0 0)
(27.9357 0 0)
(27.9935 0 0)
(28.0514 0 0)
(28.1092 0 0)
(28.167 0 0)
(28.2248 0 0)
(28.2827 0 0)
(28.3405 0 0)
(28.3983 0 0)
(28.4562 0 0)
(28.514 0 0)
(28.5718 0 0)
(28.6296 0 0)
(28.6875 0 0)
(28.7453 0 0)
(28.8031 0 0)
(28.8609 0 0)
(28.9188 0 0)
(28.9766 0 0)
(29.0344 0 0)
(29.0923 0 0)
(29.1501 0 0)
(29.2079 0 0)
(29.2658 0 0)
(29.3236 0 0)
(29.3814 0 0)
(29.4393 0 0)
(29.4971 0 0)
(29.5549 0 0)
(29.6128 0 0)
(29.6706 0 0)
(29.7284 0 0)
(29.7863 0 0)
(29.8441 0 0)
(29.902 0 0)
(29.9598 0 0)
(30.0176 0 0)
(30.0755 0 0)
(30.1333 0 0)
(30.1911 0 0)
(30.249 0 0)
(30.3068 0 0)
(30.3647 0 0)
(30.4225 0 0)
(30.4803 0 0)
(30.5382 0 0)
(30.596 0 0)
(30.6539 0 0)
(30.7117 0 0)
(30.7696 0 0)
(30.8274 0 0)
(30.8852 0 0)
(30.9431 0 0)
(31.0009 0 0)
(31.0588 0 0)
(31.1166 0 0)
(31.1745 0 0)
(31.2323 0 0)
(31.2902 0 0)
(31.348 0 0)
(31.4059 0 0)
(31.4637 0 0)
(31.5216 0 0)
(31.5794 0 0)
(31.6372 0 0)
(31.6951 0 0)
(31.7529 0 0)
(31.8108 0 0)
(31.8686 0 0)
(31.9265 0 0)
(31.9844 0 0)
(32.0422 0 0)
(32.1001 0 0)
(32.1579 0 0)
(32.2158 0 0)
(32.2736 0 0)
(32.3315 0 0)
(32.3893 0 0)
(32.4472 0 0)
(32.505 0 0)
(32.5629 0 0)
(32.6207 0 0)
(32.6786 0 0)
(32.7365 0 0)
(32.7943 0 0)
(32.8522 0 0)
(32.91 0 0)
(32.9679 0 0)
(33.0257 0 0)
(33.0836 0 0)
(33.1415 0 0)
(33.1993 0 0)
(33.2572 0 0)
(33.315 0 0)
(33.3729 0 0)
(33.4308 0 0)
(33.4886 0 0)
(33.5465 0 0)
(33.6044 0 0)
(33.6622 0 0)
(33.7201 0 0)
(33.7779 0 0)
(33.8358 0 0)
(33.8937 0 0)
(33.9515 0 0)
(34.0094 0 0)
(34.0673 0 0)
(34.1251 0 0)
(34.183 0 0)
(34.2409 0 0)
(34.2987 0 0)
(34.3566 0 0)
(34.4145 0 0)
(34.4724 0 0)
(34.5302 0 0)
(34.5881 0 0)
(34.646 0 0)
(34.7038 0 0)
(34.7617 0 0)
(34.8196 0 0)
(34.8774 0 0)
(34.9353 0 0)
(34.9932 0 0)
(35.0511 0 0)
(35.1089 0 0)
(35.1668 0 0)
(35.2247 0 0)
(35.2826 0 0)
(35.3404 0 0)
(35.3983 0 0)
(35.4562 0 0)
(35.5141 0 0)
(35.5719 0 0)
(35.6298 0 0)
(35.6877 0 0)
(35.7456 0 0)
(35.8034 0 0)
(35.8613 0 0)
(35.9192 0 0)
(35.9771 0 0)
(36.035 0 0)
(36.0928 0 0)
(36.1507 0 0)
(36.2086 0 0)
(36.2665 0 0)
(36.3244 0 0)
(36.3822 0 0)
(36.4401 0 0)
(36.498 0 0)
(36.5559 0 0)
(36.6138 0 0)
(36.6717 0 0)
(36.7295 0 0)
(36.7874 0 0)
(36.8453 0 0)
(36.9032 0 0)
(36.9611 0 0)
(37.019 0 0)
(37.0769 0 0)
(37.1347 0 0)
(37.1926 0 0)
(37.2505 0 0)
(37.3084 0 0)
(37.3663 0 0)
(37.4242 0 0)
(37.4821 0 0)
(37.54 0 0)
(37.5978 0 0)
(37.6557 0 0)
(37.7136 0 0)
(37.7715 0 0)
(37.8294 0 0)
(37.8873 0 0)
(37.9452 0 0)
(38.0031 0 0)
(38.061 0 0)
(38.1189 0 0)
(38.1768 0 0)
(38.2347 0 0)
(38.2926 0 0)
(38.3505 0 0)
(38.4084 0 0)
(38.4663 0 0)
(38.5241 0 0)
(38.582 0 0)
(38.6399 0 0)
(38.6978 0 0)
(38.7557 0 0)
(38.8136 0 0)
(38.8715 0 0)
(38.9294 0 0)
(38.9873 0 0)
(39.0452 0 0)
(39.1031 0 0)
(39.161 0 0)
(39.2189 0 0)
(39.2768 0 0)
(39.3347 0 0)
(39.3927 0 0)
(39.4506 0 0)
(39.5085 0 0)
(39.5664 0 0)
(39.6243 0 0)
(39.6822 0 0)
(39.7401 0 0)
(39.798 0 0)
(39.8559 0 0)
(39.9138 0 0)
(39.9717 0 0)
(40.0296 0 0)
(40.0875 0 0)
(40.1454 0 0)
(40.2033 0 0)
(40.2612 0 0)
(40.3192 0 0)
(40.3771 0 0)
(40.435 0 0)
(40.4929 0 0)
(40.5508 0 0)
(40.6087 0 0)
(40.6666 0 0)
(40.7245 0 0)
(40.7824 0 0)
(40.8404 0 0)
(40.8983 0 0)
(40.9562 0 0)
(41.0141 0 0)
(41.072 0 0)
(41.1299 0 0)
(41.1878 0 0)
(41.2458 0 0)
(41.3037 0 0)
(41.3616 0 0)
(41.4195 0 0)
(41.4774 0 0)
(41.5353 0 0)
(41.5933 0 0)
(41.6512 0 0)
(41.7091 0 0)
(41.767 0 0)
(41.8249 0 0)
(41.8829 0 0)
(41.9408 0 0)
(41.9987 0 0)
(42.0566 0 0)
(42.1145 0 0)
(42.1725 0 0)
(42.2304 0 0)
(42.2883 0 0)
(42.3462 0 0)
(42.4042 0 0)
(42.4621 0 0)
(42.52 0 0)
(42.5779 0 0)
(42.6358 0 0)
(42.6938 0 0)
(42.7517 0 0)
(42.8096 0 0)
(42.8676 0 0)
(42.9255 0 0)
(42.9834 0 0)
(43.0413 0 0)
(43.0993 0 0)
(43.1572 0 0)
(43.2151 0 0)
(43.2731 0 0)
(43.331 0 0)
(43.3889 0 0)
(43.4468 0 0)
(43.5048 0 0)
(43.5627 0 0)
(43.6206 0 0)
(43.6786 0 0)
(43.7365 0 0)
(43.7944 0 0)
(43.8524 0 0)
(43.9103 0 0)
(43.9682 0 0)
(44.0262 0 0)
(44.0841 0 0)
(44.142 0 0)
(44.2 0 0)
(44.2579 0 0)
(44.3159 0 0)
(44.3738 0 0)
(44.4317 0 0)
(44.4897 0 0)
(44.5476 0 0)
(44.6055 0 0)
(44.6635 0 0)
(44.7214 0 0)
(44.7794 0 0)
(44.8373 0 0)
(44.8952 0 0)
(44.9532 0 0)
(45.0111 0 0)
(45.0691 0 0)
(45.127 0 0)
(45.185 0 0)
(45.2429 0 0)
(45.3008 0 0)
(45.3588 0 0)
(45.4167 0 0)
(45.4747 0 0)
(45.5326 0 0)
(45.5906 0 0)
(45.6485 0 0)
(45.7065 0 0)
(45.7644 0 0)
(45.8223 0 0)
(45.8803 0 0)
(45.9382 0 0)
(45.9962 0 0)
(46.0541 0 0)
(46.1121 0 0)
(46.17 0 0)
(46.228 0 0)
(46.2859 0 0)
(46.3439 0 0)
(46.4018 0 0)
(46.4598 0 0)
(46.5177 0 0)
(46.5757 0 0)
(46.6336 0 0)
(46.6916 0 0)
(46.7496 0 0)
(46.8075 0 0)
(46.8655 0 0)
(46.9234 0 0)
(46.9814 0 0)
(47.0393 0 0)
(47.0973 0 0)
(47.1552 0 0)
(47.2132 0 0)
(47.2711 0 0)
(47.3291 0 0)
(47.3871 0 0)
(47.445 0 0)
(47.503 0 0)
(47.5609 0 0)
(47.6189 0 0)
(47.6769 0 0)
(47.7348 0 0)
(47.7928 0 0)
(47.8507 0 0)
(47.9087 0 0)
(47.9667 0 0)
(48.0246 0 0)
(48.0826 0 0)
(48.1406 0 0)
(48.1985 0 0)
(48.2565 0 0)
(48.3144 0 0)
(48.3724 0 0)
(48.4304 0 0)
(48.4883 0 0)
(48.5463 0 0)
(48.6043 0 0)
(48.6622 0 0)
(48.7202 0 0)
(48.7782 0 0)
(48.8361 0 0)
(48.8941 0 0)
(48.9521 0 0)
(49.01 0 0)
(49.068 0 0)
(49.126 0 0)
(49.1839 0 0)
(49.2419 0 0)
(49.2999 0 0)
(49.3579 0 0)
(49.4158 0 0)
(49.4738 0 0)
(49.5318 0 0)
(49.5897 0 0)
(49.6477 0 0)
(49.7057 0 0)
(49.7637 0 0)
(49.8216 0 0)
(49.8796 0 0)
(49.9376 0 0)
(49.9956 0 0)
(50.0535 0 0)
(50.1115 0 0)
(50.1695 0 0)
(50.2275 0 0)
(50.2855 0 0)
(50.3434 0 0)
(50.4014 0 0)
(50.4594 0 0)
(50.5174 0 0)
(50.5753 0 0)
(50.6333 0 0)
(50.6913 0 0)
(50.7493 0 0)
(50.8073 0 0)
(50.8652 0 0)
(50.9232 0 0)
(50.9812 0 0)
(51.0392 0 0)
(51.0972 0 0)
(51.1552 0 0)
(51.2131 0 0)
(51.2711 0 0)
(51.3291 0 0)
(51.3871 0 0)
(51.4451 0 0)
(51.5031 0 0)
(51.5611 0 0)
(51.619 0 0)
(51.677 0 0)
(51.735 0 0)
(51.793 0 0)
(51.851 0 0)
(51.909 0 0)
(51.967 0 0)
(52.025 0 0)
(52.0829 0 0)
(52.1409 0 0)
(52.1989 0 0)
(52.2569 0 0)
(52.3149 0 0)
(52.3729 0 0)
(52.4309 0 0)
(52.4889 0 0)
(52.5469 0 0)
(52.6049 0 0)
(52.6629 0 0)
(52.7209 0 0)
(52.7789 0 0)
(52.8368 0 0)
(52.8948 0 0)
(52.9528 0 0)
(53.0108 0 0)
(53.0688 0 0)
(53.1268 0 0)
(53.1848 0 0)
(53.2428 0 0)
(53.3008 0 0)
(53.3588 0 0)
(53.4168 0 0)
(53.4748 0 0)
(53.5328 0 0)
(53.5908 0 0)
(53.6488 0 0)
(53.7068 0 0)
(53.7648 0 0)
(53.8228 0 0)
(53.8808 0 0)
(53.9388 0 0)
(53.9968 0 0)
(54.0548 0 0)
(54.1128 0 0)
(54.1708 0 0)
(54.2288 0 0)
(54.2868 0 0)
(54.3448 0 0)
(54.4029 0 0)
(54.4609 0 0)
(54.5189 0 0)
(54.5769 0 0)
(54.6349 0 0)
(54.6929 0 0)
(54.7509 0 0)
(54.8089 0 0)
(54.8669 0 0)
(54.9249 0 0)
(54.9829 0 0)
(55.0409 0 0)
(55.0989 0 0)
(55.157 0 0)
(55.215 0 0)
(55.273 0 0)
(55.331 0 0)
(55.389 0 0)
(55.447 0 0)
(55.505 0 0)
(55.563 0 0)
(55.6211 0 0)
(55.6791 0 0)
(55.7371 0 0)
(55.7951 0 0)
(55.8531 0 0)
(55.9111 0 0)
(55.9691 0 0)
(56.0272 0 0)
(56.0852 0 0)
(56.1432 0 0)
(56.2012 0 0)
(56.2592 0 0)
(56.3172 0 0)
(56.3753 0 0)
(56.4333 0 0)
(56.4913 0 0)
(56.5493 0 0)
(56.6073 0 0)
(56.6654 0 0)
(56.7234 0 0)
(56.7814 0 0)
(56.8394 0 0)
(56.8974 0 0)
(56.9555 0 0)
(57.0135 0 0)
(57.0715 0 0)
(57.1295 0 0)
(57.1876 0 0)
(57.2456 0 0)
(57.3036 0 0)
(57.3616 0 0)
(57.4197 0 0)
(57.4777 0 0)
(57.5357 0 0)
(57.5937 0 0)
(57.6518 0 0)
(57.7098 0 0)
(57.7678 0 0)
(57.8259 0 0)
(57.8839 0 0)
(57.9419 0 0)
(57.9999 0 0)
(58.058 0 0)
(58.116 0 0)
(58.174 0 0)
(58.2321 0 0)
(58.2901 0 0)
(58.3481 0 0)
(58.4062 0 0)
(58.4642 0 0)
(58.5222 0 0)
(58.5803 0 0)
(58.6383 0 0)
(58.6963 0 0)
(58.7544 0 0)
(58.8124 0 0)
(58.8704 0 0)
(58.9285 0 0)
(58.9865 0 0)
(59.0445 0 0)
(59.1026 0 0)
(59.1606 0 0)
(59.2186 0 0)
(59.2767 0 0)
(59.3347 0 0)
(59.3928 0 0)
(59.4508 0 0)
(59.5088 0 0)
(59.5669 0 0)
(59.6249 0 0)
(59.683 0 0)
(59.741 0 0)
(59.799 0 0)
(59.8571 0 0)
(59.9151 0 0)
(59.9732 0 0)
(60.0312 0 0)
(60.0893 0 0)
(60.1473 0 0)
(60.2053 0 0)
(60.2634 0 0)
(60.3214 0 0)
(60.3795 0 0)
(60.4375 0 0)
(60.4956 0 0)
(60.5536 0 0)
(60.6117 0 0)
(60.6697 0 0)
(60.7278 0 0)
(60.7858 0 0)
(60.8439 0 0)
(60.9019 0 0)
(60.96 0 0)
(61.018 0 0)
(61.0761 0 0)
(61.1341 0 0)
(61.1922 0 0)
(61.2502 0 0)
(61.3083 0 0)
(61.3663 0 0)
(61.4244 0 0)
(61.4824 0 0)
(61.5405 0 0)
(61.5985 0 0)
(61.6566 0 0)
(61.7146 0 0)
(61.7727 0 0)
(61.8307 0 0)
(61.8888 0 0)
(61.9468 0 0)
(62.0049 0 0)
(62.063 0 0)
(62.121 0 0)
(62.1791 0 0)
(62.2371 0 0)
(62.2952 0 0)
(62.3532 0 0)
(62.4113 0 0)
(62.4694 0 0)
(62.5274 0 0)
(62.5855 0 0)
(62.6435 0 0)
(62.7016 0 0)
(62.7597 0 0)
(62.8177 0 0)
(62.8758 0 0)
(62.9339 0 0)
(62.9919 0 0)
(63.05 0 0)
(63.108 0 0)
(63.1661 0 0)
(63.2242 0 0)
(63.2822 0 0)
(63.3403 0 0)
(63.3984 0 0)
(63.4564 0 0)
(63.5145 0 0)
(63.5726 0 0)
(63.6306 0 0)
(63.6887 0 0)
(63.7468 0 0)
(63.8048 0 0)
(63.8629 0 0)
(63.921 0 0)
(63.979 0 0)
(64.0371 0 0)
(64.0952 0 0)
(64.1533 0 0)
(64.2113 0 0)
(64.2694 0 0)
(64.3275 0 0)
(64.3855 0 0)
(64.4436 0 0)
(64.5017 0 0)
(64.5598 0 0)
(64.6178 0 0)
(64.6759 0 0)
(64.734 0 0)
(64.7921 0 0)
(64.8501 0 0)
(64.9082 0 0)
(64.9663 0 0)
(65.0244 0 0)
(65.0824 0 0)
(65.1405 0 0)
(65.1986 0 0)
(65.2567 0 0)
(65.3147 0 0)
(65.3728 0 0)
(65.4309 0 0)
(65.489 0 0)
(65.5471 0 0)
(65.6051 0 0)
(65.6632 0 0)
(65.7213 0 0)
(65.7794 0 0)
(65.8375 0 0)
(65.8955 0 0)
(65.9536 0 0)
(66.0117 0 0)
(66.0698 0 0)
(66.1279 0 0)
(66.186 0 0)
(66.244 0 0)
(66.3021 0 0)
(66.3602 0 0)
(66.4183 0 0)
(66.4764 0 0)
(66.5345 0 0)
(66.5926 0 0)
(66.6506 0 0)
(66.7087 0 0)
(66.7668 0 0)
(66.8249 0 0)
(66.883 0 0)
(66.9411 0 0)
(66.9992 0 0)
(67.0573 0 0)
(67.1154 0 0)
(67.1734 0 0)
(67.2315 0 0)
(67.2896 0 0)
(67.3477 0 0)
(67.4058 0 0)
(67.4639 0 0)
(67.522 0 0)
(67.5801 0 0)
(67.6382 0 0)
(67.6963 0 0)
(67.7544 0 0)
(67.8125 0 0)
(67.8706 0 0)
(67.9287 0 0)
(67.9867 0 0)
(68.0448 0 0)
(68.1029 0 0)
(68.161 0 0)
(68.2191 0 0)
(68.2772 0 0)
(68.3353 0 0)
(68.3934 0 0)
(68.4515 0 0)
(68.5096 0 0)
(68.5677 0 0)
(68.6258 0 0)
(68.6839 0 0)
(68.742 0 0)
(68.8001 0 0)
(68.8582 0 0)
(68.9163 0 0)
(68.9744 0 0)
(69.0325 0 0)
(69.0906 0 0)
(69.1487 0 0)
(69.2068 0 0)
(69.265 0 0)
(69.3231 0 0)
(69.3812 0 0)
(69.4393 0 0)
(69.4974 0 0)
(69.5555 0 0)
(69.6136 0 0)
(69.6717 0 0)
(69.7298 0 0)
(69.7879 0 0)
(69.846 0 0)
(69.9041 0 0)
(69.9622 0 0)
(70.0203 0 0)
(70.0785 0 0)
(70.1366 0 0)
(70.1947 0 0)
(70.2528 0 0)
(70.3109 0 0)
(70.369 0 0)
(70.4271 0 0)
(70.4852 0 0)
(70.5433 0 0)
(70.6015 0 0)
(70.6596 0 0)
(70.7177 0 0)
(70.7758 0 0)
(70.8339 0 0)
(70.892 0 0)
(70.9501 0 0)
(71.0083 0 0)
(71.0664 0 0)
(71.1245 0 0)
(71.1826 0 0)
(71.2407 0 0)
(71.2988 0 0)
(71.357 0 0)
(71.4151 0 0)
(71.4732 0 0)
(71.5313 0 0)
(71.5894 0 0)
(71.6476 0 0)
(71.7057 0 0)
(71.7638 0 0)
(71.8219 0 0)
(71.88 0 0)
(71.9382 0 0)
(71.9963 0 0)
(72.0544 0 0)
(72.1125 0 0)
(72.1706 0 0)
(72.2288 0 0)
(72.2869 0 0)
(72.345 0 0)
(72.4031 0 0)
(72.4613 0 0)
(72.5194 0 0)
(72.5775 0 0)
(72.6356 0 0)
(72.6938 0 0)
(72.7519 0 0)
(72.81 0 0)
(72.8682 0 0)
(72.9263 0 0)
(72.9844 0 0)
(73.0425 0 0)
(73.1007 0 0)
(73.1588 0 0)
(73.2169 0 0)
(73.2751 0 0)
(73.3332 0 0)
(73.3913 0 0)
(73.4495 0 0)
(73.5076 0 0)
(73.5657 0 0)
(73.6239 0 0)
(73.682 0 0)
(73.7401 0 0)
(73.7983 0 0)
(73.8564 0 0)
(73.9145 0 0)
(73.9727 0 0)
(74.0308 0 0)
(74.0889 0 0)
(74.1471 0 0)
(74.2052 0 0)
(74.2633 0 0)
(74.3215 0 0)
(74.3796 0 0)
(74.4378 0 0)
(74.4959 0 0)
(74.554 0 0)
(74.6122 0 0)
(74.6703 0 0)
(74.7285 0 0)
(74.7866 0 0)
(74.8447 0 0)
(74.9029 0 0)
(74.961 0 0)
(75.0192 0 0)
(75.0773 0 0)
(75.1354 0 0)
(75.1936 0 0)
(75.2517 0 0)
(75.3099 0 0)
(75.368 0 0)
(75.4262 0 0)
(75.4843 0 0)
(75.5425 0 0)
(75.6006 0 0)
(75.6587 0 0)
(75.7169 0 0)
(75.775 0 0)
(75.8332 0 0)
(75.8913 0 0)
(75.9495 0 0)
(76.0076 0 0)
(76.0658 0 0)
(76.1239 0 0)
(76.1821 0 0)
(76.2402 0 0)
(76.2984 0 0)
(76.3565 0 0)
(76.4147 0 0)
(76.4728 0 0)
(76.531 0 0)
(76.5891 0 0)
(76.6473 0 0)
(76.7054 0 0)
(76.7636 0 0)
(76.8217 0 0)
(76.8799 0 0)
(76.9381 0 0)
(76.9962 0 0)
(77.0544 0 0)
(77.1125 0 0)
(77.1707 0 0)
(77.2288 0 0)
(77.287 0 0)
(77.3451 0 0)
(77.4033 0 0)
(77.4615 0 0)
(77.5196 0 0)
(77.5778 0 0)
(77.6359 0 0)
(77.6941 0 0)
(77.7523 0 0)
(77.8104 0 0)
(77.8686 0 0)
(77.9267 0 0)
(77.9849 0 0)
(78.0431 0 0)
(78.1012 0 0)
(78.1594 0 0)
(78.2175 0 0)
(78.2757 0 0)
(78.3339 0 0)
(78.392 0 0)
(78.4502 0 0)
(78.5084 0 0)
(78.5665 0 0)
(78.6247 0 0)
(78.6829 0 0)
(78.741 0 0)
(78.7992 0 0)
(78.8574 0 0)
(78.9155 0 0)
(78.9737 0 0)
(79.0319 0 0)
(79.09 0 0)
(79.1482 0 0)
(79.2064 0 0)
(79.2645 0 0)
(79.3227 0 0)
(79.3809 0 0)
(79.4391 0 0)
(79.4972 0 0)
(79.5554 0 0)
(79.6136 0 0)
(79.6717 0 0)
(79.7299 0 0)
(79.7881 0 0)
(79.8463 0 0)
(79.9044 0 0)
(79.9626 0 0)
(80.0208 0 0)
(80.079 0 0)
(80.1371 0 0)
(80.1953 0 0)
(80.2535 0 0)
(80.3117 0 0)
(80.3698 0 0)
(80.428 0 0)
(80.4862 0 0)
(80.5444 0 0)
(80.6025 0 0)
(80.6607 0 0)
(80.7189 0 0)
(80.7771 0 0)
(80.8353 0 0)
(80.8934 0 0)
(80.9516 0 0)
(81.0098 0 0)
(81.068 0 0)
(81.1262 0 0)
(81.1844 0 0)
(81.2425 0 0)
(81.3007 0 0)
(81.3589 0 0)
(81.4171 0 0)
(81.4753 0 0)
(81.5335 0 0)
(81.5916 0 0)
(81.6498 0 0)
(81.708 0 0)
(81.7662 0 0)
(81.8244 0 0)
(81.8826 0 0)
(81.9408 0 0)
(81.9989 0 0)
(82.0571 0 0)
(82.1153 0 0)
(82.1735 0 0)
(82.2317 0 0)
(82.2899 0 0)
(82.3481 0 0)
(82.4063 0 0)
(82.4645 0 0)
(82.5226 0 0)
(82.5808 0 0)
(82.639 0 0)
(82.6972 0 0)
(82.7554 0 0)
(82.8136 0 0)
(82.8718 0 0)
(82.93 0 0)
(82.9882 0 0)
(83.0464 0 0)
(83.1046 0 0)
(83.1628 0 0)
(83.221 0 0)
(83.2792 0 0)
(83.3374 0 0)
(83.3955 0 0)
(83.4537 0 0)
(83.5119 0 0)
(83.5701 0 0)
(83.6283 0 0)
(83.6865 0 0)
(83.7447 0 0)
(83.8029 0 0)
(83.8611 0 0)
(83.9193 0 0)
(83.9775 0 0)
(84.0357 0 0)
(84.0939 0 0)
(84.1521 0 0)
(84.2103 0 0)
(84.2685 0 0)
(84.3267 0 0)
(84.3849 0 0)
(84.4431 0 0)
(84.5014 0 0)
(84.5596 0 0)
(84.6178 0 0)
(84.676 0 0)
(84.7342 0 0)
(84.7924 0 0)
(84.8506 0 0)
(84.9088 0 0)
(84.967 0 0)
(85.0252 0 0)
(85.0834 0 0)
(85.1416 0 0)
(85.1998 0 0)
(85.258 0 0)
(85.3162 0 0)
(85.3744 0 0)
(85.4327 0 0)
(85.4909 0 0)
(85.5491 0 0)
(85.6073 0 0)
(85.6655 0 0)
(85.7237 0 0)
(85.7819 0 0)
(85.8401 0 0)
(85.8983 0 0)
(85.9566 0 0)
(86.0148 0 0)
(86.073 0 0)
(86.1312 0 0)
(86.1894 0 0)
(86.2476 0 0)
(86.3058 0 0)
(86.3641 0 0)
(86.4223 0 0)
(86.4805 0 0)
(86.5387 0 0)
(86.5969 0 0)
(86.6551 0 0)
(86.7134 0 0)
(86.7716 0 0)
(86.8298 0 0)
(86.888 0 0)
(86.9462 0 0)
(87.0045 0 0)
(87.0627 0 0)
(87.1209 0 0)
(87.1791 0 0)
(87.2373 0 0)
(87.2956 0 0)
(87.3538 0 0)
(87.412 0 0)
(87.4702 0 0)
(87.5285 0 0)
(87.5867 0 0)
(87.6449 0 0)
(87.7031 0 0)
(87.7613 0 0)
(87.8196 0 0)
(87.8778 0 0)
(87.936 0 0)
(87.9943 0 0)
(88.0525 0 0)
(88.1107 0 0)
(88.1689 0 0)
(88.2272 0 0)
(88.2854 0 0)
(88.3436 0 0)
(88.4018 0 0)
(88.4601 0 0)
(88.5183 0 0)
(88.5765 0 0)
(88.6348 0 0)
(88.693 0 0)
(88.7512 0 0)
(88.8095 0 0)
(88.8677 0 0)
(88.9259 0 0)
(88.9842 0 0)
(89.0424 0 0)
(89.1006 0 0)
(89.1589 0 0)
(89.2171 0 0)
(89.2753 0 0)
(89.3336 0 0)
(89.3918 0 0)
(89.45 0 0)
(89.5083 0 0)
(89.5665 0 0)
(89.6247 0 0)
(89.683 0 0)
(89.7412 0 0)
(89.7994 0 0)
(89.8577 0 0)
(89.9159 0 0)
(89.9742 0 0)
(90.0324 0 0)
(90.0906 0 0)
(90.1489 0 0)
(90.2071 0 0)
(90.2654 0 0)
(90.3236 0 0)
(90.3818 0 0)
(90.4401 0 0)
(90.4983 0 0)
(90.5566 0 0)
(90.6148 0 0)
(90.6731 0 0)
(90.7313 0 0)
(90.7895 0 0)
(90.8478 0 0)
(90.906 0 0)
(90.9643 0 0)
(91.0225 0 0)
(91.0808 0 0)
(91.139 0 0)
(91.1973 0 0)
(91.2555 0 0)
(91.3138 0 0)
(91.372 0 0)
(91.4303 0 0)
(91.4885 0 0)
(91.5468 0 0)
(91.605 0 0)
(91.6633 0 0)
(91.7215 0 0)
(91.7798 0 0)
(91.838 0 0)
(91.8963 0 0)
(91.9545 0 0)
(92.0128 0 0)
(92.071 0 0)
(92.1293 0 0)
(92.1875 0 0)
(92.2458 0 0)
(92.304 0 0)
(92.3623 0 0)
(92.4205 0 0)
(92.4788 0 0)
(92.537 0 0)
(92.5953 0 0)
(92.6536 0 0)
(92.7118 0 0)
(92.7701 0 0)
(92.8283 0 0)
(92.8866 0 0)
(92.9448 0 0)
(93.0031 0 0)
(93.0614 0 0)
(93.1196 0 0)
(93.1779 0 0)
(93.2361 0 0)
(93.2944 0 0)
(93.3527 0 0)
(93.4109 0 0)
(93.4692 0 0)
(93.5274 0 0)
(93.5857 0 0)
(93.644 0 0)
(93.7022 0 0)
(93.7605 0 0)
(93.8188 0 0)
(93.877 0 0)
(93.9353 0 0)
(93.9935 0 0)
(94.0518 0 0)
(94.1101 0 0)
(94.1683 0 0)
(94.2266 0 0)
(94.2849 0 0)
(94.3431 0 0)
(94.4014 0 0)
(94.4597 0 0)
(94.5179 0 0)
(94.5762 0 0)
(94.6345 0 0)
(94.6927 0 0)
(94.751 0 0)
(94.8093 0 0)
(94.8676 0 0)
(94.9258 0 0)
(94.9841 0 0)
(95.0424 0 0)
(95.1006 0 0)
(95.1589 0 0)
(95.2172 0 0)
(95.2755 0 0)
(95.3337 0 0)
(95.392 0 0)
(95.4503 0 0)
(95.5086 0 0)
(95.5668 0 0)
(95.6251 0 0)
(95.6834 0 0)
(95.7417 0 0)
(95.7999 0 0)
(95.8582 0 0)
(95.9165 0 0)
(95.9748 0 0)
(96.033 0 0)
(96.0913 0 0)
(96.1496 0 0)
(96.2079 0 0)
(96.2662 0 0)
(96.3244 0 0)
(96.3827 0 0)
(96.441 0 0)
(96.4993 0 0)
(96.5576 0 0)
(96.6158 0 0)
(96.6741 0 0)
(96.7324 0 0)
(96.7907 0 0)
(96.849 0 0)
(96.9073 0 0)
(96.9655 0 0)
(97.0238 0 0)
(97.0821 0 0)
(97.1404 0 0)
(97.1987 0 0)
(97.257 0 0)
(97.3152 0 0)
(97.3735 0 0)
(97.4318 0 0)
(97.4901 0 0)
(97.5484 0 0)
(97.6067 0 0)
(97.665 0 0)
(97.7233 0 0)
(97.7815 0 0)
(97.8398 0 0)
(97.8981 0 0)
(97.9564 0 0)
(98.0147 0 0)
(98.073 0 0)
(98.1313 0 0)
(98.1896 0 0)
(98.2479 0 0)
(98.3062 0 0)
(98.3645 0 0)
(98.4227 0 0)
(98.481 0 0)
(98.5393 0 0)
(98.5976 0 0)
(98.6559 0 0)
(98.7142 0 0)
(98.7725 0 0)
(98.8308 0 0)
(98.8891 0 0)
(98.9474 0 0)
(99.0057 0 0)
(99.064 0 0)
(99.1223 0 0)
(99.1806 0 0)
(99.2389 0 0)
(99.2972 0 0)
(99.3555 0 0)
(99.4138 0 0)
(99.4721 0 0)
(99.5304 0 0)
(99.5887 0 0)
(99.647 0 0)
(99.7053 0 0)
(99.7636 0 0)
(99.8219 0 0)
(99.8802 0 0)
(99.9385 0 0)
(99.9968 0 0)
(100.055 0 0)
(100.113 0 0)
(100.172 0 0)
(100.23 0 0)
(100.288 0 0)
(100.347 0 0)
(100.405 0 0)
(100.463 0 0)
(100.522 0 0)
(100.58 0 0)
(100.638 0 0)
(100.696 0 0)
(100.755 0 0)
(100.813 0 0)
(100.871 0 0)
(100.93 0 0)
(100.988 0 0)
(101.046 0 0)
(101.105 0 0)
(101.163 0 0)
(101.221 0 0)
(101.28 0 0)
(101.338 0 0)
(101.396 0 0)
(101.454 0 0)
(101.513 0 0)
(101.571 0 0)
(101.629 0 0)
(101.688 0 0)
(101.746 0 0)
(101.804 0 0)
(101.863 0 0)
(101.921 0 0)
(101.979 0 0)
(102.038 0 0)
(102.096 0 0)
(102.154 0 0)
(102.213 0 0)
(102.271 0 0)
(102.329 0 0)
(102.388 0 0)
(102.446 0 0)
(102.504 0 0)
(102.563 0 0)
(102.621 0 0)
(102.679 0 0)
(102.737 0 0)
(102.796 0 0)
(102.854 0 0)
(102.912 0 0)
(102.971 0 0)
(103.029 0 0)
(103.087 0 0)
(103.146 0 0)
(103.204 0 0)
(103.262 0 0)
(103.321 0 0)
(103.379 0 0)
(103.437 0 0)
(103.496 0 0)
(103.554 0 0)
(103.612 0 0)
(103.671 0 0)
(103.729 0 0)
(103.787 0 0)
(103.846 0 0)
(103.904 0 0)
(103.962 0 0)
(104.021 0 0)
(104.079 0 0)
(104.137 0 0)
(104.196 0 0)
(104.254 0 0)
(104.312 0 0)
(104.371 0 0)
(104.429 0 0)
(104.487 0 0)
(104.546 0 0)
(104.604 0 0)
(104.662 0 0)
(104.721 0 0)
(104.779 0 0)
(104.837 0 0)
(104.896 0 0)
(104.954 0 0)
(105.012 0 0)
(105.071 0 0)
(105.129 0 0)
(105.187 0 0)
(105.246 0 0)
(105.304 0 0)
(105.362 0 0)
(105.421 0 0)
(105.479 0 0)
(105.537 0 0)
(105.596 0 0)
(105.654 0 0)
(105.712 0 0)
(105.771 0 0)
(105.829 0 0)
(105.887 0 0)
(105.946 0 0)
(106.004 0 0)
(106.062 0 0)
(106.121 0 0)
(106.179 0 0)
(106.237 0 0)
(106.296 0 0)
(106.354 0 0)
(106.412 0 0)
(106.471 0 0)
(106.529 0 0)
(106.587 0 0)
(106.646 0 0)
(106.704 0 0)
(106.762 0 0)
(106.821 0 0)
(106.879 0 0)
(106.938 0 0)
(106.996 0 0)
(107.054 0 0)
(107.113 0 0)
(107.171 0 0)
(107.229 0 0)
(107.288 0 0)
(107.346 0 0)
(107.404 0 0)
(107.463 0 0)
(107.521 0 0)
(107.579 0 0)
(107.638 0 0)
(107.696 0 0)
(107.754 0 0)
(107.813 0 0)
(107.871 0 0)
(107.929 0 0)
(107.988 0 0)
(108.046 0 0)
(108.105 0 0)
(108.163 0 0)
(108.221 0 0)
(108.28 0 0)
(108.338 0 0)
(108.396 0 0)
(108.455 0 0)
(108.513 0 0)
(108.571 0 0)
(108.63 0 0)
(108.688 0 0)
(108.746 0 0)
(108.805 0 0)
(108.863 0 0)
(108.922 0 0)
(108.98 0 0)
(109.038 0 0)
(109.097 0 0)
(109.155 0 0)
(109.213 0 0)
(109.272 0 0)
(109.33 0 0)
(109.388 0 0)
(109.447 0 0)
(109.505 0 0)
(109.564 0 0)
(109.622 0 0)
(109.68 0 0)
(109.739 0 0)
(109.797 0 0)
(109.855 0 0)
(109.914 0 0)
(109.972 0 0)
(110.03 0 0)
(110.089 0 0)
(110.147 0 0)
(110.206 0 0)
(110.264 0 0)
(110.322 0 0)
(110.381 0 0)
(110.439 0 0)
(110.497 0 0)
(110.556 0 0)
(110.614 0 0)
(110.673 0 0)
(110.731 0 0)
(110.789 0 0)
(110.848 0 0)
(110.906 0 0)
(110.964 0 0)
(111.023 0 0)
(111.081 0 0)
(111.139 0 0)
(111.198 0 0)
(111.256 0 0)
(111.315 0 0)
(111.373 0 0)
(111.431 0 0)
(111.49 0 0)
(111.548 0 0)
(111.606 0 0)
(111.665 0 0)
(111.723 0 0)
(111.782 0 0)
(111.84 0 0)
(111.898 0 0)
(111.957 0 0)
(112.015 0 0)
(112.074 0 0)
(112.132 0 0)
(112.19 0 0)
(112.249 0 0)
(112.307 0 0)
(112.365 0 0)
(112.424 0 0)
(112.482 0 0)
(112.541 0 0)
(112.599 0 0)
(112.657 0 0)
(112.716 0 0)
(112.774 0 0)
(112.832 0 0)
(112.891 0 0)
(112.949 0 0)
(113.008 0 0)
(113.066 0 0)
(113.124 0 0)
(113.183 0 0)
(113.241 0 0)
(113.3 0 0)
(113.358 0 0)
(113.416 0 0)
(113.475 0 0)
(113.533 0 0)
(113.592 0 0)
(113.65 0 0)
(113.708 0 0)
(113.767 0 0)
(113.825 0 0)
(113.883 0 0)
(113.942 0 0)
(114 0 0)
(114.059 0 0)
(114.117 0 0)
(114.175 0 0)
(114.234 0 0)
(114.292 0 0)
(114.351 0 0)
(114.409 0 0)
(114.467 0 0)
(114.526 0 0)
(114.584 0 0)
(114.643 0 0)
(114.701 0 0)
(114.759 0 0)
(114.818 0 0)
(114.876 0 0)
(114.935 0 0)
(114.993 0 0)
(115.051 0 0)
(115.11 0 0)
(115.168 0 0)
(115.227 0 0)
(115.285 0 0)
(115.343 0 0)
(115.402 0 0)
(115.46 0 0)
(115.519 0 0)
(115.577 0 0)
(115.635 0 0)
(115.694 0 0)
(115.752 0 0)
(115.811 0 0)
(115.869 0 0)
(115.927 0 0)
(115.986 0 0)
(116.044 0 0)
(116.103 0 0)
(116.161 0 0)
(116.219 0 0)
(116.278 0 0)
(116.336 0 0)
(116.395 0 0)
(116.453 0 0)
(116.511 0 0)
(116.57 0 0)
(116.628 0 0)
(116.687 0 0)
(116.745 0 0)
(116.804 0 0)
(116.862 0 0)
(116.92 0 0)
(116.979 0 0)
(117.037 0 0)
(117.096 0 0)
(117.154 0 0)
(117.212 0 0)
(117.271 0 0)
(117.329 0 0)
(117.388 0 0)
(117.446 0 0)
(117.504 0 0)
(117.563 0 0)
(117.621 0 0)
(117.68 0 0)
(117.738 0 0)
(117.797 0 0)
(117.855 0 0)
(117.913 0 0)
(117.972 0 0)
(118.03 0 0)
(118.089 0 0)
(118.147 0 0)
(118.205 0 0)
(118.264 0 0)
(118.322 0 0)
(118.381 0 0)
(118.439 0 0)
(118.498 0 0)
(118.556 0 0)
(118.614 0 0)
(118.673 0 0)
(118.731 0 0)
(118.79 0 0)
(118.848 0 0)
(118.907 0 0)
(118.965 0 0)
(119.023 0 0)
(119.082 0 0)
(119.14 0 0)
(119.199 0 0)
(119.257 0 0)
(119.315 0 0)
(119.374 0 0)
(119.432 0 0)
(119.491 0 0)
(119.549 0 0)
(119.608 0 0)
(119.666 0 0)
(119.724 0 0)
(119.783 0 0)
(119.841 0 0)
(119.9 0 0)
(119.958 0 0)
(120.017 0 0)
(120.075 0 0)
(120.133 0 0)
(120.192 0 0)
(120.25 0 0)
(120.309 0 0)
(120.367 0 0)
(120.426 0 0)
(120.484 0 0)
(120.543 0 0)
(120.601 0 0)
(120.659 0 0)
(120.718 0 0)
(120.776 0 0)
(120.835 0 0)
(120.893 0 0)
(120.952 0 0)
(121.01 0 0)
(121.068 0 0)
(121.127 0 0)
(121.185 0 0)
(121.244 0 0)
(121.302 0 0)
(121.361 0 0)
(121.419 0 0)
(121.477 0 0)
(121.536 0 0)
(121.594 0 0)
(121.653 0 0)
(121.711 0 0)
(121.77 0 0)
(121.828 0 0)
(121.887 0 0)
(121.945 0 0)
(122.003 0 0)
(122.062 0 0)
(122.12 0 0)
(122.179 0 0)
(122.237 0 0)
(122.296 0 0)
(122.354 0 0)
(122.413 0 0)
(122.471 0 0)
(122.529 0 0)
(122.588 0 0)
(122.646 0 0)
(122.705 0 0)
(122.763 0 0)
(122.822 0 0)
(122.88 0 0)
(122.939 0 0)
(122.997 0 0)
(123.055 0 0)
(123.114 0 0)
(123.172 0 0)
(123.231 0 0)
(123.289 0 0)
(123.348 0 0)
(123.406 0 0)
(123.465 0 0)
(123.523 0 0)
(123.582 0 0)
(123.64 0 0)
(123.698 0 0)
(123.757 0 0)
(123.815 0 0)
(123.874 0 0)
(123.932 0 0)
(123.991 0 0)
(124.049 0 0)
(124.108 0 0)
(124.166 0 0)
(124.225 0 0)
(124.283 0 0)
(124.341 0 0)
(124.4 0 0)
(124.458 0 0)
(124.517 0 0)
(124.575 0 0)
(124.634 0 0)
(124.692 0 0)
(124.751 0 0)
(124.809 0 0)
(124.868 0 0)
(124.926 0 0)
(124.985 0 0)
(125.043 0 0)
(125.101 0 0)
(125.16 0 0)
(125.218 0 0)
(125.277 0 0)
(125.335 0 0)
(125.394 0 0)
(125.452 0 0)
(125.511 0 0)
(125.569 0 0)
(125.628 0 0)
(125.686 0 0)
(125.745 0 0)
(125.803 0 0)
(125.861 0 0)
(125.92 0 0)
(125.978 0 0)
(126.037 0 0)
(126.095 0 0)
(126.154 0 0)
(126.212 0 0)
(126.271 0 0)
(126.329 0 0)