/*--------------------------------*- C++ -*----------------------------------*\
  =========                 |
  \\      /  F ield         | OpenFOAM: The Open Source CFD Toolbox
   \\    /   O peration     | Website:  https://openfoam.org
    \\  /    A nd           | Version:  9
     \\/     M anipulation  |
\*---------------------------------------------------------------------------*/
FoamFile
{
    format      ascii;
    class       surfaceScalarField;
    location    "0.03";
    object      ddtCorrDdt0(phi);
}
// * * * * * * * * * * * * * * * * * * * * * * * * * * * * * * * * * * * * * //

dimensions      [1 0 -2 0 0 0 0];

internalField   nonuniform List<scalar> 
99
(
-1602.65
-2023.77
-2436.82
-2845.13
-3251.88
-3660.14
-4070.7
-4490.88
-4912.02
-5322.99
-5717.61
-6118.33
-6500.13
-6867.8
-7265.56
-7655.9
-8004.9
-8375.62
-8792.52
-9176.26
-9495.94
-9825.01
-10229.9
-10669.3
-10990.1
-11243.3
-11595.5
-11990.8
-12447.3
-12762.4
-12982.5
-13342.2
-13756.5
-14238.7
-14529
-14786.2
-15085.6
-15362.2
-15752.7
-16115.7
-16615.4
-16602.9
-17629.5
-17087.5
-16090.2
-19915.4
-18709
-18668.9
-18873.7
-19289.8
-19645.6
-19987.6
-20239.2
-20347.9
-20523.1
-20918.9
-21587
-22321
-22925.2
-23424.5
-24005.2
-24763.9
-25570.8
-26189
-26465.1
-26488.5
-26508.1
-26715.7
-27104.8
-27500.3
-27760.3
-27829.9
-27712
-27603.6
-27511.7
-27422.4
-27205
-26804.8
-26197.7
-25212.2
-24113.5
-22646.7
-21082.3
-19160.1
-16866.7
-14486.8
-10913.7
-7368.76
-2896.36
2457.4
8258.69
20453.8
179134
-61838.3
-47799.1
-8491
4372.53
5627.13
17185.2
)
;

boundaryField
{
    sides
    {
        type            calculated;
        value           nonuniform List<scalar> 2(-13276.3 1178.67);
    }
    empty
    {
        type            empty;
        value           nonuniform List<scalar> 0();
    }
}


// ************************************************************************* //
