/*--------------------------------*- C++ -*----------------------------------*\
  =========                 |
  \\      /  F ield         | OpenFOAM: The Open Source CFD Toolbox
   \\    /   O peration     | Website:  https://openfoam.org
    \\  /    A nd           | Version:  9
     \\/     M anipulation  |
\*---------------------------------------------------------------------------*/
FoamFile
{
    format      ascii;
    class       volVectorField;
    location    "0.03";
    object      U;
}
// * * * * * * * * * * * * * * * * * * * * * * * * * * * * * * * * * * * * * //

dimensions      [0 1 -1 0 0 0 0];

internalField   nonuniform List<vector> 
100
(
(43.7913 0 0)
(47.81 0 0)
(52.7265 0 0)
(56.4464 0 0)
(60.0649 0 0)
(63.7725 0 0)
(67.502 0 0)
(71.2268 0 0)
(74.956 0 0)
(78.6999 0 0)
(82.4071 0 0)
(86.1255 0 0)
(89.8531 0 0)
(93.5425 0 0)
(97.2484 0 0)
(100.97 0 0)
(104.65 0 0)
(108.32 0 0)
(112.025 0 0)
(115.722 0 0)
(119.37 0 0)
(123.005 0 0)
(126.67 0 0)
(130.341 0 0)
(133.965 0 0)
(137.548 0 0)
(141.134 0 0)
(144.735 0 0)
(148.326 0 0)
(151.868 0 0)
(155.363 0 0)
(158.85 0 0)
(162.324 0 0)
(165.755 0 0)
(169.113 0 0)
(172.4 0 0)
(175.644 0 0)
(178.848 0 0)
(182.011 0 0)
(185.158 0 0)
(188.312 0 0)
(191.464 0 0)
(194.599 0 0)
(197.69 0 0)
(200.698 0 0)
(203.539 0 0)
(206.136 0 0)
(208.604 0 0)
(211.05 0 0)
(213.469 0 0)
(215.881 0 0)
(218.273 0 0)
(220.625 0 0)
(222.937 0 0)
(225.219 0 0)
(227.478 0 0)
(229.708 0 0)
(231.898 0 0)
(234.037 0 0)
(236.125 0 0)
(238.182 0 0)
(240.237 0 0)
(242.296 0 0)
(244.336 0 0)
(246.329 0 0)
(248.267 0 0)
(250.165 0 0)
(252.042 0 0)
(253.901 0 0)
(255.735 0 0)
(257.537 0 0)
(259.306 0 0)
(261.051 0 0)
(262.776 0 0)
(264.479 0 0)
(266.158 0 0)
(267.804 0 0)
(269.414 0 0)
(270.982 0 0)
(272.5 0 0)
(273.962 0 0)
(275.357 0 0)
(276.678 0 0)
(277.931 0 0)
(279.072 0 0)
(280.13 0 0)
(281.145 0 0)
(282.036 0 0)
(282.86 0 0)
(283.624 0 0)
(284.297 0 0)
(284.953 0 0)
(285.504 0 0)
(285.835 0 0)
(286.367 0 0)
(287.193 0 0)
(287.784 0 0)
(288.185 0 0)
(288.557 0 0)
(288.962 0 0)
)
;

boundaryField
{
    sides
    {
        type            zeroGradient;
    }
    empty
    {
        type            empty;
    }
}


// ************************************************************************* //
