/*--------------------------------*- C++ -*----------------------------------*\
  =========                 |
  \\      /  F ield         | OpenFOAM: The Open Source CFD Toolbox
   \\    /   O peration     | Website:  https://openfoam.org
    \\  /    A nd           | Version:  9
     \\/     M anipulation  |
\*---------------------------------------------------------------------------*/
FoamFile
{
    format      ascii;
    class       volVectorField;
    location    "0.03";
    object      U_0;
}
// * * * * * * * * * * * * * * * * * * * * * * * * * * * * * * * * * * * * * //

dimensions      [0 1 -1 0 0 0 0];

internalField   nonuniform List<vector> 
100
(
(43.7836 0 0)
(47.805 0 0)
(52.7234 0 0)
(56.4441 0 0)
(60.0642 0 0)
(63.7735 0 0)
(67.5047 0 0)
(71.2312 0 0)
(74.962 0 0)
(78.7074 0 0)
(82.4162 0 0)
(86.1363 0 0)
(89.8653 0 0)
(93.5562 0 0)
(97.2639 0 0)
(100.987 0 0)
(104.668 0 0)
(108.34 0 0)
(112.047 0 0)
(115.746 0 0)
(119.394 0 0)
(123.032 0 0)
(126.699 0 0)
(130.371 0 0)
(133.997 0 0)
(137.581 0 0)
(141.169 0 0)
(144.772 0 0)
(148.364 0 0)
(151.908 0 0)
(155.404 0 0)
(158.894 0 0)
(162.369 0 0)
(165.803 0 0)
(169.162 0 0)
(172.451 0 0)
(175.698 0 0)
(178.903 0 0)
(182.067 0 0)
(185.216 0 0)
(188.371 0 0)
(191.524 0 0)
(194.662 0 0)
(197.755 0 0)
(200.764 0 0)
(203.606 0 0)
(206.206 0 0)
(208.677 0 0)
(211.123 0 0)
(213.544 0 0)
(215.958 0 0)
(218.351 0 0)
(220.703 0 0)
(223.016 0 0)
(225.299 0 0)
(227.559 0 0)
(229.79 0 0)
(231.983 0 0)
(234.124 0 0)
(236.213 0 0)
(238.274 0 0)
(240.331 0 0)
(242.393 0 0)
(244.434 0 0)
(246.428 0 0)
(248.366 0 0)
(250.264 0 0)
(252.142 0 0)
(254.001 0 0)
(255.835 0 0)
(257.636 0 0)
(259.406 0 0)
(261.15 0 0)
(262.875 0 0)
(264.578 0 0)
(266.255 0 0)
(267.9 0 0)
(269.509 0 0)
(271.075 0 0)
(272.592 0 0)
(274.051 0 0)
(275.442 0 0)
(276.758 0 0)
(278.008 0 0)
(279.144 0 0)
(280.198 0 0)
(281.207 0 0)
(282.091 0 0)
(282.91 0 0)
(283.668 0 0)
(284.335 0 0)
(284.988 0 0)
(285.519 0 0)
(285.851 0 0)
(286.427 0 0)
(287.253 0 0)
(287.806 0 0)
(288.2 0 0)
(288.568 0 0)
(288.972 0 0)
)
;

boundaryField
{
    sides
    {
        type            zeroGradient;
    }
    empty
    {
        type            empty;
    }
}


// ************************************************************************* //
