/*--------------------------------*- C++ -*----------------------------------*\
  =========                 |
  \\      /  F ield         | OpenFOAM: The Open Source CFD Toolbox
   \\    /   O peration     | Website:  https://openfoam.org
    \\  /    A nd           | Version:  9
     \\/     M anipulation  |
\*---------------------------------------------------------------------------*/
FoamFile
{
    format      ascii;
    class       volScalarField;
    location    "0.045";
    object      p;
}
// * * * * * * * * * * * * * * * * * * * * * * * * * * * * * * * * * * * * * //

dimensions      [1 -1 -2 0 0 0 0];

internalField   nonuniform List<scalar> 
1000
(
10138.4
10137.3
10135.3
10133.6
10132.2
10130.8
10129.3
10127.9
10126.4
10125
10123.6
10122.1
10120.7
10119.3
10117.9
10116.5
10115.1
10113.7
10112.4
10111
10109.7
10108.3
10107
10105.6
10104.3
10103
10101.7
10100.4
10099.1
10097.8
10096.5
10095.3
10094
10092.7
10091.5
10090.3
10089
10087.8
10086.6
10085.4
10084.2
10083
10081.8
10080.7
10079.5
10078.4
10077.2
10076.1
10075
10073.9
10072.8
10071.7
10070.6
10069.5
10068.5
10067.4
10066.4
10065.4
10064.4
10063.4
10062.4
10061.4
10060.4
10059.4
10058.5
10057.6
10056.6
10055.7
10054.8
10053.9
10053.1
10052.2
10051.4
10050.5
10049.7
10048.9
10048.1
10047.3
10046.5
10045.8
10045.1
10044.3
10043.6
10042.9
10042.3
10041.6
10040.9
10040.3
10039.7
10039.1
10038.5
10038
10037.4
10036.9
10036.4
10035.9
10035.4
10034.9
10034.5
10034.1
10033.7
10033.3
10033
10032.6
10032.3
10032
10031.7
10031.5
10031.3
10031.1
10030.9
10030.7
10030.6
10030.5
10030.4
10030.4
10030.4
10030.4
10030.4
10030.4
10030.5
10030.6
10030.8
10031
10031.2
10031.4
10031.7
10032
10032.4
10032.7
10033.1
10033.6
10034.1
10034.6
10035.1
10035.7
10036.3
10037
10037.7
10038.4
10039.2
10040
10040.8
10041.7
10042.7
10043.7
10044.7
10045.8
10046.9
10048.1
10049.3
10050.5
10051.8
10053.2
10054.6
10056.1
10057.6
10059.1
10060.8
10062.4
10064.1
10065.9
10067.8
10069.6
10071.6
10073.6
10075.7
10077.8
10080
10082.2
10084.5
10086.9
10089.3
10091.8
10094.3
10096.9
10099.6
10102.3
10105.1
10108
10111
10114
10117
10120.2
10123.4
10126.6
10130
10133.4
10136.8
10140.4
10144
10147.7
10151.4
10155.2
10159.1
10163
10167
10171.1
10175.2
10179.4
10183.7
10188
10192.4
10196.9
10201.4
10206
10210.6
10215.4
10220.1
10224.9
10229.8
10234.7
10239.7
10244.8
10249.9
10255
10260.2
10265.5
10270.8
10276.1
10281.5
10287
10292.4
10298
10303.5
10309.1
10314.8
10320.5
10326.2
10332
10337.7
10343.6
10349.4
10355.3
10361.2
10367.2
10373.2
10379.2
10385.2
10391.3
10397.3
10403.4
10409.6
10415.7
10421.9
10428.1
10434.3
10440.5
10446.7
10453
10459.2
10465.5
10471.8
10478.1
10484.5
10490.8
10497.2
10503.5
10509.9
10516.3
10522.7
10529.1
10535.5
10542
10548.4
10554.8
10561.3
10567.8
10574.2
10580.7
10587.2
10593.7
10600.2
10606.7
10613.3
10619.8
10626.3
10632.9
10639.4
10646
10652.5
10659.1
10665.7
10672.2
10678.8
10685.4
10692
10698.6
10705.2
10711.9
10718.5
10725.1
10731.7
10738.4
10745
10751.7
10758.3
10765
10771.7
10778.4
10785
10791.7
10798.4
10805.1
10811.8
10818.5
10825.3
10832
10838.7
10845.4
10852.2
10858.9
10865.7
10872.4
10879.2
10886
10892.7
10899.5
10906.3
10913.1
10919.9
10926.7
10933.5
10940.3
10947.1
10954
10960.8
10967.6
10974.5
10981.3
10988.2
10995
11001.9
11008.8
11015.6
11022.5
11029.4
11036.3
11043.2
11050.1
11057
11063.9
11070.9
11077.8
11084.7
11091.7
11098.6
11105.6
11112.5
11119.5
11126.4
11133.4
11140.4
11147.4
11154.4
11161.4
11168.4
11175.4
11182.4
11189.4
11196.4
11203.5
11210.5
11217.5
11224.6
11231.7
11238.7
11245.8
11252.8
11259.9
11267
11274.1
11281.2
11288.3
11295.4
11302.5
11309.6
11316.7
11323.9
11331
11338.1
11345.3
11352.4
11359.6
11366.8
11373.9
11381.1
11388.3
11395.5
11402.7
11409.9
11417.1
11424.3
11431.5
11438.7
11446
11453.2
11460.4
11467.7
11474.9
11482.2
11489.5
11496.7
11504
11511.3
11518.6
11525.9
11533.2
11540.5
11547.8
11555.1
11562.4
11569.7
11577.1
11584.4
11591.8
11599.1
11606.5
11613.8
11621.2
11628.6
11636
11643.4
11650.8
11658.2
11665.6
11673
11680.4
11687.8
11695.3
11702.7
11710.1
11717.6
11725
11732.5
11740
11747.4
11754.9
11762.4
11769.9
11777.4
11784.9
11792.4
11799.9
11807.5
11815
11822.5
11830.1
11837.6
11845.2
11852.7
11860.3
11867.8
11875.4
11883
11890.6
11898.2
11905.8
11913.4
11921
11928.6
11936.3
11943.9
11951.5
11959.2
11966.8
11974.5
11982.1
11989.8
11997.5
12005.2
12012.9
12020.6
12028.3
12036
12043.7
12051.4
12059.1
12066.8
12074.6
12082.3
12090.1
12097.8
12105.6
12113.4
12121.1
12128.9
12136.7
12144.5
12152.3
12160.1
12167.9
12175.7
12183.6
12191.4
12199.2
12207.1
12214.9
12222.8
12230.6
12238.5
12246.4
12254.3
12262.2
12270.1
12278
12285.9
12293.8
12301.7
12309.6
12317.6
12325.5
12333.4
12341.4
12349.3
12357.3
12365.3
12373.3
12381.2
12389.2
12397.2
12405.2
12413.2
12421.3
12429.3
12437.3
12445.3
12453.4
12461.4
12469.5
12477.5
12485.6
12493.7
12501.8
12509.8
12517.9
12526
12534.1
12542.2
12550.4
12558.5
12566.6
12574.8
12582.9
12591.1
12599.2
12607.4
12615.5
12623.7
12631.9
12640.1
12648.3
12656.5
12664.7
12672.9
12681.1
12689.4
12697.6
12705.8
12714.1
12722.3
12730.6
12738.9
12747.2
12755.4
12763.7
12772
12780.3
12788.6
12796.9
12805.3
12813.6
12821.9
12830.3
12838.6
12847
12855.3
12863.7
12872.1
12880.4
12888.8
12897.2
12905.6
12914
12922.4
12930.9
12939.3
12947.7
12956.2
12964.6
12973.1
12981.5
12990
12998.5
13006.9
13015.4
13023.9
13032.4
13040.9
13049.5
13058
13066.5
13075
13083.6
13092.1
13100.7
13109.2
13117.8
13126.4
13135
13143.6
13152.2
13160.8
13169.4
13178
13186.6
13195.2
13203.9
13212.5
13221.2
13229.8
13238.5
13247.2
13255.8
13264.5
13273.2
13281.9
13290.6
13299.3
13308.1
13316.8
13325.5
13334.3
13343
13351.8
13360.5
13369.3
13378.1
13386.9
13395.7
13404.5
13413.3
13422.1
13430.9
13439.7
13448.6
13457.4
13466.3
13475.1
13484
13492.8
13501.7
13510.6
13519.5
13528.4
13537.3
13546.2
13555.1
13564
13573
13581.9
13590.9
13599.8
13608.8
13617.7
13626.7
13635.7
13644.7
13653.7
13662.7
13671.7
13680.7
13689.8
13698.8
13707.8
13716.9
13726
13735
13744.1
13753.2
13762.3
13771.5
13780.6
13789.7
13798.9
13808
13817.2
13826.4
13835.6
13844.8
13854.1
13863.3
13872.6
13881.9
13891.2
13900.5
13909.8
13919.2
13928.5
13937.9
13947.4
13956.8
13966.3
13975.8
13985.3
13994.8
14004.4
14014
14023.7
14033.3
14043
14052.8
14062.6
14072.4
14082.2
14092.1
14102
14112
14122
14132.1
14142.2
14152.4
14162.6
14172.8
14183.1
14193.5
14203.9
14214.3
14224.9
14235.4
14246
14256.7
14267.4
14278.2
14289.1
14300
14310.9
14321.9
14333
14344.1
14355.3
14366.5
14377.8
14389.1
14400.4
14411.9
14423.3
14434.8
14446.3
14457.9
14469.5
14481.2
14492.9
14504.6
14516.3
14528.1
14539.8
14551.6
14563.4
14575.2
14587.1
14598.9
14610.7
14622.5
14634.4
14646.2
14658
14669.8
14681.6
14693.3
14705.1
14716.8
14728.5
14740.2
14751.8
14763.4
14775
14786.6
14798.1
14809.6
14821
14832.5
14843.9
14855.2
14866.5
14877.8
14889.1
14900.3
14911.4
14922.6
14933.7
14944.8
14955.8
14966.8
14977.8
14988.7
14999.7
15010.5
15021.4
15032.2
15043.1
15053.8
15064.6
15075.4
15086.1
15096.8
15107.5
15118.1
15128.8
15139.4
15150.1
15160.7
15171.3
15181.8
15192.4
15203
15213.5
15224.1
15234.6
15245.2
15255.7
15266.2
15276.8
15287.3
15297.8
15308.3
15318.8
15329.3
15339.8
15350.3
15360.8
15371.4
15381.9
15392.4
15402.9
15413.5
15424
15434.6
15445.1
15455.7
15466.3
15476.9
15487.5
15498.2
15508.9
15519.6
15530.4
15541.1
15552
15562.9
15573.8
15584.8
15595.9
15607
15618.2
15629.5
15640.9
15652.4
15664
15675.8
15687.6
15699.6
15711.7
15724
15736.5
15749.1
15761.9
15774.8
15788
15801.3
15814.9
15828.6
15842.6
15856.8
15871.1
15885.7
15900.5
15915.5
15930.7
15946.1
15961.6
15977.4
15993.3
16009.3
16025.5
16041.9
16058.3
16074.8
16091.5
16108.2
16124.9
16141.7
16158.5
16175.3
16192.1
16208.9
16225.7
16242.4
16259.1
16275.7
16292.2
16308.6
16325
16341.2
16357.4
16373.4
16389.3
16405.2
16420.9
16436.5
16452
16467.4
16482.7
16497.8
16512.9
16527.9
16542.7
16557.5
16572.2
16586.8
16601.2
16615.6
16629.9
16644.2
16658.3
16672.3
16686.3
16700.2
16714.1
16727.8
16741.5
16755.1
16768.7
16782.2
16795.6
16809
16822.3
16835.5
16848.7
16861.8
16874.9
16887.9
16900.9
16913.8
16926.6
16939.4
16952.2
16964.9
16977.6
16990.2
17002.8
17015.3
17027.8
17040.2
17052.6
17064.9
17077.3
17089.5
17101.7
17113.9
17126.1
17138.2
17150.3
17162.3
17174.3
17186.3
17198.2
17210.1
17221.9
17233.7
17245.5
17257.3
17269
17280.7
17292.3
17304
17315.6
17327.1
17338.6
17350.1
17361.6
17373.1
17384.5
17395.8
17407.2
17418.5
17429.8
17441.1
17452.3
17463.6
17474.7
17485.9
17497
17508.2
17519.2
17530.3
17541.3
17552.3
17563.3
17574
)
;

boundaryField
{
    sides
    {
        type            zeroGradient;
    }
    empty
    {
        type            empty;
    }
}


// ************************************************************************* //
