/*--------------------------------*- C++ -*----------------------------------*\
  =========                 |
  \\      /  F ield         | OpenFOAM: The Open Source CFD Toolbox
   \\    /   O peration     | Website:  https://openfoam.org
    \\  /    A nd           | Version:  9
     \\/     M anipulation  |
\*---------------------------------------------------------------------------*/
FoamFile
{
    format      ascii;
    class       volScalarField;
    location    "0.045";
    object      T;
}
// * * * * * * * * * * * * * * * * * * * * * * * * * * * * * * * * * * * * * //

dimensions      [0 0 0 1 0 0 0];

internalField   nonuniform List<scalar> 
1000
(
179.652
179.657
179.669
179.683
179.697
179.711
179.726
179.74
179.755
179.769
179.784
179.799
179.814
179.829
179.844
179.858
179.873
179.889
179.904
179.92
179.935
179.95
179.964
179.979
179.995
180.011
180.027
180.043
180.058
180.073
180.088
180.102
180.116
180.132
180.148
180.165
180.182
180.199
180.215
180.231
180.245
180.259
180.271
180.284
180.298
180.312
180.327
180.344
180.361
180.38
180.399
180.419
180.438
180.456
180.472
180.486
180.499
180.509
180.517
180.524
180.529
180.532
180.535
180.538
180.54
180.542
180.544
180.545
180.545
180.545
180.544
180.54
180.536
180.531
180.527
180.523
180.519
180.514
180.51
180.506
180.502
180.498
180.495
180.491
180.487
180.484
180.48
180.477
180.474
180.471
180.467
180.464
180.462
180.459
180.456
180.453
180.451
180.448
180.446
180.444
180.442
180.44
180.438
180.436
180.434
180.433
180.431
180.43
180.429
180.428
180.427
180.426
180.425
180.424
180.424
180.424
180.423
180.423
180.423
180.423
180.424
180.424
180.425
180.426
180.427
180.428
180.43
180.431
180.433
180.435
180.437
180.439
180.441
180.444
180.446
180.449
180.452
180.456
180.459
180.463
180.467
180.471
180.475
180.48
180.485
180.49
180.495
180.5
180.506
180.512
180.518
180.525
180.531
180.538
180.545
180.553
180.56
180.568
180.577
180.585
180.594
180.603
180.612
180.622
180.632
180.642
180.653
180.663
180.675
180.686
180.698
180.71
180.722
180.735
180.748
180.761
180.775
180.789
180.803
180.818
180.833
180.848
180.864
180.88
180.896
180.913
180.93
180.947
180.965
180.983
181.001
181.02
181.039
181.058
181.078
181.098
181.118
181.139
181.16
181.181
181.203
181.225
181.247
181.27
181.293
181.316
181.34
181.364
181.388
181.412
181.437
181.462
181.487
181.513
181.539
181.565
181.591
181.618
181.644
181.671
181.699
181.726
181.754
181.782
181.81
181.838
181.866
181.895
181.924
181.953
181.982
182.011
182.041
182.07
182.1
182.13
182.16
182.19
182.22
182.251
182.281
182.312
182.342
182.373
182.404
182.435
182.466
182.497
182.528
182.559
182.591
182.622
182.653
182.685
182.716
182.748
182.78
182.811
182.843
182.875
182.907
182.938
182.97
183.002
183.034
183.066
183.098
183.13
183.162
183.194
183.226
183.259
183.291
183.323
183.355
183.387
183.42
183.452
183.484
183.517
183.549
183.581
183.614
183.646
183.678
183.711
183.743
183.776
183.808
183.841
183.873
183.906
183.938
183.971
184.003
184.036
184.068
184.101
184.133
184.166
184.199
184.232
184.264
184.297
184.329
184.362
184.395
184.428
184.46
184.493
184.526
184.559
184.591
184.624
184.657
184.69
184.723
184.756
184.789
184.822
184.854
184.887
184.92
184.953
184.986
185.019
185.052
185.085
185.118
185.151
185.184
185.217
185.25
185.283
185.317
185.35
185.383
185.416
185.449
185.482
185.515
185.549
185.582
185.615
185.648
185.681
185.715
185.748
185.781
185.815
185.848
185.881
185.914
185.948
185.981
186.015
186.048
186.081
186.114
186.148
186.181
186.215
186.248
186.282
186.315
186.349
186.382
186.416
186.449
186.483
186.516
186.55
186.583
186.617
186.65
186.685
186.718
186.752
186.785
186.819
186.852
186.886
186.92
186.954
186.987
187.021
187.055
187.089
187.122
187.156
187.19
187.224
187.257
187.292
187.325
187.359
187.393
187.427
187.46
187.495
187.528
187.563
187.596
187.631
187.664
187.699
187.732
187.767
187.8
187.835
187.868
187.903
187.936
187.971
188.005
188.039
188.073
188.108
188.141
188.176
188.21
188.244
188.278
188.313
188.346
188.381
188.415
188.45
188.483
188.518
188.552
188.587
188.621
188.656
188.689
188.724
188.758
188.793
188.827
188.862
188.896
188.931
188.965
189
189.034
189.069
189.103
189.138
189.172
189.207
189.241
189.276
189.31
189.345
189.379
189.414
189.448
189.484
189.518
189.553
189.587
189.622
189.656
189.692
189.726
189.761
189.795
189.831
189.865
189.9
189.934
189.97
190.004
190.04
190.074
190.11
190.144
190.179
190.213
190.249
190.283
190.319
190.353
190.389
190.423
190.459
190.493
190.529
190.563
190.599
190.633
190.669
190.703
190.739
190.774
190.81
190.844
190.88
190.914
190.95
190.984
191.021
191.055
191.091
191.125
191.161
191.196
191.232
191.266
191.303
191.337
191.373
191.407
191.444
191.478
191.515
191.549
191.586
191.619
191.657
191.69
191.728
191.76
191.799
191.831
191.871
191.901
191.942
191.972
192.014
192.042
192.086
192.113
192.158
192.183
192.23
192.254
192.301
192.325
192.373
192.396
192.444
192.468
192.515
192.539
192.587
192.611
192.658
192.682
192.73
192.754
192.802
192.825
192.873
192.897
192.945
192.969
193.017
193.041
193.088
193.112
193.16
193.184
193.232
193.256
193.304
193.328
193.376
193.4
193.448
193.472
193.52
193.544
193.593
193.617
193.665
193.689
193.737
193.761
193.809
193.833
193.882
193.906
193.954
193.978
194.027
194.051
194.099
194.123
194.172
194.196
194.244
194.268
194.317
194.341
194.39
194.414
194.462
194.487
194.535
194.559
194.608
194.632
194.681
194.705
194.754
194.778
194.827
194.851
194.9
194.924
194.973
194.997
195.046
195.071
195.119
195.144
195.193
195.217
195.266
195.29
195.339
195.364
195.413
195.437
195.486
195.511
195.56
195.584
195.633
195.658
195.707
195.731
195.781
195.805
195.854
195.879
195.928
195.953
196.002
196.026
196.076
196.1
196.15
196.174
196.224
196.248
196.298
196.322
196.372
196.396
196.446
196.471
196.52
196.545
196.594
196.619
196.669
196.693
196.743
196.768
196.817
196.842
196.892
196.917
196.966
196.991
197.041
197.066
197.115
197.141
197.189
197.216
197.263
197.292
197.336
197.368
197.41
197.444
197.484
197.52
197.559
197.594
197.635
197.669
197.711
197.744
197.787
197.818
197.864
197.893
197.94
197.969
198.017
198.044
198.094
198.12
198.171
198.196
198.247
198.273
198.325
198.35
198.402
198.428
198.48
198.506
198.558
198.584
198.636
198.663
198.715
198.742
198.795
198.822
198.875
198.902
198.956
198.983
199.037
199.064
199.119
199.147
199.202
199.23
199.285
199.313
199.369
199.398
199.454
199.483
199.54
199.569
199.627
199.656
199.714
199.743
199.802
199.832
199.891
199.921
199.981
200.011
200.071
200.101
200.162
200.193
200.254
200.284
200.346
200.377
200.438
200.469
200.531
200.562
200.625
200.656
200.718
200.749
200.812
200.843
200.905
200.936
200.999
201.03
201.092
201.123
201.185
201.216
201.277
201.308
201.37
201.4
201.461
201.492
201.553
201.583
201.643
201.673
201.733
201.763
201.823
201.852
201.912
201.941
202
202.029
202.087
202.116
202.174
202.203
202.26
202.289
202.346
202.374
202.431
202.459
202.516
202.544
202.6
202.628
202.683
202.711
202.766
202.794
202.849
202.877
202.932
202.959
203.014
203.041
203.096
203.123
203.177
203.204
203.258
203.285
203.34
203.367
203.42
203.447
203.501
203.528
203.582
203.609
203.662
203.689
203.743
203.77
203.823
203.85
203.903
203.93
203.984
204.01
204.064
204.091
204.144
204.171
204.225
204.251
204.305
204.332
204.386
204.413
204.467
204.495
204.549
204.576
204.631
204.659
204.714
204.742
204.798
204.827
204.884
204.912
204.97
204.999
205.058
205.088
205.148
205.179
205.24
205.272
205.335
205.367
205.432
205.465
205.531
205.565
205.634
205.669
205.739
205.775
205.847
205.884
205.959
205.997
206.073
206.112
206.189
206.229
206.308
206.348
206.429
206.469
206.551
206.592
206.674
206.715
206.798
206.839
206.921
206.963
207.045
207.086
207.167
207.208
207.289
207.329
207.409
207.449
207.528
207.567
207.645
207.684
207.761
207.799
207.875
207.912
207.987
208.023
208.097
208.133
208.205
208.241
208.312
208.348
208.418
208.453
208.522
208.556
208.625
208.658
208.726
208.759
208.826
208.859
208.925
208.958
209.023
209.055
209.12
209.152
209.215
209.247
209.31
209.341
209.404
209.435
209.497
209.528
209.589
209.619
209.68
209.71
209.771
209.801
209.86
209.89
209.949
209.979
210.038
210.067
210.125
210.154
210.212
210.241
210.298
210.326
210.383
210.412
210.468
210.496
210.553
210.58
210.636
210.664
210.719
210.747
210.802
210.829
210.884
210.911
210.965
210.992
211.046
211.073
211.126
211.153
211.206
211.233
211.286
211.312
211.365
211.391
211.443
211.469
211.521
211.547
211.599
211.624
211.676
211.701
211.752
211.778
211.832
211.85
211.929
)
;

boundaryField
{
    sides
    {
        type            zeroGradient;
    }
    empty
    {
        type            empty;
    }
}


// ************************************************************************* //
