/*--------------------------------*- C++ -*----------------------------------*\
  =========                 |
  \\      /  F ield         | OpenFOAM: The Open Source CFD Toolbox
   \\    /   O peration     | Website:  https://openfoam.org
    \\  /    A nd           | Version:  9
     \\/     M anipulation  |
\*---------------------------------------------------------------------------*/
FoamFile
{
    format      ascii;
    class       volScalarField;
    location    "0.029";
    object      p;
}
// * * * * * * * * * * * * * * * * * * * * * * * * * * * * * * * * * * * * * //

dimensions      [1 -1 -2 0 0 0 0];

internalField   nonuniform List<scalar> 
1000
(
53092.8
52993.3
52933.1
52867.9
52804.2
52740.2
52676.3
52612.5
52548.7
52485
52421.3
52357.7
52294.2
52230.7
52167.3
52104
52040.7
51977.5
51914.4
51851.3
51788.3
51725.3
51662.4
51599.6
51536.9
51474.3
51411.8
51349.4
51287.1
51224.9
51162.7
51100.7
51038.7
50976.7
50914.8
50853
50791.2
50729.4
50667.7
50605.9
50544.2
50482.5
50420.8
50359.2
50297.6
50236.1
50174.8
50113.5
50052.4
49991.4
49930.5
49869.6
49808.9
49748.1
49687.4
49626.7
49566.1
49505.5
49444.9
49384.4
49324
49263.6
49203.3
49143.1
49083
49022.9
48962.9
48903
48843.2
48783.4
48723.7
48664.1
48604.5
48545
48485.5
48426.1
48366.8
48307.6
48248.4
48189.2
48130.2
48071.1
48012.2
47953.3
47894.5
47835.7
47777
47718.4
47659.8
47601.3
47542.8
47484.4
47426.1
47367.8
47309.6
47251.4
47193.4
47135.5
47077.8
47020.1
46962.4
46904.8
46847.2
46789.7
46732.1
46674.6
46617.2
46559.9
46502.6
46445.4
46388.3
46331.2
46274.1
46217
46160
46103
46046.1
45989.3
45932.6
45876
45819.4
45762.8
45706.2
45649.7
45593.3
45536.9
45480.6
45424.3
45368.2
45312.1
45256.1
45200.1
45144.2
45088.3
45032.5
44976.7
44921
44865.3
44809.8
44754.2
44698.7
44643.3
44588
44532.7
44477.4
44422.2
44367.1
44312.1
44257
44202.1
44147.2
44092.3
44037.6
43982.8
43928.2
43873.6
43819
43764.6
43710.1
43655.8
43601.4
43547.2
43493
43438.8
43384.7
43330.7
43276.7
43222.8
43168.9
43115.2
43061.4
43007.7
42954.1
42900.5
42847
42793.6
42740.2
42686.8
42633.6
42580.3
42527.2
42474
42421
42368
42315
42262.2
42209.3
42156.6
42103.8
42051.2
41998.6
41946
41893.6
41841.1
41788.8
41736.4
41684.2
41632
41579.8
41527.7
41475.7
41423.7
41371.8
41319.9
41268.1
41216.3
41164.6
41112.9
41061.3
41009.8
40958.3
40906.8
40855.4
40804.1
40752.8
40701.6
40650.4
40599.2
40548.2
40497.2
40446.2
40395.3
40344.5
40293.7
40243
40192.3
40141.7
40091.2
40040.6
39990.2
39939.8
39889.5
39839.2
39789
39738.8
39688.7
39638.6
39588.6
39538.7
39488.7
39438.9
39389.1
39339.3
39289.6
39240
39190.4
39140.9
39091.4
39042
38992.6
38943.3
38894
38844.8
38795.6
38746.5
38697.5
38648.5
38599.6
38550.7
38501.9
38453.1
38404.4
38355.7
38307.1
38258.5
38210
38161.6
38113.2
38064.9
38016.6
37968.4
37920.2
37872.1
37824
37776
37728
37680.1
37632.2
37584.3
37536.4
37488.6
37440.8
37393.1
37345.5
37297.9
37250.4
37203
37155.6
37108.3
37061
37013.9
36966.8
36919.7
36872.7
36825.7
36778.7
36731.8
36684.9
36638.1
36591.5
36545
36498.5
36452.1
36405.7
36359.2
36312.6
36266
36219.5
36173.1
36127.1
36081.2
36035.4
35989.3
35943
35896.7
35850.5
35804.7
35759.1
35713.7
35668.1
35622.3
35576.4
35530.4
35484.7
35439.4
35394.3
35349.4
35304.3
35259
35213.6
35168.3
35123.1
35078.1
35033.1
34987.9
34942.7
34897.7
34853.4
34809.4
34765
34719.9
34674.5
34629.2
34584.5
34540.9
34497.6
34453.2
34408.2
34363.2
34318.8
34275.6
34232.2
34187.8
34142.9
34098.6
34056
34013.6
33969.1
33923.9
33879
33835
33794.6
33752.9
33708.2
33663
33617.9
33573.4
33531.4
33492.6
33449.1
33404.3
33359.4
33314.8
33270.9
33231.1
33191.4
33147.5
33102.9
33058.5
33014.3
32971.3
32932.7
32892
32848.2
32804.2
32760.3
32716.6
32674.3
32636.2
32595
32551.6
32508
32464.6
32421.4
32379.7
32341.6
32300.3
32257.4
32214.3
32171.4
32128.8
32087.4
32049.3
32008.2
31965.7
31923.2
31880.8
31838.7
31797.8
31759.5
31718.7
31676.8
31634.9
31593.1
31551.6
31511.2
31473
31432.5
31391.5
31350.4
31309.6
31269.2
31230.1
31192.4
31153.2
31114
31074.9
31036.6
30999.2
30963.4
30928.5
30893.5
30859.3
30825.8
30794.1
30764.1
30736.3
30710.1
30685.8
30663.4
30643.3
30626.8
30613.5
30603
30594.9
30588.7
30583.3
30578.5
30576
30574.7
30574.3
30574.4
30574.9
30575.3
30576.5
30579.9
30583.7
30587.1
30590
30592.1
30592
30592.5
30595.4
30598.5
30601.7
30604.7
30607.9
30611.4
30615.4
30619
30619.4
30619.9
30622.2
30624
30625.1
30625.2
30623.6
30617.6
30609.7
30602.8
30596.1
30590.2
30585.4
30580.8
30575.2
30572
30570.4
30569.4
30568.5
30567.6
30565.5
30562.1
30561.3
30561.4
30562
30562.9
30563.9
30564
30562.3
30562.4
30563.4
30564.4
30564.2
30565.1
30567.9
30570.9
30573.8
30576.3
30578.2
30579.6
30580.4
30580.5
30578.8
30572.9
30567.5
30563.3
30559.5
30555.9
30552.1
30547.1
30543.9
30541.9
30540.3
30539
30537.5
30534.7
30532.9
30532.3
30532
30531.6
30530.7
30528.4
30527.8
30528.3
30529.3
30530.3
30530.8
30529.7
30529.4
30530.4
30532
30533.8
30535.2
30534.8
30535.2
30536.5
30537.4
30537.8
30537.7
30535.7
30532.6
30530
30526.8
30523.1
30519.4
30514.8
30510.1
30507.9
30506.6
30505.4
30504.3
30502.7
30499.3
30497
30496.3
30496
30495.8
30495.5
30494.2
30491.6
30491.1
30491.5
30492.3
30493.3
30494
30493
30491.6
30492.3
30493.5
30495.1
30496.7
30498
30496.9
30495.9
30496.5
30496.9
30497.1
30496.7
30495.2
30490.5
30484.7
30481.3
30478.5
30476.2
30474.4
30473.1
30471.8
30469.6
30465.5
30462.5
30460.1
30456.5
30453.2
30452.3
30452.1
30452.1
30452.4
30452.7
30453
30453.3
30452.6
30448.9
30447.4
30448.2
30449.3
30450.5
30451.7
30453
30454.4
30455.4
30454.3
30451.6
30451.8
30452.2
30452.3
30452
30451.1
30449.5
30447.4
30444.7
30440.4
30436.8
30435.1
30433.9
30433.1
30432.6
30432.2
30431.8
30431.2
30429.8
30425
30418.3
30416.9
30416.8
30417
30417.5
30418
30418.4
30418.8
30418.6
30415.9
30414.1
30414.7
30415.7
30416.8
30417.9
30419.1
30420.2
30421.1
30420.7
30416.8
30414.9
30414.5
30413.9
30412.7
30411.2
30409.7
30408.1
30406.7
30405.4
30404.1
30402.7
30400.5
30394.3
30388.8
30387.6
30387.2
30387
30386.8
30386.7
30386.8
30386.9
30387.2
30387.5
30387.6
30385.9
30383
30382.7
30382.9
30383.4
30383.9
30383.6
30381.2
30381.1
30382
30382.9
30384
30386.1
30390.2
30391.5
30391.4
30390.6
30388.6
30382.9
30377.5
30375.8
30374.8
30374.2
30374.4
30374.6
30374
30373.4
30372.2
30368.4
30364.6
30364
30363.9
30364
30365.1
30366.5
30366.8
30367.2
30367.4
30365.5
30359.7
30358.1
30358.2
30358.6
30359.4
30360.5
30361.6
30362.6
30363.1
30361.7
30359
30358.7
30358.8
30358.8
30358.7
30358.2
30357.1
30355.6
30354
30351.5
30349.9
30349.3
30348.9
30348.6
30348.6
30348.4
30348
30347.7
30347.3
30345.4
30338.6
30334.6
30334
30334
30334.1
30334.9
30337.3
30338.8
30339.5
30339.9
30339.7
30337.1
30332.9
30332.8
30333.7
30334.9
30336.7
30342.3
30348.2
30349.1
30349
30348.5
30346.8
30339.6
30332.7
30330.7
30329.5
30328.7
30328.8
30329.6
30329.5
30329.2
30328.4
30325.2
30319.1
30317.5
30317.3
30317.4
30318.7
30324.7
30334.8
30337
30337.2
30337.3
30337
30333.8
30325.7
30323.7
30323.8
30324.1
30324.5
30325.1
30325.9
30326.7
30327
30325
30320.2
30318.9
30318.4
30317.9
30318
30321
30326.4
30326.9
30326.3
30325.4
30324.3
30321.3
30315.5
30314.1
30313.9
30313.8
30313.7
30314.3
30318.6
30323
30323.8
30324.2
30324.6
30324.7
30324.5
30322.9
30315.3
30301.1
30298.3
30298.7
30299.2
30300
30302.5
30312.8
30321.4
30323.1
30323.8
30324
30322.5
30314.7
30305.8
30303.7
30302.9
30302.6
30303.2
30307.2
30310.4
30310.4
30309.8
30309.2
30308
30305
30304
30303.9
30303.9
30303.9
30304.8
30305.6
30305.8
30306.1
30306.5
30306.5
30306.3
30306.2
30306.2
30306.3
30306.8
30307.9
30308.8
30309.4
30309.7
30309.8
30309.9
30310.2
30310.6
30311.3
30311.8
30311.7
30311.1
30310.1
30309.2
30308.6
30309.1
30312.8
30329.3
30396.2
30640.3
30997.4
31193.3
31272.8
31301.5
31310.3
31313.5
31314.1
31313.3
31313.3
31313.8
31313.7
31314.1
31313.4
31313.4
31313.4
31313.4
31314.1
31314.1
31314.1
31313.9
31313.5
31313.5
31313.4
31313.7
31313.7
31313.6
31313.7
31313.5
31313.4
31313.4
31313.6
31313.6
31313.4
31313.3
31313.3
31312.8
31312.6
31312.4
31311.8
31311.3
31310.8
31310.1
31309.6
31309.2
31309.4
31310.4
31310.6
31310.3
31309.5
31308.6
31307.7
31306.7
31306.5
31306.9
31307.5
31308.5
31310.5
31316.8
31335.4
31396.3
31579
31837.1
32004.2
32081.9
32115.8
32130.1
32135.5
32138.5
32139.6
32140.8
32141.6
32141.9
32141.9
32141.9
32141.9
32141.9
32142.1
32141.8
32141
32140.6
32140
32139.8
32140
32140.5
32141.3
32141.7
32141.8
32141.6
32141.3
32140.7
32140.3
32140.3
32140.4
32140.6
32141.3
32141.5
32141.5
32141.5
32141.2
32140.5
32140.1
32140
32140
)
;

boundaryField
{
    sides
    {
        type            zeroGradient;
    }
    empty
    {
        type            empty;
    }
}


// ************************************************************************* //
