/*--------------------------------*- C++ -*----------------------------------*\
  =========                 |
  \\      /  F ield         | OpenFOAM: The Open Source CFD Toolbox
   \\    /   O peration     | Website:  https://openfoam.org
    \\  /    A nd           | Version:  9
     \\/     M anipulation  |
\*---------------------------------------------------------------------------*/
FoamFile
{
    format      ascii;
    class       volScalarField;
    location    "0.018";
    object      mag(U);
}
// * * * * * * * * * * * * * * * * * * * * * * * * * * * * * * * * * * * * * //

dimensions      [0 1 -1 0 0 0 0];

internalField   nonuniform List<scalar> 
100
(
25.3135
35.0319
42.1261
48.844
55.7338
62.6442
69.556
76.4734
83.3911
90.3017
97.1981
104.072
110.915
117.716
124.463
131.14
137.739
144.223
150.603
156.825
162.844
168.677
174.326
179.772
184.96
189.955
194.784
199.423
203.924
208.313
212.588
216.776
220.9
224.957
228.951
232.891
236.775
240.595
244.35
248.039
251.652
255.176
258.606
261.939
265.161
268.254
271.204
274.008
276.656
279.129
281.409
283.484
285.353
287.014
288.452
289.688
290.672
291.454
292.124
292.624
292.989
293.253
293.419
293.498
293.528
293.554
293.569
293.583
293.591
293.589
293.58
293.57
293.56
293.55
293.533
293.504
293.458
293.386
293.291
293.172
293.006
292.811
292.605
292.384
292.173
291.993
291.851
291.736
291.638
291.553
291.485
291.445
291.452
291.492
291.515
291.525
291.569
291.68
292.099
292.367
)
;

boundaryField
{
    sides
    {
        type            calculated;
        value           nonuniform List<scalar> 2(292.367 25.3135);
    }
    empty
    {
        type            empty;
    }
}


// ************************************************************************* //
