/*--------------------------------*- C++ -*----------------------------------*\
  =========                 |
  \\      /  F ield         | OpenFOAM: The Open Source CFD Toolbox
   \\    /   O peration     | Website:  https://openfoam.org
    \\  /    A nd           | Version:  9
     \\/     M anipulation  |
\*---------------------------------------------------------------------------*/
FoamFile
{
    format      ascii;
    class       volScalarField;
    location    "0.025";
    object      rho;
}
// * * * * * * * * * * * * * * * * * * * * * * * * * * * * * * * * * * * * * //

dimensions      [1 -3 0 0 0 0 0];

internalField   nonuniform List<scalar> 
10000
(
0.388353
0.388345
0.388334
0.388323
0.388312
0.3883
0.388289
0.388278
0.388267
0.388257
0.388246
0.388234
0.388223
0.388212
0.388201
0.388192
0.388182
0.388172
0.388161
0.388149
0.388137
0.388125
0.388113
0.388103
0.388094
0.388086
0.388079
0.388074
0.38807
0.388066
0.388063
0.388061
0.388059
0.388056
0.388054
0.388052
0.38805
0.388049
0.388047
0.388046
0.388044
0.388042
0.388041
0.388039
0.388037
0.388036
0.388034
0.388032
0.388031
0.388029
0.388027
0.388026
0.388024
0.388022
0.38802
0.388019
0.388017
0.388015
0.388014
0.388012
0.38801
0.388009
0.388007
0.388005
0.388004
0.388002
0.388
0.387999
0.387997
0.387995
0.387993
0.387992
0.38799
0.387988
0.387987
0.387985
0.387983
0.387981
0.38798
0.387978
0.387976
0.387975
0.387973
0.387971
0.387969
0.387968
0.387966
0.387964
0.387963
0.387961
0.387959
0.387957
0.387956
0.387954
0.387952
0.387951
0.387949
0.387947
0.387945
0.387944
0.387942
0.38794
0.387938
0.387937
0.387935
0.387933
0.387931
0.38793
0.387928
0.387926
0.387924
0.387923
0.387921
0.387919
0.387917
0.387916
0.387914
0.387912
0.38791
0.387909
0.387907
0.387905
0.387903
0.387902
0.3879
0.387898
0.387896
0.387894
0.387893
0.387891
0.387889
0.387887
0.387886
0.387884
0.387882
0.38788
0.387878
0.387877
0.387875
0.387873
0.387871
0.387869
0.387868
0.387866
0.387864
0.387862
0.387861
0.387859
0.387857
0.387855
0.387853
0.387852
0.38785
0.387848
0.387846
0.387844
0.387842
0.387841
0.387839
0.387837
0.387835
0.387833
0.387832
0.38783
0.387828
0.387826
0.387824
0.387823
0.387821
0.387819
0.387817
0.387815
0.387813
0.387812
0.38781
0.387808
0.387806
0.387804
0.387802
0.387801
0.387799
0.387797
0.387795
0.387793
0.387791
0.38779
0.387788
0.387786
0.387784
0.387782
0.38778
0.387778
0.387777
0.387775
0.387773
0.387771
0.387769
0.387767
0.387765
0.387764
0.387762
0.38776
0.387758
0.387756
0.387754
0.387752
0.38775
0.387749
0.387747
0.387745
0.387743
0.387741
0.387739
0.387737
0.387735
0.387734
0.387732
0.38773
0.387728
0.387726
0.387724
0.387722
0.38772
0.387718
0.387717
0.387715
0.387713
0.387711
0.387709
0.387707
0.387705
0.387703
0.387701
0.3877
0.387698
0.387696
0.387694
0.387692
0.38769
0.387688
0.387686
0.387684
0.387682
0.38768
0.387678
0.387677
0.387675
0.387673
0.387671
0.387669
0.387667
0.387665
0.387663
0.387661
0.387659
0.387657
0.387655
0.387653
0.387651
0.38765
0.387648
0.387646
0.387644
0.387642
0.38764
0.387638
0.387636
0.387634
0.387632
0.38763
0.387628
0.387626
0.387624
0.387622
0.38762
0.387618
0.387616
0.387614
0.387613
0.387611
0.387609
0.387607
0.387605
0.387603
0.387601
0.387599
0.387597
0.387595
0.387593
0.387591
0.387589
0.387587
0.387585
0.387583
0.387581
0.387579
0.387577
0.387575
0.387573
0.387571
0.387569
0.387567
0.387565
0.387563
0.387561
0.387559
0.387557
0.387555
0.387553
0.387551
0.387549
0.387547
0.387545
0.387543
0.387541
0.387539
0.387537
0.387535
0.387533
0.387531
0.387529
0.387527
0.387525
0.387523
0.387521
0.387519
0.387517
0.387515
0.387513
0.387511
0.387509
0.387507
0.387505
0.387503
0.387501
0.387499
0.387497
0.387495
0.387493
0.38749
0.387488
0.387486
0.387484
0.387482
0.38748
0.387478
0.387476
0.387474
0.387472
0.38747
0.387468
0.387466
0.387464
0.387462
0.38746
0.387458
0.387456
0.387454
0.387452
0.387449
0.387447
0.387445
0.387443
0.387441
0.387439
0.387437
0.387435
0.387433
0.387431
0.387429
0.387427
0.387425
0.387423
0.38742
0.387418
0.387416
0.387414
0.387412
0.38741
0.387408
0.387406
0.387404
0.387402
0.3874
0.387397
0.387395
0.387393
0.387391
0.387389
0.387387
0.387385
0.387383
0.387381
0.387379
0.387376
0.387374
0.387372
0.38737
0.387368
0.387366
0.387364
0.387362
0.38736
0.387357
0.387355
0.387353
0.387351
0.387349
0.387347
0.387345
0.387343
0.38734
0.387338
0.387336
0.387334
0.387332
0.38733
0.387328
0.387325
0.387323
0.387321
0.387319
0.387317
0.387315
0.387313
0.38731
0.387308
0.387306
0.387304
0.387302
0.3873
0.387298
0.387295
0.387293
0.387291
0.387289
0.387287
0.387285
0.387282
0.38728
0.387278
0.387276
0.387274
0.387272
0.387269
0.387267
0.387265
0.387263
0.387261
0.387259
0.387256
0.387254
0.387252
0.38725
0.387248
0.387245
0.387243
0.387241
0.387239
0.387237
0.387234
0.387232
0.38723
0.387228
0.387226
0.387223
0.387221
0.387219
0.387217
0.387215
0.387212
0.38721
0.387208
0.387206
0.387204
0.387201
0.387199
0.387197
0.387195
0.387193
0.38719
0.387188
0.387186
0.387184
0.387181
0.387179
0.387177
0.387175
0.387173
0.38717
0.387168
0.387166
0.387164
0.387161
0.387159
0.387157
0.387155
0.387152
0.38715
0.387148
0.387146
0.387143
0.387141
0.387139
0.387137
0.387134
0.387132
0.38713
0.387128
0.387125
0.387123
0.387121
0.387119
0.387116
0.387114
0.387112
0.38711
0.387107
0.387105
0.387103
0.387101
0.387098
0.387096
0.387094
0.387092
0.387089
0.387087
0.387085
0.387082
0.38708
0.387078
0.387076
0.387073
0.387071
0.387069
0.387066
0.387064
0.387062
0.38706
0.387057
0.387055
0.387053
0.38705
0.387048
0.387046
0.387043
0.387041
0.387039
0.387037
0.387034
0.387032
0.38703
0.387027
0.387025
0.387023
0.38702
0.387018
0.387016
0.387013
0.387011
0.387009
0.387006
0.387004
0.387002
0.386999
0.386997
0.386995
0.386993
0.38699
0.386988
0.386986
0.386983
0.386981
0.386979
0.386976
0.386974
0.386971
0.386969
0.386967
0.386964
0.386962
0.38696
0.386957
0.386955
0.386953
0.38695
0.386948
0.386946
0.386943
0.386941
0.386939
0.386936
0.386934
0.386931
0.386929
0.386927
0.386924
0.386922
0.38692
0.386917
0.386915
0.386913
0.38691
0.386908
0.386905
0.386903
0.386901
0.386898
0.386896
0.386894
0.386891
0.386889
0.386886
0.386884
0.386882
0.386879
0.386877
0.386874
0.386872
0.38687
0.386867
0.386865
0.386862
0.38686
0.386858
0.386855
0.386853
0.38685
0.386848
0.386846
0.386843
0.386841
0.386838
0.386836
0.386834
0.386831
0.386829
0.386826
0.386824
0.386821
0.386819
0.386817
0.386814
0.386812
0.386809
0.386807
0.386804
0.386802
0.3868
0.386797
0.386795
0.386792
0.38679
0.386787
0.386785
0.386782
0.38678
0.386778
0.386775
0.386773
0.38677
0.386768
0.386765
0.386763
0.38676
0.386758
0.386756
0.386753
0.386751
0.386748
0.386746
0.386743
0.386741
0.386738
0.386736
0.386733
0.386731
0.386728
0.386726
0.386723
0.386721
0.386719
0.386716
0.386714
0.386711
0.386709
0.386706
0.386704
0.386701
0.386699
0.386696
0.386694
0.386691
0.386689
0.386686
0.386684
0.386681
0.386679
0.386676
0.386674
0.386671
0.386669
0.386666
0.386664
0.386661
0.386659
0.386656
0.386654
0.386651
0.386649
0.386646
0.386644
0.386641
0.386639
0.386636
0.386634
0.386631
0.386629
0.386626
0.386623
0.386621
0.386618
0.386616
0.386613
0.386611
0.386608
0.386606
0.386603
0.386601
0.386598
0.386596
0.386593
0.386591
0.386588
0.386585
0.386583
0.38658
0.386578
0.386575
0.386573
0.38657
0.386568
0.386565
0.386562
0.38656
0.386557
0.386555
0.386552
0.38655
0.386547
0.386545
0.386542
0.386539
0.386537
0.386534
0.386532
0.386529
0.386527
0.386524
0.386521
0.386519
0.386516
0.386514
0.386511
0.386508
0.386506
0.386503
0.386501
0.386498
0.386496
0.386493
0.38649
0.386488
0.386485
0.386483
0.38648
0.386477
0.386475
0.386472
0.38647
0.386467
0.386464
0.386462
0.386459
0.386457
0.386454
0.386451
0.386449
0.386446
0.386443
0.386441
0.386438
0.386436
0.386433
0.38643
0.386428
0.386425
0.386422
0.38642
0.386417
0.386415
0.386412
0.386409
0.386407
0.386404
0.386401
0.386399
0.386396
0.386394
0.386391
0.386388
0.386386
0.386383
0.38638
0.386378
0.386375
0.386372
0.38637
0.386367
0.386364
0.386362
0.386359
0.386356
0.386354
0.386351
0.386348
0.386346
0.386343
0.38634
0.386338
0.386335
0.386332
0.38633
0.386327
0.386324
0.386322
0.386319
0.386316
0.386314
0.386311
0.386308
0.386306
0.386303
0.3863
0.386298
0.386295
0.386292
0.38629
0.386287
0.386284
0.386281
0.386279
0.386276
0.386273
0.386271
0.386268
0.386265
0.386263
0.38626
0.386257
0.386254
0.386252
0.386249
0.386246
0.386244
0.386241
0.386238
0.386235
0.386233
0.38623
0.386227
0.386225
0.386222
0.386219
0.386216
0.386214
0.386211
0.386208
0.386205
0.386203
0.3862
0.386197
0.386194
0.386192
0.386189
0.386186
0.386184
0.386181
0.386178
0.386175
0.386173
0.38617
0.386167
0.386164
0.386162
0.386159
0.386156
0.386153
0.38615
0.386148
0.386145
0.386142
0.386139
0.386137
0.386134
0.386131
0.386128
0.386126
0.386123
0.38612
0.386117
0.386115
0.386112
0.386109
0.386106
0.386103
0.386101
0.386098
0.386095
0.386092
0.386089
0.386087
0.386084
0.386081
0.386078
0.386076
0.386073
0.38607
0.386067
0.386064
0.386062
0.386059
0.386056
0.386053
0.38605
0.386048
0.386045
0.386042
0.386039
0.386036
0.386033
0.386031
0.386028
0.386025
0.386022
0.386019
0.386017
0.386014
0.386011
0.386008
0.386005
0.386002
0.386
0.385997
0.385994
0.385991
0.385988
0.385985
0.385983
0.38598
0.385977
0.385974
0.385971
0.385968
0.385966
0.385963
0.38596
0.385957
0.385954
0.385951
0.385948
0.385946
0.385943
0.38594
0.385937
0.385934
0.385931
0.385928
0.385926
0.385923
0.38592
0.385917
0.385914
0.385911
0.385908
0.385905
0.385903
0.3859
0.385897
0.385894
0.385891
0.385888
0.385885
0.385882
0.38588
0.385877
0.385874
0.385871
0.385868
0.385865
0.385862
0.385859
0.385856
0.385854
0.385851
0.385848
0.385845
0.385842
0.385839
0.385836
0.385833
0.38583
0.385827
0.385824
0.385822
0.385819
0.385816
0.385813
0.38581
0.385807
0.385804
0.385801
0.385798
0.385795
0.385792
0.385789
0.385787
0.385784
0.385781
0.385778
0.385775
0.385772
0.385769
0.385766
0.385763
0.38576
0.385757
0.385754
0.385751
0.385748
0.385745
0.385742
0.38574
0.385737
0.385734
0.385731
0.385728
0.385725
0.385722
0.385719
0.385716
0.385713
0.38571
0.385707
0.385704
0.385701
0.385698
0.385695
0.385692
0.385689
0.385686
0.385683
0.38568
0.385677
0.385674
0.385671
0.385668
0.385665
0.385662
0.385659
0.385656
0.385653
0.38565
0.385647
0.385644
0.385642
0.385639
0.385636
0.385633
0.38563
0.385627
0.385624
0.385621
0.385618
0.385615
0.385612
0.385609
0.385605
0.385602
0.385599
0.385596
0.385593
0.38559
0.385587
0.385584
0.385581
0.385578
0.385575
0.385572
0.385569
0.385566
0.385563
0.38556
0.385557
0.385554
0.385551
0.385548
0.385545
0.385542
0.385539
0.385536
0.385533
0.38553
0.385527
0.385524
0.385521
0.385518
0.385515
0.385512
0.385509
0.385505
0.385502
0.385499
0.385496
0.385493
0.38549
0.385487
0.385484
0.385481
0.385478
0.385475
0.385472
0.385469
0.385466
0.385463
0.38546
0.385456
0.385453
0.38545
0.385447
0.385444
0.385441
0.385438
0.385435
0.385432
0.385429
0.385426
0.385423
0.385419
0.385416
0.385413
0.38541
0.385407
0.385404
0.385401
0.385398
0.385395
0.385392
0.385388
0.385385
0.385382
0.385379
0.385376
0.385373
0.38537
0.385367
0.385364
0.385361
0.385357
0.385355
0.385351
0.385348
0.385345
0.385342
0.385339
0.385336
0.385332
0.38533
0.385326
0.385323
0.38532
0.385317
0.385313
0.385311
0.385307
0.385304
0.385301
0.385298
0.385295
0.385292
0.385288
0.385286
0.385282
0.385279
0.385276
0.385273
0.385269
0.385267
0.385263
0.38526
0.385257
0.385254
0.385251
0.385248
0.385244
0.385241
0.385238
0.385235
0.385232
0.385229
0.385225
0.385222
0.385219
0.385216
0.385212
0.38521
0.385206
0.385203
0.3852
0.385197
0.385193
0.38519
0.385187
0.385184
0.385181
0.385178
0.385174
0.385171
0.385168
0.385165
0.385162
0.385158
0.385155
0.385152
0.385149
0.385146
0.385142
0.385139
0.385136
0.385133
0.38513
0.385126
0.385123
0.38512
0.385117
0.385114
0.38511
0.385107
0.385104
0.385101
0.385097
0.385094
0.385091
0.385088
0.385084
0.385081
0.385078
0.385075
0.385072
0.385068
0.385065
0.385062
0.385059
0.385055
0.385052
0.385049
0.385046
0.385042
0.385039
0.385036
0.385033
0.385029
0.385026
0.385023
0.38502
0.385016
0.385013
0.38501
0.385007
0.385003
0.385
0.384997
0.384993
0.38499
0.384987
0.384984
0.38498
0.384977
0.384974
0.384971
0.384967
0.384964
0.384961
0.384957
0.384954
0.384951
0.384948
0.384944
0.384941
0.384938
0.384934
0.384931
0.384928
0.384925
0.384921
0.384918
0.384915
0.384911
0.384908
0.384905
0.384901
0.384898
0.384895
0.384891
0.384888
0.384885
0.384882
0.384878
0.384875
0.384872
0.384868
0.384865
0.384862
0.384858
0.384855
0.384852
0.384848
0.384845
0.384842
0.384838
0.384835
0.384832
0.384828
0.384825
0.384822
0.384818
0.384815
0.384812
0.384808
0.384805
0.384802
0.384798
0.384795
0.384792
0.384788
0.384785
0.384781
0.384778
0.384775
0.384771
0.384768
0.384765
0.384761
0.384758
0.384755
0.384751
0.384748
0.384744
0.384741
0.384738
0.384734
0.384731
0.384728
0.384724
0.384721
0.384717
0.384714
0.384711
0.384707
0.384704
0.384701
0.384697
0.384694
0.38469
0.384687
0.384684
0.38468
0.384677
0.384673
0.38467
0.384667
0.384663
0.38466
0.384656
0.384653
0.38465
0.384646
0.384643
0.384639
0.384636
0.384633
0.384629
0.384626
0.384622
0.384619
0.384615
0.384612
0.384609
0.384605
0.384602
0.384598
0.384595
0.384591
0.384588
0.384585
0.384581
0.384578
0.384574
0.384571
0.384567
0.384564
0.384561
0.384557
0.384554
0.38455
0.384547
0.384543
0.38454
0.384536
0.384533
0.384529
0.384526
0.384523
0.384519
0.384516
0.384512
0.384509
0.384505
0.384502
0.384498
0.384495
0.384491
0.384488
0.384484
0.384481
0.384477
0.384474
0.384471
0.384467
0.384464
0.38446
0.384457
0.384453
0.38445
0.384446
0.384443
0.384439
0.384436
0.384432
0.384429
0.384425
0.384422
0.384418
0.384415
0.384411
0.384408
0.384404
0.384401
0.384397
0.384394
0.38439
0.384387
0.384383
0.38438
0.384376
0.384373
0.384369
0.384366
0.384362
0.384359
0.384355
0.384351
0.384348
0.384344
0.384341
0.384337
0.384334
0.38433
0.384327
0.384323
0.38432
0.384316
0.384313
0.384309
0.384306
0.384302
0.384298
0.384295
0.384291
0.384288
0.384284
0.384281
0.384277
0.384274
0.38427
0.384266
0.384263
0.384259
0.384256
0.384252
0.384249
0.384245
0.384242
0.384238
0.384234
0.384231
0.384227
0.384224
0.38422
0.384217
0.384213
0.384209
0.384206
0.384202
0.384199
0.384195
0.384191
0.384188
0.384184
0.384181
0.384177
0.384174
0.38417
0.384166
0.384163
0.384159
0.384156
0.384152
0.384148
0.384145
0.384141
0.384138
0.384134
0.38413
0.384127
0.384123
0.384119
0.384116
0.384112
0.384109
0.384105
0.384101
0.384098
0.384094
0.384091
0.384087
0.384083
0.38408
0.384076
0.384072
0.384069
0.384065
0.384062
0.384058
0.384054
0.384051
0.384047
0.384043
0.38404
0.384036
0.384032
0.384029
0.384025
0.384021
0.384018
0.384014
0.38401
0.384007
0.384003
0.384
0.383996
0.383992
0.383989
0.383985
0.383981
0.383978
0.383974
0.38397
0.383967
0.383963
0.383959
0.383956
0.383952
0.383948
0.383944
0.383941
0.383937
0.383933
0.38393
0.383926
0.383922
0.383919
0.383915
0.383911
0.383908
0.383904
0.3839
0.383897
0.383893
0.383889
0.383885
0.383882
0.383878
0.383874
0.383871
0.383867
0.383863
0.383859
0.383856
0.383852
0.383848
0.383845
0.383841
0.383837
0.383833
0.38383
0.383826
0.383822
0.383819
0.383815
0.383811
0.383807
0.383804
0.3838
0.383796
0.383792
0.383789
0.383785
0.383781
0.383778
0.383774
0.38377
0.383766
0.383763
0.383759
0.383755
0.383751
0.383748
0.383744
0.38374
0.383736
0.383733
0.383729
0.383725
0.383721
0.383718
0.383714
0.38371
0.383706
0.383702
0.383699
0.383695
0.383691
0.383687
0.383684
0.38368
0.383676
0.383672
0.383668
0.383665
0.383661
0.383657
0.383653
0.38365
0.383646
0.383642
0.383638
0.383634
0.383631
0.383627
0.383623
0.383619
0.383615
0.383612
0.383608
0.383604
0.3836
0.383596
0.383593
0.383589
0.383585
0.383581
0.383577
0.383574
0.38357
0.383566
0.383562
0.383558
0.383554
0.383551
0.383547
0.383543
0.383539
0.383535
0.383531
0.383528
0.383524
0.38352
0.383516
0.383512
0.383508
0.383505
0.383501
0.383497
0.383493
0.383489
0.383485
0.383482
0.383478
0.383474
0.38347
0.383466
0.383462
0.383458
0.383455
0.383451
0.383447
0.383443
0.383439
0.383435
0.383431
0.383428
0.383424
0.38342
0.383416
0.383412
0.383408
0.383404
0.3834
0.383397
0.383393
0.383389
0.383385
0.383381
0.383377
0.383373
0.383369
0.383366
0.383362
0.383358
0.383354
0.38335
0.383346
0.383342
0.383338
0.383334
0.38333
0.383327
0.383323
0.383319
0.383315
0.383311
0.383307
0.383303
0.383299
0.383295
0.383291
0.383287
0.383284
0.38328
0.383276
0.383272
0.383268
0.383264
0.38326
0.383256
0.383252
0.383248
0.383244
0.38324
0.383236
0.383233
0.383229
0.383225
0.383221
0.383217
0.383213
0.383209
0.383205
0.383201
0.383197
0.383193
0.383189
0.383185
0.383181
0.383177
0.383173
0.383169
0.383165
0.383161
0.383157
0.383154
0.38315
0.383146
0.383142
0.383138
0.383134
0.38313
0.383126
0.383122
0.383118
0.383114
0.38311
0.383106
0.383102
0.383098
0.383094
0.38309
0.383086
0.383082
0.383078
0.383074
0.38307
0.383066
0.383062
0.383058
0.383054
0.38305
0.383046
0.383042
0.383038
0.383034
0.38303
0.383026
0.383022
0.383018
0.383014
0.38301
0.383006
0.383002
0.382998
0.382994
0.38299
0.382986
0.382982
0.382978
0.382974
0.38297
0.382966
0.382962
0.382958
0.382954
0.38295
0.382946
0.382941
0.382937
0.382933
0.382929
0.382925
0.382921
0.382917
0.382913
0.382909
0.382905
0.382901
0.382897
0.382893
0.382889
0.382885
0.382881
0.382877
0.382873
0.382869
0.382865
0.38286
0.382856
0.382852
0.382848
0.382844
0.38284
0.382836
0.382832
0.382828
0.382824
0.38282
0.382816
0.382812
0.382808
0.382803
0.382799
0.382795
0.382791
0.382787
0.382783
0.382779
0.382775
0.382771
0.382767
0.382763
0.382758
0.382754
0.38275
0.382746
0.382742
0.382738
0.382734
0.38273
0.382726
0.382721
0.382717
0.382713
0.382709
0.382705
0.382701
0.382697
0.382693
0.382689
0.382684
0.38268
0.382676
0.382672
0.382668
0.382664
0.38266
0.382656
0.382651
0.382647
0.382643
0.382639
0.382635
0.382631
0.382627
0.382622
0.382618
0.382614
0.38261
0.382606
0.382602
0.382598
0.382593
0.382589
0.382585
0.382581
0.382577
0.382573
0.382568
0.382564
0.38256
0.382556
0.382552
0.382548
0.382543
0.382539
0.382535
0.382531
0.382527
0.382523
0.382518
0.382514
0.38251
0.382506
0.382502
0.382497
0.382493
0.382489
0.382485
0.382481
0.382476
0.382472
0.382468
0.382464
0.38246
0.382455
0.382451
0.382447
0.382443
0.382439
0.382434
0.38243
0.382426
0.382422
0.382418
0.382413
0.382409
0.382405
0.382401
0.382397
0.382392
0.382388
0.382384
0.38238
0.382375
0.382371
0.382367
0.382363
0.382359
0.382354
0.38235
0.382346
0.382342
0.382337
0.382333
0.382329
0.382325
0.38232
0.382316
0.382312
0.382308
0.382303
0.382299
0.382295
0.382291
0.382286
0.382282
0.382278
0.382274
0.382269
0.382265
0.382261
0.382257
0.382252
0.382248
0.382244
0.382239
0.382235
0.382231
0.382227
0.382222
0.382218
0.382214
0.38221
0.382205
0.382201
0.382197
0.382192
0.382188
0.382184
0.38218
0.382175
0.382171
0.382167
0.382162
0.382158
0.382154
0.382149
0.382145
0.382141
0.382137
0.382132
0.382128
0.382124
0.382119
0.382115
0.382111
0.382106
0.382102
0.382098
0.382093
0.382089
0.382085
0.38208
0.382076
0.382072
0.382067
0.382063
0.382059
0.382054
0.38205
0.382046
0.382041
0.382037
0.382033
0.382028
0.382024
0.38202
0.382015
0.382011
0.382007
0.382002
0.381998
0.381994
0.381989
0.381985
0.381981
0.381976
0.381972
0.381968
0.381963
0.381959
0.381954
0.38195
0.381946
0.381941
0.381937
0.381933
0.381928
0.381924
0.38192
0.381915
0.381911
0.381906
0.381902
0.381898
0.381893
0.381889
0.381884
0.38188
0.381876
0.381871
0.381867
0.381863
0.381858
0.381854
0.381849
0.381845
0.381841
0.381836
0.381832
0.381827
0.381823
0.381819
0.381814
0.38181
0.381805
0.381801
0.381797
0.381792
0.381788
0.381783
0.381779
0.381774
0.38177
0.381766
0.381761
0.381757
0.381752
0.381748
0.381743
0.381739
0.381735
0.38173
0.381726
0.381721
0.381717
0.381712
0.381708
0.381704
0.381699
0.381695
0.38169
0.381686
0.381681
0.381677
0.381672
0.381668
0.381663
0.381659
0.381655
0.38165
0.381646
0.381641
0.381637
0.381632
0.381628
0.381623
0.381619
0.381614
0.38161
0.381605
0.381601
0.381596
0.381592
0.381588
0.381583
0.381579
0.381574
0.38157
0.381565
0.381561
0.381556
0.381552
0.381547
0.381543
0.381538
0.381534
0.381529
0.381525
0.38152
0.381516
0.381511
0.381507
0.381502
0.381498
0.381493
0.381489
0.381484
0.38148
0.381475
0.381471
0.381466
0.381462
0.381457
0.381453
0.381448
0.381443
0.381439
0.381434
0.38143
0.381425
0.381421
0.381416
0.381412
0.381407
0.381403
0.381398
0.381394
0.381389
0.381385
0.38138
0.381375
0.381371
0.381366
0.381362
0.381357
0.381353
0.381348
0.381344
0.381339
0.381334
0.38133
0.381325
0.381321
0.381316
0.381312
0.381307
0.381303
0.381298
0.381293
0.381289
0.381284
0.38128
0.381275
0.381271
0.381266
0.381261
0.381257
0.381252
0.381248
0.381243
0.381238
0.381234
0.381229
0.381225
0.38122
0.381216
0.381211
0.381206
0.381202
0.381197
0.381193
0.381188
0.381183
0.381179
0.381174
0.381169
0.381165
0.38116
0.381156
0.381151
0.381146
0.381142
0.381137
0.381133
0.381128
0.381123
0.381119
0.381114
0.381109
0.381105
0.3811
0.381096
0.381091
0.381086
0.381082
0.381077
0.381072
0.381068
0.381063
0.381058
0.381054
0.381049
0.381045
0.38104
0.381035
0.381031
0.381026
0.381021
0.381017
0.381012
0.381007
0.381003
0.380998
0.380993
0.380989
0.380984
0.380979
0.380975
0.38097
0.380965
0.380961
0.380956
0.380951
0.380947
0.380942
0.380937
0.380933
0.380928
0.380923
0.380919
0.380914
0.380909
0.380905
0.3809
0.380895
0.38089
0.380886
0.380881
0.380876
0.380872
0.380867
0.380862
0.380858
0.380853
0.380848
0.380843
0.380839
0.380834
0.380829
0.380825
0.38082
0.380815
0.380811
0.380806
0.380801
0.380796
0.380792
0.380787
0.380782
0.380777
0.380773
0.380768
0.380763
0.380759
0.380754
0.380749
0.380744
0.38074
0.380735
0.38073
0.380725
0.380721
0.380716
0.380711
0.380706
0.380702
0.380697
0.380692
0.380687
0.380683
0.380678
0.380673
0.380668
0.380664
0.380659
0.380654
0.380649
0.380645
0.38064
0.380635
0.38063
0.380626
0.380621
0.380616
0.380611
0.380606
0.380602
0.380597
0.380592
0.380587
0.380583
0.380578
0.380573
0.380568
0.380563
0.380559
0.380554
0.380549
0.380544
0.380539
0.380535
0.38053
0.380525
0.38052
0.380515
0.380511
0.380506
0.380501
0.380496
0.380491
0.380487
0.380482
0.380477
0.380472
0.380467
0.380463
0.380458
0.380453
0.380448
0.380443
0.380438
0.380434
0.380429
0.380424
0.380419
0.380414
0.380409
0.380405
0.3804
0.380395
0.38039
0.380385
0.38038
0.380376
0.380371
0.380366
0.380361
0.380356
0.380351
0.380347
0.380342
0.380337
0.380332
0.380327
0.380322
0.380317
0.380313
0.380308
0.380303
0.380298
0.380293
0.380288
0.380283
0.380278
0.380274
0.380269
0.380264
0.380259
0.380254
0.380249
0.380244
0.380239
0.380235
0.38023
0.380225
0.38022
0.380215
0.38021
0.380205
0.3802
0.380195
0.380191
0.380186
0.380181
0.380176
0.380171
0.380166
0.380161
0.380156
0.380151
0.380146
0.380142
0.380137
0.380132
0.380127
0.380122
0.380117
0.380112
0.380107
0.380102
0.380097
0.380092
0.380087
0.380082
0.380078
0.380073
0.380068
0.380063
0.380058
0.380053
0.380048
0.380043
0.380038
0.380033
0.380028
0.380023
0.380018
0.380013
0.380008
0.380003
0.379999
0.379994
0.379989
0.379984
0.379979
0.379974
0.379969
0.379964
0.379959
0.379954
0.379949
0.379944
0.379939
0.379934
0.379929
0.379924
0.379919
0.379914
0.379909
0.379904
0.379899
0.379894
0.379889
0.379884
0.379879
0.379874
0.379869
0.379864
0.379859
0.379854
0.379849
0.379844
0.379839
0.379834
0.379829
0.379824
0.379819
0.379814
0.379809
0.379804
0.379799
0.379794
0.379789
0.379784
0.379779
0.379774
0.379769
0.379764
0.379759
0.379754
0.379749
0.379744
0.379739
0.379734
0.379729
0.379724
0.379719
0.379714
0.379709
0.379704
0.379699
0.379694
0.379689
0.379684
0.379679
0.379674
0.379669
0.379664
0.379659
0.379654
0.379649
0.379643
0.379638
0.379633
0.379628
0.379623
0.379618
0.379613
0.379608
0.379603
0.379598
0.379593
0.379588
0.379583
0.379578
0.379573
0.379568
0.379563
0.379557
0.379552
0.379547
0.379542
0.379537
0.379532
0.379527
0.379522
0.379517
0.379512
0.379507
0.379502
0.379496
0.379491
0.379486
0.379481
0.379476
0.379471
0.379466
0.379461
0.379456
0.379451
0.379445
0.37944
0.379435
0.37943
0.379425
0.37942
0.379415
0.37941
0.379405
0.379399
0.379394
0.379389
0.379384
0.379379
0.379374
0.379369
0.379364
0.379359
0.379353
0.379348
0.379343
0.379338
0.379333
0.379328
0.379323
0.379317
0.379312
0.379307
0.379302
0.379297
0.379292
0.379287
0.379281
0.379276
0.379271
0.379266
0.379261
0.379256
0.379251
0.379245
0.37924
0.379235
0.37923
0.379225
0.37922
0.379214
0.379209
0.379204
0.379199
0.379194
0.379189
0.379183
0.379178
0.379173
0.379168
0.379163
0.379157
0.379152
0.379147
0.379142
0.379137
0.379132
0.379126
0.379121
0.379116
0.379111
0.379106
0.3791
0.379095
0.37909
0.379085
0.37908
0.379074
0.379069
0.379064
0.379059
0.379054
0.379048
0.379043
0.379038
0.379033
0.379027
0.379022
0.379017
0.379012
0.379007
0.379001
0.378996
0.378991
0.378986
0.37898
0.378975
0.37897
0.378965
0.37896
0.378954
0.378949
0.378944
0.378939
0.378933
0.378928
0.378923
0.378918
0.378912
0.378907
0.378902
0.378897
0.378891
0.378886
0.378881
0.378876
0.37887
0.378865
0.37886
0.378855
0.378849
0.378844
0.378839
0.378834
0.378828
0.378823
0.378818
0.378812
0.378807
0.378802
0.378797
0.378791
0.378786
0.378781
0.378775
0.37877
0.378765
0.37876
0.378754
0.378749
0.378744
0.378738
0.378733
0.378728
0.378723
0.378717
0.378712
0.378707
0.378701
0.378696
0.378691
0.378685
0.37868
0.378675
0.37867
0.378664
0.378659
0.378654
0.378648
0.378643
0.378638
0.378632
0.378627
0.378622
0.378616
0.378611
0.378606
0.3786
0.378595
0.37859
0.378584
0.378579
0.378574
0.378568
0.378563
0.378558
0.378552
0.378547
0.378542
0.378536
0.378531
0.378526
0.37852
0.378515
0.37851
0.378504
0.378499
0.378494
0.378488
0.378483
0.378477
0.378472
0.378467
0.378461
0.378456
0.378451
0.378445
0.37844
0.378435
0.378429
0.378424
0.378418
0.378413
0.378408
0.378402
0.378397
0.378392
0.378386
0.378381
0.378375
0.37837
0.378365
0.378359
0.378354
0.378348
0.378343
0.378338
0.378332
0.378327
0.378321
0.378316
0.378311
0.378305
0.3783
0.378294
0.378289
0.378284
0.378278
0.378273
0.378267
0.378262
0.378257
0.378251
0.378246
0.37824
0.378235
0.378229
0.378224
0.378219
0.378213
0.378208
0.378202
0.378197
0.378191
0.378186
0.378181
0.378175
0.37817
0.378164
0.378159
0.378153
0.378148
0.378142
0.378137
0.378132
0.378126
0.378121
0.378115
0.37811
0.378104
0.378099
0.378093
0.378088
0.378082
0.378077
0.378072
0.378066
0.378061
0.378055
0.37805
0.378044
0.378039
0.378033
0.378028
0.378022
0.378017
0.378011
0.378006
0.378
0.377995
0.377989
0.377984
0.377979
0.377973
0.377968
0.377962
0.377957
0.377951
0.377946
0.37794
0.377935
0.377929
0.377924
0.377918
0.377913
0.377907
0.377902
0.377896
0.377891
0.377885
0.37788
0.377874
0.377869
0.377863
0.377857
0.377852
0.377846
0.377841
0.377835
0.37783
0.377824
0.377819
0.377813
0.377808
0.377802
0.377797
0.377791
0.377786
0.37778
0.377775
0.377769
0.377764
0.377758
0.377752
0.377747
0.377741
0.377736
0.37773
0.377725
0.377719
0.377714
0.377708
0.377702
0.377697
0.377691
0.377686
0.37768
0.377675
0.377669
0.377664
0.377658
0.377652
0.377647
0.377641
0.377636
0.37763
0.377625
0.377619
0.377613
0.377608
0.377602
0.377597
0.377591
0.377586
0.37758
0.377574
0.377569
0.377563
0.377558
0.377552
0.377546
0.377541
0.377535
0.37753
0.377524
0.377518
0.377513
0.377507
0.377502
0.377496
0.37749
0.377485
0.377479
0.377474
0.377468
0.377462
0.377457
0.377451
0.377446
0.37744
0.377434
0.377429
0.377423
0.377417
0.377412
0.377406
0.377401
0.377395
0.377389
0.377384
0.377378
0.377372
0.377367
0.377361
0.377356
0.37735
0.377344
0.377339
0.377333
0.377327
0.377322
0.377316
0.37731
0.377305
0.377299
0.377293
0.377288
0.377282
0.377276
0.377271
0.377265
0.37726
0.377254
0.377248
0.377243
0.377237
0.377231
0.377226
0.37722
0.377214
0.377209
0.377203
0.377197
0.377191
0.377186
0.37718
0.377174
0.377169
0.377163
0.377157
0.377152
0.377146
0.37714
0.377135
0.377129
0.377123
0.377118
0.377112
0.377106
0.377101
0.377095
0.377089
0.377083
0.377078
0.377072
0.377066
0.377061
0.377055
0.377049
0.377043
0.377038
0.377032
0.377026
0.377021
0.377015
0.377009
0.377003
0.376998
0.376992
0.376986
0.376981
0.376975
0.376969
0.376963
0.376958
0.376952
0.376946
0.37694
0.376935
0.376929
0.376923
0.376918
0.376912
0.376906
0.3769
0.376895
0.376889
0.376883
0.376877
0.376872
0.376866
0.37686
0.376854
0.376849
0.376843
0.376837
0.376831
0.376826
0.37682
0.376814
0.376808
0.376802
0.376797
0.376791
0.376785
0.376779
0.376774
0.376768
0.376762
0.376756
0.376751
0.376745
0.376739
0.376733
0.376727
0.376722
0.376716
0.37671
0.376704
0.376698
0.376693
0.376687
0.376681
0.376675
0.376669
0.376664
0.376658
0.376652
0.376646
0.37664
0.376635
0.376629
0.376623
0.376617
0.376611
0.376606
0.3766
0.376594
0.376588
0.376582
0.376577
0.376571
0.376565
0.376559
0.376553
0.376547
0.376542
0.376536
0.37653
0.376524
0.376518
0.376513
0.376507
0.376501
0.376495
0.376489
0.376483
0.376478
0.376472
0.376466
0.37646
0.376454
0.376448
0.376442
0.376437
0.376431
0.376425
0.376419
0.376413
0.376407
0.376402
0.376396
0.37639
0.376384
0.376378
0.376372
0.376366
0.37636
0.376355
0.376349
0.376343
0.376337
0.376331
0.376325
0.376319
0.376314
0.376308
0.376302
0.376296
0.37629
0.376284
0.376278
0.376272
0.376267
0.376261
0.376255
0.376249
0.376243
0.376237
0.376231
0.376225
0.376219
0.376213
0.376208
0.376202
0.376196
0.37619
0.376184
0.376178
0.376172
0.376166
0.37616
0.376154
0.376149
0.376143
0.376137
0.376131
0.376125
0.376119
0.376113
0.376107
0.376101
0.376095
0.376089
0.376083
0.376078
0.376072
0.376066
0.37606
0.376054
0.376048
0.376042
0.376036
0.37603
0.376024
0.376018
0.376012
0.376006
0.376
0.375994
0.375989
0.375983
0.375977
0.375971
0.375965
0.375959
0.375953
0.375947
0.375941
0.375935
0.375929
0.375923
0.375917
0.375911
0.375905
0.375899
0.375893
0.375887
0.375881
0.375875
0.375869
0.375863
0.375857
0.375851
0.375846
0.37584
0.375834
0.375828
0.375822
0.375816
0.37581
0.375804
0.375798
0.375792
0.375786
0.37578
0.375774
0.375768
0.375762
0.375756
0.37575
0.375744
0.375738
0.375732
0.375726
0.37572
0.375714
0.375708
0.375702
0.375696
0.37569
0.375684
0.375678
0.375672
0.375666
0.37566
0.375654
0.375648
0.375642
0.375636
0.37563
0.375624
0.375618