/*--------------------------------*- C++ -*----------------------------------*\
  =========                 |
  \\      /  F ield         | OpenFOAM: The Open Source CFD Toolbox
   \\    /   O peration     | Website:  https://openfoam.org
    \\  /    A nd           | Version:  9
     \\/     M anipulation  |
\*---------------------------------------------------------------------------*/
FoamFile
{
    format      ascii;
    class       volScalarField;
    location    "0.024";
    object      mag(U);
}
// * * * * * * * * * * * * * * * * * * * * * * * * * * * * * * * * * * * * * //

dimensions      [0 1 -1 0 0 0 0];

internalField   nonuniform List<scalar> 
100
(
36.5444
42.5043
48.5676
53.3395
58.156
63.0738
67.9959
72.9097
77.8309
82.7477
87.6831
92.6076
97.5386
102.481
107.409
112.357
117.284
122.223
127.173
132.088
137.01
141.96
146.882
151.77
156.679
161.602
166.487
171.342
176.207
181.073
185.899
190.682
195.459
200.228
204.954
209.624
214.256
218.856
223.404
227.891
232.296
236.632
240.894
245.045
249.111
253.066
256.885
260.583
264.082
267.406
270.602
273.608
276.392
278.928
281.224
283.284
285.093
286.719
288.136
289.294
290.24
290.994
291.601
292.109
292.527
292.819
293.004
293.142
293.251
293.325
293.37
293.39
293.392
293.387
293.368
293.326
293.251
293.132
292.991
292.852
292.706
292.549
292.384
292.222
292.069
291.936
291.826
291.736
291.662
291.605
291.58
291.571
291.562
291.551
291.54
291.533
291.532
291.531
291.529
291.531
)
;

boundaryField
{
    sides
    {
        type            calculated;
        value           nonuniform List<scalar> 2(291.531 36.5444);
    }
    empty
    {
        type            empty;
    }
}


// ************************************************************************* //
