/*--------------------------------*- C++ -*----------------------------------*\
  =========                 |
  \\      /  F ield         | OpenFOAM: The Open Source CFD Toolbox
   \\    /   O peration     | Website:  https://openfoam.org
    \\  /    A nd           | Version:  9
     \\/     M anipulation  |
\*---------------------------------------------------------------------------*/
FoamFile
{
    format      ascii;
    class       volScalarField;
    location    "0.024";
    object      T;
}
// * * * * * * * * * * * * * * * * * * * * * * * * * * * * * * * * * * * * * //

dimensions      [0 0 0 1 0 0 0];

internalField   nonuniform List<scalar> 
100
(
256.979
256.794
256.706
256.605
256.402
256.126
255.823
255.505
255.207
254.863
254.627
254.219
254.029
253.646
253.399
253.099
252.753
252.56
252.227
251.863
251.684
251.455
251.054
250.752
250.613
250.377
249.985
249.718
249.594
249.375
249.012
248.749
248.646
248.526
248.238
247.936
247.798
247.751
247.638
247.348
247.121
247.058
247.064
247.027
246.845
246.68
246.682
246.757
246.826
246.801
246.717
246.744
246.861
247.081
247.18
247.169
247.171
247.253
247.501
247.706
247.777
247.796
247.809
247.856
247.993
248.125
248.195
248.222
248.233
248.238
248.251
248.291
248.366
248.421
248.458
248.487
248.508
248.529
248.585
248.709
248.807
248.868
248.924
248.983
249.042
249.13
249.243
249.332
249.364
249.37
249.387
249.441
249.537
249.604
249.64
249.66
249.687
249.774
249.841
249.994
)
;

boundaryField
{
    sides
    {
        type            zeroGradient;
    }
    empty
    {
        type            empty;
    }
}


// ************************************************************************* //
