/*--------------------------------*- C++ -*----------------------------------*\
  =========                 |
  \\      /  F ield         | OpenFOAM: The Open Source CFD Toolbox
   \\    /   O peration     | Website:  https://openfoam.org
    \\  /    A nd           | Version:  9
     \\/     M anipulation  |
\*---------------------------------------------------------------------------*/
FoamFile
{
    format      ascii;
    class       volScalarField;
    location    "0.042";
    object      T;
}
// * * * * * * * * * * * * * * * * * * * * * * * * * * * * * * * * * * * * * //

dimensions      [0 0 0 1 0 0 0];

internalField   nonuniform List<scalar> 
100
(
201.807
201.705
201.576
201.472
201.384
201.327
201.257
201.163
201.093
201.051
201.01
200.975
200.966
200.968
200.968
200.955
200.946
200.937
200.908
200.817
200.742
200.722
200.711
200.676
200.589
200.533
200.528
200.538
200.56
200.558
200.529
200.514
200.523
200.558
200.648
200.771
200.905
201.032
201.166
201.307
201.491
201.708
201.911
202.115
202.337
202.553
202.784
203.065
203.363
203.638
203.905
204.197
204.5
204.799
205.123
205.478
205.817
206.13
206.438
206.758
207.097
207.471
207.852
208.227
208.557
208.896
209.23
209.667
210.054
210.501
210.787
211.212
211.463
211.953
212.292
212.835
213.124
213.554
213.767
214.195
214.496
215.056
215.389
215.903
216.165
216.629
216.882
217.41
217.753
218.43
218.794
219.472
219.816
220.495
220.829
221.508
221.844
222.56
222.828
223.56
)
;

boundaryField
{
    sides
    {
        type            zeroGradient;
    }
    empty
    {
        type            empty;
    }
}


// ************************************************************************* //
