/*--------------------------------*- C++ -*----------------------------------*\
  =========                 |
  \\      /  F ield         | OpenFOAM: The Open Source CFD Toolbox
   \\    /   O peration     | Website:  https://openfoam.org
    \\  /    A nd           | Version:  9
     \\/     M anipulation  |
\*---------------------------------------------------------------------------*/
FoamFile
{
    format      ascii;
    class       volScalarField;
    location    "0.016";
    object      p;
}
// * * * * * * * * * * * * * * * * * * * * * * * * * * * * * * * * * * * * * //

dimensions      [1 -1 -2 0 0 0 0];

internalField   nonuniform List<scalar> 
1000
(
82173.1
81915.6
81760.3
81592.3
81427.9
81263
81098.6
80934.5
80770.7
80607.2
80444
80281.1
80118.5
79956.2
79794.2
79632.5
79471.1
79310
79149.2
78988.7
78828.5
78668.6
78509
78349.7
78190.7
78032
77873.6
77715.4
77557.6
77400.1
77242.8
77085.9
76929.2
76772.8
76616.7
76460.9
76305.4
76150.2
75995.3
75840.7
75686.4
75532.3
75378.5
75225
75071.9
74919
74766.4
74614.1
74462.1
74310.3
74158.9
74007.7
73856.8
73706.2
73555.8
73405.8
73256
73106.5
72957.3
72808.4
72659.8
72511.5
72363.5
72215.8
72068.3
71920.8
71773.3
71626
71479.1
71332.7
71187.1
71042.2
70898
70754
70610.1
70466
70321.8
70177.7
70033.9
69890.6
69747.5
69604.5
69461.2
69318.1
69175.7
69034.9
68895.9
68757.7
68618.3
68475.3
68328.2
68178.7
68030.3
67887
67751.3
67622.7
67496.8
67367.1
67229.7
67085.7
66939.3
66795.1
66655.8
66521.9
66390.7
66258.7
66124.1
65986.8
65848.7
65711.4
65575.9
65441.8
65308.3
65174.7
65040.6
64906.3
64772.3
64638.7
64505.6
64372.8
64240.2
64107.8
63975.5
63843.5
63711.7
63580.1
63448.9
63317.8
63187
63056.4
62926
62795.9
62666
62536.3
62406.8
62277.6
62148.6
62019.9
61891.4
61763.1
61635
61507.1
61379.5
61252.1
61125
60998
60871.3
60744.8
60618.6
60492.6
60366.7
60241.2
60115.8
59990.7
59865.7
59741
59616.6
59492.3
59368.3
59244.5
59120.9
58997.6
58874.4
58751.5
58628.8
58506.3
58384
58262
58140.2
58018.6
57897.2
57776
57655
57534.3
57413.8
57293.5
57173.4
57053.5
56933.8
56814.4
56695.2
56576.2
56457.3
56338.8
56220.4
56102.2
55984.3
55866.5
55749
55631.7
55514.6
55397.7
55281
55164.5
55048.3
54932.2
54816.4
54700.7
54585.3
54470.1
54355.1
54240.3
54125.7
54011.3
53897.1
53783.1
53669.3
53555.8
53442.4
53329.3
53216.3
53103.6
52991
52878.7
52766.6
52654.6
52542.9
52431.4
52320.1
52208.9
52098
51987.3
51876.8
51766.5
51656.3
51546.4
51436.7
51327.2
51217.9
51108.8
50999.8
50891.1
50782.6
50674.3
50566.1
50458.2
50350.5
50242.9
50135.6
50028.5
49921.5
49814.8
49708.2
49601.8
49495.7
49389.7
49283.9
49178.3
49072.9
48967.7
48862.7
48757.9
48653.3
48548.8
48444.6
48340.5
48236.7
48133
48029.5
47926.2
47823.1
47720.2
47617.5
47515
47412.6
47310.5
47208.5
47106.7
47005.1
46903.7
46802.5
46701.5
46600.6
46500
46399.5
46299.2
46199.1
46099.2
45999.4
45899.9
45800.5
45701.3
45602.3
45503.5
45404.9
45306.4
45208.2
45110.1
45012.2
44914.5
44816.9
44719.6
44622.4
44525.4
44428.6
44331.9
44235.5
44139.2
44043.1
43947.2
43851.4
43755.9
43660.5
43565.3
43470.2
43375.4
43280.7
43186.2
43091.9
42997.7
42903.8
42810
42716.3
42622.9
42529.6
42436.5
42343.6
42250.8
42158.3
42065.9
41973.6
41881.6
41789.7
41698
41606.5
41515.1
41423.9
41332.9
41242
41151.3
41060.8
40970.5
40880.3
40790.3
40700.5
40610.8
40521.3
40432
40342.9
40253.9
40165.1
40076.4
39987.9
39899.6
39811.5
39723.5
39635.7
39548
39460.5
39373.2
39286.1
39199.1
39112.3
39025.6
38939.1
38852.8
38766.7
38680.7
38594.8
38509.2
38423.7
38338.3
38253.1
38168.1
38083.3
37998.6
37914
37829.7
37745.5
37661.4
37577.5
37493.8
37410.3
37326.9
37243.6
37160.5
37077.6
36994.8
36912.2
36829.8
36747.5
36665.4
36583.4
36501.6
36419.9
36338.4
36257.1
36175.9
36094.9
36014
35933.3
35852.8
35772.4
35692.1
35612
35532.1
35452.3
35372.7
35293.2
35213.9
35134.8
35055.8
34976.9
34898.2
34819.7
34741.3
34663
34584.9
34507
34429.2
34351.6
34274.1
34196.8
34119.6
34042.6
33965.7
33889
33812.4
33736
33659.8
33583.7
33507.7
33431.9
33356.2
33280.7
33205.3
33130.1
33055.1
32980.3
32905.6
32830.9
32756.3
32681.8
32607.6
32533.6
32460.1
32386.9
32313.6
32240
32166.2
32092.5
32019
31946.2
31874.6
31803.9
31732.5
31660
31586.8
31513.5
31440.6
31368.7
31298.9
31232.3
31164.1
31093.3
31022.1
30951.5
30882
30814.5
30750.1
30692.3
30637.2
30580.5
30526.3
30476.5
30431.7
30392.3
30358.9
30334.1
30316.2
30299.3
30286.5
30277.1
30269.7
30265.6
30263.7
30263.3
30264.9
30265.3
30265.5
30265.8
30266.7
30270.4
30276.2
30281.7
30286.3
30289.4
30291.5
30293.4
30295.3
30298.6
30302.9
30307.2
30310.6
30313.2
30315.2
30317.3
30320
30324.7
30330.6
30335.8
30339.4
30341.3
30341.8
30341.7
30340.6
30337.5
30331.1
30323.1
30315.7
30309.6
30305.1
30302.1
30300.3
30299.7
30299.4
30299.1
30298.7
30298
30297.5
30297.2
30297.5
30298.3
30299.4
30301.4
30303.3
30304.8
30306.1
30307.4
30309.2
30311.5
30314.3
30317.4
30319.6
30322
30324.7
30327.6
30330.6
30332.5
30333.4
30333.3
30331.8
30329.7
30325.1
30319.6
30316.6
30314.5
30312.6
30310.9
30308.4
30305.5
30303.6
30302.4
30302.2
30303.2
30303.5
30303.6
30303.5
30302.3
30301.2
30301.1
30301.5
30302.8
30305.7
30308.3
30310.1
30311
30310.7
30310.6
30311.6
30313.6
30317.1
30321.1
30323.7
30325.2
30325.9
30325.6
30325.5
30325.4
30325
30323.7
30320.5
30315.7
30311.5
30308.8
30307.1
30306.3
30305.8
30305.5
30305.3
30304.7
30303.4
30302.8
30302.4
30302.3
30302.7
30303.3
30303.9
30304.1
30304.3
30304.6
30305.4
30307.2
30309.6
30311.4
30312.5
30313.2
30313.7
30314.4
30315.9
30318.9
30322
30324.1
30325
30325.3
30325.3
30324.8
30323.3
30321.6
30319.6
30316.9
30313.5
30310.4
30308.4
30307.4
30306.9
30306.6
30306.5
30306.3
30305.7
30304.7
30304
30303.8
30303.9
30304.5
30305.4
30305.8
30306
30306.1
30306.3
30306.9
30308.7
30311.2
30312.9
30313.8
30314.4
30314.8
30315.3
30316.7
30319.4
30321.9
30323.2
30323.6
30323.5
30322.4
30320.2
30318.5
30317.3
30316.1
30314.5
30312.1
30309.5
30307.8
30306.9
30306.7
30306.8
30307.1
30307.3
30307
30306
30305.2
30304.9
30305
30306
30307.1
30307.7
30308
30308
30308.2
30308.7
30310.3
30312.7
30314.4
30315.2
30315.5
30315.7
30315.9
30317.1
30319.6
30321.5
30322.3
30322.4
30321.3
30318.4
30316.1
30314.6
30313.9
30313.4
30312.6
30311.2
30309.1
30307.4
30306.7
30306.7
30307.3
30308.3
30308.6
30308.3
30307
30306.1
30305.7
30305.9
30307.2
30308.8
30309.5
30309.7
30309.6
30309.8
30310.3
30311.7
30314.2
30315.8
30316.4
30316.5
30316.2
30316.3
30317.3
30319.3
30320.6
30321
30320.9
30318.3
30314.8
30312.8
30312
30311.7
30311.6
30311.4
30310.8
30308.9
30307.1
30306.6
30306.9
30308.3
30309.4
30309.6
30309.3
30307.8
30306.7
30306.1
30306.6
30308.8
30310.7
30311.3
30311.5
30311.3
30311
30311
30312.4
30315.3
30317
30317.2
30317
30316.6
30316.3
30316.6
30317.7
30318.9
30319.3
30318.4
30315
30311.7
30310.2
30309.6
30309.9
30310.8
30311.2
30310.8
30308.8
30307.3
30307
30307.3
30308.9
30310.4
30310.7
30309.9
30307.8
30306.5
30306.3
30307.4
30310.5
30312.8
30313.9
30313.7
30312.2
30311.3
30311.2
30313
30316.1
30317.8
30318.2
30317.7
30315.8
30314.7
30315
30316.2
30317.2
30317.4
30316.4
30312.8
30309.4
30307.7
30307.6
30309.2
30311.3
30311.7
30311.2
30309.1
30307.2
30306.6
30307.2
30309.9
30311.9
30311.7
30310.5
30308.1
30306.5
30306.3
30308.5
30312.8
30315.2
30315.8
30314.7
30312.2
30311.2
30311
30313.6
30317.3
30319
30319.1
30317
30313.4
30312.2
30312.8
30314.3
30316.2
30316.6
30315.5
30311.2
30307.4
30305.9
30306.4
30309.5
30312.2
30312.8
30312.3
30309.7
30307.1
30306.5
30307.6
30311.5
30313.8
30313.5
30311.5
30308.1
30306.1
30306
30308.9
30314
30317.2
30317.7
30315.6
30312.4
30311.1
30311.3
30314.8
30318.3
30319.5
30318.9
30314.3
30309.7
30308.4
30310.1
30313.7
30316.8
30317.6
30315.9
30310.5
30306.4
30304.4
30305.5
30310.1
30313.4
30313.9
30312.3
30308.8
30306.6
30305.9
30308.6
30314.2
30316.5
30315.7
30311.9
30307.1
30304.7
30304.7
30309.4
30316.1
30319.5
30319.5
30316.2
30312.4
30310.8
30311.2
30316.2
30319.4
30319.5
30317.1
30310.5
30305.6
30304.3
30307.5
30316
30322.3
30323.2
30318.2
30295
30271.7
30264.9
30291.9
30465.3
30823.2
31093.4
31238.1
31300.2
31322.2
31330.4
31334.4
31332.4
31326.7
31319.3
31313.1
31308.5
31310.3
31319.7
31325.9
31327
31324.1
31320.1
31313.6
31311.6
31316.6
31326.2
31330.5
31325
31319.8
31313.5
31306.1
31305.1
31316.8
31326.5
31327.1
31326
31324.3
31319.7
31316.7
31331.8
31374.1
31363.5
31175.1
31737.1
31720.9
31109.3
30899.7
30927
30968.3
31059.6
31382.9
31715.2
31754.7
31727.4
31501.6
31072
30965.4
30932.7
30932.9
31092.9
31563.6
31739.1
31734.2
31663.9
31351.6
31009.6
30956.5
30958.7
30994.8
31216.7
31597.6
31652.6
31702.9
)
;

boundaryField
{
    sides
    {
        type            zeroGradient;
    }
    empty
    {
        type            empty;
    }
}


// ************************************************************************* //
