/*--------------------------------*- C++ -*----------------------------------*\
  =========                 |
  \\      /  F ield         | OpenFOAM: The Open Source CFD Toolbox
   \\    /   O peration     | Website:  https://openfoam.org
    \\  /    A nd           | Version:  9
     \\/     M anipulation  |
\*---------------------------------------------------------------------------*/
FoamFile
{
    format      ascii;
    class       volScalarField;
    location    "0.016";
    object      rho;
}
// * * * * * * * * * * * * * * * * * * * * * * * * * * * * * * * * * * * * * //

dimensions      [1 -3 0 0 0 0 0];

internalField   nonuniform List<scalar> 
1000
(
0.868748
0.866807
0.865641
0.86438
0.863146
0.861909
0.860676
0.859445
0.858216
0.856988
0.855759
0.85453
0.8533
0.852069
0.850837
0.849605
0.848374
0.847145
0.845917
0.844691
0.843467
0.842244
0.841024
0.839805
0.838588
0.837372
0.836158
0.834945
0.833734
0.832524
0.831316
0.830109
0.828904
0.8277
0.826498
0.825298
0.824099
0.822902
0.821706
0.820512
0.819319
0.818128
0.816938
0.81575
0.814563
0.813378
0.812195
0.811013
0.809833
0.808654
0.807476
0.8063
0.805126
0.803953
0.802782
0.801612
0.800444
0.799277
0.798112
0.796948
0.795786
0.794626
0.793468
0.792311
0.791154
0.789998
0.788841
0.787684
0.78653
0.785379
0.784234
0.783094
0.781958
0.780824
0.779689
0.778553
0.777415
0.776277
0.775141
0.774008
0.772876
0.771744
0.770609
0.769475
0.768346
0.767228
0.766125
0.765028
0.76392
0.762783
0.761612
0.760421
0.759239
0.758096
0.757014
0.755988
0.754982
0.753946
0.752848
0.751696
0.750524
0.749369
0.748253
0.747179
0.746126
0.745067
0.743985
0.742882
0.741771
0.740667
0.739575
0.738495
0.737419
0.736341
0.735259
0.734175
0.733092
0.732012
0.730935
0.72986
0.728787
0.727713
0.726641
0.725569
0.724499
0.723431
0.722364
0.721298
0.720234
0.71917
0.718108
0.717047
0.715988
0.714929
0.713872
0.712816
0.711762
0.710708
0.709656
0.708605
0.707556
0.706507
0.70546
0.704414
0.70337
0.702326
0.701284
0.700243
0.699204
0.698165
0.697128
0.696092
0.695057
0.694024
0.692991
0.69196
0.69093
0.689902
0.688874
0.687848
0.686823
0.6858
0.684777
0.683756
0.682736
0.681717
0.680699
0.679683
0.678668
0.677653
0.676641
0.675629
0.674619
0.673609
0.672602
0.671595
0.670589
0.669585
0.668582
0.66758
0.666579
0.665579
0.664581
0.663584
0.662588
0.661593
0.660599
0.659607
0.658616
0.657626
0.656637
0.655649
0.654663
0.653677
0.652693
0.65171
0.650728
0.649748
0.648768
0.64779
0.646813
0.645837
0.644862
0.643889
0.642917
0.641945
0.640975
0.640006
0.639039
0.638072
0.637107
0.636143
0.63518
0.634218
0.633257
0.632297
0.631339
0.630382
0.629426
0.628471
0.627517
0.626564
0.625613
0.624663
0.623713
0.622765
0.621818
0.620873
0.619928
0.618985
0.618042
0.617101
0.616161
0.615222
0.614284
0.613348
0.612412
0.611478
0.610545
0.609613
0.608682
0.607752
0.606823
0.605896
0.604969
0.604044
0.60312
0.602197
0.601275
0.600354
0.599434
0.598516
0.597598
0.596682
0.595767
0.594853
0.59394
0.593028
0.592117
0.591208
0.590299
0.589392
0.588485
0.58758
0.586676
0.585773
0.584871
0.583971
0.583071
0.582172
0.581275
0.580379
0.579483
0.578589
0.577696
0.576804
0.575913
0.575023
0.574135
0.573247
0.572361
0.571475
0.570591
0.569708
0.568826
0.567945
0.567065
0.566186
0.565308
0.564431
0.563556
0.562681
0.561808
0.560935
0.560064
0.559194
0.558324
0.557456
0.556589
0.555723
0.554859
0.553995
0.553132
0.55227
0.55141
0.55055
0.549692
0.548835
0.547978
0.547123
0.546269
0.545416
0.544564
0.543713
0.542863
0.542014
0.541166
0.540319
0.539474
0.538629
0.537785
0.536943
0.536101
0.535261
0.534421
0.533583
0.532746
0.53191
0.531074
0.53024
0.529407
0.528575
0.527744
0.526914
0.526085
0.525257
0.52443
0.523605
0.52278
0.521956
0.521134
0.520312
0.519491
0.518672
0.517853
0.517036
0.516219
0.515404
0.514589
0.513776
0.512964
0.512152
0.511342
0.510533
0.509724
0.508917
0.508111
0.507306
0.506502
0.505699
0.504896
0.504095
0.503295
0.502496
0.501698
0.500901
0.500105
0.49931
0.498516
0.497723
0.496932
0.496141
0.495351
0.494562
0.493774
0.492987
0.492201
0.491416
0.490633
0.48985
0.489068
0.488287
0.487507
0.486729
0.485951
0.485174
0.484398
0.483623
0.48285
0.482077
0.481305
0.480534
0.479765
0.478996
0.478228
0.477461
0.476695
0.475931
0.475167
0.474404
0.473642
0.472881
0.472122
0.471363
0.470605
0.469848
0.469092
0.468337
0.467583
0.46683
0.466079
0.465328
0.464578
0.463829
0.463081
0.462334
0.461588
0.460843
0.460099
0.459356
0.458614
0.457873
0.457133
0.456394
0.455655
0.454918
0.454182
0.453448
0.452715
0.451982
0.45125
0.450517
0.449785
0.449055
0.448328
0.447604
0.446883
0.44616
0.445435
0.444706
0.443978
0.443252
0.442532
0.441824
0.441123
0.440416
0.439697
0.438971
0.438244
0.43752
0.436804
0.43611
0.435447
0.434768
0.434062
0.433352
0.432647
0.431954
0.431279
0.430636
0.430057
0.429506
0.428938
0.428395
0.427896
0.427446
0.427051
0.426716
0.426467
0.426287
0.426118
0.42599
0.425895
0.42582
0.42578
0.42576
0.425757
0.425773
0.425777
0.425779
0.425783
0.425791
0.425828
0.425887
0.425943
0.425988
0.426019
0.426041
0.42606
0.426079
0.426112
0.426156
0.426198
0.426233
0.426259
0.42628
0.4263
0.426328
0.426375
0.426434
0.426487
0.426523
0.426542
0.426547
0.426546
0.426535
0.426504
0.42644
0.42636
0.426286
0.426225
0.42618
0.426149
0.426131
0.426125
0.426123
0.426119
0.426115
0.426109
0.426104
0.426101
0.426104
0.426112
0.426123
0.426143
0.426163
0.426178
0.426191
0.426204
0.426222
0.426245
0.426274
0.426304
0.426327
0.426351
0.426378
0.426408
0.426437
0.426457
0.426466
0.426465
0.42645
0.426429
0.426382
0.426328
0.426298
0.426276
0.426258
0.426241
0.426216
0.426187
0.426168
0.426156
0.426154
0.426164
0.426167
0.426169
0.426168
0.426155
0.426144
0.426144
0.426148
0.426161
0.426191
0.426217
0.426234
0.426243
0.42624
0.42624
0.42625
0.42627
0.426306
0.426345
0.426373
0.426388
0.426394
0.426391
0.42639
0.426389
0.426386
0.426373
0.426341
0.426292
0.42625
0.426223
0.426209
0.426199
0.426194
0.42619
0.426189
0.426183
0.426172
0.426164
0.426159
0.426159
0.426163
0.42617
0.426177
0.426179
0.42618
0.426183
0.426191
0.42621
0.426235
0.426253
0.426263
0.426269
0.426275
0.426283
0.426299
0.42633
0.426359
0.426379
0.42639
0.426394
0.426393
0.426388
0.426373
0.426355
0.426336
0.42631
0.426276
0.426246
0.426224
0.426213
0.42621
0.426208
0.426207
0.426204
0.426198
0.426187
0.426182
0.426181
0.426181
0.426187
0.426195
0.4262
0.426203
0.426204
0.426206
0.426212
0.42623
0.426255
0.426273
0.426284
0.426289
0.426292
0.426297
0.426311
0.426339
0.426365
0.426377
0.426382
0.426381
0.42637
0.426348
0.426332
0.42632
0.426308
0.426292
0.426267
0.426241
0.426224
0.426216
0.426214
0.426215
0.426218
0.426221
0.426218
0.426208
0.426201
0.426198
0.426199
0.426209
0.426219
0.426225
0.426229
0.42623
0.426232
0.426238
0.426254
0.426277
0.426294
0.426304
0.426308
0.426309
0.426311
0.426323
0.426348
0.426368
0.426376
0.426377
0.426367
0.426338
0.426314
0.426301
0.426293
0.426288
0.426279
0.426265
0.426244
0.42623
0.426223
0.426222
0.426228
0.426238
0.426242
0.426239
0.426228
0.426218
0.426215
0.426216
0.426229
0.426245
0.426253
0.426255
0.426255
0.426257
0.426262
0.426276
0.426301
0.426319
0.426327
0.426327
0.426323
0.426324
0.426334
0.426354
0.426367
0.426373
0.426372
0.426347
0.426312
0.426291
0.426284
0.426282
0.426282
0.42628
0.426274
0.426254
0.426236
0.426229
0.426232
0.426247
0.42626
0.426265
0.426263
0.426249
0.426237
0.426229
0.426234
0.426256
0.426275
0.426284
0.426287
0.426285
0.42628
0.426281
0.426295
0.426325
0.426342
0.426346
0.426345
0.426341
0.426338
0.42634
0.426351
0.426363
0.426369
0.42636
0.426326
0.426294
0.426279
0.426275
0.426279
0.426288
0.426292
0.426287
0.426267
0.426252
0.426249
0.426252
0.42627
0.426287
0.426291
0.426283
0.426263
0.42625
0.426247
0.426259
0.42629
0.426313
0.426325
0.426324
0.42631
0.426302
0.426302
0.42632
0.426352
0.426367
0.426372
0.426367
0.426349
0.426338
0.426343
0.426357
0.426369
0.426372
0.426362
0.426326
0.42629
0.426273
0.426271
0.426288
0.426308
0.426317
0.426315
0.426295
0.426279
0.426272
0.426277
0.426303
0.42632
0.426318
0.426307
0.426282
0.426271
0.426273
0.426296
0.426341
0.426367
0.426371
0.426359
0.426334
0.426323
0.426325
0.426351
0.426389
0.426408
0.426411
0.426391
0.426356
0.426345
0.426352
0.426368
0.426387
0.426393
0.426381
0.426337
0.426298
0.426284
0.42629
0.426322
0.42635
0.426363
0.426361
0.426337
0.426313
0.426307
0.426318
0.426357
0.426378
0.426375
0.426355
0.426321
0.426305
0.426307
0.426338
0.426394
0.426431
0.426437
0.426416
0.426383
0.426371
0.426373
0.426408
0.426441
0.426456
0.426452
0.42641
0.426367
0.426356
0.426376
0.426417
0.42645
0.426458
0.426441
0.426387
0.426345
0.426331
0.426342
0.42639
0.426422
0.426433
0.42642
0.426389
0.426366
0.426364
0.426393
0.426452
0.426479
0.426473
0.426436
0.42639
0.426371
0.426372
0.426421
0.426488
0.426531
0.426534
0.426504
0.426467
0.426454
0.426465
0.42652
0.426555
0.42656
0.426539
0.426478
0.426435
0.426425
0.426459
0.426549
0.426619
0.426635
0.426589
0.426361
0.426123
0.426074
0.42635
0.428098
0.431688
0.434431
0.435782
0.436445
0.43674
0.436831
0.436838
0.43681
0.436752
0.436691
0.436669
0.43666
0.436683
0.436771
0.436841
0.436868
0.436854
0.436839
0.436815
0.436798
0.436844
0.436931
0.436935
0.43687
0.436798
0.436707
0.436581
0.436473
0.4364
0.436124
0.435415
0.434056
0.431556
0.427029
0.419089
0.405688
0.384039
0.351706
0.313473
0.290974
0.279423
0.271066
0.267839
0.267075
0.266823
0.267073
0.268987
0.271112
0.271422
0.271449
0.270481
0.268345
0.268158
0.268427
0.268868
0.270323
0.273707
0.275049
0.275285
0.275097
0.273205
0.271003
0.270617
0.270511
0.27047
0.271485
0.273486
0.273571
0.273547
)
;

boundaryField
{
    sides
    {
        type            calculated;
        value           nonuniform List<scalar> 2(0.273547 0.868748);
    }
    empty
    {
        type            empty;
    }
}


// ************************************************************************* //
