/*--------------------------------*- C++ -*----------------------------------*\
  =========                 |
  \\      /  F ield         | OpenFOAM: The Open Source CFD Toolbox
   \\    /   O peration     | Website:  https://openfoam.org
    \\  /    A nd           | Version:  9
     \\/     M anipulation  |
\*---------------------------------------------------------------------------*/
FoamFile
{
    format      ascii;
    class       volScalarField;
    location    "0.019";
    object      mag(U);
}
// * * * * * * * * * * * * * * * * * * * * * * * * * * * * * * * * * * * * * //

dimensions      [0 1 -1 0 0 0 0];

internalField   nonuniform List<scalar> 
1000
(
5.94455
7.08438
7.87509
8.58102
9.32336
10.086
10.8464
11.6026
12.3583
13.1148
13.8717
14.6285
15.3855
16.1425
16.8997
17.657
18.4144
19.1719
19.9295
20.6872
21.4451
22.203
22.9611
23.7193
24.4775
25.2359
25.9944
26.753
27.5117
28.2706
29.0295
29.7885
30.5476
31.3069
32.0662
32.8256
33.5852
34.3448
35.1046
35.8644
36.6243
37.3844
38.1445
38.9047
39.6651
40.4255
41.186
41.9466
42.7073
43.468
44.2289
44.9899
45.7509
46.5121
47.2733
48.0346
48.796
49.5574
50.319
51.0806
51.8424
52.6042
53.366
54.128
54.89
55.6521
56.4143
57.1766
57.9389
58.7013
59.4638
60.2263
60.9889
61.7516
62.5143
63.2771
64.04
64.803
65.5659
66.329
67.0921
67.8553
68.6185
69.3818
70.1452
70.9085
71.672
72.4355
73.199
73.9626
74.7263
75.4899
76.2537
77.0174
77.7812
78.5451
79.309
80.0729
80.8368
81.6008
82.3648
83.1289
83.893
84.6571
85.4212
86.1853
86.9495
87.7137
88.4779
89.2421
90.0063
90.7705
91.5348
92.299
93.0633
93.8275
94.5918
95.3561
96.1203
96.8846
97.6488
98.413
99.1772
99.9414
100.706
101.47
102.234
102.998
103.762
104.526
105.29
106.054
106.818
107.582
108.346
109.109
109.873
110.637
111.4
112.164
112.927
113.691
114.454
115.217
115.98
116.743
117.506
118.269
119.032
119.795
120.557
121.32
122.082
122.844
123.606
124.368
125.13
125.891
126.653
127.414
128.175
128.937
129.697
130.458
131.219
131.979
132.739
133.499
134.259
135.018
135.777
136.536
137.295
138.054
138.812
139.57
140.327
141.085
141.841
142.598
143.355
144.111
144.866
145.622
146.377
147.132
147.886
148.64
149.394
150.147
150.9
151.653
152.404
153.156
153.907
154.657
155.407
156.156
156.905
157.654
158.401
159.148
159.895
160.64
161.386
162.13
162.874
163.617
164.359
165.1
165.841
166.581
167.32
168.058
168.795
169.531
170.266
171
171.733
172.465
173.196
173.926
174.654
175.381
176.107
176.832
177.555
178.276
178.997
179.715
180.433
181.148
181.862
182.574
183.284
183.993
184.699
185.404
186.106
186.806
187.505
188.201
188.894
189.585
190.274
190.96
191.644
192.325
193.003
193.679
194.351
195.02
195.687
196.35
197.01
197.667
198.32
198.97
199.617
200.259
200.899
201.534
202.166
202.793
203.417
204.037
204.652
205.264
205.871
206.475
207.073
207.668
208.258
208.844
209.426
210.003
210.576
211.144
211.708
212.268
212.823
213.374
213.92
214.462
215
215.534
216.063
216.589
217.11
217.627
218.141
218.65
219.156
219.658
220.157
220.652
221.143
221.632
222.117
222.599
223.079
223.555
224.029
224.5
224.968
225.434
225.898
226.36
226.819
227.277
227.732
228.186
228.638
229.089
229.538
229.986
230.432
230.877
231.321
231.764
232.206
232.647
233.087
233.526
233.964
234.402
234.839
235.275
235.711
236.146
236.58
237.014
237.448
237.881
238.314
238.747
239.179
239.611
240.042
240.473
240.904
241.335
241.765
242.195
242.625
243.054
243.484
243.913
244.342
244.77
245.199
245.627
246.055
246.483
246.91
247.337
247.764
248.191
248.618
249.044
249.47
249.896
250.322
250.747
251.172
251.597
252.022
252.446
252.87
253.294
253.717
254.14
254.563
254.985
255.407
255.829
256.251
256.672
257.092
257.513
257.933
258.352
258.771
259.19
259.608
260.026
260.443
260.86
261.276
261.692
262.107
262.522
262.936
263.349
263.762
264.175
264.586
264.997
265.408
265.817
266.226
266.634
267.042
267.448
267.854
268.259
268.663
269.066
269.468
269.869
270.269
270.668
271.066
271.463
271.858
272.253
272.646
273.038
273.428
273.817
274.205
274.591
274.976
275.359
275.74
276.12
276.498
276.873
277.248
277.62
277.99
278.357
278.723
279.086
279.447
279.805
280.161
280.514
280.865
281.212
281.557
281.899
282.237
282.572
282.904
283.232
283.556
283.877
284.194
284.507
284.815
285.12
285.42
285.715
286.006
286.292
286.573
286.849
287.119
287.385
287.644
287.898
288.147
288.389
288.626
288.856
289.08
289.298
289.51
289.715
289.913
290.105
290.29
290.468
290.639
290.804
290.962
291.113
291.258
291.395
291.526
291.651
291.769
291.88
291.986
292.085
292.178
292.265
292.347
292.423
292.494
292.56
292.621
292.677
292.729
292.777
292.82
292.86
292.897
292.93
292.96
292.987
293.011
293.033
293.053
293.07
293.086
293.1
293.112
293.123
293.133
293.141
293.149
293.155
293.161
293.166
293.17
293.174
293.177
293.18
293.182
293.184
293.186
293.188
293.189
293.19
293.191
293.192
293.193
293.193
293.194
293.194
293.195
293.195
293.196
293.196
293.196
293.197
293.197
293.197
293.197
293.198
293.198
293.198
293.198
293.198
293.199
293.199
293.199
293.199
293.199
293.199
293.199
293.2
293.2
293.2
293.2
293.2
293.2
293.2
293.2
293.2
293.201
293.201
293.201
293.201
293.201
293.201
293.201
293.201
293.201
293.201
293.201
293.201
293.201
293.201
293.201
293.201
293.201
293.201
293.201
293.201
293.201
293.201
293.201
293.201
293.2
293.2
293.2
293.2
293.2
293.2
293.2
293.2
293.2
293.2
293.2
293.2
293.2
293.2
293.2
293.2
293.2
293.2
293.2
293.2
293.2
293.2
293.2
293.2
293.2
293.2
293.2
293.2
293.2
293.2
293.2
293.2
293.2
293.2
293.2
293.2
293.2
293.2
293.2
293.2
293.2
293.2
293.201
293.201
293.201
293.201
293.201
293.201
293.201
293.201
293.201
293.201
293.201
293.201
293.201
293.201
293.201
293.201
293.201
293.201
293.201
293.201
293.201
293.201
293.201
293.201
293.201
293.201
293.201
293.201
293.201
293.201
293.201
293.201
293.201
293.201
293.201
293.201
293.201
293.201
293.201
293.201
293.201
293.201
293.201
293.201
293.201
293.201
293.201
293.201
293.201
293.202
293.202
293.202
293.202
293.202
293.202
293.202
293.202
293.202
293.202
293.202
293.202
293.202
293.202
293.202
293.202
293.202
293.202
293.202
293.202
293.202
293.202
293.202
293.202
293.202
293.202
293.202
293.202
293.202
293.202
293.202
293.202
293.202
293.202
293.202
293.202
293.202
293.202
293.202
293.202
293.202
293.202
293.202
293.202
293.202
293.202
293.202
293.202
293.202
293.202
293.202
293.202
293.202
293.202
293.202
293.202
293.202
293.202
293.202
293.202
293.202
293.202
293.202
293.202
293.202
293.202
293.202
293.202
293.202
293.202
293.202
293.202
293.202
293.202
293.202
293.202
293.202
293.202
293.202
293.202
293.202
293.202
293.202
293.202
293.202
293.202
293.202
293.202
293.202
293.202
293.202
293.202
293.202
293.202
293.202
293.202
293.202
293.202
293.202
293.202
293.202
293.202
293.202
293.202
293.202
293.202
293.202
293.202
293.202
293.202
293.202
293.202
293.202
293.202
293.202
293.203
293.203
293.203
293.203
293.203
293.203
293.203
293.203
293.203
293.203
293.203
293.203
293.203
293.203
293.203
293.203
293.203
293.203
293.203
293.203
293.203
293.203
293.203
293.203
293.203
293.203
293.203
293.203
293.203
293.203
293.203
293.203
293.203
293.203
293.203
293.203
293.203
293.203
293.203
293.203
293.203
293.203
293.203
293.203
293.203
293.203
293.203
293.203
293.203
293.203
293.203
293.203
293.203
293.203
293.203
293.203
293.203
293.203
293.203
293.203
293.203
293.203
293.203
293.203
293.203
293.203
293.203
293.203
293.203
293.203
293.203
293.203
293.203
293.203
293.203
293.203
293.203
293.203
293.203
293.203
293.203
293.203
293.203
293.203
293.203
293.203
293.203
293.203
293.203
293.203
293.202
293.202
293.202
293.202
293.202
293.202
293.201
293.201
293.2
293.199
293.198
293.197
293.196
293.194
293.191
293.188
293.185
293.181
293.176
293.17
293.162
293.154
293.144
293.132
293.119
293.103
293.085
293.065
293.042
293.017
292.989
292.957
292.922
292.884
292.843
292.798
292.75
292.698
292.644
292.588
292.529
292.467
292.404
292.34
292.275
292.209
292.144
292.079
292.015
291.952
291.891
291.833
291.777
291.724
291.674
291.627
291.584
291.544
291.507
291.474
291.444
291.418
291.394
291.373
291.354
291.338
291.324
291.312
291.301
291.292
291.284
291.277
291.27
291.264
291.261
291.26
291.259
291.257
291.256
291.254
291.253
291.251
291.249
291.247
291.245
291.242
291.24
291.238
291.233
291.225
291.218
291.211
291.204
291.197
291.189
291.18
291.169
291.158
291.147
291.138
291.131
291.127
291.126
291.126
291.125
291.125
291.125
291.126
291.126
291.127
291.127
291.128
291.129
291.13
291.13
291.131
291.131
291.132
)
;

boundaryField
{
    sides
    {
        type            calculated;
        value           nonuniform List<scalar> 2(291.132 5.94455);
    }
    empty
    {
        type            empty;
    }
}


// ************************************************************************* //
