/*--------------------------------*- C++ -*----------------------------------*\
  =========                 |
  \\      /  F ield         | OpenFOAM: The Open Source CFD Toolbox
   \\    /   O peration     | Website:  https://openfoam.org
    \\  /    A nd           | Version:  9
     \\/     M anipulation  |
\*---------------------------------------------------------------------------*/
FoamFile
{
    format      ascii;
    class       volScalarField;
    location    "0.019";
    object      rho;
}
// * * * * * * * * * * * * * * * * * * * * * * * * * * * * * * * * * * * * * //

dimensions      [1 -3 0 0 0 0 0];

internalField   nonuniform List<scalar> 
1000
(
0.584075
0.583852
0.583602
0.583447
0.583344
0.583256
0.583176
0.583113
0.583053
0.58299
0.582926
0.582861
0.582796
0.582731
0.582665
0.582599
0.582533
0.582466
0.582399
0.582332
0.582264
0.582196
0.582128
0.582059
0.58199
0.581921
0.581852
0.581782
0.581712
0.581641
0.58157
0.581499
0.581428
0.581356
0.581284
0.581211
0.581138
0.581065
0.580991
0.580918
0.580843
0.580769
0.580694
0.580619
0.580543
0.580467
0.580391
0.580314
0.580237
0.58016
0.580082
0.580004
0.579925
0.579847
0.579767
0.579688
0.579608
0.579528
0.579447
0.579366
0.579285
0.579203
0.579121
0.579038
0.578956
0.578872
0.578789
0.578705
0.57862
0.578536
0.57845
0.578365
0.578279
0.578193
0.578106
0.578019
0.577931
0.577844
0.577755
0.577667
0.577577
0.577488
0.577398
0.577308
0.577217
0.577126
0.577034
0.576942
0.57685
0.576757
0.576664
0.57657
0.576476
0.576381
0.576286
0.576191
0.576095
0.575999
0.575902
0.575805
0.575707
0.575609
0.57551
0.575411
0.575312
0.575212
0.575111
0.575011
0.574909
0.574807
0.574705
0.574602
0.574499
0.574395
0.574291
0.574186
0.574081
0.573975
0.573869
0.573762
0.573655
0.573547
0.573438
0.573329
0.57322
0.57311
0.573
0.572889
0.572777
0.572665
0.572552
0.572439
0.572325
0.572211
0.572096
0.57198
0.571864
0.571747
0.57163
0.571512
0.571393
0.571274
0.571154
0.571034
0.570912
0.570791
0.570668
0.570545
0.570422
0.570297
0.570172
0.570046
0.56992
0.569793
0.569665
0.569537
0.569407
0.569277
0.569146
0.569015
0.568883
0.56875
0.568616
0.568482
0.568345
0.56821
0.568071
0.567937
0.567793
0.56766
0.56751
0.567381
0.567223
0.567099
0.566936
0.56681
0.566646
0.566519
0.566351
0.566222
0.566053
0.565923
0.565751
0.565618
0.565444
0.56531
0.565133
0.564996
0.564819
0.564673
0.564508
0.564341
0.56419
0.564012
0.563855
0.563687
0.563516
0.563349
0.563176
0.563006
0.562831
0.562656
0.562481
0.562301
0.562122
0.561941
0.561758
0.561573
0.561387
0.561199
0.561009
0.560818
0.560624
0.560428
0.560231
0.560032
0.55983
0.559627
0.559421
0.559213
0.559003
0.55879
0.558575
0.558358
0.558137
0.557915
0.557689
0.557461
0.557231
0.556997
0.55676
0.55652
0.556277
0.556031
0.555781
0.555528
0.555272
0.555012
0.554748
0.554481
0.554209
0.553934
0.553654
0.55337
0.553082
0.55279
0.552492
0.552191
0.551884
0.551572
0.551256
0.550934
0.550607
0.550275
0.549937
0.549594
0.549245
0.54889
0.548529
0.548162
0.547789
0.54741
0.547025
0.546633
0.546235
0.54583
0.545418
0.545
0.544575
0.544143
0.543704
0.543259
0.542806
0.542346
0.54188
0.541406
0.540926
0.540438
0.539944
0.539443
0.538935
0.53842
0.537898
0.53737
0.536835
0.536294
0.535746
0.535193
0.534633
0.534067
0.533496
0.532918
0.532336
0.531748
0.531155
0.530556
0.529954
0.529346
0.528734
0.528118
0.527498
0.526874
0.526247
0.525616
0.524981
0.524344
0.523704
0.523061
0.522416
0.521769
0.521119
0.520467
0.519814
0.519159
0.518503
0.517845
0.517186
0.516526
0.515865
0.515203
0.514541
0.513878
0.513215
0.512551
0.511888
0.511224
0.51056
0.509896
0.509232
0.508568
0.507905
0.507242
0.506579
0.505917
0.505255
0.504593
0.503933
0.503272
0.502613
0.501954
0.501295
0.500638
0.499981
0.499325
0.498669
0.498015
0.497361
0.496708
0.496056
0.495405
0.494754
0.494105
0.493457
0.492809
0.492162
0.491517
0.490872
0.490228
0.489585
0.488944
0.488303
0.487663
0.487024
0.486386
0.48575
0.485114
0.484479
0.483846
0.483213
0.482582
0.481952
0.481322
0.480694
0.480067
0.479442
0.478817
0.478193
0.477571
0.47695
0.47633
0.475711
0.475094
0.474478
0.473863
0.473249
0.472637
0.472026
0.471416
0.470807
0.4702
0.469595
0.468991
0.468388
0.467787
0.467187
0.466588
0.465992
0.465396
0.464803
0.464211
0.46362
0.463032
0.462445
0.461859
0.461276
0.460694
0.460115
0.459537
0.458961
0.458387
0.457815
0.457245
0.456677
0.456111
0.455548
0.454987
0.454428
0.453871
0.453317
0.452765
0.452216
0.45167
0.451126
0.450585
0.450047
0.449512
0.44898
0.448451
0.447925
0.447402
0.446883
0.446367
0.445855
0.445346
0.444841
0.44434
0.443843
0.44335
0.442862
0.442377
0.441897
0.441422
0.440952
0.440486
0.440026
0.439571
0.439121
0.438676
0.438237
0.437804
0.437377
0.436957
0.436542
0.436134
0.435733
0.435338
0.434951
0.434571
0.434198
0.433832
0.433475
0.433125
0.432783
0.43245
0.432124
0.431807
0.431499
0.4312
0.430909
0.430628
0.430355
0.430092
0.429837
0.429592
0.429357
0.42913
0.428913
0.428705
0.428507
0.428317
0.428137
0.427965
0.427803
0.427649
0.427504
0.427367
0.427238
0.427118
0.427005
0.426899
0.426801
0.42671
0.426625
0.426547
0.426475
0.426409
0.426348
0.426292
0.426242
0.426195
0.426154
0.426116
0.426081
0.426051
0.426023
0.425998
0.425976
0.425956
0.425939
0.425923
0.425909
0.425897
0.425887
0.425877
0.425869
0.425862
0.425856
0.42585
0.425845
0.425841
0.425838
0.425834
0.425832
0.425829
0.425827
0.425825
0.425824
0.425822
0.425821
0.42582
0.425818
0.425818
0.425817
0.425816
0.425815
0.425814
0.425814
0.425813
0.425812
0.425812
0.425811
0.425811
0.42581
0.425809
0.425809
0.425808
0.425808
0.425807
0.425807
0.425806
0.425806
0.425805
0.425805
0.425805
0.425804
0.425804
0.425803
0.425803
0.425802
0.425802
0.425802
0.425801
0.425801
0.4258
0.4258
0.4258
0.425799
0.425799
0.425799
0.425798
0.425798
0.425798
0.425797
0.425797
0.425797
0.425797
0.425796
0.425796
0.425796
0.425795
0.425795
0.425795
0.425795
0.425794
0.425794
0.425794
0.425794
0.425793
0.425793
0.425793
0.425793
0.425792
0.425792
0.425792
0.425792
0.425791
0.425791
0.425791
0.42579
0.42579
0.42579
0.42579
0.425789
0.425789
0.425789
0.425788
0.425788
0.425788
0.425787
0.425787
0.425786
0.425786
0.425786
0.425785
0.425785
0.425785
0.425784
0.425784
0.425783
0.425783
0.425783
0.425782
0.425782
0.425781
0.425781
0.425781
0.42578
0.42578
0.425779
0.425779
0.425779
0.425778
0.425778
0.425777
0.425777
0.425777
0.425776
0.425776
0.425775
0.425775
0.425774
0.425774
0.425774
0.425773
0.425773
0.425772
0.425772
0.425771
0.425771
0.42577
0.42577
0.42577
0.425769
0.425769
0.425768
0.425768
0.425767
0.425767
0.425766
0.425766
0.425766
0.425765
0.425765
0.425764
0.425764
0.425763
0.425763
0.425762
0.425762
0.425761
0.425761
0.42576
0.42576
0.425759
0.425759
0.425758
0.425758
0.425757
0.425757
0.425756
0.425756
0.425755
0.425755
0.425754
0.425754
0.425753
0.425753
0.425752
0.425752
0.425751
0.425751
0.42575
0.42575
0.425749
0.425749
0.425748
0.425748
0.425747
0.425747
0.425746
0.425745
0.425745
0.425744
0.425744
0.425743
0.425743
0.425742
0.425742
0.425741
0.42574
0.42574
0.425739
0.425739
0.425738
0.425737
0.425737
0.425736
0.425736
0.425735
0.425734
0.425734
0.425733
0.425733
0.425732
0.425731
0.425731
0.42573
0.42573
0.425729
0.425728
0.425728
0.425727
0.425726
0.425726
0.425725
0.425724
0.425724
0.425723
0.425722
0.425722
0.425721
0.42572
0.42572
0.425719
0.425718
0.425717
0.425717
0.425716
0.425715
0.425715
0.425714
0.425713
0.425712
0.425712
0.425711
0.42571
0.425709
0.425709
0.425708
0.425707
0.425706
0.425706
0.425705
0.425704
0.425703
0.425702
0.425702
0.425701
0.4257
0.425699
0.425698
0.425697
0.425697
0.425696
0.425695
0.425694
0.425693
0.425692
0.425692
0.425691
0.42569
0.425689
0.425688
0.425687
0.425686
0.425685
0.425684
0.425683
0.425683
0.425682
0.425681
0.42568
0.425679
0.425678
0.425677
0.425676
0.425675
0.425674
0.425673
0.425672
0.425671
0.42567
0.425669
0.425668
0.425667
0.425665
0.425664
0.425663
0.425662
0.425661
0.42566
0.425659
0.425658
0.425657
0.425656
0.425654
0.425653
0.425652
0.425651
0.42565
0.425649
0.425647
0.425646
0.425645
0.425644
0.425642
0.425641
0.42564
0.425639
0.425637
0.425636
0.425635
0.425633
0.425632
0.425631
0.425629
0.425628
0.425627
0.425625
0.425624
0.425622
0.425621
0.42562
0.425618
0.425617
0.425615
0.425614
0.425612
0.425611
0.425609
0.425608
0.425606
0.425604
0.425603
0.425601
0.425599
0.425598
0.425596
0.425594
0.425593
0.425591
0.425589
0.425588
0.425586
0.425584
0.425582
0.425581
0.425578
0.425577
0.425575
0.425573
0.425571
0.425569
0.425567
0.425565
0.425563
0.425561
0.425559
0.425557
0.425555
0.425553
0.425551
0.425549
0.425546
0.425545
0.425542
0.425541
0.425538
0.425537
0.425535
0.425534
0.425531
0.425532
0.425529
0.42553
0.425528
0.425531
0.425529
0.425534
0.425533
0.425541
0.425541
0.425553
0.425555
0.425572
0.425577
0.425599
0.425607
0.425638
0.425649
0.425688
0.425704
0.425754
0.425774
0.425835
0.425863
0.425932
0.425972
0.426047
0.426097
0.426179
0.426237
0.426325
0.42639
0.426484
0.426553
0.42665
0.426721
0.426819
0.426889
0.426986
0.427052
0.427147
0.427205
0.427296
0.427344
0.42743
0.427467
0.427545
0.427573
0.427641
0.427661
0.427718
0.427732
0.427777
0.427785
0.42782
0.427825
0.427851
0.427851
0.427871
0.427868
0.427883
0.427877
0.427889
0.427882
0.427892
0.42788
0.427883
0.42787
0.427873
0.42786
0.427863
0.42785
0.427853
0.42784
0.427843
0.427829
0.427833
0.427819
0.427819
0.42781
0.427821
0.42781
0.427821
0.42781
0.42782
0.42781
0.427826
0.427815
0.427834
0.427819
0.427832
0.427814
0.427816
0.427789
0.427789
0.427761
0.427759
0.427729
0.427727
0.427695
0.427692
0.427658
0.427655
0.427619
0.427616
0.427578
0.427575
0.427531
)
;

boundaryField
{
    sides
    {
        type            calculated;
        value           nonuniform List<scalar> 2(0.427531 0.584075);
    }
    empty
    {
        type            empty;
    }
}


// ************************************************************************* //
