/*--------------------------------*- C++ -*----------------------------------*\
  =========                 |
  \\      /  F ield         | OpenFOAM: The Open Source CFD Toolbox
   \\    /   O peration     | Website:  https://openfoam.org
    \\  /    A nd           | Version:  9
     \\/     M anipulation  |
\*---------------------------------------------------------------------------*/
FoamFile
{
    format      ascii;
    class       volVectorField;
    location    "0.019";
    object      U;
}
// * * * * * * * * * * * * * * * * * * * * * * * * * * * * * * * * * * * * * //

dimensions      [0 1 -1 0 0 0 0];

internalField   nonuniform List<vector> 
1000
(
(5.94455 0 0)
(7.08438 0 0)
(7.87509 0 0)
(8.58102 0 0)
(9.32336 0 0)
(10.086 0 0)
(10.8464 0 0)
(11.6026 0 0)
(12.3583 0 0)
(13.1148 0 0)
(13.8717 0 0)
(14.6285 0 0)
(15.3855 0 0)
(16.1425 0 0)
(16.8997 0 0)
(17.657 0 0)
(18.4144 0 0)
(19.1719 0 0)
(19.9295 0 0)
(20.6872 0 0)
(21.4451 0 0)
(22.203 0 0)
(22.9611 0 0)
(23.7193 0 0)
(24.4775 0 0)
(25.2359 0 0)
(25.9944 0 0)
(26.753 0 0)
(27.5117 0 0)
(28.2706 0 0)
(29.0295 0 0)
(29.7885 0 0)
(30.5476 0 0)
(31.3069 0 0)
(32.0662 0 0)
(32.8256 0 0)
(33.5852 0 0)
(34.3448 0 0)
(35.1046 0 0)
(35.8644 0 0)
(36.6243 0 0)
(37.3844 0 0)
(38.1445 0 0)
(38.9047 0 0)
(39.6651 0 0)
(40.4255 0 0)
(41.186 0 0)
(41.9466 0 0)
(42.7073 0 0)
(43.468 0 0)
(44.2289 0 0)
(44.9899 0 0)
(45.7509 0 0)
(46.5121 0 0)
(47.2733 0 0)
(48.0346 0 0)
(48.796 0 0)
(49.5574 0 0)
(50.319 0 0)
(51.0806 0 0)
(51.8424 0 0)
(52.6042 0 0)
(53.366 0 0)
(54.128 0 0)
(54.89 0 0)
(55.6521 0 0)
(56.4143 0 0)
(57.1766 0 0)
(57.9389 0 0)
(58.7013 0 0)
(59.4638 0 0)
(60.2263 0 0)
(60.9889 0 0)
(61.7516 0 0)
(62.5143 0 0)
(63.2771 0 0)
(64.04 0 0)
(64.803 0 0)
(65.5659 0 0)
(66.329 0 0)
(67.0921 0 0)
(67.8553 0 0)
(68.6185 0 0)
(69.3818 0 0)
(70.1452 0 0)
(70.9085 0 0)
(71.672 0 0)
(72.4355 0 0)
(73.199 0 0)
(73.9626 0 0)
(74.7263 0 0)
(75.4899 0 0)
(76.2537 0 0)
(77.0174 0 0)
(77.7812 0 0)
(78.5451 0 0)
(79.309 0 0)
(80.0729 0 0)
(80.8368 0 0)
(81.6008 0 0)
(82.3648 0 0)
(83.1289 0 0)
(83.893 0 0)
(84.6571 0 0)
(85.4212 0 0)
(86.1853 0 0)
(86.9495 0 0)
(87.7137 0 0)
(88.4779 0 0)
(89.2421 0 0)
(90.0063 0 0)
(90.7705 0 0)
(91.5348 0 0)
(92.299 0 0)
(93.0633 0 0)
(93.8275 0 0)
(94.5918 0 0)
(95.3561 0 0)
(96.1203 0 0)
(96.8846 0 0)
(97.6488 0 0)
(98.413 0 0)
(99.1772 0 0)
(99.9414 0 0)
(100.706 0 0)
(101.47 0 0)
(102.234 0 0)
(102.998 0 0)
(103.762 0 0)
(104.526 0 0)
(105.29 0 0)
(106.054 0 0)
(106.818 0 0)
(107.582 0 0)
(108.346 0 0)
(109.109 0 0)
(109.873 0 0)
(110.637 0 0)
(111.4 0 0)
(112.164 0 0)
(112.927 0 0)
(113.691 0 0)
(114.454 0 0)
(115.217 0 0)
(115.98 0 0)
(116.743 0 0)
(117.506 0 0)
(118.269 0 0)
(119.032 0 0)
(119.795 0 0)
(120.557 0 0)
(121.32 0 0)
(122.082 0 0)
(122.844 0 0)
(123.606 0 0)
(124.368 0 0)
(125.13 0 0)
(125.891 0 0)
(126.653 0 0)
(127.414 0 0)
(128.175 0 0)
(128.937 0 0)
(129.697 0 0)
(130.458 0 0)
(131.219 0 0)
(131.979 0 0)
(132.739 0 0)
(133.499 0 0)
(134.259 0 0)
(135.018 0 0)
(135.777 0 0)
(136.536 0 0)
(137.295 0 0)
(138.054 0 0)
(138.812 0 0)
(139.57 0 0)
(140.327 0 0)
(141.085 0 0)
(141.841 0 0)
(142.598 0 0)
(143.355 0 0)
(144.111 0 0)
(144.866 0 0)
(145.622 0 0)
(146.377 0 0)
(147.132 0 0)
(147.886 0 0)
(148.64 0 0)
(149.394 0 0)
(150.147 0 0)
(150.9 0 0)
(151.653 0 0)
(152.404 0 0)
(153.156 0 0)
(153.907 0 0)
(154.657 0 0)
(155.407 0 0)
(156.156 0 0)
(156.905 0 0)
(157.654 0 0)
(158.401 0 0)
(159.148 0 0)
(159.895 0 0)
(160.64 0 0)
(161.386 0 0)
(162.13 0 0)
(162.874 0 0)
(163.617 0 0)
(164.359 0 0)
(165.1 0 0)
(165.841 0 0)
(166.581 0 0)
(167.32 0 0)
(168.058 0 0)
(168.795 0 0)
(169.531 0 0)
(170.266 0 0)
(171 0 0)
(171.733 0 0)
(172.465 0 0)
(173.196 0 0)
(173.926 0 0)
(174.654 0 0)
(175.381 0 0)
(176.107 0 0)
(176.832 0 0)
(177.555 0 0)
(178.276 0 0)
(178.997 0 0)
(179.715 0 0)
(180.433 0 0)
(181.148 0 0)
(181.862 0 0)
(182.574 0 0)
(183.284 0 0)
(183.993 0 0)
(184.699 0 0)
(185.404 0 0)
(186.106 0 0)
(186.806 0 0)
(187.505 0 0)
(188.201 0 0)
(188.894 0 0)
(189.585 0 0)
(190.274 0 0)
(190.96 0 0)
(191.644 0 0)
(192.325 0 0)
(193.003 0 0)
(193.679 0 0)
(194.351 0 0)
(195.02 0 0)
(195.687 0 0)
(196.35 0 0)
(197.01 0 0)
(197.667 0 0)
(198.32 0 0)
(198.97 0 0)
(199.617 0 0)
(200.259 0 0)
(200.899 0 0)
(201.534 0 0)
(202.166 0 0)
(202.793 0 0)
(203.417 0 0)
(204.037 0 0)
(204.652 0 0)
(205.264 0 0)
(205.871 0 0)
(206.475 0 0)
(207.073 0 0)
(207.668 0 0)
(208.258 0 0)
(208.844 0 0)
(209.426 0 0)
(210.003 0 0)
(210.576 0 0)
(211.144 0 0)
(211.708 0 0)
(212.268 0 0)
(212.823 0 0)
(213.374 0 0)
(213.92 0 0)
(214.462 0 0)
(215 0 0)
(215.534 0 0)
(216.063 0 0)
(216.589 0 0)
(217.11 0 0)
(217.627 0 0)
(218.141 0 0)
(218.65 0 0)
(219.156 0 0)
(219.658 0 0)
(220.157 0 0)
(220.652 0 0)
(221.143 0 0)
(221.632 0 0)
(222.117 0 0)
(222.599 0 0)
(223.079 0 0)
(223.555 0 0)
(224.029 0 0)
(224.5 0 0)
(224.968 0 0)
(225.434 0 0)
(225.898 0 0)
(226.36 0 0)
(226.819 0 0)
(227.277 0 0)
(227.732 0 0)
(228.186 0 0)
(228.638 0 0)
(229.089 0 0)
(229.538 0 0)
(229.986 0 0)
(230.432 0 0)
(230.877 0 0)
(231.321 0 0)
(231.764 0 0)
(232.206 0 0)
(232.647 0 0)
(233.087 0 0)
(233.526 0 0)
(233.964 0 0)
(234.402 0 0)
(234.839 0 0)
(235.275 0 0)
(235.711 0 0)
(236.146 0 0)
(236.58 0 0)
(237.014 0 0)
(237.448 0 0)
(237.881 0 0)
(238.314 0 0)
(238.747 0 0)
(239.179 0 0)
(239.611 0 0)
(240.042 0 0)
(240.473 0 0)
(240.904 0 0)
(241.335 0 0)
(241.765 0 0)
(242.195 0 0)
(242.625 0 0)
(243.054 0 0)
(243.484 0 0)
(243.913 0 0)
(244.342 0 0)
(244.77 0 0)
(245.199 0 0)
(245.627 0 0)
(246.055 0 0)
(246.483 0 0)
(246.91 0 0)
(247.337 0 0)
(247.764 0 0)
(248.191 0 0)
(248.618 0 0)
(249.044 0 0)
(249.47 0 0)
(249.896 0 0)
(250.322 0 0)
(250.747 0 0)
(251.172 0 0)
(251.597 0 0)
(252.022 0 0)
(252.446 0 0)
(252.87 0 0)
(253.294 0 0)
(253.717 0 0)
(254.14 0 0)
(254.563 0 0)
(254.985 0 0)
(255.407 0 0)
(255.829 0 0)
(256.251 0 0)
(256.672 0 0)
(257.092 0 0)
(257.513 0 0)
(257.933 0 0)
(258.352 0 0)
(258.771 0 0)
(259.19 0 0)
(259.608 0 0)
(260.026 0 0)
(260.443 0 0)
(260.86 0 0)
(261.276 0 0)
(261.692 0 0)
(262.107 0 0)
(262.522 0 0)
(262.936 0 0)
(263.349 0 0)
(263.762 0 0)
(264.175 0 0)
(264.586 0 0)
(264.997 0 0)
(265.408 0 0)
(265.817 0 0)
(266.226 0 0)
(266.634 0 0)
(267.042 0 0)
(267.448 0 0)
(267.854 0 0)
(268.259 0 0)
(268.663 0 0)
(269.066 0 0)
(269.468 0 0)
(269.869 0 0)
(270.269 0 0)
(270.668 0 0)
(271.066 0 0)
(271.463 0 0)
(271.858 0 0)
(272.253 0 0)
(272.646 0 0)
(273.038 0 0)
(273.428 0 0)
(273.817 0 0)
(274.205 0 0)
(274.591 0 0)
(274.976 0 0)
(275.359 0 0)
(275.74 0 0)
(276.12 0 0)
(276.498 0 0)
(276.873 0 0)
(277.248 0 0)
(277.62 0 0)
(277.99 0 0)
(278.357 0 0)
(278.723 0 0)
(279.086 0 0)
(279.447 0 0)
(279.805 0 0)
(280.161 0 0)
(280.514 0 0)
(280.865 0 0)
(281.212 0 0)
(281.557 0 0)
(281.899 0 0)
(282.237 0 0)
(282.572 0 0)
(282.904 0 0)
(283.232 0 0)
(283.556 0 0)
(283.877 0 0)
(284.194 0 0)
(284.507 0 0)
(284.815 0 0)
(285.12 0 0)
(285.42 0 0)
(285.715 0 0)
(286.006 0 0)
(286.292 0 0)
(286.573 0 0)
(286.849 0 0)
(287.119 0 0)
(287.385 0 0)
(287.644 0 0)
(287.898 0 0)
(288.147 0 0)
(288.389 0 0)
(288.626 0 0)
(288.856 0 0)
(289.08 0 0)
(289.298 0 0)
(289.51 0 0)
(289.715 0 0)
(289.913 0 0)
(290.105 0 0)
(290.29 0 0)
(290.468 0 0)
(290.639 0 0)
(290.804 0 0)
(290.962 0 0)
(291.113 0 0)
(291.258 0 0)
(291.395 0 0)
(291.526 0 0)
(291.651 0 0)
(291.769 0 0)
(291.88 0 0)
(291.986 0 0)
(292.085 0 0)
(292.178 0 0)
(292.265 0 0)
(292.347 0 0)
(292.423 0 0)
(292.494 0 0)
(292.56 0 0)
(292.621 0 0)
(292.677 0 0)
(292.729 0 0)
(292.777 0 0)
(292.82 0 0)
(292.86 0 0)
(292.897 0 0)
(292.93 0 0)
(292.96 0 0)
(292.987 0 0)
(293.011 0 0)
(293.033 0 0)
(293.053 0 0)
(293.07 0 0)
(293.086 0 0)
(293.1 0 0)
(293.112 0 0)
(293.123 0 0)
(293.133 0 0)
(293.141 0 0)
(293.149 0 0)
(293.155 0 0)
(293.161 0 0)
(293.166 0 0)
(293.17 0 0)
(293.174 0 0)
(293.177 0 0)
(293.18 0 0)
(293.182 0 0)
(293.184 0 0)
(293.186 0 0)
(293.188 0 0)
(293.189 0 0)
(293.19 0 0)
(293.191 0 0)
(293.192 0 0)
(293.193 0 0)
(293.193 0 0)
(293.194 0 0)
(293.194 0 0)
(293.195 0 0)
(293.195 0 0)
(293.196 0 0)
(293.196 0 0)
(293.196 0 0)
(293.197 0 0)
(293.197 0 0)
(293.197 0 0)
(293.197 0 0)
(293.198 0 0)
(293.198 0 0)
(293.198 0 0)
(293.198 0 0)
(293.198 0 0)
(293.199 0 0)
(293.199 0 0)
(293.199 0 0)
(293.199 0 0)
(293.199 0 0)
(293.199 0 0)
(293.199 0 0)
(293.2 0 0)
(293.2 0 0)
(293.2 0 0)
(293.2 0 0)
(293.2 0 0)
(293.2 0 0)
(293.2 0 0)
(293.2 0 0)
(293.2 0 0)
(293.201 0 0)
(293.201 0 0)
(293.201 0 0)
(293.201 0 0)
(293.201 0 0)
(293.201 0 0)
(293.201 0 0)
(293.201 0 0)
(293.201 0 0)
(293.201 0 0)
(293.201 0 0)
(293.201 0 0)
(293.201 0 0)
(293.201 0 0)
(293.201 0 0)
(293.201 0 0)
(293.201 0 0)
(293.201 0 0)
(293.201 0 0)
(293.201 0 0)
(293.201 0 0)
(293.201 0 0)
(293.201 0 0)
(293.201 0 0)
(293.2 0 0)
(293.2 0 0)
(293.2 0 0)
(293.2 0 0)
(293.2 0 0)
(293.2 0 0)
(293.2 0 0)
(293.2 0 0)
(293.2 0 0)
(293.2 0 0)
(293.2 0 0)
(293.2 0 0)
(293.2 0 0)
(293.2 0 0)
(293.2 0 0)
(293.2 0 0)
(293.2 0 0)
(293.2 0 0)
(293.2 0 0)
(293.2 0 0)
(293.2 0 0)
(293.2 0 0)
(293.2 0 0)
(293.2 0 0)
(293.2 0 0)
(293.2 0 0)
(293.2 0 0)
(293.2 0 0)
(293.2 0 0)
(293.2 0 0)
(293.2 0 0)
(293.2 0 0)
(293.2 0 0)
(293.2 0 0)
(293.2 0 0)
(293.2 0 0)
(293.2 0 0)
(293.2 0 0)
(293.2 0 0)
(293.2 0 0)
(293.2 0 0)
(293.2 0 0)
(293.201 0 0)
(293.201 0 0)
(293.201 0 0)
(293.201 0 0)
(293.201 0 0)
(293.201 0 0)
(293.201 0 0)
(293.201 0 0)
(293.201 0 0)
(293.201 0 0)
(293.201 0 0)
(293.201 0 0)
(293.201 0 0)
(293.201 0 0)
(293.201 0 0)
(293.201 0 0)
(293.201 0 0)
(293.201 0 0)
(293.201 0 0)
(293.201 0 0)
(293.201 0 0)
(293.201 0 0)
(293.201 0 0)
(293.201 0 0)
(293.201 0 0)
(293.201 0 0)
(293.201 0 0)
(293.201 0 0)
(293.201 0 0)
(293.201 0 0)
(293.201 0 0)
(293.201 0 0)
(293.201 0 0)
(293.201 0 0)
(293.201 0 0)
(293.201 0 0)
(293.201 0 0)
(293.201 0 0)
(293.201 0 0)
(293.201 0 0)
(293.201 0 0)
(293.201 0 0)
(293.201 0 0)
(293.201 0 0)
(293.201 0 0)
(293.201 0 0)
(293.201 0 0)
(293.201 0 0)
(293.201 0 0)
(293.202 0 0)
(293.202 0 0)
(293.202 0 0)
(293.202 0 0)
(293.202 0 0)
(293.202 0 0)
(293.202 0 0)
(293.202 0 0)
(293.202 0 0)
(293.202 0 0)
(293.202 0 0)
(293.202 0 0)
(293.202 0 0)
(293.202 0 0)
(293.202 0 0)
(293.202 0 0)
(293.202 0 0)
(293.202 0 0)
(293.202 0 0)
(293.202 0 0)
(293.202 0 0)
(293.202 0 0)
(293.202 0 0)
(293.202 0 0)
(293.202 0 0)
(293.202 0 0)
(293.202 0 0)
(293.202 0 0)
(293.202 0 0)
(293.202 0 0)
(293.202 0 0)
(293.202 0 0)
(293.202 0 0)
(293.202 0 0)
(293.202 0 0)
(293.202 0 0)
(293.202 0 0)
(293.202 0 0)
(293.202 0 0)
(293.202 0 0)
(293.202 0 0)
(293.202 0 0)
(293.202 0 0)
(293.202 0 0)
(293.202 0 0)
(293.202 0 0)
(293.202 0 0)
(293.202 0 0)
(293.202 0 0)
(293.202 0 0)
(293.202 0 0)
(293.202 0 0)
(293.202 0 0)
(293.202 0 0)
(293.202 0 0)
(293.202 0 0)
(293.202 0 0)
(293.202 0 0)
(293.202 0 0)
(293.202 0 0)
(293.202 0 0)
(293.202 0 0)
(293.202 0 0)
(293.202 0 0)
(293.202 0 0)
(293.202 0 0)
(293.202 0 0)
(293.202 0 0)
(293.202 0 0)
(293.202 0 0)
(293.202 0 0)
(293.202 0 0)
(293.202 0 0)
(293.202 0 0)
(293.202 0 0)
(293.202 0 0)
(293.202 0 0)
(293.202 0 0)
(293.202 0 0)
(293.202 0 0)
(293.202 0 0)
(293.202 0 0)
(293.202 0 0)
(293.202 0 0)
(293.202 0 0)
(293.202 0 0)
(293.202 0 0)
(293.202 0 0)
(293.202 0 0)
(293.202 0 0)
(293.202 0 0)
(293.202 0 0)
(293.202 0 0)
(293.202 0 0)
(293.202 0 0)
(293.202 0 0)
(293.202 0 0)
(293.202 0 0)
(293.202 0 0)
(293.202 0 0)
(293.202 0 0)
(293.202 0 0)
(293.202 0 0)
(293.202 0 0)
(293.202 0 0)
(293.202 0 0)
(293.202 0 0)
(293.202 0 0)
(293.202 0 0)
(293.202 0 0)
(293.202 0 0)
(293.202 0 0)
(293.202 0 0)
(293.202 0 0)
(293.202 0 0)
(293.203 0 0)
(293.203 0 0)
(293.203 0 0)
(293.203 0 0)
(293.203 0 0)
(293.203 0 0)
(293.203 0 0)
(293.203 0 0)
(293.203 0 0)
(293.203 0 0)
(293.203 0 0)
(293.203 0 0)
(293.203 0 0)
(293.203 0 0)
(293.203 0 0)
(293.203 0 0)
(293.203 0 0)
(293.203 0 0)
(293.203 0 0)
(293.203 0 0)
(293.203 0 0)
(293.203 0 0)
(293.203 0 0)
(293.203 0 0)
(293.203 0 0)
(293.203 0 0)
(293.203 0 0)
(293.203 0 0)
(293.203 0 0)
(293.203 0 0)
(293.203 0 0)
(293.203 0 0)
(293.203 0 0)
(293.203 0 0)
(293.203 0 0)
(293.203 0 0)
(293.203 0 0)
(293.203 0 0)
(293.203 0 0)
(293.203 0 0)
(293.203 0 0)
(293.203 0 0)
(293.203 0 0)
(293.203 0 0)
(293.203 0 0)
(293.203 0 0)
(293.203 0 0)
(293.203 0 0)
(293.203 0 0)
(293.203 0 0)
(293.203 0 0)
(293.203 0 0)
(293.203 0 0)
(293.203 0 0)
(293.203 0 0)
(293.203 0 0)
(293.203 0 0)
(293.203 0 0)
(293.203 0 0)
(293.203 0 0)
(293.203 0 0)
(293.203 0 0)
(293.203 0 0)
(293.203 0 0)
(293.203 0 0)
(293.203 0 0)
(293.203 0 0)
(293.203 0 0)
(293.203 0 0)
(293.203 0 0)
(293.203 0 0)
(293.203 0 0)
(293.203 0 0)
(293.203 0 0)
(293.203 0 0)
(293.203 0 0)
(293.203 0 0)
(293.203 0 0)
(293.203 0 0)
(293.203 0 0)
(293.203 0 0)
(293.203 0 0)
(293.203 0 0)
(293.203 0 0)
(293.203 0 0)
(293.203 0 0)
(293.203 0 0)
(293.203 0 0)
(293.203 0 0)
(293.203 0 0)
(293.202 0 0)
(293.202 0 0)
(293.202 0 0)
(293.202 0 0)
(293.202 0 0)
(293.202 0 0)
(293.201 0 0)
(293.201 0 0)
(293.2 0 0)
(293.199 0 0)
(293.198 0 0)
(293.197 0 0)
(293.196 0 0)
(293.194 0 0)
(293.191 0 0)
(293.188 0 0)
(293.185 0 0)
(293.181 0 0)
(293.176 0 0)
(293.17 0 0)
(293.162 0 0)
(293.154 0 0)
(293.144 0 0)
(293.132 0 0)
(293.119 0 0)
(293.103 0 0)
(293.085 0 0)
(293.065 0 0)
(293.042 0 0)
(293.017 0 0)
(292.989 0 0)
(292.957 0 0)
(292.922 0 0)
(292.884 0 0)
(292.843 0 0)
(292.798 0 0)
(292.75 0 0)
(292.698 0 0)
(292.644 0 0)
(292.588 0 0)
(292.529 0 0)
(292.467 0 0)
(292.404 0 0)
(292.34 0 0)
(292.275 0 0)
(292.209 0 0)
(292.144 0 0)
(292.079 0 0)
(292.015 0 0)
(291.952 0 0)
(291.891 0 0)
(291.833 0 0)
(291.777 0 0)
(291.724 0 0)
(291.674 0 0)
(291.627 0 0)
(291.584 0 0)
(291.544 0 0)
(291.507 0 0)
(291.474 0 0)
(291.444 0 0)
(291.418 0 0)
(291.394 0 0)
(291.373 0 0)
(291.354 0 0)
(291.338 0 0)
(291.324 0 0)
(291.312 0 0)
(291.301 0 0)
(291.292 0 0)
(291.284 0 0)
(291.277 0 0)
(291.27 0 0)
(291.264 0 0)
(291.261 0 0)
(291.26 0 0)
(291.259 0 0)
(291.257 0 0)
(291.256 0 0)
(291.254 0 0)
(291.253 0 0)
(291.251 0 0)
(291.249 0 0)
(291.247 0 0)
(291.245 0 0)
(291.242 0 0)
(291.24 0 0)
(291.238 0 0)
(291.233 0 0)
(291.225 0 0)
(291.218 0 0)
(291.211 0 0)
(291.204 0 0)
(291.197 0 0)
(291.189 0 0)
(291.18 0 0)
(291.169 0 0)
(291.158 0 0)
(291.147 0 0)
(291.138 0 0)
(291.131 0 0)
(291.127 0 0)
(291.126 0 0)
(291.126 0 0)
(291.125 0 0)
(291.125 0 0)
(291.125 0 0)
(291.126 0 0)
(291.126 0 0)
(291.127 0 0)
(291.127 0 0)
(291.128 0 0)
(291.129 0 0)
(291.13 0 0)
(291.13 0 0)
(291.131 0 0)
(291.131 0 0)
(291.132 0 0)
)
;

boundaryField
{
    sides
    {
        type            zeroGradient;
    }
    empty
    {
        type            empty;
    }
}


// ************************************************************************* //
