/*--------------------------------*- C++ -*----------------------------------*\
  =========                 |
  \\      /  F ield         | OpenFOAM: The Open Source CFD Toolbox
   \\    /   O peration     | Website:  https://openfoam.org
    \\  /    A nd           | Version:  9
     \\/     M anipulation  |
\*---------------------------------------------------------------------------*/
FoamFile
{
    format      ascii;
    class       volScalarField;
    location    "0.047";
    object      ddt0(rho,K);
}
// * * * * * * * * * * * * * * * * * * * * * * * * * * * * * * * * * * * * * //

dimensions      [1 -1 -3 0 0 0 0];

internalField   nonuniform List<scalar> 
100
(
-2648.04
-4103.91
-6177.09
-7902.84
-9584.84
-11376.1
-13222.7
-15193
-17260.2
-19335.9
-21391.5
-23556.7
-25787.5
-28072
-30419.1
-32810.4
-35297.6
-37937.9
-40632.1
-42943.8
-44999
-47375.2
-49967.6
-53636.1
-56356
-63167.9
-70453.6
-73680.8
-75342.7
-78576.8
-78394.2
-79113.8
-82085.4
-85654.3
-88495.8
-90730.9
-94077.4
-97774.9
-100536
-103689
-107881
-112005
-115458
-118631
-122106
-125977
-129836
-133488
-137104
-140746
-144350
-147935
-151529
-155013
-158203
-161128
-164111
-167475
-171181
-174891
-178312
-181413
-184376
-187435
-190692
-194156
-197581
-200955
-204427
-208081
-211864
-215735
-219415
-222718
-225658
-228807
-232425
-236761
-241540
-246028
-249344
-251399
-252648
-253983
-256885
-261862
-268092
-274982
-282008
-288370
-294757
-302334
-311066
-320971
-329958
-338177
-345244
-350641
-354656
-361697
)
;

boundaryField
{
    sides
    {
        type            calculated;
        value           nonuniform List<scalar> 2(-361697 -2648.04);
    }
    empty
    {
        type            empty;
    }
}


// ************************************************************************* //
