/*--------------------------------*- C++ -*----------------------------------*\
  =========                 |
  \\      /  F ield         | OpenFOAM: The Open Source CFD Toolbox
   \\    /   O peration     | Website:  https://openfoam.org
    \\  /    A nd           | Version:  9
     \\/     M anipulation  |
\*---------------------------------------------------------------------------*/
FoamFile
{
    format      ascii;
    class       volScalarField;
    location    "0.047";
    object      ddt0(rho);
}
// * * * * * * * * * * * * * * * * * * * * * * * * * * * * * * * * * * * * * //

dimensions      [1 -3 -1 0 0 0 0];

internalField   nonuniform List<scalar> 
100
(
-4.30412
-4.29132
-4.25487
-4.21754
-4.19365
-4.17141
-4.13546
-4.09865
-4.07503
-4.06844
-4.03709
-4.00637
-3.9733
-3.94204
-3.91339
-3.87509
-3.83659
-3.80564
-3.774
-3.75443
-3.74531
-3.75465
-3.74332
-3.81526
-3.59907
-3.80692
-3.45796
-3.29298
-3.34325
-3.48379
-3.45668
-3.47322
-3.51104
-3.54424
-3.56499
-3.5541
-3.57453
-3.59064
-3.54625
-3.50137
-3.48823
-3.47523
-3.45314
-3.4429
-3.44724
-3.44209
-3.41019
-3.37057
-3.35669
-3.37393
-3.40365
-3.42562
-3.42983
-3.42103
-3.41385
-3.42149
-3.44994
-3.49818
-3.55082
-3.58472
-3.59065
-3.58374
-3.58972
-3.62493
-3.68071
-3.74509
-3.7846
-3.7933
-3.79344
-3.81271
-3.85773
-3.93525
-4.02056
-4.08374
-4.09354
-4.08579
-4.08533
-4.13943
-4.26172
-4.43139
-4.57281
-4.65682
-4.68282
-4.68255
-4.74433
-4.92947
-5.16016
-5.40822
-5.55279
-5.52663
-5.42959
-5.29584
-5.13988
-5.09049
-5.04275
-5.03183
-4.99345
-4.96728
-4.98678
-4.98426
)
;

boundaryField
{
    sides
    {
        type            calculated;
        value           nonuniform List<scalar> 2(-4.98426 -4.30412);
    }
    empty
    {
        type            empty;
    }
}


// ************************************************************************* //
