/*--------------------------------*- C++ -*----------------------------------*\
  =========                 |
  \\      /  F ield         | OpenFOAM: The Open Source CFD Toolbox
   \\    /   O peration     | Website:  https://openfoam.org
    \\  /    A nd           | Version:  9
     \\/     M anipulation  |
\*---------------------------------------------------------------------------*/
FoamFile
{
    format      ascii;
    class       volVectorField;
    location    "0.047";
    object      U;
}
// * * * * * * * * * * * * * * * * * * * * * * * * * * * * * * * * * * * * * //

dimensions      [0 1 -1 0 0 0 0];

internalField   nonuniform List<vector> 
100
(
(51.7719 0 0)
(53.2105 0 0)
(55.8416 0 0)
(58.2817 0 0)
(60.1484 0 0)
(61.9464 0 0)
(63.7806 0 0)
(65.623 0 0)
(67.4597 0 0)
(69.2805 0 0)
(71.0831 0 0)
(72.8719 0 0)
(74.6475 0 0)
(76.4097 0 0)
(78.1564 0 0)
(79.8853 0 0)
(81.5986 0 0)
(83.2989 0 0)
(84.9804 0 0)
(86.65 0 0)
(88.3279 0 0)
(90.0195 0 0)
(91.7133 0 0)
(93.3917 0 0)
(95.0259 0 0)
(96.5769 0 0)
(97.9928 0 0)
(99.2754 0 0)
(100.507 0 0)
(101.77 0 0)
(103.072 0 0)
(104.383 0 0)
(105.711 0 0)
(107.06 0 0)
(108.422 0 0)
(109.772 0 0)
(111.105 0 0)
(112.426 0 0)
(113.721 0 0)
(114.988 0 0)
(116.235 0 0)
(117.463 0 0)
(118.665 0 0)
(119.836 0 0)
(120.972 0 0)
(122.077 0 0)
(123.156 0 0)
(124.216 0 0)
(125.257 0 0)
(126.278 0 0)
(127.278 0 0)
(128.258 0 0)
(129.223 0 0)
(130.177 0 0)
(131.126 0 0)
(132.068 0 0)
(133.002 0 0)
(133.93 0 0)
(134.854 0 0)
(135.776 0 0)
(136.698 0 0)
(137.623 0 0)
(138.549 0 0)
(139.476 0 0)
(140.401 0 0)
(141.323 0 0)
(142.242 0 0)
(143.162 0 0)
(144.089 0 0)
(145.027 0 0)
(145.975 0 0)
(146.934 0 0)
(147.901 0 0)
(148.871 0 0)
(149.847 0 0)
(150.834 0 0)
(151.839 0 0)
(152.867 0 0)
(153.919 0 0)
(154.993 0 0)
(156.088 0 0)
(157.212 0 0)
(158.379 0 0)
(159.606 0 0)
(160.91 0 0)
(162.3 0 0)
(163.767 0 0)
(165.298 0 0)
(166.872 0 0)
(168.467 0 0)
(170.054 0 0)
(171.608 0 0)
(173.1 0 0)
(174.506 0 0)
(175.799 0 0)
(176.982 0 0)
(178.073 0 0)
(179.11 0 0)
(180.093 0 0)
(182.04 0 0)
)
;

boundaryField
{
    sides
    {
        type            zeroGradient;
    }
    empty
    {
        type            empty;
    }
}


// ************************************************************************* //
