/*--------------------------------*- C++ -*----------------------------------*\
  =========                 |
  \\      /  F ield         | OpenFOAM: The Open Source CFD Toolbox
   \\    /   O peration     | Website:  https://openfoam.org
    \\  /    A nd           | Version:  9
     \\/     M anipulation  |
\*---------------------------------------------------------------------------*/
FoamFile
{
    format      ascii;
    class       volScalarField;
    location    "0.02";
    object      mag(U);
}
// * * * * * * * * * * * * * * * * * * * * * * * * * * * * * * * * * * * * * //

dimensions      [0 1 -1 0 0 0 0];

internalField   nonuniform List<scalar> 
10000
(
105.201
105.267
105.306
105.349
105.39
105.432
105.473
105.514
105.554
105.594
105.634
105.674
105.715
105.756
105.797
105.839
105.88
105.922
105.963
106.004
106.045
106.085
106.126
106.167
106.208
106.249
106.29
106.332
106.373
106.414
106.455
106.496
106.536
106.577
106.618
106.658
106.699
106.74
106.781
106.822
106.863
106.904
106.945
106.986
107.027
107.068
107.109
107.15
107.191
107.232
107.273
107.314
107.355
107.396
107.437
107.478
107.519
107.56
107.601
107.642
107.683
107.724
107.765
107.806
107.848
107.889
107.93
107.971
108.011
108.052
108.093
108.134
108.175
108.216
108.257
108.298
108.339
108.379
108.42
108.461
108.501
108.542
108.583
108.624
108.665
108.706
108.747
108.787
108.828
108.869
108.91
108.951
108.992
109.033
109.074
109.115
109.156
109.197
109.238
109.279
109.32
109.361
109.402
109.443
109.484
109.524
109.565
109.605
109.646
109.687
109.728
109.769
109.81
109.85
109.891
109.932
109.972
110.013
110.054
110.096
110.137
110.178
110.219
110.261
110.302
110.343
110.383
110.424
110.465
110.506
110.547
110.587
110.628
110.669
110.71
110.751
110.792
110.833
110.874
110.915
110.955
110.996
111.037
111.078
111.119
111.159
111.2
111.241
111.281
111.322
111.364
111.404
111.445
111.486
111.526
111.567
111.608
111.649
111.691
111.732
111.773
111.813
111.854
111.894
111.935
111.976
112.017
112.058
112.099
112.139
112.18
112.221
112.262
112.303
112.344
112.385
112.425
112.465
112.505
112.546
112.588
112.63
112.672
112.714
112.754
112.795
112.835
112.875
112.915
112.956
112.997
113.038
113.079
113.12
113.161
113.202
113.244
113.285
113.325
113.365
113.406
113.446
113.487
113.528
113.57
113.611
113.653
113.693
113.733
113.773
113.814
113.855
113.897
113.938
113.98
114.021
114.061
114.102
114.143
114.183
114.223
114.263
114.303
114.345
114.389
114.433
114.475
114.515
114.552
114.588
114.626
114.667
114.712
114.759
114.805
114.847
114.885
114.92
114.956
114.994
115.036
115.08
115.126
115.171
115.214
115.253
115.291
115.329
115.367
115.409
115.452
115.495
115.536
115.574
115.612
115.651
115.696
115.748
115.798
115.838
115.869
115.897
115.926
115.958
116.001
116.066
116.135
116.184
116.208
116.23
116.254
116.285
116.329
116.39
116.45
116.49
116.516
116.542
116.571
116.631
116.709
116.767
116.787
116.8
116.816
116.837
116.872
116.952
117.043
117.107
117.126
117.131
117.142
117.162
117.202
117.285
117.372
117.422
117.435
117.441
117.458
117.487
117.563
117.653
117.717
117.736
117.739
117.749
117.768
117.803
117.884
117.98
118.048
118.07
118.077
118.089
118.109
118.146
118.225
118.307
118.348
118.361
118.374
118.393
118.441
118.532
118.619
118.667
118.678
118.676
118.684
118.704
118.739
118.821
118.926
119.002
119.029
119.032
119.028
119.043
119.069
119.138
119.237
119.316
119.346
119.352
119.354
119.372
119.407
119.488
119.573
119.621
119.637
119.653
119.691
119.766
119.836
119.86
119.862
119.868
119.889
119.951
120.054
120.142
120.184
120.19
120.176
120.182
120.203
120.266
120.372
120.466
120.515
120.524
120.512
120.514
120.533
120.589
120.69
120.788
120.842
120.854
120.844
120.843
120.86
120.908
121.003
121.105
121.166
121.183
121.182
121.187
121.207
121.257
121.345
121.428
121.464
121.476
121.488
121.512
121.578
121.661
121.713
121.724
121.723
121.736
121.771
121.855
121.962
122.037
122.062
122.057
122.037
122.046
122.07
122.139
122.253
122.353
122.406
122.419
122.413
122.418
122.437
122.483
122.567
122.644
122.674
122.687
122.703
122.74
122.822
122.907
122.948
122.955
122.943
122.952
122.979
123.054
123.172
123.265
123.309
123.315
123.293
123.286
123.302
123.347
123.441
123.564
123.644
123.673
123.67
123.634
123.623
123.639
123.678
123.767
123.918
124.052
124.119
124.14
124.13
124.079
124.054
124.068
124.091
124.151
124.259
124.391
124.47
124.498
124.497
124.472
124.473
124.492
124.544
124.644
124.755
124.822
124.842
124.835
124.821
124.835
124.865
124.943
125.055
125.14
125.175
125.18
125.169
125.178
125.201
125.265
125.367
125.454
125.493
125.502
125.497
125.511
125.538
125.609
125.705
125.776
125.799
125.801
125.806
125.825
125.879
125.976
126.066
126.112
126.12
126.106
126.109
126.129
126.187
126.293
126.402
126.464
126.482
126.474
126.465
126.481
126.511
126.589
126.69
126.765
126.791
126.795
126.797
126.815
126.859
126.948
127.041
127.092
127.104
127.095
127.099
127.12
127.177
127.281
127.381
127.437
127.451
127.441
127.438
127.457
127.497
127.584
127.681
127.74
127.756
127.753
127.759
127.781
127.847
127.96
128.065
128.121
128.134
128.111
128.07
128.074
128.096
128.159
128.273
128.422
128.509
128.542
128.544
128.505
128.475
128.488
128.514
128.587
128.713
128.84
128.909
128.931
128.921
128.884
128.88
128.899
128.946
129.041
129.171
129.256
129.289
129.292
129.266
129.261
129.279
129.324
129.416
129.538
129.618
129.648
129.649
129.631
129.637
129.658
129.712
129.811
129.91
129.965
129.98
129.977
129.983
130.004
130.055
130.149
130.237
130.281
130.292
130.287
130.298
130.323
130.388
130.488
130.572
130.607
130.615
130.612
130.627
130.655
130.726
130.819
130.885
130.906
130.908
130.915
130.936
130.994
131.095
131.188
131.235
131.245
131.229
131.226
131.245
131.292
131.387
131.501
131.573
131.596
131.593
131.577
131.59
131.62
131.698
131.83
131.947
132.007
132.024
132.006
131.943
131.915
131.93
131.953
132.013
132.122
132.285
132.384
132.43
132.44
132.418
132.388
132.399
132.421
132.48
132.585
132.695
132.758
132.777
132.769
132.755
132.769
132.799
132.875
132.993
133.086
133.13
133.139
133.119
133.108
133.125
133.16
133.243
133.363
133.451
133.488
133.496
133.482
133.487
133.508
133.555
133.647
133.743
133.796
133.811
133.808
133.816
133.839
133.9
134.006
134.101
134.149
134.16
134.141
134.128
134.145
134.182
134.267
134.396
134.489
134.531
134.538
134.514
134.496
134.512
134.543
134.619
134.742
134.841
134.889
134.901
134.889
134.885
134.903
134.946
135.037
135.157
135.235
135.264
135.263
135.229
135.221
135.239
135.279
135.367
135.501
135.595
135.639
135.648
135.628
135.615
135.632
135.662
135.739
135.853
135.943
135.982
135.991
135.977
135.981
136.001
136.052
136.15
136.259
136.323
136.343
136.337
136.321
136.334
136.36
136.427
136.537
136.633
136.681
136.693
136.685
136.687
136.707
136.75
136.838
136.937
136.995
137.012
137.007
137.008
137.028
137.075
137.17
137.283
137.353
137.376
137.372
137.347
137.353
137.375
137.432
137.538
137.659
137.729
137.754
137.754
137.74
137.752
137.776
137.835
137.935
138.024
138.067
138.077
138.066
138.072
138.093
138.148
138.251
138.361
138.423
138.442
138.431
138.397
138.4
138.421
138.468
138.563
138.699
138.789
138.828
138.84
138.841
138.856
138.883
138.942
139.012
139.048
139.057
139.046
139.053
139.076
139.139
139.252
139.382
139.454
139.479
139.476
139.445
139.443
139.463
139.505
139.594
139.722
139.811
139.848
139.857
139.845
139.852
139.874
139.927
140.027
140.128
140.183
140.198
140.177
140.13
140.131
140.151
140.202
140.302
140.462
140.569
140.619
140.634
140.616
140.582
140.59
140.612
140.664
140.765
140.898
140.98
141.012
141.018
141.002
141.008
141.03
141.081
141.176
141.272
141.322
141.333
141.3
141.221
141.201
141.219
141.257
141.346
141.513
141.753
141.87
141.925
141.941
141.922
141.833
141.75
141.748
141.769
141.797
141.868
141.994
142.174
142.273
142.319
142.332
142.312
142.262
142.257
142.278
142.304
142.365
142.474
142.601
142.675
142.703
142.72
142.74
142.77
142.814
142.854
142.878
142.889
142.895
142.914
142.951
143.035
143.173
143.281
143.333
143.35
143.34
143.31
143.312
143.334
143.359
143.383
143.408
143.434
143.482
143.575
143.719
143.82
143.868
143.884
143.882
143.887
143.908
143.941
144.013
144.096
144.139
144.154
144.159
144.178
144.215
144.298
144.413
144.491
144.521
144.522
144.491
144.485
144.505
144.545
144.633
144.771
144.868
144.913
144.924
144.896
144.839
144.835
144.856
144.89
144.97
145.109
145.247
145.318
145.344
145.35
145.343
145.357
145.381
145.429
145.508
145.572
145.595
145.601
145.611
145.633
145.69
145.796
145.913
145.978
146
145.993
145.955
145.952
145.972
146.015
146.104
146.244
146.341
146.384
146.395
146.366
146.307
146.301
146.322
146.357
146.437
146.58
146.736
146.816
146.847
146.855
146.837
146.834
146.854
146.88
146.933
147.012
147.069
147.091
147.106
147.128
147.171
147.261
147.369
147.434
147.457
147.45
147.417
147.419
147.441
147.489
147.585
147.73
147.825
147.867
147.879
147.862
147.847
147.865
147.893
147.962
148.074
148.167
148.209
148.219
148.184
148.116
148.108
148.129
148.17
148.26
148.43
148.639
148.735
148.778
148.789
148.759
148.668
148.626
148.64
148.663
148.716
148.818
148.994
149.124
149.186
149.207
149.198
149.133
149.079
149.087
149.11
149.151
149.238
149.39
149.523
149.588
149.612
149.612
149.597
149.608
149.631
149.681
149.774
149.871
149.923
149.938
149.915
149.856
149.849
149.87
149.913
150.005
150.18
150.364
150.448
150.482
150.489
150.448
150.373
150.363
150.383
150.417
150.498
150.644
150.825
150.914
150.951
150.959
150.915
150.783
150.701
150.704
150.727
150.764
150.849
151.007
151.269
151.418
151.484
151.508
151.505
151.441
151.326
151.297
151.314
151.339
151.386
151.479
151.645
151.781
151.846
151.87
151.869
151.837
151.832
151.853
151.889
151.97
152.109
152.224
152.279
152.298
152.281
152.203
152.155
152.166
152.191
152.246
152.352
152.546
152.698
152.767
152.793
152.793
152.74
152.683
152.688
152.712
152.753
152.84
152.995
153.129
153.193
153.216
153.209
153.143
153.074
153.076
153.099
153.137
153.222
153.379
153.599
153.708
153.758
153.776
153.764
153.697
153.644
153.651
153.675
153.7
153.727
153.762
153.839
153.973
154.124
154.202
154.233
154.239
154.198
154.12
154.107
154.128
154.154
154.215
154.326
154.506
154.619
154.673
154.693
154.69
154.672
154.683
154.708
154.741
154.812
154.897
154.944
154.962
154.969
154.988
155.02
155.095
155.219
155.321
155.369
155.384
155.364
155.316
155.316
155.338
155.379
155.465
155.616
155.742
155.803
155.826
155.82
155.771
155.749
155.767
155.792
155.851
155.959
156.114
156.205
156.245
156.259
156.238
156.194
156.195
156.218
156.244
156.29
156.372
156.451
156.485
156.503
156.52
156.545
156.605
156.716
156.857
156.936
156.968
156.976
156.95
156.928
156.944
156.969
157.001
157.072
157.174
157.256
157.291
157.312
157.334
157.368
157.434
157.503
157.535
157.546
157.547
157.566
157.597
157.672
157.793
157.893
157.94
157.956
157.939
157.905
157.913
157.937
157.983
158.074
158.218
158.316
158.361
158.376
158.361
158.326
158.333
158.357
158.388
158.458
158.555
158.627
158.655
158.66
158.645
158.656
158.681
158.738
158.846
159.024
159.138
159.19
159.21
159.201
159.143
159.107
159.121
159.147
159.174
159.227
159.325
159.47
159.564
159.608
159.63
159.641
159.65
159.668
159.691
159.717
159.743
159.77
159.803
159.874
159.995
160.107
160.165
160.186
160.178
160.132
160.119
160.14
160.17
160.241
160.37
160.538
160.627
160.664
160.678
160.653
160.58
160.555
160.572
160.598
160.625
160.662
160.74
160.869
160.987
161.049
161.076
161.101
161.144
161.224
161.297
161.327
161.33
161.285
161.246
161.259
161.284
161.325
161.41
161.567
161.732
161.81
161.842
161.851
161.817
161.757
161.755
161.779
161.81
161.882
162.011
162.158
162.234
162.264
162.27
162.225
162.145
162.135
162.157
162.184
162.243
162.353
162.537
162.657
162.713
162.735
162.738
162.73
162.747
162.773
162.816
162.899
162.986
163.029
163.043
163.023
162.994
163.008
163.034
163.093
163.205
163.383
163.489
163.537
163.555
163.538
163.464
163.427
163.443
163.469
163.519
163.617
163.793
163.931
163.994
164.02
164.02
163.968
163.915
163.923
163.948
163.984
164.062
164.195
164.308
164.363
164.384
164.373
164.313
164.286
164.305
164.333
164.399
164.521
164.741
164.886
164.95
164.974
164.972
164.901
164.763
164.722
164.738
164.764
164.816
164.917
165.119
165.372
165.481
165.53
165.549
165.536
165.444
165.319
165.3
165.32
165.346
165.397
165.496
165.685
165.87
165.952
165.987
165.999
165.968
165.884
165.857
165.875
165.902
165.948
166.039
166.192
166.303
166.355
166.375
166.365
166.303
166.272
166.29
166.316
166.372
166.478
166.678
166.843
166.916
166.946
166.954
166.914
166.813
166.777
166.793
166.819
166.849
166.909
167.018
167.185
167.285
167.332
167.353
167.354
167.35
167.369
167.396
167.434
167.504
167.58
167.616
167.638
167.662
167.692
167.759
167.873
167.971
168.018
168.035
168.016
167.952
167.937
167.958
167.987
168.051
168.169
168.36
168.473
168.524
168.545
168.539
168.475
168.406
168.407
168.431
168.459
168.487
168.525
168.604
168.748
168.989
169.127
169.188
169.213
169.214
169.151
168.986
168.896
168.899
168.924
168.953
169.01
169.119
169.337
169.593
169.699
169.747
169.768
169.758
169.678
169.574
169.563
169.585
169.612
169.661
169.756
169.931
170.084
170.153
170.183
170.19
170.15
170.087
170.087
170.111
170.142
170.208
170.328
170.481
170.562
170.596
170.607
170.574
170.498
170.485
170.508
170.537
170.6
170.717
170.927
171.07
171.134
171.16
171.164
171.113
171.016
170.997
171.017
171.045
171.08
171.156
171.291
171.487
171.59
171.639
171.663
171.672
171.649
171.619
171.63
171.656
171.683
171.711
171.739
171.768
171.798
171.861
171.975
172.149
172.25
172.297
172.316
172.305
172.231
172.175
172.185
172.212
172.244
172.315
172.441
172.582
172.654
172.684
172.693
172.664
172.638
172.656
172.683
172.734
172.834
173.011
173.141
173.2
173.225
173.224
173.168
173.107
173.113
173.138
173.171
173.244
173.377
173.547
173.634
173.671
173.687
173.663
173.591
173.573
173.594
173.622
173.676
173.779
173.963
174.093
174.153
174.178
174.178
174.119
174.028
174.018
174.041
174.069
174.115
174.206
174.367
174.493
174.552
174.578
174.583
174.562
174.566
174.591
174.624
174.697
174.824
174.954
175.019
175.046
175.05
175.005
174.961
174.973
174.999
175.038
175.118
175.264
175.402
175.468
175.496
175.501
175.458
175.407
175.415
175.441
175.477
175.555
175.7
175.88
175.968
176.005
176.021
175.998
175.906
175.851
175.863
175.89
175.921
175.986
176.104
176.261
176.347
176.385
176.402
176.39
176.374
176.392
176.42
176.47
176.567
176.73
176.842
176.892
176.914
176.907
176.841
176.789
176.8
176.827
176.863
176.94
177.081
177.25
177.332
177.367
177.382
177.359
177.294
177.283
177.306
177.335
177.39
177.495
177.667
177.778
177.828
177.85
177.844
177.773
177.701
177.705
177.731
177.76
177.819
177.929
178.112
178.229
178.283
178.307
178.31
178.284
178.285
178.31
178.34
178.401
178.51
178.629
178.692
178.719
178.722
178.677
178.636
178.65
178.677
178.719
178.805
178.967
179.131
179.206
179.238
179.251
179.219
179.139
179.121
179.143
179.171
179.219
179.311
179.476
179.604
179.663
179.689
179.691
179.638
179.568
179.569
179.595
179.626
179.689
179.807
180.022
180.17
180.235
180.264
180.274
180.237
180.145
180.118
180.137
180.165
180.195
180.239
180.325
180.458
180.555
180.601
180.624
180.641
180.666
180.695
180.749
180.841
180.924
180.962
180.978
180.954
180.9
180.902
180.927
180.96
181.029
181.156
181.346
181.447
181.493
181.516
181.515
181.48
181.475
181.499
181.528
181.565
181.637
181.721
181.765
181.786
181.777
181.748
181.759
181.786
181.831
181.921
182.098
182.291
182.376
182.413
182.43
182.407
182.3
182.21
182.212
182.238
182.267
182.319
182.418
182.61
182.799
182.88
182.916
182.936
182.923
182.863
182.841
182.86
182.889
182.919
182.968
183.054
183.144
183.191
183.214
183.222
183.236
183.263
183.304
183.388
183.542
183.679
183.742
183.77
183.774
183.721
183.611
183.587
183.608
183.637
183.681
183.769
183.939
184.124
184.207
184.244
184.262
184.245
184.181
184.163
184.185
184.213
184.261
184.355
184.527
184.669
184.732
184.761
184.767
184.716
184.584
184.532
184.547
184.575
184.613
184.692
184.844
185.114
185.276
185.343
185.373
185.385
185.35
185.237
185.181
185.194
185.222
185.254
185.316
185.432
185.605
185.704
185.748
185.769
185.758
185.676
185.598
185.603
185.63
185.663
185.732
185.861
186.113
186.295
186.369
186.401
186.415
186.382
186.244
186.112
186.102
186.126
186.155
186.205
186.303
186.501
186.799
186.936
186.996
187.023
187.031
186.983
186.834
186.743
186.747
186.774
186.803
186.85
186.941
187.11
187.267
187.338
187.37
187.384
187.357
187.283
187.269
187.292
187.322
187.37
187.465
187.649
187.831
187.911
187.946
187.964
187.943
187.857
187.812
187.828
187.857
187.893
187.968
188.107
188.303
188.4
188.444
188.465
188.454
188.363
188.239
188.224
188.247
188.277
188.325
188.419
188.608
188.878
188.999
189.053
189.079
189.083
189.027
188.887
188.831
188.845
188.873
188.904
188.961
189.066
189.267
189.429
189.5
189.532
189.548
189.527
189.455
189.435
189.456
189.486
189.519
189.584
189.699
189.828
189.894
189.925
189.938
189.919
189.902
189.922
189.951
189.991
190.069
190.206
190.322
190.378
190.404
190.411
190.376
190.35
190.369
190.398
190.432
190.499
190.62
190.759
190.831
190.864
190.883
190.874
190.862
190.881
190.911
190.942
190.991
191.073
191.146
191.18
191.204
191.227
191.256
191.295
191.374
191.481
191.552
191.583
191.595
191.56
191.498
191.499
191.526
191.558
191.62
191.735
191.939
192.071
192.13
192.158
192.168
192.131
192.059
192.054
192.079
192.109
192.149
192.228
192.372
192.517
192.586
192.619
192.636
192.618
192.571
192.572
192.599
192.629
192.665
192.735
192.855
192.966
193.021
193.049
193.066
193.082
193.11
193.142
193.192
193.257
193.299
193.325
193.332
193.308
193.309
193.336
193.368
193.43
193.546
193.714
193.808
193.85
193.873
193.87
193.829
193.82
193.844
193.874
193.912
193.987
194.113
194.217
194.267
194.293
194.299
194.277
194.281
194.308
194.338
194.389
194.485
194.612
194.688
194.722
194.74
194.727
194.702
194.717
194.747
194.781
194.848
194.967
195.083
195.14
195.168
195.175
195.134
195.087
195.099
195.127
195.161
195.226
195.349
195.552
195.671
195.725
195.752
195.759
195.715
195.628
195.617
195.64
195.671
195.704
195.766
195.878
196.042
196.136
196.179
196.204
196.21
196.196
196.21
196.238
196.27
196.315
196.397
196.493
196.546
196.574
196.587
196.593
196.617
196.648
196.691
196.774
196.881
196.945
196.976
196.989
196.966
196.939
196.956
196.986
197.018
197.076
197.178
197.283
197.337
197.364
197.377
197.378
197.401
197.431
197.477
197.565
197.723
197.843
197.897
197.925
197.931
197.878
197.777
197.761
197.784
197.815
197.857
197.939
198.098
198.321
198.426
198.473
198.5
198.504
198.454
198.374
198.371
198.397
198.428
198.466
198.541
198.675
198.809
198.874
198.905
198.92
198.895
198.827
198.818
198.843
198.873
198.912
198.988
199.128
199.281
199.354
199.389
199.409
199.401
199.374
199.387
199.416
199.448
199.501
199.598
199.725
199.797
199.831
199.85
199.835
199.797
199.806
199.835
199.867
199.925
200.033
200.198
200.294
200.338
200.363
200.363
200.308
200.264
200.28
200.309
200.342
200.402
200.512
200.691
200.797
200.846
200.873
200.879
200.835
200.782
200.792
200.821
200.852
200.903
200.998
201.167
201.292
201.348
201.378
201.391
201.36
201.297
201.296
201.322
201.353
201.39
201.46
201.579
201.687
201.739
201.767
201.778
201.753
201.745
201.77
201.801
201.844
201.927
202.083
202.231
202.298
202.33
202.348
202.329
202.258
202.238
202.261
202.292
202.327
202.393
202.514
202.707
202.814
202.863
202.891
202.901
202.863
202.788
202.781
202.806
202.837
202.868
202.901
202.938
203.008
203.137
203.336
203.442
203.491
203.518
203.527
203.481
203.366
203.331
203.351
203.382
203.414
203.467
203.566
203.751
203.903
203.969
204.002
204.022
204.012
203.974
203.978
204.006
204.038
204.077
204.15
204.269
204.364
204.409
204.435
204.44
204.411
204.41
204.437
204.468
204.514
204.599
204.748
204.862
204.915
204.943
204.954
204.917
204.863
204.871
204.9
204.932
204.981
205.072
205.232
205.349
205.403
205.431
205.443
205.407
205.346
205.35
205.378
205.41
205.457
205.547
205.72
205.889
205.963
205.998
206.019
206.009
205.926
205.855
205.863
205.892
205.924
205.966
206.046
206.201
206.395
206.486
206.527
206.554
206.56
206.516
206.459
206.467
206.495
206.527
206.56
206.604
206.686
206.801
206.876
206.912
206.937
206.949
206.968
206.999
207.031
207.083
207.174
207.272
207.323
207.353
207.368
207.368
207.388
207.418
207.452
207.505
207.598
207.693
207.742
207.77
207.786
207.797
207.824
207.856
207.895
207.949
208
208.034
208.062
208.074
208.082
208.108
208.14
208.183
208.265
208.4
208.498
208.543
208.57
208.577
208.543
208.532
208.557
208.588
208.629
208.707
208.856
209.024
209.101
209.138
209.161
209.153
209.07
208.985
208.989
209.017
209.049
209.094
209.179
209.346
209.564
209.662
209.706
209.734
209.741
209.692
209.585
209.563
209.586
209.617
209.651
209.705
209.805
209.98
210.098
210.152
210.182
210.197
210.174
210.129
210.139
210.168
210.2
210.244
210.326
210.475
210.6
210.657
210.688
210.705
210.683
210.622
210.619
210.646
210.678
210.716
210.788
210.922
211.084
211.162
211.199
211.225
211.224
211.175
211.15
211.172
211.203
211.236
211.289
211.385
211.532
211.623
211.665
211.692
211.699
211.663
211.641
211.663
211.695
211.728
211.781
211.879
212.037
212.136
212.182
212.211
212.225
212.21
212.21
212.237
212.269
212.304
212.355
212.421
212.466
212.497
212.517
212.51
212.505
212.53
212.562
212.602
212.679
212.824
212.997
213.077
213.115
213.142
213.144
213.095
213.055
213.071
213.102
213.135
213.173
213.24
213.357
213.467
213.52
213.551
213.571
213.573
213.59
213.62
213.653
213.7
213.786
213.897
213.962
213.996
214.017
214.006
213.974
213.986
214.017
214.05
214.097
214.185
214.335
214.44
214.489
214.518
214.532
214.506
214.475
214.493
214.524
214.557
214.604
214.69
214.834
214.938
214.986
215.015
215.03
215.008
214.981
214.999
215.03
215.064
215.104
215.177
215.281
215.352
215.388
215.412
215.414
215.413
215.439
215.471
215.511
215.587
215.733
215.909
215.99
216.029
216.055
216.054
215.981
215.846
215.82
215.842
215.874
215.908
215.958
216.051
216.241
216.468
216.564
216.609
216.639
216.655
216.631
216.574
216.574
216.601
216.634
216.667
216.702
216.743
216.799
216.848
216.884
216.917
216.951
216.991
217.063
217.176
217.265
217.308
217.336
217.347
217.329
217.331
217.359
217.392
217.43
217.497
217.613
217.726
217.782
217.813
217.833
217.823
217.809
217.831
217.863
217.897
217.948
218.043
218.175
218.253
218.291
218.318
218.321
218.28
218.259
218.282
218.314
218.348
218.39
218.468
218.603
218.716
218.77
218.802
218.826
218.844
218.873
218.906
218.943
218.986
219.025
219.059
219.089
219.107
219.105
219.12
219.15
219.184
219.23
219.315
219.464
219.575
219.626
219.657
219.674
219.653
219.6
219.603
219.632
219.665
219.701
219.762
219.873
220.02
220.099
220.138
220.166
220.177
220.158
220.162
220.19
220.223
220.258
220.306
220.391
220.485
220.536
220.568
220.588
220.595
220.616
220.648
220.682
220.732
220.822
220.933
220.995
221.029
221.052
221.047
221.024
221.04
221.071
221.105
221.149
221.23
221.363
221.461
221.507
221.537
221.553
221.535
221.519
221.542
221.574
221.608
221.656
221.741
221.871
221.955
221.996
222.025
222.038
222.019
222.021
222.049
222.083
222.119
222.176
222.278
222.391
222.45
222.484
222.507
222.505
222.492
222.512
222.545
222.579
222.623
222.702
222.822
222.904
222.944
222.973
222.985
222.972
222.982
223.012
223.046
223.083
223.146
223.252
223.349
223.397
223.428
223.447
223.441
223.446
223.475
223.508
223.544
223.602
223.702
223.806
223.859
223.891
223.913
223.911
223.911
223.938
223.971
224.005
224.053
224.138
224.242
224.3
224.334
224.359
224.367
224.379
224.409
224.443
224.479
224.536
224.626
224.699
224.737
224.766
224.779
224.788
224.816
224.85
224.886
224.947
225.051
225.15
225.2
225.232
225.251
225.239
225.22
225.241
225.273
225.308
225.351
225.428
225.563
225.675
225.728
225.761
225.785
225.785
225.766
225.781
225.813
225.846
225.88
225.914
225.948
225.983
226.024
226.095
226.224
226.365
226.433
226.469
226.498
226.507
226.472
226.437
226.454
226.486
226.519
226.553
226.587
226.621
226.656
226.694
226.757
226.867
226.987
227.048
227.082
227.108
227.109
227.071
227.068
227.096
227.13
227.167
227.227
227.339
227.523
227.631
227.68
227.712
227.732
227.714
227.628
227.592
227.612
227.645
227.68
227.721
227.796
227.937
228.114
228.197
228.238
228.268
228.284
228.258
228.201
228.205
228.235
228.269
228.304
228.348
228.426
228.562
228.673
228.725
228.759
228.784
228.786
228.774
228.794
228.826
228.861
228.896
228.942
229.02
229.118
229.174
229.208
229.237
229.262
229.293
229.327
229.363
229.408
229.464
229.51
229.546
229.58
229.615
229.652
229.698
229.745
229.782
229.816
229.847
229.875
229.907
229.941
229.978
230.035
230.14
230.336
230.473
230.532
230.567
230.592
230.59
230.507
230.33
230.277
230.294
230.326
230.36
230.394
230.429
230.464
230.503
230.568
230.688
230.946
231.199
231.293
231.338
231.37
231.39
231.374
231.258
231.116
231.104
231.13
231.164
231.199
231.245
231.327
231.49
231.711
231.81
231.857
231.889
231.91
231.897
231.815
231.772
231.791
231.823
231.858
231.896
231.958
232.073
232.238
232.327
232.369
232.401
232.421
232.405
232.364
232.374
232.405
232.44
232.476
232.527
232.619
232.752
232.833
232.873
232.904
232.922
232.911
232.909
232.937
232.971
233.006
233.049
233.123
233.23
233.303
233.342
233.372
233.388
233.385
233.404
233.436
233.471
233.51
233.575
233.683
233.777
233.823
233.855
233.877
233.872
233.864
233.888
233.922
233.957
234
234.073
234.188
234.274
234.317
234.349
234.369
234.364
234.367
234.396
234.431
234.467
234.514
234.597
234.705
234.767
234.803
234.831
234.841
234.829
234.847
234.879
234.914
234.955
235.025
235.148
235.261
235.315
235.349
235.374
235.37
235.316
235.3
235.326
235.36
235.396
235.445
235.532
235.701
235.852
235.918
235.954
235.983
235.993
235.949
235.872
235.874
235.903
235.938
235.974
236.022
236.105
236.264
236.403
236.465
236.501
236.53
236.542
236.508
236.471
236.489
236.522
236.557
236.593
236.642
236.729
236.879
236.988
237.038
237.073
237.101
237.108
237.08
237.08
237.108
237.143
237.178
237.213
237.248
237.283
237.32
237.366
237.446
237.574
237.666
237.71
237.744
237.768
237.767
237.746
237.763
237.796
237.831
237.867
237.912
237.991
238.099
238.167
238.205
238.236
238.258
238.274
238.304
238.339
238.375
238.418
238.491
238.577
238.625
238.659
238.686
238.696
238.712
238.744
238.779
238.816
238.873
238.968
239.061
239.109
239.142
239.166
239.161
239.129
239.141
239.173
239.209
239.247
239.309
239.422
239.595
239.689
239.734
239.767
239.791
239.781
239.7
239.648
239.666
239.699
239.734
239.77
239.82
239.907
240.079
240.247
240.318
240.357
240.389
240.408
240.387
240.315
240.305
240.333
240.367
240.403
240.443
240.507
240.623
240.765
240.835
240.874
240.906
240.927
240.922
240.925
240.954
240.989
241.025
241.067
241.138
241.24
241.311
241.349
241.381
241.397
241.38
241.371
241.397
241.432
241.468
241.515
241.596
241.742
241.86
241.914
241.95
241.978
241.983
241.932
241.891
241.91
241.943
241.979
242.018
242.08
242.196
242.386
242.492
242.541
242.576
242.604
242.608
242.555
242.504
242.519
242.551
242.587
242.623
242.662
242.72
242.819
242.917
242.968
243.003
243.034
243.06
243.092
243.127
243.164
243.211
243.293
243.405
243.471
243.509
243.54
243.554
243.52
243.471
243.484
243.517
243.552
243.591
243.65
243.758
243.944
244.055
244.106
244.141
244.17
244.177
244.129
244.082
244.098
244.131
244.167
244.204
244.251
244.333
244.474
244.579
244.629
244.664
244.694
244.706
244.69
244.698
244.729
244.764
244.801
244.839
244.894
244.983
245.065
245.108
245.143
245.172
245.196
245.228
245.263
245.3
245.343
245.408
245.481
245.524
245.559
245.586
245.592
245.588
245.614
245.648
245.685
245.727
245.797
245.922
246.033
246.086
246.122
246.152
246.165
246.142
246.142
246.171
246.206
246.243
246.283
246.346
246.451
246.543
246.589
246.624
246.653
246.663
246.662
246.687
246.722
246.759
246.798
246.857
246.958
247.057
247.108
247.143
247.173
247.186
247.172
247.185
247.218
247.254
247.291
247.335
247.409
247.516
247.586
247.625
247.659
247.683
247.687
247.7
247.732
247.768
247.805
247.848
247.919
248.021
248.088
248.126
248.16
248.183
248.183
248.192
248.223
248.259
248.295
248.336
248.399
248.499
248.579
248.621
248.656
248.685
248.701
248.723
248.757
248.793
248.83
248.874
248.94
249.01
249.052
249.087
249.119
249.143
249.17
249.205
249.241
249.279
249.332
249.419
249.506
249.553
249.588
249.619
249.634
249.63
249.649
249.683
249.719
249.755
249.791
249.829
249.869
249.927
250.025
250.12
250.169
250.205
250.237
250.258
250.273
250.304
250.34
250.376
250.415
250.466
250.548
250.621
250.662
250.697
250.727
250.749
250.778
250.814
250.85
250.89
250.944
251.016
251.065
251.101
251.134
251.154
251.142
251.135
251.163
251.198
251.235
251.275
251.335
251.444
251.605
251.691
251.735
251.77
251.799
251.806
251.762
251.74
251.765
251.8
251.836
251.875
251.931
252.029
252.181
252.269
252.313
252.349
252.378
252.386
252.348
252.333
252.36
252.395
252.432
252.471
252.527
252.626
252.769
252.848
252.89
252.925
252.955
252.963
252.934
252.933
252.963
252.999
253.035
253.073
253.115
253.178
253.258
253.309
253.346
253.381
253.413
253.448
253.484
253.521
253.563
253.627
253.722
253.789
253.828
253.863
253.889
253.897
253.912
253.945
253.982
254.02
254.066
254.144
254.256
254.326
254.366
254.4
254.424
254.415
254.352
254.342
254.37
254.406
254.444
254.487
254.56
254.7
254.899
254.993
255.04
255.076
255.106
255.118
255.075
254.997
255
255.031
255.067
255.104
255.145
255.208
255.322
255.472
255.547
255.588
255.624
255.654
255.664
255.637
255.637
255.668
255.704
255.741
255.779
255.829
255.914
256.025
256.089
256.127
256.163
256.192
256.208
256.23
256.264
256.301
256.338
256.378
256.424
256.468
256.506
256.543
256.579
256.611
256.645
256.681
256.718
256.756
256.803
256.879
256.982
257.043
257.081
257.116
257.145
257.161
257.183
257.217
257.254
257.291
257.333
257.387
257.446
257.488
257.525
257.561
257.594
257.624
257.659
257.696
257.733
257.774
257.833
257.926
258.007
258.05
258.087
258.122
258.149
258.16
258.177
258.21