/*--------------------------------*- C++ -*----------------------------------*\
  =========                 |
  \\      /  F ield         | OpenFOAM: The Open Source CFD Toolbox
   \\    /   O peration     | Website:  https://openfoam.org
    \\  /    A nd           | Version:  9
     \\/     M anipulation  |
\*---------------------------------------------------------------------------*/
FoamFile
{
    format      ascii;
    class       volScalarField;
    location    "0.024";
    object      ddt0(rho,K);
}
// * * * * * * * * * * * * * * * * * * * * * * * * * * * * * * * * * * * * * //

dimensions      [1 -1 -3 0 0 0 0];

internalField   nonuniform List<scalar> 
1000
(
2336.45
2072.78
1950.49
1808.01
1616.52
1388.97
1138.83
869.639
580.838
272.298
-56.1703
-404.059
-772.03
-1161.05
-1570.51
-2011.49
-2464.55
-2928.48
-3423.77
-3938.86
-4472.81
-5028.2
-5604.22
-6200.53
-6818.42
-7457.23
-8116.03
-8795.78
-9497.6
-10220.3
-10962.6
-11725.1
-12508.4
-13312.8
-14138.6
-14985.9
-15854.2
-16743
-17652.7
-18583.5
-19534.9
-20506.5
-21498.7
-22512.1
-23547
-24603
-25679.9
-26777.4
-27895.7
-29035.2
-30196.2
-31378.9
-32583.1
-33808.2
-35054.3
-36321.4
-37609.6
-38918.6
-40248.4
-41598.7
-42969.7
-44361.4
-45773.6
-47206.2
-48659.1
-50132
-51625.3
-53139
-54673.5
-56229
-57805.5
-59403.2
-61022
-62662.1
-64323.4
-66005.8
-67709.2
-69433.5
-71178.8
-72945.3
-74733.1
-76542.3
-78372.8
-80224.4
-82097
-83990.4
-85904.5
-87839.3
-89794.9
-91771.4
-93768.9
-95787.5
-97827
-99887.5
-101969
-104072
-106195
-108340
-110505
-112691
-114899
-117127
-119375
-121645
-123936
-126248
-128581
-130935
-133310
-135706
-138123
-140560
-143020
-145497
-148001
-150514
-153067
-155614
-158222
-160792
-163451
-166065
-168763
-171438
-174128
-176865
-179623
-182394
-185180
-188005
-190808
-193713
-196503
-199508
-202296
-205333
-208251
-211170
-214326
-217145
-220341
-223378
-226311
-229666
-232566
-235742
-239097
-241967
-245390
-248659
-251613
-255218
-258383
-261485
-265187
-268266
-271572
-275312
-278381
-281851
-285585
-288675
-292317
-296061
-299166
-302942
-306723
-309845
-313729
-317597
-320710
-324649
-328683
-331805
-335699
-339946
-343150
-346899
-351331
-354738
-358317
-362822
-366495
-369971
-374495
-378425
-381790
-386310
-390624
-393856
-398119
-402964
-406392
-410073
-415125
-419241
-422568
-427262
-431994
-435452
-439701
-444815
-448601
-452242
-457517
-462238
-465446
-469867
-475462
-479490
-482978
-488211
-493301
-496804
-501213
-506950
-511200
-514551
-519869
-525701
-529395
-533054
-538867
-544289
-547789
-552239
-558372
-563068
-566358
-571600
-578107
-582373
-585606
-591238
-597675
-601735
-605413
-611564
-617709
-621271
-625171
-631883
-638181
-641632
-645569
-652311
-658496
-661978
-666309
-673457
-679615
-682768
-686917
-694250
-700816
-704273
-708411
-715639
-722251
-725702
-729646
-736998
-744295
-748179
-751676
-758489
-766079
-770512
-773832
-780304
-788475
-793747
-796731
-802163
-810393
-816824
-820144
-824673
-832672
-840275
-844282
-847737
-854656
-863101
-868609
-871854
-877447
-885978
-893038
-896713
-900816
-908438
-916804
-921973
-925416
-931516
-940269
-947315
-951098
-955414
-963209
-971802
-977268
-980767
-986646
-995470
-1.00315e+06
-1.00745e+06
-1.01153e+06
-1.01886e+06
-1.02783e+06
-1.03426e+06
-1.03797e+06
-1.04305e+06
-1.05147e+06
-1.0601e+06
-1.06554e+06
-1.06931e+06
-1.07553e+06
-1.08458e+06
-1.0926e+06
-1.09733e+06
-1.10148e+06
-1.10866e+06
-1.11794e+06
-1.12529e+06
-1.12957e+06
-1.13421e+06
-1.14213e+06
-1.15141e+06
-1.1582e+06
-1.16232e+06
-1.16751e+06
-1.17594e+06
-1.18516e+06
-1.19158e+06
-1.19565e+06
-1.20123e+06
-1.21002e+06
-1.21917e+06
-1.22533e+06
-1.22946e+06
-1.23537e+06
-1.24438e+06
-1.2535e+06
-1.25962e+06
-1.26386e+06
-1.26993e+06
-1.27903e+06
-1.28821e+06
-1.29443e+06
-1.29875e+06
-1.3048e+06
-1.3139e+06
-1.32324e+06
-1.3297e+06
-1.33407e+06
-1.34e+06
-1.34902e+06
-1.35855e+06
-1.36537e+06
-1.36991e+06
-1.3756e+06
-1.38435e+06
-1.39411e+06
-1.4015e+06
-1.40625e+06
-1.41157e+06
-1.41999e+06
-1.42993e+06
-1.4379e+06
-1.44305e+06
-1.44813e+06
-1.45592e+06
-1.46583e+06
-1.47459e+06
-1.48039e+06
-1.48516e+06
-1.49221e+06
-1.50195e+06
-1.51141e+06
-1.51805e+06
-1.52281e+06
-1.52902e+06
-1.53823e+06
-1.54825e+06
-1.55591e+06
-1.561e+06
-1.56648e+06
-1.57483e+06
-1.585e+06
-1.59378e+06
-1.59966e+06
-1.6047e+06
-1.61193e+06
-1.62171e+06
-1.63145e+06
-1.63864e+06
-1.64373e+06
-1.64966e+06
-1.65859e+06
-1.66901e+06
-1.67754e+06
-1.68311e+06
-1.68842e+06
-1.69621e+06
-1.70616e+06
-1.71579e+06
-1.723e+06
-1.72833e+06
-1.7343e+06
-1.74325e+06
-1.75396e+06
-1.76266e+06
-1.76832e+06
-1.77372e+06
-1.78141e+06
-1.79141e+06
-1.80135e+06
-1.80888e+06
-1.81441e+06
-1.82048e+06
-1.8289e+06
-1.84041e+06
-1.84892e+06
-1.8552e+06
-1.86235e+06
-1.86786e+06
-1.87557e+06
-1.88443e+06
-1.89387e+06
-1.90111e+06
-1.90995e+06
-1.91792e+06
-1.92506e+06
-1.93338e+06
-1.94201e+06
-1.95003e+06
-1.95717e+06
-1.96386e+06
-1.97131e+06
-1.97985e+06
-1.98876e+06
-1.99692e+06
-2.00377e+06
-2.01091e+06
-2.01929e+06
-2.02865e+06
-2.03789e+06
-2.04452e+06
-2.05008e+06
-2.05741e+06
-2.06653e+06
-2.07573e+06
-2.08367e+06
-2.08961e+06
-2.09551e+06
-2.10435e+06
-2.1143e+06
-2.12237e+06
-2.12878e+06
-2.13464e+06
-2.14133e+06
-2.15e+06
-2.15896e+06
-2.16596e+06
-2.17152e+06
-2.17706e+06
-2.18454e+06
-2.19391e+06
-2.20232e+06
-2.20881e+06
-2.21418e+06
-2.2196e+06
-2.22699e+06
-2.23586e+06
-2.24353e+06
-2.24909e+06
-2.25347e+06
-2.25867e+06
-2.26658e+06
-2.27542e+06
-2.28219e+06
-2.28678e+06
-2.29098e+06
-2.29655e+06
-2.30391e+06
-2.31162e+06
-2.31765e+06
-2.32157e+06
-2.32521e+06
-2.33073e+06
-2.33815e+06
-2.34548e+06
-2.35086e+06
-2.35417e+06
-2.35742e+06
-2.36292e+06
-2.37027e+06
-2.37667e+06
-2.38065e+06
-2.38316e+06
-2.3864e+06
-2.39178e+06
-2.39834e+06
-2.40373e+06
-2.40661e+06
-2.40833e+06
-2.41124e+06
-2.41602e+06
-2.42125e+06
-2.42495e+06
-2.42653e+06
-2.42734e+06
-2.42931e+06
-2.4327e+06
-2.43593e+06
-2.43742e+06
-2.437e+06
-2.43602e+06
-2.43567e+06
-2.43606e+06
-2.43597e+06
-2.43414e+06
-2.43043e+06
-2.42577e+06
-2.42111e+06
-2.41648e+06
-2.41102e+06
-2.40376e+06
-2.39452e+06
-2.38371e+06
-2.372e+06
-2.35945e+06
-2.34572e+06
-2.33019e+06
-2.31248e+06
-2.29253e+06
-2.27066e+06
-2.24723e+06
-2.22212e+06
-2.19512e+06
-2.16577e+06
-2.13392e+06
-2.09962e+06
-2.06321e+06
-2.02483e+06
-1.98438e+06
-1.94171e+06
-1.89664e+06
-1.84939e+06
-1.80011e+06
-1.74903e+06
-1.69625e+06
-1.64178e+06
-1.58569e+06
-1.52826e+06
-1.46959e+06
-1.41002e+06
-1.34976e+06
-1.28901e+06
-1.228e+06
-1.16689e+06
-1.10589e+06
-1.04533e+06
-985496
-926608
-868878
-812392
-757396
-704055
-652587
-603152
-555800
-510646
-467783
-427304
-389163
-353333
-319794
-288539
-259588
-232792
-208157
-185590
-164981
-146225
-129226
-113880
-100053
-87651.6
-76544.9
-66667.3
-57897
-50117.8
-43275.5
-37272.3
-32006.1
-27413.1
-23407.6
-19942.6
-16946.2
-14368.9
-12099.9
-10171.2
-8510.28
-7128.18
-5960.5
-4845.28
-3933.75
-3097.58
-2535.86
-2243.84
-2181.43
-2086.78
-1970.7
-1748.75
-633.901
1789.02
947.963
-2993.47
-2537.36
2303.88
4460.36
-401.938
-5955.22
-1692.04
4595.74
3646.66
-1964.87
-5138.34
-2322.46
2288.59
3618.41
3724.58
3901.64
3532.73
-97.8626
-6237.24
-6168.28
-4795.2
-428.901
3515.79
2676.49
336.663
1342.43
4722.75
2606.47
-3321.97
-3690.67
-627.67
3562.47
-462.533
-4708.28
-1686.69
3669.22
3934.05
-3539.82
-6875.12
-4136.71
3485.09
8299
4294.56
-5423
-6506.5
4520.46
12421.1
10916.5
2628.27
-9993.09
-8688.65
572.954
6681.53
4397.16
-3166.02
-6970.49
-4471.62
628.674
3923.82
3871.48
176.532
-3745.75
-2443.83
1161.55
2595.27
1525.31
-1693.89
-2240.92
9.91724
2084.57
2245.58
394.236
-1539.04
-349.019
1884.47
1987.86
437.678
-852.319
-205.613
1580.05
1039.31
-976.702
-678.773
1518.65
2441.17
737.391
-1055.95
-554.687
982.683
2566.02
2503.75
3166.28
1297.65
-2283.98
-1850.89
866.651
2813.04
1430.28
-2467.52
-2607.73
7.76138
2605.78
1237.77
-1988.01
-1630.63
766.709
2001.17
-390.183
-1927.46
-680.62
1170.71
1349.91
-734.076
-1380.46
-241.784
1562.2
1103.98
-970.003
-1635.29
-617.902
1785.73
2302.57
-712.792
-2559.76
-73.9849
3593.03
3158.76
-581.574
-3286.18
-1171.66
2904.39
4211.06
3988.84
2917
-1762.09
-4498.72
-2800.05
1250.02
3775.15
3968.64
1987.73
-3562.28
-5207.54
-3642.88
-1592.87
2296.61
3407.46
1891.91
-1586.93
-2511.09
357.369
3265.23
798.428
-3161.7
-250.496
3211.82
2398.05
-1108.78
-2970.36
13.7511
3495.3
2894.27
-456.707
-2986.2
-1224.75
2215.89
3191.11
2786.43
-286.742
-2788.27
-2117.59
-575.107
2038.22
3480.97
4265.37
-399.315
-4814.45
-3197.82
-480.053
2280.92
1925.03
-1915.26
-1190.79
2732.6
5046.35
384.644
-3425.11
-1798.73
3520.82
8141.43
2943.01
-6190.38
-5575.47
-556.862
8102.93
12829.8
-1418.24
-11899.5
-7100.63
1388.6
14259.4
15166.7
-13791.5
-18448.2
-8107.02
6481.86
27131.5
12265.7
-33159.7
-29788.8
-12045.6
31046.7
40044.6
-46750.9
-25565.2
29916.8
-95.9577
-39307.4
46764.4
24550
-65884.8
6029.34
81912.8
-56202.8
-69821.9
64303.7
90063.3
-125461
-63990.9
117539
72450.8
-173267
-63792.4
174676
79986.2
-228519
-80847.5
227122
110776
-292152
-117382
262794
191097
-349053
-206864
263953
338539
-373013
-334713
226380
510119
-370169
-459484
129522
644772
-225303
-622596
95552.5
750247
-209457
-742668
48580
832826
-94801.1
-823202
3338.82
929386
41017.5
-930265
-32495.1
1.03239e+06
91914.1
-1.18031e+06
-557478
736690
957810
-674933
-654428
696942
1.22093e+06
-988247
-1.24803e+06
30842.3
1.37786e+06
196540
-1.3624e+06
-685148
875550
1.36028e+06
-952136
-1.32752e+06
64880.8
1.5488e+06
229549
-1.43573e+06
-706449
963886
1.27217e+06
-1.0131e+06
-1.02701e+06
368279
1.3665e+06
-273389
-1.24752e+06
-11225.9
1.79163e+06
521870
-1.5574e+06
-779612
634392
1.23502e+06
-480188
-1.05338e+06
-222953
1.04657e+06
780598
-1.00058e+06
-1.48936e+06
-73608.1
1.93356e+06
564119
-1.57077e+06
-887840
826487
1.30266e+06
-606933
-1.12347e+06
97541.8
947891
89735.5
-732907
-235658
294767
70315.4
-275046
159209
177661
-286523
-82488.3
203469
297.338
-168687
120680
139974
-151056
-44506.9
120668
17414
-84630.2
65002
113089
-55888.2
-24302.5
87926.2
23107.3
-31275.4
36221.7
57999.7
-923.237
11393.4
40166.4
9947.62
-2658.59
27116.3
22553.8
-701.517
14853.7
24918.8
-489.168
-3967.57
20585
16204.3
-9980.67
-9368.73
12196.3
14171
-9270.61
-5271.02
16067.6
5682.63
)
;

boundaryField
{
    sides
    {
        type            calculated;
        value           nonuniform List<scalar> 2(5682.63 2336.45);
    }
    empty
    {
        type            empty;
    }
}


// ************************************************************************* //
