/*--------------------------------*- C++ -*----------------------------------*\
  =========                 |
  \\      /  F ield         | OpenFOAM: The Open Source CFD Toolbox
   \\    /   O peration     | Website:  https://openfoam.org
    \\  /    A nd           | Version:  9
     \\/     M anipulation  |
\*---------------------------------------------------------------------------*/
FoamFile
{
    format      ascii;
    class       volScalarField;
    location    "0.024";
    object      ddt0(rho);
}
// * * * * * * * * * * * * * * * * * * * * * * * * * * * * * * * * * * * * * //

dimensions      [1 -3 -1 0 0 0 0];

internalField   nonuniform List<scalar> 
1000
(
-23.2983
-23.2824
-23.2705
-23.2699
-23.2477
-23.2118
-23.1852
-23.1821
-23.2017
-23.2328
-23.2618
-23.2799
-23.2841
-23.2822
-23.287
-23.3103
-23.3219
-23.3158
-23.3112
-23.3066
-23.302
-23.298
-23.294
-23.29
-23.2862
-23.2824
-23.2786
-23.2747
-23.271
-23.2673
-23.2634
-23.2594
-23.2555
-23.2516
-23.2477
-23.2439
-23.2401
-23.2363
-23.2325
-23.2287
-23.2248
-23.2209
-23.2169
-23.2129
-23.2089
-23.2049
-23.2009
-23.1967
-23.1925
-23.1883
-23.1841
-23.1798
-23.1756
-23.1713
-23.1669
-23.1626
-23.1583
-23.154
-23.1497
-23.1453
-23.1411
-23.1368
-23.1326
-23.1283
-23.1241
-23.1199
-23.1156
-23.1114
-23.1071
-23.1028
-23.0986
-23.0943
-23.09
-23.0858
-23.0815
-23.0771
-23.0728
-23.0684
-23.064
-23.0595
-23.0551
-23.0506
-23.0461
-23.0416
-23.0371
-23.0326
-23.028
-23.0234
-23.0187
-23.0141
-23.0094
-23.0048
-23.0001
-22.9955
-22.9908
-22.9861
-22.9814
-22.9767
-22.972
-22.9673
-22.9626
-22.9578
-22.953
-22.9483
-22.9435
-22.9387
-22.9338
-22.929
-22.9242
-22.9192
-22.9145
-22.9093
-22.9049
-22.899
-22.8957
-22.8881
-22.8872
-22.8761
-22.8793
-22.8639
-22.8712
-22.8536
-22.8575
-22.8493
-22.8423
-22.8393
-22.8347
-22.8282
-22.8224
-22.821
-22.8077
-22.8167
-22.7886
-22.8138
-22.7749
-22.7967
-22.7814
-22.7606
-22.795
-22.7391
-22.772
-22.762
-22.7203
-22.7754
-22.719
-22.7209
-22.76
-22.6834
-22.7266
-22.7319
-22.6605
-22.727
-22.6985
-22.6475
-22.7207
-22.663
-22.6415
-22.7057
-22.6333
-22.6354
-22.6863
-22.6065
-22.6277
-22.6671
-22.5818
-22.6162
-22.6498
-22.5579
-22.5996
-22.637
-22.5359
-22.5743
-22.6281
-22.5209
-22.5396
-22.617
-22.517
-22.5007
-22.5952
-22.5216
-22.4694
-22.562
-22.5225
-22.4468
-22.5293
-22.5205
-22.4214
-22.4911
-22.5298
-22.4059
-22.4269
-22.5312
-22.431
-22.3609
-22.4809
-22.4707
-22.3468
-22.4053
-22.4689
-22.3591
-22.349
-22.4516
-22.3801
-22.2849
-22.3958
-22.4368
-22.284
-22.2775
-22.4153
-22.3605
-22.2353
-22.3168
-22.3814
-22.2558
-22.2318
-22.3608
-22.3183
-22.1688
-22.2387
-22.3662
-22.2541
-22.1335
-22.2465
-22.3173
-22.1786
-22.1369
-22.2724
-22.2567
-22.0912
-22.1239
-22.2857
-22.2189
-22.0441
-22.1064
-22.2487
-22.1555
-22.0213
-22.1243
-22.2267
-22.0812
-21.9639
-22.109
-22.2152
-22.0562
-21.9383
-22.0744
-22.1602
-22.0015
-21.9148
-22.0756
-22.1494
-21.9598
-21.8531
-22.0181
-22.1176
-21.9524
-21.8412
-21.9859
-22.0795
-21.9122
-21.7822
-21.9263
-22.0654
-21.931
-21.7633
-21.8547
-22.0063
-21.9121
-21.7299
-21.7866
-21.9714
-21.9368
-21.7291
-21.7014
-21.8793
-21.9245
-21.7416
-21.6442
-21.7945
-21.9159
-21.7812
-21.6059
-21.6714
-21.8418
-21.8086
-21.6189
-21.5873
-21.7532
-21.8194
-21.6585
-21.5245
-21.621
-21.7651
-21.7004
-21.5228
-21.5144
-21.674
-21.7243
-21.5683
-21.4444
-21.5355
-21.6747
-21.6211
-21.4464
-21.4148
-21.5594
-21.6343
-21.5076
-21.3661
-21.4154
-21.5586
-21.5534
-21.3909
-21.3055
-21.4096
-21.5246
-21.4586
-21.2989
-21.2741
-21.405
-21.4778
-21.3698
-21.2298
-21.2524
-21.387
-21.4171
-21.2834
-21.1683
-21.224
-21.35
-21.3454
-21.2028
-21.1139
-21.1898
-21.3038
-21.2761
-21.1307
-21.0595
-21.1462
-21.2492
-21.2054
-21.062
-21.0044
-21.0951
-21.1894
-21.1406
-21.0016
-20.9488
-21.037
-21.1275
-21.0802
-20.9446
-20.8883
-20.9699
-21.0611
-21.0216
-20.8883
-20.824
-20.8961
-20.9892
-20.9627
-20.8364
-20.7596
-20.8143
-20.911
-20.906
-20.7877
-20.6936
-20.7293
-20.8279
-20.8429
-20.7405
-20.6353
-20.641
-20.7318
-20.7752
-20.6978
-20.5795
-20.5518
-20.63
-20.6966
-20.6506
-20.5314
-20.4683
-20.5209
-20.6041
-20.5954
-20.4878
-20.3955
-20.411
-20.4946
-20.5247
-20.4461
-20.3361
-20.307
-20.371
-20.4322
-20.3998
-20.2908
-20.2122
-20.2412
-20.3225
-20.3351
-20.2425
-20.141
-20.1261
-20.1862
-20.234
-20.1974
-20.0954
-20.0157
-20.0374
-20.1183
-20.1299
-20.0385
-19.9381
-19.9144
-19.9666
-20.0157
-19.984
-19.8849
-19.8052
-19.7988
-19.8795
-19.8784
-19.8014
-19.7543
-19.6973
-19.7122
-19.7394
-19.754
-19.6928
-19.6651
-19.6108
-19.5629
-19.562
-19.5816
-19.5696
-19.513
-19.4493
-19.4236
-19.4337
-19.4457
-19.4237
-19.3589
-19.3062
-19.2957
-19.318
-19.3377
-19.2823
-19.1976
-19.1665
-19.188
-19.2105
-19.195
-19.1214
-19.0479
-19.0601
-19.1055
-19.0991
-19.0479
-18.9851
-18.9501
-18.974
-19.0084
-18.9888
-18.929
-18.8689
-18.8633
-18.9114
-18.9349
-18.9087
-18.8554
-18.8077
-18.8179
-18.8723
-18.8965
-18.8656
-18.8047
-18.7682
-18.8073
-18.8735
-18.8864
-18.8443
-18.7958
-18.7877
-18.8312
-18.8873
-18.9011
-18.8611
-18.8156
-18.8213
-18.8789
-18.9361
-18.944
-18.9004
-18.8583
-18.8782
-18.9496
-18.9988
-18.9876
-18.9399
-18.9135
-18.9448
-19.0092
-19.0464
-19.0222
-18.972
-18.956
-18.9914
-19.042
-19.0573
-19.0225
-18.9725
-18.9574
-18.9839
-19.0126
-19.0042
-18.9554
-18.901
-18.8714
-18.8705
-18.8682
-18.8343
-18.7659
-18.6882
-18.6257
-18.5805
-18.5324
-18.4589
-18.3569
-18.2384
-18.1208
-18.0078
-17.892
-17.7601
-17.6039
-17.4239
-17.2294
-17.0301
-16.8243
-16.6081
-16.3709
-16.1104
-15.8281
-15.5327
-15.2278
-14.9109
-14.5778
-14.224
-13.8533
-13.4683
-13.0731
-12.6678
-12.2504
-11.8204
-11.3814
-10.9331
-10.48
-10.0238
-9.56511
-9.10592
-8.64602
-8.18649
-7.73124
-7.28324
-6.84378
-6.41423
-5.99317
-5.58334
-5.18575
-4.80298
-4.43651
-4.08554
-3.75115
-3.43423
-3.13617
-2.85545
-2.59136
-2.3437
-2.11275
-1.89973
-1.70199
-1.52077
-1.35516
-1.20399
-1.06639
-0.941799
-0.829564
-0.728297
-0.637628
-0.556188
-0.484077
-0.420065
-0.362942
-0.312976
-0.269175
-0.230604
-0.197053
-0.167656
-0.142381
-0.120522
-0.101955
-0.0849129
-0.0708929
-0.0586471
-0.0492923
-0.0406903
-0.0312603
-0.0256426
-0.0186544
-0.0152139
-0.0138098
-0.0140301
-0.0127439
-0.0131993
-0.0123622
-0.000971311
0.026866
0.0105187
-0.0347011
-0.0197455
0.0338274
0.0510504
-0.00941472
-0.0709962
-0.00189853
0.0633721
0.0322022
-0.026453
-0.0498979
-0.0140559
0.0341855
0.0347436
0.0329321
0.0357129
0.0357319
-0.00133829
-0.0716413
-0.0438975
-0.0377241
0.00610298
0.0413848
0.0202916
-0.00271162
0.014787
0.0590169
0.0265649
-0.0430185
-0.0275479
0.0008405
0.0530205
-0.0161517
-0.0511991
-9.72662e-05
0.0451057
0.0422255
-0.0423203
-0.0658594
-0.0349487
0.0515684
0.0892336
0.0366192
-0.0777292
-0.0650673
0.0747055
0.126058
0.0939466
0.0242782
-0.130742
-0.0712468
0.038206
0.075363
0.0376686
-0.0385561
-0.0664861
-0.0313287
0.0211128
0.0443447
0.0371876
-0.00532045
-0.0400838
-0.0140284
0.0221463
0.0285869
0.0164012
-0.020628
-0.0176403
0.00885434
0.0261844
0.0228233
0.00325557
-0.0174242
0.000807279
0.0268805
0.0206025
0.00319917
-0.00750098
0.00142614
0.0238302
0.0121042
-0.0117953
-0.00291464
0.023699
0.0284888
0.00442268
-0.011086
-0.00103248
0.0145795
0.030852
0.0193672
0.0347122
0.0138934
-0.0287444
-0.0116236
0.0199259
0.0351177
0.0145056
-0.0282244
-0.017964
0.00520929
0.0361064
0.0164556
-0.0246389
-0.010105
0.0186566
0.0283984
-0.00843179
-0.016886
0.00430797
0.017355
0.0155813
-0.00427071
-0.0088623
-0.00178074
0.0252621
0.0168076
-0.0137263
-0.011176
0.00241297
0.0234422
0.0265992
-0.00731751
-0.0250564
0.00602021
0.0483341
0.0304448
-0.011834
-0.0318372
-0.00312666
0.0397533
0.0418807
0.0370799
0.0313154
-0.0220325
-0.0426976
-0.0187367
0.0274077
0.0434872
0.0391515
0.0233238
-0.0384025
-0.0416515
-0.0228349
-0.00878684
0.0382451
0.0358875
0.0151011
-0.0149731
-0.0193893
0.00880227
0.0441918
0.00696106
-0.0385054
0.013413
0.0414178
0.021582
-0.0129649
-0.0284189
0.01046
0.045901
0.0268359
-0.00505212
-0.0271443
-0.00381092
0.0360451
0.0363593
0.0300941
-0.00415465
-0.0258961
-0.00838738
0.00213293
0.0270618
0.0418822
0.0492072
-0.0126412
-0.0438365
-0.0122951
0.00351913
0.034348
0.028524
-0.0256635
-0.00084733
0.0404129
0.0602091
0.00124853
-0.0348717
-0.0072837
0.0576703
0.0959804
0.021501
-0.0752064
-0.0311667
0.0202865
0.103757
0.153253
-0.0366134
-0.119713
-0.0284689
0.0502004
0.176441
0.183417
-0.207686
-0.137274
-0.00872591
0.111143
0.344067
0.124786
-0.444432
-0.168218
-0.00992741
0.464124
0.55702
-0.704248
-0.0700767
0.484188
-0.0288122
-0.452566
0.79951
0.228647
-0.852096
0.304438
1.20054
-0.923589
-0.535008
1.12808
1.23401
-2.03175
-0.230716
1.83111
0.850546
-2.4395
-0.0895663
2.54692
0.786484
-3.12004
-0.115915
3.29969
1.1351
-3.96078
-0.209869
3.74979
1.84646
-4.92618
-0.989695
4.02362
4.23129
-5.65328
-2.46369
3.67123
6.78853
-6.53935
-3.72973
2.92665
8.71537
-4.74512
-6.36781
3.0906
9.8768
-4.60302
-7.70995
2.9194
10.5721
-3.32328
-8.9729
2.78328
11.5446
-2.10498
-10.8675
3.25757
12.6311
-2.11995
-13.3686
-1.80808
10.0968
10.1517
-11.0482
-4.41669
9.7442
15.0794
-17.1259
-10.5478
4.96495
16.7359
-2.47606
-15.6805
-2.79155
11.8479
16.2464
-16.9787
-11.6157
5.38331
19.1718
-1.65371
-17.3937
-4.38326
13.7467
15.6069
-17.9106
-8.14674
5.79668
16.4962
-5.51813
-14.0105
1.71913
23.2062
1.66634
-20.3081
-2.80653
7.33213
14.2145
-8.66509
-10.3533
-0.263489
13.1567
7.15382
-12.6411
-14.7577
0.357141
25.6544
1.46185
-20.5549
-4.70911
11.0013
15.1558
-11.3183
-11.4566
4.42182
11.1618
-1.32259
-8.92871
-0.33459
4.11278
0.109212
-3.95136
3.14496
2.03702
-4.56002
0.0910095
2.73519
-0.607207
-2.29069
2.17363
1.59064
-2.58642
0.0891808
1.58094
-0.12539
-1.13272
1.04417
1.38161
-1.16489
-0.118098
1.19666
-0.0252649
-0.481273
0.473869
0.587964
-0.266989
0.1066
0.428263
-0.0617443
-0.125855
0.314176
0.156175
-0.120377
0.159437
0.260607
-0.0786034
-0.0573091
0.286766
0.161088
-0.140798
-0.0495958
0.195155
0.188313
-0.130246
0.00613695
0.296821
0.0154913
)
;

boundaryField
{
    sides
    {
        type            calculated;
        value           nonuniform List<scalar> 2(0.0154913 -23.2983);
    }
    empty
    {
        type            empty;
    }
}


// ************************************************************************* //
