/*--------------------------------*- C++ -*----------------------------------*\
  =========                 |
  \\      /  F ield         | OpenFOAM: The Open Source CFD Toolbox
   \\    /   O peration     | Website:  https://openfoam.org
    \\  /    A nd           | Version:  9
     \\/     M anipulation  |
\*---------------------------------------------------------------------------*/
FoamFile
{
    format      ascii;
    class       volScalarField;
    location    "0.024";
    object      ddt0(rho,e);
}
// * * * * * * * * * * * * * * * * * * * * * * * * * * * * * * * * * * * * * //

dimensions      [1 -1 -3 0 0 0 0];

internalField   nonuniform List<scalar> 
1000
(
1.1667e+06
1.16381e+06
1.16139e+06
1.16224e+06
1.15681e+06
1.1473e+06
1.14052e+06
1.14084e+06
1.14794e+06
1.15845e+06
1.16838e+06
1.17501e+06
1.17749e+06
1.17815e+06
1.18073e+06
1.18903e+06
1.19388e+06
1.19335e+06
1.1931e+06
1.19294e+06
1.19287e+06
1.19289e+06
1.19297e+06
1.19307e+06
1.1932e+06
1.19334e+06
1.19348e+06
1.19362e+06
1.19378e+06
1.19393e+06
1.19408e+06
1.19422e+06
1.19436e+06
1.1945e+06
1.19465e+06
1.1948e+06
1.19495e+06
1.1951e+06
1.19525e+06
1.1954e+06
1.19555e+06
1.19569e+06
1.19583e+06
1.19598e+06
1.19612e+06
1.19626e+06
1.1964e+06
1.19654e+06
1.19667e+06
1.1968e+06
1.19693e+06
1.19706e+06
1.19719e+06
1.19732e+06
1.19744e+06
1.19757e+06
1.1977e+06
1.19782e+06
1.19795e+06
1.19808e+06
1.19821e+06
1.19834e+06
1.19847e+06
1.1986e+06
1.19874e+06
1.19887e+06
1.199e+06
1.19913e+06
1.19927e+06
1.1994e+06
1.19953e+06
1.19966e+06
1.1998e+06
1.19993e+06
1.20006e+06
1.20019e+06
1.20032e+06
1.20045e+06
1.20057e+06
1.2007e+06
1.20082e+06
1.20095e+06
1.20107e+06
1.20119e+06
1.20131e+06
1.20143e+06
1.20155e+06
1.20167e+06
1.20179e+06
1.2019e+06
1.20202e+06
1.20213e+06
1.20225e+06
1.20237e+06
1.20248e+06
1.2026e+06
1.20271e+06
1.20283e+06
1.20294e+06
1.20305e+06
1.20317e+06
1.20328e+06
1.20339e+06
1.2035e+06
1.20361e+06
1.20372e+06
1.20383e+06
1.20394e+06
1.20406e+06
1.20414e+06
1.20429e+06
1.20431e+06
1.20458e+06
1.20439e+06
1.20499e+06
1.20429e+06
1.20564e+06
1.20392e+06
1.2065e+06
1.20344e+06
1.20721e+06
1.20364e+06
1.20653e+06
1.20561e+06
1.20513e+06
1.20584e+06
1.20618e+06
1.20588e+06
1.20571e+06
1.20693e+06
1.20468e+06
1.20906e+06
1.20231e+06
1.21157e+06
1.2016e+06
1.20986e+06
1.20697e+06
1.20242e+06
1.21443e+06
1.19937e+06
1.21097e+06
1.20967e+06
1.19888e+06
1.21721e+06
1.20199e+06
1.20434e+06
1.21788e+06
1.19665e+06
1.2113e+06
1.21472e+06
1.19497e+06
1.21695e+06
1.20987e+06
1.19654e+06
1.2202e+06
1.20489e+06
1.2001e+06
1.22116e+06
1.20129e+06
1.20381e+06
1.22092e+06
1.19878e+06
1.20697e+06
1.22064e+06
1.1969e+06
1.20912e+06
1.22106e+06
1.19532e+06
1.20974e+06
1.22287e+06
1.19442e+06
1.20784e+06
1.22588e+06
1.1956e+06
1.20315e+06
1.22831e+06
1.20019e+06
1.19725e+06
1.22754e+06
1.20738e+06
1.19369e+06
1.22345e+06
1.21352e+06
1.19277e+06
1.21954e+06
1.21886e+06
1.1911e+06
1.21402e+06
1.22762e+06
1.19242e+06
1.20075e+06
1.23407e+06
1.20599e+06
1.187e+06
1.22507e+06
1.22401e+06
1.18886e+06
1.20852e+06
1.22963e+06
1.19872e+06
1.19778e+06
1.23065e+06
1.21124e+06
1.18477e+06
1.22019e+06
1.23455e+06
1.19079e+06
1.19097e+06
1.23447e+06
1.2201e+06
1.18465e+06
1.21128e+06
1.23281e+06
1.19723e+06
1.19219e+06
1.23309e+06
1.22245e+06
1.17979e+06
1.20297e+06
1.2434e+06
1.21191e+06
1.17796e+06
1.21412e+06
1.23753e+06
1.19809e+06
1.18785e+06
1.23076e+06
1.22826e+06
1.18083e+06
1.19294e+06
1.24376e+06
1.22591e+06
1.17574e+06
1.19678e+06
1.24174e+06
1.21604e+06
1.17807e+06
1.21133e+06
1.24436e+06
1.20297e+06
1.17015e+06
1.21604e+06
1.25022e+06
1.20483e+06
1.17184e+06
1.21508e+06
1.24316e+06
1.19786e+06
1.17429e+06
1.22494e+06
1.24945e+06
1.19493e+06
1.16538e+06
1.21734e+06
1.24957e+06
1.2024e+06
1.1715e+06
1.21741e+06
1.24792e+06
1.20015e+06
1.16365e+06
1.20938e+06
1.25357e+06
1.21569e+06
1.16792e+06
1.19788e+06
1.24587e+06
1.22008e+06
1.16797e+06
1.18756e+06
1.24553e+06
1.23767e+06
1.17792e+06
1.17224e+06
1.22818e+06
1.2443e+06
1.19199e+06
1.1654e+06
1.21315e+06
1.25213e+06
1.21432e+06
1.1644e+06
1.18673e+06
1.2405e+06
1.23316e+06
1.17891e+06
1.17216e+06
1.22463e+06
1.24713e+06
1.20154e+06
1.16409e+06
1.1958e+06
1.24174e+06
1.22501e+06
1.1745e+06
1.17477e+06
1.22541e+06
1.24325e+06
1.1992e+06
1.16485e+06
1.19502e+06
1.23958e+06
1.22626e+06
1.1767e+06
1.17012e+06
1.21635e+06
1.24164e+06
1.20646e+06
1.16693e+06
1.18463e+06
1.23048e+06
1.23179e+06
1.18597e+06
1.16331e+06
1.1975e+06
1.23491e+06
1.21804e+06
1.17313e+06
1.1687e+06
1.21097e+06
1.23576e+06
1.20635e+06
1.16741e+06
1.17724e+06
1.22065e+06
1.23272e+06
1.19566e+06
1.16424e+06
1.18408e+06
1.22496e+06
1.22666e+06
1.18701e+06
1.16351e+06
1.18945e+06
1.22681e+06
1.22165e+06
1.18123e+06
1.16309e+06
1.19233e+06
1.22643e+06
1.21652e+06
1.17676e+06
1.16279e+06
1.19329e+06
1.22484e+06
1.21348e+06
1.17513e+06
1.16265e+06
1.19246e+06
1.22293e+06
1.21211e+06
1.17482e+06
1.16138e+06
1.18928e+06
1.22004e+06
1.21163e+06
1.17513e+06
1.15935e+06
1.1845e+06
1.21593e+06
1.21151e+06
1.17717e+06
1.15773e+06
1.17775e+06
1.21035e+06
1.21245e+06
1.1806e+06
1.15608e+06
1.17048e+06
1.20373e+06
1.21193e+06
1.18496e+06
1.15718e+06
1.16269e+06
1.19368e+06
1.2105e+06
1.19113e+06
1.1595e+06
1.1551e+06
1.18245e+06
1.20633e+06
1.19648e+06
1.16469e+06
1.14978e+06
1.16957e+06
1.19857e+06
1.2e+06
1.17183e+06
1.14828e+06
1.1571e+06
1.18633e+06
1.19955e+06
1.1802e+06
1.15144e+06
1.14701e+06
1.17052e+06
1.19317e+06
1.18779e+06
1.15948e+06
1.14033e+06
1.15349e+06
1.18234e+06
1.19059e+06
1.16734e+06
1.14146e+06
1.1416e+06
1.16426e+06
1.18322e+06
1.17693e+06
1.15106e+06
1.13191e+06
1.14321e+06
1.17227e+06
1.18059e+06
1.15803e+06
1.13286e+06
1.13071e+06
1.15138e+06
1.17115e+06
1.16677e+06
1.14226e+06
1.12362e+06
1.1286e+06
1.15383e+06
1.1647e+06
1.14574e+06
1.13685e+06
1.12287e+06
1.13039e+06
1.139e+06
1.14388e+06
1.14384e+06
1.13679e+06
1.12525e+06
1.11698e+06
1.12287e+06
1.13642e+06
1.1378e+06
1.12476e+06
1.11107e+06
1.1101e+06
1.11961e+06
1.12843e+06
1.12605e+06
1.11065e+06
1.0993e+06
1.10109e+06
1.11287e+06
1.12393e+06
1.11246e+06
1.09231e+06
1.08824e+06
1.09975e+06
1.11121e+06
1.11091e+06
1.09301e+06
1.07498e+06
1.08257e+06
1.09995e+06
1.1017e+06
1.09003e+06
1.07493e+06
1.0682e+06
1.07912e+06
1.09294e+06
1.09021e+06
1.07501e+06
1.05923e+06
1.05943e+06
1.07537e+06
1.08373e+06
1.07701e+06
1.06203e+06
1.04866e+06
1.05249e+06
1.06937e+06
1.07696e+06
1.06767e+06
1.04905e+06
1.0374e+06
1.04806e+06
1.06658e+06
1.06888e+06
1.05452e+06
1.03812e+06
1.03374e+06
1.04475e+06
1.05936e+06
1.06105e+06
1.04639e+06
1.02983e+06
1.02842e+06
1.04231e+06
1.05592e+06
1.05466e+06
1.03792e+06
1.02165e+06
1.02406e+06
1.04193e+06
1.05319e+06
1.04631e+06
1.02852e+06
1.01714e+06
1.02313e+06
1.0392e+06
1.04731e+06
1.03723e+06
1.01966e+06
1.01263e+06
1.02134e+06
1.03493e+06
1.03823e+06
1.02692e+06
1.01152e+06
1.00713e+06
1.01582e+06
1.02582e+06
1.02546e+06
1.0138e+06
1.00137e+06
997400
1.00307e+06
1.00953e+06
1.00779e+06
997100
985144
979447
980722
983093
979908
970445
958405
949224
944112
941061
936172
927220
914438
900799
889350
879635
870601
859178
844732
827754
810923
795234
779969
763819
745270
725406
704800
684487
664262
643289
621096
598432
574892
551450
528139
504793
481546
457915
433791
409909
386735
364231
342414
320491
298949
277790
257521
238341
219812
202090
185325
169864
155223
141207
127796
115141
103706
92806.2
82947.8
74010.3
65818.8
58305.6
51502.9
45428.9
39870.9
34938.8
30393.8
26477.8
22969.9
19712.9
16929.4
14479.2
12280.5
10362.5
8658.18
7206.73
5959.97
4954.45
3821.4
2948.67
2324.71
1973.98
1423.11
697.132
413.52
-30.1418
-224.009
-285.279
-210.669
-196.695
-56.1484
23.3762
-494.55
-2044.35
-375.077
-402.616
28.3454
-2390.37
-4001.27
1283.78
981.771
-1428.79
-4205.87
-2082.75
-85.2212
91.9562
166.658
-2433.56
-2097.79
-2749.62
-2990.29
-3450.31
847.739
-495.624
840.909
1835.79
-1103.37
-2606.84
-1595.23
-1268.4
-2149.05
-3726.06
-1688.78
-282.531
253.638
-869.815
-5085.71
2186.78
-394.508
-743.038
-3202.35
-2438.87
-275.042
870.732
1359.8
-3428.9
-4571.49
-2379.67
387.853
2417.97
-4963.79
-5560.59
-7158.4
-121.286
1400.32
2964.41
-2837.18
-4468.25
-2714.58
-147.437
478.517
1326.23
-1636.05
-3177.98
-3642.42
551.579
-1096.38
-292.5
-1623.78
-2630.76
-1386.32
-1846.98
-174.881
-1373.38
-2616.53
-2858.36
-734.303
-921.883
-1408.47
-2491.91
-2615.74
-1445.25
-1326.08
-1612.36
-2168.65
-989.641
-1999.79
-1441.44
-2531.94
-3129.78
-702.349
-1563.92
-1398.72
-1874.4
-2782.93
-2422.21
-3350.07
-565.749
-1817.82
-950.484
-2102.56
-3363.14
-1146.98
-1955.79
-486.202
-1262.19
-3357.44
-715.459
-2187.31
-1098.25
-2140.15
-2956.99
-1135.02
-1228.74
-1705.64
-2125.82
-1951.82
-2758.53
-692.27
-1343.83
-2784.82
-1443.25
-2075.54
-1302.49
-1225.12
-1907.47
-2698.12
-1652.05
-778.806
-1638.1
-3887.82
-2667.46
-1533.95
-773.286
-1225.19
-3027.94
-3410.42
-3329.92
-3436.8
-945.826
-649.978
-225.147
-2484.3
-3816.66
-3953.9
-2052.72
-2989.98
-360.28
-234.111
-860.036
-3294.54
-3465.07
-1877.48
-2656.83
-711.804
-1669.05
-4503.06
-30.4733
-1376.02
-2398.89
-4126.33
-1954.51
-1284.66
-929.983
-1910.73
-4097.65
-2780.39
-1958.54
-1593.1
-2044.39
-3677.19
-3980.96
-4395.55
-735.376
-2539.1
-1687.11
-1836.83
-2763.43
-3816.03
-5251.98
479.699
-2394.04
-1448.69
-2055.01
-3466.75
-1441.12
-4246.8
-1898.46
-3399.33
-4857.57
-2630.23
-1595.55
-652.41
-4079.15
-7925.72
218.482
-3371.46
-500.996
-2003.84
-5893.16
-9562.47
-2646.74
-285.116
-710.764
-2526.5
-11811.3
-5428.31
-1992.42
4553.22
-580.843
-3910.57
-22059.9
3419.36
3064.53
4574.57
929.226
-30256.1
-9645.83
8863.11
4568.76
-25925
15314.1
21557.7
-61511.6
18423.2
16103.4
-26219.5
-31936.7
30850.8
23342
-77008.8
-19824.4
56839.2
14708.3
-115277
27127.9
52915.7
8016.8
-152729
56880.4
65441.8
9741.75
-190999
68482.6
85357.9
22926.9
-237327
50311
127170
66502.2
-263657
-36319.6
89355.6
209747
-253830
-172856
208293
130899
-200049
-295201
264004
182893
-229346
-296904
254023
220236
-197631
-407248
250328
290396
-132477
-615874
364367
303095
-133307
-771901
522407
316741
141540
-508348
-120579
257150
237375
-602888
-322010
232832
588783
-246279
-869572
540725
425373
178069
-614328
-283563
170953
653989
-375012
-860514
626120
337655
215683
-636030
-268458
322839
645944
-710906
-331965
266918
565476
-491912
-886619
452081
396568
216478
-572107
-277833
325702
242287
-30858.3
-729420
131918
165662
865471
-388131
-961929
409746
512305
187353
-620581
-329197
313636
623817
-447913
-397498
245125
236416
-32979.8
-118244
147848
134371
-246591
42828.3
126904
-40257.5
-119429
82720.8
71555.7
-160854
3271.58
51676.1
-22786.3
-101108
49486.4
-3762.49
-75952.9
-49387.3
-9946.58
-8220.01
-78973.6
28961.9
328.567
-29593.2
-13754.7
9908.47
-7429.78
-4583.55
9334.33
16097.9
-13807.2
9099.43
10967.8
-13865.8
-4907.05
-2359.12
-4934.23
-18643
-9586.39
-18113.2
-10779.5
-20496.2
-15812
-22187.5
-21194.9
-37218.9
-10319.4
)
;

boundaryField
{
    sides
    {
        type            calculated;
        value           nonuniform List<scalar> 2(-10319.4 1.1667e+06);
    }
    empty
    {
        type            empty;
    }
}


// ************************************************************************* //
