/*--------------------------------*- C++ -*----------------------------------*\
  =========                 |
  \\      /  F ield         | OpenFOAM: The Open Source CFD Toolbox
   \\    /   O peration     | Website:  https://openfoam.org
    \\  /    A nd           | Version:  9
     \\/     M anipulation  |
\*---------------------------------------------------------------------------*/
FoamFile
{
    format      ascii;
    class       surfaceScalarField;
    location    "0.024";
    object      ddtCorrDdt0(phi);
}
// * * * * * * * * * * * * * * * * * * * * * * * * * * * * * * * * * * * * * //

dimensions      [1 0 -2 0 0 0 0];

internalField   nonuniform List<scalar> 
999
(
123.531
22.8953
-78.053
-178.776
-278.504
-377.877
-478.102
-579.994
-682.874
-786.186
-889.211
-991.161
-1092.4
-1193.28
-1294.82
-1401.22
-1499.73
-1601.04
-1702.45
-1803.3
-1904.16
-2005.22
-2106
-2206.89
-2307.9
-2408.79
-2509.53
-2610.45
-2711.53
-2812.42
-2913.14
-3013.82
-3114.51
-3215.25
-3316.09
-3416.98
-3517.82
-3618.62
-3719.44
-3820.26
-3920.99
-4021.63
-4122.28
-4222.99
-4323.74
-4424.48
-4525.2
-4625.87
-4726.53
-4827.22
-4927.99
-5028.81
-5129.65
-5230.46
-5331.26
-5432.07
-5532.86
-5633.63
-5734.35
-5835.04
-5935.69
-6036.3
-6136.87
-6237.37
-6337.79
-6438.15
-6538.45
-6638.71
-6738.97
-6839.23
-6939.49
-7039.76
-7140.04
-7240.34
-7340.64
-7440.94
-7541.22
-7641.49
-7741.75
-7842.03
-7942.31
-8042.62
-8142.92
-8243.23
-8343.51
-8443.75
-8543.97
-8644.15
-8744.31
-8844.46
-8944.59
-9044.72
-9144.84
-9244.94
-9345.03
-9445.12
-9545.18
-9645.23
-9745.26
-9845.27
-9945.26
-10045.2
-10145.2
-10245.1
-10345
-10444.9
-10544.8
-10644.7
-10744.6
-10844.4
-10944.2
-11044.1
-11143.8
-11243.7
-11343.2
-11443
-11542.5
-11642.6
-11741.8
-11841.4
-11941
-12040.6
-12140.9
-12239.3
-12337.9
-12438.8
-12537.9
-12637.4
-12736.8
-12835.7
-12935.8
-13033.7
-13134.2
-13232.8
-13330.7
-13432.8
-13527.5
-13631
-13728.2
-13825.1
-13930.1
-14021.7
-14125
-14225.7
-14316.3
-14424.8
-14518.9
-14613.1
-14723.2
-14811.5
-14911.7
-15019.9
-15104.5
-15210.6
-15313.4
-15398.5
-15508.3
-15607.4
-15693.7
-15804.9
-15899.8
-15988.6
-16101.7
-16192.8
-16282.7
-16397.5
-16486
-16575.8
-16693.1
-16780.1
-16867
-16987.4
-17076.5
-17157.6
-17279
-17374.6
-17449.3
-17567
-17672.1
-17744.2
-17853.5
-17966
-18040
-18141.8
-18259.1
-18334.4
-18427.8
-18553.3
-18633.7
-18709.5
-18839.2
-18940.5
-18999.9
-19111.8
-19238.5
-19306.2
-19390.2
-19520.1
-19608.9
-19679.2
-19802.1
-19910
-19968.1
-20071.9
-20210.2
-20281.9
-20341
-20474.3
-20595.7
-20649.1
-20737.4
-20875.3
-20959.2
-21019.5
-21146.8
-21269.6
-21318.3
-21396.4
-21549
-21653
-21689.6
-21786.9
-21936.6
-22017.7
-22067.5
-22192.7
-22325.6
-22374.6
-22436.6
-22590.6
-22717
-22748
-22815.1
-22972.7
-23086.3
-23120.1
-23210.1
-23368.9
-23455.8
-23478
-23585
-23758.2
-23842
-23858.8
-23963
-24128.5
-24205.8
-24230.7
-24351.8
-24522.1
-24586
-24594.1
-24710.5
-24890.9
-24969.6
-24982.5
-25091.4
-25264.8
-25340.6
-25345.5
-25448.2
-25636.7
-25737.1
-25739.2
-25812.9
-25989.6
-26106.8
-26115.8
-26173
-26350.1
-26498
-26516.9
-26537.3
-26685
-26857.5
-26910.1
-26914.4
-27030
-27219.6
-27313.6
-27306.7
-27367
-27545.3
-27690.6
-27712.2
-27733.6
-27877.7
-28056.2
-28121.4
-28116.2
-28200.5
-28382.7
-28508.6
-28520.8
-28552.2
-28703.4
-28876.1
-28936.1
-28933
-29018.3
-29199
-29327.7
-29342.2
-29364
-29502.5
-29680.5
-29758.9
-29757.1
-29819.8
-29988.4
-30137.2
-30171.8
-30175.7
-30279.4
-30459.1
-30574.9
-30586.2
-30612.6
-30749.8
-30924.7
-31008.3
-31009.5
-31060.6
-31218
-31378.9
-31435.4
-31434.7
-31507.7
-31675.6
-31820.1
-31858.6
-31863.1
-31954
-32126.1
-32257.3
-32284.3
-32293.2
-32395.4
-32568.4
-32688.8
-32709
-32722.9
-32832.2
-33004.1
-33119.1
-33137.8
-33154.3
-33264.6
-33434.8
-33549
-33568.5
-33583.7
-33689.9
-33858.5
-33976.3
-33998.9
-34010.5
-34109.2
-34275.3
-34399.7
-34429.8
-34437.7
-34523.4
-34684.3
-34819.7
-34861.7
-34864.4
-34934
-35088.1
-35233.5
-35290.6
-35294.2
-35345.2
-35483.2
-35638.2
-35718.6
-35726.4
-35756
-35873.7
-36034.2
-36139
-36159.5
-36171.8
-36262
-36419
-36548.4
-36590.5
-36593.8
-36653.3
-36794.1
-36942.1
-37015
-37022.6
-37052.8
-37164.2
-37318.1
-37427.1
-37456.1
-37462.9
-37534.7
-37682.3
-37822.5
-37880.1
-37883.1
-37922.9
-38040
-38187.5
-38288.8
-38317.8
-38325.7
-38393.2
-38538.8
-38680
-38737.3
-38739.8
-38775.1
-38885.3
-39031.8
-39137.5
-39170.2
-39180.4
-39232.5
-39373.3
-39518.7
-39565.7
-39620.1
-39655.4
-39691.5
-39833.7
-39869.9
-39966
-40061.5
-40143.5
-40191.1
-40266.6
-40364.1
-40456.8
-40522.4
-40563.1
-40612.2
-40694.2
-40798.1
-40891.5
-40949.2
-40990.7
-41057.8
-41161.5
-41280
-41357.5
-41379.4
-41412.7
-41501.1
-41618.3
-41717.1
-41765.7
-41783.6
-41846
-41970.9
-42085.4
-42147.7
-42178.3
-42215.4
-42296.9
-42414.1
-42507.5
-42550.5
-42571.7
-42622
-42730.2
-42853.5
-42935.6
-42974.5
-42999.7
-43057.2
-43168.1
-43285.3
-43355.1
-43377.5
-43395.8
-43467.5
-43594.3
-43705.8
-43756.8
-43772.2
-43804
-43884.3
-43998.1
-44094.2
-44136.4
-44144.9
-44177.6
-44266.3
-44382.6
-44470.6
-44501.6
-44503.2
-44538.2
-44634.4
-44745.4
-44809.3
-44818.1
-44817.2
-44859
-44950.1
-45043.2
-45085.1
-45076.2
-45069.6
-45108.9
-45183.5
-45245
-45256.5
-45228.8
-45209.5
-45230.2
-45272.2
-45291
-45262.1
-45202.6
-45149.1
-45120.6
-45101.7
-45058.2
-44970.3
-44850.1
-44725
-44609.6
-44492.9
-44349.9
-44165.3
-43943.2
-43699.5
-43445.5
-43178.4
-42885.4
-42553.4
-42177.2
-41761.5
-41316.5
-40846.3
-40346.9
-39809.5
-39226.4
-38596.6
-37925.8
-37220.9
-36482.5
-35707
-34889.7
-34030.7
-33134.2
-32205.1
-31246.8
-30259.5
-29243
-28200.6
-27135.9
-26053.2
-24958
-23853.8
-22744.3
-21632.7
-20521.7
-19416.3
-18322.9
-17246.2
-16189.7
-15155.6
-14146.4
-13166
-12218
-11306.2
-10432.1
-9597.04
-8802.87
-8051.53
-7343.28
-6676.95
-6051.92
-5468.01
-4925.72
-4423.74
-3960.67
-3535.99
-3147.7
-2793.74
-2472.28
-2181.6
-1919.47
-1683.84
-1472.59
-1284.09
-1116.65
-967.964
-836.611
-721.236
-620.114
-531.501
-454.316
-387.17
-329.221
-279.239
-235.686
-197.916
-165.53
-138.76
-115.346
-95.5652
-76.5949
-60.8226
-48.866
-40.7717
-38.6019
-37.2982
-37.5008
-33.6135
-28.841
27.4652
83.4982
-31.8186
-135.829
4.42456
193.918
80.0315
-197.524
-108.715
97.6416
117.224
44.3327
-221.942
-88.7507
15.2705
103.052
76.6319
85.9479
93.1814
74.9938
-145.526
-133.996
-115.834
-76.0551
100.807
60.116
19.8873
-30.5673
164.01
103.278
-10.9713
-143.786
-41.7135
95.0594
76.6815
-159.587
-89.9935
46.298
259.185
13.5212
-289.898
-129.748
-53.9268
336.364
157.747
-40.9363
-273.995
-85.9764
443.867
279.964
185.386
-223.971
-214.189
-118.386
237.765
155.762
25.7128
-275.669
-118.603
-53.8331
143.938
93.355
68.6381
-112.415
-77.9088
-8.38266
91.2975
55.5506
-5.26724
-80.2753
-30.2725
54.4913
53.833
38.5514
-64.1217
-27.657
34.0983
46.5454
34.1004
-43.4414
-16.1589
25.9068
38.9806
-6.21419
-31.8426
13.0633
75.0548
45.4384
-38.8106
-22.8646
3.25773
79.6536
54.5392
58.4331
63.8535
-45.04
-50.0556
-16.2668
96.9781
67.8633
-18.9991
-106.109
-29.5952
86.9039
56.9627
-33.9048
-41.8282
-12.5164
74.649
40.6262
-70.058
-32.2499
9.0481
96.2784
13.5046
-88.5481
-13.4075
35.4094
36.5791
-6.92908
-27.3779
-53.311
18.6951
119.551
30.1183
-127.818
-40.2258
92.4008
86.3915
48.1272
-139.385
-62.8607
37.7041
113.06
91.4575
87.5207
47.4099
-195.158
-78.611
-30.7328
132.542
94.9867
89.4396
-16.7183
-171.013
-83.4537
-59.248
20.7796
84.4649
74.3623
12.2888
-154.887
-26.3165
117.107
63.1185
-71.5196
-60.0083
100.158
77.5135
26.9205
-142.572
-45.5315
100.954
82.0016
43.1758
-139.469
-49.4461
26.349
91.1597
74.6736
54.93
-116.67
-44.7852
-33.9856
35.8337
74.9635
92.1035
97.0145
-186.543
-82.8639
-24.031
41.2182
66.3011
-39.393
-39.6801
10.8966
193.951
101.028
-217.9
-44.8505
13.6112
208.044
206.502
-253.743
-117.556
-49.1747
103.133
457.649
280.401
-659.184
-158.502
-10.1844
232.613
653.979
-62.4473
-637.524
-182.962
93.3334
498.472
1037.85
-1122.28
-580.862
-289.195
389.716
1765.34
-184.828
-1079.87
628.833
1414.11
-2856.47
430.058
2984.01
-2596.11
-389.792
2692.02
557.211
-4158.67
696.339
4283.95
-1319.21
-1830.55
1518.31
6051.35
-5588.52
-2084.97
2400.76
8417.34
-8753.56
-2740.12
2968.61
10808.8
-10737.1
-3539.27
3363.9
14231.5
-7599.2
-5888.41
2638.09
15118.4
-2012.49
-14064.4
1365.28
19810.2
1795.75
-19468.1
-1135.11
18233
11313.2
-35194.8
-3783.48
20899.2
17949.3
-43568.3
-4918.87
20315.7
21478.2
-49008.1
-6020.74
18938.8
30439.4
-51865.3
-8634.85
16777.4
44477.4
-57507.8
-17042.8
6371.24
47988.9
33.5873
-39374
5197.02
54616.4
1003.63
-41925.7
-10504.6
21211.1
57747.4
-64375.5
-21947.6
5691.03
61682.3
3087.41
-44156.3
-12452.3
29517.5
47467.2
-71311.8
-21831.3
4450.34
56293.7
-1439.42
-34146.2
-5421.58
49437.2
20885.9
-79340.1
-12410.3
30941.7
46663
-56705.9
-27192.8
1840.54
59950.8
9017.15
-53692.5
-12630.8
12676
48082.6
-7041.53
-71101.6
-18811.6
40969.9
42789.3
-47202
-33266.5
-283.889
68380.4
11522
-46653.2
-12961
32599.6
20004
-34615.7
-10120.4
3547.99
12801
-16538.8
-714.472
11252.8
-4862.95
-4714.65
4606.78
5537.39
-12302
-363.622
7624.2
-1592.08
-2636.77
2054.35
4377.35
-6690.76
-248.306
5230.2
319.309
-1788.46
1284.29
2539.76
-3106.92
-35.2656
2446.78
513.079
-427.026
1002.5
756.549
-850.883
166.79
1102.69
-56.7395
7.69652
1143.74
301.863
-592.472
266.258
708.304
56.6591
-609.889
70.2513
770.906
16.5292
-238.961
181.092
360.927
)
;

boundaryField
{
    sides
    {
        type            calculated;
        value           nonuniform List<scalar> 2(67.3869 -224.635);
    }
    empty
    {
        type            empty;
        value           nonuniform List<scalar> 0();
    }
}


// ************************************************************************* //
