/*--------------------------------*- C++ -*----------------------------------*\
  =========                 |
  \\      /  F ield         | OpenFOAM: The Open Source CFD Toolbox
   \\    /   O peration     | Website:  https://openfoam.org
    \\  /    A nd           | Version:  9
     \\/     M anipulation  |
\*---------------------------------------------------------------------------*/
FoamFile
{
    format      ascii;
    class       volScalarField;
    location    "0.024";
    object      mag(U);
}
// * * * * * * * * * * * * * * * * * * * * * * * * * * * * * * * * * * * * * //

dimensions      [0 1 -1 0 0 0 0];

internalField   nonuniform List<scalar> 
1000
(
11.9706
12.6869
13.355
13.9095
14.4405
14.9844
15.5376
16.092
16.6451
17.1977
17.75
18.3023
18.8545
19.4067
19.9591
20.5116
21.0641
21.6165
22.1689
22.7215
23.2741
23.8268
24.3796
24.9324
25.4853
26.0383
26.5914
27.1445
27.6977
28.251
28.8044
29.3579
29.9114
30.465
31.0187
31.5724
32.1262
32.6801
33.2341
33.7882
34.3423
34.8965
35.4508
36.0052
36.5596
37.1141
37.6687
38.2234
38.7781
39.3329
39.8878
40.4428
40.9978
41.5529
42.108
42.6633
43.2186
43.774
44.3294
44.8849
45.4405
45.9962
46.5519
47.1077
47.6636
48.2196
48.7756
49.3318
49.888
50.4442
51.0006
51.557
52.1135
52.6701
53.2268
53.7835
54.3403
54.8972
55.4542
56.0112
56.5684
57.1256
57.6828
58.2402
58.7976
59.3551
59.9127
60.4703
61.028
61.5858
62.1437
62.7016
63.2596
63.8177
64.3758
64.9341
65.4924
66.0508
66.6092
67.1677
67.7263
68.285
68.8438
69.4026
69.9615
70.5205
71.0795
71.6386
72.1978
72.7571
73.3164
73.8759
74.4353
74.9949
75.5545
76.1142
76.674
77.2339
77.7938
78.3538
78.9139
79.474
80.0342
80.5945
81.1549
81.7153
82.2758
82.8364
83.397
83.9578
84.5186
85.0794
85.6404
86.2014
86.7624
87.3236
87.8848
88.4461
89.0074
89.5688
90.1303
90.6919
91.2535
91.8152
92.377
92.9388
93.5007
94.0627
94.6247
95.1868
95.749
96.3113
96.8736
97.4359
97.9984
98.5609
99.1234
99.6861
100.249
100.812
101.374
101.937
102.5
103.063
103.626
104.19
104.753
105.316
105.879
106.443
107.006
107.57
108.133
108.697
109.261
109.825
110.388
110.952
111.516
112.08
112.645
113.209
113.773
114.337
114.902
115.466
116.03
116.595
117.16
117.724
118.289
118.854
119.418
119.983
120.548
121.113
121.678
122.243
122.809
123.374
123.939
124.504
125.07
125.635
126.201
126.766
127.332
127.897
128.463
129.029
129.595
130.161
130.726
131.292
131.858
132.425
132.991
133.557
134.123
134.689
135.256
135.822
136.388
136.955
137.521
138.088
138.655
139.221
139.788
140.355
140.921
141.488
142.055
142.622
143.189
143.756
144.323
144.89
145.457
146.024
146.592
147.159
147.726
148.294
148.861
149.428
149.996
150.563
151.131
151.698
152.266
152.834
153.401
153.969
154.537
155.104
155.672
156.24
156.808
157.376
157.944
158.512
159.079
159.647
160.215
160.783
161.352
161.92
162.488
163.056
163.624
164.192
164.76
165.328
165.897
166.465
167.033
167.601
168.17
168.738
169.306
169.874
170.443
171.011
171.579
172.148
172.716
173.284
173.853
174.421
174.989
175.558
176.126
176.694
177.263
177.831
178.399
178.967
179.536
180.104
180.672
181.24
181.808
182.377
182.945
183.513
184.081
184.649
185.217
185.785
186.353
186.921
187.489
188.057
188.624
189.192
189.76
190.327
190.895
191.463
192.03
192.598
193.165
193.732
194.299
194.867
195.434
196.001
196.567
197.134
197.701
198.268
198.834
199.401
199.967
200.533
201.099
201.665
202.231
202.797
203.362
203.928
204.493
205.058
205.623
206.188
206.753
207.318
207.882
208.446
209.01
209.574
210.138
210.701
211.264
211.827
212.39
212.953
213.515
214.077
214.639
215.201
215.762
216.323
216.884
217.444
218.004
218.564
219.123
219.683
220.241
220.8
221.358
221.916
222.473
223.03
223.586
224.142
224.698
225.253
225.807
226.361
226.915
227.468
228.02
228.572
229.124
229.674
230.224
230.774
231.323
231.871
232.418
232.965
233.511
234.056
234.6
235.143
235.686
236.228
236.768
237.308
237.847
238.385
238.921
239.457
239.991
240.525
241.057
241.588
242.117
242.645
243.172
243.697
244.221
244.744
245.265
245.784
246.301
246.817
247.331
247.843
248.353
248.86
249.366
249.869
250.369
250.869
251.368
251.864
252.359
252.851
253.338
253.823
254.305
254.784
255.26
255.733
256.203
256.67
257.133
257.593
258.05
258.503
258.953
259.399
259.842
260.28
260.715
261.146
261.573
261.995
262.414
262.828
263.238
263.643
264.044
264.44
264.832
265.22
265.603
265.981
266.355
266.724
267.088
267.448
267.803
268.153
268.499
268.84
269.177
269.51
269.838
270.162
270.482
270.797
271.109
271.416
271.72
272.02
272.317
272.61
272.9
273.186
273.47
273.75
274.028
274.303
274.576
274.846
275.114
275.38
275.644
275.907
276.167
276.426
276.683
276.939
277.194
277.447
277.7
277.951
278.202
278.451
278.7
278.949
279.196
279.443
279.689
279.935
280.18
280.425
280.67
280.913
281.157
281.4
281.642
281.884
282.125
282.366
282.606
282.846
283.085
283.323
283.561
283.798
284.033
284.268
284.502
284.735
284.966
285.196
285.424
285.651
285.877
286.1
286.321
286.541
286.758
286.972
287.184
287.393
287.599
287.802
288.002
288.198
288.39
288.579
288.763
288.943
289.119
289.29
289.456
289.618
289.774
289.925
290.071
290.211
290.345
290.474
290.598
290.716
290.828
290.934
291.035
291.13
291.219
291.304
291.382
291.456
291.525
291.589
291.648
291.702
291.753
291.799
291.841
291.88
291.915
291.947
291.976
292.002
292.025
292.046
292.065
292.081
292.096
292.109
292.121
292.131
292.14
292.148
292.155
292.161
292.166
292.171
292.175
292.178
292.181
292.183
292.185
292.187
292.189
292.19
292.191
292.192
292.193
292.193
292.194
292.194
292.195
292.195
292.195
292.195
292.195
292.196
292.196
292.196
292.196
292.196
292.196
292.196
292.196
292.196
292.196
292.196
292.196
292.197
292.196
292.196
292.196
292.197
292.197
292.197
292.197
292.196
292.196
292.196
292.196
292.196
292.197
292.197
292.197
292.197
292.197
292.197
292.197
292.197
292.196
292.197
292.197
292.197
292.197
292.197
292.197
292.197
292.197
292.197
292.197
292.198
292.198
292.198
292.197
292.197
292.197
292.198
292.198
292.197
292.196
292.196
292.196
292.197
292.197
292.197
292.196
292.196
292.197
292.197
292.197
292.197
292.197
292.197
292.197
292.197
292.197
292.197
292.197
292.197
292.197
292.197
292.197
292.197
292.197
292.197
292.197
292.197
292.197
292.197
292.197
292.197
292.197
292.197
292.197
292.197
292.197
292.197
292.196
292.196
292.196
292.196
292.196
292.196
292.196
292.196
292.196
292.196
292.196
292.196
292.196
292.196
292.196
292.196
292.196
292.196
292.196
292.196
292.196
292.196
292.196
292.196
292.196
292.196
292.196
292.196
292.196
292.196
292.196
292.196
292.196
292.196
292.196
292.196
292.196
292.196
292.196
292.196
292.196
292.196
292.196
292.196
292.196
292.196
292.195
292.195
292.195
292.195
292.195
292.196
292.196
292.195
292.195
292.195
292.195
292.196
292.196
292.196
292.196
292.196
292.196
292.196
292.196
292.196
292.196
292.196
292.196
292.196
292.196
292.196
292.196
292.196
292.196
292.196
292.196
292.196
292.196
292.196
292.196
292.196
292.196
292.196
292.196
292.196
292.196
292.196
292.196
292.196
292.196
292.196
292.196
292.196
292.196
292.196
292.195
292.195
292.195
292.194
292.194
292.194
292.194
292.193
292.192
292.191
292.191
292.191
292.19
292.189
292.188
292.186
292.186
292.185
292.184
292.182
292.18
292.178
292.177
292.177
292.174
292.17
292.167
292.165
292.165
292.163
292.159
292.153
292.15
292.149
292.143
292.136
292.133
292.125
292.116
292.112
292.105
292.093
292.085
292.08
292.069
292.053
292.045
292.038
292.021
292.001
291.992
291.983
291.958
291.933
291.923
291.912
291.88
291.846
291.833
291.82
291.784
291.741
291.721
291.708
291.668
291.61
291.58
291.572
291.528
291.457
291.418
291.406
291.361
291.282
291.227
291.209
291.16
291.067
291.002
290.98
290.934
290.829
290.743
290.714
290.668
290.551
290.445
290.406
290.356
290.233
290.117
290.087
290.061
289.957
289.805
289.714
289.675
289.564
289.404
289.326
289.313
289.251
289.097
288.952
288.913
288.891
288.769
288.596
288.512
288.503
288.44
288.27
288.128
288.107
288.081
287.954
287.786
287.713
287.71
287.622
287.453
287.363
287.355
287.301
287.141
286.998
286.985
286.996
286.912
286.763
286.683
286.685
286.66
286.564
286.444
286.418
286.469
286.449
286.313
286.189
286.208
286.256
286.19
286.076
286.042
286.075
286.062
285.981
285.926
285.934
285.938
285.903
285.869
285.856
285.831
285.799
285.787
285.782
285.757
285.735
285.727
285.711
285.69
285.681
285.677
285.662
285.648
285.643
285.634
285.62
285.613
285.61
285.6
285.592
285.588
285.582
285.574
285.569
285.565
285.56
285.556
285.553
285.549
285.546
285.544
285.542
285.539
285.537
285.537
285.535
285.534
285.534
285.534
285.533
285.533
285.533
285.533
285.532
)
;

boundaryField
{
    sides
    {
        type            calculated;
        value           nonuniform List<scalar> 2(285.532 11.9706);
    }
    empty
    {
        type            empty;
    }
}


// ************************************************************************* //
