/*--------------------------------*- C++ -*----------------------------------*\
  =========                 |
  \\      /  F ield         | OpenFOAM: The Open Source CFD Toolbox
   \\    /   O peration     | Website:  https://openfoam.org
    \\  /    A nd           | Version:  9
     \\/     M anipulation  |
\*---------------------------------------------------------------------------*/
FoamFile
{
    format      ascii;
    class       volScalarField;
    location    "0.024";
    object      p;
}
// * * * * * * * * * * * * * * * * * * * * * * * * * * * * * * * * * * * * * //

dimensions      [1 -1 -2 0 0 0 0];

internalField   nonuniform List<scalar> 
1000
(
30260.2
30253.5
30246.3
30240
30234
30228
30221.9
30215.8
30209.6
30203.5
30197.4
30191.3
30185.1
30179
30172.8
30166.7
30160.5
30154.4
30148.2
30142
30135.9
30129.7
30123.5
30117.3
30111.1
30104.9
30098.7
30092.5
30086.3
30080.1
30073.8
30067.6
30061.4
30055.1
30048.9
30042.6
30036.4
30030.1
30023.8
30017.6
30011.3
30005
29998.7
29992.4
29986.1
29979.8
29973.5
29967.2
29960.9
29954.5
29948.2
29941.9
29935.5
29929.2
29922.8
29916.5
29910.1
29903.7
29897.4
29891
29884.6
29878.2
29871.8
29865.4
29859
29852.6
29846.2
29839.8
29833.3
29826.9
29820.5
29814
29807.6
29801.1
29794.7
29788.2
29781.7
29775.2
29768.8
29762.3
29755.8
29749.3
29742.8
29736.2
29729.7
29723.2
29716.7
29710.1
29703.6
29697
29690.5
29683.9
29677.4
29670.8
29664.2
29657.7
29651.1
29644.5
29637.9
29631.3
29624.7
29618.1
29611.4
29604.8
29598.2
29591.6
29584.9
29578.3
29571.6
29565
29558.3
29551.6
29545
29538.3
29531.6
29524.9
29518.2
29511.5
29504.8
29498.1
29491.4
29484.6
29477.9
29471.2
29464.4
29457.7
29450.9
29444.2
29437.4
29430.6
29423.8
29417.1
29410.3
29403.5
29396.7
29389.9
29383.1
29376.2
29369.4
29362.6
29355.7
29348.9
29342.1
29335.2
29328.3
29321.5
29314.6
29307.7
29300.8
29293.9
29287
29280.1
29273.2
29266.3
29259.4
29252.5
29245.5
29238.6
29231.7
29224.7
29217.7
29210.8
29203.8
29196.8
29189.9
29182.9
29175.9
29168.9
29161.9
29154.8
29147.8
29140.8
29133.8
29126.7
29119.7
29112.6
29105.6
29098.5
29091.5
29084.4
29077.3
29070.2
29063.1
29056
29048.9
29041.8
29034.7
29027.5
29020.4
29013.3
29006.1
28999
28991.8
28984.7
28977.5
28970.3
28963.1
28956
28948.8
28941.6
28934.4
28927.1
28919.9
28912.7
28905.5
28898.2
28891
28883.7
28876.5
28869.2
28862
28854.7
28847.4
28840.1
28832.8
28825.5
28818.2
28810.9
28803.6
28796.3
28789
28781.6
28774.3
28766.9
28759.6
28752.2
28744.9
28737.5
28730.1
28722.8
28715.4
28708
28700.6
28693.2
28685.8
28678.4
28671
28663.5
28656.1
28648.7
28641.2
28633.8
28626.3
28618.9
28611.4
28603.9
28596.5
28589
28581.5
28574
28566.5
28559
28551.5
28544
28536.5
28529
28521.5
28514
28506.4
28498.9
28491.4
28483.8
28476.3
28468.7
28461.2
28453.6
28446
28438.5
28430.9
28423.3
28415.7
28408.1
28400.6
28393
28385.4
28377.8
28370.2
28362.6
28355
28347.3
28339.7
28332.1
28324.5
28316.9
28309.2
28301.6
28294
28286.3
28278.7
28271.1
28263.4
28255.8
28248.1
28240.5
28232.9
28225.2
28217.6
28209.9
28202.3
28194.6
28187
28179.3
28171.7
28164
28156.4
28148.7
28141.1
28133.4
28125.8
28118.1
28110.5
28102.8
28095.2
28087.5
28079.9
28072.3
28064.6
28057
28049.4
28041.8
28034.1
28026.5
28018.9
28011.3
28003.7
27996.1
27988.5
27980.9
27973.4
27965.8
27958.2
27950.7
27943.1
27935.6
27928
27920.5
27913
27905.5
27898
27890.5
27883.1
27875.6
27868.2
27860.7
27853.3
27845.9
27838.5
27831.1
27823.8
27816.4
27809.1
27801.8
27794.5
27787.3
27780
27772.8
27765.6
27758.4
27751.2
27744.1
27737
27729.9
27722.8
27715.8
27708.8
27701.8
27694.9
27688
27681.1
27674.3
27667.5
27660.7
27654
27647.3
27640.7
27634.1
27627.5
27621
27614.6
27608.1
27601.8
27595.5
27589.2
27583
27576.9
27570.8
27564.8
27558.9
27553
27547.2
27541.5
27535.9
27530.3
27524.8
27519.4
27514.1
27508.8
27503.7
27498.7
27493.7
27488.9
27484.2
27479.6
27475.1
27470.7
27466.4
27462.3
27458.3
27454.5
27450.8
27447.2
27443.8
27440.5
27437.4
27434.5
27431.8
27429.2
27426.8
27424.7
27422.7
27420.9
27419.4
27418.1
27417.1
27416.3
27415.8
27415.6
27415.7
27415.7
27415.9
27416.4
27417.2
27418.4
27420.1
27422.1
27424.4
27427.2
27430.2
27433.7
27437.5
27441.7
27446.2
27451.2
27456.6
27462.4
27468.7
27475.4
27482.6
27490.3
27498.4
27507
27516.2
27525.8
27536
27546.6
27557.8
27569.6
27581.9
27594.8
27608.2
27622.2
27636.7
27651.9
27667.6
27683.9
27700.7
27718.1
27736.1
27754.7
27773.8
27793.5
27813.8
27834.6
27855.9
27877.8
27900.2
27923.1
27946.5
27970.4
27994.8
28019.6
28044.9
28070.6
28096.7
28123.3
28150.2
28177.4
28205
28233
28261.2
28289.8
28318.6
28347.7
28377
28406.5
28436.3
28466.3
28496.4
28526.8
28557.2
28587.8
28618.6
28649.4
28680.4
28711.5
28742.6
28773.8
28805.1
28836.4
28867.8
28899.2
28930.6
28962.1
28993.6
29025
29056.5
29088
29119.5
29150.9
29182.4
29213.7
29245.1
29276.4
29307.6
29338.8
29369.9
29400.9
29431.8
29462.6
29493.3
29523.9
29554.2
29584.5
29614.5
29644.3
29673.9
29703.3
29732.4
29761.2
29789.7
29817.8
29845.6
29873.1
29900.1
29926.7
29952.8
29978.4
30003.5
30028.1
30052.1
30075.6
30098.4
30120.6
30142.1
30162.9
30183.1
30202.5
30221.2
30239.2
30256.4
30272.8
30288.5
30303.5
30317.7
30331.1
30343.8
30355.7
30366.9
30377.4
30387.2
30396.4
30404.9
30412.7
30420
30426.7
30432.8
30438.4
30443.6
30448.2
30452.5
30456.3
30459.8
30462.9
30465.7
30468.1
30470.4
30472.3
30474.1
30475.6
30477
30478.2
30479.3
30480.2
30481
30481.7
30482.3
30482.8
30483.2
30483.6
30484
30484.2
30484.5
30484.7
30484.9
30485
30485.1
30485.2
30485.3
30485.4
30485.5
30485.5
30485.6
30485.6
30485.6
30485.7
30485.7
30485.7
30485.7
30485.8
30485.7
30485.7
30485.8
30485.8
30485.8
30485.7
30485.7
30485.8
30485.8
30485.7
30485.7
30485.7
30485.8
30485.8
30485.8
30485.7
30485.7
30485.6
30485.6
30485.6
30485.7
30485.8
30485.8
30485.8
30485.8
30485.7
30485.7
30485.7
30485.7
30485.6
30485.7
30485.7
30485.7
30485.7
30485.7
30485.8
30485.8
30485.7
30485.7
30485.7
30485.8
30485.9
30485.8
30485.7
30485.6
30485.7
30485.8
30485.8
30485.6
30485.5
30485.4
30485.6
30485.7
30485.7
30485.6
30485.5
30485.6
30485.7
30485.7
30485.7
30485.7
30485.6
30485.6
30485.7
30485.7
30485.7
30485.7
30485.6
30485.7
30485.7
30485.7
30485.7
30485.7
30485.7
30485.7
30485.7
30485.7
30485.7
30485.7
30485.7
30485.7
30485.7
30485.7
30485.7
30485.7
30485.7
30485.7
30485.7
30485.7
30485.7
30485.7
30485.7
30485.6
30485.6
30485.6
30485.6
30485.7
30485.7
30485.6
30485.6
30485.6
30485.7
30485.7
30485.7
30485.6
30485.7
30485.7
30485.7
30485.7
30485.7
30485.7
30485.8
30485.7
30485.7
30485.7
30485.8
30485.8
30485.8
30485.7
30485.8
30485.8
30485.8
30485.8
30485.8
30485.8
30485.8
30485.8
30485.8
30485.7
30485.8
30485.8
30485.8
30485.8
30485.7
30485.7
30485.7
30485.7
30485.8
30485.8
30485.8
30485.7
30485.7
30485.7
30485.7
30485.8
30485.8
30485.9
30485.8
30485.8
30485.8
30485.8
30485.8
30485.8
30485.8
30485.7
30485.8
30485.8
30485.8
30485.7
30485.8
30485.8
30485.8
30485.8
30485.7
30485.7
30485.8
30485.8
30485.8
30485.7
30485.7
30485.7
30485.7
30485.8
30485.8
30485.8
30485.8
30485.7
30485.7
30485.8
30485.9
30485.9
30485.9
30485.9
30485.9
30486
30486
30486
30486
30486.1
30486.2
30486.2
30486.1
30486.2
30486.4
30486.6
30486.7
30486.6
30486.6
30486.7
30487.1
30487.4
30487.5
30487.5
30487.4
30487.9
30488.5
30488.8
30489.1
30489
30489
30489.9
30490.9
30491.5
30491.6
30491.3
30492.7
30493.7
30493.7
30494.4
30496.2
30496
30496.4
30498.6
30499.6
30499.2
30501.3
30504.2
30504.6
30503.8
30507.6
30510.8
30510.6
30510.8
30515.8
30519.5
30518.9
30519.5
30525.8
30530.5
30529.7
30530.5
30538.6
30544.8
30543.7
30542.8
30553.7
30561.8
30562.2
30559.9
30572
30582.6
30584.5
30580.3
30592.1
30607
30611.4
30606.8
30614.9
30635.4
30640.6
30635.9
30644.6
30668.6
30674.9
30668.5
30677.5
30704.9
30712.3
30704.8
30713.1
30743.7
30753.1
30744.1
30752
30786
30805.9
30803.9
30797
30823.4
30848.7
30848.8
30836.5
30865.3
30903
30912.9
30898.8
30907
30946.9
30969.7
30968.2
30953.5
30982.3
31022
31031.8
31015.8
31023.6
31060.8
31083.9
31082.6
31068.7
31100.4
31127.9
31130.7
31122.9
31136.7
31167.4
31180.9
31158.4
31159.9
31199.8
31218.1
31215.2
31204.9
31222.3
31251.3
31260.4
31251.2
31244.4
31269.7
31297.4
31308.1
31280.2
31276.6
31315.1
31329.5
31322.9
31305
31319.9
31346.1
31346.1
31334.3
31337.4
31354.7
31360.2
31357.7
31359.8
31368.4
31368.5
31366.9
31375.9
31379
31377.1
31379.1
31384.9
31384.7
31383.2
31388.3
31390.1
31389.1
31390.1
31393.2
31393.1
31391.9
31394.2
31395.5
31394.6
31395
31396.4
31396.3
31395.8
31396.5
31396.7
31396.4
31396.6
31397
31396.8
31396.7
31397
31396.9
31396.7
31396.9
31397.1
31396.9
31396.7
31397
31397.2
31397.1
31396.8
31397.1
31397.3
31397.1
)
;

boundaryField
{
    sides
    {
        type            zeroGradient;
    }
    empty
    {
        type            empty;
    }
}


// ************************************************************************* //
