/*--------------------------------*- C++ -*----------------------------------*\
  =========                 |
  \\      /  F ield         | OpenFOAM: The Open Source CFD Toolbox
   \\    /   O peration     | Website:  https://openfoam.org
    \\  /    A nd           | Version:  9
     \\/     M anipulation  |
\*---------------------------------------------------------------------------*/
FoamFile
{
    format      ascii;
    class       volScalarField;
    location    "0.024";
    object      p_0;
}
// * * * * * * * * * * * * * * * * * * * * * * * * * * * * * * * * * * * * * //

dimensions      [1 -1 -2 0 0 0 0];

internalField   nonuniform List<scalar> 
1000
(
30283.5
30276.8
30269.6
30263.3
30257.3
30251.3
30245.2
30239
30232.9
30226.8
30220.6
30214.5
30208.4
30202.2
30196.1
30189.9
30183.8
30177.6
30171.4
30165.3
30159.1
30152.9
30146.7
30140.5
30134.3
30128.1
30121.9
30115.7
30109.5
30103.2
30097
30090.8
30084.5
30078.3
30072
30065.8
30059.5
30053.2
30047
30040.7
30034.4
30028.1
30021.8
30015.5
30009.2
30002.9
29996.6
29990.2
29983.9
29977.6
29971.2
29964.9
29958.6
29952.2
29945.8
29939.5
29933.1
29926.7
29920.4
29914
29907.6
29901.2
29894.8
29888.4
29882
29875.6
29869.1
29862.7
29856.3
29849.9
29843.4
29837
29830.5
29824
29817.6
29811.1
29804.6
29798.1
29791.6
29785.1
29778.6
29772.1
29765.6
29759.1
29752.6
29746
29739.5
29733
29726.4
29719.9
29713.3
29706.8
29700.2
29693.6
29687
29680.4
29673.9
29667.3
29660.7
29654
29647.4
29640.8
29634.2
29627.6
29620.9
29614.3
29607.6
29601
29594.3
29587.7
29581
29574.3
29567.6
29560.9
29554.3
29547.6
29540.9
29534.1
29527.4
29520.7
29514
29507.3
29500.5
29493.8
29487
29480.3
29473.5
29466.7
29460
29453.2
29446.4
29439.6
29432.8
29426
29419.2
29412.4
29405.6
29398.8
29391.9
29385.1
29378.2
29371.4
29364.5
29357.7
29350.8
29343.9
29337.1
29330.2
29323.3
29316.4
29309.5
29302.6
29295.6
29288.7
29281.8
29274.9
29267.9
29261
29254
29247.1
29240.1
29233.1
29226.2
29219.2
29212.2
29205.2
29198.2
29191.2
29184.2
29177.1
29170.1
29163.1
29156
29149
29141.9
29134.9
29127.8
29120.7
29113.7
29106.6
29099.5
29092.4
29085.3
29078.2
29071.1
29064
29056.8
29049.7
29042.6
29035.4
29028.3
29021.1
29013.9
29006.8
28999.6
28992.4
28985.2
28978
28970.8
28963.6
28956.4
28949.2
28941.9
28934.7
28927.5
28920.2
28913
28905.7
28898.5
28891.2
28883.9
28876.6
28869.3
28862.1
28854.8
28847.4
28840.1
28832.8
28825.5
28818.2
28810.8
28803.5
28796.1
28788.8
28781.4
28774.1
28766.7
28759.3
28751.9
28744.6
28737.2
28729.8
28722.4
28714.9
28707.5
28700.1
28692.7
28685.2
28677.8
28670.4
28662.9
28655.5
28648
28640.5
28633.1
28625.6
28618.1
28610.6
28603.1
28595.6
28588.1
28580.6
28573.1
28565.6
28558.1
28550.6
28543
28535.5
28527.9
28520.4
28512.9
28505.3
28497.7
28490.2
28482.6
28475
28467.5
28459.9
28452.3
28444.7
28437.1
28429.5
28421.9
28414.3
28406.7
28399.1
28391.5
28383.9
28376.3
28368.6
28361
28353.4
28345.8
28338.1
28330.5
28322.8
28315.2
28307.6
28299.9
28292.3
28284.6
28277
28269.3
28261.7
28254
28246.3
28238.7
28231
28223.4
28215.7
28208
28200.4
28192.7
28185
28177.4
28169.7
28162.1
28154.4
28146.7
28139.1
28131.4
28123.8
28116.1
28108.5
28100.8
28093.2
28085.5
28077.9
28070.2
28062.6
28055
28047.3
28039.7
28032.1
28024.5
28016.9
28009.3
28001.7
27994.1
27986.5
27978.9
27971.4
27963.8
27956.3
27948.7
27941.2
27933.7
27926.1
27918.6
27911.1
27903.7
27896.2
27888.7
27881.3
27873.9
27866.4
27859
27851.6
27844.3
27836.9
27829.6
27822.3
27815
27807.7
27800.4
27793.2
27785.9
27778.7
27771.6
27764.4
27757.3
27750.2
27743.1
27736.1
27729.1
27722.1
27715.1
27708.2
27701.3
27694.5
27687.7
27680.9
27674.1
27667.4
27660.8
27654.2
27647.6
27641.1
27634.6
27628.2
27621.8
27615.5
27609.2
27603
27596.9
27590.8
27584.8
27578.8
27572.9
27567.1
27561.4
27555.7
27550.1
27544.6
27539.2
27533.8
27528.6
27523.4
27518.4
27513.4
27508.6
27503.8
27499.2
27494.7
27490.3
27486
27481.9
27477.9
27474
27470.3
27466.7
27463.3
27460
27456.9
27453.9
27451.2
27448.6
27446.2
27444
27442
27440.2
27438.7
27437.4
27436.3
27435.6
27435
27434.8
27434.8
27434.9
27435.1
27435.5
27436.2
27437.5
27439.1
27441.1
27443.4
27446.1
27449.2
27452.6
27456.4
27460.5
27465.1
27470
27475.4
27481.2
27487.5
27494.2
27501.4
27509
27517.1
27525.7
27534.8
27544.4
27554.6
27565.2
27576.4
27588.2
27600.5
27613.3
27626.7
27640.7
27655.2
27670.4
27686
27702.3
27719.1
27736.5
27754.5
27773.1
27792.2
27811.9
27832.2
27853
27874.3
27896.2
27918.6
27941.5
27964.9
27988.8
28013.2
28038
28063.3
28089
28115.1
28141.7
28168.6
28195.9
28223.5
28251.4
28279.7
28308.2
28337.1
28366.2
28395.5
28425.1
28454.9
28484.8
28515
28545.3
28575.8
28606.5
28637.2
28668.1
28699.1
28730.1
28761.3
28792.5
28823.8
28855.1
28886.5
28917.9
28949.4
28980.8
29012.3
29043.8
29075.3
29106.7
29138.2
29169.6
29201.1
29232.4
29263.8
29295
29326.2
29357.4
29388.4
29419.4
29450.3
29481
29511.6
29542.1
29572.3
29602.5
29632.4
29662.1
29691.5
29720.8
29749.7
29778.3
29806.6
29834.6
29862.2
29889.4
29916.1
29942.4
29968.3
29993.6
30018.4
30042.7
30066.3
30089.4
30111.9
30133.6
30154.8
30175.2
30194.9
30213.9
30232.2
30249.7
30266.5
30282.5
30297.7
30312.2
30325.9
30338.9
30351.1
30362.6
30373.4
30383.5
30392.9
30401.6
30409.7
30417.2
30424.1
30430.5
30436.3
30441.6
30446.5
30450.9
30454.9
30458.5
30461.7
30464.6
30467.2
30469.5
30471.6
30473.4
30475.1
30476.5
30477.8
30478.9
30479.8
30480.7
30481.4
30482
30482.6
30483.1
30483.5
30483.8
30484.1
30484.4
30484.6
30484.8
30485
30485.1
30485.2
30485.3
30485.4
30485.4
30485.5
30485.5
30485.6
30485.6
30485.7
30485.7
30485.7
30485.7
30485.7
30485.7
30485.7
30485.7
30485.8
30485.8
30485.7
30485.7
30485.8
30485.8
30485.8
30485.7
30485.7
30485.8
30485.8
30485.8
30485.7
30485.7
30485.7
30485.6
30485.6
30485.6
30485.7
30485.8
30485.8
30485.8
30485.7
30485.7
30485.7
30485.7
30485.6
30485.6
30485.7
30485.7
30485.7
30485.7
30485.7
30485.8
30485.8
30485.7
30485.7
30485.8
30485.9
30485.9
30485.7
30485.6
30485.7
30485.8
30485.8
30485.7
30485.5
30485.4
30485.5
30485.7
30485.7
30485.6
30485.5
30485.5
30485.7
30485.7
30485.7
30485.7
30485.6
30485.6
30485.7
30485.7
30485.7
30485.7
30485.7
30485.7
30485.7
30485.7
30485.7
30485.7
30485.7
30485.7
30485.7
30485.7
30485.7
30485.7
30485.7
30485.7
30485.7
30485.7
30485.7
30485.7
30485.7
30485.7
30485.6
30485.7
30485.7
30485.7
30485.7
30485.6
30485.6
30485.6
30485.6
30485.7
30485.7
30485.6
30485.6
30485.6
30485.7
30485.7
30485.7
30485.6
30485.7
30485.7
30485.7
30485.7
30485.7
30485.7
30485.7
30485.8
30485.7
30485.7
30485.8
30485.8
30485.8
30485.7
30485.8
30485.8
30485.8
30485.8
30485.8
30485.8
30485.8
30485.8
30485.8
30485.8
30485.7
30485.8
30485.8
30485.8
30485.8
30485.7
30485.7
30485.7
30485.7
30485.8
30485.8
30485.8
30485.7
30485.7
30485.7
30485.8
30485.8
30485.9
30485.8
30485.8
30485.8
30485.8
30485.8
30485.8
30485.8
30485.8
30485.8
30485.8
30485.8
30485.7
30485.7
30485.8
30485.8
30485.8
30485.7
30485.7
30485.8
30485.8
30485.8
30485.7
30485.7
30485.7
30485.7
30485.8
30485.8
30485.8
30485.8
30485.7
30485.7
30485.8
30485.9
30485.9
30485.9
30485.9
30485.9
30486
30486
30485.9
30485.9
30486
30486.1
30486.2
30486.1
30486.1
30486.2
30486.4
30486.6
30486.6
30486.5
30486.5
30486.9
30487.1
30487.3
30487.4
30487.3
30487.5
30488.1
30488.5
30488.8
30488.8
30488.7
30489.4
30490.2
30491
30491.2
30491
30491.6
30493.1
30493.4
30493.3
30494.9
30495.8
30495.3
30497
30498.9
30498.5
30499.3
30502.4
30503.6
30503.1
30504.9
30508.6
30509.7
30508.9
30512.6
30516.9
30517.9
30516.6
30522
30527.2
30528.4
30526.8
30533.5
30540.4
30542.5
30540.1
30545.8
30556.6
30559.3
30557.3
30562.1
30576.8
30581.1
30577.5
30582.2
30598.3
30606.2
30603.6
30605.8
30623.4
30635.2
30632.1
30633.6
30654.7
30668.7
30666.4
30664.2
30688.7
30705.3
30704.2
30698.2
30724.7
30744.9
30745.4
30735.9
30764.7
30792.7
30800.6
30790.5
30799.9
30833.9
30844.2
30832.4
30843.5
30880.9
30902
30902.3
30888.8
30920.9
30955.6
30963.8
30949.5
30960.3
30998.7
31021.4
31018.1
31004.4
31040.7
31070.3
31076
31064.4
31076.8
31113.7
31128.1
31114.5
31117.2
31155.1
31170.5
31164.1
31145.3
31175.4
31209.6
31217.1
31198.7
31204.4
31236.9
31254.2
31252.6
31239
31248
31289.5
31302.8
31289
31267.5
31291.2
31326.8
31326.3
31304.2
31308.1
31334.2
31346.7
31336.7
31328.9
31346.1
31357.7
31357.7
31354.6
31363.7
31367.4
31365.5
31369.7
31377.7
31377
31375.7
31382.1
31384
31382.5
31384.7
31389.2
31389.1
31388.1
31391.7
31392.9
31391.6
31392.5
31394.9
31394.7
31393.9
31395.7
31396.2
31395.6
31395.8
31396.5
31396.3
31396.3
31396.7
31396.8
31396.5
31396.7
31397
31396.6
31396.6
31397
31396.9
31396.7
31396.7
31397.2
31397.1
31396.9
31397
31397.2
31397.2
31397.1
)
;

boundaryField
{
    sides
    {
        type            zeroGradient;
    }
    empty
    {
        type            empty;
    }
}


// ************************************************************************* //
