/*--------------------------------*- C++ -*----------------------------------*\
  =========                 |
  \\      /  F ield         | OpenFOAM: The Open Source CFD Toolbox
   \\    /   O peration     | Website:  https://openfoam.org
    \\  /    A nd           | Version:  9
     \\/     M anipulation  |
\*---------------------------------------------------------------------------*/
FoamFile
{
    format      ascii;
    class       surfaceScalarField;
    location    "0.024";
    object      phi_0;
}
// * * * * * * * * * * * * * * * * * * * * * * * * * * * * * * * * * * * * * //

dimensions      [1 0 -1 0 0 0 0];

internalField   nonuniform List<scalar> 
999
(
21.3271
22.2583
23.1892
24.12
25.0499
25.9783
26.9057
27.833
28.7611
29.6904
30.6209
31.5521
32.4834
33.4147
34.3462
35.2786
36.2115
37.1441
38.0766
39.0088
39.9409
40.8728
41.8046
42.7362
43.6677
44.5989
45.5301
46.4611
47.3919
48.3226
49.2531
50.1835
51.1137
52.0438
52.9737
53.9035
54.8331
55.7625
56.6918
57.621
58.55
59.4788
60.4075
61.336
62.2643
63.1925
64.1206
65.0484
65.9762
66.9037
67.831
68.7582
69.6853
70.6121
71.5388
72.4653
73.3916
74.3178
75.2438
76.1696
77.0952
78.0207
78.946
79.8711
80.7961
81.7209
82.6455
83.57
84.4943
85.4184
86.3423
87.2661
88.1897
89.1131
90.0364
90.9595
91.8824
92.8051
93.7277
94.65
95.5722
96.4943
97.4161
98.3378
99.2593
100.181
101.102
102.023
102.943
103.864
104.784
105.705
106.625
107.544
108.464
109.383
110.303
111.222
112.141
113.059
113.978
114.896
115.814
116.732
117.65
118.567
119.485
120.402
121.319
122.236
123.152
124.069
124.985
125.901
126.817
127.732
128.648
129.563
130.478
131.392
132.307
133.221
134.136
135.05
135.963
136.877
137.79
138.703
139.616
140.529
141.442
142.354
143.266
144.178
145.089
146.001
146.912
147.823
148.735
149.644
150.555
151.466
152.374
153.285
154.194
155.103
156.013
156.921
157.83
158.739
159.645
160.555
161.462
162.368
163.277
164.184
165.089
165.998
166.903
167.808
168.716
169.62
170.525
171.432
172.335
173.24
174.146
175.048
175.952
176.858
177.759
178.662
179.567
180.468
181.37
182.274
183.175
184.075
184.979
185.88
186.778
187.681
188.582
189.48
190.381
191.282
192.178
193.078
193.979
194.876
195.773
196.674
197.571
198.466
199.365
200.264
201.157
202.054
202.952
203.847
204.741
205.639
206.534
207.425
208.321
209.219
210.11
211.001
211.898
212.792
213.682
214.574
215.47
216.36
217.249
218.143
219.036
219.923
220.813
221.707
222.597
223.483
224.373
225.265
226.152
227.038
227.929
228.819
229.703
230.588
231.479
232.368
233.25
234.134
235.024
235.91
236.791
237.676
238.565
239.448
240.327
241.211
242.1
242.982
243.859
244.742
245.629
246.509
247.385
248.268
249.154
250.033
250.907
251.788
252.672
253.551
254.424
255.304
256.187
257.063
257.935
258.812
259.694
260.571
261.442
262.316
263.196
264.073
264.942
265.814
266.692
267.57
268.439
269.307
270.182
271.059
271.929
272.795
273.666
274.543
275.414
276.279
277.145
278.019
278.891
279.756
280.62
281.49
282.363
283.229
284.09
284.955
285.825
286.693
287.554
288.415
289.282
290.151
291.014
291.871
292.733
293.6
294.465
295.322
296.179
297.041
297.907
298.767
299.622
300.478
301.341
302.203
303.058
303.911
304.767
305.628
306.486
307.338
308.189
309.046
309.905
310.759
311.609
312.459
313.314
314.171
315.022
315.869
316.718
317.572
318.426
319.274
320.118
320.966
321.818
322.669
323.514
324.357
325.203
326.053
326.901
327.743
328.583
329.427
330.275
331.12
331.961
332.798
333.64
334.485
335.328
336.166
337.002
337.84
338.683
339.524
340.359
341.192
342.028
342.868
343.706
344.54
345.37
346.203
347.039
347.875
348.707
349.534
350.364
351.197
352.03
352.86
353.685
354.511
355.34
356.171
356.999
357.823
358.645
359.47
360.298
361.124
361.945
362.764
363.584
364.409
365.232
366.052
366.868
367.684
368.504
369.325
370.143
370.956
371.769
372.583
373.401
374.217
375.028
375.837
376.646
377.459
378.273
379.082
379.888
380.693
381.501
382.31
383.118
383.922
384.722
385.524
386.329
387.134
387.935
388.733
389.529
390.328
391.129
391.928
392.723
393.516
394.308
395.103
395.898
396.69
397.48
398.268
399.057
399.846
400.636
401.424
402.211
402.995
403.777
404.56
405.343
406.126
406.907
407.685
408.461
409.239
410.017
410.794
411.568
412.34
413.112
413.885
414.658
415.43
416.197
416.964
417.732
418.5
419.268
420.033
420.795
421.557
422.321
423.085
423.847
424.607
425.365
426.123
426.884
427.643
428.401
429.155
429.91
430.666
431.424
432.18
432.934
433.687
434.439
435.194
435.95
436.705
437.457
438.208
438.96
439.715
440.47
441.224
441.976
442.727
443.481
444.236
444.992
445.747
446.499
447.252
448.007
448.765
449.522
450.278
451.033
451.788
452.546
453.306
454.065
454.823
455.579
456.337
457.098
457.859
458.62
459.379
460.137
460.897
461.659
462.421
463.182
463.941
464.699
465.459
466.219
466.979
467.737
468.493
469.248
470.003
470.758
471.511
472.262
473.009
473.754
474.498
475.239
475.977
476.712
477.441
478.166
478.886
479.602
480.312
481.017
481.713
482.403
483.084
483.757
484.421
485.076
485.72
486.354
486.975
487.584
488.18
488.764
489.332
489.887
490.425
490.948
491.455
491.945
492.418
492.873
493.31
493.73
494.131
494.513
494.877
495.223
495.551
495.86
496.151
496.425
496.682
496.921
497.145
497.352
497.544
497.722
497.885
498.035
498.172
498.298
498.412
498.516
498.61
498.694
498.77
498.838
498.899
498.953
499.001
499.044
499.082
499.115
499.144
499.169
499.192
499.211
499.228
499.242
499.255
499.266
499.275
499.283
499.29
499.295
499.3
499.304
499.307
499.31
499.313
499.315
499.316
499.318
499.319
499.319
499.32
499.32
499.321
499.322
499.322
499.323
499.323
499.322
499.321
499.322
499.323
499.322
499.32
499.32
499.323
499.323
499.321
499.319
499.32
499.322
499.323
499.322
499.32
499.319
499.317
499.316
499.316
499.319
499.321
499.322
499.322
499.32
499.32
499.32
499.319
499.317
499.316
499.317
499.318
499.318
499.316
499.317
499.319
499.319
499.317
499.315
499.317
499.32
499.321
499.319
499.316
499.314
499.317
499.32
499.317
499.312
499.308
499.307
499.312
499.315
499.314
499.311
499.309
499.311
499.313
499.315
499.314
499.312
499.31
499.311
499.312
499.313
499.312
499.311
499.31
499.311
499.312
499.311
499.31
499.309
499.309
499.31
499.31
499.309
499.308
499.308
499.308
499.308
499.307
499.307
499.307
499.307
499.306
499.305
499.305
499.305
499.305
499.305
499.304
499.303
499.301
499.301
499.302
499.303
499.302
499.3
499.3
499.301
499.302
499.301
499.3
499.299
499.3
499.301
499.3
499.299
499.299
499.3
499.3
499.299
499.298
499.298
499.299
499.299
499.298
499.297
499.298
499.298
499.298
499.297
499.296
499.296
499.297
499.297
499.295
499.294
499.295
499.296
499.296
499.294
499.293
499.291
499.29
499.291
499.292
499.293
499.292
499.29
499.289
499.288
499.289
499.291
499.292
499.292
499.291
499.289
499.289
499.289
499.29
499.29
499.288
499.288
499.289
499.289
499.287
499.286
499.287
499.288
499.288
499.286
499.285
499.285
499.286
499.286
499.285
499.283
499.282
499.282
499.283
499.283
499.283
499.282
499.281
499.279
499.279
499.281
499.281
499.281
499.28
499.279
499.28
499.28
499.278
499.276
499.276
499.277
499.277
499.275
499.271
499.27
499.273
499.275
499.274
499.27
499.264
499.265
499.27
499.271
499.269
499.262
499.255
499.263
499.268
499.269
499.264
499.251
499.246
499.263
499.27
499.27
499.252
499.23
499.258
499.261
499.241
499.242
499.26
499.228
499.219
499.253
499.241
499.193
499.23
499.252
499.206
499.157
499.238
499.248
499.174
499.14
499.238
499.241
499.14
499.108
499.233
499.238
499.106
499.06
499.219
499.227
499.077
499.003
499.2
499.24
499.079
498.91
499.136
499.234
499.087
498.816
499.077
499.227
499.11
498.761
498.951
499.205
499.082
498.687
498.871
499.179
499.063
498.64
498.773
499.131
499.02
498.558
498.643
499.077
498.947
498.442
498.527
499.061
499.134
498.73
498.324
498.766
498.942
498.552
497.949
498.634
499.056
498.858
498.188
498.287
498.914
499.026
498.552
497.902
498.582
499.046
498.831
498.064
498.13
498.826
499.001
498.451
497.827
498.543
498.869
498.637
497.978
498.198
498.759
498.69
497.762
497.695
498.507
498.62
498.326
497.758
498.104
498.519
498.529
498.003
497.717
498.222
498.813
498.798
497.772
497.714
498.536
498.724
498.284
497.678
498.131
498.589
498.412
497.966
498.018
498.376
498.389
498.225
498.22
498.378
498.252
498.171
498.353
498.35
498.24
498.265
498.356
498.269
498.206
498.309
498.306
498.242
498.247
498.293
498.251
498.196
498.242
498.247
498.199
498.2
498.219
498.2
498.177
498.187
498.183
498.166
498.169
498.174
498.161
498.155
498.16
498.153
498.143
498.146
498.148
498.137
498.13
498.136
498.138
498.13
498.123
498.128
498.128
498.116
)
;

boundaryField
{
    sides
    {
        type            calculated;
        value           nonuniform List<scalar> 2(498.115 -20.3951);
    }
    empty
    {
        type            empty;
        value           nonuniform List<scalar> 0();
    }
}


// ************************************************************************* //
