/*--------------------------------*- C++ -*----------------------------------*\
  =========                 |
  \\      /  F ield         | OpenFOAM: The Open Source CFD Toolbox
   \\    /   O peration     | Website:  https://openfoam.org
    \\  /    A nd           | Version:  9
     \\/     M anipulation  |
\*---------------------------------------------------------------------------*/
FoamFile
{
    format      ascii;
    class       surfaceScalarField;
    location    "0.047";
    object      phi;
}
// * * * * * * * * * * * * * * * * * * * * * * * * * * * * * * * * * * * * * //

dimensions      [1 0 -1 0 0 0 0];

internalField   nonuniform List<scalar> 
999
(
14.7925
14.9597
15.1267
15.2937
15.4605
15.6272
15.7939
15.9604
16.1269
16.2932
16.4594
16.6255
16.7915
16.9574
17.1232
17.2888
17.4544
17.6198
17.7851
17.9504
18.1154
18.2803
18.4451
18.6098
18.7743
18.9388
19.1032
19.2674
19.4314
19.5952
19.7588
19.9223
20.0857
20.2491
20.4123
20.5754
20.7383
20.9011
21.0636
21.2258
21.3879
21.5497
21.7114
21.873
22.0345
22.1959
22.3573
22.5185
22.6796
22.8405
23.0011
23.1614
23.3214
23.481
23.6403
23.7993
23.958
24.1165
24.2749
24.4331
24.5913
24.7495
24.9078
25.066
25.2243
25.3826
25.5409
25.699
25.8571
26.015
26.1726
26.3301
26.4874
26.6444
26.8013
26.9581
27.1147
27.2712
27.4276
27.5838
27.7399
27.8957
28.0511
28.2061
28.3609
28.5154
28.6695
28.8233
28.9768
29.13
29.2829
29.4354
29.5875
29.7393
29.8908
30.0418
30.1926
30.3429
30.4928
30.6424
30.7915
30.9402
31.0886
31.2365
31.384
31.531
31.6777
31.8238
31.9696
32.1148
32.2597
32.404
32.5479
32.6913
32.8342
32.9766
33.1185
33.2599
33.4008
33.5411
33.681
33.8203
33.9591
34.0974
34.2351
34.3722
34.5088
34.6449
34.7803
34.9152
35.0496
35.1833
35.3165
35.4491
35.5811
35.7125
35.8433
35.9735
36.1031
36.2322
36.3606
36.4884
36.6156
36.7423
36.8683
36.9937
37.1185
37.2427
37.3663
37.4894
37.6118
37.7337
37.8549
37.9756
38.0957
38.2153
38.3343
38.4527
38.5706
38.6879
38.8047
38.9209
39.0367
39.1519
39.2666
39.3809
39.4946
39.6079
39.7207
39.8331
39.9451
40.0566
40.1677
40.2783
40.3886
40.4986
40.6081
40.7173
40.8262
40.9347
41.0429
41.1509
41.2585
41.3659
41.473
41.5798
41.6865
41.7929
41.8991
42.0051
42.1109
42.2165
42.322
42.4274
42.5326
42.6377
42.7426
42.8475
42.9523
43.057
43.1616
43.2661
43.3706
43.4751
43.5795
43.6839
43.7883
43.8927
43.9971
44.1015
44.2058
44.3102
44.4147
44.5191
44.6236
44.7281
44.8327
44.9373
45.042
45.1467
45.2515
45.3564
45.4613
45.5663
45.6714
45.7766
45.8818
45.9871
46.0926
46.1981
46.3036
46.4093
46.5151
46.621
46.727
46.833
46.9392
47.0455
47.1518
47.2583
47.3649
47.4716
47.5784
47.6853
47.7923
47.8994
48.0067
48.114
48.2215
48.329
48.4367
48.5445
48.6524
48.7604
48.8685
48.9768
49.0851
49.1936
49.3022
49.4109
49.5197
49.6286
49.7377
49.8468
49.9561
50.0655
50.175
50.2846
50.3943
50.5042
50.6142
50.7243
50.8345
50.9448
51.0552
51.1658
51.2764
51.3872
51.4981
51.6092
51.7203
51.8316
51.9429
52.0544
52.1661
52.2778
52.3896
52.5016
52.6137
52.7259
52.8383
52.9507
53.0633
53.176
53.2888
53.4017
53.5147
53.6279
53.7412
53.8546
53.9681
54.0818
54.1955
54.3094
54.4234
54.5376
54.6518
54.7662
54.8807
54.9953
55.11
55.2249
55.3399
55.455
55.5702
55.6855
55.801
55.9166
56.0323
56.1481
56.2641
56.3801
56.4963
56.6126
56.7291
56.8456
56.9623
57.0791
57.1961
57.3131
57.4303
57.5476
57.665
57.7826
57.9002
58.018
58.1359
58.254
58.3721
58.4904
58.6088
58.7273
58.846
58.9648
59.0837
59.2027
59.3218
59.4411
59.5605
59.68
59.7997
59.9194
60.0393
60.1594
60.2795
60.3998
60.5202
60.6407
60.7613
60.8821
61.003
61.124
61.2451
61.3664
61.4878
61.6093
61.731
61.8527
61.9746
62.0967
62.2188
62.3411
62.4635
62.586
62.7087
62.8315
62.9544
63.0774
63.2006
63.3238
63.4473
63.5708
63.6945
63.8183
63.9422
64.0662
64.1904
64.3147
64.4391
64.5637
64.6884
64.8132
64.9381
65.0632
65.1884
65.3137
65.4392
65.5648
65.6905
65.8163
65.9423
66.0684
66.1946
66.321
66.4475
66.5741
66.7009
66.8277
66.9547
67.0819
67.2091
67.3365
67.464
67.5917
67.7195
67.8474
67.9754
68.1036
68.2319
68.3604
68.4889
68.6176
68.7465
68.8754
69.0045
69.1337
69.2631
69.3926
69.5222
69.6519
69.7818
69.9118
70.042
70.1722
70.3026
70.4332
70.5639
70.6947
70.8256
70.9567
71.0879
71.2192
71.3507
71.4823
71.614
71.7459
71.8779
72.01
72.1423
72.2747
72.4072
72.5399
72.6727
72.8056
72.9387
73.0719
73.2053
73.3387
73.4723
73.6061
73.74
73.874
74.0081
74.1424
74.2768
74.4114
74.5461
74.6809
74.8159
74.951
75.0862
75.2216
75.3571
75.4927
75.6285
75.7644
75.9004
76.0366
76.1729
76.3094
76.446
76.5827
76.7196
76.8566
76.9938
77.131
77.2685
77.406
77.5437
77.6816
77.8195
77.9576
78.0959
78.2343
78.3728
78.5115
78.6502
78.7892
78.9283
79.0675
79.2068
79.3464
79.4859
79.6258
79.7656
79.9058
80.0459
80.1863
80.3267
80.4674
80.608
80.7491
80.8899
81.0313
81.1725
81.314
81.4556
81.5973
81.7392
81.8812
82.0234
82.1657
82.3081
82.4507
82.5934
82.7363
82.8793
83.0224
83.1657
83.3092
83.4528
83.5965
83.7403
83.8843
84.0285
84.1728
84.3172
84.4618
84.6065
84.7514
84.8964
85.0415
85.1868
85.3323
85.4778
85.6236
85.7694
85.9154
86.0616
86.2079
86.3544
86.5009
86.6477
86.7946
86.9416
87.0887
87.2361
87.3835
87.5311
87.6789
87.8268
87.9748
88.123
88.2713
88.4198
88.5685
88.7172
88.8661
89.0152
89.1644
89.3138
89.4633
89.6129
89.7627
89.9127
90.0628
90.213
90.3634
90.5139
90.6646
90.8154
90.9664
91.1175
91.2688
91.4202
91.5718
91.7235
91.8753
92.0273
92.1795
92.3318
92.4842
92.6368
92.7896
92.9425
93.0955
93.2487
93.402
93.5555
93.7091
93.8629
94.0168
94.1709
94.3251
94.4795
94.634
94.7887
94.9436
95.0986
95.2537
95.409
95.5644
95.72
95.8757
96.0316
96.1877
96.3439
96.5002
96.6567
96.8134
96.9702
97.1271
97.2843
97.4415
97.5989
97.7565
97.9142
98.0721
98.2301
98.3883
98.5467
98.7051
98.8638
99.0225
99.1815
99.3405
99.4997
99.6591
99.8186
99.9782
100.138
100.298
100.458
100.618
100.779
100.939
101.1
101.26
101.421
101.582
101.743
101.904
102.066
102.227
102.389
102.55
102.712
102.874
103.036
103.198
103.36
103.522
103.684
103.847
104.009
104.172
104.334
104.496
104.659
104.822
104.984
105.147
105.309
105.472
105.634
105.797
105.96
106.122
106.285
106.447
106.609
106.772
106.934
107.096
107.258
107.42
107.582
107.743
107.905
108.066
108.228
108.389
108.55
108.711
108.872
109.032
109.192
109.353
109.513
109.673
109.832
109.992
110.151
110.31
110.469
110.628
110.787
110.946
111.104
111.262
111.42
111.578
111.736
111.894
112.052
112.21
112.367
112.525
112.683
112.841
112.998
113.156
113.314
113.472
113.63
113.788
113.946
114.105
114.263
114.422
114.581
114.741
114.9
115.06
115.221
115.381
115.542
115.704
115.866
116.028
116.19
116.353
116.517
116.681
116.845
117.01
117.175
117.341
117.507
117.674
117.841
118.009
118.177
118.346
118.515
118.685
118.855
119.026
119.197
119.369
119.541
119.714
119.887
120.061
120.235
120.41
120.585
120.76
120.936
121.112
121.289
121.466
121.643
121.821
121.999
122.178
122.357
122.536
122.716
122.896
123.076
123.257
123.438
123.619
123.801
123.983
124.165
124.347
124.53
124.713
124.897
125.08
125.264
125.448
125.633
125.817
126.002
126.187
126.372
126.558
126.744
126.93
127.116
127.302
127.489
127.675
127.862
128.049
128.236
128.424
128.611
128.798
128.986
129.173
129.361
129.548
129.736
129.923
130.11
130.298
130.485
130.671
130.858
131.044
131.23
131.416
131.601
131.786
131.97
132.153
132.336
132.518
132.7
132.881
133.061
133.24
133.418
133.595
133.772
133.947
134.121
134.294
134.466
134.638
134.807
134.976
135.144
135.311
135.477
135.642
135.806
135.969
136.132
136.293
136.455
136.615
136.775
136.935
137.094
137.254
137.413
137.572
137.732
137.891
138.051
138.211
138.372
138.533
138.695
138.858
139.022
139.186
139.351
139.517
139.684
139.852
140.021
140.191
140.362
140.534
140.707
140.881
141.056
141.232
141.409
141.587
141.767
141.947
142.128
142.31
142.493
142.677
142.862
143.047
143.234
143.421
143.61
143.798
143.988
144.179
144.37
144.562
144.755
144.949
145.143
145.338
145.534
145.73
145.928
146.125
146.324
146.523
146.723
146.923
147.124
147.325
147.528
147.73
147.934
148.138
148.342
148.547
148.753
148.959
149.166
149.373
149.581
149.789
149.998
150.208
150.418
150.628
150.839
151.051
151.263
151.475
151.688
151.902
152.116
152.33
152.545
152.76
152.976
153.193
153.41
153.627
153.845
154.063
154.281
154.5
154.72
154.94
155.16
155.381
155.602
155.824
156.046
156.269
156.492
156.715
156.939
157.163
157.388
157.613
157.838
158.064
158.29
158.517
158.744
158.971
159.199
159.427
159.656
159.885
160.114
160.344
160.574
160.805
161.036
161.267
161.499
161.731
161.963
162.196
162.429
162.662
162.896
163.13
163.365
163.6
163.835
164.071
164.307
164.543
164.78
165.017
165.254
165.492
165.73
)
;

boundaryField
{
    sides
    {
        type            calculated;
        value           nonuniform List<scalar> 2(165.968 -14.6253);
    }
    empty
    {
        type            empty;
        value           nonuniform List<scalar> 0();
    }
}


// ************************************************************************* //
