/*--------------------------------*- C++ -*----------------------------------*\
  =========                 |
  \\      /  F ield         | OpenFOAM: The Open Source CFD Toolbox
   \\    /   O peration     | Website:  https://openfoam.org
    \\  /    A nd           | Version:  9
     \\/     M anipulation  |
\*---------------------------------------------------------------------------*/
FoamFile
{
    format      ascii;
    class       volScalarField;
    location    "0.04";
    object      p;
}
// * * * * * * * * * * * * * * * * * * * * * * * * * * * * * * * * * * * * * //

dimensions      [1 -1 -2 0 0 0 0];

internalField   nonuniform List<scalar> 
100
(
16205.8
16182.4
16125.5
16070.4
16027.8
15988.7
15949.4
15910.5
15872.7
15835.9
15800.3
15765.9
15732.8
15700.8
15670.2
15641
15613.5
15587.6
15563
15540.5
15520.1
15501.1
15483.9
15469
15456
15444.9
15436.2
15428.8
15424.1
15421.2
15420.5
15420.6
15421.1
15422.3
15425.5
15432.3
15445.1
15469.7
15504.3
15542.4
15583.7
15628
15675.6
15726.8
15781.6
15840.1
15902.6
15968.6
16038.3
16111.7
16188.5
16268.2
16351
16436.5
16524.3
16614.2
16706.3
16800.5
16896.5
16994.1
17093.4
17194.1
17296.4
17400.5
17506.2
17613.6
17722.2
17832.3
17943.9
18057.3
18171.8
18287.9
18404.5
18522.6
18640.2
18759.8
18878.7
18999.6
19119
19240.1
19359.5
19481.3
19600.8
19723.6
19845.2
19970.5
20095.4
20225.3
20357.5
20498
20642.7
20798.3
20960.9
21133.8
21311.6
21497.8
21681.9
21867.6
22045
22221.7
)
;

boundaryField
{
    sides
    {
        type            zeroGradient;
    }
    empty
    {
        type            empty;
    }
}


// ************************************************************************* //
