/*--------------------------------*- C++ -*----------------------------------*\
  =========                 |
  \\      /  F ield         | OpenFOAM: The Open Source CFD Toolbox
   \\    /   O peration     | Website:  https://openfoam.org
    \\  /    A nd           | Version:  9
     \\/     M anipulation  |
\*---------------------------------------------------------------------------*/
FoamFile
{
    format      ascii;
    class       volScalarField;
    location    "0.04";
    object      T;
}
// * * * * * * * * * * * * * * * * * * * * * * * * * * * * * * * * * * * * * //

dimensions      [0 0 0 1 0 0 0];

internalField   nonuniform List<scalar> 
100
(
205.718
205.602
205.477
205.364
205.277
205.207
205.104
205.015
204.965
204.917
204.869
204.847
204.838
204.816
204.762
204.731
204.692
204.594
204.459
204.386
204.356
204.301
204.185
204.078
204.032
204.025
204.022
203.995
203.915
203.881
203.883
203.901
203.931
203.941
203.94
203.952
203.989
204.074
204.222
204.394
204.566
204.714
204.882
205.075
205.276
205.515
205.781
206.021
206.253
206.524
206.821
207.122
207.438
207.781
208.109
208.404
208.715
209.061
209.43
209.813
210.192
210.543
210.877
211.234
211.634
212.073
212.487
212.861
213.195
213.586
213.981
214.469
214.888
215.368
215.64
216.061
216.338
216.913
217.282
217.858
218.149
218.626
218.861
219.335
219.632
220.231
220.567
221.137
221.429
221.988
222.293
222.916
223.279
224.03
224.432
225.219
225.593
226.363
226.646
227.402
)
;

boundaryField
{
    sides
    {
        type            zeroGradient;
    }
    empty
    {
        type            empty;
    }
}


// ************************************************************************* //
