/*--------------------------------*- C++ -*----------------------------------*\
  =========                 |
  \\      /  F ield         | OpenFOAM: The Open Source CFD Toolbox
   \\    /   O peration     | Website:  https://openfoam.org
    \\  /    A nd           | Version:  9
     \\/     M anipulation  |
\*---------------------------------------------------------------------------*/
FoamFile
{
    format      ascii;
    class       volScalarField;
    location    "0.038";
    object      mag(U);
}
// * * * * * * * * * * * * * * * * * * * * * * * * * * * * * * * * * * * * * //

dimensions      [0 1 -1 0 0 0 0];

internalField   nonuniform List<scalar> 
100
(
47.7315
50.2767
54.0122
57.1456
59.8349
62.5064
65.2192
67.9423
70.667
73.3821
76.0898
78.8013
81.5108
84.2049
86.8941
89.5846
92.2545
94.8975
97.5341
100.173
102.795
105.382
107.945
110.502
113.046
115.567
118.056
120.512
122.952
125.378
127.778
130.151
132.504
134.858
137.216
139.571
141.907
144.196
146.388
148.43
150.357
152.229
154.054
155.84
157.594
159.307
160.971
162.588
164.165
165.701
167.193
168.645
170.061
171.441
172.79
174.119
175.432
176.726
178.004
179.268
180.52
181.767
183.013
184.255
185.489
186.711
187.923
189.134
190.345
191.555
192.759
193.955
195.143
196.33
197.527
198.738
199.957
201.18
202.406
203.642
204.89
206.154
207.437
208.735
210.042
211.352
212.672
213.991
215.299
216.59
217.854
219.067
220.211
221.27
222.241
223.127
223.959
224.772
225.594
227.745
)
;

boundaryField
{
    sides
    {
        type            calculated;
        value           nonuniform List<scalar> 2(227.745 47.7315);
    }
    empty
    {
        type            empty;
    }
}


// ************************************************************************* //
