/*--------------------------------*- C++ -*----------------------------------*\
  =========                 |
  \\      /  F ield         | OpenFOAM: The Open Source CFD Toolbox
   \\    /   O peration     | Website:  https://openfoam.org
    \\  /    A nd           | Version:  9
     \\/     M anipulation  |
\*---------------------------------------------------------------------------*/
FoamFile
{
    format      ascii;
    class       surfaceScalarField;
    location    "0.038";
    object      phi;
}
// * * * * * * * * * * * * * * * * * * * * * * * * * * * * * * * * * * * * * //

dimensions      [1 0 -1 0 0 0 0];

internalField   nonuniform List<scalar> 
99
(
57.993
60.9982
63.977
66.9457
69.9018
72.8476
75.7734
78.6745
81.5599
84.4278
87.2741
90.1066
92.9431
95.7666
98.5756
101.395
104.218
107.009
109.766
112.522
115.291
118.041
120.747
123.419
126.077
128.766
131.445
134.079
136.684
139.262
141.831
144.419
147.021
149.597
152.16
154.696
157.23
159.766
162.261
164.659
167.053
169.4
171.726
174.05
176.374
178.707
181.026
183.311
185.588
187.873
190.153
192.438
194.745
197.058
199.349
201.625
203.92
206.245
208.6
210.979
213.353
215.711
218.081
220.504
222.987
225.494
227.978
230.437
232.91
235.439
238.039
240.702
243.362
245.975
248.548
251.179
253.893
256.711
259.554
262.418
265.237
268.051
270.9
273.828
276.827
279.874
282.955
286.024
289.069
292.118
295.19
298.296
301.413
304.548
307.685
310.828
313.992
317.165
320.398
)
;

boundaryField
{
    sides
    {
        type            calculated;
        value           nonuniform List<scalar> 2(323.703 -54.978);
    }
    empty
    {
        type            empty;
        value           nonuniform List<scalar> 0();
    }
}


// ************************************************************************* //
