/*--------------------------------*- C++ -*----------------------------------*\
  =========                 |
  \\      /  F ield         | OpenFOAM: The Open Source CFD Toolbox
   \\    /   O peration     | Website:  https://openfoam.org
    \\  /    A nd           | Version:  9
     \\/     M anipulation  |
\*---------------------------------------------------------------------------*/
FoamFile
{
    format      ascii;
    class       volScalarField;
    location    "0.042";
    object      p;
}
// * * * * * * * * * * * * * * * * * * * * * * * * * * * * * * * * * * * * * //

dimensions      [1 -1 -2 0 0 0 0];

internalField   nonuniform List<scalar> 
10000
(
44801.8
44795.9
44792.3
44788.4
44784.6
44780.8
44777
44773.2
44769.4
44765.5
44761.7
44757.9
44754.1
44750.3
44746.4
44742.6
44738.8
44735
44731.2
44727.4
44723.6
44719.7
44715.9
44712.1
44708.3
44704.5
44700.7
44696.8
44693
44689.2
44685.4
44681.6
44677.8
44673.9
44670.1
44666.3
44662.5
44658.7
44654.8
44651
44647.2
44643.4
44639.6
44635.8
44632
44628.2
44624.4
44620.6
44616.7
44612.9
44609.1
44605.3
44601.5
44597.7
44593.9
44590.1
44586.3
44582.5
44578.7
44574.9
44571.1
44567.3
44563.5
44559.7
44555.8
44552
44548.2
44544.4
44540.6
44536.8
44533
44529.2
44525.4
44521.6
44517.8
44514
44510.2
44506.3
44502.5
44498.7
44494.9
44491.1
44487.3
44483.5
44479.7
44475.9
44472.1
44468.3
44464.5
44460.7
44456.9
44453.1
44449.3
44445.5
44441.7
44438
44434.2
44430.4
44426.6
44422.7
44418.9
44415.1
44411.3
44407.6
44403.9
44400.1
44396.2
44392.3
44388.4
44384.7
44380.9
44377.2
44373.5
44369.7
44365.8
44361.9
44358.1
44354.3
44350.6
44346.8
44343.1
44339.3
44335.5
44331.7
44327.8
44324
44320.2
44316.4
44312.7
44309
44305.2
44301.4
44297.6
44293.7
44289.9
44286.2
44282.4
44278.6
44274.8
44271.1
44267.4
44263.6
44259.8
44255.9
44252
44248.1
44244.4
44240.9
44237.3
44233.5
44229.5
44225.5
44221.6
44217.8
44214.2
44210.7
44207
44203.1
44199.2
44195.3
44191.5
44187.9
44184.3
44180.5
44176.5
44172.5
44168.5
44164.9
44161.7
44158.3
44154.3
44150.2
44146.1
44142
44138.1
44134.5
44131.2
44127.8
44124
44120.2
44116.3
44112.4
44108.3
44104.4
44100.7
44097.8
44094.9
44090.9
44086.5
44082.2
44077.8
44073.7
44069.9
44067.3
44064.8
44060.7
44056.3
44051.9
44047.5
44043.2
44039.2
44036.1
44034
44030.6
44026.4
44022.1
44017.8
44013.5
44009.4
44005.7
44002.8
44000
43996.3
43992.1
43988.1
43984.3
43981.2
43977.7
43973.5
43969.2
43964.9
43960.8
43957.2
43954.8
43951.6
43947.3
43942.9
43938.6
43934.2
43930
43926.1
43923
43921.6
43919.2
43915.1
43910.6
43906.2
43901.7
43897.3
43893
43889
43885.8
43883.9
43880.5
43876.2
43871.7
43867.3
43863
43858.9
43855.6
43853.8
43850.5
43846.2
43841.7
43837.4
43833.2
43829.8
43827.5
43824
43819.6
43815.2
43810.8
43806.6
43802.7
43800.3
43797.8
43793.8
43789.3
43784.9
43780.5
43776.3
43772.4
43769.8
43767.7
43763.7
43759.3
43754.8
43750.4
43746
43741.6
43737.5
43734
43732.9
43732.1
43728.2
43723.8
43719.1
43714.5
43710.1
43705.8
43701.4
43697.3
43693.9
43692.1
43689.4
43685.2
43680.8
43676.3
43671.9
43667.7
43663.9
43661.8
43660.1
43656.2
43651.8
43647.2
43642.8
43638.4
43634.2
43630.6
43628.6
43625.8
43621.6
43617.2
43612.8
43608.5
43604.4
43600.9
43598.8
43595.7
43591.4
43587
43582.7
43578.4
43574.3
43570.8
43568.4
43565.1
43561.2
43557.3
43553.9
43551.1
43547.3
43542.9
43538.6
43534.2
43529.9
43525.8
43522.5
43520.6
43517.4
43513.1
43508.7
43504.3
43500
43495.8
43492.3
43490.3
43487.5
43483.3
43478.9
43474.5
43470.2
43466.1
43462.6
43460.8
43458
43453.8
43449.4
43445
43440.7
43436.7
43433.6
43431.5
43427.9
43423.6
43419.2
43414.8
43410.4
43406.1
43402
43398.5
43396.1
43393.8
43390.8
43387.5
43383.9
43379.7
43375.4
43371.1
43366.7
43362.5
43358.5
43355.3
43353.3
43349.8
43345.5
43341.1
43336.8
43332.5
43328.6
43325.7
43323.5
43319.8
43315.4
43311.1
43306.8
43302.6
43298.9
43296.6
43294.1
43290.1
43285.7
43281.4
43277.1
43273.1
43269.9
43267.9
43264.4
43260.2
43255.8
43251.5
43247.3
43243.4
43240.6
43238.3
43234.4
43230.1
43225.8
43221.5
43217.5
43214.3
43212
43208.3
43204
43199.7
43195.4
43191.3
43187.9
43185.8
43182.6
43178.4
43174.1
43169.8
43165.5
43161.5
43158.3
43156.5
43153.3
43149
43144.7
43140.4
43136.2
43132.3
43129.4
43127
43123.1
43118.8
43114.5
43110.2
43106.2
43102.9
43100.8
43097.5
43093.2
43088.9
43084.6
43080.3
43076.2
43072.8
43071
43068.3
43064.2
43059.8
43055.5
43051.2
43047
43043.3
43040.8
43038.5
43034.6
43030.3
43026
43021.7
43017.6
43014.2
43011.8
43008.6
43004.4
43000.1
42995.8
42991.8
42988.3
42985.9
42982.6
42978.3
42974
42969.6
42965.3
42961
42956.8
42952.9
42949.8
42949.5
42948.4
42944.4
42940
42935.2
42930.6
42926.3
42922
42917.9
42914
42911.2
42909.1
42905.4
42901.1
42896.8
42892.5
42888.4
42884.6
42882.1
42879.9
42876
42871.7
42867.4
42863.2
42859.2
42855.8
42853.3
42849.7
42845.5
42841.2
42837
42833
42829.6
42827.4
42824.1
42820
42815.7
42811.4
42807.2
42803.1
42799.5
42797.5
42795
42790.9
42786.7
42782.4
42778.2
42774.2
42770.9
42768.7
42765.5
42761.3
42757
42752.7
42748.6
42744.8
42742.3
42740.1
42736.3
42732
42727.7
42723.5
42719.4
42715.8
42713.5
42710.5
42706.4
42702.1
42697.8
42693.6
42689.6
42686
42683.9
42681.2
42677.1
42672.8
42668.6
42664.4
42660.3
42656.8
42654.4
42651.2
42647.1
42642.8
42638.6
42634.5
42630.7
42628
42625.2
42621.2
42616.9
42612.6
42608.3
42604.1
42600.1
42596.5
42595
42595.1
42591.9
42587.6
42582.8
42577.1
42572.1
42567.7
42563.5
42559.4
42555.7
42553.4
42554.2
42552.6
42548.6
42544.1
42538.8
42533.5
42529.1
42524.9
42520.7
42516.8
42513.5
42512
42509.3
42505.2
42500.9
42496.5
42492.2
42488
42484
42480.6
42479
42477
42473.1
42468.8
42464.5
42460.3
42456.2
42452.4
42449.4
42446.2
42442.1
42438
42433.8
42429.9
42426.6
42424.2
42420.7
42416.5
42412.3
42408
42403.8
42399.7
42395.8
42392.6
42391.7
42389.6
42385.6
42381.3
42376.8
42372.6
42368.4
42364.5
42361.3
42359
42355.4
42351.3
42347
42342.8
42338.6
42334.6
42331.1
42329
42326.4
42322.4
42318.2
42314
42309.8
42305.7
42302
42299.4
42296.7
42292.8
42288.6
42284.4
42280.2
42276.3
42272.9
42271.3
42268.9
42264.9
42260.6
42256.4
42252.2
42248.1
42244.3
42241.5
42238.6
42234.6
42230.5
42226.3
42222.1
42218.2
42215
42213.1
42210.1
42206
42201.8
42197.6
42193.5
42189.5
42186.2
42183.1
42179.1
42174.9
42170.8
42166.6
42162.4
42158.3
42154.8
42152.7
42153.5
42151.6
42147.5
42143
42138
42133.3
42129.1
42125
42121
42117.7
42114.4
42110.5
42106.4
42102.3
42098.3
42094.8
42092.6
42090.3
42086.3
42082.2
42077.9
42073.8
42069.6
42065.7
42062.3
42060.3
42057.5
42053.4
42049.3
42045.1
42041
42037
42033.6
42030.3
42026.4
42022.2
42018
42013.9
42009.8
42006
42003
42002.9
42002.9
41999.4
41995.1
41990.3
41985.1
41980.6
41976.5
41972.4
41968.7
41966
41963
41959
41954.9
41950.7
41946.7
41942.8
41939.7
41937.6
41934.1
41930
41925.8
41921.6
41917.6
41913.7
41910.5
41908.1
41904.4
41900.3
41896.1
41891.8
41887.6
41883.4
41879.4
41875.8
41873.5
41874.4
41873.2
41869.3
41864.9
41859.8
41854.5
41850.1
41846
41842
41838.4
41836
41833.2
41829.3
41825.2
41821
41817
41813.1
41810
41807.5
41803.9
41799.8
41795.7
41791.6
41787.6
41784
41781.6
41778.8
41774.9
41770.7
41766.6
41762.5
41758.5
41755
41752.8
41750.1
41746.2
41742
41737.9
41733.8
41729.7
41725.9
41722.9
41721.4
41718.6
41714.6
41710.4
41706.1
41702
41697.9
41694
41690.7
41688.5
41685.2
41681.2
41677
41672.7
41668.4
41664.3
41660.2
41656.3
41653.1
41652.2
41651.8
41648.3
41644
41639.3
41634
41629.5
41625.4
41621.4
41617.7
41615.1
41613.9
41610.8
41606.7
41602.4
41597.7
41593.2
41589
41584.9
41580.9
41577.4
41575.5
41575.5
41572.8
41568.6
41564.2
41559.1
41554.5
41550.3
41546.2
41542.4
41539.1
41537.2
41534.2
41530.2
41526.1
41522
41517.9
41513.8
41510
41506.8
41505.7
41503.6
41499.7
41495.5
41491
41486.4
41482.2
41478.2
41474.2
41470.8
41469
41466.9
41463.1
41459
41454.9
41450.9
41447.1
41444
41442.1
41438.8
41434.8
41430.7
41426.4
41422.3
41418.2
41414.2
41410.6
41407.9
41405.5
41401.8
41397.7
41393.6
41389.5
41385.5
41381.8
41378.8
41375.5
41371.5
41367.4
41363.3
41359.3
41355.3
41351.6
41349
41349.3
41348.3
41344.5
41340.3
41335.4
41329.8
41325.1
41321
41316.9
41312.9
41308.8
41305.1
41302.2
41301.8
41300.5
41296.7
41292.5
41287.8
41283
41278.7
41274.7
41270.7
41266.9
41263.9
41262.3
41259.4
41255.4
41251.3
41247.2
41243.2
41239.2
41235.6
41233
41231.3
41227.8
41223.8
41219.6
41215.2
41210.8
41206.6
41202.6
41198.6
41194.6
41191.1
41189.1
41189.1
41186.5
41182.4
41178.1
41173.2
41168.7
41164.6
41160.6
41156.7
41153.1
41150.6
41148.1
41144.3
41140.3
41136.2
41132.1
41128.1
41124.1
41120.3
41117.3
41116.8
41116.2
41112.6
41108.4
41103.8
41098.5
41093.8
41089.7
41085.7
41081.6
41077.6
41073.7
41070.3
41068.6
41068.6
41065.7
41061.7
41057.4
41052.7
41048.3
41044.2
41040.2
41036.3
41032.7
41030.1
41027.8
41024.1
41020.1
41016.1
41012
41008
41004.2
41000.8
40998.8
40996.6
40992.8
40988.8
40984.7
40980.7
40976.7
40972.9
40969.6
40967
40963.5
40959.5
40955.5
40951.5
40947.7
40944.3
40942.3
40939.7
40935.9
40931.8
40927.8
40923.8
40919.8
40916.1
40913.1
40910.7
40907.1
40903.1
40899.1
40895.1
40891.3
40887.8
40885.4
40882.3
40878.4
40874.4
40870.4
40866.4
40862.7
40859.7
40857.2
40853.6
40849.6
40845.6
40841.6
40837.7
40834.1
40831.7
40829.7
40826.1
40822.1
40818.1
40814.1
40810.2
40806.6
40803.8
40801.6
40798
40794
40789.9
40785.7
40781.5
40777.4
40773.4
40769.4
40765.6
40762.3
40760.9
40760.7
40757.6
40753.6
40749.3
40744.4
40740.1
40736
40732
40728.2
40724.8
40722.8
40720.6
40716.9
40712.9
40708.8
40704.7
40700.6
40696.6
40692.6
40688.7
40685.1
40682.6
40681.8
40679.2
40675.3
40671.2
40667
40662.8
40658.8
40654.9
40650.9
40647.2
40644.2
40642.2
40638.9
40635
40631
40627
40623.1
40619.2
40615.8
40613.5
40610.7
40606.8
40602.9
40598.9
40594.9
40591.1
40587.7
40584.3
40580.5
40576.5
40572.5
40568.5
40564.6
40560.6
40556.8
40553.6
40552.5
40553.8
40551.7
40547.8
40543.4
40538.1
40531.3
40526.1
40521.9
40518
40514.1
40510.6
40508.1
40509.2
40509.9
40506.8
40502.7
40498.2
40492.8
40487.9
40483.8
40479.8
40475.9
40472.4
40469.7
40466.7
40462.9
40458.9
40454.9
40450.7
40446.6
40442.6
40438.7
40434.8
40431.3
40429.1
40429.4
40427.4
40423.5
40419.3
40414.6
40409.6
40405.5
40401.5
40397.6
40394
40391.3
40389.9
40386.8
40382.9
40378.9
40374.9
40371
40367.1
40363.4
40360.2
40356.8
40352.9
40349
40345
40341.1
40337.2
40333.3
40329.8
40327.5
40327.6
40325.5
40321.6
40317.5
40312.6
40307.1
40302.6
40298.6
40294.7
40290.9
40287.6
40285.9
40287
40285.1
40281.3
40277.1
40272.3
40266.7
40262.1
40258.1
40254.1
40250.2
40246.3
40242.6
40239.3
40237.9
40237.4
40234.2
40230.2
40226.1
40221.5
40217.2
40213.2
40209.3
40205.5
40201.9
40198.8
40195.3
40191.4
40187.5
40183.6
40179.6
40175.8
40172.1
40169
40168.4
40169.9
40167.6
40163.8
40159.5
40154.4
40147.9
40142.8
40138.7
40134.8
40130.9
40127
40123.4
40120.5
40120.2
40120
40116.7
40112.7
40108.3
40103.2
40098.7
40094.7
40090.8
40087
40083.7
40081.7
40079.6
40076
40072.1
40068.2
40064.3
40060.4
40056.7
40053.5
40050.6
40047
40043.1
40039.2
40035.2
40031.2
40027.3
40023.4
40019.6
40016
40013.3
40013.1
40011.9
40008.3
40004.3
39999.8
39995
39990.8
39986.8
39983
39979.3
39976.1
39974.3
39971.7
39967.9
39964
39960.1
39956.3
39952.5
39949
39946.3
39943.1
39939.3
39935.4
39931.4
39927.4
39923.5
39919.6
39915.7
39912
39908.6
39906.8
39906.7
39904
39900.1
39896
39891.4
39886.9
39882.9
39879
39875.2
39871.7
39869.1
39866.7
39863.2
39859.3
39855.4
39851.3
39847.3
39843.4
39839.5
39835.7
39832.4
39830.2
39830.6
39828.8
39825
39820.9
39816.3
39811.2
39806.9
39803
39799.2
39795.6
39792.6
39791
39788.2
39784.5
39780.6
39776.7
39772.8
39769
39765.3
39762.1
39759.2
39755.6
39751.7
39747.8
39743.9
39740
39736.1
39732.3
39728.6
39725.3
39723.7
39724
39721.5
39717.7
39713.6
39708.9
39704.2
39700.2
39696.3
39692.5
39689
39686.2
39683.6
39680.1
39676.2
39672.4
39668.5
39664.8
39661.3
39658.6
39656.1
39652.5
39648.6
39644.7
39640.9
39637
39633.1
39629.3
39625.5
39621.8
39618.2
39614.6
39610.9
39607.3
39604.1
39602.1
39603.3
39602.7
39599.2
39595.3
39590.9
39585.4
39580.1
39575.9
39572
39568.2
39564.3
39560.5
39556.7
39553.1
39550.1
39548.9
39547.2
39543.6
39539.8
39535.8
39531.8
39527.9
39524.1
39520.2
39516.5
39512.8
39509.8
39507.9
39505.1
39501.4
39497.6
39493.8
39489.9
39486.2
39482.7
39479.9
39477.1
39473.5
39469.6
39465.8
39462
39458.1
39454.3
39450.5
39447.1
39444.5
39443.5
39441
39437.2
39433.3
39429.2
39424.9
39420.9
39417.1
39413.3
39409.7
39406.6
39405
39402.7
39399
39395.2
39391.3
39387.5
39383.7
39380
39376.5
39373.7
39370.7
39367
39363.2
39359.4
39355.5
39351.7
39347.9
39344.1
39340.6
39337.8
39336.8
39334.6
39330.9
39327
39323
39318.5
39314.3
39310.5
39306.7
39302.9
39299.2
39296
39294.3
39294
39291.2
39287.4
39283.5
39279.1
39274.5
39270.6
39266.7
39262.9
39259.1
39255.4
39251.7
39248.3
39246
39245
39242
39238.2
39234.4
39230.5
39226.7
39222.9
39219.1
39215.5
39212.3
39209.8
39206.5
39202.8
39199
39195.2
39191.5
39188
39185.2
39182.9
39179.5
39175.7
39171.9
39168.1
39164.3
39160.6
39156.9
39153.6
39150.2
39146.5
39142.7
39138.9
39135.2
39131.4
39127.7
39124.4
39122.1
39122.9
39122.1
39118.6
39114.7
39110.5
39105.5
39100.9
39097
39093.2
39089.4
39085.6
39081.9
39078.1
39074.3
39070.6
39066.8
39063
39059.2
39055.4
39051.7
39048.4
39045.9
39046.7
39048.2
39045.6
39041.9
39037.8
39033
39027.1
39022.3
39018.4
39014.6
39010.9
39007.3
39004.1
39001.5
38998.2
38994.5
38990.7
38986.9
38983.1
38979.3
38975.5
38971.8
38968
38964.5
38961.6
38960.5
38958.8
38955.3
38951.5
38947.6
38943.6
38939.7
38935.9
38932.1
38928.4
38924.6
38921.2
38918.3
38917.9
38917.3
38914
38910.2
38906.1
38901.2
38895.8
38891.6
38887.7
38884
38880.2
38876.5
38872.9
38869.6
38867.6
38867.7
38865.5
38861.8
38857.9
38853.7
38849.3
38845.4
38841.7
38837.9
38834.4
38831.4
38829.1
38825.9
38822.2
38818.5
38814.6
38810.5
38806.1
38802.1
38798.3
38794.5
38790.8
38787.1
38783.4
38780.1
38777.8
38778.7
38780.5
38778
38774.3
38770.3
38765.6
38759.3
38753.5
38749.4
38745.6
38741.8
38738.1
38734.3
38730.6
38727
38723.7
38721.4
38721.4
38719.5
38715.8
38712
38707.8
38703
38698.8
38695
38691.3
38687.6
38684.1
38681.3
38680.9
38680.9
38677.9
38674.1
38670.1
38665.3
38659.5
38655
38651.2
38647.4
38643.7
38640
38636.6
38633.7
38632.8
38631.6
38628.2
38624.5
38620.6
38616.3
38612.3
38608.5
38604.8
38601.1
38597.4
38593.9
38590.6
38587.1
38583.4
38579.7
38576.1
38572.7
38569.9
38569.2
38568.3
38564.9
38561.1
38557.1
38552.3
38547
38542.9
38539.1
38535.4
38531.9
38528.7
38526.9
38527.6
38525.6
38522
38518.2
38513.9
38508.6
38503.7
38499.8
38496
38492.3
38488.6
38484.9
38481.2
38477.5
38473.8
38470.2
38467
38465.2
38466.7
38466.9
38463.7
38460
38455.9
38451
38444.3
38438.9
38434.9
38431.2
38427.5
38423.8
38420.4
38417.8
38417.7
38417.7
38414.6
38410.9
38406.9
38402.3
38397.3
38393.3
38389.6
38385.9
38382.3
38378.8
38375.7
38372.5
38368.9
38365.2
38361.5
38357.8
38354.2
38350.7
38347.8
38347
38347.8
38345.4
38341.8
38337.9
38333.4
38327.4
38321.8
38317.7
38313.9
38310.2
38306.6
38303
38299.8
38297.8
38298.6
38297.8
38294.4
38290.7
38286.6
38281.5
38275.9
38271.7
38268
38264.3
38260.6
38257.2
38254.2
38252.8
38251.4
38248
38244.3
38240.5
38236.2
38231.4
38227.3
38223.6
38219.9
38216.3
38212.9
38210.2
38209.9
38211.6
38209.6
38206
38202.1
38197.8
38192
38185.6
38181.2
38177.4
38173.8
38170.1
38166.4
38162.8
38159.3
38156.4
38155.3
38156.2
38154
38150.4
38146.6
38142.5
38137.5
38133.1
38129.3
38125.6
38121.9
38118.3
38114.7
38111.2
38108.1
38106.6
38105
38101.7
38098
38094.4
38090.7
38087
38083.3
38079.5
38075.6
38071.6
38067.9
38064.2
38060.6
38056.9
38053.3
38050
38047.6
38047.6
38046.7
38043.4
38039.7
38035.8
38031.2
38026.4
38022.4
38018.7
38015.1
38011.4
38007.8
38004.1
38000.5
37996.9
37993.4
37989.9
37986.5
37983.3
37980.6
37979.9
37980.7
37978.3
37974.6
37970.8
37966.6
37961
37955.7
37951.7
37948.1
37944.5
37940.9
37937.7
37935.7
37935.9
37934.1
37930.6
37926.9
37922.9
37918.5
37914.4
37910.7
37907.1
37903.5
37900
37896.7
37893.4
37889.8
37886.2
37882.6
37878.9
37875.3
37871.7
37868.4
37865.7
37864.8
37862.7
37859.2
37855.5
37851.8
37847.9
37843.8
37840.1
37836.5
37832.8
37829.2
37825.6
37822
37818.4
37814.9
37811.8
37810
37809.1
37806.2
37802.6
37799
37795.3
37791.6
37787.9
37784.1
37780.2
37776.5
37772.9
37769.2
37765.6
37762
37758.4
37754.8
37751.2
37747.6
37744.2
37741.5
37741
37742.9
37741.2
37737.7
37734
37729.9
37724.8
37718.2
37713.4
37709.6
37705.9
37702.3
37698.7
37695.1
37691.7
37688.7
37687.4
37688
37685.8
37682.2
37678.5
37674.4
37669.1
37663.5
37659.4
37655.7
37652.1
37648.5
37645
37641.6
37638.7
37637.9
37637.8
37635
37631.4
37627.6
37623.4
37618.3
37614.1
37610.4
37606.8
37603.3
37600
37597.6
37597.8
37597
37593.7
37590.1
37586.2
37581.5
37575.9
37571.6
37567.9
37564.3
37560.7
37557.4
37554.6
37554
37553.2
37550
37546.4
37542.7
37538.5
37534.3
37530.5
37526.9
37523.3
37519.7
37516.2
37513
37510.3
37507.8
37504.4
37500.9
37497.3
37493.7
37490.1
37486.4
37482.7
37479
37475.5
37471.9
37468.3
37464.7
37461.2
37457.7
37454.7
37453.2
37454.2
37452.6
37449.1
37445.5
37441.6
37437
37432.1
37428.2
37424.6
37421
37417.5
37413.9
37410.5
37407.4
37405.4
37403
37399.6
37396.1
37392.5
37388.9
37385.3
37381.6
37377.5
37373.3
37369.6
37366
37362.4
37358.9
37355.3
37351.8
37348.3
37345.3
37343.4
37344.7
37344.7
37341.6
37338
37334.2
37329.8
37324.1
37318.9
37315.1
37311.5
37308
37304.5
37301.2
37298.8
37298.8
37297.7
37294.4
37290.8
37287.1
37282.8
37278.1
37274.1
37270.4
37266.9
37263.3
37259.8
37256.2
37252.7
37249.1
37245.7
37242.6
37240.7
37239.9
37237.1
37233.6
37230
37226.3
37222.3
37218.4
37214.8
37211.3
37207.7
37204.2
37200.9
37198.3
37196.1
37192.9
37189.4
37185.9
37182.3
37178.6
37174.7
37170.9
37167.3
37163.7
37160.2
37156.6
37153.1
37149.6
37146.3
37143.6
37143
37144.7
37143
37139.6
37136
37132.1
37127.4
37121.3
37116.5
37112.7
37109.2
37105.6
37102.1
37098.6
37095.3
37092.4
37091.4
37090.4
37087.4
37083.8
37080.2
37076.4
37072.1
37068.1
37064.5
37061
37057.5
37053.9
37050.4
37046.9
37043.5
37040.4
37038.4
37037.1
37034.1
37030.6
37027.1
37023.6
37020
37016.5
37013.1
37009.7
37006.9
37004
37000.6
36997.1
36993.6
36990.1
36986.5
36982.8
36979
36975.5
36972
36968.4
36964.9
36961.5
36958.3
36956
36954.9
36952.4
36949
36945.4
36941.8
36938
36933.9
36930.2
36926.6
36923.1
36919.6
36916.3
36913.3
36911.8
36911.7
36909.2
36905.8
36902.2
36898.3
36893.6
36888.8
36885
36881.5
36878
36874.6
36871.4
36869.3
36869.3
36867.7
36864.3
36860.8
36857.1
36852.8
36848.1
36844.2
36840.6
36837.1
36833.6
36830.1
36826.7
36823.5
36820.9
36819.6
36817
36813.6
36810.1
36806.6
36802.9
36799.1
36795.5
36792
36788.5
36785
36781.6
36778.5
36775.7
36772.6
36769.1
36765.6
36762.1
36758.5
36754.8
36751
36747.5
36744
36740.5
36737
36733.8
36731
36730.3
36731.2
36728.9
36725.5
36721.9
36718.1
36713.4
36708.3
36704.4
36700.9
36697.4
36694
36690.8
36688.4
36687.3
36684.8
36681.4
36677.9
36674.2
36670.1
36665.3
36661.3
36657.7
36654.2
36650.8
36647.5
36644.8
36644.1
36644
36641.1
36637.7
36634.1
36630.3
36625.9
36621.8
36618.3
36614.8
36611.3
36607.9
36604.6
36601.4
36598
36594.6
36591.1
36587.6
36584.1
36580.5
36576.9
36573.4
36569.9
36566.5
36563
36559.7
36557
36555.9
36557.4
36556
36552.7
36549.2
36545.5
36541.2
36535.1
36529.3
36525.3
36521.8
36518.3
36514.8
36511.4
36508.2
36505.6
36505.1
36506.4
36504.5
36501.1
36497.6
36493.9
36489.7
36484.3
36479.5
36475.8
36472.3
36468.8
36465.4
36461.9
36458.4
36455
36451.5
36448.1
36444.6
36441.2
36437.8
36434.8
36432.7
36433.2
36432.7
36429.6
36426.1
36422.6
36418.7
36413.8
36408.3
36404.3
36400.8
36397.3
36393.9
36390.4
36386.9
36383.5
36380.1
36376.6
36373.3
36370.3
36368.3
36369.1
36368.7
36365.7
36362.3
36358.7
36354.8
36350.2
36345.8
36342.2
36338.8
36335.3
36331.9
36328.6
36325.5
36322.3
36318.9
36315.4
36312
36308.4
36304.6
36300.5
36296.7
36293.2
36289.8
36286.3
36282.9
36279.7
36276.8
36275.3
36276.6
36275.5
36272.4
36268.9
36265.3
36261.3
36256.5
36252.3
36248.7
36245.3
36241.9
36238.6
36235.7
36234
36232.4
36229.3
36225.8
36222.4
36218.8
36214.8
36210.8
36207.3
36203.8
36200.4
36197.1
36194.2
36192.1
36189.9
36186.7
36183.3
36179.9
36176.5
36173.1
36169.6
36166.2
36162.9
36159.6
36156.7
36153.5
36150.2
36146.7
36143.3
36139.9
36136.4
36132.9
36129.4
36125.9
36122.5
36119.1
36115.7
36112.3
36109
36106.1
36104.4
36104.4
36102.1
36098.8
36095.3
36091.8
36087.9
36084
36080.5
36077.1
36073.7
36070.3
36067
36063.7
36060.3
36056.9
36053.5
36050
36046.3
36042.3
36038.6
36035.2
36031.8
36028.4
36025.2
36022.5
36021.7
36023.3
36021.7
36018.5
36015
36011.4
36007.3
36001.9
35996.9
35993.2
35989.8
35986.4
35983.1
35979.9
35977.5
35976.3
35974
35970.7
35967.2
35963.8
35960
35955.8
35952
35948.5
35945.1
35941.8
35938.6
35935.9
35934.3
35931.8
35928.5
35925.1
35921.6
35918
35914
35910.2
35906.8
35903.4
35900
35896.9
35894.3
35893.5
35892.5
35889.5
35886.1
35882.6
35878.9
35874.7
35870.8
35867.4
35864
35860.6
35857.3
35854.3
35851.5
35848.3
35845
35841.6
35838.2
35834.6
35830.9
35827.4
35824
35820.6
35817.3
35814.3
35812.2
35811.8
35809.7
35806.5
35803.1
35799.6
35795.9
35791.9
35788.3
35784.9
35781.6
35778.3
35775.3
35773.2
35772.5
35770
35766.7
35763.3
35759.8
35756
35751.3
35746.4
35742.7
35739.3
35735.9
35732.6
35729.2
35725.8
35722.5
35719.1
35715.8
35712.8
35710.5
35710.6
35709.9
35707
35703.6
35700.2
35696.6
35692.6
35688.4
35684.8
35681.4
35678
35674.6
35671.3
35667.9
35664.6
35661.3
35657.9
35654.6
35651.2
35647.8
35644.5
35641.2
35638.1
35635.7
35634.8
35632.9
35629.7
35626.4
35623
35619.6
35615.9
35612.2
35608.7
35605.4
35602
35598.7
35595.3
35592
35588.6
35585.3
35581.9
35578.5
35575
35571.6
35568.2
35564.9
35561.6
35558.3
35555.2
35552.7
35552.2
35552
35549.2
35545.8
35542.5
35538.9
35534.7
35529.8
35525.9
35522.5
35519.2
35515.9
35512.6
35509.7
35507.9
35507.1
35504.5
35501.2
35497.8
35494.4
35490.9
35487.2
35483.7
35480.3
35477
35473.6
35470.3
35467
35463.7
35460.4
35457
35453.7
35450.3
35446.8
35443.4
35440.1
35436.7
35433.4
35430.1
35427
35424.3
35423.3
35423.5
35421.2
35417.9
35414.6
35411.1
35407.4
35402.8
35398.6
35395.1
35391.8
35388.5
35385.1
35381.9
35378.7
35376.1
35374
35371.1
35367.8
35364.5
35361.1
35357.8
35354.4
35350.8
35347.2
35343.8
35340.5
35337.1
35333.8
35330.5
35327.3
35324.3
35322.2
35321.8
35319.9
35316.7
35313.4
35310.1
35306.6
35302.8
35298.7
35295.2
35291.8
35288.5
35285.2
35281.9
35278.5
35275.2
35271.9
35268.6
35265.2
35261.7
35258.3
35255
35251.7
35248.4
35245.1
35241.9
35239.1
35237.3
35238.2
35237.5
35234.5
35231.2
35227.9
35224.3
35219.9
35213.9
35208.9
35205.3
35202
35198.7
35195.4
35192.2
35189.4
35187.8
35188.4
35186.8
35183.7
35180.4
35177
35173.4
35169.3
35164.7
35160.9
35157.6
35154.3
35151
35147.7
35144.4
35141.1
35138.1
35135.5
35133.1
35130
35126.7
35123.4
35120.1
35116.8
35113.4
35109.9
35106.3
35102.9
35099.6
35096.3
35093
35089.7
35086.6
35083.7
35081.9
35082.4
35081.1
35078
35074.7
35071.3
35067.8
35063.7
35059.1
35055.5
35052.2
35048.9
35045.6
35042.4
35039.5
35037.5
35035.5
35032.4
35029.2
35025.9
35022.6
35019.3
35016
35012.6
35009.2
35005.8
35002.5
34999.3
34996
34992.7
34989.4
34985.9
34982.2
34978.4
34974.9
34971.6
34968.3
34965.1
34961.8
34958.6
34955.4
34952.6
34950.8
34951.7
34951.3
34948.4
34945.2
34941.8
34938.4
34934.4
34929.2
34924.6
34921.1
34917.8
34914.5
34911.2
34908.1
34905.3
34903.9
34903.2
34900.5
34897.3
34894
34890.8
34887.4
34883.7
34879.2
34874.6
34871
34867.7
34864.4
34861.1
34857.8
34854.6
34851.3
34848.1
34844.8
34841.6
34838.4
34835.4
34833.2
34833.2
34832.9
34830.1
34826.9
34823.6
34820.2
34816.4
34811.6
34806.8
34803.2
34799.9
34796.7
34793.5
34790.3
34787.3
34785.1
34783.2
34780.3
34777.1
34773.9
34770.6
34767.2
34763.6
34759.8
34756.5
34753.2
34750
34746.8
34743.7
34741.2
34740.4
34739.5
34736.6
34733.4
34730.2
34726.9
34723.5
34720.1
34716.9
34713.6
34710.4
34707.2
34704.2
34701.3
34698.2
34695
34691.8
34688.5
34685.2
34681.7
34677.8
34673.8
34670.3
34667.1
34663.8
34660.6
34657.3
34654.1
34650.9
34647.8
34645
34643.3
34643.3
34641.3
34638.2
34635
34631.7
34628.3
34624.6
34620.1
34615.9
34612.5
34609.3
34606
34602.8
34599.6
34596.3
34593.1
34590
34587
34584.6
34583.7
34581.8
34578.8
34575.6
34572.4
34569.1
34565.9
34562.6
34559.1
34555.5
34552.2
34549
34545.7
34542.5
34539.3
34536.1
34532.8
34529.6
34526.4
34523.3
34520.5
34518.6
34517.7
34515.2
34512
34508.8
34505.6
34502.2
34498.6
34494
34489.1
34485.4
34482.2
34478.9
34475.7
34472.5
34469.3
34466.2
34463.4
34461.5
34461.6
34460
34456.9
34453.7
34450.5
34447.2
34443.6
34439.7
34436.3
34433.1
34429.9
34426.7
34423.6
34420.6
34418
34415
34411.8
34408.6
34405.4
34402.2
34398.9
34395.7
34392.5
34389.3
34386.2
34383.3
34381.1
34379.7
34377.1
34374
34370.8
34367.6
34364.3
34360.8
34356.8
34352.4
34348.9
34345.6
34342.4
34339.2
34336
34332.8
34329.7
34326.5
34323.3
34320.4
34318.1
34317.7
34316.9
34314.1
34311
34307.8
34304.5
34301.2
34297.6
34293.3
34289.6
34286.3
34283
34279.8
34276.6
34273.4
34270.2
34266.9
34263.3
34259.6
34256.3
34253.1
34249.9
34246.7
34243.5
34240.4
34237.4
34234.7
34233.5
34233.6
34231.5
34228.4
34225.2
34222
34218.6
34214.8
34210.5
34207
34203.7
34200.5
34197.4
34194.3
34191.5
34189.6
34188.1
34185.4
34182.3
34179.1
34175.9
34172.6
34169
34164.5
34159.9
34156.3
34153.1
34149.9
34146.7
34143.5
34140.3
34137.2
34134
34130.8
34127.7
34124.7
34122.2
34121.4
34121.5
34119.2
34116.1
34112.9
34109.7
34106.4
34102.6
34098.4
34094.9
34091.7
34088.5
34085.3
34082.2
34079.2
34076.3
34073.2
34070.1
34066.9
34063.7
34060.4
34056.9
34053.4
34050.2
34047.1
34043.9
34040.8
34038.1
34036.3
34036.1
34034.3
34031.3
34028.1
34024.9
34021.5
34017.7
34012.7
34008.5
34005.2
34002
33998.9
33995.8
33992.8
33990.5
33989.8
33988.4
33985.5
33982.4
33979.2
33976
33972.6
33968.7
33964
33960.2
33957
33953.8
33950.6
33947.5
33944.3
33941.2
33938.1
33934.9
33931.9
33929.3
33928
33927.2
33924.6
33921.5
33918.3
33915.1
33911.9
33908.5
33904.8
33901.4
33898.3
33895.1
33892
33888.9
33886
33883.3
33880.5
33877.4
33874.2
33871.1
33867.9
33864.5
33860.6
33857
33853.7
33850.6
33847.5
33844.4
33841.5
33839.1
33838.4
33837.6
33834.8
33831.7
33828.5
33825.3
33821.8
33817.6
33812.7
33809
33805.8
33802.7
33799.5
33796.5
33793.7
33791.7
33790.7
33788.2
33785.1
33782
33778.9
33775.7
33772.3
33769
33765.8
33762.7
33759.6
33756.6
33753.8
33752
33750.2
33747.4
33744.3
33741.1
33738
33734.7
33731
33726.2
33721.6
33718.2
33715
33711.8
33708.7
33705.6
33702.5
33699.4
33696.3
33693.4
33691.1
33690.6
33690.1
33687.4
33684.3
33681.2
33678.1
33674.9
33671.4
33667.4
33663.8
33660.6
33657.5
33654.4
33651.3
33648.3
33645.4
33643
33640.3
33637.2
33634.1
33631
33627.9
33624.7
33621.6
33618.2
33614.4
33610.5
33607.2
33604.1
33601
33597.9
33594.8
33591.7
33588.8
33586.3
33585.2
33584.4
33581.7
33578.7
33575.6
33572.4
33569.2
33565.6
33561.4
33557.9
33554.7
33551.6
33548.5
33545.5
33542.7
33540.6
33539.7
33537.4
33534.4
33531.3
33528.2
33525
33521.7
33518
33513.5
33509.6
33506.4
33503.2
33500.1
33497
33493.9
33490.8
33487.7
33484.7
33481.6
33478.7
33476
33474.5
33472.9
33470
33467
33463.9
33460.8
33457.7
33454.5
33451.4
33448.3
33445.2
33442.2
33439.1
33436.3
33433.7
33430.8
33427.7
33424.6
33421.5
33418.3
33414.9
33411
33407
33403.7
33400.6
33397.5
33394.4
33391.4
33388.7
33386.9
33386.9
33385.5
33382.7
33379.6
33376.5
33373.4
33370.1
33366.2
33362.1
33358.8
33355.6
33352.6
33349.5
33346.5
33343.6
33341.4
33339.8
33337.2
33334.2
33331.1
33328
33324.9
33321.9
33318.8
33315.7
33312.5
33309.1
33304.9
33300.2
33296.6
33293.4
33290.3
33287.2
33284.2
33281.1
33278
33275
33271.9
33268.8
33265.9
33263.2
33261.6
33262.5
33262.2
33259.6
33256.6
33253.5
33250.4
33247.2
33243.6
33238.8
33232.3
33227.9
33224.5
33221.4
33218.3
33215.3
33212.2
33209.2
33206.1
33203.2
33200.7
33199.5
33199.8
33197.9
33195
33191.9
33188.9
33185.8
33182.6
33179.1
33175.5
33172.4
33169.3
33166.3
33163.2
33160.2
33157.3
33154.5
33151.5
33148.5
33145.4
33142.3
33139.2
33136.1
33133
33130
33127
33123.9
33121
33118.5
33117.1
33115.4
33112.6
33109.6
33106.5
33103.4
33100.3
33097.1
33093.3
33088.2
33083.4
33080
33076.8
33073.8
33070.7
33067.7
33064.6
33061.6
33058.6
33055.5
33052.5
33049.6
33047.2
33046.1
33046.5
33044.6
33041.7
33038.7
33035.6
33032.6
33029.5
33026.4
33023
33019.1
33015.3
33012
33008.8
33005.7
33002.5
32999.2
32995.6
32992.3
32989.3
32986.2
32983.2
32980.2
32977.1
32974.1
32971.3
32968.9
32968.1
32968.5
32966.4
32963.5
32960.5
32957.4
32954.3
32951
32947.2
32942.1
32938.1
32934.9
32931.8
32928.8
32925.7
32922.8
32919.9
32917.5
32915.4
32912.7
32909.7
32906.7
32903.7
32900.6
32897.4
32893.8
32889.5
32885.9
32882.8
32879.8
32876.7
32873.7
32870.8
32868
32866
32865.7
32864.8
32862.1
32859.1
32856.1
32853
32849.9
32846.5
32842.4
32837.3
32833.5
32830.4
32827.3
32824.3
32821.3
32818.3
32815.3
32812.3
32809.6
32807.5
32806.6
32804.6
32801.7
32798.7
32795.7
32792.7
32789.7
32786.6
32783.5
32780.3
32776.7
32773.4
32770.3
32767.3
32764.2
32761.2
32758.2
32755.2
32752.2
32749.2
32746.2
32743.2
32740.2
32737.5
32735.4
32734.3
32732.3
32729.4
32726.4
32723.4
32720.4
32717.4
32714.3
32711.1
32707.4
32703.6
32700.4
32697.4
32694.3
32691.3
32688.3
32685.3
32682.3
32679.3
32676.4
32673.5
32670.8
32668.7
32666.2
32663.2
32660.2
32657.2
32654.2
32651.2
32648.2
32645.2
32642.2
32639.3
32636.3
32633.6
32631.3
32628.8
32625.9
32622.9
32619.9
32616.9
32613.9
32610.9
32607.9
32604.8
32601.5
32598.4
32595.3
32592.3
32589.3
32586.3
32583.3
32580.1
32576.7
32573.2
32570
32567
32564.1
32561.1
32558.1
32555.1
32552.3
32549.8
32548.3
32546.7
32544
32541.1
32538.1
32535.1
32532.1
32529.1
32526
32523
32520
32517
32514.1
32511.1
32508.3
32505.5
32502.6
32499.6
32496.6
32493.6
32490.6
32487.6
32484.6
32481.6
32478.7
32475.7
32472.8
32470.1
32468.1
32466
32463.2
32460.3
32457.3
32454.3
32451.3
32448.3
32445.1
32441.6
32437.1
32433.1
32429.9
32426.8
32423.9
32420.9
32417.9
32415
32412
32409
32406.1
32403.4
32401.2
32400.7
32400.3
32397.8
32394.9
32392
32389
32386
32382.8
32379.3
32375
32371.5
32368.5
32365.5
32362.5
32359.6
32356.6
32353.7
32350.8
32347.8
32344.9
32341.9
32338.9
32335.8
32332.3
32328.6
32325.5
32322.5
32319.5
32316.6
32313.7
32310.8
32308.4
32307.1
32305.7
32303
32300.1
32297.1
32294.2
32291.2
32288.3
32285.3
32282.3
32279.4
32276.5
32273.6
32271
32268.8
32266.2
32263.3
32260.3
32257.4