/*--------------------------------*- C++ -*----------------------------------*\
  =========                 |
  \\      /  F ield         | OpenFOAM: The Open Source CFD Toolbox
   \\    /   O peration     | Website:  https://openfoam.org
    \\  /    A nd           | Version:  9
     \\/     M anipulation  |
\*---------------------------------------------------------------------------*/
FoamFile
{
    format      ascii;
    class       volScalarField;
    location    "0.042";
    object      rho;
}
// * * * * * * * * * * * * * * * * * * * * * * * * * * * * * * * * * * * * * //

dimensions      [1 -3 0 0 0 0 0];

internalField   nonuniform List<scalar> 
10000
(
0.563343
0.56329
0.563258
0.563223
0.563189
0.563155
0.56312
0.563086
0.563052
0.563017
0.562983
0.562949
0.562915
0.56288
0.562846
0.562812
0.562777
0.562743
0.562709
0.562674
0.56264
0.562606
0.562572
0.562537
0.562503
0.562469
0.562435
0.5624
0.562366
0.562332
0.562297
0.562263
0.562229
0.562194
0.56216
0.562126
0.562091
0.562057
0.562023
0.561988
0.561954
0.56192
0.561886
0.561851
0.561817
0.561783
0.561749
0.561715
0.56168
0.561646
0.561612
0.561578
0.561543
0.561509
0.561475
0.561441
0.561406
0.561372
0.561338
0.561304
0.56127
0.561235
0.561201
0.561167
0.561133
0.561098
0.561064
0.56103
0.560996
0.560961
0.560927
0.560893
0.560859
0.560824
0.56079
0.560756
0.560722
0.560687
0.560653
0.560619
0.560585
0.56055
0.560516
0.560482
0.560448
0.560413
0.560379
0.560345
0.560311
0.560277
0.560243
0.560208
0.560174
0.56014
0.560106
0.560072
0.560038
0.560004
0.559969
0.559935
0.5599
0.559866
0.559832
0.559799
0.559765
0.559731
0.559696
0.559661
0.559626
0.559592
0.559559
0.559525
0.559492
0.559457
0.559422
0.559387
0.559353
0.559319
0.559285
0.559252
0.559218
0.559183
0.559149
0.559115
0.55908
0.559046
0.559012
0.558978
0.558944
0.55891
0.558876
0.558842
0.558808
0.558773
0.558739
0.558705
0.558671
0.558637
0.558603
0.558569
0.558535
0.558502
0.558467
0.558432
0.558397
0.558362
0.558329
0.558297
0.558264
0.55823
0.558194
0.558159
0.558123
0.558089
0.558057
0.558025
0.557991
0.557957
0.557921
0.557886
0.557852
0.557819
0.557787
0.557752
0.557716
0.55768
0.557645
0.557612
0.557583
0.557552
0.557517
0.55748
0.557442
0.557405
0.55737
0.557338
0.557308
0.557277
0.557244
0.557209
0.557174
0.557138
0.557102
0.557066
0.557033
0.557007
0.556981
0.556944
0.556905
0.556866
0.556827
0.556789
0.556755
0.556732
0.556709
0.556672
0.556632
0.556592
0.556553
0.556514
0.556478
0.55645
0.556431
0.556401
0.556362
0.556323
0.556285
0.556246
0.556209
0.556176
0.556149
0.556124
0.55609
0.556053
0.556017
0.555982
0.555955
0.555923
0.555885
0.555846
0.555807
0.55577
0.555738
0.555716
0.555687
0.555649
0.555609
0.55557
0.55553
0.555493
0.555457
0.555429
0.555417
0.555395
0.555357
0.555317
0.555277
0.555237
0.555197
0.555158
0.555122
0.555093
0.555076
0.555046
0.555006
0.554966
0.554926
0.554887
0.55485
0.55482
0.554804
0.554774
0.554735
0.554695
0.554656
0.554618
0.554587
0.554566
0.554534
0.554495
0.554455
0.554416
0.554377
0.554343
0.55432
0.554298
0.554261
0.554221
0.554181
0.554142
0.554103
0.554068
0.554045
0.554026
0.55399
0.55395
0.553909
0.553869
0.553829
0.55379
0.553753
0.553721
0.553711
0.553704
0.553669
0.553628
0.553586
0.553545
0.553505
0.553466
0.553427
0.55339
0.553358
0.553343
0.553318
0.55328
0.55324
0.553199
0.55316
0.553122
0.553087
0.553068
0.553052
0.553017
0.552978
0.552936
0.552896
0.552857
0.552819
0.552786
0.552768
0.552743
0.552705
0.552665
0.552625
0.552586
0.552548
0.552517
0.552498
0.55247
0.552431
0.552392
0.552352
0.552313
0.552276
0.552245
0.552222
0.552193
0.552157
0.552122
0.552092
0.552066
0.552031
0.551992
0.551953
0.551913
0.551874
0.551838
0.551808
0.55179
0.551761
0.551722
0.551682
0.551643
0.551603
0.551566
0.551534
0.551516
0.55149
0.551452
0.551412
0.551373
0.551334
0.551296
0.551265
0.551249
0.551223
0.551185
0.551145
0.551106
0.551067
0.55103
0.551002
0.550983
0.55095
0.550911
0.550871
0.550831
0.550792
0.550753
0.550716
0.550684
0.550662
0.550641
0.550614
0.550585
0.550552
0.550514
0.550475
0.550435
0.550396
0.550358
0.550321
0.550293
0.550274
0.550242
0.550203
0.550164
0.550125
0.550086
0.55005
0.550024
0.550005
0.54997
0.549931
0.549892
0.549853
0.549815
0.549781
0.549761
0.549738
0.549701
0.549662
0.549623
0.549584
0.549547
0.549518
0.5495
0.549469
0.54943
0.54939
0.549351
0.549313
0.549278
0.549253
0.549231
0.549196
0.549157
0.549118
0.549079
0.549043
0.549014
0.548993
0.548959
0.54892
0.548881
0.548842
0.548806
0.548774
0.548755
0.548726
0.548688
0.548649
0.54861
0.548571
0.548535
0.548505
0.548489
0.54846
0.548422
0.548382
0.548343
0.548305
0.548269
0.548244
0.548222
0.548186
0.548147
0.548108
0.548069
0.548033
0.548003
0.547984
0.547953
0.547915
0.547875
0.547836
0.547797
0.54776
0.547729
0.547713
0.547689
0.547651
0.547611
0.547572
0.547533
0.547495
0.547461
0.547439
0.547418
0.547382
0.547343
0.547304
0.547265
0.547228
0.547197
0.547176
0.547146
0.547108
0.547069
0.54703
0.546993
0.546961
0.54694
0.54691
0.546871
0.546832
0.546792
0.546753
0.546714
0.546675
0.54664
0.546612
0.54661
0.546599
0.546563
0.546523
0.546479
0.546437
0.546398
0.546359
0.546321
0.546286
0.546261
0.546242
0.546208
0.546169
0.54613
0.546091
0.546054
0.546019
0.545996
0.545976
0.545941
0.545902
0.545863
0.545825
0.545788
0.545757
0.545735
0.545702
0.545664
0.545625
0.545586
0.54555
0.545519
0.545499
0.545469
0.545431
0.545392
0.545353
0.545315
0.545278
0.545245
0.545227
0.545204
0.545167
0.545128
0.545089
0.545051
0.545015
0.544984
0.544965
0.544935
0.544897
0.544858
0.54482
0.544782
0.544748
0.544725
0.544705
0.54467
0.544631
0.544592
0.544553
0.544516
0.544484
0.544462
0.544435
0.544397
0.544359
0.54432
0.544281
0.544245
0.544212
0.544193
0.544168
0.544131
0.544092
0.544053
0.544015
0.543978
0.543946
0.543924
0.543895
0.543858
0.543819
0.54378
0.543743
0.543709
0.543684
0.543658
0.543622
0.543583
0.543544
0.543505
0.543466
0.543429
0.543397
0.543383
0.543384
0.543355
0.543316
0.543272
0.54322
0.543174
0.543135
0.543096
0.543059
0.543025
0.543004
0.543011
0.542997
0.54296
0.542919
0.542871
0.542823
0.542783
0.542744
0.542706
0.54267
0.542641
0.542627
0.542602
0.542565
0.542525
0.542485
0.542446
0.542408
0.542372
0.54234
0.542326
0.542308
0.542272
0.542233
0.542194
0.542156
0.542118
0.542083
0.542056
0.542027
0.54199
0.541952
0.541914
0.541878
0.541848
0.541826
0.541794
0.541756
0.541718
0.541679
0.54164
0.541602
0.541567
0.541538
0.541529
0.541511
0.541474
0.541435
0.541394
0.541355
0.541317
0.541281
0.541252
0.541231
0.541199
0.541161
0.541122
0.541084
0.541046
0.541009
0.540977
0.540958
0.540934
0.540898
0.540859
0.540821
0.540782
0.540745
0.540711
0.540687
0.540663
0.540627
0.540589
0.54055
0.540512
0.540476
0.540446
0.540431
0.540409
0.540372
0.540333
0.540295
0.540256
0.540219
0.540185
0.540159
0.540132
0.540096
0.540058
0.54002
0.539982
0.539946
0.539916
0.539899
0.539872
0.539834
0.539796
0.539758
0.53972
0.539684
0.539653
0.539625
0.539589
0.539551
0.539512
0.539474
0.539436
0.539399
0.539366
0.539348
0.539355
0.539337
0.5393
0.539259
0.539213
0.539171
0.539132
0.539094
0.539058
0.539027
0.538998
0.538962
0.538924
0.538887
0.53885
0.538818
0.538799
0.538777
0.538741
0.538703
0.538664
0.538626
0.538588
0.538552
0.538521
0.538503
0.538477
0.53844
0.538402
0.538364
0.538326
0.53829
0.538259
0.538229
0.538193
0.538155
0.538117
0.538078
0.538041
0.538006
0.537979
0.537978
0.537978
0.537946
0.537907
0.537863
0.537815
0.537774
0.537736
0.537699
0.537665
0.53764
0.537613
0.537577
0.537539
0.537501
0.537463
0.537428
0.5374
0.53738
0.537348
0.537311
0.537273
0.537235
0.537197
0.537162
0.537133
0.53711
0.537077
0.537039
0.537
0.536961
0.536923
0.536885
0.536848
0.536815
0.536794
0.536802
0.536791
0.536756
0.536715
0.536668
0.53662
0.53658
0.536542
0.536506
0.536473
0.53645
0.536425
0.536389
0.536351
0.536313
0.536276
0.536241
0.536212
0.53619
0.536157
0.536119
0.536081
0.536044
0.536007
0.535974
0.535952
0.535927
0.535891
0.535853
0.535815
0.535777
0.535741
0.535709
0.535688
0.535664
0.535627
0.53559
0.535552
0.535514
0.535477
0.535442
0.535414
0.535401
0.535375
0.535338
0.5353
0.535261
0.535223
0.535185
0.535149
0.535119
0.535099
0.535069
0.535032
0.534994
0.534954
0.534915
0.534877
0.53484
0.534804
0.534774
0.534767
0.534763
0.53473
0.534691
0.534648
0.5346
0.534558
0.53452
0.534483
0.53445
0.534426
0.534415
0.534386
0.534349
0.53431
0.534267
0.534225
0.534187
0.534149
0.534113
0.53408
0.534062
0.534063
0.534038
0.534
0.533959
0.533912
0.53387
0.533832
0.533794
0.533759
0.533729
0.533711
0.533684
0.533648
0.53361
0.533572
0.533534
0.533497
0.533462
0.533433
0.533422
0.533403
0.533367
0.533329
0.533287
0.533245
0.533207
0.533169
0.533134
0.533102
0.533085
0.533066
0.533031
0.532994
0.532956
0.532919
0.532884
0.532856
0.532838
0.532808
0.532771
0.532733
0.532695
0.532657
0.532619
0.532583
0.532549
0.532524
0.532502
0.532468
0.53243
0.532393
0.532356
0.532319
0.532285
0.532257
0.532226
0.53219
0.532152
0.532115
0.532078
0.532041
0.532007
0.531983
0.531986
0.531977
0.531942
0.531903
0.531858
0.531807
0.531764
0.531726
0.531688
0.531651
0.531614
0.53158
0.531553
0.53155
0.531537
0.531502
0.531464
0.531421
0.531376
0.531338
0.5313
0.531263
0.531229
0.531201
0.531186
0.53116
0.531123
0.531085
0.531048
0.53101
0.530974
0.530941
0.530917
0.530901
0.530869
0.530832
0.530794
0.530753
0.530712
0.530675
0.530637
0.5306
0.530564
0.530532
0.530513
0.530513
0.530489
0.530452
0.530412
0.530367
0.530326
0.530288
0.530251
0.530215
0.530182
0.530159
0.530136
0.530101
0.530064
0.530027
0.529989
0.529952
0.529915
0.52988
0.529852
0.529848
0.529842
0.529809
0.529771
0.529728
0.529679
0.529637
0.529599
0.529562
0.529524
0.529487
0.529452
0.52942
0.529404
0.529404
0.529378
0.529341
0.529301
0.529258
0.529217
0.52918
0.529143
0.529107
0.529074
0.52905
0.529029
0.528995
0.528958
0.528921
0.528884
0.528847
0.528811
0.52878
0.528762
0.528741
0.528707
0.52867
0.528632
0.528595
0.528558
0.528523
0.528493
0.528469
0.528436
0.5284
0.528363
0.528326
0.528291
0.52826
0.528241
0.528217
0.528182
0.528145
0.528108
0.528071
0.528034
0.528
0.527972
0.52795
0.527917
0.52788
0.527843
0.527806
0.527771
0.527739
0.527717
0.527688
0.527652
0.527615
0.527578
0.527542
0.527508
0.52748
0.527457
0.527423
0.527386
0.52735
0.527313
0.527277
0.527244
0.527221
0.527203
0.52717
0.527134
0.527097
0.52706
0.527024
0.52699
0.526964
0.526944
0.526911
0.526874
0.526836
0.526798
0.526758
0.526721
0.526684
0.526647
0.526612
0.526582
0.526568
0.526567
0.526538
0.526501
0.526461
0.526417
0.526376
0.526339
0.526302
0.526267
0.526235
0.526217
0.526197
0.526163
0.526126
0.526088
0.52605
0.526012
0.525975
0.525939
0.525903
0.525869
0.525846
0.525839
0.525815
0.525778
0.525741
0.525702
0.525663
0.525627
0.52559
0.525554
0.525519
0.525492
0.525473
0.525443
0.525406
0.52537
0.525333
0.525296
0.525261
0.52523
0.525208
0.525182
0.525146
0.52511
0.525073
0.525037
0.525001
0.524969
0.524938
0.524903
0.524866
0.524829
0.524792
0.524756
0.524719
0.524685
0.524655
0.524644
0.524657
0.524637
0.524601
0.524561
0.524512
0.524449
0.5244
0.524362
0.524325
0.524289
0.524257
0.524235
0.524244
0.524251
0.524222
0.524184
0.524143
0.524093
0.524047
0.524009
0.523973
0.523937
0.523904
0.523879
0.523852
0.523816
0.52378
0.523742
0.523704
0.523665
0.523629
0.523592
0.523556
0.523524
0.523504
0.523506
0.523488
0.523452
0.523413
0.523369
0.523324
0.523285
0.523249
0.523213
0.523179
0.523155
0.523141
0.523113
0.523077
0.52304
0.523003
0.522966
0.52293
0.522896
0.522866
0.522835
0.522799
0.522763
0.522726
0.52269
0.522653
0.522618
0.522585
0.522564
0.522565
0.522546
0.52251
0.522471
0.522426
0.522375
0.522333
0.522296
0.52226
0.522225
0.522194
0.522179
0.522189
0.522172
0.522136
0.522098
0.522053
0.522001
0.521958
0.521921
0.521885
0.521848
0.521812
0.521778
0.521748
0.521734
0.52173
0.5217
0.521664
0.521625
0.521582
0.521543
0.521506
0.52147
0.521434
0.521401
0.521373
0.52134
0.521304
0.521267
0.521231
0.521195
0.521159
0.521125
0.521097
0.52109
0.521104
0.521084
0.521048
0.521008
0.520961
0.520901
0.520853
0.520815
0.520779
0.520743
0.520707
0.520674
0.520647
0.520644
0.520642
0.520612
0.520574
0.520534
0.520487
0.520445
0.520408
0.520372
0.520337
0.520306
0.520287
0.520268
0.520234
0.520198
0.520162
0.520125
0.52009
0.520055
0.520025
0.519999
0.519966
0.51993
0.519893
0.519856
0.519819
0.519783
0.519747
0.519711
0.519678
0.519653
0.519651
0.51964
0.519606
0.519569
0.519528
0.519483
0.519444
0.519407
0.519372
0.519337
0.519308
0.519291
0.519267
0.519232
0.519196
0.51916
0.519124
0.519089
0.519057
0.519031
0.519002
0.518966
0.51893
0.518893
0.518856
0.51882
0.518783
0.518748
0.518713
0.518682
0.518664
0.518664
0.518639
0.518603
0.518565
0.518522
0.51848
0.518443
0.518407
0.518372
0.518339
0.518314
0.518293
0.51826
0.518224
0.518187
0.51815
0.518112
0.518076
0.51804
0.518005
0.517974
0.517953
0.517957
0.51794
0.517905
0.517867
0.517824
0.517777
0.517737
0.517701
0.517666
0.517632
0.517604
0.517589
0.517564
0.517529
0.517493
0.517457
0.517421
0.517385
0.517351
0.517321
0.517294
0.51726
0.517224
0.517188
0.517152
0.517116
0.51708
0.517044
0.51701
0.516979
0.516964
0.516967
0.516944
0.516908
0.51687
0.516826
0.516783
0.516746
0.51671
0.516675
0.516641
0.516615
0.516592
0.516559
0.516523
0.516487
0.516451
0.516416
0.516384
0.516359
0.516335
0.516302
0.516266
0.51623
0.516194
0.516158
0.516122
0.516086
0.516051
0.516016
0.515983
0.51595
0.515916
0.515882
0.515852
0.515833
0.515845
0.515839
0.515807
0.51577
0.515729
0.515679
0.515629
0.51559
0.515554
0.515518
0.515482
0.515447
0.515411
0.515378
0.51535
0.515338
0.515323
0.515289
0.515253
0.515217
0.515179
0.515143
0.515107
0.515072
0.515037
0.515003
0.514974
0.514957
0.514931
0.514897
0.514861
0.514825
0.51479
0.514755
0.514722
0.514696
0.51467
0.514636
0.514601
0.514565
0.514529
0.514493
0.514458
0.514423
0.514391
0.514366
0.514357
0.514334
0.514299
0.514262
0.514224
0.514184
0.514147
0.514111
0.514076
0.514042
0.514014
0.513998
0.513977
0.513943
0.513907
0.513871
0.513836
0.5138
0.513765
0.513733
0.513707
0.513679
0.513645
0.513609
0.513573
0.513538
0.513502
0.513466
0.513431
0.513399
0.513373
0.513363
0.513343
0.513308
0.513272
0.513234
0.513193
0.513154
0.513118
0.513082
0.513047
0.513013
0.512983
0.512967
0.512965
0.512939
0.512903
0.512866
0.512825
0.512783
0.512746
0.51271
0.512675
0.512639
0.512604
0.51257
0.512538
0.512517
0.512507
0.512479
0.512444
0.512408
0.512372
0.512336
0.512301
0.512266
0.512232
0.512202
0.512179
0.512148
0.512113
0.512078
0.512043
0.512008
0.511976
0.51195
0.511928
0.511896
0.511861
0.511825
0.51179
0.511755
0.51172
0.511685
0.511654
0.511623
0.511589
0.511553
0.511518
0.511482
0.511447
0.511413
0.511382
0.511361
0.511368
0.51136
0.511328
0.511292
0.511253
0.511206
0.511163
0.511126
0.511091
0.511055
0.51102
0.510985
0.51095
0.510915
0.510879
0.510844
0.510808
0.510773
0.510738
0.510704
0.510672
0.51065
0.510657
0.510671
0.510647
0.510611
0.510573
0.510529
0.510473
0.510429
0.510392
0.510357
0.510322
0.510288
0.510259
0.510235
0.510204
0.510169
0.510133
0.510098
0.510062
0.510027
0.509992
0.509956
0.509922
0.509889
0.509862
0.509852
0.509836
0.509803
0.509767
0.509731
0.509693
0.509656
0.509621
0.509586
0.509551
0.509516
0.509483
0.509457
0.509453
0.509448
0.509417
0.509381
0.509343
0.509297
0.509246
0.509207
0.509171
0.509136
0.509101
0.509066
0.509032
0.509001
0.508983
0.508984
0.508963
0.508928
0.508892
0.508852
0.508812
0.508775
0.50874
0.508705
0.508672
0.508644
0.508622
0.508593
0.508558
0.508523
0.508487
0.508449
0.508407
0.50837
0.508334
0.508299
0.508264
0.508229
0.508195
0.508164
0.508142
0.508151
0.508167
0.508144
0.508109
0.508072
0.508029
0.50797
0.507915
0.507876
0.507841
0.507806
0.507771
0.507736
0.507701
0.507667
0.507636
0.507615
0.507615
0.507597
0.507562
0.507526
0.507487
0.507443
0.507403
0.507367
0.507332
0.507298
0.507265
0.507239
0.507235
0.507235
0.507207
0.507172
0.507134
0.507089
0.507035
0.506993
0.506957
0.506922
0.506887
0.506853
0.50682
0.506793
0.506785
0.506774
0.506742
0.506707
0.50667
0.506631
0.506593
0.506557
0.506522
0.506487
0.506453
0.50642
0.506389
0.506356
0.506322
0.506288
0.506254
0.506221
0.506195
0.506189
0.50618
0.506149
0.506113
0.506076
0.50603
0.505981
0.505942
0.505907
0.505872
0.505839
0.505809
0.505792
0.505798
0.505781
0.505747
0.505711
0.505671
0.505621
0.505575
0.505538
0.505503
0.505468
0.505433
0.505398
0.505364
0.505329
0.505294
0.505261
0.505231
0.505214
0.505228
0.505229
0.5052
0.505165
0.505127
0.50508
0.505017
0.504967
0.50493
0.504895
0.50486
0.504826
0.504794
0.504769
0.504768
0.504768
0.504739
0.504704
0.504667
0.504624
0.504577
0.504539
0.504504
0.50447
0.504435
0.504403
0.504374
0.504344
0.50431
0.504275
0.504241
0.504206
0.504172
0.504139
0.504112
0.504104
0.504112
0.50409
0.504055
0.504019
0.503977
0.503921
0.503867
0.503829
0.503794
0.503759
0.503725
0.503691
0.503661
0.503642
0.50365
0.503643
0.503611
0.503575
0.503537
0.50349
0.503437
0.503397
0.503362
0.503328
0.503293
0.503261
0.503233
0.50322
0.503206
0.503175
0.50314
0.503104
0.503064
0.503019
0.502981
0.502946
0.502911
0.502877
0.502845
0.502819
0.502817
0.502833
0.502813
0.50278
0.502744
0.502703
0.502648
0.502588
0.502547
0.502512
0.502477
0.502443
0.502408
0.502374
0.502341
0.502314
0.502304
0.502312
0.502292
0.502258
0.502222
0.502183
0.502136
0.502094
0.502059
0.502024
0.50199
0.501955
0.501921
0.501889
0.50186
0.501845
0.50183
0.501799
0.501765
0.501731
0.501696
0.501661
0.501626
0.501591
0.501554
0.501517
0.501481
0.501447
0.501412
0.501378
0.501345
0.501313
0.50129
0.50129
0.501282
0.501251
0.501216
0.501179
0.501136
0.501091
0.501053
0.501019
0.500984
0.50095
0.500916
0.500881
0.500847
0.500813
0.50078
0.500748
0.500716
0.500685
0.50066
0.500653
0.500661
0.500638
0.500604
0.500568
0.500528
0.500475
0.500426
0.500388
0.500354
0.50032
0.500286
0.500256
0.500237
0.500239
0.500222
0.500189
0.500154
0.500117
0.500075
0.500037
0.500002
0.499968
0.499934
0.499901
0.49987
0.499839
0.499805
0.499771
0.499737
0.499702
0.499668
0.499635
0.499603
0.499578
0.499569
0.499549
0.499516
0.499482
0.499447
0.49941
0.499372
0.499337
0.499302
0.499268
0.499234
0.4992
0.499166
0.499132
0.499099
0.49907
0.499053
0.499044
0.499017
0.498983
0.498949
0.498914
0.49888
0.498845
0.498809
0.498772
0.498737
0.498703
0.498669
0.498634
0.4986
0.498566
0.498532
0.498498
0.498464
0.498433
0.498407
0.498402
0.49842
0.498404
0.498371
0.498336
0.498297
0.498249
0.498187
0.498142
0.498106
0.498071
0.498037
0.498003
0.49797
0.497937
0.497909
0.497897
0.497903
0.497881
0.497848
0.497813
0.497774
0.497724
0.497671
0.497632
0.497598
0.497564
0.49753
0.497496
0.497464
0.497437
0.497429
0.497429
0.497402
0.497368
0.497332
0.497292
0.497245
0.497205
0.49717
0.497136
0.497103
0.497072
0.497049
0.497051
0.497043
0.497012
0.496978
0.496941
0.496897
0.496844
0.496803
0.496768
0.496734
0.496701
0.496669
0.496643
0.496638
0.49663
0.4966
0.496566
0.49653
0.496491
0.496451
0.496415
0.496381
0.496347
0.496314
0.496281
0.49625
0.496225
0.496201
0.496169
0.496135
0.496102
0.496068
0.496033
0.495999
0.495964
0.495929
0.495895
0.495861
0.495828
0.495794
0.49576
0.495728
0.495699
0.495685
0.495694
0.495679
0.495647
0.495612
0.495575
0.495532
0.495486
0.495449
0.495415
0.495381
0.495347
0.495314
0.495281
0.495252
0.495233
0.495211
0.495179
0.495145
0.495111
0.495077
0.495043
0.495008
0.49497
0.49493
0.494895
0.494861
0.494827
0.494793
0.494759
0.494726
0.494693
0.494664
0.494647
0.494659
0.494659
0.49463
0.494596
0.49456
0.494518
0.494464
0.494415
0.494379
0.494345
0.494311
0.494278
0.494248
0.494225
0.494225
0.494214
0.494183
0.494149
0.494114
0.494074
0.494028
0.493991
0.493956
0.493922
0.493889
0.493855
0.493822
0.493788
0.493755
0.493722
0.493693
0.493675
0.493667
0.49364
0.493607
0.493573
0.493538
0.4935
0.493464
0.49343
0.493396
0.493363
0.49333
0.493298
0.493273
0.493252
0.493223
0.493189
0.493156
0.493122
0.493087
0.49305
0.493014
0.49298
0.492946
0.492912
0.492879
0.492845
0.492812
0.492781
0.492755
0.492749
0.492766
0.49275
0.492718
0.492683
0.492647
0.492602
0.492544
0.492498
0.492463
0.492429
0.492395
0.492362
0.492329
0.492297
0.49227
0.49226
0.492251
0.492222
0.492189
0.492155
0.492118
0.492078
0.49204
0.492006
0.491972
0.491939
0.491905
0.491872
0.491839
0.491807
0.491777
0.491758
0.491746
0.491717
0.491684
0.491651
0.491617
0.491584
0.491551
0.491518
0.491486
0.491459
0.491432
0.4914
0.491367
0.491333
0.4913
0.491266
0.491231
0.491195
0.491161
0.491128
0.491094
0.491061
0.491029
0.490998
0.490976
0.490966
0.490943
0.49091
0.490876
0.490842
0.490806
0.490767
0.490732
0.490698
0.490665
0.490632
0.4906
0.490571
0.490557
0.490556
0.490533
0.4905
0.490466
0.490429
0.490384
0.490339
0.490303
0.490269
0.490236
0.490203
0.490174
0.490153
0.490154
0.490138
0.490106
0.490073
0.490037
0.489997
0.489952
0.489915
0.489881
0.489848
0.489815
0.489782
0.489749
0.489719
0.489694
0.489682
0.489657
0.489625
0.489591
0.489558
0.489523
0.489487
0.489453
0.48942
0.489386
0.489353
0.489321
0.489291
0.489265
0.489235
0.489202
0.489169
0.489135
0.489101
0.489066
0.48903
0.488996
0.488963
0.48893
0.488897
0.488866
0.48884
0.488833
0.488841
0.48882
0.488787
0.488754
0.488717
0.488672
0.488624
0.488587
0.488553
0.48852
0.488488
0.488457
0.488434
0.488424
0.488401
0.488368
0.488335
0.4883
0.488261
0.488215
0.488177
0.488143
0.48811
0.488077
0.488046
0.48802
0.488014
0.488012
0.487986
0.487952
0.487919
0.487882
0.48784
0.487802
0.487768
0.487735
0.487702
0.487669
0.487638
0.487607
0.487575
0.487542
0.487509
0.487476
0.487443
0.487408
0.487374
0.487341
0.487308
0.487275
0.487242
0.487211
0.487184
0.487174
0.487189
0.487176
0.487144
0.487111
0.487076
0.487034
0.486977
0.486921
0.486883
0.486849
0.486816
0.486783
0.486751
0.48672
0.486695
0.486691
0.486704
0.486685
0.486653
0.486619
0.486584
0.486545
0.486493
0.486447
0.486412
0.486379
0.486346
0.486313
0.48628
0.486247
0.486214
0.486181
0.486148
0.486115
0.486082
0.48605
0.486021
0.486001
0.486006
0.486001
0.485972
0.485939
0.485905
0.485868
0.485821
0.485769
0.485731
0.485697
0.485664
0.485631
0.485598
0.485565
0.485533
0.4855
0.485467
0.485435
0.485407
0.485388
0.485396
0.485392
0.485363
0.48533
0.485296
0.485259
0.485215
0.485173
0.485139
0.485106
0.485073
0.485041
0.485009
0.48498
0.484949
0.484917
0.484884
0.484851
0.484817
0.484781
0.484741
0.484705
0.484672
0.484639
0.484606
0.484574
0.484542
0.484515
0.484501
0.484513
0.484503
0.484473
0.48444
0.484406
0.484367
0.484321
0.484281
0.484247
0.484214
0.484182
0.484151
0.484123
0.484107
0.484091
0.484062
0.484029
0.483996
0.483961
0.483923
0.483886
0.483852
0.483819
0.483787
0.483755
0.483727
0.483707
0.483686
0.483656
0.483623
0.483591
0.483558
0.483525
0.483493
0.48346
0.483428
0.483397
0.483369
0.483339
0.483307
0.483274
0.483241
0.483209
0.483176
0.483142
0.483108
0.483075
0.483043
0.48301
0.482978
0.482945
0.482914
0.482886
0.48287
0.48287
0.482848
0.482816
0.482783
0.482749
0.482713
0.482675
0.482641
0.482609
0.482576
0.482544
0.482512
0.482481
0.482449
0.482416
0.482384
0.48235
0.482315
0.482276
0.482241
0.482208
0.482176
0.482144
0.482113
0.482088
0.48208
0.482095
0.48208
0.482049
0.482016
0.481981
0.481942
0.48189
0.481842
0.481807
0.481774
0.481742
0.48171
0.48168
0.481657
0.481646
0.481623
0.481592
0.481559
0.481526
0.48149
0.48145
0.481413
0.48138
0.481348
0.481316
0.481285
0.48126
0.481244
0.48122
0.481188
0.481156
0.481123
0.481088
0.481049
0.481013
0.48098
0.480948
0.480916
0.480886
0.480861
0.480854
0.480844
0.480815
0.480783
0.480749
0.480714
0.480674
0.480637
0.480603
0.480571
0.480539
0.480507
0.480478
0.480452
0.480421
0.480389
0.480357
0.480324
0.48029
0.480254
0.480221
0.480188
0.480156
0.480125
0.480096
0.480075
0.480071
0.480052
0.480021
0.479988
0.479955
0.479919
0.479881
0.479847
0.479814
0.479782
0.479751
0.479722
0.479702
0.479695
0.479671
0.47964
0.479607
0.479574
0.479537
0.479492
0.479446
0.47941
0.479377
0.479345
0.479313
0.47928
0.479248
0.479216
0.479184
0.479152
0.479123
0.479102
0.479102
0.479096
0.479068
0.479036
0.479003
0.478969
0.47893
0.478889
0.478855
0.478822
0.47879
0.478758
0.478726
0.478694
0.478662
0.47863
0.478597
0.478565
0.478533
0.478501
0.478469
0.478437
0.478408
0.478385
0.478376
0.478358
0.478327
0.478295
0.478263
0.47823
0.478195
0.478159
0.478126
0.478094
0.478062
0.47803
0.477997
0.477965
0.477933
0.477901
0.477869
0.477836
0.477803
0.47777
0.477738
0.477705
0.477673
0.477642
0.477612
0.477588
0.477584
0.477582
0.477555
0.477523
0.47749
0.477456
0.477416
0.477369
0.477332
0.477299
0.477267
0.477235
0.477204
0.477176
0.477159
0.477151
0.477126
0.477094
0.477062
0.47703
0.476996
0.47696
0.476926
0.476894
0.476862
0.47683
0.476798
0.476766
0.476734
0.476702
0.47667
0.476638
0.476606
0.476573
0.47654
0.476508
0.476476
0.476444
0.476412
0.476382
0.476356
0.476346
0.476349
0.476326
0.476295
0.476263
0.476229
0.476193
0.47615
0.476109
0.476076
0.476044
0.476012
0.47598
0.475949
0.475918
0.475893
0.475873
0.475845
0.475813
0.475781
0.475749
0.475717
0.475684
0.47565
0.475615
0.475583
0.475551
0.475519
0.475487
0.475455
0.475424
0.475396
0.475375
0.475371
0.475353
0.475323
0.475291
0.475259
0.475225
0.475189
0.47515
0.475115
0.475083
0.475051
0.475019
0.474987
0.474955
0.474924
0.474892
0.474859
0.474827
0.474793
0.474761
0.474729
0.474697
0.474665
0.474634
0.474603
0.474576
0.474559
0.474567
0.474561
0.474532
0.474501
0.474468
0.474433
0.474392
0.474334
0.474286
0.474251
0.474219
0.474187
0.474156
0.474125
0.474098
0.474083
0.474088
0.474073
0.474043
0.474011
0.473979
0.473945
0.473905
0.47386
0.473824
0.473792
0.47376
0.473728
0.473696
0.473665
0.473634
0.473604
0.473579
0.473556
0.473526
0.473495
0.473463
0.473431
0.473399
0.473367
0.473333
0.473298
0.473265
0.473233
0.473202
0.47317
0.473139
0.473108
0.473081
0.473064
0.473068
0.473055
0.473026
0.472994
0.472962
0.472928
0.472888
0.472844
0.472809
0.472777
0.472745
0.472714
0.472683
0.472655
0.472635
0.472616
0.472587
0.472556
0.472524
0.472492
0.472461
0.472429
0.472396
0.472363
0.472331
0.472299
0.472267
0.472236
0.472204
0.472172
0.472139
0.472103
0.472066
0.472033
0.472001
0.471969
0.471938
0.471906
0.471875
0.471844
0.471817
0.4718
0.471809
0.471805
0.471777
0.471746
0.471714
0.47168
0.471642
0.471592
0.471547
0.471513
0.471481
0.47145
0.471419
0.471388
0.471362
0.471347
0.471341
0.471315
0.471284
0.471253
0.471221
0.471189
0.471153
0.47111
0.471065
0.47103
0.470998
0.470967
0.470935
0.470904
0.470872
0.470841
0.470809
0.470778
0.470747
0.470716
0.470687
0.470666
0.470666
0.470663
0.470636
0.470605
0.470573
0.47054
0.470504
0.470458
0.470411
0.470377
0.470345
0.470314
0.470282
0.470252
0.470223
0.470201
0.470184
0.470156
0.470125
0.470093
0.470062
0.470029
0.469994
0.469958
0.469925
0.469894
0.469862
0.469831
0.469802
0.469778
0.46977
0.469761
0.469734
0.469703
0.469671
0.469639
0.469607
0.469574
0.469543
0.469511
0.46948
0.469449
0.46942
0.469393
0.469363
0.469332
0.4693
0.469269
0.469237
0.469203
0.469165
0.469126
0.469093
0.469062
0.46903
0.468999
0.468968
0.468937
0.468906
0.468875
0.468849
0.468832
0.468832
0.468813
0.468783
0.468751
0.46872
0.468687
0.468652
0.468608
0.468567
0.468534
0.468503
0.468472
0.46844
0.468409
0.468378
0.468347
0.468316
0.468288
0.468265
0.468256
0.468238
0.468208
0.468177
0.468146
0.468115
0.468083
0.468051
0.468017
0.467983
0.467951
0.46792
0.467889
0.467857
0.467826
0.467795
0.467764
0.467733
0.467702
0.467672
0.467644
0.467626
0.467617
0.467593
0.467563
0.467531
0.4675
0.467468
0.467432
0.467388
0.46734
0.467305
0.467274
0.467242
0.467211
0.46718
0.467149
0.467119
0.467092
0.467074
0.467074
0.467059
0.467029
0.466998
0.466967
0.466935
0.4669
0.466863
0.46683
0.466799
0.466768
0.466737
0.466706
0.466678
0.466652
0.466623
0.466592
0.466561
0.46653
0.466499
0.466468
0.466436
0.466405
0.466374
0.466344
0.466316
0.466295
0.466282
0.466257
0.466226
0.466195
0.466164
0.466132
0.466099
0.466059
0.466017
0.465983
0.465952
0.465921
0.46589
0.465859
0.465828
0.465797
0.465766
0.465735
0.465707
0.465684
0.46568
0.465673
0.465646
0.465615
0.465584
0.465553
0.465521
0.465486
0.465445
0.465408
0.465376
0.465345
0.465314
0.465283
0.465252
0.46522
0.465188
0.465154
0.465118
0.465086
0.465055
0.465024
0.464993
0.464962
0.464931
0.464902
0.464876
0.464864
0.464866
0.464845
0.464815
0.464784
0.464753
0.46472
0.464683
0.464642
0.464607
0.464576
0.464545
0.464514
0.464484
0.464457
0.464438
0.464424
0.464398
0.464367
0.464337
0.464306
0.464274
0.464239
0.464195
0.46415
0.464116
0.464084
0.464053
0.464023
0.463992
0.463961
0.46393
0.463899
0.463869
0.463838
0.463809
0.463785
0.463777
0.463778
0.463755
0.463725
0.463695
0.463663
0.463631
0.463595
0.463554
0.46352
0.463488
0.463458
0.463427
0.463396
0.463367
0.463339
0.463309
0.463278
0.463248
0.463217
0.463185
0.46315
0.463117
0.463086
0.463055
0.463025
0.462995
0.462968
0.46295
0.462949
0.462931
0.462902
0.462871
0.46284
0.462807
0.46277
0.462722
0.462681
0.462648
0.462618
0.462587
0.462557
0.462528
0.462506
0.462499
0.462485
0.462457
0.462426
0.462396
0.462364
0.462332
0.462294
0.462248
0.462211
0.46218
0.462149
0.462118
0.462088
0.462057
0.462026
0.461996
0.461966
0.461936
0.461911
0.461898
0.46189
0.461865
0.461835
0.461804
0.461773
0.461742
0.461708
0.461672
0.46164
0.461609
0.461578
0.461548
0.461518
0.461489
0.461464
0.461436
0.461406
0.461375
0.461345
0.461313
0.46128
0.461243
0.461207
0.461176
0.461145
0.461115
0.461085
0.461056
0.461033
0.461027
0.461018
0.460992
0.460961
0.460931
0.460899
0.460865
0.460824
0.460776
0.460741
0.460709
0.460679
0.460648
0.460619
0.460592
0.460572
0.460562
0.460538
0.460508
0.460478
0.460447
0.460416
0.460383
0.460351
0.46032
0.46029
0.46026
0.46023
0.460204
0.460186
0.460168
0.460141
0.46011
0.46008
0.460049
0.460017
0.459981
0.459935
0.45989
0.459856
0.459825
0.459795
0.459764
0.459734
0.459703
0.459673
0.459643
0.459615
0.459593
0.459588
0.459582
0.459557
0.459527
0.459496
0.459466
0.459434
0.4594
0.459361
0.459327
0.459296
0.459265
0.459235
0.459205
0.459175
0.459147
0.459123
0.459097
0.459067
0.459037
0.459007
0.458976
0.458946
0.458915
0.458882
0.458845
0.458807
0.458775
0.458745
0.458714
0.458684