/*--------------------------------*- C++ -*----------------------------------*\
  =========                 |
  \\      /  F ield         | OpenFOAM: The Open Source CFD Toolbox
   \\    /   O peration     | Website:  https://openfoam.org
    \\  /    A nd           | Version:  9
     \\/     M anipulation  |
\*---------------------------------------------------------------------------*/
FoamFile
{
    format      ascii;
    class       volScalarField;
    location    "0.045";
    object      p;
}
// * * * * * * * * * * * * * * * * * * * * * * * * * * * * * * * * * * * * * //

dimensions      [1 -1 -2 0 0 0 0];

internalField   nonuniform List<scalar> 
10000
(
8974.72
8974.69
8974.64
8974.61
8974.58
8974.55
8974.51
8974.48
8974.44
8974.4
8974.36
8974.33
8974.28
8974.24
8974.2
8974.16
8974.11
8974.07
8974.02
8973.98
8973.93
8973.88
8973.83
8973.78
8973.74
8973.69
8973.64
8973.59
8973.54
8973.48
8973.43
8973.38
8973.33
8973.28
8973.23
8973.18
8973.13
8973.08
8973.03
8972.98
8972.93
8972.88
8972.83
8972.79
8972.74
8972.69
8972.64
8972.6
8972.55
8972.51
8972.47
8972.42
8972.38
8972.34
8972.3
8972.26
8972.22
8972.19
8972.15
8972.12
8972.08
8972.05
8972.01
8971.98
8971.95
8971.92
8971.89
8971.86
8971.84
8971.81
8971.78
8971.76
8971.73
8971.71
8971.69
8971.67
8971.64
8971.62
8971.6
8971.58
8971.57
8971.55
8971.53
8971.51
8971.49
8971.48
8971.46
8971.45
8971.43
8971.41
8971.4
8971.38
8971.37
8971.35
8971.34
8971.32
8971.31
8971.29
8971.28
8971.26
8971.24
8971.23
8971.21
8971.2
8971.18
8971.16
8971.15
8971.13
8971.11
8971.09
8971.07
8971.06
8971.04
8971.02
8971
8970.98
8970.96
8970.94
8970.92
8970.89
8970.87
8970.85
8970.83
8970.81
8970.78
8970.76
8970.74
8970.71
8970.69
8970.67
8970.64
8970.62
8970.6
8970.57
8970.55
8970.52
8970.5
8970.47
8970.45
8970.43
8970.4
8970.38
8970.35
8970.33
8970.31
8970.28
8970.26
8970.23
8970.21
8970.19
8970.16
8970.14
8970.12
8970.1
8970.07
8970.05
8970.03
8970
8969.98
8969.96
8969.93
8969.91
8969.89
8969.87
8969.84
8969.82
8969.8
8969.77
8969.75
8969.72
8969.7
8969.67
8969.65
8969.62
8969.6
8969.57
8969.54
8969.51
8969.48
8969.46
8969.43
8969.4
8969.36
8969.33
8969.3
8969.27
8969.23
8969.2
8969.16
8969.12
8969.09
8969.05
8969.01
8968.97
8968.93
8968.88
8968.84
8968.79
8968.75
8968.7
8968.66
8968.61
8968.56
8968.51
8968.46
8968.41
8968.35
8968.3
8968.25
8968.19
8968.14
8968.08
8968.02
8967.96
8967.91
8967.85
8967.79
8967.73
8967.67
8967.61
8967.55
8967.49
8967.42
8967.36
8967.3
8967.24
8967.17
8967.11
8967.05
8966.99
8966.93
8966.86
8966.8
8966.74
8966.68
8966.62
8966.55
8966.49
8966.43
8966.37
8966.31
8966.25
8966.19
8966.14
8966.08
8966.02
8965.96
8965.91
8965.85
8965.8
8965.74
8965.69
8965.63
8965.58
8965.53
8965.48
8965.43
8965.38
8965.33
8965.28
8965.23
8965.18
8965.14
8965.09
8965.05
8965
8964.96
8964.91
8964.87
8964.83
8964.79
8964.74
8964.7
8964.66
8964.63
8964.59
8964.55
8964.51
8964.47
8964.44
8964.4
8964.36
8964.33
8964.29
8964.26
8964.23
8964.19
8964.16
8964.12
8964.09
8964.06
8964.03
8964
8963.96
8963.93
8963.9
8963.87
8963.84
8963.81
8963.78
8963.75
8963.72
8963.69
8963.66
8963.63
8963.6
8963.57
8963.54
8963.51
8963.48
8963.45
8963.42
8963.39
8963.36
8963.33
8963.3
8963.27
8963.24
8963.2
8963.17
8963.14
8963.11
8963.08
8963.05
8963.02
8962.98
8962.95
8962.92
8962.88
8962.85
8962.82
8962.78
8962.75
8962.71
8962.68
8962.64
8962.61
8962.57
8962.53
8962.5
8962.46
8962.42
8962.38
8962.35
8962.31
8962.27
8962.23
8962.19
8962.15
8962.11
8962.06
8962.02
8961.98
8961.94
8961.89
8961.85
8961.81
8961.76
8961.72
8961.68
8961.63
8961.59
8961.54
8961.49
8961.45
8961.4
8961.36
8961.31
8961.26
8961.22
8961.17
8961.12
8961.08
8961.03
8960.98
8960.93
8960.89
8960.84
8960.79
8960.75
8960.7
8960.65
8960.61
8960.56
8960.51
8960.47
8960.42
8960.38
8960.33
8960.29
8960.24
8960.2
8960.15
8960.11
8960.07
8960.02
8959.98
8959.94
8959.9
8959.86
8959.82
8959.78
8959.74
8959.7
8959.66
8959.62
8959.59
8959.55
8959.52
8959.48
8959.45
8959.41
8959.38
8959.35
8959.31
8959.28
8959.25
8959.22
8959.19
8959.16
8959.13
8959.11
8959.08
8959.05
8959.03
8959
8958.97
8958.95
8958.93
8958.9
8958.88
8958.86
8958.83
8958.81
8958.79
8958.77
8958.75
8958.73
8958.71
8958.69
8958.67
8958.65
8958.63
8958.61
8958.59
8958.58
8958.56
8958.54
8958.52
8958.51
8958.49
8958.47
8958.46
8958.44
8958.42
8958.41
8958.39
8958.37
8958.36
8958.34
8958.32
8958.31
8958.29
8958.27
8958.26
8958.24
8958.22
8958.2
8958.19
8958.17
8958.15
8958.13
8958.12
8958.1
8958.08
8958.06
8958.04
8958.02
8958.01
8957.99
8957.97
8957.95
8957.93
8957.91
8957.89
8957.87
8957.85
8957.82
8957.8
8957.78
8957.76
8957.74
8957.71
8957.69
8957.67
8957.64
8957.62
8957.6
8957.57
8957.54
8957.52
8957.49
8957.47
8957.44
8957.41
8957.38
8957.35
8957.33
8957.3
8957.27
8957.24
8957.2
8957.17
8957.14
8957.11
8957.08
8957.04
8957.01
8956.97
8956.94
8956.9
8956.87
8956.83
8956.79
8956.75
8956.72
8956.68
8956.64
8956.6
8956.56
8956.52
8956.48
8956.44
8956.39
8956.35
8956.31
8956.27
8956.23
8956.18
8956.14
8956.1
8956.05
8956.01
8955.97
8955.92
8955.88
8955.84
8955.79
8955.75
8955.71
8955.66
8955.62
8955.58
8955.54
8955.49
8955.45
8955.41
8955.37
8955.33
8955.29
8955.25
8955.21
8955.17
8955.13
8955.09
8955.05
8955.02
8954.98
8954.95
8954.91
8954.88
8954.84
8954.81
8954.77
8954.74
8954.71
8954.68
8954.65
8954.62
8954.59
8954.56
8954.53
8954.5
8954.47
8954.45
8954.42
8954.39
8954.37
8954.34
8954.32
8954.29
8954.27
8954.25
8954.22
8954.2
8954.18
8954.15
8954.13
8954.11
8954.09
8954.06
8954.04
8954.02
8954
8953.98
8953.96
8953.94
8953.91
8953.89
8953.87
8953.85
8953.83
8953.81
8953.79
8953.77
8953.75
8953.73
8953.71
8953.69
8953.67
8953.65
8953.63
8953.61
8953.59
8953.57
8953.55
8953.53
8953.51
8953.49
8953.47
8953.45
8953.43
8953.41
8953.4
8953.38
8953.36
8953.34
8953.32
8953.31
8953.29
8953.27
8953.26
8953.24
8953.23
8953.21
8953.2
8953.18
8953.17
8953.16
8953.14
8953.13
8953.12
8953.11
8953.1
8953.08
8953.07
8953.06
8953.05
8953.04
8953.03
8953.02
8953.02
8953.01
8953
8952.99
8952.99
8952.98
8952.97
8952.97
8952.96
8952.95
8952.95
8952.94
8952.94
8952.93
8952.93
8952.93
8952.92
8952.92
8952.91
8952.91
8952.91
8952.9
8952.9
8952.9
8952.9
8952.89
8952.89
8952.89
8952.89
8952.89
8952.89
8952.88
8952.88
8952.88
8952.88
8952.88
8952.88
8952.88
8952.88
8952.88
8952.88
8952.87
8952.87
8952.87
8952.87
8952.87
8952.87
8952.87
8952.87
8952.87
8952.87
8952.88
8952.88
8952.88
8952.88
8952.88
8952.88
8952.88
8952.88
8952.88
8952.88
8952.89
8952.89
8952.89
8952.89
8952.89
8952.89
8952.9
8952.9
8952.9
8952.9
8952.91
8952.91
8952.91
8952.91
8952.92
8952.92
8952.92
8952.93
8952.93
8952.93
8952.94
8952.94
8952.95
8952.95
8952.95
8952.96
8952.96
8952.97
8952.97
8952.97
8952.98
8952.98
8952.99
8952.99
8952.99
8953
8953
8953.01
8953.01
8953.01
8953.02
8953.02
8953.03
8953.03
8953.03
8953.03
8953.04
8953.04
8953.04
8953.04
8953.05
8953.05
8953.05
8953.05
8953.05
8953.05
8953.05
8953.05
8953.05
8953.05
8953.05
8953.05
8953.04
8953.04
8953.04
8953.03
8953.03
8953.03
8953.02
8953.02
8953.01
8953.01
8953
8952.99
8952.99
8952.98
8952.97
8952.96
8952.95
8952.94
8952.94
8952.93
8952.92
8952.9
8952.89
8952.88
8952.87
8952.86
8952.85
8952.84
8952.82
8952.81
8952.8
8952.79
8952.77
8952.76
8952.74
8952.73
8952.72
8952.7
8952.69
8952.68
8952.66
8952.65
8952.63
8952.62
8952.6
8952.59
8952.58
8952.56
8952.55
8952.54
8952.52
8952.51
8952.49
8952.48
8952.47
8952.45
8952.44
8952.43
8952.42
8952.4
8952.39
8952.38
8952.37
8952.36
8952.35
8952.34
8952.33
8952.32
8952.3
8952.3
8952.29
8952.28
8952.27
8952.26
8952.25
8952.24
8952.23
8952.23
8952.22
8952.21
8952.21
8952.2
8952.2
8952.19
8952.18
8952.18
8952.17
8952.17
8952.17
8952.16
8952.16
8952.15
8952.15
8952.15
8952.15
8952.14
8952.14
8952.14
8952.14
8952.13
8952.13
8952.13
8952.13
8952.13
8952.13
8952.13
8952.13
8952.13
8952.12
8952.12
8952.12
8952.12
8952.12
8952.12
8952.12
8952.12
8952.12
8952.12
8952.11
8952.11
8952.11
8952.11
8952.11
8952.11
8952.1
8952.1
8952.1
8952.1
8952.09
8952.09
8952.09
8952.08
8952.08
8952.07
8952.07
8952.06
8952.06
8952.05
8952.05
8952.04
8952.04
8952.03
8952.02
8952.01
8952.01
8952
8951.99
8951.98
8951.97
8951.97
8951.96
8951.95
8951.94
8951.93
8951.92
8951.91
8951.9
8951.89
8951.88
8951.87
8951.86
8951.85
8951.84
8951.83
8951.82
8951.82
8951.81
8951.8
8951.79
8951.78
8951.78
8951.77
8951.77
8951.76
8951.76
8951.75
8951.75
8951.75
8951.75
8951.75
8951.75
8951.75
8951.75
8951.76
8951.76
8951.77
8951.78
8951.78
8951.79
8951.8
8951.82
8951.83
8951.84
8951.86
8951.88
8951.9
8951.92
8951.94
8951.96
8951.98
8952.01
8952.04
8952.06
8952.09
8952.12
8952.15
8952.19
8952.22
8952.25
8952.29
8952.33
8952.37
8952.41
8952.45
8952.49
8952.53
8952.57
8952.62
8952.66
8952.71
8952.75
8952.8
8952.85
8952.9
8952.95
8953
8953.05
8953.1
8953.15
8953.2
8953.25
8953.3
8953.35
8953.41
8953.46
8953.51
8953.56
8953.61
8953.66
8953.72
8953.77
8953.82
8953.87
8953.92
8953.97
8954.02
8954.07
8954.11
8954.16
8954.21
8954.26
8954.3
8954.35
8954.39
8954.44
8954.48
8954.52
8954.56
8954.6
8954.64
8954.68
8954.72
8954.76
8954.8
8954.83
8954.87
8954.9
8954.94
8954.97
8955
8955.03
8955.06
8955.09
8955.12
8955.15
8955.17
8955.2
8955.23
8955.25
8955.28
8955.3
8955.32
8955.34
8955.37
8955.39
8955.41
8955.43
8955.45
8955.47
8955.49
8955.5
8955.52
8955.54
8955.56
8955.57
8955.59
8955.61
8955.62
8955.64
8955.66
8955.67
8955.69
8955.7
8955.72
8955.74
8955.75
8955.77
8955.78
8955.8
8955.82
8955.83
8955.85
8955.87
8955.88
8955.9
8955.92
8955.94
8955.95
8955.97
8955.99
8956.01
8956.03
8956.05
8956.07
8956.09
8956.11
8956.13
8956.15
8956.17
8956.19
8956.22
8956.24
8956.26
8956.28
8956.31
8956.33
8956.36
8956.38
8956.41
8956.43
8956.46
8956.49
8956.52
8956.55
8956.58
8956.61
8956.64
8956.67
8956.7
8956.73
8956.77
8956.8
8956.84
8956.87
8956.91
8956.95
8956.99
8957.02
8957.07
8957.11
8957.15
8957.19
8957.24
8957.29
8957.33
8957.38
8957.43
8957.48
8957.53
8957.59
8957.64
8957.7
8957.75
8957.81
8957.87
8957.93
8957.99
8958.06
8958.12
8958.18
8958.25
8958.32
8958.39
8958.46
8958.53
8958.6
8958.68
8958.75
8958.83
8958.9
8958.98
8959.06
8959.14
8959.22
8959.3
8959.39
8959.47
8959.56
8959.64
8959.73
8959.81
8959.9
8959.99
8960.08
8960.17
8960.26
8960.35
8960.45
8960.54
8960.63
8960.73
8960.82
8960.92
8961.01
8961.11
8961.21
8961.31
8961.4
8961.5
8961.6
8961.7
8961.8
8961.9
8962.01
8962.11
8962.21
8962.32
8962.42
8962.52
8962.63
8962.73
8962.84
8962.95
8963.05
8963.16
8963.27
8963.38
8963.49
8963.6
8963.71
8963.82
8963.93
8964.04
8964.15
8964.27
8964.38
8964.49
8964.61
8964.72
8964.83
8964.95
8965.06
8965.18
8965.29
8965.41
8965.53
8965.64
8965.76
8965.88
8965.99
8966.11
8966.23
8966.35
8966.46
8966.58
8966.7
8966.82
8966.94
8967.06
8967.18
8967.3
8967.42
8967.54
8967.66
8967.78
8967.9
8968.02
8968.15
8968.27
8968.39
8968.51
8968.64
8968.76
8968.89
8969.01
8969.14
8969.26
8969.39
8969.51
8969.64
8969.76
8969.89
8970.02
8970.15
8970.27
8970.4
8970.53
8970.66
8970.79
8970.92
8971.05
8971.18
8971.31
8971.44
8971.57
8971.7
8971.83
8971.96
8972.09
8972.22
8972.35
8972.49
8972.62
8972.75
8972.88
8973.01
8973.14
8973.28
8973.41
8973.54
8973.67
8973.81
8973.94
8974.07
8974.21
8974.34
8974.48
8974.61
8974.75
8974.88
8975.02
8975.15
8975.29
8975.43
8975.57
8975.71
8975.85
8975.99
8976.13
8976.27
8976.42
8976.56
8976.71
8976.85
8977
8977.15
8977.3
8977.45
8977.6
8977.75
8977.91
8978.07
8978.22
8978.38
8978.54
8978.71
8978.87
8979.04
8979.2
8979.37
8979.54
8979.72
8979.89
8980.07
8980.25
8980.44
8980.62
8980.81
8981
8981.19
8981.39
8981.59
8981.79
8982
8982.21
8982.42
8982.64
8982.86
8983.08
8983.31
8983.54
8983.78
8984.02
8984.26
8984.51
8984.76
8985.02
8985.28
8985.55
8985.83
8986.1
8986.39
8986.67
8986.97
8987.26
8987.57
8987.87
8988.19
8988.5
8988.83
8989.15
8989.49
8989.82
8990.17
8990.51
8990.87
8991.22
8991.59
8991.95
8992.32
8992.7
8993.08
8993.47
8993.85
8994.25
8994.65
8995.05
8995.45
8995.87
8996.28
8996.7
8997.12
8997.55
8997.98
8998.41
8998.85
8999.29
8999.74
9000.19
9000.64
9001.1
9001.56
9002.03
9002.5
9002.97
9003.45
9003.93
9004.41
9004.9
9005.39
9005.88
9006.38
9006.88
9007.38
9007.89
9008.4
9008.91
9009.43
9009.95
9010.47
9010.99
9011.52
9012.05
9012.59
9013.12
9013.66
9014.2
9014.74
9015.29
9015.83
9016.38
9016.93
9017.48
9018.04
9018.59
9019.15
9019.7
9020.26
9020.82
9021.38
9021.95
9022.51
9023.07
9023.64
9024.2
9024.77
9025.33
9025.9
9026.46
9027.03
9027.6
9028.16
9028.73
9029.3
9029.87
9030.43
9031
9031.57
9032.14
9032.7
9033.27
9033.84
9034.41
9034.98
9035.54
9036.11
9036.68
9037.25
9037.82
9038.39
9038.96
9039.53
9040.09
9040.66
9041.23
9041.8
9042.37
9042.94
9043.51
9044.08
9044.65
9045.23
9045.8
9046.37
9046.94
9047.51
9048.08
9048.65
9049.22
9049.8
9050.37
9050.94
9051.51
9052.09
9052.66
9053.23
9053.8
9054.38
9054.95
9055.52
9056.09
9056.67
9057.24
9057.81
9058.38
9058.96
9059.53
9060.1
9060.67
9061.24
9061.82
9062.39
9062.96
9063.53
9064.1
9064.68
9065.25
9065.82
9066.39
9066.96
9067.53
9068.1
9068.67
9069.24
9069.81
9070.38
9070.95
9071.52
9072.09
9072.66
9073.23
9073.8
9074.37
9074.94
9075.51
9076.08
9076.65
9077.22
9077.79
9078.36
9078.93
9079.5
9080.07
9080.64
9081.22
9081.79
9082.36
9082.93
9083.5
9084.07
9084.64
9085.22
9085.79
9086.36
9086.94
9087.51
9088.09
9088.66
9089.24
9089.81
9090.39
9090.96
9091.54
9092.12
9092.7
9093.28
9093.86
9094.44
9095.02
9095.6
9096.18
9096.76
9097.35
9097.93
9098.52
9099.1
9099.69
9100.28
9100.87
9101.46
9102.05
9102.64
9103.23
9103.82
9104.41
9105.01
9105.6
9106.2
9106.8
9107.4
9108
9108.6
9109.2
9109.8
9110.41
9111.01
9111.62
9112.22
9112.83
9113.44
9114.05
9114.67
9115.28
9115.89
9116.51
9117.12
9117.74
9118.36
9118.98
9119.6
9120.22
9120.85
9121.47
9122.1
9122.73
9123.35
9123.98
9124.62
9125.25
9125.88
9126.51
9127.15
9127.79
9128.43
9129.06
9129.7
9130.35
9130.99
9131.63
9132.28
9132.92
9133.57
9134.22
9134.87
9135.52
9136.17
9136.82
9137.48
9138.13
9138.79
9139.44
9140.1
9140.76
9141.42
9142.08
9142.74
9143.4
9144.07
9144.73
9145.39
9146.06
9146.73
9147.39
9148.06
9148.73
9149.4
9150.07
9150.74
9151.41
9152.08
9152.75
9153.43
9154.1
9154.78
9155.45
9156.12
9156.8
9157.48
9158.15
9158.83
9159.5
9160.18
9160.86
9161.54
9162.21
9162.89
9163.57
9164.25
9164.93
9165.6
9166.28
9166.96
9167.64
9168.32
9169
9169.67
9170.35
9171.03
9171.71
9172.39
9173.06
9173.74
9174.42
9175.09
9175.77
9176.45
9177.12
9177.8
9178.47
9179.14
9179.82
9180.49
9181.16
9181.84
9182.51
9183.18
9183.85
9184.52
9185.19
9185.86
9186.53
9187.19
9187.86
9188.53
9189.19
9189.86
9190.52
9191.19
9191.85
9192.51
9193.17
9193.83
9194.49
9195.15
9195.81
9196.47
9197.13
9197.78
9198.44
9199.09
9199.75
9200.4
9201.05
9201.7
9202.36
9203.01
9203.66
9204.31
9204.95
9205.6
9206.25
9206.89
9207.54
9208.19
9208.83
9209.47
9210.12
9210.76
9211.4
9212.04
9212.68
9213.32
9213.96
9214.6
9215.24
9215.88
9216.52
9217.15
9217.79
9218.43
9219.06
9219.7
9220.34
9220.97
9221.61
9222.24
9222.88
9223.51
9224.14
9224.78
9225.41
9226.05
9226.68
9227.31
9227.95
9228.58
9229.21
9229.85
9230.48
9231.11
9231.75
9232.38
9233.02
9233.65
9234.28
9234.92
9235.55
9236.19
9236.82
9237.46
9238.09
9238.73
9239.37
9240
9240.64
9241.28
9241.91
9242.55
9243.19
9243.83
9244.47
9245.11
9245.75
9246.39
9247.03
9247.67
9248.32
9248.96
9249.6
9250.25
9250.89
9251.54
9252.19
9252.83
9253.48
9254.13
9254.78
9255.43
9256.08
9256.73
9257.38
9258.03
9258.69
9259.34
9260
9260.65
9261.31
9261.97
9262.62
9263.28
9263.94
9264.6
9265.26
9265.92
9266.58
9267.25
9267.91
9268.57
9269.24
9269.91
9270.57
9271.24
9271.91
9272.57
9273.24
9273.91
9274.58
9275.25
9275.93
9276.6
9277.27
9277.94
9278.62
9279.29
9279.96
9280.64
9281.31
9281.99
9282.67
9283.34
9284.02
9284.7
9285.38
9286.05
9286.73
9287.41
9288.09
9288.77
9289.45
9290.13
9290.81
9291.49
9292.17
9292.85
9293.53
9294.21
9294.89
9295.57
9296.25
9296.93
9297.61
9298.29
9298.97
9299.65
9300.33
9301
9301.68
9302.36
9303.04
9303.72
9304.4
9305.08
9305.75
9306.43
9307.11
9307.78
9308.46
9309.14
9309.81
9310.48
9311.16
9311.83
9312.51
9313.18
9313.85
9314.52
9315.19
9315.86
9316.53
9317.2
9317.87
9318.54
9319.21
9319.87
9320.54
9321.21
9321.87
9322.54
9323.2
9323.86
9324.52
9325.19
9325.85
9326.51
9327.17
9327.83
9328.48
9329.14
9329.8
9330.45
9331.11
9331.77
9332.42
9333.07
9333.73
9334.38
9335.03
9335.68
9336.34
9336.99
9337.64
9338.28
9338.93
9339.58
9340.23
9340.88
9341.52
9342.17
9342.82
9343.46
9344.11
9344.75
9345.4
9346.04
9346.69
9347.33
9347.97
9348.62
9349.26
9349.9
9350.54
9351.19
9351.83
9352.47
9353.11
9353.76
9354.4
9355.04
9355.68
9356.32
9356.96
9357.61
9358.25
9358.89
9359.53
9360.17
9360.82
9361.46
9362.1
9362.74
9363.39
9364.03
9364.68
9365.32
9365.96
9366.61
9367.25
9367.9
9368.54
9369.19
9369.84
9370.49
9371.13
9371.78
9372.43
9373.08
9373.73
9374.38
9375.03
9375.68
9376.33
9376.99
9377.64
9378.3
9378.95
9379.61
9380.26
9380.92
9381.58
9382.24
9382.9
9383.56
9384.22
9384.88
9385.54
9386.2
9386.87
9387.53
9388.2
9388.87
9389.53
9390.2
9390.87
9391.54
9392.21
9392.88
9393.56
9394.23
9394.9
9395.58
9396.25
9396.93
9397.61
9398.29
9398.97
9399.65
9400.33
9401.01
9401.69
9402.37
9403.06
9403.74
9404.43
9405.11
9405.8
9406.49
9407.18
9407.87
9408.56
9409.25
9409.94
9410.63
9411.32
9412.01
9412.71
9413.4
9414.1
9414.79
9415.49
9416.18
9416.88
9417.58
9418.27
9418.97
9419.67
9420.37
9421.07
9421.77
9422.47
9423.17
9423.87
9424.57
9425.27
9425.97
9426.67
9427.37
9428.07
9428.77
9429.47
9430.17
9430.88
9431.58
9432.28
9432.98
9433.68
9434.38
9435.08
9435.78
9436.48
9437.18
9437.88
9438.58
9439.28
9439.98
9440.68
9441.38
9442.07
9442.77
9443.47
9444.17
9444.86
9445.56
9446.25
9446.95
9447.64
9448.33
9449.03
9449.72
9450.41
9451.1
9451.79
9452.48
9453.17
9453.86
9454.55
9455.24
9455.92
9456.61
9457.29
9457.98
9458.66
9459.35
9460.03
9460.71
9461.39
9462.07
9462.75
9463.43
9464.11
9464.78
9465.46
9466.13
9466.81
9467.48
9468.15
9468.83
9469.5
9470.17
9470.84
9471.5
9472.17
9472.84
9473.51
9474.17
9474.84
9475.5
9476.16
9476.83
9477.49
9478.15
9478.81
9479.47
9480.13
9480.79
9481.45
9482.11
9482.76
9483.42
9484.07
9484.73
9485.38
9486.04
9486.69
9487.34
9488
9488.65
9489.3
9489.95
9490.6
9491.25
9491.9
9492.55
9493.2
9493.85
9494.5
9495.15
9495.79
9496.44
9497.09
9497.74
9498.38
9499.03
9499.68
9500.32
9500.97
9501.62
9502.26
9502.91
9503.56
9504.2
9504.85
9505.5
9506.14
9506.79
9507.44
9508.09
9508.73
9509.38
9510.03
9510.68
9511.32
9511.97
9512.62
9513.27
9513.92
9514.57
9515.22
9515.87
9516.52
9517.17
9517.83
9518.48
9519.13
9519.78
9520.44
9521.09
9521.75
9522.4
9523.06
9523.71
9524.37
9525.03
9525.69
9526.35
9527.01
9527.67
9528.33
9528.99
9529.65
9530.32
9530.98
9531.65
9532.31
9532.98
9533.64
9534.31
9534.98
9535.65
9536.32
9536.99
9537.66
9538.34
9539.01
9539.69
9540.36
9541.04
9541.71
9542.39
9543.07
9543.75
9544.43
9545.11
9545.79
9546.48
9547.16
9547.85
9548.53
9549.22
9549.9
9550.59
9551.28
9551.97
9552.66
9553.35
9554.04
9554.74
9555.43
9556.12
9556.82
9557.52
9558.21
9558.91
9559.61
9560.31
9561.01
9561.71
9562.41
9563.11
9563.81
9564.51
9565.21
9565.92
9566.62
9567.33
9568.03
9568.74
9569.44
9570.15
9570.86
9571.57
9572.28
9572.98
9573.69
9574.4
9575.11
9575.82
9576.53
9577.24
9577.95
9578.67
9579.38
9580.09
9580.8
9581.51
9582.23
9582.94
9583.65
9584.36
9585.08
9585.79
9586.5
9587.21
9587.93
9588.64
9589.35
9590.06
9590.78
9591.49
9592.2
9592.91
9593.63
9594.34
9595.05
9595.76
9596.47
9597.18
9597.89
9598.6
9599.31
9600.02
9600.73
9601.44
9602.15
9602.85
9603.56
9604.27
9604.97
9605.68
9606.39
9607.09
9607.8
9608.5
9609.2
9609.91
9610.61
9611.31
9612.01
9612.71
9613.41
9614.11
9614.81
9615.5
9616.2
9616.9
9617.59
9618.29
9618.98
9619.68
9620.37
9621.06
9621.75
9622.44
9623.13
9623.82
9624.51
9625.2
9625.89
9626.57
9627.26
9627.94
9628.63
9629.31
9629.99
9630.68
9631.36
9632.04
9632.72
9633.4
9634.08
9634.75
9635.43
9636.11
9636.78
9637.46
9638.13
9638.81
9639.48
9640.15
9640.83
9641.5
9642.17
9642.84
9643.51
9644.18
9644.85
9645.52
9646.18
9646.85
9647.52
9648.18
9648.85
9649.52
9650.18
9650.85
9651.51
9652.18
9652.84
9653.5
9654.17
9654.83
9655.49
9656.16
9656.82
9657.48
9658.14
9658.81
9659.47
9660.13
9660.79
9661.45
9662.12
9662.78
9663.44
9664.1
9664.76
9665.42
9666.09
9666.75
9667.41
9668.07
9668.74
9669.4
9670.06
9670.72
9671.39
9672.05
9672.71
9673.38
9674.04
9674.71
9675.37
9676.04
9676.71
9677.37
9678.04
9678.71
9679.37
9680.04
9680.71
9681.38
9682.05
9682.72
9683.39
9684.06
9684.73
9685.41
9686.08
9686.75
9687.43
9688.1
9688.78
9689.45
9690.13
9690.81
9691.49
9692.17
9692.85
9693.53
9694.21
9694.89
9695.57
9696.26
9696.94
9697.63
9698.31
9699
9699.69
9700.37
9701.06
9701.75
9702.44
9703.13
9703.83
9704.52
9705.21
9705.91
9706.6
9707.3
9707.99
9708.69
9709.39
9710.09
9710.79
9711.49
9712.19
9712.89
9713.59
9714.29
9715
9715.7
9716.41
9717.11
9717.82
9718.53
9719.24
9719.94
9720.65
9721.36
9722.07
9722.78
9723.49
9724.21
9724.92
9725.63
9726.34
9727.06
9727.77
9728.49
9729.2
9729.92
9730.63
9731.35
9732.07
9732.78
9733.5
9734.22
9734.94
9735.66
9736.37
9737.09
9737.81
9738.53
9739.25
9739.97
9740.69
9741.41
9742.13
9742.85
9743.57
9744.29
9745.01
9745.73
9746.45
9747.17
9747.9
9748.62
9749.34
9750.06
9750.78
9751.5
9752.22
9752.94
9753.66
9754.38
9755.1
9755.81
9756.53
9757.25
9757.97
9758.69
9759.41
9760.12
9760.84
9761.56
9762.27
9762.99
9763.71
9764.42
9765.14
9765.85
9766.57
9767.28
9767.99
9768.7
9769.42
9770.13
9770.84
9771.55
9772.26
9772.97
9773.68
9774.39
9775.1
9775.8
9776.51
9777.22
9777.92
9778.63
9779.33
9780.03
9780.74
9781.44
9782.14
9782.84
9783.54
9784.24
9784.94
9785.64
9786.34
9787.04
9787.74
9788.43
9789.13
9789.82
9790.52
9791.21
9791.91
9792.6
9793.29
9793.98
9794.67
9795.36
9796.05
9796.74
9797.43
9798.12
9798.81
9799.5
9800.18
9800.87
9801.56
9802.24
9802.93
9803.61
9804.29
9804.98
9805.66
9806.35
9807.03
9807.71
9808.39
9809.07
9809.76
9810.44
9811.12
9811.8
9812.48
9813.16
9813.84
9814.52
9815.2
9815.88
9816.56
9817.24
9817.91
9818.59
9819.27
9819.95
9820.63
9821.31
9821.99
9822.67
9823.35
9824.03
9824.71
9825.38
9826.06
9826.74
9827.42
9828.1
9828.78
9829.46
9830.14
9830.83
9831.51
9832.19
9832.87
9833.55
9834.23
9834.92
9835.6
9836.28
9836.97
9837.65
9838.34
9839.02
9839.71
9840.39
9841.08
9841.77
9842.45
9843.14
9843.83
9844.52
9845.21
9845.9
9846.59
9847.28
9847.97
9848.67
9849.36
9850.05
9850.75
9851.44
9852.14
9852.83
9853.53
9854.23
9854.93
9855.63
9856.33
9857.03
9857.73
9858.43
9859.13
9859.83
9860.54
9861.24
9861.95
9862.65
9863.36
9864.06
9864.77
9865.48
9866.19
9866.9
9867.61
9868.32
9869.03
9869.74
9870.46
9871.17
9871.88
9872.6
9873.31
9874.03
9874.74
9875.46
9876.18
9876.9
9877.62
9878.33
9879.05
9879.77
9880.49
9881.22
9881.94
9882.66
9883.38
9884.1
9884.83
9885.55
9886.27
9887
9887.72
9888.45
9889.17
9889.9
9890.62
9891.35
9892.08
9892.8
9893.53
9894.26
9894.98
9895.71
9896.44
9897.17
9897.89
9898.62
9899.35
9900.08
9900.8
9901.53
9902.26
9902.99
9903.72
9904.44
9905.17
9905.9
9906.63
9907.35
9908.08
9908.81
9909.54
9910.26
9910.99
9911.72
9912.44
9913.17
9913.89
9914.62
9915.34
9916.07
9916.79
9917.52
9918.24
9918.97
9919.69
9920.41
9921.13
9921.86
9922.58
9923.3
9924.02
9924.74
9925.46
9926.18
9926.9
9927.62
9928.34
9929.05
9929.77
9930.49
9931.21
9931.92
9932.64
9933.35
9934.07
9934.78
9935.49
9936.21
9936.92
9937.63
9938.34
9939.05
9939.76
9940.47
9941.18
9941.89
9942.6
9943.3
9944.01
9944.72
9945.42
9946.13
9946.84
9947.54
9948.24
9948.95
9949.65
9950.35
9951.06
9951.76
9952.46
9953.16
9953.86
9954.56
9955.26
9955.96
9956.66
9957.36
9958.06
9958.76
9959.45
9960.15
9960.85
9961.55
9962.24
9962.94
9963.64
9964.33
9965.03
9965.73
9966.42
9967.12
9967.81
9968.51
9969.2
9969.9
9970.59
9971.29
9971.98
9972.68
9973.37
9974.07
9974.76
9975.46
9976.15
9976.85
9977.54
9978.24
9978.93
9979.63
9980.32
9981.02
9981.72
9982.41
9983.11
9983.8
9984.5
9985.2
9985.9
9986.59
9987.29
9987.99
9988.69
9989.39
9990.09
9990.79
9991.49
9992.19
9992.89
9993.59
9994.29
9994.99
9995.69
9996.4
9997.1
9997.8
9998.51
9999.21
9999.92
10000.6
10001.3
10002
10002.7
10003.5
10004.2
10004.9
10005.6
10006.3
10007
10007.7
10008.4
10009.1
10009.8
10010.6
10011.3
10012
10012.7
10013.4
10014.1
10014.8
10015.6
10016.3
10017
10017.7
10018.4
10019.2
10019.9
10020.6
10021.3
10022
10022.8
10023.5
10024.2
10024.9
10025.7
10026.4
10027.1
10027.8
10028.6
10029.3
10030
10030.7
10031.5
10032.2
10032.9
10033.7
10034.4
10035.1
10035.8
10036.6
10037.3
10038
10038.8
10039.5
10040.2
10041
10041.7
10042.4
10043.2
10043.9
10044.6
10045.4
10046.1
10046.8
10047.6
10048.3
10049
10049.8
10050.5
10051.2
10052
10052.7
10053.5
10054.2
10054.9
10055.7
10056.4
10057.1
10057.9
10058.6
10059.3
10060.1
10060.8
10061.5
10062.3
10063
10063.7
10064.5
10065.2
10065.9
10066.7
10067.4
10068.1
10068.9
10069.6
10070.3
10071.1
10071.8
10072.5
10073.3
10074
10074.7
10075.5
10076.2
10076.9
10077.6
10078.4
10079.1
10079.8
10080.6
10081.3
10082
10082.7
10083.5
10084.2
10084.9
10085.6
10086.4
10087.1
10087.8
10088.5
10089.2
10090
10090.7
10091.4
10092.1
10092.9
10093.6
10094.3
10095
10095.7
10096.4
10097.2
10097.9
10098.6
10099.3
10100
10100.7
10101.5
10102.2
10102.9
10103.6
10104.3
10105
10105.8
10106.5
10107.2
10107.9
10108.6
10109.3
10110
10110.7
10111.5
10112.2
10112.9
10113.6
10114.3
10115
10115.7
10116.4
10117.1
10117.8
10118.6
10119.3
10120
10120.7
10121.4
10122.1
10122.8
10123.5
10124.2
10124.9
10125.7
10126.4
10127.1
10127.8
10128.5
10129.2
10129.9
10130.6
10131.3
10132.1
10132.8
10133.5
10134.2
10134.9
10135.6
10136.3
10137
10137.8
10138.5
10139.2
10139.9
10140.6
10141.3
10142
10142.7
10143.5
10144.2
10144.9
10145.6
10146.3
10147
10147.8
10148.5
10149.2
10149.9
10150.6
10151.4
10152.1
10152.8
10153.5
10154.2
10155
10155.7
10156.4
10157.1
10157.9
10158.6
10159.3
10160
10160.8
10161.5
10162.2
10162.9
10163.7
10164.4
10165.1
10165.9
10166.6
10167.3
10168
10168.8
10169.5
10170.2
10171
10171.7
10172.4
10173.2
10173.9
10174.6
10175.4
10176.1
10176.8
10177.6
10178.3
10179
10179.8
10180.5
10181.3
10182
10182.7
10183.5
10184.2
10184.9
10185.7
10186.4
10187.2
10187.9
10188.6
10189.4
10190.1
10190.9
10191.6
10192.3
10193.1
10193.8
10194.6
10195.3
10196
10196.8
10197.5
10198.3
10199
10199.7
10200.5
10201.2
10202
10202.7
10203.4
10204.2
10204.9
10205.7
10206.4
10207.1
10207.9
10208.6
10209.4
10210.1
10210.8
10211.6
10212.3
10213
10213.8
10214.5
10215.3
10216
10216.7
10217.5
10218.2
10218.9
10219.7
10220.4
10221.1
10221.9
10222.6
10223.4
10224.1
10224.8
10225.6
10226.3
10227
10227.8
10228.5
10229.2
10229.9
10230.7
10231.4
10232.1
10232.9
10233.6
10234.3
10235.1
10235.8
10236.5
10237.2
10238
10238.7
10239.4
10240.2
10240.9
10241.6
10242.3
10243.1
10243.8
10244.5
10245.2
10246
10246.7
10247.4
10248.1
10248.9
10249.6
10250.3
10251
10251.8
10252.5
10253.2
10253.9
10254.6
10255.4
10256.1
10256.8
10257.5
10258.3
10259
10259.7
10260.4
10261.1
10261.9
10262.6
10263.3
10264
10264.7
10265.5
10266.2
10266.9
10267.6
10268.4
10269.1
10269.8
10270.5
10271.2
10272
10272.7
10273.4
10274.1
10274.9
10275.6
10276.3
10277
10277.7
10278.5
10279.2
10279.9
10280.6
10281.4
10282.1
10282.8
10283.5
10284.3
10285
10285.7
10286.4
10287.2
10287.9
10288.6
10289.4
10290.1
10290.8
10291.6
10292.3
10293
10293.7
10294.5
10295.2
10295.9
10296.7
10297.4
10298.1
10298.9
10299.6
10300.3
10301.1
10301.8
10302.6
10303.3
10304
10304.8
10305.5
10306.3
10307
10307.7
10308.5
10309.2
10310
10310.7
10311.4
10312.2
10312.9
10313.7
10314.4
10315.2
10315.9
10316.7
10317.4
10318.2
10318.9
10319.7
10320.4
10321.2
10321.9
10322.7
10323.4
10324.2
10324.9
10325.7
10326.4
10327.2
10327.9
10328.7
10329.4
10330.2
10330.9
10331.7
10332.5
10333.2
10334
10334.7
10335.5
10336.2
10337
10337.7
10338.5
10339.3
10340
10340.8
10341.5
10342.3
10343
10343.8
10344.6
10345.3
10346.1
10346.8
10347.6
10348.3
10349.1
10349.9
10350.6
10351.4
10352.1
10352.9
10353.6
10354.4
10355.1
10355.9
10356.7
10357.4
10358.2
10358.9
10359.7
10360.4
10361.2
10361.9
10362.7
10363.4
10364.2
10364.9
10365.7
10366.4
10367.2
10368
10368.7
10369.5
10370.2
10371
10371.7
10372.5
10373.2
10373.9
10374.7
10375.4
10376.2
10376.9
10377.7
10378.4
10379.2
10379.9
10380.7
10381.4
10382.2
10382.9
10383.6
10384.4
10385.1
10385.9
10386.6
10387.4
10388.1
10388.8
10389.6
10390.3
10391.1
10391.8
10392.5
10393.3
10394
10394.8
10395.5
10396.2
10397
10397.7
10398.5
10399.2
10399.9
10400.7
10401.4
10402.1
10402.9
10403.6
10404.4
10405.1
10405.8
10406.6
10407.3
10408
10408.8
10409.5
10410.2
10411
10411.7
10412.5
10413.2
10413.9
10414.7
10415.4
10416.1
10416.9
10417.6
10418.3
10419.1
10419.8
10420.6
10421.3
10422
10422.8
10423.5
10424.2
10425
10425.7
10426.5
10427.2
10427.9
10428.7
10429.4
10430.1
10430.9
10431.6
10432.4
10433.1
10433.8
10434.6
10435.3
10436.1
10436.8
10437.5
10438.3
10439
10439.8
10440.5
10441.3
10442
10442.7
10443.5
10444.2
10445
10445.7
10446.5
10447.2
10448
10448.7
10449.5
10450.2
10450.9
10451.7
10452.4
10453.2
10453.9
10454.7
10455.4
10456.2
10456.9
10457.7
10458.4
10459.2
10459.9
10460.7
10461.4
10462.2
10462.9
10463.7
10464.5
10465.2
10466
10466.7
10467.5
10468.2
10469
10469.7
10470.5
10471.2
10472
10472.7
10473.5
10474.3
10475
10475.8
10476.5
10477.3
10478
10478.8
10479.6
10480.3
10481.1
10481.8
10482.6
10483.3
10484.1
10484.9
10485.6
10486.4
10487.1
10487.9
10488.6
10489.4
10490.2
10490.9
10491.7
10492.4
10493.2
10494
10494.7
10495.5
10496.2
10497
10497.7
10498.5
10499.3
10500
10500.8
10501.5
10502.3
10503
10503.8
10504.6
10505.3
10506.1
10506.8
10507.6
10508.3
10509.1
10509.9
10510.6
10511.4
10512.1
10512.9
10513.6
10514.4
10515.1
10515.9
10516.7
10517.4
10518.2
10518.9
10519.7
10520.4
10521.2
10521.9
10522.7
10523.4
10524.2
10524.9
10525.7
10526.4
10527.2
10528
10528.7
10529.5
10530.2
10531
10531.7
10532.5
10533.2
10534
10534.7
10535.5
10536.2
10537
10537.7
10538.5
10539.2
10540
10540.7
10541.5
10542.2
10543
10543.7
10544.5
10545.2
10546
10546.7
10547.5
10548.2
10549
10549.7
10550.5
10551.2
10552
10552.7
10553.5
10554.2
10555
10555.7
10556.5
10557.2
10558
10558.7
10559.5
10560.2
10561
10561.7
10562.5
10563.2
10564
10564.7
10565.5
10566.2
10567
10567.7
10568.5
10569.2
10570
10570.7
10571.5
10572.3
10573
10573.8
10574.5
10575.3
10576
10576.8
10577.5
10578.3
10579
10579.8
10580.6
10581.3
10582.1
10582.8
10583.6
10584.3
10585.1
10585.8
10586.6
10587.4
10588.1
10588.9
10589.7
10590.4
10591.2
10591.9
10592.7
10593.5
10594.2
10595
10595.7
10596.5
10597.2
10598
10598.8
10599.5
10600.3