/*--------------------------------*- C++ -*----------------------------------*\
  =========                 |
  \\      /  F ield         | OpenFOAM: The Open Source CFD Toolbox
   \\    /   O peration     | Website:  https://openfoam.org
    \\  /    A nd           | Version:  9
     \\/     M anipulation  |
\*---------------------------------------------------------------------------*/
FoamFile
{
    format      ascii;
    class       volScalarField;
    location    "0.039";
    object      ddt0(rho,K);
}
// * * * * * * * * * * * * * * * * * * * * * * * * * * * * * * * * * * * * * //

dimensions      [1 -1 -3 0 0 0 0];

internalField   nonuniform List<scalar> 
1000
(
323.299
245.104
161.374
91.9631
24.9222
-45.984
-120.578
-197.609
-276.427
-356.707
-438.338
-521.629
-607.145
-695.206
-785.655
-878.032
-971.888
-1067.08
-1163.95
-1263.1
-1364.98
-1469.57
-1576.4
-1684.83
-1794.38
-1904.95
-2016.95
-2131.07
-2247.95
-2367.93
-2490.94
-2616.63
-2744.55
-2874.07
-3004.51
-3135.37
-3266.58
-3398.49
-3531.73
-3667.04
-3805.05
-3946.45
-4091.84
-4241.5
-4395.41
-4552.86
-4712.69
-4875
-5040.87
-5209.45
-5377.44
-5543.99
-5711.79
-5881.27
-6051.6
-6224.22
-6400.53
-6579.29
-6770.07
-6959.66
-7152.96
-7330.73
-7521.94
-7714.66
-7899.67
-8100.12
-8293.76
-8491.21
-8697.52
-8889.53
-9093.68
-9304.89
-9504.06
-9719.74
-9936.94
-10141.4
-10364.7
-10587.8
-10797.4
-11026.8
-11257.2
-11472
-11706.6
-11946.5
-12166.4
-12402.3
-12652
-12879.8
-13115.3
-13375.2
-13616.2
-13850.2
-14114.8
-14373.2
-14608.2
-14868.8
-15145.3
-15391.2
-15641.7
-15928
-16198
-16443.4
-16721.9
-17017.5
-17276.7
-17537
-17840
-18132.2
-18388.2
-18671.8
-18989.8
-19274.5
-19537.7
-19845.3
-20170.2
-20451.1
-20728.1
-21056.2
-21384.4
-21664.8
-21957
-22299.9
-22629.8
-22914.8
-23220.9
-23576.5
-23911.5
-24203.4
-24521.6
-24886.7
-25229.7
-25530.2
-25857.3
-26232.1
-26586.5
-26896.8
-27230.2
-27612.8
-27980.9
-28302.4
-28639.2
-29028.7
-29413.5
-29748.9
-30086.7
-30479.8
-30883
-31236.2
-31574.9
-31966.3
-32388.1
-32766.7
-33109.3
-33492
-33925.9
-34336.6
-34692.1
-35060.4
-35494
-35938.8
-36324
-36683.1
-37099.4
-37566.9
-37997.8
-38367.5
-38756.2
-39219.9
-39697.3
-40108.6
-40482.7
-40913.8
-41411
-41883.8
-42282.6
-42677.6
-43150.7
-43668.1
-44132.1
-44530.7
-44956.2
-45464.6
-45992.2
-46451
-46860
-47316.3
-47852.3
-48387.5
-48847.7
-49273
-49759.3
-50318.6
-50862.6
-51329.7
-51773.8
-52287
-52868.2
-53422.5
-53899
-54370.2
-54905.2
-55502.2
-56076.4
-56573.7
-57077.5
-57604.5
-58205.2
-58853.1
-59384.4
-59856.4
-60378
-61033.8
-61746.1
-62248.1
-62730.9
-63337.2
-63947.9
-64624.8
-65250.5
-65801.4
-66348.3
-66912.7
-67628.4
-68389.9
-68886.5
-69459.7
-70120.3
-70707.9
-71442.8
-72163.9
-72741.3
-73308.6
-73962.7
-74647.4
-75335.8
-75909.9
-76432.3
-77000.7
-77851.5
-78794
-79637.3
-80485.6
-81307.2
-82028.7
-82789.3
-83606.9
-84345.1
-85077.8
-85843.1
-86598.8
-87374.2
-88181.3
-88968.3
-89722
-90504.7
-91334.7
-92194.4
-93065.9
-93916
-94740.7
-95565.6
-96439.6
-97337.6
-98228.5
-99094
-99947
-100832
-101764
-102721
-103667
-104585
-105495
-106438
-107412
-108396
-109358
-110298
-111247
-112232
-113255
-114288
-115296
-116275
-117263
-118285
-119341
-120403
-121437
-122432
-123425
-124458
-125533
-126625
-127688
-128713
-129725
-130763
-131842
-132926
-133976
-134994
-136009
-137043
-138107
-139176
-140214
-141211
-142193
-143196
-144227
-145266
-146278
-147236
-148155
-149086
-150057
-151048
-152021
-152939
-153807
-154667
-155557
-156468
-157362
-158215
-159022
-159808
-160608
-161433
-162259
-163044
-163781
-164494
-165213
-165959
-166721
-167449
-168111
-168730
-169356
-170013
-170698
-171385
-172028
-172611
-173169
-173744
-174349
-174971
-175582
-176140
-176654
-177176
-177737
-178319
-178890
-179432
-179929
-180403
-180909
-181461
-182027
-182573
-183076
-183530
-183980
-184481
-185030
-185583
-186110
-186599
-187056
-187516
-188024
-188569
-189101
-189594
-190060
-190519
-191001
-191530
-192091
-192627
-193106
-193552
-194005
-194495
-195032
-195596
-196139
-196627
-197080
-197544
-198050
-198595
-199148
-199676
-200163
-200628
-201116
-201654
-202226
-202783
-203296
-203772
-204237
-204729
-205268
-205847
-206425
-206961
-207446
-207921
-208428
-208980
-209552
-210108
-210629
-211121
-211617
-212149
-212726
-213323
-213899
-214428
-214915
-215398
-215921
-216504
-217115
-217699
-218231
-218736
-219252
-219798
-220377
-220974
-221559
-222102
-222604
-223114
-223671
-224281
-224906
-225508
-226067
-226589
-227106
-227654
-228251
-228871
-229476
-230041
-230576
-231111
-231679
-232290
-232923
-233544
-234121
-234659
-235188
-235744
-236351
-236996
-237636
-238236
-238792
-239339
-239911
-240527
-241171
-241813
-242419
-242980
-243524
-244093
-244713
-245370
-246028
-246658
-247251
-247821
-248396
-249001
-249648
-250315
-250962
-251567
-252135
-252708
-253317
-253979
-254668
-255342
-255971
-256554
-257127
-257734
-258396
-259088
-259767
-260406
-261007
-261600
-262219
-262879
-263568
-264262
-264934
-265567
-266172
-266779
-267423
-268112
-268820
-269512
-270156
-270769
-271383
-272030
-272723
-273438
-274148
-274823
-275465
-276088
-276726
-277403
-278117
-278844
-279545
-280205
-280833
-281466
-282136
-282853
-283593
-284321
-285011
-285660
-286300
-286964
-287673
-288417
-289162
-289875
-290550
-291203
-291866
-292565
-293301
-294056
-294796
-295504
-296178
-296845
-297534
-298266
-299035
-299802
-300537
-301227
-301891
-302579
-303306
-304081
-304859
-305609
-306321
-306999
-307696
-308409
-309173
-309948
-310726
-311480
-312200
-312905
-313609
-314350
-315129
-315929
-316728
-317482
-318200
-318903
-319615
-320402
-321197
-322041
-322818
-323566
-324275
-324975
-325758
-326543
-327418
-328214
-329005
-329721
-330425
-331203
-331971
-332880
-333664
-334523
-335217
-335958
-336714
-337470
-338415
-339169
-340119
-340772
-341579
-342299
-343053
-344020
-344735
-345780
-346385
-347298
-347954
-348765
-349689
-350412
-351512
-352054
-353134
-353614
-354644
-355350
-356256
-357256
-357865
-359004
-359397
-360572
-361101
-362194
-363031
-363828
-364863
-365355
-366497
-367007
-368168
-368923
-369866
-370793
-371421
-372457
-373032
-374177
-374904
-375996
-376775
-377645
-378457
-379205
-380243
-380967
-382203
-382817
-383955
-384547
-385500
-386348
-387221
-388376
-389049
-390312
-390743
-391936
-392517
-393613
-394505
-395534
-396454
-397287
-398311
-398830
-400223
-400700
-402075
-402890
-403712
-404896
-405352
-406688
-407296
-408524
-409442
-410326
-411487
-412018
-413379
-413912
-415206
-416122
-417003
-418254
-418818
-420129
-420772
-421958
-422941
-423858
-425117
-425752
-427157
-427650
-429074
-429881
-430847
-432301
-432762
-434339
-434938
-436124
-437238
-438003
-439524
-440222
-441454
-442627
-443449
-444642
-445805
-446784
-447903
-449291
-450063
-451388
-452528
-453481
-454727
-455950
-457010
-458198
-459614
-460423
-461886
-463047
-464075
-465487
-466752
-467879
-469135
-470704
-471501
-472948
-474560
-475240
-476924
-478505
-479232
-480942
-482547
-483232
-485011
-486596
-487404
-489197
-490769
-491799
-493369
-495055
-496205
-497561
-499430
-500672
-501948
-503859
-505239
-506461
-508260
-509840
-511037
-512710
-514471
-515715
-517264
-519096
-520440
-521852
-523678
-525149
-526454
-528266
-529835
-531083
-532878
-534455
-535701
-537430
-538995
-540241
-541940
-543395
-544777
-546272
-547793
-549084
-550626
-551866
-553480
-554544
-556097
-557318
-558773
-559617
-561527
-562222
-563654
-564717
-566276
-566711
-568479
-569224
-570449
-571221
-572671
-573256
-574489
-575256
-576332
-577156
-578015
-578843
-579800
-580560
-581130
-582261
-582870
-583484
-584249
-585248
-585581
-586262
-587222
-587753
-588152
-589069
-589723
-590185
-590727
-591676
-592072
-592577
-593370
-594054
-594399
-595140
-595859
-596470
-596870
-597714
-598449
-598951
-599480
-600447
-601061
-601632
-602318
-603243
-603860
-604566
-605321
-606234
-606868
-607723
-608546
-609403
-610117
-611136
-611942
-612818
-613675
-614725
-615557
-616566
-617477
-618495
-619418
-620558
-621493
-622523
-623523
-624724
-625734
-626829
-627842
-629088
-630176
-631382
-632380
-633655
-634791
-636065
-637197
-638417
-639574
-640907
-642106
-643433
-644602
-645956
-647218
-648619
-649865
-651293
-652639
-654131
-655452
-656974
-658475
-660112
-661668
-663295
-664926
-666793
-668649
-670602
-672523
-674599
-676769
-679105
-681504
-683972
-686514
-689174
-691995
-694883
-697879
-700865
-703974
-707094
-710356
-713556
-716820
-719965
-723146
-726216
-729282
-732190
-735006
-737658
-740164
-742566
-744700
-746862
-748552
-750314
-751670
-753176
-754225
-755393
-756195
-757098
-757663
-758505
-758946
-759536
-759905
-760506
-760821
-761455
-761809
-762326
-762636
-763338
-763800
-764443
-764879
-765615
-766097
-766925
-767593
-768420
-768973
-769870
-770580
-771573
-772333
-773265
-773992
-775054
-775886
-776985
-777865
-778911
-779754
-780941
-781890
-783079
-784000
-785245
-787218
)
;

boundaryField
{
    sides
    {
        type            calculated;
        value           nonuniform List<scalar> 2(-787218 323.299);
    }
    empty
    {
        type            empty;
    }
}


// ************************************************************************* //
