/*--------------------------------*- C++ -*----------------------------------*\
  =========                 |
  \\      /  F ield         | OpenFOAM: The Open Source CFD Toolbox
   \\    /   O peration     | Website:  https://openfoam.org
    \\  /    A nd           | Version:  9
     \\/     M anipulation  |
\*---------------------------------------------------------------------------*/
FoamFile
{
    format      ascii;
    class       volScalarField;
    location    "0.039";
    object      ddt0(p);
}
// * * * * * * * * * * * * * * * * * * * * * * * * * * * * * * * * * * * * * //

dimensions      [1 -1 -3 0 0 0 0];

internalField   nonuniform List<scalar> 
1000
(
-545593
-545469
-545317
-545188
-545070
-544948
-544822
-544693
-544562
-544432
-544303
-544177
-544050
-543924
-543798
-543672
-543545
-543416
-543286
-543154
-543021
-542888
-542757
-542626
-542497
-542368
-542239
-542106
-541971
-541834
-541698
-541564
-541430
-541295
-541159
-541025
-540891
-540756
-540619
-540480
-540342
-540205
-540068
-539930
-539792
-539653
-539524
-539395
-539246
-539077
-538920
-538788
-538648
-538497
-538363
-538216
-538079
-537934
-537802
-537636
-537503
-537340
-537190
-537056
-536896
-536738
-536605
-536466
-536304
-536137
-535971
-535812
-535662
-535510
-535357
-535203
-535048
-534892
-534737
-534576
-534416
-534259
-534099
-533937
-533775
-533608
-533439
-533273
-533107
-532940
-532775
-532610
-532441
-532272
-532105
-531932
-531758
-531586
-531413
-531237
-531063
-530890
-530712
-530532
-530355
-530176
-529991
-529808
-529626
-529440
-529251
-529064
-528878
-528687
-528496
-528308
-528120
-527926
-527732
-527540
-527343
-527140
-526940
-526741
-526539
-526333
-526128
-525924
-525715
-525503
-525292
-525082
-524868
-524651
-524435
-524219
-523998
-523774
-523550
-523326
-523099
-522868
-522637
-522407
-522172
-521933
-521692
-521452
-521210
-520964
-520716
-520468
-520219
-519965
-519706
-519447
-519187
-518923
-518653
-518383
-518113
-517841
-517562
-517280
-516998
-516714
-516425
-516131
-515835
-515539
-515239
-514933
-514622
-514309
-513996
-513677
-513351
-513023
-512693
-512361
-512022
-511677
-511328
-510978
-510623
-510261
-509893
-509523
-509150
-508772
-508386
-507993
-507597
-507198
-506793
-506376
-505952
-505532
-505118
-504655
-504156
-503754
-503373
-502847
-502244
-501808
-501435
-501019
-500254
-499763
-499568
-498831
-498131
-497724
-497367
-496631
-495881
-495566
-495107
-494254
-493661
-493352
-492618
-491889
-491322
-490865
-489994
-489352
-489145
-488075
-487407
-486923
-486436
-485255
-484965
-484933
-484433
-483795
-483022
-481610
-479790
-478593
-477682
-476465
-475520
-474743
-473769
-472895
-472109
-471131
-470118
-469182
-468183
-467127
-466094
-465061
-463991
-462935
-461875
-460755
-459581
-458394
-457189
-455960
-454717
-453459
-452185
-450911
-449637
-448349
-447035
-445692
-444321
-442929
-441521
-440095
-438653
-437196
-435731
-434262
-432789
-431307
-429812
-428300
-426772
-425229
-423675
-422112
-420541
-418967
-417391
-415819
-414252
-412689
-411129
-409569
-408008
-406447
-404892
-403346
-401813
-400295
-398794
-397312
-395848
-394404
-392979
-391574
-390193
-388836
-387506
-386204
-384932
-383691
-382483
-381310
-380177
-379083
-378031
-377019
-376047
-375113
-374216
-373359
-372541
-371766
-371035
-370351
-369715
-369127
-368588
-368093
-367640
-367226
-366850
-366512
-366211
-365949
-365725
-365541
-365396
-365290
-365222
-365190
-365190
-365219
-365277
-365360
-365470
-365605
-365765
-365950
-366158
-366388
-366640
-366912
-367201
-367507
-367826
-368158
-368502
-368859
-369227
-369608
-370001
-370403
-370815
-371236
-371666
-372104
-372548
-372997
-373451
-373908
-374368
-374833
-375302
-375774
-376250
-376729
-377212
-377698
-378188
-378680
-379173
-379666
-380160
-380655
-381151
-381649
-382150
-382652
-383157
-383663
-384171
-384680
-385191
-385703
-386215
-386727
-387239
-387752
-388267
-388783
-389299
-389817
-390336
-390855
-391375
-391897
-392419
-392941
-393463
-393984
-394505
-395026
-395548
-396072
-396596
-397122
-397650
-398179
-398709
-399241
-399774
-400306
-400838
-401369
-401899
-402429
-402960
-403492
-404024
-404557
-405090
-405625
-406161
-406699
-407237
-407776
-408315
-408854
-409393
-409933
-410475
-411017
-411560
-412103
-412646
-413189
-413733
-414276
-414820
-415364
-415907
-416451
-416995
-417540
-418087
-418634
-419183
-419732
-420282
-420831
-421381
-421931
-422482
-423033
-423584
-424135
-424686
-425238
-425791
-426346
-426902
-427459
-428016
-428573
-429131
-429689
-430249
-430808
-431367
-431927
-432486
-433046
-433607
-434169
-434732
-435296
-435861
-436427
-436993
-437560
-438129
-438698
-439268
-439839
-440410
-440982
-441555
-442130
-442705
-443281
-443858
-444434
-445011
-445589
-446167
-446745
-447325
-447904
-448485
-449066
-449647
-450230
-450814
-451399
-451985
-452571
-453156
-453742
-454329
-454916
-455504
-456092
-456681
-457270
-457859
-458450
-459041
-459634
-460227
-460821
-461416
-462010
-462605
-463201
-463798
-464396
-464994
-465593
-466192
-466792
-467394
-467997
-468601
-469206
-469812
-470418
-471025
-471632
-472240
-472849
-473458
-474069
-474679
-475290
-475902
-476514
-477127
-477741
-478356
-478971
-479587
-480203
-480820
-481438
-482058
-482678
-483300
-483922
-484545
-485169
-485794
-486419
-487046
-487673
-488301
-488929
-489557
-490186
-490815
-491446
-492077
-492709
-493342
-493976
-494610
-495245
-495882
-496520
-497159
-497799
-498440
-499080
-499722
-500364
-501008
-501653
-502298
-502945
-503591
-504239
-504887
-505538
-506188
-506840
-507492
-508144
-508797
-509449
-510105
-510758
-511416
-512072
-512729
-513387
-514045
-514706
-515365
-516030
-516691
-517355
-518019
-518682
-519349
-520014
-520684
-521350
-522022
-522689
-523361
-524033
-524704
-525381
-526053
-526733
-527405
-528086
-528761
-529441
-530122
-530800
-531485
-532164
-532850
-533530
-534216
-534900
-535586
-536275
-536959
-537650
-538335
-539027
-539715
-540408
-541099
-541792
-542485
-543177
-543873
-544566
-545265
-545959
-546658
-547354
-548051
-548750
-549446
-550148
-550843
-551547
-552243
-552946
-553644
-554345
-555045
-555747
-556449
-557149
-557853
-558550
-559256
-559952
-560655
-561357
-562054
-562758
-563453
-564154
-564849
-565546
-566243
-566935
-567632
-568319
-569013
-569697
-570384
-571069
-571749
-572432
-573105
-573783
-574452
-575120
-575786
-576446
-577107
-577757
-578412
-579052
-579695
-580331
-580957
-581588
-582201
-582817
-583421
-584019
-584614
-585194
-585774
-586340
-586900
-587453
-587993
-588524
-589047
-589558
-590056
-590549
-591024
-591489
-591944
-592382
-592808
-593222
-593621
-594003
-594376
-594726
-595064
-595387
-595690
-595978
-596250
-596502
-596734
-596956
-597151
-597327
-597493
-597629
-597749
-597857
-597935
-597996
-598046
-598064
-598066
-598056
-598016
-597962
-597893
-597799
-597688
-597564
-597420
-597255
-597081
-596890
-596679
-596461
-596229
-595980
-595724
-595461
-595183
-594899
-594614
-594320
-594021
-593725
-593427
-593128
-592836
-592549
-592265
-591994
-591736
-591485
-591254
-591042
-590845
-590673
-590527
-590404
-590313
-590254
-590227
-590236
-590286
-590374
-590508
-590683
-590911
-591183
-591509
-591887
-592323
-592807
-593360
-593964
-594631
-595357
-596153
-597000
-597921
-598901
-599948
-601054
-602232
-603466
-604769
-606131
-607557
-609043
-610589
-612191
-613853
-615571
-617337
-619160
-621031
-622948
-624909
-626918
-628963
-631044
-633164
-635316
-637494
-639701
-641934
-644186
-646455
-648744
-651044
-653352
-655671
-657996
-660320
-662645
-664970
-667291
-669603
-671907
-674204
-676486
-678753
-681008
-683246
-685465
-687663
-689845
-692004
-694140
-696253
-698345
-700410
-702451
-704467
-706458
-708421
-710360
-712267
-714167
-715998
-717864
-719641
-721418
-723176
-724907
-726595
-728268
-729938
-731558
-733121
-734701
-736275
-737836
-739308
-740736
-742286
-743699
-745156
-746542
-747942
-749297
-750604
-752013
-753283
-754556
-755877
-757087
-758296
-759486
-760701
-761772
-762862
-763884
-764945
-765796
-766671
-767493
-768186
-768754
-769225
-769632
-769836
-769922
-769863
-769554
-769085
-768465
-767572
-766465
-765169
-763595
-761793
-759816
-757583
-755132
-752533
-749754
-746845
-743876
-740827
-737744
-734720
-731760
-728918
-726265
-723822
-721622
-719741
-718187
-716986
-716112
-715676
-715676
-716062
-716836
-717995
-719518
-721366
-723507
-725910
-728546
-731378
-734374
-737496
-740718
-744012
-747355
-750720
-754090
-757445
-760776
-764070
-767323
-770527
-773684
-776789
-779845
-782848
-785801
-788702
-791555
-794358
-797115
-799828
-802501
-805135
-807735
-810298
-812831
-815329
-817798
-820234
-822644
-825025
-827383
-829711
-831973
-834269
-836460
)
;

boundaryField
{
    sides
    {
        type            calculated;
        value           nonuniform List<scalar> 2(-836460 -545593);
    }
    empty
    {
        type            empty;
    }
}


// ************************************************************************* //
