/*--------------------------------*- C++ -*----------------------------------*\
  =========                 |
  \\      /  F ield         | OpenFOAM: The Open Source CFD Toolbox
   \\    /   O peration     | Website:  https://openfoam.org
    \\  /    A nd           | Version:  9
     \\/     M anipulation  |
\*---------------------------------------------------------------------------*/
FoamFile
{
    format      ascii;
    class       volScalarField;
    location    "0.039";
    object      ddt0(rho);
}
// * * * * * * * * * * * * * * * * * * * * * * * * * * * * * * * * * * * * * //

dimensions      [1 -3 -1 0 0 0 0];

internalField   nonuniform List<scalar> 
1000
(
-6.94581
-6.9432
-6.93955
-6.93615
-6.93331
-6.93011
-6.92612
-6.92231
-6.91961
-6.9174
-6.9142
-6.90955
-6.90473
-6.90144
-6.9
-6.89895
-6.89632
-6.89134
-6.88504
-6.8795
-6.87639
-6.87587
-6.87654
-6.87627
-6.87337
-6.86748
-6.85959
-6.85161
-6.8455
-6.84253
-6.84286
-6.84551
-6.84879
-6.85082
-6.85016
-6.84605
-6.83857
-6.82852
-6.81723
-6.80625
-6.79705
-6.79081
-6.78824
-6.78954
-6.79444
-6.80226
-6.81209
-6.82264
-6.83244
-6.84043
-6.84635
-6.85013
-6.85155
-6.85113
-6.84975
-6.84823
-6.84838
-6.85149
-6.86645
-6.87218
-6.88399
-6.875
-6.87809
-6.87919
-6.86952
-6.87701
-6.87086
-6.866
-6.87347
-6.86263
-6.86224
-6.8679
-6.85554
-6.85856
-6.86269
-6.84956
-6.8541
-6.85783
-6.8441
-6.8485
-6.85351
-6.83915
-6.84164
-6.84947
-6.83527
-6.83344
-6.84461
-6.83302
-6.82459
-6.83776
-6.83266
-6.81726
-6.82755
-6.83248
-6.81391
-6.81441
-6.82868
-6.81575
-6.80249
-6.81762
-6.81947
-6.79821
-6.80055
-6.81678
-6.80328
-6.78677
-6.80168
-6.80887
-6.78646
-6.78111
-6.80069
-6.79606
-6.77262
-6.77799
-6.79586
-6.78201
-6.76188
-6.77474
-6.78824
-6.76843
-6.75315
-6.76981
-6.77851
-6.75652
-6.74463
-6.7628
-6.76847
-6.74573
-6.73602
-6.75377
-6.75846
-6.73612
-6.72641
-6.74334
-6.74866
-6.72725
-6.71619
-6.73147
-6.73876
-6.71918
-6.70521
-6.71815
-6.72853
-6.71189
-6.69409
-6.70319
-6.71725
-6.7053
-6.68384
-6.68653
-6.70364
-6.69929
-6.67575
-6.66925
-6.6862
-6.69201
-6.6709
-6.65356
-6.66451
-6.68018
-6.66842
-6.6431
-6.64108
-6.6606
-6.66401
-6.6398
-6.62161
-6.63359
-6.6509
-6.6401
-6.61234
-6.60587
-6.62514
-6.63425
-6.61293
-6.58821
-6.59231
-6.61284
-6.61228
-6.58549
-6.56691
-6.57805
-6.59574
-6.58734
-6.55918
-6.54641
-6.56105
-6.5748
-6.56102
-6.53335
-6.52516
-6.54105
-6.55103
-6.53382
-6.50716
-6.50181
-6.51797
-6.52521
-6.50601
-6.47948
-6.47472
-6.49162
-6.49858
-6.47722
-6.44915
-6.44414
-6.46155
-6.4699
-6.44645
-6.41981
-6.41389
-6.41997
-6.43658
-6.41943
-6.39446
-6.37657
-6.37306
-6.39944
-6.39207
-6.36226
-6.34198
-6.33866
-6.34187
-6.35744
-6.33364
-6.31231
-6.29726
-6.29092
-6.30921
-6.30134
-6.27555
-6.26327
-6.2546
-6.24527
-6.25689
-6.24927
-6.23898
-6.22118
-6.21644
-6.20465
-6.18325
-6.16623
-6.14859
-6.12996
-6.12134
-6.11737
-6.10608
-6.08978
-6.07372
-6.0607
-6.05384
-6.04679
-6.03355
-6.01278
-5.99423
-5.98229
-5.97509
-5.96687
-5.95073
-5.92926
-5.90835
-5.89638
-5.88759
-5.87567
-5.85634
-5.83226
-5.81273
-5.80039
-5.79006
-5.77541
-5.75374
-5.72953
-5.7112
-5.69788
-5.68513
-5.66651
-5.64187
-5.61763
-5.59875
-5.58534
-5.57205
-5.55204
-5.52554
-5.49967
-5.47983
-5.46604
-5.45258
-5.43319
-5.40565
-5.37687
-5.35491
-5.34009
-5.32765
-5.30901
-5.28311
-5.2548
-5.2317
-5.21662
-5.20289
-5.18339
-5.1582
-5.13296
-5.11173
-5.09647
-5.08299
-5.06495
-5.04103
-5.01579
-4.99561
-4.98213
-4.9717
-4.95831
-4.93732
-4.91176
-4.89029
-4.87762
-4.87068
-4.86246
-4.8472
-4.82569
-4.80547
-4.7929
-4.78675
-4.78062
-4.7704
-4.75527
-4.7392
-4.72803
-4.72353
-4.72135
-4.71495
-4.70326
-4.6902
-4.68085
-4.67883
-4.68195
-4.68235
-4.6746
-4.66225
-4.65315
-4.65101
-4.65538
-4.66179
-4.66303
-4.6567
-4.64818
-4.64438
-4.64688
-4.65387
-4.66052
-4.66044
-4.65467
-4.65126
-4.65504
-4.66294
-4.67027
-4.67398
-4.67159
-4.66672
-4.66751
-4.67618
-4.68752
-4.69632
-4.69905
-4.69491
-4.69048
-4.69394
-4.70498
-4.71676
-4.72473
-4.72747
-4.7255
-4.72426
-4.73031
-4.74206
-4.75179
-4.75603
-4.75634
-4.75566
-4.75818
-4.76768
-4.78153
-4.79171
-4.79367
-4.79085
-4.78918
-4.79275
-4.80294
-4.81691
-4.82787
-4.83084
-4.82865
-4.82796
-4.83301
-4.84332
-4.85461
-4.86234
-4.86422
-4.86291
-4.86478
-4.87344
-4.88671
-4.89767
-4.90251
-4.902
-4.89999
-4.90155
-4.90927
-4.92223
-4.93497
-4.94179
-4.94179
-4.94018
-4.94298
-4.95168
-4.96281
-4.97173
-4.97582
-4.97592
-4.9763
-4.98138
-4.99207
-5.0051
-5.01527
-5.01911
-5.01742
-5.01505
-5.01788
-5.02843
-5.04242
-5.05275
-5.05637
-5.05625
-5.05742
-5.06221
-5.07106
-5.08204
-5.09126
-5.09505
-5.09351
-5.09278
-5.09798
-5.10957
-5.12285
-5.13307
-5.13778
-5.13771
-5.13696
-5.13984
-5.1487
-5.16022
-5.16985
-5.17439
-5.17508
-5.17577
-5.18028
-5.18992
-5.20206
-5.21244
-5.21742
-5.21748
-5.21635
-5.21835
-5.22634
-5.2386
-5.25019
-5.25693
-5.25836
-5.25848
-5.26154
-5.26962
-5.28088
-5.29154
-5.298
-5.29898
-5.29782
-5.29937
-5.30676
-5.31829
-5.32988
-5.33791
-5.34167
-5.34268
-5.34414
-5.34891
-5.35829
-5.36978
-5.37889
-5.38301
-5.38287
-5.38314
-5.38732
-5.39721
-5.41008
-5.42104
-5.4268
-5.4272
-5.42652
-5.42947
-5.43829
-5.45025
-5.46064
-5.46646
-5.46786
-5.46847
-5.47171
-5.47924
-5.48988
-5.50085
-5.50932
-5.51337
-5.51438
-5.5155
-5.52036
-5.52995
-5.54143
-5.55096
-5.5553
-5.55621
-5.55706
-5.56138
-5.57046
-5.58162
-5.5922
-5.59893
-5.60204
-5.60312
-5.60561
-5.61209
-5.62219
-5.63356
-5.64202
-5.64609
-5.6468
-5.6479
-5.65265
-5.66214
-5.6738
-5.6841
-5.69031
-5.6923
-5.69324
-5.69651
-5.70422
-5.71517
-5.72619
-5.73371
-5.73735
-5.73862
-5.74077
-5.74646
-5.75565
-5.76647
-5.77581
-5.78183
-5.78432
-5.78605
-5.78984
-5.79767
-5.80894
-5.81996
-5.82759
-5.83085
-5.83144
-5.83428
-5.84069
-5.85157
-5.8626
-5.87074
-5.87517
-5.8762
-5.87895
-5.88304
-5.89187
-5.90153
-5.91139
-5.91878
-5.92284
-5.92542
-5.92791
-5.93358
-5.94278
-5.95373
-5.9645
-5.97089
-5.97387
-5.9754
-5.97753
-5.98648
-5.996
-6.00982
-6.01735
-6.02218
-6.02325
-6.02337
-6.03094
-6.0386
-6.05415
-6.0625
-6.07022
-6.07109
-6.07083
-6.07699
-6.08214
-6.09972
-6.10598
-6.11879
-6.11687
-6.11902
-6.12228
-6.12565
-6.14525
-6.14812
-6.16791
-6.16166
-6.16883
-6.16803
-6.17049
-6.19077
-6.18958
-6.21638
-6.20525
-6.22056
-6.21352
-6.22002
-6.23546
-6.23419
-6.26435
-6.24741
-6.27571
-6.25312
-6.2771
-6.27313
-6.28656
-6.30682
-6.29517
-6.32677
-6.29679
-6.3312
-6.31211
-6.33976
-6.34557
-6.34869
-6.37051
-6.34823
-6.37869
-6.35752
-6.38943
-6.38779
-6.4018
-6.41374
-6.40208
-6.42258
-6.40629
-6.4355
-6.43103
-6.45573
-6.45501
-6.4618
-6.46341
-6.46026
-6.47955
-6.47422
-6.50899
-6.49456
-6.52134
-6.50473
-6.51688
-6.52003
-6.52576
-6.5526
-6.54237
-6.57732
-6.54786
-6.57723
-6.55897
-6.58082
-6.58598
-6.60246
-6.60932
-6.6104
-6.62501
-6.60176
-6.64418
-6.61731
-6.65812
-6.65628
-6.6551
-6.68055
-6.65148
-6.68813
-6.66993
-6.69829
-6.70262
-6.70502
-6.727
-6.70265
-6.73913
-6.71439
-6.74564
-6.74848
-6.74901
-6.77586
-6.75253
-6.78342
-6.76517
-6.78658
-6.79235
-6.79372
-6.81886
-6.79909
-6.83425
-6.80334
-6.83939
-6.83025
-6.83285
-6.86916
-6.83489
-6.87933
-6.85385
-6.86987
-6.87993
-6.8653
-6.90322
-6.88284
-6.89951
-6.91132
-6.8983
-6.91047
-6.92017
-6.91635
-6.92174
-6.94518
-6.92532
-6.94317
-6.94737
-6.93831
-6.94842
-6.95661
-6.95257
-6.95686
-6.97576
-6.95257
-6.97319
-6.97247
-6.96197
-6.97655
-6.98063
-6.97427
-6.97594
-6.99777
-6.96681
-6.97866
-7.0006
-6.95942
-6.98434
-7.00148
-6.96084
-6.98468
-7.00055
-6.95465
-6.98018
-6.99196
-6.95174
-6.97536
-6.98359
-6.95541
-6.96172
-6.9748
-6.95207
-6.94193
-6.96451
-6.94551
-6.92803
-6.95099
-6.939
-6.91614
-6.92988
-6.92906
-6.90308
-6.90724
-6.91668
-6.89268
-6.8878
-6.90089
-6.88266
-6.86854
-6.88085
-6.87062
-6.8499
-6.86157
-6.8581
-6.83462
-6.84607
-6.84431
-6.82225
-6.8313
-6.83073
-6.811
-6.82061
-6.81583
-6.80779
-6.80778
-6.81089
-6.80074
-6.80796
-6.79756
-6.81252
-6.79435
-6.80903
-6.8041
-6.81653
-6.79185
-6.83659
-6.80658
-6.8261
-6.82278
-6.85477
-6.81686
-6.86623
-6.85165
-6.87239
-6.86363
-6.90285
-6.88698
-6.9175
-6.91687
-6.94232
-6.94928
-6.96575
-6.97703
-7.00345
-7.01443
-7.02109
-7.05819
-7.0707
-7.07976
-7.10474
-7.14019
-7.14188
-7.16063
-7.20254
-7.21458
-7.2247
-7.26167
-7.28881
-7.29988
-7.32139
-7.36266
-7.37626
-7.3915
-7.42909
-7.45528
-7.4662
-7.49551
-7.52826
-7.54936
-7.56239
-7.59637
-7.62823
-7.64089
-7.65924
-7.69787
-7.71975
-7.7335
-7.75782
-7.79049
-7.80888
-7.8268
-7.85117
-7.87909
-7.8943
-7.91665
-7.94063
-7.96085
-7.97622
-8.00351
-8.02186
-8.03855
-8.05764
-8.08203
-8.09676
-8.11668
-8.13437
-8.15229
-8.1677
-8.19031
-8.20452
-8.21882
-8.23416
-8.25616
-8.27066
-8.28368
-8.2958
-8.3164
-8.33121
-8.34737
-8.35517
-8.37263
-8.38706
-8.40333
-8.41373
-8.42686
-8.43882
-8.45384
-8.46555
-8.47986
-8.48851
-8.50181
-8.51278
-8.52621
-8.53392
-8.54583
-8.5555
-8.56672
-8.57098
-8.57987
-8.58849
-8.59604
-8.59899
-8.60147
-8.6029
-8.6047
-8.60583
-8.60295
-8.59586
-8.58751
-8.58055
-8.56856
-8.55707
-8.53818
-8.51929
-8.49453
-8.47469
-8.44519
-8.41986
-8.3842
-8.35411
-8.31505
-8.28536
-8.24468
-8.21289
-8.17134
-8.13996
-8.10103
-8.07402
-8.04
-8.01664
-7.98901
-7.97152
-7.95264
-7.93966
-7.93656
-7.9291
-7.93184
-7.93381
-7.94919
-7.95929
-7.97953
-7.99753
-8.02277
-8.04466
-8.08042
-8.10717
-8.13905
-8.16897
-8.20622
-8.23628
-8.27668
-8.30891
-8.34254
-8.37069
-8.41123
-8.44402
-8.47814
-8.50577
-8.54056
-8.56633
-8.60162
-8.63271
-8.66403
-8.68556
-8.7169
-8.74287
-8.77572
-8.80095
-8.82765
-8.84817
-8.87844
-8.90137
-8.93077
-8.95351
-8.97782
-8.99637
-9.02558
-9.04738
-9.0737
-9.09214
-9.11755
-9.13377
)
;

boundaryField
{
    sides
    {
        type            calculated;
        value           nonuniform List<scalar> 2(-9.13377 -6.94581);
    }
    empty
    {
        type            empty;
    }
}


// ************************************************************************* //
