/*--------------------------------*- C++ -*----------------------------------*\
  =========                 |
  \\      /  F ield         | OpenFOAM: The Open Source CFD Toolbox
   \\    /   O peration     | Website:  https://openfoam.org
    \\  /    A nd           | Version:  9
     \\/     M anipulation  |
\*---------------------------------------------------------------------------*/
FoamFile
{
    format      ascii;
    class       volScalarField;
    location    "0.039";
    object      mag(U);
}
// * * * * * * * * * * * * * * * * * * * * * * * * * * * * * * * * * * * * * //

dimensions      [0 1 -1 0 0 0 0];

internalField   nonuniform List<scalar> 
1000
(
20.0278
20.3486
20.761
21.0946
21.3871
21.6789
21.9783
22.2809
22.5833
22.8851
23.1865
23.4881
23.7897
24.0914
24.3931
24.6948
24.9964
25.2981
25.5998
25.9016
26.2033
26.5051
26.8069
27.1087
27.4105
27.7123
28.0141
28.3159
28.6177
28.9196
29.2215
29.5234
29.8253
30.1272
30.4291
30.731
31.0328
31.3347
31.6366
31.9385
32.2404
32.5424
32.8443
33.1463
33.4484
33.7504
34.0524
34.3545
34.6565
34.9585
35.2605
35.5625
35.8645
36.1665
36.4684
36.7704
37.0724
37.3743
37.6764
37.9784
38.2805
38.5824
38.8844
39.1863
39.4883
39.7903
40.0922
40.3941
40.6961
40.998
41.2999
41.6018
41.9037
42.2056
42.5075
42.8093
43.1112
43.413
43.7148
44.0167
44.3185
44.6203
44.922
45.2238
45.5255
45.8273
46.129
46.4307
46.7324
47.034
47.3357
47.6372
47.9389
48.2404
48.5419
48.8435
49.145
49.4464
49.7479
50.0493
50.3507
50.652
50.9534
51.2547
51.5559
51.8571
52.1584
52.4595
52.7606
53.0617
53.3628
53.6638
53.9647
54.2657
54.5666
54.8674
55.1682
55.469
55.7697
56.0703
56.3709
56.6715
56.972
57.2724
57.5728
57.8732
58.1735
58.4736
58.7738
59.0739
59.374
59.6739
59.9738
60.2737
60.5735
60.8731
61.1728
61.4723
61.7718
62.0712
62.3705
62.6698
62.9689
63.268
63.5669
63.8658
64.1647
64.4633
64.7619
65.0605
65.3589
65.6572
65.9554
66.2535
66.5515
66.8494
67.1471
67.4447
67.7423
68.0397
68.337
68.6341
68.9311
69.228
69.5248
69.8214
70.1178
70.4142
70.7104
71.0064
71.3022
71.598
71.8935
72.1889
72.4841
72.7791
73.074
73.3687
73.6632
73.9575
74.2516
74.5455
74.8392
75.1327
75.426
75.7191
76.0119
76.3046
76.597
76.8891
77.181
77.4727
77.7641
78.0553
78.3462
78.6368
78.9272
79.2172
79.507
79.7964
80.0856
80.3745
80.663
80.9512
81.2391
81.5266
81.8138
82.1006
82.3871
82.6731
82.9589
83.2442
83.529
83.8135
84.0977
84.3814
84.6645
84.9473
85.2298
85.5117
85.7931
86.0741
86.3545
86.6345
86.9142
87.1932
87.4717
87.7496
88.027
88.3041
88.5805
88.8564
89.1318
89.4064
89.6806
89.9547
90.2286
90.502
90.7745
91.0459
91.3161
91.585
91.8529
92.12
92.3862
92.6515
92.9161
93.1798
93.4428
93.7049
93.9662
94.2266
94.4861
94.7446
95.0022
95.2589
95.5145
95.7691
96.0227
96.2753
96.5268
96.7772
97.0264
97.2745
97.5214
97.7671
98.0116
98.2549
98.4969
98.7377
98.9771
99.2153
99.4521
99.6876
99.9217
100.154
100.386
100.616
100.844
101.071
101.296
101.52
101.743
101.963
102.183
102.401
102.617
102.831
103.044
103.256
103.465
103.673
103.88
104.085
104.288
104.489
104.689
104.887
105.084
105.279
105.472
105.664
105.854
106.042
106.229
106.414
106.597
106.779
106.96
107.139
107.316
107.492
107.666
107.839
108.01
108.18
108.349
108.516
108.682
108.847
109.011
109.173
109.334
109.494
109.653
109.811
109.968
110.123
110.278
110.432
110.585
110.737
110.889
111.039
111.189
111.338
111.487
111.635
111.782
111.929
112.075
112.221
112.366
112.511
112.656
112.8
112.943
113.087
113.23
113.373
113.515
113.658
113.8
113.942
114.084
114.225
114.367
114.508
114.649
114.791
114.932
115.073
115.213
115.354
115.495
115.636
115.777
115.917
116.058
116.199
116.339
116.48
116.621
116.761
116.902
117.043
117.184
117.324
117.465
117.606
117.747
117.888
118.029
118.17
118.311
118.452
118.593
118.734
118.875
119.016
119.157
119.298
119.44
119.581
119.722
119.864
120.005
120.147
120.288
120.43
120.571
120.713
120.855
120.997
121.138
121.28
121.422
121.564
121.706
121.848
121.99
122.132
122.275
122.417
122.559
122.701
122.844
122.986
123.129
123.271
123.414
123.556
123.699
123.842
123.984
124.127
124.27
124.413
124.556
124.699
124.842
124.985
125.128
125.271
125.414
125.558
125.701
125.844
125.988
126.131
126.275
126.418
126.562
126.705
126.849
126.993
127.136
127.28
127.424
127.568
127.712
127.856
128
128.144
128.288
128.432
128.576
128.72
128.865
129.009
129.153
129.298
129.442
129.587
129.731
129.876
130.02
130.165
130.31
130.454
130.599
130.744
130.889
131.034
131.178
131.323
131.468
131.613
131.759
131.904
132.049
132.194
132.339
132.485
132.63
132.775
132.921
133.066
133.212
133.357
133.503
133.648
133.794
133.94
134.085
134.231
134.377
134.523
134.668
134.814
134.96
135.106
135.252
135.398
135.544
135.691
135.837
135.983
136.129
136.276
136.422
136.568
136.715
136.861
137.008
137.154
137.301
137.447
137.594
137.741
137.887
138.034
138.181
138.328
138.475
138.621
138.768
138.915
139.062
139.209
139.356
139.504
139.651
139.798
139.945
140.092
140.24
140.387
140.535
140.682
140.829
140.977
141.124
141.272
141.42
141.567
141.715
141.863
142.01
142.158
142.306
142.454
142.602
142.75
142.898
143.046
143.194
143.342
143.49
143.638
143.786
143.935
144.083
144.231
144.38
144.528
144.676
144.825
144.973
145.122
145.27
145.419
145.568
145.716
145.865
146.014
146.163
146.311
146.46
146.609
146.758
146.907
147.056
147.205
147.354
147.503
147.653
147.802
147.951
148.1
148.25
148.399
148.548
148.698
148.847
148.997
149.146
149.296
149.445
149.595
149.745
149.894
150.044
150.194
150.344
150.494
150.644
150.793
150.943
151.093
151.244
151.394
151.544
151.694
151.844
151.994
152.145
152.295
152.445
152.596
152.746
152.897
153.047
153.198
153.348
153.499
153.649
153.8
153.951
154.102
154.252
154.403
154.554
154.705
154.856
155.007
155.158
155.309
155.46
155.611
155.762
155.914
156.065
156.216
156.367
156.519
156.67
156.822
156.973
157.125
157.276
157.428
157.579
157.731
157.883
158.034
158.186
158.338
158.49
158.642
158.794
158.945
159.097
159.249
159.401
159.554
159.706
159.858
160.01
160.162
160.315
160.467
160.619
160.771
160.924
161.076
161.229
161.381
161.534
161.686
161.839
161.991
162.144
162.297
162.449
162.602
162.755
162.907
163.06
163.213
163.366
163.518
163.671
163.824
163.977
164.13
164.283
164.435
164.588
164.741
164.894
165.047
165.2
165.353
165.505
165.658
165.811
165.964
166.116
166.269
166.422
166.574
166.727
166.879
167.032
167.184
167.336
167.488
167.64
167.792
167.944
168.096
168.248
168.399
168.551
168.702
168.853
169.004
169.155
169.305
169.456
169.606
169.756
169.906
170.055
170.205
170.354
170.502
170.651
170.799
170.946
171.094
171.241
171.388
171.534
171.68
171.825
171.97
172.114
172.258
172.402
172.545
172.687
172.829
172.97
173.111
173.251
173.39
173.529
173.667
173.804
173.941
174.076
174.211
174.345
174.479
174.611
174.743
174.873
175.003
175.132
175.26
175.387
175.512
175.637
175.761
175.884
176.006
176.126
176.246
176.364
176.482
176.598
176.713
176.827
176.939
177.051
177.162
177.271
177.379
177.486
177.592
177.697
177.8
177.903
178.004
178.104
178.204
178.302
178.399
178.495
178.59
178.685
178.778
178.87
178.962
179.053
179.143
179.232
179.321
179.409
179.496
179.583
179.67
179.756
179.842
179.927
180.012
180.097
180.182
180.267
180.351
180.436
180.521
180.606
180.692
180.777
180.863
180.95
181.036
181.124
181.212
181.3
181.39
181.48
181.571
181.662
181.755
181.848
181.943
182.038
182.135
182.232
182.331
182.431
182.532
182.634
182.738
182.842
182.948
183.055
183.164
183.274
183.385
183.497
183.611
183.726
183.842
183.96
184.078
184.199
184.32
184.443
184.567
184.692
184.818
184.946
185.074
185.204
185.335
185.468
185.601
185.735
185.871
186.007
186.145
186.283
186.423
186.563
186.704
186.847
186.99
187.134
187.278
187.424
187.57
187.717
187.865
188.013
188.162
188.312
188.463
188.614
188.765
188.918
189.07
189.223
189.377
189.531
189.686
189.841
189.997
190.153
190.309
190.466
190.623
190.781
190.938
191.097
191.255
191.413
191.572
191.731
191.89
192.05
192.209
192.368
192.527
192.686
192.845
193.003
193.161
193.318
193.474
193.63
193.785
193.938
194.09
194.24
194.388
194.535
194.679
194.82
194.959
195.095
195.227
195.356
195.482
195.603
195.721
195.835
195.945
196.05
196.152
196.25
196.343
196.434
196.52
196.604
196.684
196.762
196.838
196.911
196.983
197.055
197.125
197.195
197.265
197.336
197.407
197.479
197.552
197.627
197.704
197.782
197.862
197.944
198.028
198.114
198.202
198.293
198.385
198.48
198.576
198.675
198.775
198.878
198.982
199.088
199.196
199.305
199.416
199.529
199.643
199.759
199.877
199.995
200.115
200.237
200.36
200.484
200.609
200.736
200.864
200.993
201.123
201.255
201.388
201.526
201.813
)
;

boundaryField
{
    sides
    {
        type            calculated;
        value           nonuniform List<scalar> 2(201.813 20.0278);
    }
    empty
    {
        type            empty;
    }
}


// ************************************************************************* //
