/*--------------------------------*- C++ -*----------------------------------*\
  =========                 |
  \\      /  F ield         | OpenFOAM: The Open Source CFD Toolbox
   \\    /   O peration     | Website:  https://openfoam.org
    \\  /    A nd           | Version:  9
     \\/     M anipulation  |
\*---------------------------------------------------------------------------*/
FoamFile
{
    format      ascii;
    class       volScalarField;
    location    "0.039";
    object      rho_0;
}
// * * * * * * * * * * * * * * * * * * * * * * * * * * * * * * * * * * * * * //

dimensions      [1 -3 0 0 0 0 0];

internalField   nonuniform List<scalar> 
1000
(
0.234553
0.234513
0.23444
0.234373
0.23431
0.234249
0.234187
0.234124
0.234062
0.233999
0.233938
0.233876
0.233813
0.23375
0.233687
0.233625
0.233565
0.233504
0.233442
0.233378
0.233315
0.233252
0.23319
0.23313
0.233071
0.233012
0.232951
0.232888
0.232824
0.232759
0.232695
0.232634
0.232574
0.232517
0.232461
0.232405
0.232349
0.23229
0.232229
0.232166
0.232101
0.232034
0.231967
0.231901
0.231837
0.231777
0.23172
0.231667
0.231618
0.231572
0.231529
0.231488
0.231449
0.231411
0.231372
0.231334
0.231297
0.23126
0.231227
0.231195
0.231168
0.231143
0.231113
0.23109
0.231061
0.231034
0.231011
0.230981
0.230956
0.230931
0.230901
0.230877
0.230851
0.230822
0.230798
0.230772
0.230743
0.230719
0.230693
0.230664
0.23064
0.230614
0.230585
0.230561
0.230536
0.230507
0.230482
0.230459
0.23043
0.230404
0.230381
0.230354
0.230326
0.230303
0.230278
0.230249
0.230225
0.230202
0.230174
0.230147
0.230125
0.2301
0.230071
0.230047
0.230025
0.229997
0.22997
0.229949
0.229925
0.229896
0.229871
0.22985
0.229825
0.229796
0.229773
0.229752
0.229725
0.229698
0.229676
0.229655
0.229627
0.229601
0.22958
0.229558
0.229531
0.229505
0.229485
0.229463
0.229435
0.229411
0.229391
0.229368
0.229342
0.229317
0.229297
0.229275
0.229249
0.229225
0.229205
0.229184
0.229158
0.229134
0.229114
0.229093
0.229069
0.229044
0.229024
0.229005
0.228981
0.228957
0.228935
0.228917
0.228896
0.228871
0.228849
0.228831
0.228811
0.228788
0.228765
0.228746
0.228728
0.228707
0.228683
0.228663
0.228646
0.228627
0.228605
0.228583
0.228565
0.228549
0.228529
0.228507
0.228487
0.228471
0.228455
0.228434
0.228413
0.228395
0.228381
0.228364
0.228344
0.228324
0.228308
0.228294
0.228278
0.228258
0.22824
0.228225
0.228212
0.228196
0.228178
0.228161
0.228148
0.228136
0.22812
0.228103
0.228088
0.228076
0.228065
0.22805
0.228034
0.228021
0.228011
0.228001
0.227988
0.227973
0.227961
0.227952
0.227944
0.227933
0.22792
0.227908
0.227901
0.227895
0.227886
0.227876
0.227866
0.227858
0.227854
0.227848
0.227841
0.227833
0.227826
0.227823
0.22782
0.227815
0.22781
0.227805
0.227802
0.227802
0.2278
0.227798
0.227796
0.227794
0.227795
0.227796
0.227796
0.227796
0.227797
0.227799
0.227802
0.227807
0.227812
0.227817
0.227823
0.227831
0.22784
0.227848
0.227858
0.227867
0.227877
0.227889
0.227902
0.227915
0.227929
0.227942
0.227957
0.227975
0.227992
0.228011
0.228029
0.228048
0.228069
0.228091
0.228115
0.228139
0.228163
0.228188
0.228215
0.228244
0.228274
0.228303
0.228334
0.228366
0.2284
0.228436
0.228472
0.228509
0.228546
0.228586
0.228627
0.22867
0.228714
0.228758
0.228804
0.228851
0.2289
0.228951
0.229003
0.229056
0.229109
0.229164
0.229221
0.229281
0.229341
0.229402
0.229464
0.229528
0.229593
0.229661
0.22973
0.229799
0.22987
0.229942
0.230017
0.230093
0.23017
0.230248
0.230327
0.230407
0.230489
0.230574
0.23066
0.230746
0.230832
0.23092
0.23101
0.231101
0.231195
0.231289
0.231383
0.231477
0.231574
0.231672
0.231771
0.231871
0.231972
0.232073
0.232175
0.232279
0.232384
0.232489
0.232595
0.232701
0.232807
0.232915
0.233025
0.233135
0.233245
0.233355
0.233465
0.233576
0.233688
0.233802
0.233915
0.234029
0.234142
0.234255
0.234369
0.234485
0.234601
0.234717
0.234832
0.234947
0.235063
0.23518
0.235298
0.235415
0.235532
0.235649
0.235766
0.235884
0.236002
0.236122
0.23624
0.236358
0.236476
0.236594
0.236713
0.236833
0.236952
0.237072
0.237191
0.237309
0.237429
0.237549
0.237669
0.237789
0.237909
0.238028
0.238148
0.238268
0.238389
0.238511
0.238631
0.238752
0.238871
0.238991
0.239112
0.239234
0.239355
0.239477
0.239598
0.239718
0.239839
0.23996
0.240082
0.240204
0.240326
0.240447
0.240568
0.24069
0.240813
0.240935
0.241058
0.24118
0.241301
0.241423
0.241545
0.241668
0.241791
0.241914
0.242037
0.242159
0.242281
0.242404
0.242528
0.242651
0.242774
0.242897
0.24302
0.243143
0.243266
0.243391
0.243515
0.243639
0.243763
0.243886
0.244009
0.244133
0.244257
0.244382
0.244507
0.244631
0.244754
0.244879
0.245003
0.245128
0.245253
0.245378
0.245503
0.245627
0.245751
0.245876
0.246002
0.246128
0.246254
0.246379
0.246504
0.246629
0.246755
0.246881
0.247007
0.247133
0.247259
0.247384
0.24751
0.247636
0.247763
0.24789
0.248017
0.248143
0.248269
0.248395
0.248521
0.248649
0.248776
0.248904
0.249031
0.249157
0.249284
0.249411
0.249539
0.249667
0.249795
0.249923
0.25005
0.250177
0.250305
0.250433
0.250561
0.25069
0.250818
0.250947
0.251075
0.251203
0.251331
0.25146
0.25159
0.251719
0.251847
0.251976
0.252104
0.252233
0.252363
0.252493
0.252623
0.252752
0.252881
0.253011
0.25314
0.25327
0.253401
0.253531
0.253661
0.253791
0.253921
0.254051
0.254181
0.254312
0.254444
0.254575
0.254705
0.254836
0.254966
0.255097
0.255229
0.255361
0.255492
0.255623
0.255754
0.255885
0.256017
0.256149
0.256281
0.256414
0.256546
0.256678
0.256809
0.256941
0.257074
0.257207
0.25734
0.257473
0.257605
0.257738
0.25787
0.258003
0.258136
0.25827
0.258404
0.258537
0.25867
0.258803
0.258937
0.25907
0.259205
0.259339
0.259473
0.259607
0.259741
0.259875
0.260009
0.260144
0.260279
0.260413
0.260548
0.260683
0.260817
0.260952
0.261087
0.261223
0.261358
0.261494
0.261629
0.261764
0.261899
0.262035
0.262171
0.262308
0.262444
0.26258
0.262715
0.262851
0.262987
0.263124
0.26326
0.263397
0.263534
0.26367
0.263807
0.263943
0.26408
0.264217
0.264355
0.264492
0.26463
0.264767
0.264904
0.265041
0.265179
0.265318
0.265456
0.265594
0.265732
0.26587
0.266007
0.266146
0.266285
0.266423
0.266563
0.266701
0.26684
0.266978
0.267117
0.267257
0.267396
0.267537
0.267675
0.267815
0.267953
0.268093
0.268233
0.268373
0.268514
0.268653
0.268795
0.268932
0.269074
0.269213
0.269354
0.269497
0.269635
0.269779
0.269916
0.27006
0.270198
0.270341
0.270482
0.270623
0.270767
0.270904
0.271051
0.271186
0.271334
0.271471
0.271617
0.271758
0.271899
0.272043
0.272181
0.272329
0.272467
0.272614
0.272754
0.272897
0.273041
0.273181
0.273328
0.273467
0.273615
0.273755
0.273901
0.274043
0.274186
0.274331
0.274473
0.27462
0.274761
0.274909
0.275049
0.275196
0.275338
0.275483
0.275629
0.275772
0.275921
0.276061
0.27621
0.27635
0.276499
0.276642
0.276789
0.276935
0.277079
0.277228
0.277368
0.277519
0.27766
0.277812
0.277953
0.278105
0.278246
0.278395
0.278541
0.278686
0.278836
0.27898
0.27913
0.279276
0.279422
0.279572
0.279715
0.279868
0.280011
0.280164
0.280308
0.280458
0.280606
0.280752
0.280904
0.28105
0.281201
0.281349
0.281498
0.281649
0.281795
0.281948
0.282094
0.282247
0.282396
0.282546
0.282698
0.282845
0.283001
0.283146
0.283302
0.283451
0.283603
0.283757
0.283906
0.284061
0.284211
0.284365
0.284519
0.28467
0.284826
0.284979
0.285134
0.285288
0.285443
0.285597
0.285754
0.285911
0.286065
0.286224
0.286379
0.286538
0.286695
0.286855
0.287012
0.287173
0.287332
0.287491
0.287654
0.287814
0.287977
0.288139
0.288303
0.288466
0.288631
0.288797
0.28896
0.289129
0.289296
0.289462
0.289633
0.289803
0.289971
0.290145
0.290317
0.290488
0.290664
0.290838
0.291013
0.291191
0.291369
0.291547
0.291728
0.29191
0.29209
0.292274
0.29246
0.292644
0.29283
0.29302
0.293208
0.293398
0.293591
0.293784
0.293977
0.294173
0.294371
0.294568
0.294768
0.294969
0.295171
0.295374
0.29558
0.295786
0.295993
0.296203
0.296413
0.296624
0.296839
0.297053
0.297268
0.297486
0.297704
0.297923
0.298145
0.298366
0.29859
0.298814
0.299041
0.299266
0.299496
0.299722
0.299956
0.300182
0.300419
0.300646
0.300886
0.301111
0.301357
0.30158
0.301829
0.302052
0.302305
0.302523
0.302782
0.302999
0.303258
0.303474
0.303737
0.303949
0.304215
0.304426
0.304692
0.304902
0.305168
0.305377
0.305644
0.305851
0.306115
0.306323
0.306586
0.306792
0.307054
0.30726
0.307518
0.307722
0.307981
0.308182
0.308438
0.308639
0.308893
0.30909
0.309343
0.309539
0.309789
0.309982
0.31023
0.310422
0.310667
0.310856
0.3111
0.311287
0.311527
0.311712
0.311951
0.312133
0.312369
0.31255
0.312784
0.312962
0.313193
0.31337
0.313599
0.313774
0.314001
0.314174
0.314398
0.31457
0.314793
0.314962
0.315183
0.315351
0.31557
0.315737
0.315954
0.316119
0.316335
0.316499
0.316713
0.316876
0.317088
0.31725
0.317461
0.317622
0.317832
0.317992
0.318201
0.31836
0.318567
0.318726
0.318933
0.31909
0.319296
0.319453
0.319658
0.319815
0.320019
0.320175
0.320379
0.320535
0.320738
0.320893
0.321096
0.321251
0.321454
0.321609
0.321811
0.321966
0.322169
0.322324
0.322526
0.322682
0.322885
0.323041
0.323246
0.323402
0.323608
0.323767
0.323975
0.324136
0.324347
0.32451
0.324725
0.324892
0.325112
0.325283
0.325509
0.325685
0.325919
0.326101
0.326343
0.326532
0.326783
0.32698
0.327242
0.327447
0.327719
0.327932
0.328214
0.328435
0.328728
0.328956
0.329258
0.329492
0.329802
0.330042
0.330358
0.330603
0.330922
0.331169
0.33149
0.33174
0.33206
0.33231
0.332629
0.332877
0.333194
0.33344
0.333754
0.333996
0.334306
0.334545
0.334851
0.335086
0.335387
0.335619
0.335915
0.336143
0.336436
0.33666
0.336948
0.337169
0.337453
0.337671
0.337952
0.338166
0.338443
0.338655
0.338929
0.339138
0.339409
0.339616
0.339884
0.340088
0.340353
0.340555
0.340818
0.341018
0.341278
0.341476
0.341734
0.341921
0.342192
0.342328
)
;

boundaryField
{
    sides
    {
        type            calculated;
        value           nonuniform List<scalar> 2(0.342328 0.234553);
    }
    empty
    {
        type            empty;
    }
}


// ************************************************************************* //
