/*--------------------------------*- C++ -*----------------------------------*\
  =========                 |
  \\      /  F ield         | OpenFOAM: The Open Source CFD Toolbox
   \\    /   O peration     | Website:  https://openfoam.org
    \\  /    A nd           | Version:  9
     \\/     M anipulation  |
\*---------------------------------------------------------------------------*/
FoamFile
{
    format      ascii;
    class       volScalarField;
    location    "0.039";
    object      T;
}
// * * * * * * * * * * * * * * * * * * * * * * * * * * * * * * * * * * * * * //

dimensions      [0 0 0 1 0 0 0];

internalField   nonuniform List<scalar> 
1000
(
192.962
192.969
192.984
193.001
193.02
193.038
193.056
193.074
193.093
193.111
193.128
193.146
193.165
193.184
193.202
193.22
193.237
193.255
193.273
193.292
193.312
193.331
193.349
193.366
193.382
193.399
193.416
193.436
193.456
193.477
193.497
193.516
193.533
193.548
193.562
193.576
193.59
193.606
193.625
193.645
193.667
193.69
193.714
193.736
193.757
193.776
193.791
193.804
193.813
193.819
193.823
193.825
193.825
193.826
193.826
193.826
193.825
193.824
193.82
193.816
193.806
193.796
193.789
193.777
193.769
193.76
193.748
193.742
193.731
193.721
193.714
193.703
193.694
193.687
193.676
193.667
193.66
193.648
193.639
193.633
193.622
193.612
193.606
193.595
193.585
193.579
193.569
193.558
193.552
193.543
193.532
193.524
193.518
193.506
193.497
193.491
193.481
193.47
193.464
193.457
193.445
193.436
193.431
193.421
193.409
193.403
193.396
193.385
193.375
193.37
193.362
193.35
193.342
193.337
193.327
193.316
193.309
193.304
193.293
193.282
193.277
193.27
193.259
193.249
193.244
193.237
193.226
193.217
193.212
193.205
193.194
193.185
193.179
193.173
193.162
193.153
193.147
193.141
193.131
193.121
193.116
193.11
193.1
193.09
193.084
193.079
193.07
193.06
193.054
193.049
193.041
193.031
193.023
193.018
193.012
193.002
192.994
192.988
192.983
192.975
192.965
192.959
192.954
192.948
192.938
192.93
192.925
192.921
192.913
192.904
192.897
192.893
192.888
192.879
192.871
192.866
192.862
192.856
192.847
192.84
192.836
192.832
192.825
192.816
192.81
192.807
192.803
192.796
192.788
192.783
192.78
192.776
192.769
192.761
192.757
192.754
192.75
192.744
192.737
192.733
192.731
192.727
192.721
192.715
192.711
192.71
192.707
192.701
192.695
192.692
192.691
192.689
192.684
192.679
192.675
192.674
192.673
192.671
192.666
192.662
192.661
192.661
192.66
192.656
192.653
192.651
192.651
192.651
192.65
192.648
192.646
192.646
192.647
192.647
192.646
192.645
192.645
192.646
192.647
192.648
192.648
192.649
192.651
192.653
192.656
192.658
192.66
192.663
192.666
192.67
192.674
192.678
192.681
192.685
192.69
192.696
192.702
192.706
192.712
192.718
192.724
192.732
192.739
192.746
192.753
192.761
192.77
192.78
192.789
192.798
192.807
192.817
192.829
192.84
192.851
192.862
192.874
192.887
192.901
192.915
192.928
192.942
192.956
192.972
192.988
193.005
193.021
193.037
193.054
193.072
193.092
193.111
193.13
193.149
193.169
193.19
193.212
193.234
193.256
193.278
193.301
193.325
193.349
193.374
193.399
193.424
193.45
193.476
193.504
193.532
193.559
193.587
193.615
193.644
193.674
193.705
193.735
193.766
193.796
193.827
193.859
193.892
193.925
193.958
193.99
194.023
194.057
194.092
194.127
194.161
194.196
194.231
194.266
194.302
194.339
194.375
194.411
194.447
194.483
194.521
194.559
194.597
194.634
194.671
194.708
194.746
194.784
194.823
194.861
194.899
194.937
194.975
195.014
195.053
195.092
195.131
195.169
195.207
195.247
195.286
195.326
195.365
195.404
195.442
195.481
195.521
195.561
195.601
195.64
195.679
195.718
195.757
195.797
195.837
195.877
195.916
195.955
195.995
196.035
196.075
196.115
196.155
196.194
196.233
196.272
196.312
196.353
196.393
196.433
196.472
196.512
196.551
196.591
196.632
196.672
196.712
196.751
196.791
196.831
196.871
196.912
196.952
196.991
197.031
197.07
197.111
197.151
197.192
197.232
197.272
197.312
197.351
197.391
197.432
197.473
197.513
197.553
197.593
197.633
197.673
197.714
197.755
197.795
197.835
197.874
197.914
197.955
197.996
198.037
198.077
198.117
198.157
198.197
198.238
198.279
198.319
198.36
198.4
198.44
198.48
198.521
198.562
198.604
198.644
198.684
198.724
198.764
198.805
198.846
198.887
198.928
198.968
199.009
199.049
199.09
199.131
199.172
199.213
199.254
199.294
199.334
199.375
199.416
199.458
199.499
199.54
199.58
199.621
199.662
199.703
199.744
199.785
199.826
199.866
199.907
199.948
199.989
200.031
200.073
200.114
200.154
200.195
200.236
200.277
200.319
200.36
200.401
200.442
200.483
200.524
200.565
200.607
200.649
200.69
200.731
200.772
200.813
200.854
200.896
200.938
200.98
201.021
201.062
201.103
201.144
201.186
201.228
201.27
201.311
201.353
201.394
201.435
201.477
201.519
201.561
201.602
201.644
201.685
201.726
201.768
201.81
201.853
201.894
201.936
201.977
202.019
202.061
202.103
202.145
202.187
202.229
202.27
202.312
202.354
202.396
202.438
202.48
202.522
202.564
202.606
202.648
202.69
202.732
202.774
202.817
202.859
202.9
202.942
202.984
203.026
203.069
203.111
203.154
203.196
203.238
203.28
203.322
203.365
203.407
203.45
203.492
203.534
203.576
203.618
203.661
203.703
203.746
203.788
203.831
203.873
203.915
203.958
204.001
204.044
204.086
204.129
204.171
204.214
204.256
204.299
204.342
204.385
204.428
204.471
204.513
204.556
204.598
204.641
204.685
204.728
204.771
204.813
204.856
204.898
204.941
204.984
205.028
205.071
205.113
205.156
205.198
205.242
205.285
205.328
205.372
205.414
205.458
205.499
205.543
205.586
205.63
205.673
205.716
205.76
205.801
205.846
205.888
205.933
205.975
206.019
206.062
206.104
206.149
206.19
206.237
206.278
206.323
206.365
206.408
206.453
206.494
206.541
206.581
206.629
206.668
206.715
206.756
206.8
206.844
206.886
206.933
206.973
207.02
207.06
207.106
207.149
207.192
207.238
207.279
207.326
207.366
207.412
207.455
207.499
207.544
207.587
207.632
207.673
207.72
207.761
207.807
207.85
207.895
207.939
207.982
208.027
208.068
208.116
208.157
208.205
208.246
208.292
208.335
208.378
208.424
208.466
208.514
208.554
208.603
208.642
208.691
208.731
208.778
208.822
208.866
208.912
208.954
209
209.043
209.088
209.134
209.176
209.224
209.265
209.313
209.354
209.401
209.445
209.489
209.536
209.578
209.625
209.668
209.713
209.759
209.802
209.85
209.892
209.939
209.982
210.028
210.073
210.117
210.165
210.207
210.256
210.298
210.345
210.391
210.434
210.482
210.526
210.573
210.619
210.663
210.711
210.755
210.802
210.848
210.894
210.94
210.987
211.033
211.079
211.127
211.172
211.22
211.267
211.315
211.361
211.409
211.456
211.503
211.552
211.598
211.648
211.695
211.744
211.792
211.841
211.89
211.938
211.989
212.037
212.086
212.138
212.186
212.237
212.289
212.338
212.389
212.442
212.491
212.543
212.597
212.648
212.7
212.754
212.807
212.859
212.914
212.968
213.021
213.077
213.133
213.187
213.243
213.3
213.355
213.412
213.47
213.527
213.584
213.643
213.702
213.76
213.82
213.88
213.939
214
214.061
214.121
214.183
214.246
214.307
214.37
214.434
214.496
214.56
214.625
214.688
214.754
214.818
214.884
214.949
215.016
215.08
215.149
215.213
215.283
215.346
215.418
215.48
215.555
215.614
215.691
215.75
215.828
215.885
215.967
216.021
216.104
216.157
216.243
216.293
216.381
216.43
216.518
216.566
216.654
216.702
216.791
216.837
216.926
216.973
217.06
217.107
217.195
217.241
217.327
217.374
217.459
217.504
217.59
217.635
217.719
217.764
217.848
217.892
217.974
218.018
218.1
218.142
218.224
218.266
218.347
218.388
218.468
218.509
218.588
218.628
218.706
218.746
218.823
218.862
218.939
218.978
219.053
219.091
219.166
219.204
219.278
219.315
219.389
219.425
219.499
219.535
219.607
219.643
219.715
219.75
219.821
219.857
219.927
219.962
220.032
220.067
220.136
220.17
220.239
220.274
220.342
220.376
220.444
220.478
220.546
220.579
220.647
220.68
220.748
220.781
220.848
220.881
220.947
220.981
221.047
221.08
221.146
221.179
221.245
221.278
221.344
221.377
221.443
221.475
221.541
221.574
221.64
221.673
221.739
221.772
221.839
221.873
221.94
221.974
222.041
222.076
222.145
222.18
222.251
222.287
222.359
222.396
222.47
222.509
222.586
222.625
222.705
222.746
222.829
222.872
222.958
223.003
223.093
223.139
223.232
223.279
223.375
223.424
223.523
223.573
223.673
223.724
223.826
223.878
223.98
224.033
224.134
224.188
224.289
224.342
224.442
224.495
224.594
224.646
224.744
224.795
224.891
224.941
225.036
225.085
225.179
225.228
225.32
225.367
225.459
225.505
225.595
225.64
225.729
225.774
225.862
225.906
225.992
226.036
226.121
226.164
226.249
226.291
226.375
226.416
226.499
226.54
226.622
226.663
226.744
226.784
226.869
226.898
227.01
)
;

boundaryField
{
    sides
    {
        type            zeroGradient;
    }
    empty
    {
        type            empty;
    }
}


// ************************************************************************* //
