/*--------------------------------*- C++ -*----------------------------------*\
  =========                 |
  \\      /  F ield         | OpenFOAM: The Open Source CFD Toolbox
   \\    /   O peration     | Website:  https://openfoam.org
    \\  /    A nd           | Version:  9
     \\/     M anipulation  |
\*---------------------------------------------------------------------------*/
FoamFile
{
    format      ascii;
    class       volScalarField;
    location    "0.034";
    object      mag(U);
}
// * * * * * * * * * * * * * * * * * * * * * * * * * * * * * * * * * * * * * //

dimensions      [0 1 -1 0 0 0 0];

internalField   nonuniform List<scalar> 
10000
(
194.796
194.835
194.857
194.882
194.906
194.93
194.954
194.978
195.002
195.027
195.051
195.075
195.099
195.123
195.148
195.172
195.196
195.22
195.244
195.268
195.292
195.316
195.34
195.364
195.389
195.413
195.437
195.461
195.485
195.509
195.533
195.558
195.582
195.606
195.63
195.654
195.678
195.702
195.726
195.75
195.774
195.799
195.823
195.847
195.871
195.895
195.919
195.943
195.968
195.992
196.016
196.04
196.064
196.088
196.112
196.137
196.161
196.185
196.209
196.233
196.257
196.281
196.306
196.33
196.354
196.378
196.402
196.426
196.45
196.474
196.498
196.523
196.547
196.571
196.595
196.619
196.643
196.667
196.691
196.715
196.739
196.764
196.788
196.812
196.836
196.86
196.884
196.908
196.932
196.956
196.981
197.005
197.029
197.053
197.077
197.101
197.126
197.15
197.174
197.198
197.222
197.246
197.271
197.295
197.319
197.344
197.368
197.391
197.415
197.439
197.463
197.488
197.513
197.537
197.561
197.584
197.608
197.632
197.656
197.681
197.706
197.73
197.754
197.778
197.802
197.826
197.85
197.875
197.899
197.923
197.947
197.972
197.996
198.02
198.043
198.067
198.091
198.116
198.14
198.165
198.189
198.212
198.235
198.259
198.283
198.309
198.334
198.359
198.382
198.405
198.428
198.452
198.477
198.503
198.528
198.551
198.574
198.597
198.62
198.646
198.672
198.697
198.72
198.743
198.765
198.79
198.816
198.842
198.866
198.888
198.91
198.933
198.959
198.988
199.014
199.036
199.057
199.078
199.1
199.126
199.156
199.182
199.205
199.225
199.247
199.27
199.299
199.328
199.351
199.371
199.392
199.412
199.436
199.468
199.5
199.523
199.543
199.562
199.582
199.603
199.63
199.665
199.693
199.713
199.732
199.752
199.775
199.807
199.839
199.861
199.879
199.897
199.916
199.939
199.974
200.011
200.033
200.051
200.068
200.086
200.105
200.126
200.16
200.201
200.226
200.244
200.262
200.281
200.301
200.326
200.356
200.383
200.406
200.43
200.461
200.495
200.517
200.535
200.553
200.571
200.589
200.609
200.64
200.684
200.715
200.733
200.749
200.765
200.783
200.802
200.826
200.867
200.908
200.929
200.946
200.961
200.98
200.999
201.026
201.065
201.096
201.115
201.132
201.15
201.169
201.194
201.232
201.266
201.285
201.302
201.319
201.337
201.357
201.388
201.43
201.459
201.477
201.492
201.509
201.527
201.547
201.581
201.626
201.654
201.671
201.685
201.7
201.719
201.737
201.768
201.816
201.854
201.873
201.887
201.9
201.917
201.936
201.96
201.999
202.039
202.06
202.078
202.095
202.114
202.138
202.172
202.202
202.221
202.239
202.258
202.277
202.304
202.344
202.375
202.394
202.411
202.428
202.447
202.468
202.502
202.543
202.568
202.585
202.599
202.615
202.633
202.652
202.684
202.733
202.769
202.788
202.801
202.812
202.829
202.847
202.868
202.906
202.958
202.992
203.01
203.022
203.033
203.05
203.068
203.089
203.124
203.169
203.197
203.214
203.229
203.245
203.264
203.284
203.32
203.371
203.405
203.423
203.436
203.449
203.466
203.485
203.508
203.543
203.581
203.604
203.621
203.638
203.657
203.676
203.702
203.74
203.772
203.792
203.808
203.823
203.841
203.86
203.882
203.922
203.978
204.014
204.032
204.045
204.055
204.071
204.09
204.109
204.135
204.174
204.211
204.232
204.249
204.265
204.283
204.303
204.33
204.371
204.403
204.422
204.438
204.455
204.474
204.494
204.527
204.568
204.595
204.613
204.63
204.648
204.667
204.692
204.729
204.763
204.783
204.801
204.818
204.837
204.856
204.888
204.932
204.961
204.979
204.996
205.014
205.034
205.059
205.093
205.12
205.139
205.157
205.176
205.197
205.229
205.269
205.293
205.311
205.329
205.347
205.366
205.391
205.428
205.462
205.483
205.5
205.516
205.534
205.553
205.58
205.623
205.66
205.68
205.695
205.707
205.723
205.742
205.764
205.805
205.857
205.886
205.903
205.914
205.925
205.942
205.961
205.988
206.036
206.082
206.104
206.119
206.127
206.14
206.158
206.177
206.207
206.257
206.298
206.319
206.333
206.345
206.362
206.381
206.405
206.442
206.478
206.499
206.516
206.533
206.551
206.57
206.598
206.639
206.672
206.692
206.708
206.725
206.744
206.765
206.796
206.834
206.859
206.877
206.892
206.908
206.927
206.946
206.976
207.026
207.067
207.088
207.102
207.111
207.127
207.145
207.168
207.209
207.263
207.295
207.313
207.323
207.326
207.34
207.359
207.379
207.411
207.464
207.507
207.527
207.542
207.553
207.569
207.587
207.609
207.643
207.685
207.711
207.729
207.746
207.765
207.786
207.813
207.844
207.866
207.884
207.903
207.921
207.941
207.966
208.01
208.058
208.082
208.098
208.112
208.129
208.147
208.169
208.198
208.227
208.247
208.266
208.285
208.306
208.337
208.375
208.4
208.419
208.433
208.447
208.464
208.483
208.507
208.551
208.614
208.658
208.679
208.693
208.694
208.694
208.709
208.728
208.747
208.773
208.821
208.88
208.913
208.931
208.943
208.947
208.96
208.979
208.998
209.027
209.074
209.112
209.131
209.146
209.155
209.171
209.19
209.212
209.254
209.315
209.357
209.377
209.391
209.391
209.394
209.41
209.429
209.448
209.479
209.533
209.584
209.61
209.626
209.637
209.65
209.669
209.688
209.714
209.748
209.777
209.797
209.815
209.834
209.853
209.877
209.914
209.951
209.973
209.99
210.008
210.026
210.045
210.071
210.113
210.15
210.171
210.187
210.2
210.215
210.234
210.253
210.278
210.323
210.372
210.398
210.416
210.426
210.436
210.453
210.472
210.491
210.511
210.539
210.587
210.637
210.663
210.68
210.69
210.699
210.717
210.736
210.761
210.806
210.857
210.885
210.901
210.909
210.912
210.927
210.945
210.966
211.004
211.068
211.123
211.15
211.166
211.172
211.165
211.172
211.189
211.208
211.228
211.26
211.315
211.368
211.395
211.412
211.421
211.427
211.443
211.462
211.482
211.517
211.571
211.614
211.635
211.65
211.661
211.677
211.696
211.716
211.739
211.765
211.785
211.804
211.823
211.843
211.868
211.913
211.962
211.987
212.003
212.014
212.026
212.044
212.064
212.091
212.137
212.184
212.207
212.224
212.235
212.25
212.269
212.289
212.319
212.361
212.392
212.411
212.428
212.446
212.465
212.487
212.519
212.556
212.58
212.599
212.614
212.626
212.642
212.661
212.681
212.702
212.738
212.796
212.845
212.869
212.886
212.895
212.905
212.923
212.942
212.963
212.995
213.034
213.058
213.077
213.096
213.115
213.135
213.16
213.188
213.21
213.229
213.248
213.267
213.286
213.307
213.345
213.407
213.457
213.48
213.496
213.501
213.497
213.509
213.527
213.547
213.572
213.619
213.682
213.721
213.741
213.754
213.753
213.752
213.767
213.786
213.806
213.829
213.871
213.937
213.986
214.009
214.025
214.031
214.03
214.044
214.062
214.082
214.107
214.152
214.206
214.236
214.254
214.266
214.272
214.287
214.306
214.326
214.357
214.407
214.445
214.465
214.48
214.49
214.506
214.525
214.545
214.579
214.629
214.663
214.682
214.696
214.707
214.724
214.743
214.766
214.802
214.845
214.87
214.888
214.903
214.918
214.937
214.957
214.99
215.042
215.087
215.109
215.125
215.133
215.145
215.163
215.183
215.207
215.243
215.279
215.301
215.319
215.335
215.354
215.373
215.395
215.433
215.483
215.514
215.532
215.543
215.545
215.557
215.576
215.595
215.621
215.669
215.73
215.765
215.785
215.797
215.798
215.803
215.82
215.84
215.86
215.891
215.942
215.989
216.012
216.028
216.039
216.052
216.07
216.09
216.119
216.171
216.223
216.25
216.267
216.275
216.272
216.282
216.3
216.32
216.342
216.382
216.438
216.475
216.495
216.509
216.518
216.534
216.553
216.573
216.608
216.663
216.706
216.727
216.742
216.746
216.752
216.768
216.788
216.808
216.842
216.894
216.934
216.955
216.971
216.981
216.996
217.015
217.035
217.062
217.1
217.131
217.151
217.17
217.188
217.207
217.227
217.256
217.304
217.348
217.37
217.385
217.391
217.398
217.415
217.435
217.456
217.494
217.55
217.59
217.611
217.625
217.631
217.642
217.66
217.68
217.704
217.747
217.8
217.831
217.849
217.861
217.866
217.88
217.899
217.919
217.949
218
218.047
218.071
218.087
218.095
218.101
218.118
218.137
218.158
218.192
218.245
218.287
218.308
218.323
218.332
218.345
218.364
218.384
218.411
218.457
218.501
218.524
218.541
218.548
218.556
218.574
218.593
218.615
218.655
218.713
218.754
218.774
218.789
218.791
218.792
218.808
218.827
218.847
218.877
218.931
218.991
219.023
219.041
219.054
219.057
219.068
219.086
219.106
219.129
219.17
219.225
219.26
219.279
219.293
219.295
219.3
219.317
219.337
219.356
219.377
219.408
219.463
219.52
219.549
219.567
219.579
219.58
219.59
219.608
219.628
219.649
219.682
219.736
219.783
219.807
219.824
219.835
219.849
219.868
219.888
219.914
219.95
219.981
220.001
220.019
220.033
220.048
220.067
220.087
220.113
220.161
220.216
220.247
220.265
220.276
220.276
220.285
220.304
220.323
220.346
220.385
220.444
220.487
220.509
220.525
220.532
220.539
220.557
220.576
220.597
220.628
220.678
220.717
220.737
220.753
220.766
220.782
220.802
220.823
220.854
220.897
220.927
220.947
220.964
220.979
220.998
221.018
221.04
221.075
221.115
221.139
221.158
221.175
221.192
221.212
221.231
221.258
221.303
221.346
221.369
221.386
221.399
221.415
221.434
221.455
221.481
221.521
221.554
221.575
221.593
221.612
221.631
221.651
221.674
221.702
221.726
221.747
221.766
221.786
221.806
221.832
221.877
221.923
221.946
221.964
221.974
221.977
221.991
222.01
222.03
222.05
222.071
222.105
222.166
222.231
222.263
222.283
222.296
222.294
222.29
222.305
222.324
222.344
222.367
222.408
222.471
222.518
222.541
222.558
222.566
222.565
222.577
222.596
222.616
222.638
222.676
222.73
222.767
222.787
222.803
222.812
222.826
222.846
222.866
222.891
222.935
222.983
223.009
223.027
223.041
223.057
223.077
223.097
223.124
223.157
223.184
223.204
223.222
223.24
223.259
223.279
223.3
223.333
223.386
223.427
223.449
223.465
223.474
223.485
223.503
223.523
223.545
223.582
223.629
223.658
223.677
223.689
223.693
223.705
223.724
223.744
223.769
223.813
223.877
223.92
223.942
223.958
223.966
223.971
223.988
224.008
224.028
224.051
224.079
224.105
224.125
224.145
224.165
224.185
224.205
224.236
224.289
224.345
224.374
224.393
224.406
224.412
224.425
224.444
224.464
224.484
224.505
224.529
224.556
224.58
224.603
224.626
224.662
224.715
224.756
224.777
224.794
224.801
224.803
224.819
224.838
224.858
224.883
224.928
224.985
225.018
225.037
225.052
225.058
225.071
225.09
225.11
225.133
225.174
225.228
225.261
225.28
225.294
225.294
225.295
225.311
225.331
225.351
225.372
225.405
225.462
225.526
225.559
225.578
225.593
225.596
225.602
225.619
225.639
225.659
225.687
225.736
225.795
225.827
225.847
225.861
225.867
225.879
225.898
225.918
225.939
225.962
225.985
226.006
226.026
226.045
226.063
226.081
226.101
226.121
226.142
226.175
226.234
226.298
226.331
226.351
226.366
226.368
226.37
226.386
226.406
226.426
226.449
226.487
226.542
226.58
226.601
226.617
226.63
226.646
226.666
226.686
226.711
226.742
226.771
226.792
226.812
226.832
226.852
226.872
226.902
226.95
226.995
227.019
227.037
227.049
227.062
227.08
227.1
227.122
227.146
227.171
227.192
227.212
227.231
227.249
227.268
227.288
227.308
227.332
227.374
227.441
227.491
227.516
227.534
227.544
227.537
227.537
227.554
227.574
227.594
227.614
227.635
227.658
227.7
227.774
227.841
227.872
227.892
227.906
227.907
227.897
227.907
227.926
227.946
227.966
227.987
228.007
228.027
228.048
228.075
228.123
228.194
228.24
228.263
228.281
228.29
228.291
228.304
228.323
228.343
228.364
228.391
228.429
228.463
228.485
228.504
228.523
228.543
228.563
228.585
228.61
228.639
228.662
228.682
228.702
228.723
228.746
228.786
228.835
228.862
228.881
228.896
228.905
228.922
228.942
228.962
228.988
229.033
229.083
229.11
229.129
229.142
229.149
229.165
229.185
229.205
229.227
229.262
229.308
229.337
229.357
229.376
229.396
229.416
229.439
229.463
229.485
229.505
229.524
229.543
229.563
229.583
229.605
229.636
229.689
229.74
229.766
229.784
229.796
229.797
229.807
229.826
229.846
229.868
229.9
229.954
230.007
230.034
230.053
230.066
230.074
230.089
230.109
230.13
230.151
230.178
230.205
230.226
230.247
230.267
230.287
230.309
230.342
230.394
230.432
230.454
230.471
230.487
230.505
230.526
230.548
230.577
230.61
230.634
230.654
230.671
230.679
230.683
230.698
230.718
230.738
230.761
230.797
230.861
230.93
230.964
230.985
231
231.004
230.997
231.009
231.028
231.048
231.069
231.095
231.141
231.204
231.243
231.265
231.282
231.293
231.305
231.323
231.343
231.364
231.384
231.404
231.425
231.445
231.465
231.485
231.505
231.526
231.554
231.603
231.66
231.691
231.711
231.726
231.731
231.741
231.759
231.779
231.801
231.832
231.888
231.945
231.975
231.995
232.009
232.01
232.01
232.026
232.045
232.066
232.086
232.106
232.127
232.148
232.176
232.225
232.283
232.315
232.335
232.351
232.357
232.364
232.382
232.402
232.422
232.444
232.475
232.527
232.58
232.607
232.626
232.64
232.646
232.66
232.679
232.7
232.722
232.759
232.817
232.859
232.881
232.899
232.907
232.901
232.91
232.928
232.949
232.97
232.994
233.037
233.098
233.138
233.159
233.177
233.184
233.175
233.182
233.2
233.221
233.241
233.265
233.304
233.374
233.436
233.466
233.486
233.5
233.501
233.495
233.508
233.527
233.548
233.569
233.596
233.644
233.711
233.751
233.773
233.791
233.802
233.812
233.83
233.85
233.871
233.893
233.919
233.945
233.966
233.987
234.007
234.028
234.052
234.086
234.125
234.15
234.171
234.188
234.2
234.213
234.232
234.252
234.273
234.303
234.353
234.408
234.437
234.456
234.471
234.473
234.479
234.496
234.517
234.538
234.564
234.609
234.669
234.706
234.727
234.743
234.751
234.754
234.77
234.79
234.81
234.833
234.867
234.921
234.963
234.985
235.004
235.017
235.029
235.048
235.069
235.09
235.118
235.157
235.191
235.213
235.232
235.249
235.261
235.278
235.298
235.319
235.339
235.36
235.381
235.402
235.434
235.488
235.544
235.573
235.593
235.608
235.614
235.625
235.643
235.664
235.685
235.71
235.754
235.807
235.837
235.857
235.873
235.884
235.898
235.918
235.938
235.959
235.981
236.003
236.024
236.044
236.065
236.086
236.107
236.129
236.164
236.226
236.287
236.318
236.338
236.354
236.357
236.347
236.357
236.376
236.397
236.417
236.439
236.471
236.523
236.567
236.59
236.609
236.621
236.625
236.639
236.659
236.679
236.701
236.731
236.784
236.84
236.87
236.89
236.906
236.908
236.906
236.922
236.942
236.963
236.987
237.026
237.095
237.157
237.186
237.206
237.221
237.222
237.206
237.214
237.233
237.254
237.275
237.299
237.339
237.405
237.459
237.485
237.504
237.518
237.52
237.527
237.545
237.565
237.586
237.61
237.648
237.704
237.742
237.763
237.781
237.79
237.784
237.792
237.811
237.831
237.852
237.873
237.902
237.952
238.021
238.061
238.083
238.102
238.112
238.11
238.119
238.138
238.158
238.179
238.202
238.239
238.299
238.346
238.371
238.39
238.404
238.405
238.413
238.431
238.452
238.472
238.493
238.514
238.535
238.558
238.594
238.656
238.716
238.746
238.767
238.783
238.79
238.789
238.804
238.824
238.844
238.865
238.886
238.907
238.927
238.948
238.969
238.992
239.027
239.083
239.131
239.155
239.175
239.189
239.194
239.206
239.225
239.246
239.267
239.293
239.335
239.386
239.415
239.435
239.452
239.46
239.473
239.493
239.514
239.535
239.564
239.612
239.665
239.693
239.713
239.73
239.738
239.749
239.768
239.789
239.81
239.83
239.851
239.872
239.895
239.926
239.973
240.01
240.032
240.052
240.069
240.087
240.108
240.128
240.15
240.172
240.202
240.236
240.261
240.282
240.302
240.322
240.342
240.363
240.384
240.406
240.439
240.491
240.534
240.557
240.577
240.59
240.591
240.599
240.617
240.638
240.659
240.68
240.701
240.723
240.753
240.806
240.868
240.901
240.922
240.94
240.951
240.961
240.98
241.001
241.022
241.046
241.077
241.106
241.129
241.149
241.169
241.187
241.206
241.226
241.247
241.269
241.301
241.351
241.392
241.415
241.434
241.447
241.455
241.471
241.491
241.512
241.534
241.566
241.617
241.66
241.684
241.703
241.718
241.731
241.75
241.771
241.792
241.819
241.86
241.901
241.925
241.945
241.961
241.963
241.964
241.981
242.001
242.022
242.043
242.064
242.086
242.115
242.166
242.239
242.282
242.305
242.324
242.337
242.334
242.333
242.35
242.37
242.391
242.413
242.44
242.486
242.547
242.582
242.603
242.622
242.632
242.638
242.654
242.674
242.696
242.718
242.749
242.8
242.85
242.875
242.896
242.911
242.914
242.916
242.932
242.953
242.974
242.995
243.016
243.038
243.065
243.111
243.168
243.201
243.222
243.24
243.25
243.257
243.275
243.295
243.316
243.338
243.37
243.421
243.464
243.487
243.507
243.521
243.527
243.541
243.561
243.582
243.603
243.63
243.675
243.726
243.754
243.775
243.792
243.804
243.82
243.841
243.862
243.884
243.916
243.966
244.006
244.028
244.047
244.059
244.054
244.053
244.07
244.091
244.112
244.133
244.154
244.176
244.204
244.251
244.331
244.385
244.412
244.432
244.449
244.453
244.44
244.448
244.466
244.487
244.509
244.53
244.558
244.606
244.666
244.7
244.721
244.74
244.752
244.758
244.774
244.795
244.816
244.838
244.866
244.915
244.977
245.012
245.034
245.053
245.064
245.056
245.053
245.07
245.09
245.111
245.132
245.153
245.174
245.196
245.217
245.241
245.276
245.34
245.409
245.443
245.464
245.483
245.494
245.49
245.497
245.515
245.536
245.558
245.58
245.609
245.652
245.686
245.708
245.728
245.743
245.749
245.76
245.78
245.801
245.823
245.851
245.901
245.984
246.039
246.065
246.085
246.102
246.106
246.088
246.089
246.106
246.127
246.148
246.169
246.19
246.212
246.233
246.254
246.276
246.305
246.354
246.422
246.463
246.486
246.505
246.52
246.521
246.528
246.547
246.568
246.589
246.611
246.642
246.694
246.749
246.777
246.798
246.816
246.824
246.821
246.833
246.853
246.874
246.895
246.916
246.938
246.96
246.99
247.042
247.108
247.145
247.167
247.186
247.199
247.196
247.197
247.215
247.236
247.257
247.279
247.306
247.351
247.414
247.453
247.475
247.495
247.51
247.517
247.533
247.554
247.575
247.596
247.618
247.639
247.661
247.682
247.702
247.72
247.74
247.761
247.783
247.805
247.833
247.882
247.954
247.997
248.021
248.041
248.055
248.053
248.034
248.041
248.06
248.081
248.103
248.124
248.147
248.18
248.238
248.317
248.359
248.382
248.402
248.418
248.419
248.412
248.425
248.445
248.467
248.488
248.511
248.544
248.597
248.641
248.665
248.686
248.702
248.706
248.712
248.73
248.751
248.773
248.795
248.829
248.884
248.936
248.962
248.983
249
249.008
249.012
249.029
249.049
249.071
249.093
249.122
249.172
249.227
249.257
249.278
249.297
249.307
249.31
249.326
249.346
249.368
249.39
249.416
249.459
249.508
249.536
249.557
249.575
249.582
249.573
249.578
249.597
249.618
249.64
249.661
249.683
249.71
249.756
249.833
249.891
249.919
249.94
249.959
249.968
249.96
249.963
249.981
250.003
250.024
250.046
250.07
250.108
250.166
250.208
250.231
250.252
250.268
250.277
250.291
250.312
250.333
250.355
250.379
250.416
250.47
250.506
250.528
250.548
250.563
250.567
250.577
250.596
250.618
250.639
250.66
250.682
250.705
250.734
250.782
250.832
250.859
250.88
250.898
250.906
250.899
250.908
250.928
250.949
250.971
250.994
251.031
251.096
251.166
251.2
251.222
251.241
251.254
251.248
251.239
251.254
251.275
251.296
251.318
251.341
251.376
251.437
251.499
251.53
251.552
251.571
251.585
251.585
251.593
251.613
251.634
251.655
251.677
251.698
251.719
251.741
251.763
251.785
251.813
251.859
251.909
251.936
251.958
251.977
251.994
252.012
252.033
252.055
252.076
252.098
252.121
252.146
252.172
252.195
252.216
252.238
252.259
252.281
252.302
252.325
252.353
252.398
252.447
252.474
252.496
252.516
252.532
252.548
252.568
252.589
252.611
252.632
252.653
252.673
252.69
252.702
252.721
252.742
252.763
252.785
252.807
252.832
252.873
252.939
252.989
253.015
253.036
253.054
253.063
253.06
253.071
253.091
253.113
253.135
253.157
253.187
253.235
253.288
253.316
253.337
253.356
253.37
253.382
253.401
253.423
253.444
253.467
253.499
253.546
253.583
253.606
253.626
253.642
253.646
253.64
253.654
253.675
253.696
253.718
253.74
253.762
253.786
253.821
253.885
253.954
253.989
254.011
254.031
254.047
254.048
254.042
254.056
254.077
254.098
254.12
254.142
254.167
254.206
254.252
254.279
254.301
254.321
254.339
254.358
254.379
254.401
254.423
254.45
254.488
254.526
254.55
254.571
254.591
254.608
254.625
254.646
254.667
254.689
254.714
254.751
254.792
254.818
254.839
254.86
254.876
254.888
254.907
254.928
254.95
254.973
255.001
255.045
255.088
255.112
255.134
255.153
255.171
255.192
255.213
255.235
255.258
255.285
255.31
255.332
255.354
255.375
255.393
255.404
255.419
255.44
255.462
255.484
255.506
255.537
255.589
255.657
255.695
255.717
255.738
255.755
255.762
255.767
255.785
255.807
255.828
255.85
255.873
255.897
255.921
255.943
255.965
255.987
256.008
256.028
256.048
256.069
256.091
256.113
256.135
256.158
256.189
256.242
256.31
256.346
256.368
256.389
256.408
256.417
256.424
256.442
256.463
256.485
256.506
256.528
256.549
256.569
256.586
256.601
256.621
256.643
256.664
256.686
256.708
256.731
256.762
256.813
256.88
256.916
256.939
256.96
256.976
256.978
256.961
256.968
256.987
257.009
257.03
257.053
257.082
257.132
257.21
257.26
257.285
257.307
257.325
257.336
257.326
257.324
257.341
257.362
257.384
257.406
257.43
257.462
257.516
257.57
257.599
257.62
257.64
257.656
257.666
257.684
257.706
257.727
257.75
257.775
257.814
257.862
257.89
257.912
257.932
257.947
257.948
257.952
257.97
257.991
258.013
258.035
258.057
258.081
258.117
258.178
258.233
258.261
258.283
258.303
258.317
258.317
258.318
258.335
258.356
258.378
258.4
258.423
258.45
258.492
258.543
258.571
258.593
258.614
258.634
258.655
258.677
258.699
258.721
258.749
258.781
258.808
258.83
258.852
258.874
258.896
258.916
258.936
258.957
258.979
259
259.021
259.041
259.059
259.08
259.102
259.124
259.146
259.168
259.194
259.236
259.303
259.353
259.379
259.401
259.42
259.433
259.427
259.424
259.44
259.462
259.484
259.505
259.528
259.554
259.594
259.649
259.682
259.704
259.726
259.744
259.759
259.777
259.799
259.821
259.843
259.865
259.888
259.914
259.939
259.961
259.983
260.005
260.028
260.052
260.086
260.129
260.158
260.181
260.202
260.224
260.246
260.268
260.29
260.313
260.342
260.374
260.399
260.421
260.443
260.463
260.479
260.485
260.498
260.519
260.541
260.563
260.585
260.612
260.656
260.713
260.747
260.77
260.791
260.809
260.817
260.824
260.842
260.864
260.886
260.908
260.933
260.971
261.021
261.053
261.075
261.096
261.114
261.123
261.137
261.157
261.179
261.201
261.225
261.258
261.314
261.37
261.398
261.42
261.441
261.457
261.458
261.452
261.466
261.487
261.509
261.531
261.553
261.575
261.597
261.62
261.644
261.681
261.74
261.788
261.814
261.836
261.856
261.871
261.874
261.882
261.902
261.924
261.946
261.968
261.993
262.031
262.082
262.115
262.137
262.158
262.177
262.187
262.198
262.218
262.24
262.262
262.284
262.311
262.352
262.402
262.432
262.454
262.475
262.494
262.513
262.534
262.556
262.578
262.601
262.628
262.653
262.676
262.698
262.719
262.739
262.75
262.758
262.776
262.797
262.819
262.842
262.866
262.898
262.955
263.014
263.045
263.067
263.089
263.107
263.114
263.117
263.134
263.156
263.178
263.2
263.223
263.251
263.294
263.341
263.368
263.39
263.411
263.43
263.448
263.468
263.49
263.513
263.535
263.56
263.59
263.617
263.64
263.663
263.685
263.707
263.729
263.749
263.767
263.78
263.798
263.82
263.842
263.864
263.886
263.909
263.931
263.955
263.988
264.044
264.097
264.125
264.147
264.168
264.186
264.195
264.202
264.221
264.243
264.265
264.287
264.311
264.338
264.38
264.421
264.446
264.468
264.491
264.513
264.534
264.556
264.575
264.588
264.598
264.616
264.638
264.66
264.682
264.704
264.726
264.749
264.771
264.795
264.827
264.879
264.929
264.957
264.979
265.001
265.019
265.034
265.053
265.075
265.098
265.12
265.145
265.178
265.213
265.237
265.259
265.281
265.301
265.313
265.316
265.331
265.352
265.374
265.396
265.419
265.444
265.481
265.545
265.605
265.635
265.657
265.679
265.698
265.709
265.702
265.705
265.723
265.745
265.767
265.789
265.812
265.834
265.856
265.878
265.901
265.923
265.947
265.981
266.037
266.09
266.118
266.14
266.162
266.18
266.189
266.193
266.21
266.232
266.254
266.277
266.3
266.329
266.375
266.422
266.448
266.471
266.492
266.511
266.525
266.543
266.564
266.587
266.609
266.631
266.653
266.676
266.698
266.72
266.74
266.76
266.781
266.803
266.825
266.848
266.872
266.906
266.965
267.032
267.067
267.09
267.112
267.131
267.144
267.134
267.115
267.126
267.146
267.168
267.191
267.213
267.235
267.258
267.28
267.302
267.326
267.353
267.396
267.473
267.539
267.57
267.593
267.615
267.635
267.65
267.647
267.635
267.647
267.668
267.69
267.712
267.734
267.757
267.779
267.801
267.823
267.846
267.868
267.892
267.919
267.962
268.028
268.072
268.097
268.119
268.14
268.158
268.163
268.162
268.178
268.199
268.221
268.244
268.267
268.293
268.332
268.383
268.415
268.438
268.46
268.481
268.498
268.514
268.535
268.557
268.579
268.602
268.625
268.651
268.679
268.703
268.726
268.748
268.771
268.793
268.816
268.841
268.872
268.905
268.93
268.953
268.975
268.997
269.02
269.042
269.065
269.088
269.112
269.141
269.169
269.193
269.215
269.238
269.26
269.283
269.305
269.327
269.35
269.372
269.393
269.413
269.43
269.45
269.471
269.494
269.516
269.539
269.561
269.585
269.613
269.659
269.719
269.753
269.777
269.799
269.821
269.84
269.852
269.865
269.886
269.908
269.93
269.952
269.974
269.996
270.015
270.031
270.05
270.072
270.094
270.117
270.14
270.163
270.189
270.228
270.284
270.319
270.342
270.364
270.386
270.403
270.411
270.426
270.447
270.469
270.492
270.515
270.54
270.577
270.619
270.647
270.669
270.692
270.714
270.734
270.755
270.778
270.8
270.823
270.846
270.869
270.892
270.914
270.937
270.958
270.976
270.99
271.009
271.031
271.054
271.076
271.1
271.13
271.178
271.228
271.256
271.279
271.301
271.321
271.335
271.345
271.363
271.385
271.408
271.431
271.454
271.484
271.531
271.586
271.616
271.638
271.661
271.682
271.697
271.697
271.688
271.702
271.723
271.745
271.767
271.79
271.812
271.835
271.858
271.88
271.905
271.936
271.987
272.05
272.084
272.107
272.129
272.151
272.169
272.178
272.193
272.214
272.236
272.259
272.282
272.309
272.345
272.384
272.41
272.433
272.455
272.476
272.49
272.488
272.49
272.508
272.53
272.553
272.575
272.598
272.623
272.655
272.71
272.768
272.798
272.821
272.843
272.864
272.881
272.891
272.907
272.929
272.952
272.974
272.998
273.025
273.067
273.115
273.143
273.166
273.188
273.208
273.223
273.22
273.219
273.236
273.258
273.281
273.303
273.326
273.349
273.373
273.402
273.449
273.509
273.542
273.566
273.588
273.61
273.628
273.639
273.651
273.672
273.694
273.717
273.74
273.764
273.793
273.833
273.863
273.887
273.909
273.932
273.954
273.977
273.999
274.022
274.045
274.07
274.098
274.127
274.151
274.174
274.196
274.218
274.237
274.249
274.26
274.281
274.303
274.325
274.348
274.372
274.398
274.437
274.491
274.526
274.549
274.572
274.594
274.612
274.62
274.62
274.636
274.657
274.68
274.703
274.726
274.751
274.788
274.844
274.884
274.909
274.931
274.953
274.974
274.989
275.006
275.028
275.051
275.074
275.097
275.123
275.161
275.204
275.232
275.255
275.277
275.299
275.316
275.322
275.317
275.331
275.352
275.375
275.398
275.42
275.443
275.466
275.488
275.512
275.536
275.568
275.623
275.681
275.712
275.735
275.758
275.78
275.799
275.807
275.812
275.83
275.852
275.875
275.897
275.921
275.946
275.981
276.029
276.061
276.084
276.107
276.13
276.151
276.17
276.184
276.202
276.224
276.246
276.269
276.292
276.315
276.337
276.36
276.383
276.406
276.43
276.458
276.499
276.535
276.56
276.583
276.606
276.628
276.648
276.662
276.671
276.69
276.712
276.735
276.758
276.78
276.804
276.828
276.857
276.901
276.94
276.965
276.988
277.011
277.033
277.052
277.07
277.09
277.113
277.136
277.159
277.183
277.21
277.25
277.291
277.317
277.34
277.363
277.386
277.408
277.431
277.454
277.476
277.496
277.508
277.502
277.506
277.525
277.547
277.57
277.593
277.616
277.639
277.663
277.691
277.735
277.809
277.859
277.886
277.909
277.932
277.954
277.971
277.974
277.972
277.988
278.01
278.033
278.056
278.08
278.105
278.14
278.185
278.215
278.239
278.262
278.284
278.305
278.323
278.342
278.364
278.387
278.41
278.433
278.458
278.488
278.519
278.544
278.567
278.59
278.613
278.636
278.659
278.682
278.707
278.736
278.777
278.81
278.834
278.857
278.88
278.902
278.92
278.927
278.918
278.928
278.948
278.971
278.994
279.017
279.04
279.063
279.087
279.114
279.155
279.218
279.263
279.289
279.312
279.335
279.356
279.374
279.381
279.39
279.411
279.433
279.456
279.479
279.503
279.532
279.572
279.611
279.637
279.66
279.683
279.706
279.727
279.749
279.772
279.795
279.818
279.841
279.867
279.893
279.916
279.939
279.962
279.984
280.004
280.016
280.024
280.043
280.066
280.089
280.112
280.135
280.162
280.199
280.253
280.288
280.312
280.335
280.357
280.379
280.395
280.408
280.427
280.45
280.473
280.496
280.52
280.547
280.581
280.61
280.634
280.657
280.68
280.703
280.724
280.745
280.768
280.791
280.814
280.838
280.864
280.897
280.93
280.955
280.978
281.001
281.024
281.046
281.064
281.076
281.093
281.115
281.138
281.161
281.184
281.207
281.23
281.254
281.278
281.308
281.35
281.385
281.41
281.433
281.456
281.479
281.499
281.515
281.532
281.553
281.576
281.599
281.623
281.647
281.676
281.718
281.753
281.778
281.801
281.824
281.847
281.87
281.893
281.916
281.939
281.961
281.982
282.005
282.027
282.049
282.069
282.08
282.087
282.106
282.128
282.151
282.174
282.198
282.222
282.251
282.296
282.351
282.382
282.406
282.429
282.451
282.473
282.489
282.497
282.514
282.536
282.559
282.582
282.606
282.631
282.664
282.715
282.76
282.786
282.81
282.833
282.856
282.879
282.901
282.922
282.935
282.93
282.931
282.949
282.971
282.994
283.017
283.041
283.064
283.087
283.11
283.135
283.164
283.209
283.264
283.295
283.319
283.342
283.365
283.387
283.405
283.416
283.432
283.454
283.477
283.5
283.523
283.548
283.576
283.614
283.646
283.67
283.694
283.717
283.74
283.763
283.786
283.809
283.833
283.856
283.881
283.906
283.93
283.953
283.976
283.999
284.022
284.043
284.06
284.073
284.094
284.117
284.14
284.163
284.186
284.209
284.233
284.258