/*--------------------------------*- C++ -*----------------------------------*\
  =========                 |
  \\      /  F ield         | OpenFOAM: The Open Source CFD Toolbox
   \\    /   O peration     | Website:  https://openfoam.org
    \\  /    A nd           | Version:  9
     \\/     M anipulation  |
\*---------------------------------------------------------------------------*/
FoamFile
{
    format      ascii;
    class       volScalarField;
    location    "0.034";
    object      p;
}
// * * * * * * * * * * * * * * * * * * * * * * * * * * * * * * * * * * * * * //

dimensions      [1 -1 -2 0 0 0 0];

internalField   nonuniform List<scalar> 
10000
(
48867.4
48859.5
48854.8
48849.6
48844.5
48839.4
48834.3
48829.3
48824.2
48819
48813.9
48808.8
48803.7
48798.6
48793.5
48788.5
48783.4
48778.3
48773.2
48768.2
48763.1
48758
48752.9
48747.8
48742.7
48737.7
48732.6
48727.5
48722.4
48717.3
48712.2
48707.2
48702.1
48697
48691.9
48686.9
48681.8
48676.7
48671.6
48666.6
48661.5
48656.4
48651.4
48646.3
48641.2
48636.1
48631
48626
48620.9
48615.8
48610.8
48605.7
48600.6
48595.5
48590.5
48585.4
48580.3
48575.2
48570.2
48565.1
48560
48555
48549.9
48544.8
48539.8
48534.7
48529.6
48524.6
48519.5
48514.5
48509.4
48504.4
48499.3
48494.2
48489.2
48484.1
48479.1
48474
48469
48463.9
48458.9
48453.8
48448.8
48443.7
48438.6
48433.6
48428.5
48423.5
48418.4
48413.4
48408.3
48403.3
48398.2
48393.1
48388.1
48383
48378
48372.9
48367.9
48362.8
48357.7
48352.6
48347.6
48342.6
48337.6
48332.6
48327.5
48322.3
48317.2
48312.1
48307.1
48302.2
48297.3
48292.3
48287.2
48282
48276.9
48271.8
48266.9
48262
48257
48252
48246.9
48241.8
48236.6
48231.6
48226.5
48221.5
48216.5
48211.5
48206.5
48201.5
48196.4
48191.4
48186.3
48181.2
48176.2
48171.3
48166.4
48161.4
48156.3
48151.2
48146
48140.8
48135.9
48131.1
48126.3
48121.4
48116.2
48110.9
48105.7
48100.6
48095.9
48091.2
48086.3
48081.1
48075.8
48070.5
48065.4
48060.6
48056
48051.1
48046
48040.6
48035.4
48030.3
48025.7
48021.1
48016
48010.6
48005.1
47999.9
47995.2
47991.1
47986.4
47980.9
47975.3
47969.7
47964.4
47959.7
47955.9
47951.3
47945.9
47940.3
47934.8
47929.7
47925.6
47921.6
47916.3
47910.5
47904.7
47899.1
47894.1
47890.5
47887.2
47881.9
47875.9
47870
47864.1
47858.7
47854.2
47851.4
47847
47841.1
47835.2
47829.4
47824.2
47820.9
47817.5
47811.8
47805.7
47799.6
47793.7
47788.5
47785.7
47783.2
47777.7
47771.4
47765.1
47759
47753
47747.6
47744.5
47742.9
47737.9
47731.7
47725.4
47719.4
47713.6
47708.7
47705.1
47700.6
47695.3
47690.3
47686.9
47683.8
47678.3
47672.1
47665.8
47659.6
47653.6
47648
47644.2
47643.4
47639.2
47633.1
47626.4
47619.9
47613.8
47607.9
47603
47601.5
47599.5
47593.8
47587.3
47580.7
47574.6
47568.9
47564.3
47562.6
47558.6
47552.5
47546.2
47540.1
47534.3
47529.4
47527.5
47524
47518
47511.6
47505.2
47499.2
47493.6
47489.8
47488.6
47484.1
47477.9
47471.2
47464.8
47458.8
47453.3
47450.1
47449.4
47444.8
47438.5
47431.5
47424.8
47418.7
47413.2
47409.1
47409.3
47406.6
47400.5
47393.6
47386.4
47380.2
47374.3
47369.3
47367.5
47365.4
47359.7
47353.4
47347.2
47341.4
47336.2
47333.3
47329.3
47323.4
47317.3
47311.3
47305.6
47301
47299.4
47295.5
47289.5
47283.1
47276.8
47270.9
47265.5
47262.5
47260.9
47255.8
47249.5
47242.6
47236
47230
47224.5
47220.7
47221
47217.8
47211.7
47204.7
47197.1
47190.7
47184.8
47179.6
47176.9
47178
47174.4
47168.2
47161
47153.4
47147.1
47141.2
47135.9
47132.8
47132.1
47127.5
47121.3
47114.5
47108.1
47102.1
47096.8
47093.9
47094.7
47091.1
47084.9
47077.8
47070.6
47064.4
47058.6
47053.3
47050.7
47048.4
47043
47036.8
47030.4
47024.4
47018.7
47014
47012.1
47008.4
47002.5
46996.1
46989.4
46983.3
46977.4
46972.4
46970.3
46972
46968.8
46962.7
46955.6
46947.9
46941.5
46935.5
46929.9
46925.1
46923.5
46920.8
46915
46908.7
46902.3
46896.3
46890.7
46886.2
46884.8
46881
46875.1
46868.7
46862.4
46856.5
46851.1
46847.5
46846.2
46841.5
46835.4
46829.1
46823
46817.3
46812.4
46810.3
46807.1
46801.3
46795.1
46788.8
46782.9
46777.5
46773.8
46772.9
46768.6
46762.5
46756.2
46750.2
46744.5
46739.7
46736.9
46732.3
46726.4
46720.4
46714.6
46709.2
46705.8
46703.9
46698.9
46692.8
46686.6
46680.6
46674.9
46670
46668
46664.8
46659
46652.7
46646.3
46640.3
46634.7
46630.2
46629.3
46626.5
46620.7
46614
46606.7
46600.4
46594.6
46589.6
46587.8
46588.5
46584.2
46577.9
46570.4
46562.9
46556.7
46551.2
46546.7
46546.7
46545.8
46540.3
46533.7
46525.6
46518.5
46512.5
46507.1
46503.1
46503.7
46501.6
46495.8
46489.1
46481.8
46475.6
46469.9
46464.9
46462.8
46460
46454.3
46448.1
46441.8
46435.9
46430.3
46425.9
46424.6
46421.1
46415.2
46408.9
46402.7
46396.9
46391.5
46387.8
46385.7
46380.7
46374.7
46368.1
46361.7
46355.8
46350.4
46346.3
46346.8
46344.8
46339.1
46332.4
46324.6
46318.2
46312.4
46307.4
46305.6
46306.9
46303
46296.8
46289.3
46280.4
46273.7
46267.8
46262.5
46258.9
46260.1
46258.3
46252.6
46246
46238.5
46232.1
46226.4
46221.1
46218.2
46216.8
46211.9
46205.9
46199.8
46194
46188.5
46184.2
46180.6
46175.3
46169.4
46163.4
46157.5
46152
46147.3
46146.6
46146
46140.8
46134.5
46127.6
46121.4
46115.6
46110.3
46106.4
46102.4
46096.8
46091
46085.2
46079.9
46076.3
46074.2
46069.3
46063.4
46056.7
46049.8
46043.8
46038.2
46033.3
46031.8
46035.3
46033.7
46028.1
46021.3
46012
46002.6
45996
45990.2
45984.7
45980.2
45979.8
45982.1
45978.4
45972.4
45965.1
45956.4
45949.6
45943.7
45938.3
45934.2
45934.1
45931.4
45925.6
45918.9
45911.2
45904.9
45899.2
45894.3
45892.3
45895.2
45893.4
45887.6
45880.8
45871.5
45862.5
45856.1
45850.4
45845.1
45841.2
45842.3
45842.7
45837.7
45831.5
45824.1
45817.2
45811.4
45805.8
45801.1
45798.4
45794.3
45788.6
45782.7
45776.9
45771.4
45766.5
45764.3
45761.7
45756.2
45750.2
45744.1
45738.3
45732.8
45728.2
45726.9
45724.3
45718.7
45712.5
45705.4
45699
45693.2
45687.7
45683.1
45682.2
45682.3
45677.4
45671.3
45664
45656.4
45650.3
45644.5
45638.8
45633.4
45629.1
45629.1
45629.3
45624.4
45618.2
45610.6
45603.1
45597.2
45591.7
45587
45586.2
45586.7
45582
45575.8
45567.9
45559
45552.5
45546.9
45541.8
45539.1
45542.2
45543.4
45538.6
45532.3
45524.2
45513.3
45505.3
45499.3
45493.7
45488.4
45484.7
45485.9
45486.8
45482.1
45475.9
45468.3
45460
45453.7
45448
45442.9
45439.7
45441.2
45439.5
45433.9
45427.5
45420.2
45413.9
45408.1
45402.6
45397.7
45393.1
45387.6
45381.9
45376.2
45370.8
45366.3
45365.5
45365.3
45360.3
45354.2
45346.8
45339.8
45334
45328.6
45324.2
45324
45323.2
45318
45311.8
45304.5
45298.1
45292.4
45287.1
45283.2
45282.2
45278.3
45272.5
45266.4
45260.5
45254.9
45249.8
45246.5
45244.2
45239.2
45233.3
45226.9
45219.8
45213.6
45207.9
45202.3
45197.4
45194.3
45196.4
45196.3
45191.2
45185
45177.4
45170
45164.1
45158.5
45153.3
45150
45147.9
45143.1
45137.4
45131.6
45125.9
45120.5
45115.8
45111.7
45106.5
45100.8
45095
45089.3
45083.8
45078.9
45076.2
45078.9
45078.9
45073.8
45067.5
45059.1
45049
45042
45036.2
45030.8
45026.3
45025.6
45028.8
45026.2
45020.5
45013.8
45004.3
44994.8
44988.4
44982.7
44977.2
44972.5
44970.7
44974.4
44974.1
44968.9
44962.6
44954.4
44945
44938.3
44932.6
44927.2
44922.7
44921.8
44923
44918.9
44912.9
44905.8
44897.6
44891.3
44885.6
44880.5
44876.9
44877.3
44874.8
44869.2
44862.8
44855.3
44849
44843.4
44838.3
44835.2
44835.7
44832.3
44826.6
44820
44812.7
44806.7
44801.2
44796.2
44793.7
44792.6
44787.8
44781.9
44775.3
44769.1
44763.5
44758.4
44754.8
44755.9
44754.7
44749.4
44743.1
44735.4
44728.3
44722.6
44717.1
44712.4
44710.1
44707.4
44702.1
44696.3
44690.1
44684.4
44678.8
44674
44671.6
44672.1
44668.1
44662.2
44655.1
44646.2
44639.3
44633.7
44628.3
44623.9
44623.3
44626
44622.9
44617.2
44610.4
44601.3
44593.1
44587.1
44581.5
44576.4
44572.7
44573.4
44572.7
44567.6
44561.5
44554.1
44547.4
44541.7
44536.5
44532.5
44533.1
44533.8
44529.1
44523.1
44515.4
44505.5
44498.3
44492.5
44487.1
44482.3
44480.3
44482
44479.2
44473.5
44467
44459.5
44453.3
44447.8
44442.8
44439.7
44441.2
44439.5
44434.1
44427.8
44419.3
44411.1
44405.1
44399.6
44394.6
44391.3
44392.3
44390.2
44384.7
44378.5
44371.1
44364.7
44359.1
44353.9
44349.6
44347.8
44344.2
44338.7
44332.9
44327.1
44321.5
44316.4
44312.4
44312.6
44311.1
44305.8
44299.6
44291.5
44283.6
44277.7
44272.3
44267.5
44264.9
44266.7
44264.5
44259
44252.6
44244.5
44237.3
44231.6
44226.3
44221.7
44220.5
44221.5
44217.5
44211.7
44204.7
44196.5
44190.1
44184.6
44179.5
44175.6
44176.2
44175.5
44170.4
44164.4
44156.7
44148.7
44142.7
44137.2
44132.3
44129.1
44130.3
44128.4
44123
44116.8
44109.2
44102.6
44097
44091.8
44087.5
44087.2
44086
44080.9
44074.8
44067.1
44059.4
44053.6
44048.2
44043.5
44041.3
44043.5
44041.3
44035.9
44029.5
44020.7
44011.8
44005.7
44000.2
43995.1
43991.3
43992.1
43994.4
43990.7
43985
43978.2
43969.6
43962.6
43957
43951.6
43947
43945.1
43946.6
43943.4
43937.8
43931.2
43922.4
43914.4
43908.5
43903
43897.5
43892.6
43888.9
43890
43891.7
43887.6
43881.8
43874.9
43866
43858.7
43853.1
43847.6
43842.8
43839.4
43840.7
43840.1
43835.1
43829.1
43822.1
43815.7
43810.1
43804.9
43800.4
43798.2
43794.6
43789.2
43783.4
43776.8
43770.6
43765
43759.9
43755.6
43755.3
43756.6
43752.7
43746.9
43740
43730.8
43723.5
43717.8
43712.5
43707.8
43705.6
43708
43706.4
43701.2
43695.1
43687.2
43679.6
43673.7
43668.3
43663.4
43659.8
43660.2
43657.9
43652.5
43646.5
43639.6
43633.7
43628.3
43623.3
43619.7
43618.8
43615
43609.6
43603.6
43597.4
43591.8
43586.5
43581.7
43578.9
43577.2
43572.5
43567
43561
43555.1
43549.6
43544.5
43540.3
43539.7
43538.3
43533.2
43527.4
43520.7
43514.6
43509.2
43504.1
43499.8
43498.1
43495
43489.7
43484.1
43478.5
43473
43467.7
43462.9
43459
43454.4
43449
43443.6
43438.2
43433.1
43428.8
43428.1
43427.3
43422.4
43416.6
43409.5
43401
43394.6
43389.1
43383.7
43378.4
43373.6
43370.4
43372.5
43375.8
43372.3
43366.7
43360.2
43350.8
43341.1
43334.8
43329.3
43324.1
43319.5
43317.5
43320.7
43320
43315
43309.1
43301.4
43292.2
43285.6
43280.1
43274.9
43270.2
43267.7
43269
43266.3
43260.9
43254.8
43247.4
43241.2
43235.7
43230.6
43226.3
43225.4
43225.1
43220.4
43214.8
43208.4
43202.4
43197
43191.9
43187.6
43184.9
43180.6
43175.2
43169.7
43163.8
43158.4
43153.1
43148.2
43145
43146.1
43144.3
43139.1
43133.1
43125.7
43118.7
43113.1
43107.9
43103.2
43100.8
43100.6
43096.4
43090.9
43084.2
43075.9
43069.2
43063.8
43058.6
43054.2
43052.9
43056.2
43054.7
43049.5
43043.6
43035.9
43028
43022.1
43016.8
43011.6
43006.7
43002.9
42998.6
42993.4
42988
42982.7
42977.4
42972.6
42968.9
42969.7
42971.1
42967.1
42961.5
42955
42947
42940.5
42935
42929.7
42924.4
42919.4
42914.8
42910.7
42906.1
42901.3
42897
42894.2
42895.4
42893.4
42888.2
42882.3
42874.7
42866.2
42860.1
42854.8
42849.7
42845.3
42844.3
42846
42842.6
42837.2
42830.9
42823.1
42816.5
42811.1
42805.9
42801.4
42799.7
42800.9
42797.4
42792
42785.6
42776.7
42768
42762.1
42756.8
42751.5
42746.8
42743.4
42744.9
42747.9
42744.5
42739.1
42732.9
42724.5
42716.6
42711
42705.7
42700.7
42696.7
42696.6
42698.6
42695.1
42689.7
42683.5
42675.6
42668.9
42663.4
42658.2
42653.1
42648.4
42643.7
42638.5
42633.2
42627.8
42622.1
42616.6
42611.3
42606.1
42601.4
42598.1
42599.8
42602.9
42599.5
42594.2
42587.9
42579.5
42571
42565.1
42559.8
42554.6
42550.1
42547.7
42549.2
42546.8
42541.6
42535.8
42529.1
42523.2
42517.9
42512.8
42508.2
42505.2
42501.4
42496.3
42491
42485.7
42480.5
42475.7
42471.9
42472
42471
42466.2
42460.6
42453.9
42447.3
42441.9
42436.7
42431.7
42427.3
42422.9
42417.8
42412.5
42407.1
42401.4
42396
42390.8
42385.7
42381.3
42379.6
42383.2
42383.3
42378.6
42373
42366
42355.9
42347.1
42341.3
42336
42330.8
42325.6
42320.6
42316.3
42314.5
42319.1
42322.5
42318.9
42313.5
42307.3
42298.6
42288
42281.1
42275.7
42270.4
42265.2
42260
42254.8
42249.7
42244.8
42240.7
42240.2
42244.7
42243.8
42238.9
42233.3
42226.2
42217.5
42211
42205.7
42200.5
42195.6
42191.4
42189.6
42186.8
42181.8
42176.5
42171
42165.8
42160.6
42155.7
42151.5
42147.8
42143
42137.8
42132.7
42127.7
42123.3
42121.5
42121.4
42117.3
42111.9
42105.7
42098.6
42092.8
42087.6
42082.6
42078.5
42077.7
42077.9
42073.6
42068.2
42061.8
42054.3
42048.3
42043.1
42038
42033.4
42030.7
42030.2
42026.3
42021.1
42015.7
42010.5
42005.4
42000.7
41996.2
41991.2
41986.1
41980.8
41975.4
41970.2
41965.1
41960.4
41956.9
41957.7
41958
41953.6
41948.2
41941.5
41932.8
41926
41920.6
41915.5
41910.8
41907.5
41908.6
41909.2
41904.9
41899.5
41893.2
41885.8
41879.9
41874.7
41869.6
41864.7
41860.6
41856.7
41851.8
41846.6
41841.5
41836.5
41831.9
41828.8
41829.5
41827.2
41822.2
41816.6
41810.6
41805.2
41800.1
41795.3
41791.7
41789
41784.3
41779.1
41773.4
41766.1
41758
41752.1
41746.9
41741.9
41737.4
41734.6
41737.4
41741.3
41738.2
41733
41727
41719
41709.1
41702.5
41697.2
41692.1
41687.2
41683.1
41682.2
41685.2
41683
41678
41672.4
41665.6
41658.9
41653.5
41648.4
41643.3
41638.2
41633.1
41627.9
41622.8
41617.7
41612.5
41607.5
41602.7
41598.8
41598.6
41600.3
41596.7
41591.5
41585.5
41577.7
41570.7
41565.3
41560.3
41555.6
41552.2
41553.4
41555.1
41551.3
41546
41539.9
41531.3
41522.6
41516.7
41511.6
41506.5
41501.4
41496.3
41491.3
41486.6
41482.7
41482.6
41484.4
41481
41475.8
41469.9
41462.3
41454.9
41449.4
41444.3
41439.3
41434.6
41431.2
41431.9
41432.5
41428.3
41423
41416.8
41409.2
41403
41397.8
41392.8
41388.4
41385.9
41387.7
41386.1
41381.2
41375.7
41368.5
41358.8
41351.7
41346.4
41341.3
41336.5
41332.3
41330.8
41333.3
41331.3
41326.3
41320.7
41313.3
41303.1
41295.7
41290.4
41285.3
41280.4
41276.1
41274
41277.7
41280.2
41276.4
41271.2
41265.2
41256.7
41246.9
41240.6
41235.4
41230.4
41225.7
41221.8
41221.4
41224.9
41223
41218
41212.6
41205.9
41199
41193.6
41188.5
41183.5
41178.8
41174.7
41170.6
41165.7
41160.7
41155.7
41150.8
41146.3
41143.7
41142
41137.6
41132.5
41127
41120.4
41114
41108.8
41103.8
41099.2
41095.5
41095.8
41096.9
41093
41087.8
41081.7
41073.4
41065.8
41060.4
41055.4
41050.6
41046.6
41045.6
41048
41045.4
41040.3
41034.7
41027.4
41019.3
41013.5
41008.5
41003.6
40999.1
40996.2
40997.3
40995.8
40991
40985.7
40979.3
40972.9
40967.7
40962.7
40958
40954.1
40952.6
40949.7
40944.8
40939.7
40933.9
40927.5
40921.9
40916.9
40911.9
40906.9
40901.9
40897
40892.5
40889.1
40890.1
40891.4
40887.6
40882.4
40876.6
40869.1
40862.3
40857
40852
40847.3
40843.2
40842.1
40842.9
40839.3
40834.2
40828.5
40821.7
40815.7
40810.6
40805.6
40800.7
40795.9
40791.1
40786.2
40781.3
40776.3
40771.3
40766.5
40762.1
40759.3
40761.5
40763.9
40760.3
40755.2
40749.4
40741.4
40731.1
40724.4
40719.2
40714.2
40709.3
40704.8
40701.6
40702.3
40701.1
40696.4
40691.1
40684.8
40676.9
40670.8
40665.8
40660.9
40656.3
40652.8
40653.4
40654.9
40651.2
40646.1
40640.3
40632.1
40623.3
40617.6
40612.6
40607.7
40603.5
40601.5
40605.1
40607.3
40603.6
40598.5
40592.6
40584.2
40573
40565.9
40560.7
40555.7
40550.9
40546.8
40544.8
40548.2
40548.7
40544.5
40539.4
40533.4
40525.2
40517.8
40512.4
40507.5
40502.7
40498.5
40496.3
40497.8
40495.5
40490.6
40485.2
40478.2
40468.6
40461.6
40456.4
40451.4
40446.5
40442
40438.3
40438.3
40442.1
40440.2
40435.4
40430.1
40423.4
40414.5
40407.6
40402.4
40397.5
40392.7
40388.4
40386
40388.1
40387.6
40383.1
40378
40371.9
40363.7
40356.5
40351.2
40346.3
40341.4
40336.5
40331.6
40326.8
40322.6
40319.9
40322.2
40324.3
40320.7
40315.7
40310.1
40302.8
40294.2
40288.3
40283.3
40278.4
40273.5
40268.6
40263.7
40258.8
40253.9
40249.1
40244.8
40242
40243.5
40243.1
40238.7
40233.5
40227.6
40219.9
40213.5
40208.5
40203.6
40198.9
40194.9
40193.7
40194
40190.3
40185.3
40179.7
40172.8
40166.6
40161.5
40156.7
40152.1
40148.5
40148.4
40149.1
40145.2
40140.2
40134.6
40127.5
40121.1
40115.9
40111
40106.2
40101.3
40096.4
40091.7
40087.3
40084
40083.9
40081.6
40076.8
40071.8
40066.3
40061
40056
40051.2
40046.4
40042
40038.6
40036.1
40031.8
40026.9
40022
40017
40012
40007.2
40002.4
39998
39994.9
39995.7
39994.4
39989.8
39984.7
39978.6
39970.3
39963.3
39958.1
39953.2
39948.4
39943.6
39938.8
39934.4
39931
39931.5
39933.9
39930.9
39926
39920.7
39914.1
39907.6
39902.4
39897.6
39892.9
39888.5
39885.4
39882
39877.3
39872.5
39867.5
39862.1
39857
39852.1
39847.3
39842.9
39839.7
39840.1
39838.4
39833.8
39828.7
39822.7
39815.5
39809.9
39805
39800.2
39795.8
39792.7
39793.3
39792
39787.5
39782.4
39776.6
39770.5
39765.4
39760.6
39756
39752
39750.8
39749.3
39744.9
39739.9
39734.2
39726.2
39718.1
39712.6
39707.7
39702.9
39698.1
39693.3
39688.9
39685.4
39685.6
39690
39688.6
39684
39678.9
39672.8
39663.9
39655.4
39649.9
39645
39640.3
39635.7
39632
39631.4
39633.6
39630.8
39626.1
39620.8
39614.3
39606.8
39601.3
39596.5
39591.7
39587.4
39584.1
39584.7
39584.6
39580.4
39575.5
39569.8
39562
39553.9
39548.4
39543.6
39538.8
39534
39529.3
39524.8
39521.1
39520.5
39522.1
39518.9
39514.1
39508.8
39502.3
39495.1
39489.8
39485
39480.3
39475.9
39472.7
39473.2
39471.9
39467.4
39462.4
39456.6
39449.2
39443.2
39438.3
39433.6
39429.1
39425.3
39424.6
39424.9
39421.1
39416.2
39410.9
39404.6
39399
39394.2
39389.5
39385.2
39382.1
39382.5
39380.6
39375.9
39370.8
39364.6
39355.5
39347.1
39341.6
39336.8
39332.1
39327.3
39322.6
39318.2
39314.5
39314.1
39319.4
39320.3
39316.3
39311.4
39305.9
39298.3
39287.9
39280.9
39275.8
39271
39266.3
39261.9
39258.3
39257.9
39260
39257.1
39252.4
39247.3
39241
39233.7
39228.2
39223.4
39218.7
39214.3
39210.7
39210.5
39213
39210.3
39205.6
39200.5
39194.1
39184.6
39175.9
39170.4
39165.6
39160.8
39156.1
39151.4
39146.7
39142
39137.4
39133.3
39130.8
39133.3
39136.8
39133.9
39129.2
39124
39117.7
39108.8
39101.7
39096.6
39091.9
39087.2
39082.9
39079.4
39078.5
39075.8
39071.2
39066.2
39060.6
39053.2
39046.9
39042
39037.3
39032.9
39029.3
39029.3
39035.2
39036
39032
39027.2
39021.7
39014.2
39002.9
38994.8
38989.5
38984.8
38980.1
38975.4
38970.7
38966
38961.3
38956.7
38952.4
38948.8
38948.7
38952.3
38950.5
38946
38941
38935.2
38927.2
38920.2
38915.1
38910.4
38905.8
38901.5
38898.2
38898.8
38899.7
38896.1
38891.3
38886.1
38879.3
38870.5
38864.3
38859.5
38854.8
38850.1
38845.5
38840.9
38836.6
38833.2
38833.6
38836.8
38834.4
38829.8
38824.8
38818.8
38810
38802
38796.8
38792.1
38787.5
38783.1
38779.4
38778.5
38781.2
38779.1
38774.6
38769.7
38763.9
38757
38751.5
38746.7
38742.1
38737.5
38732.9
38728.2
38723.6
38718.9
38714.1
38709
38704.2
38699.5
38694.9
38690.5
38687
38686.8
38690.9
38689.7
38685.3
38680.4
38674.7
38666.1
38654.8
38647.9
38642.9
38638.2
38633.6
38629.1
38624.9
38621.9
38623.3
38628.6
38627.2
38622.8
38617.9
38612.3
38604.3
38595
38589.1
38584.3
38579.7
38575.2
38571
38568.1
38569
38568
38563.7
38558.9
38553.4
38545.9
38538.8
38533.7
38529
38524.5
38520.3
38517.4
38518.6
38519
38515.1
38510.4
38505.1
38498.2
38490.7
38485.4
38480.7
38476.2
38471.9
38468.4
38468.5
38469.6
38466.2
38461.5
38456.4
38450
38442.4
38436.9
38432.2
38427.6
38423.2
38419.5
38418.4
38418.4
38414.7
38410
38404.8
38398
38388.3
38381.1
38376.1
38371.5
38366.9
38362.4
38358
38354.4
38353.5
38358.4
38359.9
38356.2
38351.5
38346.4
38339.9
38330.4
38322.9
38317.8
38313.2
38308.6
38304.1
38300.2
38298.1
38299.8
38298.4
38294.1
38289.3
38284
38277.3
38271.5
38266.8
38262.2
38257.8
38253.8
38251.7
38252.7
38250.2
38245.7
38240.9
38235.2
38227.8
38221.4
38216.6
38212
38207.4
38202.8
38198.3
38194.1
38190.7
38190.6
38190.8
38187
38182.3
38177.2
38170.5
38161.2
38154.6
38149.8
38145.2
38140.7
38136.7
38134.3
38137
38140.6
38137.9
38133.3
38128.4
38122.5
38113.5
38104
38098.3
38093.6
38089.1
38084.7
38080.6
38078
38079.9
38082.2
38079.1
38074.5
38069.6
38063.8
38055.8
38049.1
38044.2
38039.6
38035.1
38030.5
38026
38021.5
38016.9
38012.4
38008.2
38004.7
38004.3
38004.3
38000.5
37996
37991.2
37985.8
37980.8
37976.2
37971.7
37967.1
37962.7
37958.3
37954.4
37950.6
37946.2
37941.7
37937.2
37932.7
37928.2
37923.7
37919.4
37916
37915.4
37915.3
37911.6
37907
37902.2
37896.8
37891.4
37886.7
37882.1
37877.6
37873
37868.4
37863.7
37858.4
37852.4
37847.4
37842.8
37838.3
37833.8
37829.5
37825.7
37824
37827
37827.1
37823.1
37818.5
37813.5
37806.9
37798.3
37792.3
37787.6
37783.1
37778.6
37774.4
37771.1
37771.1
37771.6
37768
37763.4
37758.5
37752.7
37746.7
37741.9
37737.4
37732.9
37728.8
37725.8
37725.7
37723.4
37719.1
37714.4
37709.1
37701.6
37692.7
37687.1
37682.4
37677.9
37673.4
37669
37664.6
37660.7
37658.3
37660.7
37664.2
37661.5
37657
37652.3
37646.9
37639
37630.1
37624.5
37619.8
37615.4
37610.9
37606.6
37602.8
37601.1
37600.5
37596.8
37592.3
37587.7
37582.6
37577.7
37573.2
37568.7
37564.5
37560.8
37559.1
37557.1
37553
37548.5
37543.8
37538.4
37533.2
37528.7
37524.2
37519.9
37516.1
37514
37512.7
37508.8
37504.3
37499.6
37494.3
37488.3
37483.4
37478.9
37474.5
37470.3
37466.9
37466.1
37465
37460.9
37456.4
37451.7
37446.6
37442
37437.5
37433.1
37428.9
37425.2
37421.4
37417
37412.5
37408
37402.9
37396.9
37391.4
37386.8
37382.3
37378
37373.9
37370.7
37371.2
37374.5
37372.3
37368
37363.4
37358.2
37351.3
37344.3
37339.3
37334.8
37330.4
37326
37321.7
37317.7
37313.6
37309.3
37304.8
37300.4
37295.9
37291.2
37286.5
37282
37277.6
37273.2
37268.9
37264.8
37261.7
37262.4
37265.5
37263.2
37258.9
37254.3
37249.3
37243
37236.2
37231.2
37226.7
37222.2
37217.8
37213.3
37208.9
37204.2
37199.1
37193.5
37188.8
37184.4
37180
37175.6
37171.2
37167.2
37164
37164.4
37167.4
37165.1
37160.8
37156.2
37150.9
37143.4
37132.8
37126
37121.2
37116.8
37112.4
37108.3
37105
37104.9
37109.9
37109.8
37105.9
37101.4
37096.5
37090.3
37080.8
37072.7
37067.6
37063.1
37058.8
37054.4
37050.5
37047.6
37048.5
37049.3
37045.8
37041.3
37036.7
37031.2
37025
37020.1
37015.7
37011.3
37007.1
37003.4
37001.7
37001.5
36998
36993.6
36989
36983.5
36975.7
36968.4
36963.5
36959.1
36954.7
36950.3
36946.1
36942.2
36939.9
36941.8
36942.8
36939.3
36934.9
36930.2
36924.7
36916.8
36909.1
36904
36899.6
36895.2
36890.9
36886.7
36883.2
36882.2
36882.4
36878.9
36874.6
36870.1
36865.4
36860.9
36856.5
36852.2
36848
36844.5
36841.9
36838.3
36834
36829.6
36825.3
36820.8
36816.3
36811.6
36807.1
36802.7
36798.3
36793.9
36789.2
36784.3
36779.7
36775.4
36771
36766.7
36762.5
36759
36757.5
36760.6
36760.6
36756.8
36752.4
36747.7
36741.9
36733.2
36724.8
36719.7
36715.3
36710.9
36706.6
36702.5
36698.9
36697.4
36698.3
36695.6
36691.3
36686.9
36682
36676.5
36671.7
36667.3
36662.9
36658.6
36654.4
36650.3
36646.6
36642.6
36638.4
36634.1
36629.8
36625.6
36621.8
36619.2
36618.3
36615
36610.8
36606.4
36602
36597.7
36593.4
36589.1
36585.1
36581.7
36579.1
36575.3
36571
36566.6
36562
36556.7
36549.9
36544.2
36539.7
36535.4
36531.1
36527
36523.5
36522.5
36524
36521.4
36517.1
36512.7
36507.7
36501.2
36494.5
36489.7
36485.4
36481.1
36476.9
36473.2
36471.3
36471.6
36468.6
36464.3
36459.8
36454.9
36448.6
36443
36438.5
36434.2
36429.9
36426.1
36423.4
36424.6
36425.5
36422.1
36417.8
36413.3
36408.1
36400.5
36391.8
36386.3
36381.9
36377.6
36373.3
36369
36364.7
36360.5
36356.3
36352.6
36350.4
36352.2
36351.9
36348.1
36343.8
36339.2
36333.9
36326.5
36320.1
36315.5
36311.2
36306.9
36302.8
36299.1
36297.2
36297.6
36294.7
36290.5
36286.1
36281.3
36275.1
36269.1
36264.6
36260.3
36256
36251.9
36248.4
36247.1
36247.3
36244.1
36239.8
36235.5
36230.7
36225.9
36221.5
36217.2
36213
36208.9
36205.4
36201.6
36197.4
36193.2
36188.8
36184.1
36178.3
36171.7
36166.8
36162.5
36158.2
36154.1
36150.2
36147.5
36148.7
36150.4
36147.3
36143.1
36138.7
36133.8
36127.3
36120.1
36115.1
36110.7
36106.5
36102.3
36098.3
36094.9
36094.1
36093.6
36090
36085.8
36081.4
36076.7
36071.7
36067.3
36063
36058.8
36054.7
36050.8
36047.8
36044.4
36040.3
36036.1
36031.9
36027.6
36023.3
36018.9
36014
36008.3
36003.5
35999.2
35995
35990.8
35986.5
35982.3
35978.2
35974.4
35971.8
35972.8
35973.4
35970
35965.7
35961.4
35956.5
35950.1
35943.7
35939
35934.7
35930.5
35926.3
35922.3
35919
35917.9
35916.5
35912.7
35908.5
35904.3
35900
35895.8
35891.4
35886.7
35881.2
35875
35870.2
35865.9
35861.7
35857.5
35853.3
35849.1
35844.9
35840.8
35837
35834.1
35834.7
35834.9
35831.4
35827.1
35822.8
35818.1
35812.7
35808.1
35803.9
35799.7
35795.6
35791.9
35789.4
35787
35783.1
35779
35774.7
35770.1
35764.4
35757.2
35751.9
35747.5
35743.3
35739.1
35735.1
35731.4
35729.3
35731.7
35733.4
35730.3
35726.1
35721.9
35717.2
35711.3
35702.6
35695.4
35690.6
35686.4
35682.2
35678
35673.8
35669.6
35665.4
35661.3
35657.1
35653
35649.3
35646.7
35647.9
35648.5
35645.1
35640.9
35636.6
35631.8
35625.6
35618.5
35613.7
35609.4
35605.2
35601.1
35597.2
35594.1
35593.7
35593.2
35589.6
35585.4
35581.1
35576.5
35571.1
35566.2
35561.9
35557.8
35553.6
35549.4
35545.3
35541.1
35536.9
35532.7
35528.4
35523.7
35519.4
35515.2
35511.1
35507
35503.3
35500.8
35502.3
35505.2
35502.7
35498.7
35494.4
35489.9
35484.2
35475.1
35464.6
35458.8
35454.4
35450.2
35446
35441.9
35437.7
35433.6
35429.5
35425.4
35421.4
35418.1
35416.9
35421.4
35424
35421.1
35417
35412.8
35408.4
35403.1
35395.1
35385.5
35379.9
35375.6
35371.4
35367.2
35363.1
35359
35354.8
35350.7
35346.6
35342.5
35338.4
35334.5
35331.1
35330
35332.8
35331.9
35328.1
35323.9
35319.6
35314.7
35307.9
35300.2
35295.1
35290.9
35286.8
35282.7
35278.7
35275.2
35273.6
35274
35271.2
35267.2
35263
35258.7
35253.8
35248.6
35244.3
35240.2
35236.1
35232
35228
35224.4
35221.2
35217.3
35213.2
35209.1
35205
35200.9
35197
35193.2
35190.5
35188
35184.3
35180.2
35176.1
35172
35167.9
35163.8
35159.7
35155.7
35151.9
35148.8
35145.6
35141.7
35137.6
35133.5
35129.4
35125.3
35121.2
35117.1
35112.9
35108.8
35104.6
35100.1
35095.2
35090.6
35086.5
35082.4
35078.3
35074.2
35070.2
35066.3
35063.2
35062.6
35064.3
35061.9
35057.9
35053.8
35049.6
35045
35039.4
35033.9
35029.5
35025.4
35021.3
35017.2
35013
35008.8
35004.2
34999.1
34994.6
34990.4
34986.4
34982.3
34978.2
34974.3
34970.9
34969.3
34970.4
34968.1
34964.1
34960
34955.7
34950.8
34944.6
34939.4
34935.1
34931
34927
34923
34919.5
34917.5
34916.5
34913.2
34909.1
34905.1
34900.9
34896.5
34892.3
34888.2
34884.1
34880.1
34876.1
34872.2
34868.2
34864.1
34860
34855.8
34851
34845.6
34841.1
34837
34833
34829
34825.2
34822.2
34822
34822.2
34818.9
34814.9
34810.7
34806.3
34801
34795
34790.4
34786.3
34782.2
34778.2
34774.5
34771.4
34771.2
34772
34769
34765
34760.9
34756.6
34751.5
34744
34735.2
34729.8
34725.6
34721.5
34717.5
34713.4
34709.4
34705.4
34701.3
34697.4
34693.7
34690.9
34691.2
34693.4
34690.9
34686.9
34682.9
34678.7
34673.9
34667.9
34662.7
34658.5
34654.5
34650.5
34646.6
34643.1
34641.2
34639.7
34636.1
34632.1
34628
34623.7
34618.4
34610.6
34603.5
34598.9
34594.8
34590.8
34586.8
34582.8
34579.2
34576.6
34577.5
34578.8
34575.9
34571.9
34567.8
34563.6
34558.7
34552.7
34547.8
34543.7
34539.7
34535.7
34531.9
34528.6
34527.5
34527.3
34524
34520
34515.9
34511.6
34506.4
34498.6
34491
34486.2
34482.1
34478.1
34474.1
34470.1
34466.2
34462.4
34459.4
34459
34460.7
34458.3
34454.4
34450.3
34446.2
34441.6
34435.8
34430.2
34425.9
34421.9
34417.9
34414
34410.3
34407.3
34405.8
34403
34399.1
34395.1
34391.1
34387.1
34383.1
34379.1
34375.1
34371.2
34367.5
34364.5
34361.4
34357.6
34353.6
34349.6
34345.5
34341
34335.4
34329.7
34325.4
34321.3
34317.4
34313.4
34309.6
34306.2
34304.6
34305.5
34303.1
34299.3
34295.3
34291.1
34286.5
34280.3
34272.9
34268
34263.9
34259.9
34256
34252.1
34248.6
34246.7
34247.8
34246.3
34242.6
34238.6
34234.6
34230.3
34225.2
34220.4
34216.3
34212.4
34208.4
34204.6
34201.2
34199.4
34198.6
34195.3
34191.4
34187.4
34183.2
34178.5
34172
34163.9
34158.7
34154.6
34150.6
34146.6
34142.7
34138.7
34134.8
34130.8
34127
34123.4
34120.8
34121.5
34123
34120.2
34116.3
34112.3
34108.2
34103.7
34097.7
34091
34086.4
34082.3
34078.4
34074.5
34070.6
34067.2
34065
34064.8
34062.1
34058.3
34054.4
34050.4
34046.3
34041.8
34036.5
34031.9
34027.8
34023.9
34019.9
34016
34012
34008.1
34004.2
34000.3
33996.4
33992.7
33989.6
33988.3
33986.4
33982.8
33978.8
33974.9
33970.9
33966.6
33961.3
33955.3
33950.9
33946.8
33942.9
33939
33935.1
33931.2
33927.6
33924.6
33923.9
33922.3
33918.7
33914.8
33910.8
33906.8
33902.4
33897.7
33893.5
33889.5
33885.6
33881.8
33878
33874.8
33873.5
33872.1
33868.7
33864.8
33860.9
33857
33853.1
33849.2
33845.2
33841.2
33836.8
33831.4
33823.3
33816.5
33812.1
33808.1
33804.2
33800.3
33796.4
33792.6
33788.9
33785.8
33785
33788.7
33788.8
33785.5
33781.6
33777.7
33773.6
33768.9
33762.1
33754.5
33749.7
33745.7
33741.8
33737.9
33734.1
33730.7
33728.5
33727.9
33725.1
33721.3
33717.4
33713.4
33709.3
33704.7
33700.2
33696.2
33692.4
33688.5
33684.7
33681.1
33678.2
33675.6
33672
33668.2
33664.3
33660.4
33656.6
33652.7
33648.9
33645.3
33642.4
33641.1
33638.7
33635
33631.2
33627.2
33623.2
33618.7
33612.4
33603.8
33598.1
33593.9
33590
33586.1
33582.2
33578.4
33574.6
33570.9
33567.7
33566.3
33568.6
33567.8
33564.3
33560.5
33556.6
33552.5
33548
33541.8
33535.9
33531.6
33527.7
33523.9
33520.1
33516.4
33513.3
33512.1
33510.6
33507.1
33503.2
33499.4
33495.5
33491.4
33487.4
33483.5
33479.7
33475.9
33472.1
33468.7
33465.2
33461.4
33457.6
33453.7
33449.7
33445.4
33439.9
33433.9
33429.6
33425.7
33421.8
33418
33414.3
33411
33409.3
33409.9
33407.7
33404.1
33400.2
33396.3
33392.2
33387.5
33382.1
33377.8
33373.9
33370
33366.2
33362.6
33359.3
33357.1
33354.2
33350.5
33346.7
33342.8
33338.9
33334.9
33330.7
33326.9
33323
33319.2
33315.5
33312.1
33309.8
33307.5
33303.9
33300.1
33296.3
33292.4
33288.4
33283.9
33278.5
33273.8
33269.9
33266
33262.2
33258.4
33254.6
33250.8
33247
33243.5
33240.6
33239.5
33237.5
33233.9
33230.1
33226.3
33222.4
33218.2
33213.3
33208.6
33204.6
33200.8
33197
33193.2
33189.7
33186.7
33185.6
33183.6
33180
33176.2
33172.4
33168.6
33164.8
33161
33157.2
33153.3
33149.3
33145.3
33141.4
33137.5
33133.5
33129.2
33123.8
33117.6
33113.2
33109.3
33105.5
33101.7
33098
33094.4
33091.5
33090.9
33091.7
33089
33085.3
33081.5
33077.7
33073.6
33068.8
33062.8
33058.2
33054.3
33050.5
33046.7
33043
33039.6
33037.2
33037.6
33036.8
33033.5
33029.7
33025.9
33022.1
33018.3
33014.4
33010.3
33005.1
32997.3
32990.2
32985.8
32981.9
32978.1
32974.3
32970.5
32966.8
32963
32959.3
32955.8
32952.9
32952.3
32953.1
32950.4
32946.8
32943
32939.2
32935.2
32930.7
32925.1
32920.3
32916.4
32912.6
32908.9
32905.1
32901.6
32898.6
32897
32894.4
32890.8
32887.1
32883.3
32879.6
32875.8
32872.1
32868.3
32864.6
32860.9
32857.3
32853.9
32850.2
32846.4
32842.7
32838.9
32835.1
32831
32826.3
32821.2
32817.1
32813.3
32809.5
32805.8
32802
32798.3
32794.6
32791.2
32788.6
32788.1
32786
32782.4
32778.7
32774.9
32771.1
32767
32762
32755.7
32751
32747.1
32743.4
32739.6
32735.9
32732.3
32729.1
32727.3
32728.8
32728
32724.6
32720.9
32717.1
32713.3
32709.3
32704.6
32697.6
32690.6
32686.1
32682.3
32678.5
32674.8
32671
32667.3
32663.6
32659.9
32656.2
32652.7
32649.8