/*--------------------------------*- C++ -*----------------------------------*\
  =========                 |
  \\      /  F ield         | OpenFOAM: The Open Source CFD Toolbox
   \\    /   O peration     | Website:  https://openfoam.org
    \\  /    A nd           | Version:  9
     \\/     M anipulation  |
\*---------------------------------------------------------------------------*/
FoamFile
{
    format      ascii;
    class       volVectorField;
    location    "0.034";
    object      U;
}
// * * * * * * * * * * * * * * * * * * * * * * * * * * * * * * * * * * * * * //

dimensions      [0 1 -1 0 0 0 0];

internalField   nonuniform List<vector> 
10000
(
(194.796 0 0)
(194.835 0 0)
(194.857 0 0)
(194.882 0 0)
(194.906 0 0)
(194.93 0 0)
(194.954 0 0)
(194.978 0 0)
(195.002 0 0)
(195.027 0 0)
(195.051 0 0)
(195.075 0 0)
(195.099 0 0)
(195.123 0 0)
(195.148 0 0)
(195.172 0 0)
(195.196 0 0)
(195.22 0 0)
(195.244 0 0)
(195.268 0 0)
(195.292 0 0)
(195.316 0 0)
(195.34 0 0)
(195.364 0 0)
(195.389 0 0)
(195.413 0 0)
(195.437 0 0)
(195.461 0 0)
(195.485 0 0)
(195.509 0 0)
(195.533 0 0)
(195.558 0 0)
(195.582 0 0)
(195.606 0 0)
(195.63 0 0)
(195.654 0 0)
(195.678 0 0)
(195.702 0 0)
(195.726 0 0)
(195.75 0 0)
(195.774 0 0)
(195.799 0 0)
(195.823 0 0)
(195.847 0 0)
(195.871 0 0)
(195.895 0 0)
(195.919 0 0)
(195.943 0 0)
(195.968 0 0)
(195.992 0 0)
(196.016 0 0)
(196.04 0 0)
(196.064 0 0)
(196.088 0 0)
(196.112 0 0)
(196.137 0 0)
(196.161 0 0)
(196.185 0 0)
(196.209 0 0)
(196.233 0 0)
(196.257 0 0)
(196.281 0 0)
(196.306 0 0)
(196.33 0 0)
(196.354 0 0)
(196.378 0 0)
(196.402 0 0)
(196.426 0 0)
(196.45 0 0)
(196.474 0 0)
(196.498 0 0)
(196.523 0 0)
(196.547 0 0)
(196.571 0 0)
(196.595 0 0)
(196.619 0 0)
(196.643 0 0)
(196.667 0 0)
(196.691 0 0)
(196.715 0 0)
(196.739 0 0)
(196.764 0 0)
(196.788 0 0)
(196.812 0 0)
(196.836 0 0)
(196.86 0 0)
(196.884 0 0)
(196.908 0 0)
(196.932 0 0)
(196.956 0 0)
(196.981 0 0)
(197.005 0 0)
(197.029 0 0)
(197.053 0 0)
(197.077 0 0)
(197.101 0 0)
(197.126 0 0)
(197.15 0 0)
(197.174 0 0)
(197.198 0 0)
(197.222 0 0)
(197.246 0 0)
(197.271 0 0)
(197.295 0 0)
(197.319 0 0)
(197.344 0 0)
(197.368 0 0)
(197.391 0 0)
(197.415 0 0)
(197.439 0 0)
(197.463 0 0)
(197.488 0 0)
(197.513 0 0)
(197.537 0 0)
(197.561 0 0)
(197.584 0 0)
(197.608 0 0)
(197.632 0 0)
(197.656 0 0)
(197.681 0 0)
(197.706 0 0)
(197.73 0 0)
(197.754 0 0)
(197.778 0 0)
(197.802 0 0)
(197.826 0 0)
(197.85 0 0)
(197.875 0 0)
(197.899 0 0)
(197.923 0 0)
(197.947 0 0)
(197.972 0 0)
(197.996 0 0)
(198.02 0 0)
(198.043 0 0)
(198.067 0 0)
(198.091 0 0)
(198.116 0 0)
(198.14 0 0)
(198.165 0 0)
(198.189 0 0)
(198.212 0 0)
(198.235 0 0)
(198.259 0 0)
(198.283 0 0)
(198.309 0 0)
(198.334 0 0)
(198.359 0 0)
(198.382 0 0)
(198.405 0 0)
(198.428 0 0)
(198.452 0 0)
(198.477 0 0)
(198.503 0 0)
(198.528 0 0)
(198.551 0 0)
(198.574 0 0)
(198.597 0 0)
(198.62 0 0)
(198.646 0 0)
(198.672 0 0)
(198.697 0 0)
(198.72 0 0)
(198.743 0 0)
(198.765 0 0)
(198.79 0 0)
(198.816 0 0)
(198.842 0 0)
(198.866 0 0)
(198.888 0 0)
(198.91 0 0)
(198.933 0 0)
(198.959 0 0)
(198.988 0 0)
(199.014 0 0)
(199.036 0 0)
(199.057 0 0)
(199.078 0 0)
(199.1 0 0)
(199.126 0 0)
(199.156 0 0)
(199.182 0 0)
(199.205 0 0)
(199.225 0 0)
(199.247 0 0)
(199.27 0 0)
(199.299 0 0)
(199.328 0 0)
(199.351 0 0)
(199.371 0 0)
(199.392 0 0)
(199.412 0 0)
(199.436 0 0)
(199.468 0 0)
(199.5 0 0)
(199.523 0 0)
(199.543 0 0)
(199.562 0 0)
(199.582 0 0)
(199.603 0 0)
(199.63 0 0)
(199.665 0 0)
(199.693 0 0)
(199.713 0 0)
(199.732 0 0)
(199.752 0 0)
(199.775 0 0)
(199.807 0 0)
(199.839 0 0)
(199.861 0 0)
(199.879 0 0)
(199.897 0 0)
(199.916 0 0)
(199.939 0 0)
(199.974 0 0)
(200.011 0 0)
(200.033 0 0)
(200.051 0 0)
(200.068 0 0)
(200.086 0 0)
(200.105 0 0)
(200.126 0 0)
(200.16 0 0)
(200.201 0 0)
(200.226 0 0)
(200.244 0 0)
(200.262 0 0)
(200.281 0 0)
(200.301 0 0)
(200.326 0 0)
(200.356 0 0)
(200.383 0 0)
(200.406 0 0)
(200.43 0 0)
(200.461 0 0)
(200.495 0 0)
(200.517 0 0)
(200.535 0 0)
(200.553 0 0)
(200.571 0 0)
(200.589 0 0)
(200.609 0 0)
(200.64 0 0)
(200.684 0 0)
(200.715 0 0)
(200.733 0 0)
(200.749 0 0)
(200.765 0 0)
(200.783 0 0)
(200.802 0 0)
(200.826 0 0)
(200.867 0 0)
(200.908 0 0)
(200.929 0 0)
(200.946 0 0)
(200.961 0 0)
(200.98 0 0)
(200.999 0 0)
(201.026 0 0)
(201.065 0 0)
(201.096 0 0)
(201.115 0 0)
(201.132 0 0)
(201.15 0 0)
(201.169 0 0)
(201.194 0 0)
(201.232 0 0)
(201.266 0 0)
(201.285 0 0)
(201.302 0 0)
(201.319 0 0)
(201.337 0 0)
(201.357 0 0)
(201.388 0 0)
(201.43 0 0)
(201.459 0 0)
(201.477 0 0)
(201.492 0 0)
(201.509 0 0)
(201.527 0 0)
(201.547 0 0)
(201.581 0 0)
(201.626 0 0)
(201.654 0 0)
(201.671 0 0)
(201.685 0 0)
(201.7 0 0)
(201.719 0 0)
(201.737 0 0)
(201.768 0 0)
(201.816 0 0)
(201.854 0 0)
(201.873 0 0)
(201.887 0 0)
(201.9 0 0)
(201.917 0 0)
(201.936 0 0)
(201.96 0 0)
(201.999 0 0)
(202.039 0 0)
(202.06 0 0)
(202.078 0 0)
(202.095 0 0)
(202.114 0 0)
(202.138 0 0)
(202.172 0 0)
(202.202 0 0)
(202.221 0 0)
(202.239 0 0)
(202.258 0 0)
(202.277 0 0)
(202.304 0 0)
(202.344 0 0)
(202.375 0 0)
(202.394 0 0)
(202.411 0 0)
(202.428 0 0)
(202.447 0 0)
(202.468 0 0)
(202.502 0 0)
(202.543 0 0)
(202.568 0 0)
(202.585 0 0)
(202.599 0 0)
(202.615 0 0)
(202.633 0 0)
(202.652 0 0)
(202.684 0 0)
(202.733 0 0)
(202.769 0 0)
(202.788 0 0)
(202.801 0 0)
(202.812 0 0)
(202.829 0 0)
(202.847 0 0)
(202.868 0 0)
(202.906 0 0)
(202.958 0 0)
(202.992 0 0)
(203.01 0 0)
(203.022 0 0)
(203.033 0 0)
(203.05 0 0)
(203.068 0 0)
(203.089 0 0)
(203.124 0 0)
(203.169 0 0)
(203.197 0 0)
(203.214 0 0)
(203.229 0 0)
(203.245 0 0)
(203.264 0 0)
(203.284 0 0)
(203.32 0 0)
(203.371 0 0)
(203.405 0 0)
(203.423 0 0)
(203.436 0 0)
(203.449 0 0)
(203.466 0 0)
(203.485 0 0)
(203.508 0 0)
(203.543 0 0)
(203.581 0 0)
(203.604 0 0)
(203.621 0 0)
(203.638 0 0)
(203.657 0 0)
(203.676 0 0)
(203.702 0 0)
(203.74 0 0)
(203.772 0 0)
(203.792 0 0)
(203.808 0 0)
(203.823 0 0)
(203.841 0 0)
(203.86 0 0)
(203.882 0 0)
(203.922 0 0)
(203.978 0 0)
(204.014 0 0)
(204.032 0 0)
(204.045 0 0)
(204.055 0 0)
(204.071 0 0)
(204.09 0 0)
(204.109 0 0)
(204.135 0 0)
(204.174 0 0)
(204.211 0 0)
(204.232 0 0)
(204.249 0 0)
(204.265 0 0)
(204.283 0 0)
(204.303 0 0)
(204.33 0 0)
(204.371 0 0)
(204.403 0 0)
(204.422 0 0)
(204.438 0 0)
(204.455 0 0)
(204.474 0 0)
(204.494 0 0)
(204.527 0 0)
(204.568 0 0)
(204.595 0 0)
(204.613 0 0)
(204.63 0 0)
(204.648 0 0)
(204.667 0 0)
(204.692 0 0)
(204.729 0 0)
(204.763 0 0)
(204.783 0 0)
(204.801 0 0)
(204.818 0 0)
(204.837 0 0)
(204.856 0 0)
(204.888 0 0)
(204.932 0 0)
(204.961 0 0)
(204.979 0 0)
(204.996 0 0)
(205.014 0 0)
(205.034 0 0)
(205.059 0 0)
(205.093 0 0)
(205.12 0 0)
(205.139 0 0)
(205.157 0 0)
(205.176 0 0)
(205.197 0 0)
(205.229 0 0)
(205.269 0 0)
(205.293 0 0)
(205.311 0 0)
(205.329 0 0)
(205.347 0 0)
(205.366 0 0)
(205.391 0 0)
(205.428 0 0)
(205.462 0 0)
(205.483 0 0)
(205.5 0 0)
(205.516 0 0)
(205.534 0 0)
(205.553 0 0)
(205.58 0 0)
(205.623 0 0)
(205.66 0 0)
(205.68 0 0)
(205.695 0 0)
(205.707 0 0)
(205.723 0 0)
(205.742 0 0)
(205.764 0 0)
(205.805 0 0)
(205.857 0 0)
(205.886 0 0)
(205.903 0 0)
(205.914 0 0)
(205.925 0 0)
(205.942 0 0)
(205.961 0 0)
(205.988 0 0)
(206.036 0 0)
(206.082 0 0)
(206.104 0 0)
(206.119 0 0)
(206.127 0 0)
(206.14 0 0)
(206.158 0 0)
(206.177 0 0)
(206.207 0 0)
(206.257 0 0)
(206.298 0 0)
(206.319 0 0)
(206.333 0 0)
(206.345 0 0)
(206.362 0 0)
(206.381 0 0)
(206.405 0 0)
(206.442 0 0)
(206.478 0 0)
(206.499 0 0)
(206.516 0 0)
(206.533 0 0)
(206.551 0 0)
(206.57 0 0)
(206.598 0 0)
(206.639 0 0)
(206.672 0 0)
(206.692 0 0)
(206.708 0 0)
(206.725 0 0)
(206.744 0 0)
(206.765 0 0)
(206.796 0 0)
(206.834 0 0)
(206.859 0 0)
(206.877 0 0)
(206.892 0 0)
(206.908 0 0)
(206.927 0 0)
(206.946 0 0)
(206.976 0 0)
(207.026 0 0)
(207.067 0 0)
(207.088 0 0)
(207.102 0 0)
(207.111 0 0)
(207.127 0 0)
(207.145 0 0)
(207.168 0 0)
(207.209 0 0)
(207.263 0 0)
(207.295 0 0)
(207.313 0 0)
(207.323 0 0)
(207.326 0 0)
(207.34 0 0)
(207.359 0 0)
(207.379 0 0)
(207.411 0 0)
(207.464 0 0)
(207.507 0 0)
(207.527 0 0)
(207.542 0 0)
(207.553 0 0)
(207.569 0 0)
(207.587 0 0)
(207.609 0 0)
(207.643 0 0)
(207.685 0 0)
(207.711 0 0)
(207.729 0 0)
(207.746 0 0)
(207.765 0 0)
(207.786 0 0)
(207.813 0 0)
(207.844 0 0)
(207.866 0 0)
(207.884 0 0)
(207.903 0 0)
(207.921 0 0)
(207.941 0 0)
(207.966 0 0)
(208.01 0 0)
(208.058 0 0)
(208.082 0 0)
(208.098 0 0)
(208.112 0 0)
(208.129 0 0)
(208.147 0 0)
(208.169 0 0)
(208.198 0 0)
(208.227 0 0)
(208.247 0 0)
(208.266 0 0)
(208.285 0 0)
(208.306 0 0)
(208.337 0 0)
(208.375 0 0)
(208.4 0 0)
(208.419 0 0)
(208.433 0 0)
(208.447 0 0)
(208.464 0 0)
(208.483 0 0)
(208.507 0 0)
(208.551 0 0)
(208.614 0 0)
(208.658 0 0)
(208.679 0 0)
(208.693 0 0)
(208.694 0 0)
(208.694 0 0)
(208.709 0 0)
(208.728 0 0)
(208.747 0 0)
(208.773 0 0)
(208.821 0 0)
(208.88 0 0)
(208.913 0 0)
(208.931 0 0)
(208.943 0 0)
(208.947 0 0)
(208.96 0 0)
(208.979 0 0)
(208.998 0 0)
(209.027 0 0)
(209.074 0 0)
(209.112 0 0)
(209.131 0 0)
(209.146 0 0)
(209.155 0 0)
(209.171 0 0)
(209.19 0 0)
(209.212 0 0)
(209.254 0 0)
(209.315 0 0)
(209.357 0 0)
(209.377 0 0)
(209.391 0 0)
(209.391 0 0)
(209.394 0 0)
(209.41 0 0)
(209.429 0 0)
(209.448 0 0)
(209.479 0 0)
(209.533 0 0)
(209.584 0 0)
(209.61 0 0)
(209.626 0 0)
(209.637 0 0)
(209.65 0 0)
(209.669 0 0)
(209.688 0 0)
(209.714 0 0)
(209.748 0 0)
(209.777 0 0)
(209.797 0 0)
(209.815 0 0)
(209.834 0 0)
(209.853 0 0)
(209.877 0 0)
(209.914 0 0)
(209.951 0 0)
(209.973 0 0)
(209.99 0 0)
(210.008 0 0)
(210.026 0 0)
(210.045 0 0)
(210.071 0 0)
(210.113 0 0)
(210.15 0 0)
(210.171 0 0)
(210.187 0 0)
(210.2 0 0)
(210.215 0 0)
(210.234 0 0)
(210.253 0 0)
(210.278 0 0)
(210.323 0 0)
(210.372 0 0)
(210.398 0 0)
(210.416 0 0)
(210.426 0 0)
(210.436 0 0)
(210.453 0 0)
(210.472 0 0)
(210.491 0 0)
(210.511 0 0)
(210.539 0 0)
(210.587 0 0)
(210.637 0 0)
(210.663 0 0)
(210.68 0 0)
(210.69 0 0)
(210.699 0 0)
(210.717 0 0)
(210.736 0 0)
(210.761 0 0)
(210.806 0 0)
(210.857 0 0)
(210.885 0 0)
(210.901 0 0)
(210.909 0 0)
(210.912 0 0)
(210.927 0 0)
(210.945 0 0)
(210.966 0 0)
(211.004 0 0)
(211.068 0 0)
(211.123 0 0)
(211.15 0 0)
(211.166 0 0)
(211.172 0 0)
(211.165 0 0)
(211.172 0 0)
(211.189 0 0)
(211.208 0 0)
(211.228 0 0)
(211.26 0 0)
(211.315 0 0)
(211.368 0 0)
(211.395 0 0)
(211.412 0 0)
(211.421 0 0)
(211.427 0 0)
(211.443 0 0)
(211.462 0 0)
(211.482 0 0)
(211.517 0 0)
(211.571 0 0)
(211.614 0 0)
(211.635 0 0)
(211.65 0 0)
(211.661 0 0)
(211.677 0 0)
(211.696 0 0)
(211.716 0 0)
(211.739 0 0)
(211.765 0 0)
(211.785 0 0)
(211.804 0 0)
(211.823 0 0)
(211.843 0 0)
(211.868 0 0)
(211.913 0 0)
(211.962 0 0)
(211.987 0 0)
(212.003 0 0)
(212.014 0 0)
(212.026 0 0)
(212.044 0 0)
(212.064 0 0)
(212.091 0 0)
(212.137 0 0)
(212.184 0 0)
(212.207 0 0)
(212.224 0 0)
(212.235 0 0)
(212.25 0 0)
(212.269 0 0)
(212.289 0 0)
(212.319 0 0)
(212.361 0 0)
(212.392 0 0)
(212.411 0 0)
(212.428 0 0)
(212.446 0 0)
(212.465 0 0)
(212.487 0 0)
(212.519 0 0)
(212.556 0 0)
(212.58 0 0)
(212.599 0 0)
(212.614 0 0)
(212.626 0 0)
(212.642 0 0)
(212.661 0 0)
(212.681 0 0)
(212.702 0 0)
(212.738 0 0)
(212.796 0 0)
(212.845 0 0)
(212.869 0 0)
(212.886 0 0)
(212.895 0 0)
(212.905 0 0)
(212.923 0 0)
(212.942 0 0)
(212.963 0 0)
(212.995 0 0)
(213.034 0 0)
(213.058 0 0)
(213.077 0 0)
(213.096 0 0)
(213.115 0 0)
(213.135 0 0)
(213.16 0 0)
(213.188 0 0)
(213.21 0 0)
(213.229 0 0)
(213.248 0 0)
(213.267 0 0)
(213.286 0 0)
(213.307 0 0)
(213.345 0 0)
(213.407 0 0)
(213.457 0 0)
(213.48 0 0)
(213.496 0 0)
(213.501 0 0)
(213.497 0 0)
(213.509 0 0)
(213.527 0 0)
(213.547 0 0)
(213.572 0 0)
(213.619 0 0)
(213.682 0 0)
(213.721 0 0)
(213.741 0 0)
(213.754 0 0)
(213.753 0 0)
(213.752 0 0)
(213.767 0 0)
(213.786 0 0)
(213.806 0 0)
(213.829 0 0)
(213.871 0 0)
(213.937 0 0)
(213.986 0 0)
(214.009 0 0)
(214.025 0 0)
(214.031 0 0)
(214.03 0 0)
(214.044 0 0)
(214.062 0 0)
(214.082 0 0)
(214.107 0 0)
(214.152 0 0)
(214.206 0 0)
(214.236 0 0)
(214.254 0 0)
(214.266 0 0)
(214.272 0 0)
(214.287 0 0)
(214.306 0 0)
(214.326 0 0)
(214.357 0 0)
(214.407 0 0)
(214.445 0 0)
(214.465 0 0)
(214.48 0 0)
(214.49 0 0)
(214.506 0 0)
(214.525 0 0)
(214.545 0 0)
(214.579 0 0)
(214.629 0 0)
(214.663 0 0)
(214.682 0 0)
(214.696 0 0)
(214.707 0 0)
(214.724 0 0)
(214.743 0 0)
(214.766 0 0)
(214.802 0 0)
(214.845 0 0)
(214.87 0 0)
(214.888 0 0)
(214.903 0 0)
(214.918 0 0)
(214.937 0 0)
(214.957 0 0)
(214.99 0 0)
(215.042 0 0)
(215.087 0 0)
(215.109 0 0)
(215.125 0 0)
(215.133 0 0)
(215.145 0 0)
(215.163 0 0)
(215.183 0 0)
(215.207 0 0)
(215.243 0 0)
(215.279 0 0)
(215.301 0 0)
(215.319 0 0)
(215.335 0 0)
(215.354 0 0)
(215.373 0 0)
(215.395 0 0)
(215.433 0 0)
(215.483 0 0)
(215.514 0 0)
(215.532 0 0)
(215.543 0 0)
(215.545 0 0)
(215.557 0 0)
(215.576 0 0)
(215.595 0 0)
(215.621 0 0)
(215.669 0 0)
(215.73 0 0)
(215.765 0 0)
(215.785 0 0)
(215.797 0 0)
(215.798 0 0)
(215.803 0 0)
(215.82 0 0)
(215.84 0 0)
(215.86 0 0)
(215.891 0 0)
(215.942 0 0)
(215.989 0 0)
(216.012 0 0)
(216.028 0 0)
(216.039 0 0)
(216.052 0 0)
(216.07 0 0)
(216.09 0 0)
(216.119 0 0)
(216.171 0 0)
(216.223 0 0)
(216.25 0 0)
(216.267 0 0)
(216.275 0 0)
(216.272 0 0)
(216.282 0 0)
(216.3 0 0)
(216.32 0 0)
(216.342 0 0)
(216.382 0 0)
(216.438 0 0)
(216.475 0 0)
(216.495 0 0)
(216.509 0 0)
(216.518 0 0)
(216.534 0 0)
(216.553 0 0)
(216.573 0 0)
(216.608 0 0)
(216.663 0 0)
(216.706 0 0)
(216.727 0 0)
(216.742 0 0)
(216.746 0 0)
(216.752 0 0)
(216.768 0 0)
(216.788 0 0)
(216.808 0 0)
(216.842 0 0)
(216.894 0 0)
(216.934 0 0)
(216.955 0 0)
(216.971 0 0)
(216.981 0 0)
(216.996 0 0)
(217.015 0 0)
(217.035 0 0)
(217.062 0 0)
(217.1 0 0)
(217.131 0 0)
(217.151 0 0)
(217.17 0 0)
(217.188 0 0)
(217.207 0 0)
(217.227 0 0)
(217.256 0 0)
(217.304 0 0)
(217.348 0 0)
(217.37 0 0)
(217.385 0 0)
(217.391 0 0)
(217.398 0 0)
(217.415 0 0)
(217.435 0 0)
(217.456 0 0)
(217.494 0 0)
(217.55 0 0)
(217.59 0 0)
(217.611 0 0)
(217.625 0 0)
(217.631 0 0)
(217.642 0 0)
(217.66 0 0)
(217.68 0 0)
(217.704 0 0)
(217.747 0 0)
(217.8 0 0)
(217.831 0 0)
(217.849 0 0)
(217.861 0 0)
(217.866 0 0)
(217.88 0 0)
(217.899 0 0)
(217.919 0 0)
(217.949 0 0)
(218 0 0)
(218.047 0 0)
(218.071 0 0)
(218.087 0 0)
(218.095 0 0)
(218.101 0 0)
(218.118 0 0)
(218.137 0 0)
(218.158 0 0)
(218.192 0 0)
(218.245 0 0)
(218.287 0 0)
(218.308 0 0)
(218.323 0 0)
(218.332 0 0)
(218.345 0 0)
(218.364 0 0)
(218.384 0 0)
(218.411 0 0)
(218.457 0 0)
(218.501 0 0)
(218.524 0 0)
(218.541 0 0)
(218.548 0 0)
(218.556 0 0)
(218.574 0 0)
(218.593 0 0)
(218.615 0 0)
(218.655 0 0)
(218.713 0 0)
(218.754 0 0)
(218.774 0 0)
(218.789 0 0)
(218.791 0 0)
(218.792 0 0)
(218.808 0 0)
(218.827 0 0)
(218.847 0 0)
(218.877 0 0)
(218.931 0 0)
(218.991 0 0)
(219.023 0 0)
(219.041 0 0)
(219.054 0 0)
(219.057 0 0)
(219.068 0 0)
(219.086 0 0)
(219.106 0 0)
(219.129 0 0)
(219.17 0 0)
(219.225 0 0)
(219.26 0 0)
(219.279 0 0)
(219.293 0 0)
(219.295 0 0)
(219.3 0 0)
(219.317 0 0)
(219.337 0 0)
(219.356 0 0)
(219.377 0 0)
(219.408 0 0)
(219.463 0 0)
(219.52 0 0)
(219.549 0 0)
(219.567 0 0)
(219.579 0 0)
(219.58 0 0)
(219.59 0 0)
(219.608 0 0)
(219.628 0 0)
(219.649 0 0)
(219.682 0 0)
(219.736 0 0)
(219.783 0 0)
(219.807 0 0)
(219.824 0 0)
(219.835 0 0)
(219.849 0 0)
(219.868 0 0)
(219.888 0 0)
(219.914 0 0)
(219.95 0 0)
(219.981 0 0)
(220.001 0 0)
(220.019 0 0)
(220.033 0 0)
(220.048 0 0)
(220.067 0 0)
(220.087 0 0)
(220.113 0 0)
(220.161 0 0)
(220.216 0 0)
(220.247 0 0)
(220.265 0 0)
(220.276 0 0)
(220.276 0 0)
(220.285 0 0)
(220.304 0 0)
(220.323 0 0)
(220.346 0 0)
(220.385 0 0)
(220.444 0 0)
(220.487 0 0)
(220.509 0 0)
(220.525 0 0)
(220.532 0 0)
(220.539 0 0)
(220.557 0 0)
(220.576 0 0)
(220.597 0 0)
(220.628 0 0)
(220.678 0 0)
(220.717 0 0)
(220.737 0 0)
(220.753 0 0)
(220.766 0 0)
(220.782 0 0)
(220.802 0 0)
(220.823 0 0)
(220.854 0 0)
(220.897 0 0)
(220.927 0 0)
(220.947 0 0)
(220.964 0 0)
(220.979 0 0)
(220.998 0 0)
(221.018 0 0)
(221.04 0 0)
(221.075 0 0)
(221.115 0 0)
(221.139 0 0)
(221.158 0 0)
(221.175 0 0)
(221.192 0 0)
(221.212 0 0)
(221.231 0 0)
(221.258 0 0)
(221.303 0 0)
(221.346 0 0)
(221.369 0 0)
(221.386 0 0)
(221.399 0 0)
(221.415 0 0)
(221.434 0 0)
(221.455 0 0)
(221.481 0 0)
(221.521 0 0)
(221.554 0 0)
(221.575 0 0)
(221.593 0 0)
(221.612 0 0)
(221.631 0 0)
(221.651 0 0)
(221.674 0 0)
(221.702 0 0)
(221.726 0 0)
(221.747 0 0)
(221.766 0 0)
(221.786 0 0)
(221.806 0 0)
(221.832 0 0)
(221.877 0 0)
(221.923 0 0)
(221.946 0 0)
(221.964 0 0)
(221.974 0 0)
(221.977 0 0)
(221.991 0 0)
(222.01 0 0)
(222.03 0 0)
(222.05 0 0)
(222.071 0 0)
(222.105 0 0)
(222.166 0 0)
(222.231 0 0)
(222.263 0 0)
(222.283 0 0)
(222.296 0 0)
(222.294 0 0)
(222.29 0 0)
(222.305 0 0)
(222.324 0 0)
(222.344 0 0)
(222.367 0 0)
(222.408 0 0)
(222.471 0 0)
(222.518 0 0)
(222.541 0 0)
(222.558 0 0)
(222.566 0 0)
(222.565 0 0)
(222.577 0 0)
(222.596 0 0)
(222.616 0 0)
(222.638 0 0)
(222.676 0 0)
(222.73 0 0)
(222.767 0 0)
(222.787 0 0)
(222.803 0 0)
(222.812 0 0)
(222.826 0 0)
(222.846 0 0)
(222.866 0 0)
(222.891 0 0)
(222.935 0 0)
(222.983 0 0)
(223.009 0 0)
(223.027 0 0)
(223.041 0 0)
(223.057 0 0)
(223.077 0 0)
(223.097 0 0)
(223.124 0 0)
(223.157 0 0)
(223.184 0 0)
(223.204 0 0)
(223.222 0 0)
(223.24 0 0)
(223.259 0 0)
(223.279 0 0)
(223.3 0 0)
(223.333 0 0)
(223.386 0 0)
(223.427 0 0)
(223.449 0 0)
(223.465 0 0)
(223.474 0 0)
(223.485 0 0)
(223.503 0 0)
(223.523 0 0)
(223.545 0 0)
(223.582 0 0)
(223.629 0 0)
(223.658 0 0)
(223.677 0 0)
(223.689 0 0)
(223.693 0 0)
(223.705 0 0)
(223.724 0 0)
(223.744 0 0)
(223.769 0 0)
(223.813 0 0)
(223.877 0 0)
(223.92 0 0)
(223.942 0 0)
(223.958 0 0)
(223.966 0 0)
(223.971 0 0)
(223.988 0 0)
(224.008 0 0)
(224.028 0 0)
(224.051 0 0)
(224.079 0 0)
(224.105 0 0)
(224.125 0 0)
(224.145 0 0)
(224.165 0 0)
(224.185 0 0)
(224.205 0 0)
(224.236 0 0)
(224.289 0 0)
(224.345 0 0)
(224.374 0 0)
(224.393 0 0)
(224.406 0 0)
(224.412 0 0)
(224.425 0 0)
(224.444 0 0)
(224.464 0 0)
(224.484 0 0)
(224.505 0 0)
(224.529 0 0)
(224.556 0 0)
(224.58 0 0)
(224.603 0 0)
(224.626 0 0)
(224.662 0 0)
(224.715 0 0)
(224.756 0 0)
(224.777 0 0)
(224.794 0 0)
(224.801 0 0)
(224.803 0 0)
(224.819 0 0)
(224.838 0 0)
(224.858 0 0)
(224.883 0 0)
(224.928 0 0)
(224.985 0 0)
(225.018 0 0)
(225.037 0 0)
(225.052 0 0)
(225.058 0 0)
(225.071 0 0)
(225.09 0 0)
(225.11 0 0)
(225.133 0 0)
(225.174 0 0)
(225.228 0 0)
(225.261 0 0)
(225.28 0 0)
(225.294 0 0)
(225.294 0 0)
(225.295 0 0)
(225.311 0 0)
(225.331 0 0)
(225.351 0 0)
(225.372 0 0)
(225.405 0 0)
(225.462 0 0)
(225.526 0 0)
(225.559 0 0)
(225.578 0 0)
(225.593 0 0)
(225.596 0 0)
(225.602 0 0)
(225.619 0 0)
(225.639 0 0)
(225.659 0 0)
(225.687 0 0)
(225.736 0 0)
(225.795 0 0)
(225.827 0 0)
(225.847 0 0)
(225.861 0 0)
(225.867 0 0)
(225.879 0 0)
(225.898 0 0)
(225.918 0 0)
(225.939 0 0)
(225.962 0 0)
(225.985 0 0)
(226.006 0 0)
(226.026 0 0)
(226.045 0 0)
(226.063 0 0)
(226.081 0 0)
(226.101 0 0)
(226.121 0 0)
(226.142 0 0)
(226.175 0 0)
(226.234 0 0)
(226.298 0 0)
(226.331 0 0)
(226.351 0 0)
(226.366 0 0)
(226.368 0 0)
(226.37 0 0)
(226.386 0 0)
(226.406 0 0)
(226.426 0 0)
(226.449 0 0)
(226.487 0 0)
(226.542 0 0)
(226.58 0 0)
(226.601 0 0)
(226.617 0 0)
(226.63 0 0)
(226.646 0 0)
(226.666 0 0)
(226.686 0 0)
(226.711 0 0)
(226.742 0 0)
(226.771 0 0)
(226.792 0 0)
(226.812 0 0)
(226.832 0 0)
(226.852 0 0)
(226.872 0 0)
(226.902 0 0)
(226.95 0 0)
(226.995 0 0)
(227.019 0 0)
(227.037 0 0)
(227.049 0 0)
(227.062 0 0)
(227.08 0 0)
(227.1 0 0)
(227.122 0 0)
(227.146 0 0)
(227.171 0 0)
(227.192 0 0)
(227.212 0 0)
(227.231 0 0)
(227.249 0 0)
(227.268 0 0)
(227.288 0 0)
(227.308 0 0)
(227.332 0 0)
(227.374 0 0)
(227.441 0 0)
(227.491 0 0)
(227.516 0 0)
(227.534 0 0)
(227.544 0 0)
(227.537 0 0)
(227.537 0 0)
(227.554 0 0)
(227.574 0 0)
(227.594 0 0)
(227.614 0 0)
(227.635 0 0)
(227.658 0 0)
(227.7 0 0)
(227.774 0 0)
(227.841 0 0)
(227.872 0 0)
(227.892 0 0)
(227.906 0 0)
(227.907 0 0)
(227.897 0 0)
(227.907 0 0)
(227.926 0 0)
(227.946 0 0)
(227.966 0 0)
(227.987 0 0)
(228.007 0 0)
(228.027 0 0)
(228.048 0 0)
(228.075 0 0)
(228.123 0 0)
(228.194 0 0)
(228.24 0 0)
(228.263 0 0)
(228.281 0 0)
(228.29 0 0)
(228.291 0 0)
(228.304 0 0)
(228.323 0 0)
(228.343 0 0)
(228.364 0 0)
(228.391 0 0)
(228.429 0 0)
(228.463 0 0)
(228.485 0 0)
(228.504 0 0)
(228.523 0 0)
(228.543 0 0)
(228.563 0 0)
(228.585 0 0)
(228.61 0 0)
(228.639 0 0)
(228.662 0 0)
(228.682 0 0)
(228.702 0 0)
(228.723 0 0)
(228.746 0 0)
(228.786 0 0)
(228.835 0 0)
(228.862 0 0)
(228.881 0 0)
(228.896 0 0)
(228.905 0 0)
(228.922 0 0)
(228.942 0 0)
(228.962 0 0)
(228.988 0 0)
(229.033 0 0)
(229.083 0 0)
(229.11 0 0)
(229.129 0 0)
(229.142 0 0)
(229.149 0 0)
(229.165 0 0)
(229.185 0 0)
(229.205 0 0)
(229.227 0 0)
(229.262 0 0)
(229.308 0 0)
(229.337 0 0)
(229.357 0 0)
(229.376 0 0)
(229.396 0 0)
(229.416 0 0)
(229.439 0 0)
(229.463 0 0)
(229.485 0 0)
(229.505 0 0)
(229.524 0 0)
(229.543 0 0)
(229.563 0 0)
(229.583 0 0)
(229.605 0 0)
(229.636 0 0)
(229.689 0 0)
(229.74 0 0)
(229.766 0 0)
(229.784 0 0)
(229.796 0 0)
(229.797 0 0)
(229.807 0 0)
(229.826 0 0)
(229.846 0 0)
(229.868 0 0)
(229.9 0 0)
(229.954 0 0)
(230.007 0 0)
(230.034 0 0)
(230.053 0 0)
(230.066 0 0)
(230.074 0 0)
(230.089 0 0)
(230.109 0 0)
(230.13 0 0)
(230.151 0 0)
(230.178 0 0)
(230.205 0 0)
(230.226 0 0)
(230.247 0 0)
(230.267 0 0)
(230.287 0 0)
(230.309 0 0)
(230.342 0 0)
(230.394 0 0)
(230.432 0 0)
(230.454 0 0)
(230.471 0 0)
(230.487 0 0)
(230.505 0 0)
(230.526 0 0)
(230.548 0 0)
(230.577 0 0)
(230.61 0 0)
(230.634 0 0)
(230.654 0 0)
(230.671 0 0)
(230.679 0 0)
(230.683 0 0)
(230.698 0 0)
(230.718 0 0)
(230.738 0 0)
(230.761 0 0)
(230.797 0 0)
(230.861 0 0)
(230.93 0 0)
(230.964 0 0)
(230.985 0 0)
(231 0 0)
(231.004 0 0)
(230.997 0 0)
(231.009 0 0)
(231.028 0 0)
(231.048 0 0)
(231.069 0 0)
(231.095 0 0)
(231.141 0 0)
(231.204 0 0)
(231.243 0 0)
(231.265 0 0)
(231.282 0 0)
(231.293 0 0)
(231.305 0 0)
(231.323 0 0)
(231.343 0 0)
(231.364 0 0)
(231.384 0 0)
(231.404 0 0)
(231.425 0 0)
(231.445 0 0)
(231.465 0 0)
(231.485 0 0)
(231.505 0 0)
(231.526 0 0)
(231.554 0 0)
(231.603 0 0)
(231.66 0 0)
(231.691 0 0)
(231.711 0 0)
(231.726 0 0)
(231.731 0 0)
(231.741 0 0)
(231.759 0 0)
(231.779 0 0)
(231.801 0 0)
(231.832 0 0)
(231.888 0 0)
(231.945 0 0)
(231.975 0 0)
(231.995 0 0)
(232.009 0 0)
(232.01 0 0)
(232.01 0 0)
(232.026 0 0)
(232.045 0 0)
(232.066 0 0)
(232.086 0 0)
(232.106 0 0)
(232.127 0 0)
(232.148 0 0)
(232.176 0 0)
(232.225 0 0)
(232.283 0 0)
(232.315 0 0)
(232.335 0 0)
(232.351 0 0)
(232.357 0 0)
(232.364 0 0)
(232.382 0 0)
(232.402 0 0)
(232.422 0 0)
(232.444 0 0)
(232.475 0 0)
(232.527 0 0)
(232.58 0 0)
(232.607 0 0)
(232.626 0 0)
(232.64 0 0)
(232.646 0 0)
(232.66 0 0)
(232.679 0 0)
(232.7 0 0)
(232.722 0 0)
(232.759 0 0)
(232.817 0 0)
(232.859 0 0)
(232.881 0 0)
(232.899 0 0)
(232.907 0 0)
(232.901 0 0)
(232.91 0 0)
(232.928 0 0)
(232.949 0 0)
(232.97 0 0)
(232.994 0 0)
(233.037 0 0)
(233.098 0 0)
(233.138 0 0)
(233.159 0 0)
(233.177 0 0)
(233.184 0 0)
(233.175 0 0)
(233.182 0 0)
(233.2 0 0)
(233.221 0 0)
(233.241 0 0)
(233.265 0 0)
(233.304 0 0)
(233.374 0 0)
(233.436 0 0)
(233.466 0 0)
(233.486 0 0)
(233.5 0 0)
(233.501 0 0)
(233.495 0 0)
(233.508 0 0)
(233.527 0 0)
(233.548 0 0)
(233.569 0 0)
(233.596 0 0)
(233.644 0 0)
(233.711 0 0)
(233.751 0 0)
(233.773 0 0)
(233.791 0 0)
(233.802 0 0)
(233.812 0 0)
(233.83 0 0)
(233.85 0 0)
(233.871 0 0)
(233.893 0 0)
(233.919 0 0)
(233.945 0 0)
(233.966 0 0)
(233.987 0 0)
(234.007 0 0)
(234.028 0 0)
(234.052 0 0)
(234.086 0 0)
(234.125 0 0)
(234.15 0 0)
(234.171 0 0)
(234.188 0 0)
(234.2 0 0)
(234.213 0 0)
(234.232 0 0)
(234.252 0 0)
(234.273 0 0)
(234.303 0 0)
(234.353 0 0)
(234.408 0 0)
(234.437 0 0)
(234.456 0 0)
(234.471 0 0)
(234.473 0 0)
(234.479 0 0)
(234.496 0 0)
(234.517 0 0)
(234.538 0 0)
(234.564 0 0)
(234.609 0 0)
(234.669 0 0)
(234.706 0 0)
(234.727 0 0)
(234.743 0 0)
(234.751 0 0)
(234.754 0 0)
(234.77 0 0)
(234.79 0 0)
(234.81 0 0)
(234.833 0 0)
(234.867 0 0)
(234.921 0 0)
(234.963 0 0)
(234.985 0 0)
(235.004 0 0)
(235.017 0 0)
(235.029 0 0)
(235.048 0 0)
(235.069 0 0)
(235.09 0 0)
(235.118 0 0)
(235.157 0 0)
(235.191 0 0)
(235.213 0 0)
(235.232 0 0)
(235.249 0 0)
(235.261 0 0)
(235.278 0 0)
(235.298 0 0)
(235.319 0 0)
(235.339 0 0)
(235.36 0 0)
(235.381 0 0)
(235.402 0 0)
(235.434 0 0)
(235.488 0 0)
(235.544 0 0)
(235.573 0 0)
(235.593 0 0)
(235.608 0 0)
(235.614 0 0)
(235.625 0 0)
(235.643 0 0)
(235.664 0 0)
(235.685 0 0)
(235.71 0 0)
(235.754 0 0)
(235.807 0 0)
(235.837 0 0)
(235.857 0 0)
(235.873 0 0)
(235.884 0 0)
(235.898 0 0)
(235.918 0 0)
(235.938 0 0)
(235.959 0 0)
(235.981 0 0)
(236.003 0 0)
(236.024 0 0)
(236.044 0 0)
(236.065 0 0)
(236.086 0 0)
(236.107 0 0)
(236.129 0 0)
(236.164 0 0)
(236.226 0 0)
(236.287 0 0)
(236.318 0 0)
(236.338 0 0)
(236.354 0 0)
(236.357 0 0)
(236.347 0 0)
(236.357 0 0)
(236.376 0 0)
(236.397 0 0)
(236.417 0 0)
(236.439 0 0)
(236.471 0 0)
(236.523 0 0)
(236.567 0 0)
(236.59 0 0)
(236.609 0 0)
(236.621 0 0)
(236.625 0 0)
(236.639 0 0)
(236.659 0 0)
(236.679 0 0)
(236.701 0 0)
(236.731 0 0)
(236.784 0 0)
(236.84 0 0)
(236.87 0 0)
(236.89 0 0)
(236.906 0 0)
(236.908 0 0)
(236.906 0 0)
(236.922 0 0)
(236.942 0 0)
(236.963 0 0)
(236.987 0 0)
(237.026 0 0)
(237.095 0 0)
(237.157 0 0)
(237.186 0 0)
(237.206 0 0)
(237.221 0 0)
(237.222 0 0)
(237.206 0 0)
(237.214 0 0)
(237.233 0 0)
(237.254 0 0)
(237.275 0 0)
(237.299 0 0)
(237.339 0 0)
(237.405 0 0)
(237.459 0 0)
(237.485 0 0)
(237.504 0 0)
(237.518 0 0)
(237.52 0 0)
(237.527 0 0)
(237.545 0 0)
(237.565 0 0)
(237.586 0 0)
(237.61 0 0)
(237.648 0 0)
(237.704 0 0)
(237.742 0 0)
(237.763 0 0)
(237.781 0 0)
(237.79 0 0)
(237.784 0 0)
(237.792 0 0)
(237.811 0 0)
(237.831 0 0)
(237.852 0 0)
(237.873 0 0)
(237.902 0 0)
(237.952 0 0)
(238.021 0 0)
(238.061 0 0)
(238.083 0 0)
(238.102 0 0)
(238.112 0 0)
(238.11 0 0)
(238.119 0 0)
(238.138 0 0)
(238.158 0 0)
(238.179 0 0)
(238.202 0 0)
(238.239 0 0)
(238.299 0 0)
(238.346 0 0)
(238.371 0 0)
(238.39 0 0)
(238.404 0 0)
(238.405 0 0)
(238.413 0 0)
(238.431 0 0)
(238.452 0 0)
(238.472 0 0)
(238.493 0 0)
(238.514 0 0)
(238.535 0 0)
(238.558 0 0)
(238.594 0 0)
(238.656 0 0)
(238.716 0 0)
(238.746 0 0)
(238.767 0 0)
(238.783 0 0)
(238.79 0 0)
(238.789 0 0)
(238.804 0 0)
(238.824 0 0)
(238.844 0 0)
(238.865 0 0)
(238.886 0 0)
(238.907 0 0)
(238.927 0 0)
(238.948 0 0)
(238.969 0 0)
(238.992 0 0)
(239.027 0 0)
(239.083 0 0)
(239.131 0 0)
(239.155 0 0)
(239.175 0 0)
(239.189 0 0)
(239.194 0 0)
(239.206 0 0)
(239.225 0 0)
(239.246 0 0)
(239.267 0 0)
(239.293 0 0)
(239.335 0 0)
(239.386 0 0)
(239.415 0 0)
(239.435 0 0)
(239.452 0 0)
(239.46 0 0)
(239.473 0 0)
(239.493 0 0)
(239.514 0 0)
(239.535 0 0)
(239.564 0 0)
(239.612 0 0)
(239.665 0 0)
(239.693 0 0)
(239.713 0 0)
(239.73 0 0)
(239.738 0 0)
(239.749 0 0)
(239.768 0 0)
(239.789 0 0)
(239.81 0 0)
(239.83 0 0)
(239.851 0 0)
(239.872 0 0)
(239.895 0 0)
(239.926 0 0)
(239.973 0 0)
(240.01 0 0)
(240.032 0 0)
(240.052 0 0)
(240.069 0 0)
(240.087 0 0)
(240.108 0 0)
(240.128 0 0)
(240.15 0 0)
(240.172 0 0)
(240.202 0 0)
(240.236 0 0)
(240.261 0 0)
(240.282 0 0)
(240.302 0 0)
(240.322 0 0)
(240.342 0 0)
(240.363 0 0)
(240.384 0 0)
(240.406 0 0)
(240.439 0 0)
(240.491 0 0)
(240.534 0 0)
(240.557 0 0)
(240.577 0 0)
(240.59 0 0)
(240.591 0 0)
(240.599 0 0)
(240.617 0 0)
(240.638 0 0)
(240.659 0 0)
(240.68 0 0)
(240.701 0 0)
(240.723 0 0)
(240.753 0 0)
(240.806 0 0)
(240.868 0 0)
(240.901 0 0)
(240.922 0 0)
(240.94 0 0)
(240.951 0 0)
(240.961 0 0)
(240.98 0 0)
(241.001 0 0)
(241.022 0 0)
(241.046 0 0)
(241.077 0 0)
(241.106 0 0)
(241.129 0 0)
(241.149 0 0)
(241.169 0 0)
(241.187 0 0)
(241.206 0 0)
(241.226 0 0)
(241.247 0 0)
(241.269 0 0)
(241.301 0 0)
(241.351 0 0)
(241.392 0 0)
(241.415 0 0)
(241.434 0 0)
(241.447 0 0)
(241.455 0 0)
(241.471 0 0)
(241.491 0 0)
(241.512 0 0)
(241.534 0 0)
(241.566 0 0)
(241.617 0 0)
(241.66 0 0)
(241.684 0 0)
(241.703 0 0)
(241.718 0 0)
(241.731 0 0)
(241.75 0 0)
(241.771 0 0)
(241.792 0 0)
(241.819 0 0)
(241.86 0 0)
(241.901 0 0)
(241.925 0 0)
(241.945 0 0)
(241.961 0 0)
(241.963 0 0)
(241.964 0 0)
(241.981 0 0)
(242.001 0 0)
(242.022 0 0)
(242.043 0 0)
(242.064 0 0)
(242.086 0 0)
(242.115 0 0)
(242.166 0 0)
(242.239 0 0)
(242.282 0 0)
(242.305 0 0)
(242.324 0 0)
(242.337 0 0)
(242.334 0 0)
(242.333 0 0)
(242.35 0 0)
(242.37 0 0)
(242.391 0 0)
(242.413 0 0)
(242.44 0 0)
(242.486 0 0)
(242.547 0 0)
(242.582 0 0)
(242.603 0 0)
(242.622 0 0)
(242.632 0 0)
(242.638 0 0)
(242.654 0 0)
(242.674 0 0)
(242.696 0 0)
(242.718 0 0)
(242.749 0 0)
(242.8 0 0)
(242.85 0 0)
(242.875 0 0)
(242.896 0 0)
(242.911 0 0)
(242.914 0 0)
(242.916 0 0)
(242.932 0 0)
(242.953 0 0)
(242.974 0 0)
(242.995 0 0)
(243.016 0 0)
(243.038 0 0)
(243.065 0 0)
(243.111 0 0)
(243.168 0 0)
(243.201 0 0)
(243.222 0 0)
(243.24 0 0)
(243.25 0 0)
(243.257 0 0)
(243.275 0 0)
(243.295 0 0)
(243.316 0 0)
(243.338 0 0)
(243.37 0 0)
(243.421 0 0)
(243.464 0 0)
(243.487 0 0)
(243.507 0 0)
(243.521 0 0)
(243.527 0 0)
(243.541 0 0)
(243.561 0 0)
(243.582 0 0)
(243.603 0 0)
(243.63 0 0)
(243.675 0 0)
(243.726 0 0)
(243.754 0 0)
(243.775 0 0)
(243.792 0 0)
(243.804 0 0)
(243.82 0 0)
(243.841 0 0)
(243.862 0 0)
(243.884 0 0)
(243.916 0 0)
(243.966 0 0)
(244.006 0 0)
(244.028 0 0)
(244.047 0 0)
(244.059 0 0)
(244.054 0 0)
(244.053 0 0)
(244.07 0 0)
(244.091 0 0)
(244.112 0 0)
(244.133 0 0)
(244.154 0 0)
(244.176 0 0)
(244.204 0 0)
(244.251 0 0)
(244.331 0 0)
(244.385 0 0)
(244.412 0 0)
(244.432 0 0)
(244.449 0 0)
(244.453 0 0)
(244.44 0 0)
(244.448 0 0)
(244.466 0 0)
(244.487 0 0)
(244.509 0 0)
(244.53 0 0)
(244.558 0 0)
(244.606 0 0)
(244.666 0 0)
(244.7 0 0)
(244.721 0 0)
(244.74 0 0)
(244.752 0 0)
(244.758 0 0)
(244.774 0 0)
(244.795 0 0)
(244.816 0 0)
(244.838 0 0)
(244.866 0 0)
(244.915 0 0)
(244.977 0 0)
(245.012 0 0)
(245.034 0 0)
(245.053 0 0)
(245.064 0 0)
(245.056 0 0)
(245.053 0 0)
(245.07 0 0)
(245.09 0 0)
(245.111 0 0)
(245.132 0 0)
(245.153 0 0)
(245.174 0 0)
(245.196 0 0)
(245.217 0 0)
(245.241 0 0)
(245.276 0 0)
(245.34 0 0)
(245.409 0 0)
(245.443 0 0)
(245.464 0 0)
(245.483 0 0)
(245.494 0 0)
(245.49 0 0)
(245.497 0 0)
(245.515 0 0)
(245.536 0 0)
(245.558 0 0)
(245.58 0 0)
(245.609 0 0)
(245.652 0 0)