/*--------------------------------*- C++ -*----------------------------------*\
  =========                 |
  \\      /  F ield         | OpenFOAM: The Open Source CFD Toolbox
   \\    /   O peration     | Website:  https://openfoam.org
    \\  /    A nd           | Version:  9
     \\/     M anipulation  |
\*---------------------------------------------------------------------------*/
FoamFile
{
    format      ascii;
    class       volVectorField;
    location    "0.045";
    object      U;
}
// * * * * * * * * * * * * * * * * * * * * * * * * * * * * * * * * * * * * * //

dimensions      [0 1 -1 0 0 0 0];

internalField   nonuniform List<vector> 
10000
(
(6.66743 0 0)
(6.69763 0 0)
(6.73354 0 0)
(6.76317 0 0)
(6.78942 0 0)
(6.8156 0 0)
(6.84241 0 0)
(6.86948 0 0)
(6.89653 0 0)
(6.92352 0 0)
(6.95049 0 0)
(6.97747 0 0)
(7.00445 0 0)
(7.03144 0 0)
(7.05842 0 0)
(7.0854 0 0)
(7.11238 0 0)
(7.13937 0 0)
(7.16635 0 0)
(7.19333 0 0)
(7.22031 0 0)
(7.2473 0 0)
(7.27428 0 0)
(7.30126 0 0)
(7.32825 0 0)
(7.35523 0 0)
(7.38221 0 0)
(7.4092 0 0)
(7.43618 0 0)
(7.46316 0 0)
(7.49015 0 0)
(7.51713 0 0)
(7.54411 0 0)
(7.5711 0 0)
(7.59808 0 0)
(7.62507 0 0)
(7.65205 0 0)
(7.67904 0 0)
(7.70602 0 0)
(7.733 0 0)
(7.75999 0 0)
(7.78697 0 0)
(7.81396 0 0)
(7.84094 0 0)
(7.86793 0 0)
(7.89491 0 0)
(7.9219 0 0)
(7.94888 0 0)
(7.97587 0 0)
(8.00285 0 0)
(8.02984 0 0)
(8.05682 0 0)
(8.08381 0 0)
(8.11079 0 0)
(8.13778 0 0)
(8.16477 0 0)
(8.19175 0 0)
(8.21874 0 0)
(8.24572 0 0)
(8.27271 0 0)
(8.2997 0 0)
(8.32668 0 0)
(8.35367 0 0)
(8.38065 0 0)
(8.40764 0 0)
(8.43463 0 0)
(8.46161 0 0)
(8.4886 0 0)
(8.51559 0 0)
(8.54257 0 0)
(8.56956 0 0)
(8.59655 0 0)
(8.62353 0 0)
(8.65052 0 0)
(8.67751 0 0)
(8.70449 0 0)
(8.73148 0 0)
(8.75847 0 0)
(8.78545 0 0)
(8.81244 0 0)
(8.83943 0 0)
(8.86641 0 0)
(8.8934 0 0)
(8.92039 0 0)
(8.94738 0 0)
(8.97436 0 0)
(9.00135 0 0)
(9.02834 0 0)
(9.05533 0 0)
(9.08231 0 0)
(9.1093 0 0)
(9.13629 0 0)
(9.16328 0 0)
(9.19026 0 0)
(9.21725 0 0)
(9.24424 0 0)
(9.27123 0 0)
(9.29822 0 0)
(9.3252 0 0)
(9.35219 0 0)
(9.37918 0 0)
(9.40617 0 0)
(9.43316 0 0)
(9.46014 0 0)
(9.48713 0 0)
(9.51412 0 0)
(9.54111 0 0)
(9.5681 0 0)
(9.59508 0 0)
(9.62207 0 0)
(9.64906 0 0)
(9.67605 0 0)
(9.70304 0 0)
(9.73003 0 0)
(9.75702 0 0)
(9.784 0 0)
(9.81099 0 0)
(9.83798 0 0)
(9.86497 0 0)
(9.89196 0 0)
(9.91895 0 0)
(9.94594 0 0)
(9.97292 0 0)
(9.99991 0 0)
(10.0269 0 0)
(10.0539 0 0)
(10.0809 0 0)
(10.1079 0 0)
(10.1349 0 0)
(10.1618 0 0)
(10.1888 0 0)
(10.2158 0 0)
(10.2428 0 0)
(10.2698 0 0)
(10.2968 0 0)
(10.3238 0 0)
(10.3508 0 0)
(10.3778 0 0)
(10.4047 0 0)
(10.4317 0 0)
(10.4587 0 0)
(10.4857 0 0)
(10.5127 0 0)
(10.5397 0 0)
(10.5667 0 0)
(10.5937 0 0)
(10.6207 0 0)
(10.6476 0 0)
(10.6746 0 0)
(10.7016 0 0)
(10.7286 0 0)
(10.7556 0 0)
(10.7826 0 0)
(10.8096 0 0)
(10.8366 0 0)
(10.8636 0 0)
(10.8905 0 0)
(10.9175 0 0)
(10.9445 0 0)
(10.9715 0 0)
(10.9985 0 0)
(11.0255 0 0)
(11.0525 0 0)
(11.0795 0 0)
(11.1065 0 0)
(11.1334 0 0)
(11.1604 0 0)
(11.1874 0 0)
(11.2144 0 0)
(11.2414 0 0)
(11.2684 0 0)
(11.2954 0 0)
(11.3224 0 0)
(11.3494 0 0)
(11.3763 0 0)
(11.4033 0 0)
(11.4303 0 0)
(11.4573 0 0)
(11.4843 0 0)
(11.5113 0 0)
(11.5383 0 0)
(11.5653 0 0)
(11.5923 0 0)
(11.6192 0 0)
(11.6462 0 0)
(11.6732 0 0)
(11.7002 0 0)
(11.7272 0 0)
(11.7542 0 0)
(11.7812 0 0)
(11.8082 0 0)
(11.8352 0 0)
(11.8621 0 0)
(11.8891 0 0)
(11.9161 0 0)
(11.9431 0 0)
(11.9701 0 0)
(11.9971 0 0)
(12.0241 0 0)
(12.0511 0 0)
(12.0781 0 0)
(12.105 0 0)
(12.132 0 0)
(12.159 0 0)
(12.186 0 0)
(12.213 0 0)
(12.24 0 0)
(12.267 0 0)
(12.294 0 0)
(12.3209 0 0)
(12.3479 0 0)
(12.3749 0 0)
(12.4019 0 0)
(12.4289 0 0)
(12.4559 0 0)
(12.4829 0 0)
(12.5099 0 0)
(12.5368 0 0)
(12.5638 0 0)
(12.5908 0 0)
(12.6178 0 0)
(12.6448 0 0)
(12.6718 0 0)
(12.6988 0 0)
(12.7258 0 0)
(12.7527 0 0)
(12.7797 0 0)
(12.8067 0 0)
(12.8337 0 0)
(12.8607 0 0)
(12.8877 0 0)
(12.9147 0 0)
(12.9416 0 0)
(12.9686 0 0)
(12.9956 0 0)
(13.0226 0 0)
(13.0496 0 0)
(13.0766 0 0)
(13.1036 0 0)
(13.1306 0 0)
(13.1575 0 0)
(13.1845 0 0)
(13.2115 0 0)
(13.2385 0 0)
(13.2655 0 0)
(13.2925 0 0)
(13.3195 0 0)
(13.3464 0 0)
(13.3734 0 0)
(13.4004 0 0)
(13.4274 0 0)
(13.4544 0 0)
(13.4814 0 0)
(13.5083 0 0)
(13.5353 0 0)
(13.5623 0 0)
(13.5893 0 0)
(13.6163 0 0)
(13.6433 0 0)
(13.6703 0 0)
(13.6972 0 0)
(13.7242 0 0)
(13.7512 0 0)
(13.7782 0 0)
(13.8052 0 0)
(13.8322 0 0)
(13.8591 0 0)
(13.8861 0 0)
(13.9131 0 0)
(13.9401 0 0)
(13.9671 0 0)
(13.9941 0 0)
(14.021 0 0)
(14.048 0 0)
(14.075 0 0)
(14.102 0 0)
(14.129 0 0)
(14.156 0 0)
(14.1829 0 0)
(14.2099 0 0)
(14.2369 0 0)
(14.2639 0 0)
(14.2909 0 0)
(14.3179 0 0)
(14.3448 0 0)
(14.3718 0 0)
(14.3988 0 0)
(14.4258 0 0)
(14.4528 0 0)
(14.4797 0 0)
(14.5067 0 0)
(14.5337 0 0)
(14.5607 0 0)
(14.5877 0 0)
(14.6146 0 0)
(14.6416 0 0)
(14.6686 0 0)
(14.6956 0 0)
(14.7226 0 0)
(14.7495 0 0)
(14.7765 0 0)
(14.8035 0 0)
(14.8305 0 0)
(14.8575 0 0)
(14.8844 0 0)
(14.9114 0 0)
(14.9384 0 0)
(14.9654 0 0)
(14.9924 0 0)
(15.0193 0 0)
(15.0463 0 0)
(15.0733 0 0)
(15.1003 0 0)
(15.1273 0 0)
(15.1542 0 0)
(15.1812 0 0)
(15.2082 0 0)
(15.2352 0 0)
(15.2621 0 0)
(15.2891 0 0)
(15.3161 0 0)
(15.3431 0 0)
(15.3701 0 0)
(15.397 0 0)
(15.424 0 0)
(15.451 0 0)
(15.478 0 0)
(15.5049 0 0)
(15.5319 0 0)
(15.5589 0 0)
(15.5859 0 0)
(15.6128 0 0)
(15.6398 0 0)
(15.6668 0 0)
(15.6938 0 0)
(15.7207 0 0)
(15.7477 0 0)
(15.7747 0 0)
(15.8017 0 0)
(15.8286 0 0)
(15.8556 0 0)
(15.8826 0 0)
(15.9096 0 0)
(15.9365 0 0)
(15.9635 0 0)
(15.9905 0 0)
(16.0175 0 0)
(16.0444 0 0)
(16.0714 0 0)
(16.0984 0 0)
(16.1253 0 0)
(16.1523 0 0)
(16.1793 0 0)
(16.2063 0 0)
(16.2332 0 0)
(16.2602 0 0)
(16.2872 0 0)
(16.3141 0 0)
(16.3411 0 0)
(16.3681 0 0)
(16.3951 0 0)
(16.422 0 0)
(16.449 0 0)
(16.476 0 0)
(16.5029 0 0)
(16.5299 0 0)
(16.5569 0 0)
(16.5838 0 0)
(16.6108 0 0)
(16.6378 0 0)
(16.6647 0 0)
(16.6917 0 0)
(16.7187 0 0)
(16.7456 0 0)
(16.7726 0 0)
(16.7996 0 0)
(16.8266 0 0)
(16.8535 0 0)
(16.8805 0 0)
(16.9075 0 0)
(16.9344 0 0)
(16.9614 0 0)
(16.9883 0 0)
(17.0153 0 0)
(17.0423 0 0)
(17.0692 0 0)
(17.0962 0 0)
(17.1232 0 0)
(17.1501 0 0)
(17.1771 0 0)
(17.2041 0 0)
(17.231 0 0)
(17.258 0 0)
(17.285 0 0)
(17.3119 0 0)
(17.3389 0 0)
(17.3658 0 0)
(17.3928 0 0)
(17.4198 0 0)
(17.4467 0 0)
(17.4737 0 0)
(17.5007 0 0)
(17.5276 0 0)
(17.5546 0 0)
(17.5815 0 0)
(17.6085 0 0)
(17.6355 0 0)
(17.6624 0 0)
(17.6894 0 0)
(17.7163 0 0)
(17.7433 0 0)
(17.7703 0 0)
(17.7972 0 0)
(17.8242 0 0)
(17.8511 0 0)
(17.8781 0 0)
(17.905 0 0)
(17.932 0 0)
(17.959 0 0)
(17.9859 0 0)
(18.0129 0 0)
(18.0398 0 0)
(18.0668 0 0)
(18.0937 0 0)
(18.1207 0 0)
(18.1477 0 0)
(18.1746 0 0)
(18.2016 0 0)
(18.2285 0 0)
(18.2555 0 0)
(18.2824 0 0)
(18.3094 0 0)
(18.3363 0 0)
(18.3633 0 0)
(18.3902 0 0)
(18.4172 0 0)
(18.4441 0 0)
(18.4711 0 0)
(18.498 0 0)
(18.525 0 0)
(18.5519 0 0)
(18.5789 0 0)
(18.6058 0 0)
(18.6328 0 0)
(18.6597 0 0)
(18.6867 0 0)
(18.7136 0 0)
(18.7406 0 0)
(18.7675 0 0)
(18.7945 0 0)
(18.8214 0 0)
(18.8484 0 0)
(18.8753 0 0)
(18.9023 0 0)
(18.9292 0 0)
(18.9562 0 0)
(18.9831 0 0)
(19.0101 0 0)
(19.037 0 0)
(19.0639 0 0)
(19.0909 0 0)
(19.1178 0 0)
(19.1448 0 0)
(19.1717 0 0)
(19.1987 0 0)
(19.2256 0 0)
(19.2525 0 0)
(19.2795 0 0)
(19.3064 0 0)
(19.3334 0 0)
(19.3603 0 0)
(19.3873 0 0)
(19.4142 0 0)
(19.4411 0 0)
(19.4681 0 0)
(19.495 0 0)
(19.522 0 0)
(19.5489 0 0)
(19.5758 0 0)
(19.6028 0 0)
(19.6297 0 0)
(19.6566 0 0)
(19.6836 0 0)
(19.7105 0 0)
(19.7375 0 0)
(19.7644 0 0)
(19.7913 0 0)
(19.8183 0 0)
(19.8452 0 0)
(19.8721 0 0)
(19.8991 0 0)
(19.926 0 0)
(19.9529 0 0)
(19.9799 0 0)
(20.0068 0 0)
(20.0337 0 0)
(20.0607 0 0)
(20.0876 0 0)
(20.1145 0 0)
(20.1414 0 0)
(20.1684 0 0)
(20.1953 0 0)
(20.2222 0 0)
(20.2492 0 0)
(20.2761 0 0)
(20.303 0 0)
(20.3299 0 0)
(20.3569 0 0)
(20.3838 0 0)
(20.4107 0 0)
(20.4376 0 0)
(20.4646 0 0)
(20.4915 0 0)
(20.5184 0 0)
(20.5453 0 0)
(20.5723 0 0)
(20.5992 0 0)
(20.6261 0 0)
(20.653 0 0)
(20.68 0 0)
(20.7069 0 0)
(20.7338 0 0)
(20.7607 0 0)
(20.7876 0 0)
(20.8146 0 0)
(20.8415 0 0)
(20.8684 0 0)
(20.8953 0 0)
(20.9222 0 0)
(20.9491 0 0)
(20.9761 0 0)
(21.003 0 0)
(21.0299 0 0)
(21.0568 0 0)
(21.0837 0 0)
(21.1106 0 0)
(21.1376 0 0)
(21.1645 0 0)
(21.1914 0 0)
(21.2183 0 0)
(21.2452 0 0)
(21.2721 0 0)
(21.299 0 0)
(21.3259 0 0)
(21.3528 0 0)
(21.3798 0 0)
(21.4067 0 0)
(21.4336 0 0)
(21.4605 0 0)
(21.4874 0 0)
(21.5143 0 0)
(21.5412 0 0)
(21.5681 0 0)
(21.595 0 0)
(21.6219 0 0)
(21.6488 0 0)
(21.6757 0 0)
(21.7026 0 0)
(21.7295 0 0)
(21.7564 0 0)
(21.7833 0 0)
(21.8102 0 0)
(21.8371 0 0)
(21.864 0 0)
(21.8909 0 0)
(21.9178 0 0)
(21.9447 0 0)
(21.9716 0 0)
(21.9985 0 0)
(22.0254 0 0)
(22.0523 0 0)
(22.0792 0 0)
(22.1061 0 0)
(22.133 0 0)
(22.1599 0 0)
(22.1868 0 0)
(22.2137 0 0)
(22.2406 0 0)
(22.2675 0 0)
(22.2944 0 0)
(22.3213 0 0)
(22.3481 0 0)
(22.375 0 0)
(22.4019 0 0)
(22.4288 0 0)
(22.4557 0 0)
(22.4826 0 0)
(22.5095 0 0)
(22.5364 0 0)
(22.5632 0 0)
(22.5901 0 0)
(22.617 0 0)
(22.6439 0 0)
(22.6708 0 0)
(22.6977 0 0)
(22.7245 0 0)
(22.7514 0 0)
(22.7783 0 0)
(22.8052 0 0)
(22.8321 0 0)
(22.8589 0 0)
(22.8858 0 0)
(22.9127 0 0)
(22.9396 0 0)
(22.9665 0 0)
(22.9933 0 0)
(23.0202 0 0)
(23.0471 0 0)
(23.074 0 0)
(23.1008 0 0)
(23.1277 0 0)
(23.1546 0 0)
(23.1814 0 0)
(23.2083 0 0)
(23.2352 0 0)
(23.262 0 0)
(23.2889 0 0)
(23.3158 0 0)
(23.3427 0 0)
(23.3695 0 0)
(23.3964 0 0)
(23.4232 0 0)
(23.4501 0 0)
(23.477 0 0)
(23.5038 0 0)
(23.5307 0 0)
(23.5576 0 0)
(23.5844 0 0)
(23.6113 0 0)
(23.6381 0 0)
(23.665 0 0)
(23.6919 0 0)
(23.7187 0 0)
(23.7456 0 0)
(23.7724 0 0)
(23.7993 0 0)
(23.8261 0 0)
(23.853 0 0)
(23.8798 0 0)
(23.9067 0 0)
(23.9335 0 0)
(23.9604 0 0)
(23.9872 0 0)
(24.0141 0 0)
(24.0409 0 0)
(24.0678 0 0)
(24.0946 0 0)
(24.1215 0 0)
(24.1483 0 0)
(24.1752 0 0)
(24.202 0 0)
(24.2289 0 0)
(24.2557 0 0)
(24.2825 0 0)
(24.3094 0 0)
(24.3362 0 0)
(24.3631 0 0)
(24.3899 0 0)
(24.4167 0 0)
(24.4436 0 0)
(24.4704 0 0)
(24.4972 0 0)
(24.5241 0 0)
(24.5509 0 0)
(24.5777 0 0)
(24.6046 0 0)
(24.6314 0 0)
(24.6582 0 0)
(24.6851 0 0)
(24.7119 0 0)
(24.7387 0 0)
(24.7655 0 0)
(24.7924 0 0)
(24.8192 0 0)
(24.846 0 0)
(24.8728 0 0)
(24.8997 0 0)
(24.9265 0 0)
(24.9533 0 0)
(24.9801 0 0)
(25.0069 0 0)
(25.0338 0 0)
(25.0606 0 0)
(25.0874 0 0)
(25.1142 0 0)
(25.141 0 0)
(25.1678 0 0)
(25.1946 0 0)
(25.2215 0 0)
(25.2483 0 0)
(25.2751 0 0)
(25.3019 0 0)
(25.3287 0 0)
(25.3555 0 0)
(25.3823 0 0)
(25.4091 0 0)
(25.4359 0 0)
(25.4627 0 0)
(25.4895 0 0)
(25.5163 0 0)
(25.5431 0 0)
(25.5699 0 0)
(25.5967 0 0)
(25.6235 0 0)
(25.6503 0 0)
(25.6771 0 0)
(25.7039 0 0)
(25.7307 0 0)
(25.7575 0 0)
(25.7843 0 0)
(25.8111 0 0)
(25.8378 0 0)
(25.8646 0 0)
(25.8914 0 0)
(25.9182 0 0)
(25.945 0 0)
(25.9718 0 0)
(25.9986 0 0)
(26.0253 0 0)
(26.0521 0 0)
(26.0789 0 0)
(26.1057 0 0)
(26.1325 0 0)
(26.1592 0 0)
(26.186 0 0)
(26.2128 0 0)
(26.2396 0 0)
(26.2663 0 0)
(26.2931 0 0)
(26.3199 0 0)
(26.3466 0 0)
(26.3734 0 0)
(26.4002 0 0)
(26.4269 0 0)
(26.4537 0 0)
(26.4805 0 0)
(26.5072 0 0)
(26.534 0 0)
(26.5608 0 0)
(26.5875 0 0)
(26.6143 0 0)
(26.641 0 0)
(26.6678 0 0)
(26.6945 0 0)
(26.7213 0 0)
(26.748 0 0)
(26.7748 0 0)
(26.8015 0 0)
(26.8283 0 0)
(26.855 0 0)
(26.8818 0 0)
(26.9085 0 0)
(26.9353 0 0)
(26.962 0 0)
(26.9888 0 0)
(27.0155 0 0)
(27.0422 0 0)
(27.069 0 0)
(27.0957 0 0)
(27.1224 0 0)
(27.1492 0 0)
(27.1759 0 0)
(27.2026 0 0)
(27.2294 0 0)
(27.2561 0 0)
(27.2828 0 0)
(27.3095 0 0)
(27.3363 0 0)
(27.363 0 0)
(27.3897 0 0)
(27.4164 0 0)
(27.4432 0 0)
(27.4699 0 0)
(27.4966 0 0)
(27.5233 0 0)
(27.55 0 0)
(27.5767 0 0)
(27.6034 0 0)
(27.6302 0 0)
(27.6569 0 0)
(27.6836 0 0)
(27.7103 0 0)
(27.737 0 0)
(27.7637 0 0)
(27.7904 0 0)
(27.8171 0 0)
(27.8438 0 0)
(27.8705 0 0)
(27.8972 0 0)
(27.9239 0 0)
(27.9506 0 0)
(27.9773 0 0)
(28.004 0 0)
(28.0306 0 0)
(28.0573 0 0)
(28.084 0 0)
(28.1107 0 0)
(28.1374 0 0)
(28.1641 0 0)
(28.1907 0 0)
(28.2174 0 0)
(28.2441 0 0)
(28.2708 0 0)
(28.2975 0 0)
(28.3241 0 0)
(28.3508 0 0)
(28.3775 0 0)
(28.4041 0 0)
(28.4308 0 0)
(28.4575 0 0)
(28.4841 0 0)
(28.5108 0 0)
(28.5374 0 0)
(28.5641 0 0)
(28.5908 0 0)
(28.6174 0 0)
(28.6441 0 0)
(28.6707 0 0)
(28.6974 0 0)
(28.724 0 0)
(28.7507 0 0)
(28.7773 0 0)
(28.804 0 0)
(28.8306 0 0)
(28.8572 0 0)
(28.8839 0 0)
(28.9105 0 0)
(28.9372 0 0)
(28.9638 0 0)
(28.9904 0 0)
(29.0171 0 0)
(29.0437 0 0)
(29.0703 0 0)
(29.0969 0 0)
(29.1236 0 0)
(29.1502 0 0)
(29.1768 0 0)
(29.2034 0 0)
(29.23 0 0)
(29.2567 0 0)
(29.2833 0 0)
(29.3099 0 0)
(29.3365 0 0)
(29.3631 0 0)
(29.3897 0 0)
(29.4163 0 0)
(29.4429 0 0)
(29.4695 0 0)
(29.4961 0 0)
(29.5227 0 0)
(29.5493 0 0)
(29.5759 0 0)
(29.6025 0 0)
(29.6291 0 0)
(29.6557 0 0)
(29.6822 0 0)
(29.7088 0 0)
(29.7354 0 0)
(29.762 0 0)
(29.7886 0 0)
(29.8151 0 0)
(29.8417 0 0)
(29.8683 0 0)
(29.8949 0 0)
(29.9214 0 0)
(29.948 0 0)
(29.9746 0 0)
(30.0011 0 0)
(30.0277 0 0)
(30.0542 0 0)
(30.0808 0 0)
(30.1073 0 0)
(30.1339 0 0)
(30.1604 0 0)
(30.187 0 0)
(30.2135 0 0)
(30.2401 0 0)
(30.2666 0 0)
(30.2932 0 0)
(30.3197 0 0)
(30.3462 0 0)
(30.3728 0 0)
(30.3993 0 0)
(30.4258 0 0)
(30.4524 0 0)
(30.4789 0 0)
(30.5054 0 0)
(30.5319 0 0)
(30.5584 0 0)
(30.5849 0 0)
(30.6115 0 0)
(30.638 0 0)
(30.6645 0 0)
(30.691 0 0)
(30.7175 0 0)
(30.744 0 0)
(30.7705 0 0)
(30.797 0 0)
(30.8235 0 0)
(30.85 0 0)
(30.8765 0 0)
(30.903 0 0)
(30.9294 0 0)
(30.9559 0 0)
(30.9824 0 0)
(31.0089 0 0)
(31.0354 0 0)
(31.0618 0 0)
(31.0883 0 0)
(31.1148 0 0)
(31.1412 0 0)
(31.1677 0 0)
(31.1942 0 0)
(31.2206 0 0)
(31.2471 0 0)
(31.2735 0 0)
(31.3 0 0)
(31.3264 0 0)
(31.3529 0 0)
(31.3793 0 0)
(31.4057 0 0)
(31.4322 0 0)
(31.4586 0 0)
(31.4851 0 0)
(31.5115 0 0)
(31.5379 0 0)
(31.5643 0 0)
(31.5908 0 0)
(31.6172 0 0)
(31.6436 0 0)
(31.67 0 0)
(31.6964 0 0)
(31.7228 0 0)
(31.7492 0 0)
(31.7756 0 0)
(31.802 0 0)
(31.8284 0 0)
(31.8548 0 0)
(31.8812 0 0)
(31.9076 0 0)
(31.934 0 0)
(31.9604 0 0)
(31.9868 0 0)
(32.0131 0 0)
(32.0395 0 0)
(32.0659 0 0)
(32.0922 0 0)
(32.1186 0 0)
(32.145 0 0)
(32.1713 0 0)
(32.1977 0 0)
(32.224 0 0)
(32.2504 0 0)
(32.2767 0 0)
(32.3031 0 0)
(32.3294 0 0)
(32.3558 0 0)
(32.3821 0 0)
(32.4084 0 0)
(32.4348 0 0)
(32.4611 0 0)
(32.4874 0 0)
(32.5137 0 0)
(32.54 0 0)
(32.5664 0 0)
(32.5927 0 0)
(32.619 0 0)
(32.6453 0 0)
(32.6716 0 0)
(32.6979 0 0)
(32.7242 0 0)
(32.7505 0 0)
(32.7768 0 0)
(32.803 0 0)
(32.8293 0 0)
(32.8556 0 0)
(32.8819 0 0)
(32.9081 0 0)
(32.9344 0 0)
(32.9607 0 0)
(32.9869 0 0)
(33.0132 0 0)
(33.0394 0 0)
(33.0657 0 0)
(33.0919 0 0)
(33.1182 0 0)
(33.1444 0 0)
(33.1706 0 0)
(33.1969 0 0)
(33.2231 0 0)
(33.2493 0 0)
(33.2756 0 0)
(33.3018 0 0)
(33.328 0 0)
(33.3542 0 0)
(33.3804 0 0)
(33.4066 0 0)
(33.4328 0 0)
(33.459 0 0)
(33.4852 0 0)
(33.5114 0 0)
(33.5376 0 0)
(33.5637 0 0)
(33.5899 0 0)
(33.6161 0 0)
(33.6423 0 0)
(33.6684 0 0)
(33.6946 0 0)
(33.7207 0 0)
(33.7469 0 0)
(33.773 0 0)
(33.7992 0 0)
(33.8253 0 0)
(33.8514 0 0)
(33.8776 0 0)
(33.9037 0 0)
(33.9298 0 0)
(33.956 0 0)
(33.9821 0 0)
(34.0082 0 0)
(34.0343 0 0)
(34.0604 0 0)
(34.0865 0 0)
(34.1126 0 0)
(34.1387 0 0)
(34.1647 0 0)
(34.1908 0 0)
(34.2169 0 0)
(34.243 0 0)
(34.269 0 0)
(34.2951 0 0)
(34.3212 0 0)
(34.3472 0 0)
(34.3733 0 0)
(34.3993 0 0)
(34.4254 0 0)
(34.4514 0 0)
(34.4774 0 0)
(34.5034 0 0)
(34.5295 0 0)
(34.5555 0 0)
(34.5815 0 0)
(34.6075 0 0)
(34.6335 0 0)
(34.6595 0 0)
(34.6855 0 0)
(34.7115 0 0)
(34.7375 0 0)
(34.7635 0 0)
(34.7894 0 0)
(34.8154 0 0)
(34.8414 0 0)
(34.8673 0 0)
(34.8933 0 0)
(34.9192 0 0)
(34.9452 0 0)
(34.9711 0 0)
(34.997 0 0)
(35.023 0 0)
(35.0489 0 0)
(35.0748 0 0)
(35.1007 0 0)
(35.1266 0 0)
(35.1526 0 0)
(35.1785 0 0)
(35.2043 0 0)
(35.2302 0 0)
(35.2561 0 0)
(35.282 0 0)
(35.3079 0 0)
(35.3337 0 0)
(35.3596 0 0)
(35.3854 0 0)
(35.4113 0 0)
(35.4371 0 0)
(35.463 0 0)
(35.4888 0 0)
(35.5146 0 0)
(35.5405 0 0)
(35.5663 0 0)
(35.5921 0 0)
(35.6179 0 0)
(35.6437 0 0)
(35.6695 0 0)
(35.6953 0 0)
(35.721 0 0)
(35.7468 0 0)
(35.7726 0 0)
(35.7983 0 0)
(35.8241 0 0)
(35.8498 0 0)
(35.8756 0 0)
(35.9013 0 0)
(35.9271 0 0)
(35.9528 0 0)
(35.9785 0 0)
(36.0042 0 0)
(36.0299 0 0)
(36.0556 0 0)
(36.0813 0 0)
(36.107 0 0)
(36.1327 0 0)
(36.1583 0 0)
(36.184 0 0)
(36.2097 0 0)
(36.2353 0 0)
(36.261 0 0)
(36.2866 0 0)
(36.3123 0 0)
(36.3379 0 0)
(36.3635 0 0)
(36.3891 0 0)
(36.4147 0 0)
(36.4403 0 0)
(36.4659 0 0)
(36.4915 0 0)
(36.5171 0 0)
(36.5427 0 0)
(36.5682 0 0)
(36.5938 0 0)
(36.6193 0 0)
(36.6449 0 0)
(36.6704 0 0)
(36.6959 0 0)
(36.7215 0 0)
(36.747 0 0)
(36.7725 0 0)
(36.798 0 0)
(36.8235 0 0)
(36.849 0 0)
(36.8744 0 0)
(36.8999 0 0)
(36.9254 0 0)
(36.9508 0 0)
(36.9763 0 0)
(37.0017 0 0)
(37.0271 0 0)
(37.0526 0 0)
(37.078 0 0)
(37.1034 0 0)
(37.1288 0 0)
(37.1542 0 0)
(37.1796 0 0)
(37.2049 0 0)
(37.2303 0 0)
(37.2557 0 0)
(37.281 0 0)
(37.3064 0 0)
(37.3317 0 0)
(37.357 0 0)
(37.3823 0 0)
(37.4076 0 0)
(37.4329 0 0)
(37.4582 0 0)
(37.4835 0 0)
(37.5088 0 0)
(37.5341 0 0)
(37.5593 0 0)
(37.5846 0 0)
(37.6098 0 0)
(37.635 0 0)
(37.6603 0 0)
(37.6855 0 0)
(37.7107 0 0)
(37.7359 0 0)
(37.761 0 0)
(37.7862 0 0)
(37.8114 0 0)
(37.8365 0 0)
(37.8617 0 0)
(37.8868 0 0)
(37.912 0 0)
(37.9371 0 0)
(37.9622 0 0)
(37.9873 0 0)
(38.0124 0 0)
(38.0375 0 0)
(38.0625 0 0)
(38.0876 0 0)
(38.1126 0 0)
(38.1377 0 0)
(38.1627 0 0)
(38.1877 0 0)
(38.2127 0 0)
(38.2377 0 0)
(38.2627 0 0)
(38.2877 0 0)
(38.3127 0 0)
(38.3376 0 0)
(38.3626 0 0)
(38.3875 0 0)
(38.4125 0 0)
(38.4374 0 0)
(38.4623 0 0)
(38.4872 0 0)
(38.5121 0 0)
(38.5369 0 0)
(38.5618 0 0)
(38.5866 0 0)
(38.6115 0 0)
(38.6363 0 0)
(38.6611 0 0)
(38.6859 0 0)
(38.7107 0 0)
(38.7355 0 0)
(38.7603 0 0)
(38.7851 0 0)
(38.8098 0 0)
(38.8345 0 0)
(38.8593 0 0)
(38.884 0 0)
(38.9087 0 0)
(38.9334 0 0)
(38.958 0 0)
(38.9827 0 0)
(39.0074 0 0)
(39.032 0 0)
(39.0566 0 0)
(39.0813 0 0)
(39.1059 0 0)
(39.1305 0 0)
(39.155 0 0)
(39.1796 0 0)
(39.2042 0 0)
(39.2287 0 0)
(39.2532 0 0)
(39.2777 0 0)
(39.3022 0 0)
(39.3267 0 0)
(39.3512 0 0)
(39.3757 0 0)
(39.4001 0 0)
(39.4246 0 0)
(39.449 0 0)
(39.4734 0 0)
(39.4978 0 0)
(39.5222 0 0)
(39.5465 0 0)
(39.5709 0 0)
(39.5952 0 0)
(39.6196 0 0)
(39.6439 0 0)
(39.6682 0 0)
(39.6924 0 0)
(39.7167 0 0)
(39.741 0 0)
(39.7652 0 0)
(39.7894 0 0)
(39.8137 0 0)
(39.8379 0 0)
(39.862 0 0)
(39.8862 0 0)
(39.9104 0 0)
(39.9345 0 0)
(39.9586 0 0)
(39.9827 0 0)
(40.0068 0 0)
(40.0309 0 0)
(40.0549 0 0)
(40.079 0 0)
(40.103 0 0)
(40.127 0 0)
(40.151 0 0)
(40.175 0 0)
(40.199 0 0)
(40.2229 0 0)
(40.2469 0 0)
(40.2708 0 0)
(40.2947 0 0)
(40.3186 0 0)
(40.3424 0 0)
(40.3663 0 0)
(40.3901 0 0)
(40.4139 0 0)
(40.4377 0 0)
(40.4615 0 0)
(40.4853 0 0)
(40.509 0 0)
(40.5328 0 0)
(40.5565 0 0)
(40.5802 0 0)
(40.6039 0 0)
(40.6275 0 0)
(40.6512 0 0)
(40.6748 0 0)
(40.6984 0 0)
(40.722 0 0)
(40.7456 0 0)
(40.7691 0 0)
(40.7927 0 0)
(40.8162 0 0)
(40.8397 0 0)
(40.8631 0 0)
(40.8866 0 0)
(40.91 0 0)
(40.9335 0 0)
(40.9569 0 0)
(40.9803 0 0)
(41.0036 0 0)
(41.027 0 0)
(41.0503 0 0)
(41.0736 0 0)
(41.0969 0 0)
(41.1202 0 0)
(41.1434 0 0)
(41.1666 0 0)
(41.1898 0 0)
(41.213 0 0)
(41.2362 0 0)
(41.2593 0 0)
(41.2825 0 0)
(41.3056 0 0)
(41.3286 0 0)
(41.3517 0 0)
(41.3747 0 0)
(41.3978 0 0)
(41.4208 0 0)
(41.4437 0 0)
(41.4667 0 0)
(41.4896 0 0)
(41.5125 0 0)
(41.5354 0 0)
(41.5583 0 0)
(41.5812 0 0)
(41.604 0 0)
(41.6268 0 0)
(41.6496 0 0)
(41.6723 0 0)
(41.695 0 0)
(41.7178 0 0)
(41.7404 0 0)
(41.7631 0 0)
(41.7858 0 0)
(41.8084 0 0)
(41.831 0 0)
(41.8535 0 0)
(41.8761 0 0)
(41.8986 0 0)
(41.9211 0 0)
(41.9436 0 0)
(41.9661 0 0)
(41.9885 0 0)
(42.0109 0 0)
(42.0333 0 0)
(42.0556 0 0)
(42.078 0 0)
(42.1003 0 0)
(42.1225 0 0)
(42.1448 0 0)
(42.167 0 0)
(42.1892 0 0)
(42.2114 0 0)
(42.2336 0 0)
(42.2557 0 0)
(42.2778 0 0)
(42.2999 0 0)
(42.3219 0 0)
(42.344 0 0)
(42.366 0 0)
(42.3879 0 0)
(42.4099 0 0)
(42.4318 0 0)
(42.4537 0 0)
(42.4756 0 0)
(42.4974 0 0)
(42.5192 0 0)
(42.541 0 0)
(42.5628 0 0)
(42.5845 0 0)
(42.6062 0 0)
(42.6279 0 0)
(42.6495 0 0)
(42.6711 0 0)
(42.6927 0 0)
(42.7143 0 0)
(42.7358 0 0)
(42.7573 0 0)
(42.7788 0 0)
(42.8002 0 0)
(42.8217 0 0)
(42.8431 0 0)
(42.8644 0 0)
(42.8858 0 0)
(42.9071 0 0)
(42.9283 0 0)
(42.9496 0 0)
(42.9708 0 0)
(42.992 0 0)
(43.0131 0 0)
(43.0342 0 0)
(43.0553 0 0)
(43.0764 0 0)
(43.0974 0 0)
(43.1184 0 0)
(43.1394 0 0)
(43.1604 0 0)
(43.1813 0 0)
(43.2021 0 0)
(43.223 0 0)
(43.2438 0 0)
(43.2646 0 0)
(43.2853 0 0)
(43.3061 0 0)
(43.3268 0 0)
(43.3474 0 0)
(43.368 0 0)
(43.3886 0 0)
(43.4092 0 0)
(43.4297 0 0)
(43.4502 0 0)
(43.4707 0 0)
(43.4911 0 0)
(43.5115 0 0)
(43.5319 0 0)
(43.5522 0 0)
(43.5725 0 0)
(43.5928 0 0)
(43.613 0 0)
(43.6332 0 0)
(43.6534 0 0)
(43.6735 0 0)
(43.6936 0 0)
(43.7137 0 0)
(43.7337 0 0)
(43.7537 0 0)
(43.7737 0 0)
(43.7936 0 0)
(43.8135 0 0)
(43.8334 0 0)
(43.8532 0 0)
(43.873 0 0)
(43.8928 0 0)
(43.9125 0 0)
(43.9322 0 0)
(43.9518 0 0)
(43.9715 0 0)
(43.991 0 0)
(44.0106 0 0)
(44.0301 0 0)
(44.0496 0 0)
(44.069 0 0)
(44.0884 0 0)
(44.1078 0 0)
(44.1272 0 0)
(44.1465 0 0)
(44.1657 0 0)
(44.185 0 0)
(44.2041 0 0)
(44.2233 0 0)
(44.2424 0 0)
(44.2615 0 0)
(44.2806 0 0)
(44.2996 0 0)
(44.3186 0 0)
(44.3375 0 0)
(44.3564 0 0)
(44.3753 0 0)
(44.3941 0 0)
(44.4129 0 0)
(44.4317 0 0)
(44.4504 0 0)
(44.4691 0 0)
(44.4877 0 0)
(44.5063 0 0)
(44.5249 0 0)
(44.5435 0 0)
(44.562 0 0)
(44.5804 0 0)
(44.5989 0 0)
(44.6173 0 0)
(44.6356 0 0)
(44.6539 0 0)
(44.6722 0 0)
(44.6905 0 0)
(44.7087 0 0)
(44.7268 0 0)
(44.745 0 0)
(44.7631 0 0)
(44.7811 0 0)
(44.7992 0 0)
(44.8171 0 0)
(44.8351 0 0)
(44.853 0 0)
(44.8709 0 0)
(44.8887 0 0)
(44.9065 0 0)
(44.9243 0 0)
(44.942 0 0)
(44.9597 0 0)
(44.9774 0 0)
(44.995 0 0)
(45.0126 0 0)
(45.0301 0 0)
(45.0476 0 0)
(45.0651 0 0)
(45.0825 0 0)
(45.0999 0 0)
(45.1173 0 0)
(45.1346 0 0)
(45.1519 0 0)
(45.1692 0 0)
(45.1864 0 0)
(45.2035 0 0)
(45.2207 0 0)
(45.2378 0 0)
(45.2549 0 0)
(45.2719 0 0)
(45.2889 0 0)
(45.3059 0 0)
(45.3228 0 0)
(45.3397 0 0)
(45.3565 0 0)
(45.3734 0 0)
(45.3902 0 0)
(45.4069 0 0)
(45.4236 0 0)
(45.4403 0 0)
(45.4569 0 0)
(45.4736 0 0)
(45.4901 0 0)
(45.5067 0 0)
(45.5232 0 0)
(45.5396 0 0)
(45.5561 0 0)
(45.5725 0 0)
(45.5888 0 0)
(45.6052 0 0)
(45.6215 0 0)
(45.6377 0 0)
(45.654 0 0)
(45.6702 0 0)
(45.6863 0 0)
(45.7025 0 0)
(45.7186 0 0)
(45.7346 0 0)
(45.7507 0 0)
(45.7667 0 0)
(45.7826 0 0)
(45.7986 0 0)
(45.8145 0 0)
(45.8303 0 0)
(45.8462 0 0)
(45.862 0 0)
(45.8778 0 0)
(45.8935 0 0)
(45.9092 0 0)
(45.9249 0 0)
(45.9405 0 0)
(45.9562 0 0)
(45.9717 0 0)
(45.9873 0 0)
(46.0028 0 0)
(46.0183 0 0)
(46.0338 0 0)
(46.0492 0 0)
(46.0646 0 0)
(46.08 0 0)
(46.0954 0 0)
(46.1107 0 0)
(46.126 0 0)
(46.1412 0 0)
(46.1565 0 0)
(46.1717 0 0)
(46.1869 0 0)
(46.202 0 0)
(46.2171 0 0)
(46.2322 0 0)
(46.2473 0 0)
(46.2623 0 0)
(46.2773 0 0)
(46.2923 0 0)
(46.3073 0 0)
(46.3222 0 0)
(46.3371 0 0)
(46.352 0 0)
(46.3669 0 0)
(46.3817 0 0)
(46.3965 0 0)
(46.4113 0 0)
(46.426 0 0)
(46.4408 0 0)
(46.4555 0 0)
(46.4702 0 0)
(46.4848 0 0)
(46.4994 0 0)
(46.5141 0 0)
(46.5286 0 0)
(46.5432 0 0)
(46.5578 0 0)
(46.5723 0 0)
(46.5868 0 0)
(46.6012 0 0)
(46.6157 0 0)
(46.6301 0 0)
(46.6445 0 0)
(46.6589 0 0)
(46.6733 0 0)
(46.6876 0 0)
(46.702 0 0)
(46.7163 0 0)
(46.7306 0 0)
(46.7448 0 0)
(46.7591 0 0)
(46.7733 0 0)
(46.7875 0 0)
(46.8017 0 0)
(46.8159 0 0)
(46.83 0 0)
(46.8442 0 0)
(46.8583 0 0)
(46.8724 0 0)
(46.8864 0 0)
(46.9005 0 0)
(46.9145 0 0)
(46.9286 0 0)
(46.9426 0 0)
(46.9566 0 0)
(46.9706 0 0)
(46.9845 0 0)
(46.9985 0 0)
(47.0124 0 0)
(47.0263 0 0)
(47.0402 0 0)
(47.0541 0 0)
(47.0679 0 0)
(47.0818 0 0)
(47.0956 0 0)
(47.1095 0 0)
(47.1233 0 0)
(47.1371 0 0)
(47.1508 0 0)
(47.1646 0 0)
(47.1784 0 0)
(47.1921 0 0)
(47.2058 0 0)
(47.2196 0 0)
(47.2333 0 0)
(47.2469 0 0)
(47.2606 0 0)
(47.2743 0 0)
(47.2879 0 0)
(47.3016 0 0)
(47.3152 0 0)
(47.3288 0 0)
(47.3424 0 0)
(47.356 0 0)
(47.3696 0 0)
(47.3832 0 0)
(47.3968 0 0)
(47.4103 0 0)
(47.4239 0 0)
(47.4374 0 0)
(47.4509 0 0)
(47.4645 0 0)
(47.478 0 0)
(47.4915 0 0)
(47.5049 0 0)
(47.5184 0 0)
(47.5319 0 0)
(47.5454 0 0)
(47.5588 0 0)
(47.5723 0 0)
(47.5857 0 0)
(47.5991 0 0)
(47.6125 0 0)
(47.6259 0 0)
(47.6394 0 0)
(47.6528 0 0)
(47.6661 0 0)
(47.6795 0 0)
(47.6929 0 0)
(47.7063 0 0)
(47.7196 0 0)
(47.733 0 0)
(47.7463 0 0)
(47.7597 0 0)
(47.773 0 0)
(47.7863 0 0)
(47.7997 0 0)
(47.813 0 0)
(47.8263 0 0)
(47.8396 0 0)
(47.8529 0 0)
(47.8662 0 0)
(47.8795 0 0)
(47.8928 0 0)
(47.906 0 0)
(47.9193 0 0)
(47.9326 0 0)
(47.9459 0 0)
(47.9591 0 0)
(47.9724 0 0)
(47.9856 0 0)
(47.9989 0 0)
(48.0121 0 0)
(48.0253 0 0)
(48.0386 0 0)
(48.0518 0 0)
(48.065 0 0)
(48.0783 0 0)
(48.0915 0 0)
(48.1047 0 0)
(48.1179 0 0)
(48.1311 0 0)
(48.1443 0 0)
(48.1575 0 0)
(48.1707 0 0)
(48.1839 0 0)
(48.1971 0 0)
(48.2103 0 0)
(48.2235 0 0)
(48.2366 0 0)
(48.2498 0 0)
(48.263 0 0)
(48.2762 0 0)
(48.2893 0 0)
(48.3025 0 0)
(48.3157 0 0)
(48.3288 0 0)
(48.342 0 0)
(48.3552 0 0)
(48.3683 0 0)
(48.3815 0 0)
(48.3946 0 0)
(48.4078 0 0)
(48.4209 0 0)
(48.4341 0 0)
(48.4472 0 0)
(48.4603 0 0)
(48.4735 0 0)
(48.4866 0 0)
(48.4998 0 0)
(48.5129 0 0)
(48.526 0 0)
(48.5392 0 0)
(48.5523 0 0)
(48.5654 0 0)
(48.5785 0 0)
(48.5917 0 0)
(48.6048 0 0)
(48.6179 0 0)
(48.631 0 0)
(48.6442 0 0)
(48.6573 0 0)
(48.6704 0 0)
(48.6835 0 0)
(48.6966 0 0)
(48.7097 0 0)
(48.7229 0 0)
(48.736 0 0)
(48.7491 0 0)
(48.7622 0 0)
(48.7753 0 0)
(48.7884 0 0)
(48.8015 0 0)
(48.8146 0 0)
(48.8277 0 0)
(48.8408 0 0)
(48.854 0 0)
(48.8671 0 0)
(48.8802 0 0)
(48.8933 0 0)
(48.9064 0 0)
(48.9195 0 0)
(48.9326 0 0)
(48.9457 0 0)
(48.9588 0 0)
(48.9719 0 0)
(48.985 0 0)
(48.9981 0 0)
(49.0112 0 0)
(49.0243 0 0)
(49.0374 0 0)
(49.0505 0 0)
(49.0636 0 0)
(49.0767 0 0)
(49.0897 0 0)
(49.1028 0 0)
(49.1159 0 0)
(49.129 0 0)
(49.1421 0 0)
(49.1552 0 0)
(49.1683 0 0)
(49.1814 0 0)
(49.1945 0 0)
(49.2076 0 0)
(49.2207 0 0)
(49.2338 0 0)
(49.2469 0 0)
(49.26 0 0)
(49.2731 0 0)
(49.2862 0 0)
(49.2993 0 0)
(49.3123 0 0)
(49.3254 0 0)
(49.3385 0 0)
(49.3516 0 0)
(49.3647 0 0)
(49.3778 0 0)
(49.3909 0 0)
(49.404 0 0)
(49.4171 0 0)
(49.4302 0 0)
(49.4433 0 0)
(49.4564 0 0)
(49.4695 0 0)
(49.4825 0 0)
(49.4956 0 0)
(49.5087 0 0)
(49.5218 0 0)
(49.5349 0 0)
(49.548 0 0)
(49.5611 0 0)
(49.5742 0 0)
(49.5873 0 0)
(49.6004 0 0)
(49.6135 0 0)
(49.6266 0 0)
(49.6397 0 0)
(49.6527 0 0)
(49.6658 0 0)
(49.6789 0 0)
(49.692 0 0)
(49.7051 0 0)
(49.7182 0 0)
(49.7313 0 0)
(49.7444 0 0)
(49.7575 0 0)
(49.7706 0 0)
(49.7837 0 0)
(49.7968 0 0)
(49.8099 0 0)
(49.823 0 0)
(49.8361 0 0)
(49.8492 0 0)
(49.8623 0 0)
(49.8753 0 0)
(49.8884 0 0)
(49.9015 0 0)
(49.9146 0 0)
(49.9277 0 0)
(49.9408 0 0)
(49.9539 0 0)
(49.967 0 0)
(49.9801 0 0)
(49.9932 0 0)
(50.0063 0 0)
(50.0194 0 0)
(50.0325 0 0)
(50.0456 0 0)
(50.0587 0 0)
(50.0718 0 0)
(50.0849 0 0)
(50.098 0 0)
(50.1111 0 0)
(50.1242 0 0)
(50.1373 0 0)
(50.1504 0 0)
(50.1635 0 0)
(50.1766 0 0)
(50.1897 0 0)
(50.2028 0 0)
(50.2159 0 0)
(50.229 0 0)
(50.2421 0 0)
(50.2552 0 0)
(50.2683 0 0)
(50.2814 0 0)
(50.2945 0 0)
(50.3076 0 0)
(50.3207 0 0)
(50.3338 0 0)
(50.3469 0 0)
(50.36 0 0)
(50.3731 0 0)
(50.3862 0 0)
(50.3993 0 0)
(50.4124 0 0)
(50.4255 0 0)
(50.4386 0 0)
(50.4518 0 0)
(50.4649 0 0)
(50.478 0 0)
(50.4911 0 0)
(50.5042 0 0)
(50.5173 0 0)
(50.5304 0 0)
(50.5435 0 0)
(50.5566 0 0)
(50.5697 0 0)
(50.5828 0 0)
(50.5959 0 0)
(50.609 0 0)
(50.6221 0 0)
(50.6353 0 0)
(50.6484 0 0)
(50.6615 0 0)
(50.6746 0 0)
(50.6877 0 0)
(50.7008 0 0)
(50.7139 0 0)
(50.727 0 0)
(50.7401 0 0)
(50.7532 0 0)
(50.7663 0 0)
(50.7795 0 0)
(50.7926 0 0)
(50.8057 0 0)
(50.8188 0 0)
(50.8319 0 0)
(50.845 0 0)
(50.8581 0 0)
(50.8712 0 0)
(50.8844 0 0)
(50.8975 0 0)
(50.9106 0 0)
(50.9237 0 0)
(50.9368 0 0)
(50.9499 0 0)
(50.963 0 0)
(50.9762 0 0)
(50.9893 0 0)
(51.0024 0 0)
(51.0155 0 0)
(51.0286 0 0)
(51.0417 0 0)
(51.0549 0 0)
(51.068 0 0)
(51.0811 0 0)
(51.0942 0 0)
(51.1073 0 0)
(51.1204 0 0)
(51.1336 0 0)
(51.1467 0 0)
(51.1598 0 0)
(51.1729 0 0)
(51.186 0 0)
(51.1992 0 0)
(51.2123 0 0)
(51.2254 0 0)
(51.2385 0 0)
(51.2516 0 0)
(51.2648 0 0)
(51.2779 0 0)
(51.291 0 0)
(51.3041 0 0)
(51.3172 0 0)
(51.3304 0 0)
(51.3435 0 0)
(51.3566 0 0)
(51.3697 0 0)
(51.3829 0 0)
(51.396 0 0)
(51.4091 0 0)
(51.4222 0 0)
(51.4353 0 0)
(51.4485 0 0)
(51.4616 0 0)
(51.4747 0 0)
(51.4878 0 0)
(51.501 0 0)
(51.5141 0 0)
(51.5272 0 0)
(51.5403 0 0)
(51.5535 0 0)
(51.5666 0 0)
(51.5797 0 0)
(51.5929 0 0)
(51.606 0 0)
(51.6191 0 0)
(51.6322 0 0)
(51.6454 0 0)
(51.6585 0 0)
(51.6716 0 0)
(51.6848 0 0)
(51.6979 0 0)
(51.711 0 0)
(51.7241 0 0)
(51.7373 0 0)
(51.7504 0 0)
(51.7635 0 0)
(51.7767 0 0)
(51.7898 0 0)
(51.8029 0 0)
(51.8161 0 0)
(51.8292 0 0)
(51.8423 0 0)
(51.8554 0 0)
(51.8686 0 0)
(51.8817 0 0)
(51.8948 0 0)
(51.908 0 0)
(51.9211 0 0)
(51.9342 0 0)
(51.9474 0 0)
(51.9605 0 0)
(51.9736 0 0)
(51.9868 0 0)
(51.9999 0 0)
(52.013 0 0)
(52.0262 0 0)
(52.0393 0 0)
(52.0525 0 0)
(52.0656 0 0)
(52.0787 0 0)
(52.0919 0 0)
(52.105 0 0)
(52.1181 0 0)
(52.1313 0 0)
(52.1444 0 0)
(52.1575 0 0)
(52.1707 0 0)
(52.1838 0 0)
(52.197 0 0)
(52.2101 0 0)
(52.2232 0 0)
(52.2364 0 0)
(52.2495 0 0)
(52.2627 0 0)
(52.2758 0 0)
(52.2889 0 0)
(52.3021 0 0)
(52.3152 0 0)
(52.3284 0 0)
(52.3415 0 0)
(52.3546 0 0)
(52.3678 0 0)
(52.3809 0 0)
(52.3941 0 0)
(52.4072 0 0)
(52.4203 0 0)
(52.4335 0 0)
(52.4466 0 0)
(52.4598 0 0)
(52.4729 0 0)
(52.4861 0 0)
(52.4992 0 0)
(52.5123 0 0)
(52.5255 0 0)
(52.5386 0 0)
(52.5518 0 0)
(52.5649 0 0)
(52.5781 0 0)
(52.5912 0 0)
(52.6044 0 0)
(52.6175 0 0)
(52.6307 0 0)
(52.6438 0 0)
(52.6569 0 0)
(52.6701 0 0)
(52.6832 0 0)
(52.6964 0 0)
(52.7095 0 0)
(52.7227 0 0)
(52.7358 0 0)
(52.749 0 0)
(52.7621 0 0)
(52.7753 0 0)
(52.7884 0 0)
(52.8016 0 0)
(52.8147 0 0)
(52.8279 0 0)
(52.841 0 0)
(52.8542 0 0)
(52.8673 0 0)
(52.8805 0 0)
(52.8936 0 0)
(52.9068 0 0)
(52.9199 0 0)
(52.9331 0 0)
(52.9462 0 0)
(52.9594 0 0)
(52.9725 0 0)
(52.9857 0 0)
(52.9988 0 0)
(53.012 0 0)
(53.0252 0 0)
(53.0383 0 0)
(53.0515 0 0)
(53.0646 0 0)
(53.0778 0 0)
(53.0909 0 0)
(53.1041 0 0)
(53.1172 0 0)
(53.1304 0 0)
(53.1436 0 0)
(53.1567 0 0)
(53.1699 0 0)
(53.183 0 0)
(53.1962 0 0)
(53.2093 0 0)
(53.2225 0 0)
(53.2357 0 0)
(53.2488 0 0)
(53.262 0 0)
(53.2751 0 0)
(53.2883 0 0)
(53.3014 0 0)
(53.3146 0 0)
(53.3278 0 0)
(53.3409 0 0)
(53.3541 0 0)
(53.3672 0 0)
(53.3804 0 0)
(53.3936 0 0)
(53.4067 0 0)
(53.4199 0 0)
(53.433 0 0)
(53.4462 0 0)
(53.4594 0 0)
(53.4725 0 0)