/*--------------------------------*- C++ -*----------------------------------*\
  =========                 |
  \\      /  F ield         | OpenFOAM: The Open Source CFD Toolbox
   \\    /   O peration     | Website:  https://openfoam.org
    \\  /    A nd           | Version:  9
     \\/     M anipulation  |
\*---------------------------------------------------------------------------*/
FoamFile
{
    format      ascii;
    class       volScalarField;
    location    "0.006";
    object      p;
}
// * * * * * * * * * * * * * * * * * * * * * * * * * * * * * * * * * * * * * //

dimensions      [1 -1 -2 0 0 0 0];

internalField   nonuniform List<scalar> 
10000
(
100000
100000
100000
100000
100000
100000
100000
100000
100000
100000
100000
100000
100000
100000
100000
100000
100000
100000
100000
100000
100000
100000
100000
100000
100000
100000
100000
100000
100000
100000
100000
100000
100000
100000
100000
100000
100000
100000
100000
100000
100000
100000
100000
100000
100000
100000
100000
100000
100000
100000
100000
100000
100000
100000
100000
100000
100000
100000
100000
100000
100000
100000
100000
100000
100000
100000
100000
100000
100000
100000
100000
100000
100000
100000
100000
100000
100000
100000
100000
100000
100000
100000
100000
100000
100000
100000
100000
100000
100000
100000
100000
100000
100000
100000
100000
100000
100000
100000
100000
100000
100000
100000
100000
100000
100000
100000
100000
100000
100000
100000
100000
100000
100000
100000
100000
100000
100000
100000
100000
100000
100000
100000
100000
100000
100000
100000
100000
100000
100000
100000
100000
100000
100000
100000
100000
100000
100000
100000
100000
100000
100000
100000
100000
100000
100000
100000
100000
100000
100000
100000
100000
100000
100000
100000
100000
100000
100000
100000
100000
100000
100000
100000
100000
100000
100000
100000
100000
100000
100000
100000
100000
100000
100000
100000
100000
100000
100000
100000
100000
100000
100000
100000
100000
100000
100000
100000
100000
100000
100000
100000
100000
100000
100000
100000
100000
100000
100000
100000
100000
100000
100000
100000
100000
100000
100000
100000
100000
100000
100000
100000
100000
100000
100000
100000
100000
100000
100000
100000
100000
100000
100000
100000
100000
100000
100000
100000
100000
100000
100000
100000
100000
100000
100000
100000
100000
100000
100000
100000
100000
100000
100000
100000
100000
100000
100000
100000
100000
100000
100000
100000
100000
100000
100000
100000
100000
100000
100000
100000
100000
100000
100000
100000
100000
100000
100000
100000
100000
100000
100000
100000
100000
100000
100000
100000
100000
100000
100000
100000
100000
100000
100000
100000
100000
100000
100000
100000
100000
100000
100000
100000
100000
100000
100000
100000
100000
100000
100000
100000
100000
100000
100000
100000
100000
100000
100000
100000
100000
100000
100000
100000
100000
100000
100000
100000
100000
100000
100000
100000
100000
100000
100000
100000
100000
100000
100000
100000
100000
100000
100000
100000
100000
100000
100000
100000
100000
100000
100000
100000
100000
100000
100000
100000
100000
100000
100000
100000
100000
100000
100000
100000
100000
100000
100000
100000
100000
100000
100000
100000
100000
100000
100000
100000
100000
100000
100000
100000
100000
100000
100000
100000
100000
100000
100000
100000
100000
100000
100000
100000
100000
100000
100000
100000
100000
100000
100000
100000
100000
100000
100000
100000
100000
100000
100000
100000
100000
100000
100000
100000
100000
100000
100000
100000
100000
100000
100000
100000
100000
100000
100000
100000
100000
100000
100000
100000
100000
100000
100000
100000
100000
100000
100000
100000
100000
100000
100000
100000
100000
100000
100000
100000
100000
100000
100000
100000
100000
100000
100000
100000
100000
100000
100000
100000
100000
100000
100000
100000
100000
100000
100000
100000
100000
100000
100000
100000
100000
100000
100000
100000
100000
100000
100000
100000
100000
100000
100000
100000
100000
100000
100000
100000
100000
100000
100000
100000
100000
100000
100000
100000
100000
100000
100000
100000
100000
100000
100000
100000
100000
100000
100000
100000
100000
100000
100000
100000
100000
100000
100000
100000
100000
100000
100000
100000
100000
100000
100000
100000
100000
100000
100000
100000
100000
100000
100000
100000
100000
100000
100000
100000
100000
100000
100000
100000
100000
100000
100000
100000
100000
100000
100000
100000
100000
100000
100000
100000
100000
100000
100000
100000
100000
100000
100000
100000
100000
100000
100000
100000
100000
100000
100000
100000
100000
100000
100000
100000
100000
100000
100000
100000
100000
100000
100000
100000
100000
100000
100000
100000
100000
100000
100000
100000
100000
100000
100000
100000
100000
100000
100000
100000
100000
100000
100000
100000
100000
100000
100000
100000
100000
100000
100000
100000
100000
100000
100000
100000
100000
100000
100000
100000
100000
100000
100000
100000
100000
100000
100000
100000
100000
100000
100000
100000
100000
100000
100000
100000
100000
100000
100000
100000
100000
100000
100000
100000
100000
100000
100000
100000
100000
100000
100000
100000
100000
100000
100000
100000
100000
100000
100000
100000
100000
100000
100000
100000
100000
100000
100000
100000
100000
100000
100000
100000
100000
100000
100000
100000
100000
100000
100000
100000
100000
100000
100000
100000
100000
100000
100000
100000
100000
100000
100000
100000
100000
100000
100000
100000
100000
100000
100000
100000
100000
100000
100000
100000
100000
100000
100000
100000
100000
100000
100000
100000
100000
100000
100000
100000
100000
100000
100000
100000
100000
100000
100000
100000
100000
100000
100000
100000
100000
100000
100000
100000
100000
100000
100000
100000
100000
100000
100000
100000
100000
100000
100000
100000
100000
100000
100000
100000
100000
100000
100000
100000
100000
100000
100000
100000
100000
100000
100000
100000
100000
100000
100000
100000
100000
100000
100000
100000
100000
100000
100000
100000
100000
100000
100000
100000
100000
100000
100000
100000
100000
100000
100000
100000
100000
100000
100000
100000
100000
100000
100000
100000
100000
100000
100000
100000
100000
100000
100000
100000
100000
100000
100000
100000
100000
100000
100000
100000
100000
100000
100000
100000
100000
100000
100000
100000
100000
100000
100000
100000
100000
100000
100000
100000
100000
100000
100000
100000
100000
100000
100000
100000
100000
100000
100000
100000
100000
100000
100000
100000
100000
100000
100000
100000
100000
100000
100000
100000
100000
100000
100000
100000
100000
100000
100000
100000
100000
100000
100000
100000
100000
100000
100000
100000
100000
100000
100000
100000
100000
100000
100000
100000
100000
100000
100000
100000
100000
100000
100000
100000
100000
100000
100000
100000
100000
100000
100000
100000
100000
100000
100000
100000
100000
100000
100000
100000
100000
100000
100000
100000
100000
100000
100000
100000
100000
100000
100000
100000
100000
100000
100000
100000
100000
100000
100000
100000
100000
100000
100000
100000
100000
100000
100000
100000
100000
100000
100000
100000
100000
100000
100000
100000
100000
100000
100000
100000
100000
100000
100000
100000
100000
100000
100000
100000
100000
100000
100000
100000
100000
100000
100000
100000
100000
100000
100000
100000
100000
100000
100000
100000
100000
100000
100000
100000
100000
100000
100000
100000
100000
100000
100000
100000
100000
100000
100000
100000
100000
100000
100000
100000
100000
100000
100000
100000
100000
100000
100000
100000
100000
100000
100000
100000
100000
100000
100000
100000
100000
100000
100000
100000
100000
100000
100000
100000
100000
100000
100000
100000
100000
100000
100000
100000
100000
100000
100000
100000
100000
100000
100000
100000
100000
100000
100000
100000
100000
100000
100000
100000
100000
100000
100000
100000
100000
100000
100000
100000
100000
100000
100000
100000
100000
100000
100000
100000
100000
100000
100000
100000
100000
100000
100000
100000
100000
100000
100000
100000
100000
100000
100000
100000
100000
100000
100000
100000
100000
100000
100000
100000
100000
100000
100000
100000
100000
100000
100000
100000
100000
100000
100000
100000
100000
100000
100000
100000
100000
100000
100000
100000
100000
100000
100000
100000
100000
100000
100000
100000
100000
100000
100000
100000
100000
100000
100000
100000
100000
100000
100000
100000
100000
100000
100000
100000
100000
100000
100000
100000
100000
100000
100000
100000
100000
100000
100000
100000
100000
100000
100000
100000
100000
100000
100000
100000
100000
100000
100000
100000
100000
100000
100000
100000
100000
100000
100000
100000
100000
100000
100000
100000
100000
100000
100000
100000
100000
100000
100000
100000
100000
100000
100000
100000
100000
100000
100000
100000
100000
100000
100000
100000
100000
100000
100000
100000
100000
100000
100000
100000
100000
100000
100000
100000
100000
100000
100000
100000
100000
100000
100000
100000
100000
100000
100000
100000
100000
100000
100000
100000
100000
100000
100000
100000
100000
100000
100000
100000
100000
100000
100000
100000
100000
100000
100000
100000
100000
100000
100000
100000
100000
100000
100000
100000
100000
100000
100000
100000
100000
100000
100000
100000
100000
100000
100000
100000
100000
100000
100000
100000
100000
100000
100000
100000
100000
100000
100000
100000
100000
100000
100000
100000
100000
100000
100000
100000
100000
100000
100000
100000
100000
100000
100000
100000
100000
100000
100000
100000
100000
100000
100000
100000
100000
100000
100000
100000
100000
100000
100000
100000
100000
100000
100000
100000
100000
100000
100000
100000
100000
100000
100000
100000
100000
100000
100000
100000
100000
100000
100000
100000
100000
100000
100000
100000
100000
100000
100000
100000
100000
100000
100000
100000
100000
100000
100000
100000
100000
100000
100000
100000
100000
100000
100000
100000
100000
100000
100000
100000
100000
100000
100000
100000
100000
100000
100000
100000
100000
100000
100000
100000
100000
100000
100000
100000
100000
100000
100000
100000
100000
100000
100000
100000
100000
100000
100000
100000
100000
100000
100000
100000
100000
100000
100000
100000
100000
100000
100000
100000
100000
100000
100000
100000
100000
100000
100000
100000
100000
100000
100000
100000
100000
100000
100000
100000
100000
100000
100000
100000
100000
100000
100000
100000
100000
100000
100000
100000
100000
100000
100000
100000
100000
100000
100000
100000
100000
100000
100000
100000
100000
100000
100000
100000
100000
100000
100000
100000
100000
100000
100000
100000
100000
100000
100000
100000
100000
100000
100000
100000
100000
100000
100000
100000
100000
100000
100000
100000
100000
100000
100000
100000
100000
100000
100000
100000
100000
100000
100000
100000
100000
100000
100000
100000
100000
100000
100000
100000
100000
100000
100000
100000
100000
100000
100000
100000
100000
100000
100000
100000
100000
100000
100000
100000
100000
100000
100000
100000
100000
100000
100000
100000
100000
100000
100000
100000
100000
100000
100000
100000
100000
100000
100000
100000
100000
100000
100000
100000
100000
100000
100000
100000
100000
100000
100000
100000
100000
100000
100000
100000
100000
100000
100000
100000
100000
100000
100000
100000
100000
100000
100000
100000
100000
100000
100000
100000
100000
100000
100000
100000
100000
100000
100000
100000
100000
100000
100000
100000
100000
100000
100000
100000
100000
100000
100000
100000
100000
100000
100000
100000
100000
100000
100000
100000
100000
100000
100000
100000
100000
100000
100000
100000
100000
100000
100000
100000
100000
100000
100000
100000
100000
100000
100000
100000
100000
100000
100000
100000
100000
100000
100000
100000
100000
100000
100000
100000
100000
100000
100000
100000
100000
100000
100000
100000
100000
100000
100000
100000
100000
100000
100000
100000
100000
100000
100000
100000
100000
100000
100000
100000
100000
100000
100000
100000
100000
100000
100000
100000
100000
100000
100000
100000
100000
100000
100000
100000
100000
100000
100000
100000
100000
100000
100000
100000
100000
100000
100000
100000
100000
100000
100000
100000
100000
100000
100000
100000
100000
100000
100000
100000
100000
100000
100000
100000
100000
100000
100000
100000
100000
100000
100000
100000
100000
100000
100000
100000
100000
100000
100000
100000
100000
100000
100000
100000
100000
100000
100000
100000
100000
100000
100000
100000
100000
100000
100000
100000
100000
100000
100000
100000
100000
100000
100000
100000
100000
100000
100000
100000
100000
100000
100000
100000
100000
100000
100000
100000
100000
100000
100000
100000
100000
100000
100000
100000
100000
100000
100000
100000
100000
100000
100000
100000
100000
100000
100000
100000
100000
100000
100000
100000
100000
100000
100000
100000
100000
100000
100000
100000
100000
100000
100000
100000
100000
100000
100000
100000
100000
100000
100000
100000
100000
100000
100000
100000
100000
100000
100000
100000
100000
100000
100000
100000
100000
100000
100000
100000
100000
100000
100000
100000
100000
100000
100000
100000
100000
100000
100000
100000
100000
100000
100000
100000
100000
100000
100000
100000
100000
100000
100000
100000
100000
100000
100000
100000
100000
100000
100000
100000
100000
100000
100000
100000
100000
100000
100000
100000
100000
100000
100000
100000
100000
100000
100000
100000
100000
100000
100000
100000
100000
100000
100000
100000
100000
100000
100000
100000
100000
100000
100000
100000
100000
100000
100000
100000
100000
100000
100000
100000
100000
100000
100000
100000
100000
100000
100000
100000
100000
100000
100000
100000
100000
100000
100000
100000
100000
100000
100000
100000
100000
100000
100000
100000
100000
100000
100000
100000
100000
100000
100000
100000
100000
100000
100000
100000
100000
100000
100000
100000
100000
100000
100000
100000
100000
100000
100000
100000
100000
100000
100000
100000
100000
100000
100000
100000
100000
100000
100000
100000
100000
100000
100000
100000
100000
100000
100000
100000
100000
100000
100000
100000
100000
100000
100000
100000
100000
100000
100000
100000
100000
100000
100000
100000
100000
100000
100000
100000
100000
100000
100000
100000
100000
100000
100000
100000
100000
100000
100000
100000
100000
100000
100000
100000
100000
100000
100000
100000
100000
100000
100000
100000
100000
100000
100000
100000
100000
100000
100000
100000
100000
100000
100000
100000
100000
100000
100000
100000
100000
100000
100000
100000
100000
100000
100000
100000
100000
100000
100000
100000
100000
100000
100000
100000
100000
100000
100000
100000
100000
100000
100000
100000
100000
100000
100000
100000
100000
100000
100000
100000
100000
100000
100000
100000
100000
100000
100000
100000
100000
100000
100000
100000
100000
100000
100000
100000
100000
100000
100000
100000
100000
100000
100000
100000
100000
100000
100000
100000
100000
100000
100000
100000
100000
100000
100000
100000
100000
100000
100000
100000
100000
100000
100000
100000
100000
100000
100000
100000
100000
100000
100000
100000
100000
100000
100000
100000
100000
100000
100000
100000
100000
100000
100000
100000
100000
100000
100000
100000
100000
100000
100000
100000
100000
100000
100000
100000
100000
100000
100000
100000
100000
100000
100000
100000
100000
100000
100000
100000
100000
100000
100000
100000
100000
100000
100000
100000
100000
100000
100000
100000
100000
100000
100000
100000
100000
100000
100000
100000
100000
100000
100000
100000
100000
100000
100000
100000
100000
100000
100000
100000
100000
100000
100000
100000
100000
100000
100000
100000
100000
100000
100000
100000
100000
100000
100000
100000
100000
100000
100000
100000
100000
100000
100000
100000
100000
100000
100000
100000
100000
100000
100000
100000
100000
100000
100000
100000
100000
100000
100000
100000
100000
100000
100000
100000
100000
100000
100000
100000
100000
100000
100000
100000
100000
100000
100000
100000
100000
100000
100000
100000
100000
100000
100000
100000
100000
100000
100000
100000
100000
100000
100000
100000
100000
100000
100000
100000
100000
100000
100000
100000
100000
100000
100000
100000
100000
100000
100000
100000
100000
100000
100000
100000
100000
100000
100000
100000
100000
100000
100000
100000
100000
100000
100000
100000
100000
100000
100000
100000
100000
100000
100000
100000
100000
100000
100000
100000
100000
100000
100000
100000
100000
100000
100000
100000
100000
100000
100000
100000
100000
100000
100000
100000
100000
100000
100000
100000
100000
100000
100000
100000
100000
100000
100000
100000
100000
100000
100000
100000
100000
100000
100000
100000
100000
100000
100000
100000
100000
100000
100000
100000
100000
100000
100000
100000
100000
100000
100000
100000
100000
100000
100000
100000
100000
100000
100000
100000
100000
100000
100000
100000
100000
100000
100000
100000
100000
100000
100000
100000
100000
100000
100000
100000
100000
100000
100000
100000
100000
100000
100000
100000
100000
100000
100000
100000
100000
100000
100000
100000
100000
100000
100000
100000
100000
100000
100000
100000
100000
100000
100000
100000
100000
100000
100000
100000
100000
100000
100000
100000
100000
100000
100000
100000
100000
100000
100000
100000
100000
100000
100000
100000
100000
100000
100000
100000
100000
100000
100000
100000
100000
100000
100000
100000
100000
100000
100000
100000
100000
100000
100000
100000
100000
100000
100000
100000
100000
100000
100000
100000
100000
100000
100000
100000
100000
100000
100000
100000
100000
100000
100000
100000
100000
100000
100000
100000
100000
100000
100000
100000
100000
100000
100000
100000
100000
100000
100000
100000
100000
100000
100000
100000
100000
100000
100000
100000
100000
100000
100000
100000
100000
100000
100000
100000
100000
100000
100000
100000
100000
100000
100000
100000
100000
100000
100000
100000
100000
100000
100000
100000
100000
100000
100000
100000
100000
100000
100000
100000
100000
100000
100000
100000
100000
100000
100000
100000
100000
100000
100000
100000
100000
100000
100000
100000
100000
100000
100000
100000
100000
100000
100000
100000
100000
100000
100000
100000
100000
100000
100000
100000
100000
100000
100000
100000
100000
100000
100000
100000
100000
100000
100000
100000
100000
100000
100000
100000
100000
100000
100000
100000
100000
100000
100000
100000
100000
100000
100000
100000
100000
100000
100000
100000
100000
100000
100000
100000
100000
100000
100000
100000
100000
100000
100000
100000
100000
100000
100000
100000
100000
100000
100000
100000
100000
100000
100000
100000
100000
100000
100000
100000
100000
100000
100000
100000
100000
100000
100000
100000
100000
100000
100000
100000
100000
100000
100000
100000
100000
100000
100000
100000
100000
100000
100000
100000
100000
100000
100000
100000
100000
100000
100000
100000
100000
100000
100000
100000
100000
100000
100000
100000
100000
100000
100000
100000
100000
100000
100000
100000
100000
100000
100000
100000
100000
100000
100000
100000
100000
100000
100000
100000
100000
100000
100000
100000
100000
100000
100000
100000
100000
100000
100000
100000
100000
100000
100000
100000
100000
100000
100000
100000
100000
100000
100000
100000
100000
100000
100000
100000
100000
100000
100000
100000
100000
100000
100000
100000
100000
100000
100000
100000
100000
100000
100000
100000
100000
100000
100000
100000
100000
100000
100000
100000
100000
100000
100000
100000
100000
100000
100000
100000
100000
100000
100000
100000
100000
100000
100000
100000
100000
100000
100000
100000
100000
100000
100000
100000
100000
100000
100000
100000
100000
100000
100000
100000
100000
100000
100000
100000
100000
100000
100000
100000
100000
100000
100000
100000
100000
100000
100000
100000
100000
100000
100000
100000
100000
100000
100000
100000
100000
100000
100000
100000
100000
100000
100000
100000
100000
100000
100000
100000
100000
100000
100000
100000
100000
100000
100000
100000
100000
100000
100000
100000
100000
100000
100000
100000
100000
100000
100000
100000
100000
100000
100000
100000
100000
100000
100000
100000
100000
100000
100000
100000
100000
100000
100000
100000
100000
100000
100000
100000
100000
100000
100000
100000
100000
100000
100000
100000
100000
100000
100000
100000
100000
100000
100000
100000
100000
100000
100000
100000
100000
100000
100000
100000
100000
100000
100000
100000
100000
100000
100000
100000
100000
100000
100000
100000
100000
100000
100000
100000
100000
100000
100000
100000
100000
100000
100000
100000
100000
100000
100000
100000
100000
100000
100000
100000
100000
100000
100000
100000
100000
100000
100000
100000
100000
100000
100000
100000
100000
99999.9
99999.6
99998.8
99996.4
99988.9
99966
99896.2
99682.6
99018.7
97669.4
96575.9
95937.4
95540.8
95267.6
95060.6
94892.1
94749.9
94629.9
94531
94452
94390.4
94343.6
94308.6
94282.8
94264.1
94250.7
94241.2
94234.6
94230
94226.8
94224.7
94223.2
94222.2
94221.6
94221.2
94220.9
94220.7
94220.6
94220.5
94220.5
94220.4
94220.4
94220.4
94220.4
94220.4
94220.4
94220.4
94220.4
94220.4
94220.4
94220.4
94220.4
94220.4
94220.4
94220.4
94220.4
94220.4
94220.4
94220.4
94220.4
94220.4
94220.4
94220.4
94220.4
94220.4
94220.4
94220.3
94220
94219.2
94216.3
94207.3
94177.7
94081.8
93770
93235.6
92884.6
92687.7
92618.6
92551.5
92514.3
92506.9
92501.4
92478.1
92456.9
92448.4
92449.8
92433.9
92413.2
92399.5
92401.8
92394.8
92377
92362.9
92361.9
92361.7
92349.2
92337.7
92333.7
92336.7
92330.7
92322.9
92319.4
92322.6
92321.3
92317.8
92316
92315.5
92311.8
92296.6
92247.3
92092.7
91852.9
91713.3
91622.7
91599.5
91582.9
91563.3
91551.8
91556.6
91554.1
91545.7
91540.7
91542.5
91543.1
91537.7
91524.2
91490.3
91387.2
91087.5
90732.3
90523.9
90428.3
90380.3
90342.1
90327.4
90327
90316.9
90303.1
90294.2
90298.4
90298.1
90292.8
90289
90286.2
90280.3
90258.7
90185.6
90015.6
89868.3
89811.8
89756.5
89732.9
89735.6
89729.8
89717.1
89709.6
89711
89710.1
89698.7
89667.7
89585.2
89393.6
89221.5
89106.8
89065.9
89044.5
89021.5
89008.2
89011.1
89007.9
88997.5
88987.5
88978.5
88954.2
88867.2
88688.3
88546.1
88498.2
88452.8
88425.7
88419.3
88422.6
88410.8
88395
88374.3
88326.2
88218.4
88121.3
88055.1
88037.5
88032.6
88013.5
87998.4
87992.1
87982
87941.3
87823.4
87674.6
87602.1
87573.2
87536.4
87514.9
87516.4
87514.2
87491.8
87432.6
87302.5
87174.5
87117.5
87050.9
87015.1
87014.2
87015.4
86997.1
86978.9
86975.2
86976.8
86958.2
86889.4
86757.5
86656.6
86621.6
86584.7
86543.3
86500.6
86453.6
86379.7
86285.9
86197.5
86139.3
86106.6
86071.5
86025.8
85978.7
85937.9
85900.6
85854.8
85801.1
85749.4
85705.9
85664.6
85616.2
85563.6
85514.9
85473.3
85431.8
85384.4
85334.9
85289
85247
85203.3
85155.6
85107.6
85062.6
85019.3
84974.2
84927.2
84880.9
84836.6
84792.5
84746.9
84700.8
84655.8
84611.4
84566.3
84520.4
84475.1
84431
84386.7
84341.3
84295.5
84250.4
84206.2
84161.7
84116.5
84071.5
84027
83982.5
83937.5
83892.3
83847.7
83803.5
83759.2
83714.3
83669.5
83625
83580.6
83535.9
83491.1
83446.6
83402.4
83358.1
83313.7
83269.3
83225.1
83180.8
83136.2
83091.4
83047
83003
82959.2
82915
82870.7
82826.5
82782.3
82738.2
82693.9
82649.8
82605.8
82561.8
82517.5
82473.2
82429.2
82385.6
82342
82298.3
82254.2
82210.1
82166
82121.8
82077.8
82034.1
81990.6
81947.2
81903.5
81859.5
81815.6
81771.9
81728.3
81684.8
81641.2
81597.4
81553.6
81509.9
81466.3
81422.9
81379.7
81336.4
81292.8
81249.1
81205.4
81161.8
81118.6
81075.5
81032.3
80988.9
80945.3
80901.7
80858.2
80815
80772
80729
80685.9
80642.6
80599
80555.6
80512.4
80469.5
80426.9
80384.1
80341.1
80298
80254.9
80211.9
80169.3
80126.6
80083.7
80040.4
79997.1
79954
79911.4
79869.1
79826.7
79784
79740.8
79697.5
79654.4
79612
79570
79528
79485.5
79442.5
79399.2
79356.1
79313.7
79271.7
79229.8
79187.4
79144.4
79101.1
79058
79015.5
78973.8
78932.5
78890.9
78848.8
78806
78762.8
78719.7
78677.1
78635
78593.1
78551.2
78508.9
78466.3
78423.6
78381.3
78339.6
78298.2
78256.6
78214.5
78171.8
78128.9
78086.5
78044.8
78003.8
77962.6
77920.8
77878.3
77835.5
77793.2
77752
77711.5
77671
77629.5
77587
77543.8
77500.8
77458.7
77417.7
77377.6
77337.6
77296.3
77252.6
77207.3
77163
77123.1
77089.7
77059.1
77018.9
76963.7
76903.9
76851.9
76821.7
76831.5
76821.4
76755.2
76668.8
76593.4
76539
76533.4
76558
76530.2
76456.4
76361.7
76292.8
76246.5
76254.6
76275.1
76231.2
76151.7
76059.5
75996.9
75964.5
75982.9
75997.5
75945.4
75863.1
75772.7
75710.2
75674.4
75688.7
75701.7
75652.9
75576.1
75500.3
75439.8
75399.7
75398.5
75386.4
75338.3
75282.4
75232.2
75190.7
75152.1
75111.6
75070.4
75031.5
74995.3
74958.5
74917.4
74872.4
74826.5
74783.3
74744.9
74710.4
74675.4
74635.6
74590.5
74543.4
74497.8
74457.3
74423.5
74394
74362
74321.1
74272.2
74220.8
74171.2
74126.9
74091.1
74063.8
74038.2
74004.5
73959
73907.4
73855.8
73808.6
73768.9
73737.5
73709.2
73675.8
73633.6
73585.9
73538
73494.2
73457.2
73425.6
73393.2
73354.1
73308.6
73261.1
73215.8
73175.5
73141.4
73110.6
73077.9
73039.3
72994.9
72947.8
72901.1
72857.5
72818.2
72783.4
72750.8
72716.8
72678.7
72636.9
72593.6
72551.8
72513.9
72480.4
72446.7
72405.3
72355.3
72302.7
72253.7
72213.2
72185.3
72167
72143.5
72103.1
72053.1
72001.2
71953
71915.6
71894.1
71874.4
71827.9
71764.6
71702.4
71649.7
71616.4
71626.4
71634.3
71584.4
71509.6
71422.6
71360.6
71314.7
71319.6
71356.2
71345.1
71283.7
71195.1
71096.4
71033.1
70985.8
70991
71034.9
71047.9
70995.7
70917.7
70814
70730.2
70672.3
70627.3
70635.9
70684.9
70705
70658.3
70583.4
70478.6
70389.7
70331
70286.2
70294.7
70337.6
70341.4
70286.8
70210.3
70116
70044.5
69991
69954.4
69969.3
70005.6
69991.9
69932.3
69857.4
69783
69721.4
69666.2
69621.1
69617.3
69646.2
69647.4
69593.8
69520.4
69435
69368.2
69316.3
69287.3
69306.2
69330.5
69295.3
69230.1
69149.8
69081.7
69025.9
68980.8
68972.6
68991.3
68976.2
68920.1
68860.6
68808.3
68774.1
68747.6
68705.3
68654.8
68606.3
68567
68546.7
68529.9
68489.3
68438.6
68395
68382.1
68386.4
68341
68272.6
68191.8
68130.3
68082.8
68076.6
68109.8
68109.1
68053.6
67974.7
67880.4
67819.1
67774.1
67777.7
67818.9
67817.3
67761.5
67681.2
67582.9
67518.3
67471
67467.9
67505.4
67509.5
67456.5
67381.6
67293.8
67234.7
67190.8
67191.3
67217.2
67191.2
67130.8
67058.1
67003.6
66964.7
66971.5
66953.1
66895.9
66828.8
66777
66747.3
66763.4
66749.2
66692.1
66617
66553
66506.5
66497.5
66519.4
66492.5
66431.6
66355
66295.9
66252.1
66250.7
66264.5
66224
66158.3
66082.8
66030.1
65996
66009.9
66020.1
65974.4
65905.7
65826.4
65773.1
65736.5
65748.1
65766.8
65727.5
65662
65579.1
65520.2
65477
65477.4
65507.3
65485.3
65426.3
65343.5
65267
65217.7
65192.8
65218.5
65248.8
65216.1
65153.5
65062
64968.5
64907.8
64861.4
64840.8
64876.1
64937.7
64935.3
64883.2
64811.7
64708.6
64625.4
64570.5
64526
64518.2
64554.6
64571.9
64529.1
64462.2
64369.6
64296.9
64249
64226.1
64252.6
64280.9
64246.7
64185
64099.5
64026.5
63977.7
63948.5
63965.3
63980.9
63940.7
63878.5
63807.9
63757.3
63720.2
63728.2
63728.3
63680.4
63615.7
63551.9
63505.4
63484.4
63501.6
63481.1
63426.3
63358.3
63304
63263.1
63262.5
63267.5
63223.7
63160.9
63095.9
63049.2
63024.1
63042.5
63031.5
62979.5
62908.3
62839.6
62792.9
62768
62789.2
62798.7
62754.9
62690.6
62611.8
62555.8
62513.5
62506.7
62530.7
62509.8
62455.9
62387.9
62331.6
62288.8
62280.4
62285
62243.2
62182.6
62120.4
62075
62055.2
62079.1
62075.4
62025.7
61954.4
61867.5
61811.7
61770.3
61769.7
61812.4
61819.1
61772.7
61705.9
61611.1
61540.7
61495.1
61469.3
61492.8
61526
61498.2
61441.7
61361.3
61284.2
61235.6
61199.4
61208.3
61240.1
61217.2
61163
61087
61011.9
60963.6
60927.4
60935.5
60965.9
60943
60890
60820
60756.9
60712.1
60684.5
60694.1
60670.3
60618.5
60559.2
60513.5
60484.6
60499.9
60499.8
60453.8
60388.6
60308.6
60255.4
60215.3
60212.3
60247.8
60242.7
60195.1
60128.4
60049.4
59997.1
59957
59952.3
59983.7
59973
59923.9
59853.7
59771.6
59719.3
59679.7
59678.2
59719.2
59723.8
59678.6
59614.4
59517.9
59443.6
59398.1
59366.5
59384
59438.5
59437.8
59391.5
59325.5
59222.7
59140.6
59092.5
59055.4
59061
59116.5
59141.5
59105.6
59048.2
58959.1
58862.9
58806.8
58765.9
58750.9
58786.6
58827
58802.4
58750.3
58673.9
58583.1
58526.4
58485.1
58467.4
58496.3
58520.9
58488.1
58433.6
58355.4
58283.5
58237.3
58201.4
58204.3
58235.1
58217.3
58168.7
58102.6
58036.2
57990.9
57956.3
57959.9
57973.1
57938.3
57883.8
57812.7
57757.9
57718
57705.1
57736.9
57749.1
57710.2
57653.3
57570.1
57499.8
57454.4
57418.2
57418.8
57456.7
57456.4
57414
57359.7
57297.5
57247.4
57202.1
57157.9
57117
57083.5
57071.3
57088.7
57077.6
57033.1
56976.4
56916.3
56871.7
56836
56835.3
56840.9
56803.8
56750.5
56688.2
56642
56605.3
56601.6
56615.6
56584.8
56534.2
56471.1
56420.4
56381.6
56365.9
56383.4
56364.6
56318.1
56257.4
56202.1
56161.6
56135.2
56148.3
56140.6
56097.6
56040.9
55983.6
55941.9
55912.2
55922.1
55924.8
55885.2
55830.5
55762.8
55713.9
55676.5
55666
55694.9
55692.4
55650.5
55593.4
55517.6
55462.3
55422
55392.6
55402.2
55422.5
55396
55350.2
55302.7
55259.8
55221.3
55180.9
55136.9
55088.5
55043.8
55006.9
54995.7
55036
55078.6
55056.3
55008.7
54938.1
54824.6
54743.2
54697.3
54660.9
54651.5
54695.9
54747.8
54731.3
54686.4
54623.2
54527
54456.1
54412.7
54377.4
54373.4
54414.8
54432
54398.3
54347.7
54271.8
54196.4
54150
54113.7
54101.6
54132.9
54147.2
54112.9
54062.4
53987.7
53919.7
53876.7
53842.2
53839.4
53876.9
53878.8
53839.5
53785.6
53703.4
53635.6
53593.3
53559.5
53558.3
53600.6
53610.1
53573.8
53522.5
53443.4
53367.9
53322.2
53286.2
53272.3
53302.8
53325.4
53295.6
53248.4
53180.6
53110.9
53065.9
53030
53014.4
53038.4
53041
53003.2
52952.5
52883.4
52830.6
52792.4
52765.1
52776.7
52798.4
52772
52726.8
52663.9
52601.6
52559.5
52525.1
52515.8
52538.6
52525.3
52484.1
52428.7
52366.9
52324
52289.6
52279.4
52306.4
52300.9
52261.6
52208.5
52134.7
52080.5
52042.7
52013.6
52021.3
52051.3
52032.9
51990.8
51933.2
51862.8
51815.5
51779.5
51756
51771.2
51786.2
51756.1
51710.9
51647.9
51590.2
51550.5
51517.7
51511
51532.9
51516.3
51475.6
51421.4
51362.8
51321.3
51287.6
51275.3
51295
51282.1
51242.3
51189.4
51128
51084.9
51050.5
51033.9
51055.6
51058.2
51022.8
50975.8
50910.7
50858.3
50820.4
50788.4
50783.8
50801.3
50780
50739.5
50689.9
50645.4
50609.8
50584.9
50582.6
50556.6
50516.2
50470.8
50432.2
50399.8
50392.7
50403.6
50377.4
50335.4
50279.7
50229.2
50192.2
50162
50160.6
50171.7
50144
50101.8
50047.1
49999.8
49964.2
49936.2
49941.3
49951.7
49922.6
49879.8
49821.7
49769.3
49731.8
49699.8
49691.4
49706.6
49686.1
49646.7
49597.1
49550.2
49514.2
49484.7
49484
49475
49439.1