/*--------------------------------*- C++ -*----------------------------------*\
  =========                 |
  \\      /  F ield         | OpenFOAM: The Open Source CFD Toolbox
   \\    /   O peration     | Website:  https://openfoam.org
    \\  /    A nd           | Version:  9
     \\/     M anipulation  |
\*---------------------------------------------------------------------------*/
FoamFile
{
    format      ascii;
    class       volVectorField;
    location    "0.009";
    object      ddt0(rho,U);
}
// * * * * * * * * * * * * * * * * * * * * * * * * * * * * * * * * * * * * * //

dimensions      [1 -2 -2 0 0 0 0];

internalField   nonuniform List<vector> 
100
(
(0.704536 0 0)
(2.39579 0 0)
(6.11618 0 0)
(15.4894 0 0)
(37.7765 0 0)
(88.7493 0 0)
(200.277 0 0)
(432.808 0 0)
(892.376 0 0)
(1747.55 0 0)
(3224.97 0 0)
(5506.75 0 0)
(8355.78 0 0)
(11361.5 0 0)
(14281.3 0 0)
(16785.7 0 0)
(18562.3 0 0)
(19510.5 0 0)
(19709.8 0 0)
(19337.3 0 0)
(18581.8 0 0)
(17596.6 0 0)
(16489.4 0 0)
(15329.6 0 0)
(14160.6 0 0)
(13009 0 0)
(11891.6 0 0)
(10818.5 0 0)
(9796.98 0 0)
(8830.16 0 0)
(7918.13 0 0)
(7080.15 0 0)
(6241.47 0 0)
(5617.87 0 0)
(4749.05 0 0)
(4298.9 0 0)
(3802.8 0 0)
(2833.36 0 0)
(2911.99 0 0)
(2509.75 0 0)
(1401.72 0 0)
(1486.32 0 0)
(1946.2 0 0)
(1084.89 0 0)
(26.6749 0 0)
(440.378 0 0)
(1357.68 0 0)
(988.062 0 0)
(-402.12 0 0)
(-834.493 0 0)
(226.932 0 0)
(924.363 0 0)
(1349.65 0 0)
(-240.48 0 0)
(-1291.62 0 0)
(-330.713 0 0)
(276.642 0 0)
(531.818 0 0)
(824.854 0 0)
(534.195 0 0)
(-166.756 0 0)
(-170.199 0 0)
(-105.07 0 0)
(103.879 0 0)
(866.7 0 0)
(565.437 0 0)
(233.283 0 0)
(-33.2659 0 0)
(90.8703 0 0)
(-488.988 0 0)
(559.034 0 0)
(1892.29 0 0)
(2405.23 0 0)
(12748.1 0 0)
(37242.5 0 0)
(30480.3 0 0)
(20699.6 0 0)
(14791.6 0 0)
(7050.37 0 0)
(3318.07 0 0)
(4284.35 0 0)
(1545.92 0 0)
(-522.301 0 0)
(1848.08 0 0)
(-1104.02 0 0)
(-1565.14 0 0)
(2859.82 0 0)
(1567.21 0 0)
(-773.968 0 0)
(-5343.33 0 0)
(5070.87 0 0)
(7121.48 0 0)
(2173.15 0 0)
(-691.228 0 0)
(-4876.9 0 0)
(8140.34 0 0)
(10684.7 0 0)
(9487.72 0 0)
(23799.5 0 0)
(81673.2 0 0)
)
;

boundaryField
{
    sides
    {
        type            calculated;
        value           nonuniform List<vector> 2((81673.2 0 0) (0.704536 0 0));
    }
    empty
    {
        type            empty;
    }
}


// ************************************************************************* //
