/*--------------------------------*- C++ -*----------------------------------*\
  =========                 |
  \\      /  F ield         | OpenFOAM: The Open Source CFD Toolbox
   \\    /   O peration     | Website:  https://openfoam.org
    \\  /    A nd           | Version:  9
     \\/     M anipulation  |
\*---------------------------------------------------------------------------*/
FoamFile
{
    format      ascii;
    class       volScalarField;
    location    "0.009";
    object      ddt0(p);
}
// * * * * * * * * * * * * * * * * * * * * * * * * * * * * * * * * * * * * * //

dimensions      [1 -1 -3 0 0 0 0];

internalField   nonuniform List<scalar> 
100
(
-265.676
-863.44
-2232.98
-5664.71
-13842
-32581.3
-73680
-159615
-330059
-648871
-1.20546e+06
-2.09144e+06
-3.23891e+06
-4.38293e+06
-5.55565e+06
-6.58615e+06
-7.3611e+06
-7.83541e+06
-8.03269e+06
-8.01342e+06
-7.84402e+06
-7.57919e+06
-7.25762e+06
-6.90456e+06
-6.53588e+06
-6.16158e+06
-5.78798e+06
-5.41937e+06
-5.05822e+06
-4.70723e+06
-4.36558e+06
-4.03891e+06
-3.71817e+06
-3.41931e+06
-3.12398e+06
-2.84212e+06
-2.58409e+06
-2.32258e+06
-2.09241e+06
-1.86648e+06
-1.64443e+06
-1.4406e+06
-1.25328e+06
-1.07698e+06
-914249
-758029
-615254
-483367
-396693
-292327
-168596
-163313
22549.6
-129418
23978.8
57168
20205
42921.6
51828.9
67411.5
-26352.8
33402.3
731.207
925.828
27416.7
4419.4
-4004.86
-34046
48729.7
-137389
136012
345593
-458068
-279725
431215
84090.6
-77360.3
597292
-525305
-634226
835719
64645.4
-521470
778055
-309538
-528240
1.39113e+06
423497
-454599
-2.79807e+06
1.84638e+06
2.66377e+06
395121
-594241
-2.93931e+06
2.83596e+06
3.24251e+06
1.17803e+06
4.84494e+06
2.36995e+07
)
;

boundaryField
{
    sides
    {
        type            calculated;
        value           nonuniform List<scalar> 2(2.36995e+07 -265.676);
    }
    empty
    {
        type            empty;
    }
}


// ************************************************************************* //
