/*--------------------------------*- C++ -*----------------------------------*\
  =========                 |
  \\      /  F ield         | OpenFOAM: The Open Source CFD Toolbox
   \\    /   O peration     | Website:  https://openfoam.org
    \\  /    A nd           | Version:  9
     \\/     M anipulation  |
\*---------------------------------------------------------------------------*/
FoamFile
{
    format      ascii;
    class       volScalarField;
    location    "0.009";
    object      mag(U);
}
// * * * * * * * * * * * * * * * * * * * * * * * * * * * * * * * * * * * * * //

dimensions      [0 1 -1 0 0 0 0];

internalField   nonuniform List<scalar> 
100
(
0.000166104
0.000581426
0.00154337
0.00406743
0.0103556
0.0254827
0.0604823
0.13817
0.303068
0.63653
1.27546
2.42264
4.29282
7.02242
10.6847
15.2994
20.7942
27.0295
33.8408
41.0751
48.6098
56.3551
64.249
72.2486
80.3241
88.4535
96.6205
104.811
113.016
121.221
129.425
137.602
145.78
153.883
161.998
170.015
177.97
185.9
193.675
201.383
208.994
216.42
223.693
230.801
237.674
244.296
250.666
256.708
262.362
267.637
272.487
276.92
280.775
283.993
286.805
289.132
290.915
292.253
293.112
293.507
293.702
293.839
293.915
293.983
294.025
294.04
294.049
294.074
294.12
294.184
294.265
294.348
294.473
294.657
294.586
294.16
293.692
293.258
292.898
292.684
292.49
292.23
292.027
291.826
291.578
291.389
291.187
290.845
290.475
290.27
289.9
289.018
288.014
287.137
286.337
285.397
283.915
281.442
281.544
232.505
)
;

boundaryField
{
    sides
    {
        type            calculated;
        value           nonuniform List<scalar> 2(232.505 0.000166104);
    }
    empty
    {
        type            empty;
    }
}


// ************************************************************************* //
