/*--------------------------------*- C++ -*----------------------------------*\
  =========                 |
  \\      /  F ield         | OpenFOAM: The Open Source CFD Toolbox
   \\    /   O peration     | Website:  https://openfoam.org
    \\  /    A nd           | Version:  9
     \\/     M anipulation  |
\*---------------------------------------------------------------------------*/
FoamFile
{
    format      ascii;
    class       volScalarField;
    location    "0.009";
    object      p_0;
}
// * * * * * * * * * * * * * * * * * * * * * * * * * * * * * * * * * * * * * //

dimensions      [1 -1 -2 0 0 0 0];

internalField   nonuniform List<scalar> 
100
(
99999.9
99999.8
99999.5
99998.6
99996.4
99991
99978.6
99951
99892
99772.3
99541.6
99124
98429.3
97421.4
96083.5
94417.5
92465.4
90292.8
87971
85562.8
83116.5
80666
78233.6
75834.1
73476.9
71168.4
68912.7
66712.7
64570.5
62486.7
60463.8
58498.5
56599.7
54750.5
52981
51248.5
49601.6
48001
46462.6
44994.7
43584.2
42235.6
40953.2
39737.1
38589.2
37510.7
36500.4
35559.7
34703.1
33923.5
33216.7
32593
32041.2
31571.5
31210.8
30897
30655.5
30481.8
30364.9
30272.7
30244.5
30228.6
30224.9
30225.5
30226.5
30229.2
30228.1
30230
30229.6
30239.9
30250.5
30245.9
30250.1
30267
30251.7
30238.4
30253
30242.8
30232.3
30274.6
30269.1
30215.5
30230.8
30217.4
30187.4
30246.2
30218.6
30134
30095.8
30162.3
30212
29959
29874.2
29832.3
29914.8
29892.1
29486.3
29020.4
28284.8
26228.3
)
;

boundaryField
{
    sides
    {
        type            zeroGradient;
    }
    empty
    {
        type            empty;
    }
}


// ************************************************************************* //
