/*--------------------------------*- C++ -*----------------------------------*\
  =========                 |
  \\      /  F ield         | OpenFOAM: The Open Source CFD Toolbox
   \\    /   O peration     | Website:  https://openfoam.org
    \\  /    A nd           | Version:  9
     \\/     M anipulation  |
\*---------------------------------------------------------------------------*/
FoamFile
{
    format      ascii;
    class       volVectorField;
    location    "0.009";
    object      U_0;
}
// * * * * * * * * * * * * * * * * * * * * * * * * * * * * * * * * * * * * * //

dimensions      [0 1 -1 0 0 0 0];

internalField   nonuniform List<vector> 
100
(
(0.00015888 0 0)
(0.00055688 0 0)
(0.00148077 0 0)
(0.00390903 0 0)
(0.00996964 0 0)
(0.0245769 0 0)
(0.05844 0 0)
(0.13376 0 0)
(0.293978 0 0)
(0.618721 0 0)
(1.24253 0 0)
(2.3662 0 0)
(4.20651 0 0)
(6.90356 0 0)
(10.5325 0 0)
(15.1161 0 0)
(20.5854 0 0)
(26.8023 0 0)
(33.6023 0 0)
(40.8312 0 0)
(48.3647 0 0)
(56.112 0 0)
(64.0098 0 0)
(72.0148 0 0)
(80.0965 0 0)
(88.2329 0 0)
(96.4073 0 0)
(104.606 0 0)
(112.818 0 0)
(121.032 0 0)
(129.245 0 0)
(137.43 0 0)
(145.617 0 0)
(153.729 0 0)
(161.853 0 0)
(169.879 0 0)
(177.844 0 0)
(185.782 0 0)
(193.566 0 0)
(201.284 0 0)
(208.904 0 0)
(216.338 0 0)
(223.619 0 0)
(230.736 0 0)
(237.618 0 0)
(244.248 0 0)
(250.626 0 0)
(256.675 0 0)
(262.336 0 0)
(267.618 0 0)
(272.473 0 0)
(276.912 0 0)
(280.767 0 0)
(283.989 0 0)
(286.808 0 0)
(289.135 0 0)
(290.919 0 0)
(292.258 0 0)
(293.112 0 0)
(293.504 0 0)
(293.703 0 0)
(293.841 0 0)
(293.917 0 0)
(293.985 0 0)
(294.026 0 0)
(294.04 0 0)
(294.049 0 0)
(294.075 0 0)
(294.122 0 0)
(294.188 0 0)
(294.269 0 0)
(294.35 0 0)
(294.479 0 0)
(294.663 0 0)
(294.58 0 0)
(294.147 0 0)
(293.679 0 0)
(293.241 0 0)
(292.892 0 0)
(292.685 0 0)
(292.474 0 0)
(292.214 0 0)
(292.022 0 0)
(291.812 0 0)
(291.575 0 0)
(291.391 0 0)
(291.161 0 0)
(290.81 0 0)
(290.466 0 0)
(290.288 0 0)
(289.856 0 0)
(288.926 0 0)
(287.958 0 0)
(287.117 0 0)
(286.327 0 0)
(285.293 0 0)
(283.701 0 0)
(281.136 0 0)
(281.017 0 0)
(230.622 0 0)
)
;

boundaryField
{
    sides
    {
        type            zeroGradient;
    }
    empty
    {
        type            empty;
    }
}


// ************************************************************************* //
