/*--------------------------------*- C++ -*----------------------------------*\
  =========                 |
  \\      /  F ield         | OpenFOAM: The Open Source CFD Toolbox
   \\    /   O peration     | Website:  https://openfoam.org
    \\  /    A nd           | Version:  9
     \\/     M anipulation  |
\*---------------------------------------------------------------------------*/
FoamFile
{
    format      ascii;
    class       volScalarField;
    location    "0.044";
    object      rho;
}
// * * * * * * * * * * * * * * * * * * * * * * * * * * * * * * * * * * * * * //

dimensions      [1 -3 0 0 0 0 0];

internalField   nonuniform List<scalar> 
10000
(
0.18694
0.186938
0.186935
0.186931
0.186928
0.186925
0.186922
0.186918
0.186915
0.186912
0.186909
0.186905
0.186902
0.186899
0.186896
0.186892
0.186889
0.186886
0.186883
0.18688
0.186876
0.186873
0.18687
0.186867
0.186863
0.18686
0.186857
0.186854
0.186851
0.186847
0.186844
0.186841
0.186838
0.186835
0.186831
0.186828
0.186825
0.186822
0.186818
0.186815
0.186812
0.186809
0.186806
0.186802
0.186799
0.186796
0.186793
0.18679
0.186786
0.186783
0.18678
0.186777
0.186774
0.186771
0.186767
0.186764
0.186761
0.186758
0.186755
0.186751
0.186748
0.186745
0.186742
0.186739
0.186735
0.186732
0.186729
0.186726
0.186723
0.18672
0.186716
0.186713
0.18671
0.186707
0.186704
0.186701
0.186698
0.186694
0.186691
0.186688
0.186685
0.186682
0.186678
0.186675
0.186672
0.186669
0.186666
0.186663
0.18666
0.186657
0.186653
0.18665
0.186647
0.186644
0.186641
0.186638
0.186635
0.186632
0.186628
0.186625
0.186622
0.186619
0.186616
0.186613
0.18661
0.186606
0.186603
0.1866
0.186597
0.186594
0.186591
0.186588
0.186585
0.186582
0.186578
0.186575
0.186572
0.186569
0.186566
0.186563
0.18656
0.186557
0.186554
0.186551
0.186548
0.186545
0.186542
0.186538
0.186535
0.186532
0.186529
0.186526
0.186523
0.18652
0.186517
0.186515
0.186512
0.186509
0.186506
0.186503
0.1865
0.186496
0.186493
0.18649
0.186487
0.186484
0.18648
0.186477
0.186474
0.186471
0.186469
0.186466
0.186463
0.18646
0.186458
0.186455
0.186452
0.18645
0.186447
0.186444
0.186441
0.186438
0.186435
0.186432
0.186428
0.186425
0.186422
0.186418
0.186415
0.186412
0.186409
0.186405
0.186402
0.186399
0.186397
0.186394
0.186391
0.186389
0.186386
0.186384
0.186382
0.18638
0.186379
0.186377
0.186375
0.186374
0.186372
0.186371
0.18637
0.186369
0.186367
0.186366
0.186365
0.186364
0.186363
0.186362
0.186361
0.186359
0.186359
0.186358
0.186357
0.186356
0.186355
0.186354
0.186353
0.186353
0.186352
0.186351
0.18635
0.186349
0.186348
0.186348
0.186347
0.186346
0.186345
0.186344
0.186343
0.186343
0.186342
0.186341
0.18634
0.186339
0.186339
0.186338
0.186337
0.186336
0.186335
0.186334
0.186334
0.186333
0.186332
0.186331
0.18633
0.186329
0.186329
0.186328
0.186327
0.186326
0.186325
0.186324
0.186324
0.186323
0.186322
0.186321
0.18632
0.186319
0.186319
0.186318
0.186317
0.186316
0.186315
0.186315
0.186314
0.186313
0.186312
0.186311
0.18631
0.18631
0.186309
0.186308
0.186307
0.186306
0.186305
0.186305
0.186304
0.186303
0.186302
0.186301
0.1863
0.1863
0.186299
0.186298
0.186297
0.186296
0.186296
0.186295
0.186294
0.186293
0.186292
0.186291
0.186291
0.18629
0.186289
0.186288
0.186287
0.186286
0.186286
0.186285
0.186284
0.186283
0.186282
0.186282
0.186281
0.18628
0.186279
0.186278
0.186277
0.186277
0.186276
0.186275
0.186274
0.186273
0.186272
0.186272
0.186271
0.18627
0.186269
0.186268
0.186268
0.186267
0.186266
0.186265
0.186264
0.186263
0.186263
0.186262
0.186261
0.18626
0.186259
0.186258
0.186258
0.186257
0.186256
0.186255
0.186254
0.186254
0.186253
0.186252
0.186251
0.18625
0.186249
0.186249
0.186248
0.186247
0.186246
0.186245
0.186245
0.186244
0.186243
0.186242
0.186241
0.18624
0.18624
0.186239
0.186238
0.186237
0.186236
0.186236
0.186235
0.186234
0.186233
0.186232
0.186231
0.186231
0.18623
0.186229
0.186228
0.186227
0.186227
0.186226
0.186225
0.186224
0.186223
0.186222
0.186222
0.186221
0.18622
0.186219
0.186218
0.186218
0.186217
0.186216
0.186215
0.186214
0.186213
0.186213
0.186212
0.186211
0.18621
0.186209
0.186209
0.186208
0.186207
0.186206
0.186205
0.186205
0.186204
0.186203
0.186202
0.186201
0.1862
0.1862
0.186199
0.186198
0.186197
0.186196
0.186196
0.186195
0.186194
0.186193
0.186192
0.186191
0.186191
0.18619
0.186189
0.186188
0.186187
0.186187
0.186186
0.186185
0.186184
0.186183
0.186183
0.186182
0.186181
0.18618
0.186179
0.186178
0.186178
0.186177
0.186176
0.186175
0.186174
0.186174
0.186173
0.186172
0.186171
0.18617
0.18617
0.186169
0.186168
0.186167
0.186166
0.186166
0.186165
0.186164
0.186163
0.186162
0.186161
0.186161
0.18616
0.186159
0.186158
0.186157
0.186157
0.186156
0.186155
0.186154
0.186153
0.186153
0.186152
0.186151
0.18615
0.186149
0.186149
0.186148
0.186147
0.186146
0.186145
0.186145
0.186144
0.186143
0.186142
0.186141
0.186141
0.18614
0.186139
0.186138
0.186137
0.186137
0.186136
0.186135
0.186134
0.186133
0.186132
0.186132
0.186131
0.18613
0.186129
0.186129
0.186128
0.186127
0.186126
0.186125
0.186124
0.186124
0.186123
0.186122
0.186121
0.186121
0.18612
0.186119
0.186118
0.186117
0.186116
0.186116
0.186115
0.186114
0.186113
0.186113
0.186112
0.186111
0.18611
0.186109
0.186108
0.186108
0.186107
0.186106
0.186105
0.186105
0.186104
0.186103
0.186102
0.186101
0.1861
0.1861
0.186099
0.186098
0.186097
0.186097
0.186096
0.186095
0.186094
0.186093
0.186093
0.186092
0.186091
0.18609
0.186089
0.186089
0.186088
0.186087
0.186086
0.186085
0.186085
0.186084
0.186083
0.186082
0.186081
0.186081
0.18608
0.186079
0.186078
0.186077
0.186077
0.186076
0.186075
0.186074
0.186073
0.186073
0.186072
0.186071
0.18607
0.18607
0.186069
0.186068
0.186067
0.186066
0.186066
0.186065
0.186064
0.186063
0.186062
0.186062
0.186061
0.18606
0.186059
0.186059
0.186058
0.186057
0.186056
0.186055
0.186055
0.186054
0.186053
0.186052
0.186051
0.186051
0.18605
0.186049
0.186048
0.186048
0.186047
0.186046
0.186045
0.186044
0.186044
0.186043
0.186042
0.186041
0.18604
0.18604
0.186039
0.186038
0.186037
0.186037
0.186036
0.186035
0.186034
0.186033
0.186033
0.186032
0.186031
0.18603
0.18603
0.186029
0.186028
0.186027
0.186026
0.186026
0.186025
0.186024
0.186023
0.186023
0.186022
0.186021
0.18602
0.186019
0.186019
0.186018
0.186017
0.186016
0.186016
0.186015
0.186014
0.186013
0.186012
0.186012
0.186011
0.18601
0.186009
0.186009
0.186008
0.186007
0.186006
0.186005
0.186005
0.186004
0.186003
0.186002
0.186002
0.186001
0.186
0.185999
0.185999
0.185998
0.185997
0.185996
0.185995
0.185995
0.185994
0.185993
0.185992
0.185992
0.185991
0.18599
0.185989
0.185989
0.185988
0.185987
0.185986
0.185985
0.185985
0.185984
0.185983
0.185982
0.185982
0.185981
0.18598
0.185979
0.185979
0.185978
0.185977
0.185976
0.185976
0.185975
0.185974
0.185973
0.185973
0.185972
0.185971
0.18597
0.185969
0.185969
0.185968
0.185967
0.185966
0.185966
0.185965
0.185964
0.185963
0.185963
0.185962
0.185961
0.18596
0.18596
0.185959
0.185958
0.185957
0.185957
0.185956
0.185955
0.185954
0.185954
0.185953
0.185952
0.185951
0.185951
0.18595
0.185949
0.185948
0.185948
0.185947
0.185946
0.185945
0.185945
0.185944
0.185943
0.185942
0.185942
0.185941
0.18594
0.185939
0.185939
0.185938
0.185937
0.185936
0.185936
0.185935
0.185934
0.185933
0.185933
0.185932
0.185931
0.18593
0.18593
0.185929
0.185928
0.185927
0.185927
0.185926
0.185925
0.185924
0.185924
0.185923
0.185922
0.185922
0.185921
0.18592
0.185919
0.185919
0.185918
0.185917
0.185916
0.185916
0.185915
0.185914
0.185913
0.185913
0.185912
0.185911
0.18591
0.18591
0.185909
0.185908
0.185908
0.185907
0.185906
0.185905
0.185905
0.185904
0.185903
0.185902
0.185902
0.185901
0.1859
0.1859
0.185899
0.185898
0.185897
0.185897
0.185896
0.185895
0.185894
0.185894
0.185893
0.185892
0.185892
0.185891
0.18589
0.185889
0.185889
0.185888
0.185887
0.185887
0.185886
0.185885
0.185884
0.185884
0.185883
0.185882
0.185882
0.185881
0.18588
0.185879
0.185879
0.185878
0.185877
0.185877
0.185876
0.185875
0.185874
0.185874
0.185873
0.185872
0.185872
0.185871
0.18587
0.185869
0.185869
0.185868
0.185867
0.185867
0.185866
0.185865
0.185864
0.185864
0.185863
0.185862
0.185862
0.185861
0.18586
0.18586
0.185859
0.185858
0.185857
0.185857
0.185856
0.185855
0.185855
0.185854
0.185853
0.185853
0.185852
0.185851
0.18585
0.18585
0.185849
0.185848
0.185848
0.185847
0.185846
0.185846
0.185845
0.185844
0.185844
0.185843
0.185842
0.185842
0.185841
0.18584
0.185839
0.185839
0.185838
0.185837
0.185837
0.185836
0.185835
0.185835
0.185834
0.185833
0.185833
0.185832
0.185831
0.185831
0.18583
0.185829
0.185829
0.185828
0.185827
0.185827
0.185826
0.185825
0.185825
0.185824
0.185823
0.185823
0.185822
0.185821
0.18582
0.18582
0.185819
0.185818
0.185818
0.185817
0.185816
0.185816
0.185815
0.185815
0.185814
0.185813
0.185813
0.185812
0.185811
0.185811
0.18581
0.185809
0.185809
0.185808
0.185807
0.185807
0.185806
0.185805
0.185805
0.185804
0.185803
0.185803
0.185802
0.185801
0.185801
0.1858
0.185799
0.185799
0.185798
0.185798
0.185797
0.185796
0.185796
0.185795
0.185794
0.185794
0.185793
0.185792
0.185792
0.185791
0.18579
0.18579
0.185789
0.185789
0.185788
0.185787
0.185787
0.185786
0.185785
0.185785
0.185784
0.185784
0.185783
0.185782
0.185782
0.185781
0.18578
0.18578
0.185779
0.185779
0.185778
0.185777
0.185777
0.185776
0.185775
0.185775
0.185774
0.185774
0.185773
0.185772
0.185772
0.185771
0.185771
0.18577
0.185769
0.185769
0.185768
0.185767
0.185767
0.185766
0.185766
0.185765
0.185764
0.185764
0.185763
0.185763
0.185762
0.185761
0.185761
0.18576
0.18576
0.185759
0.185758
0.185758
0.185757
0.185757
0.185756
0.185756
0.185755
0.185754
0.185754
0.185753
0.185753
0.185752
0.185751
0.185751
0.18575
0.18575
0.185749
0.185749
0.185748
0.185747
0.185747
0.185746
0.185746
0.185745
0.185745
0.185744
0.185743
0.185743
0.185742
0.185742
0.185741
0.185741
0.18574
0.185739
0.185739
0.185738
0.185738
0.185737
0.185737
0.185736
0.185736
0.185735
0.185734
0.185734
0.185733
0.185733
0.185732
0.185732
0.185731
0.185731
0.18573
0.18573
0.185729
0.185729
0.185728
0.185727
0.185727
0.185726
0.185726
0.185725
0.185725
0.185724
0.185724
0.185723
0.185723
0.185722
0.185722
0.185721
0.185721
0.18572
0.18572
0.185719
0.185719
0.185718
0.185718
0.185717
0.185717
0.185716
0.185715
0.185715
0.185714
0.185714
0.185713
0.185713
0.185712
0.185712
0.185711
0.185711
0.185711
0.18571
0.18571
0.185709
0.185709
0.185708
0.185708
0.185707
0.185707
0.185706
0.185706
0.185705
0.185705
0.185704
0.185704
0.185703
0.185703
0.185702
0.185702
0.185701
0.185701
0.185701
0.1857
0.1857
0.185699
0.185699
0.185698
0.185698
0.185697
0.185697
0.185696
0.185696
0.185696
0.185695
0.185695
0.185694
0.185694
0.185693
0.185693
0.185692
0.185692
0.185692
0.185691
0.185691
0.18569
0.18569
0.185689
0.185689
0.185689
0.185688
0.185688
0.185687
0.185687
0.185687
0.185686
0.185686
0.185685
0.185685
0.185685
0.185684
0.185684
0.185683
0.185683
0.185683
0.185682
0.185682
0.185681
0.185681
0.185681
0.18568
0.18568
0.18568
0.185679
0.185679
0.185678
0.185678
0.185678
0.185677
0.185677
0.185677
0.185676
0.185676
0.185675
0.185675
0.185675
0.185674
0.185674
0.185674
0.185673
0.185673
0.185673
0.185672
0.185672
0.185672
0.185671
0.185671
0.185671
0.18567
0.18567
0.18567
0.185669
0.185669
0.185669
0.185669
0.185668
0.185668
0.185668
0.185667
0.185667
0.185667
0.185666
0.185666
0.185666
0.185666
0.185665
0.185665
0.185665
0.185664
0.185664
0.185664
0.185664
0.185663
0.185663
0.185663
0.185663
0.185662
0.185662
0.185662
0.185662
0.185661
0.185661
0.185661
0.185661
0.18566
0.18566
0.18566
0.18566
0.185659
0.185659
0.185659
0.185659
0.185658
0.185658
0.185658
0.185658
0.185658
0.185657
0.185657
0.185657
0.185657
0.185657
0.185656
0.185656
0.185656
0.185656
0.185656
0.185656
0.185655
0.185655
0.185655
0.185655
0.185655
0.185655
0.185654
0.185654
0.185654
0.185654
0.185654
0.185654
0.185654
0.185653
0.185653
0.185653
0.185653
0.185653
0.185653
0.185653
0.185653
0.185652
0.185652
0.185652
0.185652
0.185652
0.185652
0.185652
0.185652
0.185652
0.185652
0.185652
0.185652
0.185651
0.185651
0.185651
0.185651
0.185651
0.185651
0.185651
0.185651
0.185651
0.185651
0.185651
0.185651
0.185651
0.185651
0.185651
0.185651
0.185651
0.185651
0.185651
0.185651
0.185651
0.185651
0.185651
0.185651
0.185651
0.185651
0.185651
0.185651
0.185651
0.185651
0.185651
0.185651
0.185651
0.185651
0.185651
0.185651
0.185651
0.185652
0.185652
0.185652
0.185652
0.185652
0.185652
0.185652
0.185652
0.185652
0.185652
0.185653
0.185653
0.185653
0.185653
0.185653
0.185653
0.185653
0.185653
0.185654
0.185654
0.185654
0.185654
0.185654
0.185654
0.185655
0.185655
0.185655
0.185655
0.185655
0.185656
0.185656
0.185656
0.185656
0.185656
0.185657
0.185657
0.185657
0.185657
0.185658
0.185658
0.185658
0.185658
0.185659
0.185659
0.185659
0.18566
0.18566
0.18566
0.18566
0.185661
0.185661
0.185661
0.185662
0.185662
0.185662
0.185663
0.185663
0.185663
0.185664
0.185664
0.185665
0.185665
0.185665
0.185666
0.185666
0.185667
0.185667
0.185667
0.185668
0.185668
0.185669
0.185669
0.185669
0.18567
0.18567
0.185671
0.185671
0.185672
0.185672
0.185673
0.185673
0.185674
0.185674
0.185675
0.185675
0.185676
0.185676
0.185677
0.185677
0.185678
0.185679
0.185679
0.18568
0.18568
0.185681
0.185682
0.185682
0.185683
0.185683
0.185684
0.185685
0.185685
0.185686
0.185687
0.185687
0.185688
0.185689
0.185689
0.18569
0.185691
0.185691
0.185692
0.185693
0.185694
0.185694
0.185695
0.185696
0.185697
0.185697
0.185698
0.185699
0.1857
0.185701
0.185701
0.185702
0.185703
0.185704
0.185705
0.185706
0.185706
0.185707
0.185708
0.185709
0.18571
0.185711
0.185712
0.185713
0.185714
0.185715
0.185716
0.185717
0.185717
0.185718
0.185719
0.18572
0.185721
0.185722
0.185724
0.185725
0.185726
0.185727
0.185728
0.185729
0.18573
0.185731
0.185732
0.185733
0.185734
0.185736
0.185737
0.185738
0.185739
0.18574
0.185741
0.185743
0.185744
0.185745
0.185746
0.185747
0.185749
0.18575
0.185751
0.185753
0.185754
0.185755
0.185756
0.185758
0.185759
0.185761
0.185762
0.185763
0.185765
0.185766
0.185767
0.185769
0.18577
0.185772
0.185773
0.185775
0.185776
0.185778
0.185779
0.185781
0.185782
0.185784
0.185785
0.185787
0.185789
0.18579
0.185792
0.185793
0.185795
0.185797
0.185798
0.1858
0.185802
0.185803
0.185805
0.185807
0.185809
0.18581
0.185812
0.185814
0.185816
0.185818
0.185819
0.185821
0.185823
0.185825
0.185827
0.185829
0.185831
0.185833
0.185834
0.185836
0.185838
0.18584
0.185842
0.185844
0.185846
0.185848
0.185851
0.185853
0.185855
0.185857
0.185859
0.185861
0.185863
0.185865
0.185868
0.18587
0.185872
0.185874
0.185877
0.185879
0.185881
0.185883
0.185886
0.185888
0.18589
0.185893
0.185895
0.185898
0.1859
0.185902
0.185905
0.185907
0.18591
0.185912
0.185915
0.185917
0.18592
0.185923
0.185925
0.185928
0.18593
0.185933
0.185936
0.185938
0.185941
0.185944
0.185947
0.185949
0.185952
0.185955
0.185958
0.185961
0.185964
0.185966
0.185969
0.185972
0.185975
0.185978
0.185981
0.185984
0.185987
0.18599
0.185993
0.185996
0.185999
0.186003
0.186006
0.186009
0.186012
0.186015
0.186019
0.186022
0.186025
0.186028
0.186032
0.186035
0.186038
0.186042
0.186045
0.186049
0.186052
0.186055
0.186059
0.186062
0.186066
0.18607
0.186073
0.186077
0.18608
0.186084
0.186088
0.186091
0.186095
0.186099
0.186103
0.186106
0.18611
0.186114
0.186118
0.186122
0.186126
0.18613
0.186134
0.186138
0.186142
0.186146
0.18615
0.186154
0.186158
0.186162
0.186166
0.18617
0.186174
0.186179
0.186183
0.186187
0.186191
0.186196
0.1862
0.186204
0.186209
0.186213
0.186218
0.186222
0.186227
0.186231
0.186236
0.18624
0.186245
0.18625
0.186254
0.186259
0.186264
0.186268
0.186273
0.186278
0.186283
0.186288
0.186292
0.186297
0.186302
0.186307
0.186312
0.186317
0.186322
0.186327
0.186332
0.186337
0.186342
0.186348
0.186353
0.186358
0.186363
0.186368
0.186374
0.186379
0.186384
0.18639
0.186395
0.186401
0.186406
0.186412
0.186417
0.186423
0.186428
0.186434
0.186439
0.186445
0.186451
0.186456
0.186462
0.186468
0.186474
0.186479
0.186485
0.186491
0.186497
0.186503
0.186509
0.186515
0.186521
0.186527
0.186533
0.186539
0.186545
0.186551
0.186557
0.186564
0.18657
0.186576
0.186582
0.186589
0.186595
0.186601
0.186608
0.186614
0.18662
0.186627
0.186633
0.18664
0.186646
0.186653
0.186659
0.186666
0.186673
0.186679
0.186686
0.186693
0.1867
0.186706
0.186713
0.18672
0.186727
0.186734
0.186741
0.186747
0.186754
0.186761
0.186768
0.186775
0.186782
0.186789
0.186797
0.186804
0.186811
0.186818
0.186825
0.186832
0.18684
0.186847
0.186854
0.186861
0.186869
0.186876
0.186884
0.186891
0.186898
0.186906
0.186913
0.186921
0.186928
0.186936
0.186943
0.186951
0.186959
0.186966
0.186974
0.186982
0.186989
0.186997
0.187005
0.187013
0.18702
0.187028
0.187036
0.187044
0.187052
0.18706
0.187067
0.187075
0.187083
0.187091
0.187099
0.187107
0.187115
0.187123
0.187131
0.187139
0.187148
0.187156
0.187164
0.187172
0.18718
0.187188
0.187196
0.187205
0.187213
0.187221
0.187229
0.187238
0.187246
0.187254
0.187263
0.187271
0.187279
0.187288
0.187296
0.187305
0.187313
0.187322
0.18733
0.187339
0.187347
0.187356
0.187364
0.187373
0.187381
0.18739
0.187398
0.187407
0.187416
0.187424
0.187433
0.187441
0.18745
0.187459
0.187467
0.187476
0.187485
0.187494
0.187502
0.187511
0.18752
0.187529
0.187537
0.187546
0.187555
0.187564
0.187573
0.187581
0.18759
0.187599
0.187608
0.187617
0.187626
0.187635
0.187644
0.187653
0.187661
0.18767
0.187679
0.187688
0.187697
0.187706
0.187715
0.187724
0.187733
0.187742
0.187751
0.18776
0.187769
0.187778
0.187787
0.187796
0.187805
0.187815
0.187824
0.187833
0.187842
0.187851
0.18786
0.187869
0.187878
0.187887
0.187896
0.187906
0.187915
0.187924
0.187933
0.187942
0.187951
0.187961
0.18797
0.187979
0.187988
0.187997
0.188006
0.188016
0.188025
0.188034
0.188043
0.188053
0.188062
0.188071
0.18808
0.188089
0.188099
0.188108
0.188117
0.188126
0.188136
0.188145
0.188154
0.188163
0.188173
0.188182
0.188191
0.188201
0.18821
0.188219
0.188228
0.188238
0.188247
0.188256
0.188266
0.188275
0.188284
0.188294
0.188303
0.188312
0.188322
0.188331
0.18834
0.18835
0.188359
0.188368
0.188378
0.188387
0.188396
0.188406
0.188415
0.188424
0.188434
0.188443
0.188452
0.188462
0.188471
0.188481
0.18849
0.188499
0.188509
0.188518
0.188527
0.188537
0.188546
0.188556
0.188565
0.188574
0.188584
0.188593
0.188602
0.188612
0.188621
0.188631
0.18864
0.188649
0.188659
0.188668
0.188678
0.188687
0.188696
0.188706
0.188715
0.188725
0.188734
0.188744
0.188753
0.188762
0.188772
0.188781
0.188791
0.1888
0.188809
0.188819
0.188828
0.188838
0.188847
0.188857
0.188866
0.188875
0.188885
0.188894
0.188904
0.188913
0.188923
0.188932
0.188941
0.188951
0.18896
0.18897
0.188979
0.188989
0.188998
0.189008
0.189017
0.189026
0.189036
0.189045
0.189055
0.189064
0.189074
0.189083
0.189093
0.189102
0.189111
0.189121
0.18913
0.18914
0.189149
0.189159
0.189168
0.189178
0.189187
0.189197
0.189206
0.189215
0.189225
0.189234
0.189244
0.189253
0.189263
0.189272
0.189282
0.189291
0.189301
0.18931
0.18932
0.189329
0.189338
0.189348
0.189357
0.189367
0.189376
0.189386
0.189395
0.189405
0.189414
0.189424
0.189433
0.189443
0.189452
0.189462
0.189471
0.189481
0.18949
0.1895
0.189509
0.189519
0.189528
0.189537
0.189547
0.189556
0.189566
0.189575
0.189585
0.189594
0.189604
0.189613
0.189623
0.189632
0.189642
0.189651
0.189661
0.18967
0.18968
0.189689
0.189699
0.189708
0.189718
0.189727
0.189737
0.189746
0.189756
0.189765
0.189775
0.189784
0.189794
0.189803
0.189813
0.189822
0.189832
0.189841
0.189851
0.18986
0.18987
0.189879
0.189889
0.189898
0.189908
0.189917
0.189927
0.189936
0.189946
0.189955
0.189965
0.189974
0.189984
0.189993
0.190003
0.190012
0.190022
0.190031
0.190041
0.19005
0.19006
0.190069
0.190079
0.190088
0.190098
0.190107
0.190117
0.190127
0.190136
0.190146
0.190155
0.190165
0.190174
0.190184
0.190193
0.190203
0.190212
0.190222
0.190231
0.190241
0.19025
0.19026
0.190269
0.190279
0.190288
0.190298
0.190308
0.190317
0.190327
0.190336
0.190346
0.190355
0.190365
0.190374
0.190384
0.190393
0.190403
0.190412
0.190422
0.190431
0.190441
0.190451
0.19046
0.19047
0.190479
0.190489
0.190498
0.190508
0.190517
0.190527
0.190536
0.190546
0.190555
0.190565
0.190575
0.190584
0.190594
0.190603
0.190613
0.190622
0.190632
0.190641
0.190651
0.190661
0.19067
0.19068
0.190689
0.190699
0.190708
0.190718
0.190727
0.190737
0.190747
0.190756
0.190766
0.190775
0.190785
0.190794
0.190804
0.190813
0.190823
0.190833
0.190842
0.190852
0.190861
0.190871
0.19088
0.19089
0.190899
0.190909
0.190919
0.190928
0.190938
0.190947
0.190957
0.190966
0.190976
0.190986
0.190995
0.191005
0.191014
0.191024
0.191033
0.191043
0.191053
0.191062
0.191072
0.191081
0.191091
0.191101
0.19111
0.19112
0.191129
0.191139
0.191148
0.191158
0.191168
0.191177
0.191187
0.191196
0.191206
0.191215
0.191225
0.191235
0.191244
0.191254
0.191263
0.191273
0.191283
0.191292
0.191302
0.191311
0.191321
0.191331
0.19134
0.19135
0.191359
0.191369
0.191379
0.191388
0.191398
0.191407
0.191417
0.191427
0.191436
0.191446
0.191455
0.191465
0.191475
0.191484
0.191494
0.191503
0.191513
0.191523
0.191532
0.191542
0.191551
0.191561
0.191571
0.19158
0.19159
0.191599
0.191609
0.191619
0.191628
0.191638
0.191647
0.191657
0.191667
0.191676
0.191686
0.191696
0.191705
0.191715
0.191724
0.191734
0.191744
0.191753
0.191763
0.191772
0.191782
0.191792
0.191801
0.191811
0.191821
0.19183
0.19184
0.191849
0.191859
0.191869
0.191878
0.191888
0.191898
0.191907
0.191917
0.191926
0.191936
0.191946
0.191955
0.191965
0.191975
0.191984
0.191994
0.192003
0.192013
0.192023
0.192032
0.192042
0.192052
0.192061
0.192071
0.192081
0.19209
0.1921
0.192109
0.192119
0.192129
0.192138
0.192148
0.192158
0.192167
0.192177
0.192187
0.192196
0.192206
0.192216
0.192225
0.192235
0.192245
0.192254
0.192264
0.192273
0.192283
0.192293
0.192302
0.192312
0.192322
0.192331
0.192341
0.192351
0.19236
0.19237
0.19238
0.192389
0.192399
0.192409
0.192418
0.192428
0.192438
0.192447
0.192457
0.192467
0.192476
0.192486
0.192496
0.192505
0.192515
0.192525
0.192534
0.192544
0.192554
0.192563
0.192573
0.192582
0.192592
0.192602
0.192612
0.192621
0.192631
0.192641
0.19265
0.19266
0.19267
0.192679
0.192689
0.192699
0.192708
0.192718
0.192728
0.192737
0.192747
0.192757
0.192766
0.192776
0.192786
0.192795
0.192805
0.192815
0.192825
0.192834
0.192844
0.192853
0.192863
0.192873
0.192883
0.192892
0.192902
0.192911
0.192921
0.192931
0.192941
0.19295
0.19296
0.19297
0.19298
0.192989
0.192999
0.193008
0.193018
0.193028
0.193038
0.193047
0.193057
0.193067
0.193077
0.193086
0.193096
0.193105
0.193115
0.193125
0.193135
0.193144
0.193154
0.193164
0.193174
0.193183
0.193193
0.193202
0.193212
0.193222
0.193232
0.193241
0.193251
0.193261
0.193271
0.19328
0.19329
0.193299
0.19331
0.193319
0.193329
0.193338
0.193348
0.193358
0.193368
0.193377
0.193387
0.193396
0.193407
0.193416
0.193426
0.193435
0.193446
0.193455
0.193465
0.193474
0.193484
0.193494
0.193504
0.193513
0.193523
0.193533
0.193543
0.193552
0.193562
0.193571
0.193582
0.193591
0.193601
0.19361
0.193621
0.19363
0.19364
0.193649
0.19366
0.193669
0.193679
0.193688
0.193699
0.193708
0.193718
0.193727
0.193738
0.193747
0.193757
0.193766
0.193777
0.193785
0.193796
0.193805
0.193815
0.193824
0.193835
0.193844
0.193854
0.193863
0.193874
0.193883
0.193893
0.193902
0.193913
0.193922
0.193932
0.193941
0.193952
0.193961
0.193971
0.19398
0.193991
0.194
0.194011
0.194019
0.19403
0.194039
0.19405
0.194058
0.194069
0.194078
0.194089
0.194097
0.194108
0.194117
0.194128
0.194136
0.194147
0.194156
0.194167
0.194175
0.194186
0.194195
0.194206
0.194214
0.194225
0.194234
0.194245
0.194253
0.194264
0.194273
0.194284
0.194293
0.194304
0.194312
0.194323
0.194332
0.194343
0.194351
0.194362
0.194371
0.194382
0.19439
0.194401
0.19441
0.194421
0.194429
0.19444
0.194449
0.19446
0.194468
0.194479
0.194488
0.194499
0.194508
0.194519
0.194527
0.194538
0.194547
0.194558
0.194566
0.194577
0.194586
0.194597
0.194606
0.194616
0.194625
0.194636
0.194645
0.194655
0.194665
0.194675
0.194684
0.194694
0.194704
0.194714
0.194723
0.194733
0.194743
0.194753
0.194763
0.194773
0.194782
0.194792
0.194802
0.194812
0.194822
0.194831
0.194841
0.194851
0.194861
0.194871
0.19488
0.19489
0.1949
0.19491
0.19492
0.194929
0.194939
0.194949
0.194959
0.194969
0.194978
0.194988
0.194998
0.195008
0.195018
0.195028
0.195037
0.195047
0.195057
0.195067
0.195077
0.195086
0.195096
0.195106
0.195116
0.195126
0.195136
0.195145
0.195155
0.195165
0.195175
0.195185
0.195194
0.195204
0.195214
0.195224
0.195234
0.195244
0.195253
0.195263
0.195273
0.195283
0.195293
0.195303
0.195312
0.195322
0.195332
0.195342
0.195352
0.195362
0.195371
0.195381
0.195391
0.195401
0.195411
0.195421
0.19543
0.19544
0.19545
0.19546
0.19547
0.19548
0.195489
0.195499
0.195509
0.195519
0.195529
0.195539
0.195548
0.195558
0.195568
0.195578
0.195588
0.195598
0.195608
0.195617
0.195627
0.195637
0.195647
0.195657
0.195667
0.195677
0.195686
0.195696
0.195706
0.195716
0.195726
0.195736
0.195746
0.195755
0.195765
0.195775
0.195785
0.195795
0.195805
0.195815
0.195824
0.195834
0.195844
0.195854
0.195864
0.195874
0.195884
0.195893
0.195903
0.195913
0.195923
0.195933
0.195943
0.195953
0.195962
0.195972
0.195982
0.195992
0.196002
0.196012
0.196022
0.196032
0.196041
0.196051
0.196061
0.196071
0.196081
0.196091
0.196101
0.196111
0.19612
0.19613
0.19614
0.19615
0.19616
0.19617
0.19618
0.19619
0.1962
0.196209
0.196219
0.196229
0.196239
0.196249
0.196259
0.196269
0.196279
0.196289
0.196298
0.196308
0.196318
0.196328
0.196338
0.196348
0.196358
0.196368
0.196378
0.196387
0.196397
0.196407
0.196417
0.196427
0.196437
0.196447
0.196457
0.196467
0.196476
0.196486
0.196496
0.196506
0.196516
0.196526
0.196536
0.196546
0.196556
0.196566
0.196576
0.196585
0.196595
0.196605
0.196615
0.196625
0.196635
0.196645
0.196655
0.196665
0.196675
0.196685
0.196694
0.196704
0.196714
0.196724
0.196734
0.196744
0.196754
0.196764
0.196774
0.196784
0.196794
0.196804
0.196813
0.196823
0.196833
0.196843
0.196853
0.196863
0.196873
0.196883
0.196893
0.196903
0.196913
0.196923
0.196933
0.196942
0.196952
0.196962
0.196972
0.196982
0.196992
0.197002
0.197012
0.197022
0.197032
0.197042
0.197052
0.197062
0.197072
0.197081
0.197091
0.197101
0.197111
0.197121
0.197131
0.197141
0.197151
0.197161
0.197171
0.197181
0.197191
0.197201
0.197211
0.197221
0.197231
0.197241
0.19725
0.19726
0.19727
0.19728
0.19729
0.1973
0.19731
0.19732
0.19733
0.19734
0.19735
0.19736
0.19737
0.19738
0.19739
0.1974
0.19741
0.19742
0.19743
0.19744
0.19745
0.197459
0.197469
0.197479
0.197489
0.197499
0.197509
0.197519
0.197529
0.197539
0.197549
0.197559
0.197569
0.197579
0.197589
0.197599
0.197609
0.197619
0.197629
0.197639
0.197649
0.197659
0.197669
0.197679
0.197689
0.197699
0.197709
0.197719
0.197729
0.197739
0.197749
0.197758
0.197768
0.197778
0.197788
0.197798
0.197808
0.197818
0.197828
0.197838
0.197848
0.197858
0.197868
0.197878
0.197888
0.197898
0.197908
0.197918
0.197928
0.197938
0.197948
0.197958
0.197968
0.197978
0.197988
0.197998
0.198008
0.198018
0.198028
0.198038
0.198048
0.198058
0.198068
0.198078
0.198088
0.198098
0.198108
0.198118
0.198128
0.198138
0.198148
0.198158
0.198168
0.198178
0.198188
0.198198
0.198208
0.198218
0.198228
0.198238
0.198248
0.198258
0.198268
0.198278
0.198288
0.198298
0.198308
0.198318
0.198328
0.198338
0.198348
0.198358
0.198368
0.198378
0.198388
0.198398
0.198408
0.198418
0.198428
0.198438
0.198448
0.198458
0.198468
0.198478
0.198488
0.198498
0.198508
0.198518
0.198528
0.198538
0.198548
0.198558
0.198569
0.198579
0.198589
0.198599
0.198609
0.198619
0.198629
0.198639
0.198649
0.198659
0.198669
0.198679
0.198689
0.198699
0.198709
0.198719
0.198729
0.198739
0.198749
0.198759
0.198769
0.198779
0.198789
0.198799
0.198809
0.198819
0.198829
0.198839
0.198849
0.198859
0.19887
0.19888
0.19889
0.1989
0.19891
0.19892
0.19893
0.19894
0.19895
0.19896
0.19897
0.19898
0.19899
0.199
0.19901
0.19902
0.19903
0.19904
0.19905
0.19906
0.19907
0.199081
0.199091
0.199101
0.199111
0.199121
0.199131
0.199141
0.199151
0.199161
0.199171
0.199181
0.199191
0.199201
0.199211
0.199221
0.199231
0.199241
0.199252
0.199262
0.199272
0.199282
0.199292
0.199302
0.199312
0.199322
0.199332
0.199342
0.199352
0.199362
0.199372
0.199382
0.199392
0.199403
0.199413
0.199423
0.199433
0.199443
0.199453
0.199463
0.199473
0.199483
0.199493
0.199503
0.199513
0.199523
0.199534
0.199544
0.199554
0.199564
0.199574
0.199584
0.199594
0.199604
0.199614
0.199624
0.199634
0.199644
0.199655
0.199665
0.199675
0.199685
0.199695
0.199705
0.199715
0.199725
0.199735
0.199745
0.199755
0.199766
0.199776
0.199786
0.199796
0.199806
0.199816
0.199826
0.199836
0.199846
0.199856
0.199867
0.199877
0.199887
0.199897
0.199907
0.199917
0.199927
0.199937
0.199947
0.199957
0.199968
0.199978
0.199988
0.199998
0.200008
0.200018
0.200028
0.200038
0.200048
0.200059
0.200069
0.200079
0.200089
0.200099
0.200109
0.200119
0.200129
0.200139
0.20015
0.20016
0.20017
0.20018
0.20019
0.2002
0.20021
0.20022
0.20023
0.200241
0.200251
0.200261
0.200271
0.200281
0.200291
0.200301
0.200311
0.200322
0.200332
0.200342
0.200352
0.200362
0.200372
0.200382
0.200392
0.200403
0.200413
0.200423
0.200433
0.200443
0.200453
0.200463
0.200474
0.200484
0.200494
0.200504
0.200514
0.200524
0.200534
0.200545
0.200555
0.200565
0.200575
0.200585
0.200595
0.200605
0.200616
0.200626
0.200636
0.200646
0.200656
0.200666
0.200676
0.200687
0.200697
0.200707
0.200717
0.200727
0.200737
0.200747
0.200758
0.200768
0.200778
0.200788
0.200798
0.200808
0.200819
0.200829
0.200839
0.200849
0.200859
0.200869
0.20088
0.200889
0.2009
0.20091
0.20092
0.20093
0.200941
0.20095
0.200961
0.200971
0.200981
0.200991
0.201002
0.201011
0.201022
0.201032
0.201042
0.201052
0.201063
0.201072
0.201083
0.201092
0.201104
0.201113
0.201124
0.201133
0.201144
0.201153
0.201165
0.201174
0.201185
0.201194
0.201206
0.201214
0.201226
0.201235
0.201246
0.201255
0.201267
0.201275
0.201287
0.201296
0.201307
0.201316
0.201328
0.201337
0.201348
0.201357
0.201368
0.201377
0.201389
0.201398
0.201409
0.201418
0.20143
0.201438
0.20145
0.201459
0.20147
0.201479
0.201491
0.2015
0.201511
0.20152
0.201532
0.20154
0.201552
0.201561
0.201572
0.201581
0.201593
0.201602
0.201613
0.201622
0.201634
0.201642
0.201654
0.201663
0.201674
0.201683
0.201695
0.201704
0.201715
0.201724
0.201736
0.201744
0.201756