/*--------------------------------*- C++ -*----------------------------------*\
  =========                 |
  \\      /  F ield         | OpenFOAM: The Open Source CFD Toolbox
   \\    /   O peration     | Website:  https://openfoam.org
    \\  /    A nd           | Version:  9
     \\/     M anipulation  |
\*---------------------------------------------------------------------------*/
FoamFile
{
    format      ascii;
    class       volScalarField;
    location    "0.017";
    object      rho;
}
// * * * * * * * * * * * * * * * * * * * * * * * * * * * * * * * * * * * * * //

dimensions      [1 -3 0 0 0 0 0];

internalField   nonuniform List<scalar> 
10000
(
0.677596
0.677577
0.677564
0.677558
0.677556
0.677555
0.677554
0.677553
0.677552
0.677551
0.67755
0.677549
0.677548
0.677547
0.677546
0.677545
0.677544
0.677543
0.677542
0.677541
0.67754
0.677539
0.677538
0.677536
0.677535
0.677534
0.677533
0.677532
0.677531
0.67753
0.677529
0.677527
0.677526
0.677525
0.677524
0.677523
0.677522
0.67752
0.677519
0.677518
0.677517
0.677515
0.677514
0.677513
0.677512
0.67751
0.677509
0.677508
0.677507
0.677505
0.677504
0.677503
0.677501
0.6775
0.677499
0.677497
0.677496
0.677495
0.677493
0.677492
0.677491
0.677489
0.677488
0.677486
0.677485
0.677484
0.677482
0.677481
0.677479
0.677478
0.677476
0.677475
0.677473
0.677472
0.677471
0.677469
0.677468
0.677466
0.677464
0.677463
0.677461
0.67746
0.677458
0.677457
0.677455
0.677454
0.677452
0.67745
0.677449
0.677447
0.677446
0.677444
0.677442
0.677441
0.677439
0.677438
0.677436
0.677434
0.677433
0.677431
0.677429
0.677427
0.677426
0.677424
0.677422
0.677421
0.677419
0.677417
0.677415
0.677414
0.677412
0.67741
0.677408
0.677407
0.677405
0.677403
0.677401
0.677399
0.677397
0.677396
0.677394
0.677392
0.67739
0.677388
0.677386
0.677385
0.677383
0.677381
0.677379
0.677377
0.677375
0.677373
0.677371
0.677369
0.677367
0.677365
0.677363
0.677361
0.677359
0.677357
0.677355
0.677353
0.677351
0.677349
0.677347
0.677345
0.677343
0.677341
0.677339
0.677337
0.677335
0.677333
0.677331
0.677329
0.677327
0.677325
0.677322
0.67732
0.677318
0.677316
0.677314
0.677312
0.67731
0.677307
0.677305
0.677303
0.677301
0.677299
0.677296
0.677294
0.677292
0.67729
0.677287
0.677285
0.677283
0.677281
0.677278
0.677276
0.677274
0.677272
0.677269
0.677267
0.677265
0.677262
0.67726
0.677258
0.677255
0.677253
0.677251
0.677248
0.677246
0.677243
0.677241
0.677239
0.677236
0.677234
0.677231
0.677229
0.677226
0.677224
0.677222
0.677219
0.677217
0.677214
0.677212
0.677209
0.677207
0.677204
0.677202
0.677199
0.677197
0.677194
0.677191
0.677189
0.677186
0.677184
0.677181
0.677179
0.677176
0.677173
0.677171
0.677168
0.677165
0.677163
0.67716
0.677158
0.677155
0.677152
0.67715
0.677147
0.677144
0.677141
0.677139
0.677136
0.677133
0.677131
0.677128
0.677125
0.677122
0.67712
0.677117
0.677114
0.677111
0.677108
0.677106
0.677103
0.6771
0.677097
0.677094
0.677092
0.677089
0.677086
0.677083
0.67708
0.677077
0.677074
0.677071
0.677069
0.677066
0.677063
0.67706
0.677057
0.677054
0.677051
0.677048
0.677045
0.677042
0.677039
0.677036
0.677033
0.67703
0.677027
0.677024
0.677021
0.677018
0.677015
0.677012
0.677009
0.677006
0.677003
0.677
0.676997
0.676993
0.67699
0.676987
0.676984
0.676981
0.676978
0.676975
0.676972
0.676968
0.676965
0.676962
0.676959
0.676956
0.676952
0.676949
0.676946
0.676943
0.67694
0.676936
0.676933
0.67693
0.676927
0.676923
0.67692
0.676917
0.676913
0.67691
0.676907
0.676904
0.6769
0.676897
0.676894
0.67689
0.676887
0.676883
0.67688
0.676877
0.676873
0.67687
0.676867
0.676863
0.67686
0.676856
0.676853
0.676849
0.676846
0.676842
0.676839
0.676836
0.676832
0.676829
0.676825
0.676822
0.676818
0.676815
0.676811
0.676807
0.676804
0.6768
0.676797
0.676793
0.67679
0.676786
0.676783
0.676779
0.676775
0.676772
0.676768
0.676764
0.676761
0.676757
0.676754
0.67675
0.676746
0.676742
0.676739
0.676735
0.676731
0.676728
0.676724
0.67672
0.676717
0.676713
0.676709
0.676705
0.676702
0.676698
0.676694
0.67669
0.676686
0.676683
0.676679
0.676675
0.676671
0.676667
0.676663
0.67666
0.676656
0.676652
0.676648
0.676644
0.67664
0.676636
0.676632
0.676629
0.676625
0.676621
0.676617
0.676613
0.676609
0.676605
0.676601
0.676597
0.676593
0.676589
0.676585
0.676581
0.676577
0.676573
0.676569
0.676565
0.676561
0.676557
0.676553
0.676549
0.676545
0.67654
0.676536
0.676532
0.676528
0.676524
0.67652
0.676516
0.676512
0.676507
0.676503
0.676499
0.676495
0.676491
0.676487
0.676482
0.676478
0.676474
0.67647
0.676465
0.676461
0.676457
0.676453
0.676448
0.676444
0.67644
0.676436
0.676431
0.676427
0.676423
0.676418
0.676414
0.67641
0.676405
0.676401
0.676397
0.676392
0.676388
0.676384
0.676379
0.676375
0.67637
0.676366
0.676362
0.676357
0.676353
0.676348
0.676344
0.676339
0.676335
0.67633
0.676326
0.676321
0.676317
0.676312
0.676308
0.676303
0.676299
0.676294
0.67629
0.676285
0.676281
0.676276
0.676271
0.676267
0.676262
0.676258
0.676253
0.676248
0.676244
0.676239
0.676235
0.67623
0.676225
0.676221
0.676216
0.676211
0.676207
0.676202
0.676197
0.676192
0.676188
0.676183
0.676178
0.676173
0.676169
0.676164
0.676159
0.676154
0.67615
0.676145
0.67614
0.676135
0.67613
0.676126
0.676121
0.676116
0.676111
0.676106
0.676101
0.676096
0.676092
0.676087
0.676082
0.676077
0.676072
0.676067
0.676062
0.676057
0.676052
0.676047
0.676042
0.676037
0.676032
0.676027
0.676022
0.676017
0.676012
0.676007
0.676002
0.675997
0.675992
0.675987
0.675982
0.675977
0.675972
0.675967
0.675962
0.675957
0.675951
0.675946
0.675941
0.675936
0.675931
0.675926
0.675921
0.675915
0.67591
0.675905
0.6759
0.675895
0.67589
0.675884
0.675879
0.675874
0.675869
0.675863
0.675858
0.675853
0.675848
0.675842
0.675837
0.675832
0.675826
0.675821
0.675816
0.67581
0.675805
0.6758
0.675794
0.675789
0.675784
0.675778
0.675773
0.675768
0.675762
0.675757
0.675751
0.675746
0.67574
0.675735
0.67573
0.675724
0.675719
0.675713
0.675708
0.675702
0.675697
0.675691
0.675686
0.67568
0.675675
0.675669
0.675664
0.675658
0.675652
0.675647
0.675641
0.675636
0.67563
0.675624
0.675619
0.675613
0.675608
0.675602
0.675596
0.675591
0.675585
0.675579
0.675574
0.675568
0.675562
0.675557
0.675551
0.675545
0.675539
0.675534
0.675528
0.675522
0.675516
0.675511
0.675505
0.675499
0.675493
0.675487
0.675482
0.675476
0.67547
0.675464
0.675458
0.675452
0.675447
0.675441
0.675435
0.675429
0.675423
0.675417
0.675411
0.675405
0.675399
0.675394
0.675388
0.675382
0.675376
0.67537
0.675364
0.675358
0.675352
0.675346
0.67534
0.675334
0.675328
0.675322
0.675316
0.67531
0.675304
0.675297
0.675291
0.675285
0.675279
0.675273
0.675267
0.675261
0.675255
0.675249
0.675242
0.675236
0.67523
0.675224
0.675218
0.675212
0.675205
0.675199
0.675193
0.675187
0.675181
0.675174
0.675168
0.675162
0.675156
0.675149
0.675143
0.675137
0.675131
0.675124
0.675118
0.675112
0.675105
0.675099
0.675093
0.675086
0.67508
0.675074
0.675067
0.675061
0.675054
0.675048
0.675042
0.675035
0.675029
0.675022
0.675016
0.675009
0.675003
0.674997
0.67499
0.674984
0.674977
0.674971
0.674964
0.674958
0.674951
0.674945
0.674938
0.674931
0.674925
0.674918
0.674912
0.674905
0.674899
0.674892
0.674885
0.674879
0.674872
0.674865
0.674859
0.674852
0.674845
0.674839
0.674832
0.674825
0.674819
0.674812
0.674805
0.674799
0.674792
0.674785
0.674778
0.674772
0.674765
0.674758
0.674751
0.674745
0.674738
0.674731
0.674724
0.674717
0.674711
0.674704
0.674697
0.67469
0.674683
0.674676
0.674669
0.674662
0.674656
0.674649
0.674642
0.674635
0.674628
0.674621
0.674614
0.674607
0.6746
0.674593
0.674586
0.674579
0.674572
0.674565
0.674558
0.674551
0.674544
0.674537
0.67453
0.674523
0.674516
0.674509
0.674502
0.674495
0.674487
0.67448
0.674473
0.674466
0.674459
0.674452
0.674445
0.674437
0.67443
0.674423
0.674416
0.674409
0.674402
0.674394
0.674387
0.67438
0.674373
0.674365
0.674358
0.674351
0.674344
0.674336
0.674329
0.674322
0.674314
0.674307
0.6743
0.674292
0.674285
0.674278
0.67427
0.674263
0.674256
0.674248
0.674241
0.674233
0.674226
0.674219
0.674211
0.674204
0.674196
0.674189
0.674181
0.674174
0.674166
0.674159
0.674151
0.674144
0.674136
0.674129
0.674121
0.674114
0.674106
0.674099
0.674091
0.674083
0.674076
0.674068
0.674061
0.674053
0.674045
0.674038
0.67403
0.674022
0.674015
0.674007
0.673999
0.673992
0.673984
0.673976
0.673969
0.673961
0.673953
0.673945
0.673938
0.67393
0.673922
0.673914
0.673906
0.673899
0.673891
0.673883
0.673875
0.673867
0.67386
0.673852
0.673844
0.673836
0.673828
0.67382
0.673812
0.673804
0.673796
0.673789
0.673781
0.673773
0.673765
0.673757
0.673749
0.673741
0.673733
0.673725
0.673717
0.673709
0.673701
0.673693
0.673685
0.673677
0.673669
0.673661
0.673652
0.673644
0.673636
0.673628
0.67362
0.673612
0.673604
0.673596
0.673587
0.673579
0.673571
0.673563
0.673555
0.673547
0.673538
0.67353
0.673522
0.673514
0.673505
0.673497
0.673489
0.673481
0.673472
0.673464
0.673456
0.673447
0.673439
0.673431
0.673422
0.673414
0.673406
0.673397
0.673389
0.673381
0.673372
0.673364
0.673355
0.673347
0.673339
0.67333
0.673322
0.673313
0.673305
0.673296
0.673288
0.673279
0.673271
0.673262
0.673254
0.673245
0.673237
0.673228
0.67322
0.673211
0.673202
0.673194
0.673185
0.673177
0.673168
0.673159
0.673151
0.673142
0.673133
0.673125
0.673116
0.673107
0.673099
0.67309
0.673081
0.673072
0.673064
0.673055
0.673046
0.673037
0.673029
0.67302
0.673011
0.673002
0.672993
0.672985
0.672976
0.672967
0.672958
0.672949
0.67294
0.672931
0.672923
0.672914
0.672905
0.672896
0.672887
0.672878
0.672869
0.67286
0.672851
0.672842
0.672833
0.672824
0.672815
0.672806
0.672797
0.672788
0.672779
0.67277
0.672761
0.672752
0.672743
0.672734
0.672724
0.672715
0.672706
0.672697
0.672688
0.672679
0.67267
0.67266
0.672651
0.672642
0.672633
0.672624
0.672614
0.672605
0.672596
0.672587
0.672577
0.672568
0.672559
0.672549
0.67254
0.672531
0.672521
0.672512
0.672503
0.672493
0.672484
0.672475
0.672465
0.672456
0.672446
0.672437
0.672427
0.672418
0.672409
0.672399
0.67239
0.67238
0.672371
0.672361
0.672352
0.672342
0.672332
0.672323
0.672313
0.672304
0.672294
0.672285
0.672275
0.672265
0.672256
0.672246
0.672236
0.672227
0.672217
0.672207
0.672198
0.672188
0.672178
0.672169
0.672159
0.672149
0.672139
0.67213
0.67212
0.67211
0.6721
0.67209
0.67208
0.672071
0.672061
0.672051
0.672041
0.672031
0.672021
0.672011
0.672001
0.671992
0.671982
0.671972
0.671962
0.671952
0.671942
0.671932
0.671922
0.671912
0.671902
0.671892
0.671882
0.671872
0.671861
0.671851
0.671841
0.671831
0.671821
0.671811
0.671801
0.671791
0.67178
0.67177
0.67176
0.67175
0.67174
0.671729
0.671719
0.671709
0.671699
0.671688
0.671678
0.671668
0.671658
0.671647
0.671637
0.671627
0.671616
0.671606
0.671595
0.671585
0.671575
0.671564
0.671554
0.671543
0.671533
0.671522
0.671512
0.671501
0.671491
0.67148
0.67147
0.671459
0.671449
0.671438
0.671428
0.671417
0.671407
0.671396
0.671385
0.671375
0.671364
0.671353
0.671343
0.671332
0.671321
0.671311
0.6713
0.671289
0.671278
0.671268
0.671257
0.671246
0.671235
0.671224
0.671214
0.671203
0.671192
0.671181
0.67117
0.671159
0.671148
0.671137
0.671126
0.671115
0.671105
0.671094
0.671083
0.671072
0.671061
0.67105
0.671038
0.671027
0.671016
0.671005
0.670994
0.670983
0.670972
0.670961
0.67095
0.670938
0.670927
0.670916
0.670905
0.670894
0.670882
0.670871
0.67086
0.670849
0.670837
0.670826
0.670815
0.670803
0.670792
0.670781
0.670769
0.670758
0.670746
0.670735
0.670724
0.670712
0.670701
0.670689
0.670678
0.670666
0.670655
0.670643
0.670632
0.67062
0.670608
0.670597
0.670585
0.670574
0.670562
0.67055
0.670539
0.670527
0.670515
0.670503
0.670492
0.67048
0.670468
0.670456
0.670445
0.670433
0.670421
0.670409
0.670397
0.670385
0.670373
0.670361
0.67035
0.670338
0.670326
0.670314
0.670302
0.67029
0.670278
0.670265
0.670253
0.670241
0.670229
0.670217
0.670205
0.670193
0.670181
0.670168
0.670156
0.670144
0.670132
0.67012
0.670107
0.670095
0.670083
0.67007
0.670058
0.670046
0.670033
0.670021
0.670008
0.669996
0.669984
0.669971
0.669959
0.669946
0.669933
0.669921
0.669908
0.669896
0.669883
0.669871
0.669858
0.669845
0.669833
0.66982
0.669807
0.669794
0.669782
0.669769
0.669756
0.669743
0.66973
0.669717
0.669705
0.669692
0.669679
0.669666
0.669653
0.66964
0.669627
0.669614
0.669601
0.669588
0.669575
0.669562
0.669548
0.669535
0.669522
0.669509
0.669496
0.669482
0.669469
0.669456
0.669443
0.669429
0.669416
0.669402
0.669389
0.669376
0.669362
0.669349
0.669335
0.669322
0.669308
0.669295
0.669281
0.669267
0.669254
0.66924
0.669226
0.669213
0.669199
0.669185
0.669171
0.669158
0.669144
0.66913
0.669116
0.669102
0.669088
0.669074
0.66906
0.669046
0.669032
0.669018
0.669004
0.66899
0.668976
0.668961
0.668947
0.668933
0.668919
0.668904
0.66889
0.668876
0.668861
0.668847
0.668833
0.668818
0.668804
0.668789
0.668774
0.66876
0.668745
0.668731
0.668716
0.668701
0.668687
0.668672
0.668657
0.668642
0.668627
0.668612
0.668597
0.668582
0.668567
0.668552
0.668537
0.668522
0.668507
0.668492
0.668477
0.668462
0.668446
0.668431
0.668416
0.6684
0.668385
0.668369
0.668354
0.668338
0.668323
0.668307
0.668292
0.668276
0.66826
0.668245
0.668229
0.668213
0.668197
0.668181
0.668165
0.668149
0.668133
0.668117
0.668101
0.668085
0.668069
0.668053
0.668036
0.66802
0.668004
0.667987
0.667971
0.667954
0.667938
0.667921
0.667905
0.667888
0.667871
0.667855
0.667838
0.667821
0.667804
0.667787
0.66777
0.667753
0.667736
0.667719
0.667702
0.667685
0.667667
0.66765
0.667633
0.667615
0.667598
0.66758
0.667563
0.667545
0.667527
0.667509
0.667492
0.667474
0.667456
0.667438
0.66742
0.667402
0.667384
0.667365
0.667347
0.667329
0.66731
0.667292
0.667273
0.667255
0.667236
0.667217
0.667199
0.66718
0.667161
0.667142
0.667123
0.667104
0.667085
0.667065
0.667046
0.667027
0.667007
0.666988
0.666968
0.666949
0.666929
0.666909
0.666889
0.666869
0.666849
0.666829
0.666809
0.666789
0.666768
0.666748
0.666727
0.666707
0.666686
0.666665
0.666644
0.666624
0.666603
0.666581
0.66656
0.666539
0.666518
0.666496
0.666475
0.666453
0.666431
0.666409
0.666388
0.666366
0.666343
0.666321
0.666299
0.666276
0.666254
0.666231
0.666209
0.666186
0.666163
0.66614
0.666117
0.666093
0.66607
0.666047
0.666023
0.665999
0.665975
0.665952
0.665927
0.665903
0.665879
0.665855
0.66583
0.665805
0.665781
0.665756
0.665731
0.665705
0.66568
0.665655
0.665629
0.665603
0.665578
0.665552
0.665525
0.665499
0.665473
0.665446
0.66542
0.665393
0.665366
0.665339
0.665311
0.665284
0.665256
0.665228
0.6652
0.665172
0.665144
0.665116
0.665087
0.665058
0.665029
0.665
0.664971
0.664941
0.664912
0.664882
0.664852
0.664822
0.664791
0.664761
0.66473
0.664699
0.664668
0.664637
0.664605
0.664573
0.664542
0.664509
0.664477
0.664444
0.664412
0.664379
0.664346
0.664312
0.664278
0.664245
0.66421
0.664176
0.664142
0.664107
0.664072
0.664037
0.664001
0.663965
0.663929
0.663893
0.663857
0.66382
0.663783
0.663746
0.663708
0.66367
0.663632
0.663594
0.663556
0.663517
0.663478
0.663438
0.663399
0.663359
0.663318
0.663278
0.663237
0.663196
0.663155
0.663113
0.663071
0.663029
0.662986
0.662943
0.6629
0.662856
0.662812
0.662768
0.662724
0.662679
0.662634
0.662588
0.662543
0.662497
0.66245
0.662403
0.662356
0.662309
0.662261
0.662213
0.662164
0.662115
0.662066
0.662016
0.661967
0.661916
0.661866
0.661815
0.661763
0.661711
0.661659
0.661607
0.661554
0.661501
0.661447
0.661393
0.661339
0.661284
0.661229
0.661173
0.661117
0.661061
0.661004
0.660947
0.66089
0.660832
0.660774
0.660715
0.660656
0.660597
0.660537
0.660477
0.660416
0.660355
0.660294
0.660232
0.66017
0.660107
0.660044
0.659981
0.659917
0.659853
0.659788
0.659723
0.659658
0.659592
0.659526
0.659459
0.659392
0.659325
0.659257
0.659189
0.659121
0.659052
0.658982
0.658913
0.658843
0.658772
0.658701
0.65863
0.658559
0.658487
0.658414
0.658342
0.658269
0.658195
0.658121
0.658047
0.657973
0.657898
0.657823
0.657748
0.657672
0.657596
0.65752
0.657443
0.657366
0.657289
0.657211
0.657133
0.657054
0.656975
0.656896
0.656816
0.656736
0.656656
0.656575
0.656495
0.656414
0.656333
0.656252
0.656171
0.65609
0.65601
0.65593
0.65585
0.655772
0.655694
0.655617
0.655541
0.655466
0.655391
0.655315
0.655237
0.655154
0.655067
0.654976
0.654883
0.654789
0.654697
0.654605
0.654515
0.654426
0.654338
0.654252
0.654168
0.654086
0.654007
0.65393
0.653856
0.653785
0.653716
0.653651
0.653587
0.653524
0.65346
0.653392
0.653318
0.653236
0.653147
0.65305
0.652948
0.652843
0.652737
0.652632
0.652529
0.652428
0.652328
0.65223
0.652134
0.65204
0.651948
0.651858
0.65177
0.651685
0.651601
0.65152
0.651441
0.651364
0.651289
0.651215
0.651143
0.651071
0.650999
0.650926
0.65085
0.650769
0.650684
0.650593
0.650497
0.650397
0.650295
0.65019
0.650085
0.649981
0.649878
0.649776
0.649675
0.649574
0.649475
0.649377
0.64928
0.649185
0.649091
0.648997
0.648906
0.648815
0.648726
0.648638
0.648551
0.648465
0.64838
0.648297
0.648214
0.648132
0.648051
0.64797
0.647889
0.647809
0.647727
0.647644
0.647558
0.64747
0.647378
0.647284
0.647187
0.647088
0.646987
0.646886
0.646784
0.646683
0.646583
0.646483
0.646384
0.646285
0.646187
0.64609
0.645993
0.645897
0.645802
0.645708
0.645614
0.645522
0.645429
0.645338
0.645248
0.645158
0.645069
0.644981
0.644893
0.644806
0.64472
0.644634
0.644548
0.644464
0.644379
0.644295
0.64421
0.644126
0.644041
0.643956
0.643868
0.643779
0.643689
0.643596
0.643501
0.643404
0.643307
0.643208
0.643109
0.64301
0.642911
0.642813
0.642715
0.642617
0.64252
0.642423
0.642326
0.64223
0.642135
0.64204
0.641945
0.641851
0.641758
0.641665
0.641573
0.641481
0.641389
0.641298
0.641208
0.641118
0.641029
0.64094
0.640852
0.640764
0.640677
0.64059
0.640503
0.640417
0.640331
0.640245
0.64016
0.640075
0.63999
0.639905
0.639819
0.639733
0.639645
0.639556
0.639466
0.639374
0.63928
0.639185
0.639088
0.638991
0.638893
0.638796
0.638698
0.6386
0.638503
0.638406
0.63831
0.638213
0.638117
0.638021
0.637926
0.637831
0.637736
0.637642
0.637547
0.637454
0.63736
0.637267
0.637175
0.637083
0.636991
0.636899
0.636808
0.636718
0.636628
0.636538
0.636448
0.636359
0.636271
0.636183
0.636095
0.636007
0.63592
0.635834
0.635747
0.635661
0.635576
0.63549
0.635405
0.63532
0.635235
0.635151
0.635066
0.634981
0.634895
0.634808
0.63472
0.63463
0.634539
0.634446
0.634352
0.634256
0.63416
0.634063
0.633966
0.633868
0.633771
0.633674
0.633578
0.633481
0.633385
0.633289
0.633193
0.633097
0.633002
0.632907
0.632812
0.632717
0.632623
0.632528
0.632435
0.632341
0.632248
0.632154
0.632062
0.631969
0.631877
0.631785
0.631693
0.631602
0.631511
0.63142
0.63133
0.631239
0.63115
0.63106
0.630971
0.630882
0.630793
0.630705
0.630617
0.63053
0.630443
0.630356
0.630269
0.630183
0.630097
0.630011
0.629926
0.629841
0.629756
0.629672
0.629588
0.629504
0.62942
0.629335
0.62925
0.629164
0.629077
0.628989
0.628898
0.628807
0.628713
0.628619
0.628523
0.628426
0.628329
0.628232
0.628135
0.628038
0.627941
0.627844
0.627747
0.627651
0.627555
0.627458
0.627362
0.627266
0.627171
0.627075
0.626979
0.626884
0.626788
0.626693
0.626598
0.626503
0.626408
0.626313
0.626219
0.626124
0.62603
0.625935
0.625841
0.625747
0.625653
0.625559
0.625465
0.625371
0.625277
0.625184
0.62509
0.624997
0.624903
0.62481
0.624717
0.624624
0.624531
0.624438
0.624345
0.624253
0.62416
0.624067
0.623975
0.623883
0.623791
0.623698
0.623606
0.623514
0.623423
0.623331
0.623239
0.623147
0.623056
0.622965
0.622873
0.622782
0.622691
0.6226
0.622509
0.622418
0.622328
0.622237
0.622147
0.622056
0.621967
0.621876
0.621788
0.621697
0.621608
0.621517
0.62143
0.621339
0.621252
0.621161
0.621075
0.620984
0.620899
0.620807
0.620723
0.620631
0.620548
0.620455
0.620373
0.620279
0.620196
0.620101
0.620019
0.619922
0.619839
0.619742
0.619659
0.619561
0.619479
0.619382
0.6193
0.619203
0.619122
0.619025
0.618943
0.618847
0.618766
0.618671
0.61859
0.618496
0.618415
0.618322
0.618241
0.61815
0.618069
0.61798
0.6179
0.617813
0.617733
0.617648
0.617569
0.617485
0.617406
0.617324
0.617245
0.617163
0.617081
0.616997
0.616911
0.616822
0.616732
0.61664
0.616547
0.616453
0.61636
0.616268
0.616175
0.616083
0.615992
0.6159
0.615809
0.615718
0.615628
0.615538
0.615449
0.615359
0.615271
0.615182
0.615095
0.615007
0.614921
0.614834
0.614749
0.614664
0.61458
0.614496
0.614413
0.614331
0.614249
0.614167
0.614086
0.614005
0.613923
0.61384
0.613756
0.61367
0.613582
0.613493
0.613401
0.613309
0.613216
0.613123
0.61303
0.612938
0.612846
0.612754
0.612663
0.612572
0.612481
0.612391
0.612301
0.612211
0.612122
0.612033
0.611945
0.611857
0.61177
0.611683
0.611597
0.611511
0.611426
0.611341
0.611257
0.611174
0.611091
0.611008
0.610926
0.610844
0.610761
0.610678
0.610594
0.610509
0.610422
0.610333
0.610242
0.61015
0.610058
0.609966
0.609873
0.609782
0.60969
0.609598
0.609507
0.609417
0.609326
0.609236
0.609146
0.609057
0.608968
0.608879
0.608791
0.608704
0.608616
0.60853
0.608444
0.608359
0.608274
0.60819
0.608106
0.608023
0.607941
0.607859
0.607777
0.607695
0.607613
0.607531
0.607448
0.607362
0.607276
0.607187
0.607097
0.607005
0.606913
0.606821
0.606728
0.606636
0.606544
0.606453
0.606361
0.60627
0.60618
0.606089
0.606
0.60591
0.605821
0.605733
0.605644
0.605557
0.60547
0.605384
0.605298
0.605213
0.605128
0.605045
0.604962
0.604879
0.604797
0.604716
0.604635
0.604554
0.604474
0.604393
0.604311
0.604228
0.604143
0.604056
0.603967
0.603876
0.603785
0.603692
0.603599
0.603507
0.603414
0.603322
0.60323
0.603139
0.603048
0.602957
0.602867
0.602777
0.602687
0.602598
0.60251
0.602422
0.602334
0.602248
0.602161
0.602076
0.601991
0.601907
0.601824
0.601741
0.601659
0.601578
0.601497
0.601417
0.601337
0.601257
0.601177
0.601096
0.601014
0.60093
0.600845
0.600757
0.600668
0.600577
0.600485
0.600392
0.6003
0.600207
0.600115
0.600023
0.599931
0.59984
0.599749
0.599658
0.599568
0.599478
0.599389
0.5993
0.599212
0.599124
0.599037
0.59895
0.598864
0.598779
0.598695
0.598611
0.598528
0.598446
0.598365
0.598284
0.598204
0.598124
0.598044
0.597965
0.597885
0.597805
0.597724
0.597641
0.597557
0.59747
0.597381
0.597291
0.5972
0.597108
0.597015
0.596923
0.596831
0.596739
0.596647
0.596556
0.596465
0.596374
0.596284
0.596194
0.596104
0.596015
0.595927
0.595839
0.595752
0.595665
0.595579
0.595494
0.59541
0.595326
0.595243
0.59516
0.595079
0.594998
0.594917
0.594837
0.594758
0.594679
0.5946
0.594521
0.594441
0.59436
0.594277
0.594193
0.594107
0.594019
0.593929
0.593838
0.593746
0.593654
0.593562
0.59347
0.593378
0.593287
0.593196
0.593105
0.593015
0.592925
0.592835
0.592746
0.592657
0.592569
0.592481
0.592394
0.592307
0.592221
0.592136
0.592052
0.591968
0.591885
0.591803
0.591721
0.59164
0.59156
0.59148
0.591401
0.591322
0.591243
0.591164
0.591085
0.591005
0.590924
0.590841
0.590757
0.59067
0.590582
0.590493
0.590402
0.59031
0.590219
0.590127
0.590036
0.589944
0.589853
0.589763
0.589672
0.589582
0.589493
0.589403
0.589314
0.589226
0.589138
0.589051
0.588964
0.588878
0.588792
0.588707
0.588623
0.588539
0.588457
0.588375
0.588293
0.588213
0.588133
0.588053
0.587974
0.587895
0.587817
0.587739
0.58766
0.587581
0.5875
0.587418
0.587334
0.587249
0.587162
0.587073
0.586983
0.586893
0.586801
0.58671
0.586619
0.586528
0.586437
0.586347
0.586257
0.586167
0.586077
0.585988
0.585899
0.585811
0.585723
0.585636
0.585549
0.585463
0.585377
0.585292
0.585208
0.585124
0.585041
0.584959
0.584878
0.584797
0.584717
0.584638
0.584559
0.58448
0.584402
0.584324
0.584246
0.584168
0.584089
0.584009
0.583927
0.583843
0.583758
0.583671
0.583583
0.583493
0.583403
0.583312
0.583221
0.58313
0.58304
0.58295
0.582859
0.58277
0.58268
0.582591
0.582502
0.582414
0.582326
0.582238
0.582151
0.582064
0.581978
0.581893
0.581808
0.581724
0.581641
0.581558
0.581476
0.581395
0.581315
0.581235
0.581156
0.581077
0.580999
0.580921
0.580844
0.580767
0.580689
0.580611
0.580531
0.58045
0.580368
0.580284
0.580198
0.58011
0.580022
0.579932
0.579842
0.579751
0.579661
0.579571
0.579481
0.579391
0.579301
0.579212
0.579123
0.579034
0.578946
0.578858
0.57877
0.578683
0.578596
0.57851
0.578425
0.57834
0.578256
0.578173
0.57809
0.578008
0.577927
0.577846
0.577767
0.577688
0.577609
0.577531
0.577454
0.577377
0.5773
0.577223
0.577146
0.577068
0.576989
0.576908
0.576826
0.576742
0.576656
0.576569
0.57648
0.576391
0.576301
0.576211
0.576121
0.576031
0.575941
0.575851
0.575762
0.575673
0.575584
0.575496
0.575408
0.57532
0.575233
0.575146
0.57506
0.574974
0.574889
0.574804
0.574721
0.574637
0.574555
0.574474
0.574393
0.574313
0.574234
0.574155
0.574077
0.574
0.573923
0.573847
0.573771
0.573694
0.573618
0.573541
0.573463
0.573383
0.573302
0.573219
0.573134
0.573047
0.57296
0.572871
0.572782
0.572692
0.572602
0.572512
0.572423
0.572333
0.572244
0.572155
0.572066
0.571978
0.57189
0.571802
0.571714
0.571628
0.571541
0.571455
0.57137
0.571286
0.571202
0.571119
0.571036
0.570955
0.570874
0.570794
0.570715
0.570636
0.570559
0.570482
0.570405
0.570329
0.570254
0.570178
0.570103
0.570027
0.569951
0.569873
0.569794
0.569713
0.56963
0.569546
0.56946
0.569372
0.569284
0.569195
0.569105
0.569016
0.568926
0.568837
0.568747
0.568658
0.568569
0.568481
0.568392
0.568304
0.568217
0.568129
0.568043
0.567956
0.567871
0.567786
0.567701
0.567618
0.567535
0.567452
0.567371
0.567291
0.567211
0.567132
0.567054
0.566977
0.5669
0.566824
0.566749
0.566674
0.566599
0.566525
0.56645
0.566375
0.566298
0.56622
0.566141
0.566059
0.565976
0.565892
0.565806
0.565718
0.56563
0.565541
0.565452
0.565362
0.565273
0.565184
0.565094
0.565006
0.564917
0.564828
0.56474
0.564653
0.564565
0.564478
0.564392
0.564306
0.564221
0.564136
0.564052
0.563969
0.563886
0.563805
0.563724
0.563644
0.563565
0.563486
0.563409
0.563333
0.563257
0.563182
0.563107
0.563033
0.562959
0.562885
0.562811
0.562736
0.562661
0.562584
0.562505
0.562424
0.562342
0.562258
0.562173
0.562086
0.561999
0.56191
0.561821
0.561732
0.561642
0.561553
0.561464
0.561375
0.561287
0.561198
0.56111
0.561023
0.560935
0.560848
0.560762
0.560676
0.560591
0.560506
0.560422
0.560339
0.560256
0.560175
0.560094
0.560014
0.559935
0.559857
0.55978
0.559703
0.559628
0.559553
0.559479
0.559405
0.559332
0.559259
0.559186
0.559112
0.559038
0.558963
0.558886
0.558807
0.558727
0.558645
0.558561
0.558476
0.558389
0.558302
0.558213
0.558124
0.558035
0.557946
0.557857
0.557768
0.557679
0.557591
0.557503
0.557415
0.557327
0.55724
0.557153
0.557067
0.556981
0.556896
0.556812
0.556728
0.556645
0.556563
0.556482
0.556401
0.556322
0.556243
0.556165
0.556089
0.556013
0.555938
0.555864
0.555791
0.555717
0.555645
0.555573
0.555501
0.555428
0.555355
0.55528
0.555205
0.555127
0.555048
0.554967
0.554885
0.554801
0.554716
0.554629
0.554541
0.554453
0.554364
0.554275
0.554186
0.554097
0.554009
0.55392
0.553832
0.553744
0.553656
0.553568
0.553482
0.553395
0.553309
0.553224
0.553139
0.553055
0.552972
0.552889
0.552808
0.552727
0.552647
0.552568
0.55249
0.552413
0.552337
0.552262
0.552188
0.552114
0.552042
0.551969
0.551898
0.551826
0.551755
0.551683
0.551611
0.551537
0.551463
0.551386
0.551309
0.551229
0.551148
0.551064
0.55098
0.550894
0.550807
0.550719
0.550631
0.550542
0.550453
0.550364
0.550276
0.550187
0.550099
0.55001
0.549923
0.549835
0.549748
0.549661
0.549575
0.549489
0.549405
0.54932
0.549237
0.549154
0.549072
0.548991
0.548911
0.548831
0.548753
0.548676
0.5486
0.548525
0.548451
0.548377
0.548305
0.548233
0.548162
0.548091
0.54802
0.547949
0.547879
0.547807
0.547735
0.547661
0.547586
0.547509
0.547431
0.54735
0.547268
0.547185
0.5471
0.547014
0.546927
0.546839
0.546751
0.546662
0.546573
0.546484
0.546396
0.546307
0.546219
0.546131
0.546043
0.545956
0.545869
0.545782
0.545697
0.545611
0.545526
0.545442
0.545359
0.545277
0.545195
0.545115
0.545035
0.544957
0.544879
0.544803
0.544727
0.544653
0.544579
0.544507
0.544435
0.544364
0.544293
0.544223
0.544154
0.544084
0.544014
0.543944
0.543872
0.5438
0.543725
0.543649
0.543572
0.543493
0.543412
0.543329
0.543245
0.54316
0.543074
0.542987
0.542899
0.54281
0.542722
0.542633
0.542544
0.542456
0.542368
0.54228
0.542192
0.542104
0.542017
0.541931
0.541845
0.541759
0.541674
0.54159
0.541506
0.541423
0.541342
0.541261
0.541181
0.541102
0.541024
0.540947
0.540871
0.540797
0.540723
0.540651
0.540579
0.540508
0.540438
0.540368
0.540299
0.54023
0.540162
0.540093
0.540023
0.539953
0.539881
0.539808
0.539734
0.539657
0.539579
0.5395
0.539418
0.539335
0.539251
0.539166
0.539079
0.538992
0.538904
0.538815
0.538727
0.538638
0.538549
0.538461
0.538373
0.538285
0.538197
0.538109
0.538022
0.537936
0.53785
0.537764
0.537679
0.537595
0.537512
0.53743
0.537348
0.537267
0.537188
0.537109
0.537032
0.536956
0.536881
0.536807
0.536734
0.536662
0.536591
0.536521
0.536451
0.536383
0.536315
0.536247
0.536179
0.536111
0.536043
0.535974
0.535904
0.535832
0.535759
0.535684
0.535608
0.53553
0.53545
0.535368
0.535286
0.535201
0.535116
0.53503
0.534942
0.534854
0.534766
0.534678
0.534589
0.5345
0.534412
0.534324
0.534236
0.534148
0.534061
0.533974
0.533888
0.533802
0.533717
0.533632
0.533548
0.533465
0.533383
0.533302
0.533222
0.533143
0.533065
0.532988
0.532912
0.532837
0.532764
0.532692
0.53262
0.53255
0.53248
0.532412
0.532344
0.532276
0.532209
0.532142
0.532075
0.532008
0.53194
0.531871
0.5318
0.531729
0.531655
0.53158
0.531503
0.531425
0.531345
0.531263
0.53118
0.531096
0.53101
0.530924
0.530837
0.530749
0.530661
0.530572
0.530484
0.530395
0.530307
0.530219
0.530131
0.530043
0.529956
0.529869
0.529783
0.529697
0.529612
0.529527
0.529444
0.529361
0.529279
0.529198
0.529118
0.529039
0.528961
0.528884
0.528809
0.528735
0.528662
0.52859
0.528519
0.528449
0.52838
0.528312
0.528245
0.528179
0.528113
0.528047
0.527981
0.527916
0.527849
0.527782
0.527714
0.527644
0.527573
0.5275
0.527426
0.52735
0.527272
0.527193
0.527113
0.52703
0.526947
0.526862
0.526776
0.526689
0.526602
0.526514
0.526425
0.526336
0.526248
0.526159
0.526071
0.525982
0.525894
0.525806
0.525719
0.525632
0.525546
0.52546
0.525375
0.52529
0.525207
0.525124
0.525042
0.524961
0.524882
0.524803
0.524726
0.52465
0.524575
0.524501
0.524428
0.524357
0.524287
0.524218
0.52415
0.524083
0.524017
0.523952
0.523887
0.523822
0.523758
0.523693
0.523628
0.523563
0.523496
0.523429
0.523359
0.523289
0.523216
0.523143
0.523067
0.52299
0.522911
0.522831
0.522749
0.522666
0.522582
0.522497
0.52241
0.522323
0.522235
0.522146
0.522058
0.521969
0.52188
0.521791
0.521703
0.521614
0.521526
0.521439
0.521352
0.521265
0.521179
0.521093
0.521009
0.520925
0.520842
0.52076
0.520679
0.520599
0.52052
0.520442
0.520366
0.520291