/*--------------------------------*- C++ -*----------------------------------*\
  =========                 |
  \\      /  F ield         | OpenFOAM: The Open Source CFD Toolbox
   \\    /   O peration     | Website:  https://openfoam.org
    \\  /    A nd           | Version:  9
     \\/     M anipulation  |
\*---------------------------------------------------------------------------*/
FoamFile
{
    format      ascii;
    class       volScalarField;
    location    "0.018";
    object      mag(U);
}
// * * * * * * * * * * * * * * * * * * * * * * * * * * * * * * * * * * * * * //

dimensions      [0 1 -1 0 0 0 0];

internalField   nonuniform List<scalar> 
10000
(
0.651873
0.797506
0.857483
0.942688
1.0337
1.11487
1.19735
1.28173
1.36713
1.45121
1.53479
1.61863
1.70279
1.78711
1.87122
1.95526
2.03934
2.12345
2.20758
2.29169
2.37579
2.4599
2.54401
2.62812
2.71222
2.79633
2.88044
2.96455
3.04866
3.13277
3.21688
3.30099
3.3851
3.46921
3.55332
3.63744
3.72155
3.80566
3.88977
3.97388
4.058
4.14211
4.22622
4.31033
4.39445
4.47856
4.56267
4.64679
4.7309
4.81502
4.89913
4.98325
5.06736
5.15148
5.23559
5.31971
5.40382
5.48794
5.57206
5.65617
5.74029
5.82441
5.90852
5.99264
6.07676
6.16088
6.245
6.32911
6.41323
6.49735
6.58147
6.66559
6.74971
6.83383
6.91795
7.00207
7.08619
7.17031
7.25443
7.33855
7.42267
7.5068
7.59092
7.67504
7.75916
7.84328
7.92741
8.01153
8.09565
8.17978
8.2639
8.34802
8.43215
8.51627
8.6004
8.68452
8.76865
8.85277
8.9369
9.02102
9.10515
9.18928
9.2734
9.35753
9.44166
9.52578
9.60991
9.69404
9.77816
9.86229
9.94642
10.0305
10.1147
10.1988
10.2829
10.3671
10.4512
10.5353
10.6195
10.7036
10.7877
10.8718
10.956
11.0401
11.1242
11.2084
11.2925
11.3766
11.4608
11.5449
11.629
11.7132
11.7973
11.8814
11.9656
12.0497
12.1338
12.218
12.3021
12.3862
12.4704
12.5545
12.6386
12.7228
12.8069
12.8911
12.9752
13.0593
13.1435
13.2276
13.3117
13.3959
13.48
13.5641
13.6483
13.7324
13.8166
13.9007
13.9848
14.069
14.1531
14.2373
14.3214
14.4055
14.4897
14.5738
14.658
14.7421
14.8262
14.9104
14.9945
15.0787
15.1628
15.247
15.3311
15.4152
15.4994
15.5835
15.6677
15.7518
15.836
15.9201
16.0043
16.0884
16.1725
16.2567
16.3408
16.425
16.5091
16.5933
16.6774
16.7616
16.8457
16.9299
17.014
17.0982
17.1823
17.2664
17.3506
17.4347
17.5189
17.603
17.6872
17.7713
17.8555
17.9396
18.0238
18.1079
18.1921
18.2762
18.3604
18.4445
18.5287
18.6129
18.697
18.7812
18.8653
18.9495
19.0336
19.1178
19.2019
19.2861
19.3702
19.4544
19.5385
19.6227
19.7069
19.791
19.8752
19.9593
20.0435
20.1276
20.2118
20.2959
20.3801
20.4643
20.5484
20.6326
20.7167
20.8009
20.885
20.9692
21.0534
21.1375
21.2217
21.3058
21.39
21.4742
21.5583
21.6425
21.7266
21.8108
21.895
21.9791
22.0633
22.1475
22.2316
22.3158
22.3999
22.4841
22.5683
22.6524
22.7366
22.8208
22.9049
22.9891
23.0733
23.1574
23.2416
23.3257
23.4099
23.4941
23.5782
23.6624
23.7466
23.8307
23.9149
23.9991
24.0832
24.1674
24.2516
24.3357
24.4199
24.5041
24.5883
24.6724
24.7566
24.8408
24.9249
25.0091
25.0933
25.1774
25.2616
25.3458
25.43
25.5141
25.5983
25.6825
25.7666
25.8508
25.935
26.0192
26.1033
26.1875
26.2717
26.3559
26.44
26.5242
26.6084
26.6926
26.7767
26.8609
26.9451
27.0293
27.1134
27.1976
27.2818
27.366
27.4501
27.5343
27.6185
27.7027
27.7869
27.871
27.9552
28.0394
28.1236
28.2078
28.2919
28.3761
28.4603
28.5445
28.6287
28.7128
28.797
28.8812
28.9654
29.0496
29.1337
29.2179
29.3021
29.3863
29.4705
29.5547
29.6388
29.723
29.8072
29.8914
29.9756
30.0598
30.1439
30.2281
30.3123
30.3965
30.4807
30.5649
30.6491
30.7332
30.8174
30.9016
30.9858
31.07
31.1542
31.2384
31.3226
31.4067
31.4909
31.5751
31.6593
31.7435
31.8277
31.9119
31.9961
32.0803
32.1645
32.2486
32.3328
32.417
32.5012
32.5854
32.6696
32.7538
32.838
32.9222
33.0064
33.0906
33.1748
33.259
33.3432
33.4273
33.5115
33.5957
33.6799
33.7641
33.8483
33.9325
34.0167
34.1009
34.1851
34.2693
34.3535
34.4377
34.5219
34.6061
34.6903
34.7745
34.8587
34.9429
35.0271
35.1113
35.1955
35.2797
35.3639
35.4481
35.5323
35.6165
35.7007
35.7849
35.8691
35.9533
36.0375
36.1217
36.2059
36.2901
36.3743
36.4585
36.5427
36.6269
36.7111
36.7953
36.8795
36.9637
37.0479
37.1321
37.2164
37.3006
37.3848
37.469
37.5532
37.6374
37.7216
37.8058
37.89
37.9742
38.0584
38.1426
38.2268
38.311
38.3953
38.4795
38.5637
38.6479
38.7321
38.8163
38.9005
38.9847
39.0689
39.1531
39.2374
39.3216
39.4058
39.49
39.5742
39.6584
39.7426
39.8268
39.9111
39.9953
40.0795
40.1637
40.2479
40.3321
40.4163
40.5006
40.5848
40.669
40.7532
40.8374
40.9216
41.0059
41.0901
41.1743
41.2585
41.3427
41.4269
41.5112
41.5954
41.6796
41.7638
41.848
41.9323
42.0165
42.1007
42.1849
42.2691
42.3534
42.4376
42.5218
42.606
42.6902
42.7745
42.8587
42.9429
43.0271
43.1113
43.1956
43.2798
43.364
43.4482
43.5325
43.6167
43.7009
43.7851
43.8694
43.9536
44.0378
44.122
44.2063
44.2905
44.3747
44.4589
44.5432
44.6274
44.7116
44.7959
44.8801
44.9643
45.0485
45.1328
45.217
45.3012
45.3855
45.4697
45.5539
45.6381
45.7224
45.8066
45.8908
45.9751
46.0593
46.1435
46.2278
46.312
46.3962
46.4805
46.5647
46.6489
46.7331
46.8174
46.9016
46.9859
47.0701
47.1543
47.2386
47.3228
47.407
47.4913
47.5755
47.6597
47.744
47.8282
47.9124
47.9967
48.0809
48.1651
48.2494
48.3336
48.4179
48.5021
48.5863
48.6706
48.7548
48.8391
48.9233
49.0075
49.0918
49.176
49.2603
49.3445
49.4287
49.513
49.5972
49.6815
49.7657
49.8499
49.9342
50.0184
50.1027
50.1869
50.2712
50.3554
50.4396
50.5239
50.6081
50.6924
50.7766
50.8609
50.9451
51.0294
51.1136
51.1978
51.2821
51.3663
51.4506
51.5348
51.6191
51.7033
51.7876
51.8718
51.9561
52.0403
52.1246
52.2088
52.2931
52.3773
52.4616
52.5458
52.6301
52.7143
52.7986
52.8828
52.9671
53.0513
53.1356
53.2198
53.3041
53.3883
53.4726
53.5568
53.6411
53.7253
53.8096
53.8938
53.9781
54.0623
54.1466
54.2309
54.3151
54.3994
54.4836
54.5679
54.6521
54.7364
54.8206
54.9049
54.9892
55.0734
55.1577
55.2419
55.3262
55.4104
55.4947
55.579
55.6632
55.7475
55.8317
55.916
56.0003
56.0845
56.1688
56.253
56.3373
56.4216
56.5058
56.5901
56.6743
56.7586
56.8429
56.9271
57.0114
57.0956
57.1799
57.2642
57.3484
57.4327
57.517
57.6012
57.6855
57.7697
57.854
57.9383
58.0225
58.1068
58.1911
58.2753
58.3596
58.4439
58.5281
58.6124
58.6967
58.7809
58.8652
58.9495
59.0337
59.118
59.2023
59.2865
59.3708
59.4551
59.5393
59.6236
59.7079
59.7922
59.8764
59.9607
60.045
60.1292
60.2135
60.2978
60.3821
60.4663
60.5506
60.6349
60.7191
60.8034
60.8877
60.972
61.0562
61.1405
61.2248
61.3091
61.3933
61.4776
61.5619
61.6461
61.7304
61.8147
61.899
61.9832
62.0675
62.1518
62.2361
62.3204
62.4046
62.4889
62.5732
62.6575
62.7417
62.826
62.9103
62.9946
63.0789
63.1631
63.2474
63.3317
63.416
63.5002
63.5845
63.6688
63.7531
63.8374
63.9216
64.0059
64.0902
64.1745
64.2588
64.3431
64.4273
64.5116
64.5959
64.6802
64.7645
64.8488
64.933
65.0173
65.1016
65.1859
65.2702
65.3545
65.4387
65.523
65.6073
65.6916
65.7759
65.8602
65.9445
66.0287
66.113
66.1973
66.2816
66.3659
66.4502
66.5345
66.6187
66.703
66.7873
66.8716
66.9559
67.0402
67.1245
67.2088
67.2931
67.3773
67.4616
67.5459
67.6302
67.7145
67.7988
67.8831
67.9674
68.0517
68.136
68.2203
68.3045
68.3888
68.4731
68.5574
68.6417
68.726
68.8103
68.8946
68.9789
69.0632
69.1475
69.2318
69.3161
69.4004
69.4847
69.569
69.6532
69.7375
69.8218
69.9061
69.9904
70.0747
70.159
70.2433
70.3276
70.4119
70.4962
70.5805
70.6648
70.7491
70.8334
70.9177
71.002
71.0863
71.1706
71.2549
71.3392
71.4235
71.5078
71.5921
71.6764
71.7607
71.845
71.9293
72.0136
72.0979
72.1822
72.2665
72.3508
72.4351
72.5194
72.6037
72.688
72.7723
72.8566
72.9409
73.0252
73.1095
73.1938
73.2781
73.3624
73.4468
73.5311
73.6154
73.6997
73.784
73.8683
73.9526
74.0369
74.1212
74.2055
74.2898
74.3741
74.4584
74.5427
74.627
74.7113
74.7957
74.88
74.9643
75.0486
75.1329
75.2172
75.3015
75.3858
75.4701
75.5544
75.6387
75.723
75.8074
75.8917
75.976
76.0603
76.1446
76.2289
76.3132
76.3975
76.4818
76.5662
76.6505
76.7348
76.8191
76.9034
76.9877
77.072
77.1563
77.2407
77.325
77.4093
77.4936
77.5779
77.6622
77.7465
77.8309
77.9152
77.9995
78.0838
78.1681
78.2524
78.3367
78.4211
78.5054
78.5897
78.674
78.7583
78.8426
78.927
79.0113
79.0956
79.1799
79.2642
79.3486
79.4329
79.5172
79.6015
79.6858
79.7701
79.8545
79.9388
80.0231
80.1074
80.1917
80.2761
80.3604
80.4447
80.529
80.6133
80.6977
80.782
80.8663
80.9506
81.0349
81.1193
81.2036
81.2879
81.3722
81.4566
81.5409
81.6252
81.7095
81.7938
81.8782
81.9625
82.0468
82.1311
82.2155
82.2998
82.3841
82.4684
82.5528
82.6371
82.7214
82.8057
82.8901
82.9744
83.0587
83.143
83.2274
83.3117
83.396
83.4803
83.5647
83.649
83.7333
83.8176
83.902
83.9863
84.0706
84.155
84.2393
84.3236
84.4079
84.4923
84.5766
84.6609
84.7453
84.8296
84.9139
84.9982
85.0826
85.1669
85.2512
85.3356
85.4199
85.5042
85.5885
85.6729
85.7572
85.8415
85.9259
86.0102
86.0945
86.1789
86.2632
86.3475
86.4319
86.5162
86.6005
86.6848
86.7692
86.8535
86.9378
87.0222
87.1065
87.1908
87.2752
87.3595
87.4438
87.5282
87.6125
87.6968
87.7812
87.8655
87.9498
88.0342
88.1185
88.2028
88.2872
88.3715
88.4559
88.5402
88.6245
88.7089
88.7932
88.8775
88.9619
89.0462
89.1305
89.2149
89.2992
89.3835
89.4679
89.5522
89.6366
89.7209
89.8052
89.8896
89.9739
90.0582
90.1426
90.2269
90.3113
90.3956
90.4799
90.5643
90.6486
90.7329
90.8173
90.9016
90.986
91.0703
91.1546
91.239
91.3233
91.4077
91.492
91.5763
91.6607
91.745
91.8294
91.9137
91.998
92.0824
92.1667
92.2511
92.3354
92.4197
92.5041
92.5884
92.6728
92.7571
92.8414
92.9258
93.0101
93.0945
93.1788
93.2631
93.3475
93.4318
93.5162
93.6005
93.6848
93.7692
93.8535
93.9379
94.0222
94.1066
94.1909
94.2752
94.3596
94.4439
94.5283
94.6126
94.697
94.7813
94.8656
94.95
95.0343
95.1187
95.203
95.2874
95.3717
95.456
95.5404
95.6247
95.7091
95.7934
95.8778
95.9621
96.0465
96.1308
96.2151
96.2995
96.3838
96.4682
96.5525
96.6369
96.7212
96.8056
96.8899
96.9742
97.0586
97.1429
97.2273
97.3116
97.396
97.4803
97.5647
97.649
97.7334
97.8177
97.902
97.9864
98.0707
98.1551
98.2394
98.3238
98.4081
98.4925
98.5768
98.6612
98.7455
98.8298
98.9142
98.9985
99.0829
99.1672
99.2516
99.3359
99.4203
99.5046
99.589
99.6733
99.7577
99.842
99.9263
100.011
100.095
100.179
100.264
100.348
100.432
100.517
100.601
100.685
100.77
100.854
100.939
101.023
101.107
101.192
101.276
101.36
101.445
101.529
101.613
101.698
101.782
101.866
101.951
102.035
102.119
102.204
102.288
102.372
102.457
102.541
102.625
102.71
102.794
102.878
102.963
103.047
103.132
103.216
103.3
103.385
103.469
103.553
103.638
103.722
103.806
103.891
103.975
104.059
104.144
104.228
104.312
104.397
104.481
104.565
104.65
104.734
104.818
104.903
104.987
105.071
105.156
105.24
105.325
105.409
105.493
105.578
105.662
105.746
105.831
105.915
105.999
106.084
106.168
106.252
106.337
106.421
106.505
106.59
106.674
106.758
106.843
106.927
107.011
107.096
107.18
107.264
107.349
107.433
107.517
107.602
107.686
107.771
107.855
107.939
108.024
108.108
108.192
108.277
108.361
108.445
108.53
108.614
108.698
108.783
108.867
108.951
109.036
109.12
109.204
109.289
109.373
109.457
109.542
109.626
109.71
109.795
109.879
109.963
110.048
110.132
110.216
110.301
110.385
110.469
110.554
110.638
110.722
110.807
110.891
110.975
111.06
111.144
111.229
111.313
111.397
111.482
111.566
111.65
111.735
111.819
111.903
111.988
112.072
112.156
112.241
112.325
112.409
112.494
112.578
112.662
112.747
112.831
112.915
113
113.084
113.168
113.253
113.337
113.421
113.506
113.59
113.674
113.759
113.843
113.927
114.012
114.096
114.18
114.265
114.349
114.433
114.518
114.602
114.686
114.771
114.855
114.939
115.024
115.108
115.192
115.276
115.361
115.445
115.529
115.614
115.698
115.782
115.867
115.951
116.035
116.12
116.204
116.288
116.373
116.457
116.541
116.626
116.71
116.794
116.879
116.963
117.047
117.132
117.216
117.3
117.385
117.469
117.553
117.638
117.722
117.806
117.89
117.975
118.059
118.143
118.228
118.312
118.396
118.481
118.565
118.649
118.734
118.818
118.902
118.987
119.071
119.155
119.24
119.324
119.408
119.492
119.577
119.661
119.745
119.83
119.914
119.998
120.083
120.167
120.251
120.336
120.42
120.504
120.588
120.673
120.757
120.841
120.926
121.01
121.094
121.179
121.263
121.347
121.431
121.516
121.6
121.684
121.769
121.853
121.937
122.021
122.106
122.19
122.274
122.359
122.443
122.527
122.612
122.696
122.78
122.864
122.949
123.033
123.117
123.202
123.286
123.37
123.454
123.539
123.623
123.707
123.792
123.876
123.96
124.044
124.129
124.213
124.297
124.381
124.466
124.55
124.634
124.718
124.803
124.887
124.971
125.055
125.139
125.224
125.308
125.392
125.476
125.561
125.645
125.729
125.814
125.898
125.982
126.066
126.151
126.235
126.319
126.402
126.486
126.57
126.653
126.736
126.819
126.901
126.984
127.066
127.148
127.23
127.311
127.393
127.475
127.557
127.639
127.721
127.804
127.888
127.972
128.057
128.142
128.227
128.313
128.398
128.482
128.566
128.649
128.732
128.814
128.895
128.975
129.055
129.134
129.213
129.292
129.371
129.449
129.527
129.606
129.684
129.762
129.841
129.92
130
130.081
130.164
130.248
130.334
130.422
130.51
130.599
130.687
130.775
130.863
130.95
131.036
131.121
131.206
131.289
131.372
131.454
131.536
131.617
131.697
131.776
131.855
131.934
132.013
132.091
132.169
132.248
132.326
132.406
132.486
132.567
132.65
132.734
132.819
132.905
132.993
133.081
133.169
133.258
133.347
133.435
133.523
133.611
133.698
133.785
133.871
133.957
134.043
134.128
134.212
134.296
134.38
134.463
134.546
134.628
134.71
134.792
134.873
134.954
135.035
135.115
135.196
135.276
135.356
135.437
135.518
135.599
135.681
135.763
135.847
135.931
136.016
136.101
136.188
136.275
136.362
136.45
136.537
136.624
136.712
136.799
136.886
136.972
137.059
137.145
137.231
137.317
137.402
137.487
137.572
137.656
137.741
137.824
137.908
137.991
138.074
138.157
138.239
138.322
138.404
138.485
138.567
138.649
138.73
138.812
138.893
138.974
139.056
139.137
139.219
139.302
139.384
139.468
139.551
139.636
139.721
139.807
139.893
139.979
140.066
140.153
140.24
140.326
140.413
140.5
140.586
140.673
140.759
140.845
140.931
141.017
141.102
141.188
141.273
141.358
141.442
141.527
141.611
141.695
141.779
141.863
141.946
142.029
142.112
142.195
142.278
142.36
142.442
142.524
142.606
142.688
142.77
142.852
142.933
143.015
143.096
143.178
143.26
143.342
143.424
143.506
143.589
143.673
143.757
143.841
143.926
144.011
144.097
144.183
144.27
144.356
144.443
144.529
144.616
144.702
144.788
144.875
144.961
145.047
145.133
145.218
145.304
145.39
145.475
145.56
145.645
145.73
145.815
145.899
145.984
146.068
146.152
146.236
146.32
146.403
146.487
146.57
146.653
146.736
146.819
146.901
146.984
147.066
147.148
147.23
147.311
147.393
147.474
147.556
147.637
147.718
147.8
147.881
147.962
148.044
148.125
148.207
148.289
148.372
148.455
148.538
148.622
148.707
148.792
148.878
148.963
149.049
149.136
149.222
149.309
149.395
149.481
149.568
149.654
149.74
149.826
149.912
149.998
150.084
150.169
150.255
150.34
150.426
150.511
150.596
150.681
150.766
150.851
150.935
151.02
151.104
151.189
151.273
151.357
151.441
151.524
151.608
151.691
151.775
151.858
151.941
152.024
152.107
152.189
152.272
152.354
152.436
152.518
152.6
152.682
152.763
152.845
152.926
153.007
153.088
153.169
153.249
153.33
153.411
153.491
153.572
153.653
153.734
153.815
153.897
153.979
154.061
154.144
154.228
154.312
154.397
154.483
154.568
154.654
154.741
154.827
154.913
155
155.086
155.172
155.258
155.345
155.431
155.517
155.603
155.689
155.774
155.86
155.946
156.032
156.117
156.203
156.288
156.374
156.459
156.544
156.63
156.715
156.8
156.885
156.97
157.055
157.14
157.225
157.31
157.395
157.48
157.564
157.649
157.734
157.818
157.903
157.987
158.072
158.156
158.24
158.325
158.409
158.493
158.577
158.661
158.745
158.829
158.913
158.997
159.081
159.164
159.248
159.332
159.415
159.499
159.582
159.666
159.749
159.832
159.916
159.999
160.082
160.165
160.248
160.331
160.414
160.497
160.579
160.662
160.745
160.827
160.909
160.992
161.074
161.156
161.238
161.32
161.402
161.484
161.566
161.647
161.729
161.81
161.892
161.973
162.054
162.136
162.217
162.298
162.38
162.461
162.543
162.624
162.706
162.788
162.869
162.951
163.033
163.115
163.197
163.278
163.36
163.442
163.523
163.605
163.686
163.767
163.849
163.93
164.011
164.091
164.172
164.252
164.332
164.412
164.492
164.571
164.65
164.729
164.807
164.885
164.962
165.04
165.117
165.194
165.27
165.347
165.424
165.501
165.578
165.656
165.735
165.814
165.895
165.976
166.058
166.14
166.222
166.305
166.387
166.469
166.551
166.633
166.714
166.796
166.877
166.958
167.039
167.119
167.2
167.28
167.36
167.439
167.519
167.598
167.676
167.755
167.833
167.91
167.987
168.064
168.141
168.217
168.293
168.369
168.444
168.52
168.596
168.672
168.748
168.825
168.902
168.981
169.06
169.14
169.22
169.3
169.381
169.461
169.542
169.622
169.702
169.782
169.861
169.941
170.02
170.099
170.178
170.256
170.335
170.413
170.49
170.568
170.645
170.722
170.798
170.874
170.95
171.025
171.1
171.175
171.249
171.323
171.397
171.471
171.545
171.619
171.693
171.767
171.842
171.917
171.994
172.07
172.148
172.225
172.303
172.381
172.458
172.536
172.613
172.69
172.766
172.843
172.919
172.995
173.071
173.147
173.222
173.297
173.372
173.446
173.52
173.593
173.667
173.739
173.812
173.884
173.955
174.026
174.097
174.167
174.237
174.307
174.377
174.447
174.517
174.587
174.658
174.73
174.802
174.875
174.948
175.022
175.095
175.169
175.243
175.316
175.39
175.463
175.536
175.608
175.68
175.752
175.824
175.895
175.966
176.037
176.107
176.177
176.246
176.315
176.384
176.452
176.519
176.586
176.653
176.719
176.785
176.85
176.915
176.979
177.043
177.108
177.172
177.236
177.3
177.366
177.431
177.498
177.565
177.633
177.702
177.77
177.838
177.907
177.974
178.042
178.11
178.177
178.244
178.31
178.376
178.442
178.507
178.572
178.637
178.701
178.765
178.828
178.891
178.953
179.015
179.076
179.137
179.197
179.257
179.316
179.375
179.433
179.491
179.548
179.605
179.662
179.719
179.776
179.834
179.892
179.952
180.011
180.072
180.133
180.195
180.257
180.318
180.38
180.441
180.502
180.562
180.622
180.682
180.742
180.801
180.86
180.919
180.977
181.035
181.092
181.149
181.205
181.261
181.317
181.371
181.426
181.48
181.533
181.586
181.638
181.69
181.741
181.792
181.843
181.893
181.943
181.993
182.044
182.094
182.146
182.198
182.25
182.304
182.359
182.413
182.469
182.524
182.579
182.634
182.689
182.744
182.798
182.852
182.906
182.96
183.013
183.066
183.119
183.171
183.223
183.274
183.326
183.376
183.427
183.477
183.526
183.575
183.624
183.672
183.719
183.767
183.813
183.86
183.906
183.951
183.997
184.042
184.087
184.133
184.179
184.225
184.273
184.321
184.37
184.42
184.471
184.522
184.573
184.624
184.676
184.727
184.778
184.829
184.879
184.93
184.98
185.03
185.08
185.129
185.178
185.227
185.276
185.324
185.372
185.42
185.467
185.514
185.561
185.607
185.653
185.698
185.743
185.788
185.832
185.876
185.92
185.963
186.006
186.049
186.093
186.136
186.18
186.225
186.27
186.317
186.364
186.412
186.461
186.51
186.56
186.61
186.66
186.709
186.759
186.808
186.858
186.907
186.956
187.005
187.053
187.102
187.15
187.198
187.246
187.293
187.34
187.387
187.434
187.48
187.526
187.571
187.617
187.661
187.706
187.75
187.793
187.837
187.88
187.923
187.965
188.008
188.051
188.093
188.137
188.18
188.225
188.27
188.317
188.364
188.412
188.46
188.509
188.558
188.608
188.657
188.707
188.756
188.805
188.854
188.903
188.952
189
189.049
189.097
189.145
189.193
189.24
189.287
189.334
189.381
189.428
189.474
189.519
189.565
189.61
189.654
189.699
189.743
189.786
189.829
189.872
189.915
189.958
190
190.042
190.085
190.128
190.172
190.216
190.261
190.307
190.354
190.401
190.45
190.499
190.548
190.597
190.646
190.696
190.745
190.794
190.843
190.892
190.941
190.99
191.038
191.086
191.135
191.183
191.23
191.278
191.325
191.372
191.418
191.465
191.511
191.556
191.601
191.646
191.691
191.735
191.778
191.822
191.865
191.908
191.95
191.993
192.035
192.077
192.12
192.163
192.207
192.251
192.296
192.342
192.389
192.437
192.486
192.535
192.584
192.633
192.683
192.732
192.781
192.831
192.88
192.929
192.978
193.026
193.075
193.123
193.171
193.219
193.267
193.315
193.362
193.409
193.455
193.502
193.548
193.593
193.638
193.683
193.728
193.772
193.815
193.859
193.902
193.944
193.987
194.029
194.071
194.114
194.156
194.199
194.242
194.286
194.332
194.377
194.424
194.472
194.52
194.569
194.618
194.668
194.717
194.767
194.816
194.865
194.915
194.964
195.013
195.062
195.11
195.159
195.207
195.256
195.303
195.351
195.399
195.446
195.493
195.539
195.585
195.631
195.676
195.721
195.766
195.81
195.854
195.897
195.94
195.983
196.026
196.068
196.11
196.152
196.194
196.236
196.279
196.323
196.367
196.412
196.458
196.505
196.553
196.601
196.65
196.7
196.749
196.799
196.848
196.898
196.947
196.997
197.046
197.095
197.144
197.193
197.242
197.29
197.339
197.387
197.435
197.482
197.529
197.576
197.623
197.669
197.715
197.76
197.805
197.85
197.894
197.938
197.981
198.024
198.067
198.109
198.151
198.193
198.235
198.277
198.319
198.361
198.404
198.448
198.493
198.539
198.585
198.633
198.681
198.729
198.779
198.828
198.878
198.928
198.977
199.027
199.077
199.126
199.175
199.225
199.274
199.323
199.372
199.42
199.469
199.517
199.565
199.612
199.659
199.706
199.753
199.799
199.845
199.89
199.935
199.98
200.024
200.067
200.11
200.153
200.195
200.237
200.279
200.321
200.362
200.404
200.446
200.488
200.531
200.575
200.619
200.665
200.711
200.759
200.807
200.856
200.905
200.954
201.004
201.054
201.104
201.154
201.204
201.253
201.303
201.352
201.402
201.451
201.5
201.549
201.597
201.646
201.694
201.741
201.789
201.836
201.883
201.929
201.975
202.021
202.066
202.11
202.154
202.198
202.241
202.284
202.327
202.369
202.41
202.452
202.493
202.535
202.576
202.618
202.66
202.703
202.747
202.792
202.838
202.884
202.932
202.98
203.029
203.078
203.128
203.178
203.228
203.278
203.328
203.378
203.428
203.477
203.527
203.577
203.626
203.675
203.724
203.773
203.821
203.87
203.917
203.965
204.012
204.059
204.106
204.152
204.197
204.242
204.287
204.331
204.374
204.418
204.46
204.503
204.544
204.586
204.627
204.669
204.71
204.751
204.792
204.834
204.877
204.921
204.965
205.01
205.057
205.104
205.152
205.2
205.249
205.299
205.349
205.399
205.449
205.5
205.55
205.6
205.65
205.7
205.749
205.799
205.849
205.898
205.947
205.996
206.044
206.092
206.14
206.188
206.235
206.282
206.328
206.374
206.42
206.464
206.509
206.553
206.596
206.639
206.682
206.724
206.765
206.807
206.848
206.889
206.929
206.97
207.012
207.054
207.096
207.14
207.184
207.229
207.275
207.322
207.37
207.418
207.467
207.517
207.567
207.617
207.668
207.718
207.768
207.819
207.869
207.919
207.969
208.019
208.069
208.118
208.168
208.217
208.266
208.314
208.362
208.41
208.458
208.505
208.551
208.597
208.643
208.688
208.733
208.777
208.821
208.864
208.906
208.948
208.99
209.032
209.073
209.113
209.154
209.195
209.235
209.277
209.318
209.361
209.404
209.448
209.493
209.539
209.586
209.634
209.682
209.732
209.781
209.831
209.882
209.932
209.983
210.033
210.084
210.134
210.185
210.235
210.285
210.335
210.385
210.435
210.484
210.533
210.582
210.631
210.679
210.727
210.774
210.821
210.867
210.913
210.959
211.004
211.048
211.092
211.135
211.178
211.22
211.262
211.303
211.344
211.385
211.425
211.466
211.506
211.547
211.587
211.629
211.671
211.714
211.758
211.803
211.849
211.896
211.944
211.992
212.041
212.091
212.141
212.191
212.242
212.292
212.343
212.394
212.445
212.496
212.546
212.597
212.647
212.697
212.747
212.797
212.846
212.896
212.944
212.993
213.041
213.089
213.136
213.183
213.229
213.275
213.32
213.365
213.409
213.453
213.496
213.538
213.58
213.622
213.663
213.703
213.744
213.784
213.824
213.864
213.905
213.945
213.987
214.029
214.072
214.116
214.16
214.206
214.253
214.3
214.348
214.397
214.447
214.497
214.547
214.598
214.649
214.7
214.751
214.802
214.853
214.904
214.954
215.005
215.055
215.106
215.156
215.206
215.255
215.304
215.353
215.402
215.45
215.498
215.545
215.592
215.638
215.683
215.728
215.773
215.817
215.86
215.903
215.945
215.986
216.028
216.068
216.109
216.149
216.189
216.228
216.268
216.308
216.349
216.39
216.432
216.474
216.518
216.562
216.608
216.654
216.701
216.749
216.798
216.847
216.897
216.947
216.998
217.049
217.1
217.152
217.203
217.254
217.306
217.357
217.408
217.459
217.51
217.56
217.61
217.66
217.71
217.76
217.809
217.857
217.906
217.953
218.001
218.047
218.094
218.139
218.184
218.228
218.272
218.315
218.358
218.4
218.441
218.482
218.523
218.563
218.603
218.642
218.682
218.721
218.761
218.801
218.841
218.883
218.925
218.968
219.012
219.056
219.102
219.149
219.196
219.244
219.293
219.343
219.393
219.444
219.495
219.546
219.597
219.649
219.701
219.752
219.804
219.855
219.906
219.957
220.008
220.059
220.11
220.16
220.21
220.259
220.309
220.357
220.406
220.454
220.501
220.548
220.594
220.639
220.684
220.729
220.772
220.816
220.858
220.9
220.941
220.982
221.022
221.062
221.102
221.141
221.181
221.22
221.259
221.299
221.339
221.38
221.422
221.464
221.507
221.552
221.597
221.643
221.69
221.738
221.786
221.835
221.885
221.936
221.987
222.038
222.09
222.141
222.193
222.245
222.297
222.349
222.4
222.452
222.503
222.555
222.606
222.657
222.707
222.757
222.807
222.857
222.906
222.954
223.002
223.05
223.097
223.143
223.189
223.234
223.279
223.323
223.366
223.408
223.45
223.491
223.532
223.572
223.612
223.651
223.69
223.729
223.768
223.807
223.846
223.885
223.925
223.966
224.007
224.049
224.092
224.136
224.181
224.227
224.273
224.321
224.369
224.418
224.468
224.518
224.569
224.62
224.672
224.724
224.776
224.829
224.881
224.933
224.985
225.038
225.09
225.142
225.193
225.245
225.296
225.347
225.397
225.448
225.498
225.547
225.596
225.644
225.692
225.739
225.786
225.832
225.877
225.922
225.965
226.009
226.051
226.093
226.134
226.175
226.215
226.254
226.294
226.332
226.371
226.409
226.447
226.486
226.524
226.563
226.603
226.644
226.685
226.727
226.77
226.813
226.858
226.903
226.95
226.997
227.045
227.094
227.144
227.194
227.245
227.296
227.348
227.4
227.453
227.505
227.558
227.611
227.663
227.716
227.769
227.821
227.873
227.925
227.977
228.028
228.08
228.13
228.181
228.231
228.28
228.329
228.378
228.425
228.473
228.519
228.565
228.61
228.655
228.698
228.741
228.784
228.825
228.866
228.907
228.946
228.986
229.024
229.063
229.101
229.139
229.177
229.215
229.253
229.292
229.331
229.371
229.411
229.453
229.495
229.538
229.582
229.627
229.673
229.72
229.767
229.815
229.865
229.914
229.965
230.016
230.068
230.12
230.172
230.225
230.278
230.331
230.384
230.438
230.491
230.544
230.596
230.649
230.701
230.754
230.805
230.857
230.908
230.959
231.01
231.059
231.109
231.158
231.206
231.253
231.3
231.346
231.392
231.436
231.48
231.523
231.566
231.608
231.649
231.689
231.729
231.768
231.806
231.845
231.882
231.92
231.957
231.995
232.032
232.07
232.108
232.147
232.187
232.227
232.268
232.31
232.353
232.397
232.441
232.486
232.533
232.58
232.628
232.677
232.726
232.776
232.827
232.879
232.931
232.984
233.037
233.09
233.144
233.197
233.251
233.304
233.358
233.411
233.465
233.518
233.571
233.624
233.676
233.728
233.78
233.831
233.882
233.932
233.982
234.031
234.079
234.127
234.174
234.221
234.266
234.311
234.355
234.399
234.441
234.483
234.524
234.564
234.603
234.642
234.681
234.719
234.756
234.793
234.83
234.867
234.904
234.941
234.979
235.017
235.055
235.095
235.135
235.176
235.217
235.26
235.303
235.347
235.392
235.438
235.485
235.532
235.581
235.63
235.68
235.731
235.782
235.834
235.887
235.94
235.994
236.047
236.101
236.155
236.21
236.264
236.318
236.372
236.426
236.479
236.533
236.586
236.638
236.691
236.743
236.795
236.846
236.897
236.947
236.996
237.045
237.093
237.14
237.187
237.233
237.278
237.322
237.365
237.408
237.45
237.491
237.531
237.571
237.61
237.648
237.686
237.723
237.76
237.796
237.833
237.869
237.906
237.943
237.98
238.018
238.056
238.095
238.135
238.176
238.217
238.259
238.302
238.346
238.39
238.436
238.482
238.529
238.577
238.625
238.675
238.725
238.776
238.828
238.88
238.933
238.986
239.04
239.094
239.148
239.203
239.257
239.312
239.366
239.421
239.475
239.529
239.583
239.637
239.69
239.743
239.796
239.848
239.9
239.951
240.002
240.053
240.102
240.151
240.199
240.247
240.294
240.339
240.385
240.429
240.472
240.515
240.557
240.598
240.638
240.677
240.716
240.754
240.792
240.829
240.866
240.902
240.938
240.974
241.01
241.046
241.083
241.12
241.157
241.195
241.233
241.272
241.312
241.353
241.394
241.436
241.479
241.523
241.567
241.612
241.658
241.705
241.752
241.801
241.85
241.9
241.951
242.002
242.054
242.107
242.161
242.215
242.269
242.324
242.379
242.434
242.49
242.545
242.601
242.656
242.712
242.767
242.822
242.877
242.931
242.985
243.039
243.093
243.146
243.198
243.25
243.301
243.352
243.402
243.451
243.499
243.546
243.593
243.638
243.683
243.727
243.769
243.811
243.852
243.892
243.931
243.97
244.007
244.044
244.08
244.116
244.151
244.186
244.22
244.255
244.289
244.324
244.359
244.394
244.43
244.466
244.504
244.542
244.58
244.62
244.66
244.701
244.743
244.786
244.829
244.874
244.92
244.967
245.014
245.063
245.113
245.164
245.216
245.269
245.322
245.377
245.433
245.489
245.546
245.603
245.66
245.718
245.776
245.833
245.891
245.948
246.005
246.062
246.118
246.174
246.229
246.284
246.337
246.39
246.443
246.494
246.544
246.594
246.642
246.689
246.736
246.781
246.825
246.867
246.909
246.95
246.989
247.028
247.066
247.102
247.139
247.174
247.209
247.244
247.278
247.312
247.346
247.381
247.416
247.451
247.488
247.524
247.562
247.601
247.64
247.681
247.722
247.765
247.809
247.854
247.9
247.947
247.995
248.045
248.096
248.147
248.2
248.254
248.309
248.364
248.42
248.476
248.532
248.589
248.645
248.701
248.757
248.812
248.867
248.922
248.976
249.029
249.082
249.134
249.186
249.236
249.286
249.334
249.382
249.429
249.474
249.519
249.563
249.605
249.647
249.688
249.728
249.767
249.805
249.843
249.88
249.917
249.953
249.989
250.024
250.06
250.096
250.133
250.17
250.207
250.245
250.284
250.324
250.365
250.406
250.449
250.493
250.537
250.583
250.63
250.678
250.727
250.777
250.828
250.881
250.934
250.988
251.043
251.098
251.154
251.21
251.266
251.322
251.378
251.434
251.49
251.545
251.601
251.655
251.709
251.763
251.816
251.869
251.92
251.971
252.021
252.071
252.119
252.167
252.213
252.259
252.303
252.347
252.39
252.431
252.472
252.512
252.551
252.59
252.627
252.664
252.701