/*--------------------------------*- C++ -*----------------------------------*\
  =========                 |
  \\      /  F ield         | OpenFOAM: The Open Source CFD Toolbox
   \\    /   O peration     | Website:  https://openfoam.org
    \\  /    A nd           | Version:  9
     \\/     M anipulation  |
\*---------------------------------------------------------------------------*/
FoamFile
{
    format      ascii;
    class       surfaceScalarField;
    location    "0.018";
    object      phi;
}
// * * * * * * * * * * * * * * * * * * * * * * * * * * * * * * * * * * * * * //

dimensions      [1 0 -1 0 0 0 0];

internalField   nonuniform List<scalar> 
9999
(
1.82788
2.03674
2.24563
2.45453
2.66345
2.87237
3.08129
3.29022
3.49914
3.70807
3.91699
4.12592
4.33484
4.54377
4.75269
4.96161
5.17054
5.37946
5.58838
5.79731
6.00623
6.21515
6.42407
6.633
6.84192
7.05084
7.25976
7.46868
7.6776
7.88652
8.09545
8.30437
8.51329
8.7222
8.93112
9.14004
9.34896
9.55788
9.7668
9.97572
10.1846
10.3936
10.6025
10.8114
11.0203
11.2292
11.4381
11.647
11.856
12.0649
12.2738
12.4827
12.6916
12.9005
13.1094
13.3184
13.5273
13.7362
13.9451
14.154
14.3629
14.5718
14.7807
14.9896
15.1985
15.4075
15.6164
15.8253
16.0342
16.2431
16.452
16.6609
16.8698
17.0787
17.2876
17.4965
17.7054
17.9143
18.1232
18.3321
18.541
18.7499
18.9588
19.1677
19.3766
19.5855
19.7944
20.0033
20.2122
20.4211
20.63
20.8389
21.0478
21.2567
21.4656
21.6745
21.8833
22.0922
22.3011
22.51
22.7189
22.9278
23.1367
23.3456
23.5544
23.7633
23.9722
24.1811
24.39
24.5989
24.8077
25.0166
25.2255
25.4344
25.6433
25.8521
26.061
26.2699
26.4788
26.6876
26.8965
27.1054
27.3143
27.5231
27.732
27.9409
28.1497
28.3586
28.5675
28.7763
28.9852
29.1941
29.4029
29.6118
29.8207
30.0295
30.2384
30.4472
30.6561
30.865
31.0738
31.2827
31.4915
31.7004
31.9092
32.1181
32.3269
32.5358
32.7446
32.9535
33.1623
33.3712
33.58
33.7889
33.9977
34.2066
34.4154
34.6242
34.8331
35.0419
35.2508
35.4596
35.6684
35.8773
36.0861
36.2949
36.5038
36.7126
36.9214
37.1302
37.3391
37.5479
37.7567
37.9655
38.1744
38.3832
38.592
38.8008
39.0097
39.2185
39.4273
39.6361
39.8449
40.0537
40.2625
40.4714
40.6802
40.889
41.0978
41.3066
41.5154
41.7242
41.933
42.1418
42.3506
42.5594
42.7682
42.977
43.1858
43.3946
43.6034
43.8122
44.0209
44.2297
44.4385
44.6473
44.8561
45.0649
45.2737
45.4824
45.6912
45.9
46.1088
46.3176
46.5263
46.7351
46.9439
47.1526
47.3614
47.5702
47.7789
47.9877
48.1965
48.4052
48.614
48.8228
49.0315
49.2403
49.449
49.6578
49.8665
50.0753
50.284
50.4928
50.7015
50.9103
51.119
51.3278
51.5365
51.7452
51.954
52.1627
52.3714
52.5802
52.7889
52.9976
53.2064
53.4151
53.6238
53.8325
54.0413
54.25
54.4587
54.6674
54.8761
55.0849
55.2936
55.5023
55.711
55.9197
56.1284
56.3371
56.5458
56.7545
56.9632
57.1719
57.3806
57.5893
57.798
58.0067
58.2154
58.4241
58.6328
58.8415
59.0501
59.2588
59.4675
59.6762
59.8849
60.0935
60.3022
60.5109
60.7196
60.9282
61.1369
61.3456
61.5542
61.7629
61.9715
62.1802
62.3889
62.5975
62.8062
63.0148
63.2235
63.4321
63.6408
63.8494
64.058
64.2667
64.4753
64.684
64.8926
65.1012
65.3099
65.5185
65.7271
65.9357
66.1444
66.353
66.5616
66.7702
66.9788
67.1875
67.3961
67.6047
67.8133
68.0219
68.2305
68.4391
68.6477
68.8563
69.0649
69.2735
69.4821
69.6907
69.8993
70.1079
70.3164
70.525
70.7336
70.9422
71.1508
71.3593
71.5679
71.7765
71.985
72.1936
72.4022
72.6107
72.8193
73.0279
73.2364
73.445
73.6535
73.8621
74.0706
74.2792
74.4877
74.6962
74.9048
75.1133
75.3219
75.5304
75.7389
75.9474
76.156
76.3645
76.573
76.7815
76.9901
77.1986
77.4071
77.6156
77.8241
78.0326
78.2411
78.4496
78.6581
78.8666
79.0751
79.2836
79.4921
79.7006
79.9091
80.1176
80.326
80.5345
80.743
80.9515
81.1599
81.3684
81.5769
81.7853
81.9938
82.2023
82.4107
82.6192
82.8276
83.0361
83.2445
83.453
83.6614
83.8699
84.0783
84.2867
84.4952
84.7036
84.912
85.1205
85.3289
85.5373
85.7457
85.9542
86.1626
86.371
86.5794
86.7878
86.9962
87.2046
87.413
87.6214
87.8298
88.0382
88.2466
88.455
88.6634
88.8717
89.0801
89.2885
89.4969
89.7052
89.9136
90.122
90.3303
90.5387
90.7471
90.9554
91.1638
91.3721
91.5805
91.7888
91.9972
92.2055
92.4138
92.6222
92.8305
93.0388
93.2472
93.4555
93.6638
93.8721
94.0805
94.2888
94.4971
94.7054
94.9137
95.122
95.3303
95.5386
95.7469
95.9552
96.1635
96.3718
96.58
96.7883
96.9966
97.2049
97.4132
97.6214
97.8297
98.038
98.2462
98.4545
98.6627
98.871
99.0792
99.2875
99.4957
99.704
99.9122
100.12
100.329
100.537
100.745
100.953
101.162
101.37
101.578
101.786
101.994
102.203
102.411
102.619
102.827
103.035
103.244
103.452
103.66
103.868
104.076
104.285
104.493
104.701
104.909
105.117
105.325
105.534
105.742
105.95
106.158
106.366
106.574
106.782
106.991
107.199
107.407
107.615
107.823
108.031
108.239
108.447
108.656
108.864
109.072
109.28
109.488
109.696
109.904
110.112
110.32
110.528
110.737
110.945
111.153
111.361
111.569
111.777
111.985
112.193
112.401
112.609
112.817
113.025
113.233
113.441
113.649
113.857
114.065
114.273
114.481
114.689
114.897
115.105
115.314
115.522
115.73
115.938
116.146
116.354
116.561
116.769
116.977
117.185
117.393
117.601
117.809
118.017
118.225
118.433
118.641
118.849
119.057
119.265
119.473
119.681
119.889
120.097
120.305
120.513
120.721
120.928
121.136
121.344
121.552
121.76
121.968
122.176
122.384
122.592
122.8
123.007
123.215
123.423
123.631
123.839
124.047
124.255
124.463
124.67
124.878
125.086
125.294
125.502
125.71
125.917
126.125
126.333
126.541
126.749
126.957
127.164
127.372
127.58
127.788
127.996
128.203
128.411
128.619
128.827
129.034
129.242
129.45
129.658
129.866
130.073
130.281
130.489
130.697
130.904
131.112
131.32
131.527
131.735
131.943
132.151
132.358
132.566
132.774
132.981
133.189
133.397
133.605
133.812
134.02
134.228
134.435
134.643
134.851
135.058
135.266
135.474
135.681
135.889
136.097
136.304
136.512
136.719
136.927
137.135
137.342
137.55
137.758
137.965
138.173
138.38
138.588
138.796
139.003
139.211
139.418
139.626
139.833
140.041
140.249
140.456
140.664
140.871
141.079
141.286
141.494
141.701
141.909
142.116
142.324
142.532
142.739
142.947
143.154
143.362
143.569
143.777
143.984
144.192
144.399
144.606
144.814
145.021
145.229
145.436
145.644
145.851
146.059
146.266
146.474
146.681
146.888
147.096
147.303
147.511
147.718
147.925
148.133
148.34
148.548
148.755
148.962
149.17
149.377
149.585
149.792
149.999
150.207
150.414
150.621
150.829
151.036
151.243
151.451
151.658
151.865
152.073
152.28
152.487
152.695
152.902
153.109
153.317
153.524
153.731
153.938
154.146
154.353
154.56
154.767
154.975
155.182
155.389
155.596
155.804
156.011
156.218
156.425
156.633
156.84
157.047
157.254
157.461
157.669
157.876
158.083
158.29
158.497
158.704
158.912
159.119
159.326
159.533
159.74
159.947
160.155
160.362
160.569
160.776
160.983
161.19
161.397
161.604
161.811
162.019
162.226
162.433
162.64
162.847
163.054
163.261
163.468
163.675
163.882
164.089
164.296
164.503
164.71
164.917
165.124
165.331
165.538
165.745
165.952
166.159
166.366
166.573
166.78
166.987
167.194
167.401
167.608
167.815
168.022
168.229
168.436
168.643
168.85
169.057
169.264
169.471
169.678
169.885
170.091
170.298
170.505
170.712
170.919
171.126
171.333
171.54
171.747
171.953
172.16
172.367
172.574
172.781
172.988
173.194
173.401
173.608
173.815
174.022
174.228
174.435
174.642
174.849
175.056
175.262
175.469
175.676
175.883
176.089
176.296
176.503
176.71
176.916
177.123
177.33
177.537
177.743
177.95
178.157
178.363
178.57
178.777
178.983
179.19
179.397
179.603
179.81
180.017
180.223
180.43
180.637
180.843
181.05
181.256
181.463
181.67
181.876
182.083
182.289
182.496
182.703
182.909
183.116
183.322
183.529
183.735
183.942
184.149
184.355
184.562
184.768
184.975
185.181
185.388
185.594
185.801
186.007
186.214
186.42
186.627
186.833
187.04
187.246
187.452
187.659
187.865
188.072
188.278
188.485
188.691
188.897
189.104
189.31
189.517
189.723
189.929
190.136
190.342
190.549
190.755
190.961
191.168
191.374
191.58
191.787
191.993
192.199
192.406
192.612
192.818
193.024
193.231
193.437
193.643
193.85
194.056
194.262
194.468
194.675
194.881
195.087
195.293
195.499
195.706
195.912
196.118
196.324
196.531
196.737
196.943
197.149
197.355
197.561
197.768
197.974
198.18
198.386
198.592
198.798
199.004
199.21
199.417
199.623
199.829
200.035
200.241
200.447
200.653
200.859
201.065
201.271
201.477
201.683
201.889
202.095
202.301
202.507
202.713
202.92
203.125
203.331
203.537
203.743
203.949
204.155
204.361
204.567
204.773
204.979
205.185
205.391
205.597
205.803
206.009
206.215
206.421
206.626
206.832
207.038
207.244
207.45
207.656
207.862
208.068
208.273
208.479
208.685
208.891
209.097
209.302
209.508
209.714
209.92
210.126
210.331
210.537
210.743
210.949
211.154
211.36
211.566
211.772
211.977
212.183
212.389
212.594
212.8
213.006
213.212
213.417
213.623
213.829
214.034
214.24
214.445
214.651
214.857
215.062
215.268
215.474
215.679
215.885
216.09
216.296
216.502
216.707
216.913
217.118
217.324
217.529
217.735
217.94
218.146
218.351
218.557
218.762
218.968
219.173
219.379
219.584
219.79
219.995
220.201
220.406
220.612
220.817
221.022
221.228
221.433
221.639
221.844
222.049
222.255
222.46
222.666
222.871
223.076
223.282
223.487
223.692
223.898
224.103
224.308
224.514
224.719
224.924
225.129
225.335
225.54
225.745
225.95
226.156
226.361
226.566
226.771
226.977
227.182
227.387
227.592
227.797
228.003
228.208
228.413
228.618
228.823
229.028
229.234
229.439
229.644
229.849
230.054
230.259
230.464
230.669
230.874
231.079
231.285
231.49
231.695
231.9
232.105
232.31
232.515
232.72
232.925
233.13
233.335
233.54
233.745
233.95
234.155
234.36
234.565
234.769
234.974
235.179
235.384
235.589
235.794
235.999
236.204
236.409
236.614
236.818
237.023
237.228
237.433
237.638
237.843
238.047
238.252
238.457
238.662
238.867
239.071
239.276
239.481
239.686
239.89
240.095
240.3
240.505
240.709
240.914
241.119
241.323
241.528
241.733
241.937
242.142
242.347
242.551
242.756
242.961
243.165
243.37
243.574
243.779
243.984
244.188
244.393
244.597
244.802
245.006
245.211
245.416
245.62
245.825
246.029
246.234
246.438
246.643
246.847
247.052
247.256
247.46
247.665
247.869
248.074
248.278
248.483
248.687
248.891
249.096
249.3
249.504
249.709
249.913
250.118
250.322
250.526
250.731
250.935
251.139
251.343
251.548
251.752
251.956
252.16
252.365
252.569
252.773
252.977
253.182
253.386
253.59
253.794
253.998
254.203
254.407
254.611
254.815
255.019
255.223
255.427
255.632
255.836
256.04
256.244
256.448
256.652
256.856
257.06
257.264
257.468
257.672
257.876
258.08
258.284
258.488
258.692
258.896
259.1
259.304
259.508
259.712
259.916
260.12
260.324
260.528
260.732
260.936
261.139
261.343
261.547
261.751
261.955
262.159
262.363
262.566
262.77
262.974
263.178
263.381
263.585
263.789
263.993
264.197
264.4
264.604
264.808
265.011
265.215
265.419
265.622
265.826
266.03
266.233
266.437
266.641
266.844
267.048
267.252
267.455
267.659
267.862
268.066
268.269
268.473
268.677
268.88
269.084
269.287
269.491
269.694
269.898
270.101
270.305
270.508
270.711
270.915
271.118
271.322
271.525
271.729
271.932
272.135
272.339
272.542
272.745
272.949
273.152
273.355
273.559
273.762
273.965
274.169
274.372
274.575
274.778
274.982
275.185
275.388
275.591
275.794
275.998
276.201
276.404
276.607
276.81
277.013
277.217
277.42
277.623
277.826
278.029
278.232
278.435
278.638
278.841
279.044
279.247
279.45
279.653
279.856
280.059
280.262
280.465
280.668
280.871
281.074
281.277
281.48
281.683
281.886
282.089
282.292
282.495
282.697
282.9
283.103
283.306
283.509
283.712
283.914
284.117
284.32
284.523
284.725
284.928
285.131
285.334
285.536
285.739
285.942
286.144
286.347
286.55
286.752
286.955
287.158
287.36
287.563
287.765
287.968
288.171
288.373
288.576
288.778
288.981
289.183
289.386
289.588
289.791
289.993
290.196
290.398
290.601
290.803
291.006
291.208
291.41
291.613
291.815
292.017
292.22
292.422
292.625
292.827
293.029
293.231
293.434
293.636
293.838
294.041
294.243
294.445
294.647
294.849
295.052
295.254
295.456
295.658
295.86
296.062
296.265
296.467
296.669
296.871
297.073
297.275
297.477
297.679
297.881
298.083
298.285
298.487
298.689
298.891
299.093
299.295
299.497
299.699
299.901
300.103
300.305
300.506
300.708
300.91
301.112
301.314
301.516
301.717
301.919
302.121
302.323
302.525
302.726
302.928
303.13
303.331
303.533
303.735
303.937
304.138
304.34
304.541
304.743
304.945
305.146
305.348
305.549
305.751
305.952
306.154
306.355
306.556
306.758
306.959
307.161
307.362
307.564
307.765
307.966
308.168
308.369
308.571
308.772
308.973
309.175
309.376
309.577
309.778
309.978
310.178
310.378
310.578
310.777
310.976
311.174
311.372
311.57
311.768
311.965
312.162
312.36
312.557
312.754
312.952
313.151
313.35
313.551
313.752
313.954
314.157
314.36
314.563
314.764
314.965
315.165
315.364
315.562
315.759
315.954
316.149
316.343
316.536
316.728
316.921
317.113
317.304
317.496
317.688
317.88
318.072
318.264
318.458
318.652
318.849
319.048
319.251
319.455
319.662
319.869
320.077
320.284
320.49
320.695
320.899
321.101
321.303
321.503
321.703
321.901
322.097
322.293
322.488
322.682
322.875
323.067
323.259
323.451
323.642
323.834
324.026
324.218
324.411
324.606
324.803
325.001
325.202
325.405
325.609
325.815
326.021
326.228
326.435
326.642
326.848
327.053
327.258
327.463
327.667
327.87
328.072
328.274
328.475
328.675
328.875
329.074
329.272
329.469
329.666
329.862
330.058
330.253
330.448
330.643
330.837
331.031
331.226
331.42
331.614
331.809
332.005
332.202
332.399
332.598
332.798
333
333.202
333.405
333.609
333.814
334.019
334.223
334.427
334.631
334.835
335.038
335.241
335.444
335.646
335.848
336.05
336.251
336.451
336.651
336.851
337.05
337.249
337.447
337.645
337.842
338.039
338.236
338.432
338.628
338.824
339.019
339.215
339.41
339.605
339.8
339.995
340.19
340.386
340.582
340.778
340.975
341.173
341.372
341.572
341.773
341.974
342.176
342.378
342.581
342.783
342.986
343.189
343.391
343.593
343.795
343.997
344.199
344.4
344.601
344.802
345.002
345.202
345.402
345.602
345.801
346
346.198
346.397
346.595
346.792
346.99
347.186
347.383
347.579
347.776
347.971
348.167
348.362
348.557
348.752
348.947
349.141
349.336
349.531
349.725
349.92
350.115
350.31
350.505
350.701
350.898
351.095
351.293
351.492
351.691
351.891
352.092
352.293
352.494
352.695
352.896
353.098
353.299
353.5
353.7
353.901
354.101
354.302
354.502
354.701
354.901
355.101
355.3
355.499
355.697
355.896
356.094
356.292
356.49
356.687
356.885
357.082
357.278
357.475
357.671
357.867
358.063
358.258
358.453
358.648
358.843
359.037
359.231
359.425
359.619
359.812
360.005
360.199
360.392
360.585
360.778
360.971
361.164
361.357
361.55
361.744
361.939
362.134
362.329
362.526
362.723
362.92
363.119
363.317
363.517
363.716
363.916
364.116
364.315
364.515
364.714
364.914
365.113
365.312
365.511
365.71
365.909
366.107
366.305
366.504
366.702
366.899
367.097
367.294
367.492
367.689
367.886
368.082
368.279
368.475
368.671
368.867
369.063
369.258
369.453
369.648
369.843
370.038
370.232
370.426
370.62
370.814
371.008
371.201
371.394
371.587
371.779
371.971
372.163
372.355
372.547
372.738
372.929
373.12
373.311
373.501
373.692
373.882
374.073
374.263
374.454
374.645
374.836
375.028
375.22
375.414
375.607
375.802
375.998
376.194
376.39
376.587
376.785
376.982
377.18
377.377
377.575
377.772
377.969
378.166
378.363
378.56
378.757
378.953
379.15
379.346
379.542
379.738
379.934
380.13
380.326
380.522
380.717
380.913
381.108
381.303
381.498
381.693
381.888
382.083
382.278
382.472
382.667
382.861
383.055
383.249
383.443
383.637
383.831
384.024
384.218
384.411
384.604
384.798
384.991
385.184
385.376
385.569
385.762
385.954
386.146
386.339
386.531
386.723
386.915
387.106
387.298
387.49
387.681
387.872
388.063
388.254
388.445
388.636
388.827
389.017
389.208
389.398
389.588
389.778
389.968
390.157
390.347
390.536
390.725
390.914
391.103
391.292
391.481
391.669
391.857
392.045
392.233
392.421
392.608
392.795
392.983
393.169
393.356
393.543
393.729
393.916
394.102
394.289
394.475
394.662
394.848
395.035
395.221
395.408
395.595
395.781
395.968
396.154
396.34
396.526
396.712
396.898
397.084
397.269
397.454
397.639
397.824
398.008
398.193
398.376
398.56
398.743
398.926
399.109
399.291
399.472
399.653
399.834
400.014
400.193
400.372
400.551
400.729
400.907
401.084
401.262
401.439
401.617
401.796
401.975
402.155
402.336
402.518
402.701
402.884
403.068
403.252
403.435
403.618
403.801
403.983
404.165
404.347
404.529
404.71
404.891
405.071
405.251
405.43
405.609
405.788
405.966
406.144
406.321
406.498
406.674
406.85
407.024
407.199
407.373
407.546
407.718
407.891
408.063
408.234
408.406
408.578
408.749
408.922
409.094
409.268
409.443
409.618
409.794
409.97
410.146
410.322
410.498
410.673
410.848
411.023
411.197
411.371
411.544
411.717
411.889
412.061
412.233
412.404
412.574
412.744
412.914
413.082
413.251
413.418
413.585
413.751
413.917
414.082
414.247
414.41
414.574
414.737
414.899
415.062
415.224
415.387
415.55
415.713
415.877
416.041
416.206
416.372
416.537
416.702
416.867
417.031
417.195
417.358
417.521
417.683
417.845
418.006
418.167
418.327
418.486
418.645
418.803
418.961
419.118
419.274
419.429
419.584
419.738
419.891
420.044
420.195
420.346
420.496
420.645
420.794
420.942
421.09
421.238
421.386
421.533
421.681
421.83
421.979
422.129
422.279
422.428
422.578
422.727
422.876
423.023
423.171
423.317
423.463
423.609
423.753
423.897
424.04
424.182
424.324
424.465
424.605
424.744
424.882
425.019
425.156
425.291
425.426
425.559
425.692
425.823
425.954
426.083
426.212
426.34
426.468
426.595
426.721
426.848
426.974
427.101
427.228
427.356
427.484
427.612
427.741
427.868
427.996
428.122
428.248
428.372
428.497
428.62
428.742
428.864
428.985
429.105
429.224
429.342
429.459
429.575
429.69
429.804
429.917
430.03
430.141
430.251
430.359
430.467
430.574
430.679
430.784
430.888
430.99
431.092
431.193
431.294
431.394
431.494
431.594
431.695
431.796
431.897
431.999
432.101
432.202
432.304
432.404
432.504
432.603
432.701
432.798
432.895
432.991
433.085
433.179
433.273
433.365
433.456
433.547
433.636
433.724
433.812
433.899
433.984
434.069
434.152
434.235
434.316
434.397
434.476
434.555
434.632
434.709
434.785
434.86
434.935
435.009
435.083
435.157
435.232
435.307
435.383
435.46
435.536
435.613
435.69
435.766
435.842
435.917
435.992
436.066
436.139
436.212
436.284
436.356
436.426
436.496
436.566
436.634
436.702
436.77
436.836
436.902
436.967
437.031
437.095
437.157
437.219
437.28
437.341
437.4
437.459
437.518
437.575
437.632
437.689
437.745
437.801
437.857
437.914
437.971
438.029
438.087
438.147
438.207
438.267
438.328
438.388
438.449
438.509
438.569
438.628
438.687
438.746
438.804
438.862
438.919
438.976
439.033
439.089
439.145
439.2
439.255
439.309
439.363
439.416
439.469
439.521
439.573
439.624
439.674
439.724
439.774
439.823
439.871
439.92
439.967
440.015
440.063
440.11
440.158
440.206
440.255
440.305
440.356
440.408
440.46
440.514
440.567
440.621
440.675
440.728
440.782
440.835
440.888
440.94
440.993
441.045
441.097
441.149
441.201
441.252
441.303
441.353
441.403
441.453
441.503
441.552
441.601
441.649
441.697
441.744
441.791
441.838
441.884
441.93
441.975
442.02
442.065
442.109
442.154
442.198
442.243
442.288
442.334
442.381
442.428
442.477
442.526
442.576
442.627
442.678
442.729
442.781
442.832
442.883
442.934
442.985
443.035
443.086
443.136
443.186
443.236
443.285
443.335
443.384
443.432
443.481
443.529
443.577
443.624
443.672
443.718
443.765
443.81
443.856
443.901
443.946
443.99
444.034
444.078
444.121
444.165
444.208
444.251
444.294
444.338
444.382
444.428
444.474
444.521
444.569
444.617
444.667
444.716
444.766
444.816
444.866
444.916
444.966
445.016
445.065
445.115
445.164
445.213
445.262
445.31
445.359
445.407
445.455
445.502
445.549
445.596
445.643
445.689
445.735
445.781
445.826
445.87
445.915
445.959
446.002
446.045
446.088
446.131
446.173
446.215
446.257
446.299
446.342
446.385
446.428
446.473
446.518
446.564
446.611
446.659
446.707
446.756
446.805
446.854
446.903
446.952
447.001
447.049
447.098
447.146
447.194
447.242
447.29
447.338
447.385
447.432
447.479
447.526
447.572
447.618
447.664
447.709
447.754
447.798
447.843
447.886
447.93
447.973
448.015
448.057
448.099
448.141
448.182
448.223
448.264
448.305
448.346
448.388
448.431
448.474
448.518
448.563
448.609
448.655
448.702
448.75
448.798
448.846
448.894
448.942
448.99
449.037
449.085
449.132
449.18
449.227
449.274
449.32
449.367
449.413
449.459
449.505
449.55
449.596
449.641
449.685
449.729
449.773
449.816
449.859
449.902
449.944
449.985
450.027
450.068
450.108
450.149
450.189
450.229
450.269
450.309
450.349
450.39
450.431
450.474
450.517
450.561
450.606
450.652
450.698
450.745
450.792
450.839
450.886
450.933
450.979
451.026
451.073
451.119
451.166
451.212
451.258
451.304
451.349
451.395
451.44
451.485
451.529
451.573
451.617
451.661
451.704
451.747
451.789
451.831
451.873
451.914
451.955
451.995
452.035
452.074
452.114
452.153
452.192
452.23
452.269
452.308
452.348
452.388
452.429
452.471
452.514
452.557
452.601
452.646
452.692
452.738
452.784
452.83
452.876
452.922
452.967
453.013
453.059
453.104
453.15
453.195
453.24
453.285
453.329
453.374
453.418
453.462
453.505
453.548
453.591
453.634
453.676
453.718
453.759
453.8
453.84
453.88
453.92
453.959
453.998
454.036
454.074
454.112
454.15
454.188
454.225
454.263
454.302
454.341
454.381
454.421
454.463
454.505
454.549
454.592
454.637
454.681
454.726
454.771
454.817
454.862
454.906
454.951
454.996
455.041
455.085
455.129
455.173
455.217
455.261
455.305
455.348
455.391
455.434
455.476
455.518
455.56
455.601
455.642
455.682
455.722
455.762
455.801
455.84
455.878
455.916
455.953
455.991
456.028
456.064
456.101
456.137
456.174
456.211
456.249
456.287
456.326
456.366
456.407
456.448
456.491
456.533
456.577
456.621
456.665
456.709
456.753
456.797
456.841
456.885
456.928
456.972
457.015
457.059
457.102
457.145
457.188
457.23
457.273
457.315
457.356
457.398
457.439
457.48
457.52
457.56
457.599
457.638
457.677
457.715
457.753
457.79
457.827
457.863
457.899
457.935
457.971
458.006
458.042
458.077
458.113
458.15
458.187
458.224
458.263
458.302
458.342
458.383
458.425
458.467
458.509
458.552
458.595
458.638
458.682
458.725
458.768
458.81
458.853
458.896
458.938
458.981
459.023
459.065
459.107
459.148
459.19
459.23
459.271
459.311
459.351
459.391
459.43
459.469
459.507
459.545
459.583
459.619
459.656
459.692
459.728
459.763
459.798
459.833
459.867
459.902
459.936
459.97
460.005
460.041
460.076
460.113
460.15
460.189
460.228
460.267
460.308
460.349
460.39
460.432
460.474
460.516
460.558
460.6
460.642
460.684
460.726
460.768
460.809
460.851
460.892
460.933
460.974
461.015
461.055
461.095
461.135
461.175
461.214
461.253
461.291
461.329
461.367
461.404
461.44
461.476
461.512
461.547
461.582
461.617
461.651
461.685
461.718
461.751
461.785
461.818
461.851
461.885
461.919
461.954
461.99
462.026
462.063
462.101
462.14
462.179
462.219
462.259
462.3
462.341
462.382
462.423
462.464
462.505
462.546
462.587
462.628
462.669
462.709
462.75
462.79
462.83
462.87
462.909
462.949
462.988
463.026
463.065
463.103
463.14
463.177
463.214
463.25
463.286
463.322
463.356
463.391
463.425
463.458
463.492
463.525
463.557
463.589
463.622
463.654
463.686
463.718
463.751
463.784
463.818
463.852
463.887
463.923
463.96
463.997
464.035
464.074
464.113
464.152
464.192
464.232
464.272
464.313
464.353
464.393
464.433
464.473
464.513
464.552
464.592
464.631
464.67
464.709
464.748
464.787
464.825
464.863
464.9
464.938
464.974
465.011
465.047
465.082
465.117
465.152
465.186
465.22
465.253
465.286
465.318
465.35
465.382
465.413
465.444
465.475
465.506
465.537
465.569
465.6
465.632
465.665
465.698
465.732
465.767
465.802
465.839
465.875
465.913
465.951
465.989
466.027
466.066
466.105
466.145
466.184
466.223
466.262
466.301
466.34
466.378
466.417
466.456
466.494
466.532
466.57
466.607
466.645
466.682
466.719
466.755
466.791
466.827
466.862
466.897
466.931
466.965
466.998
467.031
467.064
467.096
467.127
467.158
467.189
467.22
467.25
467.28
467.31
467.339
467.369
467.399
467.43
467.46
467.492
467.524
467.557
467.59
467.624
467.659
467.695
467.731
467.767
467.804
467.842
467.879
467.917
467.955
467.994
468.032
468.07
468.108
468.146
468.184
468.222
468.259
468.297
468.334
468.371
468.408
468.445
468.481
468.517
468.553
468.588
468.623
468.658
468.692
468.725
468.759
468.791
468.824
468.855
468.887
468.918
468.948
468.978
469.008
469.037
469.066
469.095
469.124
469.152
469.181
469.21
469.239
469.268
469.298
469.329
469.36
469.392
469.425
469.458
469.492
469.527
469.562
469.597
469.633
469.67
469.706
469.743
469.78
469.818
469.855
469.892
469.929
469.966
470.003
470.039
470.076
470.112
470.149
470.185
470.22
470.256
470.291
470.326
470.361
470.395
470.429
470.462
470.495
470.528
470.56
470.592
470.623
470.654
470.684
470.714
470.743
470.772
470.801
470.829
470.857
470.885
470.912
470.94
470.967
470.995
471.023
471.051
471.08
471.109
471.139
471.17
471.201
471.233
471.265
471.299
471.332
471.366
471.401
471.436
471.471
471.507
471.543
471.579
471.615
471.651
471.687
471.723
471.759
471.795
471.83
471.866
471.901
471.937
471.972
472.006
472.041
472.075
472.109
472.143
472.176
472.209
472.242
472.274
472.305
472.337
472.367
472.397
472.427
472.456
472.485
472.514
472.542
472.569
472.596
472.623
472.65
472.676
472.702
472.729
472.755
472.781
472.808
472.835
472.863
472.891
472.92
472.949
472.979
473.009
473.041
473.072
473.104
473.137
473.17
473.204
473.238
473.273
473.307
473.342
473.377
473.412
473.447
473.483
473.518
473.553
473.587
473.622
473.657
473.691
473.725
473.759
473.793
473.827
473.86
473.893
473.926
473.958
473.99
474.022
474.053
474.083
474.113
474.143
474.172
474.201
474.229
474.257
474.284
474.311
474.338
474.364
474.39
474.415
474.44
474.465
474.49
474.515
474.54
474.565
474.591
474.617
474.644
474.671
474.698
474.726
474.755
474.784
474.814
474.844
474.875
474.907
474.939
474.971
475.004
475.037
475.07
475.104
475.138
475.172
475.206
475.24
475.274
475.308
475.342
475.376
475.409
475.443
475.476
475.509
475.542
475.575
475.607
475.64
475.671
475.703
475.734
475.765
475.795
475.825
475.854
475.883
475.912
475.94
475.967
475.994
476.021
476.047
476.073
476.098
476.123
476.147
476.172
476.196
476.22
476.243
476.267
476.291
476.315
476.339
476.364
476.389
476.415
476.441
476.467
476.495
476.522
476.551
476.58
476.609
476.639
476.669
476.7
476.731
476.763
476.795
476.827
476.86
476.893
476.926
476.959
476.991
477.024
477.057
477.09
477.123
477.155
477.188
477.22
477.252
477.284
477.316
477.347
477.378
477.409
477.44
477.47
477.499
477.529
477.558
477.586
477.614
477.642
477.669
477.695
477.721
477.747
477.772
477.797
477.821
477.845
477.868
477.891
477.914
477.937
477.96
477.982
478.005
478.027
478.05
478.073
478.097
478.121
478.145
478.17
478.195
478.221
478.247
478.274
478.302
478.33
478.358
478.387
478.416
478.446
478.476
478.507
478.538
478.569
478.601
478.632
478.664
478.696
478.728
478.76
478.792
478.823
478.855
478.887
478.918
478.949
478.98
479.011
479.042
479.072
479.102
479.132
479.162
479.191
479.219
479.248
479.275
479.303
479.33
479.356
479.382
479.408
479.433
479.457
479.481
479.505
479.528
479.551
479.573
479.595
479.617
479.638
479.66
479.681
479.702
479.724
479.745
479.767
479.788
479.811
479.833
479.857
479.88
479.904
479.929
479.954
479.979
480.005
480.032
480.059
480.086
480.114
480.143
480.171
480.201
480.23
480.26
480.29
480.321
480.351
480.382
480.413
480.443
480.474
480.505
480.535
480.566
480.596
480.627
480.657
480.687
480.716
480.746
480.775
480.804
480.833
480.861
480.889
480.917
480.944
480.971
480.997
481.023
481.048
481.073
481.097
481.121
481.145
481.168
481.19
481.212
481.234
481.256
481.277
481.297
481.318
481.338
481.358
481.378
481.398
481.418
481.438
481.459
481.48
481.501
481.522
481.544
481.567
481.589
481.613
481.636
481.66
481.685
481.71
481.735
481.761
481.788
481.814
481.841
481.869
481.897
481.925
481.954
481.983
482.012
482.041
482.07
482.1
482.129
482.159
482.188
482.218
482.247
482.276
482.306
482.335
482.363
482.392
482.42
482.449
482.477
482.504
482.532
482.559
482.585
482.612
482.638
482.663
482.688
482.713
482.737
482.761
482.784
482.807
482.829
482.851
482.873
482.894
482.914
482.934
482.954
482.974
482.993
483.012
483.031
483.05
483.069
483.088
483.106
483.125
483.145
483.164
483.184
483.204
483.225
483.246
483.267
483.288
483.31
483.333
483.356
483.379
483.402
483.426
483.451
483.476
483.501
483.526
483.552
483.579
483.606
483.633
483.66
483.688
483.716
483.744
483.772
483.801
483.829
483.858
483.886
483.915
483.943
483.971
483.999
484.027
484.055
484.083
484.111
484.138
484.165
484.192
484.218
484.244
484.27
484.296
484.321
484.345
484.369
484.393
484.416
484.439
484.461
484.483
484.504
484.525
484.545
484.565
484.584
484.603
484.621
484.639
484.657
484.675
484.692
484.709
484.726
484.743
484.76
484.777
484.794
484.812
484.83
484.848
484.866
484.885
484.904
484.924
484.943
484.964
484.985
485.006
485.027
485.05
485.072
485.095
485.119
485.143
485.168
485.193
485.218
485.244
485.271
485.298
485.325
485.353
485.381
485.408
485.437
485.465
485.493
485.521
485.548
485.576
485.604
485.631
485.658
485.685
485.711
485.737
485.763
485.788
485.813
485.838
485.862
485.885
485.908
485.93
485.952
485.973
485.994
486.014
486.033
486.052
486.071
486.089
486.106
486.123
486.14
486.157
486.173
486.189
486.205
486.221
486.237
486.253
486.269
486.286
486.303
486.32
486.338
486.356
486.375
486.394
486.413
486.433
486.454
486.475
486.497
486.519
486.542
486.565
486.589
486.613
486.638
486.663
486.689
486.715
486.741
486.767
486.793
486.819
486.845
486.871
486.896
486.922
486.947
486.972
486.997
487.021
487.045
487.069
487.092
487.115
487.137
487.159
487.181
487.202
487.222
487.242
487.262
487.281
487.299
487.317
487.335
487.352
487.369
487.386
487.403
487.419
487.435
487.451
487.467
487.483
487.499
487.515
487.531
487.548
487.565
487.582
487.6
487.618
487.637
487.656
487.675
487.695
487.716
487.737
487.758
487.78
487.803
487.826
487.849
487.873
487.897
487.921
487.946
487.97
487.995
488.02
488.044
488.069
488.093
488.118
488.142
488.166
488.19
488.213
488.237
488.26
488.282
488.305
488.327
488.348
488.369
488.39
488.41
488.43
488.45
488.469
488.487
488.505
488.523
488.54
488.557