/*--------------------------------*- C++ -*----------------------------------*\
  =========                 |
  \\      /  F ield         | OpenFOAM: The Open Source CFD Toolbox
   \\    /   O peration     | Website:  https://openfoam.org
    \\  /    A nd           | Version:  9
     \\/     M anipulation  |
\*---------------------------------------------------------------------------*/
FoamFile
{
    format      ascii;
    class       volScalarField;
    location    "0.008";
    object      p;
}
// * * * * * * * * * * * * * * * * * * * * * * * * * * * * * * * * * * * * * //

dimensions      [1 -1 -2 0 0 0 0];

internalField   nonuniform List<scalar> 
100
(
100000
100000
100000
100000
99999.9
99999.8
99999.4
99998.4
99995.8
99989.5
99974.9
99941.9
99871.4
99728.3
99453.7
98959.4
98135.7
96912.2
95321.3
93396.8
91190.1
88773.4
86219.1
83588.7
80928.8
78272.7
75643.1
73055.8
70521.2
68046.5
65636.9
63295.3
61025
58825.4
56703.3
54646.4
52679.8
50768.8
48952.7
47201.7
45525.3
43933.4
42417.6
40980.1
39623.4
38349
37161.7
36066
35058
34145
33318.2
32617
32012.3
31499.3
31099.6
30794.7
30542.1
30436.1
30342.9
30296.1
30287.5
30266
30263.7
30263.7
30264.5
30265.4
30265.1
30265.6
30268.5
30280.4
30279.5
30267
30253.5
30241
30250.4
30260
30250.2
30245.1
30249.2
30243.1
30229.2
30225.1
30227
30201.8
30177.9
30182.9
30157.3
30091.1
30074.7
30060.2
29916.7
29640.3
29099.3
27936.3
24708.1
14060.8
10811.9
10127.9
10018.9
10002.4
)
;

boundaryField
{
    sides
    {
        type            zeroGradient;
    }
    empty
    {
        type            empty;
    }
}


// ************************************************************************* //
