/*--------------------------------*- C++ -*----------------------------------*\
  =========                 |
  \\      /  F ield         | OpenFOAM: The Open Source CFD Toolbox
   \\    /   O peration     | Website:  https://openfoam.org
    \\  /    A nd           | Version:  9
     \\/     M anipulation  |
\*---------------------------------------------------------------------------*/
FoamFile
{
    format      ascii;
    class       volScalarField;
    location    "0.008";
    object      T;
}
// * * * * * * * * * * * * * * * * * * * * * * * * * * * * * * * * * * * * * //

dimensions      [0 0 0 1 0 0 0];

internalField   nonuniform List<scalar> 
100
(
348.432
348.432
348.432
348.432
348.432
348.432
348.431
348.43
348.428
348.422
348.407
348.374
348.304
348.161
347.886
347.391
346.562
345.322
343.693
341.697
339.373
336.781
333.986
331.047
328.006
324.899
321.748
318.571
315.381
312.187
308.997
305.814
302.66
299.476
296.485
293.062
290.701
286.631
284.691
281.499
277.862
275.994
273.537
269.855
267.242
265.886
263.767
260.549
257.964
256.88
256.18
254.671
252.353
250.781
250.456
250.588
250.593
250.392
249.874
249.715
249.792
250.137
250.711
251.026
251.148
251.19
251.229
251.34
251.777
253.464
259.309
278.178
311.001
340.388
363.365
379.587
390.087
396.278
399.378
400.43
400.499
400.15
398.724
397.202
396.493
396.397
396.431
396.44
396.691
396.895
396.588
395.287
392.518
386.795
373.605
312.093
285.393
279.772
278.897
278.765
)
;

boundaryField
{
    sides
    {
        type            zeroGradient;
    }
    empty
    {
        type            empty;
    }
}


// ************************************************************************* //
