/*--------------------------------*- C++ -*----------------------------------*\
  =========                 |
  \\      /  F ield         | OpenFOAM: The Open Source CFD Toolbox
   \\    /   O peration     | Website:  https://openfoam.org
    \\  /    A nd           | Version:  9
     \\/     M anipulation  |
\*---------------------------------------------------------------------------*/
FoamFile
{
    format      ascii;
    class       volScalarField;
    location    "0.034";
    object      ddt0(rho,K);
}
// * * * * * * * * * * * * * * * * * * * * * * * * * * * * * * * * * * * * * //

dimensions      [1 -1 -3 0 0 0 0];

internalField   nonuniform List<scalar> 
100
(
-1641.81
-5527.29
-9651.57
-12553
-16315.3
-20560.4
-25129
-30046.8
-35128.4
-40817.2
-47088
-53298.9
-59667
-66964.9
-73950.1
-80985.6
-89264.9
-98064.8
-106109
-114042
-123286
-133768
-144011
-153253
-162925
-174124
-186066
-198567
-210428
-220537
-232306
-245069
-257754
-269434
-282260
-293882
-304233
-314072
-328808
-348841
-370395
-383641
-378994
-365745
-464737
-491223
-473442
-462323
-452981
-439899
-412809
-346914
-159054
-758200
-1.04069e+06
-650436
-616166
-618044
-615792
-609628
-599626
-585528
-568359
-541502
-487270
-339146
-52006.4
-1.57496e+06
-1.26059e+06
-785829
-753548
-771650
-791306
-806505
-817559
-831353
-848794
-866182
-879569
-884444
-876097
-841909
-744445
-443112
-304497
-2.95099e+06
-1.54673e+06
-1.21076e+06
-1.19277e+06
-1.20683e+06
-1.2199e+06
-1.24213e+06
-1.25655e+06
-1.27312e+06
-1.2893e+06
-1.30727e+06
-1.32952e+06
-1.34975e+06
-1.36085e+06
-1.36119e+06
)
;

boundaryField
{
    sides
    {
        type            calculated;
        value           nonuniform List<scalar> 2(-1.36119e+06 -1641.81);
    }
    empty
    {
        type            empty;
    }
}


// ************************************************************************* //
