/*--------------------------------*- C++ -*----------------------------------*\
  =========                 |
  \\      /  F ield         | OpenFOAM: The Open Source CFD Toolbox
   \\    /   O peration     | Website:  https://openfoam.org
    \\  /    A nd           | Version:  9
     \\/     M anipulation  |
\*---------------------------------------------------------------------------*/
FoamFile
{
    format      ascii;
    class       volVectorField;
    location    "0.034";
    object      ddt0(rho,U);
}
// * * * * * * * * * * * * * * * * * * * * * * * * * * * * * * * * * * * * * //

dimensions      [1 -2 -2 0 0 0 0];

internalField   nonuniform List<vector> 
100
(
(-263.115 0 0)
(-353.542 0 0)
(-439.984 0 0)
(-495.696 0 0)
(-560.152 0 0)
(-626.592 0 0)
(-692.33 0 0)
(-759.141 0 0)
(-823.309 0 0)
(-890.924 0 0)
(-962.893 0 0)
(-1031.64 0 0)
(-1093.93 0 0)
(-1166.6 0 0)
(-1232.08 0 0)
(-1289.95 0 0)
(-1357.68 0 0)
(-1432.26 0 0)
(-1495.59 0 0)
(-1548.52 0 0)
(-1609.36 0 0)
(-1684.34 0 0)
(-1758.43 0 0)
(-1816.09 0 0)
(-1868.29 0 0)
(-1928.58 0 0)
(-1997.84 0 0)
(-2077 0 0)
(-2147.89 0 0)
(-2190.24 0 0)
(-2244.03 0 0)
(-2302.55 0 0)
(-2366.39 0 0)
(-2421.82 0 0)
(-2492.64 0 0)
(-2547.29 0 0)
(-2582.33 0 0)
(-2609.53 0 0)
(-2684.39 0 0)
(-2799.14 0 0)
(-2896.95 0 0)
(-2918.47 0 0)
(-2824.51 0 0)
(-2647.48 0 0)
(-3455.42 0 0)
(-3479.69 0 0)
(-3309.07 0 0)
(-3190.39 0 0)
(-3079.3 0 0)
(-2931.14 0 0)
(-2673.18 0 0)
(-2128.46 0 0)
(-409.832 0 0)
(-5497.63 0 0)
(-7551.3 0 0)
(-4115.56 0 0)
(-3872.71 0 0)
(-3846.76 0 0)
(-3796.83 0 0)
(-3726.2 0 0)
(-3621.7 0 0)
(-3479.34 0 0)
(-3313.28 0 0)
(-3079.82 0 0)
(-2659.25 0 0)
(-1580.16 0 0)
(988.209 0 0)
(-11301.9 0 0)
(-7684.6 0 0)
(-4447.64 0 0)
(-4268.58 0 0)
(-4360.64 0 0)
(-4455.47 0 0)
(-4510.72 0 0)
(-4528.7 0 0)
(-4562.04 0 0)
(-4624.53 0 0)
(-4693.42 0 0)
(-4736.26 0 0)
(-4721.56 0 0)
(-4604.57 0 0)
(-4316.23 0 0)
(-3625.83 0 0)
(-1619.2 0 0)
(337.892 0 0)
(-19466.7 0 0)
(-8001.34 0 0)
(-6274.21 0 0)
(-6170.71 0 0)
(-6214.83 0 0)
(-6233.76 0 0)
(-6328.33 0 0)
(-6370.04 0 0)
(-6424.49 0 0)
(-6458.44 0 0)
(-6497.6 0 0)
(-6543.38 0 0)
(-6565.55 0 0)
(-6539.3 0 0)
(-6492.2 0 0)
)
;

boundaryField
{
    sides
    {
        type            calculated;
        value           nonuniform List<vector> 2((-6492.2 0 0) (-263.115 0 0));
    }
    empty
    {
        type            empty;
    }
}


// ************************************************************************* //
