/*--------------------------------*- C++ -*----------------------------------*\
  =========                 |
  \\      /  F ield         | OpenFOAM: The Open Source CFD Toolbox
   \\    /   O peration     | Website:  https://openfoam.org
    \\  /    A nd           | Version:  9
     \\/     M anipulation  |
\*---------------------------------------------------------------------------*/
FoamFile
{
    format      ascii;
    class       volScalarField;
    location    "0.034";
    object      p;
}
// * * * * * * * * * * * * * * * * * * * * * * * * * * * * * * * * * * * * * //

dimensions      [1 -1 -2 0 0 0 0];

internalField   nonuniform List<scalar> 
100
(
20527.4
20489
20401.6
20327.8
20267.5
20207.5
20147.7
20088.9
20030.7
19973.9
19918.4
19863.5
19810.1
19758.1
19706.3
19656.1
19608.2
19561.3
19514.8
19470.2
19428.1
19387.5
19348.2
19310.6
19275.8
19244.3
19216
19189.8
19167.1
19147.9
19133
19121.6
19114.8
19110.4
19110.4
19110.6
19111.8
19113.7
19116.9
19124.7
19141.1
19169.9
19205.9
19244.1
19287.6
19381.5
19458.5
19531.6
19601.6
19667.3
19726.1
19773.5
19800.1
19790.6
20005.8
20141
20242.9
20347
20453.2
20560.2
20667.3
20774.1
20881.9
20987.7
21089.1
21179.2
21233.3
21279.4
21647.6
21818.9
21963.2
22109.4
22258.4
22410.2
22564.6
22721.4
22880.5
23041.4
23204
23367.4
23530.8
23693.8
23847.4
23981.5
24048.5
24270.1
24687.9
24892.4
25084.8
25277
25467
25658.2
25841.9
26027.7
26204.9
26389.5
26575.4
26786.4
27022
27314.6
)
;

boundaryField
{
    sides
    {
        type            zeroGradient;
    }
    empty
    {
        type            empty;
    }
}


// ************************************************************************* //
