/*--------------------------------*- C++ -*----------------------------------*\
  =========                 |
  \\      /  F ield         | OpenFOAM: The Open Source CFD Toolbox
   \\    /   O peration     | Website:  https://openfoam.org
    \\  /    A nd           | Version:  9
     \\/     M anipulation  |
\*---------------------------------------------------------------------------*/
FoamFile
{
    format      ascii;
    class       volVectorField;
    location    "0.034";
    object      U;
}
// * * * * * * * * * * * * * * * * * * * * * * * * * * * * * * * * * * * * * //

dimensions      [0 1 -1 0 0 0 0];

internalField   nonuniform List<vector> 
100
(
(46.4944 0 0)
(49.6044 0 0)
(53.8627 0 0)
(57.2713 0 0)
(60.3437 0 0)
(63.4602 0 0)
(66.601 0 0)
(69.7529 0 0)
(72.8971 0 0)
(76.0396 0 0)
(79.1997 0 0)
(82.3471 0 0)
(85.4785 0 0)
(88.6274 0 0)
(91.7653 0 0)
(94.867 0 0)
(97.9753 0 0)
(101.107 0 0)
(104.218 0 0)
(107.287 0 0)
(110.355 0 0)
(113.444 0 0)
(116.525 0 0)
(119.561 0 0)
(122.559 0 0)
(125.546 0 0)
(128.532 0 0)
(131.498 0 0)
(134.415 0 0)
(137.271 0 0)
(140.095 0 0)
(142.899 0 0)
(145.673 0 0)
(148.403 0 0)
(151.105 0 0)
(153.814 0 0)
(156.525 0 0)
(159.23 0 0)
(161.914 0 0)
(164.551 0 0)
(167.128 0 0)
(169.613 0 0)
(171.938 0 0)
(174.079 0 0)
(176.161 0 0)
(178.313 0 0)
(180.462 0 0)
(182.53 0 0)
(184.556 0 0)
(186.583 0 0)
(188.617 0 0)
(190.629 0 0)
(192.538 0 0)
(194.442 0 0)
(196.557 0 0)
(198.693 0 0)
(200.654 0 0)
(202.53 0 0)
(204.323 0 0)
(206.029 0 0)
(207.661 0 0)
(209.219 0 0)
(210.719 0 0)
(212.177 0 0)
(213.583 0 0)
(214.915 0 0)
(216.125 0 0)
(217.473 0 0)
(219.133 0 0)
(220.74 0 0)
(222.171 0 0)
(223.581 0 0)
(224.988 0 0)
(226.391 0 0)
(227.792 0 0)
(229.202 0 0)
(230.629 0 0)
(232.063 0 0)
(233.502 0 0)
(234.936 0 0)
(236.363 0 0)
(237.793 0 0)
(239.217 0 0)
(240.588 0 0)
(241.903 0 0)
(243.559 0 0)
(245.481 0 0)
(247.224 0 0)
(248.853 0 0)
(250.477 0 0)
(252.111 0 0)
(253.777 0 0)
(255.459 0 0)
(257.164 0 0)
(258.882 0 0)
(260.571 0 0)
(262.172 0 0)
(263.587 0 0)
(264.657 0 0)
(266.819 0 0)
)
;

boundaryField
{
    sides
    {
        type            zeroGradient;
    }
    empty
    {
        type            empty;
    }
}


// ************************************************************************* //
