/*--------------------------------*- C++ -*----------------------------------*\
  =========                 |
  \\      /  F ield         | OpenFOAM: The Open Source CFD Toolbox
   \\    /   O peration     | Website:  https://openfoam.org
    \\  /    A nd           | Version:  9
     \\/     M anipulation  |
\*---------------------------------------------------------------------------*/
FoamFile
{
    format      ascii;
    class       volScalarField;
    location    "0.043";
    object      ddt0(rho,K);
}
// * * * * * * * * * * * * * * * * * * * * * * * * * * * * * * * * * * * * * //

dimensions      [1 -1 -3 0 0 0 0];

internalField   nonuniform List<scalar> 
100
(
-2659.86
-4448.65
-6768.79
-8620.42
-10544.7
-12722.1
-15120.2
-17571
-20048.4
-22721
-25585.2
-28493.2
-31492.8
-34651.7
-37975.4
-41375.7
-44772.3
-48394.8
-52135
-55833.6
-59646.4
-63526.6
-67366.6
-71567.4
-75279.3
-78640.6
-82330.9
-86121.2
-90450.2
-96383.5
-101805
-110663
-124320
-126288
-125083
-129588
-133691
-137941
-141916
-144522
-148514
-152064
-155510
-161979
-170155
-176384
-180104
-183334
-187607
-193245
-199859
-206728
-213147
-218790
-223837
-228641
-233451
-238454
-243821
-249617
-255661
-261575
-266964
-271736
-276268
-281216
-287075
-294039
-302076
-310820
-319562
-327927
-335302
-341140
-345176
-347758
-349655
-352262
-356863
-363823
-372159
-380821
-388494
-394960
-400914
-407056
-412807
-417790
-421505
-423667
-425088
-425794
-427209
-433310
-442681
-455228
-472219
-498614
-514722
-529896
)
;

boundaryField
{
    sides
    {
        type            calculated;
        value           nonuniform List<scalar> 2(-529896 -2659.86);
    }
    empty
    {
        type            empty;
    }
}


// ************************************************************************* //
