/*--------------------------------*- C++ -*----------------------------------*\
  =========                 |
  \\      /  F ield         | OpenFOAM: The Open Source CFD Toolbox
   \\    /   O peration     | Website:  https://openfoam.org
    \\  /    A nd           | Version:  9
     \\/     M anipulation  |
\*---------------------------------------------------------------------------*/
FoamFile
{
    format      ascii;
    class       surfaceScalarField;
    location    "0.043";
    object      ddtCorrDdt0(phi);
}
// * * * * * * * * * * * * * * * * * * * * * * * * * * * * * * * * * * * * * //

dimensions      [1 0 -2 0 0 0 0];

internalField   nonuniform List<scalar> 
99
(
-903.957
-1037.47
-1169.91
-1303.5
-1436.01
-1569.1
-1705.6
-1840.95
-1971.98
-2103.65
-2235.5
-2363.66
-2491.82
-2619.32
-2748.99
-2871.78
-2999.3
-3130.67
-3255.47
-3369.87
-3534.73
-3636
-3760.46
-3875.5
-3992.93
-4126.52
-4264.17
-4289.19
-4109.78
-5462.86
-4221.08
-6569.75
-5331.58
-5151.1
-5210.49
-5361.59
-5435.68
-5582.57
-5632.5
-5709.75
-5810.23
-5843.78
-5934.13
-6136.7
-6332.77
-6435.16
-6477.17
-6524.46
-6608.79
-6735.32
-6891.34
-7051.57
-7192.19
-7304.16
-7394.66
-7475.82
-7559.55
-7659.67
-7785.45
-7931.07
-8075.51
-8197.31
-8287.43
-8358.93
-8440.54
-8556.68
-8711.82
-8894.92
-9091.08
-9280.86
-9456.92
-9624.47
-9779.12
-9901.29
-9969.16
-9979.61
-9956.56
-9957.95
-10039.8
-10213.6
-10442.1
-10662.5
-10819.1
-10906.5
-10974
-11060.4
-11171.3
-11292.7
-11381.1
-11430
-11415.3
-11362.3
-11361.4
-11476
-11697.6
-11888.2
-12270.7
-12663
-12732.5
)
;

boundaryField
{
    sides
    {
        type            calculated;
        value           nonuniform List<scalar> 2(-12841.1 770.216);
    }
    empty
    {
        type            empty;
        value           nonuniform List<scalar> 0();
    }
}


// ************************************************************************* //
