/*--------------------------------*- C++ -*----------------------------------*\
  =========                 |
  \\      /  F ield         | OpenFOAM: The Open Source CFD Toolbox
   \\    /   O peration     | Website:  https://openfoam.org
    \\  /    A nd           | Version:  9
     \\/     M anipulation  |
\*---------------------------------------------------------------------------*/
FoamFile
{
    format      ascii;
    class       volVectorField;
    location    "0.043";
    object      ddtCorrDdt0(rho,U);
}
// * * * * * * * * * * * * * * * * * * * * * * * * * * * * * * * * * * * * * //

dimensions      [1 -2 -2 0 0 0 0];

internalField   nonuniform List<vector> 
100
(
(-192.594 0 0)
(-229.617 0 0)
(-273.835 0 0)
(-306.512 0 0)
(-338.052 0 0)
(-371.221 0 0)
(-406.104 0 0)
(-440.136 0 0)
(-472.108 0 0)
(-504.474 0 0)
(-537.976 0 0)
(-570.363 0 0)
(-602.118 0 0)
(-634.164 0 0)
(-666.498 0 0)
(-699.301 0 0)
(-730.809 0 0)
(-763.466 0 0)
(-796.243 0 0)
(-828.545 0 0)
(-860.714 0 0)
(-893.31 0 0)
(-921.343 0 0)
(-951.698 0 0)
(-978.971 0 0)
(-1003.58 0 0)
(-1030.54 0 0)
(-1053.87 0 0)
(-1080.71 0 0)
(-1117.86 0 0)
(-1149.17 0 0)
(-1210.94 0 0)
(-1327.96 0 0)
(-1319.58 0 0)
(-1292.06 0 0)
(-1326.89 0 0)
(-1352 0 0)
(-1380.79 0 0)
(-1406.56 0 0)
(-1417.65 0 0)
(-1441.2 0 0)
(-1456.93 0 0)
(-1468.85 0 0)
(-1507.63 0 0)
(-1562.16 0 0)
(-1599.62 0 0)
(-1614.36 0 0)
(-1623.35 0 0)
(-1639.8 0 0)
(-1667.67 0 0)
(-1704.93 0 0)
(-1745.72 0 0)
(-1783.32 0 0)
(-1813.67 0 0)
(-1837.71 0 0)
(-1858.68 0 0)
(-1879.54 0 0)
(-1903.32 0 0)
(-1932.56 0 0)
(-1966.94 0 0)
(-2002.69 0 0)
(-2035 0 0)
(-2060.71 0 0)
(-2080.72 0 0)
(-2100.31 0 0)
(-2125.96 0 0)
(-2160.39 0 0)
(-2202.11 0 0)
(-2248.66 0 0)
(-2297.1 0 0)
(-2342.97 0 0)
(-2387.65 0 0)
(-2429.64 0 0)
(-2464.3 0 0)
(-2485.51 0 0)
(-2492.07 0 0)
(-2487.33 0 0)
(-2483.91 0 0)
(-2496.8 0 0)
(-2533.98 0 0)
(-2586.65 0 0)
(-2643.38 0 0)
(-2687.18 0 0)
(-2713.31 0 0)
(-2730.12 0 0)
(-2752.17 0 0)
(-2779.68 0 0)
(-2811.52 0 0)
(-2839.8 0 0)
(-2853.91 0 0)
(-2856.5 0 0)
(-2845.34 0 0)
(-2833 0 0)
(-2862.28 0 0)
(-2904.31 0 0)
(-2953.97 0 0)
(-3013.19 0 0)
(-3130.23 0 0)
(-3163.01 0 0)
(-3210.32 0 0)
)
;

boundaryField
{
    sides
    {
        type            calculated;
        value           nonuniform List<vector> 2((-3210.32 0 0) (-192.594 0 0));
    }
    empty
    {
        type            empty;
    }
}


// ************************************************************************* //
