/*--------------------------------*- C++ -*----------------------------------*\
  =========                 |
  \\      /  F ield         | OpenFOAM: The Open Source CFD Toolbox
   \\    /   O peration     | Website:  https://openfoam.org
    \\  /    A nd           | Version:  9
     \\/     M anipulation  |
\*---------------------------------------------------------------------------*/
FoamFile
{
    format      ascii;
    class       volScalarField;
    location    "0.043";
    object      p;
}
// * * * * * * * * * * * * * * * * * * * * * * * * * * * * * * * * * * * * * //

dimensions      [1 -1 -2 0 0 0 0];

internalField   nonuniform List<scalar> 
100
(
14838.5
14821
14776.4
14727.3
14692.9
14662.1
14631.6
14601.8
14573.4
14546.7
14521.6
14498
14476
14455.8
14437.4
14420.9
14406
14392.9
14381.7
14372.2
14364
14358.2
14354
14351.8
14351.6
14351.7
14352
14353
14355.3
14359.8
14370.5
14385
14415.7
14454.7
14491.1
14528.1
14565.1
14601.4
14638.1
14673.7
14709.6
14746.5
14783.9
14823.7
14867.1
14913.7
14962.4
15013.1
15066.3
15122.6
15182.3
15245.3
15311.5
15380.6
15452.5
15526.9
15603.8
15682.8
15763.8
15846.5
15931.1
16017.6
16106
16195.9
16286.8
16378.5
16471.1
16565
16660.8
16758.9
16859.3
16961.8
17065.5
17169.6
17273.6
17377.4
17480.9
17584.4
17687.9
17791.4
17894.6
17998.2
18101.7
18206.1
18310.7
18415.5
18518.2
18617.8
18711.2
18797.4
18875.2
18945.5
19008.5
19065.4
19115.3
19166.1
19219.8
19289.3
19378.7
19497
)
;

boundaryField
{
    sides
    {
        type            zeroGradient;
    }
    empty
    {
        type            empty;
    }
}


// ************************************************************************* //
