/*--------------------------------*- C++ -*----------------------------------*\
  =========                 |
  \\      /  F ield         | OpenFOAM: The Open Source CFD Toolbox
   \\    /   O peration     | Website:  https://openfoam.org
    \\  /    A nd           | Version:  9
     \\/     M anipulation  |
\*---------------------------------------------------------------------------*/
FoamFile
{
    format      ascii;
    class       volScalarField;
    location    "0.043";
    object      p_0;
}
// * * * * * * * * * * * * * * * * * * * * * * * * * * * * * * * * * * * * * //

dimensions      [1 -1 -2 0 0 0 0];

internalField   nonuniform List<scalar> 
100
(
14843
14825.5
14780.9
14731.7
14697.3
14666.5
14635.9
14606.2
14577.7
14551
14525.8
14502.1
14480.2
14459.9
14441.5
14425
14410
14396.9
14385.7
14376.1
14368
14362.2
14357.8
14355.7
14355.5
14355.6
14355.9
14356.8
14359.1
14363.6
14374.2
14388.5
14419.3
14458.1
14494.4
14531.5
14568.6
14605
14641.7
14677.3
14713.2
14750.1
14787.5
14827.3
14870.8
14917.3
14966
15016.6
15069.9
15126.2
15185.8
15248.9
15315.1
15384.2
15456.1
15530.6
15607.4
15686.5
15767.4
15850.2
15934.8
16021.4
16109.8
16199.7
16290.7
16382.4
16475.1
16569
16664.9
16763.1
16863.6
16966.2
17069.9
17174
17278
17381.8
17485.4
17589
17692.5
17796.1
17899.4
18003
18106.5
18211
18315.7
18420.6
18523.4
18623.2
18716.6
18803
18880.9
18951.3
19014.4
19071.3
19121.2
19172
19225.7
19294.9
19384.1
19502.4
)
;

boundaryField
{
    sides
    {
        type            zeroGradient;
    }
    empty
    {
        type            empty;
    }
}


// ************************************************************************* //
