/*--------------------------------*- C++ -*----------------------------------*\
  =========                 |
  \\      /  F ield         | OpenFOAM: The Open Source CFD Toolbox
   \\    /   O peration     | Website:  https://openfoam.org
    \\  /    A nd           | Version:  9
     \\/     M anipulation  |
\*---------------------------------------------------------------------------*/
FoamFile
{
    format      ascii;
    class       surfaceScalarField;
    location    "0.043";
    object      phi;
}
// * * * * * * * * * * * * * * * * * * * * * * * * * * * * * * * * * * * * * //

dimensions      [1 0 -1 0 0 0 0];

internalField   nonuniform List<scalar> 
99
(
54.2781
56.4856
58.6732
60.8488
63.0129
65.1591
67.292
69.4166
71.5263
73.6143
75.6843
77.7368
79.77
81.7825
83.7728
85.7511
87.7189
89.675
91.6208
93.5671
95.5112
97.4602
99.3878
101.293
103.196
105.111
107.037
108.945
110.833
112.661
114.467
116.2
118.03
119.75
121.414
123.124
124.844
126.593
128.371
130.152
131.951
133.74
135.503
137.265
139.052
140.851
142.639
144.401
146.138
147.861
149.587
151.327
153.083
154.847
156.606
158.355
160.092
161.827
163.578
165.358
167.167
168.993
170.822
172.645
174.468
176.311
178.19
180.107
182.057
184.03
186.018
188.027
190.077
192.177
194.314
196.46
198.579
200.659
202.723
204.822
206.993
209.248
211.555
213.869
216.16
218.45
220.775
223.175
225.665
228.222
230.815
233.405
235.972
238.588
241.241
243.899
246.511
249.123
251.604
)
;

boundaryField
{
    sides
    {
        type            calculated;
        value           nonuniform List<scalar> 2(254.059 -52.0651);
    }
    empty
    {
        type            empty;
        value           nonuniform List<scalar> 0();
    }
}


// ************************************************************************* //
