/*--------------------------------*- C++ -*----------------------------------*\
  =========                 |
  \\      /  F ield         | OpenFOAM: The Open Source CFD Toolbox
   \\    /   O peration     | Website:  https://openfoam.org
    \\  /    A nd           | Version:  9
     \\/     M anipulation  |
\*---------------------------------------------------------------------------*/
FoamFile
{
    format      ascii;
    class       surfaceScalarField;
    location    "0.049";
    object      phi;
}
// * * * * * * * * * * * * * * * * * * * * * * * * * * * * * * * * * * * * * //

dimensions      [1 0 -1 0 0 0 0];

internalField   nonuniform List<scalar> 
99
(
48.4965
50.045
51.5824
53.1074
54.6233
56.1337
57.6341
59.1206
60.5982
62.0726
63.54
64.9964
66.4428
67.8771
69.2996
70.7102
72.1048
73.484
74.8504
76.207
77.5611
78.9107
80.2553
81.6026
82.9199
84.1557
85.3643
86.5605
87.7541
88.944
90.1388
91.333
92.5132
93.6785
94.8301
95.9772
97.1301
98.2826
99.4293
100.574
101.709
102.833
103.963
105.108
106.261
107.417
108.578
109.742
110.899
112.058
113.237
114.437
115.638
116.84
118.048
119.268
120.487
121.724
122.973
124.248
125.525
126.813
128.103
129.403
130.725
132.071
133.443
134.837
136.245
137.637
139.031
140.449
141.896
143.364
144.836
146.287
147.713
149.129
150.553
151.992
153.439
154.879
156.296
157.67
159.048
160.458
161.924
163.445
165.015
166.618
168.234
169.851
171.511
173.22
174.99
176.807
178.661
180.54
182.444
)
;

boundaryField
{
    sides
    {
        type            calculated;
        value           nonuniform List<scalar> 2(184.343 -46.9433);
    }
    empty
    {
        type            empty;
        value           nonuniform List<scalar> 0();
    }
}


// ************************************************************************* //
