/*--------------------------------*- C++ -*----------------------------------*\
  =========                 |
  \\      /  F ield         | OpenFOAM: The Open Source CFD Toolbox
   \\    /   O peration     | Website:  https://openfoam.org
    \\  /    A nd           | Version:  9
     \\/     M anipulation  |
\*---------------------------------------------------------------------------*/
FoamFile
{
    format      ascii;
    class       volVectorField;
    location    "0.044";
    object      U;
}
// * * * * * * * * * * * * * * * * * * * * * * * * * * * * * * * * * * * * * //

dimensions      [0 1 -1 0 0 0 0];

internalField   nonuniform List<vector> 
100
(
(50.1646 0 0)
(51.9938 0 0)
(55.0141 0 0)
(57.7278 0 0)
(59.9225 0 0)
(62.0279 0 0)
(64.1809 0 0)
(66.3536 0 0)
(68.5106 0 0)
(70.6512 0 0)
(72.7838 0 0)
(74.9051 0 0)
(77.0122 0 0)
(79.1081 0 0)
(81.192 0 0)
(83.2618 0 0)
(85.3177 0 0)
(87.3591 0 0)
(89.3862 0 0)
(91.3988 0 0)
(93.3918 0 0)
(95.3643 0 0)
(97.3213 0 0)
(99.2608 0 0)
(101.18 0 0)
(103.079 0 0)
(104.971 0 0)
(106.871 0 0)
(108.771 0 0)
(110.656 0 0)
(112.495 0 0)
(114.235 0 0)
(115.831 0 0)
(117.326 0 0)
(118.78 0 0)
(120.207 0 0)
(121.62 0 0)
(123.014 0 0)
(124.384 0 0)
(125.723 0 0)
(127.026 0 0)
(128.291 0 0)
(129.527 0 0)
(130.737 0 0)
(131.917 0 0)
(133.071 0 0)
(134.202 0 0)
(135.309 0 0)
(136.394 0 0)
(137.467 0 0)
(138.53 0 0)
(139.58 0 0)
(140.619 0 0)
(141.65 0 0)
(142.675 0 0)
(143.691 0 0)
(144.701 0 0)
(145.71 0 0)
(146.717 0 0)
(147.719 0 0)
(148.715 0 0)
(149.706 0 0)
(150.692 0 0)
(151.677 0 0)
(152.661 0 0)
(153.65 0 0)
(154.638 0 0)
(155.626 0 0)
(156.611 0 0)
(157.604 0 0)
(158.608 0 0)
(159.622 0 0)
(160.647 0 0)
(161.679 0 0)
(162.718 0 0)
(163.764 0 0)
(164.82 0 0)
(165.886 0 0)
(166.966 0 0)
(168.047 0 0)
(169.121 0 0)
(170.177 0 0)
(171.22 0 0)
(172.237 0 0)
(173.216 0 0)
(174.157 0 0)
(175.051 0 0)
(175.89 0 0)
(176.673 0 0)
(177.405 0 0)
(178.114 0 0)
(178.81 0 0)
(179.514 0 0)
(180.252 0 0)
(181.046 0 0)
(181.896 0 0)
(182.813 0 0)
(183.794 0 0)
(184.824 0 0)
(186.926 0 0)
)
;

boundaryField
{
    sides
    {
        type            zeroGradient;
    }
    empty
    {
        type            empty;
    }
}


// ************************************************************************* //
