/*--------------------------------*- C++ -*----------------------------------*\
  =========                 |
  \\      /  F ield         | OpenFOAM: The Open Source CFD Toolbox
   \\    /   O peration     | Website:  https://openfoam.org
    \\  /    A nd           | Version:  9
     \\/     M anipulation  |
\*---------------------------------------------------------------------------*/
FoamFile
{
    format      ascii;
    class       volScalarField;
    location    "0.009";
    object      ddt0(p);
}
// * * * * * * * * * * * * * * * * * * * * * * * * * * * * * * * * * * * * * //

dimensions      [1 -1 -3 0 0 0 0];

internalField   nonuniform List<scalar> 
10000
(
8.39843e-05
-4.1472e-05
7.97322e-05
-2.11595e-05
-2.93331e-05
-7.65614e-05
5.65679e-05
1.98605e-05
-6.68835e-05
7.00613e-05
1.06196e-06
8.86445e-05
8.37333e-05
-8.8252e-05
3.70234e-05
-7.31919e-05
-6.03215e-05
-2.1153e-06
6.43909e-05
-8.5598e-05
-0.000106238
-0.00013582
-4.60427e-06
5.31444e-05
-5.97766e-05
-3.29877e-05
-1.09456e-06
9.44356e-05
-0.000116672
3.93978e-05
-7.22972e-05
-5.99709e-05
2.44011e-05
-0.00019923
0.000163572
-4.11218e-05
-4.38339e-05
8.07814e-05
-1.88084e-05
3.12962e-05
-0.000102838
0.000121436
-1.02648e-05
-2.51507e-05
0.000100994
-9.76241e-06
6.87972e-05
0.000137109
0.000173015
0.000240513
3.58333e-05
-6.41085e-06
-4.14918e-05
1.22803e-05
-2.32267e-05
5.1746e-05
-9.49714e-05
-2.42863e-05
-9.10736e-05
-0.000112721
-1.76328e-05
-0.000193166
-5.20134e-05
5.14966e-05
-3.8964e-05
6.52965e-05
9.05125e-06
-6.04597e-05
-6.39764e-05
-0.00013967
-0.000190168
-4.24461e-05
5.85695e-05
0.000112545
6.46937e-05
0.000120041
7.80446e-05
0.00013325
-0.000154775
-0.000138654
-0.000120519
-0.000132303
-9.56998e-05
-3.12305e-05
-5.30764e-05
5.93475e-06
1.55979e-05
-7.19927e-05
-6.54952e-05
7.35197e-05
-0.000143599
-8.08444e-05
0.000112208
-3.40683e-05
1.97919e-05
-7.23421e-05
-5.24943e-05
0.000145515
3.8287e-05
2.41313e-05
0.000197586
6.43741e-05
6.17132e-05
7.62044e-05
7.82648e-05
0.000150959
-3.19779e-05
1.05671e-05
-0.000136742
-8.82084e-05
-3.31942e-05
5.5455e-05
5.49613e-05
-7.25822e-05
0.00018153
1.91511e-05
9.2382e-05
3.27935e-05
-1.23703e-05
-0.000115338
0.000138708
1.04738e-05
1.91635e-05
0.000166024
0.000117577
-0.000100785
0.000151043
4.09556e-05
5.1678e-05
-4.3382e-05
6.65204e-05
-1.34338e-05
5.49366e-05
2.28559e-06
2.71992e-05
-6.04713e-05
6.1319e-05
9.23748e-05
0.000115938
3.31238e-05
5.6494e-05
-1.51072e-05
8.57288e-07
-2.35073e-06
-0.000106482
5.24153e-05
-1.36607e-05
0.000120531
-8.71884e-05
6.13652e-05
-1.29046e-05
6.25557e-05
-1.19738e-05
2.31289e-05
-6.06052e-05
2.04236e-05
-0.000130375
2.98723e-05
-4.79346e-05
-3.9251e-05
2.38782e-05
0.000129935
2.27625e-05
0.000106018
5.41296e-05
6.66148e-05
1.30485e-05
-7.38344e-06
-0.000117733
7.65794e-05
0.000121811
0.000105078
2.16706e-05
-0.00016573
-2.60153e-05
-6.546e-06
4.1867e-05
3.83977e-06
-0.000145065
0.000114839
0.00011346
-1.59991e-05
-1.85173e-05
3.6984e-05
-1.53418e-05
3.01884e-05
8.41482e-06
4.33628e-05
8.18919e-05
3.30236e-05
-8.83147e-05
-2.1456e-06
-6.18513e-05
-6.18012e-06
0.00010711
6.14108e-05
1.71058e-05
-4.08344e-05
2.35557e-05
3.12208e-05
7.73304e-05
-9.92781e-05
-0.000122816
4.25778e-05
-0.000114424
-2.96251e-05
-0.000118026
-0.000164217
-6.12204e-05
-7.8442e-05
-0.000138088
0.000146293
1.91137e-05
5.92108e-05
-7.42959e-05
7.52978e-05
-4.14156e-05
-2.20039e-05
-0.000134715
0.000129502
0.000191831
5.80638e-05
3.14451e-05
-2.12362e-05
-0.000118292
-9.63218e-05
5.9061e-07
3.98716e-05
-0.000104437
-1.68446e-06
0.00011727
0.000137765
-7.4751e-05
-7.40452e-05
3.96681e-05
-2.69933e-05
2.41387e-05
0.000131685
0.000148547
0.000204592
-0.000123526
-5.42182e-05
-5.50624e-05
-0.000141408
-0.000184351
-8.74954e-05
-0.000261738
3.34673e-05
-4.61538e-05
8.52337e-05
9.82493e-05
0.000120361
5.95855e-05
-0.000181095
2.26653e-05
2.8957e-05
3.73568e-05
-1.92048e-05
-9.83998e-06
9.42307e-05
9.75713e-07
-4.89217e-05
-4.84255e-06
-8.00397e-05
-6.87421e-05
-0.000157806
-3.81609e-05
-9.54741e-05
-3.4692e-05
4.67517e-05
-0.000180215
-9.17269e-05
-3.77721e-06
-6.65024e-05
0.00013654
-0.00015138
-2.56943e-05
-0.000152221
-0.000100369
-0.000150763
-5.79481e-05
-1.09849e-05
-4.27306e-05
-5.59409e-06
7.78476e-05
-2.29187e-05
-4.86558e-05
4.95756e-05
-2.325e-05
5.94556e-05
-0.000106805
-3.32539e-06
-3.27769e-06
9.11381e-05
-0.000122413
-0.000155109
-0.000141126
6.11645e-05
1.31968e-05
-4.34381e-05
0.000107971
2.49255e-05
-8.71507e-05
-4.9535e-05
-0.000189722
-0.000127856
9.35711e-05
0.00011007
-6.04866e-05
2.93588e-05
0.000120052
0.000145161
7.63364e-05
-2.33507e-06
-9.50097e-05
0.00011803
-8.96644e-06
-0.000198722
3.7969e-05
1.01543e-06
3.21687e-05
0.000150136
0.000112878
0.000124909
7.22047e-05
0.000131577
3.86723e-05
5.29695e-05
-5.97949e-05
9.66537e-05
3.81257e-05
7.72481e-06
8.8139e-05
2.3187e-07
3.01335e-05
-3.62258e-05
-0.000166949
4.09331e-05
-6.81728e-05
-0.000101065
-6.45188e-05
-0.000163635
4.76369e-05
-3.36499e-05
0.000144746
3.69532e-05
1.17308e-05
0.000130546
0.00012019
-6.55379e-05
-7.57635e-05
-2.70285e-05
-9.65638e-05
5.08873e-05
-2.46671e-05
-4.41027e-05
-9.36692e-06
5.02278e-06
-4.57435e-05
-6.36878e-05
1.78159e-05
-3.93649e-05
-1.42862e-05
-2.77341e-05
-0.000217982
-8.01903e-05
-3.01131e-05
-5.20135e-05
6.80677e-05
-0.000223338
-4.88129e-05
-0.00017749
-2.38101e-06
4.65019e-05
5.80054e-05
-1.9775e-05
5.74341e-06
0.000218241
0.000101514
0.000143764
0.000293936
0.000323257
0.000127117
0.000126174
1.69038e-05
7.08975e-05
1.21715e-05
0.000117456
-9.0667e-05
-0.000292395
-8.50982e-05
5.88891e-05
-7.37946e-05
-3.5319e-05
2.80243e-05
-4.43108e-05
5.01613e-05
7.15775e-05
-8.12677e-05
-0.000121152
6.78904e-05
3.5312e-05
-0.00017456
5.88366e-05
-0.000222519
-7.99432e-05
-4.43829e-06
-6.00934e-05
-0.000168734
-1.35909e-05
2.982e-05
-5.41532e-05
-0.000128131
-7.65971e-05
-2.60295e-06
1.571e-05
3.60959e-05
-2.04695e-05
-0.00014897
-6.37464e-05
4.13672e-05
-3.67834e-05
0.000116897
-0.000125611
0.000188678
-5.97826e-05
2.03773e-05
-4.68107e-05
4.17354e-05
-1.22709e-06
-2.03236e-05
0.000213967
-3.91613e-05
-1.48067e-05
9.46363e-05
-4.04976e-05
5.66173e-07
4.76082e-05
0.000151648
4.42838e-05
0.000122707
0.000156497
-2.39385e-05
0.000114873
2.55848e-05
0.000100732
-7.51801e-06
3.89714e-05
2.83261e-05
-7.27818e-05
6.91632e-05
0.000276755
8.78331e-05
-1.20302e-05
-5.80358e-05
5.73852e-06
3.1997e-05
2.94284e-05
0.000225989
-8.17949e-06
9.9451e-06
-7.58249e-05
9.00707e-05
0.000113787
-2.41201e-06
-5.39592e-05
0.000135011
0.000143783
1.83241e-05
-0.000106393
-3.80103e-05
-0.000161119
-0.00024193
-0.000101762
-5.88312e-05
1.80619e-05
-0.000143433
7.62128e-05
1.79713e-05
5.64275e-05
-0.00017645
5.54297e-06
-0.000101968
-0.000159524
8.90736e-05
1.60236e-05
-3.80784e-05
-1.4904e-05
-2.47276e-05
-0.000210779
-1.39429e-05
0.00011734
-0.000240672
3.26836e-05
-3.78e-05
-2.41604e-05
9.09078e-05
-0.000194443
-5.62135e-05
-0.000168775
-8.54287e-05
3.81338e-05
3.54285e-05
9.323e-05
6.41924e-06
-3.36563e-05
9.04357e-05
4.85539e-05
-8.05006e-05
-7.55015e-05
3.58643e-05
-4.28157e-05
-3.35739e-05
-0.00010172
-1.81342e-05
-6.808e-05
-4.69778e-05
-2.96658e-05
-4.09391e-06
7.1687e-05
-0.000160697
6.46897e-05
-0.000132491
4.99926e-05
9.93002e-05
0.000103607
6.9301e-05
-2.0549e-06
3.87711e-05
-0.000114095
-6.51646e-05
-0.00019805
-7.15541e-05
9.27566e-06
-4.23774e-05
1.57319e-05
-5.8519e-06
0.000126388
-6.36864e-06
-4.42259e-05
-2.37326e-05
-0.000144432
-0.000140692
3.25117e-05
-7.26416e-05
-0.000109553
6.70271e-06
-4.14294e-05
4.30566e-05
7.38501e-06
8.64364e-06
-6.40819e-05
5.22561e-05
-2.65613e-05
0.000127294
0.000113975
8.99047e-06
6.79784e-05
8.93517e-05
5.23593e-05
5.95859e-05
6.68711e-07
0.000140182
5.49735e-05
-3.64283e-07
-2.91969e-05
2.8121e-05
7.34742e-05
8.11157e-05
0.000128491
-6.13377e-05
0.000173813
-5.55578e-05
8.80427e-05
-4.77333e-05
-8.55075e-05
-3.01737e-05
3.34568e-05
1.08408e-05
0.000130713
-1.33853e-05
8.05241e-05
-7.55159e-05
-6.14011e-05
-0.000169687
4.61514e-06
1.78985e-05
0.000287761
-6.05088e-05
0.000202271
-0.000143676
0.000141096
-9.82521e-05
4.70257e-05
4.99906e-05
6.89555e-06
-2.83636e-05
-0.000247089
-0.000124748
6.64886e-05
9.70806e-05
-2.56217e-05
4.43223e-05
-2.4719e-05
3.61194e-06
-9.92146e-05
-0.000138209
-4.33548e-05
6.40634e-05
-0.000220007
-7.75897e-05
-4.27777e-05
3.37955e-05
2.77679e-05
4.07804e-05
-4.46286e-05
-3.37317e-05
0.000134266
2.13185e-05
-0.000125613
-3.91644e-06
0.000145804
-5.03322e-05
-6.76346e-05
0.000228446
4.54592e-05
-0.000290886
-7.84528e-05
-0.000108749
3.14745e-05
-6.83714e-05
-3.62759e-05
-3.69242e-05
2.57563e-05
6.81672e-05
4.47413e-05
8.42668e-05
-0.000160363
3.41413e-05
-0.000181989
-0.000231268
-0.000109578
-0.000146593
-0.000104675
6.01496e-05
-6.24607e-05
3.95221e-05
0.000224002
-5.52639e-05
9.67031e-05
2.51688e-05
-3.76348e-05
-1.28809e-05
-4.76084e-05
3.71451e-05
-8.29485e-05
9.10882e-05
-7.60253e-05
-7.49132e-05
4.94475e-05
-2.24934e-05
7.77211e-05
5.55098e-05
9.9039e-05
2.0813e-05
8.90577e-05
6.68282e-05
-0.000113163
8.09069e-07
5.30249e-05
6.18101e-05
7.70193e-07
-8.7666e-05
-8.56806e-06
-7.99091e-05
-6.5179e-06
5.77329e-05
6.6428e-05
-9.16688e-05
-5.31304e-05
-0.00016154
0.000130233
0.000107061
-5.95858e-05
-4.71163e-05
-4.46133e-05
-4.00751e-05
3.87361e-05
5.04773e-05
0.00010152
5.23304e-06
4.33578e-05
0.000119368
1.26984e-05
9.55217e-05
8.18317e-05
-5.81887e-05
0.000207994
-8.11745e-05
3.04985e-05
-0.000108231
-4.66243e-05
-7.79704e-05
0.000186524
0.000108803
-6.47248e-05
-7.01969e-05
0.000128908
5.44792e-05
0.000120599
8.86717e-05
3.84534e-05
-6.68973e-05
7.15638e-05
3.48635e-06
9.27885e-05
-4.61472e-06
-7.28132e-06
-3.19709e-05
7.11668e-05
-4.96299e-05
6.8992e-05
5.39201e-05
-9.25263e-05
-4.1951e-05
-2.208e-05
-0.000133538
-0.000170343
2.63521e-05
5.87838e-05
6.31782e-05
-8.31356e-05
5.6986e-05
-8.03407e-05
6.49489e-05
-0.000138573
2.13737e-05
1.68666e-05
8.9963e-05
1.1855e-05
-0.000191335
-0.000132109
0.000143425
-7.02931e-05
-0.000142017
3.43807e-05
3.45408e-05
-2.80116e-05
-4.83264e-05
-9.2298e-06
-5.35842e-05
2.13686e-06
-6.06965e-05
0.000294336
0.000241587
0.00025657
5.54601e-05
4.25166e-05
-5.56375e-05
0.000118837
-9.07454e-05
0.000133919
-2.68786e-05
-0.000281767
-8.30334e-05
-6.81337e-05
0.000138556
-0.000196063
-8.25528e-05
-3.17185e-05
-3.42181e-05
2.48872e-05
-1.73669e-05
1.38872e-05
-1.8782e-05
0.000120095
0.000173379
-1.84964e-05
-3.80447e-06
-4.60237e-05
-4.06639e-05
-0.000190624
-0.000132933
-1.13216e-05
-1.42437e-05
0.000129769
2.86044e-05
-2.13708e-06
7.44992e-06
-4.92003e-05
-5.03672e-05
3.97691e-05
-3.17155e-05
-0.000105363
4.46054e-05
7.8966e-05
7.95794e-05
1.49696e-05
-0.000121412
1.48837e-05
-3.9853e-05
2.20048e-05
-7.98315e-05
-0.000127598
1.11074e-05
-2.10664e-05
8.65671e-05
0.000193296
2.50184e-05
0.000172562
-5.01555e-05
-0.000219648
0.000168651
0.000137001
1.19109e-05
-8.78339e-05
-5.03395e-05
5.33651e-05
-3.37748e-05
0.000143718
-7.98937e-05
-6.3868e-05
2.15967e-05
5.28671e-05
0.000262877
-1.30315e-05
-3.71474e-05
7.89516e-05
-0.000155533
2.35459e-05
0.000140892
-6.81164e-05
8.16605e-05
9.78265e-05
6.24808e-05
6.03268e-05
-9.42312e-05
-3.1287e-05
-0.000223575
2.46395e-05
9.14595e-05
3.09162e-05
6.58159e-05
-6.16786e-06
4.385e-05
-4.35715e-05
-9.19928e-05
2.62067e-05
-4.57621e-05
-6.14873e-05
-0.00011976
-8.94271e-06
-0.000128696
5.67825e-05
-6.4223e-05
-0.000139639
9.28027e-05
-1.35997e-05
-0.000111259
-0.000253968
-0.000163644
-0.000200137
9.14585e-05
-4.17083e-05
-8.55688e-05
-1.02007e-05
-2.51588e-05
-9.61231e-05
-0.000110777
4.21471e-05
2.76633e-05
9.58073e-05
3.7768e-05
-0.000103808
0.000100738
4.71392e-05
0.000188385
-0.000138113
1.59135e-05
0.000140604
3.51278e-05
0.000126391
5.70728e-05
-7.15665e-06
-5.94675e-05
0.000104346
0.000121276
4.39263e-06
0.000105082
8.88878e-05
7.37454e-05
-5.01248e-05
-1.54148e-05
-0.000120845
-0.000158371
-4.7082e-05
0.000113956
8.24788e-05
4.09148e-05
6.96967e-05
-7.54432e-05
4.27564e-05
-0.000181716
-1.23395e-05
-5.52698e-05
4.02141e-05
8.19893e-05
-0.000270579
4.10387e-05
-0.000161843
9.73541e-05
3.04878e-05
-3.30762e-05
-3.4744e-05
8.9952e-05
-0.00013303
-2.4831e-06
-0.000157462
-0.000151745
-0.000236679
-0.000128843
-0.000198581
-0.000229063
-0.000148963
-0.000177839
-9.4462e-06
-6.07522e-06
2.12172e-05
0.000249431
0.000114707
2.00629e-05
1.54218e-05
0.000102756
-3.41212e-05
4.89141e-05
1.2771e-07
3.48434e-05
5.76116e-05
-0.000104532
-5.43442e-06
0.000129958
5.99839e-06
-3.13353e-05
-0.000116707
-1.57784e-06
-2.79867e-05
4.51087e-05
2.5724e-05
0.000213023
-9.96127e-05
-0.00012173
-0.000195997
-8.24993e-05
-0.000133178
-0.000101831
-0.000202315
-9.64041e-05
-5.97263e-05
-2.62142e-05
6.34083e-05
2.69754e-06
0.000118283
5.0303e-05
-1.00816e-05
-3.13621e-05
-2.17912e-05
5.18609e-05
6.62878e-05
1.26113e-05
6.15839e-05
-5.17974e-05
0.000191817
5.63586e-05
6.70053e-05
1.29927e-05
1.37493e-05
-5.7732e-05
-6.66385e-05
2.10216e-05
0.000153536
0.000100893
-0.00016235
6.08958e-05
5.45274e-05
3.99212e-05
-6.60732e-05
-0.000144168
-0.000105439
-9.5987e-05
-0.000137254
-0.000155538
-7.37523e-05
-1.90406e-05
3.55488e-05
0.000146748
0.000144238
5.39442e-05
-2.22613e-05
-8.17413e-05
-3.23969e-05
-6.73648e-05
-3.47181e-05
-6.8683e-05
-0.000107621
-9.03156e-05
1.85058e-05
-3.75873e-06
-0.000121343
0.000162525
6.3402e-05
2.20636e-05
1.10609e-05
0.000185095
2.61673e-05
-7.50491e-05
-4.73066e-05
-0.00011713
5.17974e-05
-8.08666e-05
0.000123073
-1.62139e-05
4.13967e-06
2.9652e-05
-3.8972e-05
9.66982e-05
2.74942e-05
-0.000135009
-0.000184104
-0.000153875
-0.00023153
-1.01498e-05
-0.000250741
4.0951e-05
2.00133e-05
-5.24569e-05
-6.61865e-05
-5.52674e-05
-9.41495e-05
-9.78827e-05
-7.28323e-05
4.96029e-05
1.9649e-05
6.33123e-05
1.9312e-05
6.72619e-05
-3.42228e-05
8.91153e-05
-2.48427e-07
3.8188e-05
0.000120404
2.83063e-05
-1.18131e-05
-8.12701e-05
8.08745e-05
0.000160406
0.000246673
0.000132141
0.000146484
3.45034e-05
-5.24512e-05
2.49142e-05
-0.000127584
-1.93962e-05
-7.932e-05
-0.000137825
-6.58688e-05
5.91083e-05
-5.10518e-05
8.18294e-05
0.0001323
5.32014e-05
1.75597e-06
3.52533e-06
-0.000106718
-0.000259687
-6.8985e-05
-4.24415e-05
4.15349e-05
1.97308e-05
3.24352e-05
-6.10723e-05
-1.29842e-05
9.79935e-05
0.00018461
1.29405e-05
8.19512e-05
0.000200178
-7.67096e-05
4.75499e-05
0.000178241
3.41322e-06
1.32629e-05
7.22216e-05
-0.000149192
0.000204024
0.000186942
4.54415e-05
4.07124e-06
4.8242e-05
-7.69218e-06
-6.85885e-05
3.68329e-06
-0.000189328
-1.60644e-05
-7.70844e-05
5.77567e-05
0.000134876
-4.11175e-05
6.03221e-05
0.000183112
0.000158637
0.000225925
-4.02409e-05
-2.18076e-05
-4.30878e-05
7.8769e-05
-5.80735e-05
-2.08362e-05
-1.34225e-05
0.000118281
7.08408e-05
-9.49237e-05
0.000108646
-5.5853e-05
-0.000187576
-0.00023281
4.34131e-05
-6.92759e-05
-9.26337e-05
-0.000215475
0.000264629
-5.55355e-05
-7.00599e-05
0.000157006
0.000112457
0.000130853
7.60716e-05
-5.66446e-05
0.000136322
1.36039e-05
-1.79609e-05
8.38789e-05
6.53676e-06
-7.51645e-05
-6.97445e-05
-2.90747e-07
1.12861e-05
5.21911e-05
7.99023e-05
-3.38368e-05
0.000156717
-2.63824e-06
8.39407e-05
-7.93058e-05
-0.000161499
-9.91269e-05
0.00016091
4.17355e-05
7.90442e-05
3.77322e-05
6.79438e-05
1.68178e-05
1.9218e-05
-5.00889e-05
-0.000110886
-0.000166834
-8.95625e-05
0.000233667
-0.000126812
-0.000173247
0.000185455
-0.000109925
7.12235e-05
-0.000143748
-1.34321e-05
5.51236e-05
0.000161792
5.15532e-05
0.000153705
-8.87733e-05
-6.05011e-05
-1.363e-05
-2.65776e-05
0.000162422
-1.09545e-06
-6.3203e-06
9.53981e-05
0.000161454
8.81357e-06
-5.08947e-05
6.59556e-05
3.8945e-05
6.52966e-05
5.75494e-05
-0.000107003
1.98304e-05
-7.2888e-05
5.50497e-06
6.30864e-06
-0.000155315
-5.02206e-05
-0.000168947
-0.00019806
-0.000124116
-1.16795e-07
-9.74239e-05
0.000132031
2.1119e-05
-6.99537e-05
3.26415e-05
-0.000108196
4.91846e-05
4.75238e-05
0.000205423
-0.000167344
-0.000107201
-1.1122e-05
-0.000140671
-2.24453e-05
7.4035e-05
-3.48556e-05
-2.38116e-05
-0.000192539
-0.000146507
-0.00011059
3.91322e-06
-7.69957e-05
7.93685e-05
0.000249807
1.27576e-05
-4.295e-05
2.06989e-05
3.72744e-05
0.000182926
0.000146826
5.74432e-05
-2.65039e-05
-3.27711e-05
1.62584e-06
0.00012882
-5.25732e-06
-1.34717e-05
-4.08712e-05
-4.73572e-05
-8.46006e-05
-5.15952e-05
-2.35468e-05
-0.000163127
0.000129556
3.48307e-05
3.14401e-05
1.32356e-06
8.10969e-05
-0.000198642
-7.62847e-05
-0.000210564
0.000136468
8.5806e-06
-0.00023835
-7.82887e-05
1.26974e-05
-1.09123e-05
-2.3022e-05
-9.66202e-06
-3.64815e-05
-5.28235e-06
-3.2221e-05
0.000140982
-0.000154918
-3.73836e-05
-3.50567e-05
-3.34254e-05
-9.31604e-05
4.03303e-05
-3.69077e-05
2.92402e-05
0.000109821
0.000111041
4.9409e-05
0.000181085
0.000134911
-0.000119254
2.71415e-05
4.60819e-05
0.000160573
-1.32859e-05
7.76257e-05
0.000243909
-7.72107e-05
3.64069e-05
5.51597e-05
-0.000154156
0.000172158
0.000126793
-9.21206e-06
9.0412e-05
-3.96523e-05
-5.40454e-05
8.30179e-05
6.20804e-05
4.55623e-05
-6.46523e-06
-0.000194474
-0.000198041
-8.49241e-05
-0.000151538
-8.51278e-05
1.2553e-05
6.49243e-05
4.98144e-05
-9.13321e-06
-4.3675e-05
0.000114236
2.95008e-05
-4.9419e-05
-5.91374e-06
-3.88294e-05
0.000151347
0.000129984
8.08541e-05
8.79466e-05
7.31722e-06
-6.83697e-05
-7.25924e-05
-5.31827e-05
-9.63202e-05
-0.000235538
6.17807e-05
-3.84195e-05
-9.39032e-06
-0.000101772
1.50251e-05
-3.38359e-05
-8.73736e-05
9.87824e-05
6.35093e-05
-3.72042e-05
9.04224e-06
9.01211e-06
0.00014058
-3.27011e-05
1.43219e-05
0.000107908
-2.21763e-05
0.00012002
-5.88789e-05
6.96049e-05
8.40867e-05
0.000143448
6.10303e-05
0.000101449
-8.92513e-05
0.000123229
0.000154923
3.71345e-05
9.20353e-05
-1.92783e-05
1.55156e-05
-8.4636e-05
-0.000142612
-0.000111592
4.81447e-05
9.71665e-05
-0.000142049
-0.000145361
-0.000123969
1.91305e-05
4.36743e-05
8.05118e-05
3.64118e-05
-9.45156e-05
-0.000150744
1.60909e-05
-5.5757e-05
7.70398e-05
-3.92358e-05
-8.25417e-05
-5.35891e-05
4.06229e-05
-0.000200731
-0.000107776
1.65087e-05
4.30018e-05
-0.000113749
6.88568e-05
-4.64291e-05
6.99002e-05
4.06859e-05
-9.66605e-05
4.93228e-05
-4.59832e-05
1.9222e-05
4.77041e-05
1.2068e-05
-8.78193e-05
0.00017189
3.37801e-05
0.000286285
-5.39348e-05
4.14141e-05
-3.7059e-05
-9.18871e-06
2.37689e-05
0.000189007
0.000124875
-2.7715e-05
0.000110646
0.000170594
1.62869e-05
0.000176822
0.000100716
5.74026e-05
0.000112907
0.000227566
-0.000109105
-7.89584e-06
-5.85965e-05
-5.58959e-05
5.7152e-05
2.82522e-05
4.08771e-05
-0.000305601
4.49341e-05
-6.26987e-05
5.86142e-06
4.60452e-05
0.000100542
-0.000181416
-3.85666e-05
-0.000194439
0.000113616
0.000108826
-0.000216254
2.55564e-05
-2.58382e-07
1.74908e-05
-2.63741e-05
2.32275e-05
1.31209e-05
5.80539e-05
5.58734e-05
-6.05755e-05
1.61689e-05
0.000106306
-6.48636e-06
-3.99983e-05
0.000178336
-5.64408e-05
4.4736e-05
9.77838e-06
-4.2206e-05
0.000141205
1.61756e-05
-0.000109188
-4.37486e-05
-0.000200617
-0.000170634
3.11803e-05
-6.57734e-05
-0.000180661
-0.000149921
-0.000219419
9.37369e-05
-0.000127188
-3.02346e-05
-0.000137217
-0.000295159
-5.58153e-06
-3.91639e-05
-2.5961e-05
-5.77156e-05
9.60092e-06
-4.49802e-05
-8.5448e-06
-2.73756e-05
-5.33414e-06
-7.63911e-05
0.000140218
0.00017194
-5.31398e-05
-0.000125585
8.32768e-05
8.41892e-05
0.000118713
0.000211197
0.000138678
9.3706e-05
0.000287722
1.7144e-05
0.000259314
0.000181431
-6.45697e-06
3.81905e-05
-4.55518e-05
0.000112761
-0.000233357
-3.45126e-05
0.00010312
6.81749e-06
8.4605e-05
4.15562e-05
-3.10797e-05
-0.000297988
-0.000193128
-9.3549e-05
-0.000107114
-0.000510736
-0.000601287
-0.000788377
-0.001145
-0.00123804
-0.00159647
-0.00199817
-0.00259445
-0.00380728
-0.00492449
-0.00682553
-0.00909179
-0.0124248
-0.0166823
-0.0225227
-0.0307631
-0.0415021
-0.0561428
-0.0756486
-0.101485
-0.136272
-0.182724
-0.244734
-0.327313
-0.436512
-0.581249
-0.77294
-1.0263
-1.36019
-1.79978
-2.3772
-3.13461
-4.12632
-5.42213
-7.11262
-9.31337
-12.1738
-15.8835
-20.6868
-26.8931
-34.8973
-45.1995
-58.4336
-75.4
-97.107
-124.823
-160.138
-205.042
-262.017
-334.156
-425.297
-540.192
-684.713
-866.094
-1093.22
-1376.97
-1730.64
-2170.41
-2715.95
-3391.05
-4224.41
-5250.56
-6510.9
-8054.87
-9941.34
-12240.1
-15033.8
-18419.4
-22510.9
-27441.3
-33365.2
-40461.6
-48936.7
-59027
-71002.1
-85168.1
-101870
-121496
-144477
-171292
-202466
-238573
-280235
-328116
-382927
-445411
-516344
-596518
-686738
-787801
-900485
-1.02553e+06
-1.16361e+06
-1.31533e+06
-1.4812e+06
-1.66158e+06
-1.85671e+06
-2.06667e+06
-2.29134e+06
-2.53041e+06
-2.78339e+06
-3.04955e+06
-3.32799e+06
-3.61758e+06
-3.91703e+06
-4.22488e+06
-4.53953e+06
-4.85927e+06
-5.18233e+06
-5.50689e+06
-5.83115e+06
-6.15332e+06
-6.47172e+06
-6.78473e+06
-7.09089e+06
-7.3889e+06
-7.67759e+06
-7.95602e+06
-8.22338e+06
-8.47909e+06
-8.72271e+06
-8.95398e+06
-9.1728e+06
-9.37918e+06
-9.57328e+06
-9.75534e+06
-9.92569e+06
-1.00847e+07
-1.02329e+07
-1.03708e+07
-1.0499e+07
-1.06179e+07
-1.07282e+07
-1.08304e+07
-1.09251e+07
-1.10127e+07
-1.10937e+07
-1.11687e+07
-1.12381e+07
-1.13023e+07
-1.13616e+07
-1.14164e+07
-1.14672e+07
-1.15141e+07
-1.15575e+07
-1.15976e+07
-1.16347e+07
-1.1669e+07
-1.17007e+07
-1.173e+07
-1.17571e+07
-1.17821e+07
-1.18052e+07
-1.18266e+07
-1.18463e+07
-1.18645e+07
-1.18812e+07
-1.18966e+07
-1.19108e+07
-1.19239e+07
-1.19358e+07
-1.19468e+07
-1.19568e+07
-1.1966e+07
-1.19743e+07
-1.19819e+07
-1.19888e+07
-1.1995e+07
-1.20006e+07
-1.20056e+07
-1.201e+07
-1.20139e+07
-1.20174e+07
-1.20203e+07
-1.20229e+07
-1.20251e+07
-1.20268e+07
-1.20283e+07
-1.20293e+07
-1.20301e+07
-1.20306e+07
-1.20308e+07
-1.20307e+07
-1.20304e+07
-1.20298e+07
-1.2029e+07
-1.2028e+07
-1.20268e+07
-1.20255e+07
-1.20239e+07
-1.20222e+07
-1.20203e+07
-1.20182e+07
-1.20161e+07
-1.20137e+07
-1.20113e+07
-1.20087e+07
-1.2006e+07
-1.20032e+07
-1.20003e+07
-1.19973e+07
-1.19942e+07
-1.19911e+07
-1.19878e+07
-1.19844e+07
-1.1981e+07
-1.19775e+07
-1.19739e+07
-1.19702e+07
-1.19665e+07
-1.19627e+07
-1.19589e+07
-1.1955e+07
-1.19511e+07
-1.19471e+07
-1.1943e+07
-1.19389e+07
-1.19347e+07
-1.19305e+07
-1.19263e+07
-1.1922e+07
-1.19177e+07
-1.19133e+07
-1.19089e+07
-1.19045e+07
-1.19e+07
-1.18955e+07
-1.18909e+07
-1.18863e+07
-1.18817e+07
-1.18771e+07
-1.18724e+07
-1.18677e+07
-1.1863e+07
-1.18582e+07
-1.18534e+07
-1.18486e+07
-1.18438e+07
-1.18389e+07
-1.1834e+07
-1.18291e+07
-1.18241e+07
-1.18191e+07
-1.18142e+07
-1.18091e+07
-1.18041e+07
-1.1799e+07
-1.17939e+07
-1.17888e+07
-1.17837e+07
-1.17785e+07
-1.17734e+07
-1.17682e+07
-1.1763e+07
-1.17577e+07
-1.17525e+07
-1.17472e+07
-1.17419e+07
-1.17366e+07
-1.17312e+07
-1.17259e+07
-1.17205e+07
-1.17151e+07
-1.17097e+07
-1.17042e+07
-1.16988e+07
-1.16933e+07
-1.16878e+07
-1.16823e+07
-1.16768e+07
-1.16713e+07
-1.16657e+07
-1.16601e+07
-1.16546e+07
-1.16489e+07
-1.16433e+07
-1.16377e+07
-1.1632e+07
-1.16264e+07
-1.16207e+07
-1.1615e+07
-1.16093e+07
-1.16035e+07
-1.15978e+07
-1.1592e+07
-1.15862e+07
-1.15804e+07
-1.15746e+07
-1.15688e+07
-1.1563e+07
-1.15571e+07
-1.15513e+07
-1.15454e+07
-1.15395e+07
-1.15336e+07
-1.15277e+07
-1.15218e+07
-1.15158e+07
-1.15099e+07
-1.15039e+07
-1.1498e+07
-1.1492e+07
-1.1486e+07
-1.148e+07
-1.14739e+07
-1.14679e+07
-1.14619e+07
-1.14558e+07
-1.14498e+07
-1.14437e+07
-1.14376e+07
-1.14315e+07
-1.14254e+07
-1.14193e+07
-1.14132e+07
-1.14071e+07
-1.14009e+07
-1.13948e+07
-1.13886e+07
-1.13825e+07
-1.13763e+07
-1.13701e+07
-1.13639e+07
-1.13577e+07
-1.13515e+07
-1.13453e+07
-1.13391e+07
-1.13329e+07
-1.13266e+07
-1.13204e+07
-1.13141e+07
-1.13079e+07
-1.13016e+07
-1.12954e+07
-1.12891e+07
-1.12828e+07
-1.12765e+07
-1.12702e+07
-1.12639e+07
-1.12576e+07
-1.12513e+07
-1.1245e+07
-1.12387e+07
-1.12324e+07
-1.1226e+07
-1.12197e+07
-1.12134e+07
-1.1207e+07
-1.12007e+07
-1.11943e+07
-1.1188e+07
-1.11816e+07
-1.11753e+07
-1.11689e+07
-1.11625e+07
-1.11562e+07
-1.11498e+07
-1.11434e+07
-1.1137e+07
-1.11306e+07
-1.11243e+07
-1.11179e+07
-1.11115e+07
-1.11051e+07
-1.10987e+07
-1.10923e+07
-1.10859e+07
-1.10795e+07
-1.1073e+07
-1.10666e+07
-1.10602e+07
-1.10538e+07
-1.10474e+07
-1.1041e+07
-1.10345e+07
-1.10281e+07
-1.10217e+07
-1.10152e+07
-1.10088e+07
-1.10024e+07
-1.09959e+07
-1.09895e+07
-1.09831e+07
-1.09766e+07
-1.09702e+07
-1.09638e+07
-1.09573e+07
-1.09509e+07
-1.09444e+07
-1.0938e+07
-1.09315e+07
-1.09251e+07
-1.09186e+07
-1.09122e+07
-1.09058e+07
-1.08993e+07
-1.08929e+07
-1.08864e+07
-1.08799e+07
-1.08735e+07
-1.0867e+07
-1.08606e+07
-1.08541e+07
-1.08477e+07
-1.08412e+07
-1.08348e+07
-1.08283e+07
-1.08219e+07
-1.08154e+07
-1.0809e+07
-1.08025e+07
-1.07961e+07
-1.07896e+07
-1.07831e+07
-1.07767e+07
-1.07702e+07
-1.07638e+07
-1.07573e+07
-1.07509e+07
-1.07444e+07
-1.0738e+07
-1.07315e+07
-1.07251e+07
-1.07186e+07
-1.07122e+07
-1.07057e+07
-1.06993e+07
-1.06928e+07
-1.06864e+07
-1.06799e+07
-1.06735e+07
-1.0667e+07
-1.06606e+07
-1.06541e+07
-1.06477e+07
-1.06413e+07
-1.06348e+07
-1.06284e+07
-1.06219e+07
-1.06155e+07
-1.0609e+07
-1.06026e+07
-1.05962e+07
-1.05897e+07
-1.05833e+07
-1.05769e+07
-1.05704e+07
-1.0564e+07
-1.05576e+07
-1.05511e+07
-1.05447e+07
-1.05383e+07
-1.05318e+07
-1.05254e+07
-1.0519e+07
-1.05126e+07
-1.05061e+07
-1.04997e+07
-1.04933e+07
-1.04869e+07
-1.04805e+07
-1.04741e+07
-1.04676e+07
-1.04612e+07
-1.04548e+07
-1.04484e+07
-1.0442e+07
-1.04356e+07
-1.04292e+07
-1.04228e+07
-1.04164e+07
-1.041e+07
-1.04036e+07
-1.03972e+07
-1.03908e+07
-1.03844e+07
-1.0378e+07
-1.03716e+07
-1.03652e+07
-1.03588e+07
-1.03524e+07
-1.0346e+07
-1.03396e+07
-1.03332e+07
-1.03269e+07
-1.03205e+07
-1.03141e+07
-1.03077e+07
-1.03013e+07
-1.0295e+07
-1.02886e+07
-1.02822e+07
-1.02758e+07
-1.02695e+07
-1.02631e+07
-1.02567e+07
-1.02504e+07
-1.0244e+07
-1.02377e+07
-1.02313e+07
-1.02249e+07
-1.02186e+07
-1.02122e+07
-1.02059e+07
-1.01995e+07
-1.01932e+07
-1.01868e+07
-1.01805e+07
-1.01741e+07
-1.01678e+07
-1.01615e+07
-1.01551e+07
-1.01488e+07
-1.01425e+07
-1.01361e+07
-1.01298e+07
-1.01235e+07
-1.01171e+07
-1.01108e+07
-1.01045e+07
-1.00982e+07
-1.00919e+07
-1.00855e+07
-1.00792e+07
-1.00729e+07
-1.00666e+07
-1.00603e+07
-1.0054e+07
-1.00477e+07
-1.00414e+07
-1.00351e+07
-1.00288e+07
-1.00225e+07
-1.00162e+07
-1.00099e+07
-1.00036e+07
-9.99733e+06
-9.99104e+06
-9.98476e+06
-9.97847e+06
-9.97219e+06
-9.96591e+06
-9.95964e+06
-9.95336e+06
-9.94709e+06
-9.94082e+06
-9.93455e+06
-9.92829e+06
-9.92202e+06
-9.91576e+06
-9.9095e+06
-9.90324e+06
-9.89699e+06
-9.89073e+06
-9.88448e+06
-9.87823e+06
-9.87198e+06
-9.86574e+06
-9.8595e+06
-9.85326e+06
-9.84702e+06
-9.84078e+06
-9.83454e+06
-9.82831e+06
-9.82208e+06
-9.81585e+06
-9.80963e+06
-9.8034e+06
-9.79718e+06
-9.79096e+06
-9.78475e+06
-9.77853e+06
-9.77232e+06
-9.76611e+06
-9.7599e+06
-9.75369e+06
-9.74749e+06
-9.74128e+06
-9.73508e+06
-9.72889e+06
-9.72269e+06
-9.7165e+06
-9.71031e+06
-9.70412e+06
-9.69793e+06
-9.69175e+06
-9.68557e+06
-9.67939e+06
-9.67321e+06
-9.66703e+06
-9.66086e+06
-9.65469e+06
-9.64852e+06
-9.64235e+06
-9.63619e+06
-9.63003e+06
-9.62387e+06
-9.61771e+06
-9.61155e+06
-9.6054e+06
-9.59925e+06
-9.5931e+06
-9.58695e+06
-9.58081e+06
-9.57467e+06
-9.56853e+06
-9.56239e+06
-9.55626e+06
-9.55012e+06
-9.54399e+06
-9.53787e+06
-9.53174e+06
-9.52562e+06
-9.5195e+06
-9.51338e+06
-9.50726e+06
-9.50115e+06
-9.49503e+06
-9.48892e+06
-9.48282e+06
-9.47671e+06
-9.47061e+06
-9.46451e+06
-9.45841e+06
-9.45231e+06
-9.44622e+06
-9.44013e+06
-9.43404e+06
-9.42795e+06
-9.42187e+06
-9.41579e+06
-9.40971e+06
-9.40363e+06
-9.39756e+06
-9.39148e+06
-9.38541e+06
-9.37934e+06
-9.37328e+06
-9.36722e+06
-9.36116e+06
-9.3551e+06
-9.34904e+06
-9.34299e+06
-9.33693e+06
-9.33089e+06
-9.32484e+06
-9.31879e+06
-9.31275e+06
-9.30671e+06
-9.30067e+06
-9.29464e+06
-9.28861e+06
-9.28258e+06
-9.27655e+06
-9.27052e+06
-9.2645e+06
-9.25848e+06
-9.25246e+06
-9.24644e+06
-9.24043e+06
-9.23442e+06
-9.22841e+06
-9.2224e+06
-9.2164e+06
-9.2104e+06
-9.2044e+06
-9.1984e+06
-9.1924e+06
-9.18641e+06
-9.18042e+06
-9.17443e+06
-9.16845e+06
-9.16247e+06
-9.15649e+06
-9.15051e+06
-9.14453e+06
-9.13856e+06
-9.13259e+06
-9.12662e+06
-9.12065e+06
-9.11469e+06
-9.10873e+06
-9.10277e+06
-9.09681e+06
-9.09086e+06
-9.0849e+06
-9.07895e+06
-9.07301e+06
-9.06706e+06
-9.06112e+06
-9.05518e+06
-9.04924e+06
-9.04331e+06
-9.03737e+06
-9.03144e+06
-9.02552e+06
-9.01959e+06
-9.01367e+06
-9.00775e+06
-9.00183e+06
-8.99591e+06
-8.99e+06
-8.98409e+06
-8.97818e+06
-8.97227e+06
-8.96637e+06
-8.96047e+06
-8.95457e+06
-8.94867e+06
-8.94278e+06
-8.93688e+06
-8.931e+06
-8.92511e+06
-8.91922e+06
-8.91334e+06
-8.90746e+06
-8.90158e+06
-8.89571e+06
-8.88984e+06
-8.88397e+06
-8.8781e+06
-8.87223e+06
-8.86637e+06
-8.86051e+06
-8.85465e+06
-8.8488e+06
-8.84294e+06
-8.83709e+06
-8.83124e+06
-8.8254e+06
-8.81955e+06
-8.81371e+06
-8.80787e+06
-8.80204e+06
-8.7962e+06
-8.79037e+06
-8.78454e+06
-8.77871e+06
-8.77289e+06
-8.76707e+06
-8.76125e+06
-8.75543e+06
-8.74962e+06
-8.74381e+06
-8.738e+06
-8.73219e+06
-8.72638e+06
-8.72058e+06
-8.71478e+06
-8.70898e+06
-8.70319e+06
-8.69739e+06
-8.6916e+06
-8.68582e+06
-8.68003e+06
-8.67425e+06
-8.66847e+06
-8.66269e+06
-8.65691e+06
-8.65114e+06
-8.64537e+06
-8.6396e+06
-8.63383e+06
-8.62807e+06
-8.62231e+06
-8.61655e+06
-8.61079e+06
-8.60504e+06
-8.59929e+06
-8.59354e+06
-8.58779e+06
-8.58205e+06
-8.5763e+06
-8.57056e+06
-8.56483e+06
-8.55909e+06
-8.55336e+06
-8.54763e+06
-8.5419e+06
-8.53618e+06
-8.53046e+06
-8.52474e+06
-8.51902e+06
-8.5133e+06
-8.50759e+06
-8.50188e+06
-8.49617e+06
-8.49047e+06
-8.48476e+06
-8.47906e+06
-8.47336e+06
-8.46767e+06
-8.46197e+06
-8.45628e+06
-8.45059e+06
-8.44491e+06
-8.43922e+06
-8.43354e+06
-8.42786e+06
-8.42219e+06
-8.41651e+06
-8.41084e+06
-8.40517e+06
-8.39951e+06
-8.39384e+06
-8.38818e+06
-8.38252e+06
-8.37686e+06
-8.37121e+06
-8.36556e+06
-8.35991e+06
-8.35426e+06
-8.34861e+06
-8.34297e+06
-8.33733e+06
-8.33169e+06
-8.32606e+06
-8.32042e+06
-8.31479e+06
-8.30917e+06
-8.30354e+06
-8.29792e+06
-8.2923e+06
-8.28668e+06
-8.28106e+06
-8.27545e+06
-8.26984e+06
-8.26423e+06
-8.25862e+06
-8.25302e+06
-8.24742e+06
-8.24182e+06
-8.23622e+06
-8.23063e+06
-8.22503e+06
-8.21945e+06
-8.21386e+06
-8.20827e+06
-8.20269e+06
-8.19711e+06
-8.19153e+06
-8.18596e+06
-8.18039e+06
-8.17482e+06
-8.16925e+06
-8.16368e+06
-8.15812e+06
-8.15256e+06
-8.147e+06
-8.14145e+06
-8.13589e+06
-8.13034e+06
-8.1248e+06