/*--------------------------------*- C++ -*----------------------------------*\
  =========                 |
  \\      /  F ield         | OpenFOAM: The Open Source CFD Toolbox
   \\    /   O peration     | Website:  https://openfoam.org
    \\  /    A nd           | Version:  9
     \\/     M anipulation  |
\*---------------------------------------------------------------------------*/
FoamFile
{
    format      ascii;
    class       surfaceScalarField;
    location    "0.009";
    object      ddtCorrDdt0(phi);
}
// * * * * * * * * * * * * * * * * * * * * * * * * * * * * * * * * * * * * * //

dimensions      [1 0 -2 0 0 0 0];

internalField   nonuniform List<scalar> 
9999
(
8.51496e-07
2.38123e-07
7.53015e-07
2.29478e-07
2.39041e-07
-8.66807e-08
-1.19225e-07
8.25624e-08
-2.03854e-07
7.67454e-07
2.8867e-07
-2.08029e-07
1.38296e-06
1.34301e-06
1.87301e-06
7.47802e-07
5.95388e-07
-3.72316e-07
-2.01716e-07
-6.39752e-07
5.88749e-07
-2.9259e-07
5.76194e-08
-3.48229e-07
7.4118e-07
3.39664e-08
-1.89166e-07
-5.75659e-07
5.99463e-07
6.24234e-07
-3.07064e-07
-1.85276e-07
2.43525e-07
2.12754e-07
6.46505e-07
1.21506e-09
-1.57303e-06
-5.96416e-08
1.15307e-06
-7.59168e-07
-3.1111e-07
-7.18303e-07
1.2453e-07
2.57974e-07
5.7267e-07
6.37734e-07
-6.188e-07
-6.63116e-08
-3.36809e-07
-1.10191e-07
-4.77763e-07
-1.19404e-06
-3.39766e-08
-3.45014e-08
-5.89858e-07
-7.31837e-07
5.44624e-07
-5.23305e-07
9.01656e-07
-4.70928e-07
7.66388e-08
6.87154e-07
1.00103e-06
3.70324e-07
4.23617e-07
-2.72631e-07
1.38257e-07
-8.23824e-07
-3.87801e-07
4.17571e-07
-2.85127e-07
2.97016e-08
1.04082e-07
-1.48916e-06
-4.0133e-07
-5.77635e-07
-2.5254e-07
6.65689e-07
1.0099e-06
3.58165e-08
3.97485e-07
3.27509e-07
-5.7777e-07
3.82754e-07
1.71004e-07
-7.08232e-07
-4.39904e-07
2.27781e-07
-1.76084e-07
4.13056e-07
-1.41027e-07
4.11552e-07
7.28654e-07
-1.4947e-07
4.05248e-07
4.1683e-07
8.12452e-07
-7.68247e-07
9.33251e-07
2.0573e-07
4.35805e-07
1.21596e-06
-4.52847e-08
1.83083e-07
9.99782e-07
1.56313e-06
5.47257e-07
1.00982e-06
-4.93657e-07
4.65954e-07
2.40354e-08
7.99718e-07
7.1597e-07
-2.61959e-07
2.87748e-07
6.48157e-07
-6.1358e-07
-6.87403e-07
1.52911e-07
-1.45195e-06
-1.16051e-06
-1.74375e-06
5.19077e-07
-8.35965e-07
1.52154e-07
-6.78903e-08
-3.25457e-07
-7.96059e-07
-5.92954e-07
2.69475e-07
-8.59304e-07
-1.00668e-06
-4.63747e-07
5.94952e-07
-4.32327e-07
-6.96636e-07
-8.25476e-07
-8.79381e-07
-5.26868e-07
-4.29621e-07
1.22857e-07
-7.45306e-08
8.51976e-08
3.94868e-07
-5.04148e-07
-4.02319e-07
-7.65999e-07
-8.58939e-08
-3.55951e-07
5.46855e-10
3.40109e-07
-7.55908e-07
6.91643e-07
2.13424e-07
4.60019e-07
9.23256e-08
7.62118e-07
1.20797e-06
9.76524e-07
6.01382e-07
-3.09459e-07
2.46033e-07
4.25124e-08
1.10339e-06
7.17112e-07
1.06718e-06
1.2018e-06
1.60599e-06
6.87576e-08
1.51711e-06
1.3957e-06
1.55535e-06
-3.47269e-07
-4.41451e-07
5.8319e-07
4.3604e-07
3.46814e-07
-5.91292e-07
-3.18345e-07
3.38653e-07
2.33996e-07
-1.6467e-06
-1.29919e-06
-6.30992e-07
-1.64204e-06
-2.48116e-07
-3.4572e-07
4.65854e-07
-4.72976e-07
6.87588e-07
-1.49222e-07
-7.71535e-07
-1.19353e-06
-7.15769e-07
-9.11644e-07
2.83661e-07
-2.07299e-07
-7.56204e-07
-1.37271e-06
-1.88104e-07
-1.02041e-06
9.96663e-07
9.9263e-07
-8.08763e-08
-1.61418e-06
-7.17174e-08
1.53749e-06
1.32052e-06
4.47884e-07
1.55351e-06
1.85211e-06
1.16958e-06
1.37439e-06
4.52585e-07
2.21525e-07
-1.18595e-06
3.61361e-07
1.32457e-06
-9.98308e-07
-7.85028e-07
-3.84068e-07
-1.11998e-06
5.80766e-08
5.11962e-07
-7.51597e-08
1.23616e-07
-1.36714e-07
1.38654e-07
-1.06045e-06
-8.85098e-07
4.59344e-07
-4.7705e-07
3.15192e-07
7.16027e-07
6.74406e-07
5.59896e-07
-9.22372e-08
-8.85677e-07
-8.18771e-07
-1.20872e-06
-6.15093e-07
1.76583e-07
-9.05814e-08
-1.09787e-06
-7.75593e-07
4.37812e-07
-1.87961e-06
-6.38982e-07
5.6538e-08
1.54264e-07
-2.5086e-07
9.37399e-08
-4.16254e-07
-8.28503e-08
6.53481e-07
3.14718e-07
2.42244e-07
3.8472e-07
-1.1514e-06
3.41997e-07
-7.34287e-07
-5.0214e-07
-3.53555e-07
3.13921e-07
-4.20796e-07
-4.37351e-08
1.14755e-06
3.58962e-07
8.59036e-07
7.0943e-07
4.64156e-07
-7.96524e-08
-2.54616e-08
6.77051e-07
2.56368e-07
-8.74387e-07
-2.49931e-07
5.31469e-08
-3.44415e-07
-4.44167e-07
5.76103e-07
2.93782e-07
4.33483e-07
-1.96769e-07
-3.26763e-07
-7.54998e-07
-5.10209e-07
1.63593e-07
-8.05839e-08
-2.78564e-08
-4.91656e-07
2.14625e-07
-4.54199e-07
7.28724e-07
4.38523e-07
-7.26434e-07
3.80905e-07
2.63051e-07
-5.54185e-07
3.88219e-07
-1.46611e-08
-9.21475e-07
-9.0116e-07
-9.98197e-08
-2.21157e-07
-1.05448e-06
-6.84226e-07
-3.16892e-07
3.26969e-07
-3.56203e-07
5.10685e-07
-4.8711e-07
4.36283e-07
1.05213e-06
7.31155e-07
1.72004e-07
1.2873e-06
7.64251e-07
-8.29841e-08
6.4049e-07
3.56686e-07
8.82318e-07
1.80088e-06
-5.15986e-07
-9.0376e-09
5.21108e-07
-1.20165e-06
-9.54018e-07
-6.29193e-07
7.44937e-08
-3.28811e-07
4.34411e-07
-1.17284e-06
-8.3485e-07
2.46441e-07
-5.53518e-07
5.13764e-07
8.91911e-07
-1.71607e-07
-1.51861e-06
-1.50578e-06
-1.66882e-06
1.43173e-06
7.41461e-07
5.77206e-08
2.46232e-07
7.49509e-07
-8.72458e-07
5.88208e-07
1.93253e-07
1.61314e-09
3.41693e-07
6.75012e-07
5.34252e-07
1.05056e-06
3.5762e-07
6.27926e-07
6.43988e-07
4.40775e-07
-2.53005e-07
3.75764e-07
5.17439e-07
-2.21145e-07
-3.03251e-07
5.86166e-07
-3.38899e-07
-1.30572e-07
-1.42113e-06
-6.81756e-07
-4.98891e-07
-2.22109e-07
9.78161e-07
1.83048e-07
-3.12137e-07
3.24179e-07
-8.64233e-07
6.88283e-07
-5.63229e-08
-1.35485e-06
5.3447e-07
-3.70318e-07
9.12443e-07
-2.5064e-08
-6.73245e-07
-2.28631e-07
-3.72423e-07
-1.21741e-06
-1.96153e-06
4.37312e-07
-3.12201e-07
-1.01715e-06
-9.95295e-07
8.94656e-07
-7.6948e-07
4.06849e-07
1.12212e-06
-2.04289e-07
4.87265e-07
1.8398e-07
8.80743e-07
8.46163e-07
1.42332e-06
1.79416e-09
-8.30069e-07
5.37655e-08
1.66645e-06
1.19986e-06
1.06637e-06
8.70059e-07
-9.45509e-07
2.38852e-08
1.81489e-07
5.34472e-07
-9.62821e-08
1.37521e-07
-9.42989e-07
-6.15772e-07
3.18062e-07
-2.48433e-07
-7.27076e-09
-3.90024e-07
-3.61226e-07
5.04972e-07
1.12739e-07
4.72708e-07
1.0546e-07
1.14781e-07
-4.53311e-07
-8.00972e-07
4.3298e-07
-3.22551e-07
-3.87024e-07
7.46648e-07
7.56481e-07
-5.18479e-07
4.67665e-07
5.3789e-07
-3.84246e-07
-8.01133e-07
-6.84937e-07
-1.16652e-06
-1.35619e-06
-1.91023e-06
-7.76634e-07
-1.67746e-06
-2.7099e-07
-1.94583e-07
-1.26658e-06
2.86956e-07
-7.94549e-07
-5.43008e-07
4.90003e-07
8.91707e-07
-5.53867e-07
-3.07135e-07
-2.91252e-07
1.75976e-06
-1.86009e-07
6.62974e-07
2.27977e-07
8.38949e-07
-3.86753e-08
-8.07992e-07
7.25943e-08
4.83607e-07
6.84974e-07
1.92803e-06
-2.15285e-07
-7.73005e-08
5.34332e-07
1.89428e-06
1.0076e-06
3.5048e-07
1.46576e-07
2.09903e-08
4.04422e-07
-5.92164e-08
6.04436e-08
-9.07767e-07
1.4333e-07
-9.36401e-07
-1.1014e-06
-1.41353e-06
-7.30368e-07
-2.36541e-07
8.26959e-07
2.77038e-07
-2.89254e-07
-9.50726e-07
-6.70745e-07
3.89717e-07
-5.86404e-07
-1.84658e-06
-2.42723e-07
-7.15865e-09
8.7073e-07
1.87404e-07
7.99224e-07
8.44715e-07
3.00593e-07
8.34775e-07
1.33116e-06
1.3934e-06
1.03146e-07
3.60361e-07
5.38612e-07
1.08645e-06
2.47959e-07
6.7928e-08
3.06678e-07
1.65085e-06
1.16919e-07
-2.32715e-07
1.21885e-07
6.51692e-07
3.14423e-07
9.95401e-07
5.52622e-07
-2.7727e-07
-5.09244e-07
1.34196e-06
7.18751e-08
6.79878e-08
9.63297e-07
4.23737e-07
-8.69811e-07
8.6713e-07
1.31203e-07
8.54199e-07
8.25523e-08
4.08552e-07
4.55029e-07
-1.92068e-07
-1.03173e-06
-1.35569e-07
2.83073e-07
-4.62942e-07
3.07452e-07
-4.27168e-07
-1.10033e-06
-7.61645e-09
-1.03142e-06
2.96205e-07
-1.67233e-06
-2.05311e-06
-7.10871e-07
-9.13579e-07
1.87034e-07
-1.41915e-07
-1.59237e-06
-2.2097e-07
9.15149e-07
-3.33538e-07
-1.56388e-06
1.10032e-07
-6.39338e-07
-1.21045e-07
6.8749e-08
4.94245e-07
-1.444e-06
-4.36936e-07
-1.46705e-06
4.25025e-07
-3.4187e-07
-1.06231e-07
4.50487e-07
5.45209e-07
1.25851e-06
-1.00428e-06
8.42534e-07
-1.68092e-07
8.64184e-07
1.43803e-06
1.42526e-06
1.59375e-06
1.46951e-06
1.60732e-06
-1.31108e-07
2.17686e-06
3.24312e-07
2.77635e-07
-2.01075e-08
4.11562e-08
-5.56213e-07
-5.18841e-07
-4.33739e-07
-1.18679e-06
-3.2035e-08
-1.03471e-07
7.64451e-07
-9.59136e-07
3.28323e-07
-2.03204e-08
2.84815e-07
-2.16284e-06
-2.68126e-07
-1.33809e-07
-8.28777e-07
-3.95336e-07
-5.79629e-07
1.13671e-06
-1.5167e-06
-1.29135e-06
-7.08795e-07
5.22208e-08
1.29764e-06
7.66863e-07
1.51923e-06
1.16361e-07
4.03371e-07
8.01779e-07
8.2677e-07
6.99454e-07
1.42364e-06
8.36172e-07
-8.37052e-07
-3.39103e-07
-1.42788e-06
-1.96991e-07
-2.85121e-07
-1.06367e-06
5.9664e-07
-1.56119e-06
-5.57604e-07
-1.57149e-06
-1.23971e-06
-6.40961e-07
1.30562e-06
2.56747e-07
2.34595e-07
1.26012e-06
1.26857e-06
8.47859e-07
-1.12965e-07
8.47671e-07
-7.43108e-07
-7.34328e-07
1.10682e-06
-1.01717e-06
9.42796e-07
-5.25149e-07
3.36643e-07
-3.49833e-07
1.10983e-07
-1.09191e-06
3.03657e-07
-1.99626e-07
6.64359e-07
7.13875e-07
-2.28017e-07
-9.48013e-07
1.0979e-06
1.40204e-06
3.38312e-07
5.39575e-07
-3.85032e-07
5.31565e-07
-6.7227e-07
-1.29664e-06
-3.29246e-07
-7.08745e-07
-1.36704e-06
-1.18592e-07
-1.17709e-06
-2.80193e-07
-1.27346e-06
-7.75291e-07
-1.22115e-06
-8.79294e-07
-1.22738e-06
-1.55455e-06
-9.84638e-07
-1.07374e-06
-1.03479e-07
-4.89497e-07
6.35335e-08
9.10489e-07
1.70945e-06
1.60226e-06
2.13515e-06
1.70636e-06
7.80817e-07
1.00111e-06
1.43414e-06
3.49033e-07
5.42352e-08
9.32316e-07
1.95978e-07
-4.08945e-07
1.01413e-07
1.56525e-08
7.79408e-07
4.46076e-07
-1.09713e-06
-8.29667e-07
-7.07317e-07
1.15492e-06
5.24594e-07
-3.09866e-07
-3.37909e-07
-3.07621e-07
-4.60178e-07
6.63979e-08
-1.26035e-06
4.24849e-08
-3.09574e-07
-3.815e-07
4.7328e-07
-1.48829e-07
1.6921e-07
2.60248e-07
4.99273e-07
7.48267e-08
-3.50663e-07
2.68504e-08
4.02558e-07
-2.30858e-07
-3.53996e-07
-7.24707e-07
-1.31776e-06
-2.38923e-07
-2.05312e-07
5.6039e-08
-1.01433e-06
2.07079e-07
-6.10644e-07
7.55778e-07
-6.3331e-07
6.65369e-07
-2.9429e-07
-1.2141e-06
-9.02367e-07
1.26865e-06
1.43175e-07
-3.1435e-07
-5.29427e-07
1.03271e-06
-5.59888e-07
-9.75703e-07
-6.5918e-07
2.60296e-07
-7.43823e-07
-1.00676e-06
7.27591e-07
8.57643e-08
-8.10016e-07
-5.76478e-07
5.056e-07
1.4323e-07
1.07804e-06
3.80369e-07
1.6099e-07
-7.00062e-07
8.59956e-07
7.15272e-07
1.3107e-06
1.81771e-08
3.50611e-07
4.01007e-07
-1.03911e-06
6.94436e-07
1.3288e-06
1.63665e-06
5.05858e-07
3.32106e-07
1.31472e-06
1.34802e-06
1.07192e-06
-7.03105e-08
1.72218e-07
2.54286e-07
6.41649e-07
-5.00016e-08
1.38119e-06
1.55638e-06
6.48605e-07
4.36795e-07
4.97776e-07
5.12722e-07
-6.39542e-07
-3.05044e-07
-1.03446e-06
-1.11443e-06
-6.8968e-07
-8.46328e-07
1.35357e-06
-1.13411e-06
-1.05026e-06
-5.83541e-07
-1.01009e-06
-5.29512e-07
-9.51357e-07
-3.18931e-07
-7.10237e-07
-1.33234e-06
-7.19363e-08
2.94308e-07
7.86039e-07
-4.42016e-07
-4.50249e-07
-1.05202e-06
-4.92711e-07
5.33648e-08
-7.14327e-07
-2.82877e-07
5.3023e-07
-7.81607e-07
2.3827e-07
-6.454e-07
-4.74731e-07
-1.72985e-07
4.28181e-07
8.52946e-07
1.53145e-06
8.84596e-07
8.01298e-07
6.65255e-07
-1.10817e-07
-7.82084e-08
-2.99724e-07
1.69274e-06
8.73195e-07
1.80244e-07
3.20838e-07
-2.39103e-08
2.43991e-07
-4.6537e-07
1.69833e-07
7.68872e-07
2.61461e-07
2.63101e-07
7.84738e-07
6.68483e-07
1.00608e-06
-1.15663e-06
-8.55578e-07
7.12455e-07
2.68448e-07
4.67181e-08
6.84876e-07
3.31657e-07
2.77411e-07
-4.73548e-08
-9.38271e-07
-5.71973e-07
-3.76286e-07
7.25673e-08
-5.61509e-08
-2.70605e-07
-1.89585e-07
-1.67823e-06
6.10009e-07
1.17102e-08
3.33103e-07
5.24296e-07
3.99126e-07
-8.17781e-07
-2.06292e-08
4.5418e-07
-7.1885e-09
-1.43537e-06
9.63449e-07
7.35042e-07
-1.42041e-07
7.60666e-08
2.3259e-07
1.16229e-06
7.62832e-07
-6.94144e-08
-9.05117e-07
-1.12684e-06
1.15133e-06
5.51409e-07
1.28057e-07
-3.22015e-07
-1.27315e-06
-6.22123e-07
4.45474e-07
5.58469e-07
4.13658e-07
-9.12649e-07
-2.33954e-07
8.97991e-08
-5.9497e-07
-4.15171e-08
1.55838e-07
-3.84731e-07
5.23449e-07
6.70286e-07
-3.20294e-07
7.09398e-07
6.72078e-07
6.31213e-07
-4.59399e-07
2.56654e-07
3.15445e-07
8.06954e-07
-3.30583e-07
5.77807e-07
-6.1598e-07
1.37086e-07
3.20507e-07
5.11894e-07
1.05863e-07
-4.66599e-07
-1.16082e-07
-1.13617e-06
-5.23524e-07
1.58624e-06
-9.74789e-07
-6.5795e-07
-9.86869e-07
-1.05555e-06
8.95274e-08
-9.06998e-07
-1.30261e-06
-1.30562e-07
-9.50625e-07
-2.12777e-08
2.37381e-07
3.60534e-08
-3.81649e-08
1.00198e-06
1.13374e-06
1.30304e-06
3.58331e-07
9.08152e-07
2.48707e-07
1.40765e-06
1.2064e-06
6.06213e-07
5.85511e-07
1.45011e-06
-5.07174e-07
-2.20542e-07
4.94499e-07
-1.36724e-06
3.38846e-07
-4.35915e-07
-5.64731e-07
-8.67414e-07
-1.18208e-06
-7.89544e-07
-9.37891e-07
4.20359e-07
-1.41854e-06
-1.03582e-06
-6.97641e-07
3.31055e-07
1.83205e-07
-3.44426e-07
1.9424e-07
2.25978e-07
5.58378e-07
-5.19539e-08
1.27855e-07
-7.66797e-07
4.25123e-07
-2.44156e-07
-9.81843e-07
3.42104e-07
6.85053e-07
-4.45565e-07
1.22113e-06
4.14666e-07
-5.97599e-07
3.42623e-07
4.90554e-08
-9.80128e-07
-1.21486e-06
1.49719e-06
3.99869e-07
3.46404e-07
5.3474e-07
-3.46586e-07
1.08105e-06
4.67757e-07
5.44596e-07
1.73176e-06
1.08164e-06
9.15545e-07
-3.56287e-07
1.03303e-06
-1.10882e-07
5.22033e-08
-1.04835e-06
-2.60018e-06
-1.50298e-06
-2.10864e-08
-2.12114e-07
9.84414e-08
1.39333e-06
-1.46879e-07
6.66051e-07
9.44024e-07
5.51194e-07
5.99156e-07
1.17463e-06
1.24068e-07
2.48679e-07
-1.16409e-07
-1.60583e-06
1.29178e-07
1.87849e-07
-3.89017e-07
-9.55613e-07
-1.36042e-06
6.33948e-07
-3.73875e-07
-4.61926e-07
-2.02566e-07
2.10443e-07
-1.31574e-06
6.18359e-07
-1.26244e-06
-1.53017e-07
1.47646e-06
-6.80758e-08
-4.82771e-07
6.20917e-07
-4.18476e-08
2.62384e-07
7.66472e-07
-1.25168e-07
3.14561e-07
-6.95874e-07
-3.90724e-07
-5.51574e-07
-1.06508e-06
-9.80932e-07
3.44993e-07
-1.17911e-06
-5.13517e-07
1.37269e-08
-5.82014e-07
-2.10444e-07
-3.83059e-07
5.03404e-07
-9.43699e-07
-7.65871e-07
1.44762e-07
6.12957e-09
8.60576e-07
4.62486e-07
-8.99925e-07
-4.65056e-07
1.62349e-06
8.59167e-07
4.11105e-07
-5.66234e-08
-2.10631e-06
-5.93948e-07
-4.25339e-07
-5.67438e-07
-4.61128e-07
3.7413e-07
7.43105e-07
1.161e-06
-3.14457e-07
3.2789e-07
2.03078e-07
-4.00026e-07
-3.76211e-07
3.04018e-07
-9.88103e-07
-9.50043e-10
-5.12802e-07
3.28284e-07
-6.74132e-07
2.29328e-07
-2.32887e-07
-3.93797e-07
-3.59133e-08
1.13173e-06
4.37063e-07
3.79224e-07
3.20036e-07
-5.21854e-07
4.22226e-07
-4.67885e-07
-2.94078e-08
9.4277e-07
7.04396e-07
-1.20387e-07
6.60405e-08
-5.666e-07
5.83958e-07
5.5779e-07
5.43023e-07
1.68397e-06
9.07684e-07
1.28032e-06
9.12206e-08
-1.36253e-07
2.6186e-07
-1.83668e-07
-3.25469e-07
1.41477e-07
2.90437e-07
-5.19666e-07
-1.18101e-06
-1.12884e-07
-1.99389e-06
9.24947e-08
6.43821e-08
-8.29207e-07
-3.72743e-07
8.8086e-07
7.72043e-07
1.46407e-06
9.53418e-07
5.66068e-07
5.19717e-07
-6.41152e-07
-2.67181e-07
8.88216e-07
-1.0244e-06
2.52972e-07
-3.45802e-07
-1.17367e-06
-1.95755e-07
-1.11574e-06
1.57523e-06
1.03226e-08
2.43103e-07
1.0349e-07
-8.34032e-08
8.06772e-08
-1.16817e-06
3.02643e-07
-8.88934e-07
-3.74965e-07
-1.46259e-06
-4.12463e-07
-1.6145e-07
-9.58076e-07
6.84144e-07
4.64883e-08
7.35787e-07
8.97857e-07
5.49753e-07
-5.44489e-07
6.16304e-07
5.07486e-07
-1.91811e-07
1.583e-07
6.98803e-07
-3.1764e-07
-5.31376e-07
3.86805e-07
-2.84564e-07
1.92627e-07
-5.89679e-07
1.31559e-07
3.90881e-07
4.57013e-07
4.87632e-07
2.36393e-07
6.82833e-07
-4.18964e-07
3.64475e-07
-5.81266e-07
5.18248e-07
1.37296e-06
-1.14784e-06
-1.16123e-06
-5.43146e-07
-3.93783e-07
-1.13341e-06
6.54439e-08
-6.69669e-07
2.45535e-07
-7.45929e-07
1.17354e-08
-5.98502e-07
1.5965e-07
1.29194e-06
4.17458e-07
7.25574e-07
-9.17664e-07
-4.81874e-07
2.21732e-07
1.08607e-06
-1.0867e-07
-1.25927e-06
-1.02925e-06
-1.90554e-06
-5.53896e-07
-1.02667e-06
-4.19898e-07
6.92927e-07
1.46979e-06
1.05348e-06
9.97802e-07
-6.50478e-08
6.74609e-08
1.19152e-06
1.47313e-07
2.41466e-07
1.09809e-06
3.04253e-07
8.5104e-07
2.54663e-07
-4.94587e-07
-8.35474e-07
4.33135e-07
1.00988e-06
9.75942e-07
-6.85121e-07
-1.07592e-06
-1.13892e-06
-8.18664e-08
-4.46391e-07
8.67669e-07
-3.75181e-07
-1.4809e-06
5.97905e-07
-3.65315e-07
3.17525e-07
6.8201e-08
4.32157e-07
8.57644e-07
8.41163e-07
-4.37832e-07
1.1293e-06
-1.2511e-08
-9.02122e-07
3.0999e-08
7.0003e-07
-4.1875e-07
1.16869e-07
-1.44403e-06
2.86143e-07
-1.68785e-07
6.21937e-08
-9.08492e-07
1.62157e-07
-3.52012e-07
-5.77045e-07
1.12108e-06
5.9786e-07
7.50937e-07
6.12473e-07
7.43253e-07
3.85645e-07
-3.63694e-08
-3.49478e-07
-2.45544e-07
-7.26231e-07
-3.7117e-07
1.08661e-07
1.03733e-07
-3.34077e-07
-3.93374e-07
-1.41908e-07
-4.93156e-07
-1.45866e-06
-7.8995e-09
-1.04223e-06
-1.59175e-06
-6.91577e-07
-1.03232e-06
-7.4818e-07
-6.08618e-08
5.06516e-07
-1.61619e-07
-6.09459e-07
2.41545e-07
8.55309e-07
-5.11049e-07
-1.3946e-07
6.41773e-07
5.88993e-07
7.13974e-07
3.7645e-07
7.49298e-07
1.21792e-06
-1.36286e-06
1.14893e-06
9.28804e-07
1.90247e-07
-7.15008e-07
6.42162e-08
2.91004e-07
5.37746e-07
9.40077e-07
-8.23139e-07
3.91638e-07
6.43095e-07
1.31041e-07
-1.43244e-07
3.52433e-07
1.17278e-06
5.44963e-07
5.56464e-07
-2.60715e-07
-4.98055e-07
-6.39375e-07
-1.38284e-07
-1.40191e-06
-6.18813e-07
-1.0346e-06
-7.68365e-07
-1.51722e-06
-1.40166e-06
-4.76188e-07
-7.31962e-07
9.04181e-08
-7.01337e-07
-5.93804e-07
6.93429e-07
-4.92155e-07
4.56064e-07
3.36575e-08
-1.37088e-08
1.53159e-06
3.79967e-07
1.71378e-08
-1.32831e-07
9.64966e-07
1.48277e-06
-2.98884e-07
-6.07873e-07
-6.02562e-07
-4.54052e-08
1.26882e-06
6.06942e-07
8.952e-07
1.229e-06
1.15765e-06
9.51834e-07
1.19774e-06
3.49404e-07
5.47929e-07
-5.99353e-07
-4.08784e-07
-7.80152e-07
8.70022e-08
-5.46966e-07
1.34525e-07
-8.0737e-07
-4.74109e-07
1.98577e-07
3.12439e-07
-7.35911e-08
5.71631e-07
5.52947e-07
3.86011e-07
1.60226e-08
-4.31688e-07
-1.3805e-06
-8.18718e-07
-1.03157e-06
2.02663e-07
-1.19918e-06
-1.08028e-06
1.90594e-07
-3.23454e-07
-7.32957e-07
5.02744e-07
4.82587e-07
-9.47891e-07
-5.09436e-07
1.92288e-07
-1.49249e-07
-5.22034e-07
-1.01578e-06
-2.43861e-07
1.36901e-06
6.07477e-07
1.04683e-06
9.13375e-07
-4.76833e-07
4.50551e-07
-1.62798e-07
4.83774e-07
6.48291e-07
-3.54956e-07
-3.7946e-07
-8.22589e-07
-8.29572e-07
2.8542e-07
-7.11204e-07
1.46391e-07
-8.61801e-07
-4.78922e-07
-1.79821e-07
-5.52261e-07
1.68221e-07
-2.34332e-07
-4.93095e-07
-8.37662e-07
-7.28452e-10
-1.77009e-07
1.03345e-07
-4.07204e-07
-6.81033e-07
5.88368e-07
-6.95526e-07
3.68253e-07
1.97544e-07
4.77476e-07
-8.77312e-07
-2.58208e-07
-9.87016e-07
-1.05598e-06
1.74342e-07
-2.00523e-07
-7.39347e-07
1.95679e-07
-5.61196e-07
-1.82726e-07
-4.60214e-07
5.54068e-07
-9.43137e-08
-7.46307e-07
-1.79005e-06
-2.22755e-07
-1.04386e-06
-1.71376e-06
3.32138e-07
-1.60804e-06
-7.55916e-07
3.89777e-07
2.87769e-07
5.07037e-07
1.48857e-07
3.44648e-07
-7.70144e-07
-1.48817e-06
-1.80531e-06
-9.61038e-07
-4.3401e-07
-3.65774e-07
8.65819e-07
-6.02747e-08
-3.63452e-07
1.91523e-06
7.52586e-08
5.71282e-07
1.13233e-06
1.34323e-06
7.53124e-07
8.66999e-07
1.11481e-06
9.71728e-07
1.08594e-06
1.02166e-06
1.6501e-06
2.46178e-06
1.1912e-06
6.82029e-07
1.57387e-06
1.05238e-06
1.40495e-06
7.1936e-07
1.19263e-06
4.19251e-07
-1.18738e-06
3.6528e-07
8.11884e-07
5.16281e-07
-7.3727e-07
-1.46626e-06
-1.56176e-06
-1.06893e-06
-1.04733e-06
6.92925e-07
-4.22099e-07
-1.27556e-06
-5.09434e-07
-5.91669e-07
-8.91459e-07
1.46991e-07
4.80612e-08
1.46922e-07
-4.31681e-07
-2.5784e-07
8.25745e-08
-1.85001e-07
5.31079e-09
4.73345e-08
-4.24007e-07
-3.56273e-07
-1.4645e-06
-9.81431e-07
-3.85631e-07
1.12805e-06
7.97179e-07
5.22258e-07
5.74025e-07
-4.17218e-07
2.15755e-07
-8.61078e-07
-3.27647e-07
-5.39414e-08
7.40953e-07
1.99725e-07
1.37081e-06
1.22378e-06
1.87934e-07
1.40841e-06
1.30055e-06
1.01432e-06
2.46465e-06
3.56995e-06
3.94449e-06
6.42982e-06
6.76415e-06
8.9266e-06
1.31563e-05
1.76816e-05
2.35201e-05
3.2786e-05
4.39447e-05
5.98197e-05
8.33242e-05
0.000113692
0.000153066
0.000208268
0.000281786
0.000382695
0.000516007
0.000696106
0.000936785
0.00125878
0.0016889
0.00226349
0.00302738
0.00404203
0.00538805
0.00717136
0.00952832
0.0126398
0.0167381
0.0221262
0.0292004
0.0384709
0.0505945
0.0664257
0.0870544
0.113885
0.148721
0.193864
0.25225
0.327617
0.424718
0.549569
0.709788
0.914976
1.17722
1.51171
1.93744
2.47818
3.16355
4.03035
5.12425
6.50169
8.23233
10.4018
13.1153
16.5012
20.7163
25.9513
32.4371
40.4532
50.3358
62.489
77.396
95.6334
117.886
144.965
177.827
217.595
265.585
323.328
392.601
475.458
574.256
691.694
830.84
995.167
1188.58
1415.45
1680.64
1989.48
2347.87
2762.16
3239.23
3786.43
4411.51
5122.58
5928.03
6836.38
7856.2
8995.9
10263.6
11666.8
13212.5
14906.4
16753.4
18756.6
20917.6
23236.3
25710.3
28335.4
31105
34010.3
37040.4
40182.4
43421.5
46741.1
50123.7
53550.5
57002.4
60459.7
63903.4
67314.8
70676.3
73971.4
77185.2
80304.8
83318.6
86217.5
88994.1
91642.9
94160.3
96544.4
98794.9
100913
102900
104759
106496
108113
109618
111014
112309
113509
114619
115645
116593
117469
118277
119023
119710
120344
120928
121467
121962
122419
122839
123226
123581
123908
124208
124484
124736
124968
125180
125373
125550
125711
125857
125989
126109
126217
126314
126400
126477
126545
126605
126657
126701
126739
126770
126795
126814
126828
126837
126841
126841
126837
126829
126817
126801
126783
126761
126737
126710
126680
126647
126613
126576
126538
126497
126454
126410
126364
126317
126268
126218
126166
126113
126059
126004
125948
125890
125832
125773
125713
125652
125590
125528
125464
125401
125336
125271
125205
125139
125072
125004
124936
124868
124799
124729
124659
124589
124518
124447
124376
124304
124232
124159
124086
124013
123940
123866
123792
123717
123642
123567
123492
123416
123341
123265
123188
123112
123035
122958
122880
122803
122725
122647
122569
122491
122412
122333
122254
122175
122095
122016
121936
121856
121776
121695
121615
121534
121453
121372
121291
121209
121127
121046
120964
120882
120799
120717
120634
120551
120468
120385
120302
120219
120135
120051
119967
119883
119799
119715
119631
119546
119461
119377
119292
119207
119121
119036
118951
118865
118780
118694
118608
118522
118436
118350
118263
118177
118090
118004
117917
117830
117743
117656
117569
117482
117395
117308
117220
117133
117045
116957
116870
116782
116694
116606
116518
116430
116342
116254
116166
116077
115989
115900
115812
115724
115635
115546
115458
115369
115280
115191
115103
115014
114925
114836
114747
114658
114569
114480
114391
114301
114212
114123
114034
113945
113855
113766
113677
113588
113498
113409
113319
113230
113141
113051
112962
112872
112783
112694
112604
112515
112425
112336
112246
112157
112067
111978
111888
111799
111710
111620
111531
111441
111352
111262
111173
111083
110994
110905
110815
110726
110636
110547
110458
110368
110279
110190
110100
110011
109922
109832
109743
109654
109565
109476
109386
109297
109208
109119
109030
108941
108852
108763
108674
108585
108496
108407
108318
108229
108140
108051
107962
107873
107785
107696
107607
107518
107430
107341
107253
107164
107075
106987
106898
106810
106721
106633
106545
106456
106368
106280
106191
106103
106015
105927
105838
105750
105662
105574
105486
105398
105310
105222
105134
105047
104959
104871
104783
104696
104608
104520
104433
104345
104257
104170
104083
103995
103908
103820
103733
103646
103558
103471
103384
103297
103210
103123
103036
102949
102862
102775
102688
102601
102514
102428
102341
102254
102168
102081
101994
101908
101821
101735
101648
101562
101476
101389
101303
101217
101131
101045
100959
100873
100787
100701
100615
100529
100443
100357
100271
100186
100100
100014
99928.7
99843.1
99757.6
99672.1
99586.7
99501.3
99416
99330.6
99245.4
99160.2
99075
98989.8
98904.7
98819.7
98734.7
98649.7
98564.8
98479.9
98395
98310.2
98225.5
98140.7
98056.1
97971.4
97886.9
97802.3
97717.8
97633.4
97548.9
97464.6
97380.2
97296
97211.7
97127.5
97043.4
96959.2
96875.2
96791.2
96707.2
96623.2
96539.3
96455.5
96371.7
96287.9
96204.2
96120.5
96036.9
95953.3
95869.8
95786.3
95702.8
95619.4
95536.1
95452.7
95369.5
95286.2
95203
95119.9
95036.8
94953.7
94870.7
94787.8
94704.8
94622
94539.1
94456.4
94373.6
94290.9
94208.3
94125.7
94043.1
93960.6
93878.1
93795.7
93713.3
93630.9
93548.7
93466.4
93384.2
93302
93219.9
93137.9
93055.8
92973.9
92891.9
92810
92728.2
92646.4
92564.6
92482.9
92401.3
92319.7
92238.1
92156.6
92075.1
91993.7
91912.3
91830.9
91749.6
91668.4
91587.2
91506
91424.9
91343.8
91262.8
91181.8
91100.9
91020
90939.1
90858.3
90777.6
90696.9
90616.2
90535.6
90455
90374.5
90294
90213.6
90133.2
90052.9
89972.6
89892.3
89812.1
89732
89651.8
89571.8
89491.8
89411.8
89331.8
89252
89172.1
89092.3
89012.6
88932.9
88853.2
88773.6
88694.1
88614.5
88535.1
88455.6
88376.3
88296.9
88217.6
88138.4
88059.2
87980
87900.9
87821.9
87742.9
87663.9
87585
87506.1
87427.3
87348.5
87269.7
87191.1
87112.4
87033.8
86955.3
86876.7
86798.3
86719.9
86641.5
86563.2
86484.9
86406.7
86328.5
86250.3
86172.2
86094.2
86016.2
85938.2
85860.3
85782.5
85704.6
85626.9
85549.1
85471.5
85393.8
85316.2
85238.7
85161.2
85083.7
85006.3
84929
84851.7
84774.4
84697.2
84620
84542.9
84465.8
84388.7
84311.8
84234.8
84157.9
84081.1
84004.2
83927.5
83850.8
83774.1
83697.5
83620.9
83544.4
83467.9
83391.4
83315
83238.7
83162.4
83086.1
83009.9
82933.7
82857.6
82781.5
82705.5
82629.5
82553.6
82477.7
82401.9
82326.1
82250.3
82174.6
82098.9
82023.3
81947.8
81872.2
81796.7
81721.3
81645.9
81570.6
81495.3
81420
81344.8
81269.7
81194.6
81119.5
81044.5
80969.5
80894.6
80819.7
80744.8
80670.1
80595.3
80520.6
80445.9
80371.3
80296.8
80222.3
80147.8
80073.4
79999
79924.6
79850.3
79776.1
79701.9
79627.7
79553.6
79479.6
79405.6
79331.6
79257.7
79183.8
79109.9
79036.2
78962.4
78888.7
78815.1
78741.4
78667.9
78594.4
78520.9
78447.5
78374.1
78300.8
78227.5
78154.2
78081
78007.9
77934.8
77861.7
77788.7
77715.7
77642.8
77569.9
77497.1
77424.3
77351.5
77278.8
77206.2
77133.6
77061
76988.5
76916
76843.6
76771.2
76698.9
76626.6
76554.3
76482.1
76410
76337.8
76265.8
76193.8
76121.8
76049.8
75978
75906.1
75834.3
75762.6
75690.9
75619.2
75547.6
75476
75404.5
75333
75261.6
75190.2
75118.8
75047.5
74976.3
74905.1
74833.9
74762.8
74691.7
74620.7
74549.7
74478.7
74407.8
74337
74266.2
74195.4
74124.7
74054
73983.4
73912.8
73842.3
73771.8
73701.3
73630.9
73560.6
73490.3
73420
73349.8
73279.6
73209.4
73139.4
73069.3
72999.3
72929.4
72859.4
72789.6
72719.7
72650
72580.2
72510.5
72440.9
72371.3
72301.7
72232.2
72162.8
72093.3
72024
71954.6
71885.3
71816.1
71746.9
71677.7
71608.6
71539.5
71470.5
71401.5
71332.6
71263.7
71194.9
71126.1
71057.3
70988.6
70919.9
70851.3
70782.7
70714.2
70645.7
70577.2
70508.8
70440.5
70372.2
70303.9
70235.7
70167.5
70099.3
70031.3
69963.2
69895.2
69827.2
69759.3
69691.4
69623.6
69555.8
69488.1
69420.4
69352.7
69285.1
69217.5
69150
69082.5
69015.1
68947.7
68880.4
68813.1
68745.8
68678.6
68611.4
68544.3
68477.2
68410.2
68343.2
68276.2
68209.3
68142.4
68075.6
68008.8
67942.1
67875.4
67808.7
67742.1
67675.6
67609.1
67542.6
67476.2
67409.8
67343.4
67277.1
67210.9
67144.7
67078.5
67012.4
66946.3
66880.2
66814.2
66748.3
66682.4
66616.5
66550.7
66484.9
66419.2
66353.5
66287.8
66222.2
66156.7
66091.2
66025.7
65960.2
65894.9
65829.5
65764.2
65698.9
65633.7
65568.6
65503.4
65438.3
65373.3
65308.3
65243.3
65178.4
65113.5
65048.7
64983.9
64919.2
64854.5
64789.8
64725.2
64660.6
64596.1
64531.6
64467.2
64402.8
64338.4
64274.1
64209.8
64145.6
64081.4
64017.3
63953.2
63889.1
63825.1
63761.1
63697.2
63633.3
63569.5
63505.7
63441.9
63378.2
63314.5
63250.9
63187.3
63123.8
63060.3
62996.8
62933.4
62870
62806.7
62743.4
62680.2
62617
62553.8
62490.7
62427.6
62364.6
62301.6
62238.6
62175.7
62112.8
62050
61987.2
61924.5
61861.8
61799.1
61736.5
61674
61611.4
61548.9
61486.5
61424.1
61361.7
61299.4
61237.2
61174.9
61112.7
61050.6
60988.5
60926.4
60864.4
60802.4
60740.5
60678.6
60616.7
60554.9
60493.1
60431.4
60369.7
60308.1
60246.5
60184.9
60123.4
60061.9
60000.5
59939.1
59877.7
59816.4
59755.2
59693.9
59632.8
59571.6
59510.5
59449.5
59388.4
59327.5
59266.5
59205.6
59144.8
59084
59023.2
58962.5
58901.8
58841.2
58780.6
58720
58659.5
58599
58538.6
58478.2
58417.8
58357.5
58297.2
58237
58176.8
58116.7
58056.6
57996.5
57936.5
57876.5
57816.6
57756.7
57696.8
57637
57577.2
57517.5
57457.8
57398.1
57338.5
57279
57219.4
57160
57100.5
57041.1
56981.7
56922.4
56863.1
56803.9
56744.7
56685.5
56626.4
56567.4
56508.3
56449.3
56390.4
56331.5
56272.6
56213.8
56155
56096.2
56037.5
55978.9
55920.2
55861.6
55803.1
55744.6
55686.1
55627.7
55569.3
55511
55452.7
55394.4
55336.2
55278
55219.9
55161.8
55103.7
55045.7
54987.7
54929.8
54871.9
54814.1
54756.2
54698.5
54640.7
54583
54525.4
54467.8
54410.2
54352.7
54295.2
54237.7
54180.3
54123
54065.6
54008.3
53951.1
53893.9
53836.7
53779.6
53722.5
53665.5
53608.4
53551.5
53494.6
53437.7
53380.8
53324
53267.2
53210.5
53153.8
53097.2
53040.6
52984
52927.5
52871
52814.6
52758.1
52701.8
52645.5
52589.2
52532.9
52476.7
52420.5
52364.4
52308.3
52252.3
52196.3
52140.3
52084.4
52028.5
51972.6
51916.8
51861.1
51805.3
51749.6
51694
51638.4
51582.8
51527.3
51471.8
51416.3
51360.9
51305.5
51250.2
51194.9
51139.7
51084.4
51029.3
50974.1
50919
50864
50809
50754
50699
50644.1
50589.3
50534.5
50479.7
50424.9
50370.2
50315.6
50260.9
50206.3
50151.8
50097.3
50042.8
49988.4
49934
49879.7
49825.3
49771.1
49716.8
49662.6
49608.5
49554.4
49500.3
49446.2
49392.2
49338.3
49284.4
49230.5
49176.6
49122.8
49069.1
49015.3
48961.6
48908
48854.4
48800.8
48747.3
48693.8
48640.3
48586.9
48533.5
48480.2
48426.9
48373.6
48320.4
48267.2
48214.1
48161
48107.9
48054.9
48001.9
47948.9
47896
47843.1
47790.3
47737.5
47684.7
47632
47579.3
47526.7
47474.1
47421.5
47369
47316.5
47264
47211.6
47159.2
47106.9
47054.6
47002.3
46950.1
46897.9
46845.8
46793.7
46741.6
46689.6
46637.6
46585.6
46533.7
46481.8
46430
46378.2
46326.4
46274.7
46223
46171.4
46119.7
46068.2
46016.6
45965.1
45913.7
45862.2
45810.9
45759.5
45708.2
45656.9
45605.7
45554.5
45503.3
45452.2
45401.1
45350.1
45299.1
45248.1
45197.2
45146.3
45095.4
45044.6
44993.8
44943.1
44892.4
44841.7
44791.1
44740.5
44689.9
44639.4
44588.9
44538.5
44488.1
44437.7
44387.4
44337.1
44286.9
44236.6
44186.5
44136.3
44086.2
44036.1
43986.1
43936.1
43886.2
43836.2
43786.4
43736.5
43686.7
43636.9
43587.2
43537.5
43487.9
43438.2
43388.7
43339.1
43289.6
43240.1
43190.7
43141.3
43091.9
43042.6
42993.3
42944.1
42894.9
42845.7
42796.5
42747.4
42698.4
42649.4
42600.4
42551.4
42502.5
42453.6
42404.8
42356
42307.2
42258.5
42209.8
42161.1
42112.5
42063.9
42015.4
41966.8
41918.4
41869.9