/*--------------------------------*- C++ -*----------------------------------*\
  =========                 |
  \\      /  F ield         | OpenFOAM: The Open Source CFD Toolbox
   \\    /   O peration     | Website:  https://openfoam.org
    \\  /    A nd           | Version:  9
     \\/     M anipulation  |
\*---------------------------------------------------------------------------*/
FoamFile
{
    format      ascii;
    class       surfaceScalarField;
    location    "0.009";
    object      phi_0;
}
// * * * * * * * * * * * * * * * * * * * * * * * * * * * * * * * * * * * * * //

dimensions      [1 0 -1 0 0 0 0];

internalField   nonuniform List<scalar> 
9999
(
-4.1382e-11
-4.16378e-11
-4.39968e-11
-4.35705e-11
-4.24905e-11
-4.13252e-11
-4.29168e-11
-4.18368e-11
-4.22915e-11
-4.61e-11
-4.91696e-11
-5.36318e-11
-5.35465e-11
-5.09885e-11
-5.0818e-11
-5.16422e-11
-4.88001e-11
-4.87432e-11
-5.16991e-11
-4.99938e-11
-4.83169e-11
-4.56453e-11
-4.71516e-11
-4.91696e-11
-4.72653e-11
-4.87717e-11
-4.86011e-11
-5.09601e-11
-5.00222e-11
-4.88285e-11
-4.73221e-11
-4.62705e-11
-4.63842e-11
-4.50768e-11
-4.80043e-11
-4.8658e-11
-4.56453e-11
-4.47926e-11
-4.65832e-11
-4.71516e-11
-4.76348e-11
-5.03348e-11
-4.97664e-11
-5.06191e-11
-5.11591e-11
-5.05622e-11
-4.8459e-11
-5.32339e-11
-5.52234e-11
-5.8634e-11
-5.99414e-11
-6.05382e-11
-6.21299e-11
-6.26414e-11
-6.09646e-11
-6.23288e-11
-6.23004e-11
-6.18456e-11
-5.77245e-11
-5.55644e-11
-5.32907e-11
-5.06191e-11
-5.14717e-11
-4.94254e-11
-4.80611e-11
-4.59863e-11
-4.52758e-11
-4.05009e-11
-3.82556e-11
-3.73745e-11
-3.40492e-11
-3.2486e-11
-3.3765e-11
-3.79714e-11
-3.86535e-11
-4.07567e-11
-4.16946e-11
-4.35705e-11
-4.05578e-11
-3.62945e-11
-3.20881e-11
-3.10365e-11
-2.54943e-11
-2.36184e-11
-2.37321e-11
-2.3249e-11
-2.32205e-11
-2.29363e-11
-2.37321e-11
-2.65459e-11
-2.38742e-11
-2.26521e-11
-2.34479e-11
-2.23679e-11
-2.25384e-11
-2.20552e-11
-2.18563e-11
-2.44711e-11
-2.50111e-11
-2.77964e-11
-3.14628e-11
-3.28555e-11
-3.38503e-11
-3.34808e-11
-3.35376e-11
-3.7204e-11
-3.66072e-11
-3.57829e-11
-3.45892e-11
-3.34808e-11
-3.04397e-11
-2.97575e-11
-2.87343e-11
-3.00417e-11
-3.11218e-11
-3.03544e-11
-3.12923e-11
-3.20028e-11
-2.95302e-11
-3.0127e-11
-3.1946e-11
-3.33387e-11
-3.41061e-11
-3.63229e-11
-3.86819e-11
-3.78293e-11
-3.94493e-11
-3.79714e-11
-3.70619e-11
-3.47882e-11
-3.60956e-11
-3.62377e-11
-3.65787e-11
-3.61808e-11
-3.64651e-11
-3.58682e-11
-3.76872e-11
-3.93072e-11
-4.17799e-11
-4.43663e-11
-4.57305e-11
-4.36557e-11
-4.30589e-11
-4.34284e-11
-4.32578e-11
-4.2462e-11
-4.07567e-11
-4.29452e-11
-4.45937e-11
-4.54179e-11
-4.45652e-11
-4.61853e-11
-4.75495e-11
-4.77201e-11
-4.88569e-11
-4.81464e-11
-4.77769e-11
-4.74074e-11
-4.78337e-11
-4.76348e-11
-4.84874e-11
-5.14717e-11
-5.32623e-11
-5.4257e-11
-5.46834e-11
-5.24381e-11
-5.02212e-11
-5.00506e-11
-4.37126e-11
-4.35705e-11
-4.57021e-11
-4.60716e-11
-4.72369e-11
-4.556e-11
-4.67821e-11
-4.75211e-11
-4.66116e-11
-4.52474e-11
-4.4821e-11
-4.77201e-11
-5.16138e-11
-5.27791e-11
-5.38307e-11
-5.72982e-11
-5.79803e-11
-6.17604e-11
-6.31246e-11
-6.28404e-11
-6.18456e-11
-6.26414e-11
-6.26699e-11
-6.0453e-11
-6.15898e-11
-6.06519e-11
-6.43468e-11
-6.30678e-11
-6.39488e-11
-6.15046e-11
-6.30394e-11
-6.22151e-11
-6.08793e-11
-5.9913e-11
-5.65308e-11
-5.70708e-11
-5.64171e-11
-5.48823e-11
-5.15286e-11
-4.99654e-11
-4.64695e-11
-4.36842e-11
-3.95062e-11
-4.04157e-11
-3.91935e-11
-3.76303e-11
-3.78861e-11
-3.93925e-11
-3.7403e-11
-3.91651e-11
-3.72609e-11
-3.76303e-11
-4.01883e-11
-4.09841e-11
-3.99325e-11
-3.85683e-11
-3.80851e-11
-3.89946e-11
-3.81704e-11
-3.99609e-11
-3.9762e-11
-3.88241e-11
-4.17515e-11
-4.46789e-11
-4.70664e-11
-4.41389e-11
-4.35136e-11
-4.46221e-11
-4.64695e-11
-4.94538e-11
-5.17275e-11
-5.51381e-11
-5.23812e-11
-5.16138e-11
-5.17559e-11
-5.12443e-11
-4.72937e-11
-4.48779e-11
-4.17799e-11
-4.23768e-11
-4.2121e-11
-4.12399e-11
-4.26894e-11
-4.45084e-11
-4.65832e-11
-4.62137e-11
-4.65548e-11
-4.556e-11
-4.72085e-11
-4.45937e-11
-4.71232e-11
-4.77769e-11
-4.72085e-11
-4.83453e-11
-4.91127e-11
-4.58726e-11
-4.39968e-11
-4.22347e-11
-4.17799e-11
-4.04441e-11
-3.71472e-11
-3.25713e-11
-2.76543e-11
-2.58069e-11
-2.37037e-11
-2.49827e-11
-2.50679e-11
-2.38742e-11
-2.20552e-11
-1.96962e-11
-1.97531e-11
-1.87015e-11
-1.8332e-11
-1.83888e-11
-1.65983e-11
-1.7053e-11
-1.61151e-11
-1.68825e-11
-1.54898e-11
-1.62572e-11
-1.64277e-11
-1.84457e-11
-1.71951e-11
-1.71099e-11
-1.93836e-11
-2.02647e-11
-1.83604e-11
-1.79057e-11
-1.51203e-11
-1.65414e-11
-1.73088e-11
-1.90425e-11
-1.98384e-11
-2.28795e-11
-2.52953e-11
-2.43574e-11
-2.20268e-11
-1.96678e-11
-2.03784e-11
-2.22258e-11
-2.17426e-11
-2.34479e-11
-2.25384e-11
-2.3789e-11
-2.359e-11
-2.62048e-11
-2.9786e-11
-3.24292e-11
-3.37366e-11
-3.2145e-11
-3.44471e-11
-3.71188e-11
-3.6863e-11
-3.9563e-11
-4.29168e-11
-4.60432e-11
-4.96243e-11
-5.43992e-11
-5.63887e-11
-5.63034e-11
-5.51097e-11
-5.70424e-11
-5.92308e-11
-5.92024e-11
-6.1334e-11
-6.08509e-11
-5.84635e-11
-5.70424e-11
-5.21538e-11
-5.11591e-11
-4.83737e-11
-4.76348e-11
-4.61569e-11
-4.3201e-11
-4.19789e-11
-4.15525e-11
-4.30589e-11
-4.49916e-11
-4.51621e-11
-5.01643e-11
-5.19833e-11
-5.19549e-11
-5.02212e-11
-5.21538e-11
-5.02496e-11
-5.26654e-11
-5.02496e-11
-5.03633e-11
-4.8999e-11
-5.11307e-11
-5.13012e-11
-5.05906e-11
-4.96243e-11
-4.95959e-11
-4.96527e-11
-4.92264e-11
-4.6299e-11
-4.71516e-11
-4.5759e-11
-4.28884e-11
-3.95062e-11
-3.40492e-11
-3.04681e-11
-2.5608e-11
-2.38174e-11
-2.15721e-11
-2.13731e-11
-2.29647e-11
-2.28511e-11
-2.64038e-11
-2.82796e-11
-3.07523e-11
-3.78861e-11
-4.07852e-11
-4.45368e-11
-4.70379e-11
-4.89422e-11
-5.29212e-11
-5.33475e-11
-5.32907e-11
-5.09033e-11
-4.69811e-11
-4.73506e-11
-4.82032e-11
-4.81464e-11
-4.71232e-11
-4.63274e-11
-4.59579e-11
-4.62137e-11
-4.62137e-11
-4.49631e-11
-4.51621e-11
-4.83453e-11
-4.74358e-11
-4.56453e-11
-4.51621e-11
-4.23199e-11
-3.89946e-11
-3.76019e-11
-3.43334e-11
-3.17755e-11
-3.26565e-11
-3.09512e-11
-2.81375e-11
-2.50679e-11
-2.20552e-11
-2.37037e-11
-2.39027e-11
-2.21405e-11
-2.00089e-11
-1.71099e-11
-1.54614e-11
-1.64846e-11
-1.58877e-11
-1.73372e-11
-1.50919e-11
-1.71099e-11
-1.69109e-11
-1.81899e-11
-1.78488e-11
-1.80478e-11
-1.76215e-11
-1.97247e-11
-2.19416e-11
-2.21405e-11
-2.11458e-11
-2.42153e-11
-2.58353e-11
-2.83649e-11
-3.00702e-11
-3.18607e-11
-3.06386e-11
-3.36229e-11
-3.76303e-11
-3.70051e-11
-4.00746e-11
-4.07567e-11
-4.1382e-11
-3.94778e-11
-4.24336e-11
-4.47926e-11
-4.40821e-11
-4.56168e-11
-5.17275e-11
-5.34612e-11
-5.26654e-11
-5.30918e-11
-5.3916e-11
-5.38023e-11
-5.61613e-11
-5.76961e-11
-5.99698e-11
-6.11351e-11
-6.00835e-11
-6.00551e-11
-6.43183e-11
-6.44604e-11
-6.71321e-11
-6.90363e-11
-7.11395e-11
-7.25606e-11
-7.14238e-11
-6.95479e-11
-6.73026e-11
-6.56826e-11
-6.37215e-11
-6.39773e-11
-6.34941e-11
-6.19025e-11
-6.13056e-11
-5.95719e-11
-6.25846e-11
-6.0993e-11
-6.23004e-11
-6.05382e-11
-5.78098e-11
-5.7355e-11
-5.78666e-11
-5.73266e-11
-5.6616e-11
-5.76676e-11
-5.46265e-11
-5.31202e-11
-5.18128e-11
-4.84874e-11
-5.0477e-11
-4.81748e-11
-4.79758e-11
-4.99369e-11
-4.76348e-11
-4.61569e-11
-4.32578e-11
-4.18936e-11
-4.32863e-11
-4.41389e-11
-4.80043e-11
-5.11591e-11
-5.15286e-11
-5.40297e-11
-5.70424e-11
-5.65592e-11
-5.83498e-11
-5.76676e-11
-5.6815e-11
-5.6616e-11
-5.44844e-11
-5.48823e-11
-5.42286e-11
-5.55644e-11
-5.72413e-11
-5.88614e-11
-6.11919e-11
-5.85487e-11
-5.99982e-11
-5.54792e-11
-5.41149e-11
-5.77245e-11
-6.03961e-11
-6.01972e-11
-6.06519e-11
-6.06803e-11
-5.92024e-11
-5.70139e-11
-5.5195e-11
-5.1898e-11
-5.13012e-11
-5.47971e-11
-5.36886e-11
-5.52518e-11
-5.63034e-11
-5.72413e-11
-5.55076e-11
-5.46834e-11
-5.08749e-11
-4.96811e-11
-4.64979e-11
-4.35421e-11
-4.06999e-11
-4.20357e-11
-4.05009e-11
-4.15241e-11
-4.31157e-11
-4.45084e-11
-4.39684e-11
-4.43947e-11
-4.51621e-11
-4.62137e-11
-4.93685e-11
-4.82032e-11
-4.9738e-11
-5.47118e-11
-5.69571e-11
-5.71561e-11
-5.78666e-11
-5.92308e-11
-5.90603e-11
-6.00835e-11
-5.69571e-11
-5.77529e-11
-5.89182e-11
-6.23004e-11
-6.14193e-11
-6.34941e-11
-6.38352e-11
-6.27836e-11
-6.46025e-11
-6.36646e-11
-6.23004e-11
-6.37499e-11
-6.69047e-11
-6.58531e-11
-6.87805e-11
-6.97185e-11
-7.12248e-11
-7.09406e-11
-6.88658e-11
-6.51426e-11
-6.53699e-11
-6.54836e-11
-7.05995e-11
-7.19353e-11
-7.36975e-11
-7.40386e-11
-7.47491e-11
-7.56586e-11
-7.61418e-11
-7.6966e-11
-7.83587e-11
-7.6966e-11
-7.37543e-11
-7.09122e-11
-6.88658e-11
-6.78426e-11
-6.86953e-11
-6.77289e-11
-6.50857e-11
-6.49436e-11
-6.38067e-11
-5.8634e-11
-5.63602e-11
-5.71276e-11
-5.35749e-11
-5.32907e-11
-5.28644e-11
-5.43992e-11
-5.47402e-11
-5.71845e-11
-5.69855e-11
-5.70139e-11
-5.98561e-11
-6.03677e-11
-6.1334e-11
-6.29541e-11
-6.54552e-11
-6.83258e-11
-6.68479e-11
-7.12816e-11
-7.15659e-11
-6.89511e-11
-6.70752e-11
-6.63647e-11
-6.4432e-11
-6.23572e-11
-6.0453e-11
-5.86624e-11
-5.88898e-11
-5.73266e-11
-5.76108e-11
-5.57634e-11
-5.29496e-11
-5.11875e-11
-4.73506e-11
-4.43094e-11
-4.24905e-11
-3.85398e-11
-3.77725e-11
-3.98472e-11
-3.85967e-11
-3.75735e-11
-4.04441e-11
-3.96483e-11
-4.32578e-11
-4.48495e-11
-4.33147e-11
-4.26326e-11
-4.21778e-11
-4.29736e-11
-4.16378e-11
-4.46505e-11
-4.34284e-11
-3.86535e-11
-3.86251e-11
-3.95062e-11
-4.11262e-11
-4.0842e-11
-4.3741e-11
-4.20926e-11
-4.26894e-11
-4.25757e-11
-4.31157e-11
-4.27463e-11
-4.22631e-11
-4.36557e-11
-4.38547e-11
-4.41105e-11
-4.19504e-11
-4.09273e-11
-3.94493e-11
-4.18652e-11
-4.34852e-11
-4.18368e-11
-3.95346e-11
-3.78293e-11
-3.97904e-11
-4.00462e-11
-3.86819e-11
-3.6863e-11
-3.54703e-11
-3.5385e-11
-3.29408e-11
-3.57261e-11
-3.76019e-11
-3.68914e-11
-3.9023e-11
-4.07283e-11
-4.12115e-11
-4.16094e-11
-4.22347e-11
-4.07283e-11
-4.3201e-11
-4.07852e-11
-4.16378e-11
-3.91935e-11
-4.05578e-11
-4.15525e-11
-4.44516e-11
-4.76064e-11
-4.70948e-11
-4.73506e-11
-4.98517e-11
-5.14717e-11
-5.22959e-11
-5.70424e-11
-5.9714e-11
-5.93445e-11
-6.17604e-11
-5.99414e-11
-6.19593e-11
-6.33236e-11
-6.27267e-11
-6.39488e-11
-6.60236e-11
-6.68194e-11
-6.82121e-11
-6.807e-11
-7.01732e-11
-6.83258e-11
-6.65636e-11
-6.34657e-11
-6.25562e-11
-6.19877e-11
-6.01972e-11
-6.09646e-11
-5.94014e-11
-5.63887e-11
-5.55076e-11
-5.47118e-11
-5.02496e-11
-5.09033e-11
-5.12728e-11
-5.06191e-11
-4.96527e-11
-4.63842e-11
-4.28315e-11
-4.26894e-11
-4.02167e-11
-3.85967e-11
-3.96199e-11
-4.09841e-11
-3.94493e-11
-4.05578e-11
-3.90799e-11
-3.69766e-11
-3.44187e-11
-3.36797e-11
-3.97904e-11
-4.23199e-11
-4.58442e-11
-4.92264e-11
-5.08464e-11
-5.00222e-11
-5.26654e-11
-5.30349e-11
-5.4257e-11
-5.3717e-11
-5.09885e-11
-4.99938e-11
-4.93401e-11
-5.25233e-11
-5.01643e-11
-5.05906e-11
-4.97948e-11
-4.83453e-11
-4.83453e-11
-4.93685e-11
-5.14149e-11
-5.36318e-11
-5.67297e-11
-6.07088e-11
-6.24141e-11
-6.4631e-11
-6.18741e-11
-6.1533e-11
-5.85203e-11
-5.53655e-11
-5.4996e-11
-5.4257e-11
-5.47971e-11
-5.58487e-11
-5.74971e-11
-5.67866e-11
-5.71845e-11
-5.60476e-11
-5.76961e-11
-5.80087e-11
-5.83498e-11
-5.87761e-11
-6.14477e-11
-6.24141e-11
-6.34373e-11
-6.20446e-11
-5.90319e-11
-5.85203e-11
-6.00551e-11
-5.81224e-11
-5.67582e-11
-5.72697e-11
-5.67297e-11
-5.88045e-11
-6.25846e-11
-6.34088e-11
-6.58815e-11
-6.699e-11
-6.59384e-11
-6.78142e-11
-7.10543e-11
-7.08553e-11
-6.92069e-11
-6.91784e-11
-7.1168e-11
-7.25038e-11
-7.50049e-11
-7.63123e-11
-7.75913e-11
-7.60281e-11
-7.73355e-11
-8.25366e-11
-8.47535e-11
-8.3844e-11
-8.68283e-11
-8.48956e-11
-8.57199e-11
-8.67715e-11
-8.48388e-11
-8.61462e-11
-8.79936e-11
-8.77378e-11
-8.92726e-11
-8.99547e-11
-8.80789e-11
-8.4782e-11
-8.31051e-11
-8.38725e-11
-8.27924e-11
-8.26219e-11
-8.50946e-11
-8.4043e-11
-8.12577e-11
-8.03482e-11
-7.72786e-11
-7.46923e-11
-7.30154e-11
-6.87237e-11
-6.71889e-11
-6.27551e-11
-6.14193e-11
-5.8435e-11
-5.43992e-11
-5.43707e-11
-5.24665e-11
-4.88569e-11
-4.47358e-11
-4.27463e-11
-4.19504e-11
-4.40536e-11
-4.1922e-11
-4.28031e-11
-4.54179e-11
-4.41958e-11
-4.1922e-11
-4.05862e-11
-3.98472e-11
-4.27747e-11
-4.43379e-11
-4.46221e-11
-4.54179e-11
-4.88853e-11
-5.34612e-11
-5.95151e-11
-5.94866e-11
-6.11351e-11
-6.46878e-11
-6.57394e-11
-6.77005e-11
-7.01448e-11
-6.96616e-11
-6.88658e-11
-7.11395e-11
-7.32427e-11
-7.70228e-11
-7.90976e-11
-8.24798e-11
-8.30198e-11
-8.12577e-11
-7.94387e-11
-7.65965e-11
-7.46354e-11
-7.53175e-11
-7.63691e-11
-7.71081e-11
-7.79039e-11
-7.95524e-11
-7.7307e-11
-7.81029e-11
-7.63407e-11
-7.77334e-11
-7.64544e-11
-7.7506e-11
-8.01492e-11
-7.63691e-11
-7.8785e-11
-7.67386e-11
-7.81881e-11
-8.01776e-11
-7.74207e-11
-7.6767e-11
-7.56302e-11
-7.39817e-11
-7.1509e-11
-7.01732e-11
-6.65068e-11
-5.97424e-11
-5.83782e-11
-5.32623e-11
-5.04201e-11
-4.77769e-11
-4.62137e-11
-4.55316e-11
-4.50484e-11
-4.58158e-11
-4.95959e-11
-5.27791e-11
-5.61329e-11
-5.83498e-11
-6.23572e-11
-6.20162e-11
-6.15898e-11
-6.06235e-11
-6.14477e-11
-6.3892e-11
-6.11067e-11
-5.97709e-11
-6.21014e-11
-6.1334e-11
-6.03109e-11
-6.06519e-11
-5.92308e-11
-5.98845e-11
-5.93161e-11
-6.01972e-11
-6.41762e-11
-6.26983e-11
-6.19593e-11
-6.05382e-11
-5.81792e-11
-5.24096e-11
-5.15001e-11
-4.95106e-11
-4.90274e-11
-4.6839e-11
-4.80327e-11
-5.04201e-11
-5.08749e-11
-5.16707e-11
-5.20686e-11
-5.35181e-11
-5.37455e-11
-5.41434e-11
-5.56781e-11
-5.69003e-11
-5.71845e-11
-5.71845e-11
-5.65876e-11
-6.05098e-11
-6.02256e-11
-6.35509e-11
-6.61657e-11
-6.63363e-11
-6.60521e-11
-6.50004e-11
-6.41194e-11
-6.80132e-11
-6.82689e-11
-6.58247e-11
-6.59099e-11
-6.73595e-11
-6.77858e-11
-6.80416e-11
-6.44036e-11
-6.1732e-11
-5.88045e-11
-5.6815e-11
-5.64739e-11
-5.53939e-11
-5.32054e-11
-5.42286e-11
-5.60476e-11
-5.74687e-11
-5.8094e-11
-5.68718e-11
-5.60476e-11
-5.46549e-11
-5.3916e-11
-5.27791e-11
-5.40581e-11
-5.22959e-11
-5.26654e-11
-5.35465e-11
-5.39728e-11
-5.25802e-11
-5.6076e-11
-5.75824e-11
-5.90035e-11
-5.98277e-11
-6.25562e-11
-6.4631e-11
-6.37499e-11
-6.42615e-11
-6.19025e-11
-6.21583e-11
-6.05951e-11
-6.21867e-11
-6.16751e-11
-6.43183e-11
-6.66205e-11
-6.76721e-11
-6.56541e-11
-6.48015e-11
-6.23857e-11
-5.94298e-11
-5.72129e-11
-5.25233e-11
-5.16991e-11
-4.74927e-11
-4.664e-11
-4.49347e-11
-4.59011e-11
-4.45368e-11
-4.29452e-11
-4.28884e-11
-3.94209e-11
-3.68914e-11
-3.57261e-11
-3.63798e-11
-3.62377e-11
-3.77156e-11
-4.01315e-11
-4.06146e-11
-4.28884e-11
-4.66684e-11
-4.8658e-11
-5.2637e-11
-5.02212e-11
-4.85727e-11
-4.91696e-11
-4.93117e-11
-5.12728e-11
-5.51665e-11
-5.69855e-11
-5.9913e-11
-6.10783e-11
-6.07088e-11
-6.12488e-11
-5.61613e-11
-5.46834e-11
-5.21538e-11
-4.85159e-11
-4.556e-11
-4.31726e-11
-4.10694e-11
-4.12967e-11
-4.29736e-11
-4.29168e-11
-4.22062e-11
-4.23199e-11
-3.95062e-11
-3.54987e-11
-3.59819e-11
-3.41345e-11
-3.36513e-11
-3.3566e-11
-3.23723e-11
-3.15197e-11
-2.87059e-11
-3.19744e-11
-3.33102e-11
-3.29692e-11
-3.40776e-11
-3.72324e-11
-3.75735e-11
-3.83125e-11
-4.04441e-11
-4.13252e-11
-4.09557e-11
-4.48779e-11
-4.36557e-11
-4.86295e-11
-5.49676e-11
-5.65308e-11
-5.70424e-11
-5.93445e-11
-5.93445e-11
-5.96003e-11
-5.81224e-11
-5.64455e-11
-5.5536e-11
-5.46549e-11
-5.5536e-11
-5.82645e-11
-5.6616e-11
-5.78098e-11
-5.88329e-11
-5.92308e-11
-6.16751e-11
-5.8435e-11
-5.79234e-11
-5.93445e-11
-6.13056e-11
-5.96856e-11
-5.92593e-11
-6.0794e-11
-6.29257e-11
-6.44889e-11
-6.19309e-11
-6.37215e-11
-6.53131e-11
-6.32383e-11
-5.78666e-11
-5.75255e-11
-5.3717e-11
-5.20117e-11
-4.77201e-11
-4.72653e-11
-4.46505e-11
-4.53326e-11
-4.58442e-11
-4.6839e-11
-4.77485e-11
-5.00791e-11
-4.93685e-11
-5.0477e-11
-5.25517e-11
-5.3916e-11
-5.50813e-11
-5.69287e-11
-5.55076e-11
-5.30349e-11
-5.27223e-11
-5.09033e-11
-5.30349e-11
-5.57066e-11
-5.49107e-11
-5.47686e-11
-5.42855e-11
-5.41434e-11
-5.27223e-11
-4.98517e-11
-4.77769e-11
-4.88569e-11
-4.93401e-11
-4.9539e-11
-5.0818e-11
-5.10454e-11
-5.11307e-11
-5.0278e-11
-4.97096e-11
-4.63274e-11
-4.41389e-11
-4.19789e-11
-4.39115e-11
-4.08704e-11
-3.85967e-11
-3.99609e-11
-3.70903e-11
-3.61524e-11
-3.60956e-11
-3.59535e-11
-3.80851e-11
-4.32294e-11
-4.46221e-11
-4.57874e-11
-4.49063e-11
-4.22347e-11
-4.07567e-11
-4.14673e-11
-4.29736e-11
-4.4281e-11
-4.49063e-11
-4.82032e-11
-5.14717e-11
-5.30633e-11
-5.49107e-11
-5.59339e-11
-5.88614e-11
-6.15898e-11
-6.04246e-11
-6.19309e-11
-6.22151e-11
-6.32099e-11
-6.15614e-11
-5.96572e-11
-5.71845e-11
-5.54508e-11
-5.08749e-11
-4.98801e-11
-4.81748e-11
-4.94538e-11
-5.00222e-11
-4.96811e-11
-5.05622e-11
-4.89138e-11
-4.72653e-11
-4.5361e-11
-4.5361e-11
-4.61569e-11
-5.01359e-11
-4.79758e-11
-4.43663e-11
-4.51905e-11
-4.14673e-11
-4.05862e-11
-4.17515e-11
-4.28599e-11
-4.16662e-11
-3.89093e-11
-3.58682e-11
-3.26281e-11
-3.02691e-11
-2.89333e-11
-3.00702e-11
-3.17755e-11
-3.24007e-11
-3.45892e-11
-3.64082e-11
-3.81419e-11
-3.87672e-11
-4.30873e-11
-4.57021e-11
-4.56453e-11
-4.80043e-11
-4.93117e-11
-5.18412e-11
-5.0818e-11
-5.22391e-11
-5.19265e-11
-5.24665e-11
-5.20117e-11
-5.16138e-11
-5.06475e-11
-4.93969e-11
-5.19549e-11
-5.38307e-11
-5.4456e-11
-5.42002e-11
-5.42002e-11
-5.21823e-11
-5.08464e-11
-4.56737e-11
-4.53042e-11
-4.49631e-11
-4.17515e-11
-3.9762e-11
-3.98472e-11
-3.76588e-11
-3.62661e-11
-3.5385e-11
-3.47313e-11
-3.6664e-11
-3.91935e-11
-4.22347e-11
-4.14673e-11
-4.01883e-11
-3.82272e-11
-4.01315e-11
-3.93925e-11
-4.05862e-11
-3.9023e-11
-3.83693e-11
-4.14673e-11
-4.28599e-11
-4.13252e-11
-4.23768e-11
-4.45084e-11
-4.45368e-11
-4.32578e-11
-4.32294e-11
-4.36842e-11
-4.48495e-11
-4.502e-11
-4.74358e-11
-4.502e-11
-4.40536e-11
-4.49063e-11
-4.19789e-11
-4.40821e-11
-4.59863e-11
-4.502e-11
-4.52474e-11
-4.31726e-11
-4.2462e-11
-4.10125e-11
-4.16946e-11
-4.10694e-11
-3.99893e-11
-3.56692e-11
-3.00133e-11
-2.61196e-11
-2.29932e-11
-2.12594e-11
-2.23395e-11
-2.19984e-11
-2.359e-11
-2.30784e-11
-2.34763e-11
-2.54943e-11
-2.63185e-11
-2.8848e-11
-3.08091e-11
-2.83649e-11
-2.89333e-11
-3.14344e-11
-3.25144e-11
-3.43618e-11
-3.51008e-11
-3.30829e-11
-3.33955e-11
-3.43334e-11
-3.31113e-11
-2.95586e-11
-2.90186e-11
-2.94165e-11
-2.9388e-11
-2.74269e-11
-2.77112e-11
-2.59206e-11
-2.31353e-11
-2.39595e-11
-2.24247e-11
-2.24247e-11
-2.25384e-11
-2.31068e-11
-2.54374e-11
-2.66596e-11
-2.8848e-11
-3.33955e-11
-3.43618e-11
-3.63514e-11
-3.56124e-11
-3.91651e-11
-3.88525e-11
-4.08988e-11
-4.25757e-11
-4.55884e-11
-4.56168e-11
-4.54179e-11
-4.66969e-11
-4.94822e-11
-4.90274e-11
-5.00791e-11
-4.86864e-11
-4.56737e-11
-4.36842e-11
-4.10125e-11
-4.17515e-11
-4.27178e-11
-4.08704e-11
-3.89662e-11
-3.64082e-11
-3.33955e-11
-3.20028e-11
-3.34524e-11
-3.30544e-11
-3.2486e-11
-2.93596e-11
-2.90186e-11
-2.87912e-11
-2.78817e-11
-2.82512e-11
-2.71143e-11
-2.65743e-11
-2.68869e-11
-2.251e-11
-2.29363e-11
-2.3789e-11
-2.39879e-11
-2.37605e-11
-2.6489e-11
-2.58069e-11
-2.66027e-11
-2.67733e-11
-2.55795e-11
-2.80806e-11
-2.92459e-11
-2.95586e-11
-3.25144e-11
-3.13207e-11
-3.2486e-11
-3.70619e-11
-3.76872e-11
-4.25473e-11
-4.40821e-11
-4.29452e-11
-4.43663e-11
-4.67537e-11
-4.70664e-11
-4.89138e-11
-5.28644e-11
-5.47971e-11
-5.70424e-11
-6.03961e-11
-6.0254e-11
-6.44604e-11
-6.82974e-11
-6.88374e-11
-7.05427e-11
-7.23901e-11
-7.10543e-11
-7.01732e-11
-7.03722e-11
-6.94058e-11
-6.861e-11
-6.89795e-11
-6.69615e-11
-6.17888e-11
-6.06519e-11
-6.03677e-11
-5.98845e-11
-5.95719e-11
-6.11351e-11
-5.96003e-11
-5.67866e-11
-5.56781e-11
-5.45128e-11
-5.76961e-11
-5.75255e-11
-6.01403e-11
-6.27551e-11
-6.53415e-11
-6.35794e-11
-6.3352e-11
-6.44604e-11
-6.56826e-11
-6.72173e-11
-6.84679e-11
-6.68763e-11
-6.85816e-11
-6.91784e-11
-6.82121e-11
-7.01448e-11
-6.84395e-11
-6.87237e-11
-7.02016e-11
-6.95763e-11
-7.24185e-11
-7.25322e-11
-7.24469e-11
-7.11111e-11
-6.89795e-11
-6.55405e-11
-6.33236e-11
-6.32383e-11
-6.03677e-11
-5.75824e-11
-5.36602e-11
-5.4257e-11
-5.17275e-11
-4.83169e-11
-4.4281e-11
-4.0643e-11
-3.89093e-11
-3.78293e-11
-3.63798e-11
-3.57545e-11
-3.44755e-11
-3.37934e-11
-3.27702e-11
-3.14913e-11
-3.10365e-11
-3.1406e-11
-3.20597e-11
-3.34808e-11
-3.52998e-11
-3.49303e-11
-3.80567e-11
-4.09841e-11
-4.41389e-11
-5.07896e-11
-5.41718e-11
-5.41434e-11
-5.87761e-11
-6.26414e-11
-6.72173e-11
-7.20206e-11
-7.37259e-11
-7.31006e-11
-7.54028e-11
-7.85576e-11
-7.59144e-11
-7.40954e-11
-7.59712e-11
-7.48912e-11
-7.89271e-11
-7.8586e-11
-7.75344e-11
-7.32996e-11
-6.85532e-11
-6.33236e-11
-5.36318e-11
-4.33147e-11
-2.37321e-11
-1.62004e-12
2.70859e-11
6.09646e-11
1.05359e-10
1.62316e-10
2.36952e-10
3.42311e-10
4.82231e-10
6.74078e-10
9.32403e-10
1.2831e-09
1.76055e-09
2.40399e-09
3.28083e-09
4.46417e-09
6.0615e-09
8.21279e-09
1.11059e-08
1.49902e-08
2.0197e-08
2.71694e-08
3.64866e-08
4.89159e-08
6.54705e-08
8.74864e-08
1.16716e-07
1.55455e-07
2.06712e-07
2.74418e-07
3.63694e-07
4.81215e-07
6.35643e-07
8.38214e-07
1.10346e-06
1.45018e-06
1.90255e-06
2.49172e-06
3.25766e-06
4.25155e-06
5.53886e-06
7.20309e-06
9.35053e-06
1.21162e-05
1.56712e-05
2.0232e-05
2.60717e-05
3.35341e-05
4.30511e-05
5.51637e-05
7.05486e-05
9.00496e-05
0.000114716
0.000145852
0.000185068
0.000234358
0.000296172
0.000373523
0.000470102
0.000590414
0.000739952
0.000925385
0.00115479
0.00143792
0.00178653
0.00221469
0.00273929
0.0033804
0.00416194
0.00511219
0.00626455
0.00765829
0.00933939
0.0113616
0.0137872
0.0166885
0.0201487
0.0242635
0.029142
0.0349083
0.041703
0.0496842
0.0590291
0.0699351
0.0826208
0.0973267
0.114316
0.133875
0.156313
0.18196
0.211168
0.24431
0.281774
0.323962
0.371288
0.424173
0.483039
0.548306
0.620383
0.699668
0.786537
0.88134
0.984395
1.09598
1.21635
1.34568
1.48412
1.63178
1.78868
1.95484
2.13018
2.31461
2.50796
2.71005
2.92065
3.13949
3.36627
3.60069
3.84242
4.09111
4.34641
4.60797
4.87543
5.14844
5.42667
5.70978
5.99745
6.28937
6.58524
6.8848
7.18777
7.49392
7.80301
8.11482
8.42917
8.74585
9.0647
9.38556
9.70828
10.0327
10.3588
10.6863
11.0152
11.3453
11.6767
12.0091
12.3425
12.6769
13.0121
13.3481
13.6849
14.0224
14.3605
14.6993
15.0385
15.3783
15.7185
16.0592
16.4003
16.7418
17.0836
17.4257
17.7682
18.1109
18.4538
18.797
19.1404
19.4839
19.8277
20.1716
20.5157
20.8599
21.2042
21.5486
21.8931
22.2377
22.5823
22.9271
23.2719
23.6167
23.9616
24.3065
24.6514
24.9963
25.3413
25.6862
26.0312
26.3761
26.7211
27.066
27.4109
27.7558
28.1006
28.4454
28.7902
29.135
29.4796
29.8243
30.1689
30.5134
30.8579
31.2023
31.5467
31.891
32.2353
32.5794
32.9235
33.2676
33.6115
33.9554
34.2992
34.6429
34.9866
35.3301
35.6736
36.017
36.3603
36.7035
37.0467
37.3897
37.7327
38.0755
38.4183
38.761
39.1035
39.446
39.7884
40.1307
40.4729
40.815
41.157
41.4988
41.8406
42.1823
42.5239
42.8653
43.2067
43.5479
43.8891
44.2301
44.571
44.9118
45.2526
45.5931
45.9336
46.274
46.6142
46.9544
47.2944
47.6343
47.9741
48.3138
48.6534
48.9928
49.3321
49.6713
50.0104
50.3494
50.6882
51.0269
51.3655
51.704
52.0424
52.3806
52.7187
53.0567
53.3946
53.7323
54.0699
54.4074
54.7447
55.0819
55.419
55.756
56.0928
56.4295
56.7661
57.1026
57.4389
57.7751
58.1111
58.447
58.7828
59.1184
59.454
59.7893
60.1246
60.4597
60.7947
61.1295
61.4642
61.7988
62.1332
62.4675
62.8016
63.1356
63.4695
63.8032
64.1368
64.4703
64.8036
65.1368
65.4698
65.8027
66.1354
66.468
66.8005
67.1328
67.465
67.797
68.1289
68.4606
68.7922
69.1237
69.455
69.7862
70.1172
70.448
70.7788
71.1093
71.4398
71.7701
72.1002
72.4302
72.76
73.0897
73.4193
73.7487
74.0779
74.407
74.7359
75.0647
75.3934
75.7219
76.0502
76.3784
76.7065
77.0344
77.3621
77.6897
78.0172
78.3445
78.6716
78.9986
79.3254
79.6521
79.9787
80.305
80.6313
80.9573
81.2833
81.609
81.9346
82.2601
82.5854
82.9106
83.2356
83.5604
83.8851
84.2097
84.534
84.8583
85.1824
85.5063
85.83
86.1537
86.4771
86.8004
87.1236
87.4466
87.7694
88.0921
88.4146
88.737
89.0592
89.3813
89.7032
90.0249
90.3465
90.668
90.9892
91.3104
91.6313
91.9521
92.2728
92.5933
92.9136
93.2338
93.5539
93.8737
94.1934
94.513
94.8324
95.1517
95.4707
95.7897
96.1085
96.4271
96.7455
97.0638
97.382
97.7
98.0178
98.3355
98.653
98.9704
99.2876
99.6046
99.9215
100.238
100.555
100.871
101.187
101.504
101.82
102.135
102.451
102.766
103.082
103.397
103.712
104.027
104.341
104.656
104.97
105.284
105.598
105.912
106.226
106.54
106.853
107.166
107.479
107.792
108.105
108.418
108.73
109.043
109.355
109.667
109.979
110.29
110.602
110.913
111.224
111.535
111.846
112.157
112.468
112.778
113.088
113.398
113.708
114.018
114.328
114.637
114.946
115.256
115.565
115.873
116.182
116.491
116.799
117.107
117.415
117.723
118.031
118.338
118.646
118.953
119.26
119.567
119.874
120.18
120.487
120.793
121.099
121.405
121.711
122.017
122.322
122.628
122.933
123.238
123.543
123.847
124.152
124.456
124.761
125.065
125.369
125.672
125.976
126.28
126.583
126.886
127.189
127.492
127.794
128.097
128.399
128.702
129.004
129.305
129.607
129.909
130.21
130.511
130.813
131.113
131.414
131.715
132.015
132.316
132.616
132.916
133.216
133.515
133.815
134.114
134.413
134.712
135.011
135.31
135.609
135.907
136.205
136.503
136.801
137.099
137.397
137.694
137.992
138.289
138.586
138.883
139.179
139.476
139.772
140.069
140.365
140.661
140.956
141.252
141.547
141.843
142.138
142.433
142.728
143.022
143.317
143.611
143.905
144.199
144.493
144.787
145.08
145.374
145.667
145.96
146.253
146.546
146.839
147.131
147.423
147.715
148.008
148.299
148.591
148.883
149.174
149.465
149.756
150.047
150.338
150.629
150.919
151.209
151.499
151.789
152.079
152.369
152.658
152.948
153.237
153.526
153.815
154.104
154.392
154.681
154.969
155.257
155.545
155.833
156.121
156.408
156.695
156.983
157.27
157.556
157.843
158.13
158.416
158.702
158.989
159.275
159.56
159.846
160.131
160.417
160.702
160.987
161.272
161.557
161.841
162.126
162.41
162.694
162.978
163.262
163.545
163.829
164.112
164.395
164.678
164.961
165.244
165.526
165.809
166.091
166.373
166.655
166.937
167.219
167.5
167.781
168.063
168.344
168.624
168.905
169.186
169.466
169.746
170.027
170.306
170.586
170.866
171.145
171.425
171.704
171.983
172.262
172.541
172.819
173.098
173.376
173.654
173.932
174.21
174.487
174.765
175.042
175.32
175.597
175.873
176.15
176.427
176.703
176.98
177.256
177.532
177.807
178.083
178.359
178.634
178.909
179.184
179.459
179.734
180.009
180.283
180.557
180.832
181.106
181.379
181.653
181.927
182.2
182.473
182.747
183.019
183.292
183.565
183.837
184.11
184.382
184.654
184.926
185.198
185.469
185.741
186.012
186.283
186.554
186.825
187.096
187.366
187.637
187.907
188.177
188.447
188.717
188.986
189.256
189.525
189.794
190.063
190.332
190.601
190.869
191.138
191.406
191.674
191.942
192.21
192.478
192.745
193.013
193.28
193.547
193.814
194.081
194.347
194.614
194.88
195.146
195.412
195.678
195.944
196.21
196.475
196.74
197.005
197.27
197.535
197.8
198.064
198.329
198.593
198.857
199.121
199.385
199.649
199.912
200.175
200.439
200.702
200.965
201.227
201.49
201.752
202.015
202.277
202.539
202.801
203.063
203.324
203.586
203.847
204.108
204.369
204.63
204.89
205.151
205.411
205.672
205.932
206.192
206.451
206.711
206.971
207.23
207.489
207.748
208.007
208.266
208.524
208.783
209.041
209.299
209.557
209.815
210.073
210.331
210.588
210.845
211.102
211.359
211.616
211.873
212.13
212.386
212.642
212.898
213.154
213.41
213.666
213.921
214.177
214.432
214.687
214.942
215.197
215.452
215.706
215.96
216.215
216.469
216.723
216.976
217.23
217.483
217.737
217.99
218.243
218.496
218.749
219.001
219.254
219.506
219.758
220.01
220.262
220.514
220.766
221.017
221.268
221.519
221.77
222.021
222.272
222.523
222.773
223.023
223.274
223.524
223.773
224.023
224.273
224.522
224.771
225.02
225.269
225.518
225.767
226.016
226.264
226.512
226.76
227.008
227.256
227.504
227.751
227.999
228.246
228.493
228.74
228.987
229.234
229.48
229.727
229.973
230.219
230.465
230.711
230.956
231.202
231.447
231.692
231.938
232.183
232.427
232.672
232.917
233.161
233.405
233.649
233.893
234.137
234.381
234.624
234.868
235.111
235.354
235.597
235.84
236.082
236.325
236.567
236.81
237.052
237.294
237.535
237.777
238.019
238.26
238.501
238.742
238.983
239.224
239.465
239.705
239.946
240.186
240.426
240.666
240.906
241.146
241.385
241.625
241.864
242.103
242.342
242.581
242.819
243.058
243.296
243.535
243.773
244.011
244.249
244.486
244.724
244.961
245.199
245.436
245.673
245.91
246.146
246.383
246.619
246.856
247.092
247.328
247.564
247.799
248.035
248.27
248.506
248.741
248.976
249.211
249.446
249.68
249.915
250.149
250.383
250.617
250.851
251.085
251.319
251.552
251.785
252.019
252.252
252.485
252.717
252.95
253.183
253.415
253.647
253.879
254.111
254.343
254.575
254.806
255.038
255.269
255.5
255.731
255.962
256.193
256.423
256.654
256.884
257.114
257.344
257.574
257.804
258.033
258.263
258.492
258.721
258.95
259.179
259.408
259.637
259.865
260.093
260.322
260.55
260.778
261.005
261.233
261.461
261.688
261.915
262.142
262.369
262.596
262.823
263.049
263.276
263.502
263.728
263.954
264.18
264.406
264.632
264.857
265.082
265.307
265.533
265.757
265.982
266.207
266.431
266.656
266.88
267.104
267.328
267.552
267.775
267.999
268.222
268.446
268.669
268.892
269.115
269.337
269.56
269.782
270.005
270.227
270.449
270.671
270.893
271.114
271.336
271.557
271.778
271.999
272.22
272.441
272.662
272.882
273.103
273.323
273.543
273.763
273.983
274.203
274.422
274.642
274.861
275.08
275.299
275.518
275.737
275.956
276.174
276.393
276.611
276.829
277.047
277.265
277.483
277.7
277.918
278.135
278.352
278.569
278.786
279.003
279.219
279.436
279.652
279.868
280.084
280.3
280.516
280.732
280.948
281.163
281.378
281.593
281.808
282.023
282.238
282.453
282.667
282.881
283.096
283.31
283.524
283.738
283.951
284.165
284.378
284.591
284.805
285.018
285.23
285.443
285.656
285.868
286.081
286.293
286.505
286.717
286.929
287.14
287.352
287.563
287.775
287.986
288.197
288.408
288.618
288.829
289.04
289.25
289.46
289.67
289.88
290.09
290.3
290.509
290.719
290.928
291.137
291.346
291.555
291.764
291.972
292.181
292.389
292.598
292.806
293.014
293.221
293.429
293.637
293.844
294.052
294.259
294.466
294.673
294.88
295.086
295.293
295.499
295.705
295.911
296.118
296.323
296.529
296.735
296.94
297.146
297.351
297.556
297.761
297.966
298.17
298.375
298.579
298.784
298.988
299.192
299.396
299.6
299.803
300.007
300.21
300.413
300.617
300.82
301.022
301.225
301.428
301.63
301.833
302.035
302.237
302.439
302.641
302.842
303.044
303.245
303.447
303.648
303.849
304.05
304.251
304.451
304.652
304.852
305.053
305.253
305.453
305.653