/*--------------------------------*- C++ -*----------------------------------*\
  =========                 |
  \\      /  F ield         | OpenFOAM: The Open Source CFD Toolbox
   \\    /   O peration     | Website:  https://openfoam.org
    \\  /    A nd           | Version:  9
     \\/     M anipulation  |
\*---------------------------------------------------------------------------*/
FoamFile
{
    format      ascii;
    class       volScalarField;
    location    "0.009";
    object      rho_0;
}
// * * * * * * * * * * * * * * * * * * * * * * * * * * * * * * * * * * * * * //

dimensions      [1 -3 0 0 0 0 0];

internalField   nonuniform List<scalar> 
10000
(
0.997574
0.997574
0.997574
0.997574
0.997574
0.997574
0.997574
0.997574
0.997574
0.997574
0.997574
0.997574
0.997574
0.997574
0.997574
0.997574
0.997574
0.997574
0.997574
0.997574
0.997574
0.997574
0.997574
0.997574
0.997574
0.997574
0.997574
0.997574
0.997574
0.997574
0.997574
0.997574
0.997574
0.997574
0.997574
0.997574
0.997574
0.997574
0.997574
0.997574
0.997574
0.997574
0.997574
0.997574
0.997574
0.997574
0.997574
0.997574
0.997574
0.997574
0.997574
0.997574
0.997574
0.997574
0.997574
0.997574
0.997574
0.997574
0.997574
0.997574
0.997574
0.997574
0.997574
0.997574
0.997574
0.997574
0.997574
0.997574
0.997574
0.997574
0.997574
0.997574
0.997574
0.997574
0.997574
0.997574
0.997574
0.997574
0.997574
0.997574
0.997574
0.997574
0.997574
0.997574
0.997574
0.997574
0.997574
0.997574
0.997574
0.997574
0.997574
0.997574
0.997574
0.997574
0.997574
0.997574
0.997574
0.997574
0.997574
0.997574
0.997574
0.997574
0.997574
0.997574
0.997574
0.997574
0.997574
0.997574
0.997574
0.997574
0.997574
0.997574
0.997574
0.997574
0.997574
0.997574
0.997574
0.997574
0.997574
0.997574
0.997574
0.997574
0.997574
0.997574
0.997574
0.997574
0.997574
0.997574
0.997574
0.997574
0.997574
0.997574
0.997574
0.997574
0.997574
0.997574
0.997574
0.997574
0.997574
0.997574
0.997574
0.997574
0.997574
0.997574
0.997574
0.997574
0.997574
0.997574
0.997574
0.997574
0.997574
0.997574
0.997574
0.997574
0.997574
0.997574
0.997574
0.997574
0.997574
0.997574
0.997574
0.997574
0.997574
0.997574
0.997574
0.997574
0.997574
0.997574
0.997574
0.997574
0.997574
0.997574
0.997574
0.997574
0.997574
0.997574
0.997574
0.997574
0.997574
0.997574
0.997574
0.997574
0.997574
0.997574
0.997574
0.997574
0.997574
0.997574
0.997574
0.997574
0.997574
0.997574
0.997574
0.997574
0.997574
0.997574
0.997574
0.997574
0.997574
0.997574
0.997574
0.997574
0.997574
0.997574
0.997574
0.997574
0.997574
0.997574
0.997574
0.997574
0.997574
0.997574
0.997574
0.997574
0.997574
0.997574
0.997574
0.997574
0.997574
0.997574
0.997574
0.997574
0.997574
0.997574
0.997574
0.997574
0.997574
0.997574
0.997574
0.997574
0.997574
0.997574
0.997574
0.997574
0.997574
0.997574
0.997574
0.997574
0.997574
0.997574
0.997574
0.997574
0.997574
0.997574
0.997574
0.997574
0.997574
0.997574
0.997574
0.997574
0.997574
0.997574
0.997574
0.997574
0.997574
0.997574
0.997574
0.997574
0.997574
0.997574
0.997574
0.997574
0.997574
0.997574
0.997574
0.997574
0.997574
0.997574
0.997574
0.997574
0.997574
0.997574
0.997574
0.997574
0.997574
0.997574
0.997574
0.997574
0.997574
0.997574
0.997574
0.997574
0.997574
0.997574
0.997574
0.997574
0.997574
0.997574
0.997574
0.997574
0.997574
0.997574
0.997574
0.997574
0.997574
0.997574
0.997574
0.997574
0.997574
0.997574
0.997574
0.997574
0.997574
0.997574
0.997574
0.997574
0.997574
0.997574
0.997574
0.997574
0.997574
0.997574
0.997574
0.997574
0.997574
0.997574
0.997574
0.997574
0.997574
0.997574
0.997574
0.997574
0.997574
0.997574
0.997574
0.997574
0.997574
0.997574
0.997574
0.997574
0.997574
0.997574
0.997574
0.997574
0.997574
0.997574
0.997574
0.997574
0.997574
0.997574
0.997574
0.997574
0.997574
0.997574
0.997574
0.997574
0.997574
0.997574
0.997574
0.997574
0.997574
0.997574
0.997574
0.997574
0.997574
0.997574
0.997574
0.997574
0.997574
0.997574
0.997574
0.997574
0.997574
0.997574
0.997574
0.997574
0.997574
0.997574
0.997574
0.997574
0.997574
0.997574
0.997574
0.997574
0.997574
0.997574
0.997574
0.997574
0.997574
0.997574
0.997574
0.997574
0.997574
0.997574
0.997574
0.997574
0.997574
0.997574
0.997574
0.997574
0.997574
0.997574
0.997574
0.997574
0.997574
0.997574
0.997574
0.997574
0.997574
0.997574
0.997574
0.997574
0.997574
0.997574
0.997574
0.997574
0.997574
0.997574
0.997574
0.997574
0.997574
0.997574
0.997574
0.997574
0.997574
0.997574
0.997574
0.997574
0.997574
0.997574
0.997574
0.997574
0.997574
0.997574
0.997574
0.997574
0.997574
0.997574
0.997574
0.997574
0.997574
0.997574
0.997574
0.997574
0.997574
0.997574
0.997574
0.997574
0.997574
0.997574
0.997574
0.997574
0.997574
0.997574
0.997574
0.997574
0.997574
0.997574
0.997574
0.997574
0.997574
0.997574
0.997574
0.997574
0.997574
0.997574
0.997574
0.997574
0.997574
0.997574
0.997574
0.997574
0.997574
0.997574
0.997574
0.997574
0.997574
0.997574
0.997574
0.997574
0.997574
0.997574
0.997574
0.997574
0.997574
0.997574
0.997574
0.997574
0.997574
0.997574
0.997574
0.997574
0.997574
0.997574
0.997574
0.997574
0.997574
0.997574
0.997574
0.997574
0.997574
0.997574
0.997574
0.997574
0.997574
0.997574
0.997574
0.997574
0.997574
0.997574
0.997574
0.997574
0.997574
0.997574
0.997574
0.997574
0.997574
0.997574
0.997574
0.997574
0.997574
0.997574
0.997574
0.997574
0.997574
0.997574
0.997574
0.997574
0.997574
0.997574
0.997574
0.997574
0.997574
0.997574
0.997574
0.997574
0.997574
0.997574
0.997574
0.997574
0.997574
0.997574
0.997574
0.997574
0.997574
0.997574
0.997574
0.997574
0.997574
0.997574
0.997574
0.997574
0.997574
0.997574
0.997574
0.997574
0.997574
0.997574
0.997574
0.997574
0.997574
0.997574
0.997574
0.997574
0.997574
0.997574
0.997574
0.997574
0.997574
0.997574
0.997574
0.997574
0.997574
0.997574
0.997574
0.997574
0.997574
0.997574
0.997574
0.997574
0.997574
0.997574
0.997574
0.997574
0.997574
0.997574
0.997574
0.997574
0.997574
0.997574
0.997574
0.997574
0.997574
0.997574
0.997574
0.997574
0.997574
0.997574
0.997574
0.997574
0.997574
0.997574
0.997574
0.997574
0.997574
0.997574
0.997574
0.997574
0.997574
0.997574
0.997574
0.997574
0.997574
0.997574
0.997574
0.997574
0.997574
0.997574
0.997574
0.997574
0.997574
0.997574
0.997574
0.997574
0.997574
0.997574
0.997574
0.997574
0.997574
0.997574
0.997574
0.997574
0.997574
0.997574
0.997574
0.997574
0.997574
0.997574
0.997574
0.997574
0.997574
0.997574
0.997574
0.997574
0.997574
0.997574
0.997574
0.997574
0.997574
0.997574
0.997574
0.997574
0.997574
0.997574
0.997574
0.997574
0.997574
0.997574
0.997574
0.997574
0.997574
0.997574
0.997574
0.997574
0.997574
0.997574
0.997574
0.997574
0.997574
0.997574
0.997574
0.997574
0.997574
0.997574
0.997574
0.997574
0.997574
0.997574
0.997574
0.997574
0.997574
0.997574
0.997574
0.997574
0.997574
0.997574
0.997574
0.997574
0.997574
0.997574
0.997574
0.997574
0.997574
0.997574
0.997574
0.997574
0.997574
0.997574
0.997574
0.997574
0.997574
0.997574
0.997574
0.997574
0.997574
0.997574
0.997574
0.997574
0.997574
0.997574
0.997574
0.997574
0.997574
0.997574
0.997574
0.997574
0.997574
0.997574
0.997574
0.997574
0.997574
0.997574
0.997574
0.997574
0.997574
0.997574
0.997574
0.997574
0.997574
0.997574
0.997574
0.997574
0.997574
0.997574
0.997574
0.997574
0.997574
0.997574
0.997574
0.997574
0.997574
0.997574
0.997574
0.997574
0.997574
0.997574
0.997574
0.997574
0.997574
0.997574
0.997574
0.997574
0.997574
0.997574
0.997574
0.997574
0.997574
0.997574
0.997574
0.997574
0.997574
0.997574
0.997574
0.997574
0.997574
0.997574
0.997574
0.997574
0.997574
0.997574
0.997574
0.997574
0.997574
0.997574
0.997574
0.997574
0.997574
0.997574
0.997574
0.997574
0.997574
0.997574
0.997574
0.997574
0.997574
0.997574
0.997574
0.997574
0.997574
0.997574
0.997574
0.997574
0.997574
0.997574
0.997574
0.997574
0.997574
0.997574
0.997574
0.997574
0.997574
0.997574
0.997574
0.997574
0.997574
0.997574
0.997574
0.997574
0.997574
0.997574
0.997574
0.997574
0.997574
0.997574
0.997574
0.997574
0.997574
0.997574
0.997574
0.997574
0.997574
0.997574
0.997574
0.997574
0.997574
0.997574
0.997574
0.997574
0.997574
0.997574
0.997574
0.997574
0.997574
0.997574
0.997574
0.997574
0.997574
0.997574
0.997574
0.997574
0.997574
0.997574
0.997574
0.997574
0.997574
0.997574
0.997574
0.997574
0.997574
0.997574
0.997574
0.997574
0.997574
0.997574
0.997574
0.997574
0.997574
0.997574
0.997574
0.997574
0.997574
0.997574
0.997574
0.997574
0.997574
0.997574
0.997574
0.997574
0.997574
0.997574
0.997574
0.997574
0.997574
0.997574
0.997574
0.997574
0.997574
0.997574
0.997574
0.997574
0.997574
0.997574
0.997574
0.997574
0.997574
0.997574
0.997574
0.997574
0.997574
0.997574
0.997574
0.997574
0.997574
0.997574
0.997574
0.997574
0.997574
0.997574
0.997574
0.997574
0.997574
0.997574
0.997574
0.997574
0.997574
0.997574
0.997574
0.997574
0.997574
0.997574
0.997574
0.997574
0.997574
0.997574
0.997574
0.997574
0.997574
0.997574
0.997574
0.997574
0.997574
0.997574
0.997574
0.997574
0.997574
0.997574
0.997574
0.997574
0.997574
0.997574
0.997574
0.997574
0.997574
0.997574
0.997574
0.997574
0.997574
0.997574
0.997574
0.997574
0.997574
0.997574
0.997574
0.997574
0.997574
0.997574
0.997574
0.997574
0.997574
0.997574
0.997574
0.997574
0.997574
0.997574
0.997574
0.997574
0.997574
0.997574
0.997574
0.997574
0.997574
0.997574
0.997574
0.997574
0.997574
0.997574
0.997574
0.997574
0.997574
0.997574
0.997574
0.997574
0.997574
0.997574
0.997574
0.997574
0.997574
0.997574
0.997574
0.997574
0.997574
0.997574
0.997574
0.997574
0.997574
0.997574
0.997574
0.997574
0.997574
0.997574
0.997574
0.997574
0.997574
0.997574
0.997574
0.997574
0.997574
0.997574
0.997574
0.997574
0.997574
0.997574
0.997574
0.997574
0.997574
0.997574
0.997574
0.997574
0.997574
0.997574
0.997574
0.997574
0.997574
0.997574
0.997574
0.997574
0.997574
0.997574
0.997574
0.997574
0.997574
0.997574
0.997574
0.997574
0.997574
0.997574
0.997574
0.997574
0.997574
0.997574
0.997574
0.997574
0.997574
0.997574
0.997574
0.997574
0.997574
0.997574
0.997574
0.997574
0.997574
0.997574
0.997574
0.997574
0.997574
0.997574
0.997574
0.997574
0.997574
0.997574
0.997574
0.997574
0.997574
0.997574
0.997574
0.997574
0.997574
0.997574
0.997574
0.997574
0.997574
0.997574
0.997574
0.997574
0.997574
0.997574
0.997574
0.997574
0.997574
0.997574
0.997574
0.997574
0.997574
0.997574
0.997574
0.997574
0.997574
0.997574
0.997574
0.997574
0.997574
0.997574
0.997574
0.997574
0.997574
0.997574
0.997574
0.997574
0.997574
0.997574
0.997574
0.997574
0.997574
0.997574
0.997574
0.997574
0.997574
0.997574
0.997574
0.997574
0.997574
0.997574
0.997574
0.997574
0.997574
0.997574
0.997574
0.997574
0.997574
0.997574
0.997574
0.997574
0.997574
0.997574
0.997574
0.997574
0.997574
0.997574
0.997574
0.997574
0.997574
0.997574
0.997574
0.997574
0.997574
0.997574
0.997574
0.997574
0.997574
0.997574
0.997574
0.997574
0.997574
0.997574
0.997574
0.997574
0.997574
0.997574
0.997574
0.997574
0.997574
0.997574
0.997574
0.997574
0.997574
0.997574
0.997574
0.997574
0.997574
0.997574
0.997574
0.997574
0.997574
0.997574
0.997574
0.997574
0.997574
0.997574
0.997574
0.997574
0.997574
0.997574
0.997574
0.997574
0.997574
0.997574
0.997574
0.997574
0.997574
0.997574
0.997574
0.997574
0.997574
0.997574
0.997574
0.997574
0.997574
0.997574
0.997574
0.997574
0.997574
0.997574
0.997574
0.997574
0.997574
0.997574
0.997574
0.997574
0.997574
0.997574
0.997574
0.997574
0.997574
0.997574
0.997574
0.997574
0.997574
0.997574
0.997574
0.997574
0.997574
0.997574
0.997574
0.997574
0.997574
0.997574
0.997574
0.997574
0.997574
0.997574
0.997574
0.997574
0.997574
0.997574
0.997574
0.997574
0.997574
0.997574
0.997574
0.997574
0.997574
0.997574
0.997574
0.997574
0.997574
0.997574
0.997574
0.997574
0.997574
0.997574
0.997574
0.997574
0.997574
0.997574
0.997574
0.997574
0.997574
0.997574
0.997574
0.997574
0.997574
0.997574
0.997574
0.997574
0.997574
0.997574
0.997574
0.997574
0.997574
0.997574
0.997574
0.997574
0.997574
0.997574
0.997574
0.997574
0.997574
0.997574
0.997574
0.997574
0.997574
0.997574
0.997574
0.997574
0.997574
0.997574
0.997574
0.997574
0.997574
0.997574
0.997574
0.997574
0.997574
0.997574
0.997574
0.997574
0.997574
0.997574
0.997574
0.997574
0.997574
0.997574
0.997574
0.997574
0.997574
0.997574
0.997574
0.997574
0.997574
0.997574
0.997574
0.997574
0.997574
0.997574
0.997574
0.997574
0.997574
0.997574
0.997574
0.997574
0.997574
0.997574
0.997574
0.997574
0.997574
0.997574
0.997574
0.997574
0.997574
0.997574
0.997574
0.997574
0.997574
0.997574
0.997574
0.997574
0.997574
0.997574
0.997574
0.997574
0.997574
0.997574
0.997574
0.997574
0.997574
0.997574
0.997574
0.997574
0.997574
0.997574
0.997574
0.997574
0.997574
0.997574
0.997574
0.997574
0.997574
0.997574
0.997574
0.997574
0.997574
0.997574
0.997574
0.997574
0.997574
0.997574
0.997574
0.997574
0.997574
0.997574
0.997574
0.997574
0.997574
0.997574
0.997574
0.997574
0.997574
0.997574
0.997574
0.997574
0.997574
0.997574
0.997574
0.997574
0.997574
0.997574
0.997574
0.997574
0.997574
0.997574
0.997574
0.997574
0.997574
0.997574
0.997574
0.997574
0.997574
0.997574
0.997574
0.997574
0.997574
0.997574
0.997574
0.997574
0.997574
0.997574
0.997574
0.997574
0.997574
0.997574
0.997574
0.997574
0.997574
0.997574
0.997574
0.997574
0.997574
0.997574
0.997574
0.997574
0.997574
0.997574
0.997574
0.997574
0.997574
0.997574
0.997574
0.997574
0.997574
0.997574
0.997574
0.997574
0.997574
0.997574
0.997574
0.997574
0.997574
0.997574
0.997574
0.997574
0.997574
0.997574
0.997574
0.997574
0.997574
0.997574
0.997574
0.997574
0.997574
0.997574
0.997574
0.997574
0.997574
0.997574
0.997574
0.997574
0.997574
0.997574
0.997574
0.997574
0.997574
0.997574
0.997574
0.997574
0.997574
0.997574
0.997574
0.997574
0.997574
0.997574
0.997574
0.997574
0.997574
0.997574
0.997574
0.997574
0.997574
0.997574
0.997574
0.997574
0.997574
0.997574
0.997574
0.997574
0.997574
0.997574
0.997574
0.997574
0.997574
0.997574
0.997574
0.997574
0.997574
0.997574
0.997574
0.997574
0.997574
0.997574
0.997574
0.997574
0.997574
0.997574
0.997574
0.997574
0.997574
0.997574
0.997574
0.997574
0.997574
0.997574
0.997574
0.997574
0.997574
0.997574
0.997574
0.997574
0.997574
0.997574
0.997574
0.997574
0.997574
0.997574
0.997574
0.997574
0.997574
0.997574
0.997574
0.997574
0.997574
0.997574
0.997574
0.997574
0.997574
0.997574
0.997574
0.997574
0.997574
0.997574
0.997574
0.997574
0.997574
0.997574
0.997574
0.997574
0.997574
0.997574
0.997574
0.997574
0.997574
0.997574
0.997574
0.997574
0.997574
0.997574
0.997574
0.997574
0.997574
0.997574
0.997574
0.997574
0.997574
0.997574
0.997574
0.997574
0.997574
0.997574
0.997574
0.997574
0.997574
0.997574
0.997574
0.997574
0.997574
0.997574
0.997574
0.997574
0.997574
0.997574
0.997574
0.997574
0.997574
0.997574
0.997574
0.997574
0.997574
0.997574
0.997574
0.997574
0.997574
0.997574
0.997574
0.997574
0.997574
0.997574
0.997574
0.997574
0.997574
0.997574
0.997574
0.997574
0.997573
0.997573
0.997573
0.997573
0.997572
0.997572
0.997571
0.99757
0.99757
0.997569
0.997567
0.997566
0.997564
0.997562
0.99756
0.997557
0.997553
0.997549
0.997544
0.997538
0.997531
0.997524
0.997514
0.997504
0.997492
0.997478
0.997462
0.997443
0.997423
0.997399
0.997373
0.997343
0.997309
0.997272
0.997231
0.997185
0.997135
0.997079
0.997019
0.996953
0.996881
0.996804
0.99672
0.996631
0.996535
0.996434
0.996326
0.996212
0.996091
0.995965
0.995833
0.995695
0.995552
0.995403
0.995248
0.995089
0.994925
0.994756
0.994583
0.994406
0.994225
0.994041
0.993852
0.993661
0.993467
0.99327
0.99307
0.992868
0.992664
0.992457
0.992249
0.992039
0.991827
0.991614
0.991399
0.991182
0.990965
0.990746
0.990526
0.990305
0.990084
0.989861
0.989638
0.989413
0.989188
0.988963
0.988737
0.98851
0.988282
0.988054
0.987826
0.987597
0.987368
0.987138
0.986908
0.986678
0.986447
0.986216
0.985985
0.985753
0.985521
0.985289
0.985057
0.984825
0.984592
0.984359
0.984126
0.983893
0.983659
0.983426
0.983192
0.982958
0.982724
0.98249
0.982256
0.982021
0.981787
0.981552
0.981318
0.981083
0.980848
0.980613
0.980378
0.980143
0.979908
0.979673
0.979438
0.979203
0.978967
0.978732
0.978496
0.978261
0.978025
0.97779
0.977554
0.977319
0.977083
0.976847
0.976611
0.976376
0.97614
0.975904
0.975668
0.975432
0.975197
0.974961
0.974725
0.974489
0.974253
0.974017
0.973781
0.973545
0.973309
0.973073
0.972837
0.972601
0.972365
0.972129
0.971892
0.971656
0.97142
0.971184
0.970948
0.970712
0.970476
0.97024
0.970004
0.969768
0.969531
0.969295
0.969059
0.968823
0.968587
0.968351
0.968115
0.967879
0.967642
0.967406
0.96717
0.966934
0.966698
0.966462
0.966226
0.96599
0.965754
0.965518
0.965282
0.965046
0.96481
0.964574
0.964338
0.964102
0.963866
0.96363
0.963394
0.963158
0.962922
0.962686
0.96245
0.962214
0.961978
0.961742
0.961507
0.961271
0.961035
0.960799
0.960563
0.960327
0.960092
0.959856
0.95962
0.959385
0.959149
0.958913
0.958678
0.958442
0.958206
0.957971
0.957735
0.9575
0.957264
0.957029
0.956793
0.956558
0.956322
0.956087
0.955851
0.955616
0.955381
0.955145
0.95491
0.954675
0.95444
0.954204
0.953969
0.953734
0.953499
0.953264
0.953029
0.952794
0.952558
0.952323
0.952088
0.951854
0.951619
0.951384
0.951149
0.950914
0.950679
0.950444
0.95021
0.949975
0.94974
0.949506
0.949271
0.949036
0.948802
0.948567
0.948333
0.948098
0.947864
0.947629
0.947395
0.947161
0.946926
0.946692
0.946458
0.946223
0.945989
0.945755
0.945521
0.945287
0.945053
0.944819
0.944585
0.944351
0.944117
0.943883
0.943649
0.943415
0.943182
0.942948
0.942714
0.94248
0.942247
0.942013
0.94178
0.941546
0.941313
0.941079
0.940846
0.940612
0.940379
0.940146
0.939912
0.939679
0.939446
0.939213
0.93898
0.938746
0.938513
0.93828
0.938047
0.937814
0.937582
0.937349
0.937116
0.936883
0.93665
0.936417
0.936185
0.935952
0.93572
0.935487
0.935254
0.935022
0.934789
0.934557
0.934325
0.934092
0.93386
0.933628
0.933396
0.933163
0.932931
0.932699
0.932467
0.932235
0.932003
0.931771
0.931539
0.931307
0.931075
0.930844
0.930612
0.93038
0.930149
0.929917
0.929685
0.929454
0.929222
0.928991
0.928759
0.928528
0.928297
0.928065
0.927834
0.927603
0.927372
0.92714
0.926909
0.926678
0.926447
0.926216
0.925985
0.925754
0.925524
0.925293
0.925062
0.924831
0.924601
0.92437
0.924139
0.923909
0.923678
0.923448
0.923217
0.922987
0.922756
0.922526
0.922296
0.922066
0.921835
0.921605
0.921375
0.921145
0.920915
0.920685
0.920455
0.920225
0.919995
0.919765
0.919536
0.919306
0.919076
0.918846
0.918617
0.918387
0.918158
0.917928
0.917699
0.917469
0.91724
0.917011
0.916781
0.916552
0.916323
0.916094
0.915865
0.915636
0.915406
0.915177
0.914949
0.91472
0.914491
0.914262
0.914033
0.913804
0.913576
0.913347
0.913118
0.91289
0.912661
0.912433
0.912204
0.911976
0.911748
0.911519
0.911291
0.911063
0.910835
0.910607
0.910378
0.91015
0.909922
0.909694
0.909466
0.909239
0.909011
0.908783
0.908555
0.908327
0.9081
0.907872
0.907645
0.907417
0.907189
0.906962
0.906735
0.906507
0.90628
0.906053
0.905825
0.905598
0.905371
0.905144
0.904917
0.90469
0.904463
0.904236
0.904009
0.903782
0.903555
0.903328
0.903102
0.902875
0.902648
0.902422
0.902195
0.901969
0.901742
0.901516
0.901289
0.901063
0.900837
0.900611
0.900384
0.900158
0.899932
0.899706
0.89948
0.899254
0.899028
0.898802
0.898576
0.89835
0.898124
0.897899
0.897673
0.897447
0.897222
0.896996
0.896771
0.896545
0.89632
0.896094
0.895869
0.895644
0.895418
0.895193
0.894968
0.894743
0.894518
0.894293
0.894068
0.893843
0.893618
0.893393
0.893168
0.892943
0.892719
0.892494
0.892269
0.892045
0.89182
0.891596
0.891371
0.891147
0.890922
0.890698
0.890474
0.890249
0.890025
0.889801
0.889577
0.889353
0.889129
0.888905
0.888681
0.888457
0.888233
0.888009
0.887785
0.887561
0.887338
0.887114
0.88689
0.886667
0.886443
0.88622
0.885996
0.885773
0.88555
0.885326
0.885103
0.88488
0.884657
0.884434
0.88421
0.883987
0.883764
0.883541
0.883318
0.883096
0.882873
0.88265
0.882427
0.882205
0.881982
0.881759
0.881537
0.881314
0.881092
0.880869
0.880647
0.880424
0.880202
0.87998
0.879758
0.879535
0.879313
0.879091
0.878869
0.878647
0.878425
0.878203
0.877981
0.87776
0.877538
0.877316
0.877094
0.876873
0.876651
0.876429
0.876208
0.875986
0.875765
0.875544
0.875322
0.875101
0.87488
0.874658
0.874437
0.874216
0.873995
0.873774
0.873553
0.873332
0.873111
0.87289
0.872669
0.872449
0.872228
0.872007
0.871786
0.871566
0.871345
0.871125
0.870904
0.870684
0.870463
0.870243
0.870023
0.869802
0.869582
0.869362
0.869142
0.868922
0.868702
0.868482
0.868262
0.868042
0.867822
0.867602
0.867382
0.867163
0.866943
0.866723
0.866504
0.866284
0.866064
0.865845
0.865626
0.865406
0.865187
0.864967
0.864748
0.864529
0.86431
0.864091
0.863872
0.863652
0.863433
0.863215
0.862996
0.862777
0.862558
0.862339
0.86212
0.861902
0.861683
0.861464
0.861246
0.861027
0.860809
0.86059
0.860372
0.860154
0.859935
0.859717
0.859499
0.859281
0.859062
0.858844
0.858626
0.858408
0.85819
0.857972
0.857754
0.857537
0.857319
0.857101
0.856883
0.856666
0.856448
0.856231
0.856013
0.855795
0.855578
0.855361
0.855143
0.854926
0.854709
0.854491
0.854274
0.854057
0.85384
0.853623
0.853406
0.853189
0.852972
0.852755
0.852538
0.852322
0.852105
0.851888
0.851671
0.851455
0.851238
0.851022
0.850805
0.850589
0.850372
0.850156
0.84994
0.849723
0.849507
0.849291
0.849075
0.848859
0.848643
0.848427
0.848211
0.847995
0.847779
0.847563
0.847347
0.847131
0.846916
0.8467
0.846484
0.846269
0.846053
0.845838
0.845622
0.845407
0.845192
0.844976
0.844761
0.844546
0.84433
0.844115
0.8439
0.843685
0.84347
0.843255
0.84304
0.842825
0.84261
0.842396
0.842181
0.841966
0.841751
0.841537
0.841322
0.841108
0.840893
0.840679
0.840464
0.84025
0.840036
0.839821
0.839607
0.839393
0.839179
0.838965
0.838751
0.838536
0.838322
0.838109
0.837895
0.837681
0.837467
0.837253
0.837039
0.836826
0.836612
0.836399
0.836185
0.835971
0.835758
0.835545
0.835331
0.835118
0.834905
0.834691
0.834478
0.834265
0.834052
0.833839
0.833626
0.833413
0.8332
0.832987
0.832774
0.832561
0.832348
0.832136
0.831923
0.83171
0.831498
0.831285
0.831072
0.83086
0.830648
0.830435
0.830223
0.83001
0.829798
0.829586
0.829374
0.829162
0.82895
0.828738
0.828526
0.828314
0.828102
0.82789
0.827678
0.827466
0.827254
0.827043
0.826831
0.826619
0.826408
0.826196
0.825985
0.825773
0.825562
0.82535
0.825139
0.824928
0.824717
0.824505
0.824294
0.824083
0.823872
0.823661
0.82345
0.823239
0.823028
0.822817
0.822607
0.822396
0.822185
0.821974
0.821764
0.821553
0.821343
0.821132
0.820922
0.820711
0.820501
0.82029
0.82008
0.81987
0.81966
0.81945
0.819239
0.819029
0.818819
0.818609
0.818399
0.818189
0.81798
0.81777
0.81756
0.81735
0.81714
0.816931
0.816721
0.816512
0.816302
0.816093
0.815883
0.815674
0.815464
0.815255
0.815046
0.814837
0.814627
0.814418
0.814209
0.814
0.813791
0.813582
0.813373
0.813164
0.812955
0.812747
0.812538
0.812329
0.81212
0.811912
0.811703
0.811495
0.811286
0.811078
0.810869
0.810661
0.810452
0.810244
0.810036
0.809828
0.80962
0.809411
0.809203
0.808995
0.808787
0.808579
0.808371
0.808164
0.807956
0.807748
0.80754
0.807332
0.807125
0.806917
0.80671
0.806502
0.806295
0.806087
0.80588
0.805672
0.805465
0.805258
0.805051
0.804843
0.804636
0.804429
0.804222
0.804015
0.803808
0.803601
0.803394
0.803187
0.80298
0.802774
0.802567
0.80236
0.802154
0.801947
0.80174
0.801534
0.801327
0.801121
0.800915
0.800708
0.800502
0.800296
0.800089
0.799883
0.799677
0.799471
0.799265
0.799059
0.798853
0.798647
0.798441
0.798235
0.79803
0.797824
0.797618
0.797412
0.797207
0.797001
0.796796
0.79659
0.796385
0.796179
0.795974
0.795769
0.795563
0.795358
0.795153
0.794948
0.794742
0.794537
0.794332
0.794127
0.793922
0.793717
0.793513
0.793308
0.793103
0.792898
0.792694
0.792489
0.792284
0.79208
0.791875
0.791671
0.791466
0.791262
0.791057
0.790853
0.790649
0.790445
0.79024
0.790036
0.789832
0.789628
0.789424
0.78922
0.789016
0.788812
0.788608
0.788404
0.788201
0.787997
0.787793
0.78759
0.787386
0.787182
0.786979
0.786775
0.786572
0.786368
0.786165
0.785962
0.785758
0.785555
0.785352
0.785149
0.784946
0.784743
0.78454
0.784337
0.784134
0.783931
0.783728
0.783525
0.783322
0.78312
0.782917
0.782714
0.782512
0.782309
0.782107
0.781904
0.781702
0.781499
0.781297
0.781095
0.780892
0.78069
0.780488
0.780286
0.780084
0.779881
0.779679
0.779477
0.779276
0.779074
0.778872
0.77867
0.778468
0.778266
0.778065
0.777863
0.777661
0.77746
0.777258
0.777057
0.776855
0.776654
0.776453
0.776251
0.77605
0.775849
0.775648
0.775446
0.775245
0.775044
0.774843
0.774642
0.774441
0.77424
0.77404
0.773839
0.773638
0.773437
0.773237
0.773036
0.772835
0.772635
0.772434
0.772234
0.772033
0.771833
0.771632
0.771432
0.771232
0.771032
0.770831
0.770631
0.770431
0.770231
0.770031
0.769831
0.769631
0.769431
0.769231
0.769031
0.768832
0.768632
0.768432
0.768233
0.768033
0.767833
0.767634
0.767434
0.767235
0.767035
0.766836
0.766637
0.766437
0.766238
0.766039
0.76584
0.765641
0.765442
0.765243
0.765044
0.764845
0.764646
0.764447
0.764248
0.764049
0.76385
0.763652
0.763453
0.763254
0.763056
0.762857
0.762659
0.76246
0.762262
0.762063
0.761865
0.761667
0.761469
0.76127
0.761072
0.760874
0.760676
0.760478
0.76028
0.760082
0.759884
0.759686
0.759488
0.75929
0.759093
0.758895
0.758697
0.7585
0.758302
0.758104
0.757907
0.757709
0.757512
0.757315
0.757117
0.75692
0.756723
0.756525
0.756328
0.756131
0.755934
0.755737
0.75554
0.755343
0.755146
0.754949
0.754752
0.754555
0.754359
0.754162
0.753965
0.753768
0.753572
0.753375
0.753179
0.752982
0.752786
0.752589
0.752393
0.752197
0.752
0.751804
0.751608
0.751412
0.751216
0.751019
0.750823
0.750627
0.750431
0.750236
0.75004
0.749844
0.749648
0.749452
0.749257
0.749061
0.748865
0.74867
0.748474
0.748279
0.748083
0.747888
0.747692
0.747497
0.747302
0.747106
0.746911
0.746716
0.746521
0.746326
0.746131
0.745936
0.745741
0.745546
0.745351
0.745156
0.744961
0.744766
0.744571
0.744377
0.744182
0.743987
0.743793
0.743598
0.743404
0.743209
0.743015
0.742821
0.742626
0.742432
0.742238
0.742044
0.741849
0.741655
0.741461
0.741267
0.741073
0.740879
0.740685
0.740491
0.740297
0.740104
0.73991
0.739716
0.739522
0.739329
0.739135
0.738942
0.738748
0.738555
0.738361
0.738168
0.737974
0.737781
0.737588
0.737395
0.737201
0.737008
0.736815
0.736622
0.736429
0.736236
0.736043
0.73585
0.735657
0.735464
0.735272
0.735079
0.734886
0.734693
0.734501
0.734308
0.734116
0.733923
0.733731
0.733538
0.733346
0.733153
0.732961
0.732769
0.732577
0.732384
0.732192
0.732
0.731808
0.731616
0.731424
0.731232
0.73104
0.730848
0.730656
0.730465
0.730273
0.730081
0.72989
0.729698
0.729506
0.729315
0.729123
0.728932
0.72874
0.728549
0.728358
0.728166
0.727975
0.727784
0.727593
0.727401
0.72721
0.727019
0.726828
0.726637
0.726446
0.726255
0.726065
0.725874
0.725683
0.725492
0.725301
0.725111
0.72492
0.72473
0.724539
0.724349
0.724158
0.723968
0.723777
0.723587
0.723397
0.723206
0.723016
0.722826
0.722636
0.722446
0.722256
0.722066
0.721876
0.721686
0.721496
0.721306
0.721116
0.720926
0.720736
0.720547
0.720357
0.720167
0.719978
0.719788
0.719599
0.719409
0.71922
0.719031
0.718841
0.718652
0.718463
0.718273
0.718084
0.717895
0.717706
0.717517
0.717328
0.717139
0.71695
0.716761
0.716572
0.716383
0.716195
0.716006
0.715817
0.715628
0.71544
0.715251
0.715063
0.714874
0.714686
0.714497
0.714309
0.71412
0.713932
0.713744
0.713556
0.713367
0.713179
0.712991
0.712803
0.712615
0.712427
0.712239
0.712051
0.711863
0.711675
0.711488
0.7113
0.711112
0.710924
0.710737
0.710549
0.710362
0.710174
0.709987
0.709799
0.709612
0.709424
0.709237
0.70905
0.708863
0.708675
0.708488
0.708301
0.708114
0.707927
0.70774
0.707553
0.707366
0.707179
0.706992
0.706806
0.706619
0.706432
0.706245
0.706059
0.705872
0.705686
0.705499
0.705312
0.705126
0.70494
0.704753
0.704567
0.704381
0.704194
0.704008
0.703822
0.703636
0.70345
0.703264
0.703078
0.702892
0.702706
0.70252
0.702334
0.702148
0.701962
0.701777
0.701591
0.701405
0.70122
0.701034
0.700848
0.700663
0.700477
0.700292
0.700107
0.699921
0.699736
0.699551
0.699365
0.69918
0.698995
0.69881
0.698625
0.69844
0.698255
0.69807
0.697885
0.6977
0.697515
0.69733
0.697146
0.696961
0.696776
0.696592
0.696407
0.696222
0.696038
0.695853
0.695669
0.695485
0.6953
0.695116
0.694932
0.694747
0.694563
0.694379
0.694195
0.694011
0.693827
0.693643
0.693459
0.693275
0.693091
0.692907
0.692723
0.692539
0.692356
0.692172
0.691988
0.691805
0.691621
0.691437
0.691254
0.69107
0.690887
0.690704
0.69052
0.690337
0.690154
0.68997
0.689787
0.689604
0.689421
0.689238
0.689055
0.688872
0.688689
0.688506
0.688323
0.68814
0.687957
0.687775
0.687592
0.687409
0.687226
0.687044
0.686861
0.686679
0.686496
0.686314
0.686131
0.685949
0.685767
0.685584
0.685402
0.68522
0.685038
0.684855
0.684673
0.684491
0.684309
0.684127
0.683945
0.683763
0.683581
0.6834
0.683218
0.683036
0.682854
0.682673
0.682491
0.682309
0.682128
0.681946
0.681765
0.681583
0.681402
0.681221
0.681039
0.680858
0.680677
0.680495
0.680314
0.680133
0.679952
0.679771
0.67959
0.679409
0.679228
0.679047
0.678866
0.678685
0.678505
0.678324
0.678143
0.677962
0.677782
0.677601
0.677421
0.67724
0.67706
0.676879
0.676699
0.676518
0.676338
0.676158
0.675977
0.675797
0.675617
0.675437
0.675257
0.675077
0.674897
0.674717
0.674537
0.674357
0.674177
0.673997
0.673817
0.673638
0.673458
0.673278
0.673098
0.672919
0.672739
0.67256
0.67238
0.672201
0.672021
0.671842
0.671663
0.671483
0.671304
0.671125
0.670946
0.670767
0.670587
0.670408
0.670229
0.67005
0.669871
0.669693
0.669514
0.669335
0.669156
0.668977
0.668799
0.66862
0.668441
0.668263
0.668084
0.667905
0.667727
0.667549
0.66737
0.667192
0.667013
0.666835
0.666657
0.666479
0.6663
0.666122
0.665944
0.665766
0.665588
0.66541
0.665232
0.665054
0.664876
0.664698
0.664521
0.664343
0.664165
0.663987
0.66381
0.663632
0.663455
0.663277
0.6631
0.662922
0.662745
0.662567
0.66239
0.662213
0.662035
0.661858
0.661681
0.661504
0.661327
0.66115
0.660972
0.660795
0.660619
0.660442
0.660265
0.660088
0.659911
0.659734
0.659557
0.659381
0.659204
0.659028
0.658851
0.658674
0.658498
0.658321
0.658145
0.657969
0.657792
0.657616
0.65744
0.657263
0.657087
0.656911
0.656735
0.656559
0.656383
0.656207
0.656031
0.655855
0.655679
0.655503
0.655327
0.655151
0.654976
0.6548
0.654624
0.654448
0.654273
0.654097
0.653922
0.653746
0.653571
0.653395
0.65322
0.653045
0.652869
0.652694
0.652519
0.652344
0.652169
0.651993