/*--------------------------------*- C++ -*----------------------------------*\
  =========                 |
  \\      /  F ield         | OpenFOAM: The Open Source CFD Toolbox
   \\    /   O peration     | Website:  https://openfoam.org
    \\  /    A nd           | Version:  9
     \\/     M anipulation  |
\*---------------------------------------------------------------------------*/
FoamFile
{
    format      ascii;
    class       volScalarField;
    location    "0.008";
    object      rho;
}
// * * * * * * * * * * * * * * * * * * * * * * * * * * * * * * * * * * * * * //

dimensions      [1 -3 0 0 0 0 0];

internalField   nonuniform List<scalar> 
1000
(
0.999645
0.999645
0.999645
0.999645
0.999645
0.999645
0.999645
0.999645
0.999645
0.999645
0.999645
0.999645
0.999645
0.999645
0.999645
0.999645
0.999645
0.999645
0.999645
0.999645
0.999645
0.999645
0.999645
0.999645
0.999645
0.999645
0.999645
0.999645
0.999645
0.999645
0.999645
0.999645
0.999645
0.999645
0.999645
0.999645
0.999645
0.999645
0.999645
0.999645
0.999645
0.999645
0.999645
0.999645
0.999645
0.999645
0.999645
0.999645
0.999645
0.999645
0.999645
0.999645
0.999645
0.999645
0.999645
0.999645
0.999645
0.999645
0.999645
0.999645
0.999645
0.999645
0.999645
0.999645
0.999645
0.999645
0.999645
0.999645
0.999645
0.999645
0.999645
0.999645
0.999645
0.999645
0.999645
0.999645
0.999645
0.999645
0.999645
0.999645
0.999645
0.999645
0.999645
0.999645
0.999645
0.999645
0.999645
0.999645
0.999645
0.999645
0.999645
0.999645
0.999645
0.999645
0.999645
0.999645
0.999645
0.999645
0.999645
0.999645
0.999645
0.999645
0.999645
0.999645
0.999645
0.999645
0.999645
0.999645
0.999645
0.999645
0.999645
0.999645
0.999645
0.999645
0.999645
0.999645
0.999645
0.999645
0.999645
0.999645
0.999645
0.999645
0.999645
0.999645
0.999645
0.999645
0.999645
0.999645
0.999645
0.999645
0.999645
0.999645
0.999645
0.999645
0.999645
0.999645
0.999645
0.999645
0.999645
0.999645
0.999645
0.999645
0.999645
0.999645
0.999645
0.999645
0.999645
0.999645
0.999645
0.999645
0.999645
0.999645
0.999645
0.999645
0.999645
0.999645
0.999645
0.999645
0.999645
0.999645
0.999645
0.999645
0.999645
0.999645
0.999645
0.999645
0.999645
0.999645
0.999645
0.999645
0.999645
0.999645
0.999645
0.999645
0.999645
0.999645
0.999645
0.999645
0.999645
0.999645
0.999645
0.999645
0.999645
0.999645
0.999645
0.999645
0.999645
0.999645
0.999645
0.999645
0.999645
0.999645
0.999645
0.999645
0.999645
0.999645
0.999645
0.999645
0.999645
0.999645
0.999645
0.999645
0.999645
0.999644
0.999643
0.999638
0.999625
0.999588
0.999483
0.999181
0.998318
0.995828
0.988559
0.974928
0.963782
0.956758
0.951988
0.948401
0.945459
0.942871
0.940471
0.938157
0.935859
0.933536
0.931162
0.928728
0.926238
0.923704
0.921139
0.918559
0.915974
0.913389
0.910808
0.908233
0.905664
0.903102
0.900546
0.897997
0.895454
0.892917
0.890387
0.887863
0.885345
0.882834
0.880329
0.87783
0.875337
0.872851
0.87037
0.867896
0.865428
0.862966
0.86051
0.85806
0.855617
0.853179
0.850747
0.848321
0.845901
0.843487
0.841079
0.838677
0.83628
0.833889
0.831505
0.829125
0.826752
0.824384
0.822022
0.819666
0.817315
0.81497
0.812631
0.810297
0.807968
0.805645
0.803328
0.801016
0.79871
0.796409
0.794114
0.791824
0.78954
0.787261
0.784987
0.782719
0.780456
0.778198
0.775946
0.773699
0.771458
0.769221
0.76699
0.764765
0.762544
0.760329
0.758119
0.755914
0.753715
0.75152
0.749331
0.747147
0.744968
0.742794
0.740626
0.738462
0.736304
0.734151
0.732002
0.729859
0.727721
0.725588
0.72346
0.721337
0.719219
0.717106
0.714998
0.712895
0.710797
0.708703
0.706615
0.704532
0.702454
0.70038
0.698312
0.696248
0.694189
0.692135
0.690086
0.688042
0.686003
0.683968
0.681938
0.679913
0.677893
0.675878
0.673867
0.671862
0.669861
0.667864
0.665873
0.663886
0.661904
0.659926
0.657954
0.655986
0.654022
0.652064
0.65011
0.64816
0.646216
0.644276
0.64234
0.640409
0.638483
0.636561
0.634644
0.632732
0.630824
0.628921
0.627022
0.625128
0.623238
0.621353
0.619472
0.617596
0.615725
0.613858
0.611995
0.610137
0.608283
0.606434
0.604589
0.602749
0.600913
0.599081
0.597254
0.595432
0.593614
0.5918
0.58999
0.588185
0.586385
0.584588
0.582796
0.581009
0.579226
0.577447
0.575672
0.573902
0.572136
0.570374
0.568617
0.566864
0.565115
0.563371
0.56163
0.559894
0.558163
0.556435
0.554712
0.552993
0.551278
0.549568
0.547861
0.546159
0.544461
0.542768
0.541078
0.539393
0.537711
0.536034
0.534362
0.532693
0.531028
0.529368
0.527712
0.52606
0.524412
0.522768
0.521128
0.519493
0.517861
0.516234
0.51461
0.512991
0.511376
0.509765
0.508158
0.506555
0.504957
0.503362
0.501771
0.500185
0.498602
0.497024
0.495449
0.493879
0.492313
0.49075
0.489192
0.487638
0.486088
0.484541
0.482999
0.481461
0.479927
0.478397
0.476871
0.475349
0.473831
0.472317
0.470807
0.4693
0.467798
0.4663
0.464806
0.463316
0.46183
0.460348
0.45887
0.457396
0.455926
0.45446
0.452998
0.451541
0.450087
0.448638
0.447193
0.445753
0.444318
0.442887
0.441462
0.440044
0.438633
0.437232
0.435846
0.434482
0.433152
0.431878
0.430685
0.429606
0.428674
0.427906
0.427303
0.426844
0.4265
0.426245
0.42606
0.425933
0.425861
0.425823
0.425803
0.425797
0.425798
0.4258
0.4258
0.425801
0.425804
0.425821
0.425878
0.425965
0.426031
0.426064
0.426075
0.426083
0.426091
0.426106
0.426144
0.426211
0.426266
0.426293
0.426312
0.426325
0.426337
0.426352
0.426384
0.426453
0.42653
0.426586
0.426617
0.426624
0.426617
0.426586
0.426521
0.426456
0.426398
0.426338
0.426271
0.426209
0.426166
0.426147
0.426147
0.426154
0.426164
0.426167
0.426162
0.426143
0.426126
0.426123
0.426128
0.426156
0.426202
0.426224
0.426236
0.426241
0.426245
0.426249
0.426266
0.426313
0.42636
0.426388
0.426405
0.426418
0.42643
0.426452
0.426494
0.426525
0.426541
0.426543
0.426513
0.426425
0.426345
0.426299
0.426284
0.426284
0.426287
0.426286
0.426271
0.426232
0.426202
0.426194
0.426196
0.426214
0.426233
0.42624
0.426238
0.426221
0.426207
0.426205
0.426219
0.426266
0.426307
0.426324
0.426328
0.426323
0.426318
0.42632
0.42634
0.426397
0.426447
0.426471
0.426478
0.426478
0.426478
0.42648
0.426485
0.426487
0.426483
0.426451
0.426374
0.426306
0.426272
0.426266
0.42627
0.426291
0.426302
0.426301
0.426275
0.426235
0.426216
0.426216
0.426234
0.42627
0.426288
0.426292
0.426277
0.426255
0.426248
0.426255
0.426302
0.426353
0.426377
0.426383
0.426373
0.426357
0.426354
0.426366
0.426425
0.426493
0.426524
0.426533
0.426527
0.426498
0.426475
0.426467
0.426466
0.426465
0.426456
0.426407
0.426339
0.426304
0.426297
0.426307
0.426345
0.426367
0.426369
0.426347
0.426297
0.426268
0.426265
0.426286
0.42634
0.426371
0.426379
0.426363
0.426333
0.42632
0.426322
0.426369
0.426436
0.426467
0.426473
0.426456
0.426426
0.426419
0.426431
0.426502
0.42658
0.426613
0.426618
0.426591
0.426528
0.426488
0.426481
0.426499
0.426523
0.426526
0.426495
0.426431
0.426389
0.426378
0.426392
0.426457
0.426497
0.426502
0.426476
0.426421
0.426385
0.42638
0.426411
0.426493
0.426541
0.426547
0.426528
0.426492
0.426471
0.426474
0.426534
0.426625
0.426666
0.426668
0.426644
0.426615
0.426601
0.426615
0.42672
0.426823
0.426858
0.426848
0.426792
0.42672
0.42666
0.426659
0.426734
0.426801
0.426818
0.426805
0.426775
0.426718
0.42665
0.426658
0.426738
0.426725
0.42661
0.426411
0.426053
0.425382
0.424187
0.422141
0.418354
0.411434
0.399348
0.379317
0.349472
0.311823
0.279484
0.269884
0.267597
0.267924
0.267554
0.265327
0.261472
0.26075
0.260733
0.260947
0.261671
0.263793
0.266572
0.267413
0.267743
0.267443
0.265223
0.26405
0.26398
0.264091
0.264719
0.267068
0.268436
0.268448
0.268187
0.267063
0.264088
0.26278
0.262546
0.262547
0.263206
0.265531
0.266733
0.266977
0.267092
0.266715
0.264701
0.263891
0.263888
0.264056
0.264908
0.267046
0.267654
0.267604
0.267358
0.266281
0.26391
0.263148
0.263048
0.263157
0.264043
0.266117
0.266869
0.267064
0.267137
0.266596
0.264812
0.264326
0.264316
0.264433
0.265175
0.266719
0.26699
0.266917
0.26666
0.265583
0.263841
0.263493
0.26349
0.263695
0.264673
0.266375
0.266873
0.267002
0.266982
0.266237
0.264797
0.264505
0.264466
0.264501
0.265154
0.266335
0.266504
0.266455
0.266227
0.265223
0.264037
0.26389
0.263941
0.264193
0.265178
0.266469
0.266766
0.266838
0.266728
0.265876
0.264856
0.264655
0.264593
0.264611
0.265248
0.266106
0.266206
0.266176
0.265969
0.265075
0.264372
0.264336
0.264405
0.264676
0.265654
0.266511
0.266648
0.266653
0.266453
0.265551
0.264815
0.264649
0.26458
0.264634
0.265304
0.265943
0.26601
0.265993
0.265839
0.265118
0.264656
0.264644
0.264706
0.264963
0.265821
0.266349
0.266404
0.266371
0.266135
0.265313
0.264774
0.26466
0.264624
0.264747
0.265428
0.265855
0.265908
0.26592
0.265814
0.265202
0.264887
0.264884
0.264936
0.26518
0.265899
0.266196
0.266206
0.266156
0.265908
0.265181
0.264803
0.264734
0.264729
0.264906
0.265528
0.265825
0.265884
0.265909
0.265817
0.265299
0.265052
0.265041
0.265074
0.265264
0.265802
0.265974
0.26596
0.265904
0.265668
0.265065
0.264836
0.264814
0.26484
0.265041
0.265583
0.265812
0.265867
0.26589
0.265792
0.265341
0.265153
0.265139
0.265147
0.265261
0.265661
0.265796
0.265792
0.265754
0.265564
0.265102
0.264967
0.264968
0.265009
0.265193
0.265651
0.265844
0.265891
0.26591
0.26585
0.265039
0.256402
0.19453
0.132253
0.125492
0.124992
0.124958
0.124956
0.124956
0.124955
0.124955
0.124955
0.124955
0.124955
0.124955
0.124955
0.124955
0.124955
0.124955
0.124955
0.124955
0.124955
0.124955
0.124955
0.124955
0.124955
0.124955
0.124955
0.124955
0.124955
0.124955
0.124955
0.124955
0.124955
0.124955
0.124955
0.124955
0.124955
0.124955
0.124955
0.124955
0.124955
0.124955
0.124955
0.124955
0.124955
0.124955
0.124955
0.124955
0.124955
0.124955
0.124955
0.124955
0.124955
0.124955
0.124955
0.124955
0.124955
0.124955
)
;

boundaryField
{
    sides
    {
        type            calculated;
        value           nonuniform List<scalar> 2(0.124955 0.999645);
    }
    empty
    {
        type            empty;
    }
}


// ************************************************************************* //
