/*--------------------------------*- C++ -*----------------------------------*\
  =========                 |
  \\      /  F ield         | OpenFOAM: The Open Source CFD Toolbox
   \\    /   O peration     | Website:  https://openfoam.org
    \\  /    A nd           | Version:  9
     \\/     M anipulation  |
\*---------------------------------------------------------------------------*/
FoamFile
{
    format      ascii;
    class       volScalarField;
    location    "0.012";
    object      mag(U);
}
// * * * * * * * * * * * * * * * * * * * * * * * * * * * * * * * * * * * * * //

dimensions      [0 1 -1 0 0 0 0];

internalField   nonuniform List<scalar> 
100
(
0.0145991
0.0554344
0.143012
0.378873
0.955812
2.33553
5.55592
12.5386
22.8416
32.6455
41.0032
48.4864
55.5472
62.414
69.1874
75.9092
82.5978
89.2624
95.9089
102.541
109.163
115.777
122.386
128.99
135.593
142.195
148.798
155.402
162.01
168.621
175.237
181.857
188.483
195.113
201.749
208.39
215.035
221.682
228.331
234.979
241.623
248.259
254.879
261.474
268.022
274.45
280.616
286.139
290.262
292.566
293.198
293.013
292.905
293.375
293.574
293.71
293.792
293.782
293.664
293.607
293.594
293.599
293.603
293.648
293.679
293.624
293.473
293.406
293.397
293.418
293.437
293.459
293.486
293.446
293.328
293.281
293.277
293.269
293.265
293.267
293.302
293.315
293.256
293.332
293.712
291.882
293.291
298.219
295.647
290.728
289.656
289.823
290.181
291.235
293.085
295.049
292.597
289.955
288.424
284.749
)
;

boundaryField
{
    sides
    {
        type            calculated;
        value           nonuniform List<scalar> 2(284.749 0.0145991);
    }
    empty
    {
        type            empty;
    }
}


// ************************************************************************* //
