/*--------------------------------*- C++ -*----------------------------------*\
  =========                 |
  \\      /  F ield         | OpenFOAM: The Open Source CFD Toolbox
   \\    /   O peration     | Website:  https://openfoam.org
    \\  /    A nd           | Version:  9
     \\/     M anipulation  |
\*---------------------------------------------------------------------------*/
FoamFile
{
    format      ascii;
    class       volScalarField;
    location    "0.012";
    object      p;
}
// * * * * * * * * * * * * * * * * * * * * * * * * * * * * * * * * * * * * * //

dimensions      [1 -1 -2 0 0 0 0];

internalField   nonuniform List<scalar> 
100
(
99994.5
99979.3
99946.5
99858.3
99642.9
99129.2
97938.1
95395.7
91753.5
88405
85631.3
83210.8
80980.7
78861
76817
74833.5
72903.5
71022.9
69189
67399.6
65652.6
63946.6
62280.1
60651.9
59060.7
57505.6
55985.4
54499.4
53046.7
51626.5
50238
48880.8
47554
46257.2
44989.8
43751.4
42541.6
41360
40206.4
39080.7
37982.7
36912.7
35870.9
34858.2
33878.1
32936.3
32057.8
31292.1
30713.1
30411
30328.5
30353.2
30362.7
30296.1
30268.4
30252.6
30247.3
30251.2
30264.5
30269.2
30266.3
30266.4
30266.8
30263.3
30261.5
30268.5
30285.8
30292.6
30293.1
30294.6
30294.1
30291.8
30287.3
30289.5
30303
30312.7
30313.7
30315
30315.7
30315.6
30311.1
30310.8
30327.8
30356.3
30417.3
30199
30377.7
30892.3
30630.9
30104.8
29988.1
29994.4
29984.9
29977.5
30196.4
30773.4
31210.4
31533.8
31507.9
31073.6
)
;

boundaryField
{
    sides
    {
        type            zeroGradient;
    }
    empty
    {
        type            empty;
    }
}


// ************************************************************************* //
