/*--------------------------------*- C++ -*----------------------------------*\
  =========                 |
  \\      /  F ield         | OpenFOAM: The Open Source CFD Toolbox
   \\    /   O peration     | Website:  https://openfoam.org
    \\  /    A nd           | Version:  9
     \\/     M anipulation  |
\*---------------------------------------------------------------------------*/
FoamFile
{
    format      ascii;
    class       volScalarField;
    location    "0.049";
    object      mag(U);
}
// * * * * * * * * * * * * * * * * * * * * * * * * * * * * * * * * * * * * * //

dimensions      [0 1 -1 0 0 0 0];

internalField   nonuniform List<scalar> 
10000
(
7.1999
7.22521
7.25604
7.28152
7.30395
7.32623
7.34905
7.37213
7.39519
7.4182
7.44119
7.46418
7.48718
7.51017
7.53317
7.55617
7.57916
7.60215
7.62515
7.64814
7.67113
7.69412
7.71711
7.7401
7.76309
7.78607
7.80906
7.83205
7.85503
7.87802
7.901
7.92398
7.94696
7.96994
7.99292
8.0159
8.03887
8.06185
8.08482
8.1078
8.13077
8.15374
8.17671
8.19968
8.22265
8.24561
8.26858
8.29154
8.3145
8.33746
8.36042
8.38338
8.40634
8.42929
8.45225
8.4752
8.49815
8.5211
8.54404
8.56699
8.58993
8.61288
8.63582
8.65876
8.68169
8.70463
8.72756
8.75049
8.77342
8.79635
8.81928
8.8422
8.86513
8.88805
8.91097
8.93388
8.9568
8.97971
9.00262
9.02553
9.04844
9.07135
9.09425
9.11715
9.14005
9.16294
9.18584
9.20873
9.23162
9.25451
9.27739
9.30027
9.32315
9.34603
9.36891
9.39178
9.41465
9.43752
9.46038
9.48325
9.50611
9.52896
9.55182
9.57467
9.59752
9.62037
9.64321
9.66605
9.68889
9.71173
9.73456
9.75739
9.78022
9.80304
9.82586
9.84868
9.8715
9.89431
9.91712
9.93992
9.96273
9.98553
10.0083
10.0311
10.0539
10.0767
10.0995
10.1223
10.145
10.1678
10.1906
10.2133
10.2361
10.2589
10.2816
10.3044
10.3271
10.3499
10.3726
10.3953
10.4181
10.4408
10.4635
10.4863
10.509
10.5317
10.5544
10.5771
10.5998
10.6225
10.6452
10.6679
10.6906
10.7133
10.7359
10.7586
10.7813
10.804
10.8266
10.8493
10.8719
10.8946
10.9172
10.9399
10.9625
10.9851
11.0077
11.0304
11.053
11.0756
11.0982
11.1208
11.1434
11.166
11.1886
11.2112
11.2338
11.2563
11.2789
11.3015
11.324
11.3466
11.3691
11.3917
11.4142
11.4367
11.4593
11.4818
11.5043
11.5268
11.5493
11.5718
11.5943
11.6168
11.6393
11.6618
11.6843
11.7067
11.7292
11.7516
11.7741
11.7965
11.819
11.8414
11.8638
11.8863
11.9087
11.9311
11.9535
11.9759
11.9983
12.0207
12.043
12.0654
12.0878
12.1101
12.1325
12.1548
12.1772
12.1995
12.2218
12.2442
12.2665
12.2888
12.3111
12.3334
12.3557
12.3779
12.4002
12.4225
12.4447
12.467
12.4892
12.5115
12.5337
12.5559
12.5782
12.6004
12.6226
12.6448
12.6669
12.6891
12.7113
12.7335
12.7556
12.7778
12.7999
12.822
12.8442
12.8663
12.8884
12.9105
12.9326
12.9547
12.9767
12.9988
13.0209
13.0429
13.065
13.087
13.109
13.131
13.153
13.175
13.197
13.219
13.241
13.263
13.2849
13.3069
13.3288
13.3507
13.3726
13.3946
13.4165
13.4383
13.4602
13.4821
13.504
13.5258
13.5477
13.5695
13.5913
13.6131
13.6349
13.6567
13.6785
13.7003
13.7221
13.7438
13.7656
13.7873
13.809
13.8307
13.8524
13.8741
13.8958
13.9175
13.9392
13.9608
13.9824
14.0041
14.0257
14.0473
14.0689
14.0905
14.1121
14.1336
14.1552
14.1767
14.1982
14.2198
14.2413
14.2628
14.2842
14.3057
14.3272
14.3486
14.37
14.3915
14.4129
14.4343
14.4557
14.477
14.4984
14.5197
14.5411
14.5624
14.5837
14.605
14.6263
14.6476
14.6688
14.6901
14.7113
14.7325
14.7537
14.7749
14.7961
14.8172
14.8384
14.8595
14.8807
14.9018
14.9229
14.9439
14.965
14.9861
15.0071
15.0281
15.0491
15.0701
15.0911
15.1121
15.133
15.154
15.1749
15.1958
15.2167
15.2376
15.2584
15.2793
15.3001
15.3209
15.3417
15.3625
15.3833
15.404
15.4247
15.4455
15.4662
15.4869
15.5075
15.5282
15.5488
15.5694
15.59
15.6106
15.6312
15.6518
15.6723
15.6928
15.7133
15.7338
15.7543
15.7747
15.7952
15.8156
15.836
15.8563
15.8767
15.8971
15.9174
15.9377
15.958
15.9782
15.9985
16.0187
16.039
16.0591
16.0793
16.0995
16.1196
16.1397
16.1598
16.1799
16.2
16.22
16.2401
16.2601
16.28
16.3
16.3199
16.3399
16.3598
16.3797
16.3995
16.4194
16.4392
16.459
16.4788
16.4985
16.5183
16.538
16.5577
16.5773
16.597
16.6166
16.6362
16.6558
16.6754
16.6949
16.7144
16.7339
16.7534
16.7729
16.7923
16.8117
16.8311
16.8505
16.8698
16.8891
16.9084
16.9277
16.9469
16.9662
16.9854
17.0045
17.0237
17.0428
17.0619
17.081
17.1001
17.1191
17.1381
17.1571
17.1761
17.195
17.2139
17.2328
17.2516
17.2705
17.2893
17.3081
17.3268
17.3456
17.3643
17.383
17.4016
17.4203
17.4389
17.4575
17.476
17.4945
17.513
17.5315
17.55
17.5684
17.5868
17.6051
17.6235
17.6418
17.6601
17.6784
17.6966
17.7148
17.733
17.7511
17.7693
17.7873
17.8054
17.8235
17.8415
17.8595
17.8774
17.8953
17.9132
17.9311
17.949
17.9668
17.9846
18.0023
18.02
18.0377
18.0554
18.0731
18.0907
18.1083
18.1258
18.1433
18.1608
18.1783
18.1957
18.2131
18.2305
18.2479
18.2652
18.2825
18.2997
18.317
18.3342
18.3513
18.3685
18.3856
18.4027
18.4197
18.4367
18.4537
18.4707
18.4876
18.5045
18.5214
18.5382
18.555
18.5718
18.5885
18.6052
18.6219
18.6386
18.6552
18.6718
18.6883
18.7048
18.7213
18.7378
18.7542
18.7706
18.787
18.8034
18.8197
18.8359
18.8522
18.8684
18.8846
18.9007
18.9169
18.933
18.949
18.965
18.981
18.997
19.0129
19.0288
19.0447
19.0606
19.0764
19.0921
19.1079
19.1236
19.1393
19.1549
19.1706
19.1862
19.2017
19.2173
19.2327
19.2482
19.2637
19.2791
19.2944
19.3098
19.3251
19.3404
19.3556
19.3709
19.386
19.4012
19.4163
19.4314
19.4465
19.4615
19.4766
19.4915
19.5065
19.5214
19.5363
19.5512
19.566
19.5808
19.5956
19.6103
19.625
19.6397
19.6544
19.669
19.6836
19.6981
19.7127
19.7272
19.7417
19.7561
19.7705
19.7849
19.7993
19.8136
19.828
19.8422
19.8565
19.8707
19.8849
19.8991
19.9132
19.9274
19.9415
19.9555
19.9696
19.9836
19.9976
20.0115
20.0254
20.0394
20.0532
20.0671
20.0809
20.0947
20.1085
20.1223
20.136
20.1497
20.1634
20.177
20.1906
20.2043
20.2178
20.2314
20.2449
20.2584
20.2719
20.2854
20.2988
20.3122
20.3256
20.339
20.3524
20.3657
20.379
20.3923
20.4055
20.4188
20.432
20.4452
20.4584
20.4715
20.4847
20.4978
20.5109
20.5239
20.537
20.55
20.563
20.576
20.589
20.602
20.6149
20.6278
20.6407
20.6536
20.6665
20.6793
20.6921
20.7049
20.7177
20.7305
20.7433
20.756
20.7687
20.7814
20.7941
20.8068
20.8195
20.8321
20.8447
20.8573
20.8699
20.8825
20.8951
20.9076
20.9202
20.9327
20.9452
20.9577
20.9702
20.9826
20.9951
21.0075
21.02
21.0324
21.0448
21.0572
21.0695
21.0819
21.0942
21.1066
21.1189
21.1312
21.1435
21.1558
21.1681
21.1804
21.1926
21.2049
21.2171
21.2293
21.2415
21.2537
21.2659
21.2781
21.2903
21.3025
21.3146
21.3268
21.3389
21.351
21.3632
21.3753
21.3874
21.3995
21.4115
21.4236
21.4357
21.4478
21.4598
21.4719
21.4839
21.4959
21.508
21.52
21.532
21.544
21.556
21.568
21.58
21.5919
21.6039
21.6159
21.6278
21.6398
21.6517
21.6637
21.6756
21.6875
21.6995
21.7114
21.7233
21.7352
21.7471
21.759
21.7709
21.7828
21.7947
21.8066
21.8184
21.8303
21.8422
21.854
21.8659
21.8778
21.8896
21.9015
21.9133
21.9251
21.937
21.9488
21.9606
21.9725
21.9843
21.9961
22.0079
22.0198
22.0316
22.0434
22.0552
22.067
22.0788
22.0906
22.1024
22.1142
22.126
22.1377
22.1495
22.1613
22.1731
22.1849
22.1966
22.2084
22.2202
22.232
22.2437
22.2555
22.2673
22.279
22.2908
22.3026
22.3143
22.3261
22.3378
22.3496
22.3613
22.3731
22.3848
22.3966
22.4083
22.4201
22.4318
22.4436
22.4553
22.4671
22.4788
22.4905
22.5023
22.514
22.5257
22.5375
22.5492
22.561
22.5727
22.5844
22.5961
22.6079
22.6196
22.6313
22.6431
22.6548
22.6665
22.6783
22.69
22.7017
22.7134
22.7252
22.7369
22.7486
22.7603
22.7721
22.7838
22.7955
22.8072
22.819
22.8307
22.8424
22.8541
22.8659
22.8776
22.8893
22.901
22.9127
22.9245
22.9362
22.9479
22.9596
22.9713
22.9831
22.9948
23.0065
23.0182
23.03
23.0417
23.0534
23.0651
23.0768
23.0886
23.1003
23.112
23.1237
23.1354
23.1472
23.1589
23.1706
23.1823
23.194
23.2058
23.2175
23.2292
23.2409
23.2527
23.2644
23.2761
23.2878
23.2996
23.3113
23.323
23.3347
23.3464
23.3582
23.3699
23.3816
23.3933
23.4051
23.4168
23.4285
23.4402
23.452
23.4637
23.4754
23.4872
23.4989
23.5106
23.5223
23.5341
23.5458
23.5575
23.5692
23.581
23.5927
23.6044
23.6162
23.6279
23.6396
23.6514
23.6631
23.6748
23.6866
23.6983
23.71
23.7218
23.7335
23.7452
23.757
23.7687
23.7804
23.7922
23.8039
23.8156
23.8274
23.8391
23.8508
23.8626
23.8743
23.886
23.8978
23.9095
23.9213
23.933
23.9447
23.9565
23.9682
23.98
23.9917
24.0034
24.0152
24.0269
24.0387
24.0504
24.0622
24.0739
24.0856
24.0974
24.1091
24.1209
24.1326
24.1444
24.1561
24.1679
24.1796
24.1914
24.2031
24.2148
24.2266
24.2383
24.2501
24.2618
24.2736
24.2853
24.2971
24.3088
24.3206
24.3323
24.3441
24.3558
24.3676
24.3794
24.3911
24.4029
24.4146
24.4264
24.4381
24.4499
24.4616
24.4734
24.4851
24.4969
24.5087
24.5204
24.5322
24.5439
24.5557
24.5674
24.5792
24.591
24.6027
24.6145
24.6262
24.638
24.6498
24.6615
24.6733
24.6851
24.6968
24.7086
24.7203
24.7321
24.7439
24.7556
24.7674
24.7792
24.7909
24.8027
24.8145
24.8262
24.838
24.8498
24.8615
24.8733
24.8851
24.8968
24.9086
24.9204
24.9321
24.9439
24.9557
24.9675
24.9792
24.991
25.0028
25.0145
25.0263
25.0381
25.0499
25.0616
25.0734
25.0852
25.097
25.1087
25.1205
25.1323
25.1441
25.1558
25.1676
25.1794
25.1912
25.203
25.2147
25.2265
25.2383
25.2501
25.2618
25.2736
25.2854
25.2972
25.309
25.3208
25.3325
25.3443
25.3561
25.3679
25.3797
25.3914
25.4032
25.415
25.4268
25.4386
25.4504
25.4622
25.4739
25.4857
25.4975
25.5093
25.5211
25.5329
25.5447
25.5565
25.5682
25.58
25.5918
25.6036
25.6154
25.6272
25.639
25.6508
25.6626
25.6744
25.6861
25.6979
25.7097
25.7215
25.7333
25.7451
25.7569
25.7687
25.7805
25.7923
25.8041
25.8159
25.8277
25.8395
25.8513
25.8631
25.8749
25.8867
25.8985
25.9103
25.9221
25.9339
25.9457
25.9575
25.9693
25.9811
25.9929
26.0047
26.0165
26.0283
26.0401
26.0519
26.0637
26.0755
26.0873
26.0991
26.1109
26.1227
26.1345
26.1463
26.1581
26.1699
26.1817
26.1935
26.2053
26.2171
26.2289
26.2407
26.2526
26.2644
26.2762
26.288
26.2998
26.3116
26.3234
26.3352
26.347
26.3588
26.3707
26.3825
26.3943
26.4061
26.4179
26.4297
26.4415
26.4533
26.4652
26.477
26.4888
26.5006
26.5124
26.5242
26.536
26.5479
26.5597
26.5715
26.5833
26.5951
26.6069
26.6188
26.6306
26.6424
26.6542
26.666
26.6779
26.6897
26.7015
26.7133
26.7251
26.737
26.7488
26.7606
26.7724
26.7843
26.7961
26.8079
26.8197
26.8315
26.8434
26.8552
26.867
26.8788
26.8907
26.9025
26.9143
26.9262
26.938
26.9498
26.9616
26.9735
26.9853
26.9971
27.0089
27.0208
27.0326
27.0444
27.0563
27.0681
27.0799
27.0918
27.1036
27.1154
27.1273
27.1391
27.1509
27.1628
27.1746
27.1864
27.1983
27.2101
27.2219
27.2338
27.2456
27.2574
27.2693
27.2811
27.2929
27.3048
27.3166
27.3284
27.3403
27.3521
27.364
27.3758
27.3876
27.3995
27.4113
27.4232
27.435
27.4468
27.4587
27.4705
27.4824
27.4942
27.5061
27.5179
27.5297
27.5416
27.5534
27.5653
27.5771
27.589
27.6008
27.6126
27.6245
27.6363
27.6482
27.66
27.6719
27.6837
27.6956
27.7074
27.7193
27.7311
27.743
27.7548
27.7667
27.7785
27.7904
27.8022
27.8141
27.8259
27.8378
27.8496
27.8615
27.8733
27.8852
27.897
27.9089
27.9207
27.9326
27.9444
27.9563
27.9682
27.98
27.9919
28.0037
28.0156
28.0274
28.0393
28.0511
28.063
28.0749
28.0867
28.0986
28.1104
28.1223
28.1342
28.146
28.1579
28.1697
28.1816
28.1935
28.2053
28.2172
28.229
28.2409
28.2528
28.2646
28.2765
28.2883
28.3002
28.3121
28.3239
28.3358
28.3477
28.3595
28.3714
28.3833
28.3951
28.407
28.4189
28.4307
28.4426
28.4545
28.4663
28.4782
28.4901
28.5019
28.5138
28.5257
28.5375
28.5494
28.5613
28.5732
28.585
28.5969
28.6088
28.6206
28.6325
28.6444
28.6563
28.6681
28.68
28.6919
28.7038
28.7156
28.7275
28.7394
28.7513
28.7631
28.775
28.7869
28.7988
28.8106
28.8225
28.8344
28.8463
28.8581
28.87
28.8819
28.8938
28.9057
28.9175
28.9294
28.9413
28.9532
28.9651
28.9769
28.9888
29.0007
29.0126
29.0245
29.0363
29.0482
29.0601
29.072
29.0839
29.0958
29.1076
29.1195
29.1314
29.1433
29.1552
29.1671
29.179
29.1908
29.2027
29.2146
29.2265
29.2384
29.2503
29.2622
29.2741
29.2859
29.2978
29.3097
29.3216
29.3335
29.3454
29.3573
29.3692
29.3811
29.393
29.4049
29.4167
29.4286
29.4405
29.4524
29.4643
29.4762
29.4881
29.5
29.5119
29.5238
29.5357
29.5476
29.5595
29.5714
29.5833
29.5952
29.6071
29.619
29.6309
29.6428
29.6547
29.6665
29.6784
29.6903
29.7022
29.7141
29.726
29.7379
29.7498
29.7617
29.7736
29.7855
29.7974
29.8094
29.8213
29.8332
29.8451
29.857
29.8689
29.8808
29.8927
29.9046
29.9165
29.9284
29.9403
29.9522
29.9641
29.976
29.9879
29.9998
30.0117
30.0236
30.0355
30.0475
30.0594
30.0713
30.0832
30.0951
30.107
30.1189
30.1308
30.1427
30.1546
30.1665
30.1785
30.1904
30.2023
30.2142
30.2261
30.238
30.2499
30.2618
30.2738
30.2857
30.2976
30.3095
30.3214
30.3333
30.3452
30.3572
30.3691
30.381
30.3929
30.4048
30.4167
30.4287
30.4406
30.4525
30.4644
30.4763
30.4882
30.5002
30.5121
30.524
30.5359
30.5478
30.5598
30.5717
30.5836
30.5955
30.6074
30.6194
30.6313
30.6432
30.6551
30.6671
30.679
30.6909
30.7028
30.7148
30.7267
30.7386
30.7505
30.7625
30.7744
30.7863
30.7982
30.8102
30.8221
30.834
30.8459
30.8579
30.8698
30.8817
30.8936
30.9056
30.9175
30.9294
30.9414
30.9533
30.9652
30.9772
30.9891
31.001
31.0129
31.0249
31.0368
31.0487
31.0607
31.0726
31.0845
31.0965
31.1084
31.1203
31.1323
31.1442
31.1561
31.1681
31.18
31.1919
31.2039
31.2158
31.2278
31.2397
31.2516
31.2636
31.2755
31.2874
31.2994
31.3113
31.3233
31.3352
31.3471
31.3591
31.371
31.383
31.3949
31.4068
31.4188
31.4307
31.4427
31.4546
31.4665
31.4785
31.4904
31.5024
31.5143
31.5263
31.5382
31.5501
31.5621
31.574
31.586
31.5979
31.6099
31.6218
31.6338
31.6457
31.6577
31.6696
31.6815
31.6935
31.7054
31.7174
31.7293
31.7413
31.7532
31.7652
31.7771
31.7891
31.801
31.813
31.8249
31.8369
31.8488
31.8608
31.8727
31.8847
31.8966
31.9086
31.9205
31.9325
31.9445
31.9564
31.9684
31.9803
31.9923
32.0042
32.0162
32.0281
32.0401
32.052
32.064
32.076
32.0879
32.0999
32.1118
32.1238
32.1357
32.1477
32.1597
32.1716
32.1836
32.1955
32.2075
32.2195
32.2314
32.2434
32.2553
32.2673
32.2793
32.2912
32.3032
32.3151
32.3271
32.3391
32.351
32.363
32.375
32.3869
32.3989
32.4108
32.4228
32.4348
32.4467
32.4587
32.4707
32.4826
32.4946
32.5066
32.5185
32.5305
32.5425
32.5544
32.5664
32.5784
32.5903
32.6023
32.6143
32.6262
32.6382
32.6502
32.6622
32.6741
32.6861
32.6981
32.71
32.722
32.734
32.7459
32.7579
32.7699
32.7819
32.7938
32.8058
32.8178
32.8298
32.8417
32.8537
32.8657
32.8777
32.8896
32.9016
32.9136
32.9256
32.9375
32.9495
32.9615
32.9735
32.9854
32.9974
33.0094
33.0214
33.0333
33.0453
33.0573
33.0693
33.0813
33.0932
33.1052
33.1172
33.1292
33.1412
33.1531
33.1651
33.1771
33.1891
33.2011
33.2131
33.225
33.237
33.249
33.261
33.273
33.2849
33.2969
33.3089
33.3209
33.3329
33.3449
33.3569
33.3688
33.3808
33.3928
33.4048
33.4168
33.4288
33.4408
33.4527
33.4647
33.4767
33.4887
33.5007
33.5127
33.5247
33.5367
33.5487
33.5606
33.5726
33.5846
33.5966
33.6086
33.6206
33.6326
33.6446
33.6566
33.6686
33.6806
33.6926
33.7045
33.7165
33.7285
33.7405
33.7525
33.7645
33.7765
33.7885
33.8005
33.8125
33.8245
33.8365
33.8485
33.8605
33.8725
33.8845
33.8965
33.9085
33.9205
33.9325
33.9445
33.9565
33.9685
33.9805
33.9925
34.0045
34.0165
34.0285
34.0405
34.0525
34.0645
34.0765
34.0885
34.1005
34.1125
34.1245
34.1365
34.1485
34.1605
34.1725
34.1845
34.1965
34.2085
34.2205
34.2325
34.2445
34.2565
34.2685
34.2805
34.2925
34.3045
34.3165
34.3285
34.3405
34.3525
34.3646
34.3766
34.3886
34.4006
34.4126
34.4246
34.4366
34.4486
34.4606
34.4726
34.4846
34.4966
34.5087
34.5207
34.5327
34.5447
34.5567
34.5687
34.5807
34.5927
34.6047
34.6168
34.6288
34.6408
34.6528
34.6648
34.6768
34.6888
34.7009
34.7129
34.7249
34.7369
34.7489
34.7609
34.7729
34.785
34.797
34.809
34.821
34.833
34.845
34.8571
34.8691
34.8811
34.8931
34.9051
34.9171
34.9292
34.9412
34.9532
34.9652
34.9772
34.9893
35.0013
35.0133
35.0253
35.0374
35.0494
35.0614
35.0734
35.0854
35.0975
35.1095
35.1215
35.1335
35.1456
35.1576
35.1696
35.1816
35.1937
35.2057
35.2177
35.2297
35.2418
35.2538
35.2658
35.2778
35.2899
35.3019
35.3139
35.3259
35.338
35.35
35.362
35.3741
35.3861
35.3981
35.4101
35.4222
35.4342
35.4462
35.4583
35.4703
35.4823
35.4944
35.5064
35.5184
35.5305
35.5425
35.5545
35.5665
35.5786
35.5906
35.6026
35.6147
35.6267
35.6388
35.6508
35.6628
35.6749
35.6869
35.6989
35.711
35.723
35.735
35.7471
35.7591
35.7711
35.7832
35.7952
35.8073
35.8193
35.8313
35.8434
35.8554
35.8675
35.8795
35.8915
35.9036
35.9156
35.9277
35.9397
35.9517
35.9638
35.9758
35.9879
35.9999
36.012
36.024
36.036
36.0481
36.0601
36.0722
36.0842
36.0963
36.1083
36.1204
36.1324
36.1444
36.1565
36.1685
36.1806
36.1926
36.2047
36.2167
36.2288
36.2408
36.2529
36.2649
36.277
36.289
36.3011
36.3131
36.3252
36.3372
36.3493
36.3613
36.3734
36.3854
36.3975
36.4095
36.4216
36.4336
36.4457
36.4577
36.4698
36.4818
36.4939
36.5059
36.518
36.5301
36.5421
36.5542
36.5662
36.5783
36.5903
36.6024
36.6144
36.6265
36.6386
36.6506
36.6627
36.6747
36.6868
36.6988
36.7109
36.723
36.735
36.7471
36.7591
36.7712
36.7833
36.7953
36.8074
36.8194
36.8315
36.8436
36.8556
36.8677
36.8797
36.8918
36.9039
36.9159
36.928
36.9401
36.9521
36.9642
36.9762
36.9883
37.0004
37.0124
37.0245
37.0366
37.0486
37.0607
37.0728
37.0848
37.0969
37.109
37.121
37.1331
37.1452
37.1572
37.1693
37.1814
37.1934
37.2055
37.2176
37.2296
37.2417
37.2538
37.2659
37.2779
37.29
37.3021
37.3141
37.3262
37.3383
37.3504
37.3624
37.3745
37.3866
37.3986
37.4107
37.4228
37.4349
37.4469
37.459
37.4711
37.4832
37.4952
37.5073
37.5194
37.5315
37.5435
37.5556
37.5677
37.5798
37.5918
37.6039
37.616
37.6281
37.6402
37.6522
37.6643
37.6764
37.6885
37.7005
37.7126
37.7247
37.7368
37.7489
37.7609
37.773
37.7851
37.7972
37.8093
37.8214
37.8334
37.8455
37.8576
37.8697
37.8818
37.8939
37.9059
37.918
37.9301
37.9422
37.9543
37.9664
37.9784
37.9905
38.0026
38.0147
38.0268
38.0389
38.051
38.063
38.0751
38.0872
38.0993
38.1114
38.1235
38.1356
38.1477
38.1597
38.1718
38.1839
38.196
38.2081
38.2202
38.2323
38.2444
38.2565
38.2686
38.2806
38.2927
38.3048
38.3169
38.329
38.3411
38.3532
38.3653
38.3774
38.3895
38.4016
38.4137
38.4258
38.4379
38.4499
38.462
38.4741
38.4862
38.4983
38.5104
38.5225
38.5346
38.5467
38.5588
38.5709
38.583
38.5951
38.6072
38.6193
38.6314
38.6435
38.6556
38.6677
38.6798
38.6919
38.704
38.7161
38.7282
38.7403
38.7524
38.7645
38.7766
38.7887
38.8008
38.8129
38.825
38.8371
38.8492
38.8613
38.8734
38.8855
38.8976
38.9097
38.9218
38.9339
38.946
38.9582
38.9703
38.9824
38.9945
39.0066
39.0187
39.0308
39.0429
39.055
39.0671
39.0792
39.0913
39.1034
39.1155
39.1276
39.1398
39.1519
39.164
39.1761
39.1882
39.2003
39.2124
39.2245
39.2366
39.2487
39.2609
39.273
39.2851
39.2972
39.3093
39.3214
39.3335
39.3456
39.3578
39.3699
39.382
39.3941
39.4062
39.4183
39.4304
39.4426
39.4547
39.4668
39.4789
39.491
39.5031
39.5153
39.5274
39.5395
39.5516
39.5637
39.5758
39.588
39.6001
39.6122
39.6243
39.6364
39.6486
39.6607
39.6728
39.6849
39.697
39.7092
39.7213
39.7334
39.7455
39.7576
39.7698
39.7819
39.794
39.8061
39.8182
39.8304
39.8425
39.8546
39.8667
39.8789
39.891
39.9031
39.9152
39.9274
39.9395
39.9516
39.9637
39.9759
39.988
40.0001
40.0122
40.0244
40.0365
40.0486
40.0607
40.0729
40.085
40.0971
40.1093
40.1214
40.1335
40.1456
40.1578
40.1699
40.182
40.1942
40.2063
40.2184
40.2306
40.2427
40.2548
40.267
40.2791
40.2912
40.3033
40.3155
40.3276
40.3397
40.3519
40.364
40.3761
40.3883
40.4004
40.4125
40.4247
40.4368
40.449
40.4611
40.4732
40.4854
40.4975
40.5096
40.5218
40.5339
40.546
40.5582
40.5703
40.5825
40.5946
40.6067
40.6189
40.631
40.6432
40.6553
40.6674
40.6796
40.6917
40.7038
40.716
40.7281
40.7403
40.7524
40.7646
40.7767
40.7888
40.801
40.8131
40.8253
40.8374
40.8496
40.8617
40.8738
40.886
40.8981
40.9103
40.9224
40.9346
40.9467
40.9589
40.971
40.9831
40.9953
41.0074
41.0196
41.0317
41.0439
41.056
41.0682
41.0803
41.0925
41.1046
41.1168
41.1289
41.1411
41.1532
41.1654
41.1775
41.1897
41.2018
41.214
41.2261
41.2383
41.2504
41.2626
41.2747
41.2869
41.299
41.3112
41.3233
41.3355
41.3476
41.3598
41.3719
41.3841
41.3962
41.4084
41.4206
41.4327
41.4449
41.457
41.4692
41.4813
41.4935
41.5056
41.5178
41.53
41.5421
41.5543
41.5664
41.5786
41.5907
41.6029
41.6151
41.6272
41.6394
41.6515
41.6637
41.6759
41.688
41.7002
41.7123
41.7245
41.7367
41.7488
41.761
41.7731
41.7853
41.7975
41.8096
41.8218
41.8339
41.8461
41.8583
41.8704
41.8826
41.8948
41.9069
41.9191
41.9313
41.9434
41.9556
41.9678
41.9799
41.9921
42.0043
42.0164
42.0286
42.0408
42.0529
42.0651
42.0773
42.0894
42.1016
42.1138
42.1259
42.1381
42.1503
42.1624
42.1746
42.1868
42.1989
42.2111
42.2233
42.2355
42.2476
42.2598
42.272
42.2841
42.2963
42.3085
42.3207
42.3328
42.345
42.3572
42.3693
42.3815
42.3937
42.4059
42.418
42.4302
42.4424
42.4546
42.4667
42.4789
42.4911
42.5033
42.5154
42.5276
42.5398
42.552
42.5641
42.5763
42.5885
42.6007
42.6129
42.625
42.6372
42.6494
42.6616
42.6737
42.6859
42.6981
42.7103
42.7225
42.7346
42.7468
42.759
42.7712
42.7834
42.7956
42.8077
42.8199
42.8321
42.8443
42.8565
42.8686
42.8808
42.893
42.9052
42.9174
42.9296
42.9417
42.9539
42.9661
42.9783
42.9905
43.0027
43.0149
43.027
43.0392
43.0514
43.0636
43.0758
43.088
43.1002
43.1124
43.1245
43.1367
43.1489
43.1611
43.1733
43.1855
43.1977
43.2099
43.222
43.2342
43.2464
43.2586
43.2708
43.283
43.2952
43.3074
43.3196
43.3318
43.344
43.3562
43.3683
43.3805
43.3927
43.4049
43.4171
43.4293
43.4415
43.4537
43.4659
43.4781
43.4903
43.5025
43.5147
43.5269
43.5391
43.5513
43.5635
43.5757
43.5878
43.6
43.6122
43.6244
43.6366
43.6488
43.661
43.6732
43.6854
43.6976
43.7098
43.722
43.7342
43.7464
43.7586
43.7708
43.783
43.7952
43.8074
43.8196
43.8318
43.844
43.8562
43.8684
43.8806
43.8928
43.905
43.9172
43.9294
43.9417
43.9539
43.9661
43.9783
43.9905
44.0027
44.0149
44.0271
44.0393
44.0515
44.0637
44.0759
44.0881
44.1003
44.1125
44.1247
44.1369
44.1491
44.1613
44.1736
44.1858
44.198
44.2102
44.2224
44.2346
44.2468
44.259
44.2712
44.2834
44.2956
44.3079
44.3201
44.3323
44.3445
44.3567
44.3689
44.3811
44.3933
44.4055
44.4178
44.43
44.4422
44.4544
44.4666
44.4788
44.491
44.5032
44.5155
44.5277
44.5399
44.5521
44.5643
44.5765
44.5887
44.601
44.6132
44.6254
44.6376
44.6498
44.662
44.6742
44.6865
44.6987
44.7109
44.7231
44.7353
44.7475
44.7598
44.772
44.7842
44.7964
44.8086
44.8209
44.8331
44.8453
44.8575
44.8697
44.8819
44.8942
44.9064
44.9186
44.9308
44.943
44.9553
44.9675
44.9797
44.9919
45.0042
45.0164
45.0286
45.0408
45.053
45.0653
45.0775
45.0897
45.1019
45.1142
45.1264
45.1386
45.1508
45.163
45.1753
45.1875
45.1997
45.2119
45.2242
45.2364
45.2486
45.2608
45.2731
45.2853
45.2975
45.3097
45.322
45.3342
45.3464
45.3587
45.3709
45.3831
45.3953
45.4076
45.4198
45.432
45.4443
45.4565
45.4687
45.4809
45.4932
45.5054
45.5176
45.5299
45.5421
45.5543
45.5666
45.5788
45.591
45.6032
45.6155
45.6277
45.6399
45.6522
45.6644
45.6766
45.6889
45.7011
45.7133
45.7256
45.7378
45.75
45.7623
45.7745
45.7868
45.799
45.8112
45.8235
45.8357
45.8479
45.8602
45.8724
45.8846
45.8969
45.9091
45.9214
45.9336
45.9458
45.9581
45.9703
45.9826
45.9948
46.007
46.0193
46.0315
46.0438
46.056
46.0683
46.0805
46.0927
46.105
46.1172
46.1295
46.1417
46.154
46.1662
46.1784
46.1907
46.2029
46.2152
46.2274
46.2397
46.2519
46.2642
46.2764
46.2887
46.3009
46.3132
46.3254
46.3377
46.3499
46.3622
46.3744
46.3867
46.3989
46.4112
46.4234
46.4357
46.4479
46.4602
46.4724
46.4847
46.4969
46.5092
46.5214
46.5337
46.5459
46.5582
46.5704
46.5827
46.5949
46.6072
46.6195
46.6317
46.644
46.6562
46.6685
46.6807
46.693
46.7052
46.7175
46.7298
46.742
46.7543
46.7665
46.7788
46.791
46.8033
46.8156
46.8278
46.8401
46.8523
46.8646
46.8769
46.8891
46.9014
46.9136
46.9259
46.9382
46.9504
46.9627
46.975
46.9872
46.9995
47.0117
47.024
47.0363
47.0485
47.0608
47.0731
47.0853
47.0976
47.1099
47.1221
47.1344
47.1466
47.1589
47.1712
47.1834
47.1957
47.208
47.2202
47.2325
47.2448
47.257
47.2693
47.2816
47.2938
47.3061
47.3184
47.3307
47.3429
47.3552
47.3675
47.3797
47.392
47.4043
47.4165
47.4288
47.4411
47.4533
47.4656
47.4779
47.4902
47.5024
47.5147
47.527
47.5392
47.5515
47.5638
47.5761
47.5883
47.6006
47.6129
47.6252
47.6374
47.6497
47.662
47.6743
47.6865
47.6988
47.7111
47.7234
47.7356
47.7479
47.7602
47.7725
47.7847
47.797
47.8093
47.8216
47.8338
47.8461
47.8584
47.8707
47.8829
47.8952
47.9075
47.9198
47.9321
47.9443
47.9566
47.9689
47.9812
47.9935
48.0057
48.018
48.0303
48.0426
48.0549
48.0671
48.0794
48.0917
48.104
48.1163
48.1286
48.1408
48.1531
48.1654
48.1777
48.19
48.2023
48.2145
48.2268
48.2391
48.2514
48.2637
48.276
48.2882
48.3005
48.3128
48.3251
48.3374
48.3497
48.362
48.3743
48.3865
48.3988
48.4111
48.4234
48.4357
48.448
48.4603
48.4726
48.4848
48.4971
48.5094
48.5217
48.534
48.5463
48.5586
48.5709
48.5832
48.5955
48.6077
48.62
48.6323
48.6446
48.6569
48.6692
48.6815
48.6938
48.7061
48.7184
48.7307
48.743
48.7553
48.7676
48.7798
48.7921
48.8044
48.8167
48.829
48.8413
48.8536
48.8659
48.8782
48.8905
48.9028
48.9151
48.9274
48.9397
48.952
48.9643
48.9766
48.9889
49.0012
49.0135
49.0258
49.0381
49.0504
49.0627
49.075
49.0873
49.0996
49.1119
49.1242
49.1365
49.1488
49.1611
49.1734
49.1857
49.198
49.2103
49.2226
49.2349
49.2472
49.2595
49.2718
49.2841
49.2964
49.3087
49.321
49.3333
49.3457
49.358
49.3703
49.3826
49.3949
49.4072
49.4195
49.4318
49.4441
49.4564
49.4687
49.481
49.4933
49.5056
49.5179
49.5303
49.5426
49.5549
49.5672
49.5795
49.5918
49.6041
49.6164
49.6287
49.641
49.6534
49.6657
49.678
49.6903
49.7026
49.7149
49.7272
49.7395
49.7519
49.7642
49.7765
49.7888
49.8011
49.8134
49.8257
49.8381
49.8504
49.8627
49.875
49.8873
49.8996
49.9119
49.9243
49.9366
49.9489
49.9612
49.9735
49.9858
49.9982
50.0105
50.0228
50.0351
50.0474
50.0598
50.0721
50.0844
50.0967
50.109
50.1213
50.1337
50.146
50.1583
50.1706
50.183
50.1953
50.2076
50.2199
50.2322
50.2446
50.2569
50.2692
50.2815
50.2938
50.3062
50.3185
50.3308
50.3431
50.3555
50.3678
50.3801
50.3924
50.4048
50.4171
50.4294
50.4417
50.4541
50.4664
50.4787
50.491
50.5034
50.5157
50.528
50.5403
50.5527
50.565
50.5773
50.5897
50.602
50.6143
50.6266
50.639
50.6513
50.6636
50.676
50.6883
50.7006
50.7129
50.7253
50.7376
50.7499
50.7623
50.7746
50.7869
50.7993
50.8116
50.8239
50.8363
50.8486
50.8609
50.8733
50.8856
50.8979
50.9103
50.9226
50.9349
50.9473
50.9596
50.9719
50.9843
50.9966
51.0089
51.0213
51.0336
51.0459
51.0583
51.0706
51.0829
51.0953
51.1076
51.12
51.1323
51.1446
51.157
51.1693
51.1816
51.194
51.2063
51.2187
51.231
51.2433
51.2557
51.268
51.2804
51.2927
51.305
51.3174
51.3297
51.3421
51.3544
51.3667
51.3791
51.3914
51.4038
51.4161
51.4284
51.4408
51.4531
51.4655
51.4778
51.4902
51.5025
51.5148
51.5272
51.5395
51.5519
51.5642
51.5766
51.5889
51.6013
51.6136
51.6259
51.6383
51.6506
51.663
51.6753
51.6877
51.7
51.7124
51.7247
51.7371
51.7494
51.7618
51.7741
51.7865
51.7988
51.8112
51.8235
51.8359
51.8482
51.8606
51.8729
51.8853
51.8976
51.91
51.9223
51.9347
51.947
51.9594
51.9717
51.9841
51.9964
52.0088
52.0211
52.0335
52.0458
52.0582
52.0705
52.0829
52.0952
52.1076
52.1199
52.1323
52.1447
52.157
52.1694
52.1817
52.1941
52.2064
52.2188
52.2311
52.2435
52.2559
52.2682
52.2806
52.2929
52.3053
52.3176
52.33
52.3424
52.3547
52.3671
52.3794
52.3918
52.4042
52.4165
52.4289
52.4412
52.4536
52.466
52.4783
52.4907
52.503
52.5154
52.5278
52.5401
52.5525
52.5648
52.5772
52.5896
52.6019
52.6143
52.6267
52.639
52.6514
52.6637
52.6761
52.6885
52.7008
52.7132
52.7256
52.7379
52.7503
52.7627
52.775
52.7874
52.7998
52.8121
52.8245
52.8369
52.8492
52.8616
52.874
52.8863
52.8987
52.9111
52.9234
52.9358
52.9482
52.9605
52.9729
52.9853
52.9977
53.01
53.0224
53.0348
53.0471
53.0595
53.0719
53.0842
53.0966
53.109
53.1214
53.1337
53.1461
53.1585
53.1709
53.1832
53.1956
53.208
53.2203
53.2327
53.2451
53.2575
53.2698
53.2822
53.2946
53.307
53.3193
53.3317
53.3441
53.3565
53.3688
53.3812
53.3936
53.406
53.4184
53.4307
53.4431
53.4555
53.4679
53.4802
53.4926
53.505
53.5174
53.5298
53.5421
53.5545
53.5669
53.5793
53.5917
53.604
53.6164
53.6288
53.6412
53.6536
53.6659
53.6783
53.6907
53.7031
53.7155
53.7279
53.7402
53.7526
53.765
53.7774
53.7898
53.8022
53.8145
53.8269
53.8393
53.8517
53.8641
53.8765
53.8888
53.9012
53.9136
53.926
53.9384
53.9508
53.9632
53.9756
53.9879
54.0003
54.0127
54.0251
54.0375
54.0499
54.0623
54.0747
54.087
54.0994
54.1118
54.1242
54.1366
54.149
54.1614
54.1738
54.1862
54.1986
54.2109
54.2233
54.2357
54.2481
54.2605
54.2729
54.2853
54.2977
54.3101
54.3225
54.3349
54.3473
54.3597
54.372
54.3844
54.3968
54.4092
54.4216
54.434
54.4464
54.4588
54.4712
54.4836
54.496
54.5084
54.5208
54.5332
54.5456
54.558
54.5704
54.5828
54.5952
54.6076
54.62
54.6324
54.6448
54.6572
54.6696
54.682
54.6944
54.7068
54.7192
54.7316
54.744
54.7564
54.7688
54.7812
54.7936
54.806
54.8184
54.8308
54.8432
54.8556
54.868
54.8804
54.8928
54.9052
54.9176
54.93
54.9424
54.9548
54.9672
54.9796
54.992
55.0044
55.0168
55.0292
55.0416
55.054
55.0664
55.0788
55.0913
55.1037
55.1161
55.1285
55.1409
55.1533
55.1657
55.1781
55.1905
55.2029
55.2153
55.2277
55.2401
55.2526
55.265
55.2774
55.2898
55.3022
55.3146
55.327
55.3394
55.3518
55.3642
55.3767
55.3891
55.4015
55.4139
55.4263
55.4387
55.4511
55.4635
55.476
55.4884
55.5008
55.5132
55.5256
55.538
55.5504
55.5629
55.5753
55.5877
55.6001
55.6125
55.6249
55.6373
55.6498
55.6622
55.6746
55.687
55.6994
55.7118
55.7243
55.7367
55.7491
55.7615
55.7739
55.7864
55.7988
55.8112
55.8236
55.836
55.8484
55.8609
55.8733
55.8857
55.8981
55.9105
55.923
55.9354
55.9478
55.9602
55.9727
55.9851
55.9975
56.0099
56.0223
56.0348
56.0472
56.0596
56.072
56.0845
56.0969
56.1093
56.1217
56.1342
56.1466
56.159
56.1714
56.1839
56.1963
56.2087
56.2211
56.2336
56.246
56.2584
56.2708
56.2833
56.2957
56.3081
56.3205
56.333
56.3454
56.3578
56.3703
56.3827
56.3951
56.4075
56.42
56.4324
56.4448
56.4573
56.4697
56.4821
56.4946
56.507
56.5194
56.5318
56.5443
56.5567
56.5691
56.5816
56.594
56.6064
56.6189
56.6313
56.6437
56.6562
56.6686
56.681
56.6935
56.7059
56.7183
56.7308
56.7432
56.7556
56.7681
56.7805
56.793
56.8054
56.8178
56.8303
56.8427
56.8551
56.8676
56.88
56.8924
56.9049
56.9173
56.9298
56.9422
56.9546
56.9671
56.9795
56.992
57.0044
57.0168
57.0293
57.0417
57.0542
57.0666
57.079
57.0915
57.1039
57.1164
57.1288
57.1412
57.1537
57.1661
57.1786
57.191
57.2034
57.2159
57.2283
57.2408
57.2532
57.2657
57.2781
57.2906
57.303
57.3154
57.3279
57.3403
57.3528
57.3652
57.3777
57.3901
57.4026
57.415
57.4275
57.4399
57.4523
57.4648
57.4772
57.4897