/*--------------------------------*- C++ -*----------------------------------*\
  =========                 |
  \\      /  F ield         | OpenFOAM: The Open Source CFD Toolbox
   \\    /   O peration     | Website:  https://openfoam.org
    \\  /    A nd           | Version:  9
     \\/     M anipulation  |
\*---------------------------------------------------------------------------*/
FoamFile
{
    format      ascii;
    class       volScalarField;
    location    "0.049";
    object      T;
}
// * * * * * * * * * * * * * * * * * * * * * * * * * * * * * * * * * * * * * //

dimensions      [0 0 0 1 0 0 0];

internalField   nonuniform List<scalar> 
10000
(
168.491
168.491
168.493
168.494
168.496
168.498
168.499
168.501
168.502
168.504
168.505
168.507
168.509
168.51
168.512
168.513
168.515
168.517
168.518
168.52
168.521
168.523
168.525
168.526
168.528
168.53
168.531
168.533
168.535
168.536
168.538
168.539
168.541
168.543
168.544
168.546
168.548
168.549
168.551
168.553
168.554
168.556
168.558
168.559
168.561
168.563
168.564
168.566
168.568
168.569
168.571
168.573
168.574
168.576
168.578
168.579
168.581
168.583
168.584
168.586
168.588
168.589
168.591
168.593
168.594
168.596
168.598
168.6
168.601
168.603
168.605
168.606
168.608
168.61
168.611
168.613
168.615
168.616
168.618
168.62
168.622
168.623
168.625
168.627
168.628
168.63
168.632
168.633
168.635
168.637
168.639
168.64
168.642
168.644
168.645
168.647
168.649
168.651
168.652
168.654
168.656
168.657
168.659
168.661
168.663
168.664
168.666
168.668
168.669
168.671
168.673
168.675
168.676
168.678
168.68
168.681
168.683
168.685
168.687
168.688
168.69
168.692
168.694
168.695
168.697
168.699
168.701
168.702
168.704
168.706
168.707
168.709
168.711
168.713
168.714
168.716
168.718
168.72
168.721
168.723
168.725
168.727
168.728
168.73
168.732
168.733
168.735
168.737
168.739
168.741
168.742
168.744
168.746
168.748
168.749
168.751
168.753
168.754
168.756
168.758
168.76
168.761
168.763
168.765
168.767
168.769
168.771
168.772
168.774
168.776
168.777
168.779
168.781
168.782
168.784
168.786
168.788
168.789
168.791
168.793
168.795
168.797
168.799
168.801
168.802
168.804
168.806
168.807
168.809
168.81
168.812
168.814
168.816
168.817
168.819
168.821
168.823
168.825
168.827
168.829
168.83
168.832
168.834
168.836
168.838
168.839
168.841
168.843
168.844
168.846
168.847
168.849
168.85
168.852
168.854
168.855
168.857
168.859
168.86
168.862
168.864
168.866
168.868
168.87
168.872
168.874
168.876
168.878
168.88
168.882
168.884
168.886
168.888
168.89
168.892
168.893
168.895
168.896
168.898
168.899
168.9
168.901
168.902
168.903
168.904
168.905
168.905
168.906
168.907
168.907
168.908
168.908
168.909
168.909
168.909
168.91
168.91
168.911
168.911
168.912
168.912
168.912
168.913
168.913
168.913
168.913
168.913
168.914
168.914
168.914
168.914
168.914
168.915
168.915
168.915
168.915
168.915
168.916
168.916
168.916
168.916
168.917
168.917
168.917
168.917
168.918
168.918
168.918
168.918
168.918
168.919
168.919
168.919
168.92
168.92
168.92
168.92
168.921
168.921
168.921
168.922
168.922
168.922
168.922
168.923
168.923
168.923
168.924
168.924
168.924
168.925
168.925
168.925
168.926
168.926
168.926
168.927
168.927
168.927
168.928
168.928
168.928
168.929
168.929
168.929
168.93
168.93
168.931
168.931
168.931
168.932
168.932
168.933
168.933
168.933
168.934
168.934
168.935
168.935
168.936
168.936
168.936
168.937
168.937
168.938
168.938
168.939
168.939
168.94
168.94
168.941
168.941
168.941
168.942
168.942
168.943
168.943
168.944
168.944
168.945
168.945
168.946
168.947
168.947
168.948
168.948
168.949
168.949
168.95
168.95
168.951
168.951
168.952
168.953
168.953
168.954
168.954
168.955
168.956
168.956
168.957
168.957
168.958
168.959
168.959
168.96
168.961
168.961
168.962
168.962
168.963
168.964
168.964
168.965
168.966
168.966
168.967
168.968
168.969
168.969
168.97
168.971
168.971
168.972
168.973
168.974
168.974
168.975
168.976
168.977
168.977
168.978
168.979
168.98
168.98
168.981
168.982
168.983
168.984
168.984
168.985
168.986
168.987
168.988
168.989
168.989
168.99
168.991
168.992
168.993
168.994
168.995
168.996
168.996
168.997
168.998
168.999
169
169.001
169.002
169.003
169.004
169.005
169.006
169.007
169.008
169.009
169.01
169.011
169.012
169.013
169.014
169.015
169.016
169.017
169.018
169.019
169.02
169.021
169.022
169.023
169.024
169.025
169.026
169.027
169.029
169.03
169.031
169.032
169.033
169.034
169.035
169.036
169.038
169.039
169.04
169.041
169.042
169.044
169.045
169.046
169.047
169.048
169.05
169.051
169.052
169.053
169.055
169.056
169.057
169.058
169.06
169.061
169.062
169.064
169.065
169.066
169.068
169.069
169.07
169.072
169.073
169.075
169.076
169.077
169.079
169.08
169.082
169.083
169.084
169.086
169.087
169.089
169.09
169.092
169.093
169.095
169.096
169.098
169.099
169.101
169.102
169.104
169.105
169.107
169.108
169.11
169.112
169.113
169.115
169.116
169.118
169.12
169.121
169.123
169.124
169.126
169.128
169.129
169.131
169.133
169.134
169.136
169.138
169.14
169.141
169.143
169.145
169.147
169.148
169.15
169.152
169.154
169.155
169.157
169.159
169.161
169.163
169.165
169.166
169.168
169.17
169.172
169.174
169.176
169.178
169.18
169.181
169.183
169.185
169.187
169.189
169.191
169.193
169.195
169.197
169.199
169.201
169.203
169.205
169.207
169.209
169.211
169.213
169.215
169.217
169.219
169.221
169.224
169.226
169.228
169.23
169.232
169.234
169.236
169.238
169.241
169.243
169.245
169.247
169.249
169.251
169.254
169.256
169.258
169.26
169.262
169.265
169.267
169.269
169.271
169.274
169.276
169.278
169.281
169.283
169.285
169.287
169.29
169.292
169.294
169.297
169.299
169.302
169.304
169.306
169.309
169.311
169.313
169.316
169.318
169.321
169.323
169.326
169.328
169.33
169.333
169.335
169.338
169.34
169.343
169.345
169.348
169.35
169.353
169.355
169.358
169.36
169.363
169.365
169.368
169.37
169.373
169.375
169.378
169.381
169.383
169.386
169.388
169.391
169.394
169.396
169.399
169.401
169.404
169.407
169.409
169.412
169.415
169.417
169.42
169.423
169.425
169.428
169.431
169.433
169.436
169.439
169.441
169.444
169.447
169.449
169.452
169.455
169.458
169.46
169.463
169.466
169.469
169.471
169.474
169.477
169.48
169.482
169.485
169.488
169.491
169.493
169.496
169.499
169.502
169.505
169.507
169.51
169.513
169.516
169.519
169.522
169.524
169.527
169.53
169.533
169.536
169.539
169.541
169.544
169.547
169.55
169.553
169.556
169.559
169.561
169.564
169.567
169.57
169.573
169.576
169.579
169.582
169.584
169.587
169.59
169.593
169.596
169.599
169.602
169.605
169.608
169.611
169.613
169.616
169.619
169.622
169.625
169.628
169.631
169.634
169.637
169.64
169.643
169.646
169.649
169.652
169.655
169.658
169.66
169.663
169.666
169.669
169.672
169.675
169.678
169.681
169.684
169.687
169.69
169.693
169.696
169.699
169.702
169.705
169.708
169.711
169.714
169.717
169.72
169.723
169.726
169.729
169.732
169.735
169.738
169.741
169.744
169.747
169.75
169.753
169.756
169.759
169.762
169.765
169.768
169.771
169.774
169.777
169.78
169.783
169.786
169.789
169.792
169.795
169.798
169.801
169.804
169.807
169.81
169.813
169.816
169.819
169.822
169.825
169.828
169.831
169.834
169.837
169.84
169.843
169.846
169.849
169.852
169.855
169.858
169.861
169.864
169.867
169.87
169.873
169.876
169.879
169.882
169.885
169.888
169.891
169.894
169.897
169.9
169.903
169.906
169.909
169.912
169.916
169.919
169.922
169.925
169.928
169.931
169.934
169.937
169.94
169.943
169.946
169.949
169.952
169.955
169.958
169.961
169.964
169.967
169.97
169.973
169.976
169.979
169.982
169.985
169.988
169.991
169.994
169.998
170.001
170.004
170.007
170.01
170.013
170.016
170.019
170.022
170.025
170.028
170.031
170.034
170.037
170.04
170.043
170.046
170.049
170.052
170.055
170.058
170.061
170.064
170.068
170.071
170.074
170.077
170.08
170.083
170.086
170.089
170.092
170.095
170.098
170.101
170.104
170.107
170.11
170.113
170.116
170.119
170.122
170.125
170.128
170.132
170.135
170.138
170.141
170.144
170.147
170.15
170.153
170.156
170.159
170.162
170.165
170.168
170.171
170.174
170.177
170.18
170.183
170.186
170.19
170.193
170.196
170.199
170.202
170.205
170.208
170.211
170.214
170.217
170.22
170.223
170.226
170.229
170.232
170.235
170.238
170.241
170.244
170.248
170.251
170.254
170.257
170.26
170.263
170.266
170.269
170.272
170.275
170.278
170.281
170.284
170.287
170.29
170.293
170.296
170.3
170.303
170.306
170.309
170.312
170.315
170.318
170.321
170.324
170.327
170.33
170.333
170.336
170.339
170.342
170.345
170.348
170.352
170.355
170.358
170.361
170.364
170.367
170.37
170.373
170.376
170.379
170.382
170.385
170.388
170.391
170.394
170.397
170.401
170.404
170.407
170.41
170.413
170.416
170.419
170.422
170.425
170.428
170.431
170.434
170.437
170.44
170.443
170.446
170.45
170.453
170.456
170.459
170.462
170.465
170.468
170.471
170.474
170.477
170.48
170.483
170.486
170.489
170.492
170.496
170.499
170.502
170.505
170.508
170.511
170.514
170.517
170.52
170.523
170.526
170.529
170.532
170.535
170.538
170.542
170.545
170.548
170.551
170.554
170.557
170.56
170.563
170.566
170.569
170.572
170.575
170.578
170.581
170.585
170.588
170.591
170.594
170.597
170.6
170.603
170.606
170.609
170.612
170.615
170.618
170.621
170.624
170.628
170.631
170.634
170.637
170.64
170.643
170.646
170.649
170.652
170.655
170.658
170.661
170.664
170.667
170.671
170.674
170.677
170.68
170.683
170.686
170.689
170.692
170.695
170.698
170.701
170.704
170.707
170.711
170.714
170.717
170.72
170.723
170.726
170.729
170.732
170.735
170.738
170.741
170.744
170.747
170.75
170.754
170.757
170.76
170.763
170.766
170.769
170.772
170.775
170.778
170.781
170.784
170.787
170.791
170.794
170.797
170.8
170.803
170.806
170.809
170.812
170.815
170.818
170.821
170.824
170.827
170.831
170.834
170.837
170.84
170.843
170.846
170.849
170.852
170.855
170.858
170.861
170.864
170.868
170.871
170.874
170.877
170.88
170.883
170.886
170.889
170.892
170.895
170.898
170.901
170.905
170.908
170.911
170.914
170.917
170.92
170.923
170.926
170.929
170.932
170.935
170.938
170.942
170.945
170.948
170.951
170.954
170.957
170.96
170.963
170.966
170.969
170.972
170.975
170.979
170.982
170.985
170.988
170.991
170.994
170.997
171
171.003
171.006
171.009
171.012
171.016
171.019
171.022
171.025
171.028
171.031
171.034
171.037
171.04
171.043
171.046
171.05
171.053
171.056
171.059
171.062
171.065
171.068
171.071
171.074
171.077
171.08
171.084
171.087
171.09
171.093
171.096
171.099
171.102
171.105
171.108
171.111
171.114
171.118
171.121
171.124
171.127
171.13
171.133
171.136
171.139
171.142
171.145
171.148
171.152
171.155
171.158
171.161
171.164
171.167
171.17
171.173
171.176
171.179
171.182
171.186
171.189
171.192
171.195
171.198
171.201
171.204
171.207
171.21
171.213
171.217
171.22
171.223
171.226
171.229
171.232
171.235
171.238
171.241
171.244
171.247
171.251
171.254
171.257
171.26
171.263
171.266
171.269
171.272
171.275
171.278
171.282
171.285
171.288
171.291
171.294
171.297
171.3
171.303
171.306
171.309
171.313
171.316
171.319
171.322
171.325
171.328
171.331
171.334
171.337
171.34
171.344
171.347
171.35
171.353
171.356
171.359
171.362
171.365
171.368
171.371
171.375
171.378
171.381
171.384
171.387
171.39
171.393
171.396
171.399
171.402
171.406
171.409
171.412
171.415
171.418
171.421
171.424
171.427
171.43
171.433
171.437
171.44
171.443
171.446
171.449
171.452
171.455
171.458
171.461
171.464
171.468
171.471
171.474
171.477
171.48
171.483
171.486
171.489
171.492
171.496
171.499
171.502
171.505
171.508
171.511
171.514
171.517
171.52
171.523
171.527
171.53
171.533
171.536
171.539
171.542
171.545
171.548
171.551
171.555
171.558
171.561
171.564
171.567
171.57
171.573
171.576
171.579
171.583
171.586
171.589
171.592
171.595
171.598
171.601
171.604
171.607
171.61
171.614
171.617
171.62
171.623
171.626
171.629
171.632
171.635
171.638
171.642
171.645
171.648
171.651
171.654
171.657
171.66
171.663
171.666
171.67
171.673
171.676
171.679
171.682
171.685
171.688
171.691
171.694
171.698
171.701
171.704
171.707
171.71
171.713
171.716
171.719
171.722
171.726
171.729
171.732
171.735
171.738
171.741
171.744
171.747
171.751
171.754
171.757
171.76
171.763
171.766
171.769
171.772
171.775
171.779
171.782
171.785
171.788
171.791
171.794
171.797
171.8
171.803
171.807
171.81
171.813
171.816
171.819
171.822
171.825
171.828
171.832
171.835
171.838
171.841
171.844
171.847
171.85
171.853
171.856
171.86
171.863
171.866
171.869
171.872
171.875
171.878
171.881
171.885
171.888
171.891
171.894
171.897
171.9
171.903
171.906
171.909
171.913
171.916
171.919
171.922
171.925
171.928
171.931
171.934
171.938
171.941
171.944
171.947
171.95
171.953
171.956
171.959
171.962
171.966
171.969
171.972
171.975
171.978
171.981
171.984
171.987
171.991
171.994
171.997
172
172.003
172.006
172.009
172.012
172.016
172.019
172.022
172.025
172.028
172.031
172.034
172.037
172.041
172.044
172.047
172.05
172.053
172.056
172.059
172.062
172.066
172.069
172.072
172.075
172.078
172.081
172.084
172.087
172.091
172.094
172.097
172.1
172.103
172.106
172.109
172.112
172.116
172.119
172.122
172.125
172.128
172.131
172.134
172.137
172.141
172.144
172.147
172.15
172.153
172.156
172.159
172.162
172.166
172.169
172.172
172.175
172.178
172.181
172.184
172.187
172.191
172.194
172.197
172.2
172.203
172.206
172.209
172.213
172.216
172.219
172.222
172.225
172.228
172.231
172.234
172.238
172.241
172.244
172.247
172.25
172.253
172.256
172.259
172.263
172.266
172.269
172.272
172.275
172.278
172.281
172.285
172.288
172.291
172.294
172.297
172.3
172.303
172.306
172.31
172.313
172.316
172.319
172.322
172.325
172.328
172.332
172.335
172.338
172.341
172.344
172.347
172.35
172.353
172.357
172.36
172.363
172.366
172.369
172.372
172.375
172.379
172.382
172.385
172.388
172.391
172.394
172.397
172.4
172.404
172.407
172.41
172.413
172.416
172.419
172.422
172.426
172.429
172.432
172.435
172.438
172.441
172.444
172.448
172.451
172.454
172.457
172.46
172.463
172.466
172.469
172.473
172.476
172.479
172.482
172.485
172.488
172.491
172.495
172.498
172.501
172.504
172.507
172.51
172.513
172.517
172.52
172.523
172.526
172.529
172.532
172.535
172.539
172.542
172.545
172.548
172.551
172.554
172.557
172.561
172.564
172.567
172.57
172.573
172.576
172.579
172.583
172.586
172.589
172.592
172.595
172.598
172.601
172.605
172.608
172.611
172.614
172.617
172.62
172.623
172.627
172.63
172.633
172.636
172.639
172.642
172.645
172.649
172.652
172.655
172.658
172.661
172.664
172.667
172.671
172.674
172.677
172.68
172.683
172.686
172.689
172.693
172.696
172.699
172.702
172.705
172.708
172.711
172.715
172.718
172.721
172.724
172.727
172.73
172.733
172.737
172.74
172.743
172.746
172.749
172.752
172.755
172.759
172.762
172.765
172.768
172.771
172.774
172.778
172.781
172.784
172.787
172.79
172.793
172.796
172.8
172.803
172.806
172.809
172.812
172.815
172.818
172.822
172.825
172.828
172.831
172.834
172.837
172.84
172.844
172.847
172.85
172.853
172.856
172.859
172.863
172.866
172.869
172.872
172.875
172.878
172.881
172.885
172.888
172.891
172.894
172.897
172.9
172.904
172.907
172.91
172.913
172.916
172.919
172.922
172.926
172.929
172.932
172.935
172.938
172.941
172.944
172.948
172.951
172.954
172.957
172.96
172.963
172.967
172.97
172.973
172.976
172.979
172.982
172.985
172.989
172.992
172.995
172.998
173.001
173.004
173.008
173.011
173.014
173.017
173.02
173.023
173.027
173.03
173.033
173.036
173.039
173.042
173.045
173.049
173.052
173.055
173.058
173.061
173.064
173.068
173.071
173.074
173.077
173.08
173.083
173.086
173.09
173.093
173.096
173.099
173.102
173.105
173.109
173.112
173.115
173.118
173.121
173.124
173.128
173.131
173.134
173.137
173.14
173.143
173.147
173.15
173.153
173.156
173.159
173.162
173.165
173.169
173.172
173.175
173.178
173.181
173.184
173.188
173.191
173.194
173.197
173.2
173.203
173.207
173.21
173.213
173.216
173.219
173.222
173.226
173.229
173.232
173.235
173.238
173.241
173.245
173.248
173.251
173.254
173.257
173.26
173.263
173.267
173.27
173.273
173.276
173.279
173.282
173.286
173.289
173.292
173.295
173.298
173.301
173.305
173.308
173.311
173.314
173.317
173.32
173.324
173.327
173.33
173.333
173.336
173.339
173.343
173.346
173.349
173.352
173.355
173.358
173.362
173.365
173.368
173.371
173.374
173.377
173.381
173.384
173.387
173.39
173.393
173.396
173.4
173.403
173.406
173.409
173.412
173.415
173.419
173.422
173.425
173.428
173.431
173.434
173.438
173.441
173.444
173.447
173.45
173.453
173.457
173.46
173.463
173.466
173.469
173.472
173.476
173.479
173.482
173.485
173.488
173.492
173.495
173.498
173.501
173.504
173.507
173.511
173.514
173.517
173.52
173.523
173.526
173.53
173.533
173.536
173.539
173.542
173.545
173.549
173.552
173.555
173.558
173.561
173.564
173.568
173.571
173.574
173.577
173.58
173.583
173.587
173.59
173.593
173.596
173.599
173.603
173.606
173.609
173.612
173.615
173.618
173.622
173.625
173.628
173.631
173.634
173.637
173.641
173.644
173.647
173.65
173.653
173.656
173.66
173.663
173.666
173.669
173.672
173.676
173.679
173.682
173.685
173.688
173.691
173.695
173.698
173.701
173.704
173.707
173.71
173.714
173.717
173.72
173.723
173.726
173.73
173.733
173.736
173.739
173.742
173.745
173.749
173.752
173.755
173.758
173.761
173.765
173.768
173.771
173.774
173.777
173.78
173.784
173.787
173.79
173.793
173.796
173.799
173.803
173.806
173.809
173.812
173.815
173.819
173.822
173.825
173.828
173.831
173.834
173.838
173.841
173.844
173.847
173.85
173.854
173.857
173.86
173.863
173.866
173.869
173.873
173.876
173.879
173.882
173.885
173.889
173.892
173.895
173.898
173.901
173.904
173.908
173.911
173.914
173.917
173.92
173.924
173.927
173.93
173.933
173.936
173.939
173.943
173.946
173.949
173.952
173.955
173.958
173.962
173.965
173.968
173.971
173.975
173.978
173.981
173.984
173.987
173.99
173.994
173.997
174
174.003
174.006
174.009
174.013
174.016
174.019
174.022
174.026
174.029
174.032
174.035
174.038
174.041
174.045
174.048
174.051
174.054
174.057
174.06
174.064
174.067
174.07
174.073
174.077
174.079
174.083
174.086
174.089
174.092
174.096
174.099
174.102
174.105
174.108
174.111
174.115
174.118
174.121
174.124
174.128
174.13
174.134
174.137
174.14
174.143
174.147
174.15
174.153
174.156
174.16
174.162
174.166
174.169
174.172
174.175
174.179
174.181
174.185
174.188
174.192
174.194
174.198
174.201
174.204
174.207
174.211
174.213
174.217
174.22
174.223
174.226
174.23
174.232
174.236
174.239
174.243
174.245
174.249
174.252
174.255
174.258
174.262
174.264
174.268
174.271
174.275
174.277
174.281
174.283
174.287
174.29
174.294
174.296
174.3
174.303
174.307
174.309
174.313
174.315
174.319
174.322
174.326
174.328
174.332
174.335
174.339
174.341
174.345
174.347
174.351
174.354
174.358
174.36
174.364
174.366
174.371
174.373
174.377
174.379
174.383
174.386
174.39
174.392
174.396
174.398
174.403
174.405
174.409
174.411
174.415
174.418
174.422
174.424
174.428
174.43
174.435
174.437
174.441
174.443
174.447
174.45
174.454
174.456
174.46
174.462
174.467
174.469
174.473
174.475
174.479
174.482
174.486
174.488
174.492
174.494
174.499
174.501
174.505
174.507
174.511
174.514
174.518
174.52
174.524
174.526
174.53
174.533
174.537
174.539
174.543
174.546
174.55
174.552
174.556
174.559
174.562
174.565
174.569
174.572
174.575
174.578
174.581
174.584
174.588
174.591
174.594
174.597
174.601
174.604
174.607
174.61
174.613
174.617
174.62
174.623
174.626
174.629
174.633
174.636
174.639
174.642
174.645
174.649
174.652
174.655
174.658
174.661
174.665
174.668
174.671
174.674
174.677
174.681
174.684
174.687
174.69
174.693
174.697
174.7
174.703
174.706
174.709
174.713
174.716
174.719
174.722
174.726
174.729
174.732
174.735
174.738
174.742
174.745
174.748
174.751
174.754
174.758
174.761
174.764
174.767
174.77
174.774
174.777
174.78
174.783
174.786
174.79
174.793
174.796
174.799
174.802
174.806
174.809
174.812
174.815
174.819
174.822
174.825
174.828
174.831
174.835
174.838
174.841
174.844
174.847
174.851
174.854
174.857
174.86
174.863
174.867
174.87
174.873
174.876
174.88
174.883
174.886
174.889
174.892
174.896
174.899
174.902
174.905
174.908
174.912
174.915
174.918
174.921
174.925
174.928
174.931
174.934
174.937
174.941
174.944
174.947
174.95
174.953
174.957
174.96
174.963
174.966
174.969
174.973
174.976
174.979
174.982
174.986
174.989
174.992
174.995
174.998
175.002
175.005
175.008
175.011
175.014
175.018
175.021
175.024
175.027
175.031
175.034
175.037
175.04
175.043
175.047
175.05
175.053
175.056
175.06
175.063
175.066
175.069
175.072
175.076
175.079
175.082
175.085
175.088
175.092
175.095
175.098
175.101
175.105
175.108
175.111
175.114
175.117
175.121
175.124
175.127
175.13
175.134
175.137
175.14
175.143
175.146
175.15
175.153
175.156
175.159
175.162
175.166
175.169
175.172
175.175
175.179
175.182
175.185
175.188
175.191
175.195
175.198
175.201
175.204
175.208
175.211
175.214
175.217
175.22
175.224
175.227
175.23
175.233
175.237
175.24
175.243
175.246
175.249
175.253
175.256
175.259
175.262
175.266
175.269
175.272
175.275
175.278
175.282
175.285
175.288
175.291
175.295
175.298
175.301
175.304
175.307
175.311
175.314
175.317
175.32
175.324
175.327
175.33
175.333
175.336
175.34
175.343
175.346
175.349
175.353
175.356
175.359
175.362
175.366
175.369
175.372
175.375
175.378
175.382
175.385
175.388
175.391
175.395
175.398
175.401
175.404
175.407
175.411
175.414
175.417
175.42
175.424
175.427
175.43
175.433
175.436
175.44
175.443
175.446
175.449
175.453
175.456
175.459
175.462
175.466
175.469
175.472
175.475
175.478
175.482
175.485
175.488
175.491
175.495
175.498
175.501
175.504
175.508
175.511
175.514
175.517
175.52
175.524
175.527
175.53
175.533
175.537
175.54
175.543
175.546
175.55
175.553
175.556
175.559
175.562
175.566
175.569
175.572
175.575
175.579
175.582
175.585
175.588
175.592
175.595
175.598
175.601
175.604
175.608
175.611
175.614
175.617
175.621
175.624
175.627
175.63
175.634
175.637
175.64
175.643
175.646
175.65
175.653
175.656
175.659
175.663
175.666
175.669
175.672
175.676
175.679
175.682
175.685
175.689
175.692
175.695
175.698
175.701
175.705
175.708
175.711
175.714
175.718
175.721
175.724
175.727
175.731
175.734
175.737
175.74
175.744
175.747
175.75
175.753
175.756
175.76
175.763
175.766
175.769
175.773
175.776
175.779
175.782
175.786
175.789
175.792
175.795
175.799
175.802
175.805
175.808
175.812
175.815
175.818
175.821
175.824
175.828
175.831
175.834
175.837
175.841
175.844
175.847
175.85
175.854
175.857
175.86
175.863
175.867
175.87
175.873
175.876
175.88
175.883
175.886
175.889
175.893
175.896
175.899
175.902
175.905
175.909
175.912
175.915
175.918
175.922
175.925
175.928
175.931
175.935
175.938
175.941
175.944
175.948
175.951
175.954
175.957
175.961
175.964
175.967
175.97
175.974
175.977
175.98
175.983
175.987
175.99
175.993
175.996
176
176.003
176.006
176.009
176.012
176.016
176.019
176.022
176.025
176.029
176.032
176.035
176.038
176.042
176.045
176.048
176.051
176.055
176.058
176.061
176.064
176.068
176.071
176.074
176.077
176.081
176.084
176.087
176.09
176.094
176.097
176.1
176.103
176.107
176.11
176.113
176.116
176.12
176.123
176.126
176.129
176.133
176.136
176.139
176.142
176.146
176.149
176.152
176.155
176.159
176.162
176.165
176.168
176.172
176.175
176.178
176.181
176.185
176.188
176.191
176.194
176.198
176.201
176.204
176.207
176.211
176.214
176.217
176.22
176.224
176.227
176.23
176.233
176.237
176.24
176.243
176.246
176.25
176.253
176.256
176.259
176.263
176.266
176.269
176.272
176.276
176.279
176.282
176.285
176.289
176.292
176.295
176.298
176.302
176.305
176.308
176.311
176.315
176.318
176.321
176.324
176.328
176.331
176.334
176.337
176.341
176.344
176.347
176.35
176.354
176.357
176.36
176.363
176.367
176.37
176.373
176.376
176.38
176.383
176.386
176.389
176.393
176.396
176.399
176.402
176.406
176.409
176.412
176.415
176.419
176.422
176.425
176.428
176.432
176.435
176.438
176.441
176.445
176.448
176.451
176.454
176.458
176.461
176.464
176.467
176.471
176.474
176.477
176.481
176.484
176.487
176.49
176.494
176.497
176.5
176.503
176.507
176.51
176.513
176.516
176.52
176.523
176.526
176.529
176.533
176.536
176.539
176.542
176.546
176.549
176.552
176.555
176.559
176.562
176.565
176.568
176.572
176.575
176.578
176.582
176.585
176.588
176.591
176.595
176.598
176.601
176.604
176.608
176.611
176.614
176.617
176.621
176.624
176.627
176.63
176.634
176.637
176.64
176.643
176.647
176.65
176.653
176.656
176.66
176.663
176.666
176.669
176.673
176.676
176.679
176.682
176.686
176.689
176.693
176.695
176.699
176.702
176.706
176.708
176.712
176.715
176.719
176.721
176.725
176.728
176.732
176.734
176.739
176.741
176.745
176.747
176.752
176.754
176.758
176.76
176.765
176.767
176.771
176.773
176.778
176.78
176.784
176.786
176.791
176.793
176.797
176.8
176.804
176.806
176.81
176.813
176.817
176.819
176.823
176.826
176.83
176.832
176.837
176.839
176.843
176.845
176.85
176.852
176.856
176.858
176.863
176.865
176.869
176.871
176.876
176.878
176.882
176.884
176.889
176.891
176.895
176.898
176.902
176.904
176.908
176.911
176.915
176.917
176.922
176.924
176.928
176.93
176.935
176.937
176.941
176.943
176.948
176.95
176.954
176.956
176.961
176.963
176.967
176.969
176.974
176.976
176.98
176.983
176.987
176.989
176.993
176.996
177
177.002
177.007
177.009
177.013
177.015
177.02
177.022
177.026
177.028
177.033
177.035
177.039
177.041
177.046
177.048
177.052
177.055
177.059
177.061
177.065
177.068
177.072
177.074
177.079
177.081
177.085
177.087
177.092
177.094
177.098
177.1
177.105
177.107
177.111
177.113
177.118
177.12
177.124
177.127
177.131
177.133
177.137
177.14
177.144
177.146
177.151
177.153
177.157
177.159
177.164
177.166
177.17
177.172
177.177
177.179
177.183
177.185
177.19
177.192
177.196
177.199
177.203
177.205
177.209
177.212
177.216
177.218
177.223
177.225
177.229
177.231
177.236
177.238
177.242
177.244
177.249
177.251
177.255
177.258
177.262
177.264
177.268
177.271
177.275
177.277
177.282
177.284
177.288
177.29
177.295
177.297
177.301
177.303
177.308
177.31
177.314
177.317
177.321
177.323
177.328
177.33
177.334
177.336
177.341
177.343
177.347
177.349
177.354
177.356
177.36
177.362
177.367
177.369
177.373
177.376
177.38
177.382
177.387
177.389
177.393
177.395
177.4
177.402
177.406
177.408
177.413
177.415
177.419
177.422
177.426
177.428
177.433
177.435
177.439
177.441
177.446
177.448
177.452
177.454
177.459
177.461
177.465
177.468
177.472
177.474
177.478
177.481
177.485
177.487
177.492
177.494
177.498
177.5
177.505
177.507
177.511
177.514
177.518
177.52
177.524
177.527
177.531
177.533
177.538
177.54
177.544
177.546
177.551
177.553
177.557
177.56
177.564
177.566
177.57
177.573
177.577
177.579
177.584
177.586
177.59
177.592
177.597
177.599
177.603
177.606
177.61
177.612
177.616
177.619
177.623
177.625
177.63
177.632
177.636
177.638
177.643
177.645
177.649
177.652
177.656
177.658
177.663
177.665
177.669
177.671
177.676
177.678
177.682
177.684
177.689
177.691
177.695
177.698
177.702
177.704
177.709
177.711
177.715
177.717
177.722
177.724
177.728
177.731
177.735
177.737
177.741
177.744
177.748
177.75
177.755
177.757
177.761
177.763
177.768
177.77
177.774
177.777
177.781
177.783
177.788
177.79
177.794
177.796
177.801
177.803
177.807
177.81
177.814
177.816
177.82
177.823
177.827
177.829
177.834
177.836
177.84
177.842
177.847
177.849
177.853
177.856
177.86
177.862
177.867
177.869
177.873
177.875
177.88
177.882
177.886
177.889
177.893
177.895
177.9
177.902
177.906
177.908
177.913
177.915
177.919
177.922
177.926
177.928
177.933
177.935
177.939
177.941
177.946
177.948
177.952
177.955
177.959
177.961
177.965
177.968
177.972
177.974
177.979
177.981
177.985
177.987
177.992
177.994
177.998
178.001
178.005
178.007
178.012
178.014
178.018
178.02
178.025
178.027
178.031
178.034
178.038
178.04
178.045
178.047
178.051
178.053
178.058
178.06
178.064
178.067
178.071
178.073
178.078
178.08
178.084
178.086
178.091
178.093
178.097
178.1
178.104
178.106
178.111
178.113
178.117
178.119
178.124
178.126
178.13
178.133
178.137
178.139
178.144
178.146
178.15
178.152
178.157
178.159
178.163
178.166
178.17
178.172
178.177
178.179
178.183
178.186
178.19
178.192
178.197
178.199
178.203
178.205
178.21
178.212
178.216
178.219
178.223
178.225
178.23
178.232
178.236
178.238
178.243
178.245
178.249
178.252
178.256
178.258
178.263
178.265
178.269
178.271
178.276
178.278
178.282
178.285
178.289
178.291
178.296
178.298
178.302
178.304
178.309
178.311
178.316
178.318
178.322
178.324
178.329
178.331
178.335
178.338
178.342
178.344
178.349
178.351
178.355
178.357
178.362
178.364
178.368
178.371
178.375
178.377
178.382
178.384
178.388
178.39
178.395
178.397
178.402
178.404
178.408
178.41
178.415
178.417
178.421
178.424
178.428
178.43
178.435
178.437
178.441
178.443
178.448
178.45
178.454
178.457
178.461
178.463
178.468
178.47
178.474
178.477
178.481
178.483
178.488
178.49
178.494
178.496
178.501
178.503
178.507
178.51
178.514
178.516
178.521
178.523
178.527
178.53
178.534
178.536
178.541
178.543
178.547
178.549
178.554
178.556
178.56
178.563
178.567
178.569
178.574
178.576
178.58
178.583
178.587
178.589
178.594
178.596
178.6
178.602
178.607
178.609
178.613
178.616
178.62
178.622
178.627
178.629
178.633
178.636
178.64
178.642
178.647
178.649
178.653
178.655
178.66
178.662
178.667
178.669
178.673
178.675
178.68
178.682
178.686
178.689
178.693
178.695
178.7
178.702
178.706
178.709
178.713
178.715
178.72
178.722
178.726
178.728
178.733
178.735
178.739
178.742
178.746
178.748
178.753
178.755
178.759
178.762
178.766
178.768
178.773
178.775
178.779
178.782
178.786
178.788
178.793
178.795
178.799
178.801
178.806
178.808
178.813
178.815
178.819
178.821
178.826
178.828
178.832
178.835
178.839
178.841
178.846
178.848
178.852
178.855
178.859
178.861
178.866
178.868
178.872
178.874
178.879
178.881
178.886
178.888
178.892
178.894
178.899
178.901
178.906
178.908
178.912
178.914
178.919
178.921
178.925
178.928
178.932
178.934
178.939
178.941
178.945
178.948
178.952
178.954
178.959
178.961
178.965
178.968
178.972
178.974
178.979
178.981
178.985
178.987
178.992
178.994
178.999
179.001
179.005
179.007
179.012
179.014
179.019
179.021
179.025
179.027
179.032
179.034
179.038
179.041
179.045
179.047
179.052
179.054
179.058
179.061
179.065
179.067
179.072
179.074
179.078
179.081
179.085
179.087
179.092
179.094
179.098
179.101