/*--------------------------------*- C++ -*----------------------------------*\
  =========                 |
  \\      /  F ield         | OpenFOAM: The Open Source CFD Toolbox
   \\    /   O peration     | Website:  https://openfoam.org
    \\  /    A nd           | Version:  9
     \\/     M anipulation  |
\*---------------------------------------------------------------------------*/
FoamFile
{
    format      ascii;
    class       volScalarField;
    location    "0.001";
    object      mag(U);
}
// * * * * * * * * * * * * * * * * * * * * * * * * * * * * * * * * * * * * * //

dimensions      [0 1 -1 0 0 0 0];

internalField   nonuniform List<scalar> 
100
(
8.10825e-14
4.65201e-14
4.78307e-14
2.4169e-15
8.33418e-15
4.55306e-14
1.4808e-14
4.6611e-14
7.34847e-15
4.60805e-14
1.1277e-14
3.90494e-15
1.14658e-14
1.02083e-14
5.38118e-15
6.12563e-14
1.61778e-14
5.20221e-14
2.22217e-14
3.9943e-14
2.59827e-14
3.27268e-14
3.04924e-15
2.22217e-14
5.36256e-15
7.31254e-14
5.90732e-14
9.34364e-17
6.0322e-14
8.76481e-14
6.83625e-14
2.87146e-14
2.53697e-13
6.85135e-12
1.65964e-10
3.45762e-09
6.20288e-08
9.59168e-07
1.27897e-05
0.000146992
0.00145388
0.0123398
0.0894511
0.549985
2.84257
12.2983
43.6257
100.307
155.337
219.791
278.394
300.895
297.571
304.585
284.43
160.539
22.1112
2.03679
0.175573
0.014227
0.00106035
7.13346e-05
4.27209e-06
2.2548e-07
1.04107e-08
4.18017e-10
1.45731e-11
4.75682e-13
3.96402e-14
5.15502e-14
4.25248e-14
3.79734e-14
6.15025e-14
4.58902e-14
2.32005e-14
1.72055e-14
3.55594e-14
1.49246e-14
7.55202e-14
4.08403e-14
6.72692e-15
2.42157e-14
1.21188e-14
5.96641e-14
4.08403e-14
6.72692e-15
3.15339e-14
1.004e-14
5.9336e-14
7.162e-14
2.01374e-15
9.74539e-14
1.01275e-13
9.06028e-14
1.78832e-14
5.56041e-14
2.7258e-14
9.76778e-15
9.39038e-14
1.65202e-13
)
;

boundaryField
{
    sides
    {
        type            calculated;
        value           nonuniform List<scalar> 2(1.65202e-13 8.10825e-14);
    }
    empty
    {
        type            empty;
    }
}


// ************************************************************************* //
