/*--------------------------------*- C++ -*----------------------------------*\
  =========                 |
  \\      /  F ield         | OpenFOAM: The Open Source CFD Toolbox
   \\    /   O peration     | Website:  https://openfoam.org
    \\  /    A nd           | Version:  9
     \\/     M anipulation  |
\*---------------------------------------------------------------------------*/
FoamFile
{
    format      ascii;
    class       volVectorField;
    location    "0.001";
    object      U;
}
// * * * * * * * * * * * * * * * * * * * * * * * * * * * * * * * * * * * * * //

dimensions      [0 1 -1 0 0 0 0];

internalField   nonuniform List<vector> 
100
(
(-8.10825e-14 0 0)
(-4.65201e-14 0 0)
(-4.78307e-14 0 0)
(-2.4169e-15 0 0)
(-8.33418e-15 0 0)
(-4.55306e-14 0 0)
(-1.4808e-14 0 0)
(-4.6611e-14 0 0)
(-7.34847e-15 0 0)
(4.60805e-14 0 0)
(1.1277e-14 0 0)
(3.90494e-15 0 0)
(-1.14658e-14 0 0)
(1.02083e-14 0 0)
(-5.38118e-15 0 0)
(-6.12563e-14 0 0)
(1.61778e-14 0 0)
(5.20221e-14 0 0)
(2.22217e-14 0 0)
(-3.9943e-14 0 0)
(-2.59827e-14 0 0)
(3.27268e-14 0 0)
(3.04924e-15 0 0)
(2.22217e-14 0 0)
(5.36256e-15 0 0)
(7.31254e-14 0 0)
(5.90732e-14 0 0)
(-9.34364e-17 0 0)
(-6.0322e-14 0 0)
(-8.76481e-14 0 0)
(-6.83625e-14 0 0)
(-2.87146e-14 0 0)
(2.53697e-13 0 0)
(6.85135e-12 0 0)
(1.65964e-10 0 0)
(3.45762e-09 0 0)
(6.20288e-08 0 0)
(9.59168e-07 0 0)
(1.27897e-05 0 0)
(0.000146992 0 0)
(0.00145388 0 0)
(0.0123398 0 0)
(0.0894511 0 0)
(0.549985 0 0)
(2.84257 0 0)
(12.2983 0 0)
(43.6257 0 0)
(100.307 0 0)
(155.337 0 0)
(219.791 0 0)
(278.394 0 0)
(300.895 0 0)
(297.571 0 0)
(304.585 0 0)
(284.43 0 0)
(160.539 0 0)
(22.1112 0 0)
(2.03679 0 0)
(0.175573 0 0)
(0.014227 0 0)
(0.00106035 0 0)
(7.13346e-05 0 0)
(4.27209e-06 0 0)
(2.2548e-07 0 0)
(1.04107e-08 0 0)
(4.18017e-10 0 0)
(1.45731e-11 0 0)
(4.75682e-13 0 0)
(3.96402e-14 0 0)
(5.15502e-14 0 0)
(4.25248e-14 0 0)
(3.79734e-14 0 0)
(-6.15025e-14 0 0)
(-4.58902e-14 0 0)
(2.32005e-14 0 0)
(-1.72055e-14 0 0)
(-3.55594e-14 0 0)
(1.49246e-14 0 0)
(7.55202e-14 0 0)
(-4.08403e-14 0 0)
(-6.72692e-15 0 0)
(-2.42157e-14 0 0)
(1.21188e-14 0 0)
(5.96641e-14 0 0)
(-4.08403e-14 0 0)
(-6.72692e-15 0 0)
(-3.15339e-14 0 0)
(1.004e-14 0 0)
(5.9336e-14 0 0)
(7.162e-14 0 0)
(-2.01374e-15 0 0)
(-9.74539e-14 0 0)
(-1.01275e-13 0 0)
(-9.06028e-14 0 0)
(-1.78832e-14 0 0)
(5.56041e-14 0 0)
(2.7258e-14 0 0)
(9.76778e-15 0 0)
(-9.39038e-14 0 0)
(-1.65202e-13 0 0)
)
;

boundaryField
{
    sides
    {
        type            zeroGradient;
    }
    empty
    {
        type            empty;
    }
}


// ************************************************************************* //
