/*--------------------------------*- C++ -*----------------------------------*\
  =========                 |
  \\      /  F ield         | OpenFOAM: The Open Source CFD Toolbox
   \\    /   O peration     | Website:  https://openfoam.org
    \\  /    A nd           | Version:  9
     \\/     M anipulation  |
\*---------------------------------------------------------------------------*/
FoamFile
{
    format      ascii;
    class       volScalarField;
    location    "0.031";
    object      p;
}
// * * * * * * * * * * * * * * * * * * * * * * * * * * * * * * * * * * * * * //

dimensions      [1 -1 -2 0 0 0 0];

internalField   nonuniform List<scalar> 
100
(
51276.1
50393
49863.3
49300
48751.9
48206.8
47667.4
47132.9
46603.4
46079
45559.5
45044.9
44535.2
44030.4
43530.4
43035.2
42544.8
42059
41578
41101.6
40629.9
40162.8
39700.2
39242.2
38788.7
38339.7
37895.2
37455.2
37019.6
36588.4
36161.7
35739.3
35321.5
34908
34499.1
34094.6
33694.8
33299.9
32910.6
32528
32156.4
31800.9
31478.2
31199.1
30988.5
30854.1
30781.4
30743.3
30715.6
30682
30642.5
30614.6
30598.9
30590.7
30586.7
30583.3
30576.6
30565.8
30552.9
30539.9
30531.8
30530.5
30533.7
30532.5
30520.1
30503.3
30493.1
30486.5
30483
30481.8
30480.1
30464
30449.1
30444.2
30440.7
30437.2
30433.6
30428.7
30416
30408.4
30411.5
30413.9
30414.4
30410.3
30395
30364.6
30351.3
30388.8
30640.4
31027.8
31215.5
31274.8
31294.4
31366.9
31640.3
31880.6
31986
32020.3
32030.8
32040
)
;

boundaryField
{
    sides
    {
        type            zeroGradient;
    }
    empty
    {
        type            empty;
    }
}


// ************************************************************************* //
