/*--------------------------------*- C++ -*----------------------------------*\
  =========                 |
  \\      /  F ield         | OpenFOAM: The Open Source CFD Toolbox
   \\    /   O peration     | Website:  https://openfoam.org
    \\  /    A nd           | Version:  9
     \\/     M anipulation  |
\*---------------------------------------------------------------------------*/
FoamFile
{
    format      ascii;
    class       volVectorField;
    location    "0.016";
    object      U;
}
// * * * * * * * * * * * * * * * * * * * * * * * * * * * * * * * * * * * * * //

dimensions      [0 1 -1 0 0 0 0];

internalField   nonuniform List<vector> 
10000
(
(0.84984 0 0)
(1.01798 0 0)
(1.0863 0 0)
(1.18943 0 0)
(1.2886 0 0)
(1.38474 0 0)
(1.48168 0 0)
(1.5792 0 0)
(1.67659 0 0)
(1.77387 0 0)
(1.87115 0 0)
(1.96845 0 0)
(2.06576 0 0)
(2.16307 0 0)
(2.26037 0 0)
(2.35768 0 0)
(2.45498 0 0)
(2.55229 0 0)
(2.6496 0 0)
(2.74691 0 0)
(2.84422 0 0)
(2.94152 0 0)
(3.03883 0 0)
(3.13614 0 0)
(3.23345 0 0)
(3.33076 0 0)
(3.42808 0 0)
(3.52539 0 0)
(3.6227 0 0)
(3.72001 0 0)
(3.81733 0 0)
(3.91464 0 0)
(4.01195 0 0)
(4.10927 0 0)
(4.20659 0 0)
(4.3039 0 0)
(4.40122 0 0)
(4.49854 0 0)
(4.59585 0 0)
(4.69317 0 0)
(4.79049 0 0)
(4.88781 0 0)
(4.98513 0 0)
(5.08245 0 0)
(5.17977 0 0)
(5.27709 0 0)
(5.37442 0 0)
(5.47174 0 0)
(5.56906 0 0)
(5.66639 0 0)
(5.76371 0 0)
(5.86103 0 0)
(5.95836 0 0)
(6.05569 0 0)
(6.15301 0 0)
(6.25034 0 0)
(6.34767 0 0)
(6.44499 0 0)
(6.54232 0 0)
(6.63965 0 0)
(6.73698 0 0)
(6.83431 0 0)
(6.93164 0 0)
(7.02897 0 0)
(7.12631 0 0)
(7.22364 0 0)
(7.32097 0 0)
(7.4183 0 0)
(7.51564 0 0)
(7.61297 0 0)
(7.71031 0 0)
(7.80764 0 0)
(7.90498 0 0)
(8.00231 0 0)
(8.09965 0 0)
(8.19699 0 0)
(8.29433 0 0)
(8.39166 0 0)
(8.489 0 0)
(8.58634 0 0)
(8.68368 0 0)
(8.78102 0 0)
(8.87836 0 0)
(8.97571 0 0)
(9.07305 0 0)
(9.17039 0 0)
(9.26773 0 0)
(9.36508 0 0)
(9.46242 0 0)
(9.55976 0 0)
(9.65711 0 0)
(9.75446 0 0)
(9.8518 0 0)
(9.94915 0 0)
(10.0465 0 0)
(10.1438 0 0)
(10.2412 0 0)
(10.3385 0 0)
(10.4359 0 0)
(10.5332 0 0)
(10.6306 0 0)
(10.7279 0 0)
(10.8253 0 0)
(10.9226 0 0)
(11.02 0 0)
(11.1173 0 0)
(11.2147 0 0)
(11.312 0 0)
(11.4094 0 0)
(11.5068 0 0)
(11.6041 0 0)
(11.7015 0 0)
(11.7988 0 0)
(11.8962 0 0)
(11.9935 0 0)
(12.0909 0 0)
(12.1882 0 0)
(12.2856 0 0)
(12.383 0 0)
(12.4803 0 0)
(12.5777 0 0)
(12.675 0 0)
(12.7724 0 0)
(12.8698 0 0)
(12.9671 0 0)
(13.0645 0 0)
(13.1618 0 0)
(13.2592 0 0)
(13.3566 0 0)
(13.4539 0 0)
(13.5513 0 0)
(13.6487 0 0)
(13.746 0 0)
(13.8434 0 0)
(13.9408 0 0)
(14.0381 0 0)
(14.1355 0 0)
(14.2329 0 0)
(14.3302 0 0)
(14.4276 0 0)
(14.525 0 0)
(14.6223 0 0)
(14.7197 0 0)
(14.8171 0 0)
(14.9144 0 0)
(15.0118 0 0)
(15.1092 0 0)
(15.2066 0 0)
(15.3039 0 0)
(15.4013 0 0)
(15.4987 0 0)
(15.596 0 0)
(15.6934 0 0)
(15.7908 0 0)
(15.8882 0 0)
(15.9855 0 0)
(16.0829 0 0)
(16.1803 0 0)
(16.2777 0 0)
(16.375 0 0)
(16.4724 0 0)
(16.5698 0 0)
(16.6672 0 0)
(16.7646 0 0)
(16.8619 0 0)
(16.9593 0 0)
(17.0567 0 0)
(17.1541 0 0)
(17.2515 0 0)
(17.3488 0 0)
(17.4462 0 0)
(17.5436 0 0)
(17.641 0 0)
(17.7384 0 0)
(17.8357 0 0)
(17.9331 0 0)
(18.0305 0 0)
(18.1279 0 0)
(18.2253 0 0)
(18.3227 0 0)
(18.42 0 0)
(18.5174 0 0)
(18.6148 0 0)
(18.7122 0 0)
(18.8096 0 0)
(18.907 0 0)
(19.0044 0 0)
(19.1017 0 0)
(19.1991 0 0)
(19.2965 0 0)
(19.3939 0 0)
(19.4913 0 0)
(19.5887 0 0)
(19.6861 0 0)
(19.7835 0 0)
(19.8809 0 0)
(19.9783 0 0)
(20.0756 0 0)
(20.173 0 0)
(20.2704 0 0)
(20.3678 0 0)
(20.4652 0 0)
(20.5626 0 0)
(20.66 0 0)
(20.7574 0 0)
(20.8548 0 0)
(20.9522 0 0)
(21.0496 0 0)
(21.147 0 0)
(21.2444 0 0)
(21.3418 0 0)
(21.4392 0 0)
(21.5366 0 0)
(21.634 0 0)
(21.7314 0 0)
(21.8287 0 0)
(21.9261 0 0)
(22.0235 0 0)
(22.1209 0 0)
(22.2183 0 0)
(22.3157 0 0)
(22.4131 0 0)
(22.5105 0 0)
(22.6079 0 0)
(22.7053 0 0)
(22.8027 0 0)
(22.9001 0 0)
(22.9975 0 0)
(23.0949 0 0)
(23.1923 0 0)
(23.2898 0 0)
(23.3872 0 0)
(23.4846 0 0)
(23.582 0 0)
(23.6794 0 0)
(23.7768 0 0)
(23.8742 0 0)
(23.9716 0 0)
(24.069 0 0)
(24.1664 0 0)
(24.2638 0 0)
(24.3612 0 0)
(24.4586 0 0)
(24.556 0 0)
(24.6534 0 0)
(24.7508 0 0)
(24.8482 0 0)
(24.9456 0 0)
(25.043 0 0)
(25.1405 0 0)
(25.2379 0 0)
(25.3353 0 0)
(25.4327 0 0)
(25.5301 0 0)
(25.6275 0 0)
(25.7249 0 0)
(25.8223 0 0)
(25.9197 0 0)
(26.0171 0 0)
(26.1146 0 0)
(26.212 0 0)
(26.3094 0 0)
(26.4068 0 0)
(26.5042 0 0)
(26.6016 0 0)
(26.699 0 0)
(26.7964 0 0)
(26.8938 0 0)
(26.9913 0 0)
(27.0887 0 0)
(27.1861 0 0)
(27.2835 0 0)
(27.3809 0 0)
(27.4783 0 0)
(27.5757 0 0)
(27.6732 0 0)
(27.7706 0 0)
(27.868 0 0)
(27.9654 0 0)
(28.0628 0 0)
(28.1602 0 0)
(28.2577 0 0)
(28.3551 0 0)
(28.4525 0 0)
(28.5499 0 0)
(28.6473 0 0)
(28.7447 0 0)
(28.8422 0 0)
(28.9396 0 0)
(29.037 0 0)
(29.1344 0 0)
(29.2318 0 0)
(29.3293 0 0)
(29.4267 0 0)
(29.5241 0 0)
(29.6215 0 0)
(29.7189 0 0)
(29.8163 0 0)
(29.9138 0 0)
(30.0112 0 0)
(30.1086 0 0)
(30.206 0 0)
(30.3034 0 0)
(30.4009 0 0)
(30.4983 0 0)
(30.5957 0 0)
(30.6931 0 0)
(30.7906 0 0)
(30.888 0 0)
(30.9854 0 0)
(31.0828 0 0)
(31.1802 0 0)
(31.2777 0 0)
(31.3751 0 0)
(31.4725 0 0)
(31.5699 0 0)
(31.6674 0 0)
(31.7648 0 0)
(31.8622 0 0)
(31.9596 0 0)
(32.057 0 0)
(32.1545 0 0)
(32.2519 0 0)
(32.3493 0 0)
(32.4467 0 0)
(32.5442 0 0)
(32.6416 0 0)
(32.739 0 0)
(32.8364 0 0)
(32.9339 0 0)
(33.0313 0 0)
(33.1287 0 0)
(33.2261 0 0)
(33.3236 0 0)
(33.421 0 0)
(33.5184 0 0)
(33.6158 0 0)
(33.7133 0 0)
(33.8107 0 0)
(33.9081 0 0)
(34.0055 0 0)
(34.103 0 0)
(34.2004 0 0)
(34.2978 0 0)
(34.3953 0 0)
(34.4927 0 0)
(34.5901 0 0)
(34.6875 0 0)
(34.785 0 0)
(34.8824 0 0)
(34.9798 0 0)
(35.0772 0 0)
(35.1747 0 0)
(35.2721 0 0)
(35.3695 0 0)
(35.467 0 0)
(35.5644 0 0)
(35.6618 0 0)
(35.7592 0 0)
(35.8567 0 0)
(35.9541 0 0)
(36.0515 0 0)
(36.1489 0 0)
(36.2464 0 0)
(36.3438 0 0)
(36.4412 0 0)
(36.5387 0 0)
(36.6361 0 0)
(36.7335 0 0)
(36.8309 0 0)
(36.9284 0 0)
(37.0258 0 0)
(37.1232 0 0)
(37.2207 0 0)
(37.3181 0 0)
(37.4155 0 0)
(37.5129 0 0)
(37.6104 0 0)
(37.7078 0 0)
(37.8052 0 0)
(37.9026 0 0)
(38.0001 0 0)
(38.0975 0 0)
(38.1949 0 0)
(38.2924 0 0)
(38.3898 0 0)
(38.4872 0 0)
(38.5846 0 0)
(38.6821 0 0)
(38.7795 0 0)
(38.8769 0 0)
(38.9744 0 0)
(39.0718 0 0)
(39.1692 0 0)
(39.2666 0 0)
(39.3641 0 0)
(39.4615 0 0)
(39.5589 0 0)
(39.6563 0 0)
(39.7538 0 0)
(39.8512 0 0)
(39.9486 0 0)
(40.0461 0 0)
(40.1435 0 0)
(40.2409 0 0)
(40.3383 0 0)
(40.4358 0 0)
(40.5332 0 0)
(40.6306 0 0)
(40.728 0 0)
(40.8255 0 0)
(40.9229 0 0)
(41.0203 0 0)
(41.1177 0 0)
(41.2152 0 0)
(41.3126 0 0)
(41.41 0 0)
(41.5075 0 0)
(41.6049 0 0)
(41.7023 0 0)
(41.7997 0 0)
(41.8972 0 0)
(41.9946 0 0)
(42.092 0 0)
(42.1894 0 0)
(42.2869 0 0)
(42.3843 0 0)
(42.4817 0 0)
(42.5791 0 0)
(42.6765 0 0)
(42.774 0 0)
(42.8714 0 0)
(42.9688 0 0)
(43.0662 0 0)
(43.1637 0 0)
(43.2611 0 0)
(43.3585 0 0)
(43.4559 0 0)
(43.5534 0 0)
(43.6508 0 0)
(43.7482 0 0)
(43.8456 0 0)
(43.943 0 0)
(44.0405 0 0)
(44.1379 0 0)
(44.2353 0 0)
(44.3327 0 0)
(44.4301 0 0)
(44.5276 0 0)
(44.625 0 0)
(44.7224 0 0)
(44.8198 0 0)
(44.9172 0 0)
(45.0147 0 0)
(45.1121 0 0)
(45.2095 0 0)
(45.3069 0 0)
(45.4043 0 0)
(45.5018 0 0)
(45.5992 0 0)
(45.6966 0 0)
(45.794 0 0)
(45.8914 0 0)
(45.9888 0 0)
(46.0863 0 0)
(46.1837 0 0)
(46.2811 0 0)
(46.3785 0 0)
(46.4759 0 0)
(46.5733 0 0)
(46.6707 0 0)
(46.7682 0 0)
(46.8656 0 0)
(46.963 0 0)
(47.0604 0 0)
(47.1578 0 0)
(47.2552 0 0)
(47.3526 0 0)
(47.45 0 0)
(47.5474 0 0)
(47.6449 0 0)
(47.7423 0 0)
(47.8397 0 0)
(47.9371 0 0)
(48.0345 0 0)
(48.1319 0 0)
(48.2293 0 0)
(48.3267 0 0)
(48.4241 0 0)
(48.5215 0 0)
(48.6189 0 0)
(48.7163 0 0)
(48.8137 0 0)
(48.9111 0 0)
(49.0085 0 0)
(49.106 0 0)
(49.2034 0 0)
(49.3008 0 0)
(49.3982 0 0)
(49.4956 0 0)
(49.593 0 0)
(49.6904 0 0)
(49.7878 0 0)
(49.8852 0 0)
(49.9826 0 0)
(50.08 0 0)
(50.1774 0 0)
(50.2748 0 0)
(50.3722 0 0)
(50.4695 0 0)
(50.5669 0 0)
(50.6643 0 0)
(50.7617 0 0)
(50.8591 0 0)
(50.9565 0 0)
(51.0539 0 0)
(51.1513 0 0)
(51.2487 0 0)
(51.3461 0 0)
(51.4435 0 0)
(51.5409 0 0)
(51.6383 0 0)
(51.7357 0 0)
(51.833 0 0)
(51.9304 0 0)
(52.0278 0 0)
(52.1252 0 0)
(52.2226 0 0)
(52.32 0 0)
(52.4174 0 0)
(52.5147 0 0)
(52.6121 0 0)
(52.7095 0 0)
(52.8069 0 0)
(52.9043 0 0)
(53.0016 0 0)
(53.099 0 0)
(53.1964 0 0)
(53.2938 0 0)
(53.3912 0 0)
(53.4885 0 0)
(53.5859 0 0)
(53.6833 0 0)
(53.7807 0 0)
(53.878 0 0)
(53.9754 0 0)
(54.0728 0 0)
(54.1702 0 0)
(54.2675 0 0)
(54.3649 0 0)
(54.4623 0 0)
(54.5596 0 0)
(54.657 0 0)
(54.7544 0 0)
(54.8517 0 0)
(54.9491 0 0)
(55.0465 0 0)
(55.1438 0 0)
(55.2412 0 0)
(55.3385 0 0)
(55.4359 0 0)
(55.5333 0 0)
(55.6306 0 0)
(55.728 0 0)
(55.8253 0 0)
(55.9227 0 0)
(56.02 0 0)
(56.1174 0 0)
(56.2147 0 0)
(56.3121 0 0)
(56.4094 0 0)
(56.5068 0 0)
(56.6041 0 0)
(56.7015 0 0)
(56.7988 0 0)
(56.8962 0 0)
(56.9935 0 0)
(57.0909 0 0)
(57.1882 0 0)
(57.2856 0 0)
(57.3829 0 0)
(57.4802 0 0)
(57.5776 0 0)
(57.6749 0 0)
(57.7723 0 0)
(57.8696 0 0)
(57.9669 0 0)
(58.0643 0 0)
(58.1616 0 0)
(58.2589 0 0)
(58.3562 0 0)
(58.4536 0 0)
(58.5509 0 0)
(58.6482 0 0)
(58.7455 0 0)
(58.8429 0 0)
(58.9402 0 0)
(59.0375 0 0)
(59.1348 0 0)
(59.2322 0 0)
(59.3295 0 0)
(59.4268 0 0)
(59.5241 0 0)
(59.6214 0 0)
(59.7187 0 0)
(59.816 0 0)
(59.9133 0 0)
(60.0107 0 0)
(60.108 0 0)
(60.2053 0 0)
(60.3026 0 0)
(60.3999 0 0)
(60.4972 0 0)
(60.5945 0 0)
(60.6918 0 0)
(60.7891 0 0)
(60.8864 0 0)
(60.9837 0 0)
(61.0809 0 0)
(61.1782 0 0)
(61.2755 0 0)
(61.3728 0 0)
(61.4701 0 0)
(61.5674 0 0)
(61.6647 0 0)
(61.762 0 0)
(61.8592 0 0)
(61.9565 0 0)
(62.0538 0 0)
(62.1511 0 0)
(62.2483 0 0)
(62.3456 0 0)
(62.4429 0 0)
(62.5401 0 0)
(62.6374 0 0)
(62.7347 0 0)
(62.8319 0 0)
(62.9292 0 0)
(63.0265 0 0)
(63.1237 0 0)
(63.221 0 0)
(63.3182 0 0)
(63.4155 0 0)
(63.5127 0 0)
(63.61 0 0)
(63.7072 0 0)
(63.8045 0 0)
(63.9017 0 0)
(63.999 0 0)
(64.0962 0 0)
(64.1935 0 0)
(64.2907 0 0)
(64.3879 0 0)
(64.4852 0 0)
(64.5824 0 0)
(64.6796 0 0)
(64.7768 0 0)
(64.8741 0 0)
(64.9713 0 0)
(65.0685 0 0)
(65.1657 0 0)
(65.2629 0 0)
(65.3602 0 0)
(65.4574 0 0)
(65.5546 0 0)
(65.6518 0 0)
(65.749 0 0)
(65.8462 0 0)
(65.9434 0 0)
(66.0406 0 0)
(66.1378 0 0)
(66.235 0 0)
(66.3322 0 0)
(66.4294 0 0)
(66.5266 0 0)
(66.6237 0 0)
(66.7209 0 0)
(66.8181 0 0)
(66.9153 0 0)
(67.0125 0 0)
(67.1096 0 0)
(67.2068 0 0)
(67.304 0 0)
(67.4011 0 0)
(67.4983 0 0)
(67.5955 0 0)
(67.6926 0 0)
(67.7898 0 0)
(67.8869 0 0)
(67.9841 0 0)
(68.0812 0 0)
(68.1784 0 0)
(68.2755 0 0)
(68.3727 0 0)
(68.4698 0 0)
(68.5669 0 0)
(68.6641 0 0)
(68.7612 0 0)
(68.8583 0 0)
(68.9555 0 0)
(69.0526 0 0)
(69.1497 0 0)
(69.2468 0 0)
(69.3439 0 0)
(69.441 0 0)
(69.5381 0 0)
(69.6352 0 0)
(69.7323 0 0)
(69.8294 0 0)
(69.9265 0 0)
(70.0236 0 0)
(70.1207 0 0)
(70.2178 0 0)
(70.3149 0 0)
(70.412 0 0)
(70.509 0 0)
(70.6061 0 0)
(70.7032 0 0)
(70.8003 0 0)
(70.8973 0 0)
(70.9944 0 0)
(71.0914 0 0)
(71.1885 0 0)
(71.2855 0 0)
(71.3826 0 0)
(71.4796 0 0)
(71.5767 0 0)
(71.6737 0 0)
(71.7707 0 0)
(71.8678 0 0)
(71.9648 0 0)
(72.0618 0 0)
(72.1588 0 0)
(72.2558 0 0)
(72.3528 0 0)
(72.4499 0 0)
(72.5469 0 0)
(72.6439 0 0)
(72.7409 0 0)
(72.8378 0 0)
(72.9348 0 0)
(73.0318 0 0)
(73.1288 0 0)
(73.2258 0 0)
(73.3227 0 0)
(73.4197 0 0)
(73.5167 0 0)
(73.6136 0 0)
(73.7106 0 0)
(73.8075 0 0)
(73.9045 0 0)
(74.0014 0 0)
(74.0984 0 0)
(74.1953 0 0)
(74.2922 0 0)
(74.3891 0 0)
(74.4861 0 0)
(74.583 0 0)
(74.6799 0 0)
(74.7768 0 0)
(74.8737 0 0)
(74.9706 0 0)
(75.0675 0 0)
(75.1644 0 0)
(75.2613 0 0)
(75.3581 0 0)
(75.455 0 0)
(75.5519 0 0)
(75.6488 0 0)
(75.7456 0 0)
(75.8425 0 0)
(75.9393 0 0)
(76.0362 0 0)
(76.133 0 0)
(76.2298 0 0)
(76.3267 0 0)
(76.4235 0 0)
(76.5203 0 0)
(76.6171 0 0)
(76.7139 0 0)
(76.8107 0 0)
(76.9075 0 0)
(77.0043 0 0)
(77.1011 0 0)
(77.1979 0 0)
(77.2946 0 0)
(77.3914 0 0)
(77.4882 0 0)
(77.5849 0 0)
(77.6817 0 0)
(77.7784 0 0)
(77.8752 0 0)
(77.9719 0 0)
(78.0686 0 0)
(78.1653 0 0)
(78.2621 0 0)
(78.3588 0 0)
(78.4555 0 0)
(78.5522 0 0)
(78.6489 0 0)
(78.7455 0 0)
(78.8422 0 0)
(78.9389 0 0)
(79.0355 0 0)
(79.1322 0 0)
(79.2289 0 0)
(79.3255 0 0)
(79.4221 0 0)
(79.5188 0 0)
(79.6154 0 0)
(79.712 0 0)
(79.8086 0 0)
(79.9052 0 0)
(80.0018 0 0)
(80.0984 0 0)
(80.195 0 0)
(80.2915 0 0)
(80.3881 0 0)
(80.4847 0 0)
(80.5812 0 0)
(80.6778 0 0)
(80.7743 0 0)
(80.8708 0 0)
(80.9673 0 0)
(81.0638 0 0)
(81.1603 0 0)
(81.2568 0 0)
(81.3533 0 0)
(81.4498 0 0)
(81.5463 0 0)
(81.6427 0 0)
(81.7392 0 0)
(81.8356 0 0)
(81.9321 0 0)
(82.0285 0 0)
(82.1249 0 0)
(82.2213 0 0)
(82.3177 0 0)
(82.4141 0 0)
(82.5105 0 0)
(82.6069 0 0)
(82.7032 0 0)
(82.7996 0 0)
(82.8959 0 0)
(82.9923 0 0)
(83.0886 0 0)
(83.1849 0 0)
(83.2812 0 0)
(83.3775 0 0)
(83.4738 0 0)
(83.5701 0 0)
(83.6663 0 0)
(83.7626 0 0)
(83.8588 0 0)
(83.9551 0 0)
(84.0513 0 0)
(84.1475 0 0)
(84.2437 0 0)
(84.3399 0 0)
(84.4361 0 0)
(84.5323 0 0)
(84.6284 0 0)
(84.7246 0 0)
(84.8207 0 0)
(84.9168 0 0)
(85.013 0 0)
(85.1091 0 0)
(85.2052 0 0)
(85.3012 0 0)
(85.3973 0 0)
(85.4934 0 0)
(85.5894 0 0)
(85.6854 0 0)
(85.7815 0 0)
(85.8775 0 0)
(85.9735 0 0)
(86.0694 0 0)
(86.1654 0 0)
(86.2614 0 0)
(86.3573 0 0)
(86.4532 0 0)
(86.5491 0 0)
(86.645 0 0)
(86.7409 0 0)
(86.8368 0 0)
(86.9327 0 0)
(87.0285 0 0)
(87.1243 0 0)
(87.2202 0 0)
(87.316 0 0)
(87.4118 0 0)
(87.5075 0 0)
(87.6033 0 0)
(87.699 0 0)
(87.7948 0 0)
(87.8905 0 0)
(87.9862 0 0)
(88.0819 0 0)
(88.1775 0 0)
(88.2732 0 0)
(88.3688 0 0)
(88.4644 0 0)
(88.56 0 0)
(88.6556 0 0)
(88.7512 0 0)
(88.8467 0 0)
(88.9423 0 0)
(89.0378 0 0)
(89.1333 0 0)
(89.2288 0 0)
(89.3242 0 0)
(89.4197 0 0)
(89.5151 0 0)
(89.6105 0 0)
(89.7059 0 0)
(89.8013 0 0)
(89.8966 0 0)
(89.992 0 0)
(90.0873 0 0)
(90.1826 0 0)
(90.2779 0 0)
(90.3731 0 0)
(90.4683 0 0)
(90.5636 0 0)
(90.6588 0 0)
(90.7539 0 0)
(90.8491 0 0)
(90.9442 0 0)
(91.0393 0 0)
(91.1344 0 0)
(91.2295 0 0)
(91.3245 0 0)
(91.4195 0 0)
(91.5145 0 0)
(91.6095 0 0)
(91.7045 0 0)
(91.7994 0 0)
(91.8943 0 0)
(91.9892 0 0)
(92.0841 0 0)
(92.1789 0 0)
(92.2737 0 0)
(92.3685 0 0)
(92.4633 0 0)
(92.558 0 0)
(92.6527 0 0)
(92.7474 0 0)
(92.842 0 0)
(92.9367 0 0)
(93.0313 0 0)
(93.1258 0 0)
(93.2204 0 0)
(93.3149 0 0)
(93.4094 0 0)
(93.5039 0 0)
(93.5983 0 0)
(93.6927 0 0)
(93.7871 0 0)
(93.8814 0 0)
(93.9758 0 0)
(94.07 0 0)
(94.1643 0 0)
(94.2585 0 0)
(94.3527 0 0)
(94.4469 0 0)
(94.541 0 0)
(94.6351 0 0)
(94.7292 0 0)
(94.8232 0 0)
(94.9172 0 0)
(95.0112 0 0)
(95.1051 0 0)
(95.199 0 0)
(95.2929 0 0)
(95.3867 0 0)
(95.4805 0 0)
(95.5742 0 0)
(95.668 0 0)
(95.7616 0 0)
(95.8553 0 0)
(95.9489 0 0)
(96.0424 0 0)
(96.136 0 0)
(96.2295 0 0)
(96.3229 0 0)
(96.4163 0 0)
(96.5097 0 0)
(96.603 0 0)
(96.6963 0 0)
(96.7895 0 0)
(96.8827 0 0)
(96.9759 0 0)
(97.069 0 0)
(97.1621 0 0)
(97.2551 0 0)
(97.348 0 0)
(97.441 0 0)
(97.5339 0 0)
(97.6267 0 0)
(97.7195 0 0)
(97.8122 0 0)
(97.9049 0 0)
(97.9976 0 0)
(98.0901 0 0)
(98.1827 0 0)
(98.2752 0 0)
(98.3676 0 0)
(98.46 0 0)
(98.5523 0 0)
(98.6446 0 0)
(98.7368 0 0)
(98.829 0 0)
(98.9211 0 0)
(99.0132 0 0)
(99.1052 0 0)
(99.1971 0 0)
(99.289 0 0)
(99.3808 0 0)
(99.4726 0 0)
(99.5643 0 0)
(99.6559 0 0)
(99.7475 0 0)
(99.839 0 0)
(99.9304 0 0)
(100.022 0 0)
(100.113 0 0)
(100.204 0 0)
(100.296 0 0)
(100.387 0 0)
(100.478 0 0)
(100.569 0 0)
(100.66 0 0)
(100.75 0 0)
(100.841 0 0)
(100.932 0 0)
(101.023 0 0)
(101.113 0 0)
(101.204 0 0)
(101.294 0 0)
(101.384 0 0)
(101.474 0 0)
(101.565 0 0)
(101.655 0 0)
(101.745 0 0)
(101.835 0 0)
(101.924 0 0)
(102.014 0 0)
(102.104 0 0)
(102.193 0 0)
(102.283 0 0)
(102.372 0 0)
(102.461 0 0)
(102.551 0 0)
(102.64 0 0)
(102.729 0 0)
(102.818 0 0)
(102.907 0 0)
(102.995 0 0)
(103.084 0 0)
(103.172 0 0)
(103.261 0 0)
(103.349 0 0)
(103.437 0 0)
(103.525 0 0)
(103.613 0 0)
(103.701 0 0)
(103.789 0 0)
(103.877 0 0)
(103.964 0 0)
(104.052 0 0)
(104.139 0 0)
(104.226 0 0)
(104.313 0 0)
(104.4 0 0)
(104.487 0 0)
(104.574 0 0)
(104.661 0 0)
(104.747 0 0)
(104.834 0 0)
(104.92 0 0)
(105.006 0 0)
(105.092 0 0)
(105.178 0 0)
(105.263 0 0)
(105.349 0 0)
(105.434 0 0)
(105.52 0 0)
(105.605 0 0)
(105.69 0 0)
(105.775 0 0)
(105.86 0 0)
(105.944 0 0)
(106.029 0 0)
(106.113 0 0)
(106.197 0 0)
(106.281 0 0)
(106.365 0 0)
(106.448 0 0)
(106.532 0 0)
(106.615 0 0)
(106.699 0 0)
(106.782 0 0)
(106.864 0 0)
(106.947 0 0)
(107.03 0 0)
(107.112 0 0)
(107.194 0 0)
(107.276 0 0)
(107.358 0 0)
(107.44 0 0)
(107.521 0 0)
(107.602 0 0)
(107.684 0 0)
(107.765 0 0)
(107.845 0 0)
(107.926 0 0)
(108.006 0 0)
(108.086 0 0)
(108.166 0 0)
(108.246 0 0)
(108.326 0 0)
(108.405 0 0)
(108.484 0 0)
(108.563 0 0)
(108.642 0 0)
(108.721 0 0)
(108.799 0 0)
(108.877 0 0)
(108.955 0 0)
(109.033 0 0)
(109.111 0 0)
(109.188 0 0)
(109.265 0 0)
(109.342 0 0)
(109.419 0 0)
(109.495 0 0)
(109.572 0 0)
(109.648 0 0)
(109.724 0 0)
(109.799 0 0)
(109.875 0 0)
(109.95 0 0)
(110.025 0 0)
(110.099 0 0)
(110.174 0 0)
(110.248 0 0)
(110.322 0 0)
(110.396 0 0)
(110.469 0 0)
(110.543 0 0)
(110.616 0 0)
(110.689 0 0)
(110.761 0 0)
(110.833 0 0)
(110.906 0 0)
(110.977 0 0)
(111.049 0 0)
(111.12 0 0)
(111.192 0 0)
(111.263 0 0)
(111.333 0 0)
(111.404 0 0)
(111.474 0 0)
(111.544 0 0)
(111.614 0 0)
(111.683 0 0)
(111.752 0 0)
(111.821 0 0)
(111.89 0 0)
(111.958 0 0)
(112.027 0 0)
(112.095 0 0)
(112.162 0 0)
(112.23 0 0)
(112.297 0 0)
(112.364 0 0)
(112.431 0 0)
(112.498 0 0)
(112.564 0 0)
(112.63 0 0)
(112.696 0 0)
(112.762 0 0)
(112.827 0 0)
(112.892 0 0)
(112.957 0 0)
(113.022 0 0)
(113.086 0 0)
(113.15 0 0)
(113.214 0 0)
(113.278 0 0)
(113.342 0 0)
(113.405 0 0)
(113.468 0 0)
(113.531 0 0)
(113.594 0 0)
(113.656 0 0)
(113.718 0 0)
(113.78 0 0)
(113.842 0 0)
(113.904 0 0)
(113.965 0 0)
(114.026 0 0)
(114.087 0 0)
(114.148 0 0)
(114.209 0 0)
(114.269 0 0)
(114.329 0 0)
(114.389 0 0)
(114.449 0 0)
(114.509 0 0)
(114.568 0 0)
(114.628 0 0)
(114.687 0 0)
(114.746 0 0)
(114.804 0 0)
(114.863 0 0)
(114.921 0 0)
(114.98 0 0)
(115.038 0 0)
(115.096 0 0)
(115.153 0 0)
(115.211 0 0)
(115.268 0 0)
(115.326 0 0)
(115.383 0 0)
(115.44 0 0)
(115.497 0 0)
(115.553 0 0)
(115.61 0 0)
(115.667 0 0)
(115.723 0 0)
(115.779 0 0)
(115.835 0 0)
(115.891 0 0)
(115.947 0 0)
(116.003 0 0)
(116.058 0 0)
(116.114 0 0)
(116.169 0 0)
(116.224 0 0)
(116.279 0 0)
(116.334 0 0)
(116.389 0 0)
(116.444 0 0)
(116.499 0 0)
(116.554 0 0)
(116.608 0 0)
(116.663 0 0)
(116.717 0 0)
(116.771 0 0)
(116.826 0 0)
(116.88 0 0)
(116.934 0 0)
(116.988 0 0)
(117.042 0 0)
(117.096 0 0)
(117.149 0 0)
(117.203 0 0)
(117.257 0 0)
(117.31 0 0)
(117.364 0 0)
(117.418 0 0)
(117.471 0 0)
(117.524 0 0)
(117.578 0 0)
(117.631 0 0)
(117.684 0 0)
(117.737 0 0)
(117.79 0 0)
(117.843 0 0)
(117.897 0 0)
(117.95 0 0)
(118.002 0 0)
(118.055 0 0)
(118.108 0 0)
(118.161 0 0)
(118.214 0 0)
(118.267 0 0)
(118.319 0 0)
(118.372 0 0)
(118.425 0 0)
(118.477 0 0)
(118.53 0 0)
(118.583 0 0)
(118.635 0 0)
(118.688 0 0)
(118.74 0 0)
(118.793 0 0)
(118.845 0 0)
(118.898 0 0)
(118.95 0 0)
(119.003 0 0)
(119.055 0 0)
(119.107 0 0)
(119.16 0 0)
(119.212 0 0)
(119.265 0 0)
(119.317 0 0)
(119.369 0 0)
(119.421 0 0)
(119.474 0 0)
(119.526 0 0)
(119.578 0 0)
(119.631 0 0)
(119.683 0 0)
(119.735 0 0)
(119.787 0 0)
(119.839 0 0)
(119.892 0 0)
(119.944 0 0)
(119.996 0 0)
(120.048 0 0)
(120.1 0 0)
(120.153 0 0)
(120.205 0 0)
(120.257 0 0)
(120.309 0 0)
(120.361 0 0)
(120.413 0 0)
(120.465 0 0)
(120.518 0 0)
(120.57 0 0)
(120.622 0 0)
(120.674 0 0)
(120.726 0 0)
(120.778 0 0)
(120.83 0 0)
(120.882 0 0)
(120.934 0 0)
(120.986 0 0)
(121.039 0 0)
(121.091 0 0)
(121.143 0 0)
(121.195 0 0)
(121.247 0 0)
(121.299 0 0)
(121.351 0 0)
(121.403 0 0)
(121.455 0 0)
(121.507 0 0)
(121.559 0 0)
(121.611 0 0)
(121.663 0 0)
(121.716 0 0)
(121.768 0 0)
(121.82 0 0)
(121.872 0 0)
(121.924 0 0)
(121.976 0 0)
(122.028 0 0)
(122.08 0 0)
(122.132 0 0)
(122.184 0 0)
(122.236 0 0)
(122.288 0 0)
(122.34 0 0)
(122.392 0 0)
(122.444 0 0)
(122.496 0 0)
(122.549 0 0)
(122.601 0 0)
(122.653 0 0)
(122.705 0 0)
(122.757 0 0)
(122.809 0 0)
(122.861 0 0)
(122.913 0 0)
(122.965 0 0)
(123.017 0 0)
(123.069 0 0)
(123.121 0 0)
(123.173 0 0)
(123.225 0 0)
(123.277 0 0)
(123.329 0 0)
(123.381 0 0)
(123.433 0 0)
(123.485 0 0)
(123.537 0 0)
(123.59 0 0)
(123.642 0 0)
(123.694 0 0)
(123.746 0 0)
(123.798 0 0)
(123.85 0 0)
(123.902 0 0)
(123.954 0 0)
(124.006 0 0)
(124.058 0 0)
(124.11 0 0)
(124.162 0 0)
(124.214 0 0)
(124.266 0 0)
(124.318 0 0)
(124.37 0 0)
(124.422 0 0)
(124.474 0 0)
(124.526 0 0)
(124.578 0 0)
(124.631 0 0)
(124.683 0 0)
(124.735 0 0)
(124.787 0 0)
(124.839 0 0)
(124.891 0 0)
(124.943 0 0)
(124.995 0 0)
(125.047 0 0)
(125.099 0 0)
(125.151 0 0)
(125.203 0 0)
(125.255 0 0)
(125.307 0 0)
(125.359 0 0)
(125.411 0 0)
(125.463 0 0)
(125.515 0 0)
(125.567 0 0)
(125.619 0 0)
(125.671 0 0)
(125.724 0 0)
(125.776 0 0)
(125.828 0 0)
(125.88 0 0)
(125.932 0 0)
(125.984 0 0)
(126.036 0 0)
(126.088 0 0)
(126.14 0 0)
(126.192 0 0)
(126.244 0 0)
(126.296 0 0)
(126.348 0 0)
(126.4 0 0)
(126.452 0 0)
(126.504 0 0)
(126.556 0 0)
(126.608 0 0)
(126.66 0 0)
(126.712 0 0)
(126.765 0 0)
(126.817 0 0)
(126.869 0 0)
(126.921 0 0)
(126.973 0 0)
(127.025 0 0)
(127.077 0 0)
(127.129 0 0)
(127.181 0 0)
(127.233 0 0)
(127.285 0 0)
(127.337 0 0)
(127.389 0 0)
(127.441 0 0)
(127.493 0 0)
(127.545 0 0)
(127.597 0 0)
(127.649 0 0)
(127.701 0 0)
(127.753 0 0)
(127.805 0 0)
(127.858 0 0)
(127.91 0 0)
(127.962 0 0)
(128.014 0 0)
(128.066 0 0)
(128.118 0 0)
(128.17 0 0)
(128.222 0 0)
(128.274 0 0)
(128.326 0 0)
(128.378 0 0)
(128.43 0 0)
(128.482 0 0)
(128.534 0 0)
(128.586 0 0)
(128.638 0 0)
(128.69 0 0)
(128.742 0 0)
(128.794 0 0)
(128.846 0 0)
(128.899 0 0)
(128.951 0 0)
(129.003 0 0)
(129.055 0 0)
(129.107 0 0)
(129.159 0 0)
(129.211 0 0)
(129.263 0 0)
(129.315 0 0)
(129.367 0 0)
(129.419 0 0)
(129.471 0 0)
(129.523 0 0)
(129.575 0 0)
(129.627 0 0)
(129.679 0 0)
(129.731 0 0)
(129.783 0 0)
(129.835 0 0)
(129.887 0 0)
(129.939 0 0)
(129.992 0 0)
(130.044 0 0)
(130.096 0 0)
(130.148 0 0)
(130.2 0 0)
(130.252 0 0)
(130.304 0 0)
(130.356 0 0)
(130.408 0 0)
(130.46 0 0)
(130.512 0 0)
(130.564 0 0)
(130.616 0 0)
(130.668 0 0)
(130.72 0 0)
(130.772 0 0)
(130.824 0 0)
(130.876 0 0)
(130.928 0 0)
(130.98 0 0)
(131.033 0 0)
(131.085 0 0)
(131.137 0 0)
(131.189 0 0)
(131.241 0 0)
(131.293 0 0)
(131.345 0 0)
(131.397 0 0)
(131.449 0 0)
(131.501 0 0)
(131.553 0 0)
(131.605 0 0)
(131.657 0 0)
(131.709 0 0)
(131.761 0 0)
(131.813 0 0)
(131.865 0 0)
(131.917 0 0)
(131.969 0 0)
(132.021 0 0)
(132.074 0 0)
(132.126 0 0)
(132.178 0 0)
(132.23 0 0)
(132.282 0 0)
(132.334 0 0)
(132.386 0 0)
(132.438 0 0)
(132.49 0 0)
(132.542 0 0)
(132.594 0 0)
(132.646 0 0)
(132.698 0 0)
(132.75 0 0)
(132.802 0 0)
(132.854 0 0)
(132.906 0 0)
(132.958 0 0)
(133.01 0 0)
(133.062 0 0)
(133.115 0 0)
(133.167 0 0)
(133.219 0 0)
(133.271 0 0)
(133.323 0 0)
(133.375 0 0)
(133.427 0 0)
(133.479 0 0)
(133.531 0 0)
(133.583 0 0)
(133.635 0 0)
(133.687 0 0)
(133.739 0 0)
(133.791 0 0)
(133.843 0 0)
(133.895 0 0)
(133.947 0 0)
(133.999 0 0)
(134.051 0 0)
(134.103 0 0)
(134.155 0 0)
(134.208 0 0)
(134.26 0 0)
(134.312 0 0)
(134.364 0 0)
(134.416 0 0)
(134.468 0 0)
(134.52 0 0)
(134.572 0 0)
(134.624 0 0)
(134.676 0 0)
(134.728 0 0)
(134.78 0 0)
(134.832 0 0)
(134.884 0 0)
(134.936 0 0)
(134.988 0 0)
(135.04 0 0)
(135.092 0 0)
(135.144 0 0)
(135.196 0 0)
(135.249 0 0)
(135.301 0 0)
(135.353 0 0)
(135.405 0 0)
(135.457 0 0)
(135.509 0 0)
(135.561 0 0)
(135.613 0 0)
(135.665 0 0)
(135.717 0 0)
(135.769 0 0)
(135.821 0 0)
(135.873 0 0)
(135.925 0 0)
(135.977 0 0)
(136.029 0 0)
(136.081 0 0)
(136.133 0 0)
(136.185 0 0)
(136.237 0 0)
(136.29 0 0)
(136.342 0 0)
(136.394 0 0)
(136.446 0 0)
(136.498 0 0)
(136.55 0 0)
(136.602 0 0)
(136.654 0 0)
(136.706 0 0)
(136.758 0 0)
(136.81 0 0)
(136.862 0 0)
(136.914 0 0)
(136.966 0 0)
(137.018 0 0)
(137.07 0 0)
(137.122 0 0)
(137.174 0 0)
(137.226 0 0)
(137.278 0 0)
(137.331 0 0)
(137.383 0 0)
(137.435 0 0)
(137.487 0 0)
(137.539 0 0)
(137.591 0 0)
(137.643 0 0)
(137.695 0 0)
(137.747 0 0)
(137.799 0 0)
(137.851 0 0)
(137.903 0 0)
(137.955 0 0)
(138.007 0 0)
(138.059 0 0)
(138.111 0 0)
(138.163 0 0)
(138.215 0 0)
(138.267 0 0)
(138.319 0 0)
(138.372 0 0)
(138.424 0 0)
(138.476 0 0)
(138.528 0 0)
(138.58 0 0)
(138.632 0 0)
(138.684 0 0)
(138.736 0 0)
(138.788 0 0)
(138.84 0 0)
(138.892 0 0)
(138.944 0 0)
(138.996 0 0)
(139.048 0 0)
(139.1 0 0)
(139.152 0 0)
(139.204 0 0)
(139.256 0 0)
(139.308 0 0)
(139.36 0 0)
(139.413 0 0)
(139.465 0 0)
(139.517 0 0)
(139.569 0 0)
(139.621 0 0)
(139.673 0 0)
(139.725 0 0)
(139.777 0 0)
(139.829 0 0)
(139.881 0 0)
(139.933 0 0)
(139.985 0 0)
(140.037 0 0)
(140.089 0 0)
(140.141 0 0)
(140.193 0 0)
(140.245 0 0)
(140.297 0 0)
(140.349 0 0)
(140.401 0 0)
(140.454 0 0)
(140.506 0 0)
(140.558 0 0)
(140.61 0 0)
(140.662 0 0)
(140.714 0 0)
(140.766 0 0)
(140.818 0 0)
(140.87 0 0)
(140.922 0 0)
(140.974 0 0)
(141.026 0 0)
(141.078 0 0)
(141.13 0 0)
(141.182 0 0)
(141.234 0 0)
(141.286 0 0)
(141.338 0 0)
(141.39 0 0)
(141.442 0 0)
(141.495 0 0)
(141.547 0 0)
(141.599 0 0)
(141.651 0 0)
(141.703 0 0)
(141.755 0 0)
(141.807 0 0)
(141.859 0 0)
(141.911 0 0)
(141.963 0 0)
(142.015 0 0)
(142.067 0 0)
(142.119 0 0)
(142.171 0 0)
(142.223 0 0)
(142.275 0 0)
(142.327 0 0)
(142.379 0 0)
(142.431 0 0)
(142.483 0 0)
(142.536 0 0)
(142.588 0 0)
(142.64 0 0)
(142.692 0 0)
(142.744 0 0)
(142.796 0 0)
(142.848 0 0)
(142.9 0 0)
(142.952 0 0)
(143.004 0 0)
(143.056 0 0)
(143.108 0 0)
(143.16 0 0)
(143.212 0 0)
(143.264 0 0)
(143.316 0 0)
(143.368 0 0)
(143.42 0 0)
(143.472 0 0)
(143.524 0 0)
(143.577 0 0)
(143.629 0 0)
(143.681 0 0)
(143.733 0 0)
(143.785 0 0)
(143.837 0 0)
(143.889 0 0)
(143.941 0 0)
(143.993 0 0)
(144.045 0 0)
(144.097 0 0)
(144.149 0 0)
(144.201 0 0)
(144.253 0 0)
(144.305 0 0)
(144.357 0 0)
(144.409 0 0)
(144.461 0 0)
(144.513 0 0)
(144.565 0 0)
(144.618 0 0)
(144.67 0 0)
(144.722 0 0)
(144.774 0 0)
(144.826 0 0)
(144.878 0 0)
(144.93 0 0)
(144.982 0 0)
(145.034 0 0)
(145.086 0 0)
(145.138 0 0)
(145.19 0 0)
(145.242 0 0)
(145.294 0 0)
(145.346 0 0)
(145.398 0 0)
(145.45 0 0)
(145.502 0 0)
(145.554 0 0)
(145.606 0 0)
(145.659 0 0)
(145.711 0 0)
(145.763 0 0)
(145.815 0 0)
(145.867 0 0)
(145.919 0 0)
(145.971 0 0)
(146.023 0 0)
(146.075 0 0)
(146.127 0 0)
(146.179 0 0)
(146.231 0 0)
(146.283 0 0)
(146.335 0 0)
(146.387 0 0)
(146.439 0 0)
(146.491 0 0)
(146.543 0 0)
(146.595 0 0)
(146.647 0 0)
(146.7 0 0)
(146.752 0 0)
(146.804 0 0)
(146.856 0 0)
(146.908 0 0)
(146.96 0 0)
(147.012 0 0)
(147.064 0 0)
(147.116 0 0)
(147.168 0 0)
(147.22 0 0)
(147.272 0 0)
(147.324 0 0)
(147.376 0 0)
(147.428 0 0)
(147.48 0 0)
(147.532 0 0)
(147.584 0 0)
(147.636 0 0)
(147.688 0 0)
(147.741 0 0)
(147.793 0 0)
(147.845 0 0)
(147.897 0 0)
(147.949 0 0)
(148.001 0 0)
(148.053 0 0)
(148.105 0 0)
(148.157 0 0)
(148.209 0 0)
(148.261 0 0)
(148.313 0 0)
(148.365 0 0)
(148.417 0 0)
(148.469 0 0)
(148.521 0 0)
(148.573 0 0)
(148.625 0 0)
(148.677 0 0)
(148.729 0 0)
(148.781 0 0)
(148.834 0 0)
(148.886 0 0)
(148.938 0 0)
(148.99 0 0)
(149.042 0 0)
(149.094 0 0)
(149.146 0 0)
(149.198 0 0)
(149.25 0 0)
(149.302 0 0)
(149.354 0 0)
(149.406 0 0)
(149.458 0 0)
(149.51 0 0)
(149.562 0 0)
(149.614 0 0)
(149.666 0 0)
(149.718 0 0)
(149.77 0 0)
(149.822 0 0)
(149.875 0 0)
(149.927 0 0)
(149.979 0 0)
(150.031 0 0)
(150.083 0 0)
(150.135 0 0)
(150.187 0 0)
(150.239 0 0)
(150.291 0 0)
(150.343 0 0)
(150.395 0 0)
(150.447 0 0)
(150.499 0 0)
(150.551 0 0)
(150.603 0 0)
(150.655 0 0)
(150.707 0 0)
(150.759 0 0)
(150.811 0 0)
(150.863 0 0)
(150.916 0 0)
(150.968 0 0)
(151.02 0 0)
(151.072 0 0)
(151.124 0 0)
(151.176 0 0)
(151.228 0 0)
(151.28 0 0)
(151.332 0 0)
(151.384 0 0)
(151.436 0 0)
(151.488 0 0)
(151.54 0 0)
(151.592 0 0)
(151.644 0 0)
(151.696 0 0)
(151.748 0 0)
(151.8 0 0)
(151.852 0 0)
(151.904 0 0)
(151.957 0 0)
(152.009 0 0)
(152.061 0 0)
(152.113 0 0)
(152.165 0 0)
(152.217 0 0)
(152.269 0 0)
(152.321 0 0)
(152.373 0 0)
(152.425 0 0)
(152.477 0 0)
(152.529 0 0)
(152.581 0 0)
(152.633 0 0)
(152.685 0 0)
(152.737 0 0)
(152.789 0 0)
(152.841 0 0)
(152.893 0 0)
(152.945 0 0)
(152.997 0 0)
(153.05 0 0)
(153.102 0 0)
(153.154 0 0)
(153.206 0 0)
(153.258 0 0)
(153.31 0 0)
(153.362 0 0)
(153.414 0 0)
(153.466 0 0)
(153.518 0 0)
(153.57 0 0)
(153.622 0 0)
(153.674 0 0)
(153.726 0 0)
(153.778 0 0)
(153.83 0 0)
(153.882 0 0)
(153.934 0 0)
(153.986 0 0)
(154.038 0 0)
(154.091 0 0)
(154.143 0 0)
(154.195 0 0)
(154.247 0 0)
(154.299 0 0)
(154.351 0 0)
(154.403 0 0)
(154.455 0 0)
(154.507 0 0)
(154.559 0 0)
(154.611 0 0)
(154.663 0 0)
(154.715 0 0)
(154.767 0 0)
(154.819 0 0)
(154.871 0 0)
(154.923 0 0)
(154.975 0 0)
(155.027 0 0)
(155.079 0 0)
(155.132 0 0)
(155.184 0 0)
(155.236 0 0)
(155.288 0 0)
(155.34 0 0)
(155.392 0 0)
(155.444 0 0)
(155.496 0 0)
(155.548 0 0)
(155.6 0 0)
(155.652 0 0)
(155.704 0 0)
(155.756 0 0)
(155.808 0 0)
(155.86 0 0)
(155.912 0 0)
(155.964 0 0)
(156.016 0 0)
(156.068 0 0)
(156.12 0 0)
(156.172 0 0)
(156.225 0 0)
(156.277 0 0)
(156.329 0 0)
(156.381 0 0)
(156.433 0 0)
(156.485 0 0)
(156.537 0 0)
(156.589 0 0)
(156.641 0 0)
(156.693 0 0)
(156.745 0 0)
(156.797 0 0)
(156.849 0 0)
(156.901 0 0)
(156.953 0 0)
(157.005 0 0)
(157.057 0 0)
(157.109 0 0)
(157.161 0 0)
(157.213 0 0)
(157.265 0 0)
(157.318 0 0)
(157.37 0 0)
(157.422 0 0)
(157.474 0 0)
(157.526 0 0)
(157.578 0 0)
(157.63 0 0)
(157.682 0 0)
(157.734 0 0)
(157.786 0 0)
(157.838 0 0)
(157.89 0 0)
(157.942 0 0)
(157.994 0 0)
(158.046 0 0)
(158.098 0 0)
(158.15 0 0)
(158.202 0 0)
(158.254 0 0)
(158.306 0 0)
(158.359 0 0)
(158.411 0 0)
(158.463 0 0)
(158.515 0 0)
(158.567 0 0)
(158.619 0 0)
(158.671 0 0)
(158.723 0 0)
(158.775 0 0)
(158.827 0 0)
(158.879 0 0)
(158.931 0 0)
(158.983 0 0)
(159.035 0 0)
(159.087 0 0)
(159.139 0 0)
(159.191 0 0)
(159.243 0 0)
(159.295 0 0)
(159.347 0 0)
(159.399 0 0)
(159.452 0 0)
(159.504 0 0)
(159.556 0 0)
(159.608 0 0)
(159.66 0 0)
(159.712 0 0)
(159.764 0 0)
(159.816 0 0)
(159.868 0 0)
(159.92 0 0)
(159.972 0 0)
(160.024 0 0)
(160.076 0 0)
(160.128 0 0)
(160.18 0 0)
(160.232 0 0)
(160.284 0 0)
(160.336 0 0)
(160.388 0 0)
(160.44 0 0)
(160.492 0 0)
(160.545 0 0)
(160.597 0 0)
(160.649 0 0)
(160.701 0 0)
(160.753 0 0)
(160.805 0 0)
(160.857 0 0)
(160.909 0 0)
(160.961 0 0)
(161.013 0 0)
(161.065 0 0)
(161.117 0 0)
(161.169 0 0)
(161.221 0 0)
(161.273 0 0)
(161.325 0 0)
(161.377 0 0)
(161.429 0 0)
(161.481 0 0)
(161.533 0 0)
(161.585 0 0)
(161.638 0 0)