/*--------------------------------*- C++ -*----------------------------------*\
  =========                 |
  \\      /  F ield         | OpenFOAM: The Open Source CFD Toolbox
   \\    /   O peration     | Website:  https://openfoam.org
    \\  /    A nd           | Version:  9
     \\/     M anipulation  |
\*---------------------------------------------------------------------------*/
FoamFile
{
    format      ascii;
    class       volScalarField;
    location    "0.035";
    object      T;
}
// * * * * * * * * * * * * * * * * * * * * * * * * * * * * * * * * * * * * * //

dimensions      [0 0 0 1 0 0 0];

internalField   nonuniform List<scalar> 
1000
(
283.408
283.28
283.203
283.119
283.037
282.955
282.873
282.791
282.708
282.626
282.544
282.461
282.379
282.297
282.215
282.133
282.051
281.969
281.888
281.806
281.724
281.642
281.56
281.478
281.396
281.314
281.232
281.15
281.069
280.987
280.905
280.823
280.741
280.659
280.577
280.496
280.414
280.332
280.25
280.168
280.086
280.004
279.923
279.841
279.759
279.677
279.595
279.514
279.432
279.35
279.268
279.186
279.105
279.023
278.941
278.86
278.778
278.696
278.615
278.533
278.451
278.37
278.288
278.206
278.125
278.043
277.962
277.88
277.798
277.717
277.635
277.554
277.472
277.391
277.309
277.228
277.146
277.065
276.983
276.902
276.82
276.739
276.657
276.576
276.495
276.413
276.332
276.25
276.169
276.088
276.006
275.925
275.844
275.762
275.681
275.6
275.518
275.437
275.356
275.275
275.193
275.112
275.031
274.95
274.869
274.787
274.706
274.625
274.544
274.463
274.382
274.301
274.219
274.138
274.057
273.976
273.895
273.814
273.733
273.652
273.571
273.49
273.409
273.328
273.247
273.166
273.085
273.004
272.924
272.843
272.762
272.681
272.6
272.519
272.438
272.358
272.277
272.196
272.115
272.034
271.954
271.873
271.792
271.711
271.631
271.55
271.469
271.389
271.308
271.227
271.147
271.066
270.985
270.905
270.824
270.744
270.663
270.582
270.502
270.421
270.341
270.26
270.18
270.099
270.019
269.938
269.858
269.777
269.697
269.616
269.536
269.455
269.375
269.294
269.214
269.134
269.053
268.973
268.892
268.812
268.732
268.651
268.571
268.491
268.41
268.33
268.25
268.17
268.089
268.009
267.929
267.849
267.768
267.688
267.608
267.528
267.448
267.368
267.287
267.207
267.127
267.047
266.967
266.887
266.807
266.727
266.647
266.567
266.487
266.407
266.327
266.247
266.167
266.087
266.007
265.927
265.846
265.766
265.688
265.609
265.527
265.445
265.365
265.291
265.214
265.131
265.047
264.964
264.891
264.819
264.736
264.65
264.566
264.486
264.419
264.341
264.255
264.17
264.086
264.012
263.944
263.861
263.775
263.69
263.607
263.539
263.467
263.383
263.297
263.212
263.131
263.065
262.99
262.905
262.82
262.735
262.656
262.592
262.515
262.429
262.343
262.258
262.176
262.109
262.038
261.954
261.868
261.783
261.699
261.622
261.559
261.479
261.394
261.309
261.224
261.14
261.068
261.003
260.921
260.836
260.751
260.666
260.582
260.506
260.444
260.365
260.281
260.196
260.111
260.027
259.945
259.88
259.812
259.73
259.645
259.561
259.477
259.396
259.329
259.259
259.177
259.093
259.009
258.927
258.855
258.785
258.703
258.62
258.537
258.455
258.38
258.311
258.23
258.147
258.064
257.981
257.9
257.829
257.756
257.674
257.591
257.508
257.425
257.344
257.272
257.201
257.12
257.037
256.954
256.871
256.789
256.709
256.64
256.567
256.485
256.403
256.32
256.237
256.156
256.079
256.011
255.932
255.851
255.768
255.686
255.604
255.525
255.455
255.379
255.298
255.216
255.134
255.052
254.972
254.901
254.825
254.743
254.66
254.577
254.494
254.415
254.342
254.263
254.18
254.096
254.013
253.93
253.852
253.778
253.697
253.614
253.532
253.45
253.37
253.296
253.221
253.142
253.062
252.983
252.905
252.829
252.758
252.682
252.604
252.526
252.449
252.371
252.298
252.223
252.145
252.066
251.987
251.908
251.832
251.757
251.678
251.599
251.519
251.44
251.362
251.287
251.212
251.134
251.056
250.979
250.902
250.826
250.755
250.684
250.609
250.533
250.457
250.38
250.306
250.233
250.161
250.092
250.022
249.953
249.885
249.817
249.753
249.691
249.632
249.575
249.521
249.469
249.421
249.378
249.341
249.31
249.284
249.263
249.246
249.231
249.22
249.213
249.209
249.208
249.207
249.207
249.206
249.209
249.217
249.226
249.234
249.241
249.246
249.248
249.254
249.261
249.267
249.274
249.279
249.281
249.286
249.295
249.305
249.314
249.321
249.324
249.322
249.323
249.324
249.324
249.319
249.306
249.284
249.265
249.251
249.24
249.231
249.224
249.216
249.206
249.202
249.199
249.198
249.196
249.195
249.191
249.186
249.186
249.188
249.19
249.193
249.195
249.194
249.192
249.196
249.201
249.207
249.213
249.219
249.219
249.218
249.221
249.224
249.226
249.227
249.225
249.216
249.203
249.193
249.185
249.177
249.17
249.163
249.153
249.143
249.138
249.135
249.133
249.132
249.13
249.125
249.118
249.117
249.117
249.117
249.118
249.119
249.119
249.114
249.114
249.117
249.12
249.124
249.127
249.129
249.126
249.128
249.132
249.135
249.137
249.138
249.135
249.128
249.124
249.119
249.111
249.102
249.094
249.082
249.073
249.068
249.065
249.062
249.059
249.055
249.046
249.042
249.04
249.04
249.039
249.039
249.037
249.03
249.029
249.03
249.032
249.034
249.036
249.037
249.033
249.032
249.034
249.038
249.042
249.045
249.047
249.043
249.041
249.042
249.042
249.042
249.039
249.03
249.016
249.006
249
248.994
248.99
248.986
248.98
248.971
248.967
248.966
248.964
248.962
248.961
248.956
248.949
248.948
248.948
248.949
248.95
248.951
248.953
248.954
248.953
248.942
248.933
248.934
248.937
248.94
248.943
248.947
248.95
248.952
248.954
248.955
248.956
248.955
248.952
248.944
248.932
248.92
248.91
248.9
248.894
248.891
248.889
248.888
248.886
248.885
248.881
248.874
248.869
248.868
248.867
248.867
248.865
248.858
248.856
248.857
248.858
248.86
248.862
248.864
248.867
248.869
248.868
248.859
248.851
248.851
248.853
248.855
248.856
248.857
248.857
248.855
248.851
248.845
248.833
248.823
248.817
248.811
248.801
248.794
248.791
248.79
248.789
248.788
248.788
248.787
248.787
248.787
248.787
248.787
248.786
248.78
248.769
248.767
248.768
248.769
248.77
248.772
248.773
248.771
248.763
248.762
248.764
248.765
248.767
248.767
248.766
248.759
248.75
248.747
248.743
248.74
248.737
248.734
248.731
248.726
248.713
248.706
248.704
248.703
248.702
248.702
248.702
248.702
248.701
248.701
248.701
248.701
248.7
248.691
248.67
248.664
248.663
248.664
248.666
248.667
248.669
248.672
248.674
248.676
248.678
248.679
248.68
248.681
248.681
248.68
248.678
248.669
248.646
248.634
248.63
248.628
248.626
248.625
248.624
248.623
248.622
248.62
248.619
248.613
248.605
248.603
248.602
248.601
248.598
248.591
248.588
248.588
248.589
248.59
248.591
248.591
248.587
248.581
248.58
248.581
248.583
248.584
248.583
248.577
248.571
248.57
248.569
248.568
248.566
248.563
248.554
248.545
248.541
248.54
248.538
248.537
248.535
248.529
248.521
248.518
248.517
248.516
248.516
248.515
248.51
248.503
248.501
248.501
248.501
248.501
248.501
248.497
248.491
248.49
248.49
248.491
248.492
248.491
248.487
248.482
248.481
248.481
248.481
248.48
248.478
248.474
248.464
248.459
248.456
248.454
248.452
248.451
248.449
248.445
248.43
248.42
248.418
248.418
248.417
248.417
248.417
248.417
248.417
248.418
248.418
248.418
248.416
248.408
248.391
248.386
248.387
248.388
248.389
248.39
248.391
248.392
248.393
248.394
248.395
248.395
248.395
248.394
248.392
248.389
248.382
248.361
248.35
248.347
248.345
248.344
248.343
248.343
248.343
248.343
248.343
248.342
248.341
248.336
248.321
248.312
248.311
248.311
248.312
248.312
248.312
248.313
248.313
248.314
248.314
248.313
248.302
248.289
248.287
248.287
248.288
248.288
248.289
248.288
248.288
248.288
248.289
248.295
248.32
248.423
248.84
249.696
250.194
250.47
250.584
250.581
250.555
250.545
250.549
250.572
250.597
250.6
250.595
250.573
250.549
250.539
250.539
250.551
250.556
250.556
250.55
250.542
250.541
250.543
250.549
250.55
250.536
250.518
250.509
250.506
250.506
250.511
250.517
250.52
250.52
250.518
250.514
250.51
250.506
250.493
250.481
250.478
250.474
250.47
250.468
250.468
250.472
250.474
250.475
250.475
250.472
250.464
250.448
250.448
250.473
250.56
250.845
251.418
251.878
252.149
252.25
252.267
252.281
252.293
252.307
252.306
252.302
252.302
252.302
252.301
252.303
252.293
252.27
252.262
252.256
252.253
252.257
252.268
252.275
252.277
252.277
252.275
252.272
252.269
252.263
252.239
252.224
252.221
252.219
252.217
252.221
252.231
252.234
252.235
252.235
252.229
252.209
252.199
252.199
252.2
252.202
252.206
252.207
252.206
252.203
252.194
252.184
252.183
252.183
252.184
252.187
252.19
252.19
252.19
252.188
252.179
252.173
252.173
252.173
252.176
)
;

boundaryField
{
    sides
    {
        type            zeroGradient;
    }
    empty
    {
        type            empty;
    }
}


// ************************************************************************* //
