/*--------------------------------*- C++ -*----------------------------------*\
  =========                 |
  \\      /  F ield         | OpenFOAM: The Open Source CFD Toolbox
   \\    /   O peration     | Website:  https://openfoam.org
    \\  /    A nd           | Version:  9
     \\/     M anipulation  |
\*---------------------------------------------------------------------------*/
FoamFile
{
    format      ascii;
    class       volVectorField;
    location    "0.035";
    object      U;
}
// * * * * * * * * * * * * * * * * * * * * * * * * * * * * * * * * * * * * * //

dimensions      [0 1 -1 0 0 0 0];

internalField   nonuniform List<vector> 
1000
(
(199.486 0 0)
(199.861 0 0)
(200.078 0 0)
(200.315 0 0)
(200.548 0 0)
(200.781 0 0)
(201.015 0 0)
(201.248 0 0)
(201.482 0 0)
(201.715 0 0)
(201.949 0 0)
(202.182 0 0)
(202.415 0 0)
(202.649 0 0)
(202.881 0 0)
(203.114 0 0)
(203.347 0 0)
(203.579 0 0)
(203.812 0 0)
(204.044 0 0)
(204.277 0 0)
(204.51 0 0)
(204.743 0 0)
(204.976 0 0)
(205.209 0 0)
(205.442 0 0)
(205.674 0 0)
(205.907 0 0)
(206.14 0 0)
(206.373 0 0)
(206.606 0 0)
(206.838 0 0)
(207.071 0 0)
(207.305 0 0)
(207.538 0 0)
(207.771 0 0)
(208.004 0 0)
(208.238 0 0)
(208.471 0 0)
(208.704 0 0)
(208.937 0 0)
(209.17 0 0)
(209.403 0 0)
(209.636 0 0)
(209.869 0 0)
(210.102 0 0)
(210.336 0 0)
(210.569 0 0)
(210.803 0 0)
(211.036 0 0)
(211.269 0 0)
(211.502 0 0)
(211.736 0 0)
(211.969 0 0)
(212.202 0 0)
(212.435 0 0)
(212.668 0 0)
(212.901 0 0)
(213.134 0 0)
(213.367 0 0)
(213.601 0 0)
(213.834 0 0)
(214.067 0 0)
(214.3 0 0)
(214.534 0 0)
(214.767 0 0)
(215 0 0)
(215.233 0 0)
(215.466 0 0)
(215.7 0 0)
(215.933 0 0)
(216.166 0 0)
(216.399 0 0)
(216.632 0 0)
(216.866 0 0)
(217.099 0 0)
(217.332 0 0)
(217.565 0 0)
(217.799 0 0)
(218.032 0 0)
(218.265 0 0)
(218.498 0 0)
(218.731 0 0)
(218.965 0 0)
(219.198 0 0)
(219.431 0 0)
(219.664 0 0)
(219.897 0 0)
(220.131 0 0)
(220.364 0 0)
(220.597 0 0)
(220.83 0 0)
(221.063 0 0)
(221.297 0 0)
(221.53 0 0)
(221.763 0 0)
(221.996 0 0)
(222.229 0 0)
(222.462 0 0)
(222.696 0 0)
(222.929 0 0)
(223.162 0 0)
(223.395 0 0)
(223.628 0 0)
(223.861 0 0)
(224.094 0 0)
(224.327 0 0)
(224.561 0 0)
(224.794 0 0)
(225.027 0 0)
(225.26 0 0)
(225.493 0 0)
(225.726 0 0)
(225.959 0 0)
(226.192 0 0)
(226.425 0 0)
(226.658 0 0)
(226.891 0 0)
(227.124 0 0)
(227.358 0 0)
(227.591 0 0)
(227.824 0 0)
(228.057 0 0)
(228.29 0 0)
(228.523 0 0)
(228.756 0 0)
(228.989 0 0)
(229.222 0 0)
(229.455 0 0)
(229.688 0 0)
(229.921 0 0)
(230.154 0 0)
(230.387 0 0)
(230.62 0 0)
(230.853 0 0)
(231.086 0 0)
(231.319 0 0)
(231.552 0 0)
(231.785 0 0)
(232.017 0 0)
(232.25 0 0)
(232.483 0 0)
(232.716 0 0)
(232.949 0 0)
(233.182 0 0)
(233.415 0 0)
(233.648 0 0)
(233.881 0 0)
(234.114 0 0)
(234.347 0 0)
(234.58 0 0)
(234.813 0 0)
(235.046 0 0)
(235.279 0 0)
(235.511 0 0)
(235.744 0 0)
(235.977 0 0)
(236.21 0 0)
(236.443 0 0)
(236.676 0 0)
(236.909 0 0)
(237.142 0 0)
(237.375 0 0)
(237.608 0 0)
(237.841 0 0)
(238.074 0 0)
(238.306 0 0)
(238.539 0 0)
(238.772 0 0)
(239.005 0 0)
(239.238 0 0)
(239.471 0 0)
(239.704 0 0)
(239.937 0 0)
(240.17 0 0)
(240.402 0 0)
(240.635 0 0)
(240.868 0 0)
(241.101 0 0)
(241.334 0 0)
(241.567 0 0)
(241.799 0 0)
(242.032 0 0)
(242.265 0 0)
(242.498 0 0)
(242.731 0 0)
(242.964 0 0)
(243.197 0 0)
(243.429 0 0)
(243.662 0 0)
(243.895 0 0)
(244.128 0 0)
(244.361 0 0)
(244.594 0 0)
(244.826 0 0)
(245.059 0 0)
(245.292 0 0)
(245.525 0 0)
(245.758 0 0)
(245.99 0 0)
(246.223 0 0)
(246.456 0 0)
(246.689 0 0)
(246.922 0 0)
(247.155 0 0)
(247.387 0 0)
(247.62 0 0)
(247.853 0 0)
(248.086 0 0)
(248.319 0 0)
(248.551 0 0)
(248.784 0 0)
(249.017 0 0)
(249.25 0 0)
(249.483 0 0)
(249.715 0 0)
(249.946 0 0)
(250.18 0 0)
(250.417 0 0)
(250.652 0 0)
(250.88 0 0)
(251.105 0 0)
(251.337 0 0)
(251.587 0 0)
(251.829 0 0)
(252.051 0 0)
(252.27 0 0)
(252.495 0 0)
(252.746 0 0)
(253.004 0 0)
(253.227 0 0)
(253.443 0 0)
(253.659 0 0)
(253.895 0 0)
(254.166 0 0)
(254.405 0 0)
(254.621 0 0)
(254.835 0 0)
(255.055 0 0)
(255.306 0 0)
(255.576 0 0)
(255.801 0 0)
(256.015 0 0)
(256.229 0 0)
(256.453 0 0)
(256.717 0 0)
(256.976 0 0)
(257.194 0 0)
(257.408 0 0)
(257.622 0 0)
(257.851 0 0)
(258.124 0 0)
(258.372 0 0)
(258.589 0 0)
(258.802 0 0)
(259.017 0 0)
(259.252 0 0)
(259.532 0 0)
(259.774 0 0)
(259.988 0 0)
(260.2 0 0)
(260.413 0 0)
(260.638 0 0)
(260.908 0 0)
(261.17 0 0)
(261.388 0 0)
(261.601 0 0)
(261.814 0 0)
(262.03 0 0)
(262.274 0 0)
(262.556 0 0)
(262.789 0 0)
(263.003 0 0)
(263.217 0 0)
(263.431 0 0)
(263.651 0 0)
(263.905 0 0)
(264.182 0 0)
(264.408 0 0)
(264.623 0 0)
(264.836 0 0)
(265.051 0 0)
(265.269 0 0)
(265.512 0 0)
(265.796 0 0)
(266.033 0 0)
(266.25 0 0)
(266.463 0 0)
(266.678 0 0)
(266.894 0 0)
(267.121 0 0)
(267.394 0 0)
(267.664 0 0)
(267.887 0 0)
(268.103 0 0)
(268.319 0 0)
(268.536 0 0)
(268.764 0 0)
(269.033 0 0)
(269.296 0 0)
(269.518 0 0)
(269.736 0 0)
(269.954 0 0)
(270.177 0 0)
(270.429 0 0)
(270.692 0 0)
(270.917 0 0)
(271.136 0 0)
(271.355 0 0)
(271.578 0 0)
(271.825 0 0)
(272.089 0 0)
(272.316 0 0)
(272.535 0 0)
(272.754 0 0)
(272.973 0 0)
(273.201 0 0)
(273.459 0 0)
(273.71 0 0)
(273.933 0 0)
(274.153 0 0)
(274.371 0 0)
(274.591 0 0)
(274.816 0 0)
(275.069 0 0)
(275.328 0 0)
(275.554 0 0)
(275.774 0 0)
(275.991 0 0)
(276.21 0 0)
(276.431 0 0)
(276.661 0 0)
(276.924 0 0)
(277.175 0 0)
(277.399 0 0)
(277.619 0 0)
(277.839 0 0)
(278.059 0 0)
(278.283 0 0)
(278.521 0 0)
(278.786 0 0)
(279.021 0 0)
(279.243 0 0)
(279.465 0 0)
(279.686 0 0)
(279.909 0 0)
(280.141 0 0)
(280.401 0 0)
(280.643 0 0)
(280.867 0 0)
(281.089 0 0)
(281.311 0 0)
(281.535 0 0)
(281.766 0 0)
(282.024 0 0)
(282.266 0 0)
(282.49 0 0)
(282.713 0 0)
(282.936 0 0)
(283.16 0 0)
(283.394 0 0)
(283.651 0 0)
(283.889 0 0)
(284.113 0 0)
(284.336 0 0)
(284.559 0 0)
(284.785 0 0)
(285.025 0 0)
(285.28 0 0)
(285.511 0 0)
(285.735 0 0)
(285.958 0 0)
(286.183 0 0)
(286.411 0 0)
(286.658 0 0)
(286.902 0 0)
(287.129 0 0)
(287.355 0 0)
(287.581 0 0)
(287.808 0 0)
(288.043 0 0)
(288.29 0 0)
(288.523 0 0)
(288.75 0 0)
(288.977 0 0)
(289.205 0 0)
(289.435 0 0)
(289.677 0 0)
(289.915 0 0)
(290.144 0 0)
(290.371 0 0)
(290.598 0 0)
(290.827 0 0)
(291.064 0 0)
(291.304 0 0)
(291.533 0 0)
(291.76 0 0)
(291.986 0 0)
(292.213 0 0)
(292.442 0 0)
(292.679 0 0)
(292.916 0 0)
(293.144 0 0)
(293.37 0 0)
(293.595 0 0)
(293.821 0 0)
(294.05 0 0)
(294.293 0 0)
(294.533 0 0)
(294.759 0 0)
(294.981 0 0)
(295.199 0 0)
(295.411 0 0)
(295.626 0 0)
(295.842 0 0)
(296.057 0 0)
(296.274 0 0)
(296.483 0 0)
(296.686 0 0)
(296.884 0 0)
(297.076 0 0)
(297.265 0 0)
(297.451 0 0)
(297.631 0 0)
(297.802 0 0)
(297.963 0 0)
(298.111 0 0)
(298.242 0 0)
(298.362 0 0)
(298.468 0 0)
(298.558 0 0)
(298.631 0 0)
(298.689 0 0)
(298.73 0 0)
(298.755 0 0)
(298.769 0 0)
(298.779 0 0)
(298.782 0 0)
(298.78 0 0)
(298.772 0 0)
(298.758 0 0)
(298.733 0 0)
(298.704 0 0)
(298.67 0 0)
(298.636 0 0)
(298.603 0 0)
(298.571 0 0)
(298.535 0 0)
(298.494 0 0)
(298.462 0 0)
(298.436 0 0)
(298.41 0 0)
(298.385 0 0)
(298.355 0 0)
(298.312 0 0)
(298.27 0 0)
(298.235 0 0)
(298.201 0 0)
(298.169 0 0)
(298.141 0 0)
(298.109 0 0)
(298.072 0 0)
(298.055 0 0)
(298.049 0 0)
(298.048 0 0)
(298.06 0 0)
(298.09 0 0)
(298.119 0 0)
(298.155 0 0)
(298.193 0 0)
(298.226 0 0)
(298.251 0 0)
(298.268 0 0)
(298.272 0 0)
(298.262 0 0)
(298.263 0 0)
(298.266 0 0)
(298.269 0 0)
(298.269 0 0)
(298.265 0 0)
(298.249 0 0)
(298.227 0 0)
(298.217 0 0)
(298.208 0 0)
(298.198 0 0)
(298.186 0 0)
(298.169 0 0)
(298.139 0 0)
(298.106 0 0)
(298.086 0 0)
(298.066 0 0)
(298.045 0 0)
(298.023 0 0)
(297.997 0 0)
(297.959 0 0)
(297.922 0 0)
(297.904 0 0)
(297.892 0 0)
(297.884 0 0)
(297.879 0 0)
(297.875 0 0)
(297.865 0 0)
(297.868 0 0)
(297.892 0 0)
(297.918 0 0)
(297.94 0 0)
(297.959 0 0)
(297.972 0 0)
(297.969 0 0)
(297.961 0 0)
(297.967 0 0)
(297.973 0 0)
(297.977 0 0)
(297.98 0 0)
(297.978 0 0)
(297.965 0 0)
(297.943 0 0)
(297.937 0 0)
(297.933 0 0)
(297.929 0 0)
(297.923 0 0)
(297.915 0 0)
(297.897 0 0)
(297.865 0 0)
(297.845 0 0)
(297.832 0 0)
(297.82 0 0)
(297.807 0 0)
(297.791 0 0)
(297.766 0 0)
(297.727 0 0)
(297.702 0 0)
(297.686 0 0)
(297.674 0 0)
(297.665 0 0)
(297.655 0 0)
(297.639 0 0)
(297.615 0 0)
(297.615 0 0)
(297.63 0 0)
(297.653 0 0)
(297.676 0 0)
(297.692 0 0)
(297.691 0 0)
(297.689 0 0)
(297.696 0 0)
(297.704 0 0)
(297.71 0 0)
(297.714 0 0)
(297.712 0 0)
(297.694 0 0)
(297.686 0 0)
(297.685 0 0)
(297.685 0 0)
(297.683 0 0)
(297.679 0 0)
(297.668 0 0)
(297.641 0 0)
(297.628 0 0)
(297.62 0 0)
(297.612 0 0)
(297.603 0 0)
(297.592 0 0)
(297.575 0 0)
(297.542 0 0)
(297.517 0 0)
(297.503 0 0)
(297.489 0 0)
(297.475 0 0)
(297.46 0 0)
(297.441 0 0)
(297.408 0 0)
(297.385 0 0)
(297.377 0 0)
(297.373 0 0)
(297.373 0 0)
(297.377 0 0)
(297.383 0 0)
(297.379 0 0)
(297.391 0 0)
(297.407 0 0)
(297.42 0 0)
(297.43 0 0)
(297.435 0 0)
(297.428 0 0)
(297.41 0 0)
(297.409 0 0)
(297.412 0 0)
(297.414 0 0)
(297.416 0 0)
(297.414 0 0)
(297.399 0 0)
(297.376 0 0)
(297.37 0 0)
(297.367 0 0)
(297.363 0 0)
(297.359 0 0)
(297.354 0 0)
(297.347 0 0)
(297.337 0 0)
(297.318 0 0)
(297.266 0 0)
(297.22 0 0)
(297.203 0 0)
(297.192 0 0)
(297.181 0 0)
(297.171 0 0)
(297.16 0 0)
(297.151 0 0)
(297.143 0 0)
(297.137 0 0)
(297.134 0 0)
(297.132 0 0)
(297.134 0 0)
(297.14 0 0)
(297.145 0 0)
(297.138 0 0)
(297.132 0 0)
(297.129 0 0)
(297.122 0 0)
(297.123 0 0)
(297.128 0 0)
(297.132 0 0)
(297.135 0 0)
(297.137 0 0)
(297.138 0 0)
(297.133 0 0)
(297.114 0 0)
(297.104 0 0)
(297.101 0 0)
(297.098 0 0)
(297.093 0 0)
(297.082 0 0)
(297.055 0 0)
(297.042 0 0)
(297.035 0 0)
(297.03 0 0)
(297.024 0 0)
(297.017 0 0)
(297.01 0 0)
(297.002 0 0)
(296.991 0 0)
(296.973 0 0)
(296.925 0 0)
(296.881 0 0)
(296.866 0 0)
(296.858 0 0)
(296.852 0 0)
(296.848 0 0)
(296.846 0 0)
(296.846 0 0)
(296.851 0 0)
(296.859 0 0)
(296.864 0 0)
(296.852 0 0)
(296.842 0 0)
(296.843 0 0)
(296.842 0 0)
(296.827 0 0)
(296.814 0 0)
(296.815 0 0)
(296.817 0 0)
(296.819 0 0)
(296.821 0 0)
(296.823 0 0)
(296.825 0 0)
(296.827 0 0)
(296.827 0 0)
(296.827 0 0)
(296.824 0 0)
(296.817 0 0)
(296.79 0 0)
(296.749 0 0)
(296.735 0 0)
(296.729 0 0)
(296.724 0 0)
(296.718 0 0)
(296.711 0 0)
(296.7 0 0)
(296.679 0 0)
(296.639 0 0)
(296.619 0 0)
(296.609 0 0)
(296.602 0 0)
(296.596 0 0)
(296.59 0 0)
(296.582 0 0)
(296.557 0 0)
(296.535 0 0)
(296.538 0 0)
(296.548 0 0)
(296.559 0 0)
(296.567 0 0)
(296.574 0 0)
(296.579 0 0)
(296.574 0 0)
(296.545 0 0)
(296.534 0 0)
(296.536 0 0)
(296.538 0 0)
(296.54 0 0)
(296.541 0 0)
(296.543 0 0)
(296.544 0 0)
(296.544 0 0)
(296.544 0 0)
(296.544 0 0)
(296.541 0 0)
(296.531 0 0)
(296.497 0 0)
(296.421 0 0)
(296.394 0 0)
(296.386 0 0)
(296.381 0 0)
(296.377 0 0)
(296.372 0 0)
(296.366 0 0)
(296.359 0 0)
(296.353 0 0)
(296.348 0 0)
(296.343 0 0)
(296.339 0 0)
(296.336 0 0)
(296.335 0 0)
(296.333 0 0)
(296.333 0 0)
(296.332 0 0)
(296.32 0 0)
(296.266 0 0)
(296.246 0 0)
(296.249 0 0)
(296.254 0 0)
(296.258 0 0)
(296.261 0 0)
(296.265 0 0)
(296.269 0 0)
(296.272 0 0)
(296.273 0 0)
(296.271 0 0)
(296.255 0 0)
(296.23 0 0)
(296.223 0 0)
(296.219 0 0)
(296.215 0 0)
(296.205 0 0)
(296.181 0 0)
(296.167 0 0)
(296.161 0 0)
(296.156 0 0)
(296.151 0 0)
(296.146 0 0)
(296.139 0 0)
(296.121 0 0)
(296.092 0 0)
(296.079 0 0)
(296.071 0 0)
(296.064 0 0)
(296.057 0 0)
(296.047 0 0)
(296.024 0 0)
(296.004 0 0)
(296 0 0)
(296 0 0)
(296.002 0 0)
(296.005 0 0)
(296.006 0 0)
(295.995 0 0)
(295.981 0 0)
(295.982 0 0)
(295.985 0 0)
(295.986 0 0)
(295.987 0 0)
(295.985 0 0)
(295.971 0 0)
(295.95 0 0)
(295.946 0 0)
(295.946 0 0)
(295.945 0 0)
(295.943 0 0)
(295.938 0 0)
(295.921 0 0)
(295.896 0 0)
(295.889 0 0)
(295.885 0 0)
(295.882 0 0)
(295.878 0 0)
(295.87 0 0)
(295.85 0 0)
(295.823 0 0)
(295.814 0 0)
(295.809 0 0)
(295.804 0 0)
(295.798 0 0)
(295.788 0 0)
(295.763 0 0)
(295.739 0 0)
(295.732 0 0)
(295.73 0 0)
(295.729 0 0)
(295.73 0 0)
(295.731 0 0)
(295.725 0 0)
(295.703 0 0)
(295.696 0 0)
(295.699 0 0)
(295.704 0 0)
(295.708 0 0)
(295.711 0 0)
(295.71 0 0)
(295.698 0 0)
(295.653 0 0)
(295.623 0 0)
(295.62 0 0)
(295.621 0 0)
(295.622 0 0)
(295.623 0 0)
(295.623 0 0)
(295.623 0 0)
(295.621 0 0)
(295.619 0 0)
(295.618 0 0)
(295.615 0 0)
(295.607 0 0)
(295.577 0 0)
(295.516 0 0)
(295.496 0 0)
(295.489 0 0)
(295.485 0 0)
(295.482 0 0)
(295.479 0 0)
(295.477 0 0)
(295.474 0 0)
(295.472 0 0)
(295.47 0 0)
(295.468 0 0)
(295.467 0 0)
(295.468 0 0)
(295.472 0 0)
(295.476 0 0)
(295.476 0 0)
(295.459 0 0)
(295.398 0 0)
(295.369 0 0)
(295.368 0 0)
(295.371 0 0)
(295.375 0 0)
(295.377 0 0)
(295.378 0 0)
(295.379 0 0)
(295.378 0 0)
(295.378 0 0)
(295.378 0 0)
(295.376 0 0)
(295.363 0 0)
(295.314 0 0)
(295.285 0 0)
(295.278 0 0)
(295.275 0 0)
(295.273 0 0)
(295.271 0 0)
(295.271 0 0)
(295.27 0 0)
(295.268 0 0)
(295.265 0 0)
(295.259 0 0)
(295.247 0 0)
(295.206 0 0)
(295.159 0 0)
(295.149 0 0)
(295.145 0 0)
(295.143 0 0)
(295.142 0 0)
(295.142 0 0)
(295.143 0 0)
(295.149 0 0)
(295.153 0 0)
(295.151 0 0)
(295.132 0 0)
(295.054 0 0)
(294.725 0 0)
(293.395 0 0)
(290.736 0 0)
(288.885 0 0)
(288.068 0 0)
(287.801 0 0)
(287.7 0 0)
(287.674 0 0)
(287.672 0 0)
(287.673 0 0)
(287.665 0 0)
(287.674 0 0)
(287.678 0 0)
(287.685 0 0)
(287.676 0 0)
(287.651 0 0)
(287.604 0 0)
(287.57 0 0)
(287.571 0 0)
(287.577 0 0)
(287.581 0 0)
(287.59 0 0)
(287.6 0 0)
(287.602 0 0)
(287.603 0 0)
(287.602 0 0)
(287.588 0 0)
(287.537 0 0)
(287.504 0 0)
(287.497 0 0)
(287.496 0 0)
(287.499 0 0)
(287.505 0 0)
(287.513 0 0)
(287.519 0 0)
(287.526 0 0)
(287.534 0 0)
(287.537 0 0)
(287.535 0 0)
(287.526 0 0)
(287.477 0 0)
(287.439 0 0)
(287.436 0 0)
(287.438 0 0)
(287.441 0 0)
(287.446 0 0)
(287.456 0 0)
(287.472 0 0)
(287.481 0 0)
(287.485 0 0)
(287.488 0 0)
(287.486 0 0)
(287.464 0 0)
(287.394 0 0)
(287.335 0 0)
(287.242 0 0)
(286.967 0 0)
(286.075 0 0)
(284.278 0 0)
(282.804 0 0)
(282.063 0 0)
(281.715 0 0)
(281.539 0 0)
(281.443 0 0)
(281.382 0 0)
(281.37 0 0)
(281.367 0 0)
(281.369 0 0)
(281.387 0 0)
(281.397 0 0)
(281.396 0 0)
(281.385 0 0)
(281.327 0 0)
(281.259 0 0)
(281.248 0 0)
(281.244 0 0)
(281.246 0 0)
(281.26 0 0)
(281.277 0 0)
(281.286 0 0)
(281.29 0 0)
(281.295 0 0)
(281.298 0 0)
(281.296 0 0)
(281.291 0 0)
(281.265 0 0)
(281.175 0 0)
(281.127 0 0)
(281.121 0 0)
(281.12 0 0)
(281.123 0 0)
(281.139 0 0)
(281.166 0 0)
(281.172 0 0)
(281.172 0 0)
(281.17 0 0)
(281.154 0 0)
(281.099 0 0)
(281.068 0 0)
(281.064 0 0)
(281.065 0 0)
(281.069 0 0)
(281.081 0 0)
(281.085 0 0)
(281.085 0 0)
(281.079 0 0)
(281.052 0 0)
(281.015 0 0)
(281.008 0 0)
(281.007 0 0)
(281.008 0 0)
(281.016 0 0)
(281.023 0 0)
(281.022 0 0)
(281.02 0 0)
(281.01 0 0)
(280.977 0 0)
(280.957 0 0)
(280.953 0 0)
(280.95 0 0)
(280.953 0 0)
)
;

boundaryField
{
    sides
    {
        type            zeroGradient;
    }
    empty
    {
        type            empty;
    }
}


// ************************************************************************* //
