/*--------------------------------*- C++ -*----------------------------------*\
  =========                 |
  \\      /  F ield         | OpenFOAM: The Open Source CFD Toolbox
   \\    /   O peration     | Website:  https://openfoam.org
    \\  /    A nd           | Version:  9
     \\/     M anipulation  |
\*---------------------------------------------------------------------------*/
FoamFile
{
    format      ascii;
    class       volScalarField;
    location    "0.014";
    object      mag(U);
}
// * * * * * * * * * * * * * * * * * * * * * * * * * * * * * * * * * * * * * //

dimensions      [0 1 -1 0 0 0 0];

internalField   nonuniform List<scalar> 
10000
(
15.8777
15.878
15.878
15.8781
15.8782
15.8782
15.8782
15.8782
15.8782
15.8782
15.8782
15.8782
15.8782
15.8782
15.8782
15.8782
15.8782
15.8782
15.8782
15.8782
15.8781
15.8781
15.8781
15.8781
15.8781
15.8781
15.8781
15.8781
15.8781
15.878
15.8779
15.8778
15.8777
15.8776
15.8775
15.8775
15.8774
15.8774
15.8773
15.8772
15.8772
15.8771
15.8771
15.877
15.8768
15.8767
15.8765
15.8763
15.8762
15.8763
15.8767
15.8781
15.8831
15.8992
15.9511
16.1172
16.6601
17.8396
18.7948
19.2676
19.5721
19.6744
19.7463
19.8219
19.8649
19.8705
19.8945
19.9488
19.9962
20.0114
20.0213
20.0672
20.116
20.1407
20.1411
20.1647
20.2148
20.2569
20.2676
20.2807
20.3228
20.3629
20.377
20.3778
20.41
20.4587
20.4936
20.4964
20.509
20.5525
20.5924
20.6035
20.6044
20.6371
20.677
20.6997
20.6977
20.7146
20.7515
20.7808
20.7837
20.787
20.8168
20.8462
20.857
20.8542
20.8721
20.8984
20.9149
20.9125
20.9192
20.94
20.9571
20.9586
20.9577
20.9715
20.9853
20.9897
20.9864
20.9929
21.0021
21.0064
21.0032
21.0045
21.0083
21.0094
21.0089
21.0101
21.0169
21.0372
21.0966
21.2818
21.7901
22.3488
22.6596
22.8299
22.8964
22.9556
22.9916
23.0029
23.0093
23.0262
23.0442
23.0557
23.0661
23.0897
23.1148
23.1323
23.1329
23.1307
23.1336
23.1402
23.1468
23.16
23.178
23.192
23.1971
23.194
23.1964
23.2057
23.2131
23.2121
23.213
23.2198
23.2253
23.2257
23.2237
23.2256
23.2281
23.2283
23.2276
23.2291
23.2349
23.2507
23.2968
23.4398
23.8986
24.7853
25.4518
25.8141
25.9986
26.1216
26.1899
26.2252
26.2603
26.2922
26.3133
26.3269
26.3458
26.3696
26.3901
26.4037
26.4181
26.4384
26.4585
26.4728
26.4838
26.4989
26.5164
26.5301
26.5385
26.5481
26.5613
26.5724
26.5781
26.5818
26.5897
26.5972
26.6007
26.5996
26.6027
26.6072
26.6092
26.6095
26.6141
26.6321
26.6865
26.8538
27.2695
27.6697
27.9029
28.0087
28.0784
28.1182
28.1348
28.1505
28.1687
28.183
28.191
28.1995
28.2122
28.2234
28.2294
28.2332
28.2406
28.248
28.2517
28.2517
28.2548
28.2594
28.2617
28.2599
28.2603
28.2629
28.2678
28.279
28.3131
28.4233
28.7637
29.2536
29.5642
29.6954
29.8054
29.8502
29.8555
29.8755
29.9067
29.9282
29.9276
29.9303
29.9518
29.9711
29.974
29.9681
29.976
29.986
29.9876
29.9853
29.9903
30.0106
30.0669
30.2337
30.5636
30.8099
30.969
31.0245
31.0567
31.0938
31.1154
31.1161
31.1202
31.1408
31.1599
31.1641
31.1602
31.1698
31.1822
31.1867
31.1816
31.1825
31.1893
31.2015
31.2264
31.3006
31.5407
31.9707
32.2843
32.4172
32.5221
32.5731
32.5831
32.5968
32.6249
32.6478
32.6515
32.6506
32.6683
32.6881
32.6961
32.6909
32.6959
32.7076
32.7147
32.7113
32.7097
32.7137
32.7186
32.7234
32.7344
32.7735
32.9024
33.2566
33.6523
33.8587
34.0002
34.0546
34.073
34.1064
34.1321
34.1412
34.1403
34.1543
34.177
34.1923
34.1913
34.1928
34.2082
34.2224
34.2253
34.2212
34.227
34.2355
34.2389
34.2348
34.234
34.2374
34.2424
34.2483
34.2638
34.3141
34.4764
34.9359
35.4919
35.7996
35.9984
36.0717
36.1062
36.1527
36.1828
36.1876
36.1884
36.2118
36.2389
36.2522
36.2494
36.2572
36.2792
36.2979
36.3009
36.299
36.312
36.3289
36.338
36.3357
36.3383
36.35
36.3597
36.3603
36.3577
36.3625
36.3686
36.3705
36.3675
36.3672
36.3697
36.3726
36.3753
36.383
36.409
36.492
36.7555
37.3646
37.909
38.1786
38.3677
38.43
38.4462
38.4895
38.5265
38.5361
38.5284
38.5434
38.5678
38.5816
38.5775
38.5773
38.5907
38.6034
38.6056
38.601
38.605
38.612
38.6147
38.6123
38.612
38.6162
38.6266
38.6504
38.7194
38.9374
39.3457
39.6562
39.8077
39.9016
39.9527
39.9698
39.9861
40.0076
40.024
40.0293
40.0325
40.0475
40.0648
40.0742
40.073
40.0772
40.0904
40.1011
40.1011
40.0981
40.1028
40.1087
40.1092
40.1078
40.1105
40.1216
40.1521
40.2388
40.5049
41.0138
41.392
41.6219
41.7034
41.7586
41.8118
41.8391
41.8386
41.8455
41.874
41.8995
41.9036
41.8978
41.9095
41.9269
41.9356
41.9304
41.9294
41.9355
41.9407
41.9425
41.9431
41.952
41.9837
42.0764
42.3487
42.7737
43.047
43.226
43.2938
43.3202
43.363
43.3943
43.4032
43.4014
43.4176
43.4436
43.4603
43.4586
43.4587
43.4742
43.4897
43.4936
43.4879
43.4913
43.4988
43.5013
43.5013
43.5035
43.5155
43.5518
43.6555
43.9554
44.3943
44.6673
44.8459
44.9082
44.933
44.9766
45.0101
45.0182
45.0144
45.0307
45.0563
45.0715
45.0682
45.0676
45.081
45.0946
45.0966
45.0905
45.0925
45.0995
45.1051
45.1092
45.1222
45.1696
45.3215
45.6831
46.0245
46.1888
46.3127
46.3667
46.3748
46.3901
46.4203
46.4424
46.4413
46.4367
46.4477
46.4613
46.4636
46.4613
46.4686
46.4984
46.5825
46.8015
47.0621
47.2048
47.3157
47.3635
47.3709
47.3865
47.4157
47.4372
47.4371
47.4331
47.4453
47.4594
47.4616
47.4572
47.4603
47.4738
47.5059
47.585
47.8052
48.1318
48.3517
48.4911
48.5443
48.5717
48.6114
48.6391
48.6458
48.6449
48.661
48.6821
48.692
48.6867
48.6879
48.6975
48.7043
48.7061
48.7083
48.7217
48.7641
48.8852
49.1884
49.5169
49.7205
49.8226
49.8829
49.9228
49.9416
49.9521
49.9703
49.9917
50.0063
50.0076
50.0081
50.022
50.0363
50.039
50.032
50.0325
50.0406
50.0563
50.085
50.1618
50.3913
50.7527
51.0031
51.1369
51.1815
51.2246
51.2633
51.283
51.2824
51.2867
51.309
51.3298
51.3338
51.327
51.3321
51.344
51.3498
51.3508
51.3534
51.3696
51.4198
51.5644
51.8794
52.1602
52.3116
52.4211
52.4634
52.472
52.4955
52.5227
52.5369
52.5346
52.5371
52.5524
52.5656
52.5652
52.5614
52.5681
52.5861
52.6247
52.7271
52.9776
53.2342
53.4073
53.4795
53.5104
53.5516
53.5799
53.5872
53.5853
53.6
53.6209
53.6303
53.6232
53.6221
53.6313
53.6459
53.6648
53.7092
53.8475
54.1579
54.4407
54.6042
54.6636
54.7149
54.7588
54.7794
54.7791
54.7859
54.8115
54.8353
54.8405
54.8358
54.8444
54.8607
54.87
54.8653
54.8621
54.8684
54.8805
54.8997
54.9441
55.0794
55.4202
55.7761
55.9973
56.0896
56.153
56.2073
56.2311
56.2324
56.2422
56.2677
56.2899
56.2941
56.2921
56.3046
56.3222
56.3309
56.3263
56.327
56.3343
56.3405
56.3442
56.3531
56.386
56.4875
56.7707
57.1549
57.3893
57.5389
57.6171
57.6406
57.6631
57.6944
57.7178
57.7215
57.7209
57.7383
57.7616
57.7742
57.7711
57.7706
57.7814
57.7922
57.7921
57.7883
57.7923
57.8037
57.8283
57.8873
58.0603
58.4263
58.7418
58.9422
59.0261
59.0613
59.1097
59.1431
59.1522
59.1506
59.1639
59.1885
59.2058
59.2055
59.203
59.2152
59.2297
59.2345
59.2289
59.2279
59.2343
59.247
59.2687
59.3255
59.501
59.8636
60.1719
60.3434
60.4155
60.4778
60.5152
60.5265
60.5308
60.5505
60.5745
60.5868
60.5856
60.5886
60.6043
60.6186
60.6201
60.6148
60.6181
60.626
60.6338
60.6404
60.6603
60.7269
60.932
61.3185
61.6225
61.7686
61.8641
61.9306
61.9536
61.9559
61.9729
62.0029
62.0258
62.0284
62.026
62.0392
62.0613
62.0761
62.075
62.0711
62.0795
62.0911
62.095
62.0906
62.0891
62.096
62.1144
62.1534
62.2562
62.5453
62.9838
63.2878
63.4735
63.5517
63.5835
63.6287
63.6637
63.6775
63.6772
63.6833
63.7088
63.7339
63.7418
63.7381
63.7416
63.7592
63.7752
63.7784
63.7718
63.7736
63.7817
63.7877
63.792
63.7983
63.8232
63.9019
64.1359
64.549
64.8636
65.0229
65.1345
65.2031
65.224
65.2277
65.2511
65.2814
65.2989
65.299
65.2992
65.317
65.3386
65.3481
65.3449
65.3467
65.3586
65.3687
65.3689
65.3648
65.368
65.3778
65.3984
65.4475
65.5887
65.9328
66.2913
66.5185
66.6206
66.6871
66.7395
66.7611
66.764
66.7755
66.8007
66.8218
66.8252
66.8231
66.8346
66.8517
66.8602
66.8555
66.8538
66.8604
66.87
66.8811
66.9027
66.9688
67.1694
67.5188
67.7881
67.9178
67.997
68.0613
68.0883
68.0906
68.0993
68.1255
68.1494
68.1543
68.1501
68.1587
68.1737
68.181
68.1783
68.1765
68.1854
68.2112
68.2709
68.4311
68.7368
68.9871
69.156
69.238
69.2653
69.2986
69.3333
69.3533
69.3562
69.3593
69.3816
69.4066
69.417
69.414
69.4173
69.4322
69.4446
69.4442
69.4385
69.4418
69.451
69.4658
69.4921
69.5644
69.7809
70.1982
70.5447
70.7403
70.8273
70.8997
70.9495
70.9676
70.971
70.9876
71.0174
71.0402
71.0433
71.0422
71.057
71.0796
71.0927
71.0903
71.089
71.0979
71.1091
71.1109
71.1084
71.1119
71.1295
71.1772
71.3074
71.6254
71.9834
72.2035
72.3521
72.4187
72.4407
72.4725
72.5052
72.5234
72.5265
72.5304
72.5526
72.5772
72.5875
72.5857
72.5919
72.6079
72.6198
72.6181
72.612
72.615
72.6229
72.6323
72.6455
72.6796
72.7832
73.0721
73.4624
73.7242
73.847
73.9287
73.9916
74.017
74.0195
74.0302
74.058
74.0815
74.0838
74.0742
74.0769
74.0895
74.1074
74.1296
74.1855
74.3108
74.4328
74.5249
74.5599
74.564
74.577
74.6032
74.6209
74.6196
74.6174
74.6325
74.6803
74.7977
75.0653
75.3618
75.5325
75.6609
75.742
75.7671
75.7674
75.7861
75.8235
75.8492
75.8458
75.8342
75.8423
75.869
75.9231
76.0158
76.1039
76.1438
76.1926
76.2355
76.2534
76.2474
76.2453
76.2642
76.2965
76.3478
76.4528
76.6931
76.9519
77.1356
77.2678
77.3206
77.3303
77.3552
77.3966
77.4251
77.427
77.4248
77.4403
77.4575
77.4648
77.4722
77.4986
77.5797
77.7669
77.963
78.0615
78.1283
78.1943
78.2292
78.2333
78.2372
78.2585
78.2785
78.2811
78.2812
78.2981
78.3494
78.47
78.6909
78.8657
78.9609
79.0513
79.0992
79.1057
79.1155
79.1398
79.1595
79.1718
79.2013
79.2978
79.4466
79.5788
79.6396
79.6525
79.6794
79.7083
79.7221
79.7305
79.757
79.8301
79.9789
80.1192
80.188
80.2565
80.307
80.3252
80.324
80.3257
80.3525
80.3857
80.3972
80.3977
80.4125
80.4761
80.6541
80.9359
81.1334
81.217
81.29
81.3597
81.3975
81.3999
81.3976
81.4239
81.459
81.4733
81.4674
81.4663
81.486
81.5383
81.6458
81.8168
81.9465
82.0438
82.1317
82.1876
82.2167
82.2484
82.2989
82.3582
82.4086
82.4515
82.5032
82.5747
82.6566
82.7295
82.788
82.8424
82.8973
82.9483
82.9946
83.0459
83.1125
83.1838
83.2447
83.2958
83.3528
83.4263
83.5087
83.577
83.6228
83.6619
83.724
83.7985
83.8601
83.894
83.93
83.9865
84.0708
84.1553
84.2132
84.2539
84.3042
84.3805
84.4556
84.5035
84.5366
84.5788
84.6488
84.7296
84.7923
84.8335
84.8759
84.9411
85.0212
85.0908
85.1384
85.1821
85.237
85.3033
85.3662
85.418
85.4678
85.5299
85.606
85.6796
85.7356
85.7787
85.8216
85.8743
85.9454
86.0273
86.1019
86.1564
86.1983
86.2416
86.2968
86.3651
86.4335
86.4913
86.5445
86.6133
86.6995
86.7748
86.8076
86.827
86.8486
86.903
87.0187
87.132
87.1882
87.2044
87.225
87.2667
87.3426
87.4258
87.4969
87.5626
87.6311
87.6936
87.7395
87.7758
87.8142
87.866
87.94
88.0239
88.1001
88.1616
88.2146
88.2655
88.3157
88.3646
88.4128
88.4647
88.5285
88.6164
88.711
88.787
88.8219
88.8462
88.8754
88.9195
89.0003
89.0921
89.1615
89.1996
89.2361
89.2887
89.3647
89.4459
89.5199
89.5946
89.6665
89.716
89.7394
89.7584
89.7798
89.8312
89.9517
90.0833
90.1717
90.1956
90.2112
90.2488
90.317
90.3793
90.4085
90.4294
90.4893
90.6172
90.7479
90.8269
90.8437
90.8516
90.8731
90.9116
90.9762
91.0483
91.1144
91.2054
91.3214
91.4232
91.4611
91.475
91.4933
91.5202
91.5587
91.6139
91.7157
91.8481
91.9634
92.0231
92.0327
92.0299
92.0437
92.0707
92.1102
92.2102
92.3531
92.503
92.6072
92.6442
92.6439
92.6268
92.6373
92.6671
92.7653
92.907
93.0213
93.0624
93.0614
93.0625
93.0917
93.1939
93.3336
93.4417
93.4732
93.4624
93.4575
93.486
93.59
93.7544
93.8855
93.95
93.9507
93.9217
93.924
93.9598
94.071
94.2214
94.3357
94.3745
94.3685
94.3624
94.3846
94.4763
94.6295
94.7592
94.825
94.8289
94.8137
94.8243
94.8785
95.0043
95.1404
95.2257
95.2393
95.2228
95.2259
95.2707
95.3896
95.562
95.6858
95.738
95.7343
95.6951
95.6871
95.7062
95.7739
95.9118
96.1217
96.2617
96.3313
96.3362
96.2919
96.2484
96.2593
96.2898
96.3934
96.5663
96.7465
96.8492
96.8777
96.8579
96.8058
96.8001
96.8205
96.886
97.0223
97.2389
97.3944
97.4771
97.493
97.471
97.4424
97.4522
97.4766
97.5033
97.5306
97.5976
97.7316
97.9447
98.106
98.1927
98.2098
98.1781
98.1192
98.1163
98.1377
98.2126
98.3555
98.5177
98.6199
98.6477
98.6448
98.6518
98.6999
98.8221
98.9807
99.0898
99.1214
99.0981
99.0383
99.0345
99.0632
99.1682
99.3495
99.5695
99.6891
99.7331
99.7228
99.6467
99.588
99.5975
99.6233
99.7148
99.8775
100.129
100.284
100.361
100.372
100.327
100.255
100.249
100.27
100.339
100.478
100.665
100.786
100.835
100.838
100.837
100.858
100.934
101.064
101.177
101.217
101.208
101.177
101.186
101.232
101.35
101.542
101.691
101.767
101.778
101.753
101.744
101.765
101.826
101.954
102.081
102.153
102.17
102.184
102.224
102.323
102.427
102.467
102.486
102.521
102.625
102.74
102.794
102.797
102.794
102.816
102.909
103.074
103.248
103.347
103.375
103.363
103.33
103.334
103.359
103.386
103.461
103.601
103.78
103.895
103.935
103.933
103.917
103.932
103.981
104.101
104.236
104.321
104.338
104.333
104.346
104.392
104.509
104.64
104.72
104.738
104.747
104.775
104.872
105.015
105.127
105.163
105.143
105.081
105.073
105.099
105.196
105.371
105.64
105.794
105.867
105.876
105.819
105.715
105.695
105.715
105.784
105.926
106.162
106.327
106.41
106.424
106.378
106.293
106.284
106.307
106.397
106.561
106.807
106.948
107.013
107.016
106.953
106.873
106.873
106.9
106.995
107.165
107.412
107.551
107.617
107.624
107.576
107.5
107.492
107.516
107.543
107.614
107.755
107.995
108.19
108.289
108.316
108.292
108.2
108.145
108.159
108.189
108.287
108.458
108.69
108.819
108.873
108.871
108.813
108.776
108.791
108.85
108.98
109.195
109.348
109.423
109.433
109.389
109.338
109.348
109.388
109.5
109.682
109.827
109.9
109.911
109.888
109.888
109.915
110.008
110.159
110.286
110.345
110.346
110.31
110.308
110.338
110.438
110.61
110.776
110.865
110.886
110.869
110.854
110.874
110.928
111.051
111.185
111.265
111.284
111.284
111.301
111.354
111.475
111.603
111.676
111.694
111.707
111.738
111.835
111.957
112.033
112.048
112.049
112.069
112.136
112.272
112.403
112.473
112.484
112.478
112.494
112.557
112.691
112.842
112.931
112.949
112.913
112.856
112.863
112.904
113.019
113.22
113.409
113.506
113.532
113.509
113.457
113.462
113.495
113.599
113.777
113.94
114.027
114.045
114.013
113.97
113.982
114.028
114.147
114.342
114.492
114.566
114.577
114.536
114.489
114.501
114.54
114.65
114.834
115.003
115.093
115.118
115.122
115.138
115.17
115.223
115.282
115.318
115.347
115.377
115.467
115.619
115.755
115.823
115.83
115.786
115.762
115.782
115.858
116.012
116.275
116.453
116.539
116.557
116.516
116.384
116.308
116.318
116.346
116.427
116.58
116.832
116.999
117.08
117.099
117.075
117.048
117.065
117.109
117.223
117.373
117.481
117.514
117.501
117.471
117.484
117.54
117.669
117.885
118.041
118.115
118.127
118.079
117.997
117.993
118.018
118.1
118.255
118.474
118.604
118.66
118.668
118.646
118.652
118.679
118.757
118.882
118.986
119.019
119.021
119.032
119.076
119.193
119.366
119.492
119.542
119.537
119.469
119.431
119.449
119.51
119.646
119.884
120.071
120.161
120.184
120.153
120.059
120.028
120.048
120.106
120.235
120.46
120.641
120.73
120.753
120.725
120.65
120.639
120.662
120.733
120.875
121.077
121.205
121.257
121.259
121.218
121.211
121.236
121.318
121.473
121.65
121.751
121.781
121.76
121.695
121.69
121.716
121.805
121.97
122.2
122.33
122.382
122.384
122.324
122.272
122.287
122.324
122.431
122.615
122.8
122.899
122.928
122.917
122.88
122.888
122.917
122.981
123.106
123.228
123.287
123.312
123.342
123.434
123.57
123.678
123.713
123.704
123.677
123.692
123.741
123.861
124.035
124.159
124.209
124.212
124.183
124.189
124.219
124.312
124.475
124.634
124.721
124.745
124.729
124.694
124.703
124.733
124.769
124.868
125.043
125.272
125.399
125.45
125.454
125.39
125.3
125.296
125.322
125.381
125.51
125.733
125.905
125.991
126.013
125.987
125.937
125.946
125.98
126.083
126.268
126.479
126.59
126.627
126.615
126.518
126.43
126.436
126.465
126.552
126.715
127.011
127.228
127.327
127.357
127.337
127.215
127.081
127.07
127.095
127.157
127.291
127.541
127.79
127.906
127.948
127.945
127.867
127.791
127.799
127.83
127.923
128.094
128.334
128.467
128.522
128.527
128.468
128.404
128.416
128.451
128.556
128.743
128.971
129.089
129.132
129.127
129.039
128.942
128.943
128.971
129.053
129.212
129.499
129.711
129.809
129.84
129.826
129.724
129.616
129.612
129.641
129.676
129.77
129.94
130.229
130.416
130.505
130.533
130.52
130.451
130.419
130.439
130.471
130.503
130.536
130.567
130.634
130.769
131.003
131.183
131.271
131.296
131.272
131.185
131.157
131.18
131.233
131.355
131.569
131.751
131.841
131.867
131.846
131.78
131.773
131.799
131.865
132.001
132.198
132.327
132.379
132.388
132.357
132.352
132.379
132.439
132.567
132.724
132.823
132.855
132.858
132.865
132.893
132.959
133.085
133.207
133.263
133.279
133.291
133.318
133.391
133.511
133.608
133.639
133.641
133.652
133.686
133.781
133.944
134.083
134.152
134.167
134.143
134.133
134.158
134.209
134.327
134.484
134.593
134.634
134.652
134.676
134.73
134.85
134.978
135.047
135.061
135.024
134.984
135.002
135.034
135.123
135.285
135.489
135.605
135.648
135.65
135.612
135.61
135.638
135.711
135.856
136.037
136.145
136.182
136.175
136.124
136.12
136.148
136.226
136.378
136.586
136.708
136.755
136.756
136.691
136.639
136.657
136.696
136.803
136.996
137.209
137.317
137.355
137.348
137.272
137.226
137.246
137.288
137.398
137.597
137.816
137.926
137.965
137.96
137.889
137.844
137.864
137.904
138.012
138.205
138.407
138.51
138.545
138.534
138.453
138.406
138.427
138.466
138.572
138.761
138.968
139.074
139.112
139.106
139.049
139.033
139.058
139.119
139.249
139.472
139.634
139.709
139.73
139.695
139.607
139.591
139.618
139.672
139.794
140.01
140.191
140.279
140.308
140.295
140.246
140.247
140.277
140.33
140.451
140.615
140.728
140.772
140.785
140.792
140.82
140.874
140.992
141.125
141.202
141.229
141.249
141.28
141.32
141.367
141.408
141.444
141.477
141.537
141.664
141.831
141.94
141.98
141.979
141.949
141.96
141.994
142.086
142.256
142.445
142.545
142.58
142.573
142.516
142.503
142.531
142.575
142.684
142.843
142.964
143.013
143.027
143.028
143.053
143.108
143.231
143.395
143.503
143.542
143.539
143.498
143.501
143.531
143.607
143.753
143.946
144.061
144.105
144.113
144.094
144.107
144.139
144.212
144.335
144.441
144.48
144.477
144.444
144.457
144.494
144.595
144.781
145.005
145.12
145.164
145.166
145.103
145.054
145.074
145.11
145.203
145.374
145.561
145.659
145.693
145.685
145.625
145.615
145.643
145.707
145.841
146.076
146.248
146.328
146.352
146.325
146.223
146.185
146.209
146.25
146.355
146.547
146.795
146.922
146.973
146.985
146.938
146.885
146.9
146.934
147.013
147.164
147.331
147.423
147.453
147.438
147.372
147.364
147.393
147.461
147.602
147.856
148.043
148.129
148.157
148.136
148.029
147.966
147.984
148.02
148.113
148.286
148.564
148.722
148.793
148.814
148.778
148.66
148.615
148.638
148.677
148.778
148.964
149.242
149.388
149.452
149.47
149.428
149.312
149.279
149.305
149.346
149.453
149.648
149.932
150.076
150.14
150.158
150.116
149.972
149.892
149.906
149.94
149.991
150.108
150.326
150.619
150.759
150.821
150.84
150.803
150.705
150.683
150.712
150.753
150.856
151.043
151.285
151.41
151.46
151.473
151.419
151.307
151.286
151.314
151.349
151.414
151.548
151.792
151.996
152.091
152.125
152.12
152.042
151.989
152.009
152.044
152.132
152.298
152.547
152.687
152.748
152.764
152.717
152.602
152.576
152.604
152.648
152.758
152.962
153.246
153.387
153.448
153.467
153.427
153.309
153.268
153.292
153.327
153.397
153.535
153.76
153.91
153.979
154.005
154.008
154.025
154.058
154.127
154.247
154.355
154.396
154.397
154.348
154.341
154.371
154.438
154.577
154.821
154.991
155.068
155.094
155.069
154.966
154.925
154.95
154.99
155.089
155.275
155.552
155.696
155.76
155.78
155.741
155.612
155.556
155.577
155.612
155.687
155.834
156.097
156.287
156.374
156.407
156.403
156.355
156.352
156.384
156.427
156.53
156.676
156.784
156.825
156.827
156.775
156.763
156.792
156.85
156.976
157.214
157.425
157.522
157.559
157.556
157.476
157.404
157.417
157.451
157.517
157.651
157.884
158.052
158.13
158.158
158.144
158.08
158.072
158.104
158.147
158.251
158.432
158.6
158.684
158.716
158.714
158.693
158.713
158.749
158.809
158.928
159.053
159.117
159.143
159.161
159.193
159.256
159.386
159.536
159.62
159.649
159.632
159.57
159.572
159.605
159.674
159.815
160.075
160.269
160.357
160.39
160.378
160.265
160.125
160.115
160.148
160.189
160.287
160.471
160.789
160.978
161.063
161.095
161.088
161
160.928
160.943
160.978
161.037
161.161
161.377
161.544
161.621
161.65
161.636
161.573
161.567
161.599
161.649
161.762
161.966
162.149
162.237
162.27
162.265
162.198
162.169
162.196
162.233
162.309
162.455
162.647
162.759
162.805
162.822
162.819
162.843
162.879
162.953
163.086
163.214
163.275
163.297
163.292
163.305
163.339
163.398
163.517
163.661
163.744
163.776
163.785
163.8
163.834
163.892
164.004
164.117
164.166
164.182
164.173
164.194
164.235
164.33
164.509
164.704
164.802
164.839
164.838
164.759
164.694
164.713
164.749
164.826
164.975
165.246
165.434
165.518
165.551
165.544
165.453
165.376
165.39
165.426
165.48
165.596
165.803
165.977
166.059
166.091
166.087
166.043
166.048
166.082
166.138
166.257
166.456
166.603
166.67
166.695
166.675
166.621
166.629
166.664
166.72
166.839
167.04
167.191
167.261
167.289
167.279
167.252
167.274
167.311
167.37
167.49
167.636
167.723
167.757
167.765
167.77
167.803
167.853
167.965
168.128
168.242
168.288
168.301
168.266
168.257
168.289
168.335
168.441
168.631
168.805
168.889
168.924
168.922
168.869
168.857
168.889
168.928
168.995
169.126
169.282
169.374
169.412
169.435
169.465
169.505
169.591
169.723
169.824
169.865
169.874
169.852
169.869
169.905
169.971
170.104
170.264
170.356
170.393
170.399
170.383
170.407
170.445
170.529
170.687
170.883
170.987
171.03
171.04
170.983
170.921
170.936
170.974
171.019
171.118
171.292
171.459
171.542
171.577
171.594
171.616
171.652
171.711
171.824
171.941
171.994
172.013
171.991
171.985
172.018
172.067
172.176
172.369
172.538
172.618
172.652
172.653
172.625
172.639
172.677
172.724
172.825
172.967
173.069
173.111
173.128
173.135
173.168
173.213
173.312
173.465
173.584
173.634
173.651
173.618
173.598
173.628
173.67
173.764
173.942
174.164
174.277
174.325
174.343
174.302
174.229
174.234
174.27
174.31
174.375
174.502
174.67
174.774
174.818
174.845
174.876
174.915
174.992
175.12
175.229
175.275
175.29
175.268
175.278
175.314
175.373
175.496
175.684
175.809
175.862
175.885
175.857
175.825
175.85
175.889
175.96
176.099
176.296
176.413
176.462
176.481
176.45
176.42
176.447
176.486
176.555
176.693
176.886
177.002
177.052
177.072
177.044
177.021
177.049
177.088
177.158
177.294
177.489
177.608
177.659
177.684
177.684
177.705
177.744
177.798
177.872
177.932
177.971
177.99
177.974
177.983
178.019
178.078
178.201
178.438
178.657
178.754
178.796
178.807
178.746
178.661
178.668
178.706
178.752
178.852
179.039
179.259
179.368
179.414
179.432
179.392
179.342
179.362
179.401
179.462
179.586
179.816
180.001
180.084
180.12
180.121
180.027
179.887
179.874
179.908
179.948
180.013
180.143
180.401
180.683
180.805
180.858
180.884
180.856
180.746
180.705
180.733
180.773
180.83
180.949
181.173
181.392
181.492
181.536
181.552
181.507
181.42
181.421
181.457
181.498
181.554
181.669
181.856
181.996
182.061
182.094
182.114
182.146
182.186
182.255
182.369
182.46
182.501
182.513
182.502
182.526
182.565
182.636
182.774
182.959
183.067
183.113
183.133
183.105
183.09
183.121
183.162
183.227
183.355
183.55
183.678
183.736
183.768
183.781
183.792
183.825
183.863
183.9
183.928
183.938
183.958
183.997
184.039
184.113
184.257
184.491
184.636
184.701
184.732
184.721
184.644
184.626
184.66
184.701
184.779
184.928
185.178
185.331
185.4
185.433
185.427
185.355
185.327
185.357
185.398
185.458
185.577
185.782
185.934
186.004
186.038
186.038
185.99
185.988
186.024
186.066
186.121
186.232
186.375
186.463
186.504
186.533
186.567
186.61
186.694
186.851
187.008
187.085
187.12
187.118
187.043
187.008
187.037
187.078
187.142
187.269
187.491
187.649
187.721
187.756
187.759
187.72
187.726
187.765
187.808
187.888
188.036
188.188
188.266
188.303
188.309
188.289
188.31
188.351
188.41
188.531
188.733
188.876
188.94
188.972
188.959
188.871
188.838
188.868
188.909
188.965
189.078
189.297
189.55
189.666
189.718
189.747
189.731
189.642
189.611
189.64
189.682
189.725
189.768
189.812
189.857
189.94
190.094
190.359
190.524
190.597
190.633
190.638
190.563
190.485
190.499
190.54
190.584
190.668
190.827
191.057
191.185
191.241
191.272
191.262
191.223
191.24
191.281
191.325
191.411
191.559
191.695
191.761
191.793
191.789
191.764
191.789
191.829
191.894
192.023
192.253
192.42
192.494
192.53
192.528
192.428
192.302
192.302
192.34
192.384
192.465
192.621
192.927
193.158
193.254
193.298
193.319
193.276
193.148
193.116
193.147
193.19
193.24
193.345
193.54
193.767
193.875
193.924
193.95
193.929
193.886
193.906
193.947
193.994
194.084
194.251
194.449
194.548
194.594
194.618
194.59
194.529
194.539
194.578
194.622
194.666
194.71
194.754
194.799
194.869
195.001
195.228
195.383
195.454
195.492
195.505
195.486
195.501
195.542
195.586
195.653
195.775
195.9
195.961
195.995
195.997
195.996
196.031
196.074
196.15
196.295
196.481
196.581
196.627
196.648
196.61
196.553
196.572
196.613
196.661
196.756
196.936
197.15
197.255
197.303
197.33
197.308
197.262
197.281
197.323
197.368
197.448
197.597
197.761
197.846
197.888
197.904
197.884
197.894
197.934
197.979
198.063
198.216
198.382
198.466
198.507
198.521
198.479
198.462
198.496
198.539
198.604
198.73
198.944
199.089
199.155
199.191
199.192
199.131
199.114
199.149
199.193
199.251
199.366
199.563
199.71
199.777
199.814
199.818
199.772
199.771
199.809
199.853
199.921
200.05
200.254
200.383
200.442
200.476
200.475
200.441
200.458
200.499
200.544
200.614
200.743
200.883
200.956
200.995
201.008
201.006
201.039
201.082
201.147
201.274
201.498
201.654
201.724
201.763
201.772
201.704
201.624
201.637
201.678
201.722
201.767
201.812
201.858
201.919
202.035
202.253
202.458
202.55
202.597
202.625
202.616
202.611
202.646
202.69
202.738
202.826
202.947
203.023
203.063
203.076
203.05
203.063
203.105
203.154
203.249
203.434
203.668
203.781
203.833
203.864
203.847
203.754
203.729
203.763
203.807
203.859
203.963
204.157
204.37
204.469
204.518
204.546
204.532
204.496
204.519
204.561
204.607
204.679
204.807
204.94
205.006
205.044
205.049
205.013
205.025
205.067
205.114
205.203
205.373
205.607
205.726
205.78
205.814
205.802
205.712
205.68
205.712
205.757
205.81
205.916
206.118
206.344
206.447
206.496
206.526
206.506
206.413
206.393
206.429
206.473
206.527
206.632
206.829
207.044
207.142
207.191
207.22
207.203
207.14
207.147
207.188
207.233
207.293
207.406
207.6
207.745
207.812
207.852
207.868
207.854
207.875
207.918
207.964
208.031
208.145
208.252
208.303
208.335
208.326
208.306
208.336
208.381
208.439
208.553
208.775
208.992
209.087
209.134
209.162
209.136
209.032
209.008
209.043
209.088
209.138
209.227
209.395
209.609
209.717
209.769
209.803
209.802
209.779
209.805
209.849
209.895
209.966
210.095
210.241
210.319
210.361
210.382
210.37
210.389
210.432
210.478
210.555
210.697
210.866
210.953
210.999
211.024
210.999
210.967
210.996
211.041
211.089
211.168
211.318
211.5
211.596
211.644
211.675
211.674
211.677
211.714
211.76
211.811
211.9
212.04
212.149
212.202
212.239
212.254
212.281
212.325
212.373
212.44
212.53
212.597
212.643
212.68
212.713
212.756
212.803
212.883
213.036
213.283
213.426
213.49
213.53
213.538
213.457
213.298
213.276
213.311
213.356
213.403
213.456
213.552
213.734
214.049
214.224
214.299
214.343
214.366
214.322
214.159
214.087
214.112
214.157
214.204
214.278
214.416
214.706
214.98
215.09
215.143
215.18
215.179
215.083
214.984
214.998
215.04
215.087
215.142
215.246
215.441
215.641
215.733
215.781
215.813
215.803
215.761
215.781
215.825
215.872
215.936
216.055
216.236
216.353
216.407
216.445
216.448
216.412
216.427
216.47
216.517
216.583
216.706
216.902
217.029
217.088
217.127
217.136
217.089
217.08
217.117
217.164
217.214
217.301
217.459
217.628
217.711
217.757
217.787
217.781
217.78
217.818
217.865
217.914
217.994
218.139
218.298
218.379
218.426
218.461
218.479
218.51
218.555
218.601
218.647
218.692
218.736
218.783
218.83
218.878
218.938
219.049
219.219
219.336
219.392
219.43
219.436
219.391
219.393
219.435
219.482
219.539
219.645
219.834
219.989
220.061
220.105
220.129
220.099
220.069
220.1
220.146
220.194
220.265
220.396
220.582
220.689
220.742
220.78
220.788
220.771
220.798
220.843
220.891
220.954
221.07
221.232
221.331
221.382
221.419
221.433
221.455
221.499
221.547
221.605
221.71
221.838
221.909
221.952
221.974
221.938
221.908
221.941
221.988
222.036
222.11
222.247
222.487
222.642
222.713
222.757
222.785
222.765
222.735
222.764
222.81
222.859
222.912
223.002
223.137
223.233
223.284
223.321
223.339
223.368
223.414
223.462
223.533
223.664
223.823
223.908
223.955
223.987
223.976
223.959
223.993
224.04
224.09
224.171
224.321
224.493
224.58
224.628
224.66
224.645
224.576
224.581
224.623
224.671
224.727
224.827
225.018
225.236
225.335
225.387
225.426
225.431
225.368
225.347
225.384
225.431
225.48
225.546
225.667
225.902
226.104
226.192
226.243
226.283
226.299
226.244
226.146
226.151
226.193
226.241
226.289
226.337
226.386
226.435
226.487
226.568
226.719
226.98
227.137
227.208
227.254
227.283
227.26
227.172
227.165
227.206
227.254
227.304
227.383
227.528
227.737
227.851
227.906
227.949
227.964
227.926
227.92
227.96
228.008
228.059
228.136
228.277
228.451
228.542
228.593
228.63
228.636
228.622
228.654
228.701
228.751
228.815
228.929
229.081
229.168
229.217
229.253
229.252
229.239
229.274
229.322
229.372
229.448
229.591
229.784
229.886
229.939
229.979
229.987
229.934
229.922
229.961
230.009
230.059
230.133
230.268
230.458
230.564
230.618
230.66
230.677
230.66
230.683
230.729
230.778
230.834
230.931
231.1
231.246
231.316
231.362
231.395
231.387
231.363
231.392
231.439
231.488
231.537
231.586
231.635
231.685
231.736
231.808
231.936
232.139
232.264
232.324
232.37
232.401
232.394
232.394
232.433
232.481
232.531
232.58
232.629
232.678
232.729
232.786
232.883
233.062
233.238
233.32
233.369
233.406
233.405
233.313
233.253
233.281
233.327
233.377
233.431
233.517
233.681
233.996
234.198
234.282
234.333
234.372
234.379
234.287
234.126
234.11
234.149
234.197
234.247
234.297
234.347
234.407
234.512
234.717
234.995
235.121
235.181
235.228
235.257
235.232
235.144
235.142
235.184
235.233
235.284