/*--------------------------------*- C++ -*----------------------------------*\
  =========                 |
  \\      /  F ield         | OpenFOAM: The Open Source CFD Toolbox
   \\    /   O peration     | Website:  https://openfoam.org
    \\  /    A nd           | Version:  9
     \\/     M anipulation  |
\*---------------------------------------------------------------------------*/
FoamFile
{
    format      ascii;
    class       volScalarField;
    location    "0.014";
    object      rho;
}
// * * * * * * * * * * * * * * * * * * * * * * * * * * * * * * * * * * * * * //

dimensions      [1 -3 0 0 0 0 0];

internalField   nonuniform List<scalar> 
10000
(
0.958096
0.958096
0.958097
0.9581
0.958105
0.958109
0.958113
0.958116
0.958117
0.958118
0.958119
0.958119
0.958119
0.958119
0.958119
0.958118
0.958118
0.958118
0.958118
0.958118
0.958118
0.958118
0.958118
0.958118
0.958118
0.958118
0.958118
0.958117
0.958117
0.958117
0.958117
0.958118
0.958118
0.958118
0.958117
0.958117
0.958117
0.958117
0.958117
0.958117
0.958116
0.958116
0.958116
0.958116
0.958116
0.958116
0.958116
0.958116
0.958115
0.958115
0.958113
0.958109
0.958096
0.958053
0.957919
0.957489
0.956088
0.953049
0.950625
0.949285
0.948753
0.948283
0.948065
0.948029
0.947934
0.947793
0.94768
0.947654
0.947612
0.947481
0.947358
0.947302
0.947285
0.947176
0.947038
0.946934
0.946919
0.946872
0.946752
0.946642
0.946603
0.94657
0.946453
0.946336
0.946263
0.94627
0.946215
0.946097
0.946002
0.945987
0.94597
0.945867
0.945769
0.945721
0.945728
0.945662
0.945564
0.945494
0.945498
0.945471
0.945384
0.94531
0.945291
0.945292
0.945229
0.94516
0.945121
0.945131
0.945098
0.945038
0.944993
0.944996
0.944988
0.944943
0.944904
0.944895
0.944901
0.944875
0.944846
0.944833
0.944841
0.944832
0.944815
0.944806
0.944814
0.944815
0.944808
0.944798
0.944782
0.944736
0.944588
0.94411
0.942807
0.941388
0.940589
0.94021
0.93995
0.939849
0.939799
0.939717
0.939649
0.939608
0.93958
0.939536
0.939498
0.939488
0.9395
0.93948
0.939424
0.939368
0.939325
0.939294
0.93927
0.939258
0.939264
0.939269
0.939243
0.939208
0.939184
0.939185
0.939179
0.939158
0.939142
0.939145
0.939148
0.939138
0.939127
0.939126
0.939131
0.939129
0.939124
0.939118
0.939107
0.939071
0.938954
0.938587
0.937419
0.935173
0.93349
0.932591
0.932071
0.931816
0.931645
0.93151
0.931432
0.931387
0.931327
0.931263
0.931213
0.93118
0.931138
0.931082
0.93103
0.930994
0.930963
0.930917
0.930869
0.930833
0.930809
0.930778
0.930739
0.930707
0.930689
0.930672
0.930645
0.930622
0.930611
0.930609
0.930595
0.93058
0.930572
0.930578
0.930575
0.930564
0.930546
0.930503
0.930375
0.929958
0.928904
0.927874
0.927338
0.927014
0.926868
0.926788
0.926714
0.926668
0.926646
0.926618
0.92658
0.926548
0.92653
0.926515
0.926489
0.926466
0.926454
0.92645
0.926437
0.926423
0.926414
0.926418
0.926413
0.926406
0.926403
0.926402
0.926395
0.926366
0.926274
0.925994
0.925142
0.923916
0.923173
0.922726
0.922582
0.922468
0.922363
0.922304
0.922311
0.922282
0.922215
0.922163
0.922159
0.922165
0.922128
0.922091
0.922083
0.9221
0.922095
0.922075
0.922052
0.922011
0.921888
0.921475
0.920636
0.919971
0.91969
0.919461
0.919352
0.919336
0.919303
0.919242
0.919194
0.919188
0.919189
0.919149
0.919111
0.919096
0.91911
0.919099
0.919079
0.91907
0.91907
0.919054
0.918989
0.918788
0.918179
0.917112
0.916394
0.915935
0.915769
0.915675
0.91557
0.915506
0.915505
0.91549
0.915431
0.915379
0.91536
0.915372
0.915343
0.915304
0.915283
0.915295
0.915293
0.915274
0.915263
0.915265
0.915268
0.915255
0.915216
0.91511
0.914794
0.913926
0.912962
0.912363
0.91213
0.911948
0.911837
0.911803
0.911795
0.911743
0.911687
0.911652
0.91166
0.911639
0.91159
0.911553
0.91155
0.911555
0.911528
0.911501
0.91149
0.911502
0.911496
0.911484
0.911481
0.911482
0.91148
0.911463
0.911416
0.911285
0.910886
0.909757
0.908398
0.907551
0.907204
0.906931
0.906789
0.906761
0.906733
0.906658
0.906594
0.906569
0.906578
0.906536
0.906477
0.906434
0.906438
0.906431
0.906385
0.906344
0.906324
0.906334
0.906313
0.906278
0.906253
0.906256
0.906256
0.906236
0.906217
0.906212
0.90622
0.906216
0.906206
0.906204
0.906206
0.906205
0.906196
0.90617
0.906103
0.905901
0.905257
0.903757
0.90243
0.90166
0.901387
0.90114
0.901001
0.90097
0.900973
0.900904
0.900834
0.9008
0.900822
0.900806
0.90076
0.900727
0.900727
0.900735
0.900714
0.90069
0.900681
0.900692
0.90069
0.900679
0.900672
0.900667
0.900652
0.900597
0.90042
0.899875
0.89887
0.898146
0.897718
0.897524
0.897424
0.897333
0.897283
0.897271
0.89725
0.897205
0.897165
0.897146
0.897147
0.897121
0.897083
0.897056
0.897059
0.897058
0.897036
0.897016
0.897013
0.897023
0.897021
0.897009
0.896996
0.896973
0.89691
0.896702
0.896043
0.894788
0.893835
0.893399
0.893064
0.892917
0.892898
0.892842
0.892757
0.892696
0.892694
0.892695
0.892645
0.892595
0.892573
0.892591
0.89258
0.89255
0.892533
0.892541
0.89255
0.892538
0.89252
0.892491
0.892423
0.892212
0.891551
0.890505
0.88978
0.889475
0.889238
0.889104
0.889069
0.889057
0.888992
0.888928
0.88889
0.888904
0.888882
0.888829
0.88879
0.888785
0.888795
0.888772
0.888744
0.888733
0.888747
0.888749
0.888735
0.888715
0.888685
0.88861
0.88837
0.887638
0.886559
0.885845
0.885555
0.885311
0.885181
0.885153
0.885143
0.885074
0.885008
0.884972
0.884991
0.884971
0.884922
0.884887
0.884886
0.884897
0.88488
0.884857
0.88485
0.884858
0.884856
0.884836
0.884789
0.884669
0.884312
0.883453
0.882647
0.88214
0.881958
0.881844
0.881733
0.881667
0.881677
0.881665
0.881614
0.881573
0.881568
0.881588
0.881579
0.881552
0.881518
0.881456
0.881278
0.880762
0.880118
0.879694
0.879541
0.879433
0.87933
0.879268
0.879276
0.879262
0.87921
0.879169
0.879161
0.87918
0.879171
0.879145
0.879125
0.879106
0.879053
0.878869
0.87832
0.877506
0.876973
0.876733
0.876528
0.876413
0.876386
0.876367
0.876307
0.876254
0.876227
0.87624
0.876218
0.876181
0.87616
0.87617
0.876176
0.876161
0.876136
0.876096
0.876006
0.875731
0.875004
0.874185
0.873721
0.873455
0.87332
0.873254
0.873186
0.873131
0.873099
0.873092
0.873065
0.873018
0.872981
0.872976
0.87299
0.872975
0.872952
0.872945
0.872943
0.872926
0.872858
0.872657
0.872091
0.871229
0.870665
0.870372
0.870155
0.870069
0.870068
0.870024
0.869959
0.86991
0.869908
0.869913
0.869878
0.869838
0.86982
0.869838
0.869841
0.869822
0.869793
0.869748
0.869645
0.869319
0.868567
0.86787
0.867466
0.867313
0.867181
0.867087
0.867046
0.867055
0.867024
0.866974
0.866938
0.86694
0.866945
0.866926
0.866902
0.866887
0.866866
0.866791
0.866541
0.865921
0.86528
0.864963
0.864737
0.864608
0.864573
0.864554
0.864494
0.864441
0.864413
0.864431
0.864416
0.864385
0.864368
0.864366
0.864361
0.864319
0.864192
0.863839
0.863101
0.862465
0.862122
0.861868
0.861762
0.861751
0.861697
0.861626
0.861573
0.861571
0.861572
0.861528
0.861482
0.861457
0.861473
0.861469
0.861446
0.86143
0.861424
0.861418
0.861383
0.861265
0.860925
0.860111
0.859283
0.858827
0.858504
0.858353
0.858316
0.858253
0.858182
0.858132
0.858133
0.858123
0.858075
0.85803
0.858007
0.85802
0.858005
0.857978
0.857963
0.857969
0.85797
0.857953
0.857915
0.857829
0.857598
0.856945
0.856049
0.855431
0.855143
0.85499
0.854854
0.854783
0.854781
0.854757
0.854696
0.854645
0.85462
0.854635
0.854613
0.85457
0.85454
0.854541
0.854551
0.854541
0.854523
0.854509
0.854498
0.854459
0.854321
0.853896
0.853015
0.852264
0.851889
0.851621
0.851468
0.851426
0.851413
0.851352
0.851293
0.851255
0.851266
0.85125
0.851204
0.851168
0.851158
0.851175
0.851164
0.85114
0.851128
0.851125
0.851114
0.851067
0.850921
0.850494
0.849643
0.848953
0.848567
0.848316
0.848219
0.848175
0.848106
0.848053
0.848027
0.848032
0.847999
0.847952
0.847917
0.847917
0.847922
0.847901
0.847877
0.847872
0.847878
0.847871
0.847844
0.847779
0.847617
0.847151
0.846271
0.845583
0.845146
0.84495
0.844884
0.844792
0.844717
0.844671
0.84468
0.844661
0.844605
0.844554
0.844525
0.84454
0.844528
0.84449
0.844459
0.84445
0.844466
0.844462
0.844445
0.844432
0.844421
0.844398
0.844321
0.844074
0.843379
0.842343
0.841637
0.841289
0.841044
0.840899
0.840852
0.840847
0.840793
0.840726
0.840676
0.840671
0.840677
0.840637
0.840586
0.840551
0.840553
0.840562
0.840541
0.840512
0.8405
0.840511
0.840517
0.840501
0.840466
0.840393
0.840214
0.839689
0.838747
0.838017
0.837564
0.837366
0.837282
0.837171
0.837095
0.83706
0.837073
0.837041
0.836982
0.836936
0.836919
0.83693
0.836905
0.836866
0.83684
0.836845
0.836852
0.836841
0.836822
0.836812
0.836802
0.836768
0.836653
0.836312
0.835503
0.834675
0.83421
0.833897
0.833746
0.8337
0.833634
0.833569
0.833524
0.833525
0.833512
0.833466
0.833424
0.833403
0.833417
0.833406
0.833381
0.833365
0.833364
0.833367
0.833346
0.833281
0.833112
0.832648
0.831858
0.83128
0.830899
0.830711
0.830657
0.830586
0.830511
0.830458
0.830457
0.830455
0.830413
0.83037
0.830349
0.830366
0.830363
0.83034
0.830318
0.830299
0.830262
0.830143
0.829769
0.82904
0.828428
0.828127
0.827935
0.82779
0.827723
0.82772
0.827681
0.827617
0.827566
0.827548
0.827557
0.827524
0.827478
0.827447
0.827452
0.827457
0.82744
0.827417
0.827409
0.82741
0.827393
0.82733
0.827145
0.826634
0.825682
0.824925
0.824484
0.824195
0.824074
0.824032
0.823956
0.823888
0.823841
0.823846
0.823823
0.823766
0.823716
0.823689
0.823702
0.823686
0.823649
0.823622
0.823622
0.823638
0.823631
0.823609
0.823585
0.823547
0.823455
0.823169
0.822434
0.821593
0.821066
0.820827
0.820651
0.820525
0.820466
0.820462
0.820421
0.820358
0.820308
0.820291
0.820297
0.820263
0.82022
0.82019
0.820198
0.820196
0.820173
0.820149
0.820145
0.820152
0.820144
0.820109
0.820017
0.819775
0.819129
0.818263
0.817688
0.817314
0.817138
0.817086
0.817011
0.816938
0.816887
0.816894
0.816896
0.816863
0.816821
0.816806
0.816809
0.816797
0.816742
0.816587
0.816276
0.816004
0.815891
0.815786
0.815701
0.815649
0.815661
0.815657
0.815623
0.815584
0.815542
0.815462
0.815238
0.814642
0.813932
0.81345
0.813247
0.813168
0.813045
0.812945
0.812883
0.812905
0.812899
0.812854
0.812801
0.812779
0.812771
0.812708
0.81251
0.812257
0.812074
0.812
0.812008
0.811965
0.811904
0.811863
0.811847
0.811844
0.811766
0.811502
0.810889
0.810236
0.809866
0.809717
0.809556
0.809425
0.809348
0.809358
0.809332
0.809266
0.809215
0.809202
0.809212
0.809187
0.809141
0.809071
0.808913
0.80853
0.8081
0.807766
0.8076
0.807569
0.807519
0.807443
0.807387
0.807381
0.807382
0.807349
0.80731
0.807265
0.807181
0.806947
0.806446
0.805977
0.8057
0.805613
0.805553
0.805477
0.805425
0.805433
0.805425
0.805362
0.805238
0.804981
0.804655
0.804479
0.804326
0.80421
0.804158
0.804163
0.804125
0.804064
0.803976
0.803823
0.803529
0.803226
0.803005
0.802912
0.802881
0.802797
0.802702
0.802636
0.802628
0.802667
0.802649
0.802589
0.802506
0.802354
0.801999
0.801432
0.800988
0.800662
0.800513
0.800502
0.800435
0.800332
0.800253
0.800224
0.800258
0.800239
0.800187
0.800145
0.800111
0.800043
0.799834
0.799428
0.79905
0.798833
0.798744
0.798642
0.798515
0.798397
0.798309
0.798233
0.798115
0.797966
0.797814
0.797683
0.797568
0.797429
0.797269
0.797114
0.796977
0.796844
0.796713
0.796599
0.796516
0.796438
0.79631
0.796138
0.795952
0.795785
0.795649
0.795502
0.795336
0.795197
0.795109
0.79508
0.794993
0.794829
0.794646
0.794476
0.794356
0.794246
0.794087
0.793918
0.793782
0.793713
0.793647
0.793504
0.79333
0.793167
0.793051
0.792969
0.792838
0.792668
0.792508
0.79239
0.792315
0.792207
0.792049
0.791884
0.791742
0.791631
0.791513
0.791371
0.791228
0.791106
0.791013
0.790911
0.790763
0.790587
0.790415
0.790266
0.790158
0.790082
0.789991
0.789851
0.789686
0.789523
0.789381
0.789268
0.789156
0.78902
0.788879
0.788765
0.788706
0.788608
0.788411
0.788197
0.788005
0.787856
0.787849
0.787858
0.787697
0.787474
0.787269
0.787099
0.787002
0.786926
0.786823
0.786708
0.786601
0.78648
0.786318
0.78614
0.785968
0.785822
0.785722
0.785649
0.785556
0.785429
0.785285
0.785137
0.784988
0.784836
0.784684
0.784541
0.784426
0.784356
0.78432
0.784224
0.784035
0.783833
0.783642
0.783485
0.783393
0.783346
0.783229
0.783051
0.782874
0.782727
0.782632
0.78255
0.782454
0.782359
0.782268
0.782107
0.781898
0.781683
0.781489
0.781334
0.781321
0.781386
0.781293
0.78108
0.780864
0.780681
0.780577
0.780449
0.780249
0.780058
0.779911
0.779919
0.779981
0.77986
0.779636
0.779393
0.779187
0.779009
0.778887
0.778784
0.77868
0.778609
0.778622
0.778579
0.778386
0.778155
0.777939
0.777741
0.777567
0.777439
0.777386
0.777421
0.777436
0.777275
0.77704
0.776771
0.776548
0.776351
0.776194
0.776125
0.776179
0.77627
0.776231
0.776033
0.775777
0.77548
0.775252
0.775078
0.775002
0.775072
0.775064
0.774872
0.774614
0.774365
0.774188
0.774119
0.774193
0.774156
0.773951
0.773672
0.773409
0.773231
0.773171
0.773268
0.773329
0.773171
0.772919
0.772595
0.772356
0.772185
0.77214
0.772231
0.772219
0.772024
0.771757
0.771488
0.771305
0.771216
0.771288
0.771346
0.771193
0.770948
0.770655
0.770446
0.770292
0.770292
0.77037
0.770261
0.770034
0.76974
0.76951
0.769344
0.76933
0.769454
0.769483
0.769307
0.769049
0.768702
0.768432
0.768246
0.768106
0.768152
0.768341
0.768424
0.768278
0.768035
0.767681
0.767332
0.767108
0.766938
0.766872
0.76699
0.767156
0.7671
0.766892
0.766598
0.766224
0.76596
0.765775
0.765633
0.765673
0.765874
0.765994
0.765881
0.765657
0.765354
0.765033
0.764801
0.764599
0.764402
0.764226
0.764091
0.764124
0.764317
0.76445
0.764346
0.764122
0.763802
0.763415
0.763158
0.762977
0.762851
0.762899
0.763025
0.762968
0.762765
0.762502
0.762283
0.762122
0.762113
0.762227
0.762191
0.761987
0.761686
0.761301
0.761046
0.760874
0.760808
0.76095
0.761183
0.761189
0.761
0.760729
0.760307
0.759927
0.759698
0.759526
0.759428
0.759535
0.759809
0.759926
0.759799
0.759565
0.759219
0.758804
0.758541
0.75836
0.758225
0.758268
0.758425
0.75844
0.758264
0.75802
0.757764
0.757582
0.757462
0.757502
0.757487
0.757297
0.757027
0.756707
0.756491
0.756329
0.756316
0.756466
0.756567
0.75644
0.756213
0.755902
0.755631
0.755444
0.755305
0.755315
0.755365
0.755234
0.755017
0.754806
0.75464
0.754601
0.754561
0.75438
0.754176
0.754009
0.753964
0.753971
0.753805
0.753562
0.753303
0.753126
0.753035
0.753132
0.753282
0.753217
0.753014
0.752738
0.752411
0.752171
0.751974
0.751803
0.751679
0.751724
0.751871
0.751859
0.751673
0.751418
0.75113
0.75093
0.750777
0.750761
0.75083
0.750724
0.750509
0.750244
0.750037
0.749881
0.749858
0.749917
0.749802
0.749588
0.749358
0.749186
0.74911
0.749185
0.749161
0.748966
0.748678
0.74829
0.748028
0.747857
0.747771
0.747902
0.74821
0.748321
0.748188
0.747952
0.747585
0.747108
0.746819
0.746638
0.746503
0.746555
0.746792
0.746931
0.746818
0.746592
0.746246
0.745812
0.745547
0.745375
0.745274
0.745383
0.745644
0.745722
0.745572
0.74533
0.744947
0.744526
0.744283
0.744115
0.744028
0.744148
0.744413
0.744487
0.744339
0.744105
0.743755
0.743341
0.743078
0.742882
0.742713
0.742585
0.742632
0.742879
0.743076
0.743009
0.742805
0.742512
0.742062
0.7417
0.741486
0.741322
0.741241
0.741361
0.741605
0.741643
0.741476
0.741228
0.740853
0.740527
0.740335
0.740189
0.740212
0.740406
0.740513
0.740385
0.740158
0.739816
0.73946
0.739246
0.739088
0.739055
0.739184
0.739274
0.739144
0.738922
0.738624
0.73838
0.738213
0.738129
0.738203
0.738242
0.738085
0.737844
0.737519
0.737274
0.737108
0.737041
0.73715
0.737284
0.737193
0.736987
0.736701
0.736424
0.736238
0.736093
0.736088
0.736153
0.736042
0.735833
0.735584
0.735393
0.735246
0.735239
0.735287
0.735162
0.734953
0.734737
0.734573
0.734503
0.734538
0.734417
0.734204
0.733956
0.733776
0.733647
0.733677
0.733733
0.733598
0.733378
0.733114
0.732926
0.732789
0.732813
0.732914
0.73282
0.732608
0.732285
0.731919
0.731701
0.731544
0.731516
0.731684
0.731864
0.731792
0.731591
0.731299
0.730943
0.730714
0.730553
0.730496
0.730615
0.730745
0.730644
0.730433
0.730121
0.729785
0.72958
0.729426
0.729413
0.729567
0.729666
0.729537
0.729315
0.728981
0.728639
0.72843
0.728274
0.728232
0.728366
0.728503
0.728416
0.728221
0.727979
0.72777
0.727593
0.727455
0.727331
0.727159
0.726974
0.726813
0.726724
0.726794
0.726858
0.726719
0.726491
0.726153
0.725858
0.725683
0.725563
0.725641
0.725929
0.72609
0.725987
0.725774
0.725449
0.724924
0.724523
0.724305
0.724141
0.724032
0.724111
0.724376
0.724511
0.724402
0.724194
0.723899
0.723598
0.723404
0.723252
0.723221
0.723316
0.723274
0.723086
0.722817
0.722509
0.722315
0.722171
0.722186
0.72238
0.72249
0.722365
0.722145
0.721802
0.721386
0.721139
0.720974
0.720866
0.720944
0.721156
0.721195
0.721039
0.720814
0.720522
0.720294
0.720129
0.72002
0.720057
0.720007
0.719825
0.719586
0.719378
0.719225
0.719202
0.71933
0.719352
0.719184
0.718937
0.718549
0.71823
0.718047
0.71791
0.717941
0.718179
0.718355
0.718267
0.718065
0.717763
0.71732
0.717019
0.716839
0.716699
0.716714
0.716925
0.717089
0.716999
0.716798
0.716502
0.716101
0.715838
0.71567
0.715545
0.715592
0.715775
0.715801
0.715639
0.715406
0.715078
0.714823
0.714658
0.714553
0.714625
0.714775
0.714716
0.714524
0.714243
0.713865
0.713616
0.713454
0.713358
0.713459
0.713694
0.713726
0.713565
0.713332
0.712964
0.712617
0.712414
0.712262
0.712211
0.712342
0.71251
0.712444
0.712255
0.711994
0.711673
0.711453
0.711287
0.711162
0.711175
0.711195
0.711055
0.710867
0.710707
0.710621
0.710685
0.710646
0.710465
0.710207
0.70991
0.709718
0.709571
0.709557
0.709685
0.7097
0.709537
0.709308
0.709005
0.708781
0.708624
0.708542
0.708629
0.708744
0.70865
0.708454
0.708183
0.707866
0.707648
0.707472
0.707322
0.707252
0.70737
0.707607
0.707628
0.707466
0.707236
0.706867
0.70644
0.706196
0.706028
0.705892
0.705907
0.706109
0.706253
0.706156
0.705957
0.705666
0.705324
0.705109
0.704954
0.704892
0.705026
0.705239
0.705207
0.705027
0.704766
0.704328
0.703911
0.703689
0.703532
0.703433
0.70353
0.703878
0.704109
0.704045
0.703856
0.703579
0.703093
0.70258
0.702323
0.702156
0.702024
0.702047
0.702309
0.702594
0.70258
0.702408
0.702166
0.701767
0.701375
0.70116
0.701005
0.700921
0.701031
0.701283
0.701322
0.701168
0.700943
0.700583
0.700219
0.700012
0.699861
0.699802
0.699943
0.700185
0.700176
0.700005
0.69976
0.699344
0.698909
0.698679
0.698522
0.698419
0.698504
0.698832
0.699053
0.698988
0.698804
0.69854
0.698096
0.69764
0.6974
0.697225
0.697076
0.696996
0.697109
0.697441
0.69761
0.697525
0.697337
0.697079
0.696699
0.696397
0.696203
0.69603
0.695858
0.695687
0.695531
0.695408
0.69544
0.695663
0.695821
0.69573
0.695538
0.695258
0.694842
0.694554
0.69438
0.694241
0.694236
0.694423
0.694583
0.694497
0.694307
0.694033
0.69366
0.693412
0.69325
0.693124
0.693156
0.693326
0.693349
0.693196
0.692981
0.69268
0.692437
0.692272
0.692142
0.692151
0.692256
0.692194
0.692017
0.691786
0.691565
0.691404
0.691283
0.691303
0.691316
0.691171
0.690969
0.690756
0.690596
0.690485
0.690509
0.690442
0.690265
0.690032
0.689824
0.689672
0.689601
0.68969
0.689755
0.689625
0.689424
0.689138
0.688884
0.688714
0.688576
0.688557
0.688658
0.688626
0.688462
0.688263
0.688091
0.687956
0.687949
0.68799
0.687863
0.687658
0.687348
0.687033
0.686838
0.686689
0.686599
0.686686
0.686877
0.686862
0.686696
0.68647
0.686156
0.68592
0.685763
0.685649
0.685697
0.685847
0.685807
0.685635
0.68539
0.685051
0.684812
0.684655
0.684548
0.684614
0.684808
0.684811
0.68465
0.684423
0.684056
0.683721
0.683531
0.683387
0.683338
0.683484
0.683697
0.683659
0.683488
0.683245
0.682858
0.682536
0.682352
0.68221
0.682169
0.682326
0.68255
0.682517
0.682348
0.68211
0.681732
0.681411
0.681226
0.681084
0.681038
0.681183
0.681377
0.681324
0.681149
0.6809
0.680503
0.680181
0.679996
0.679853
0.679802
0.67994
0.680141
0.680098
0.679927
0.679688
0.679338
0.679076
0.678913
0.678784
0.678803
0.679004
0.679114
0.679001
0.678806
0.67851
0.678099
0.67784
0.677675
0.677542
0.677538
0.677723
0.677876
0.67779
0.677609
0.677356
0.677022
0.676796
0.676637
0.676504
0.676492
0.676604
0.676584
0.676425
0.676218
0.676001
0.675839
0.675707
0.675696
0.675745
0.675639
0.675462
0.675266
0.675097
0.674942
0.674804
0.674651
0.674489
0.674337
0.674212
0.674217
0.674337
0.674301
0.674136
0.673908
0.673614
0.673409
0.673263
0.673186
0.673284
0.673448
0.673391
0.673219
0.672979
0.672633
0.672379
0.672211
0.672074
0.672033
0.67213
0.672133
0.671981
0.67178
0.67155
0.671384
0.671252
0.671246
0.671362
0.671323
0.671157
0.670926
0.670611
0.670391
0.67024
0.670132
0.670184
0.67035
0.670331
0.670172
0.669961
0.66969
0.66949
0.66934
0.669232
0.66926
0.669218
0.669053
0.668821
0.668525
0.668327
0.668184
0.668123
0.668254
0.668481
0.668462
0.668302
0.66808
0.667726
0.667403
0.667216
0.667074
0.667
0.667098
0.667257
0.667196
0.667024
0.666782
0.666434
0.666187
0.666031
0.665908
0.665935
0.666156
0.666285
0.666183
0.665998
0.66572
0.665288
0.664988
0.664814
0.664676
0.664623
0.664767
0.665032
0.665046
0.664898
0.664694
0.664373
0.664041
0.663847
0.663701
0.663604
0.663662
0.663782
0.663705
0.66353
0.663276
0.662915
0.662675
0.662523
0.662406
0.662448
0.662702
0.662862
0.662773
0.662594
0.662329
0.661891
0.661543
0.661356
0.661215
0.661137
0.661248
0.661552
0.661648
0.66153
0.66134
0.661048
0.660589
0.660278
0.660102
0.659963
0.659902
0.660038
0.660346
0.660412
0.660284
0.66009
0.659785
0.659331
0.659043
0.658873
0.658738
0.658687
0.658841
0.659161
0.659223
0.659095
0.658901
0.658598
0.65809
0.657711
0.657516
0.657364
0.657234
0.657212
0.657408
0.657747
0.657799
0.657669
0.657477
0.657184
0.656765
0.656501
0.656335
0.656199
0.656144
0.656278
0.65653
0.656538
0.65639
0.656189
0.655863
0.655418
0.655154
0.654985
0.654841
0.654725
0.65475
0.654984
0.655174
0.655106
0.654939
0.654706
0.654329
0.654002
0.65382
0.653681
0.653595
0.653689
0.653945
0.653995
0.653862
0.653668
0.653357
0.652907
0.652636
0.652472
0.652339
0.652299
0.652467
0.652789
0.652839
0.652709
0.652518
0.652223
0.651768
0.651467
0.651292
0.651149
0.651039
0.651076
0.651278
0.651355
0.651239
0.651064
0.650843
0.650652
0.650508
0.650397
0.650417
0.650381
0.650225
0.650006
0.649685
0.649449
0.649301
0.649186
0.649223
0.649458
0.649578
0.649474
0.649296
0.649028
0.648604
0.648305
0.648135
0.648
0.647938
0.64807
0.648373
0.648435
0.648309
0.648121
0.647828
0.647354
0.647026
0.646847
0.646706
0.646604
0.646658
0.646925
0.647085
0.647003
0.646836
0.646609
0.646291
0.646064
0.645908
0.645776
0.645725
0.6458
0.645764
0.645609
0.645392
0.645068
0.644823
0.64467
0.644548
0.644553
0.644773
0.644974
0.644913
0.644751
0.644526
0.644149
0.643789
0.643596
0.643453
0.643339
0.643365
0.643578
0.643692
0.643591
0.643419
0.643173
0.642825
0.642591
0.642434
0.642304
0.642255
0.642371
0.642489
0.642401
0.642235
0.642011
0.641746
0.641565
0.641421
0.641305
0.641304
0.641326
0.641204
0.641032
0.640844
0.640697
0.640581
0.640594
0.640675
0.640587
0.640416
0.640165
0.639824
0.639609
0.639465
0.639355
0.639396
0.639654
0.639823
0.639741
0.639575
0.639334
0.638899
0.638414
0.638179
0.638022
0.637891
0.637828
0.637956
0.638323
0.638479
0.638392
0.638226
0.637994
0.637605
0.637249
0.637061
0.636917
0.636798
0.636799
0.636981
0.63709
0.63699
0.63682
0.636577
0.636233
0.636005
0.635854
0.635728
0.635702
0.635858
0.636002
0.635922
0.635759
0.635533
0.635182
0.634909
0.634743
0.634607
0.634508
0.634555
0.634712
0.634687
0.634542
0.634355
0.634126
0.633954
0.633817
0.633716
0.633749
0.633771
0.633646
0.633471
0.633237
0.633043
0.632899
0.632781
0.632775
0.63284
0.632752
0.632592
0.632387
0.632196
0.632052
0.631934
0.631928
0.631909
0.631768
0.63158
0.631342
0.631168
0.631036
0.630971
0.631081
0.631246
0.631187
0.631031
0.630811
0.630442
0.630105
0.629924
0.629788
0.62969
0.629748
0.630024
0.630176
0.63009
0.629927
0.629698
0.629307
0.628945
0.628757
0.628614
0.628492
0.628477
0.628639
0.628761
0.628672
0.62851
0.628286
0.627982
0.627777
0.627633
0.627512
0.627502
0.627654
0.627719
0.627604
0.627432
0.627178
0.626856
0.626658
0.626515
0.626395
0.626386
0.62654
0.626614
0.626503
0.626336
0.626102
0.625832
0.625657
0.625517
0.625403
0.625397
0.625468
0.625388
0.625232
0.625027
0.624821
0.624672
0.624549
0.62452
0.624621
0.624601
0.624459
0.624267
0.623983
0.62375
0.623599
0.623474
0.623433
0.623562
0.623687
0.623603
0.623445
0.623228
0.622909
0.622673
0.622517
0.622383
0.622277
0.622293
0.622384
0.622316
0.622167
0.621991
0.621832
0.621702
0.621625
0.621668
0.621619
0.621471
0.621273
0.621014
0.620831
0.620694
0.620587
0.620606
0.620704
0.620636
0.620483
0.620278
0.620032
0.619862
0.619732
0.619647
0.619718
0.619879
0.619838
0.619692
0.619495
0.619175
0.618843
0.618659
0.618516
0.618392
0.618338
0.61844
0.618547
0.618463
0.618311
0.618124
0.617949
0.617811
0.617697
0.617692
0.617684
0.617551
0.617375
0.617115
0.616892
0.616744
0.616623
0.616589
0.616725
0.616835
0.616746
0.61659
0.616378
0.616108
0.615923
0.615781
0.615658
0.615609
0.615672
0.615625
0.615482
0.615298
0.615096
0.614945
0.614821
0.614767
0.614847
0.614839
0.614703
0.614522
0.614244
0.613995
0.61384
0.613713
0.613649
0.613755
0.613961
0.61394
0.613802
0.613621
0.613334
0.612983
0.61278
0.612634
0.612502
0.612396
0.612404
0.612514
0.612472
0.612333
0.612167
0.612011
0.611881
0.611789
0.611822
0.611791
0.611652
0.611468
0.611212
0.611018
0.61088
0.610767
0.610765
0.610905
0.610913
0.610782
0.61061
0.610346
0.610073
0.609908
0.609778
0.609678
0.60971
0.609868
0.609856
0.60972
0.609544
0.609273
0.609006
0.608843
0.608713
0.608611
0.608639
0.608792
0.608778
0.608643
0.608468
0.608204
0.607948
0.607789
0.60766
0.607558
0.607584
0.607738
0.607732
0.6076
0.607433
0.607218
0.607045
0.606907
0.606786
0.60671
0.606599
0.606454
0.606277
0.606033
0.605839
0.605702
0.60559
0.605589
0.605798
0.605999
0.605945
0.605801
0.605609
0.605287
0.60492
0.604725
0.604584
0.604464
0.604413
0.604534
0.604736
0.604705
0.604568
0.604389
0.604105
0.603802
0.60363
0.603497
0.603388
0.603391
0.603589
0.603725
0.603643
0.603492
0.603282
0.602904
0.602439
0.602208
0.602059
0.60193
0.601826
0.601838
0.602085
0.602393
0.602393
0.602265
0.602098
0.60184
0.601429
0.601146
0.600988
0.600856
0.600745
0.600733
0.60092
0.601119
0.60107
0.60093
0.600749
0.600458
0.600091
0.599883
0.599739
0.599608
0.599497
0.599478
0.599607
0.599652
0.599542
0.599392
0.599215
0.599062
0.598935
0.598837
0.598841
0.598776
0.598633
0.598447
0.598214
0.59805
0.597922
0.597824
0.597852
0.59799
0.597957
0.597822
0.597648
0.597387
0.59715
0.596999
0.596871
0.596767
0.596777
0.596926
0.59694
0.59682
0.596669
0.59648
0.59629
0.596139
0.595996
0.595851
0.595692
0.595497
0.595324
0.595185
0.595061
0.594969
0.595011
0.595221
0.595275
0.595165
0.595008
0.594781
0.594433
0.594195
0.594048
0.593924
0.593835
0.59389
0.594124
0.594195
0.59409
0.593937
0.593722
0.593381
0.593124
0.592973
0.592844
0.592736
0.592729
0.592884
0.592953
0.592851
0.592701
0.592495
0.592198
0.591988
0.591844
0.591716
0.591606
0.591582
0.591641
0.591572
0.591434
0.591274
0.591129
0.591008
0.590932
0.590999
0.591081
0.590991
0.590842
0.590632
0.590289
0.59002
0.589867
0.589741
0.589637
0.589647
0.58983
0.58991
0.589811
0.589663
0.589462
0.589183
0.58899
0.588851
0.588731
0.588649
0.5887
0.588773
0.588685
0.588539
0.588344
0.588099
0.587932
0.587804
0.587697
0.587692
0.587846
0.587893
0.587783
0.587628
0.587403
0.587038
0.586773
0.586622
0.586494
0.586384
0.586362
0.586537
0.586788
0.586774
0.586649
0.586491
0.586258
0.585894
0.585633
0.585479
0.585345
0.585213
0.585082
0.584952
0.584836
0.584757
0.584821
0.585077
0.585168
0.585073
0.584928
0.584731
0.584393
0.584049
0.583871
0.583736
0.583619
0.583541
0.583611
0.583818
0.583829
0.58371
0.583557
0.583335
0.583059
0.582885
0.582752
0.582635
0.582561
0.58262
0.582655
0.582548
0.582399
0.582187
0.581935
0.581775
0.58165
0.581548
0.58156
0.581756
0.581851
0.581758
0.581612
0.581405
0.581025
0.5806
0.580397
0.58026
0.580142
0.580061
0.580127
0.580447
0.580659
0.580605
0.580473
0.580302
0.580024
0.579595
0.579336
0.579187
0.57906
0.578949
0.578908
0.579041
0.579245
0.579214
0.579087
0.578928
0.578688
0.578407
0.578238
0.578108
0.577993
0.577927
0.578012
0.578164
0.578117
0.577986
0.577823
0.577571
0.577259
0.577074
0.576938
0.576809
0.57668
0.576551
0.576423
0.576305
0.576212
0.576232
0.576421
0.576494
0.576398
0.576257
0.576077
0.575837
0.575662
0.575529
0.575409
0.575313
0.575322
0.575334
0.575225
0.575079
0.574877
0.574671
0.574531
0.574412
0.574326
0.574368
0.574499
0.574454
0.574324
0.574157
0.573889
0.573586
0.573417
0.573288
0.573176
0.57312
0.573223
0.573403
0.573368
0.573241
0.573083
0.572843
0.572559
0.572391
0.572261
0.572146
0.572067
0.572119
0.572211
0.572137
0.572002
0.571831
0.57159
0.571406
0.571274
0.571159
0.571084
0.571145
0.571239
0.571164
0.571028
0.570851
0.570576
0.570344
0.570202
0.570082
0.569984
0.56999
0.570159
0.570209
0.570106
0.569963
0.569765
0.569456
0.569226
0.569085
0.568964
0.568861
0.568845
0.568984
0.569038
0.568937
0.568796
0.568604
0.56832
0.568118
0.567983
0.567865
0.567769
0.567783
0.567939
0.567954
0.567842
0.567698
0.567496
0.567234
0.567062
0.566933
0.566816
0.566725
0.566742
0.566787
0.566696
0.56656
0.566382
0.566176
0.566032
0.565913
0.565815
0.565825
0.566006
0.566077
0.565982
0.565844
0.565659
0.565342
0.565004
0.564828
0.564697
0.564571
0.564446
0.564322
0.564204
0.564105
0.564092
0.56426
0.56442
0.564363
0.564237
0.564084
0.563868
0.563658
0.563519
0.563395
0.563285
0.563224
0.563236
0.56315
0.563015
0.562838
0.562592
0.562417
0.56229
0.56218
0.562127
0.562236
0.562446
0.562428
0.562309
0.56216
0.561933
0.561573
0.561332
0.561191
0.561069
0.560964
0.560924
0.561052
0.561226
0.561181
0.561057
0.560907
0.560682
0.56042
0.560261
0.560135
0.560021
0.559933
0.559952
0.559979
0.55988
0.559743
0.559554
0.559292
0.559115
0.558988
0.558877
0.558813
0.558897
0.559104
0.559099
0.558983
0.558838
0.558622
0.558268
0.558017
0.557875
0.557754
0.55765
0.557615
0.557754
0.557949
0.557912
0.557791
0.55764
0.55741
0.557052
0.556822
0.556685
0.556565
0.556461
0.556424
0.556557
0.556732
0.556687
0.556565
0.556415
0.556188
0.555882
0.555698
0.55557
0.555452
0.555353
0.555334
0.555466
0.555515
0.555418
0.555286
0.555115
0.554891
0.55473
0.554605
0.554491
0.554399
0.554399
0.55437
0.554253
0.554108
0.553895
0.553662
0.553518
0.553399
0.553299
0.553282
0.553453
0.553631
0.55358
0.553457
0.553305
0.553066
0.552692
0.552457
0.552319
0.552199
0.552092
0.55203
0.552111
0.552284
0.552256
0.552139
0.551999
0.551801
0.551563
0.551411
0.551288
0.551176
0.551089
0.551105
0.55116
0.551079
0.550951
0.55079
0.550571