/*--------------------------------*- C++ -*----------------------------------*\
  =========                 |
  \\      /  F ield         | OpenFOAM: The Open Source CFD Toolbox
   \\    /   O peration     | Website:  https://openfoam.org
    \\  /    A nd           | Version:  9
     \\/     M anipulation  |
\*---------------------------------------------------------------------------*/
FoamFile
{
    format      ascii;
    class       volScalarField;
    location    "0.014";
    object      T;
}
// * * * * * * * * * * * * * * * * * * * * * * * * * * * * * * * * * * * * * //

dimensions      [0 0 0 1 0 0 0];

internalField   nonuniform List<scalar> 
10000
(
342.574
342.574
342.573
342.572
342.57
342.568
342.567
342.566
342.565
342.565
342.565
342.565
342.565
342.565
342.565
342.565
342.565
342.565
342.565
342.565
342.565
342.565
342.565
342.565
342.565
342.565
342.565
342.565
342.565
342.565
342.565
342.565
342.565
342.565
342.565
342.565
342.565
342.565
342.565
342.565
342.565
342.565
342.565
342.565
342.565
342.565
342.565
342.565
342.565
342.565
342.564
342.564
342.562
342.556
342.537
342.475
342.275
341.839
341.49
341.298
341.221
341.153
341.122
341.117
341.103
341.083
341.067
341.063
341.057
341.038
341.02
341.012
341.01
340.994
340.974
340.959
340.957
340.95
340.933
340.917
340.911
340.907
340.89
340.873
340.862
340.863
340.855
340.839
340.825
340.823
340.82
340.805
340.791
340.784
340.785
340.776
340.762
340.752
340.752
340.748
340.736
340.725
340.722
340.722
340.713
340.703
340.698
340.699
340.694
340.686
340.679
340.68
340.679
340.672
340.666
340.665
340.666
340.662
340.658
340.656
340.657
340.656
340.654
340.652
340.653
340.654
340.653
340.651
340.649
340.642
340.621
340.552
340.364
340.159
340.043
339.988
339.95
339.936
339.929
339.917
339.907
339.901
339.897
339.891
339.885
339.884
339.885
339.882
339.874
339.866
339.86
339.855
339.852
339.85
339.851
339.852
339.848
339.843
339.84
339.84
339.839
339.836
339.834
339.834
339.834
339.833
339.831
339.831
339.832
339.832
339.831
339.83
339.828
339.823
339.806
339.753
339.584
339.258
339.014
338.883
338.807
338.77
338.745
338.726
338.714
338.708
338.699
338.69
338.682
338.677
338.671
338.663
338.656
338.65
338.646
338.639
338.632
338.627
338.624
338.619
338.613
338.609
338.606
338.604
338.6
338.596
338.595
338.594
338.592
338.59
338.589
338.59
338.589
338.588
338.585
338.579
338.56
338.5
338.346
338.196
338.118
338.07
338.049
338.037
338.027
338.02
338.017
338.013
338.007
338.002
338
337.997
337.994
337.99
337.989
337.988
337.986
337.984
337.983
337.983
337.983
337.982
337.981
337.981
337.98
337.976
337.962
337.921
337.797
337.618
337.509
337.444
337.423
337.406
337.39
337.382
337.383
337.379
337.369
337.361
337.361
337.361
337.356
337.351
337.349
337.352
337.351
337.348
337.345
337.339
337.321
337.261
337.138
337.04
336.999
336.965
336.949
336.947
336.942
336.933
336.926
336.925
336.925
336.92
336.914
336.912
336.914
336.912
336.909
336.908
336.908
336.906
336.896
336.867
336.777
336.62
336.515
336.448
336.423
336.409
336.394
336.384
336.384
336.382
336.373
336.366
336.363
336.365
336.36
336.355
336.352
336.353
336.353
336.35
336.349
336.349
336.35
336.348
336.342
336.326
336.28
336.152
336.01
335.922
335.888
335.861
335.844
335.839
335.838
335.83
335.822
335.817
335.818
335.815
335.808
335.802
335.802
335.803
335.799
335.795
335.793
335.795
335.794
335.792
335.792
335.792
335.792
335.789
335.782
335.763
335.704
335.538
335.337
335.212
335.16
335.12
335.099
335.095
335.091
335.08
335.07
335.066
335.068
335.062
335.053
335.047
335.047
335.046
335.039
335.033
335.03
335.032
335.029
335.023
335.02
335.02
335.02
335.017
335.014
335.014
335.015
335.014
335.013
335.012
335.013
335.013
335.011
335.008
334.997
334.968
334.872
334.65
334.453
334.339
334.299
334.262
334.241
334.237
334.237
334.227
334.217
334.212
334.215
334.212
334.206
334.201
334.201
334.202
334.199
334.195
334.194
334.196
334.195
334.194
334.192
334.192
334.19
334.181
334.155
334.074
333.925
333.817
333.753
333.725
333.71
333.696
333.689
333.687
333.684
333.677
333.671
333.668
333.669
333.665
333.659
333.655
333.655
333.655
333.652
333.649
333.649
333.65
333.65
333.648
333.646
333.643
333.633
333.602
333.504
333.317
333.175
333.11
333.06
333.038
333.035
333.027
333.014
333.005
333.005
333.005
332.997
332.99
332.987
332.989
332.988
332.983
332.981
332.982
332.983
332.981
332.979
332.974
332.964
332.933
332.834
332.678
332.569
332.524
332.488
332.468
332.463
332.461
332.451
332.442
332.436
332.438
332.435
332.427
332.421
332.42
332.422
332.418
332.414
332.413
332.415
332.415
332.413
332.41
332.405
332.394
332.358
332.249
332.087
331.98
331.936
331.9
331.88
331.876
331.875
331.864
331.854
331.849
331.852
331.849
331.841
331.836
331.836
331.838
331.835
331.832
331.831
331.832
331.831
331.828
331.821
331.803
331.75
331.621
331.5
331.424
331.396
331.379
331.362
331.352
331.354
331.352
331.344
331.338
331.337
331.34
331.339
331.335
331.33
331.321
331.294
331.216
331.119
331.055
331.032
331.016
331.001
330.991
330.992
330.99
330.982
330.976
330.975
330.978
330.977
330.973
330.97
330.967
330.959
330.931
330.848
330.726
330.645
330.609
330.578
330.561
330.557
330.554
330.545
330.537
330.533
330.535
330.531
330.526
330.522
330.524
330.525
330.523
330.519
330.513
330.499
330.458
330.348
330.224
330.154
330.114
330.093
330.083
330.073
330.065
330.06
330.059
330.055
330.048
330.042
330.041
330.043
330.041
330.038
330.037
330.036
330.034
330.023
329.993
329.907
329.777
329.691
329.647
329.614
329.601
329.601
329.594
329.584
329.577
329.577
329.577
329.572
329.566
329.563
329.566
329.566
329.564
329.559
329.552
329.537
329.487
329.373
329.267
329.206
329.183
329.163
329.149
329.142
329.144
329.139
329.131
329.126
329.126
329.127
329.124
329.12
329.118
329.115
329.103
329.065
328.971
328.874
328.826
328.791
328.772
328.766
328.763
328.754
328.746
328.742
328.745
328.742
328.738
328.735
328.735
328.734
328.727
328.708
328.654
328.542
328.445
328.393
328.354
328.338
328.336
328.328
328.317
328.309
328.309
328.309
328.302
328.295
328.291
328.294
328.293
328.29
328.287
328.286
328.285
328.28
328.262
328.21
328.086
327.96
327.89
327.841
327.818
327.812
327.802
327.791
327.784
327.784
327.782
327.775
327.768
327.765
327.767
327.764
327.76
327.758
327.759
327.759
327.756
327.751
327.737
327.702
327.602
327.465
327.37
327.326
327.303
327.282
327.271
327.271
327.267
327.258
327.25
327.246
327.248
327.245
327.239
327.234
327.234
327.236
327.234
327.231
327.229
327.228
327.222
327.2
327.135
327
326.885
326.827
326.786
326.763
326.756
326.754
326.745
326.736
326.73
326.732
326.729
326.722
326.717
326.715
326.718
326.716
326.712
326.71
326.71
326.708
326.701
326.679
326.613
326.482
326.376
326.317
326.278
326.263
326.256
326.246
326.238
326.234
326.234
326.229
326.222
326.217
326.217
326.217
326.214
326.211
326.21
326.211
326.21
326.205
326.195
326.17
326.099
325.963
325.857
325.79
325.759
325.749
325.735
325.723
325.716
325.718
325.715
325.706
325.698
325.694
325.696
325.694
325.688
325.684
325.682
325.685
325.684
325.681
325.679
325.678
325.674
325.662
325.624
325.517
325.357
325.248
325.194
325.156
325.133
325.126
325.125
325.117
325.107
325.099
325.098
325.099
325.093
325.085
325.08
325.08
325.081
325.078
325.073
325.072
325.073
325.074
325.072
325.066
325.055
325.027
324.946
324.8
324.687
324.617
324.586
324.573
324.556
324.544
324.539
324.541
324.536
324.526
324.519
324.517
324.518
324.514
324.508
324.504
324.505
324.506
324.505
324.502
324.5
324.498
324.493
324.475
324.422
324.297
324.168
324.096
324.047
324.024
324.017
324.006
323.996
323.989
323.989
323.987
323.98
323.974
323.97
323.973
323.971
323.967
323.965
323.964
323.965
323.961
323.951
323.925
323.853
323.73
323.64
323.58
323.551
323.543
323.532
323.52
323.512
323.512
323.511
323.505
323.498
323.495
323.497
323.497
323.493
323.49
323.487
323.481
323.463
323.404
323.291
323.195
323.148
323.118
323.095
323.085
323.084
323.078
323.068
323.06
323.058
323.059
323.054
323.047
323.042
323.043
323.043
323.041
323.037
323.036
323.036
323.033
323.023
322.995
322.915
322.766
322.647
322.578
322.533
322.514
322.508
322.496
322.485
322.478
322.478
322.475
322.466
322.458
322.454
322.456
322.453
322.448
322.443
322.443
322.446
322.445
322.441
322.438
322.432
322.417
322.372
322.257
322.125
322.042
322.005
321.977
321.958
321.948
321.948
321.941
321.931
321.924
321.921
321.922
321.916
321.91
321.905
321.906
321.906
321.902
321.899
321.898
321.899
321.898
321.892
321.878
321.84
321.738
321.602
321.512
321.453
321.425
321.417
321.405
321.394
321.386
321.387
321.387
321.382
321.375
321.373
321.373
321.371
321.363
321.338
321.289
321.246
321.229
321.212
321.199
321.191
321.192
321.192
321.187
321.18
321.174
321.161
321.126
321.032
320.92
320.844
320.812
320.799
320.78
320.764
320.754
320.758
320.757
320.75
320.741
320.738
320.736
320.726
320.695
320.655
320.626
320.615
320.616
320.609
320.6
320.593
320.591
320.59
320.578
320.536
320.439
320.336
320.277
320.254
320.228
320.207
320.195
320.197
320.193
320.182
320.174
320.172
320.174
320.17
320.163
320.151
320.126
320.066
319.998
319.945
319.918
319.913
319.905
319.893
319.884
319.884
319.884
319.879
319.872
319.865
319.852
319.815
319.735
319.661
319.617
319.603
319.594
319.581
319.573
319.574
319.573
319.563
319.543
319.503
319.451
319.423
319.399
319.38
319.372
319.373
319.367
319.357
319.343
319.319
319.272
319.224
319.189
319.174
319.169
319.156
319.14
319.13
319.129
319.135
319.132
319.122
319.109
319.085
319.028
318.938
318.867
318.816
318.792
318.79
318.779
318.763
318.75
318.746
318.751
318.748
318.74
318.733
318.728
318.717
318.684
318.619
318.558
318.524
318.51
318.493
318.473
318.454
318.44
318.428
318.409
318.385
318.361
318.34
318.322
318.3
318.274
318.249
318.227
318.206
318.185
318.167
318.154
318.141
318.121
318.093
318.064
318.037
318.015
317.992
317.965
317.943
317.929
317.924
317.91
317.884
317.855
317.827
317.808
317.791
317.765
317.738
317.716
317.705
317.695
317.672
317.644
317.618
317.599
317.586
317.565
317.538
317.512
317.493
317.481
317.464
317.438
317.412
317.389
317.371
317.352
317.33
317.307
317.287
317.272
317.256
317.232
317.204
317.176
317.152
317.135
317.123
317.108
317.086
317.059
317.033
317.01
316.992
316.974
316.952
316.929
316.911
316.902
316.886
316.854
316.82
316.789
316.765
316.764
316.765
316.739
316.703
316.67
316.643
316.627
316.615
316.599
316.58
316.563
316.543
316.517
316.489
316.461
316.437
316.421
316.409
316.395
316.374
316.351
316.327
316.303
316.278
316.254
316.231
316.212
316.201
316.195
316.18
316.149
316.117
316.086
316.06
316.046
316.038
316.019
315.99
315.962
315.938
315.923
315.909
315.894
315.879
315.864
315.838
315.804
315.769
315.738
315.713
315.711
315.721
315.706
315.672
315.637
315.607
315.59
315.57
315.537
315.506
315.483
315.484
315.494
315.474
315.438
315.399
315.365
315.337
315.317
315.3
315.283
315.272
315.274
315.267
315.236
315.198
315.163
315.131
315.103
315.082
315.073
315.079
315.082
315.056
315.017
314.974
314.938
314.906
314.88
314.869
314.878
314.892
314.886
314.854
314.812
314.764
314.727
314.699
314.687
314.698
314.697
314.665
314.623
314.583
314.554
314.543
314.555
314.549
314.516
314.47
314.427
314.398
314.389
314.404
314.414
314.389
314.348
314.295
314.256
314.228
314.221
314.236
314.234
314.202
314.158
314.115
314.085
314.07
314.082
314.092
314.067
314.027
313.979
313.945
313.92
313.92
313.932
313.915
313.878
313.83
313.792
313.765
313.763
313.783
313.788
313.759
313.717
313.66
313.616
313.586
313.563
313.57
313.601
313.615
313.591
313.551
313.493
313.436
313.4
313.372
313.361
313.38
313.407
313.398
313.364
313.316
313.255
313.212
313.182
313.158
313.165
313.198
313.217
313.199
313.162
313.113
313.06
313.022
312.989
312.957
312.928
312.906
312.911
312.943
312.965
312.948
312.911
312.859
312.795
312.753
312.723
312.703
312.71
312.731
312.722
312.688
312.645
312.609
312.583
312.581
312.6
312.594
312.561
312.511
312.448
312.406
312.378
312.367
312.39
312.429
312.43
312.399
312.354
312.285
312.222
312.185
312.156
312.14
312.158
312.203
312.222
312.201
312.163
312.106
312.038
311.994
311.965
311.942
311.949
311.975
311.978
311.949
311.909
311.866
311.836
311.817
311.823
311.821
311.789
311.745
311.692
311.657
311.63
311.628
311.652
311.669
311.648
311.611
311.56
311.515
311.484
311.461
311.463
311.471
311.449
311.414
311.379
311.351
311.345
311.338
311.308
311.275
311.247
311.24
311.241
311.213
311.173
311.13
311.101
311.086
311.102
311.127
311.116
311.083
311.037
310.983
310.943
310.911
310.882
310.862
310.869
310.893
310.892
310.861
310.818
310.771
310.738
310.712
310.71
310.721
310.704
310.668
310.624
310.59
310.564
310.56
310.57
310.551
310.515
310.477
310.449
310.436
310.449
310.444
310.412
310.364
310.3
310.257
310.228
310.214
310.236
310.287
310.305
310.283
310.244
310.183
310.104
310.056
310.026
310.003
310.012
310.051
310.074
310.056
310.018
309.961
309.888
309.844
309.816
309.799
309.817
309.86
309.873
309.849
309.808
309.744
309.674
309.634
309.606
309.591
309.612
309.656
309.668
309.643
309.604
309.546
309.477
309.433
309.401
309.372
309.351
309.359
309.4
309.433
309.422
309.388
309.339
309.264
309.204
309.168
309.141
309.127
309.147
309.188
309.194
309.166
309.125
309.062
309.008
308.976
308.951
308.955
308.988
309.005
308.984
308.946
308.889
308.83
308.794
308.767
308.762
308.783
308.798
308.777
308.74
308.69
308.649
308.621
308.607
308.619
308.626
308.6
308.559
308.505
308.464
308.436
308.425
308.443
308.466
308.45
308.416
308.368
308.322
308.29
308.266
308.265
308.276
308.257
308.222
308.181
308.149
308.124
308.123
308.131
308.11
308.075
308.039
308.011
307.999
308.005
307.985
307.949
307.908
307.877
307.856
307.861
307.87
307.847
307.811
307.766
307.735
307.712
307.716
307.733
307.717
307.681
307.627
307.565
307.529
307.502
307.497
307.526
307.556
307.544
307.51
307.461
307.401
307.363
307.336
307.326
307.346
307.368
307.351
307.315
307.263
307.206
307.172
307.146
307.143
307.169
307.186
307.164
307.127
307.071
307.013
306.978
306.951
306.944
306.967
306.99
306.975
306.942
306.902
306.866
306.836
306.813
306.792
306.763
306.732
306.705
306.69
306.702
306.712
306.689
306.65
306.593
306.543
306.514
306.494
306.507
306.555
306.583
306.565
306.529
306.474
306.385
306.318
306.281
306.253
306.234
306.248
306.293
306.316
306.297
306.262
306.212
306.161
306.128
306.103
306.097
306.113
306.106
306.074
306.029
305.977
305.944
305.919
305.922
305.955
305.973
305.952
305.915
305.857
305.786
305.744
305.716
305.698
305.711
305.747
305.754
305.727
305.689
305.64
305.601
305.573
305.554
305.561
305.552
305.521
305.481
305.445
305.419
305.415
305.437
305.441
305.412
305.37
305.304
305.25
305.219
305.196
305.201
305.241
305.271
305.256
305.222
305.171
305.095
305.044
305.013
304.99
304.992
305.028
305.056
305.041
305.006
304.956
304.888
304.843
304.814
304.793
304.801
304.832
304.837
304.809
304.769
304.713
304.67
304.642
304.624
304.636
304.662
304.651
304.619
304.571
304.506
304.464
304.436
304.42
304.437
304.477
304.483
304.455
304.415
304.352
304.293
304.258
304.232
304.224
304.246
304.275
304.263
304.231
304.187
304.132
304.094
304.066
304.044
304.046
304.05
304.026
303.994
303.966
303.952
303.963
303.956
303.925
303.881
303.83
303.797
303.772
303.769
303.791
303.794
303.766
303.727
303.675
303.637
303.609
303.596
303.61
303.63
303.614
303.58
303.534
303.479
303.442
303.412
303.386
303.374
303.394
303.435
303.439
303.411
303.371
303.308
303.235
303.193
303.164
303.14
303.143
303.178
303.203
303.186
303.152
303.102
303.043
303.006
302.979
302.969
302.992
303.028
303.023
302.992
302.947
302.872
302.8
302.762
302.734
302.718
302.734
302.794
302.834
302.823
302.79
302.743
302.659
302.57
302.526
302.497
302.475
302.479
302.524
302.573
302.57
302.541
302.499
302.43
302.363
302.325
302.299
302.284
302.303
302.347
302.353
302.327
302.288
302.226
302.163
302.127
302.101
302.091
302.115
302.157
302.156
302.126
302.084
302.012
301.937
301.897
301.87
301.852
301.867
301.923
301.962
301.95
301.919
301.873
301.796
301.717
301.676
301.645
301.62
301.606
301.625
301.683
301.712
301.697
301.665
301.62
301.554
301.502
301.468
301.438
301.409
301.379
301.352
301.331
301.336
301.375
301.402
301.386
301.353
301.304
301.232
301.182
301.152
301.128
301.127
301.16
301.187
301.172
301.14
301.092
301.027
300.984
300.956
300.934
300.94
300.969
300.973
300.947
300.909
300.857
300.815
300.786
300.763
300.765
300.783
300.772
300.742
300.701
300.663
300.635
300.614
300.617
300.62
300.594
300.559
300.522
300.494
300.475
300.479
300.468
300.437
300.396
300.36
300.333
300.321
300.336
300.348
300.325
300.29
300.24
300.196
300.166
300.142
300.139
300.157
300.151
300.122
300.088
300.058
300.034
300.033
300.04
300.018
299.982
299.928
299.873
299.839
299.813
299.797
299.812
299.846
299.843
299.814
299.775
299.72
299.678
299.651
299.631
299.639
299.666
299.659
299.629
299.586
299.526
299.485
299.457
299.438
299.45
299.484
299.484
299.456
299.416
299.352
299.294
299.26
299.235
299.226
299.252
299.289
299.283
299.253
299.21
299.142
299.086
299.054
299.029
299.021
299.049
299.088
299.082
299.053
299.011
298.945
298.888
298.856
298.831
298.823
298.848
298.882
298.873
298.842
298.799
298.729
298.672
298.64
298.615
298.606
298.63
298.665
298.658
298.628
298.586
298.524
298.478
298.449
298.427
298.43
298.465
298.485
298.465
298.431
298.379
298.306
298.26
298.231
298.208
298.207
298.24
298.267
298.252
298.22
298.175
298.116
298.077
298.048
298.025
298.023
298.043
298.039
298.011
297.975
297.936
297.908
297.885
297.883
297.891
297.873
297.841
297.807
297.777
297.749
297.725
297.698
297.669
297.643
297.621
297.621
297.643
297.636
297.607
297.567
297.515
297.479
297.453
297.439
297.457
297.485
297.475
297.445
297.403
297.341
297.296
297.267
297.242
297.235
297.252
297.253
297.226
297.19
297.15
297.12
297.097
297.096
297.116
297.11
297.08
297.039
296.983
296.944
296.918
296.898
296.908
296.937
296.934
296.905
296.868
296.82
296.785
296.758
296.739
296.744
296.736
296.707
296.666
296.613
296.578
296.553
296.542
296.565
296.605
296.602
296.574
296.534
296.471
296.414
296.381
296.355
296.342
296.36
296.388
296.377
296.347
296.304
296.242
296.198
296.17
296.148
296.153
296.192
296.215
296.197
296.164
296.115
296.038
295.984
295.953
295.929
295.919
295.945
295.992
295.995
295.968
295.932
295.875
295.816
295.781
295.755
295.738
295.748
295.769
295.756
295.724
295.679
295.615
295.572
295.545
295.524
295.531
295.577
295.605
295.589
295.557
295.51
295.432
295.37
295.336
295.311
295.297
295.317
295.371
295.388
295.367
295.333
295.281
295.199
295.143
295.112
295.087
295.076
295.101
295.156
295.167
295.145
295.11
295.055
294.974
294.922
294.892
294.868
294.859
294.886
294.944
294.955
294.932
294.897
294.843
294.752
294.684
294.649
294.621
294.598
294.594
294.629
294.69
294.699
294.676
294.642
294.589
294.514
294.467
294.437
294.412
294.402
294.427
294.472
294.473
294.447
294.411
294.352
294.272
294.225
294.194
294.168
294.147
294.152
294.194
294.228
294.216
294.186
294.144
294.076
294.018
293.985
293.96
293.944
293.961
294.007
294.016
293.992
293.957
293.901
293.82
293.771
293.742
293.718
293.711
293.741
293.799
293.808
293.785
293.75
293.697
293.615
293.561
293.529
293.503
293.484
293.49
293.527
293.54
293.52
293.488
293.448
293.414
293.388
293.368
293.371
293.365
293.337
293.297
293.239
293.196
293.17
293.149
293.156
293.198
293.22
293.201
293.169
293.12
293.044
292.99
292.959
292.934
292.923
292.947
293.002
293.013
292.99
292.956
292.903
292.818
292.758
292.726
292.7
292.682
292.691
292.74
292.769
292.754
292.724
292.683
292.625
292.584
292.555
292.532
292.522
292.536
292.529
292.501
292.462
292.403
292.359
292.331
292.309
292.31
292.35
292.386
292.375
292.346
292.305
292.236
292.171
292.136
292.11
292.089
292.094
292.133
292.153
292.135
292.104
292.059
291.996
291.953
291.925
291.901
291.892
291.913
291.935
291.919
291.889
291.848
291.8
291.767
291.741
291.719
291.719
291.723
291.701
291.67
291.635
291.609
291.588
291.59
291.605
291.589
291.557
291.512
291.45
291.41
291.384
291.364
291.371
291.419
291.449
291.434
291.404
291.36
291.281
291.192
291.149
291.121
291.097
291.085
291.109
291.176
291.204
291.188
291.158
291.116
291.045
290.98
290.945
290.919
290.897
290.897
290.931
290.951
290.932
290.901
290.857
290.794
290.752
290.725
290.701
290.697
290.725
290.752
290.737
290.707
290.666
290.601
290.551
290.521
290.496
290.478
290.487
290.515
290.511
290.484
290.45
290.408
290.377
290.351
290.333
290.339
290.343
290.32
290.288
290.245
290.209
290.183
290.161
290.16
290.172
290.156
290.127
290.089
290.054
290.027
290.006
290.005
290.001
289.975
289.941
289.897
289.865
289.841
289.829
289.849
289.879
289.869
289.84
289.8
289.732
289.67
289.636
289.611
289.593
289.604
289.655
289.683
289.667
289.637
289.595
289.523
289.456
289.421
289.395
289.373
289.37
289.4
289.422
289.406
289.376
289.335
289.279
289.241
289.214
289.192
289.19
289.218
289.23
289.209
289.177
289.13
289.071
289.034
289.008
288.986
288.984
289.012
289.026
289.006
288.975
288.932
288.882
288.849
288.824
288.802
288.801
288.815
288.8
288.771
288.733
288.695
288.667
288.645
288.639
288.658
288.654
288.628
288.592
288.54
288.497
288.469
288.446
288.438
288.462
288.485
288.469
288.44
288.4
288.341
288.297
288.268
288.243
288.224
288.227
288.244
288.231
288.203
288.171
288.141
288.117
288.103
288.111
288.102
288.074
288.037
287.989
287.955
287.93
287.91
287.914
287.932
287.919
287.891
287.853
287.807
287.776
287.751
287.736
287.749
287.779
287.771
287.744
287.707
287.648
287.586
287.552
287.525
287.502
287.492
287.511
287.531
287.515
287.487
287.452
287.42
287.394
287.373
287.372
287.37
287.346
287.313
287.264
287.223
287.195
287.173
287.166
287.192
287.212
287.196
287.167
287.127
287.077
287.042
287.016
286.993
286.984
286.995
286.987
286.96
286.926
286.888
286.86
286.837
286.826
286.842
286.84
286.815
286.781
286.729
286.682
286.653
286.63
286.618
286.637
286.676
286.672
286.646
286.612
286.559
286.493
286.455
286.428
286.403
286.383
286.385
286.405
286.397
286.371
286.34
286.311
286.287
286.27
286.276
286.27
286.244
286.209
286.161
286.125
286.099
286.078
286.078
286.104
286.105
286.081
286.049
285.999
285.948
285.917
285.893
285.874
285.88
285.91
285.907
285.882
285.849
285.798
285.748
285.717
285.693
285.674
285.679
285.707
285.705
285.68
285.647
285.597
285.549
285.519
285.495
285.476
285.481
285.509
285.508
285.483
285.452
285.412
285.379
285.353
285.33
285.316
285.295
285.268
285.235
285.189
285.152
285.126
285.105
285.105
285.144
285.182
285.172
285.145
285.109
285.048
284.979
284.942
284.916
284.893
284.883
284.906
284.944
284.938
284.912
284.879
284.825
284.768
284.735
284.71
284.69
284.69
284.728
284.753
284.738
284.71
284.67
284.598
284.511
284.467
284.439
284.414
284.395
284.397
284.444
284.502
284.502
284.478
284.446
284.397
284.319
284.266
284.236
284.211
284.19
284.188
284.223
284.261
284.252
284.225
284.191
284.136
284.066
284.027
283.999
283.975
283.954
283.95
283.974
283.983
283.962
283.934
283.9
283.871
283.847
283.829
283.829
283.817
283.79
283.754
283.71
283.679
283.655
283.636
283.642
283.668
283.662
283.636
283.603
283.553
283.508
283.479
283.455
283.435
283.437
283.466
283.468
283.445
283.417
283.381
283.345
283.316
283.289
283.261
283.231
283.194
283.161
283.134
283.111
283.093
283.101
283.141
283.152
283.131
283.101
283.058
282.991
282.946
282.918
282.894
282.877
282.888
282.932
282.946
282.926
282.897
282.856
282.791
282.742
282.713
282.688
282.668
282.666
282.696
282.709
282.69
282.661
282.622
282.565
282.525
282.497
282.473
282.452
282.447
282.459
282.445
282.419
282.388
282.361
282.338
282.323
282.336
282.351
282.334
282.306
282.266
282.2
282.149
282.119
282.095
282.075
282.077
282.112
282.128
282.109
282.08
282.042
281.988
281.951
281.925
281.902
281.886
281.896
281.91
281.893
281.865
281.828
281.781
281.749
281.724
281.703
281.702
281.732
281.741
281.72
281.69
281.647
281.577
281.526
281.497
281.473
281.451
281.447
281.481
281.529
281.526
281.502
281.472
281.427
281.357
281.307
281.278
281.252
281.226
281.201
281.176
281.154
281.139
281.151
281.2
281.218
281.2
281.171
281.134
281.069
281.002
280.968
280.942
280.919
280.905
280.918
280.958
280.96
280.937
280.908
280.865
280.812
280.778
280.752
280.73
280.716
280.727
280.734
280.713
280.684
280.643
280.595
280.564
280.54
280.52
280.523
280.56
280.579
280.561
280.532
280.493
280.419
280.337
280.298
280.271
280.249
280.233
280.246
280.308
280.349
280.338
280.312
280.279
280.226
280.143
280.093
280.064
280.039
280.018
280.01
280.036
280.075
280.069
280.044
280.014
279.967
279.913
279.88
279.855
279.833
279.82
279.836
279.866
279.857
279.831
279.8
279.751
279.69
279.655
279.628
279.603
279.578
279.553
279.528
279.505
279.487
279.491
279.528
279.542
279.523
279.496
279.461
279.414
279.38
279.355
279.331
279.313
279.315
279.317
279.295
279.267
279.228
279.188
279.161
279.138
279.121
279.129
279.155
279.146
279.12
279.088
279.036
278.977
278.944
278.919
278.897
278.886
278.906
278.941
278.934
278.91
278.879
278.832
278.777
278.744
278.719
278.696
278.681
278.691
278.709
278.695
278.668
278.635
278.588
278.552
278.526
278.504
278.489
278.501
278.519
278.505
278.478
278.444
278.39
278.345
278.317
278.293
278.274
278.276
278.308
278.318
278.298
278.27
278.232
278.171
278.126
278.099
278.075
278.055
278.052
278.079
278.089
278.07
278.042
278.004
277.949
277.909
277.883
277.86
277.841
277.844
277.874
277.877
277.855
277.827
277.788
277.736
277.703
277.677
277.654
277.637
277.64
277.649
277.631
277.604
277.569
277.529
277.501
277.477
277.458
277.46
277.495
277.509
277.491
277.464
277.427
277.365
277.299
277.264
277.238
277.214
277.189
277.165
277.142
277.122
277.12
277.152
277.184
277.173
277.148
277.118
277.075
277.034
277.007
276.982
276.961
276.949
276.951
276.934
276.908
276.873
276.824
276.79
276.765
276.743
276.733
276.754
276.796
276.792
276.769
276.739
276.695
276.624
276.576
276.548
276.524
276.503
276.496
276.521
276.555
276.546
276.522
276.492
276.448
276.396
276.365
276.34
276.317
276.3
276.304
276.309
276.29
276.262
276.225
276.173
276.138
276.113
276.091
276.079
276.095
276.136
276.135
276.112
276.084
276.041
275.971
275.921
275.893
275.869
275.849
275.842
275.869
275.908
275.9
275.876
275.847
275.801
275.73
275.685
275.657
275.634
275.613
275.606
275.632
275.667
275.658
275.634
275.604
275.559
275.498
275.462
275.436
275.413
275.393
275.39
275.416
275.426
275.406
275.38
275.346
275.302
275.27
275.245
275.222
275.204
275.204
275.198
275.175
275.146
275.104
275.057
275.029
275.005
274.985
274.982
275.016
275.051
275.041
275.017
274.986
274.939
274.864
274.818
274.79
274.766
274.745
274.733
274.749
274.783
274.778
274.754
274.726
274.687
274.64
274.609
274.585
274.562
274.545
274.548
274.559
274.543
274.518
274.486
274.442
274.409
274.384
274.362
274.346
274.354
274.373
274.36
274.335
274.304
274.257
274.207
274.177
274.153
274.131
274.116
274.126
274.15
274.14
274.116
274.087
274.047
274.009
273.983
273.959
273.938
273.925
273.935
273.93
273.907
273.88
273.846
273.816
273.791
273.769
273.751
273.742
273.724
273.7
273.673
273.644
273.62
273.598
273.583
273.593
273.638
273.646
273.626
273.599
273.563
273.497
273.405
273.359
273.331
273.307
273.284
273.263
273.253
273.275
273.34
273.36
273.343
273.318
273.286
273.233
273.139
273.077
273.046
273.022
273
272.983
272.989
273.045
273.099
273.095
273.072
273.045
273.006
272.935
272.863
272.828
272.803
272.78
272.76
272.753
272.778
272.808
272.797
272.773
272.744
272.702
272.648
272.616
272.592
272.569
272.551
272.549
272.572
272.57
272.548
272.521
272.483
272.432
272.398
272.373
272.351
272.332
272.333
272.361
272.362
272.341
272.315
272.279
272.224
272.182
272.155
272.132
272.111
272.098
272.111
272.13
272.116
272.091
272.062
272.021
271.981
271.955
271.932
271.91
271.896
271.905
271.92
271.905
271.881
271.853
271.82
271.791
271.767
271.743
271.719
271.695
271.67
271.646
271.623
271.601
271.582
271.577
271.596
271.594
271.572
271.546
271.509
271.455
271.417
271.392
271.369
271.349
271.343
271.367
271.38
271.363
271.338
271.307
271.258
271.208
271.18
271.156
271.134
271.117
271.121
271.145
271.14
271.117
271.091
271.054
271.009
270.979
270.955
270.933
270.915
270.912
270.929
270.92
270.897
270.871
270.836
270.804
270.78
270.758
270.738
270.733
270.737
270.719
270.694
270.662
270.611
270.563
270.535
270.511
270.49
270.473
270.479
270.519
270.532
270.514
270.49
270.46
270.414
270.365
270.336
270.313
270.29
270.269
270.258
270.266
270.256
270.233
270.207
270.173
270.144
270.12
270.099
270.082
270.085
270.101
270.087
270.063
270.035
269.992
269.948
269.92
269.897
269.876
269.862
269.872
269.891
269.879
269.855
269.826
269.783
269.721
269.684
269.659
269.636
269.616
269.608
269.632
269.667
269.659
269.636
269.609
269.573
269.513
269.467
269.44
269.417
269.395
269.377
269.377
269.415
269.445
269.433
269.41
269.384
269.35
269.293
269.222
269.185
269.16
269.137
269.114
269.091
269.067
269.045
269.024
269.01
269.021
269.068
269.081
269.064
269.04
269.01
268.964
268.896
268.855
268.83
268.807
268.786
268.771
268.779
268.811
268.808
268.786
268.761
268.727
268.676
268.635
268.609
268.587
268.565
268.55
268.557
268.578
268.567
268.544
268.517
268.48
268.437
268.408
268.385
268.363
268.345
268.343
268.355
268.343
268.32
268.293
268.254
268.211
268.183
268.16
268.139
268.124
268.131
268.158
268.15
268.128
268.102
268.066
268.01
267.967
267.941
267.918
267.897
267.881
267.886
267.911
267.906
267.884
267.859
267.825
267.781
267.75
267.726
267.704
267.684
267.675
267.693
267.702
267.684
267.661
267.633
267.591
267.544
267.515
267.492
267.469
267.446
267.423
267.401
267.378
267.357
267.341
267.343
267.372
267.373
267.353
267.329
267.301
267.26
267.221
267.195
267.172
267.149
267.126
267.104
267.081
267.059
267.04
267.031
267.051
267.071
267.057
267.034
267.007
266.969
266.899
266.841
266.812
266.788
266.766
266.746
266.734
266.748
266.812
266.841
266.828
266.805
266.779
266.743
266.674
266.582
266.539
266.513
266.49
266.468
266.445
266.424
266.405
266.398
266.427
266.48
266.482
266.462
266.438
266.409
266.362
266.294
266.255
266.23
266.208
266.187