/*--------------------------------*- C++ -*----------------------------------*\
  =========                 |
  \\      /  F ield         | OpenFOAM: The Open Source CFD Toolbox
   \\    /   O peration     | Website:  https://openfoam.org
    \\  /    A nd           | Version:  9
     \\/     M anipulation  |
\*---------------------------------------------------------------------------*/
FoamFile
{
    format      ascii;
    class       volScalarField;
    location    "0.026";
    object      mag(U);
}
// * * * * * * * * * * * * * * * * * * * * * * * * * * * * * * * * * * * * * //

dimensions      [0 1 -1 0 0 0 0];

internalField   nonuniform List<scalar> 
1000
(
11.6879
12.329
13.019
13.4393
13.9087
14.4167
14.9305
15.4267
15.925
16.4262
16.9287
17.4303
17.9315
18.4329
18.9342
19.4356
19.937
20.4384
20.9398
21.4413
21.9429
22.4445
22.9461
23.4478
23.9496
24.4515
24.9534
25.4554
25.9575
26.4596
26.9618
27.464
27.9663
28.4687
28.9712
29.4737
29.9764
30.4791
30.9819
31.4848
31.9878
32.4908
32.9939
33.4971
34.0003
34.5037
35.0071
35.5106
36.0143
36.518
37.0217
37.5256
38.0295
38.5334
39.0375
39.5416
40.0458
40.5501
41.0544
41.5589
42.0634
42.568
43.0726
43.5774
44.0822
44.5871
45.092
45.597
46.1022
46.6073
47.1126
47.6179
48.1233
48.6288
49.1344
49.64
50.1457
50.6514
51.1572
51.6631
52.1691
52.6751
53.1812
53.6874
54.1937
54.7
55.2064
55.7129
56.2194
56.726
57.2327
57.7394
58.2462
58.7531
59.2601
59.7671
60.2742
60.7813
61.2885
61.7958
62.3032
62.8106
63.3181
63.8256
64.3333
64.8409
65.3487
65.8565
66.3644
66.8723
67.3804
67.8885
68.3966
68.9048
69.4131
69.9214
70.4298
70.9383
71.4468
71.9554
72.4641
72.9728
73.4816
73.9904
74.4994
75.0084
75.5174
76.0266
76.5356
77.0449
77.5542
78.0635
78.573
79.0824
79.5919
80.1016
80.6112
81.1208
81.6308
82.1405
82.6504
83.1605
83.6704
84.1804
84.6908
85.2008
85.711
86.2215
86.7317
87.2421
87.7528
88.2632
88.7737
89.2846
89.7951
90.3058
90.8169
91.3276
91.8385
92.3497
92.8606
93.3716
93.883
94.3941
94.9052
95.4168
95.9282
96.4394
96.951
97.4628
97.9741
98.4857
98.9978
99.5094
100.021
100.533
101.045
101.557
102.069
102.581
103.093
103.605
104.118
104.63
105.142
105.654
106.167
106.679
107.192
107.705
108.217
108.73
109.243
109.756
110.268
110.781
111.294
111.807
112.32
112.833
113.346
113.859
114.372
114.886
115.399
115.912
116.425
116.939
117.453
117.966
118.479
118.993
119.507
120.02
120.533
121.048
121.561
122.075
122.588
123.103
123.616
124.13
124.644
125.158
125.672
126.186
126.7
127.214
127.728
128.242
128.756
129.271
129.785
130.299
130.813
131.328
131.842
132.356
132.87
133.385
133.899
134.413
134.927
135.442
135.957
136.471
136.985
137.5
138.015
138.529
139.043
139.558
140.073
140.587
141.101
141.616
142.131
142.645
143.16
143.674
144.189
144.704
145.218
145.733
146.248
146.762
147.277
147.792
148.306
148.821
149.336
149.85
150.365
150.879
151.394
151.909
152.423
152.938
153.452
153.967
154.482
154.996
155.51
156.025
156.54
157.054
157.568
158.083
158.597
159.112
159.626
160.14
160.655
161.169
161.683
162.198
162.712
163.226
163.74
164.254
164.768
165.282
165.796
166.31
166.824
167.338
167.852
168.365
168.879
169.393
169.906
170.42
170.933
171.446
171.96
172.473
172.986
173.499
174.012
174.525
175.038
175.55
176.063
176.576
177.088
177.6
178.113
178.625
179.137
179.649
180.16
180.672
181.184
181.695
182.206
182.718
183.229
183.74
184.25
184.761
185.271
185.782
186.292
186.802
187.311
187.821
188.33
188.839
189.348
189.857
190.366
190.874
191.382
191.89
192.397
192.905
193.412
193.919
194.425
194.931
195.438
195.944
196.449
196.953
197.459
197.964
198.468
198.97
199.472
199.976
200.482
200.986
201.485
201.98
202.478
202.982
203.489
203.995
204.493
204.983
205.468
205.956
206.453
206.959
207.469
207.979
208.482
208.976
209.46
209.935
210.403
210.867
211.329
211.79
212.252
212.713
213.174
213.634
214.093
214.548
215.001
215.445
215.867
216.276
216.661
217.035
217.402
217.769
218.134
218.499
218.865
219.238
219.616
219.999
220.389
220.785
221.185
221.59
221.999
222.411
222.828
223.249
223.673
224.098
224.523
224.947
225.372
225.798
226.227
226.655
227.078
227.496
227.911
228.328
228.748
229.171
229.598
230.03
230.465
230.903
231.337
231.769
232.203
232.642
233.09
233.55
234.021
234.497
234.978
235.445
235.915
236.343
236.698
236.955
236.928
236.939
237.057
237.317
237.691
238.14
238.635
239.153
239.68
240.209
240.739
241.272
241.793
242.283
242.868
243.212
243.083
242.657
242.64
242.891
243.357
243.94
244.595
245.347
246.243
246.499
246.352
245.948
245.974
246.274
246.761
247.188
247.437
247.69
247.986
248.313
248.652
249.005
249.38
249.765
250.147
250.453
250.645
250.776
250.775
250.775
250.815
250.91
251.072
251.305
251.604
251.955
252.349
252.777
253.226
253.694
254.072
254.36
254.32
254.205
254.22
254.336
254.58
254.937
255.388
255.914
256.504
257.137
257.786
258.402
259.163
259.412
259.165
258.493
258.373
258.608
259.045
259.622
260.28
261.073
261.743
261.67
261.254
260.81
260.97
261.38
261.965
262.638
263.331
264.02
264.863
265.026
264.708
263.795
262.943
263.076
263.37
263.7
263.996
264.306
264.69
265.154
265.678
266.268
266.912
267.562
268.159
268.878
269.018
268.769
268.255
267.774
267.861
268.072
268.336
268.622
268.937
269.294
269.717
270.19
270.68
271.214
271.838
271.821
271.519
270.94
270.947
271.178
271.656
272.27
272.885
273.489
274.235
274.656
274.548
274.127
273.481
273.525
273.771
274.201
274.791
275.652
276.104
276.012
275.555
275.178
275.367
275.891
276.718
277.046
276.95
276.676
276.733
277.04
277.68
278.241
278.213
278.015
278.011
278.261
278.836
279.615
279.873
279.794
279.526
279.513
279.793
280.437
280.971
281.032
280.969
280.916
281.023
281.422
281.945
282.073
282.059
282.039
282.135
282.457
282.9
283.042
283.089
283.228
283.373
283.497
283.704
284.139
284.439
284.455
284.423
284.497
284.71
284.926
285.182
285.513
285.656
285.701
285.707
285.758
285.98
286.365
286.651
286.667
286.679
286.777
286.904
287.07
287.399
287.621
287.648
287.615
287.65
287.843
288.15
288.388
288.434
288.478
288.524
288.565
288.72
289.065
289.255
289.242
289.252
289.338
289.45
289.652
289.831
289.862
289.829
289.855
290.02
290.266
290.34
290.343
290.38
290.423
290.467
290.621
290.861
290.903
290.863
290.868
290.924
290.984
291.112
291.26
291.28
291.242
291.248
291.331
291.447
291.536
291.567
291.581
291.587
291.641
291.746
291.77
291.748
291.767
291.857
291.902
291.879
291.868
291.897
291.919
291.918
291.934
291.969
291.98
291.975
291.992
292.028
292.038
292.032
292.043
292.076
292.087
292.072
292.064
292.087
292.112
292.108
292.078
292.053
292.073
292.102
292.096
292.058
291.99
291.972
292.002
292.015
291.99
291.905
291.804
291.808
291.855
291.85
291.777
291.622
291.55
291.609
291.671
291.647
291.493
291.291
291.304
291.448
291.512
291.442
291.179
290.948
290.966
291.03
290.922
290.717
290.698
290.771
290.651
290.379
290.364
290.522
290.43
290.043
289.908
290.177
290.407
290.207
289.659
289.324
289.44
289.693
289.709
289.447
289.037
288.906
288.975
288.972
288.763
288.485
288.424
288.451
288.331
288.041
287.814
287.733
287.631
287.425
287.284
287.235
287.086
286.861
286.883
286.965
286.666
286.14
286.096
286.41
286.471
285.976
285.258
285.126
285.459
285.648
285.284
284.519
284.133
284.366
284.679
284.488
283.78
283.148
283.215
283.57
283.558
283.001
282.245
282.084
282.349
282.443
282.023
281.308
281.023
281.156
281.2
280.842
280.235
279.953
279.995
279.947
279.576
279.047
278.819
278.794
278.618
278.19
277.855
277.773
277.652
277.264
276.88
276.796
276.728
276.358
275.889
275.779
275.796
275.523
274.954
274.669
274.744
274.697
274.207
273.595
273.546
273.798
273.825
273.504
272.679
271.895
271.848
272.199
272.305
271.918
271.046
270.414
270.488
270.787
270.705
270.091
269.308
269.126
269.34
269.377
268.923
268.201
267.948
268.094
268.111
267.683
267.047
266.856
266.969
266.911
266.451
265.889
265.715
265.711
265.561
265.21
264.873
264.678
264.492
264.238
264.052
263.922
263.693
263.501
263.526
263.534
263.289
262.884
262.608
262.47
262.299
262.064
261.94
261.869
261.7
261.456
261.266
261.118
260.912
260.744
260.696
260.614
260.405
260.181
260.019
259.858
259.679
259.548
259.414
259.224
259.116
259.081
258.963
258.757
258.643
258.583
258.444
258.248
258.111
258.005
257.877
257.756
257.651
257.51
257.443
257.495
257.496
257.361
257.19
257.094
257.013
256.909
256.856
256.827
256.713
256.718
256.938
256.934
256.584
256.357
256.473
256.646
256.592
256.373
256.23
256.23
256.211
256.141
256.266
256.46
256.295
255.983
256.053
256.336
256.322
256.039
255.933
256.098
256.2
256.063
255.947
256.052
256.145
256.035
255.948
256.07
256.153
256.022
256.007
)
;

boundaryField
{
    sides
    {
        type            calculated;
        value           nonuniform List<scalar> 2(256.007 11.6879);
    }
    empty
    {
        type            empty;
    }
}


// ************************************************************************* //
