/*--------------------------------*- C++ -*----------------------------------*\
  =========                 |
  \\      /  F ield         | OpenFOAM: The Open Source CFD Toolbox
   \\    /   O peration     | Website:  https://openfoam.org
    \\  /    A nd           | Version:  9
     \\/     M anipulation  |
\*---------------------------------------------------------------------------*/
FoamFile
{
    format      ascii;
    class       volScalarField;
    location    "0.026";
    object      rho;
}
// * * * * * * * * * * * * * * * * * * * * * * * * * * * * * * * * * * * * * //

dimensions      [1 -3 0 0 0 0 0];

internalField   nonuniform List<scalar> 
1000
(
0.380678
0.380572
0.380488
0.380427
0.380362
0.380292
0.380225
0.380159
0.380092
0.380026
0.379963
0.379904
0.379847
0.379793
0.379741
0.379689
0.379637
0.379586
0.379535
0.379483
0.379432
0.37938
0.379329
0.379277
0.379225
0.379174
0.379122
0.37907
0.379018
0.378966
0.378914
0.378862
0.37881
0.378758
0.378706
0.378654
0.378602
0.378549
0.378497
0.378445
0.378393
0.378341
0.378288
0.378236
0.378184
0.378131
0.378079
0.378027
0.377974
0.377922
0.377869
0.377817
0.377764
0.377712
0.377659
0.377607
0.377554
0.377502
0.377449
0.377396
0.377344
0.377291
0.377238
0.377185
0.377133
0.37708
0.377027
0.376974
0.376921
0.376868
0.376815
0.376762
0.376709
0.376656
0.376603
0.37655
0.376497
0.376444
0.376391
0.376337
0.376284
0.376231
0.376178
0.376124
0.376071
0.376017
0.375964
0.375911
0.375857
0.375804
0.37575
0.375696
0.375643
0.375589
0.375535
0.375482
0.375428
0.375374
0.37532
0.375267
0.375212
0.375159
0.375104
0.375052
0.374995
0.374945
0.374885
0.374838
0.374776
0.37473
0.374668
0.374621
0.37456
0.374512
0.374451
0.374403
0.374343
0.374292
0.374237
0.37418
0.37413
0.374069
0.37402
0.373963
0.373906
0.373857
0.373796
0.373745
0.373691
0.373631
0.373582
0.373524
0.373466
0.373418
0.373357
0.373302
0.373253
0.37319
0.373138
0.373087
0.373023
0.372972
0.37292
0.372857
0.372806
0.372754
0.372691
0.372639
0.372587
0.372524
0.372472
0.372419
0.372357
0.372305
0.372252
0.372189
0.372136
0.372084
0.372021
0.371967
0.371916
0.371854
0.371797
0.371748
0.371687
0.371627
0.371578
0.371521
0.371457
0.371406
0.371353
0.37129
0.371233
0.371183
0.371123
0.371062
0.371011
0.370955
0.370892
0.370838
0.370785
0.370723
0.370664
0.370614
0.370556
0.370491
0.370439
0.370388
0.370324
0.370262
0.370213
0.370158
0.370091
0.370034
0.369985
0.369925
0.36986
0.369808
0.369755
0.369691
0.369631
0.36958
0.369523
0.369457
0.369401
0.369351
0.36929
0.369224
0.36917
0.36912
0.369057
0.368991
0.368938
0.368887
0.368823
0.368759
0.368707
0.368653
0.368588
0.368525
0.368474
0.368419
0.368353
0.36829
0.368239
0.368185
0.368119
0.368055
0.368002
0.367948
0.367885
0.367821
0.367766
0.367711
0.367648
0.367584
0.367529
0.367475
0.367413
0.367346
0.367289
0.367236
0.367177
0.367111
0.36705
0.366996
0.366938
0.366873
0.366812
0.366757
0.3667
0.366636
0.366572
0.366515
0.36646
0.366399
0.366334
0.366274
0.366218
0.366159
0.366095
0.366033
0.365977
0.36592
0.365857
0.365792
0.365733
0.365677
0.365618
0.365554
0.365492
0.365434
0.365376
0.365313
0.36525
0.36519
0.365134
0.365074
0.36501
0.364948
0.364889
0.364831
0.36477
0.364707
0.364646
0.364588
0.364529
0.364466
0.364403
0.364343
0.364285
0.364225
0.364163
0.364101
0.364042
0.363983
0.363922
0.363859
0.363798
0.363739
0.36368
0.36362
0.363558
0.363496
0.363437
0.363378
0.363317
0.363255
0.363195
0.363136
0.363077
0.363016
0.362955
0.362894
0.362835
0.362776
0.362716
0.362655
0.362595
0.362536
0.362477
0.362418
0.362357
0.362297
0.362239
0.36218
0.362121
0.362061
0.362002
0.361943
0.361885
0.361827
0.361768
0.361709
0.361651
0.361593
0.361535
0.361477
0.361419
0.361361
0.361304
0.361248
0.361191
0.361133
0.361076
0.36102
0.360964
0.360908
0.360851
0.360794
0.360739
0.360683
0.360628
0.360573
0.360518
0.360463
0.360409
0.360355
0.360302
0.360248
0.360195
0.360141
0.360091
0.36004
0.359988
0.359934
0.359883
0.359836
0.35979
0.359739
0.359682
0.359631
0.359587
0.359549
0.359509
0.359457
0.359397
0.359342
0.359299
0.359266
0.359239
0.359211
0.359171
0.359116
0.359051
0.35899
0.35894
0.3589
0.358873
0.358856
0.358848
0.358845
0.358845
0.358845
0.358845
0.358845
0.358846
0.358848
0.358851
0.358858
0.35887
0.358893
0.35893
0.359
0.359093
0.359199
0.359305
0.35942
0.359538
0.359653
0.359769
0.359881
0.359984
0.360076
0.360163
0.360245
0.360321
0.360393
0.360457
0.360513
0.36057
0.360624
0.360669
0.360711
0.36076
0.360808
0.360846
0.360885
0.360931
0.360977
0.361019
0.361066
0.36112
0.361172
0.361217
0.36126
0.361307
0.361352
0.361385
0.36141
0.36144
0.361481
0.361522
0.361554
0.361574
0.361592
0.361603
0.36161
0.361617
0.361631
0.361657
0.36171
0.361821
0.362025
0.362543
0.36303
0.363437
0.363664
0.363742
0.363764
0.36377
0.36377
0.363772
0.363772
0.363771
0.363768
0.363779
0.36383
0.363888
0.364026
0.364329
0.364943
0.365559
0.365883
0.365928
0.365937
0.365968
0.365938
0.365909
0.365909
0.365977
0.366478
0.367256
0.367407
0.367324
0.367406
0.367571
0.367841
0.368015
0.368137
0.368224
0.368315
0.368373
0.368443
0.368578
0.368804
0.369148
0.369601
0.370187
0.370766
0.371284
0.371744
0.37213
0.372401
0.372543
0.372669
0.372801
0.3729
0.372962
0.373019
0.373167
0.373478
0.374061
0.374869
0.375472
0.375943
0.376221
0.376427
0.376607
0.376719
0.376783
0.376766
0.376719
0.376765
0.376833
0.377023
0.377421
0.378506
0.379517
0.380085
0.380233
0.380183
0.380207
0.380228
0.380334
0.380575
0.381302
0.382225
0.382882
0.383111
0.383143
0.38312
0.383147
0.383209
0.383283
0.383487
0.38377
0.384998
0.386522
0.387179
0.387257
0.387399
0.387632
0.387924
0.388146
0.388182
0.388096
0.388052
0.388107
0.388273
0.388452
0.38865
0.389045
0.389637
0.390949
0.392069
0.392738
0.393023
0.393237
0.393429
0.3935
0.393551
0.393614
0.393646
0.393731
0.393786
0.393889
0.394073
0.394638
0.395603
0.396302
0.396684
0.396899
0.397084
0.397209
0.397307
0.39728
0.397334
0.397404
0.398148
0.399131
0.399671
0.399888
0.399923
0.399891
0.399757
0.39972
0.399676
0.400046
0.400861
0.401574
0.401617
0.401506
0.401551
0.401693
0.402264
0.403041
0.403363
0.40323
0.403288
0.403471
0.404127
0.404877
0.405409
0.405263
0.405215
0.405297
0.405472
0.405971
0.406751
0.407128
0.407051
0.407072
0.407146
0.407341
0.407653
0.408227
0.408443
0.408392
0.408382
0.40848
0.408506
0.408664
0.409292
0.409327
0.409193
0.409492
0.410374
0.410571
0.410608
0.410575
0.411243
0.411382
0.411527
0.411502
0.411908
0.412678
0.412771
0.412606
0.412614
0.413234
0.413613
0.413718
0.413682
0.41432
0.414616
0.414603
0.41446
0.414755
0.415534
0.415701
0.415597
0.415636
0.416132
0.416348
0.41638
0.416482
0.41713
0.417195
0.417049
0.417084
0.417742
0.417936
0.417913
0.418102
0.418512
0.418496
0.418386
0.418759
0.419241
0.419234
0.41915
0.419554
0.419753
0.419755
0.419843
0.420375
0.420432
0.420313
0.420381
0.420908
0.421022
0.42098
0.421196
0.421438
0.421403
0.421328
0.421691
0.421997
0.421976
0.42195
0.422257
0.422346
0.422309
0.422475
0.422828
0.422794
0.422701
0.422959
0.423176
0.423182
0.423189
0.423451
0.42352
0.423496
0.423605
0.423882
0.423885
0.42382
0.42393
0.424245
0.424288
0.424241
0.424364
0.424592
0.424637
0.424615
0.424763
0.424972
0.42502
0.424996
0.425112
0.425355
0.425409
0.4254
0.425382
0.425677
0.425834
0.425879
0.425836
0.425774
0.426118
0.426302
0.426399
0.426392
0.42616
0.426306
0.426773
0.426933
0.426997
0.426733
0.426507
0.427009
0.427424
0.427592
0.427547
0.42695
0.426977
0.42788
0.428218
0.428402
0.427856
0.427191
0.427898
0.429022
0.429367
0.429466
0.428261
0.427786
0.428691
0.429335
0.429052
0.428348
0.428992
0.429979
0.429592
0.428526
0.429278
0.430889
0.430648
0.428841
0.428903
0.431613
0.43259
0.432156
0.42968
0.42913
0.430894
0.432416
0.432836
0.431987
0.430715
0.430999
0.432445
0.432778
0.43236
0.43169
0.432472
0.433425
0.433448
0.432699
0.432581
0.433364
0.4336
0.433337
0.433542
0.434509
0.434502
0.434018
0.435634
0.437017
0.436114
0.434357
0.435542
0.438688
0.439422
0.437611
0.435435
0.436026
0.439779
0.440908
0.440173
0.437267
0.436843
0.440362
0.442281
0.442506
0.439651
0.438341
0.440538
0.443587
0.444315
0.442448
0.44036
0.441061
0.444638
0.445558
0.44468
0.442478
0.442685
0.445644
0.446545
0.446132
0.44444
0.444736
0.447108
0.447738
0.447342
0.446078
0.446766
0.448593
0.448867
0.448155
0.447966
0.449713
0.450326
0.44983
0.449287
0.45114
0.452138
0.451699
0.450742
0.4523
0.453975
0.453977
0.452523
0.452743
0.455544
0.456356
0.455275
0.453658
0.455598
0.458678
0.459571
0.459908
0.456848
0.455218
0.456798
0.460727
0.461771
0.461626
0.458336
0.457292
0.460027
0.462778
0.463479
0.46156
0.459468
0.460344
0.463702
0.464545
0.463569
0.461398
0.461851
0.464862
0.465692
0.464756
0.462931
0.463702
0.466245
0.466794
0.465571
0.464287
0.46514
0.466648
0.466868
0.466349
0.466033
0.466604
0.466896
0.466733
0.467097
0.467813
0.467667
0.467538
0.469418
0.470152
0.469962
0.468968
0.468931
0.469612
0.469727
0.469458
0.470084
0.4708
0.470856
0.470617
0.470759
0.471167
0.471003
0.470999
0.472081
0.472353
0.472184
0.472011
0.472265
0.472352
0.472284
0.472646
0.472821
0.472555
0.472888
0.473686
0.473704
0.473332
0.47369
0.47427
0.47422
0.473943
0.474094
0.474308
0.474276
0.474317
0.47451
0.474266
0.474376
0.475472
0.475708
0.475409
0.475103
0.475209
0.475324
0.475162
0.475369
0.475763
0.475279
0.475537
0.477589
0.477602
0.475624
0.475188
0.476564
0.477372
0.477246
0.476161
0.475987
0.476413
0.47646
0.475953
0.477139
0.478346
0.477101
0.475743
0.476733
0.478286
0.478037
0.476458
0.476309
0.477543
0.477971
0.477105
0.476574
0.47733
0.477916
0.47728
0.476666
0.477286
0.477953
0.477498
0.476853
)
;

boundaryField
{
    sides
    {
        type            calculated;
        value           nonuniform List<scalar> 2(0.476853 0.380678);
    }
    empty
    {
        type            empty;
    }
}


// ************************************************************************* //
