/*--------------------------------*- C++ -*----------------------------------*\
  =========                 |
  \\      /  F ield         | OpenFOAM: The Open Source CFD Toolbox
   \\    /   O peration     | Website:  https://openfoam.org
    \\  /    A nd           | Version:  9
     \\/     M anipulation  |
\*---------------------------------------------------------------------------*/
FoamFile
{
    format      ascii;
    class       surfaceScalarField;
    location    "0.041";
    object      phi;
}
// * * * * * * * * * * * * * * * * * * * * * * * * * * * * * * * * * * * * * //

dimensions      [1 0 -1 0 0 0 0];

internalField   nonuniform List<scalar> 
9999
(
4.98422
5.00881
5.0334
5.05799
5.08258
5.10717
5.13176
5.15634
5.18093
5.20552
5.2301
5.25468
5.27927
5.30385
5.32843
5.35301
5.37759
5.40217
5.42674
5.45132
5.4759
5.50047
5.52505
5.54962
5.5742
5.59877
5.62334
5.64791
5.67248
5.69705
5.72162
5.74619
5.77076
5.79532
5.81989
5.84446
5.86902
5.89358
5.91815
5.94271
5.96727
5.99183
6.01639
6.04095
6.06551
6.09007
6.11463
6.13918
6.16374
6.18829
6.21284
6.2374
6.26195
6.2865
6.31106
6.33561
6.36015
6.3847
6.40925
6.4338
6.45835
6.48289
6.50744
6.53199
6.55653
6.58107
6.60561
6.63015
6.65469
6.67924
6.70378
6.72832
6.75286
6.77739
6.80193
6.82646
6.851
6.87553
6.90007
6.9246
6.94914
6.97367
6.99821
7.02274
7.04727
7.07179
7.09632
7.12084
7.14537
7.1699
7.19442
7.21895
7.24348
7.26801
7.29254
7.31706
7.34158
7.3661
7.39061
7.41513
7.43964
7.46416
7.48868
7.5132
7.53772
7.56225
7.58677
7.61129
7.63581
7.66033
7.68484
7.70935
7.73385
7.75835
7.78285
7.80736
7.83186
7.85637
7.88088
7.90539
7.92991
7.95443
7.97895
8.00347
8.02799
8.0525
8.07702
8.10153
8.12603
8.15053
8.17502
8.19951
8.224
8.24848
8.27297
8.29745
8.32193
8.34641
8.37089
8.39538
8.41987
8.44437
8.46888
8.49339
8.51791
8.54243
8.56696
8.5915
8.61605
8.6406
8.66515
8.68972
8.71428
8.73885
8.76343
8.788
8.81258
8.83716
8.86173
8.88631
8.91089
8.93547
8.96005
8.98463
9.00922
9.03381
9.0584
9.083
9.10759
9.13218
9.15677
9.18136
9.20595
9.23055
9.25514
9.27973
9.30432
9.32891
9.3535
9.37809
9.40268
9.42727
9.45187
9.47646
9.50105
9.52564
9.55023
9.57481
9.5994
9.62399
9.64858
9.67317
9.69776
9.72235
9.74694
9.77153
9.79612
9.8207
9.84529
9.86988
9.89447
9.91906
9.94364
9.96823
9.99282
10.0174
10.042
10.0666
10.0912
10.1158
10.1403
10.1649
10.1895
10.2141
10.2387
10.2633
10.2879
10.3124
10.337
10.3616
10.3862
10.4108
10.4354
10.46
10.4845
10.5091
10.5337
10.5583
10.5829
10.6075
10.632
10.6566
10.6812
10.7058
10.7304
10.755
10.7795
10.8041
10.8287
10.8533
10.8779
10.9025
10.927
10.9516
10.9762
11.0008
11.0254
11.0499
11.0745
11.0991
11.1237
11.1483
11.1728
11.1974
11.222
11.2466
11.2712
11.2958
11.3203
11.3449
11.3695
11.3941
11.4186
11.4432
11.4678
11.4924
11.517
11.5415
11.5661
11.5907
11.6153
11.6399
11.6644
11.689
11.7136
11.7382
11.7627
11.7873
11.8119
11.8365
11.8611
11.8856
11.9102
11.9348
11.9594
11.9839
12.0085
12.0331
12.0577
12.0822
12.1068
12.1314
12.156
12.1805
12.2051
12.2297
12.2543
12.2788
12.3034
12.328
12.3526
12.3771
12.4017
12.4263
12.4508
12.4754
12.5
12.5246
12.5491
12.5737
12.5983
12.6229
12.6474
12.672
12.6966
12.7211
12.7457
12.7703
12.7949
12.8194
12.844
12.8686
12.8931
12.9177
12.9423
12.9669
12.9914
13.016
13.0406
13.0651
13.0897
13.1143
13.1388
13.1634
13.188
13.2125
13.2371
13.2617
13.2863
13.3108
13.3354
13.36
13.3845
13.4091
13.4337
13.4582
13.4828
13.5074
13.5319
13.5565
13.5811
13.6056
13.6302
13.6548
13.6793
13.7039
13.7285
13.753
13.7776
13.8021
13.8267
13.8513
13.8758
13.9004
13.925
13.9495
13.9741
13.9987
14.0232
14.0478
14.0724
14.0969
14.1215
14.146
14.1706
14.1952
14.2197
14.2443
14.2689
14.2934
14.318
14.3425
14.3671
14.3917
14.4162
14.4408
14.4653
14.4899
14.5145
14.539
14.5636
14.5881
14.6127
14.6373
14.6618
14.6864
14.7109
14.7355
14.7601
14.7846
14.8092
14.8337
14.8583
14.8828
14.9074
14.932
14.9565
14.9811
15.0056
15.0302
15.0547
15.0793
15.1039
15.1284
15.153
15.1775
15.2021
15.2266
15.2512
15.2758
15.3003
15.3249
15.3494
15.374
15.3985
15.4231
15.4476
15.4722
15.4967
15.5213
15.5459
15.5704
15.595
15.6195
15.6441
15.6686
15.6932
15.7177
15.7423
15.7668
15.7914
15.8159
15.8405
15.865
15.8896
15.9141
15.9387
15.9632
15.9878
16.0123
16.0369
16.0614
16.086
16.1105
16.1351
16.1596
16.1842
16.2087
16.2333
16.2578
16.2824
16.3069
16.3315
16.356
16.3806
16.4051
16.4297
16.4542
16.4788
16.5033
16.5279
16.5524
16.5769
16.6015
16.626
16.6506
16.6751
16.6997
16.7242
16.7488
16.7733
16.7979
16.8224
16.8469
16.8715
16.896
16.9206
16.9451
16.9697
16.9942
17.0188
17.0433
17.0678
17.0924
17.1169
17.1415
17.166
17.1906
17.2151
17.2396
17.2642
17.2887
17.3133
17.3378
17.3623
17.3869
17.4114
17.436
17.4605
17.485
17.5096
17.5341
17.5587
17.5832
17.6077
17.6323
17.6568
17.6814
17.7059
17.7304
17.755
17.7795
17.804
17.8286
17.8531
17.8777
17.9022
17.9267
17.9513
17.9758
18.0003
18.0249
18.0494
18.0739
18.0985
18.123
18.1476
18.1721
18.1966
18.2212
18.2457
18.2702
18.2948
18.3193
18.3438
18.3684
18.3929
18.4174
18.442
18.4665
18.491
18.5156
18.5401
18.5646
18.5892
18.6137
18.6382
18.6628
18.6873
18.7118
18.7363
18.7609
18.7854
18.8099
18.8345
18.859
18.8835
18.9081
18.9326
18.9571
18.9816
19.0062
19.0307
19.0552
19.0798
19.1043
19.1288
19.1533
19.1779
19.2024
19.2269
19.2514
19.276
19.3005
19.325
19.3495
19.3741
19.3986
19.4231
19.4477
19.4722
19.4967
19.5212
19.5457
19.5703
19.5948
19.6193
19.6438
19.6684
19.6929
19.7174
19.7419
19.7665
19.791
19.8155
19.84
19.8645
19.8891
19.9136
19.9381
19.9626
19.9872
20.0117
20.0362
20.0607
20.0852
20.1098
20.1343
20.1588
20.1833
20.2078
20.2324
20.2569
20.2814
20.3059
20.3304
20.3549
20.3795
20.404
20.4285
20.453
20.4775
20.502
20.5266
20.5511
20.5756
20.6001
20.6246
20.6491
20.6737
20.6982
20.7227
20.7472
20.7717
20.7962
20.8207
20.8453
20.8698
20.8943
20.9188
20.9433
20.9678
20.9923
21.0169
21.0414
21.0659
21.0904
21.1149
21.1394
21.1639
21.1884
21.2129
21.2375
21.262
21.2865
21.311
21.3355
21.36
21.3845
21.409
21.4335
21.458
21.4826
21.5071
21.5316
21.5561
21.5806
21.6051
21.6296
21.6541
21.6786
21.7031
21.7276
21.7521
21.7766
21.8011
21.8256
21.8502
21.8747
21.8992
21.9237
21.9482
21.9727
21.9972
22.0217
22.0462
22.0707
22.0952
22.1197
22.1442
22.1687
22.1932
22.2177
22.2422
22.2667
22.2912
22.3157
22.3402
22.3647
22.3892
22.4137
22.4382
22.4627
22.4872
22.5117
22.5362
22.5607
22.5852
22.6097
22.6342
22.6587
22.6832
22.7077
22.7322
22.7567
22.7812
22.8057
22.8302
22.8547
22.8792
22.9037
22.9282
22.9527
22.9772
23.0017
23.0262
23.0507
23.0752
23.0996
23.1241
23.1486
23.1731
23.1976
23.2221
23.2466
23.2711
23.2956
23.3201
23.3446
23.3691
23.3936
23.4181
23.4425
23.467
23.4915
23.516
23.5405
23.565
23.5895
23.614
23.6385
23.663
23.6874
23.7119
23.7364
23.7609
23.7854
23.8099
23.8344
23.8589
23.8833
23.9078
23.9323
23.9568
23.9813
24.0058
24.0303
24.0548
24.0792
24.1037
24.1282
24.1527
24.1772
24.2017
24.2261
24.2506
24.2751
24.2996
24.3241
24.3486
24.373
24.3975
24.422
24.4465
24.471
24.4955
24.5199
24.5444
24.5689
24.5934
24.6179
24.6423
24.6668
24.6913
24.7158
24.7403
24.7647
24.7892
24.8137
24.8382
24.8626
24.8871
24.9116
24.9361
24.9606
24.985
25.0095
25.034
25.0585
25.0829
25.1074
25.1319
25.1564
25.1808
25.2053
25.2298
25.2543
25.2787
25.3032
25.3277
25.3521
25.3766
25.4011
25.4256
25.45
25.4745
25.499
25.5235
25.5479
25.5724
25.5969
25.6213
25.6458
25.6703
25.6947
25.7192
25.7437
25.7682
25.7926
25.8171
25.8416
25.866
25.8905
25.915
25.9394
25.9639
25.9884
26.0128
26.0373
26.0618
26.0862
26.1107
26.1352
26.1596
26.1841
26.2085
26.233
26.2575
26.2819
26.3064
26.3309
26.3553
26.3798
26.4042
26.4287
26.4532
26.4776
26.5021
26.5266
26.551
26.5755
26.5999
26.6244
26.6489
26.6733
26.6978
26.7222
26.7467
26.7711
26.7956
26.8201
26.8445
26.869
26.8934
26.9179
26.9423
26.9668
26.9913
27.0157
27.0402
27.0646
27.0891
27.1135
27.138
27.1624
27.1869
27.2114
27.2358
27.2603
27.2847
27.3092
27.3336
27.3581
27.3825
27.407
27.4314
27.4559
27.4803
27.5048
27.5292
27.5537
27.5781
27.6026
27.627
27.6515
27.6759
27.7004
27.7248
27.7493
27.7737
27.7982
27.8226
27.847
27.8715
27.8959
27.9204
27.9448
27.9693
27.9937
28.0182
28.0426
28.0671
28.0915
28.1159
28.1404
28.1648
28.1893
28.2137
28.2382
28.2626
28.287
28.3115
28.3359
28.3604
28.3848
28.4092
28.4337
28.4581
28.4826
28.507
28.5314
28.5559
28.5803
28.6047
28.6292
28.6536
28.6781
28.7025
28.7269
28.7514
28.7758
28.8002
28.8247
28.8491
28.8735
28.898
28.9224
28.9468
28.9713
28.9957
29.0201
29.0446
29.069
29.0934
29.1179
29.1423
29.1667
29.1912
29.2156
29.24
29.2645
29.2889
29.3133
29.3377
29.3622
29.3866
29.411
29.4355
29.4599
29.4843
29.5087
29.5332
29.5576
29.582
29.6064
29.6309
29.6553
29.6797
29.7041
29.7286
29.753
29.7774
29.8018
29.8263
29.8507
29.8751
29.8995
29.924
29.9484
29.9728
29.9972
30.0216
30.0461
30.0705
30.0949
30.1193
30.1437
30.1682
30.1926
30.217
30.2414
30.2658
30.2902
30.3147
30.3391
30.3635
30.3879
30.4123
30.4367
30.4611
30.4856
30.51
30.5344
30.5588
30.5832
30.6076
30.632
30.6565
30.6809
30.7053
30.7297
30.7541
30.7785
30.8029
30.8273
30.8517
30.8762
30.9006
30.925
30.9494
30.9738
30.9982
31.0226
31.047
31.0714
31.0958
31.1202
31.1446
31.169
31.1934
31.2179
31.2423
31.2667
31.2911
31.3155
31.3399
31.3643
31.3887
31.4131
31.4375
31.4619
31.4863
31.5107
31.5351
31.5595
31.5839
31.6083
31.6327
31.6571
31.6815
31.7059
31.7303
31.7547
31.7791
31.8035
31.8279
31.8523
31.8767
31.9011
31.9254
31.9498
31.9742
31.9986
32.023
32.0474
32.0718
32.0962
32.1206
32.145
32.1694
32.1938
32.2182
32.2426
32.2669
32.2913
32.3157
32.3401
32.3645
32.3889
32.4133
32.4377
32.462
32.4864
32.5108
32.5352
32.5596
32.584
32.6084
32.6328
32.6571
32.6815
32.7059
32.7303
32.7547
32.7791
32.8034
32.8278
32.8522
32.8766
32.901
32.9253
32.9497
32.9741
32.9985
33.0229
33.0472
33.0716
33.096
33.1204
33.1447
33.1691
33.1935
33.2179
33.2423
33.2666
33.291
33.3154
33.3398
33.3641
33.3885
33.4129
33.4372
33.4616
33.486
33.5104
33.5347
33.5591
33.5835
33.6078
33.6322
33.6566
33.681
33.7053
33.7297
33.7541
33.7784
33.8028
33.8272
33.8515
33.8759
33.9003
33.9246
33.949
33.9733
33.9977
34.0221
34.0464
34.0708
34.0952
34.1195
34.1439
34.1682
34.1926
34.217
34.2413
34.2657
34.29
34.3144
34.3388
34.3631
34.3875
34.4118
34.4362
34.4605
34.4849
34.5093
34.5336
34.558
34.5823
34.6067
34.631
34.6554
34.6797
34.7041
34.7284
34.7528
34.7771
34.8015
34.8258
34.8502
34.8745
34.8989
34.9232
34.9476
34.9719
34.9963
35.0206
35.045
35.0693
35.0937
35.118
35.1424
35.1667
35.191
35.2154
35.2397
35.2641
35.2884
35.3128
35.3371
35.3614
35.3858
35.4101
35.4345
35.4588
35.4831
35.5075
35.5318
35.5561
35.5805
35.6048
35.6292
35.6535
35.6778
35.7022
35.7265
35.7508
35.7752
35.7995
35.8238
35.8482
35.8725
35.8968
35.9212
35.9455
35.9698
35.9941
36.0185
36.0428
36.0671
36.0915
36.1158
36.1401
36.1644
36.1888
36.2131
36.2374
36.2617
36.2861
36.3104
36.3347
36.359
36.3833
36.4077
36.432
36.4563
36.4806
36.5049
36.5293
36.5536
36.5779
36.6022
36.6265
36.6509
36.6752
36.6995
36.7238
36.7481
36.7724
36.7967
36.8211
36.8454
36.8697
36.894
36.9183
36.9426
36.9669
36.9912
37.0155
37.0399
37.0642
37.0885
37.1128
37.1371
37.1614
37.1857
37.21
37.2343
37.2586
37.2829
37.3072
37.3315
37.3558
37.3801
37.4044
37.4287
37.453
37.4773
37.5016
37.5259
37.5502
37.5745
37.5988
37.6231
37.6474
37.6717
37.696
37.7203
37.7446
37.7689
37.7932
37.8175
37.8418
37.8661
37.8903
37.9146
37.9389
37.9632
37.9875
38.0118
38.0361
38.0604
38.0847
38.1089
38.1332
38.1575
38.1818
38.2061
38.2304
38.2546
38.2789
38.3032
38.3275
38.3518
38.3761
38.4003
38.4246
38.4489
38.4732
38.4974
38.5217
38.546
38.5703
38.5945
38.6188
38.6431
38.6674
38.6916
38.7159
38.7402
38.7645
38.7887
38.813
38.8373
38.8615
38.8858
38.9101
38.9343
38.9586
38.9829
39.0071
39.0314
39.0557
39.0799
39.1042
39.1285
39.1527
39.177
39.2012
39.2255
39.2498
39.274
39.2983
39.3225
39.3468
39.371
39.3953
39.4196
39.4438
39.4681
39.4923
39.5166
39.5408
39.5651
39.5893
39.6136
39.6378
39.6621
39.6863
39.7106
39.7348
39.7591
39.7833
39.8076
39.8318
39.856
39.8803
39.9045
39.9288
39.953
39.9772
40.0015
40.0257
40.05
40.0742
40.0984
40.1227
40.1469
40.1712
40.1954
40.2196
40.2439
40.2681
40.2923
40.3166
40.3408
40.365
40.3892
40.4135
40.4377
40.4619
40.4862
40.5104
40.5346
40.5588
40.5831
40.6073
40.6315
40.6557
40.6799
40.7042
40.7284
40.7526
40.7768
40.801
40.8253
40.8495
40.8737
40.8979
40.9221
40.9463
40.9705
40.9948
41.019
41.0432
41.0674
41.0916
41.1158
41.14
41.1642
41.1884
41.2126
41.2368
41.261
41.2852
41.3094
41.3336
41.3579
41.3821
41.4063
41.4304
41.4546
41.4788
41.503
41.5272
41.5514
41.5756
41.5998
41.624
41.6482
41.6724
41.6966
41.7208
41.745
41.7692
41.7933
41.8175
41.8417
41.8659
41.8901
41.9143
41.9385
41.9626
41.9868
42.011
42.0352
42.0594
42.0835
42.1077
42.1319
42.1561
42.1802
42.2044
42.2286
42.2528
42.2769
42.3011
42.3253
42.3494
42.3736
42.3978
42.4219
42.4461
42.4703
42.4944
42.5186
42.5428
42.5669
42.5911
42.6152
42.6394
42.6636
42.6877
42.7119
42.736
42.7602
42.7843
42.8085
42.8326
42.8568
42.8809
42.9051
42.9292
42.9534
42.9775
43.0017
43.0258
43.05
43.0741
43.0982
43.1224
43.1465
43.1707
43.1948
43.2189
43.2431
43.2672
43.2913
43.3155
43.3396
43.3637
43.3879
43.412
43.4361
43.4603
43.4844
43.5085
43.5326
43.5568
43.5809
43.605
43.6291
43.6532
43.6774
43.7015
43.7256
43.7497
43.7738
43.7979
43.8221
43.8462
43.8703
43.8944
43.9185
43.9426
43.9667
43.9908
44.0149
44.039
44.0631
44.0872
44.1113
44.1354
44.1595
44.1836
44.2077
44.2318
44.2559
44.28
44.3041
44.3282
44.3523
44.3764
44.4005
44.4246
44.4486
44.4727
44.4968
44.5209
44.545
44.5691
44.5931
44.6172
44.6413
44.6654
44.6894
44.7135
44.7376
44.7617
44.7857
44.8098
44.8339
44.8579
44.882
44.9061
44.9301
44.9542
44.9783
45.0023
45.0264
45.0504
45.0745
45.0985
45.1226
45.1467
45.1707
45.1948
45.2188
45.2429
45.2669
45.2909
45.315
45.339
45.3631
45.3871
45.4112
45.4352
45.4592
45.4833
45.5073
45.5313
45.5554
45.5794
45.6034
45.6275
45.6515
45.6755
45.6995
45.7236
45.7476
45.7716
45.7956
45.8196
45.8436
45.8677
45.8917
45.9157
45.9397
45.9637
45.9877
46.0117
46.0357
46.0597
46.0837
46.1077
46.1317
46.1557
46.1797
46.2037
46.2277
46.2517
46.2757
46.2997
46.3237
46.3477
46.3717
46.3956
46.4196
46.4436
46.4676
46.4916
46.5155
46.5395
46.5635
46.5875
46.6114
46.6354
46.6594
46.6833
46.7073
46.7313
46.7552
46.7792
46.8032
46.8271
46.8511
46.875
46.899
46.9229
46.9469
46.9708
46.9948
47.0187
47.0427
47.0666
47.0905
47.1145
47.1384
47.1624
47.1863
47.2102
47.2341
47.2581
47.282
47.3059
47.3299
47.3538
47.3777
47.4016
47.4255
47.4494
47.4734
47.4973
47.5212
47.5451
47.569
47.5929
47.6168
47.6407
47.6646
47.6885
47.7124
47.7363
47.7602
47.7841
47.808
47.8318
47.8557
47.8796
47.9035
47.9274
47.9513
47.9751
47.999
48.0229
48.0467
48.0706
48.0945
48.1183
48.1422
48.1661
48.1899
48.2138
48.2376
48.2615
48.2853
48.3092
48.333
48.3569
48.3807
48.4046
48.4284
48.4522
48.4761
48.4999
48.5237
48.5476
48.5714
48.5952
48.619
48.6429
48.6667
48.6905
48.7143
48.7381
48.7619
48.7857
48.8095
48.8333
48.8571
48.8809
48.9047
48.9285
48.9523
48.9761
48.9999
49.0237
49.0475
49.0712
49.095
49.1188
49.1426
49.1663
49.1901
49.2139
49.2376
49.2614
49.2852
49.3089
49.3327
49.3564
49.3802
49.4039
49.4277
49.4514
49.4752
49.4989
49.5226
49.5464
49.5701
49.5938
49.6175
49.6413
49.665
49.6887
49.7124
49.7361
49.7598
49.7835
49.8073
49.831
49.8547
49.8784
49.902
49.9257
49.9494
49.9731
49.9968
50.0205
50.0442
50.0678
50.0915
50.1152
50.1388
50.1625
50.1862
50.2098
50.2335
50.2571
50.2808
50.3044
50.3281
50.3517
50.3753
50.399
50.4226
50.4462
50.4699
50.4935
50.5171
50.5407
50.5643
50.5879
50.6116
50.6352
50.6588
50.6824
50.706
50.7295
50.7531
50.7767
50.8003
50.8239
50.8475
50.871
50.8946
50.9182
50.9417
50.9653
50.9888
51.0124
51.0359
51.0595
51.083
51.1066
51.1301
51.1536
51.1772
51.2007
51.2242
51.2477
51.2712
51.2948
51.3183
51.3418
51.3653
51.3888
51.4123
51.4357
51.4592
51.4827
51.5062
51.5297
51.5531
51.5766
51.6001
51.6235
51.647
51.6704
51.6939
51.7173
51.7408
51.7642
51.7876
51.8111
51.8345
51.8579
51.8813
51.9047
51.9281
51.9515
51.9749
51.9983
52.0217
52.0451
52.0685
52.0919
52.1153
52.1386
52.162
52.1854
52.2087
52.2321
52.2554
52.2788
52.3021
52.3254
52.3488
52.3721
52.3954
52.4187
52.4421
52.4654
52.4887
52.512
52.5353
52.5585
52.5818
52.6051
52.6284
52.6517
52.6749
52.6982
52.7214
52.7447
52.7679
52.7912
52.8144
52.8376
52.8609
52.8841
52.9073
52.9305
52.9537
52.9769
53.0001
53.0233
53.0465
53.0697
53.0928
53.116
53.1392
53.1623
53.1855
53.2086
53.2318
53.2549
53.278
53.3012
53.3243
53.3474
53.3705
53.3936
53.4167
53.4398
53.4629
53.486
53.509
53.5321
53.5552
53.5782
53.6013
53.6243
53.6473
53.6704
53.6934
53.7164
53.7394
53.7624
53.7854
53.8084
53.8314
53.8544
53.8774
53.9003
53.9233
53.9462
53.9692
53.9921
54.0151
54.038
54.0609
54.0838
54.1067
54.1296
54.1525
54.1754
54.1983
54.2212
54.244
54.2669
54.2897
54.3126
54.3354
54.3582
54.3811
54.4039
54.4267
54.4495
54.4723
54.4951
54.5178
54.5406
54.5634
54.5861
54.6089
54.6316
54.6543
54.6771
54.6998
54.7225
54.7452
54.7679
54.7906
54.8132
54.8359
54.8586
54.8812
54.9039
54.9265
54.9491
54.9717
54.9943
55.0169
55.0395
55.0621
55.0847
55.1073
55.1298
55.1524
55.1749
55.1974
55.2199
55.2425
55.265
55.2875
55.3099
55.3324
55.3549
55.3773
55.3998
55.4222
55.4446
55.4671
55.4895
55.5119
55.5342
55.5566
55.579
55.6013
55.6237
55.646
55.6684
55.6907
55.713
55.7353
55.7576
55.7798
55.8021
55.8244
55.8466
55.8688
55.8911
55.9133
55.9355
55.9577
55.9798
56.002
56.0242
56.0463
56.0685
56.0906
56.1127
56.1348
56.1569
56.179
56.201
56.2231
56.2451
56.2671
56.2892
56.3112
56.3332
56.3551
56.3771
56.3991
56.421
56.443
56.4649
56.4868
56.5087
56.5306
56.5524
56.5743
56.5961
56.618
56.6398
56.6616
56.6834
56.7052
56.7269
56.7487
56.7704
56.7921
56.8138
56.8355
56.8572
56.8789
56.9005
56.9222
56.9438
56.9654
56.987
57.0086
57.0302
57.0517
57.0733
57.0948
57.1163
57.1378
57.1593
57.1808
57.2022
57.2236
57.2451
57.2665
57.2879
57.3092
57.3306
57.3519
57.3733
57.3946
57.4159
57.4372
57.4584
57.4797
57.5009
57.5221
57.5433
57.5645
57.5857
57.6068
57.628
57.6491
57.6702
57.6913
57.7123
57.7334
57.7544
57.7754
57.7964
57.8174
57.8383
57.8593
57.8802
57.9011
57.922
57.9429
57.9637
57.9846
58.0054
58.0262
58.047
58.0677
58.0885
58.1092
58.1299
58.1506
58.1713
58.1919
58.2125
58.2331
58.2537
58.2743
58.2949
58.3154
58.3359
58.3564
58.3769
58.3973
58.4178
58.4382
58.4586
58.4789
58.4993
58.5196
58.5399
58.5602
58.5805
58.6007
58.621
58.6412
58.6614
58.6815
58.7017
58.7218
58.7419
58.762
58.782
58.8021
58.8221
58.8421
58.8621
58.882
58.9019
58.9218
58.9417
58.9616
58.9814
59.0012
59.021
59.0408
59.0606
59.0803
59.1
59.1197
59.1393
59.159
59.1786
59.1982
59.2177
59.2373
59.2568
59.2763
59.2958
59.3152
59.3346
59.354
59.3734
59.3928
59.4121
59.4314
59.4507
59.47
59.4892
59.5084
59.5276
59.5468
59.5659
59.585
59.6041
59.6232
59.6422
59.6613
59.6803
59.6992
59.7182
59.7371
59.756
59.7749
59.7937
59.8125
59.8313
59.8501
59.8689
59.8876
59.9063
59.925
59.9436
59.9623
59.9809
59.9994
60.018
60.0365
60.055
60.0735
60.092
60.1104
60.1288
60.1472
60.1655
60.1838
60.2022
60.2204
60.2387
60.2569
60.2751
60.2933
60.3115
60.3296
60.3477
60.3658
60.3838
60.4019
60.4199
60.4379
60.4558
60.4738
60.4917
60.5096
60.5274
60.5453
60.5631
60.5809
60.5986
60.6164
60.6341
60.6518
60.6694
60.6871
60.7047
60.7223
60.7399
60.7574
60.775
60.7925
60.8099
60.8274
60.8448
60.8622
60.8796
60.897
60.9143
60.9316
60.9489
60.9662
60.9835
61.0007
61.0179
61.0351
61.0522
61.0694
61.0865
61.1036
61.1207
61.1377
61.1547
61.1718
61.1887
61.2057
61.2227
61.2396
61.2565
61.2734
61.2902
61.3071
61.3239
61.3407
61.3575
61.3742
61.391
61.4077
61.4244
61.4411
61.4577
61.4744
61.491
61.5076
61.5242
61.5408
61.5573
61.5738
61.5904
61.6069
61.6233
61.6398
61.6562
61.6727
61.6891
61.7055
61.7218
61.7382
61.7545
61.7709
61.7872
61.8035
61.8197
61.836
61.8522
61.8685
61.8847
61.9009
61.9171
61.9332
61.9494
61.9655
61.9817
61.9978
62.0139
62.0299
62.046
62.0621
62.0781
62.0941
62.1102
62.1262
62.1422
62.1581
62.1741
62.1901
62.206
62.2219
62.2379
62.2538
62.2697
62.2855
62.3014
62.3173
62.3331
62.349
62.3648
62.3806
62.3964
62.4122
62.428
62.4438
62.4596
62.4753
62.4911
62.5068
62.5226
62.5383
62.554
62.5697
62.5854
62.6011
62.6168
62.6325
62.6482
62.6638
62.6795
62.6951
62.7108
62.7264
62.742
62.7576
62.7733
62.7889
62.8045
62.8201
62.8356
62.8512
62.8668
62.8824
62.8979
62.9135
62.9291
62.9446
62.9601
62.9757
62.9912
63.0068
63.0223
63.0378
63.0533
63.0688
63.0843
63.0998
63.1153
63.1308
63.1463
63.1618
63.1773
63.1928
63.2083
63.2237
63.2392
63.2547
63.2701
63.2856
63.3011
63.3165
63.332
63.3474
63.3629
63.3783
63.3938
63.4092
63.4247
63.4401
63.4555
63.471
63.4864
63.5018
63.5173
63.5327
63.5481
63.5635
63.579
63.5944
63.6098
63.6252
63.6406
63.6561
63.6715
63.6869
63.7023
63.7177
63.7331
63.7486
63.764
63.7794
63.7948
63.8102
63.8256
63.841
63.8564
63.8718
63.8873
63.9027
63.9181
63.9335
63.9489
63.9643
63.9797
63.9951
64.0105
64.0259
64.0414
64.0568
64.0722
64.0876
64.103
64.1184
64.1338
64.1492
64.1646
64.1801
64.1955
64.2109
64.2263
64.2417
64.2571
64.2726
64.288
64.3034
64.3188
64.3342
64.3497
64.3651
64.3805
64.3959
64.4113
64.4268
64.4422
64.4576
64.4731
64.4885
64.5039
64.5193
64.5348
64.5502
64.5657
64.5811
64.5965
64.612
64.6274
64.6428
64.6583
64.6737
64.6892
64.7046
64.7201
64.7355
64.751
64.7664
64.7819
64.7973
64.8128
64.8282
64.8437
64.8592
64.8746
64.8901
64.9055
64.921
64.9365
64.9519
64.9674
64.9829
64.9984
65.0138
65.0293
65.0448
65.0603
65.0757
65.0912
65.1067
65.1222
65.1377
65.1532
65.1687
65.1841
65.1996
65.2151
65.2306
65.2461
65.2616
65.2771
65.2926
65.3081
65.3236
65.3391
65.3546
65.3702
65.3857
65.4012
65.4167
65.4322
65.4477
65.4632
65.4788
65.4943
65.5098
65.5253
65.5409
65.5564
65.5719
65.5875
65.603
65.6185
65.6341
65.6496
65.6651
65.6807
65.6962
65.7118
65.7273
65.7429
65.7584
65.774
65.7895
65.8051
65.8207
65.8362
65.8518
65.8673
65.8829
65.8985
65.914
65.9296
65.9452
65.9607
65.9763
65.9919
66.0075
66.0231
66.0386
66.0542
66.0698
66.0854
66.101
66.1166
66.1322
66.1478
66.1634
66.179
66.1946
66.2102
66.2258
66.2414
66.257
66.2726
66.2882
66.3038
66.3194
66.335
66.3506
66.3663
66.3819
66.3975
66.4131
66.4287
66.4444
66.46
66.4756
66.4913
66.5069
66.5225
66.5382
66.5538
66.5694
66.5851
66.6007
66.6164
66.632
66.6477
66.6633
66.679
66.6946
66.7103
66.7259
66.7416
66.7573
66.7729
66.7886
66.8043
66.8199
66.8356
66.8513
66.8669
66.8826
66.8983
66.914
66.9297
66.9453
66.961
66.9767
66.9924
67.0081
67.0238
67.0395
67.0552
67.0709
67.0866
67.1023
67.118
67.1337
67.1494
67.1651
67.1808
67.1965
67.2122
67.2279
67.2436
67.2593
67.2751
67.2908
67.3065
67.3222
67.338
67.3537
67.3694
67.3851
67.4009
67.4166
67.4323
67.4481
67.4638
67.4796
67.4953
67.5111
67.5268
67.5425
67.5583
67.5741
67.5898
67.6056
67.6213
67.6371
67.6528
67.6686
67.6844
67.7001
67.7159
67.7317
67.7474
67.7632
67.779
67.7948
67.8105
67.8263
67.8421
67.8579
67.8737
67.8895
67.9052
67.921
67.9368
67.9526
67.9684
67.9842
68
68.0158
68.0316
68.0474
68.0632
68.079
68.0948
68.1107
68.1265
68.1423
68.1581
68.1739
68.1897
68.2056
68.2214
68.2372
68.253
68.2689
68.2847
68.3005
68.3164
68.3322
68.348
68.3639
68.3797
68.3956
68.4114
68.4272
68.4431
68.4589
68.4748
68.4906
68.5065
68.5224
68.5382
68.5541
68.5699
68.5858
68.6017
68.6175
68.6334
68.6493
68.6651
68.681
68.6969
68.7128
68.7287
68.7445
68.7604
68.7763
68.7922
68.8081
68.824
68.8399
68.8558
68.8716
68.8875
68.9034
68.9193
68.9352
68.9511
68.9671
68.983
68.9989
69.0148
69.0307
69.0466
69.0625
69.0784
69.0944
69.1103
69.1262
69.1421
69.1581
69.174
69.1899
69.2059
69.2218
69.2377
69.2537
69.2696
69.2855
69.3015
69.3174
69.3334
69.3493
69.3653
69.3812
69.3972
69.4131
69.4291
69.445
69.461
69.477
69.4929
69.5089
69.5249
69.5408
69.5568
69.5728
69.5888
69.6047
69.6207
69.6367
69.6527
69.6687
69.6846
69.7006
69.7166
69.7326
69.7486
69.7646
69.7806
69.7966
69.8126
69.8286
69.8446
69.8606
69.8766
69.8926
69.9086
69.9246
69.9406
69.9567
69.9727
69.9887
70.0047
70.0207
70.0368
70.0528
70.0688
70.0848
70.1009
70.1169
70.1329
70.149
70.165
70.1811
70.1971
70.2131
70.2292
70.2452
70.2613
70.2773
70.2934
70.3094
70.3255
70.3416
70.3576
70.3737
70.3897
70.4058
70.4219
70.4379
70.454
70.4701
70.4862
70.5022
70.5183
70.5344
70.5505
70.5666
70.5826
70.5987
70.6148
70.6309
70.647
70.6631
70.6792
70.6953
70.7114
70.7275
70.7436
70.7597
70.7758
70.7919
70.808
70.8241
70.8402
70.8563
70.8725
70.8886
70.9047
70.9208
70.9369
70.9531
70.9692
70.9853
71.0015
71.0176
71.0337
71.0499
71.066
71.0821
71.0983
71.1144
71.1306
71.1467
71.1629
71.179
71.1952
71.2113
71.2275
71.2436
71.2598
71.276
71.2921
71.3083
71.3245
71.3406
71.3568
71.373
71.3891
71.4053
71.4215
71.4377
71.4539
71.47
71.4862
71.5024
71.5186
71.5348
71.551
71.5672
71.5834
71.5996
71.6158
71.632
71.6482
71.6644
71.6806
71.6968
71.713
71.7292
71.7454
71.7616
71.7778
71.7941
71.8103
71.8265
71.8427
71.859
71.8752
71.8914
71.9076
71.9239
71.9401
71.9563
71.9726
71.9888
72.0051
72.0213
72.0376
72.0538
72.0701
72.0863
72.1026
72.1188
72.1351
72.1513
72.1676
72.1838
72.2001
72.2164
72.2326
72.2489
72.2652
72.2815
72.2977
72.314
72.3303
72.3466
72.3628
72.3791
72.3954
72.4117
72.428
72.4443
72.4606
72.4769
72.4932
72.5095
72.5258
72.5421
72.5584
72.5747
72.591
72.6073
72.6236
72.6399
72.6562
72.6725
72.6889
72.7052
72.7215
72.7378
72.7541
72.7705
72.7868
72.8031
72.8195
72.8358
72.8521
72.8685
72.8848
72.9011
72.9175
72.9338
72.9502
72.9665
72.9829
72.9992
73.0156
73.0319
73.0483
73.0646
73.081
73.0974
73.1137
73.1301
73.1465
73.1628
73.1792
73.1956
73.212
73.2283
73.2447
73.2611
73.2775
73.2939
73.3103
73.3266
73.343
73.3594
73.3758
73.3922
73.4086
73.425
73.4414
73.4578
73.4742
73.4906
73.507
73.5234
73.5398
73.5563
73.5727
73.5891
73.6055
73.6219
73.6384
73.6548
73.6712
73.6876
73.7041
73.7205
73.7369
73.7534
73.7698
73.7862
73.8027
73.8191
73.8356
73.852
73.8685
73.8849
73.9014
73.9178
73.9343
73.9507
73.9672
73.9836
74.0001
74.0166
74.033
74.0495
74.066
74.0824
74.0989
74.1154
74.1319
74.1483
74.1648
74.1813
74.1978
74.2143
74.2308
74.2472
74.2637
74.2802
74.2967
74.3132
74.3297
74.3462
74.3627
74.3792
74.3957
74.4122
74.4288
74.4453
74.4618
74.4783
74.4948
74.5113
74.5278
74.5444
74.5609
74.5774
74.5939
74.6105
74.627
74.6435
74.6601
74.6766
74.6931
74.7097
74.7262
74.7428
74.7593
74.7759
74.7924
74.809
74.8255
74.8421
74.8586
74.8752
74.8918
74.9083
74.9249
74.9414
74.958
74.9746
74.9912
75.0077
75.0243
75.0409
75.0575
75.074
75.0906
75.1072
75.1238
75.1404
75.157
75.1736
75.1902
75.2067
75.2233
75.2399
75.2565
75.2731
75.2897
75.3064
75.323
75.3396
75.3562
75.3728
75.3894
75.406
75.4226
75.4393
75.4559
75.4725
75.4891
75.5058
75.5224
75.539
75.5557
75.5723
75.5889
75.6056
75.6222
75.6389
75.6555
75.6722
75.6888
75.7054
75.7221
75.7388
75.7554
75.7721
75.7887
75.8054
75.8221
75.8387
75.8554
75.872
75.8887
75.9054
75.9221
75.9387
75.9554
75.9721
75.9888
76.0055
76.0221
76.0388
76.0555
76.0722
76.0889
76.1056
76.1223
76.139
76.1557
76.1724
76.1891
76.2058
76.2225
76.2392
76.2559
76.2726
76.2894
76.3061
76.3228
76.3395
76.3562
76.373
76.3897
76.4064
76.4231
76.4399
76.4566
76.4733
76.4901
76.5068
76.5235
76.5403
76.557
76.5738
76.5905
76.6073
76.624
76.6408
76.6575
76.6743
76.691
76.7078
76.7246
76.7413
76.7581
76.7749
76.7916
76.8084
76.8252
76.842
76.8587
76.8755
76.8923
76.9091
76.9259
76.9426
76.9594
76.9762
76.993
77.0098
77.0266
77.0434
77.0602
77.077
77.0938
77.1106
77.1274
77.1442
77.161
77.1778
77.1946
77.2115
77.2283
77.2451
77.2619
77.2787
77.2956
77.3124
77.3292
77.3461
77.3629
77.3797
77.3966
77.4134
77.4302
77.4471
77.4639
77.4808
77.4976
77.5145
77.5313
77.5482
77.565
77.5819
77.5987
77.6156
77.6325
77.6493
77.6662
77.683
77.6999
77.7168
77.7337
77.7505
77.7674
77.7843
77.8012
77.8181
77.8349
77.8518
77.8687
77.8856
77.9025
77.9194
77.9363
77.9532
77.9701
77.987
78.0039
78.0208
78.0377
78.0546
78.0715
78.0884
78.1053
78.1222
78.1392
78.1561
78.173
78.1899
78.2068
78.2238
78.2407
78.2576
78.2746
78.2915
78.3084
78.3254
78.3423
78.3593
78.3762
78.3931
78.4101
78.427
78.444
78.4609
78.4779
78.4948
78.5118
78.5288
78.5457
78.5627
78.5797
78.5966
78.6136
78.6306
78.6475
78.6645
78.6815
78.6985
78.7154
78.7324
78.7494
78.7664
78.7834
78.8004
78.8174
78.8344
78.8514
78.8683
78.8854
78.9023
78.9194
78.9364
78.9534
78.9704
78.9874
79.0044
79.0214
79.0384
79.0554
79.0725
79.0895
79.1065
79.1235
79.1405
79.1576
79.1746
79.1916
79.2087
79.2257
79.2427
79.2598
79.2768
79.2939
79.3109
79.328
79.345
79.3621
79.3791
79.3962
79.4132
79.4303
79.4473
79.4644
79.4815
79.4985
79.5156
79.5327
79.5497
79.5668
79.5839
79.601
79.618
79.6351
79.6522
79.6693
79.6864
79.7035
79.7206
79.7377
79.7547
79.7718
79.7889
79.806
79.8231
79.8402
79.8573
79.8745
79.8916
79.9087
79.9258
79.9429
79.96
79.9771
79.9942
80.0114
80.0285
80.0456
80.0627
80.0799
80.097
80.1141
80.1313
80.1484
80.1655
80.1827
80.1998
80.217
80.2341
80.2513
80.2684
80.2856
80.3027
80.3199
80.337
80.3542
80.3714
80.3885
80.4057
80.4228
80.44
80.4572
80.4744
80.4915
80.5087
80.5259
80.5431
80.5602
80.5774
80.5946
80.6118
80.629
80.6462
80.6634
80.6806
80.6978
80.715
80.7322
80.7494
80.7666
80.7838
80.801
80.8182
80.8354
80.8526
80.8698
80.8871
80.9043
80.9215
80.9387
80.956
80.9732
80.9904
81.0076
81.0249
81.0421
81.0593
81.0766
81.0938
81.111
81.1283
81.1455
81.1628
81.18
81.1973
81.2145
81.2318
81.2491
81.2663
81.2836
81.3008
81.3181
81.3354
81.3526
81.3699
81.3872
81.4045
81.4217
81.439
81.4563
81.4736
81.4908
81.5081
81.5254
81.5427
81.56
81.5773
81.5946
81.6119
81.6292
81.6465
81.6638
81.6811
81.6984
81.7157
81.733
81.7503
81.7676
81.785
81.8023
81.8196
81.8369
81.8542
81.8716
81.8889
81.9062
81.9236
81.9409
81.9582
81.9756
81.9929
82.0102
82.0276
82.0449
82.0623
82.0796
82.097
82.1143
82.1317
82.149
82.1664
82.1837
82.2011
82.2185
82.2358
82.2532
82.2706
82.2879
82.3053
82.3227
82.3401
82.3574
82.3748
82.3922
82.4096
82.427
82.4444
82.4618
82.4791
82.4965
82.5139
82.5313
82.5487
82.5661
82.5835
82.6009
82.6184
82.6358
82.6532
82.6706
82.688
82.7054
82.7228
82.7403
82.7577
82.7751
82.7925
82.81
82.8274
82.8448
82.8622
82.8797
82.8971
82.9146
82.932
82.9494
82.9669
82.9843
83.0018
83.0192
83.0367
83.0541
83.0716
83.0891
83.1065