/*--------------------------------*- C++ -*----------------------------------*\
  =========                 |
  \\      /  F ield         | OpenFOAM: The Open Source CFD Toolbox
   \\    /   O peration     | Website:  https://openfoam.org
    \\  /    A nd           | Version:  9
     \\/     M anipulation  |
\*---------------------------------------------------------------------------*/
FoamFile
{
    format      ascii;
    class       volScalarField;
    location    "0.041";
    object      rho;
}
// * * * * * * * * * * * * * * * * * * * * * * * * * * * * * * * * * * * * * //

dimensions      [1 -3 0 0 0 0 0];

internalField   nonuniform List<scalar> 
10000
(
0.203859
0.203856
0.203852
0.203848
0.203845
0.203841
0.203837
0.203833
0.20383
0.203826
0.203822
0.203818
0.203815
0.203811
0.203807
0.203803
0.2038
0.203796
0.203792
0.203788
0.203785
0.203781
0.203777
0.203773
0.20377
0.203766
0.203762
0.203759
0.203755
0.203751
0.203747
0.203744
0.20374
0.203736
0.203733
0.203729
0.203725
0.203721
0.203718
0.203714
0.20371
0.203707
0.203703
0.203699
0.203695
0.203692
0.203688
0.203684
0.203681
0.203677
0.203673
0.20367
0.203666
0.203662
0.203659
0.203655
0.203651
0.203648
0.203644
0.20364
0.203637
0.203633
0.203629
0.203626
0.203622
0.203618
0.203615
0.203611
0.203607
0.203604
0.2036
0.203596
0.203593
0.203589
0.203585
0.203582
0.203578
0.203574
0.203571
0.203567
0.203564
0.20356
0.203557
0.203553
0.203549
0.203546
0.203542
0.203538
0.203534
0.203531
0.203527
0.203524
0.20352
0.203517
0.203513
0.20351
0.203506
0.203503
0.203499
0.203495
0.203491
0.203488
0.203484
0.203481
0.203477
0.203474
0.203471
0.203467
0.203464
0.20346
0.203457
0.203453
0.203449
0.203446
0.203442
0.203438
0.203434
0.203431
0.203427
0.203424
0.203421
0.203417
0.203414
0.203411
0.203408
0.203405
0.203402
0.203398
0.203395
0.203392
0.203388
0.203384
0.203381
0.203377
0.203373
0.203369
0.203365
0.203361
0.203357
0.203354
0.20335
0.203347
0.203344
0.20334
0.203338
0.203335
0.203332
0.20333
0.203328
0.203326
0.203324
0.203322
0.20332
0.203319
0.203317
0.203316
0.203315
0.203313
0.203312
0.203311
0.203309
0.203308
0.203307
0.203306
0.203305
0.203304
0.203303
0.203302
0.203301
0.2033
0.203299
0.203298
0.203297
0.203296
0.203295
0.203294
0.203293
0.203292
0.203292
0.203291
0.20329
0.203289
0.203288
0.203287
0.203286
0.203285
0.203284
0.203283
0.203282
0.203281
0.20328
0.203279
0.203279
0.203278
0.203277
0.203276
0.203275
0.203274
0.203273
0.203272
0.203271
0.20327
0.203269
0.203268
0.203267
0.203266
0.203265
0.203265
0.203264
0.203263
0.203262
0.203261
0.20326
0.203259
0.203258
0.203257
0.203256
0.203255
0.203254
0.203253
0.203252
0.203251
0.20325
0.20325
0.203249
0.203248
0.203247
0.203246
0.203245
0.203244
0.203243
0.203242
0.203241
0.20324
0.203239
0.203238
0.203237
0.203236
0.203236
0.203235
0.203234
0.203233
0.203232
0.203231
0.20323
0.203229
0.203228
0.203227
0.203226
0.203225
0.203224
0.203223
0.203222
0.203221
0.203221
0.20322
0.203219
0.203218
0.203217
0.203216
0.203215
0.203214
0.203213
0.203212
0.203211
0.20321
0.203209
0.203208
0.203207
0.203206
0.203205
0.203205
0.203204
0.203203
0.203202
0.203201
0.2032
0.203199
0.203198
0.203197
0.203196
0.203195
0.203194
0.203193
0.203192
0.203191
0.20319
0.20319
0.203189
0.203188
0.203187
0.203186
0.203185
0.203184
0.203183
0.203182
0.203181
0.20318
0.203179
0.203178
0.203177
0.203176
0.203175
0.203174
0.203174
0.203173
0.203172
0.203171
0.20317
0.203169
0.203168
0.203167
0.203166
0.203165
0.203164
0.203163
0.203162
0.203161
0.20316
0.203159
0.203158
0.203158
0.203157
0.203156
0.203155
0.203154
0.203153
0.203152
0.203151
0.20315
0.203149
0.203148
0.203147
0.203146
0.203145
0.203144
0.203143
0.203142
0.203141
0.203141
0.20314
0.203139
0.203138
0.203137
0.203136
0.203135
0.203134
0.203133
0.203132
0.203131
0.20313
0.203129
0.203128
0.203127
0.203126
0.203125
0.203124
0.203124
0.203123
0.203122
0.203121
0.20312
0.203119
0.203118
0.203117
0.203116
0.203115
0.203114
0.203113
0.203112
0.203111
0.20311
0.203109
0.203108
0.203107
0.203107
0.203106
0.203105
0.203104
0.203103
0.203102
0.203101
0.2031
0.203099
0.203098
0.203097
0.203096
0.203095
0.203094
0.203093
0.203092
0.203091
0.20309
0.203089
0.203089
0.203088
0.203087
0.203086
0.203085
0.203084
0.203083
0.203082
0.203081
0.20308
0.203079
0.203078
0.203077
0.203076
0.203075
0.203074
0.203073
0.203072
0.203071
0.203071
0.20307
0.203069
0.203068
0.203067
0.203066
0.203065
0.203064
0.203063
0.203062
0.203061
0.20306
0.203059
0.203058
0.203057
0.203056
0.203055
0.203054
0.203053
0.203052
0.203052
0.203051
0.20305
0.203049
0.203048
0.203047
0.203046
0.203045
0.203044
0.203043
0.203042
0.203041
0.20304
0.203039
0.203038
0.203037
0.203036
0.203035
0.203034
0.203033
0.203032
0.203032
0.203031
0.20303
0.203029
0.203028
0.203027
0.203026
0.203025
0.203024
0.203023
0.203022
0.203021
0.20302
0.203019
0.203018
0.203017
0.203016
0.203015
0.203014
0.203013
0.203012
0.203012
0.203011
0.20301
0.203009
0.203008
0.203007
0.203006
0.203005
0.203004
0.203003
0.203002
0.203001
0.203
0.202999
0.202998
0.202997
0.202996
0.202995
0.202994
0.202993
0.202992
0.202992
0.202991
0.20299
0.202989
0.202988
0.202987
0.202986
0.202985
0.202984
0.202983
0.202982
0.202981
0.20298
0.202979
0.202978
0.202977
0.202976
0.202975
0.202974
0.202973
0.202972
0.202971
0.202971
0.20297
0.202969
0.202968
0.202967
0.202966
0.202965
0.202964
0.202963
0.202962
0.202961
0.20296
0.202959
0.202958
0.202957
0.202956
0.202955
0.202954
0.202953
0.202952
0.202951
0.20295
0.202949
0.202949
0.202948
0.202947
0.202946
0.202945
0.202944
0.202943
0.202942
0.202941
0.20294
0.202939
0.202938
0.202937
0.202936
0.202935
0.202934
0.202933
0.202932
0.202931
0.20293
0.202929
0.202928
0.202928
0.202926
0.202926
0.202925
0.202924
0.202923
0.202922
0.202921
0.20292
0.202919
0.202918
0.202917
0.202916
0.202915
0.202914
0.202913
0.202912
0.202911
0.20291
0.202909
0.202908
0.202907
0.202906
0.202905
0.202904
0.202903
0.202903
0.202902
0.202901
0.2029
0.202899
0.202898
0.202897
0.202896
0.202895
0.202894
0.202893
0.202892
0.202891
0.20289
0.202889
0.202888
0.202887
0.202886
0.202885
0.202884
0.202883
0.202882
0.202881
0.20288
0.20288
0.202879
0.202878
0.202877
0.202876
0.202875
0.202874
0.202873
0.202872
0.202871
0.20287
0.202869
0.202868
0.202867
0.202866
0.202865
0.202864
0.202863
0.202862
0.202861
0.20286
0.202859
0.202858
0.202857
0.202856
0.202855
0.202855
0.202854
0.202853
0.202852
0.202851
0.20285
0.202849
0.202848
0.202847
0.202846
0.202845
0.202844
0.202843
0.202842
0.202841
0.20284
0.202839
0.202838
0.202837
0.202836
0.202835
0.202834
0.202833
0.202832
0.202831
0.20283
0.202829
0.202829
0.202828
0.202827
0.202826
0.202825
0.202824
0.202823
0.202822
0.202821
0.20282
0.202819
0.202818
0.202817
0.202816
0.202815
0.202814
0.202813
0.202812
0.202811
0.20281
0.202809
0.202808
0.202807
0.202806
0.202805
0.202804
0.202803
0.202802
0.202802
0.202801
0.2028
0.202799
0.202798
0.202797
0.202796
0.202795
0.202794
0.202793
0.202792
0.202791
0.20279
0.202789
0.202788
0.202787
0.202786
0.202785
0.202784
0.202783
0.202782
0.202781
0.20278
0.202779
0.202778
0.202777
0.202776
0.202775
0.202775
0.202774
0.202773
0.202772
0.202771
0.20277
0.202769
0.202768
0.202767
0.202766
0.202765
0.202764
0.202763
0.202762
0.202761
0.20276
0.202759
0.202758
0.202757
0.202756
0.202755
0.202754
0.202753
0.202752
0.202751
0.20275
0.202749
0.202748
0.202747
0.202747
0.202746
0.202745
0.202744
0.202743
0.202742
0.202741
0.20274
0.202739
0.202738
0.202737
0.202736
0.202735
0.202734
0.202733
0.202732
0.202731
0.20273
0.202729
0.202728
0.202727
0.202726
0.202725
0.202724
0.202723
0.202722
0.202721
0.20272
0.202719
0.202718
0.202718
0.202717
0.202716
0.202715
0.202714
0.202713
0.202712
0.202711
0.20271
0.202709
0.202708
0.202707
0.202706
0.202705
0.202704
0.202703
0.202702
0.202701
0.2027
0.202699
0.202698
0.202697
0.202696
0.202695
0.202694
0.202693
0.202692
0.202691
0.20269
0.202689
0.202688
0.202688
0.202687
0.202686
0.202685
0.202684
0.202683
0.202682
0.202681
0.20268
0.202679
0.202678
0.202677
0.202676
0.202675
0.202674
0.202673
0.202672
0.202671
0.20267
0.202669
0.202668
0.202667
0.202666
0.202665
0.202664
0.202663
0.202662
0.202661
0.20266
0.202659
0.202658
0.202658
0.202657
0.202656
0.202655
0.202654
0.202653
0.202652
0.202651
0.20265
0.202649
0.202648
0.202647
0.202646
0.202645
0.202644
0.202643
0.202642
0.202641
0.20264
0.202639
0.202638
0.202637
0.202636
0.202635
0.202634
0.202633
0.202632
0.202631
0.20263
0.202629
0.202628
0.202628
0.202627
0.202626
0.202625
0.202624
0.202623
0.202622
0.202621
0.20262
0.202619
0.202618
0.202617
0.202616
0.202615
0.202614
0.202613
0.202612
0.202611
0.20261
0.202609
0.202608
0.202607
0.202606
0.202605
0.202604
0.202603
0.202602
0.202601
0.2026
0.202599
0.202598
0.202597
0.202597
0.202596
0.202595
0.202594
0.202593
0.202592
0.202591
0.20259
0.202589
0.202588
0.202587
0.202586
0.202585
0.202584
0.202583
0.202582
0.202581
0.20258
0.202579
0.202578
0.202577
0.202576
0.202575
0.202574
0.202573
0.202572
0.202571
0.20257
0.202569
0.202568
0.202567
0.202566
0.202566
0.202565
0.202564
0.202563
0.202562
0.202561
0.20256
0.202559
0.202558
0.202557
0.202556
0.202555
0.202554
0.202553
0.202552
0.202551
0.20255
0.202549
0.202548
0.202547
0.202546
0.202545
0.202544
0.202543
0.202542
0.202541
0.20254
0.202539
0.202538
0.202537
0.202536
0.202536
0.202535
0.202534
0.202533
0.202532
0.202531
0.20253
0.202529
0.202528
0.202527
0.202526
0.202525
0.202524
0.202523
0.202522
0.202521
0.20252
0.202519
0.202518
0.202517
0.202516
0.202515
0.202514
0.202513
0.202512
0.202511
0.20251
0.202509
0.202508
0.202507
0.202507
0.202506
0.202505
0.202504
0.202503
0.202502
0.202501
0.2025
0.202499
0.202498
0.202497
0.202496
0.202495
0.202494
0.202493
0.202492
0.202491
0.20249
0.202489
0.202488
0.202487
0.202486
0.202485
0.202484
0.202483
0.202482
0.202481
0.20248
0.202479
0.202478
0.202478
0.202477
0.202476
0.202475
0.202474
0.202473
0.202472
0.202471
0.20247
0.202469
0.202468
0.202467
0.202466
0.202465
0.202464
0.202463
0.202462
0.202461
0.20246
0.202459
0.202458
0.202457
0.202456
0.202455
0.202454
0.202453
0.202452
0.202451
0.202451
0.20245
0.202449
0.202448
0.202447
0.202446
0.202445
0.202444
0.202443
0.202442
0.202441
0.20244
0.202439
0.202438
0.202437
0.202436
0.202435
0.202434
0.202433
0.202432
0.202431
0.20243
0.202429
0.202428
0.202427
0.202426
0.202425
0.202425
0.202424
0.202423
0.202422
0.202421
0.20242
0.202419
0.202418
0.202417
0.202416
0.202415
0.202414
0.202413
0.202412
0.202411
0.20241
0.202409
0.202408
0.202407
0.202406
0.202405
0.202404
0.202403
0.202402
0.202401
0.2024
0.2024
0.202399
0.202398
0.202397
0.202396
0.202395
0.202394
0.202393
0.202392
0.202391
0.20239
0.202389
0.202388
0.202387
0.202386
0.202385
0.202384
0.202383
0.202382
0.202381
0.20238
0.202379
0.202378
0.202377
0.202377
0.202376
0.202375
0.202374
0.202373
0.202372
0.202371
0.20237
0.202369
0.202368
0.202367
0.202366
0.202365
0.202364
0.202363
0.202362
0.202361
0.20236
0.202359
0.202358
0.202357
0.202356
0.202355
0.202355
0.202354
0.202353
0.202352
0.202351
0.20235
0.202349
0.202348
0.202347
0.202346
0.202345
0.202344
0.202343
0.202342
0.202341
0.20234
0.202339
0.202338
0.202337
0.202336
0.202335
0.202334
0.202334
0.202333
0.202332
0.202331
0.20233
0.202329
0.202328
0.202327
0.202326
0.202325
0.202324
0.202323
0.202322
0.202321
0.20232
0.202319
0.202318
0.202317
0.202316
0.202315
0.202314
0.202314
0.202313
0.202312
0.202311
0.20231
0.202309
0.202308
0.202307
0.202306
0.202305
0.202304
0.202303
0.202302
0.202301
0.2023
0.202299
0.202298
0.202297
0.202296
0.202296
0.202295
0.202294
0.202293
0.202292
0.202291
0.20229
0.202289
0.202288
0.202287
0.202286
0.202285
0.202284
0.202283
0.202282
0.202281
0.20228
0.202279
0.202279
0.202278
0.202277
0.202276
0.202275
0.202274
0.202273
0.202272
0.202271
0.20227
0.202269
0.202268
0.202267
0.202266
0.202265
0.202264
0.202263
0.202262
0.202262
0.202261
0.20226
0.202259
0.202258
0.202257
0.202256
0.202255
0.202254
0.202253
0.202252
0.202251
0.20225
0.202249
0.202248
0.202247
0.202247
0.202246
0.202245
0.202244
0.202243
0.202242
0.202241
0.20224
0.202239
0.202238
0.202237
0.202236
0.202235
0.202234
0.202233
0.202232
0.202232
0.202231
0.20223
0.202229
0.202228
0.202227
0.202226
0.202225
0.202224
0.202223
0.202222
0.202221
0.20222
0.202219
0.202219
0.202218
0.202217
0.202216
0.202215
0.202214
0.202213
0.202212
0.202211
0.20221
0.202209
0.202208
0.202207
0.202206
0.202205
0.202205
0.202204
0.202203
0.202202
0.202201
0.2022
0.202199
0.202198
0.202197
0.202196
0.202195
0.202194
0.202193
0.202193
0.202192
0.202191
0.20219
0.202189
0.202188
0.202187
0.202186
0.202185
0.202184
0.202183
0.202182
0.202181
0.202181
0.20218
0.202179
0.202178
0.202177
0.202176
0.202175
0.202174
0.202173
0.202172
0.202171
0.20217
0.20217
0.202169
0.202168
0.202167
0.202166
0.202165
0.202164
0.202163
0.202162
0.202161
0.20216
0.202159
0.202159
0.202158
0.202157
0.202156
0.202155
0.202154
0.202153
0.202152
0.202151
0.20215
0.202149
0.202149
0.202148
0.202147
0.202146
0.202145
0.202144
0.202143
0.202142
0.202141
0.20214
0.202139
0.202139
0.202138
0.202137
0.202136
0.202135
0.202134
0.202133
0.202132
0.202131
0.20213
0.20213
0.202129
0.202128
0.202127
0.202126
0.202125
0.202124
0.202123
0.202122
0.202121
0.202121
0.20212
0.202119
0.202118
0.202117
0.202116
0.202115
0.202114
0.202113
0.202113
0.202112
0.202111
0.20211
0.202109
0.202108
0.202107
0.202106
0.202105
0.202104
0.202104
0.202103
0.202102
0.202101
0.2021
0.202099
0.202098
0.202097
0.202096
0.202096
0.202095
0.202094
0.202093
0.202092
0.202091
0.20209
0.202089
0.202089
0.202088
0.202087
0.202086
0.202085
0.202084
0.202083
0.202082
0.202081
0.202081
0.20208
0.202079
0.202078
0.202077
0.202076
0.202075
0.202074
0.202074
0.202073
0.202072
0.202071
0.20207
0.202069
0.202068
0.202067
0.202067
0.202066
0.202065
0.202064
0.202063
0.202062
0.202061
0.202061
0.20206
0.202059
0.202058
0.202057
0.202056
0.202055
0.202054
0.202054
0.202053
0.202052
0.202051
0.20205
0.202049
0.202048
0.202048
0.202047
0.202046
0.202045
0.202044
0.202043
0.202042
0.202042
0.202041
0.20204
0.202039
0.202038
0.202037
0.202037
0.202036
0.202035
0.202034
0.202033
0.202032
0.202031
0.202031
0.20203
0.202029
0.202028
0.202027
0.202026
0.202025
0.202025
0.202024
0.202023
0.202022
0.202021
0.20202
0.20202
0.202019
0.202018
0.202017
0.202016
0.202015
0.202015
0.202014
0.202013
0.202012
0.202011
0.20201
0.20201
0.202009
0.202008
0.202007
0.202006
0.202005
0.202005
0.202004
0.202003
0.202002
0.202001
0.202001
0.202
0.201999
0.201998
0.201997
0.201996
0.201996
0.201995
0.201994
0.201993
0.201992
0.201992
0.201991
0.20199
0.201989
0.201988
0.201987
0.201987
0.201986
0.201985
0.201984
0.201983
0.201983
0.201982
0.201981
0.20198
0.201979
0.201979
0.201978
0.201977
0.201976
0.201975
0.201975
0.201974
0.201973
0.201972
0.201971
0.201971
0.20197
0.201969
0.201968
0.201967
0.201967
0.201966
0.201965
0.201964
0.201964
0.201963
0.201962
0.201961
0.20196
0.20196
0.201959
0.201958
0.201957
0.201956
0.201956
0.201955
0.201954
0.201953
0.201953
0.201952
0.201951
0.20195
0.20195
0.201949
0.201948
0.201947
0.201946
0.201946
0.201945
0.201944
0.201943
0.201943
0.201942
0.201941
0.20194
0.20194
0.201939
0.201938
0.201937
0.201937
0.201936
0.201935
0.201934
0.201934
0.201933
0.201932
0.201931
0.201931
0.20193
0.201929
0.201928
0.201928
0.201927
0.201926
0.201925
0.201925
0.201924
0.201923
0.201923
0.201922
0.201921
0.20192
0.20192
0.201919
0.201918
0.201917
0.201917
0.201916
0.201915
0.201915
0.201914
0.201913
0.201912
0.201912
0.201911
0.20191
0.20191
0.201909
0.201908
0.201907
0.201907
0.201906
0.201905
0.201905
0.201904
0.201903
0.201903
0.201902
0.201901
0.2019
0.2019
0.201899
0.201898
0.201898
0.201897
0.201896
0.201896
0.201895
0.201894
0.201894
0.201893
0.201892
0.201892
0.201891
0.20189
0.20189
0.201889
0.201888
0.201888
0.201887
0.201886
0.201886
0.201885
0.201884
0.201884
0.201883
0.201882
0.201882
0.201881
0.20188
0.20188
0.201879
0.201878
0.201878
0.201877
0.201876
0.201876
0.201875
0.201875
0.201874
0.201873
0.201873
0.201872
0.201871
0.201871
0.20187
0.20187
0.201869
0.201868
0.201868
0.201867
0.201866
0.201866
0.201865
0.201865
0.201864
0.201863
0.201863
0.201862
0.201862
0.201861
0.20186
0.20186
0.201859
0.201859
0.201858
0.201857
0.201857
0.201856
0.201856
0.201855
0.201855
0.201854
0.201853
0.201853
0.201852
0.201852
0.201851
0.201851
0.20185
0.201849
0.201849
0.201848
0.201848
0.201847
0.201847
0.201846
0.201846
0.201845
0.201844
0.201844
0.201843
0.201843
0.201842
0.201842
0.201841
0.201841
0.20184
0.20184
0.201839
0.201839
0.201838
0.201838
0.201837
0.201837
0.201836
0.201836
0.201835
0.201834
0.201834
0.201833
0.201833
0.201833
0.201832
0.201832
0.201831
0.201831
0.20183
0.20183
0.201829
0.201829
0.201828
0.201828
0.201827
0.201827
0.201826
0.201826
0.201825
0.201825
0.201824
0.201824
0.201824
0.201823
0.201823
0.201822
0.201822
0.201821
0.201821
0.201821
0.20182
0.20182
0.201819
0.201819
0.201818
0.201818
0.201818
0.201817
0.201817
0.201816
0.201816
0.201816
0.201815
0.201815
0.201814
0.201814
0.201814
0.201813
0.201813
0.201813
0.201812
0.201812
0.201811
0.201811
0.201811
0.20181
0.20181
0.20181
0.201809
0.201809
0.201809
0.201808
0.201808
0.201808
0.201807
0.201807
0.201807
0.201806
0.201806
0.201806
0.201805
0.201805
0.201805
0.201804
0.201804
0.201804
0.201804
0.201803
0.201803
0.201803
0.201802
0.201802
0.201802
0.201802
0.201801
0.201801
0.201801
0.201801
0.2018
0.2018
0.2018
0.2018
0.201799
0.201799
0.201799
0.201799
0.201799
0.201798
0.201798
0.201798
0.201798
0.201798
0.201797
0.201797
0.201797
0.201797
0.201797
0.201796
0.201796
0.201796
0.201796
0.201796
0.201796
0.201795
0.201795
0.201795
0.201795
0.201795
0.201795
0.201795
0.201795
0.201794
0.201794
0.201794
0.201794
0.201794
0.201794
0.201794
0.201794
0.201794
0.201794
0.201794
0.201794
0.201793
0.201793
0.201793
0.201793
0.201793
0.201793
0.201793
0.201793
0.201793
0.201793
0.201793
0.201793
0.201793
0.201793
0.201793
0.201793
0.201793
0.201793
0.201793
0.201793
0.201793
0.201793
0.201793
0.201793
0.201793
0.201794
0.201794
0.201794
0.201794
0.201794
0.201794
0.201794
0.201794
0.201794
0.201794
0.201794
0.201795
0.201795
0.201795
0.201795
0.201795
0.201795
0.201795
0.201796
0.201796
0.201796
0.201796
0.201796
0.201797
0.201797
0.201797
0.201797
0.201797
0.201798
0.201798
0.201798
0.201798
0.201799
0.201799
0.201799
0.201799
0.2018
0.2018
0.2018
0.201801
0.201801
0.201801
0.201801
0.201802
0.201802
0.201802
0.201803
0.201803
0.201804
0.201804
0.201804
0.201805
0.201805
0.201805
0.201806
0.201806
0.201807
0.201807
0.201808
0.201808
0.201808
0.201809
0.201809
0.20181
0.20181
0.201811
0.201811
0.201812
0.201812
0.201813
0.201813
0.201814
0.201814
0.201815
0.201816
0.201816
0.201817
0.201817
0.201818
0.201819
0.201819
0.20182
0.20182
0.201821
0.201822
0.201822
0.201823
0.201824
0.201824
0.201825
0.201826
0.201826
0.201827
0.201828
0.201829
0.201829
0.20183
0.201831
0.201832
0.201833
0.201833
0.201834
0.201835
0.201836
0.201837
0.201837
0.201838
0.201839
0.20184
0.201841
0.201842
0.201843
0.201844
0.201845
0.201846
0.201846
0.201847
0.201848
0.201849
0.20185
0.201851
0.201852
0.201853
0.201854
0.201856
0.201857
0.201858
0.201859
0.20186
0.201861
0.201862
0.201863
0.201864
0.201865
0.201867
0.201868
0.201869
0.20187
0.201871
0.201873
0.201874
0.201875
0.201876
0.201878
0.201879
0.20188
0.201882
0.201883
0.201884
0.201886
0.201887
0.201888
0.20189
0.201891
0.201893
0.201894
0.201895
0.201897
0.201898
0.2019
0.201901
0.201903
0.201904
0.201906
0.201908
0.201909
0.201911
0.201912
0.201914
0.201916
0.201917
0.201919
0.201921
0.201922
0.201924
0.201926
0.201927
0.201929
0.201931
0.201933
0.201935
0.201936
0.201938
0.20194
0.201942
0.201944
0.201946
0.201948
0.201949
0.201951
0.201953
0.201955
0.201957
0.201959
0.201961
0.201963
0.201966
0.201968
0.20197
0.201972
0.201974
0.201976
0.201978
0.201981
0.201983
0.201985
0.201987
0.201989
0.201992
0.201994
0.201996
0.201999
0.202001
0.202003
0.202006
0.202008
0.202011
0.202013
0.202016
0.202018
0.202021
0.202023
0.202026
0.202028
0.202031
0.202033
0.202036
0.202039
0.202041
0.202044
0.202047
0.20205
0.202052
0.202055
0.202058
0.202061
0.202064
0.202066
0.202069
0.202072
0.202075
0.202078
0.202081
0.202084
0.202087
0.20209
0.202093
0.202096
0.202099
0.202103
0.202106
0.202109
0.202112
0.202115
0.202119
0.202122
0.202125
0.202129
0.202132
0.202135
0.202139
0.202142
0.202146
0.202149
0.202153
0.202156
0.20216
0.202163
0.202167
0.20217
0.202174
0.202178
0.202181
0.202185
0.202189
0.202193
0.202196
0.2022
0.202204
0.202208
0.202212
0.202216
0.20222
0.202224
0.202228
0.202232
0.202236
0.20224
0.202244
0.202248
0.202253
0.202257
0.202261
0.202265
0.20227
0.202274
0.202278
0.202283
0.202287
0.202292
0.202296
0.202301
0.202305
0.20231
0.202314
0.202319
0.202324
0.202328
0.202333
0.202338
0.202342
0.202347
0.202352
0.202357
0.202362
0.202367
0.202372
0.202377
0.202382
0.202387
0.202392
0.202397
0.202402
0.202407
0.202412
0.202418
0.202423
0.202428
0.202433
0.202439
0.202444
0.20245
0.202455
0.202461
0.202466
0.202472
0.202477
0.202483
0.202488
0.202494
0.2025
0.202506
0.202511
0.202517
0.202523
0.202529
0.202535
0.202541
0.202547
0.202553
0.202559
0.202565
0.202571
0.202577
0.202583
0.202589
0.202596
0.202602
0.202608
0.202615
0.202621
0.202627
0.202634
0.20264
0.202647
0.202653
0.20266
0.202666
0.202673
0.20268
0.202686
0.202693
0.2027
0.202707
0.202714
0.20272
0.202727
0.202734
0.202741
0.202748
0.202755
0.202762
0.202769
0.202777
0.202784
0.202791
0.202798
0.202805
0.202813
0.20282
0.202827
0.202835
0.202842
0.20285
0.202857
0.202865
0.202872
0.20288
0.202887
0.202895
0.202903
0.20291
0.202918
0.202926
0.202934
0.202942
0.202949
0.202957
0.202965
0.202973
0.202981
0.202989
0.202997
0.203005
0.203014
0.203022
0.20303
0.203038
0.203046
0.203055
0.203063
0.203071
0.20308
0.203088
0.203096
0.203105
0.203113
0.203122
0.20313
0.203139
0.203147
0.203156
0.203165
0.203173
0.203182
0.203191
0.2032
0.203208
0.203217
0.203226
0.203235
0.203244
0.203253
0.203262
0.203271
0.20328
0.203289
0.203298
0.203307
0.203316
0.203325
0.203334
0.203343
0.203352
0.203362
0.203371
0.20338
0.203389
0.203399
0.203408
0.203417
0.203427
0.203436
0.203446
0.203455
0.203465
0.203474
0.203484
0.203493
0.203503
0.203512
0.203522
0.203531
0.203541
0.203551
0.20356
0.20357
0.20358
0.20359
0.203599
0.203609
0.203619
0.203629
0.203638
0.203648
0.203658
0.203668
0.203678
0.203688
0.203698
0.203708
0.203718
0.203728
0.203738
0.203748
0.203758
0.203768
0.203778
0.203788
0.203798
0.203808
0.203818
0.203828
0.203839
0.203849
0.203859
0.203869
0.203879
0.20389
0.2039
0.20391
0.20392
0.203931
0.203941
0.203951
0.203961
0.203972
0.203982
0.203992
0.204003
0.204013
0.204024
0.204034
0.204044
0.204055
0.204065
0.204076
0.204086
0.204097
0.204107
0.204117
0.204128
0.204138
0.204149
0.204159
0.20417
0.204181
0.204191
0.204202
0.204212
0.204223
0.204233
0.204244
0.204254
0.204265
0.204276
0.204286
0.204297
0.204307
0.204318
0.204329
0.204339
0.20435
0.204361
0.204371
0.204382
0.204393
0.204403
0.204414
0.204425
0.204435
0.204446
0.204457
0.204468
0.204478
0.204489
0.2045
0.204511
0.204521
0.204532
0.204543
0.204554
0.204564
0.204575
0.204586
0.204597
0.204607
0.204618
0.204629
0.20464
0.204651
0.204661
0.204672
0.204683
0.204694
0.204705
0.204715
0.204726
0.204737
0.204748
0.204759
0.20477
0.20478
0.204791
0.204802
0.204813
0.204824
0.204835
0.204845
0.204856
0.204867
0.204878
0.204889
0.2049
0.204911
0.204922
0.204932
0.204943
0.204954
0.204965
0.204976
0.204987
0.204998
0.205009
0.205019
0.20503
0.205041
0.205052
0.205063
0.205074
0.205085
0.205096
0.205107
0.205118
0.205129
0.205139
0.20515
0.205161
0.205172
0.205183
0.205194
0.205205
0.205216
0.205227
0.205238
0.205249
0.20526
0.205271
0.205281
0.205292
0.205303
0.205314
0.205325
0.205336
0.205347
0.205358
0.205369
0.20538
0.205391
0.205402
0.205413
0.205424
0.205435
0.205446
0.205457
0.205468
0.205478
0.20549
0.2055
0.205512
0.205522
0.205533
0.205544
0.205555
0.205566
0.205577
0.205588
0.205599
0.20561
0.205621
0.205632
0.205643
0.205654
0.205665
0.205676
0.205687
0.205698
0.205709
0.20572
0.205731
0.205742
0.205753
0.205764
0.205775
0.205786
0.205797
0.205808
0.205819
0.20583
0.205841
0.205852
0.205863
0.205874
0.205885
0.205896
0.205907
0.205917
0.205929
0.205939
0.205951
0.205961
0.205973
0.205983
0.205995
0.206005
0.206017
0.206027
0.206039
0.206049
0.206061
0.206071
0.206083
0.206093
0.206105
0.206115
0.206127
0.206137
0.206149
0.20616
0.206171
0.206182
0.206193
0.206204
0.206215
0.206226
0.206237
0.206248
0.206259
0.20627
0.206281
0.206292
0.206303
0.206314
0.206325
0.206336
0.206347
0.206358
0.206369
0.20638
0.206391
0.206402
0.206414
0.206424
0.206436
0.206446
0.206458
0.206468
0.20648
0.20649
0.206502
0.206512
0.206524
0.206534
0.206546
0.206556
0.206568
0.206578
0.20659
0.2066
0.206612
0.206622
0.206634
0.206645
0.206656
0.206667
0.206678
0.206689
0.206701
0.206711
0.206723
0.206733
0.206745
0.206755
0.206767
0.206777
0.206789
0.206799
0.206811
0.206821
0.206833
0.206843
0.206855
0.206866
0.206877
0.206888
0.2069
0.20691
0.206922
0.206932
0.206944
0.206954
0.206966
0.206976
0.206988
0.206998
0.20701
0.20702
0.207032
0.207042
0.207055
0.207065
0.207077
0.207087
0.207099
0.207109
0.207121
0.207131
0.207143
0.207153
0.207165
0.207175
0.207187
0.207197
0.20721
0.20722
0.207232
0.207242
0.207254
0.207264
0.207276
0.207286
0.207298
0.207308
0.20732
0.20733
0.207343
0.207353
0.207365
0.207375
0.207387
0.207397
0.207409
0.207419
0.207431
0.207441
0.207454
0.207463
0.207476
0.207486
0.207498
0.207508
0.20752
0.20753
0.207542
0.207552
0.207564
0.207574
0.207587
0.207597
0.207609
0.207619
0.207631
0.207641
0.207653
0.207663
0.207675
0.207686
0.207697
0.207708
0.20772
0.20773
0.207742
0.207753
0.207764
0.207775
0.207786
0.207797
0.207808
0.207819
0.207831
0.207842
0.207853
0.207864
0.207875
0.207886
0.207897
0.207908
0.20792
0.207931
0.207942
0.207953
0.207964
0.207975
0.207986
0.207997
0.208009
0.20802
0.208031
0.208042
0.208053
0.208064
0.208075
0.208086
0.208098
0.208109
0.20812
0.208131
0.208142
0.208153
0.208164
0.208176
0.208187
0.208198
0.208209
0.20822
0.208231
0.208242
0.208254
0.208265
0.208276
0.208287
0.208298
0.208309
0.20832
0.208332
0.208343
0.208354
0.208365
0.208376
0.208387
0.208398
0.20841
0.208421
0.208432
0.208443
0.208454
0.208465
0.208477
0.208488
0.208499
0.20851
0.208521
0.208532
0.208544
0.208555
0.208566
0.208577
0.208588
0.208599
0.208611
0.208622
0.208633
0.208644
0.208655
0.208666
0.208678
0.208689
0.2087
0.208711
0.208722
0.208733
0.208745
0.208756
0.208767
0.208778
0.208789
0.2088
0.208812
0.208823
0.208834
0.208845
0.208856
0.208868
0.208879
0.20889
0.208901
0.208912
0.208923
0.208935
0.208946
0.208957
0.208968
0.208979
0.208991
0.209002
0.209013
0.209024
0.209035
0.209047
0.209058
0.209069
0.20908
0.209091
0.209103
0.209114
0.209125
0.209136
0.209147
0.209159
0.20917
0.209181
0.209192
0.209203
0.209215
0.209226
0.209237
0.209248
0.209259
0.209271
0.209282
0.209293
0.209304
0.209315
0.209327
0.209338
0.209349
0.20936
0.209371
0.209383
0.209394
0.209405
0.209416
0.209428
0.209439
0.20945
0.209461
0.209472
0.209484
0.209495
0.209506
0.209517
0.209529
0.20954
0.209551
0.209562
0.209573
0.209585
0.209596
0.209607
0.209618
0.20963
0.209641
0.209652
0.209663
0.209675
0.209686
0.209697
0.209708
0.209719
0.209731
0.209742
0.209753
0.209764
0.209776
0.209787
0.209798
0.209809
0.209821
0.209832
0.209843
0.209854
0.209866
0.209877
0.209888
0.209899
0.209911
0.209922
0.209933
0.209944
0.209956
0.209967
0.209978
0.209989
0.210001
0.210012
0.210023
0.210034
0.210046
0.210057
0.210068
0.210079
0.210091
0.210102
0.210113
0.210124
0.210136
0.210147
0.210158
0.210169
0.210181
0.210192
0.210203
0.210215
0.210226
0.210237
0.210248
0.21026
0.210271
0.210282
0.210293
0.210305
0.210316
0.210327
0.210338
0.21035
0.210361
0.210372
0.210384
0.210395
0.210406
0.210417
0.210429
0.21044
0.210451
0.210463
0.210474
0.210485
0.210496
0.210508
0.210519
0.21053
0.210542
0.210553
0.210564
0.210575
0.210587
0.210598
0.210609
0.210621
0.210632
0.210643
0.210654
0.210666
0.210677
0.210688
0.2107
0.210711
0.210722
0.210734
0.210745
0.210756
0.210767
0.210779
0.21079
0.210801
0.210813
0.210824
0.210835
0.210847
0.210858
0.210869
0.21088
0.210892
0.210903
0.210914
0.210926
0.210937
0.210948
0.21096
0.210971
0.210982
0.210994
0.211005
0.211016
0.211028
0.211039
0.21105
0.211061
0.211073
0.211084
0.211095
0.211107
0.211118
0.211129
0.211141
0.211152
0.211163
0.211175
0.211186
0.211197
0.211209
0.21122
0.211231
0.211243
0.211254
0.211265
0.211277
0.211288
0.211299
0.211311
0.211322
0.211333
0.211345
0.211356
0.211367
0.211379
0.21139
0.211401
0.211413
0.211424
0.211435
0.211447
0.211458
0.211469
0.211481
0.211492
0.211503
0.211515
0.211526
0.211537
0.211549
0.21156
0.211572
0.211583
0.211594
0.211606
0.211617
0.211628
0.21164
0.211651
0.211662
0.211674
0.211685
0.211696
0.211708
0.211719
0.211731
0.211742
0.211753
0.211765
0.211776
0.211787
0.211799
0.21181
0.211821
0.211833
0.211844
0.211856
0.211867
0.211878
0.21189
0.211901
0.211912
0.211924
0.211935
0.211946
0.211958
0.211969
0.211981
0.211992
0.212003
0.212015
0.212026
0.212037
0.212049
0.21206
0.212072
0.212083
0.212094
0.212106
0.212117
0.212129
0.21214
0.212151
0.212163
0.212174
0.212185
0.212197
0.212208
0.21222
0.212231
0.212242
0.212254
0.212265
0.212277
0.212288
0.212299
0.212311
0.212322
0.212334
0.212345
0.212356
0.212368
0.212379
0.212391
0.212402
0.212413
0.212425
0.212436
0.212448
0.212459
0.21247
0.212482
0.212493
0.212505
0.212516
0.212527
0.212539
0.21255
0.212562
0.212573
0.212585
0.212596
0.212607
0.212619
0.21263
0.212642
0.212653
0.212664
0.212676
0.212687
0.212699
0.21271
0.212722
0.212733
0.212744
0.212756
0.212767
0.212779
0.21279
0.212801
0.212813
0.212824
0.212836
0.212847
0.212859
0.21287
0.212881
0.212893
0.212904
0.212916
0.212927
0.212939
0.21295
0.212962
0.212973
0.212984
0.212996
0.213007
0.213019
0.21303
0.213042
0.213053
0.213064
0.213076
0.213087
0.213099
0.21311
0.213122
0.213133
0.213145
0.213156
0.213167
0.213179
0.21319
0.213202
0.213213
0.213225
0.213236
0.213248
0.213259
0.213271
0.213282