/*--------------------------------*- C++ -*----------------------------------*\
  =========                 |
  \\      /  F ield         | OpenFOAM: The Open Source CFD Toolbox
   \\    /   O peration     | Website:  https://openfoam.org
    \\  /    A nd           | Version:  9
     \\/     M anipulation  |
\*---------------------------------------------------------------------------*/
FoamFile
{
    format      ascii;
    class       volScalarField;
    location    "0.041";
    object      T;
}
// * * * * * * * * * * * * * * * * * * * * * * * * * * * * * * * * * * * * * //

dimensions      [0 0 0 1 0 0 0];

internalField   nonuniform List<scalar> 
10000
(
183.796
183.797
183.8
183.802
183.804
183.806
183.808
183.811
183.813
183.815
183.817
183.82
183.822
183.824
183.826
183.828
183.831
183.833
183.835
183.837
183.839
183.842
183.844
183.846
183.848
183.85
183.853
183.855
183.857
183.859
183.861
183.863
183.866
183.868
183.87
183.872
183.874
183.877
183.879
183.881
183.883
183.885
183.887
183.89
183.892
183.894
183.896
183.898
183.9
183.903
183.905
183.907
183.909
183.911
183.913
183.915
183.918
183.92
183.922
183.924
183.926
183.928
183.93
183.933
183.935
183.937
183.939
183.941
183.943
183.945
183.948
183.95
183.952
183.954
183.956
183.958
183.96
183.962
183.965
183.967
183.969
183.971
183.973
183.975
183.977
183.979
183.981
183.983
183.986
183.988
183.99
183.992
183.994
183.996
183.998
184
184.002
184.004
184.006
184.008
184.01
184.013
184.015
184.017
184.019
184.02
184.022
184.024
184.026
184.028
184.03
184.032
184.034
184.036
184.039
184.041
184.043
184.045
184.047
184.049
184.051
184.053
184.054
184.056
184.058
184.059
184.061
184.063
184.065
184.067
184.069
184.071
184.073
184.075
184.078
184.08
184.082
184.085
184.087
184.089
184.091
184.093
184.095
184.096
184.098
184.099
184.1
184.101
184.102
184.103
184.103
184.104
184.104
184.104
184.104
184.104
184.104
184.104
184.104
184.104
184.104
184.104
184.104
184.104
184.104
184.104
184.103
184.103
184.103
184.102
184.102
184.102
184.101
184.101
184.1
184.1
184.1
184.099
184.099
184.099
184.098
184.098
184.098
184.097
184.097
184.097
184.096
184.096
184.096
184.095
184.095
184.095
184.094
184.094
184.094
184.093
184.093
184.093
184.092
184.092
184.092
184.091
184.091
184.091
184.09
184.09
184.09
184.089
184.089
184.089
184.088
184.088
184.088
184.087
184.087
184.086
184.086
184.086
184.085
184.085
184.085
184.084
184.084
184.084
184.083
184.083
184.083
184.082
184.082
184.082
184.081
184.081
184.081
184.08
184.08
184.08
184.079
184.079
184.079
184.078
184.078
184.078
184.077
184.077
184.077
184.076
184.076
184.076
184.075
184.075
184.075
184.074
184.074
184.074
184.073
184.073
184.072
184.072
184.072
184.071
184.071
184.071
184.07
184.07
184.07
184.069
184.069
184.069
184.068
184.068
184.068
184.067
184.067
184.067
184.066
184.066
184.066
184.065
184.065
184.065
184.064
184.064
184.064
184.063
184.063
184.063
184.062
184.062
184.062
184.061
184.061
184.06
184.06
184.06
184.059
184.059
184.059
184.058
184.058
184.058
184.057
184.057
184.057
184.056
184.056
184.056
184.055
184.055
184.055
184.054
184.054
184.054
184.053
184.053
184.053
184.052
184.052
184.052
184.051
184.051
184.051
184.05
184.05
184.05
184.049
184.049
184.048
184.048
184.048
184.047
184.047
184.047
184.046
184.046
184.046
184.045
184.045
184.045
184.044
184.044
184.044
184.043
184.043
184.043
184.042
184.042
184.042
184.041
184.041
184.041
184.04
184.04
184.04
184.039
184.039
184.038
184.038
184.038
184.037
184.037
184.037
184.036
184.036
184.036
184.035
184.035
184.035
184.034
184.034
184.034
184.033
184.033
184.033
184.032
184.032
184.032
184.031
184.031
184.031
184.03
184.03
184.03
184.029
184.029
184.028
184.028
184.028
184.027
184.027
184.027
184.026
184.026
184.026
184.025
184.025
184.025
184.024
184.024
184.024
184.023
184.023
184.023
184.022
184.022
184.022
184.021
184.021
184.021
184.02
184.02
184.019
184.019
184.019
184.018
184.018
184.018
184.017
184.017
184.017
184.016
184.016
184.016
184.015
184.015
184.015
184.014
184.014
184.014
184.013
184.013
184.013
184.012
184.012
184.012
184.011
184.011
184.01
184.01
184.01
184.009
184.009
184.009
184.008
184.008
184.008
184.007
184.007
184.007
184.006
184.006
184.006
184.005
184.005
184.005
184.004
184.004
184.004
184.003
184.003
184.002
184.002
184.002
184.001
184.001
184.001
184
184
184
183.999
183.999
183.999
183.998
183.998
183.998
183.997
183.997
183.997
183.996
183.996
183.996
183.995
183.995
183.994
183.994
183.994
183.993
183.993
183.993
183.992
183.992
183.992
183.991
183.991
183.991
183.99
183.99
183.99
183.989
183.989
183.989
183.988
183.988
183.988
183.987
183.987
183.986
183.986
183.986
183.985
183.985
183.985
183.984
183.984
183.984
183.983
183.983
183.983
183.982
183.982
183.982
183.981
183.981
183.981
183.98
183.98
183.98
183.979
183.979
183.978
183.978
183.978
183.977
183.977
183.977
183.976
183.976
183.976
183.975
183.975
183.975
183.974
183.974
183.974
183.973
183.973
183.972
183.972
183.972
183.972
183.971
183.971
183.97
183.97
183.97
183.969
183.969
183.969
183.968
183.968
183.968
183.967
183.967
183.967
183.966
183.966
183.965
183.965
183.965
183.965
183.964
183.964
183.963
183.963
183.963
183.962
183.962
183.962
183.961
183.961
183.961
183.96
183.96
183.96
183.959
183.959
183.959
183.958
183.958
183.957
183.957
183.957
183.956
183.956
183.956
183.955
183.955
183.955
183.954
183.954
183.954
183.953
183.953
183.953
183.952
183.952
183.952
183.951
183.951
183.95
183.95
183.95
183.949
183.949
183.949
183.948
183.948
183.948
183.947
183.947
183.947
183.946
183.946
183.946
183.945
183.945
183.945
183.944
183.944
183.943
183.943
183.943
183.942
183.942
183.942
183.941
183.941
183.941
183.94
183.94
183.94
183.939
183.939
183.939
183.938
183.938
183.937
183.937
183.937
183.936
183.936
183.936
183.935
183.935
183.935
183.934
183.934
183.934
183.933
183.933
183.933
183.932
183.932
183.932
183.931
183.931
183.93
183.93
183.93
183.929
183.929
183.929
183.928
183.928
183.928
183.927
183.927
183.927
183.926
183.926
183.926
183.925
183.925
183.924
183.924
183.924
183.923
183.923
183.923
183.922
183.922
183.922
183.921
183.921
183.921
183.92
183.92
183.92
183.919
183.919
183.919
183.918
183.918
183.917
183.917
183.917
183.916
183.916
183.916
183.915
183.915
183.915
183.914
183.914
183.914
183.913
183.913
183.913
183.912
183.912
183.911
183.911
183.911
183.91
183.91
183.91
183.909
183.909
183.909
183.908
183.908
183.908
183.907
183.907
183.907
183.906
183.906
183.905
183.905
183.905
183.904
183.904
183.904
183.903
183.903
183.903
183.902
183.902
183.902
183.901
183.901
183.901
183.9
183.9
183.899
183.899
183.899
183.898
183.898
183.898
183.897
183.897
183.897
183.896
183.896
183.896
183.895
183.895
183.895
183.894
183.894
183.893
183.893
183.893
183.892
183.892
183.892
183.891
183.891
183.891
183.89
183.89
183.89
183.889
183.889
183.889
183.888
183.888
183.887
183.887
183.887
183.886
183.886
183.886
183.885
183.885
183.885
183.884
183.884
183.884
183.883
183.883
183.883
183.882
183.882
183.881
183.881
183.881
183.88
183.88
183.88
183.879
183.879
183.879
183.878
183.878
183.878
183.877
183.877
183.877
183.876
183.876
183.875
183.875
183.875
183.874
183.874
183.874
183.873
183.873
183.873
183.872
183.872
183.872
183.871
183.871
183.871
183.87
183.87
183.869
183.869
183.869
183.868
183.868
183.868
183.867
183.867
183.867
183.866
183.866
183.866
183.865
183.865
183.864
183.864
183.864
183.863
183.863
183.863
183.862
183.862
183.862
183.861
183.861
183.861
183.86
183.86
183.86
183.859
183.859
183.858
183.858
183.858
183.857
183.857
183.857
183.856
183.856
183.856
183.855
183.855
183.855
183.854
183.854
183.854
183.853
183.853
183.852
183.852
183.852
183.851
183.851
183.851
183.85
183.85
183.85
183.849
183.849
183.849
183.848
183.848
183.848
183.847
183.847
183.846
183.846
183.846
183.845
183.845
183.845
183.844
183.844
183.844
183.843
183.843
183.843
183.842
183.842
183.841
183.841
183.841
183.84
183.84
183.84
183.839
183.839
183.839
183.838
183.838
183.838
183.837
183.837
183.837
183.836
183.836
183.835
183.835
183.835
183.834
183.834
183.834
183.833
183.833
183.833
183.832
183.832
183.832
183.831
183.831
183.831
183.83
183.83
183.829
183.829
183.829
183.828
183.828
183.828
183.827
183.827
183.827
183.826
183.826
183.826
183.825
183.825
183.825
183.824
183.824
183.823
183.823
183.823
183.822
183.822
183.822
183.821
183.821
183.821
183.82
183.82
183.82
183.819
183.819
183.819
183.818
183.818
183.817
183.817
183.817
183.816
183.816
183.816
183.815
183.815
183.815
183.814
183.814
183.814
183.813
183.813
183.813
183.812
183.812
183.811
183.811
183.811
183.81
183.81
183.81
183.809
183.809
183.809
183.808
183.808
183.808
183.807
183.807
183.807
183.806
183.806
183.805
183.805
183.805
183.804
183.804
183.804
183.803
183.803
183.803
183.802
183.802
183.802
183.801
183.801
183.801
183.8
183.8
183.799
183.799
183.799
183.798
183.798
183.798
183.797
183.797
183.797
183.796
183.796
183.796
183.795
183.795
183.795
183.794
183.794
183.793
183.793
183.793
183.792
183.792
183.792
183.791
183.791
183.791
183.79
183.79
183.79
183.789
183.789
183.789
183.788
183.788
183.787
183.787
183.787
183.786
183.786
183.786
183.785
183.785
183.785
183.784
183.784
183.784
183.783
183.783
183.783
183.782
183.782
183.781
183.781
183.781
183.78
183.78
183.78
183.779
183.779
183.779
183.778
183.778
183.778
183.777
183.777
183.777
183.776
183.776
183.776
183.775
183.775
183.774
183.774
183.774
183.773
183.773
183.773
183.772
183.772
183.772
183.771
183.771
183.771
183.77
183.77
183.77
183.769
183.769
183.769
183.768
183.768
183.767
183.767
183.767
183.766
183.766
183.766
183.765
183.765
183.765
183.764
183.764
183.764
183.763
183.763
183.763
183.762
183.762
183.762
183.761
183.761
183.76
183.76
183.76
183.759
183.759
183.759
183.758
183.758
183.758
183.757
183.757
183.757
183.756
183.756
183.756
183.755
183.755
183.755
183.754
183.754
183.753
183.753
183.753
183.752
183.752
183.752
183.751
183.751
183.751
183.75
183.75
183.75
183.749
183.749
183.749
183.748
183.748
183.748
183.747
183.747
183.747
183.746
183.746
183.745
183.745
183.745
183.744
183.744
183.744
183.743
183.743
183.743
183.742
183.742
183.742
183.741
183.741
183.741
183.74
183.74
183.74
183.739
183.739
183.739
183.738
183.738
183.737
183.737
183.737
183.736
183.736
183.736
183.735
183.735
183.735
183.734
183.734
183.734
183.733
183.733
183.733
183.732
183.732
183.732
183.731
183.731
183.731
183.73
183.73
183.73
183.729
183.729
183.728
183.728
183.728
183.727
183.727
183.727
183.726
183.726
183.726
183.725
183.725
183.725
183.724
183.724
183.724
183.723
183.723
183.723
183.722
183.722
183.722
183.721
183.721
183.721
183.72
183.72
183.72
183.719
183.719
183.719
183.718
183.718
183.717
183.717
183.717
183.716
183.716
183.716
183.715
183.715
183.715
183.714
183.714
183.714
183.713
183.713
183.713
183.712
183.712
183.712
183.711
183.711
183.711
183.71
183.71
183.71
183.709
183.709
183.709
183.708
183.708
183.708
183.707
183.707
183.707
183.706
183.706
183.706
183.705
183.705
183.705
183.704
183.704
183.703
183.703
183.703
183.702
183.702
183.702
183.701
183.701
183.701
183.7
183.7
183.7
183.699
183.699
183.699
183.698
183.698
183.698
183.697
183.697
183.697
183.696
183.696
183.696
183.695
183.695
183.695
183.694
183.694
183.694
183.693
183.693
183.693
183.692
183.692
183.692
183.691
183.691
183.691
183.69
183.69
183.69
183.689
183.689
183.689
183.688
183.688
183.688
183.687
183.687
183.687
183.686
183.686
183.686
183.685
183.685
183.685
183.684
183.684
183.684
183.683
183.683
183.683
183.682
183.682
183.682
183.681
183.681
183.681
183.68
183.68
183.68
183.679
183.679
183.679
183.678
183.678
183.678
183.677
183.677
183.677
183.676
183.676
183.676
183.675
183.675
183.675
183.674
183.674
183.674
183.673
183.673
183.673
183.672
183.672
183.672
183.671
183.671
183.671
183.67
183.67
183.67
183.669
183.669
183.669
183.668
183.668
183.668
183.667
183.667
183.667
183.667
183.666
183.666
183.666
183.665
183.665
183.665
183.664
183.664
183.664
183.663
183.663
183.663
183.662
183.662
183.662
183.661
183.661
183.661
183.66
183.66
183.66
183.659
183.659
183.659
183.658
183.658
183.658
183.657
183.657
183.657
183.656
183.656
183.656
183.656
183.655
183.655
183.655
183.654
183.654
183.654
183.653
183.653
183.653
183.652
183.652
183.652
183.651
183.651
183.651
183.65
183.65
183.65
183.649
183.649
183.649
183.649
183.648
183.648
183.648
183.647
183.647
183.647
183.646
183.646
183.646
183.645
183.645
183.645
183.644
183.644
183.644
183.643
183.643
183.643
183.643
183.642
183.642
183.642
183.641
183.641
183.641
183.64
183.64
183.64
183.639
183.639
183.639
183.638
183.638
183.638
183.638
183.637
183.637
183.637
183.636
183.636
183.636
183.635
183.635
183.635
183.634
183.634
183.634
183.634
183.633
183.633
183.633
183.632
183.632
183.632
183.631
183.631
183.631
183.631
183.63
183.63
183.63
183.629
183.629
183.629
183.628
183.628
183.628
183.627
183.627
183.627
183.627
183.626
183.626
183.626
183.625
183.625
183.625
183.624
183.624
183.624
183.624
183.623
183.623
183.623
183.622
183.622
183.622
183.622
183.621
183.621
183.621
183.62
183.62
183.62
183.619
183.619
183.619
183.619
183.618
183.618
183.618
183.617
183.617
183.617
183.617
183.616
183.616
183.616
183.615
183.615
183.615
183.615
183.614
183.614
183.614
183.613
183.613
183.613
183.613
183.612
183.612
183.612
183.611
183.611
183.611
183.611
183.61
183.61
183.61
183.609
183.609
183.609
183.609
183.608
183.608
183.608
183.607
183.607
183.607
183.607
183.606
183.606
183.606
183.605
183.605
183.605
183.605
183.604
183.604
183.604
183.604
183.603
183.603
183.603
183.602
183.602
183.602
183.602
183.601
183.601
183.601
183.601
183.6
183.6
183.6
183.599
183.599
183.599
183.599
183.598
183.598
183.598
183.598
183.597
183.597
183.597
183.597
183.596
183.596
183.596
183.596
183.595
183.595
183.595
183.594
183.594
183.594
183.594
183.593
183.593
183.593
183.593
183.592
183.592
183.592
183.592
183.591
183.591
183.591
183.591
183.59
183.59
183.59
183.59
183.589
183.589
183.589
183.589
183.588
183.588
183.588
183.588
183.587
183.587
183.587
183.587
183.586
183.586
183.586
183.586
183.585
183.585
183.585
183.585
183.584
183.584
183.584
183.584
183.583
183.583
183.583
183.583
183.583
183.582
183.582
183.582
183.582
183.581
183.581
183.581
183.581
183.58
183.58
183.58
183.58
183.58
183.579
183.579
183.579
183.579
183.578
183.578
183.578
183.578
183.577
183.577
183.577
183.577
183.577
183.576
183.576
183.576
183.576
183.576
183.575
183.575
183.575
183.575
183.574
183.574
183.574
183.574
183.574
183.573
183.573
183.573
183.573
183.573
183.572
183.572
183.572
183.572
183.572
183.571
183.571
183.571
183.571
183.571
183.57
183.57
183.57
183.57
183.57
183.569
183.569
183.569
183.569
183.569
183.568
183.568
183.568
183.568
183.568
183.567
183.567
183.567
183.567
183.567
183.566
183.566
183.566
183.566
183.566
183.566
183.565
183.565
183.565
183.565
183.565
183.565
183.564
183.564
183.564
183.564
183.564
183.564
183.563
183.563
183.563
183.563
183.563
183.563
183.562
183.562
183.562
183.562
183.562
183.562
183.561
183.561
183.561
183.561
183.561
183.561
183.56
183.56
183.56
183.56
183.56
183.56
183.56
183.559
183.559
183.559
183.559
183.559
183.559
183.559
183.558
183.558
183.558
183.558
183.558
183.558
183.558
183.558
183.557
183.557
183.557
183.557
183.557
183.557
183.557
183.557
183.556
183.556
183.556
183.556
183.556
183.556
183.556
183.556
183.556
183.555
183.555
183.555
183.555
183.555
183.555
183.555
183.555
183.555
183.555
183.554
183.554
183.554
183.554
183.554
183.554
183.554
183.554
183.554
183.554
183.554
183.553
183.553
183.553
183.553
183.553
183.553
183.553
183.553
183.553
183.553
183.553
183.553
183.553
183.553
183.553
183.552
183.552
183.552
183.552
183.552
183.552
183.552
183.552
183.552
183.552
183.552
183.552
183.552
183.552
183.552
183.552
183.552
183.552
183.552
183.552
183.552
183.552
183.552
183.552
183.552
183.552
183.551
183.551
183.551
183.551
183.551
183.551
183.551
183.551
183.551
183.551
183.551
183.551
183.551
183.551
183.551
183.551
183.551
183.551
183.551
183.552
183.552
183.552
183.552
183.552
183.552
183.552
183.552
183.552
183.552
183.552
183.552
183.552
183.552
183.552
183.552
183.552
183.552
183.552
183.552
183.552
183.552
183.552
183.553
183.553
183.553
183.553
183.553
183.553
183.553
183.553
183.553
183.553
183.553
183.553
183.553
183.554
183.554
183.554
183.554
183.554
183.554
183.554
183.554
183.554
183.555
183.555
183.555
183.555
183.555
183.555
183.555
183.555
183.556
183.556
183.556
183.556
183.556
183.556
183.556
183.557
183.557
183.557
183.557
183.557
183.557
183.558
183.558
183.558
183.558
183.558
183.559
183.559
183.559
183.559
183.559
183.56
183.56
183.56
183.56
183.56
183.561
183.561
183.561
183.561
183.562
183.562
183.562
183.562
183.562
183.563
183.563
183.563
183.564
183.564
183.564
183.564
183.565
183.565
183.565
183.565
183.566
183.566
183.566
183.567
183.567
183.567
183.567
183.568
183.568
183.568
183.569
183.569
183.569
183.57
183.57
183.57
183.571
183.571
183.571
183.572
183.572
183.573
183.573
183.573
183.574
183.574
183.574
183.575
183.575
183.576
183.576
183.576
183.577
183.577
183.578
183.578
183.579
183.579
183.579
183.58
183.58
183.581
183.581
183.582
183.582
183.583
183.583
183.584
183.584
183.585
183.585
183.586
183.586
183.587
183.587
183.588
183.588
183.589
183.589
183.59
183.59
183.591
183.591
183.592
183.592
183.593
183.594
183.594
183.595
183.595
183.596
183.597
183.597
183.598
183.598
183.599
183.6
183.6
183.601
183.602
183.602
183.603
183.603
183.604
183.605
183.606
183.606
183.607
183.608
183.608
183.609
183.61
183.61
183.611
183.612
183.613
183.613
183.614
183.615
183.616
183.616
183.617
183.618
183.619
183.62
183.62
183.621
183.622
183.623
183.624
183.625
183.625
183.626
183.627
183.628
183.629
183.63
183.631
183.631
183.632
183.633
183.634
183.635
183.636
183.637
183.638
183.639
183.64
183.641
183.642
183.643
183.644
183.645
183.646
183.647
183.648
183.649
183.65
183.651
183.652
183.653
183.654
183.655
183.656
183.657
183.658
183.66
183.661
183.662
183.663
183.664
183.665
183.666
183.668
183.669
183.67
183.671
183.672
183.674
183.675
183.676
183.677
183.678
183.68
183.681
183.682
183.684
183.685
183.686
183.687
183.689
183.69
183.691
183.693
183.694
183.696
183.697
183.698
183.7
183.701
183.702
183.704
183.705
183.707
183.708
183.71
183.711
183.713
183.714
183.716
183.717
183.719
183.72
183.722
183.723
183.725
183.726
183.728
183.73
183.731
183.733
183.735
183.736
183.738
183.739
183.741
183.743
183.745
183.746
183.748
183.75
183.751
183.753
183.755
183.757
183.758
183.76
183.762
183.764
183.766
183.768
183.769
183.771
183.773
183.775
183.777
183.779
183.781
183.783
183.785
183.787
183.788
183.79
183.792
183.794
183.796
183.798
183.801
183.803
183.805
183.807
183.809
183.811
183.813
183.815
183.817
183.819
183.821
183.824
183.826
183.828
183.83
183.832
183.835
183.837
183.839
183.841
183.844
183.846
183.848
183.851
183.853
183.855
183.857
183.86
183.862
183.865
183.867
183.869
183.872
183.874
183.877
183.879
183.882
183.884
183.887
183.889
183.892
183.894
183.897
183.899
183.902
183.904
183.907
183.909
183.912
183.915
183.917
183.92
183.923
183.925
183.928
183.931
183.933
183.936
183.939
183.941
183.944
183.947
183.95
183.953
183.955
183.958
183.961
183.964
183.967
183.969
183.972
183.975
183.978
183.981
183.984
183.987
183.99
183.993
183.996
183.999
184.002
184.005
184.008
184.011
184.014
184.017
184.02
184.023
184.026
184.029
184.032
184.035
184.038
184.041
184.044
184.047
184.051
184.054
184.057
184.06
184.063
184.066
184.07
184.073
184.076
184.079
184.082
184.086
184.089
184.092
184.096
184.099
184.102
184.105
184.109
184.112
184.115
184.119
184.122
184.125
184.129
184.132
184.136
184.139
184.142
184.146
184.149
184.153
184.156
184.159
184.163
184.166
184.17
184.173
184.177
184.18
184.184
184.187
184.191
184.194
184.198
184.201
184.205
184.208
184.212
184.215
184.219
184.223
184.226
184.23
184.233
184.237
184.24
184.244
184.248
184.251
184.255
184.259
184.262
184.266
184.269
184.273
184.277
184.28
184.284
184.288
184.291
184.295
184.299
184.303
184.306
184.31
184.314
184.317
184.321
184.325
184.328
184.332
184.336
184.34
184.343
184.347
184.351
184.355
184.358
184.362
184.366
184.37
184.373
184.377
184.381
184.385
184.389
184.392
184.396
184.4
184.404
184.408
184.411
184.415
184.419
184.423
184.427
184.431
184.434
184.438
184.442
184.446
184.45
184.453
184.457
184.461
184.465
184.469
184.473
184.477
184.48
184.484
184.488
184.492
184.496
184.5
184.504
184.507
184.511
184.515
184.519
184.523
184.527
184.531
184.535
184.539
184.542
184.546
184.55
184.554
184.558
184.562
184.566
184.57
184.574
184.577
184.581
184.585
184.589
184.593
184.597
184.601
184.605
184.609
184.613
184.617
184.62
184.624
184.628
184.632
184.636
184.64
184.644
184.648
184.652
184.656
184.66
184.664
184.668
184.671
184.675
184.679
184.683
184.687
184.691
184.695
184.699
184.703
184.707
184.711
184.715
184.719
184.723
184.726
184.73
184.734
184.738
184.742
184.746
184.75
184.754
184.758
184.762
184.766
184.77
184.774
184.778
184.782
184.786
184.79
184.794
184.797
184.801
184.805
184.809
184.813
184.817
184.821
184.825
184.829
184.833
184.837
184.841
184.845
184.849
184.853
184.857
184.861
184.865
184.868
184.873
184.876
184.88
184.884
184.888
184.892
184.896
184.9
184.904
184.908
184.912
184.916
184.92
184.924
184.928
184.932
184.936
184.94
184.944
184.948
184.952
184.955
184.96
184.963
184.968
184.971
184.975
184.979
184.983
184.987
184.991
184.995
184.999
185.003
185.007
185.011
185.015
185.019
185.023
185.027
185.031
185.035
185.039
185.043
185.047
185.05
185.055
185.058
185.063
185.066
185.071
185.074
185.079
185.082
185.086
185.09
185.094
185.098
185.102
185.106
185.11
185.114
185.118
185.122
185.126
185.13
185.134
185.138
185.142
185.146
185.15
185.153
185.158
185.161
185.166
185.169
185.174
185.177
185.182
185.185
185.19
185.193
185.198
185.201
185.206
185.209
185.213
185.217
185.221
185.225
185.229
185.233
185.237
185.241
185.245
185.249
185.253
185.257
185.261
185.264
185.269
185.272
185.277
185.28
185.285
185.288
185.293
185.296
185.301
185.304
185.309
185.312
185.317
185.32
185.325
185.328
185.333
185.336
185.341
185.344
185.349
185.352
185.357
185.36
185.364
185.368
185.372
185.376
185.38
185.384
185.388
185.391
185.396
185.399
185.404
185.407
185.412
185.415
185.42
185.423
185.428
185.431
185.436
185.439
185.444
185.447
185.452
185.455
185.46
185.463
185.468
185.471
185.476
185.479
185.484
185.487
185.492
185.495
185.5
185.503
185.508
185.511
185.516
185.519
185.524
185.527
185.532
185.535
185.54
185.542
185.548
185.55
185.555
185.558
185.563
185.566
185.571
185.574
185.579
185.582
185.587
185.59
185.595
185.598
185.603
185.606
185.611
185.614
185.619
185.622
185.627
185.63
185.635
185.638
185.643
185.646
185.651
185.654
185.659
185.662
185.667
185.67
185.675
185.678
185.683
185.686
185.691
185.694
185.698
185.702
185.706
185.71
185.714
185.718
185.722
185.726
185.73
185.734
185.738
185.742
185.746
185.75
185.754
185.758
185.762
185.766
185.77
185.774
185.778
185.782
185.786
185.79
185.794
185.798
185.802
185.806
185.81
185.814
185.818
185.822
185.826
185.83
185.834
185.838
185.842
185.846
185.85
185.854
185.858
185.862
185.866
185.87
185.874
185.878
185.882
185.886
185.89
185.894
185.898
185.902
185.906
185.91
185.914
185.918
185.922
185.926
185.93
185.933
185.937
185.941
185.945
185.949
185.953
185.957
185.961
185.965
185.969
185.973
185.977
185.981
185.985
185.989
185.993
185.997
186.001
186.005
186.009
186.013
186.017
186.021
186.025
186.029
186.033
186.037
186.041
186.045
186.049
186.053
186.057
186.061
186.065
186.069
186.073
186.077
186.081
186.085
186.089
186.093
186.097
186.101
186.105
186.109
186.113
186.117
186.121
186.125
186.129
186.133
186.137
186.141
186.145
186.149
186.153
186.157
186.161
186.165
186.169
186.173
186.177
186.181
186.185
186.189
186.193
186.197
186.201
186.205
186.209
186.213
186.217
186.221
186.225
186.229
186.233
186.237
186.241
186.245
186.249
186.253
186.257
186.261
186.265
186.269
186.273
186.277
186.281
186.285
186.289
186.293
186.297
186.301
186.305
186.309
186.313
186.317
186.321
186.325
186.329
186.333
186.337
186.341
186.345
186.349
186.353
186.357
186.361
186.365
186.369
186.373
186.377
186.381
186.385
186.389
186.393
186.397
186.401
186.405
186.409
186.413
186.417
186.421
186.425
186.429
186.433
186.437
186.441
186.445
186.449
186.453
186.457
186.461
186.465
186.469
186.473
186.477
186.481
186.485
186.489
186.493
186.497
186.501
186.505
186.509
186.513
186.517
186.521
186.525
186.529
186.533
186.537
186.541
186.546
186.55
186.554
186.558
186.562
186.566
186.57
186.574
186.578
186.582
186.586
186.59
186.594
186.598
186.602
186.606
186.61
186.614
186.618
186.622
186.626
186.63
186.634
186.638
186.642
186.646
186.65
186.654
186.658
186.662
186.666
186.67
186.674
186.678
186.682
186.686
186.69
186.694
186.698
186.702
186.706
186.71
186.714
186.718
186.722
186.726
186.73
186.734
186.738
186.742
186.746
186.75
186.754
186.758
186.762
186.766
186.77
186.774
186.778
186.782
186.786
186.79
186.794
186.798
186.802
186.806
186.81
186.814
186.818
186.822
186.826
186.83
186.834
186.838
186.843
186.847
186.851
186.855
186.859
186.863
186.867
186.871
186.875
186.879
186.883
186.887
186.891
186.895
186.899
186.903
186.907
186.911
186.915
186.919
186.923
186.927
186.931
186.935
186.939
186.943
186.947
186.951
186.955
186.959
186.963
186.967
186.971
186.975
186.979
186.983
186.987
186.991
186.995
186.999
187.003
187.007
187.011
187.015
187.019
187.023
187.027
187.031
187.036
187.04
187.044
187.048
187.052
187.056
187.06
187.064
187.068
187.072
187.076
187.08
187.084
187.088
187.092
187.096
187.1
187.104
187.108
187.112
187.116
187.12
187.124
187.128
187.132
187.136
187.14
187.144
187.148
187.152
187.156
187.16
187.164
187.168
187.172
187.176
187.18
187.184
187.189
187.193
187.197
187.201
187.205
187.209
187.213
187.217
187.221
187.225
187.229
187.233
187.237
187.241
187.245
187.249
187.253
187.257
187.261
187.265
187.269
187.273
187.277
187.281
187.285
187.289
187.293
187.297
187.301
187.305
187.309
187.313
187.317
187.322
187.326
187.33
187.334
187.338
187.342
187.346
187.35
187.354
187.358
187.362
187.366
187.37
187.374
187.378
187.382
187.386
187.39
187.394
187.398
187.402
187.406
187.41
187.414
187.418
187.422
187.426
187.43
187.434
187.439
187.443
187.447
187.451
187.455
187.459
187.463
187.467
187.471
187.475
187.479
187.483
187.487
187.491
187.495
187.499
187.503
187.507
187.511
187.515
187.519
187.523
187.527
187.531
187.535
187.539
187.543
187.548
187.552
187.556
187.56
187.564
187.568
187.572
187.576
187.58
187.584
187.588
187.592
187.596
187.6
187.604
187.608
187.612
187.616
187.62
187.624
187.628
187.632
187.636
187.64
187.644
187.649
187.653
187.657
187.661
187.665
187.669
187.673
187.677
187.681
187.685
187.689
187.693
187.697
187.701
187.705
187.709
187.713
187.717
187.721
187.725
187.729
187.733
187.737
187.742
187.746
187.75
187.754
187.758
187.762
187.766
187.77
187.774
187.778
187.782
187.786
187.79
187.794
187.798
187.802
187.806
187.81
187.814
187.818
187.822
187.826
187.831
187.835
187.839
187.843
187.847
187.851
187.855
187.859
187.863
187.867
187.871
187.875
187.879
187.883
187.887
187.891
187.895
187.899
187.903
187.907
187.911
187.916
187.92
187.924
187.928
187.932
187.936
187.94
187.944
187.948
187.952
187.956
187.96
187.964
187.968
187.972
187.976
187.98
187.984
187.988
187.993
187.997
188.001
188.005
188.009
188.013
188.017
188.021
188.025
188.029
188.033
188.037
188.041
188.045
188.049
188.053
188.057
188.061
188.065
188.07
188.074
188.078
188.082
188.086
188.09
188.094
188.098
188.102
188.106
188.11
188.114
188.118
188.122
188.126
188.13
188.134
188.138
188.143
188.147
188.151
188.155
188.159
188.163
188.167
188.171
188.175
188.179
188.183
188.187
188.191
188.195
188.199
188.203
188.207
188.211
188.216
188.22
188.224
188.228
188.232
188.236
188.24
188.244
188.248
188.252
188.256
188.26
188.264
188.268
188.272
188.276
188.281
188.285
188.289
188.293
188.297
188.301
188.305
188.309
188.313
188.317
188.321
188.325
188.329
188.333
188.338
188.341
188.346
188.349
188.354
188.357
188.362
188.366
188.37
188.374
188.378
188.382
188.386
188.39
188.395
188.398
188.403
188.406
188.411
188.414
188.419
188.422
188.427
188.43
188.436
188.438
188.444
188.446
188.452
188.455
188.46
188.463
188.468
188.471
188.476
188.479
188.484
188.487
188.493
188.495
188.501
188.503
188.509
188.511
188.517
188.52
188.525
188.528
188.533
188.536
188.541
188.544
188.549
188.552
188.558
188.56
188.566
188.568
188.574
188.577
188.582
188.585
188.59
188.593
188.598
188.601
188.606
188.609
188.615
188.617
188.623
188.625
188.631
188.634
188.639
188.642
188.647
188.65
188.655
188.658
188.663
188.666
188.672
188.674
188.68
188.682
188.688
188.691
188.696
188.699
188.704
188.707
188.712
188.715
188.72
188.723
188.729
188.731
188.737
188.739
188.745
188.748
188.753
188.756
188.761
188.764
188.769
188.772
188.777
188.78
188.786
188.788
188.794
188.797
188.802
188.805
188.81
188.813
188.818
188.821
188.826
188.83
188.834
188.838
188.842
188.846
188.85
188.854
188.858
188.863
188.866
188.871
188.874
188.879
188.882
188.887
188.89
188.896
188.899
188.904
188.907
188.912
188.915
188.92
188.923
188.928
188.931
188.937
188.939
188.945
188.947
188.953
188.956
188.961
188.964
188.969
188.972
188.977
188.98
188.985
188.988
188.994
188.996
189.002
189.005
189.01
189.013
189.018
189.021
189.026
189.029
189.034
189.037
189.043
189.045
189.051
189.054
189.059
189.062
189.067
189.07
189.075
189.078
189.083
189.086
189.092
189.094
189.1
189.103
189.108
189.111
189.116
189.119
189.124
189.127
189.132
189.135
189.141
189.143
189.149
189.152
189.157
189.16
189.165
189.168
189.173
189.176
189.182
189.184
189.19
189.192
189.198
189.201
189.206
189.209
189.214
189.217
189.222
189.225
189.231
189.233
189.239
189.241
189.247
189.25
189.255
189.258
189.263
189.266
189.271
189.274
189.28
189.282
189.288
189.291
189.296
189.299
189.304
189.307
189.312
189.315
189.321
189.323
189.329
189.331
189.337
189.34
189.345
189.348
189.353
189.356
189.361
189.364
189.37