/*--------------------------------*- C++ -*----------------------------------*\
  =========                 |
  \\      /  F ield         | OpenFOAM: The Open Source CFD Toolbox
   \\    /   O peration     | Website:  https://openfoam.org
    \\  /    A nd           | Version:  9
     \\/     M anipulation  |
\*---------------------------------------------------------------------------*/
FoamFile
{
    format      ascii;
    class       surfaceScalarField;
    location    "0.031";
    object      ddtCorrDdt0(phi);
}
// * * * * * * * * * * * * * * * * * * * * * * * * * * * * * * * * * * * * * //

dimensions      [1 0 -2 0 0 0 0];

internalField   nonuniform List<scalar> 
99
(
-1524.3
-1898.82
-2268.07
-2633.34
-2996.14
-3359.76
-3724.8
-4096.34
-4474.63
-4853.06
-5212.75
-5579.93
-5946.96
-6284.51
-6629.81
-6994.25
-7323.88
-7624.78
-7967.55
-8344.6
-8677.25
-8955.68
-9255.41
-9629.17
-10032.2
-10312.7
-10556.7
-10864.9
-11176.7
-11661.7
-11951.2
-12191.8
-12489.9
-12737.4
-13268.3
-13521
-13787.5
-13971.1
-14371.1
-14371
-15128.8
-15019.1
-16107.4
-14503.2
-12942.3
-12930.7
-23837.8
-17152
-17012.7
-17308.3
-17595.5
-17916.6
-18353.3
-18761
-19031.3
-19172.2
-19313.1
-19573.7
-19970.1
-20417.3
-20788.8
-21050.9
-21336.8
-21851.1
-22655.4
-23563.4
-24306.4
-24783.2
-25096
-25412.4
-25813.2
-26234
-26550.4
-26730.9
-26842.3
-26987.6
-27184.7
-27379.6
-27568.3
-27621.4
-27615.8
-27524.4
-27359.1
-27033.8
-26601
-26066.2
-25128.2
-24269.2
-23210.3
-21849.4
-20687
-19105.1
-17251.5
-15443.6
-14305.3
-14227.8
-8146.35
-4568.78
17880.2
)
;

boundaryField
{
    sides
    {
        type            calculated;
        value           nonuniform List<scalar> 2(-8338.71 1148.04);
    }
    empty
    {
        type            empty;
        value           nonuniform List<scalar> 0();
    }
}


// ************************************************************************* //
