/*--------------------------------*- C++ -*----------------------------------*\
  =========                 |
  \\      /  F ield         | OpenFOAM: The Open Source CFD Toolbox
   \\    /   O peration     | Website:  https://openfoam.org
    \\  /    A nd           | Version:  9
     \\/     M anipulation  |
\*---------------------------------------------------------------------------*/
FoamFile
{
    format      ascii;
    class       volScalarField;
    location    "0.031";
    object      mag(U);
}
// * * * * * * * * * * * * * * * * * * * * * * * * * * * * * * * * * * * * * //

dimensions      [0 1 -1 0 0 0 0];

internalField   nonuniform List<scalar> 
100
(
44.5333
48.2927
53.0328
56.6702
60.1347
63.6787
67.246
70.8133
74.3789
77.9688
81.5302
85.0812
88.6592
92.2069
95.7413
99.3065
102.857
106.366
109.884
113.431
116.953
120.428
123.899
127.396
130.892
134.344
137.754
141.159
144.572
147.973
151.32
154.607
157.858
161.085
164.267
167.388
170.45
173.479
176.511
179.548
182.58
185.594
188.57
191.487
194.287
196.863
199.255
201.616
203.947
206.23
208.507
210.778
213.039
215.273
217.461
219.601
221.696
223.751
225.761
227.714
229.606
231.445
233.255
235.058
236.864
238.67
240.468
242.258
244.049
245.845
247.639
249.417
251.169
252.894
254.598
256.295
257.986
259.665
261.326
262.964
264.573
266.16
267.715
269.235
270.724
272.17
273.576
274.935
276.246
277.518
278.719
279.848
280.896
281.87
282.842
283.728
284.677
285.644
286.416
287.133
)
;

boundaryField
{
    sides
    {
        type            calculated;
        value           nonuniform List<scalar> 2(287.133 44.5333);
    }
    empty
    {
        type            empty;
    }
}


// ************************************************************************* //
