/*--------------------------------*- C++ -*----------------------------------*\
  =========                 |
  \\      /  F ield         | OpenFOAM: The Open Source CFD Toolbox
   \\    /   O peration     | Website:  https://openfoam.org
    \\  /    A nd           | Version:  9
     \\/     M anipulation  |
\*---------------------------------------------------------------------------*/
FoamFile
{
    format      ascii;
    class       volVectorField;
    location    "0.031";
    object      U_0;
}
// * * * * * * * * * * * * * * * * * * * * * * * * * * * * * * * * * * * * * //

dimensions      [0 1 -1 0 0 0 0];

internalField   nonuniform List<vector> 
100
(
(44.5261 0 0)
(48.288 0 0)
(53.0298 0 0)
(56.6681 0 0)
(60.134 0 0)
(63.6795 0 0)
(67.2485 0 0)
(70.8172 0 0)
(74.3845 0 0)
(77.9759 0 0)
(81.5387 0 0)
(85.0913 0 0)
(88.6709 0 0)
(92.2199 0 0)
(95.756 0 0)
(99.3227 0 0)
(102.874 0 0)
(106.384 0 0)
(109.905 0 0)
(113.453 0 0)
(116.976 0 0)
(120.453 0 0)
(123.926 0 0)
(127.424 0 0)
(130.922 0 0)
(134.375 0 0)
(137.787 0 0)
(141.194 0 0)
(144.608 0 0)
(148.011 0 0)
(151.36 0 0)
(154.649 0 0)
(157.902 0 0)
(161.131 0 0)
(164.314 0 0)
(167.437 0 0)
(170.501 0 0)
(173.531 0 0)
(176.564 0 0)
(179.602 0 0)
(182.636 0 0)
(185.651 0 0)
(188.63 0 0)
(191.548 0 0)
(194.348 0 0)
(196.923 0 0)
(199.322 0 0)
(201.688 0 0)
(204.017 0 0)
(206.299 0 0)
(208.577 0 0)
(210.851 0 0)
(213.113 0 0)
(215.348 0 0)
(217.537 0 0)
(219.678 0 0)
(221.774 0 0)
(223.83 0 0)
(225.841 0 0)
(227.795 0 0)
(229.687 0 0)
(231.528 0 0)
(233.34 0 0)
(235.144 0 0)
(236.952 0 0)
(238.761 0 0)
(240.56 0 0)
(242.352 0 0)
(244.145 0 0)
(245.942 0 0)
(247.737 0 0)
(249.515 0 0)
(251.267 0 0)
(252.991 0 0)
(254.696 0 0)
(256.393 0 0)
(258.084 0 0)
(259.763 0 0)
(261.424 0 0)
(263.062 0 0)
(264.67 0 0)
(266.256 0 0)
(267.81 0 0)
(269.329 0 0)
(270.816 0 0)
(272.259 0 0)
(273.662 0 0)
(275.018 0 0)
(276.325 0 0)
(277.593 0 0)
(278.79 0 0)
(279.915 0 0)
(280.957 0 0)
(281.924 0 0)
(282.891 0 0)
(283.777 0 0)
(284.721 0 0)
(285.677 0 0)
(286.439 0 0)
(287.151 0 0)
)
;

boundaryField
{
    sides
    {
        type            zeroGradient;
    }
    empty
    {
        type            empty;
    }
}


// ************************************************************************* //
