/*--------------------------------*- C++ -*----------------------------------*\
  =========                 |
  \\      /  F ield         | OpenFOAM: The Open Source CFD Toolbox
   \\    /   O peration     | Website:  https://openfoam.org
    \\  /    A nd           | Version:  9
     \\/     M anipulation  |
\*---------------------------------------------------------------------------*/
FoamFile
{
    format      ascii;
    class       volScalarField;
    location    "0.011";
    object      p;
}
// * * * * * * * * * * * * * * * * * * * * * * * * * * * * * * * * * * * * * //

dimensions      [1 -1 -2 0 0 0 0];

internalField   nonuniform List<scalar> 
10000
(
100000
100000
100000
100000
100000
100000
100000
100000
100000
100000
100000
100000
100000
100000
100000
100000
100000
100000
100000
100000
100000
100000
100000
100000
100000
100000
100000
100000
100000
100000
100000
100000
100000
100000
100000
100000
100000
100000
100000
100000
100000
100000
100000
100000
100000
100000
100000
100000
100000
100000
100000
100000
100000
100000
100000
100000
100000
100000
100000
100000
100000
100000
100000
100000
100000
100000
100000
100000
100000
100000
100000
100000
100000
100000
100000
100000
100000
100000
100000
100000
100000
100000
100000
100000
100000
100000
100000
100000
100000
100000
100000
100000
100000
100000
100000
100000
100000
100000
100000
100000
100000
100000
100000
100000
100000
100000
100000
100000
100000
100000
100000
100000
100000
100000
100000
100000
100000
100000
100000
100000
100000
100000
100000
100000
100000
100000
100000
100000
100000
100000
100000
100000
100000
100000
100000
100000
100000
100000
100000
100000
100000
100000
100000
100000
100000
100000
100000
100000
100000
100000
100000
100000
100000
100000
100000
100000
100000
100000
100000
100000
100000
100000
100000
100000
100000
100000
100000
100000
100000
100000
100000
100000
100000
100000
100000
100000
100000
100000
100000
100000
100000
100000
100000
100000
100000
100000
100000
100000
100000
100000
100000
100000
100000
100000
100000
100000
100000
100000
100000
100000
100000
100000
100000
100000
100000
100000
100000
100000
100000
100000
100000
100000
100000
100000
100000
100000
100000
100000
100000
100000
100000
100000
100000
100000
100000
100000
100000
100000
100000
100000
100000
100000
100000
100000
100000
100000
100000
100000
100000
100000
100000
100000
100000
100000
100000
100000
100000
100000
100000
100000
100000
100000
100000
100000
100000
100000
100000
100000
100000
100000
100000
100000
100000
100000
100000
100000
100000
100000
100000
100000
100000
100000
100000
100000
100000
100000
100000
100000
100000
100000
100000
100000
100000
100000
100000
100000
100000
100000
100000
100000
100000
100000
100000
100000
100000
100000
100000
100000
100000
100000
100000
100000
100000
100000
100000
100000
100000
100000
100000
100000
100000
100000
100000
100000
100000
100000
100000
100000
100000
100000
100000
100000
100000
100000
100000
100000
100000
100000
100000
100000
100000
100000
100000
100000
100000
100000
100000
100000
100000
100000
100000
100000
100000
100000
100000
100000
100000
100000
100000
100000
100000
100000
100000
100000
100000
100000
100000
100000
100000
100000
100000
100000
100000
100000
100000
100000
100000
100000
100000
100000
100000
100000
100000
100000
100000
100000
100000
100000
100000
100000
100000
100000
100000
100000
100000
100000
100000
100000
100000
100000
100000
100000
100000
100000
100000
100000
100000
100000
100000
100000
100000
100000
100000
100000
100000
100000
100000
100000
100000
100000
100000
100000
100000
100000
100000
100000
100000
100000
100000
100000
100000
100000
100000
100000
100000
100000
100000
100000
100000
100000
100000
100000
100000
100000
100000
100000
100000
100000
100000
100000
100000
100000
100000
100000
100000
100000
100000
100000
100000
100000
100000
100000
100000
100000
100000
100000
100000
100000
100000
100000
100000
100000
100000
100000
100000
100000
100000
100000
100000
100000
100000
100000
100000
100000
100000
100000
100000
100000
100000
100000
100000
100000
100000
100000
100000
100000
100000
100000
100000
100000
100000
100000
100000
100000
100000
100000
100000
100000
100000
100000
100000
100000
100000
100000
100000
100000
100000
100000
100000
100000
100000
100000
100000
100000
100000
100000
100000
100000
100000
100000
100000
100000
100000
100000
100000
100000
100000
100000
100000
100000
100000
100000
100000
100000
100000
100000
100000
100000
100000
100000
100000
100000
100000
100000
100000
100000
100000
100000
100000
100000
100000
100000
100000
100000
100000
100000
100000
100000
100000
100000
100000
100000
100000
100000
100000
100000
100000
100000
100000
100000
100000
100000
100000
100000
100000
100000
100000
100000
100000
100000
100000
100000
100000
100000
100000
100000
100000
100000
100000
100000
100000
100000
100000
100000
100000
100000
100000
100000
100000
100000
100000
100000
100000
100000
100000
100000
100000
100000
100000
100000
100000
100000
100000
100000
100000
100000
100000
100000
100000
100000
100000
100000
100000
100000
100000
100000
100000
100000
100000
100000
100000
100000
100000
100000
100000
100000
100000
100000
100000
100000
100000
100000
100000
100000
100000
100000
100000
100000
100000
100000
100000
100000
100000
100000
100000
100000
100000
100000
100000
100000
100000
100000
100000
100000
100000
100000
100000
100000
100000
100000
100000
100000
100000
100000
100000
100000
100000
100000
100000
100000
100000
100000
100000
100000
100000
100000
100000
100000
100000
100000
100000
100000
100000
100000
100000
100000
100000
100000
100000
100000
100000
100000
100000
100000
100000
100000
99999.9
99999.9
99999.9
99999.9
99999.9
99999.9
99999.9
99999.9
99999.9
99999.9
99999.9
99999.8
99999.8
99999.8
99999.8
99999.8
99999.8
99999.7
99999.7
99999.7
99999.6
99999.6
99999.6
99999.5
99999.5
99999.4
99999.4
99999.3
99999.3
99999.2
99999.1
99999.1
99999
99998.9
99998.8
99998.7
99998.6
99998.4
99998.3
99998.2
99998
99997.9
99997.7
99997.5
99997.3
99997.1
99996.8
99996.6
99996.3
99996
99995.7
99995.4
99995
99994.6
99994.2
99993.8
99993.3
99992.9
99992.3
99991.8
99991.2
99990.6
99989.9
99989.2
99988.5
99987.7
99986.8
99985.9
99985
99984
99983
99981.9
99980.7
99979.5
99978.2
99976.8
99975.4
99973.8
99972.3
99970.6
99968.8
99967
99965.1
99963
99960.9
99958.7
99956.4
99954
99951.4
99948.8
99946
99943.2
99940.2
99937
99933.8
99930.4
99926.9
99923.2
99919.5
99915.5
99911.4
99907.2
99902.8
99898.3
99893.6
99888.7
99883.7
99878.5
99873.1
99867.6
99861.9
99856
99849.9
99843.7
99837.2
99830.6
99823.8
99816.8
99809.6
99802.2
99794.6
99786.8
99778.9
99770.7
99762.3
99753.7
99744.9
99736
99726.8
99717.4
99707.8
99698
99688
99677.8
99667.3
99656.7
99645.9
99634.8
99623.6
99612.1
99600.5
99588.6
99576.6
99564.3
99551.8
99539.2
99526.3
99513.3
99500
99486.5
99472.9
99459
99445
99430.8
99416.4
99401.8
99387
99372
99356.9
99341.5
99326
99310.3
99294.5
99278.4
99262.2
99245.8
99229.3
99212.6
99195.7
99178.7
99161.5
99144.1
99126.6
99108.9
99091.1
99073.2
99055.1
99036.8
99018.4
98999.9
98981.2
98962.4
98943.4
98924.4
98905.1
98885.8
98866.3
98846.7
98827
98807.2
98787.2
98767.2
98747
98726.7
98706.3
98685.8
98665.1
98644.4
98623.6
98602.6
98581.6
98560.4
98539.2
98517.9
98496.5
98474.9
98453.3
98431.6
98409.9
98388
98366
98344
98321.9
98299.7
98277.4
98255.1
98232.6
98210.1
98187.6
98164.9
98142.2
98119.4
98096.6
98073.6
98050.7
98027.6
98004.5
97981.3
97958.1
97934.8
97911.5
97888.1
97864.6
97841.1
97817.5
97793.9
97770.2
97746.5
97722.7
97698.9
97675
97651.1
97627.1
97603.1
97579.1
97555
97530.8
97506.7
97482.4
97458.2
97433.9
97409.5
97385.1
97360.7
97336.3
97311.8
97287.3
97262.7
97238.1
97213.5
97188.8
97164.1
97139.4
97114.7
97089.9
97065.1
97040.2
97015.4
96990.5
96965.5
96940.6
96915.6
96890.6
96865.6
96840.5
96815.5
96790.4
96765.2
96740.1
96714.9
96689.8
96664.5
96639.3
96614.1
96588.8
96563.5
96538.2
96512.9
96487.5
96462.2
96436.8
96411.4
96386
96360.5
96335.1
96309.6
96284.1
96258.6
96233.1
96207.6
96182.1
96156.5
96130.9
96105.3
96079.8
96054.1
96028.5
96002.9
95977.2
95951.6
95925.9
95900.2
95874.6
95848.9
95823.1
95797.4
95771.7
95745.9
95720.2
95694.4
95668.7
95642.9
95617.1
95591.3
95565.5
95539.7
95513.9
95488
95462.2
95436.4
95410.5
95384.7
95358.8
95332.9
95307
95281.2
95255.3
95229.4
95203.5
95177.6
95151.7
95125.7
95099.8
95073.9
95048
95022
94996.1
94970.1
94944.2
94918.2
94892.3
94866.3
94840.4
94814.4
94788.4
94762.4
94736.5
94710.5
94684.5
94658.5
94632.5
94606.5
94580.5
94554.5
94528.5
94502.5
94476.5
94450.5
94424.5
94398.5
94372.5
94346.5
94320.4
94294.4
94268.4
94242.4
94216.4
94190.3
94164.3
94138.3
94112.3
94086.2
94060.2
94034.2
94008.2
93982.1
93956.1
93930.1
93904
93878
93852
93826
93799.9
93773.9
93747.9
93721.8
93695.8
93669.8
93643.8
93617.7
93591.7
93565.7
93539.6
93513.6
93487.6
93461.6
93435.6
93409.5
93383.5
93357.5
93331.5
93305.5
93279.5
93253.4
93227.4
93201.4
93175.4
93149.4
93123.4
93097.4
93071.4
93045.4
93019.4
92993.4
92967.4
92941.4
92915.4
92889.4
92863.4
92837.5
92811.5
92785.5
92759.5
92733.5
92707.6
92681.6
92655.6
92629.7
92603.7
92577.7
92551.8
92525.8
92499.9
92473.9
92448
92422
92396.1
92370.1
92344.2
92318.3
92292.3
92266.4
92240.5
92214.6
92188.6
92162.7
92136.8
92110.9
92085
92059.1
92033.2
92007.3
91981.4
91955.5
91929.6
91903.7
91877.8
91852
91826.1
91800.2
91774.4
91748.5
91722.6
91696.8
91670.9
91645.1
91619.2
91593.4
91567.5
91541.7
91515.9
91490
91464.2
91438.4
91412.6
91386.8
91361
91335.2
91309.4
91283.6
91257.8
91232
91206.2
91180.4
91154.6
91128.9
91103.1
91077.3
91051.6
91025.8
91000
90974.3
90948.5
90922.8
90897.1
90871.3
90845.6
90819.9
90794.2
90768.4
90742.7
90717
90691.3
90665.6
90639.9
90614.2
90588.6
90562.9
90537.2
90511.5
90485.9
90460.2
90434.5
90408.9
90383.2
90357.6
90331.9
90306.3
90280.7
90255
90229.4
90203.8
90178.2
90152.6
90127
90101.4
90075.8
90050.2
90024.6
89999
89973.4
89947.9
89922.3
89896.7
89871.2
89845.6
89820.1
89794.5
89769
89743.5
89717.9
89692.4
89666.9
89641.4
89615.9
89590.4
89564.9
89539.4
89513.9
89488.4
89462.9
89437.4
89412
89386.5
89361
89335.6
89310.1
89284.7
89259.2
89233.8
89208.4
89182.9
89157.5
89132.1
89106.7
89081.3
89055.9
89030.5
89005.1
88979.7
88954.3
88928.9
88903.6
88878.2
88852.8
88827.5
88802.1
88776.8
88751.4
88726.1
88700.8
88675.4
88650.1
88624.8
88599.5
88574.2
88548.9
88523.6
88498.3
88473
88447.7
88422.5
88397.2
88371.9
88346.7
88321.4
88296.2
88270.9
88245.7
88220.4
88195.2
88170
88144.8
88119.6
88094.4
88069.2
88044
88018.8
87993.6
87968.4
87943.2
87918.1
87892.9
87867.7
87842.6
87817.4
87792.3
87767.1
87742
87716.9
87691.8
87666.6
87641.5
87616.4
87591.3
87566.2
87541.1
87516.1
87491
87465.9
87440.8
87415.8
87390.7
87365.7
87340.6
87315.6
87290.5
87265.5
87240.5
87215.5
87190.4
87165.4
87140.4
87115.4
87090.4
87065.4
87040.5
87015.5
86990.5
86965.5
86940.6
86915.6
86890.7
86865.7
86840.8
86815.9
86790.9
86766
86741.1
86716.2
86691.3
86666.4
86641.5
86616.6
86591.7
86566.8
86542
86517.1
86492.2
86467.4
86442.5
86417.7
86392.8
86368
86343.2
86318.4
86293.5
86268.7
86243.9
86219.1
86194.3
86169.5
86144.7
86120
86095.2
86070.4
86045.7
86020.9
85996.2
85971.4
85946.7
85921.9
85897.2
85872.5
85847.8
85823
85798.3
85773.6
85748.9
85724.3
85699.6
85674.9
85650.2
85625.5
85600.9
85576.2
85551.6
85526.9
85502.3
85477.7
85453
85428.4
85403.8
85379.2
85354.6
85330
85305.4
85280.8
85256.2
85231.6
85207
85182.5
85157.9
85133.4
85108.8
85084.3
85059.7
85035.2
85010.7
84986.1
84961.6
84937.1
84912.6
84888.1
84863.6
84839.1
84814.6
84790.2
84765.7
84741.2
84716.8
84692.3
84667.9
84643.4
84619
84594.5
84570.1
84545.7
84521.3
84496.9
84472.5
84448.1
84423.7
84399.3
84374.9
84350.5
84326.2
84301.8
84277.4
84253.1
84228.7
84204.4
84180.1
84155.7
84131.4
84107.1
84082.8
84058.5
84034.2
84009.9
83985.6
83961.3
83937
83912.7
83888.5
83864.2
83839.9
83815.7
83791.4
83767.2
83743
83718.7
83694.5
83670.3
83646.1
83621.9
83597.7
83573.5
83549.3
83525.1
83500.9
83476.8
83452.6
83428.4
83404.3
83380.1
83356
83331.8
83307.7
83283.6
83259.5
83235.4
83211.2
83187.1
83163
83138.9
83114.9
83090.8
83066.7
83042.6
83018.6
82994.5
82970.5
82946.4
82922.4
82898.3
82874.3
82850.3
82826.3
82802.2
82778.2
82754.2
82730.2
82706.2
82682.3
82658.3
82634.3
82610.3
82586.4
82562.4
82538.5
82514.5
82490.6
82466.7
82442.7
82418.8
82394.9
82371
82347.1
82323.2
82299.3
82275.4
82251.5
82227.6
82203.8
82179.9
82156
82132.2
82108.3
82084.5
82060.7
82036.8
82013
81989.2
81965.4
81941.6
81917.8
81894
81870.2
81846.4
81822.6
81798.8
81775.1
81751.3
81727.5
81703.8
81680
81656.3
81632.6
81608.8
81585.1
81561.4
81537.7
81514
81490.3
81466.6
81442.9
81419.2
81395.5
81371.9
81348.2
81324.5
81300.9
81277.2
81253.6
81229.9
81206.3
81182.7
81159.1
81135.4
81111.8
81088.2
81064.6
81041
81017.5
80993.9
80970.3
80946.7
80923.2
80899.6
80876.1
80852.5
80829
80805.4
80781.9
80758.4
80734.9
80711.3
80687.8
80664.3
80640.8
80617.4
80593.9
80570.4
80546.9
80523.4
80500
80476.5
80453.1
80429.6
80406.2
80382.8
80359.3
80335.9
80312.5
80289.1
80265.7
80242.3
80218.9
80195.5
80172.1
80148.7
80125.4
80102
80078.6
80055.3
80031.9
80008.6
79985.3
79961.9
79938.6
79915.3
79892
79868.7
79845.4
79822.1
79798.8
79775.5
79752.2
79728.9
79705.7
79682.4
79659.1
79635.9
79612.6
79589.4
79566.2
79542.9
79519.7
79496.5
79473.3
79450.1
79426.9
79403.7
79380.5
79357.3
79334.1
79310.9
79287.8
79264.6
79241.5
79218.3
79195.2
79172
79148.9
79125.8
79102.6
79079.5
79056.4
79033.3
79010.2
78987.1
78964
78940.9
78917.9
78894.8
78871.7
78848.7
78825.6
78802.6
78779.5
78756.5
78733.5
78710.4
78687.4
78664.4
78641.4
78618.4
78595.4
78572.4
78549.4
78526.4
78503.5
78480.5
78457.5
78434.6
78411.6
78388.7
78365.7
78342.8
78319.9
78296.9
78274
78251.1
78228.2
78205.3
78182.4
78159.5
78136.6
78113.7
78090.9
78068
78045.1
78022.3
77999.4
77976.6
77953.7
77930.9
77908.1
77885.2
77862.4
77839.6
77816.8
77794
77771.2
77748.4
77725.6
77702.9
77680.1
77657.3
77634.6
77611.8
77589
77566.3
77543.6
77520.8
77498.1
77475.4
77452.7
77429.9
77407.2
77384.5
77361.8
77339.2
77316.5
77293.8
77271.1
77248.5
77225.8
77203.1
77180.5
77157.8
77135.2
77112.6
77089.9
77067.3
77044.7
77022.1
76999.5
76976.9
76954.3
76931.7
76909.1
76886.6
76864
76841.4
76818.9
76796.3
76773.8
76751.2
76728.7
76706.1
76683.6
76661.1
76638.6
76616.1
76593.6
76571.1
76548.6
76526.1
76503.6
76481.1
76458.6
76436.2
76413.7
76391.3
76368.8
76346.4
76323.9
76301.5
76279.1
76256.7
76234.2
76211.8
76189.4
76167
76144.6
76122.2
76099.9
76077.5
76055.1
76032.7
76010.4
75988
75965.7
75943.3
75921
75898.7
75876.3
75854
75831.7
75809.4
75787.1
75764.8
75742.5
75720.2
75697.9
75675.7
75653.4
75631.1
75608.9
75586.6
75564.4
75542.1
75519.9
75497.6
75475.4
75453.2
75431
75408.8
75386.6
75364.4
75342.2
75320
75297.8
75275.6
75253.4
75231.3
75209.1
75187
75164.8
75142.7
75120.5
75098.4
75076.3
75054.1
75032
75009.9
74987.8
74965.7
74943.6
74921.5
74899.4
74877.4
74855.3
74833.2
74811.2
74789.1
74767.1
74745
74723
74700.9
74678.9
74656.9
74634.9
74612.9
74590.9
74568.9
74546.9
74524.9
74502.9
74480.9
74458.9
74437
74415
74393
74371.1
74349.1
74327.2
74305.3
74283.3
74261.4
74239.5
74217.6
74195.7
74173.8
74151.9
74130
74108.1
74086.2
74064.3
74042.5
74020.6
73998.8
73976.9
73955.1
73933.2
73911.4
73889.5
73867.7
73845.9
73824.1
73802.3
73780.5
73758.7
73736.9
73715.1
73693.3
73671.5
73649.8
73628
73606.2
73584.5
73562.7
73541
73519.3
73497.5
73475.8
73454.1
73432.4
73410.6
73388.9
73367.2
73345.5
73323.9
73302.2
73280.5
73258.8
73237.2
73215.5
73193.8
73172.2
73150.5
73128.9
73107.3
73085.6
73064
73042.4
73020.8
72999.2
72977.6
72956
72934.4
72912.8
72891.2
72869.6
72848.1
72826.5
72805
72783.4
72761.9
72740.3
72718.8
72697.2
72675.7
72654.2
72632.7
72611.2
72589.7
72568.2
72546.7
72525.2
72503.7
72482.2
72460.8
72439.3
72417.8
72396.4
72374.9
72353.5
72332
72310.6
72289.2
72267.7
72246.3
72224.9
72203.5
72182.1
72160.7
72139.3
72117.9
72096.6
72075.2
72053.8
72032.4
72011.1
71989.7
71968.4
71947
71925.7
71904.4
71883
71861.7
71840.4
71819.1
71797.8
71776.5
71755.2
71733.9
71712.6
71691.3
71670.1
71648.8
71627.5
71606.3
71585
71563.8
71542.6
71521.3
71500.1
71478.9
71457.6
71436.4
71415.2
71394
71372.8
71351.6
71330.4
71309.3
71288.1
71266.9
71245.7
71224.6
71203.4
71182.3
71161.1
71140
71118.9
71097.7
71076.6
71055.5
71034.4
71013.3
70992.2
70971.1
70950
70928.9
70907.8
70886.8
70865.7
70844.6
70823.6
70802.5
70781.5
70760.4
70739.4
70718.4
70697.3
70676.3
70655.3
70634.3
70613.3
70592.3
70571.3
70550.3
70529.3
70508.3
70487.4
70466.4
70445.4
70424.5
70403.5
70382.6
70361.6
70340.7
70319.8
70298.8
70277.9
70257
70236.1
70215.2
70194.3
70173.4
70152.5
70131.6
70110.7
70089.9
70069
70048.1
70027.3
70006.4
69985.6
69964.7
69943.9
69923.1
69902.3
69881.4
69860.6
69839.8
69819
69798.2
69777.4
69756.6
69735.8
69715.1
69694.3
69673.5
69652.8
69632
69611.3
69590.5
69569.8
69549
69528.3
69507.6
69486.9
69466.1
69445.4
69424.7
69404
69383.3
69362.7
69342
69321.3
69300.6
69280
69259.3
69238.6
69218
69197.3
69176.7
69156.1
69135.4
69114.8
69094.2
69073.6
69053
69032.4
69011.8
68991.2
68970.6
68950
68929.4
68908.9
68888.3
68867.7
68847.2
68826.6
68806.1
68785.5
68765
68744.5
68723.9
68703.4
68682.9
68662.4
68641.9
68621.4
68600.9
68580.4
68559.9
68539.4
68519
68498.5
68478
68457.6
68437.1
68416.7
68396.2
68375.8
68355.4
68335
68314.5
68294.1
68273.7
68253.3
68232.9
68212.5
68192.1
68171.7
68151.4
68131
68110.6
68090.3
68069.9
68049.5
68029.2
68008.9
67988.5
67968.2
67947.9
67927.5
67907.2
67886.9
67866.6
67846.3
67826
67805.7
67785.4
67765.1
67744.9
67724.6
67704.3
67684.1
67663.8
67643.6
67623.3
67603.1
67582.9
67562.6
67542.4
67522.2
67502
67481.8
67461.6
67441.4
67421.2
67401
67380.8
67360.6
67340.5
67320.3
67300.1
67280
67259.8
67239.7
67219.5
67199.4
67179.3
67159.1
67139
67118.9
67098.8
67078.7
67058.6
67038.5
67018.4
66998.3
66978.2
66958.2
66938.1
66918
66898
66877.9
66857.9
66837.8
66817.8
66797.8
66777.7
66757.7
66737.7
66717.7
66697.7
66677.7
66657.7
66637.7
66617.7
66597.7
66577.7
66557.8
66537.8
66517.8
66497.9
66477.9
66458
66438.1
66418.1
66398.2
66378.3
66358.3
66338.4
66318.5
66298.6
66278.7
66258.8
66238.9
66219.1
66199.2
66179.3
66159.4
66139.6
66119.7
66099.9
66080
66060.2
66040.3
66020.5
66000.7
65980.8
65961
65941.2
65921.4
65901.6
65881.8
65862
65842.2
65822.4
65802.7
65782.9
65763.1
65743.4
65723.6
65703.9
65684.1
65664.4
65644.6
65624.9
65605.2
65585.5
65565.7
65546
65526.3
65506.6
65486.9
65467.2
65447.5
65427.9
65408.2
65388.5
65368.9
65349.2
65329.5
65309.9
65290.2
65270.6
65251
65231.3
65211.7
65192.1
65172.5
65152.9
65133.3
65113.7
65094.1
65074.5
65054.9
65035.3
65015.7
64996.2
64976.6
64957
64937.5
64917.9
64898.4
64878.9
64859.3
64839.8
64820.3
64800.8
64781.2
64761.7
64742.2
64722.7
64703.2
64683.7
64664.3
64644.8
64625.3
64605.8
64586.4
64566.9
64547.5
64528
64508.6
64489.1
64469.7
64450.3
64430.9
64411.4
64392
64372.6
64353.2
64333.8
64314.4
64295
64275.6
64256.3
64236.9
64217.5
64198.2
64178.8
64159.5
64140.1
64120.8
64101.4
64082.1
64062.8
64043.4
64024.1
64004.8
63985.5
63966.2
63946.9
63927.6
63908.3
63889
63869.8
63850.5
63831.2
63811.9
63792.7
63773.4
63754.2
63734.9
63715.7
63696.5
63677.2
63658
63638.8
63619.6
63600.4
63581.2
63562
63542.8
63523.6
63504.4
63485.2
63466.1
63446.9
63427.7
63408.6
63389.4
63370.3
63351.1
63332
63312.8
63293.7
63274.6
63255.5
63236.4
63217.3
63198.2
63179.1
63160
63140.9
63121.8
63102.7
63083.6
63064.6
63045.5
63026.4
63007.4
62988.3
62969.3
62950.2
62931.2
62912.2
62893.2
62874.1
62855.1
62836.1
62817.1
62798.1
62779.1
62760.1
62741.1
62722.2
62703.2
62684.2
62665.2
62646.3
62627.3
62608.4
62589.4
62570.5
62551.5
62532.6
62513.7
62494.8
62475.9
62456.9
62438
62419.1
62400.2
62381.3
62362.5
62343.6
62324.7
62305.8
62287
62268.1
62249.2
62230.4
62211.5
62192.7
62173.9
62155
62136.2
62117.4
62098.6
62079.7
62060.9
62042.1
62023.3
62004.5
61985.7
61967
61948.2
61929.4
61910.6
61891.9
61873.1
61854.4
61835.6
61816.9
61798.1
61779.4
61760.7
61741.9
61723.2
61704.5
61685.8
61667.1
61648.4
61629.7
61611
61592.3
61573.6
61554.9
61536.3
61517.6
61498.9
61480.3
61461.6
61443
61424.3
61405.7
61387.1
61368.4
61349.8
61331.2
61312.6
61294
61275.4
61256.8
61238.2
61219.6
61201
61182.4
61163.9
61145.3
61126.7
61108.2
61089.6
61071
61052.5
61034
61015.4
60996.9
60978.4
60959.8
60941.3
60922.8
60904.3
60885.8
60867.3
60848.8
60830.3
60811.8
60793.4
60774.9
60756.4
60738
60719.5
60701.1
60682.6
60664.2
60645.7
60627.3
60608.9
60590.4
60572
60553.6
60535.2
60516.8
60498.4
60480
60461.6
60443.2
60424.8
60406.4
60388.1
60369.7
60351.3
60333
60314.6
60296.3
60277.9
60259.6
60241.3
60222.9
60204.6
60186.3
60168
60149.7
60131.4
60113.1
60094.8
60076.5
60058.2
60039.9
60021.6
60003.4
59985.1
59966.8
59948.6
59930.3
59912.1
59893.8
59875.6
59857.4
59839.1
59820.9
59802.7
59784.5
59766.3
59748.1
59729.9
59711.7
59693.5
59675.3
59657.1
59638.9
59620.8
59602.6
59584.4
59566.3
59548.1
59530
59511.8
59493.7
59475.6
59457.4
59439.3
59421.2
59403.1
59385
59366.9
59348.8
59330.7
59312.6
59294.5
59276.4
59258.3
59240.3
59222.2
59204.1
59186.1
59168
59150
59131.9
59113.9
59095.9
59077.8
59059.8
59041.8
59023.8
59005.8
58987.8
58969.8
58951.8
58933.8
58915.8
58897.8
58879.8
58861.8
58843.9
58825.9
58808
58790
58772.1
58754.1
58736.2
58718.2
58700.3
58682.4
58664.5
58646.5
58628.6
58610.7
58592.8
58574.9
58557
58539.2
58521.3
58503.4
58485.5
58467.6
58449.8
58431.9
58414.1
58396.2
58378.4
58360.5
58342.7
58324.9
58307
58289.2
58271.4
58253.6
58235.8
58218
58200.2
58182.4
58164.6
58146.8
58129
58111.3
58093.5
58075.7
58058
58040.2
58022.5
58004.7
57987
57969.2
57951.5
57933.8
57916
57898.3
57880.6
57862.9
57845.2
57827.5
57809.8
57792.1
57774.4
57756.7
57739.1
57721.4
57703.7
57686.1
57668.4
57650.7
57633.1
57615.5
57597.8
57580.2
57562.5
57544.9
57527.3
57509.7
57492.1
57474.5
57456.9
57439.3
57421.7
57404.1
57386.5
57368.9
57351.3
57333.8
57316.2
57298.6
57281.1
57263.5
57246
57228.4
57210.9
57193.4
57175.8
57158.3
57140.8
57123.3
57105.8
57088.3
57070.8
57053.3
57035.8
57018.3
57000.8
56983.3
56965.9
56948.4
56930.9
56913.5
56896
56878.6
56861.1
56843.7
56826.2
56808.8
56791.4
56774
56756.5
56739.1
56721.7
56704.3
56686.9
56669.5
56652.1
56634.7
56617.4
56600
56582.6
56565.2
56547.9
56530.5
56513.2
56495.8
56478.5
56461.1
56443.8
56426.5
56409.1
56391.8
56374.5
56357.2
56339.9
56322.6
56305.3
56288
56270.7
56253.4
56236.1
56218.9
56201.6
56184.3
56167.1
56149.8
56132.5
56115.3
56098.1
56080.8
56063.6
56046.4
56029.1
56011.9
55994.7
55977.5
55960.3
55943.1
55925.9
55908.7
55891.5
55874.3
55857.1
55839.9
55822.8
55805.6
55788.4
55771.3
55754.1
55737
55719.8
55702.7
55685.6
55668.4
55651.3
55634.2
55617.1
55600
55582.9
55565.7
55548.6
55531.6
55514.5
55497.4
55480.3
55463.2
55446.2
55429.1
55412
55395
55377.9
55360.9
55343.8
55326.8
55309.7
55292.7
55275.7
55258.7
55241.7
55224.7
55207.7
55190.7
55173.7
55156.8
55139.8
55122.9
55105.9
55089
55072
55055
55037.9
55020.9
55003.9
54986.9
54969.9
54953
54936.2
54919.4
54902.7
54886.1
54869.7
54853.4
54837.3
54821.3
54805.3
54789.3
54773
54756.2
54738.8
54721.1
54703.2
54685.4
54667.9
54650.6
54633.5
54616.7
54600.3
54584.3
54568.8
54553.8
54539.3
54525.4
54512
54498.8
54485.7
54472.1
54457.5
54441.5
54424.1
54405.4
54386
54366.3
54347
54328
54309.5
54291.4
54273.8
54256.7
54240.1
54224.2
54208.9
54194.1
54180
54166.4
54153.4
54140.7
54128.1
54115.5
54102.4
54088.4
54073.2
54056.7
54039
54020.3
54001
53981.3
53961.8
53942.4
53923.4
53904.6
53886.2
53868.2
53850.5
53833.2
53816.3
53799.8
53783.7
53768
53752.8
53737.9
53723.4
53709.2
53695.3
53681.6
53668
53654.3
53640.5
53626.2
53611.2
53595.4
53578.8
53561.4
53543.3
53524.7
53505.8
53486.8
53467.9
53449.2
53430.7
53412.4
53394.2
53376.3
53358.6
53341.2
53324
53307
53290.4
53274
53257.8
53241.9
53226.3
53211
53195.8
53180.9
53166.2
53151.7
53137.2
53122.9
53108.6
53094.3
53079.8
53064.9
53049.6
53033.8
53017.4
53000.4
52982.9
52965
52946.8
52928.4
52910
52891.7
52873.4
52855.3
52837.3
52819.4
52801.6
52784
52766.6
52749.2
52732.1
52715.1
52698.2
52681.5
52665
52648.7
52632.6
52616.6
52600.7
52585.1
52569.6
52554.2
52539
52523.9
52508.9
52494.1
52479.2
52464.5
52449.7
52435
52420
52404.9
52389.4
52373.5
52357.2
52340.5
52323.5
52306.1
52288.4
52270.6
52252.6
52234.6
52216.7
52198.8
52180.9
52163.1
52145.4
52127.7
52110
52092.4
52074.9
52057.4
52040
52022.6
52005.2
51987.9
51970.7
51953.5
51936.3
51919.2
51902.1
51885.1
51868.1
51851.1
51834.2
51817.3
51800.5
51783.7
51766.9
51750.2
51733.5
51716.8
51700.2
51683.6
51667
51650.5
51634
51617.5
51601.1
51584.7
51568.4
51552.1
51535.9
51519.7
51503.5
51487.4
51471.4
51455.5
51439.6
51423.7
51407.9
51392.2
51376.5
51360.8
51345.2
51329.6
51314
51298.3
51282.6
51266.7
51250.8
51234.7
51218.6
51202.5
51186.5
51170.5
51154.5
51138.7
51122.8
51107.1
51091.4
51075.9
51060.4
51045
51029.8
51014.6
50999.5
50984.5
50969.5
50954.6
50939.6
50924.6
50909.4
50894
50878.2
50862.3
50846.1
50829.9
50813.6
50797.5
50781.4
50765.4
50749.5
50733.7
50718
50702.4
50686.9
50671.5
50656.3
50641.2
50626.1
50611.2
50596.3
50581.5
50566.6
50551.7
50536.7
50521.3
50505.7
50489.8
50473.7
50457.5
50441.3
50425.1
50409
50393
50377
50361.2
50345.4
50329.8
50314.2
50298.8
50283.5
50268.3
50253.1
50238.1
50223.1
50208.2
50193.3
50178.3
50163.2
50147.8
50132.2
50116.3
50100.3
50084.1
50067.9
50051.8
50035.8
50019.8
50003.9
49988.1
49972.4
49956.8
49941.3
49926
49910.7
49895.5
49880.5
49865.5
49850.6
49835.7
49820.8
49805.8
49790.7
49775.4
49759.7
49743.9
49727.8
49711.7
49695.5
49679.4
49663.4
49647.5
49631.7
49615.9
49600.3
49584.7
49569.3
49554
49538.9
49523.8
49508.9
49494
49479.3
49464.6
49449.8
49435.1
49420.1
49404.9
49389.4
49373.6
49357.5
49341.4
49325.2
49309.1
49293.1
49277.1
49261.3
49245.5
49229.9
49214.4
49199
49183.8
49168.7
49153.7
49138.9
49124.2
49109.6
49095.1
49080.6
49066.1
49051.4
49036.5
49021.2
49005.6
48989.7
48973.6
48957.4
48941.2
48925.1
48909.1
48893.2
48877.4
48861.7
48846.2
48830.8
48815.5
48800.5
48785.5
48770.8
48756.2
48741.7
48727.4
48713.1
48698.9
48684.5
48670
48655.2
48640
48624.4
48608.5
48592.4
48576.1
48559.9
48543.8
48527.8
48511.9
48496.1
48480.5
48465
48449.6
48434.5
48419.5
48404.7
48390.1
48375.6
48361.4
48347.2
48333.1
48319.1
48305
48290.7
48276.1
48261.1
48245.7
48230
48213.9
48197.7
48181.5
48165.4
48149.3
48133.4
48117.6
48101.9
48086.4
48071
48055.9
48040.9
48026.1
48011.6
47997.2
47983
47968.9
47955
47941.1
47927.2
47913.2
47899
47884.4
47869.5
47854.1
47838.3
47822.3
47806.1
47789.9
47773.8
47757.8
47741.9
47726.2
47710.6
47695.2
47679.9
47664.9
47650
47635.4
47620.9
47606.7
47592.6
47578.7
47564.8
47551.1
47537.3
47523.5
47509.4
47495
47480.2
47465
47449.4
47433.5
47417.4
47401.3
47385.3
47369.3
47353.5
47337.8
47322.2
47306.8
47291.6
47276.6
47261.7
47247.1
47232.7
47218.4
47204.4
47190.5
47176.8
47163.1
47149.5
47135.8
47122
47107.9
47093.4
47078.6
47063.3
47047.7
47031.8
47015.8
46999.8
46983.8
46968
46952.3
46936.7
46921.3
46906.1
46891
46876.1
46861.4
46846.9
46832.6
46818.6
46804.6
46790.9
46777.3
46763.7
46750.2
46736.6
46722.8
46708.8
46694.4
46679.6
46664.5
46648.9
46633.2
46617.3
46601.4
46585.6
46569.9
46554.2
46538.8
46523.4
46508.3
46493.3
46478.5
46463.9
46449.5
46435.2
46421.2
46407.4
46393.7
46380.2
46366.7
46353.3
46339.8
46326.2
46312.3
46298.2
46283.6
46268.6
46253.3
46237.7
46222
46206.2
46190.4
46174.8
46159.2
46143.8
46128.5
46113.4
46098.4
46083.7
46069.1
46054.7
46040.5
46026.5
46012.7
45999.1
45985.6
45972.2
45958.8
45945.5
45932.1
45918.5
45904.6
45890.4
45875.8
45860.8
45845.5
45829.9
45814.2
45798.6
45782.9
45767.4
45752
45736.7
45721.6
45706.6
45691.7
45677.1
45662.7
45648.4
45634.4
45620.6
45606.9
45593.4
45580.1
45566.8
45553.6
45540.4
45527.1
45513.6
45499.9
45485.7
45471.2
45456.3
45441.1
45425.7
45410.1
45394.5
45379
45363.5
45348.2
45333
45317.9
45303
45288.2
45273.6
45259.3
45245.1
45231.2
45217.4
45203.8
45190.4
45177.2
45164.1
45151
45137.9
45124.8
45111.6
45098
45084.1
45069.9
45055.2
45040.2
45025
45009.5
44994
44978.5
44963.1
44947.8
44932.6
44917.6
44902.6
44887.9
44873.3
44858.9
44844.8
44830.8
44817
44803.5
44790.1
44776.9
44763.9
44750.9
44738
44725.1
44712.1
44698.9
44685.4
44671.5
44657.3
44642.7
44627.7
44612.5
44597.1
44581.7
44566.3
44551
44535.8
44520.6
44505.7
44490.9
44476.2
44461.7
44447.5
44433.4
44419.6
44406
44392.6
44379.3
44366.3
44353.4
44340.6
44327.8
44315.1
44302.2
44289.2
44275.8
44262.1
44248.1
44233.6
44218.8
44203.7
44188.5
44173.1
44157.8
44142.5
44127.3
44112.2
44097.3
44082.5
44067.9
44053.5
44039.2
44025.2
44011.4
43997.9
43984.5
43971.4
43958.4
43945.6
43932.9
43920.3
43907.7
43895.1
43882.3
43869.3
43855.9
43842.2
43828.1
43813.6
43798.7
43783.6
43768.4
43753.1
43737.8
43722.6
43707.6
43692.6
43677.8
43663.1
43648.6
43634.3
43620.2
43606.4
43592.8
43579.4
43566.2
43553.2
43540.4
43527.8
43515.3
43502.9
43490.5
43478
43465.4
43452.5
43439.3
43425.7
43411.7
43397.4
43382.6
43367.6
43352.5
43337.2
43322
43306.9
43291.8
43276.9
43262.1
43247.4
43233
43218.7
43204.6
43190.8
43177.2
43163.9
43150.8
43137.9
43125.2
43112.7
43100.3
43088.1
43075.9
43063.7
43051.3
43038.8
43026
43012.8
42999.2
42985.2
42970.8
42956.1
42941.1
42925.9
42910.7
42895.6
42880.5
42865.5
42850.6
42835.8
42821.2
42806.8
42792.6
42778.7
42765
42751.5
42738.2
42725.3
42712.5
42700
42687.6
42675.4
42663.3
42651.3
42639.3
42627.2
42614.9
42602.3
42589.4
42576.1
42562.3
42548.2
42533.7
42518.9
42503.9
42488.8
42473.7
42458.6
42443.6
42428.7
42413.9
42399.3
42384.9
42370.7
42356.7
42342.9
42329.4
42316.1
42303.1
42290.3
42277.8
42265.5
42253.4
42241.4
42229.5
42217.7
42205.9
42193.9
42181.8
42169.3
42156.5
42143.3
42129.7
42115.7
42101.3
42086.6
42071.6
42056.6
42041.4
42026.4
42011.4
41996.5
41981.7
41967.1
41952.6
41938.4
41924.4
41910.6
41897.1
41883.8
41870.8
41858.1
41845.7
41833.4
41821.4
41809.6
41797.9
41786.3
41774.7
41763.1
41751.3
41739.3
41726.9
41714.2
41701.1
41687.5
41673.6
41659.3
41644.6
41629.8
41614.7
41599.7
41584.6
41569.7
41554.8
41540.1
41525.5
41511.2
41497
41483
41469.3
41455.9
41442.7
41429.8
41417.2
41404.8
41392.7
41380.8
41369
41357.5
41346
41334.6
41323.2
41311.6
41299.8
41287.7
41275.3
41262.5
41249.2
41235.5