/*--------------------------------*- C++ -*----------------------------------*\
  =========                 |
  \\      /  F ield         | OpenFOAM: The Open Source CFD Toolbox
   \\    /   O peration     | Website:  https://openfoam.org
    \\  /    A nd           | Version:  9
     \\/     M anipulation  |
\*---------------------------------------------------------------------------*/
FoamFile
{
    format      ascii;
    class       volVectorField;
    location    "0.011";
    object      U;
}
// * * * * * * * * * * * * * * * * * * * * * * * * * * * * * * * * * * * * * //

dimensions      [0 1 -1 0 0 0 0];

internalField   nonuniform List<vector> 
10000
(
(2.77159e-13 0 0)
(5.54317e-13 0 0)
(7.5854e-13 0 0)
(1.13781e-12 0 0)
(1.12322e-12 0 0)
(1.36391e-12 0 0)
(1.53896e-12 0 0)
(1.62648e-12 0 0)
(1.80153e-12 0 0)
(2.05681e-12 0 0)
(2.15892e-12 0 0)
(2.4142e-12 0 0)
(2.66948e-12 0 0)
(2.84452e-12 0 0)
(3.01957e-12 0 0)
(3.01228e-12 0 0)
(3.13627e-12 0 0)
(3.36237e-12 0 0)
(3.58118e-12 0 0)
(3.74894e-12 0 0)
(3.93857e-12 0 0)
(4.16467e-12 0 0)
(4.49289e-12 0 0)
(4.67523e-12 0 0)
(4.98886e-12 0 0)
(5.18579e-12 0 0)
(5.32436e-12 0 0)
(5.36083e-12 0 0)
(5.50671e-12 0 0)
(5.73281e-12 0 0)
(5.9735e-12 0 0)
(6.14855e-12 0 0)
(6.42571e-12 0 0)
(6.60805e-12 0 0)
(6.62263e-12 0 0)
(6.86332e-12 0 0)
(7.19154e-12 0 0)
(7.33012e-12 0 0)
(7.56352e-12 0 0)
(7.70209e-12 0 0)
(7.9282e-12 0 0)
(8.11054e-12 0 0)
(8.29288e-12 0 0)
(8.60651e-12 0 0)
(8.65756e-12 0 0)
(9.00036e-12 0 0)
(9.16082e-12 0 0)
(9.35775e-12 0 0)
(9.4161e-12 0 0)
(9.49633e-12 0 0)
(9.97771e-12 0 0)
(1.01892e-11 0 0)
(1.04153e-11 0 0)
(1.05758e-11 0 0)
(1.07581e-11 0 0)
(1.10426e-11 0 0)
(1.12979e-11 0 0)
(1.14364e-11 0 0)
(1.15531e-11 0 0)
(1.17792e-11 0 0)
(1.21075e-11 0 0)
(1.22752e-11 0 0)
(1.2494e-11 0 0)
(1.24503e-11 0 0)
(1.26545e-11 0 0)
(1.28441e-11 0 0)
(1.27785e-11 0 0)
(1.30629e-11 0 0)
(1.34276e-11 0 0)
(1.36391e-11 0 0)
(1.38215e-11 0 0)
(1.40257e-11 0 0)
(1.42007e-11 0 0)
(1.44925e-11 0 0)
(1.46238e-11 0 0)
(1.46238e-11 0 0)
(1.46967e-11 0 0)
(1.46019e-11 0 0)
(1.43685e-11 0 0)
(1.4208e-11 0 0)
(1.40913e-11 0 0)
(1.38725e-11 0 0)
(1.34422e-11 0 0)
(1.32817e-11 0 0)
(1.30556e-11 0 0)
(1.24065e-11 0 0)
(1.21877e-11 0 0)
(1.18376e-11 0 0)
(1.15823e-11 0 0)
(1.15021e-11 0 0)
(1.10353e-11 0 0)
(1.07363e-11 0 0)
(1.0481e-11 0 0)
(9.96313e-12 0 0)
(9.54739e-12 0 0)
(9.21188e-12 0 0)
(9.02225e-12 0 0)
(8.46793e-12 0 0)
(8.19806e-12 0 0)
(8.11783e-12 0 0)
(8.00113e-12 0 0)
(7.75315e-12 0 0)
(7.54163e-12 0 0)
(7.40305e-12 0 0)
(7.16236e-12 0 0)
(7.02379e-12 0 0)
(6.69557e-12 0 0)
(6.53511e-12 0 0)
(6.28713e-12 0 0)
(5.87139e-12 0 0)
(5.80575e-12 0 0)
(5.71093e-12 0 0)
(5.49941e-12 0 0)
(5.33166e-12 0 0)
(5.20767e-12 0 0)
(5.22225e-12 0 0)
(5.01074e-12 0 0)
(4.91592e-12 0 0)
(4.79193e-12 0 0)
(4.68252e-12 0 0)
(4.66794e-12 0 0)
(4.52936e-12 0 0)
(4.54394e-12 0 0)
(4.51477e-12 0 0)
(4.32513e-12 0 0)
(4.47101e-12 0 0)
(4.33243e-12 0 0)
(4.00421e-12 0 0)
(3.71976e-12 0 0)
(3.48636e-12 0 0)
(3.29673e-12 0 0)
(3.12898e-12 0 0)
(3.00498e-12 0 0)
(2.76429e-12 0 0)
(2.57466e-12 0 0)
(2.31209e-12 0 0)
(2.10057e-12 0 0)
(2.01305e-12 0 0)
(1.76506e-12 0 0)
(1.45144e-12 0 0)
(1.25451e-12 0 0)
(9.62762e-13 0 0)
(6.92897e-13 0 0)
(3.64683e-13 0 0)
(1.75048e-13 0 0)
(1.45873e-14 0 0)
(-3.06333e-13 0 0)
(-4.37619e-13 0 0)
(-7.0019e-13 0 0)
(-9.48175e-13 0 0)
(-1.16698e-12 0 0)
(-1.52437e-12 0 0)
(-1.90364e-12 0 0)
(-2.32667e-12 0 0)
(-2.77888e-12 0 0)
(-3.01228e-12 0 0)
(-3.36967e-12 0 0)
(-3.58118e-12 0 0)
(-3.85105e-12 0 0)
(-4.17926e-12 0 0)
(-4.34702e-12 0 0)
(-4.48559e-12 0 0)
(-4.68982e-12 0 0)
(-4.87945e-12 0 0)
(-5.06179e-12 0 0)
(-5.18579e-12 0 0)
(-5.44836e-12 0 0)
(-5.50671e-12 0 0)
(-5.65258e-12 0 0)
(-5.87868e-12 0 0)
(-6.01726e-12 0 0)
(-5.95162e-12 0 0)
(-6.15584e-12 0 0)
(-6.3163e-12 0 0)
(-6.45488e-12 0 0)
(-6.53511e-12 0 0)
(-6.68828e-12 0 0)
(-6.62263e-12 0 0)
(-6.56429e-12 0 0)
(-6.42571e-12 0 0)
(-6.30901e-12 0 0)
(-6.27983e-12 0 0)
(-5.94432e-12 0 0)
(-5.6307e-12 0 0)
(-5.45565e-12 0 0)
(-5.32436e-12 0 0)
(-5.30978e-12 0 0)
(-5.06179e-12 0 0)
(-4.92321e-12 0 0)
(-4.65335e-12 0 0)
(-4.42725e-12 0 0)
(-4.31055e-12 0 0)
(-3.81458e-12 0 0)
(-3.59577e-12 0 0)
(-3.37696e-12 0 0)
(-3.19462e-12 0 0)
(-2.9904e-12 0 0)
(-2.85182e-12 0 0)
(-2.66948e-12 0 0)
(-2.21727e-12 0 0)
(-2.01305e-12 0 0)
(-1.77965e-12 0 0)
(-1.55355e-12 0 0)
(-1.45873e-12 0 0)
(-1.23263e-12 0 0)
(-1.0284e-12 0 0)
(-8.16889e-13 0 0)
(-5.61611e-13 0 0)
(-2.84452e-13 0 0)
(-8.02302e-14 0 0)
(2.69865e-13 0 0)
(6.27254e-13 0 0)
(9.11706e-13 0 0)
(1.09405e-12 0 0)
(1.32015e-12 0 0)
(1.46602e-12 0 0)
(1.67025e-12 0 0)
(1.91823e-12 0 0)
(1.99846e-12 0 0)
(2.10057e-12 0 0)
(2.29021e-12 0 0)
(2.5236e-12 0 0)
(2.88099e-12 0 0)
(3.18003e-12 0 0)
(3.54471e-12 0 0)
(3.91669e-12 0 0)
(4.30325e-12 0 0)
(4.52936e-12 0 0)
(4.58041e-12 0 0)
(4.78463e-12 0 0)
(5.09097e-12 0 0)
(5.44836e-12 0 0)
(5.71093e-12 0 0)
(6.03185e-12 0 0)
(6.14855e-12 0 0)
(6.35277e-12 0 0)
(6.59346e-12 0 0)
(6.79768e-12 0 0)
(6.89979e-12 0 0)
(7.02379e-12 0 0)
(7.08213e-12 0 0)
(7.32282e-12 0 0)
(7.52705e-12 0 0)
(7.5781e-12 0 0)
(7.72398e-12 0 0)
(7.72398e-12 0 0)
(7.79691e-12 0 0)
(7.67292e-12 0 0)
(7.76774e-12 0 0)
(7.70939e-12 0 0)
(7.5854e-12 0 0)
(7.64375e-12 0 0)
(7.59269e-12 0 0)
(7.4614e-12 0 0)
(7.32282e-12 0 0)
(7.30824e-12 0 0)
(7.25718e-12 0 0)
(7.20613e-12 0 0)
(7.21342e-12 0 0)
(7.10402e-12 0 0)
(6.84144e-12 0 0)
(6.97273e-12 0 0)
(7.11131e-12 0 0)
(7.06755e-12 0 0)
(7.1259e-12 0 0)
(6.93626e-12 0 0)
(6.68828e-12 0 0)
(6.50594e-12 0 0)
(6.37465e-12 0 0)
(6.19231e-12 0 0)
(5.92974e-12 0 0)
(5.86409e-12 0 0)
(5.65987e-12 0 0)
(5.3973e-12 0 0)
(5.27331e-12 0 0)
(5.13473e-12 0 0)
(5.10556e-12 0 0)
(4.8211e-12 0 0)
(4.52936e-12 0 0)
(4.41266e-12 0 0)
(4.35431e-12 0 0)
(4.06256e-12 0 0)
(4.09174e-12 0 0)
(4.28867e-12 0 0)
(4.39078e-12 0 0)
(4.29596e-12 0 0)
(4.23761e-12 0 0)
(4.33243e-12 0 0)
(4.3616e-12 0 0)
(4.33972e-12 0 0)
(4.33243e-12 0 0)
(4.25949e-12 0 0)
(4.37619e-12 0 0)
(4.37619e-12 0 0)
(4.38348e-12 0 0)
(4.38348e-12 0 0)
(4.26679e-12 0 0)
(4.2449e-12 0 0)
(4.09903e-12 0 0)
(4.12091e-12 0 0)
(4.05527e-12 0 0)
(3.9094e-12 0 0)
(3.9021e-12 0 0)
(3.72706e-12 0 0)
(3.50095e-12 0 0)
(3.31132e-12 0 0)
(2.99769e-12 0 0)
(2.90287e-12 0 0)
(2.69865e-12 0 0)
(2.53819e-12 0 0)
(2.50172e-12 0 0)
(2.35585e-12 0 0)
(2.13704e-12 0 0)
(1.89635e-12 0 0)
(1.82341e-12 0 0)
(1.51708e-12 0 0)
(1.41497e-12 0 0)
(1.13781e-12 0 0)
(1.08675e-12 0 0)
(8.89825e-13 0 0)
(1.02111e-12 0 0)
(1.0357e-12 0 0)
(8.53357e-13 0 0)
(8.67944e-13 0 0)
(9.84643e-13 0 0)
(9.84643e-13 0 0)
(9.40881e-13 0 0)
(9.84643e-13 0 0)
(9.26294e-13 0 0)
(7.95008e-13 0 0)
(6.85603e-13 0 0)
(7.36659e-13 0 0)
(8.3877e-13 0 0)
(1.04299e-12 0 0)
(1.17428e-12 0 0)
(1.41497e-12 0 0)
(1.34203e-12 0 0)
(1.2691e-12 0 0)
(1.25451e-12 0 0)
(1.34933e-12 0 0)
(1.4952e-12 0 0)
(1.54625e-12 0 0)
(1.57543e-12 0 0)
(1.7213e-12 0 0)
(1.7286e-12 0 0)
(1.7286e-12 0 0)
(1.82341e-12 0 0)
(2.12245e-12 0 0)
(2.08598e-12 0 0)
(2.33397e-12 0 0)
(2.27562e-12 0 0)
(2.51631e-12 0 0)
(2.69136e-12 0 0)
(2.46525e-12 0 0)
(2.60383e-12 0 0)
(2.82264e-12 0 0)
(2.90287e-12 0 0)
(2.96122e-12 0 0)
(2.9904e-12 0 0)
(3.07063e-12 0 0)
(3.3259e-12 0 0)
(3.34049e-12 0 0)
(3.37696e-12 0 0)
(3.50825e-12 0 0)
(3.68329e-12 0 0)
(3.7854e-12 0 0)
(3.93128e-12 0 0)
(4.1355e-12 0 0)
(4.17197e-12 0 0)
(4.29596e-12 0 0)
(4.48559e-12 0 0)
(4.56582e-12 0 0)
(4.60229e-12 0 0)
(4.79922e-12 0 0)
(4.93051e-12 0 0)
(5.04721e-12 0 0)
(5.20767e-12 0 0)
(4.95968e-12 0 0)
(5.01074e-12 0 0)
(4.91592e-12 0 0)
(4.95968e-12 0 0)
(5.25143e-12 0 0)
(5.26602e-12 0 0)
(5.22955e-12 0 0)
(5.41918e-12 0 0)
(5.44106e-12 0 0)
(5.35354e-12 0 0)
(5.57964e-12 0 0)
(5.63799e-12 0 0)
(5.49941e-12 0 0)
(5.65258e-12 0 0)
(5.63799e-12 0 0)
(5.49212e-12 0 0)
(5.64529e-12 0 0)
(5.68905e-12 0 0)
(5.40459e-12 0 0)
(5.2879e-12 0 0)
(5.22225e-12 0 0)
(5.19308e-12 0 0)
(5.30248e-12 0 0)
(5.35354e-12 0 0)
(5.25872e-12 0 0)
(5.18579e-12 0 0)
(5.11285e-12 0 0)
(5.34625e-12 0 0)
(5.29519e-12 0 0)
(4.98156e-12 0 0)
(4.96698e-12 0 0)
(4.85028e-12 0 0)
(4.75546e-12 0 0)
(4.60959e-12 0 0)
(4.38348e-12 0 0)
(4.2522e-12 0 0)
(4.31784e-12 0 0)
(4.22302e-12 0 0)
(4.3616e-12 0 0)
(4.43454e-12 0 0)
(4.43454e-12 0 0)
(4.27408e-12 0 0)
(4.28867e-12 0 0)
(4.23761e-12 0 0)
(4.0188e-12 0 0)
(3.93128e-12 0 0)
(3.96045e-12 0 0)
(3.74894e-12 0 0)
(3.63953e-12 0 0)
(3.71976e-12 0 0)
(3.7854e-12 0 0)
(3.61036e-12 0 0)
(3.63953e-12 0 0)
(3.54471e-12 0 0)
(3.61765e-12 0 0)
(3.58118e-12 0 0)
(3.50095e-12 0 0)
(3.29673e-12 0 0)
(3.12168e-12 0 0)
(3.07792e-12 0 0)
(3.18733e-12 0 0)
(3.13627e-12 0 0)
(3.04145e-12 0 0)
(3.07063e-12 0 0)
(2.8737e-12 0 0)
(2.77159e-12 0 0)
(2.58925e-12 0 0)
(2.54548e-12 0 0)
(2.43608e-12 0 0)
(2.34856e-12 0 0)
(2.23915e-12 0 0)
(2.11516e-12 0 0)
(2.09328e-12 0 0)
(2.05681e-12 0 0)
(2.01305e-12 0 0)
(1.88176e-12 0 0)
(1.75777e-12 0 0)
(1.73589e-12 0 0)
(1.67025e-12 0 0)
(1.70671e-12 0 0)
(1.7286e-12 0 0)
(1.52437e-12 0 0)
(1.34203e-12 0 0)
(1.30556e-12 0 0)
(1.38579e-12 0 0)
(1.24721e-12 0 0)
(1.08675e-12 0 0)
(9.55468e-13 0 0)
(7.87714e-13 0 0)
(7.22071e-13 0 0)
(5.3973e-13 0 0)
(5.25143e-13 0 0)
(5.61611e-13 0 0)
(3.50095e-13 0 0)
(3.28214e-13 0 0)
(3.06333e-13 0 0)
(2.4069e-13 0 0)
(-7.29365e-15 0 0)
(-1.09405e-13 0 0)
(-1.96929e-13 0 0)
(-2.26103e-13 0 0)
(-4.15738e-13 0 0)
(-5.61611e-13 0 0)
(-6.49135e-13 0 0)
(-8.16889e-13 0 0)
(-8.82532e-13 0 0)
(-1.08675e-12 0 0)
(-1.1451e-12 0 0)
(-1.37121e-12 0 0)
(-1.42226e-12 0 0)
(-1.4952e-12 0 0)
(-1.46602e-12 0 0)
(-1.42956e-12 0 0)
(-1.4952e-12 0 0)
(-1.20345e-12 0 0)
(-1.06487e-12 0 0)
(-9.48175e-13 0 0)
(-7.80421e-13 0 0)
(-5.32436e-13 0 0)
(-4.37619e-13 0 0)
(-2.91746e-13 0 0)
(-2.1881e-13 0 0)
(-1.6046e-13 0 0)
(-1.45873e-13 0 0)
(-7.29365e-15 0 0)
(2.04222e-13 0 0)
(3.35508e-13 0 0)
(6.27254e-13 0 0)
(6.85603e-13 0 0)
(9.19e-13 0 0)
(1.04299e-12 0 0)
(1.09405e-12 0 0)
(1.2618e-12 0 0)
(1.36391e-12 0 0)
(1.50979e-12 0 0)
(1.6046e-12 0 0)
(1.84529e-12 0 0)
(1.9474e-12 0 0)
(2.09328e-12 0 0)
(2.32667e-12 0 0)
(2.59654e-12 0 0)
(2.57466e-12 0 0)
(2.70594e-12 0 0)
(2.80076e-12 0 0)
(2.78617e-12 0 0)
(2.83723e-12 0 0)
(2.72783e-12 0 0)
(2.73512e-12 0 0)
(2.72783e-12 0 0)
(2.79347e-12 0 0)
(2.79347e-12 0 0)
(2.82994e-12 0 0)
(2.69136e-12 0 0)
(2.66218e-12 0 0)
(2.6403e-12 0 0)
(2.58195e-12 0 0)
(2.38502e-12 0 0)
(2.50172e-12 0 0)
(2.43608e-12 0 0)
(2.5309e-12 0 0)
(2.5236e-12 0 0)
(2.47984e-12 0 0)
(2.4142e-12 0 0)
(2.39232e-12 0 0)
(2.24644e-12 0 0)
(1.99846e-12 0 0)
(1.61919e-12 0 0)
(1.32015e-12 0 0)
(1.09405e-12 0 0)
(9.55468e-13 0 0)
(8.16889e-13 0 0)
(7.43952e-13 0 0)
(5.76198e-13 0 0)
(4.81381e-13 0 0)
(4.66794e-13 0 0)
(4.01151e-13 0 0)
(4.66794e-13 0 0)
(5.32436e-13 0 0)
(6.56429e-13 0 0)
(6.92897e-13 0 0)
(8.02302e-13 0 0)
(9.19e-13 0 0)
(1.12322e-12 0 0)
(1.39309e-12 0 0)
(1.59731e-12 0 0)
(1.89635e-12 0 0)
(2.04952e-12 0 0)
(2.23915e-12 0 0)
(2.34126e-12 0 0)
(2.49443e-12 0 0)
(2.66948e-12 0 0)
(2.96122e-12 0 0)
(3.34049e-12 0 0)
(3.60306e-12 0 0)
(3.77811e-12 0 0)
(3.82917e-12 0 0)
(4.04798e-12 0 0)
(4.37619e-12 0 0)
(4.60959e-12 0 0)
(4.90863e-12 0 0)
(5.18579e-12 0 0)
(5.69634e-12 0 0)
(6.34548e-12 0 0)
(7.0092e-12 0 0)
(8.08136e-12 0 0)
(9.14624e-12 0 0)
(1.03497e-11 0 0)
(1.17865e-11 0 0)
(1.35589e-11 0 0)
(1.57835e-11 0 0)
(1.84019e-11 0 0)
(2.13704e-11 0 0)
(2.47692e-11 0 0)
(2.88026e-11 0 0)
(3.3332e-11 0 0)
(3.87001e-11 0 0)
(4.50675e-11 0 0)
(5.25289e-11 0 0)
(6.11937e-11 0 0)
(7.12808e-11 0 0)
(8.3505e-11 0 0)
(9.78078e-11 0 0)
(1.14328e-10 0 0)
(1.3351e-10 0 0)
(1.55967e-10 0 0)
(1.82305e-10 0 0)
(2.1296e-10 0 0)
(2.4875e-10 0 0)
(2.90419e-10 0 0)
(3.38943e-10 0 0)
(3.95367e-10 0 0)
(4.60878e-10 0 0)
(5.37199e-10 0 0)
(6.25956e-10 0 0)
(7.28957e-10 0 0)
(8.48631e-10 0 0)
(9.87502e-10 0 0)
(1.14855e-09 0 0)
(1.33518e-09 0 0)
(1.55157e-09 0 0)
(1.80197e-09 0 0)
(2.09193e-09 0 0)
(2.42724e-09 0 0)
(2.81474e-09 0 0)
(3.26256e-09 0 0)
(3.77955e-09 0 0)
(4.37646e-09 0 0)
(5.06512e-09 0 0)
(5.85881e-09 0 0)
(6.77369e-09 0 0)
(7.82744e-09 0 0)
(9.04038e-09 0 0)
(1.04361e-08 0 0)
(1.20409e-08 0 0)
(1.38857e-08 0 0)
(1.60047e-08 0 0)
(1.84377e-08 0 0)
(2.12297e-08 0 0)
(2.4432e-08 0 0)
(2.81029e-08 0 0)
(3.23084e-08 0 0)
(3.71243e-08 0 0)
(4.26363e-08 0 0)
(4.89414e-08 0 0)
(5.61498e-08 0 0)
(6.43864e-08 0 0)
(7.37928e-08 0 0)
(8.45297e-08 0 0)
(9.67787e-08 0 0)
(1.10745e-07 0 0)
(1.26662e-07 0 0)
(1.4479e-07 0 0)
(1.65427e-07 0 0)
(1.88907e-07 0 0)
(2.15607e-07 0 0)
(2.45952e-07 0 0)
(2.80422e-07 0 0)
(3.19556e-07 0 0)
(3.63961e-07 0 0)
(4.14319e-07 0 0)
(4.71398e-07 0 0)
(5.36058e-07 0 0)
(6.09269e-07 0 0)
(6.92114e-07 0 0)
(7.8581e-07 0 0)
(8.91722e-07 0 0)
(1.01137e-06 0 0)
(1.14648e-06 0 0)
(1.29894e-06 0 0)
(1.47091e-06 0 0)
(1.66476e-06 0 0)
(1.88316e-06 0 0)
(2.12908e-06 0 0)
(2.40585e-06 0 0)
(2.71715e-06 0 0)
(3.0671e-06 0 0)
(3.46028e-06 0 0)
(3.90178e-06 0 0)
(4.39728e-06 0 0)
(4.95306e-06 0 0)
(5.57611e-06 0 0)
(6.27418e-06 0 0)
(7.05587e-06 0 0)
(7.9307e-06 0 0)
(8.90923e-06 0 0)
(1.00031e-05 0 0)
(1.12253e-05 0 0)
(1.25901e-05 0 0)
(1.41132e-05 0 0)
(1.5812e-05 0 0)
(1.77058e-05 0 0)
(1.98157e-05 0 0)
(2.21651e-05 0 0)
(2.47797e-05 0 0)
(2.76877e-05 0 0)
(3.09202e-05 0 0)
(3.45114e-05 0 0)
(3.84989e-05 0 0)
(4.29237e-05 0 0)
(4.78312e-05 0 0)
(5.32708e-05 0 0)
(5.92967e-05 0 0)
(6.59683e-05 0 0)
(7.33506e-05 0 0)
(8.15145e-05 0 0)
(9.05376e-05 0 0)
(0.000100505 0 0)
(0.000111508 0 0)
(0.000123648 0 0)
(0.000137034 0 0)
(0.000151787 0 0)
(0.000168036 0 0)
(0.000185921 0 0)
(0.000205598 0 0)
(0.000227231 0 0)
(0.000251003 0 0)
(0.000277109 0 0)
(0.000305761 0 0)
(0.000337189 0 0)
(0.000371641 0 0)
(0.000409388 0 0)
(0.000450718 0 0)
(0.000495946 0 0)
(0.000545409 0 0)
(0.000599473 0 0)
(0.000658529 0 0)
(0.000723001 0 0)
(0.000793343 0 0)
(0.000870043 0 0)
(0.000953627 0 0)
(0.00104466 0 0)
(0.00114374 0 0)
(0.00125151 0 0)
(0.00136868 0 0)
(0.00149598 0 0)
(0.0016342 0 0)
(0.00178419 0 0)
(0.00194685 0 0)
(0.00212315 0 0)
(0.00231412 0 0)
(0.00252084 0 0)
(0.00274448 0 0)
(0.00298627 0 0)
(0.00324754 0 0)
(0.00352968 0 0)
(0.00383416 0 0)
(0.00416255 0 0)
(0.00451652 0 0)
(0.00489782 0 0)
(0.0053083 0 0)
(0.00574992 0 0)
(0.00622476 0 0)
(0.00673499 0 0)
(0.00728292 0 0)
(0.00787096 0 0)
(0.00850165 0 0)
(0.00917766 0 0)
(0.00990181 0 0)
(0.010677 0 0)
(0.0115064 0 0)
(0.0123932 0 0)
(0.0133407 0 0)
(0.0143525 0 0)
(0.0154322 0 0)
(0.0165838 0 0)
(0.0178112 0 0)
(0.0191185 0 0)
(0.0205102 0 0)
(0.0219907 0 0)
(0.0235647 0 0)
(0.025237 0 0)
(0.0270127 0 0)
(0.0288969 0 0)
(0.0308951 0 0)
(0.0330127 0 0)
(0.0352556 0 0)
(0.0376295 0 0)
(0.0401407 0 0)
(0.0427953 0 0)
(0.0455998 0 0)
(0.0485608 0 0)
(0.0516851 0 0)
(0.0549794 0 0)
(0.0584511 0 0)
(0.0621072 0 0)
(0.0659553 0 0)
(0.0700027 0 0)
(0.0742573 0 0)
(0.0787269 0 0)
(0.0834193 0 0)
(0.0883426 0 0)
(0.093505 0 0)
(0.0989148 0 0)
(0.10458 0 0)
(0.11051 0 0)
(0.116712 0 0)
(0.123196 0 0)
(0.12997 0 0)
(0.137042 0 0)
(0.144422 0 0)
(0.152118 0 0)
(0.160138 0 0)
(0.168492 0 0)
(0.177189 0 0)
(0.186236 0 0)
(0.195643 0 0)
(0.205419 0 0)
(0.215571 0 0)
(0.226108 0 0)
(0.23704 0 0)
(0.248372 0 0)
(0.260115 0 0)
(0.272276 0 0)
(0.284863 0 0)
(0.297884 0 0)
(0.311346 0 0)
(0.325256 0 0)
(0.339623 0 0)
(0.354452 0 0)
(0.36975 0 0)
(0.385525 0 0)
(0.401783 0 0)
(0.418529 0 0)
(0.435769 0 0)
(0.45351 0 0)
(0.471757 0 0)
(0.490514 0 0)
(0.509787 0 0)
(0.52958 0 0)
(0.549897 0 0)
(0.570743 0 0)
(0.592121 0 0)
(0.614035 0 0)
(0.636488 0 0)
(0.659483 0 0)
(0.683022 0 0)
(0.707108 0 0)
(0.731743 0 0)
(0.756928 0 0)
(0.782665 0 0)
(0.808955 0 0)
(0.835799 0 0)
(0.863197 0 0)
(0.891151 0 0)
(0.919659 0 0)
(0.948723 0 0)
(0.97834 0 0)
(1.00851 0 0)
(1.03923 0 0)
(1.07051 0 0)
(1.10234 0 0)
(1.13471 0 0)
(1.16763 0 0)
(1.20109 0 0)
(1.2351 0 0)
(1.26964 0 0)
(1.30472 0 0)
(1.34034 0 0)
(1.37648 0 0)
(1.41316 0 0)
(1.45035 0 0)
(1.48807 0 0)
(1.5263 0 0)
(1.56505 0 0)
(1.6043 0 0)
(1.64406 0 0)
(1.68432 0 0)
(1.72507 0 0)
(1.76631 0 0)
(1.80804 0 0)
(1.85025 0 0)
(1.89294 0 0)
(1.9361 0 0)
(1.97973 0 0)
(2.02382 0 0)
(2.06837 0 0)
(2.11336 0 0)
(2.15881 0 0)
(2.20469 0 0)
(2.25101 0 0)
(2.29777 0 0)
(2.34494 0 0)
(2.39254 0 0)
(2.44055 0 0)
(2.48898 0 0)
(2.5378 0 0)
(2.58703 0 0)
(2.63664 0 0)
(2.68665 0 0)
(2.73704 0 0)
(2.7878 0 0)
(2.83894 0 0)
(2.89044 0 0)
(2.94231 0 0)
(2.99453 0 0)
(3.0471 0 0)
(3.10002 0 0)
(3.15328 0 0)
(3.20688 0 0)
(3.2608 0 0)
(3.31505 0 0)
(3.36962 0 0)
(3.42451 0 0)
(3.47971 0 0)
(3.53521 0 0)
(3.59102 0 0)
(3.64712 0 0)
(3.70351 0 0)
(3.76019 0 0)
(3.81715 0 0)
(3.87439 0 0)
(3.9319 0 0)
(3.98969 0 0)
(4.04773 0 0)
(4.10604 0 0)
(4.1646 0 0)
(4.22342 0 0)
(4.28248 0 0)
(4.34179 0 0)
(4.40133 0 0)
(4.46111 0 0)
(4.52113 0 0)
(4.58137 0 0)
(4.64183 0 0)
(4.70252 0 0)
(4.76342 0 0)
(4.82454 0 0)
(4.88586 0 0)
(4.94739 0 0)
(5.00913 0 0)
(5.07106 0 0)
(5.13319 0 0)
(5.19551 0 0)
(5.25802 0 0)
(5.32072 0 0)
(5.38359 0 0)
(5.44665 0 0)
(5.50989 0 0)
(5.5733 0 0)
(5.63688 0 0)
(5.70063 0 0)
(5.76454 0 0)
(5.82862 0 0)
(5.89286 0 0)
(5.95725 0 0)
(6.0218 0 0)
(6.0865 0 0)
(6.15135 0 0)
(6.21634 0 0)
(6.28148 0 0)
(6.34677 0 0)
(6.41219 0 0)
(6.47775 0 0)
(6.54344 0 0)
(6.60927 0 0)
(6.67523 0 0)
(6.74131 0 0)
(6.80752 0 0)
(6.87386 0 0)
(6.94032 0 0)
(7.0069 0 0)
(7.07359 0 0)
(7.14041 0 0)
(7.20733 0 0)
(7.27437 0 0)
(7.34152 0 0)
(7.40878 0 0)
(7.47615 0 0)
(7.54362 0 0)
(7.61119 0 0)
(7.67887 0 0)
(7.74664 0 0)
(7.81452 0 0)
(7.88249 0 0)
(7.95056 0 0)
(8.01872 0 0)
(8.08698 0 0)
(8.15532 0 0)
(8.22376 0 0)
(8.29228 0 0)
(8.36089 0 0)
(8.42958 0 0)
(8.49836 0 0)
(8.56722 0 0)
(8.63617 0 0)
(8.70519 0 0)
(8.77429 0 0)
(8.84347 0 0)
(8.91273 0 0)
(8.98206 0 0)
(9.05147 0 0)
(9.12094 0 0)
(9.1905 0 0)
(9.26012 0 0)
(9.32981 0 0)
(9.39957 0 0)
(9.4694 0 0)
(9.53929 0 0)
(9.60925 0 0)
(9.67927 0 0)
(9.74936 0 0)
(9.81951 0 0)
(9.88972 0 0)
(9.96 0 0)
(10.0303 0 0)
(10.1007 0 0)
(10.1712 0 0)
(10.2417 0 0)
(10.3122 0 0)
(10.3829 0 0)
(10.4535 0 0)
(10.5243 0 0)
(10.5951 0 0)
(10.6659 0 0)
(10.7368 0 0)
(10.8077 0 0)
(10.8787 0 0)
(10.9497 0 0)
(11.0208 0 0)
(11.092 0 0)
(11.1631 0 0)
(11.2344 0 0)
(11.3056 0 0)
(11.377 0 0)
(11.4483 0 0)
(11.5197 0 0)
(11.5912 0 0)
(11.6627 0 0)
(11.7342 0 0)
(11.8058 0 0)
(11.8774 0 0)
(11.9491 0 0)
(12.0208 0 0)
(12.0925 0 0)
(12.1643 0 0)
(12.2361 0 0)
(12.308 0 0)
(12.3799 0 0)
(12.4518 0 0)
(12.5238 0 0)
(12.5958 0 0)
(12.6678 0 0)
(12.7399 0 0)
(12.812 0 0)
(12.8842 0 0)
(12.9564 0 0)
(13.0286 0 0)
(13.1008 0 0)
(13.1731 0 0)
(13.2454 0 0)
(13.3177 0 0)
(13.3901 0 0)
(13.4625 0 0)
(13.5349 0 0)
(13.6074 0 0)
(13.6799 0 0)
(13.7524 0 0)
(13.825 0 0)
(13.8976 0 0)
(13.9702 0 0)
(14.0428 0 0)
(14.1155 0 0)
(14.1882 0 0)
(14.2609 0 0)
(14.3336 0 0)
(14.4064 0 0)
(14.4792 0 0)
(14.552 0 0)
(14.6249 0 0)
(14.6977 0 0)
(14.7706 0 0)
(14.8436 0 0)
(14.9165 0 0)
(14.9895 0 0)
(15.0625 0 0)
(15.1355 0 0)
(15.2085 0 0)
(15.2816 0 0)
(15.3547 0 0)
(15.4278 0 0)
(15.5009 0 0)
(15.5741 0 0)
(15.6472 0 0)
(15.7204 0 0)
(15.7936 0 0)
(15.8669 0 0)
(15.9401 0 0)
(16.0134 0 0)
(16.0867 0 0)
(16.16 0 0)
(16.2333 0 0)
(16.3067 0 0)
(16.3801 0 0)
(16.4535 0 0)
(16.5269 0 0)
(16.6003 0 0)
(16.6737 0 0)
(16.7472 0 0)
(16.8207 0 0)
(16.8942 0 0)
(16.9677 0 0)
(17.0412 0 0)
(17.1148 0 0)
(17.1884 0 0)
(17.2619 0 0)
(17.3356 0 0)
(17.4092 0 0)
(17.4828 0 0)
(17.5565 0 0)
(17.6301 0 0)
(17.7038 0 0)
(17.7775 0 0)
(17.8512 0 0)
(17.9249 0 0)
(17.9987 0 0)
(18.0724 0 0)
(18.1462 0 0)
(18.22 0 0)
(18.2938 0 0)
(18.3676 0 0)
(18.4414 0 0)
(18.5153 0 0)
(18.5891 0 0)
(18.663 0 0)
(18.7369 0 0)
(18.8108 0 0)
(18.8847 0 0)
(18.9586 0 0)
(19.0326 0 0)
(19.1065 0 0)
(19.1805 0 0)
(19.2545 0 0)
(19.3285 0 0)
(19.4025 0 0)
(19.4765 0 0)
(19.5505 0 0)
(19.6245 0 0)
(19.6986 0 0)
(19.7726 0 0)
(19.8467 0 0)
(19.9208 0 0)
(19.9949 0 0)
(20.069 0 0)
(20.1431 0 0)
(20.2172 0 0)
(20.2914 0 0)
(20.3655 0 0)
(20.4397 0 0)
(20.5139 0 0)
(20.588 0 0)
(20.6622 0 0)
(20.7364 0 0)
(20.8106 0 0)
(20.8849 0 0)
(20.9591 0 0)
(21.0333 0 0)
(21.1076 0 0)
(21.1819 0 0)
(21.2561 0 0)
(21.3304 0 0)
(21.4047 0 0)
(21.479 0 0)
(21.5533 0 0)
(21.6276 0 0)
(21.702 0 0)
(21.7763 0 0)
(21.8507 0 0)
(21.925 0 0)
(21.9994 0 0)
(22.0738 0 0)
(22.1481 0 0)
(22.2225 0 0)
(22.2969 0 0)
(22.3713 0 0)
(22.4457 0 0)
(22.5202 0 0)
(22.5946 0 0)
(22.669 0 0)
(22.7435 0 0)
(22.818 0 0)
(22.8924 0 0)
(22.9669 0 0)
(23.0414 0 0)
(23.1159 0 0)
(23.1904 0 0)
(23.2649 0 0)
(23.3394 0 0)
(23.4139 0 0)
(23.4884 0 0)
(23.563 0 0)
(23.6375 0 0)
(23.712 0 0)
(23.7866 0 0)
(23.8612 0 0)
(23.9357 0 0)
(24.0103 0 0)
(24.0849 0 0)
(24.1595 0 0)
(24.2341 0 0)
(24.3087 0 0)
(24.3833 0 0)
(24.4579 0 0)
(24.5325 0 0)
(24.6072 0 0)
(24.6818 0 0)
(24.7564 0 0)
(24.8311 0 0)
(24.9058 0 0)
(24.9804 0 0)
(25.0551 0 0)
(25.1298 0 0)
(25.2044 0 0)
(25.2791 0 0)
(25.3538 0 0)
(25.4285 0 0)
(25.5032 0 0)
(25.5779 0 0)
(25.6527 0 0)
(25.7274 0 0)
(25.8021 0 0)
(25.8768 0 0)
(25.9516 0 0)
(26.0263 0 0)
(26.1011 0 0)
(26.1758 0 0)
(26.2506 0 0)
(26.3254 0 0)
(26.4001 0 0)
(26.4749 0 0)
(26.5497 0 0)
(26.6245 0 0)
(26.6993 0 0)
(26.7741 0 0)
(26.8489 0 0)
(26.9237 0 0)
(26.9985 0 0)
(27.0733 0 0)
(27.1481 0 0)
(27.223 0 0)
(27.2978 0 0)
(27.3727 0 0)
(27.4475 0 0)
(27.5223 0 0)
(27.5972 0 0)
(27.6721 0 0)
(27.7469 0 0)
(27.8218 0 0)
(27.8967 0 0)
(27.9715 0 0)
(28.0464 0 0)
(28.1213 0 0)
(28.1962 0 0)
(28.2711 0 0)
(28.346 0 0)
(28.4209 0 0)
(28.4958 0 0)
(28.5707 0 0)
(28.6456 0 0)
(28.7206 0 0)
(28.7955 0 0)
(28.8704 0 0)
(28.9453 0 0)
(29.0203 0 0)
(29.0952 0 0)
(29.1702 0 0)
(29.2451 0 0)
(29.3201 0 0)
(29.395 0 0)
(29.47 0 0)
(29.545 0 0)
(29.6199 0 0)
(29.6949 0 0)
(29.7699 0 0)
(29.8449 0 0)
(29.9199 0 0)
(29.9948 0 0)
(30.0698 0 0)
(30.1448 0 0)
(30.2198 0 0)
(30.2948 0 0)
(30.3699 0 0)
(30.4449 0 0)
(30.5199 0 0)
(30.5949 0 0)
(30.6699 0 0)
(30.7449 0 0)
(30.82 0 0)
(30.895 0 0)
(30.97 0 0)
(31.0451 0 0)
(31.1201 0 0)
(31.1952 0 0)
(31.2702 0 0)
(31.3453 0 0)
(31.4203 0 0)
(31.4954 0 0)
(31.5705 0 0)
(31.6455 0 0)
(31.7206 0 0)
(31.7957 0 0)
(31.8707 0 0)
(31.9458 0 0)
(32.0209 0 0)
(32.096 0 0)
(32.1711 0 0)
(32.2462 0 0)
(32.3213 0 0)
(32.3964 0 0)
(32.4715 0 0)
(32.5466 0 0)
(32.6217 0 0)
(32.6968 0 0)
(32.7719 0 0)
(32.847 0 0)
(32.9221 0 0)
(32.9973 0 0)
(33.0724 0 0)
(33.1475 0 0)
(33.2227 0 0)
(33.2978 0 0)
(33.3729 0 0)
(33.4481 0 0)
(33.5232 0 0)
(33.5983 0 0)
(33.6735 0 0)
(33.7486 0 0)
(33.8238 0 0)
(33.899 0 0)
(33.9741 0 0)
(34.0493 0 0)
(34.1244 0 0)
(34.1996 0 0)
(34.2748 0 0)
(34.3499 0 0)
(34.4251 0 0)
(34.5003 0 0)
(34.5755 0 0)
(34.6507 0 0)
(34.7258 0 0)
(34.801 0 0)
(34.8762 0 0)
(34.9514 0 0)
(35.0266 0 0)
(35.1018 0 0)
(35.177 0 0)
(35.2522 0 0)
(35.3274 0 0)
(35.4026 0 0)
(35.4778 0 0)
(35.553 0 0)
(35.6282 0 0)
(35.7035 0 0)
(35.7787 0 0)
(35.8539 0 0)
(35.9291 0 0)
(36.0043 0 0)
(36.0796 0 0)
(36.1548 0 0)
(36.23 0 0)
(36.3053 0 0)
(36.3805 0 0)
(36.4557 0 0)
(36.531 0 0)
(36.6062 0 0)
(36.6815 0 0)
(36.7567 0 0)
(36.832 0 0)
(36.9072 0 0)
(36.9825 0 0)
(37.0577 0 0)
(37.133 0 0)
(37.2082 0 0)
(37.2835 0 0)
(37.3588 0 0)
(37.434 0 0)
(37.5093 0 0)
(37.5846 0 0)
(37.6598 0 0)
(37.7351 0 0)
(37.8104 0 0)
(37.8857 0 0)
(37.9609 0 0)
(38.0362 0 0)
(38.1115 0 0)
(38.1868 0 0)
(38.2621 0 0)
(38.3374 0 0)
(38.4127 0 0)
(38.488 0 0)
(38.5632 0 0)
(38.6385 0 0)
(38.7138 0 0)
(38.7891 0 0)
(38.8644 0 0)
(38.9397 0 0)
(39.0151 0 0)
(39.0904 0 0)
(39.1657 0 0)
(39.241 0 0)
(39.3163 0 0)
(39.3916 0 0)
(39.4669 0 0)
(39.5422 0 0)
(39.6176 0 0)
(39.6929 0 0)
(39.7682 0 0)
(39.8435 0 0)
(39.9189 0 0)
(39.9942 0 0)
(40.0695 0 0)
(40.1448 0 0)
(40.2202 0 0)
(40.2955 0 0)
(40.3709 0 0)
(40.4462 0 0)
(40.5215 0 0)
(40.5969 0 0)
(40.6722 0 0)
(40.7476 0 0)
(40.8229 0 0)
(40.8983 0 0)
(40.9736 0 0)
(41.049 0 0)
(41.1243 0 0)
(41.1997 0 0)
(41.275 0 0)
(41.3504 0 0)
(41.4257 0 0)
(41.5011 0 0)
(41.5765 0 0)
(41.6518 0 0)
(41.7272 0 0)
(41.8026 0 0)
(41.8779 0 0)
(41.9533 0 0)
(42.0287 0 0)
(42.104 0 0)
(42.1794 0 0)
(42.2548 0 0)
(42.3302 0 0)
(42.4055 0 0)
(42.4809 0 0)
(42.5563 0 0)
(42.6317 0 0)
(42.7071 0 0)
(42.7824 0 0)
(42.8578 0 0)
(42.9332 0 0)
(43.0086 0 0)
(43.084 0 0)
(43.1594 0 0)
(43.2348 0 0)
(43.3102 0 0)
(43.3856 0 0)
(43.461 0 0)
(43.5364 0 0)
(43.6118 0 0)
(43.6872 0 0)
(43.7626 0 0)
(43.838 0 0)
(43.9134 0 0)
(43.9888 0 0)
(44.0642 0 0)
(44.1396 0 0)
(44.215 0 0)
(44.2904 0 0)
(44.3658 0 0)
(44.4412 0 0)
(44.5167 0 0)
(44.5921 0 0)
(44.6675 0 0)
(44.7429 0 0)
(44.8183 0 0)
(44.8938 0 0)
(44.9692 0 0)
(45.0446 0 0)
(45.12 0 0)
(45.1954 0 0)
(45.2709 0 0)
(45.3463 0 0)
(45.4217 0 0)
(45.4972 0 0)
(45.5726 0 0)
(45.648 0 0)
(45.7235 0 0)
(45.7989 0 0)
(45.8743 0 0)
(45.9498 0 0)
(46.0252 0 0)
(46.1006 0 0)
(46.1761 0 0)
(46.2515 0 0)
(46.327 0 0)
(46.4024 0 0)
(46.4779 0 0)
(46.5533 0 0)
(46.6288 0 0)
(46.7042 0 0)
(46.7796 0 0)
(46.8551 0 0)
(46.9306 0 0)
(47.006 0 0)
(47.0815 0 0)
(47.1569 0 0)
(47.2324 0 0)
(47.3078 0 0)
(47.3833 0 0)
(47.4587 0 0)
(47.5342 0 0)
(47.6097 0 0)
(47.6851 0 0)
(47.7606 0 0)
(47.836 0 0)
(47.9115 0 0)
(47.987 0 0)
(48.0624 0 0)
(48.1379 0 0)
(48.2134 0 0)
(48.2889 0 0)
(48.3643 0 0)
(48.4398 0 0)
(48.5153 0 0)
(48.5907 0 0)
(48.6662 0 0)
(48.7417 0 0)
(48.8172 0 0)
(48.8926 0 0)
(48.9681 0 0)
(49.0436 0 0)
(49.1191 0 0)
(49.1946 0 0)
(49.27 0 0)
(49.3455 0 0)
(49.421 0 0)
(49.4965 0 0)
(49.572 0 0)
(49.6475 0 0)
(49.723 0 0)
(49.7984 0 0)
(49.8739 0 0)
(49.9494 0 0)
(50.0249 0 0)
(50.1004 0 0)
(50.1759 0 0)
(50.2514 0 0)
(50.3269 0 0)
(50.4024 0 0)
(50.4779 0 0)
(50.5534 0 0)
(50.6289 0 0)
(50.7044 0 0)
(50.7799 0 0)
(50.8554 0 0)
(50.9309 0 0)
(51.0064 0 0)
(51.0819 0 0)
(51.1574 0 0)
(51.2329 0 0)
(51.3084 0 0)
(51.3839 0 0)
(51.4594 0 0)
(51.5349 0 0)
(51.6104 0 0)
(51.6859 0 0)
(51.7614 0 0)
(51.8369 0 0)
(51.9125 0 0)
(51.988 0 0)
(52.0635 0 0)
(52.139 0 0)
(52.2145 0 0)
(52.29 0 0)
(52.3655 0 0)
(52.4411 0 0)
(52.5166 0 0)
(52.5921 0 0)
(52.6676 0 0)
(52.7431 0 0)
(52.8187 0 0)
(52.8942 0 0)
(52.9697 0 0)
(53.0452 0 0)
(53.1207 0 0)
(53.1963 0 0)
(53.2718 0 0)
(53.3473 0 0)
(53.4228 0 0)
(53.4984 0 0)
(53.5739 0 0)
(53.6494 0 0)
(53.725 0 0)
(53.8005 0 0)
(53.876 0 0)
(53.9516 0 0)
(54.0271 0 0)
(54.1026 0 0)
(54.1782 0 0)
(54.2537 0 0)
(54.3292 0 0)
(54.4048 0 0)
(54.4803 0 0)
(54.5558 0 0)
(54.6314 0 0)
(54.7069 0 0)
(54.7824 0 0)
(54.858 0 0)
(54.9335 0 0)
(55.0091 0 0)
(55.0846 0 0)
(55.1602 0 0)
(55.2357 0 0)
(55.3112 0 0)
(55.3868 0 0)
(55.4623 0 0)
(55.5379 0 0)
(55.6134 0 0)
(55.689 0 0)
(55.7645 0 0)
(55.8401 0 0)
(55.9156 0 0)
(55.9912 0 0)
(56.0667 0 0)
(56.1423 0 0)
(56.2178 0 0)
(56.2934 0 0)
(56.3689 0 0)
(56.4445 0 0)
(56.52 0 0)
(56.5956 0 0)
(56.6711 0 0)
(56.7467 0 0)
(56.8222 0 0)
(56.8978 0 0)
(56.9734 0 0)
(57.0489 0 0)
(57.1245 0 0)
(57.2 0 0)
(57.2756 0 0)
(57.3512 0 0)
(57.4267 0 0)
(57.5023 0 0)
(57.5778 0 0)
(57.6534 0 0)
(57.729 0 0)
(57.8045 0 0)
(57.8801 0 0)
(57.9557 0 0)
(58.0312 0 0)
(58.1068 0 0)
(58.1824 0 0)
(58.2579 0 0)
(58.3335 0 0)
(58.4091 0 0)
(58.4846 0 0)
(58.5602 0 0)
(58.6358 0 0)
(58.7113 0 0)
(58.7869 0 0)
(58.8625 0 0)
(58.9381 0 0)
(59.0136 0 0)
(59.0892 0 0)
(59.1648 0 0)
(59.2403 0 0)
(59.3159 0 0)
(59.3915 0 0)
(59.4671 0 0)
(59.5426 0 0)
(59.6182 0 0)
(59.6938 0 0)
(59.7694 0 0)
(59.845 0 0)
(59.9205 0 0)
(59.9961 0 0)
(60.0717 0 0)
(60.1473 0 0)
(60.2229 0 0)
(60.2984 0 0)
(60.374 0 0)
(60.4496 0 0)
(60.5252 0 0)
(60.6008 0 0)
(60.6764 0 0)
(60.7519 0 0)
(60.8275 0 0)
(60.9031 0 0)
(60.9787 0 0)
(61.0543 0 0)
(61.1299 0 0)
(61.2055 0 0)
(61.281 0 0)
(61.3566 0 0)
(61.4322 0 0)
(61.5078 0 0)
(61.5834 0 0)
(61.659 0 0)
(61.7346 0 0)
(61.8102 0 0)
(61.8858 0 0)
(61.9613 0 0)
(62.0369 0 0)
(62.1125 0 0)
(62.1881 0 0)
(62.2637 0 0)
(62.3393 0 0)
(62.4149 0 0)
(62.4905 0 0)
(62.5661 0 0)
(62.6417 0 0)
(62.7173 0 0)
(62.7929 0 0)
(62.8685 0 0)
(62.9441 0 0)
(63.0197 0 0)
(63.0953 0 0)
(63.1709 0 0)
(63.2465 0 0)
(63.3221 0 0)
(63.3977 0 0)
(63.4733 0 0)
(63.5489 0 0)
(63.6245 0 0)
(63.7001 0 0)
(63.7757 0 0)
(63.8513 0 0)
(63.9269 0 0)
(64.0025 0 0)
(64.0781 0 0)
(64.1537 0 0)
(64.2293 0 0)
(64.3049 0 0)
(64.3805 0 0)
(64.4561 0 0)
(64.5317 0 0)
(64.6073 0 0)
(64.6829 0 0)
(64.7585 0 0)
(64.8342 0 0)
(64.9098 0 0)
(64.9854 0 0)
(65.061 0 0)
(65.1366 0 0)
(65.2122 0 0)
(65.2878 0 0)
(65.3634 0 0)
(65.439 0 0)
(65.5146 0 0)
(65.5903 0 0)
(65.6659 0 0)
(65.7415 0 0)
(65.8171 0 0)
(65.8927 0 0)
(65.9683 0 0)
(66.0439 0 0)
(66.1195 0 0)
(66.1952 0 0)
(66.2708 0 0)
(66.3464 0 0)
(66.422 0 0)
(66.4976 0 0)
(66.5732 0 0)
(66.6489 0 0)
(66.7245 0 0)
(66.8001 0 0)
(66.8757 0 0)
(66.9513 0 0)
(67.027 0 0)
(67.1026 0 0)
(67.1782 0 0)
(67.2538 0 0)
(67.3294 0 0)
(67.405 0 0)
(67.4807 0 0)
(67.5563 0 0)
(67.6319 0 0)
(67.7075 0 0)
(67.7832 0 0)
(67.8588 0 0)
(67.9344 0 0)
(68.01 0 0)
(68.0856 0 0)
(68.1613 0 0)
(68.2369 0 0)
(68.3125 0 0)
(68.3881 0 0)
(68.4638 0 0)
(68.5394 0 0)
(68.615 0 0)
(68.6906 0 0)
(68.7663 0 0)
(68.8419 0 0)
(68.9175 0 0)
(68.9932 0 0)
(69.0688 0 0)
(69.1444 0 0)
(69.22 0 0)
(69.2957 0 0)
(69.3713 0 0)
(69.4469 0 0)
(69.5226 0 0)
(69.5982 0 0)
(69.6738 0 0)
(69.7495 0 0)
(69.8251 0 0)
(69.9007 0 0)
(69.9763 0 0)
(70.052 0 0)
(70.1276 0 0)
(70.2032 0 0)
(70.2789 0 0)
(70.3545 0 0)
(70.4301 0 0)
(70.5058 0 0)
(70.5814 0 0)
(70.657 0 0)
(70.7327 0 0)
(70.8083 0 0)
(70.8839 0 0)
(70.9596 0 0)
(71.0352 0 0)
(71.1109 0 0)
(71.1865 0 0)
(71.2621 0 0)
(71.3378 0 0)
(71.4134 0 0)
(71.489 0 0)
(71.5647 0 0)
(71.6403 0 0)
(71.716 0 0)
(71.7916 0 0)
(71.8672 0 0)
(71.9429 0 0)
(72.0185 0 0)
(72.0942 0 0)
(72.1698 0 0)
(72.2454 0 0)
(72.3211 0 0)
(72.3967 0 0)
(72.4724 0 0)
(72.548 0 0)
(72.6236 0 0)
(72.6993 0 0)
(72.7749 0 0)
(72.8506 0 0)
(72.9262 0 0)
(73.0018 0 0)
(73.0775 0 0)
(73.1531 0 0)
(73.2288 0 0)
(73.3044 0 0)
(73.3801 0 0)
(73.4557 0 0)
(73.5314 0 0)
(73.607 0 0)
(73.6826 0 0)
(73.7583 0 0)
(73.8339 0 0)
(73.9096 0 0)
(73.9852 0 0)
(74.0609 0 0)
(74.1365 0 0)
(74.2122 0 0)
(74.2878 0 0)
(74.3635 0 0)
(74.4391 0 0)
(74.5148 0 0)
(74.5904 0 0)
(74.6661 0 0)
(74.7417 0 0)
(74.8174 0 0)
(74.893 0 0)
(74.9687 0 0)
(75.0443 0 0)
(75.12 0 0)
(75.1956 0 0)
(75.2713 0 0)
(75.3469 0 0)
(75.4226 0 0)
(75.4982 0 0)
(75.5739 0 0)
(75.6495 0 0)
(75.7252 0 0)
(75.8008 0 0)