/*--------------------------------*- C++ -*----------------------------------*\
  =========                 |
  \\      /  F ield         | OpenFOAM: The Open Source CFD Toolbox
   \\    /   O peration     | Website:  https://openfoam.org
    \\  /    A nd           | Version:  9
     \\/     M anipulation  |
\*---------------------------------------------------------------------------*/
FoamFile
{
    format      ascii;
    class       volScalarField;
    location    "0.03";
    object      T;
}
// * * * * * * * * * * * * * * * * * * * * * * * * * * * * * * * * * * * * * //

dimensions      [0 0 0 1 0 0 0];

internalField   nonuniform List<scalar> 
1000
(
219.834
219.83
219.825
219.823
219.822
219.82
219.818
219.815
219.813
219.81
219.807
219.804
219.801
219.797
219.794
219.791
219.787
219.782
219.776
219.769
219.76
219.751
219.74
219.73
219.719
219.708
219.697
219.686
219.675
219.663
219.652
219.641
219.629
219.618
219.607
219.596
219.584
219.573
219.562
219.551
219.539
219.528
219.517
219.506
219.494
219.483
219.472
219.46
219.449
219.438
219.426
219.415
219.404
219.392
219.381
219.369
219.358
219.347
219.335
219.324
219.312
219.301
219.289
219.278
219.267
219.255
219.244
219.232
219.221
219.209
219.198
219.186
219.174
219.163
219.151
219.14
219.128
219.116
219.105
219.093
219.082
219.069
219.06
219.045
219.037
219.022
219.014
218.998
218.991
218.975
218.967
218.952
218.943
218.929
218.918
218.908
218.893
218.885
218.87
218.86
218.849
218.835
218.826
218.812
218.8
218.791
218.776
218.766
218.755
218.74
218.731
218.719
218.704
218.696
218.683
218.669
218.66
218.647
218.633
218.625
218.612
218.597
218.589
218.576
218.561
218.552
218.541
218.525
218.516
218.506
218.49
218.478
218.47
218.455
218.441
218.434
218.42
218.405
218.396
218.385
218.369
218.359
218.349
218.334
218.321
218.313
218.3
218.285
218.275
218.264
218.249
218.237
218.228
218.215
218.2
218.19
218.18
218.165
218.152
218.143
218.131
218.115
218.104
218.096
218.081
218.066
218.056
218.047
218.032
218.017
218.009
217.998
217.982
217.969
217.961
217.949
217.933
217.921
217.912
217.9
217.884
217.873
217.864
217.851
217.835
217.824
217.816
217.802
217.786
217.775
217.768
217.754
217.737
217.726
217.719
217.707
217.689
217.677
217.669
217.658
217.642
217.628
217.62
217.61
217.594
217.58
217.571
217.561
217.546
217.531
217.522
217.513
217.499
217.483
217.472
217.464
217.453
217.436
217.422
217.414
217.405
217.391
217.375
217.364
217.356
217.344
217.328
217.315
217.306
217.297
217.283
217.267
217.256
217.248
217.237
217.221
217.207
217.198
217.189
217.177
217.161
217.148
217.139
217.13
217.116
217.101
217.089
217.081
217.07
217.056
217.042
217.032
217.023
217.011
216.996
216.983
216.973
216.965
216.953
216.938
216.925
216.915
216.906
216.894
216.88
216.868
216.858
216.848
216.836
216.823
216.81
216.801
216.791
216.779
216.766
216.753
216.743
216.734
216.723
216.71
216.697
216.687
216.677
216.667
216.654
216.642
216.632
216.622
216.612
216.6
216.587
216.576
216.567
216.557
216.546
216.535
216.524
216.514
216.504
216.492
216.481
216.47
216.461
216.452
216.443
216.432
216.42
216.409
216.398
216.389
216.379
216.369
216.361
216.353
216.345
216.336
216.325
216.312
216.3
216.29
216.28
216.272
216.264
216.257
216.251
216.246
216.241
216.233
216.222
216.21
216.198
216.185
216.173
216.162
216.152
216.144
216.137
216.132
216.127
216.123
216.121
216.119
216.118
216.118
216.118
216.118
216.118
216.118
216.118
216.119
216.119
216.119
216.12
216.121
216.124
216.13
216.14
216.151
216.166
216.183
216.201
216.22
216.24
216.261
216.282
216.302
216.323
216.343
216.362
216.38
216.398
216.414
216.43
216.444
216.458
216.47
216.482
216.493
216.504
216.514
216.524
216.532
216.542
216.55
216.558
216.566
216.574
216.581
216.589
216.598
216.605
216.612
216.619
216.627
216.634
216.641
216.648
216.655
216.662
216.669
216.677
216.683
216.69
216.695
216.7
216.702
216.704
216.706
216.707
216.709
216.714
216.725
216.741
216.761
216.786
216.815
216.846
216.881
216.916
216.953
216.988
217.026
217.062
217.097
217.134
217.167
217.201
217.232
217.265
217.294
217.319
217.35
217.372
217.399
217.421
217.444
217.463
217.484
217.499
217.509
217.514
217.519
217.527
217.541
217.564
217.6
217.647
217.702
217.759
217.823
217.89
217.955
218.021
218.083
218.136
218.187
218.24
218.282
218.314
218.332
218.344
218.36
218.368
218.374
218.386
218.41
218.458
218.52
218.6
218.677
218.759
218.851
218.943
219.02
219.094
219.169
219.235
219.305
219.383
219.461
219.526
219.604
219.691
219.757
219.817
219.881
219.945
219.995
220.039
220.086
220.115
220.126
220.133
220.145
220.158
220.18
220.217
220.266
220.329
220.41
220.485
220.568
220.654
220.741
220.83
220.905
220.953
220.995
221.028
221.049
221.087
221.133
221.197
221.263
221.342
221.422
221.514
221.601
221.688
221.77
221.835
221.871
221.894
221.935
221.979
222.031
222.088
222.167
222.253
222.344
222.437
222.521
222.613
222.68
222.742
222.789
222.818
222.846
222.888
222.959
223.035
223.103
223.189
223.28
223.389
223.497
223.594
223.685
223.776
223.852
223.932
224.013
224.055
224.066
224.077
224.103
224.161
224.235
224.327
224.406
224.462
224.523
224.603
224.689
224.768
224.844
224.896
224.926
224.961
225.022
225.069
225.081
225.079
225.078
225.087
225.116
225.181
225.294
225.429
225.547
225.656
225.742
225.802
225.858
225.907
225.951
225.964
225.98
226.016
226.078
226.178
226.314
226.457
226.597
226.72
226.8
226.862
226.898
226.901
226.9
226.904
226.922
226.936
226.946
226.953
226.972
227.011
227.079
227.231
227.396
227.558
227.652
227.717
227.788
227.826
227.829
227.826
227.816
227.822
227.847
227.903
227.965
228.113
228.286
228.482
228.624
228.673
228.705
228.711
228.736
228.806
228.903
228.988
229.011
229.062
229.147
229.285
229.472
229.648
229.727
229.743
229.741
229.738
229.74
229.758
229.789
229.84
229.879
229.968
230.084
230.18
230.34
230.506
230.55
230.575
230.59
230.615
230.695
230.789
230.916
231.007
231.143
231.165
231.147
231.081
231.1
231.178
231.2
231.199
231.334
231.422
231.432
231.347
231.53
231.863
232.053
232.156
232.163
232.177
232.235
232.272
232.336
232.444
232.489
232.507
232.543
232.579
232.609
232.725
232.774
232.713
232.58
232.791
233.018
233.153
233.255
233.314
233.329
233.418
233.466
233.528
233.668
233.779
233.789
233.849
233.942
233.97
234.028
234.099
234.134
234.239
234.335
234.344
234.367
234.377
234.421
234.392
234.412
234.675
234.771
234.831
234.757
234.916
235.112
235.211
235.249
235.29
235.257
235.336
235.543
235.657
235.699
235.678
235.941
236.22
236.184
236.142
236.082
236.199
236.614
236.822
236.893
236.986
237.116
237.156
237.231
237.294
237.382
237.427
237.431
237.422
237.572
237.859
237.931
237.994
238.007
238.035
238.012
238.037
238.369
238.45
238.595
238.64
238.721
238.788
238.753
238.896
239.257
239.33
239.347
239.334
239.332
239.656
239.905
239.997
240.031
239.98
240.133
240.481
240.563
240.591
240.551
240.798
241.043
241.089
241.054
241.279
241.609
241.711
241.757
241.73
241.77
242.233
242.39
242.465
242.508
242.487
242.462
242.946
243.161
243.253
243.314
243.341
243.329
243.302
243.792
244.012
244.094
244.134
244.157
244.102
244.293
244.754
244.868
244.933
244.961
244.933
244.966
245.487
245.65
245.714
245.72
245.659
246.026
246.298
246.362
246.349
246.339
246.821
247.004
247.065
247.079
246.996
247.281
247.672
247.763
247.806
247.828
247.761
247.99
248.46
248.559
248.611
248.639
248.63
248.603
249.137
249.356
249.419
249.452
249.468
249.396
249.726
250.114
250.196
250.23
250.19
250.167
250.65
250.827
250.879
250.901
250.828
250.948
251.413
251.519
251.56
251.583
251.535
251.586
252.088
252.22
252.268
252.292
252.262
252.236
252.725
252.902
252.961
252.976
252.882
253.01
253.438
253.528
253.566
253.513
253.471
253.888
254.064
254.113
254.13
254.032
254.123
254.545
254.633
254.667
254.688
254.625
254.638
255.072
255.217
255.251
255.278
255.203
255.18
255.572
255.708
255.743
255.771
255.742
255.673
255.998
256.206
256.231
256.254
256.272
256.222
256.274
256.649
256.755
256.769
256.796
256.803
256.718
256.897
257.185
257.35
257.347
257.354
257.186
257.232
257.609
257.68
257.753
257.724
257.492
257.579
258.008
258.04
258.112
258.08
257.752
257.81
258.348
258.416
258.54
258.404
257.982
258.021
258.6
258.795
258.898
258.65
258.187
258.202
258.838
259.064
259.197
258.9
258.382
258.363
258.983
259.183
259.328
259.41
259.287
258.639
258.5
259.186
259.656
259.744
258.958
258.559
258.638
259.484
259.752
259.426
258.705
258.626
259.348
259.709
259.48
258.79
258.748
259.483
259.704
259.273
258.844
258.94
259.698
259.77
259.067
258.914
259.341
259.63
259.598
259.25
258.982
259.234
259.787
)
;

boundaryField
{
    sides
    {
        type            zeroGradient;
    }
    empty
    {
        type            empty;
    }
}


// ************************************************************************* //
