/*--------------------------------*- C++ -*----------------------------------*\
  =========                 |
  \\      /  F ield         | OpenFOAM: The Open Source CFD Toolbox
   \\    /   O peration     | Website:  https://openfoam.org
    \\  /    A nd           | Version:  9
     \\/     M anipulation  |
\*---------------------------------------------------------------------------*/
FoamFile
{
    format      ascii;
    class       volScalarField;
    location    "0.012";
    object      mag(U);
}
// * * * * * * * * * * * * * * * * * * * * * * * * * * * * * * * * * * * * * //

dimensions      [0 1 -1 0 0 0 0];

internalField   nonuniform List<scalar> 
1000
(
0.00196428
0.00486496
0.00700834
0.00961187
0.0126634
0.016299
0.0206624
0.0259174
0.0322497
0.0398704
0.0490185
0.0599637
0.0730086
0.0884913
0.106786
0.128306
0.153501
0.182861
0.21691
0.256209
0.301351
0.352954
0.411661
0.478132
0.553036
0.637047
0.730832
0.835048
0.950327
1.07728
1.21646
1.36841
1.53359
1.71242
1.90526
2.1124
2.33407
2.57044
2.82159
3.08756
3.36831
3.66376
3.97375
4.29809
4.63654
4.98881
5.35459
5.73351
6.12521
6.5293
6.94535
7.37295
7.81168
8.26111
8.7208
9.19033
9.66928
10.1572
10.6538
11.1586
11.6712
12.1912
12.7184
13.2524
13.7928
14.3393
14.8917
15.4497
16.0129
16.5812
17.1542
17.7318
18.3138
18.8999
19.49
20.0838
20.6812
21.282
21.8861
22.4933
23.1034
23.7165
24.3322
24.9506
25.5715
26.1947
26.8203
27.448
28.0779
28.7097
29.3436
29.9793
30.6168
31.256
31.8968
32.5393
33.1833
33.8288
34.4757
35.124
35.7737
36.4246
37.0767
37.73
38.3845
39.04
39.6967
40.3543
41.013
41.6726
42.3331
42.9946
43.6569
44.32
44.984
45.6487
46.3142
46.9804
47.6473
48.3149
48.9832
49.6521
50.3217
50.9918
51.6625
52.3338
53.0056
53.678
54.3508
55.0242
55.6981
56.3724
57.0471
57.7224
58.398
59.074
59.7505
60.4273
61.1045
61.7821
62.4601
63.1384
63.817
64.4959
65.1752
65.8548
66.5347
67.2149
67.8953
68.5761
69.2571
69.9384
70.6199
71.3017
71.9837
72.666
73.3484
74.0312
74.7141
75.3972
76.0806
76.7641
77.4479
78.1318
78.816
79.5003
80.1848
80.8694
81.5543
82.2393
82.9244
83.6098
84.2952
84.9808
85.6666
86.3525
87.0386
87.7248
88.4111
89.0975
89.7841
90.4708
91.1576
91.8445
92.5316
93.2187
93.906
94.5934
95.2809
95.9684
96.6561
97.3439
98.0318
98.7197
99.4078
100.096
100.784
101.472
102.161
102.849
103.538
104.226
104.915
105.604
106.293
106.982
107.671
108.36
109.049
109.738
110.427
111.116
111.806
112.495
113.185
113.874
114.564
115.253
115.943
116.632
117.322
118.012
118.702
119.392
120.081
120.771
121.461
122.151
122.841
123.532
124.222
124.912
125.602
126.292
126.982
127.673
128.363
129.053
129.743
130.434
131.124
131.815
132.505
133.195
133.886
134.576
135.267
135.957
136.648
137.338
138.029
138.719
139.41
140.1
140.791
141.482
142.172
142.863
143.553
144.244
144.935
145.625
146.316
147.006
147.697
148.388
149.078
149.769
150.459
151.15
151.84
152.531
153.222
153.912
154.603
155.293
155.984
156.674
157.365
158.055
158.746
159.436
160.126
160.817
161.507
162.198
162.888
163.578
164.269
164.959
165.649
166.339
167.03
167.72
168.41
169.1
169.79
170.48
171.17
171.86
172.55
173.24
173.93
174.62
175.309
175.999
176.689
177.379
178.068
178.758
179.447
180.137
180.826
181.516
182.205
182.894
183.584
184.273
184.962
185.651
186.34
187.029
187.718
188.407
189.095
189.784
190.473
191.161
191.85
192.538
193.226
193.915
194.603
195.291
195.979
196.667
197.355
198.043
198.73
199.418
200.105
200.793
201.48
202.167
202.854
203.541
204.228
204.915
205.601
206.288
206.974
207.66
208.346
209.032
209.718
210.404
211.09
211.775
212.46
213.145
213.83
214.515
215.2
215.884
216.568
217.253
217.936
218.62
219.304
219.987
220.67
221.353
222.036
222.718
223.401
224.083
224.764
225.446
226.127
226.808
227.489
228.169
228.85
229.529
230.209
230.888
231.567
232.246
232.924
233.602
234.28
234.957
235.633
236.31
236.986
237.661
238.336
239.011
239.685
240.359
241.032
241.705
242.377
243.048
243.719
244.389
245.059
245.728
246.397
247.064
247.731
248.398
249.063
249.728
250.391
251.054
251.717
252.378
253.038
253.697
254.355
255.012
255.668
256.323
256.976
257.628
258.279
258.929
259.577
260.223
260.868
261.512
262.153
262.793
263.431
264.067
264.701
265.333
265.962
266.589
267.214
267.837
268.456
269.073
269.687
270.298
270.906
271.51
272.111
272.708
273.301
273.891
274.476
275.056
275.632
276.204
276.77
277.331
277.886
278.436
278.979
279.517
280.047
280.571
281.087
281.596
282.097
282.59
283.075
283.55
284.017
284.473
284.92
285.357
285.783
286.198
286.602
286.994
287.374
287.742
288.098
288.441
288.77
289.087
289.39
289.68
289.956
290.218
290.467
290.702
290.923
291.131
291.326
291.508
291.677
291.833
291.978
292.111
292.233
292.344
292.445
292.536
292.619
292.693
292.759
292.818
292.87
292.916
292.956
292.991
293.022
293.048
293.071
293.091
293.107
293.121
293.133
293.144
293.152
293.159
293.165
293.17
293.174
293.177
293.18
293.183
293.184
293.186
293.187
293.188
293.189
293.19
293.191
293.191
293.191
293.192
293.192
293.193
293.193
293.193
293.193
293.194
293.194
293.194
293.194
293.194
293.195
293.195
293.195
293.195
293.196
293.196
293.196
293.196
293.196
293.197
293.197
293.197
293.197
293.197
293.198
293.198
293.198
293.198
293.198
293.199
293.199
293.199
293.199
293.199
293.199
293.199
293.2
293.2
293.2
293.2
293.2
293.2
293.2
293.2
293.2
293.2
293.201
293.201
293.201
293.201
293.201
293.201
293.201
293.201
293.2
293.2
293.2
293.2
293.2
293.2
293.2
293.2
293.2
293.2
293.2
293.199
293.199
293.199
293.199
293.199
293.199
293.199
293.199
293.199
293.199
293.199
293.199
293.199
293.199
293.199
293.199
293.199
293.199
293.199
293.199
293.199
293.199
293.199
293.199
293.199
293.199
293.199
293.199
293.199
293.199
293.199
293.199
293.199
293.199
293.199
293.199
293.199
293.199
293.199
293.199
293.199
293.199
293.199
293.199
293.199
293.199
293.2
293.2
293.2
293.2
293.2
293.2
293.2
293.2
293.2
293.2
293.2
293.2
293.2
293.2
293.2
293.2
293.2
293.2
293.2
293.2
293.2
293.2
293.2
293.2
293.2
293.2
293.2
293.2
293.2
293.2
293.2
293.2
293.2
293.2
293.2
293.2
293.2
293.2
293.2
293.2
293.2
293.2
293.2
293.2
293.2
293.2
293.2
293.2
293.2
293.2
293.2
293.2
293.2
293.2
293.2
293.2
293.2
293.2
293.2
293.2
293.2
293.2
293.2
293.2
293.2
293.2
293.2
293.2
293.2
293.2
293.2
293.2
293.2
293.2
293.2
293.2
293.2
293.2
293.2
293.2
293.2
293.2
293.2
293.2
293.2
293.2
293.2
293.201
293.201
293.201
293.201
293.201
293.201
293.201
293.201
293.201
293.201
293.201
293.201
293.201
293.201
293.201
293.201
293.201
293.201
293.201
293.201
293.201
293.201
293.201
293.201
293.201
293.201
293.201
293.201
293.201
293.201
293.201
293.201
293.201
293.201
293.201
293.201
293.201
293.201
293.201
293.201
293.201
293.201
293.201
293.201
293.201
293.201
293.201
293.201
293.201
293.201
293.201
293.201
293.201
293.201
293.201
293.201
293.2
293.2
293.2
293.2
293.2
293.2
293.2
293.2
293.2
293.2
293.2
293.2
293.2
293.2
293.2
293.2
293.2
293.2
293.2
293.2
293.2
293.2
293.2
293.2
293.2
293.2
293.2
293.2
293.2
293.2
293.2
293.2
293.2
293.2
293.2
293.2
293.2
293.2
293.2
293.2
293.2
293.2
293.2
293.199
293.199
293.198
293.197
293.196
293.195
293.194
293.192
293.19
293.188
293.186
293.184
293.182
293.18
293.179
293.177
293.177
293.176
293.176
293.177
293.178
293.179
293.18
293.182
293.184
293.186
293.188
293.19
293.191
293.193
293.194
293.195
293.196
293.197
293.198
293.198
293.199
293.199
293.199
293.199
293.199
293.199
293.2
293.2
293.2
293.2
293.2
293.2
293.2
293.2
293.2
293.2
293.2
293.2
293.2
293.199
293.199
293.199
293.199
293.199
293.199
293.199
293.199
293.199
293.199
293.199
293.199
293.199
293.199
293.199
293.199
293.199
293.199
293.199
293.199
293.199
293.199
293.199
293.199
293.199
293.199
293.199
293.199
293.199
293.199
293.199
293.199
293.199
293.199
293.199
293.199
293.199
293.199
293.199
293.199
293.199
293.199
293.199
293.199
293.199
293.199
293.199
293.199
293.199
293.199
293.199
293.199
293.199
293.199
293.199
293.199
293.199
293.199
293.199
293.198
293.197
293.195
293.191
293.186
293.179
293.168
293.154
293.135
293.109
293.077
293.038
292.989
292.93
292.861
292.782
292.692
292.593
292.485
292.37
292.25
292.127
292.003
291.88
291.762
291.65
291.546
291.451
291.367
291.294
291.231
291.178
291.135
291.101
291.075
291.055
291.04
291.03
291.022
291.017
291.014
291.012
291.011
291.011
291.01
291.01
291.01
291.01
291.01
291.01
291.01
291.01
291.01
)
;

boundaryField
{
    sides
    {
        type            calculated;
        value           nonuniform List<scalar> 2(291.01 0.00196428);
    }
    empty
    {
        type            empty;
    }
}


// ************************************************************************* //
