/*--------------------------------*- C++ -*----------------------------------*\
  =========                 |
  \\      /  F ield         | OpenFOAM: The Open Source CFD Toolbox
   \\    /   O peration     | Website:  https://openfoam.org
    \\  /    A nd           | Version:  9
     \\/     M anipulation  |
\*---------------------------------------------------------------------------*/
FoamFile
{
    format      ascii;
    class       volScalarField;
    location    "0.012";
    object      rho;
}
// * * * * * * * * * * * * * * * * * * * * * * * * * * * * * * * * * * * * * //

dimensions      [1 -3 0 0 0 0 0];

internalField   nonuniform List<scalar> 
1000
(
0.997554
0.997551
0.997548
0.997543
0.997536
0.997527
0.997517
0.997503
0.997487
0.997467
0.997443
0.997415
0.99738
0.997339
0.997291
0.997234
0.997167
0.997089
0.996998
0.996894
0.996774
0.996637
0.996481
0.996305
0.996106
0.995883
0.995633
0.995357
0.995051
0.994714
0.994344
0.993941
0.993503
0.993028
0.992517
0.991968
0.991381
0.990755
0.99009
0.989386
0.988644
0.987863
0.987045
0.986189
0.985296
0.984368
0.983405
0.982407
0.981378
0.980316
0.979224
0.978103
0.976954
0.975777
0.974575
0.973349
0.972099
0.970827
0.969534
0.968221
0.966889
0.96554
0.964173
0.96279
0.961393
0.959981
0.958556
0.957118
0.955668
0.954207
0.952736
0.951255
0.949764
0.948265
0.946758
0.945243
0.943721
0.942192
0.940657
0.939116
0.93757
0.936018
0.934462
0.932901
0.931336
0.929767
0.928194
0.926618
0.925039
0.923457
0.921872
0.920285
0.918695
0.917104
0.91551
0.913915
0.912318
0.91072
0.909121
0.90752
0.905918
0.904316
0.902713
0.901109
0.899504
0.897899
0.896294
0.894689
0.893083
0.891478
0.889872
0.888267
0.886662
0.885057
0.883452
0.881848
0.880245
0.878642
0.87704
0.875438
0.873837
0.872237
0.870638
0.86904
0.867442
0.865846
0.864251
0.862656
0.861063
0.859472
0.857881
0.856292
0.854703
0.853117
0.851531
0.849947
0.848365
0.846783
0.845204
0.843625
0.842049
0.840474
0.8389
0.837328
0.835758
0.834189
0.832622
0.831057
0.829493
0.827931
0.826371
0.824812
0.823256
0.821701
0.820148
0.818596
0.817047
0.815499
0.813953
0.81241
0.810867
0.809327
0.807789
0.806253
0.804718
0.803186
0.801655
0.800126
0.7986
0.797075
0.795552
0.794032
0.792513
0.790996
0.789481
0.787968
0.786458
0.784949
0.783442
0.781937
0.780435
0.778934
0.777435
0.775939
0.774444
0.772952
0.771462
0.769973
0.768487
0.767003
0.765521
0.764041
0.762563
0.761087
0.759614
0.758142
0.756673
0.755205
0.75374
0.752277
0.750816
0.749357
0.7479
0.746445
0.744992
0.743542
0.742094
0.740647
0.739203
0.737761
0.736321
0.734884
0.733448
0.732014
0.730583
0.729154
0.727727
0.726302
0.724879
0.723458
0.72204
0.720623
0.719209
0.717797
0.716387
0.714979
0.713573
0.712169
0.710768
0.709369
0.707971
0.706576
0.705183
0.703793
0.702404
0.701017
0.699633
0.698251
0.696871
0.695493
0.694117
0.692743
0.691372
0.690002
0.688635
0.68727
0.685907
0.684546
0.683187
0.681831
0.680476
0.679124
0.677774
0.676425
0.675079
0.673736
0.672394
0.671054
0.669717
0.668382
0.667048
0.665717
0.664388
0.663062
0.661737
0.660414
0.659094
0.657775
0.656459
0.655145
0.653833
0.652523
0.651215
0.64991
0.648606
0.647305
0.646006
0.644708
0.643413
0.64212
0.640829
0.639541
0.638253
0.63697
0.635685
0.634409
0.633125
0.631857
0.63057
0.629318
0.628019
0.626791
0.625472
0.624278
0.622929
0.621776
0.620395
0.619277
0.617878
0.616774
0.615387
0.61426
0.612921
0.611742
0.610469
0.609236
0.608013
0.606755
0.605547
0.6043
0.603078
0.601855
0.600623
0.59941
0.598184
0.596968
0.595754
0.594538
0.593328
0.592119
0.59091
0.589707
0.588502
0.587301
0.586103
0.584905
0.58371
0.582518
0.581327
0.580138
0.578952
0.577767
0.576585
0.575404
0.574226
0.57305
0.571876
0.570703
0.569533
0.568366
0.5672
0.566036
0.564874
0.563715
0.562557
0.561402
0.560248
0.559097
0.557948
0.5568
0.555656
0.554513
0.553372
0.552233
0.551096
0.549962
0.548829
0.547699
0.546571
0.545445
0.54432
0.543199
0.542079
0.540961
0.539846
0.538732
0.537621
0.536512
0.535405
0.5343
0.533197
0.532097
0.530998
0.529902
0.528808
0.527716
0.526626
0.525539
0.524454
0.523371
0.52229
0.521211
0.520135
0.519061
0.517989
0.516919
0.515852
0.514786
0.513724
0.512663
0.511605
0.510549
0.509496
0.508444
0.507396
0.506349
0.505305
0.504264
0.503225
0.502188
0.501154
0.500122
0.499093
0.498066
0.497042
0.496021
0.495002
0.493986
0.492972
0.491961
0.490953
0.489948
0.488945
0.487945
0.486948
0.485954
0.484963
0.483975
0.48299
0.482009
0.48103
0.480054
0.479082
0.478113
0.477147
0.476185
0.475226
0.474271
0.473319
0.472371
0.471427
0.470487
0.469551
0.468619
0.467691
0.466767
0.465848
0.464933
0.464022
0.463117
0.462216
0.46132
0.46043
0.459544
0.458665
0.457791
0.456922
0.45606
0.455204
0.454354
0.453511
0.452675
0.451846
0.451024
0.450209
0.449403
0.448605
0.447815
0.447034
0.446262
0.4455
0.444747
0.444004
0.443272
0.442551
0.441841
0.441142
0.440456
0.439782
0.43912
0.438473
0.437839
0.437219
0.436614
0.436024
0.435449
0.43489
0.434348
0.433822
0.433314
0.432822
0.432349
0.431893
0.431456
0.431038
0.430638
0.430256
0.429894
0.42955
0.429225
0.428919
0.428631
0.428361
0.428109
0.427874
0.427657
0.427456
0.42727
0.427101
0.426945
0.426804
0.426676
0.426561
0.426457
0.426364
0.426281
0.426207
0.426142
0.426085
0.426035
0.425991
0.425953
0.42592
0.425892
0.425868
0.425847
0.425829
0.425814
0.425802
0.425791
0.425782
0.425774
0.425768
0.425762
0.425757
0.425754
0.42575
0.425747
0.425745
0.425743
0.425741
0.425739
0.425737
0.425736
0.425735
0.425734
0.425732
0.425731
0.42573
0.425729
0.425728
0.425727
0.425726
0.425725
0.425724
0.425723
0.425722
0.425721
0.42572
0.425719
0.425718
0.425717
0.425716
0.425715
0.425714
0.425713
0.425712
0.425711
0.425709
0.425708
0.425707
0.425706
0.425705
0.425704
0.425703
0.425702
0.425701
0.4257
0.425699
0.425698
0.425697
0.425696
0.425695
0.425694
0.425693
0.425692
0.42569
0.42569
0.425688
0.425687
0.425686
0.425685
0.425684
0.425684
0.425682
0.425682
0.425681
0.42568
0.425679
0.425678
0.425677
0.425676
0.425675
0.425674
0.425673
0.425672
0.425671
0.425671
0.42567
0.425669
0.425668
0.425667
0.425666
0.425665
0.425664
0.425663
0.425662
0.425661
0.42566
0.425659
0.425658
0.425657
0.425655
0.425654
0.425653
0.425652
0.425651
0.42565
0.425648
0.425647
0.425646
0.425645
0.425643
0.425642
0.425641
0.425639
0.425638
0.425637
0.425635
0.425634
0.425632
0.425631
0.42563
0.425628
0.425627
0.425625
0.425624
0.425622
0.425621
0.425619
0.425618
0.425616
0.425615
0.425613
0.425611
0.42561
0.425608
0.425607
0.425605
0.425603
0.425602
0.4256
0.425598
0.425597
0.425595
0.425593
0.425591
0.42559
0.425588
0.425586
0.425584
0.425582
0.42558
0.425579
0.425577
0.425575
0.425573
0.425571
0.425569
0.425567
0.425565
0.425563
0.425561
0.425559
0.425557
0.425554
0.425552
0.42555
0.425548
0.425546
0.425543
0.425541
0.425539
0.425536
0.425534
0.425532
0.425529
0.425527
0.425524
0.425522
0.425519
0.425517
0.425514
0.425512
0.425509
0.425506
0.425503
0.425501
0.425498
0.425495
0.425492
0.425489
0.425486
0.425483
0.42548
0.425477
0.425474
0.425471
0.425468
0.425465
0.425461
0.425458
0.425455
0.425451
0.425448
0.425444
0.425441
0.425437
0.425434
0.42543
0.425426
0.425422
0.425418
0.425414
0.42541
0.425406
0.425402
0.425398
0.425394
0.425389
0.425385
0.42538
0.425376
0.425371
0.425367
0.425362
0.425357
0.425352
0.425347
0.425342
0.425337
0.425331
0.425326
0.42532
0.425315
0.425309
0.425303
0.425297
0.425291
0.425285
0.425279
0.425272
0.425266
0.425259
0.425252
0.425245
0.425238
0.425231
0.425224
0.425216
0.425208
0.425201
0.425192
0.425184
0.425176
0.425167
0.425158
0.425149
0.42514
0.42513
0.425121
0.425111
0.4251
0.42509
0.425079
0.425068
0.425057
0.425045
0.425033
0.425021
0.425008
0.424995
0.424981
0.424967
0.424953
0.424938
0.424923
0.424907
0.424891
0.424875
0.424857
0.424839
0.424821
0.424801
0.424782
0.424761
0.424739
0.424717
0.424694
0.424669
0.424644
0.424618
0.42459
0.424561
0.424531
0.4245
0.424466
0.424431
0.424394
0.424355
0.424313
0.424269
0.424221
0.424171
0.424118
0.424062
0.424005
0.423946
0.423885
0.423822
0.423756
0.423684
0.423601
0.4235
0.423371
0.423201
0.422971
0.422662
0.422246
0.421695
0.420975
0.420053
0.418891
0.417453
0.415703
0.413608
0.411141
0.408278
0.405005
0.401316
0.397214
0.392711
0.387831
0.382607
0.377078
0.371296
0.365313
0.359191
0.35299
0.346773
0.340601
0.334531
0.328617
0.322905
0.317436
0.312243
0.307353
0.302783
0.298545
0.294644
0.291079
0.287844
0.284927
0.282315
0.279992
0.277938
0.276133
0.274557
0.273189
0.272008
0.270996
0.270132
0.269399
0.268781
0.268262
0.267829
0.26747
0.267173
0.26693
0.26673
0.266568
0.266437
0.266331
0.266246
0.266178
0.266124
0.26608
0.266046
0.266019
0.265998
0.265981
0.265968
0.265958
0.265949
0.265943
0.265938
0.265933
0.26593
0.265927
0.265925
0.265923
0.265922
0.265921
0.265919
0.265919
0.265918
0.265917
0.265917
0.265916
0.265916
0.265915
0.265915
0.265915
0.265914
0.265914
0.265914
0.265914
0.265914
0.265914
0.265913
0.265913
0.265913
0.265913
0.265913
0.265913
0.265913
0.265913
0.265912
0.265912
0.265912
0.265912
0.265912
0.265912
0.265912
0.265912
0.265912
0.265912
0.265911
0.265911
0.265911
0.265911
0.265911
0.265911
0.26591
0.26591
0.26591
0.26591
0.265911
0.265911
0.265912
0.265914
0.265917
0.265922
0.265928
0.265937
0.265949
0.265964
0.265984
0.266009
0.26604
0.266078
0.266122
0.266173
0.266231
0.266295
0.266366
0.266441
0.26652
0.266602
0.266685
0.266767
0.266846
0.266922
0.266992
0.267057
0.267115
0.267165
0.267209
0.267245
0.267275
0.267299
0.267318
0.267332
0.267343
0.26735
0.267355
0.267359
0.267361
0.267363
0.267363
0.267364
0.267364
0.267364
0.267364
0.267364
0.267364
0.267364
0.267364
0.267364
0.267364
)
;

boundaryField
{
    sides
    {
        type            calculated;
        value           nonuniform List<scalar> 2(0.267364 0.997554);
    }
    empty
    {
        type            empty;
    }
}


// ************************************************************************* //
