/*--------------------------------*- C++ -*----------------------------------*\
  =========                 |
  \\      /  F ield         | OpenFOAM: The Open Source CFD Toolbox
   \\    /   O peration     | Website:  https://openfoam.org
    \\  /    A nd           | Version:  9
     \\/     M anipulation  |
\*---------------------------------------------------------------------------*/
FoamFile
{
    format      ascii;
    class       volScalarField;
    location    "0.021";
    object      p;
}
// * * * * * * * * * * * * * * * * * * * * * * * * * * * * * * * * * * * * * //

dimensions      [1 -1 -2 0 0 0 0];

internalField   nonuniform List<scalar> 
100
(
64802.5
63233.5
62299.9
61310.4
60352
59402.7
58467.1
57543.9
56633.2
55735
54849.1
53975.2
53113.2
52263
51424.9
50598.9
49785
48982.5
48191.2
47410.9
46641.9
45884.2
45137.6
44401.8
43676.2
42960.9
42255.8
41561.2
40877
40203
39538.9
38883.9
38237.5
37600.2
36973
36357.9
35756.4
35168.8
34593.2
34025.8
33463.8
32908.6
32365.1
31843
31359.8
30941.9
30633.1
30447.7
30365.9
30343.2
30336.4
30316.9
30277.5
30257.7
30251
30250.3
30259.3
30267.6
30270.4
30270
30267.6
30264.6
30263.9
30269.3
30284.5
30293.7
30295.7
30294.9
30292.3
30289.9
30289.6
30292.9
30303.5
30311.6
30314.2
30314.8
30314.9
30314.9
30313.8
30313.4
30320
30331.1
30337.6
30342.7
30347.2
30348.3
30344.4
30326.1
30300
30291.5
30375.3
30785.5
31133.5
31253.9
31265
31239
31265.8
31501
31889.1
32034.3
)
;

boundaryField
{
    sides
    {
        type            zeroGradient;
    }
    empty
    {
        type            empty;
    }
}


// ************************************************************************* //
