/*--------------------------------*- C++ -*----------------------------------*\
  =========                 |
  \\      /  F ield         | OpenFOAM: The Open Source CFD Toolbox
   \\    /   O peration     | Website:  https://openfoam.org
    \\  /    A nd           | Version:  9
     \\/     M anipulation  |
\*---------------------------------------------------------------------------*/
FoamFile
{
    format      ascii;
    class       volScalarField;
    location    "0.021";
    object      T;
}
// * * * * * * * * * * * * * * * * * * * * * * * * * * * * * * * * * * * * * //

dimensions      [0 0 0 1 0 0 0];

internalField   nonuniform List<scalar> 
100
(
308.227
306.054
304.704
303.256
301.83
300.395
298.963
297.54
296.131
294.742
293.372
292.019
290.678
289.345
288.015
286.687
285.361
284.037
282.716
281.397
280.083
278.773
277.467
276.165
274.866
273.57
272.278
270.989
269.705
268.425
267.148
265.874
264.602
263.332
262.067
260.812
259.57
258.342
257.124
255.91
254.693
253.477
252.271
251.1
250.003
249.045
248.332
247.896
247.708
247.654
247.636
247.587
247.493
247.437
247.426
247.426
247.447
247.462
247.462
247.458
247.448
247.439
247.437
247.45
247.485
247.504
247.502
247.495
247.483
247.476
247.474
247.481
247.504
247.521
247.519
247.512
247.507
247.505
247.501
247.494
247.506
247.529
247.534
247.535
247.538
247.54
247.531
247.488
247.432
247.392
247.582
248.533
249.278
249.581
249.635
249.58
249.639
250.161
250.982
251.24
)
;

boundaryField
{
    sides
    {
        type            zeroGradient;
    }
    empty
    {
        type            empty;
    }
}


// ************************************************************************* //
