/*--------------------------------*- C++ -*----------------------------------*\
  =========                 |
  \\      /  F ield         | OpenFOAM: The Open Source CFD Toolbox
   \\    /   O peration     | Website:  https://openfoam.org
    \\  /    A nd           | Version:  9
     \\/     M anipulation  |
\*---------------------------------------------------------------------------*/
FoamFile
{
    format      ascii;
    class       surfaceScalarField;
    location    "0.038";
    object      phi;
}
// * * * * * * * * * * * * * * * * * * * * * * * * * * * * * * * * * * * * * //

dimensions      [1 0 -1 0 0 0 0];

internalField   nonuniform List<scalar> 
9999
(
5.05947
5.08909
5.11872
5.14834
5.17796
5.20758
5.2372
5.26682
5.29644
5.32606
5.35568
5.38529
5.4149
5.44452
5.47413
5.50374
5.53335
5.56296
5.59257
5.62218
5.65179
5.68139
5.711
5.7406
5.7702
5.7998
5.8294
5.85901
5.8886
5.9182
5.9478
5.97739
6.00699
6.03658
6.06618
6.09577
6.12536
6.15495
6.18454
6.21413
6.24372
6.2733
6.30289
6.33247
6.36206
6.39164
6.42122
6.4508
6.48038
6.50997
6.53955
6.56912
6.5987
6.62827
6.65784
6.68742
6.71699
6.74657
6.77614
6.80571
6.83528
6.86485
6.89441
6.92397
6.95354
6.9831
7.01267
7.04224
7.0718
7.10137
7.13093
7.16049
7.19004
7.2196
7.24915
7.2787
7.30825
7.33781
7.36737
7.39693
7.42649
7.45605
7.48561
7.51516
7.5447
7.57425
7.60378
7.63332
7.66286
7.6924
7.72194
7.75148
7.78103
7.81058
7.84014
7.86969
7.89925
7.9288
7.95835
7.9879
8.01744
8.04697
8.0765
8.10602
8.13553
8.16505
8.19456
8.22407
8.25358
8.2831
8.31262
8.34215
8.37168
8.40123
8.43078
8.46033
8.4899
8.51948
8.54906
8.57865
8.60825
8.63785
8.66746
8.69707
8.72668
8.7563
8.78592
8.81554
8.84516
8.87477
8.90439
8.93401
8.96364
8.99327
9.02291
9.05254
9.08217
9.11181
9.14144
9.17107
9.20071
9.23034
9.25997
9.2896
9.31924
9.34887
9.3785
9.40813
9.43776
9.4674
9.49703
9.52666
9.55629
9.58592
9.61555
9.64518
9.67481
9.70444
9.73407
9.7637
9.79333
9.82296
9.85259
9.88222
9.91185
9.94148
9.97111
10.0007
10.0304
10.06
10.0896
10.1193
10.1489
10.1785
10.2081
10.2378
10.2674
10.297
10.3266
10.3563
10.3859
10.4155
10.4452
10.4748
10.5044
10.534
10.5637
10.5933
10.6229
10.6525
10.6822
10.7118
10.7414
10.771
10.8007
10.8303
10.8599
10.8895
10.9192
10.9488
10.9784
11.008
11.0377
11.0673
11.0969
11.1265
11.1561
11.1858
11.2154
11.245
11.2746
11.3043
11.3339
11.3635
11.3931
11.4227
11.4524
11.482
11.5116
11.5412
11.5709
11.6005
11.6301
11.6597
11.6893
11.719
11.7486
11.7782
11.8078
11.8374
11.8671
11.8967
11.9263
11.9559
11.9855
12.0151
12.0448
12.0744
12.104
12.1336
12.1632
12.1929
12.2225
12.2521
12.2817
12.3113
12.3409
12.3706
12.4002
12.4298
12.4594
12.489
12.5186
12.5483
12.5779
12.6075
12.6371
12.6667
12.6963
12.7259
12.7556
12.7852
12.8148
12.8444
12.874
12.9036
12.9332
12.9629
12.9925
13.0221
13.0517
13.0813
13.1109
13.1405
13.1702
13.1998
13.2294
13.259
13.2886
13.3182
13.3478
13.3774
13.407
13.4367
13.4663
13.4959
13.5255
13.5551
13.5847
13.6143
13.6439
13.6735
13.7032
13.7328
13.7624
13.792
13.8216
13.8512
13.8808
13.9104
13.94
13.9696
13.9992
14.0288
14.0585
14.0881
14.1177
14.1473
14.1769
14.2065
14.2361
14.2657
14.2953
14.3249
14.3545
14.3841
14.4137
14.4433
14.4729
14.5026
14.5322
14.5618
14.5914
14.621
14.6506
14.6802
14.7098
14.7394
14.769
14.7986
14.8282
14.8578
14.8874
14.917
14.9466
14.9762
15.0058
15.0354
15.065
15.0946
15.1242
15.1538
15.1834
15.213
15.2426
15.2722
15.3018
15.3314
15.361
15.3906
15.4202
15.4498
15.4794
15.509
15.5386
15.5682
15.5978
15.6274
15.657
15.6866
15.7162
15.7458
15.7754
15.805
15.8346
15.8642
15.8938
15.9234
15.953
15.9826
16.0122
16.0418
16.0714
16.101
16.1306
16.1602
16.1898
16.2194
16.249
16.2786
16.3082
16.3377
16.3673
16.3969
16.4265
16.4561
16.4857
16.5153
16.5449
16.5745
16.6041
16.6337
16.6633
16.6929
16.7225
16.7521
16.7817
16.8112
16.8408
16.8704
16.9
16.9296
16.9592
16.9888
17.0184
17.048
17.0776
17.1072
17.1367
17.1663
17.1959
17.2255
17.2551
17.2847
17.3143
17.3439
17.3735
17.403
17.4326
17.4622
17.4918
17.5214
17.551
17.5806
17.6102
17.6397
17.6693
17.6989
17.7285
17.7581
17.7877
17.8173
17.8469
17.8764
17.906
17.9356
17.9652
17.9948
18.0244
18.0539
18.0835
18.1131
18.1427
18.1723
18.2019
18.2315
18.261
18.2906
18.3202
18.3498
18.3794
18.409
18.4385
18.4681
18.4977
18.5273
18.5569
18.5864
18.616
18.6456
18.6752
18.7048
18.7343
18.7639
18.7935
18.8231
18.8527
18.8822
18.9118
18.9414
18.971
19.0006
19.0301
19.0597
19.0893
19.1189
19.1485
19.178
19.2076
19.2372
19.2668
19.2963
19.3259
19.3555
19.3851
19.4146
19.4442
19.4738
19.5034
19.5329
19.5625
19.5921
19.6217
19.6512
19.6808
19.7104
19.74
19.7695
19.7991
19.8287
19.8583
19.8878
19.9174
19.947
19.9766
20.0061
20.0357
20.0653
20.0948
20.1244
20.154
20.1836
20.2131
20.2427
20.2723
20.3018
20.3314
20.361
20.3906
20.4201
20.4497
20.4793
20.5088
20.5384
20.568
20.5975
20.6271
20.6567
20.6862
20.7158
20.7454
20.7749
20.8045
20.8341
20.8636
20.8932
20.9228
20.9523
20.9819
21.0115
21.041
21.0706
21.1002
21.1297
21.1593
21.1889
21.2184
21.248
21.2776
21.3071
21.3367
21.3663
21.3958
21.4254
21.4549
21.4845
21.5141
21.5436
21.5732
21.6028
21.6323
21.6619
21.6914
21.721
21.7506
21.7801
21.8097
21.8393
21.8688
21.8984
21.9279
21.9575
21.9871
22.0166
22.0462
22.0757
22.1053
22.1348
22.1644
22.194
22.2235
22.2531
22.2826
22.3122
22.3418
22.3713
22.4009
22.4304
22.46
22.4895
22.5191
22.5486
22.5782
22.6078
22.6373
22.6669
22.6964
22.726
22.7555
22.7851
22.8146
22.8442
22.8737
22.9033
22.9329
22.9624
22.992
23.0215
23.0511
23.0806
23.1102
23.1397
23.1693
23.1988
23.2284
23.2579
23.2875
23.317
23.3466
23.3761
23.4057
23.4352
23.4648
23.4943
23.5239
23.5534
23.583
23.6125
23.6421
23.6716
23.7012
23.7307
23.7603
23.7898
23.8194
23.8489
23.8784
23.908
23.9375
23.9671
23.9966
24.0262
24.0557
24.0853
24.1148
24.1444
24.1739
24.2034
24.233
24.2625
24.2921
24.3216
24.3512
24.3807
24.4103
24.4398
24.4693
24.4989
24.5284
24.558
24.5875
24.617
24.6466
24.6761
24.7057
24.7352
24.7648
24.7943
24.8238
24.8534
24.8829
24.9125
24.942
24.9715
25.0011
25.0306
25.0601
25.0897
25.1192
25.1488
25.1783
25.2078
25.2374
25.2669
25.2964
25.326
25.3555
25.3851
25.4146
25.4441
25.4737
25.5032
25.5327
25.5623
25.5918
25.6213
25.6509
25.6804
25.7099
25.7395
25.769
25.7985
25.8281
25.8576
25.8871
25.9167
25.9462
25.9757
26.0053
26.0348
26.0643
26.0939
26.1234
26.1529
26.1824
26.212
26.2415
26.271
26.3006
26.3301
26.3596
26.3892
26.4187
26.4482
26.4777
26.5073
26.5368
26.5663
26.5958
26.6254
26.6549
26.6844
26.714
26.7435
26.773
26.8025
26.8321
26.8616
26.8911
26.9206
26.9502
26.9797
27.0092
27.0387
27.0683
27.0978
27.1273
27.1568
27.1863
27.2159
27.2454
27.2749
27.3044
27.334
27.3635
27.393
27.4225
27.452
27.4816
27.5111
27.5406
27.5701
27.5996
27.6292
27.6587
27.6882
27.7177
27.7472
27.7768
27.8063
27.8358
27.8653
27.8948
27.9243
27.9539
27.9834
28.0129
28.0424
28.0719
28.1014
28.131
28.1605
28.19
28.2195
28.249
28.2785
28.308
28.3376
28.3671
28.3966
28.4261
28.4556
28.4851
28.5146
28.5441
28.5737
28.6032
28.6327
28.6622
28.6917
28.7212
28.7507
28.7802
28.8098
28.8393
28.8688
28.8983
28.9278
28.9573
28.9868
29.0163
29.0458
29.0753
29.1048
29.1343
29.1639
29.1934
29.2229
29.2524
29.2819
29.3114
29.3409
29.3704
29.3999
29.4294
29.4589
29.4884
29.5179
29.5474
29.5769
29.6064
29.6359
29.6655
29.695
29.7245
29.754
29.7835
29.813
29.8425
29.872
29.9015
29.931
29.9605
29.99
30.0195
30.049
30.0785
30.108
30.1375
30.167
30.1965
30.226
30.2555
30.285
30.3145
30.344
30.3735
30.403
30.4325
30.462
30.4915
30.521
30.5504
30.5799
30.6094
30.6389
30.6684
30.6979
30.7274
30.7569
30.7864
30.8159
30.8454
30.8749
30.9044
30.9339
30.9634
30.9929
31.0224
31.0519
31.0813
31.1108
31.1403
31.1698
31.1993
31.2288
31.2583
31.2878
31.3173
31.3468
31.3763
31.4057
31.4352
31.4647
31.4942
31.5237
31.5532
31.5827
31.6122
31.6417
31.6711
31.7006
31.7301
31.7596
31.7891
31.8186
31.8481
31.8775
31.907
31.9365
31.966
31.9955
32.025
32.0545
32.0839
32.1134
32.1429
32.1724
32.2019
32.2314
32.2608
32.2903
32.3198
32.3493
32.3788
32.4082
32.4377
32.4672
32.4967
32.5262
32.5556
32.5851
32.6146
32.6441
32.6736
32.703
32.7325
32.762
32.7915
32.821
32.8504
32.8799
32.9094
32.9389
32.9683
32.9978
33.0273
33.0568
33.0862
33.1157
33.1452
33.1747
33.2041
33.2336
33.2631
33.2926
33.322
33.3515
33.381
33.4105
33.4399
33.4694
33.4989
33.5283
33.5578
33.5873
33.6168
33.6462
33.6757
33.7052
33.7346
33.7641
33.7936
33.823
33.8525
33.882
33.9114
33.9409
33.9704
33.9999
34.0293
34.0588
34.0883
34.1177
34.1472
34.1767
34.2061
34.2356
34.265
34.2945
34.324
34.3534
34.3829
34.4124
34.4418
34.4713
34.5008
34.5302
34.5597
34.5891
34.6186
34.6481
34.6775
34.707
34.7365
34.7659
34.7954
34.8248
34.8543
34.8838
34.9132
34.9427
34.9721
35.0016
35.0311
35.0605
35.09
35.1194
35.1489
35.1783
35.2078
35.2373
35.2667
35.2962
35.3256
35.3551
35.3845
35.414
35.4434
35.4729
35.5023
35.5318
35.5613
35.5907
35.6202
35.6496
35.6791
35.7085
35.738
35.7674
35.7969
35.8263
35.8558
35.8852
35.9147
35.9441
35.9736
36.003
36.0325
36.0619
36.0914
36.1208
36.1503
36.1797
36.2092
36.2386
36.2681
36.2975
36.327
36.3564
36.3858
36.4153
36.4447
36.4742
36.5036
36.5331
36.5625
36.592
36.6214
36.6508
36.6803
36.7097
36.7392
36.7686
36.7981
36.8275
36.8569
36.8864
36.9158
36.9453
36.9747
37.0041
37.0336
37.063
37.0925
37.1219
37.1513
37.1808
37.2102
37.2397
37.2691
37.2985
37.328
37.3574
37.3868
37.4163
37.4457
37.4752
37.5046
37.534
37.5635
37.5929
37.6223
37.6518
37.6812
37.7106
37.7401
37.7695
37.7989
37.8284
37.8578
37.8872
37.9167
37.9461
37.9755
38.0049
38.0344
38.0638
38.0932
38.1227
38.1521
38.1815
38.211
38.2404
38.2698
38.2992
38.3287
38.3581
38.3875
38.4169
38.4464
38.4758
38.5052
38.5347
38.5641
38.5935
38.6229
38.6524
38.6818
38.7112
38.7406
38.77
38.7995
38.8289
38.8583
38.8877
38.9172
38.9466
38.976
39.0054
39.0348
39.0643
39.0937
39.1231
39.1525
39.1819
39.2114
39.2408
39.2702
39.2996
39.329
39.3585
39.3879
39.4173
39.4467
39.4761
39.5055
39.535
39.5644
39.5938
39.6232
39.6526
39.682
39.7114
39.7409
39.7703
39.7997
39.8291
39.8585
39.8879
39.9173
39.9467
39.9762
40.0056
40.035
40.0644
40.0938
40.1232
40.1526
40.182
40.2114
40.2408
40.2702
40.2997
40.3291
40.3585
40.3879
40.4173
40.4467
40.4761
40.5055
40.5349
40.5643
40.5937
40.6231
40.6525
40.6819
40.7113
40.7407
40.7701
40.7995
40.829
40.8584
40.8878
40.9172
40.9466
40.976
41.0054
41.0348
41.0642
41.0936
41.123
41.1524
41.1818
41.2112
41.2406
41.27
41.2994
41.3287
41.3581
41.3875
41.4169
41.4463
41.4757
41.5051
41.5345
41.5639
41.5933
41.6227
41.6521
41.6815
41.7109
41.7403
41.7697
41.7991
41.8285
41.8578
41.8872
41.9166
41.946
41.9754
42.0048
42.0342
42.0636
42.093
42.1224
42.1518
42.1811
42.2105
42.2399
42.2693
42.2987
42.3281
42.3575
42.3868
42.4162
42.4456
42.475
42.5044
42.5338
42.5632
42.5925
42.6219
42.6513
42.6807
42.7101
42.7395
42.7688
42.7982
42.8276
42.857
42.8864
42.9157
42.9451
42.9745
43.0039
43.0333
43.0626
43.092
43.1214
43.1508
43.1802
43.2095
43.2389
43.2683
43.2977
43.327
43.3564
43.3858
43.4152
43.4445
43.4739
43.5033
43.5327
43.562
43.5914
43.6208
43.6502
43.6795
43.7089
43.7383
43.7676
43.797
43.8264
43.8558
43.8851
43.9145
43.9439
43.9732
44.0026
44.032
44.0613
44.0907
44.1201
44.1494
44.1788
44.2082
44.2375
44.2669
44.2963
44.3256
44.355
44.3844
44.4137
44.4431
44.4725
44.5018
44.5312
44.5605
44.5899
44.6193
44.6486
44.678
44.7073
44.7367
44.7661
44.7954
44.8248
44.8541
44.8835
44.9129
44.9422
44.9716
45.0009
45.0303
45.0596
45.089
45.1184
45.1477
45.1771
45.2064
45.2358
45.2651
45.2945
45.3238
45.3532
45.3825
45.4119
45.4412
45.4706
45.5
45.5293
45.5587
45.588
45.6174
45.6467
45.6761
45.7054
45.7348
45.7641
45.7934
45.8228
45.8521
45.8815
45.9108
45.9402
45.9695
45.9989
46.0282
46.0576
46.0869
46.1163
46.1456
46.1749
46.2043
46.2336
46.263
46.2923
46.3217
46.351
46.3803
46.4097
46.439
46.4684
46.4977
46.527
46.5564
46.5857
46.6151
46.6444
46.6737
46.7031
46.7324
46.7617
46.7911
46.8204
46.8497
46.8791
46.9084
46.9377
46.9671
46.9964
47.0257
47.0551
47.0844
47.1137
47.1431
47.1724
47.2017
47.2311
47.2604
47.2897
47.3191
47.3484
47.3777
47.407
47.4364
47.4657
47.495
47.5244
47.5537
47.583
47.6123
47.6417
47.671
47.7003
47.7296
47.759
47.7883
47.8176
47.8469
47.8763
47.9056
47.9349
47.9642
47.9935
48.0229
48.0522
48.0815
48.1108
48.1401
48.1695
48.1988
48.2281
48.2574
48.2867
48.3161
48.3454
48.3747
48.404
48.4333
48.4626
48.4919
48.5213
48.5506
48.5799
48.6092
48.6385
48.6678
48.6971
48.7265
48.7558
48.7851
48.8144
48.8437
48.873
48.9023
48.9316
48.9609
48.9902
49.0196
49.0489
49.0782
49.1075
49.1368
49.1661
49.1954
49.2247
49.254
49.2833
49.3126
49.3419
49.3712
49.4005
49.4298
49.4591
49.4884
49.5177
49.547
49.5763
49.6056
49.6349
49.6642
49.6935
49.7228
49.7521
49.7814
49.8107
49.84
49.8693
49.8986
49.9279
49.9572
49.9865
50.0158
50.0451
50.0744
50.1037
50.133
50.1623
50.1916
50.2209
50.2502
50.2794
50.3087
50.338
50.3673
50.3966
50.4259
50.4552
50.4845
50.5138
50.543
50.5723
50.6016
50.6309
50.6602
50.6895
50.7188
50.7481
50.7773
50.8066
50.8359
50.8652
50.8945
50.9238
50.953
50.9823
51.0116
51.0409
51.0702
51.0994
51.1287
51.158
51.1873
51.2166
51.2458
51.2751
51.3044
51.3337
51.3629
51.3922
51.4215
51.4508
51.4801
51.5093
51.5386
51.5679
51.5971
51.6264
51.6557
51.685
51.7142
51.7435
51.7728
51.8021
51.8313
51.8606
51.8899
51.9191
51.9484
51.9777
52.0069
52.0362
52.0655
52.0947
52.124
52.1533
52.1825
52.2118
52.2411
52.2703
52.2996
52.3288
52.3581
52.3874
52.4166
52.4459
52.4752
52.5044
52.5337
52.5629
52.5922
52.6215
52.6507
52.68
52.7092
52.7385
52.7677
52.797
52.8263
52.8555
52.8848
52.914
52.9433
52.9725
53.0018
53.031
53.0603
53.0895
53.1188
53.148
53.1773
53.2065
53.2358
53.265
53.2943
53.3235
53.3528
53.382
53.4113
53.4405
53.4698
53.499
53.5283
53.5575
53.5867
53.616
53.6452
53.6745
53.7037
53.733
53.7622
53.7914
53.8207
53.8499
53.8792
53.9084
53.9376
53.9669
53.9961
54.0254
54.0546
54.0838
54.1131
54.1423
54.1715
54.2008
54.23
54.2592
54.2885
54.3177
54.3469
54.3762
54.4054
54.4346
54.4639
54.4931
54.5223
54.5516
54.5808
54.61
54.6392
54.6685
54.6977
54.7269
54.7561
54.7854
54.8146
54.8438
54.873
54.9023
54.9315
54.9607
54.9899
55.0192
55.0484
55.0776
55.1068
55.136
55.1653
55.1945
55.2237
55.2529
55.2821
55.3114
55.3406
55.3698
55.399
55.4282
55.4574
55.4866
55.5159
55.5451
55.5743
55.6035
55.6327
55.6619
55.6911
55.7203
55.7496
55.7788
55.808
55.8372
55.8664
55.8956
55.9248
55.954
55.9832
56.0124
56.0416
56.0708
56.1
56.1292
56.1584
56.1876
56.2168
56.246
56.2752
56.3044
56.3337
56.3628
56.392
56.4212
56.4504
56.4796
56.5088
56.538
56.5672
56.5964
56.6256
56.6548
56.684
56.7132
56.7424
56.7716
56.8008
56.83
56.8592
56.8884
56.9175
56.9467
56.9759
57.0051
57.0343
57.0635
57.0927
57.1219
57.151
57.1802
57.2094
57.2386
57.2678
57.297
57.3262
57.3553
57.3845
57.4137
57.4429
57.4721
57.5012
57.5304
57.5596
57.5888
57.618
57.6471
57.6763
57.7055
57.7347
57.7638
57.793
57.8222
57.8514
57.8805
57.9097
57.9389
57.968
57.9972
58.0264
58.0556
58.0847
58.1139
58.1431
58.1722
58.2014
58.2306
58.2597
58.2889
58.3181
58.3472
58.3764
58.4055
58.4347
58.4639
58.493
58.5222
58.5514
58.5805
58.6097
58.6388
58.668
58.6971
58.7263
58.7555
58.7846
58.8138
58.8429
58.8721
58.9012
58.9304
58.9595
58.9887
59.0178
59.047
59.0761
59.1053
59.1344
59.1636
59.1927
59.2219
59.251
59.2802
59.3093
59.3385
59.3676
59.3968
59.4259
59.455
59.4842
59.5133
59.5425
59.5716
59.6008
59.6299
59.659
59.6882
59.7173
59.7464
59.7756
59.8047
59.8339
59.863
59.8921
59.9213
59.9504
59.9795
60.0086
60.0378
60.0669
60.096
60.1252
60.1543
60.1834
60.2126
60.2417
60.2708
60.2999
60.3291
60.3582
60.3873
60.4164
60.4456
60.4747
60.5038
60.5329
60.562
60.5912
60.6203
60.6494
60.6785
60.7076
60.7367
60.7659
60.795
60.8241
60.8532
60.8823
60.9114
60.9405
60.9697
60.9988
61.0279
61.057
61.0861
61.1152
61.1443
61.1734
61.2025
61.2316
61.2607
61.2898
61.3189
61.348
61.3771
61.4062
61.4354
61.4645
61.4936
61.5226
61.5517
61.5808
61.6099
61.639
61.6681
61.6972
61.7263
61.7554
61.7845
61.8136
61.8427
61.8718
61.9009
61.93
61.9591
61.9881
62.0172
62.0463
62.0754
62.1045
62.1336
62.1627
62.1918
62.2208
62.2499
62.279
62.3081
62.3372
62.3662
62.3953
62.4244
62.4535
62.4826
62.5116
62.5407
62.5698
62.5989
62.6279
62.657
62.6861
62.7151
62.7442
62.7733
62.8024
62.8314
62.8605
62.8896
62.9186
62.9477
62.9768
63.0058
63.0349
63.0639
63.093
63.1221
63.1511
63.1802
63.2093
63.2383
63.2674
63.2964
63.3255
63.3545
63.3836
63.4126
63.4417
63.4708
63.4998
63.5289
63.5579
63.587
63.616
63.6451
63.6741
63.7032
63.7322
63.7612
63.7903
63.8193
63.8484
63.8774
63.9065
63.9355
63.9645
63.9936
64.0226
64.0517
64.0807
64.1097
64.1388
64.1678
64.1968
64.2259
64.2549
64.2839
64.313
64.342
64.371
64.4
64.4291
64.4581
64.4871
64.5162
64.5452
64.5742
64.6032
64.6322
64.6613
64.6903
64.7193
64.7483
64.7773
64.8064
64.8354
64.8644
64.8934
64.9224
64.9514
64.9804
65.0095
65.0385
65.0675
65.0965
65.1255
65.1545
65.1835
65.2125
65.2415
65.2705
65.2995
65.3285
65.3575
65.3865
65.4155
65.4445
65.4735
65.5025
65.5315
65.5605
65.5895
65.6185
65.6475
65.6765
65.7055
65.7345
65.7635
65.7924
65.8214
65.8504
65.8794
65.9084
65.9374
65.9664
65.9953
66.0243
66.0533
66.0823
66.1113
66.1402
66.1692
66.1982
66.2272
66.2561
66.2851
66.3141
66.3431
66.372
66.401
66.43
66.4589
66.4879
66.5169
66.5458
66.5748
66.6037
66.6327
66.6617
66.6906
66.7196
66.7485
66.7775
66.8065
66.8354
66.8644
66.8933
66.9223
66.9512
66.9802
67.0091
67.0381
67.067
67.096
67.1249
67.1539
67.1828
67.2117
67.2407
67.2696
67.2986
67.3275
67.3564
67.3854
67.4143
67.4432
67.4722
67.5011
67.53
67.559
67.5879
67.6168
67.6458
67.6747
67.7036
67.7325
67.7615
67.7904
67.8193
67.8482
67.8771
67.9061
67.935
67.9639
67.9928
68.0217
68.0506
68.0795
68.1085
68.1374
68.1663
68.1952
68.2241
68.253
68.2819
68.3108
68.3397
68.3686
68.3975
68.4264
68.4553
68.4842
68.5131
68.542
68.5709
68.5998
68.6286
68.6575
68.6864
68.7153
68.7442
68.7731
68.802
68.8308
68.8597
68.8886
68.9175
68.9464
68.9752
69.0041
69.033
69.0619
69.0907
69.1196
69.1485
69.1773
69.2062
69.2351
69.2639
69.2928
69.3217
69.3505
69.3794
69.4082
69.4371
69.466
69.4948
69.5237
69.5525
69.5814
69.6102
69.6391
69.6679
69.6968
69.7256
69.7544
69.7833
69.8121
69.841
69.8698
69.8986
69.9275
69.9563
69.9851
70.014
70.0428
70.0716
70.1005
70.1293
70.1581
70.1869
70.2158
70.2446
70.2734
70.3022
70.331
70.3598
70.3887
70.4175
70.4463
70.4751
70.5039
70.5327
70.5615
70.5903
70.6191
70.6479
70.6767
70.7055
70.7343
70.7631
70.7919
70.8207
70.8495
70.8783
70.9071
70.9359
70.9646
70.9934
71.0222
71.051
71.0798
71.1085
71.1373
71.1661
71.1949
71.2236
71.2524
71.2812
71.3099
71.3387
71.3675
71.3962
71.425
71.4538
71.4825
71.5113
71.54
71.5688
71.5975
71.6263
71.655
71.6838
71.7125
71.7413
71.77
71.7988
71.8275
71.8562
71.885
71.9137
71.9424
71.9712
71.9999
72.0286
72.0573
72.0861
72.1148
72.1435
72.1722
72.2009
72.2297
72.2584
72.2871
72.3158
72.3445
72.3732
72.4019
72.4306
72.4593
72.488
72.5167
72.5454
72.5741
72.6028
72.6315
72.6602
72.6889
72.7176
72.7462
72.7749
72.8036
72.8323
72.861
72.8896
72.9183
72.947
72.9756
73.0043
73.033
73.0616
73.0903
73.119
73.1476
73.1763
73.2049
73.2336
73.2622
73.2909
73.3195
73.3482
73.3768
73.4054
73.4341
73.4627
73.4913
73.52
73.5486
73.5772
73.6058
73.6345
73.6631
73.6917
73.7203
73.7489
73.7776
73.8062
73.8348
73.8634
73.892
73.9206
73.9492
73.9778
74.0064
74.035
74.0636
74.0921
74.1207
74.1493
74.1779
74.2065
74.235
74.2636
74.2922
74.3208
74.3493
74.3779
74.4065
74.435
74.4636
74.4921
74.5207
74.5492
74.5778
74.6063
74.6349
74.6634
74.692
74.7205
74.749
74.7776
74.8061
74.8346
74.8631
74.8917
74.9202
74.9487
74.9772
75.0057
75.0342
75.0627
75.0913
75.1198
75.1483
75.1768
75.2052
75.2337
75.2622
75.2907
75.3192
75.3477
75.3762
75.4046
75.4331
75.4616
75.49
75.5185
75.547
75.5754
75.6039
75.6323
75.6608
75.6892
75.7177
75.7461
75.7745
75.803
75.8314
75.8598
75.8883
75.9167
75.9451
75.9735
76.002
76.0304
76.0588
76.0872
76.1156
76.144
76.1724
76.2008
76.2292
76.2575
76.2859
76.3143
76.3427
76.3711
76.3994
76.4278
76.4562
76.4845
76.5129
76.5412
76.5696
76.598
76.6263
76.6546
76.683
76.7113
76.7396
76.768
76.7963
76.8246
76.8529
76.8813
76.9096
76.9379
76.9662
76.9945
77.0228
77.0511
77.0794
77.1076
77.1359
77.1642
77.1925
77.2208
77.249
77.2773
77.3055
77.3338
77.3621
77.3903
77.4185
77.4468
77.475
77.5033
77.5315
77.5597
77.5879
77.6162
77.6444
77.6726
77.7008
77.729
77.7572
77.7854
77.8136
77.8418
77.8699
77.8981
77.9263
77.9545
77.9826
78.0108
78.0389
78.0671
78.0952
78.1234
78.1515
78.1796
78.2078
78.2359
78.264
78.2921
78.3203
78.3484
78.3765
78.4046
78.4327
78.4607
78.4888
78.5169
78.545
78.573
78.6011
78.6292
78.6572
78.6853
78.7133
78.7414
78.7694
78.7974
78.8255
78.8535
78.8815
78.9095
78.9375
78.9655
78.9935
79.0215
79.0495
79.0775
79.1054
79.1334
79.1614
79.1893
79.2173
79.2452
79.2732
79.3011
79.329
79.357
79.3849
79.4128
79.4407
79.4686
79.4965
79.5244
79.5523
79.5802
79.6081
79.6359
79.6638
79.6916
79.7195
79.7473
79.7752
79.803
79.8308
79.8587
79.8865
79.9143
79.9421
79.9699
79.9977
80.0255
80.0532
80.081
80.1088
80.1365
80.1643
80.192
80.2198
80.2475
80.2752
80.3029
80.3306
80.3583
80.386
80.4137
80.4414
80.4691
80.4968
80.5244
80.5521
80.5797
80.6074
80.635
80.6626
80.6903
80.7179
80.7455
80.7731
80.8007
80.8282
80.8558
80.8834
80.9109
80.9385
80.966
80.9936
81.0211
81.0486
81.0761
81.1036
81.1311
81.1586
81.1861
81.2136
81.241
81.2685
81.296
81.3234
81.3508
81.3782
81.4057
81.4331
81.4605
81.4878
81.5152
81.5426
81.57
81.5973
81.6247
81.652
81.6793
81.7066
81.7339
81.7612
81.7885
81.8158
81.8431
81.8703
81.8976
81.9248
81.9521
81.9793
82.0065
82.0337
82.0609
82.0881
82.1153
82.1424
82.1696
82.1967
82.2238
82.251
82.2781
82.3052
82.3323
82.3594
82.3864
82.4135
82.4405
82.4676
82.4946
82.5216
82.5486
82.5756
82.6026
82.6296
82.6565
82.6835
82.7104
82.7373
82.7643
82.7912
82.8181
82.8449
82.8718
82.8987
82.9255
82.9523
82.9792
83.006
83.0328
83.0595
83.0863
83.1131
83.1398
83.1665
83.1933
83.22
83.2467
83.2734
83.3
83.3267
83.3533
83.38
83.4066
83.4332
83.4598
83.4863
83.5129
83.5395
83.566
83.5925
83.619
83.6455
83.672
83.6985
83.7249
83.7513
83.7778
83.8042
83.8306
83.8569
83.8833
83.9096
83.936
83.9623
83.9886
84.0149
84.0412
84.0674
84.0937
84.1199
84.1461
84.1723
84.1985
84.2246
84.2508
84.2769
84.303
84.3291
84.3552
84.3813
84.4073
84.4333
84.4594
84.4854
84.5113
84.5373
84.5632
84.5892
84.6151
84.641
84.6669
84.6927
84.7186
84.7444
84.7702
84.796
84.8217
84.8475
84.8732
84.8989
84.9246
84.9503
84.976
85.0016
85.0272
85.0528
85.0784
85.104
85.1295
85.155
85.1805
85.206
85.2315
85.2569
85.2824
85.3078
85.3332
85.3585
85.3839
85.4092
85.4345
85.4598
85.485
85.5103
85.5355
85.5607
85.5859
85.611
85.6362
85.6613
85.6864
85.7114
85.7365
85.7615
85.7865
85.8115
85.8365
85.8614
85.8863
85.9112
85.9361
85.9609
85.9857
86.0106
86.0353
86.0601
86.0848
86.1095
86.1342
86.1589
86.1835
86.2081
86.2327
86.2573
86.2818
86.3064
86.3309
86.3553
86.3798
86.4042
86.4286
86.453
86.4773
86.5017
86.526
86.5502
86.5745
86.5987
86.6229
86.6471
86.6712
86.6954
86.7195
86.7435
86.7676
86.7916
86.8156
86.8396
86.8635
86.8874
86.9113
86.9352
86.959
86.9828
87.0066
87.0304
87.0541
87.0778
87.1015
87.1252
87.1488
87.1724
87.196
87.2195
87.2431
87.2665
87.29
87.3135
87.3369
87.3603
87.3836
87.4069
87.4303
87.4535
87.4768
87.5
87.5232
87.5464
87.5695
87.5926
87.6157
87.6388
87.6618
87.6848
87.7078
87.7307
87.7536
87.7765
87.7994
87.8222
87.845
87.8678
87.8906
87.9133
87.936
87.9587
87.9813
88.0039
88.0265
88.0491
88.0716
88.0941
88.1166
88.1391
88.1615
88.1839
88.2063
88.2286
88.2509
88.2732
88.2955
88.3177
88.3399
88.3621
88.3842
88.4064
88.4285
88.4505
88.4726
88.4946
88.5166
88.5385
88.5605
88.5824
88.6043
88.6261
88.648
88.6698
88.6916
88.7133
88.735
88.7568
88.7784
88.8001
88.8217
88.8433
88.8649
88.8864
88.908
88.9295
88.9509
88.9724
88.9938
89.0152
89.0366
89.0579
89.0793
89.1006
89.1219
89.1431
89.1644
89.1856
89.2068
89.2279
89.2491
89.2702
89.2913
89.3124
89.3334
89.3544
89.3754
89.3964
89.4174
89.4383
89.4593
89.4802
89.501
89.5219
89.5427
89.5635
89.5843
89.6051
89.6259
89.6466
89.6673
89.688
89.7087
89.7293
89.75
89.7706
89.7912
89.8118
89.8323
89.8529
89.8734
89.8939
89.9144
89.9349
89.9554
89.9758
89.9962
90.0166
90.037
90.0574
90.0778
90.0981
90.1184
90.1387
90.159
90.1793
90.1996
90.2198
90.2401
90.2603
90.2805
90.3007
90.3209
90.3411
90.3612
90.3814
90.4015
90.4216
90.4417
90.4618
90.4819
90.5019
90.522
90.542
90.5621
90.5821
90.6021
90.6221
90.6421
90.6621
90.682
90.702
90.7219
90.7419
90.7618
90.7817
90.8016
90.8215
90.8414
90.8613
90.8812
90.901
90.9209
90.9408
90.9606
90.9804
91.0002
91.0201
91.0399
91.0597
91.0795
91.0993
91.119
91.1388
91.1586
91.1784
91.1981
91.2179
91.2376
91.2574
91.2771
91.2968
91.3165
91.3363
91.356
91.3757
91.3954
91.4151
91.4348
91.4545
91.4742
91.4938
91.5135
91.5332
91.5529
91.5725
91.5922
91.6119
91.6315
91.6512
91.6708
91.6905
91.7101
91.7298
91.7494
91.7691
91.7887
91.8083
91.828
91.8476
91.8672
91.8868
91.9065
91.9261
91.9457
91.9653
91.9849
92.0046
92.0242
92.0438
92.0634
92.083
92.1026
92.1222
92.1418
92.1614
92.1811
92.2007
92.2203
92.2399
92.2595
92.2791
92.2987
92.3183
92.3379
92.3575
92.3771
92.3967
92.4163
92.4359
92.4555
92.4751
92.4947
92.5143
92.5339
92.5535
92.5731
92.5928
92.6124
92.632
92.6516
92.6712
92.6908
92.7104
92.73
92.7496
92.7692
92.7889
92.8085
92.8281
92.8477
92.8673
92.8869
92.9066
92.9262
92.9458
92.9654
92.9851
93.0047
93.0243
93.0439
93.0636
93.0832
93.1028
93.1225
93.1421
93.1618
93.1814
93.201
93.2207
93.2403
93.26
93.2796
93.2993
93.3189
93.3386
93.3582
93.3779
93.3975
93.4172
93.4368
93.4565
93.4762
93.4958
93.5155
93.5352
93.5549
93.5745
93.5942
93.6139
93.6336
93.6532
93.6729
93.6926
93.7123
93.732
93.7517
93.7714
93.7911
93.8108
93.8305
93.8502
93.8699
93.8896
93.9093
93.929
93.9487
93.9684
93.9881
94.0078
94.0276
94.0473
94.067
94.0867
94.1064
94.1262
94.1459
94.1656
94.1854
94.2051
94.2249
94.2446
94.2643
94.2841
94.3038
94.3236
94.3433
94.3631
94.3829
94.4026
94.4224
94.4421
94.4619
94.4817
94.5014
94.5212
94.541
94.5608
94.5805
94.6003
94.6201
94.6399
94.6597
94.6795
94.6993
94.7191
94.7389
94.7587
94.7785
94.7983
94.8181
94.8379
94.8577
94.8775
94.8973
94.9171
94.9369
94.9568
94.9766
94.9964
95.0162
95.0361
95.0559
95.0757
95.0956
95.1154
95.1353
95.1551
95.175
95.1948
95.2146
95.2345
95.2544
95.2742
95.2941
95.3139
95.3338
95.3537
95.3735
95.3934
95.4133
95.4332
95.453
95.4729
95.4928
95.5127
95.5326
95.5525
95.5723
95.5922
95.6121
95.632
95.6519
95.6718
95.6917
95.7116
95.7316
95.7515
95.7714
95.7913
95.8112
95.8311
95.8511
95.871
95.8909
95.9108
95.9308
95.9507
95.9706
95.9906
96.0105
96.0305
96.0504
96.0704
96.0903
96.1103
96.1302
96.1502
96.1701
96.1901
96.2101
96.23
96.25
96.27
96.2899
96.3099
96.3299
96.3499
96.3699
96.3898
96.4098
96.4298
96.4498
96.4698
96.4898
96.5098
96.5298
96.5498
96.5698
96.5898
96.6098
96.6298
96.6498
96.6699
96.6899
96.7099
96.7299
96.75
96.77
96.79
96.81
96.8301
96.8501
96.8702
96.8902
96.9102
96.9303
96.9503
96.9704
96.9904
97.0105
97.0305
97.0506
97.0707
97.0907
97.1108
97.1309
97.1509
97.171
97.1911
97.2112
97.2313
97.2513
97.2714
97.2915
97.3116
97.3317
97.3518
97.3719
97.392
97.4121
97.4322
97.4523
97.4724
97.4925
97.5126
97.5327
97.5528
97.573
97.5931
97.6132
97.6333
97.6535
97.6736
97.6937
97.7139
97.734
97.7541
97.7743
97.7944
97.8146
97.8347
97.8549
97.875
97.8952
97.9153
97.9355
97.9557
97.9758
97.996
98.0162
98.0363
98.0565
98.0767
98.0969
98.117
98.1372
98.1574
98.1776
98.1978
98.218
98.2382
98.2584
98.2786
98.2988
98.319
98.3392
98.3594
98.3796
98.3998
98.42
98.4403
98.4605
98.4807
98.5009
98.5211
98.5414
98.5616
98.5818
98.6021
98.6223
98.6426
98.6628
98.683
98.7033
98.7235
98.7438
98.7641
98.7843
98.8046
98.8248
98.8451
98.8654
98.8856
98.9059
98.9262
98.9464
98.9667
98.987
99.0073
99.0276
99.0479
99.0681
99.0884
99.1087
99.129
99.1493
99.1696
99.1899
99.2102
99.2305
99.2509
99.2712
99.2915
99.3118
99.3321
99.3524
99.3728
99.3931
99.4134
99.4337
99.4541
99.4744
99.4947
99.5151
99.5354
99.5558
99.5761
99.5965
99.6168
99.6372
99.6575
99.6779
99.6983
99.7186
99.739
99.7593
99.7797
99.8001
99.8205
99.8408
99.8612
99.8816
99.902
99.9224
99.9428
99.9632
99.9835
100.004
100.024
100.045
100.065
100.086
100.106
100.126
100.147
100.167
100.188
100.208
100.228
100.249
100.269
100.29
100.31
100.331
100.351
100.371
100.392
100.412
100.433
100.453
100.474
100.494
100.515
100.535
100.555
100.576
100.596
100.617
100.637
100.658
100.678
100.699
100.719
100.74
100.76
100.781
100.801
100.822
100.842
100.863
100.883
100.904
100.924
100.945
100.965
100.986
101.006
101.027
101.047
101.068
101.088
101.109
101.129
101.15
101.17
101.191
101.211
101.232
101.252
101.273
101.294
101.314
101.335
101.355
101.376
101.396
101.417
101.437
101.458
101.479
101.499
101.52
101.54
101.561
101.581
101.602
101.623
101.643
101.664
101.684
101.705
101.725
101.746
101.767
101.787
101.808
101.828
101.849
101.87
101.89
101.911
101.932
101.952
101.973
101.993
102.014
102.035
102.055
102.076
102.097
102.117
102.138
102.158
102.179
102.2
102.22
102.241
102.262
102.282
102.303
102.324
102.344
102.365
102.386
102.406
102.427
102.448
102.468
102.489
102.51
102.53
102.551
102.572
102.592
102.613
102.634
102.655
102.675
102.696
102.717
102.737
102.758
102.779
102.799
102.82
102.841
102.862
102.882
102.903
102.924
102.945
102.965
102.986
103.007
103.027
103.048
103.069
103.09
103.11
103.131
103.152
103.173
103.193
103.214
103.235
103.256
103.277
103.297
103.318
103.339
103.36
103.38
103.401
103.422
103.443
103.464
103.484
103.505
103.526
103.547
103.568
103.588
103.609
103.63
103.651
103.672
103.692
103.713
103.734
103.755
103.776
103.796
103.817
103.838
103.859
103.88
103.901
103.921
103.942
103.963
103.984
104.005
104.026
104.047
104.067
104.088
104.109
104.13
104.151
104.172
104.193
104.213
104.234
104.255
104.276
104.297
104.318
104.339
104.36
104.381
104.401
104.422
104.443
104.464
104.485
104.506
104.527
104.548
104.569
104.59
104.611
104.631
104.652
104.673
104.694
104.715
104.736
104.757
104.778
104.799
104.82
104.841
104.862
104.883
104.904
104.925
104.946
104.967
104.987
105.008
105.029
105.05
105.071
105.092
105.113
105.134
105.155
105.176
105.197
105.218
105.239