/*--------------------------------*- C++ -*----------------------------------*\
  =========                 |
  \\      /  F ield         | OpenFOAM: The Open Source CFD Toolbox
   \\    /   O peration     | Website:  https://openfoam.org
    \\  /    A nd           | Version:  9
     \\/     M anipulation  |
\*---------------------------------------------------------------------------*/
FoamFile
{
    format      ascii;
    class       volScalarField;
    location    "0.038";
    object      T;
}
// * * * * * * * * * * * * * * * * * * * * * * * * * * * * * * * * * * * * * //

dimensions      [0 0 0 1 0 0 0];

internalField   nonuniform List<scalar> 
10000
(
190.979
190.98
190.983
190.985
190.988
190.991
190.993
190.996
190.998
191.001
191.003
191.006
191.008
191.011
191.013
191.016
191.018
191.021
191.023
191.026
191.029
191.031
191.034
191.036
191.039
191.041
191.044
191.046
191.049
191.051
191.054
191.056
191.059
191.061
191.064
191.066
191.069
191.071
191.074
191.076
191.078
191.081
191.083
191.086
191.088
191.091
191.093
191.096
191.098
191.101
191.103
191.105
191.108
191.111
191.113
191.116
191.118
191.12
191.123
191.125
191.127
191.13
191.132
191.135
191.137
191.14
191.142
191.144
191.147
191.149
191.151
191.154
191.156
191.159
191.161
191.164
191.166
191.169
191.171
191.173
191.175
191.177
191.18
191.182
191.184
191.187
191.189
191.192
191.194
191.197
191.199
191.202
191.204
191.206
191.208
191.21
191.212
191.214
191.216
191.218
191.22
191.222
191.224
191.227
191.23
191.232
191.235
191.238
191.24
191.243
191.245
191.248
191.25
191.252
191.254
191.255
191.256
191.258
191.259
191.259
191.26
191.26
191.261
191.261
191.261
191.261
191.261
191.261
191.261
191.261
191.261
191.261
191.261
191.261
191.26
191.26
191.26
191.259
191.259
191.259
191.258
191.258
191.257
191.257
191.257
191.256
191.256
191.256
191.255
191.255
191.255
191.254
191.254
191.254
191.253
191.253
191.252
191.252
191.252
191.251
191.251
191.251
191.25
191.25
191.25
191.249
191.249
191.249
191.248
191.248
191.247
191.247
191.247
191.246
191.246
191.246
191.245
191.245
191.245
191.244
191.244
191.244
191.243
191.243
191.242
191.242
191.242
191.241
191.241
191.241
191.24
191.24
191.24
191.239
191.239
191.239
191.238
191.238
191.237
191.237
191.237
191.236
191.236
191.236
191.235
191.235
191.235
191.234
191.234
191.234
191.233
191.233
191.232
191.232
191.232
191.231
191.231
191.231
191.23
191.23
191.23
191.229
191.229
191.229
191.228
191.228
191.227
191.227
191.227
191.226
191.226
191.226
191.225
191.225
191.225
191.224
191.224
191.223
191.223
191.223
191.222
191.222
191.222
191.221
191.221
191.221
191.22
191.22
191.22
191.219
191.219
191.218
191.218
191.218
191.217
191.217
191.217
191.216
191.216
191.216
191.215
191.215
191.214
191.214
191.214
191.213
191.213
191.213
191.212
191.212
191.212
191.211
191.211
191.21
191.21
191.21
191.209
191.209
191.209
191.208
191.208
191.208
191.207
191.207
191.206
191.206
191.206
191.205
191.205
191.205
191.204
191.204
191.204
191.203
191.203
191.202
191.202
191.202
191.201
191.201
191.201
191.2
191.2
191.2
191.199
191.199
191.198
191.198
191.198
191.197
191.197
191.197
191.196
191.196
191.196
191.195
191.195
191.194
191.194
191.194
191.193
191.193
191.193
191.192
191.192
191.192
191.191
191.191
191.19
191.19
191.19
191.189
191.189
191.189
191.188
191.188
191.188
191.187
191.187
191.186
191.186
191.186
191.185
191.185
191.185
191.184
191.184
191.184
191.183
191.183
191.182
191.182
191.182
191.181
191.181
191.181
191.18
191.18
191.179
191.179
191.179
191.178
191.178
191.178
191.177
191.177
191.177
191.176
191.176
191.175
191.175
191.175
191.174
191.174
191.174
191.173
191.173
191.172
191.172
191.172
191.171
191.171
191.171
191.17
191.17
191.17
191.169
191.169
191.168
191.168
191.168
191.167
191.167
191.167
191.166
191.166
191.165
191.165
191.165
191.164
191.164
191.164
191.163
191.163
191.163
191.162
191.162
191.161
191.161
191.161
191.16
191.16
191.16
191.159
191.159
191.158
191.158
191.158
191.157
191.157
191.157
191.156
191.156
191.155
191.155
191.155
191.154
191.154
191.154
191.153
191.153
191.153
191.152
191.152
191.151
191.151
191.151
191.15
191.15
191.15
191.149
191.149
191.148
191.148
191.148
191.147
191.147
191.147
191.146
191.146
191.145
191.145
191.145
191.144
191.144
191.144
191.143
191.143
191.142
191.142
191.142
191.141
191.141
191.141
191.14
191.14
191.139
191.139
191.139
191.138
191.138
191.138
191.137
191.137
191.137
191.136
191.136
191.135
191.135
191.135
191.134
191.134
191.134
191.133
191.133
191.132
191.132
191.132
191.131
191.131
191.131
191.13
191.13
191.129
191.129
191.129
191.128
191.128
191.128
191.127
191.127
191.126
191.126
191.126
191.125
191.125
191.125
191.124
191.124
191.123
191.123
191.123
191.122
191.122
191.122
191.121
191.121
191.12
191.12
191.12
191.119
191.119
191.118
191.118
191.118
191.117
191.117
191.117
191.116
191.116
191.115
191.115
191.115
191.114
191.114
191.114
191.113
191.113
191.112
191.112
191.112
191.111
191.111
191.111
191.11
191.11
191.109
191.109
191.109
191.108
191.108
191.108
191.107
191.107
191.106
191.106
191.106
191.105
191.105
191.105
191.104
191.104
191.103
191.103
191.103
191.102
191.102
191.102
191.101
191.101
191.1
191.1
191.1
191.099
191.099
191.098
191.098
191.098
191.097
191.097
191.097
191.096
191.096
191.095
191.095
191.095
191.094
191.094
191.094
191.093
191.093
191.092
191.092
191.092
191.091
191.091
191.09
191.09
191.09
191.089
191.089
191.089
191.088
191.088
191.087
191.087
191.087
191.086
191.086
191.086
191.085
191.085
191.084
191.084
191.084
191.083
191.083
191.082
191.082
191.082
191.081
191.081
191.081
191.08
191.08
191.079
191.079
191.079
191.078
191.078
191.078
191.077
191.077
191.076
191.076
191.076
191.075
191.075
191.075
191.074
191.074
191.073
191.073
191.072
191.072
191.072
191.071
191.071
191.071
191.07
191.07
191.069
191.069
191.069
191.068
191.068
191.068
191.067
191.067
191.066
191.066
191.066
191.065
191.065
191.064
191.064
191.064
191.063
191.063
191.063
191.062
191.062
191.061
191.061
191.061
191.06
191.06
191.059
191.059
191.059
191.058
191.058
191.058
191.057
191.057
191.056
191.056
191.056
191.055
191.055
191.054
191.054
191.054
191.053
191.053
191.053
191.052
191.052
191.051
191.051
191.051
191.05
191.05
191.049
191.049
191.049
191.048
191.048
191.047
191.047
191.047
191.046
191.046
191.046
191.045
191.045
191.044
191.044
191.044
191.043
191.043
191.042
191.042
191.042
191.041
191.041
191.041
191.04
191.04
191.039
191.039
191.039
191.038
191.038
191.037
191.037
191.037
191.036
191.036
191.035
191.035
191.035
191.034
191.034
191.034
191.033
191.033
191.032
191.032
191.032
191.031
191.031
191.03
191.03
191.03
191.029
191.029
191.028
191.028
191.028
191.027
191.027
191.027
191.026
191.026
191.025
191.025
191.025
191.024
191.024
191.023
191.023
191.023
191.022
191.022
191.021
191.021
191.021
191.02
191.02
191.019
191.019
191.019
191.018
191.018
191.018
191.017
191.017
191.016
191.016
191.016
191.015
191.015
191.014
191.014
191.014
191.013
191.013
191.012
191.012
191.012
191.011
191.011
191.01
191.01
191.01
191.009
191.009
191.009
191.008
191.008
191.007
191.007
191.007
191.006
191.006
191.005
191.005
191.005
191.004
191.004
191.003
191.003
191.003
191.002
191.002
191.001
191.001
191.001
191
191
190.999
190.999
190.999
190.998
190.998
190.997
190.997
190.997
190.996
190.996
190.996
190.995
190.995
190.994
190.994
190.994
190.993
190.993
190.992
190.992
190.992
190.991
190.991
190.99
190.99
190.99
190.989
190.989
190.988
190.988
190.988
190.987
190.987
190.986
190.986
190.986
190.985
190.985
190.984
190.984
190.984
190.983
190.983
190.982
190.982
190.982
190.981
190.981
190.981
190.98
190.98
190.979
190.979
190.979
190.978
190.978
190.977
190.977
190.977
190.976
190.976
190.975
190.975
190.975
190.974
190.974
190.973
190.973
190.973
190.972
190.972
190.971
190.971
190.971
190.97
190.97
190.969
190.969
190.969
190.968
190.968
190.967
190.967
190.967
190.966
190.966
190.965
190.965
190.965
190.964
190.964
190.963
190.963
190.963
190.962
190.962
190.961
190.961
190.961
190.96
190.96
190.959
190.959
190.959
190.958
190.958
190.957
190.957
190.957
190.956
190.956
190.955
190.955
190.955
190.954
190.954
190.953
190.953
190.953
190.952
190.952
190.951
190.951
190.951
190.95
190.95
190.949
190.949
190.949
190.948
190.948
190.947
190.947
190.947
190.946
190.946
190.945
190.945
190.945
190.944
190.944
190.943
190.943
190.943
190.942
190.942
190.941
190.941
190.941
190.94
190.94
190.939
190.939
190.939
190.938
190.938
190.937
190.937
190.937
190.936
190.936
190.935
190.935
190.935
190.934
190.934
190.933
190.933
190.933
190.932
190.932
190.931
190.931
190.931
190.93
190.93
190.929
190.929
190.929
190.928
190.928
190.927
190.927
190.926
190.926
190.926
190.925
190.925
190.924
190.924
190.924
190.923
190.923
190.922
190.922
190.922
190.921
190.921
190.92
190.92
190.92
190.919
190.919
190.918
190.918
190.918
190.917
190.917
190.916
190.916
190.916
190.915
190.915
190.914
190.914
190.914
190.913
190.913
190.912
190.912
190.912
190.911
190.911
190.91
190.91
190.909
190.909
190.909
190.908
190.908
190.907
190.907
190.907
190.906
190.906
190.905
190.905
190.905
190.904
190.904
190.903
190.903
190.903
190.902
190.902
190.901
190.901
190.901
190.9
190.9
190.899
190.899
190.899
190.898
190.898
190.897
190.897
190.896
190.896
190.896
190.895
190.895
190.894
190.894
190.894
190.893
190.893
190.892
190.892
190.892
190.891
190.891
190.89
190.89
190.89
190.889
190.889
190.888
190.888
190.888
190.887
190.887
190.886
190.886
190.885
190.885
190.885
190.884
190.884
190.883
190.883
190.883
190.882
190.882
190.881
190.881
190.881
190.88
190.88
190.879
190.879
190.879
190.878
190.878
190.877
190.877
190.876
190.876
190.876
190.875
190.875
190.874
190.874
190.874
190.873
190.873
190.872
190.872
190.872
190.871
190.871
190.87
190.87
190.869
190.869
190.869
190.868
190.868
190.867
190.867
190.867
190.866
190.866
190.865
190.865
190.865
190.864
190.864
190.863
190.863
190.863
190.862
190.862
190.861
190.861
190.86
190.86
190.86
190.859
190.859
190.858
190.858
190.858
190.857
190.857
190.856
190.856
190.856
190.855
190.855
190.854
190.854
190.853
190.853
190.853
190.852
190.852
190.851
190.851
190.851
190.85
190.85
190.849
190.849
190.849
190.848
190.848
190.847
190.847
190.846
190.846
190.846
190.845
190.845
190.844
190.844
190.844
190.843
190.843
190.842
190.842
190.841
190.841
190.841
190.84
190.84
190.839
190.839
190.839
190.838
190.838
190.837
190.837
190.837
190.836
190.836
190.835
190.835
190.834
190.834
190.834
190.833
190.833
190.832
190.832
190.832
190.831
190.831
190.83
190.83
190.829
190.829
190.829
190.828
190.828
190.827
190.827
190.827
190.826
190.826
190.825
190.825
190.824
190.824
190.824
190.823
190.823
190.822
190.822
190.822
190.821
190.821
190.82
190.82
190.819
190.819
190.819
190.818
190.818
190.817
190.817
190.817
190.816
190.816
190.815
190.815
190.815
190.814
190.814
190.813
190.813
190.812
190.812
190.812
190.811
190.811
190.81
190.81
190.81
190.809
190.809
190.808
190.808
190.807
190.807
190.807
190.806
190.806
190.805
190.805
190.805
190.804
190.804
190.803
190.803
190.802
190.802
190.802
190.801
190.801
190.8
190.8
190.799
190.799
190.799
190.798
190.798
190.797
190.797
190.797
190.796
190.796
190.795
190.795
190.794
190.794
190.794
190.793
190.793
190.792
190.792
190.792
190.791
190.791
190.79
190.79
190.789
190.789
190.789
190.788
190.788
190.787
190.787
190.787
190.786
190.786
190.785
190.785
190.784
190.784
190.784
190.783
190.783
190.782
190.782
190.781
190.781
190.781
190.78
190.78
190.779
190.779
190.779
190.778
190.778
190.777
190.777
190.776
190.776
190.776
190.775
190.775
190.774
190.774
190.774
190.773
190.773
190.772
190.772
190.771
190.771
190.771
190.77
190.77
190.769
190.769
190.768
190.768
190.768
190.767
190.767
190.766
190.766
190.766
190.765
190.765
190.764
190.764
190.763
190.763
190.763
190.762
190.762
190.761
190.761
190.76
190.76
190.76
190.759
190.759
190.758
190.758
190.758
190.757
190.757
190.756
190.756
190.755
190.755
190.755
190.754
190.754
190.753
190.753
190.752
190.752
190.752
190.751
190.751
190.75
190.75
190.75
190.749
190.749
190.748
190.748
190.747
190.747
190.747
190.746
190.746
190.745
190.745
190.744
190.744
190.744
190.743
190.743
190.742
190.742
190.742
190.741
190.741
190.74
190.74
190.739
190.739
190.739
190.738
190.738
190.737
190.737
190.736
190.736
190.736
190.735
190.735
190.734
190.734
190.733
190.733
190.733
190.732
190.732
190.731
190.731
190.731
190.73
190.73
190.729
190.729
190.728
190.728
190.728
190.727
190.727
190.726
190.726
190.725
190.725
190.725
190.724
190.724
190.723
190.723
190.722
190.722
190.722
190.721
190.721
190.72
190.72
190.72
190.719
190.719
190.718
190.718
190.717
190.717
190.717
190.716
190.716
190.715
190.715
190.714
190.714
190.714
190.713
190.713
190.712
190.712
190.711
190.711
190.711
190.71
190.71
190.709
190.709
190.709
190.708
190.708
190.707
190.707
190.706
190.706
190.706
190.705
190.705
190.704
190.704
190.703
190.703
190.703
190.702
190.702
190.701
190.701
190.7
190.7
190.7
190.699
190.699
190.698
190.698
190.697
190.697
190.697
190.696
190.696
190.695
190.695
190.695
190.694
190.694
190.693
190.693
190.692
190.692
190.692
190.691
190.691
190.69
190.69
190.689
190.689
190.689
190.688
190.688
190.687
190.687
190.686
190.686
190.686
190.685
190.685
190.684
190.684
190.683
190.683
190.683
190.682
190.682
190.681
190.681
190.68
190.68
190.68
190.679
190.679
190.678
190.678
190.678
190.677
190.677
190.676
190.676
190.675
190.675
190.675
190.674
190.674
190.673
190.673
190.672
190.672
190.672
190.671
190.671
190.67
190.67
190.669
190.669
190.669
190.668
190.668
190.667
190.667
190.666
190.666
190.666
190.665
190.665
190.664
190.664
190.663
190.663
190.663
190.662
190.662
190.661
190.661
190.661
190.66
190.66
190.659
190.659
190.658
190.658
190.658
190.657
190.657
190.656
190.656
190.655
190.655
190.655
190.654
190.654
190.653
190.653
190.652
190.652
190.652
190.651
190.651
190.65
190.65
190.649
190.649
190.649
190.648
190.648
190.647
190.647
190.646
190.646
190.646
190.645
190.645
190.644
190.644
190.644
190.643
190.643
190.642
190.642
190.641
190.641
190.641
190.64
190.64
190.639
190.639
190.638
190.638
190.638
190.637
190.637
190.636
190.636
190.635
190.635
190.635
190.634
190.634
190.633
190.633
190.632
190.632
190.632
190.631
190.631
190.63
190.63
190.629
190.629
190.629
190.628
190.628
190.627
190.627
190.627
190.626
190.626
190.625
190.625
190.624
190.624
190.624
190.623
190.623
190.622
190.622
190.621
190.621
190.621
190.62
190.62
190.619
190.619
190.618
190.618
190.618
190.617
190.617
190.616
190.616
190.615
190.615
190.615
190.614
190.614
190.613
190.613
190.613
190.612
190.612
190.611
190.611
190.61
190.61
190.61
190.609
190.609
190.608
190.608
190.607
190.607
190.607
190.606
190.606
190.605
190.605
190.604
190.604
190.604
190.603
190.603
190.602
190.602
190.602
190.601
190.601
190.6
190.6
190.599
190.599
190.599
190.598
190.598
190.597
190.597
190.596
190.596
190.596
190.595
190.595
190.594
190.594
190.593
190.593
190.593
190.592
190.592
190.591
190.591
190.591
190.59
190.59
190.589
190.589
190.588
190.588
190.588
190.587
190.587
190.586
190.586
190.585
190.585
190.585
190.584
190.584
190.583
190.583
190.583
190.582
190.582
190.581
190.581
190.58
190.58
190.58
190.579
190.579
190.578
190.578
190.577
190.577
190.577
190.576
190.576
190.575
190.575
190.575
190.574
190.574
190.573
190.573
190.572
190.572
190.572
190.571
190.571
190.57
190.57
190.569
190.569
190.569
190.568
190.568
190.567
190.567
190.567
190.566
190.566
190.565
190.565
190.564
190.564
190.564
190.563
190.563
190.562
190.562
190.562
190.561
190.561
190.56
190.56
190.559
190.559
190.559
190.558
190.558
190.557
190.557
190.557
190.556
190.556
190.555
190.555
190.554
190.554
190.554
190.553
190.553
190.552
190.552
190.552
190.551
190.551
190.55
190.55
190.549
190.549
190.549
190.548
190.548
190.547
190.547
190.547
190.546
190.546
190.545
190.545
190.544
190.544
190.544
190.543
190.543
190.542
190.542
190.542
190.541
190.541
190.54
190.54
190.539
190.539
190.539
190.538
190.538
190.537
190.537
190.537
190.536
190.536
190.535
190.535
190.535
190.534
190.534
190.533
190.533
190.532
190.532
190.532
190.531
190.531
190.53
190.53
190.53
190.529
190.529
190.528
190.528
190.528
190.527
190.527
190.526
190.526
190.525
190.525
190.525
190.524
190.524
190.523
190.523
190.523
190.522
190.522
190.521
190.521
190.521
190.52
190.52
190.519
190.519
190.519
190.518
190.518
190.517
190.517
190.516
190.516
190.516
190.515
190.515
190.514
190.514
190.514
190.513
190.513
190.512
190.512
190.512
190.511
190.511
190.51
190.51
190.51
190.509
190.509
190.508
190.508
190.508
190.507
190.507
190.506
190.506
190.506
190.505
190.505
190.504
190.504
190.504
190.503
190.503
190.502
190.502
190.502
190.501
190.501
190.5
190.5
190.5
190.499
190.499
190.498
190.498
190.498
190.497
190.497
190.496
190.496
190.496
190.495
190.495
190.494
190.494
190.494
190.493
190.493
190.492
190.492
190.492
190.491
190.491
190.49
190.49
190.49
190.489
190.489
190.488
190.488
190.488
190.487
190.487
190.486
190.486
190.486
190.485
190.485
190.484
190.484
190.484
190.483
190.483
190.482
190.482
190.482
190.481
190.481
190.48
190.48
190.48
190.479
190.479
190.479
190.478
190.478
190.477
190.477
190.477
190.476
190.476
190.475
190.475
190.475
190.474
190.474
190.473
190.473
190.473
190.472
190.472
190.472
190.471
190.471
190.47
190.47
190.47
190.469
190.469
190.468
190.468
190.468
190.467
190.467
190.467
190.466
190.466
190.465
190.465
190.465
190.464
190.464
190.463
190.463
190.463
190.462
190.462
190.462
190.461
190.461
190.46
190.46
190.46
190.459
190.459
190.459
190.458
190.458
190.457
190.457
190.457
190.456
190.456
190.455
190.455
190.455
190.454
190.454
190.454
190.453
190.453
190.453
190.452
190.452
190.451
190.451
190.451
190.45
190.45
190.45
190.449
190.449
190.448
190.448
190.448
190.447
190.447
190.447
190.446
190.446
190.445
190.445
190.445
190.444
190.444
190.444
190.443
190.443
190.443
190.442
190.442
190.441
190.441
190.441
190.44
190.44
190.44
190.439
190.439
190.439
190.438
190.438
190.437
190.437
190.437
190.436
190.436
190.436
190.435
190.435
190.435
190.434
190.434
190.434
190.433
190.433
190.432
190.432
190.432
190.431
190.431
190.431
190.43
190.43
190.43
190.429
190.429
190.429
190.428
190.428
190.428
190.427
190.427
190.427
190.426
190.426
190.426
190.425
190.425
190.424
190.424
190.424
190.423
190.423
190.423
190.422
190.422
190.422
190.421
190.421
190.421
190.42
190.42
190.42
190.419
190.419
190.419
190.418
190.418
190.418
190.417
190.417
190.417
190.416
190.416
190.416
190.415
190.415
190.415
190.414
190.414
190.414
190.413
190.413
190.413
190.412
190.412
190.412
190.411
190.411
190.411
190.41
190.41
190.41
190.41
190.409
190.409
190.409
190.408
190.408
190.408
190.407
190.407
190.407
190.406
190.406
190.406
190.405
190.405
190.405
190.404
190.404
190.404
190.404
190.403
190.403
190.403
190.402
190.402
190.402
190.401
190.401
190.401
190.4
190.4
190.4
190.4
190.399
190.399
190.399
190.398
190.398
190.398
190.397
190.397
190.397
190.397
190.396
190.396
190.396
190.395
190.395
190.395
190.395
190.394
190.394
190.394
190.393
190.393
190.393
190.393
190.392
190.392
190.392
190.391
190.391
190.391
190.391
190.39
190.39
190.39
190.389
190.389
190.389
190.389
190.388
190.388
190.388
190.388
190.387
190.387
190.387
190.387
190.386
190.386
190.386
190.385
190.385
190.385
190.385
190.384
190.384
190.384
190.384
190.383
190.383
190.383
190.383
190.382
190.382
190.382
190.382
190.381
190.381
190.381
190.381
190.38
190.38
190.38
190.38
190.379
190.379
190.379
190.379
190.379
190.378
190.378
190.378
190.378
190.377
190.377
190.377
190.377
190.376
190.376
190.376
190.376
190.376
190.375
190.375
190.375
190.375
190.375
190.374
190.374
190.374
190.374
190.373
190.373
190.373
190.373
190.373
190.372
190.372
190.372
190.372
190.372
190.371
190.371
190.371
190.371
190.371
190.37
190.37
190.37
190.37
190.37
190.37
190.369
190.369
190.369
190.369
190.369
190.368
190.368
190.368
190.368
190.368
190.368
190.367
190.367
190.367
190.367
190.367
190.367
190.366
190.366
190.366
190.366
190.366
190.366
190.366
190.365
190.365
190.365
190.365
190.365
190.365
190.365
190.364
190.364
190.364
190.364
190.364
190.364
190.364
190.364
190.363
190.363
190.363
190.363
190.363
190.363
190.363
190.363
190.362
190.362
190.362
190.362
190.362
190.362
190.362
190.362
190.362
190.362
190.362
190.361
190.361
190.361
190.361
190.361
190.361
190.361
190.361
190.361
190.361
190.361
190.361
190.361
190.36
190.36
190.36
190.36
190.36
190.36
190.36
190.36
190.36
190.36
190.36
190.36
190.36
190.36
190.36
190.36
190.36
190.36
190.36
190.36
190.36
190.36
190.36
190.36
190.36
190.36
190.36
190.36
190.36
190.36
190.36
190.36
190.36
190.36
190.36
190.36
190.36
190.36
190.36
190.36
190.36
190.36
190.36
190.36
190.36
190.36
190.36
190.36
190.36
190.36
190.36
190.36
190.36
190.36
190.36
190.361
190.361
190.361
190.361
190.361
190.361
190.361
190.361
190.361
190.361
190.361
190.362
190.362
190.362
190.362
190.362
190.362
190.362
190.362
190.362
190.363
190.363
190.363
190.363
190.363
190.363
190.363
190.364
190.364
190.364
190.364
190.364
190.364
190.365
190.365
190.365
190.365
190.365
190.366
190.366
190.366
190.366
190.366
190.367
190.367
190.367
190.367
190.368
190.368
190.368
190.368
190.368
190.369
190.369
190.369
190.369
190.37
190.37
190.37
190.371
190.371
190.371
190.371
190.372
190.372
190.372
190.373
190.373
190.373
190.374
190.374
190.374
190.375
190.375
190.375
190.376
190.376
190.376
190.377
190.377
190.377
190.378
190.378
190.379
190.379
190.379
190.38
190.38
190.381
190.381
190.381
190.382
190.382
190.383
190.383
190.384
190.384
190.385
190.385
190.386
190.386
190.386
190.387
190.387
190.388
190.388
190.389
190.39
190.39
190.391
190.391
190.392
190.392
190.393
190.393
190.394
190.394
190.395
190.396
190.396
190.397
190.397
190.398
190.399
190.399
190.4
190.4
190.401
190.402
190.402
190.403
190.404
190.404
190.405
190.406
190.406
190.407
190.408
190.409
190.409
190.41
190.411
190.412
190.412
190.413
190.414
190.415
190.415
190.416
190.417
190.418
190.419
190.419
190.42
190.421
190.422
190.423
190.424
190.424
190.425
190.426
190.427
190.428
190.429
190.43
190.431
190.432
190.433
190.433
190.434
190.435
190.436
190.437
190.438
190.439
190.44
190.441
190.442
190.443
190.444
190.445
190.447
190.448
190.449
190.45
190.451
190.452
190.453
190.454
190.455
190.456
190.458
190.459
190.46
190.461
190.462
190.464
190.465
190.466
190.467
190.468
190.47
190.471
190.472
190.473
190.475
190.476
190.477
190.479
190.48
190.481
190.483
190.484
190.485
190.487
190.488
190.49
190.491
190.493
190.494
190.495
190.497
190.498
190.5
190.501
190.503
190.504
190.506
190.507
190.509
190.511
190.512
190.514
190.515
190.517
190.519
190.52
190.522
190.523
190.525
190.527
190.529
190.53
190.532
190.534
190.535
190.537
190.539
190.541
190.543
190.544
190.546
190.548
190.55
190.552
190.554
190.555
190.557
190.559
190.561
190.563
190.565
190.567
190.569
190.571
190.573
190.575
190.577
190.579
190.581
190.583
190.585
190.587
190.59
190.592
190.594
190.596
190.598
190.6
190.602
190.605
190.607
190.609
190.611
190.614
190.616
190.618
190.621
190.623
190.625
190.627
190.63
190.632
190.635
190.637
190.639
190.642
190.644
190.647
190.649
190.652
190.654
190.657
190.659
190.662
190.664
190.667
190.67
190.672
190.675
190.677
190.68
190.683
190.685
190.688
190.691
190.693
190.696
190.699
190.702
190.704
190.707
190.71
190.713
190.715
190.718
190.721
190.724
190.727
190.73
190.733
190.736
190.739
190.742
190.744
190.748
190.75
190.754
190.756
190.76
190.762
190.766
190.769
190.772
190.775
190.778
190.781
190.784
190.787
190.791
190.794
190.797
190.8
190.804
190.807
190.81
190.813
190.817
190.82
190.823
190.826
190.83
190.833
190.837
190.84
190.843
190.846
190.85
190.853
190.857
190.86
190.864
190.867
190.871
190.874
190.878
190.881
190.885
190.888
190.892
190.895
190.899
190.902
190.906
190.909
190.913
190.916
190.921
190.924
190.928
190.931
190.935
190.938
190.943
190.946
190.95
190.953
190.957
190.961
190.965
190.968
190.973
190.976
190.98
190.983
190.988
190.991
190.995
190.999
191.003
191.006
191.011
191.014
191.019
191.022
191.026
191.03
191.034
191.037
191.042
191.045
191.05
191.053
191.058
191.061
191.066
191.069
191.074
191.077
191.082
191.085
191.09
191.093
191.098
191.101
191.106
191.109
191.114
191.117
191.122
191.126
191.13
191.134
191.139
191.142
191.147
191.15
191.155
191.158
191.163
191.167
191.172
191.175
191.18
191.183
191.188
191.191
191.197
191.2
191.205
191.208
191.213
191.216
191.222
191.225
191.23
191.233
191.238
191.242
191.247
191.25
191.255
191.259
191.264
191.267
191.272
191.276
191.281
191.284
191.289
191.293
191.298
191.301
191.306
191.31
191.315
191.318
191.323
191.327
191.332
191.335
191.341
191.344
191.349
191.352
191.358
191.361
191.366
191.37
191.375
191.378
191.384
191.387
191.392
191.395
191.401
191.404
191.409
191.413
191.418
191.422
191.427
191.43
191.435
191.439
191.444
191.448
191.453
191.456
191.461
191.465
191.47
191.474
191.478
191.483
191.487
191.491
191.496
191.5
191.505
191.509
191.513
191.518
191.522
191.526
191.531
191.535
191.539
191.544
191.548
191.552
191.557
191.561
191.566
191.57
191.574
191.579
191.583
191.587
191.592
191.596
191.601
191.605
191.609
191.614
191.618
191.622
191.627
191.631
191.636
191.64
191.644
191.649
191.653
191.657
191.662
191.666
191.671
191.675
191.679
191.684
191.688
191.692
191.697
191.701
191.706
191.71
191.714
191.719
191.723
191.728
191.732
191.736
191.741
191.745
191.75
191.754
191.758
191.763
191.767
191.771
191.776
191.78
191.785
191.789
191.793
191.798
191.802
191.807
191.811
191.815
191.82
191.824
191.829
191.833
191.837
191.842
191.846
191.851
191.855
191.859
191.864
191.868
191.873
191.877
191.881
191.886
191.89
191.895
191.899
191.903
191.908
191.912
191.917
191.921
191.925
191.93
191.934
191.939
191.943
191.947
191.952
191.956
191.961
191.965
191.969
191.974
191.978
191.983
191.987
191.991
191.996
192
192.005
192.009
192.013
192.018
192.022
192.027
192.031
192.035
192.04
192.044
192.049
192.053
192.057
192.062
192.066
192.071
192.075
192.079
192.084
192.088
192.093
192.097
192.102
192.106
192.11
192.115
192.119
192.124
192.128
192.132
192.137
192.141
192.146
192.15
192.154
192.159
192.163
192.168
192.172
192.176
192.181
192.185
192.19
192.194
192.198
192.203
192.207
192.212
192.216
192.221
192.225
192.229
192.234
192.238
192.243
192.247
192.251
192.256
192.26
192.265
192.269
192.273
192.278
192.282
192.287
192.291
192.296
192.3
192.304
192.309
192.313
192.318
192.322
192.326
192.331
192.335
192.34
192.344
192.348
192.353
192.357
192.362
192.366
192.371
192.375
192.379
192.384
192.388
192.393
192.397
192.401
192.406
192.41
192.415
192.419
192.424
192.428
192.432
192.437
192.441
192.446
192.45
192.454
192.459
192.463
192.468
192.472
192.477
192.481
192.485
192.49
192.494
192.499
192.503
192.508
192.512
192.516
192.521
192.525
192.53
192.534
192.538
192.543
192.547
192.552
192.556
192.561
192.565
192.569
192.574
192.578
192.583
192.587
192.591
192.596
192.6
192.605
192.609
192.614
192.618
192.622
192.627
192.631
192.636
192.64
192.645
192.649
192.653
192.658
192.662
192.667
192.671
192.676
192.68
192.684
192.689
192.693
192.698
192.702
192.707
192.711
192.715
192.72
192.724
192.729
192.733
192.738
192.742
192.746
192.751
192.755
192.76
192.764
192.768
192.773
192.777
192.782
192.786
192.791
192.795
192.799
192.804
192.808
192.813
192.817
192.822
192.826
192.83
192.835
192.839
192.844
192.848
192.853
192.857
192.862
192.866
192.87
192.875
192.879
192.884
192.888
192.893
192.897
192.901
192.906
192.91
192.915
192.919
192.924
192.928
192.932
192.937
192.941
192.946
192.95
192.955
192.959
192.963
192.968
192.972
192.977
192.981
192.986
192.99
192.994
192.999
193.003
193.008
193.012
193.017
193.021
193.026
193.03
193.034
193.039
193.043
193.048
193.052
193.057
193.061
193.065
193.07
193.074
193.079
193.083
193.088
193.092
193.097
193.101
193.105
193.11
193.114
193.119
193.123
193.128
193.132
193.136
193.141
193.145
193.15
193.154
193.159
193.163
193.168
193.172
193.176
193.181
193.185
193.19
193.194
193.199
193.203
193.208
193.212
193.216
193.221
193.225
193.23
193.234
193.239
193.243
193.247
193.252
193.256
193.261
193.265
193.27
193.274
193.279
193.283
193.287
193.292
193.296
193.301
193.305
193.31
193.314
193.319
193.323
193.327
193.332
193.336
193.341
193.345
193.35
193.354
193.359
193.363
193.368
193.372
193.376
193.381
193.385
193.39
193.394
193.399
193.403
193.408
193.412
193.416
193.421
193.425
193.43
193.434
193.439
193.443
193.448
193.452
193.456
193.461
193.465
193.47
193.474
193.479
193.483
193.488
193.492
193.497
193.501
193.505
193.51
193.514
193.519
193.523
193.528
193.532
193.537
193.541
193.545
193.55
193.554
193.559
193.563
193.568
193.572
193.577
193.581
193.586
193.59
193.594
193.599
193.603
193.608
193.612
193.617
193.621
193.626
193.63
193.635
193.639
193.643
193.648
193.652
193.657
193.661
193.666
193.67
193.675
193.679
193.684
193.688
193.692
193.697
193.701
193.706
193.71
193.715
193.719
193.724
193.728
193.733
193.737
193.741
193.746
193.75
193.755
193.759
193.764
193.768
193.773
193.777
193.782
193.786
193.791
193.795
193.799
193.804
193.808
193.813
193.817
193.822
193.826
193.831
193.835
193.84
193.844
193.849
193.853
193.857
193.862
193.866
193.871
193.875
193.88
193.884
193.889
193.893
193.898
193.902
193.907
193.911
193.915
193.92
193.924
193.929
193.933
193.938
193.942
193.947
193.951
193.956
193.96
193.965
193.969
193.973
193.978
193.982
193.987
193.991
193.996
194
194.005
194.009
194.014
194.018
194.023
194.027
194.032
194.036
194.04
194.045
194.049
194.054
194.058
194.063
194.067
194.072
194.076
194.081
194.085
194.09
194.094
194.099
194.103
194.107
194.112
194.116
194.121
194.125
194.13
194.134
194.139
194.143
194.148
194.152
194.157
194.161
194.166
194.17
194.175
194.179
194.183
194.188
194.192
194.197
194.201
194.206
194.21
194.215
194.219
194.224
194.228
194.233
194.237
194.242
194.246
194.251
194.255
194.259
194.264
194.268
194.273
194.277
194.282
194.286
194.291
194.295
194.3
194.304