/*--------------------------------*- C++ -*----------------------------------*\
  =========                 |
  \\      /  F ield         | OpenFOAM: The Open Source CFD Toolbox
   \\    /   O peration     | Website:  https://openfoam.org
    \\  /    A nd           | Version:  9
     \\/     M anipulation  |
\*---------------------------------------------------------------------------*/
FoamFile
{
    format      ascii;
    class       volScalarField;
    location    "0.026";
    object      p;
}
// * * * * * * * * * * * * * * * * * * * * * * * * * * * * * * * * * * * * * //

dimensions      [1 -1 -2 0 0 0 0];

internalField   nonuniform List<scalar> 
100
(
30699.6
30603.7
30436.3
30318.7
30207.7
30092.6
29977.4
29862.4
29749.6
29635.4
29524.8
29412.1
29302.2
29192.5
29083
28976.3
28869
28762.7
28659.6
28556.6
28453.5
28353.4
28256.2
28158.9
28062.4
27969.2
27879.7
27790.6
27702.8
27618.8
27539
27460.9
27386
27314
27246.8
27185.6
27125.7
27073.1
27024.1
26981.7
26947.1
26917.5
26901.5
26901.3
26902
26904.2
26909.5
26920.5
26943.1
26983.8
27043.3
27116.4
27203.1
27302.3
27411.2
27531.2
27662.2
27804.9
27956.4
28115.1
28280.1
28450.8
28623
28792.7
28956.7
29114.1
29264.8
29408.2
29542.2
29663.8
29772.7
29869.4
29955.2
30031.2
30098
30156.4
30208.4
30255
30296
30334.1
30370
30401.4
30430.8
30458
30481.9
30501.8
30517.5
30529.4
30538.8
30545.6
30550.2
30553.8
30555.8
30557.2
30557.9
30558.6
30559.6
30559.4
30559.5
30559.7
)
;

boundaryField
{
    sides
    {
        type            zeroGradient;
    }
    empty
    {
        type            empty;
    }
}


// ************************************************************************* //
