/*--------------------------------*- C++ -*----------------------------------*\
  =========                 |
  \\      /  F ield         | OpenFOAM: The Open Source CFD Toolbox
   \\    /   O peration     | Website:  https://openfoam.org
    \\  /    A nd           | Version:  9
     \\/     M anipulation  |
\*---------------------------------------------------------------------------*/
FoamFile
{
    format      ascii;
    class       surfaceScalarField;
    location    "0.026";
    object      phi;
}
// * * * * * * * * * * * * * * * * * * * * * * * * * * * * * * * * * * * * * //

dimensions      [1 0 -1 0 0 0 0];

internalField   nonuniform List<scalar> 
99
(
74.6247
81.9841
89.2797
96.5382
103.777
111.001
118.21
125.384
132.54
139.647
146.712
153.76
160.744
167.718
174.628
181.497
188.372
195.164
201.887
208.645
215.378
221.981
228.528
235.145
241.747
248.199
254.568
260.996
267.456
273.778
279.983
286.202
292.494
298.739
304.813
310.805
316.801
322.904
328.946
334.818
340.634
346.348
352.156
357.906
363.638
369.32
374.92
380.547
386.173
391.774
397.247
402.56
407.822
413.184
418.565
423.811
428.885
433.77
438.645
443.65
448.643
453.43
457.928
462.134
466.17
470.129
473.935
477.431
480.54
483.282
485.697
487.835
489.741
491.409
492.798
493.895
494.759
495.415
495.87
496.239
496.568
496.812
496.962
497.048
497.077
497.067
497.062
497.074
497.081
497.017
496.906
496.802
496.744
496.722
496.702
496.684
496.578
496.436
496.321
)
;

boundaryField
{
    sides
    {
        type            calculated;
        value           nonuniform List<scalar> 2(496.258 -67.2042);
    }
    empty
    {
        type            empty;
        value           nonuniform List<scalar> 0();
    }
}


// ************************************************************************* //
