/*--------------------------------*- C++ -*----------------------------------*\
  =========                 |
  \\      /  F ield         | OpenFOAM: The Open Source CFD Toolbox
   \\    /   O peration     | Website:  https://openfoam.org
    \\  /    A nd           | Version:  9
     \\/     M anipulation  |
\*---------------------------------------------------------------------------*/
FoamFile
{
    format      ascii;
    class       volScalarField;
    location    "0.048";
    object      mag(U);
}
// * * * * * * * * * * * * * * * * * * * * * * * * * * * * * * * * * * * * * //

dimensions      [0 1 -1 0 0 0 0];

internalField   nonuniform List<scalar> 
100
(
232.648
235.36
236.952
238.67
240.356
242.051
243.743
245.435
247.128
248.82
250.511
252.203
253.894
255.585
257.276
258.966
260.656
262.346
264.035
265.724
267.412
269.1
270.788
272.474
274.161
275.846
277.531
279.215
280.898
282.58
284.26
285.939
287.615
289.287
290.951
292.601
294.226
295.807
297.309
298.686
299.866
300.779
301.398
301.767
301.977
302.119
302.257
302.391
302.469
302.473
302.428
302.357
302.278
302.21
302.173
302.148
302.106
302.041
301.949
301.84
301.745
301.67
301.63
301.608
301.567
301.51
301.426
301.329
301.236
301.162
301.11
301.075
301.035
300.98
300.9
300.802
300.694
300.588
300.5
300.463
300.467
300.436
300.333
299.963
298.389
295.718
293.996
292.846
291.477
289.687
288.426
287.881
287.63
287.49
287.384
287.312
287.247
287.183
287.116
287.006
)
;

boundaryField
{
    sides
    {
        type            calculated;
        value           nonuniform List<scalar> 2(287.006 232.648);
    }
    empty
    {
        type            empty;
    }
}


// ************************************************************************* //
