/*--------------------------------*- C++ -*----------------------------------*\
  =========                 |
  \\      /  F ield         | OpenFOAM: The Open Source CFD Toolbox
   \\    /   O peration     | Website:  https://openfoam.org
    \\  /    A nd           | Version:  9
     \\/     M anipulation  |
\*---------------------------------------------------------------------------*/
FoamFile
{
    format      ascii;
    class       volScalarField;
    location    "0.036";
    object      ddt0(rho,K);
}
// * * * * * * * * * * * * * * * * * * * * * * * * * * * * * * * * * * * * * //

dimensions      [1 -1 -3 0 0 0 0];

internalField   nonuniform List<scalar> 
100
(
-2062.38
-5262.11
-8791.52
-11338.3
-14507.5
-18043.9
-21744.5
-25805
-30046.7
-34412.7
-39314.2
-44605.6
-49885.6
-55360.7
-61590.2
-67570.2
-73406.3
-80154.8
-87715.9
-94984.7
-101817
-109132
-117667
-126933
-135853
-143802
-152395
-161585
-171569
-181290
-192088
-200444
-208363
-216960
-225596
-235853
-247357
-253303
-270361
-292415
-313361
-329278
-327922
-302523
-258603
-247194
-474023
-417069
-399915
-417326
-434063
-444270
-452803
-462595
-470631
-475391
-475229
-473133
-469668
-467452
-467831
-465237
-453889
-415136
-291422
-131405
-1.38268e+06
-874508
-631107
-607505
-603697
-596912
-590594
-585397
-576343
-553347
-498860
-349826
-82290.1
-1.53407e+06
-1.2375e+06
-791335
-757237
-766112
-776492
-785805
-792939
-800788
-800126
-786315
-742290
-622131
-273983
-660586
-2.69702e+06
-1.30602e+06
-1.09416e+06
-1.04272e+06
-1.1874e+06
-1.13446e+06
)
;

boundaryField
{
    sides
    {
        type            calculated;
        value           nonuniform List<scalar> 2(-1.13446e+06 -2062.38);
    }
    empty
    {
        type            empty;
    }
}


// ************************************************************************* //
