/*--------------------------------*- C++ -*----------------------------------*\
  =========                 |
  \\      /  F ield         | OpenFOAM: The Open Source CFD Toolbox
   \\    /   O peration     | Website:  https://openfoam.org
    \\  /    A nd           | Version:  9
     \\/     M anipulation  |
\*---------------------------------------------------------------------------*/
FoamFile
{
    format      ascii;
    class       volScalarField;
    location    "0.036";
    object      ddt0(rho);
}
// * * * * * * * * * * * * * * * * * * * * * * * * * * * * * * * * * * * * * //

dimensions      [1 -3 -1 0 0 0 0];

internalField   nonuniform List<scalar> 
100
(
-8.54992
-8.52032
-8.44745
-8.42544
-8.38954
-8.34727
-8.27762
-8.21876
-8.17963
-8.12603
-8.0789
-8.05977
-8.07801
-8.01791
-8.03083
-8.05951
-7.99286
-7.89042
-7.87802
-7.91509
-7.86352
-7.72449
-7.62965
-7.60998
-7.6717
-7.62473
-7.47864
-7.36207
-7.31381
-7.24021
-7.37466
-7.31302
-7.25274
-7.21904
-7.14242
-7.18591
-7.19692
-6.89665
-7.20574
-7.08849
-6.85454
-6.72982
-6.41823
-5.63696
-4.37448
-2.64763
-13.3915
-7.34417
-7.14571
-7.34431
-7.48688
-7.43745
-7.29872
-7.18606
-7.08617
-6.9947
-6.83881
-6.62185
-6.30993
-6.0101
-5.76708
-5.44816
-4.90902
-3.649
-0.26518
9.52327
-37.7459
-10.1866
-7.26316
-7.13705
-7.00544
-6.68276
-6.30661
-5.93461
-5.55361
-4.94631
-3.59637
-0.088457
10.2772
-34.9244
-16.4287
-8.01735
-7.88647
-7.95008
-7.98421
-7.90871
-7.72211
-7.61036
-7.32478
-6.76315
-5.6027
-2.90667
4.8193
2.79569
-53.9029
-11.6752
-10.7761
-10.3446
-11.3495
-8.71892
)
;

boundaryField
{
    sides
    {
        type            calculated;
        value           nonuniform List<scalar> 2(-8.71892 -8.54992);
    }
    empty
    {
        type            empty;
    }
}


// ************************************************************************* //
