/*--------------------------------*- C++ -*----------------------------------*\
  =========                 |
  \\      /  F ield         | OpenFOAM: The Open Source CFD Toolbox
   \\    /   O peration     | Website:  https://openfoam.org
    \\  /    A nd           | Version:  9
     \\/     M anipulation  |
\*---------------------------------------------------------------------------*/
FoamFile
{
    format      ascii;
    class       volScalarField;
    location    "0.017";
    object      ddt0(rho);
}
// * * * * * * * * * * * * * * * * * * * * * * * * * * * * * * * * * * * * * //

dimensions      [1 -3 -1 0 0 0 0];

internalField   nonuniform List<scalar> 
10000
(
-60.8637
-60.8566
-60.8549
-60.8657
-60.8786
-60.8874
-60.8915
-60.8925
-60.894
-60.8955
-60.895
-60.8949
-60.8948
-60.8948
-60.8948
-60.8948
-60.8947
-60.8947
-60.8947
-60.8947
-60.8947
-60.8946
-60.8946
-60.8946
-60.8945
-60.8945
-60.8945
-60.8944
-60.8944
-60.8943
-60.8943
-60.8943
-60.8942
-60.8942
-60.8941
-60.8941
-60.894
-60.894
-60.8939
-60.8938
-60.8938
-60.8937
-60.8936
-60.8936
-60.8935
-60.8934
-60.8934
-60.8933
-60.8932
-60.8932
-60.8931
-60.893
-60.8929
-60.8928
-60.8927
-60.8927
-60.8926
-60.8925
-60.8924
-60.8923
-60.8922
-60.8921
-60.892
-60.8919
-60.8918
-60.8917
-60.8916
-60.8915
-60.8914
-60.8912
-60.8911
-60.891
-60.8909
-60.8908
-60.8907
-60.8905
-60.8904
-60.8903
-60.8902
-60.89
-60.8899
-60.8898
-60.8896
-60.8895
-60.8894
-60.8892
-60.8891
-60.8889
-60.8888
-60.8886
-60.8885
-60.8883
-60.8882
-60.888
-60.8879
-60.8877
-60.8876
-60.8874
-60.8872
-60.8871
-60.8869
-60.8867
-60.8866
-60.8864
-60.8862
-60.886
-60.8859
-60.8857
-60.8855
-60.8853
-60.8851
-60.8849
-60.8848
-60.8846
-60.8844
-60.8842
-60.884
-60.8838
-60.8836
-60.8834
-60.8832
-60.883
-60.8828
-60.8826
-60.8824
-60.8821
-60.8819
-60.8817
-60.8815
-60.8813
-60.8811
-60.8808
-60.8806
-60.8804
-60.8802
-60.8799
-60.8797
-60.8795
-60.8792
-60.879
-60.8788
-60.8785
-60.8783
-60.878
-60.8778
-60.8775
-60.8773
-60.877
-60.8768
-60.8765
-60.8763
-60.876
-60.8758
-60.8755
-60.8752
-60.875
-60.8747
-60.8744
-60.8742
-60.8739
-60.8736
-60.8733
-60.8731
-60.8728
-60.8725
-60.8722
-60.8719
-60.8716
-60.8713
-60.8711
-60.8708
-60.8705
-60.8702
-60.8699
-60.8696
-60.8693
-60.869
-60.8687
-60.8684
-60.8681
-60.8677
-60.8674
-60.8671
-60.8668
-60.8665
-60.8662
-60.8658
-60.8655
-60.8652
-60.8649
-60.8645
-60.8642
-60.8639
-60.8635
-60.8632
-60.8629
-60.8625
-60.8622
-60.8618
-60.8615
-60.8611
-60.8608
-60.8604
-60.8601
-60.8597
-60.8594
-60.859
-60.8587
-60.8583
-60.8579
-60.8576
-60.8572
-60.8568
-60.8565
-60.8561
-60.8557
-60.8553
-60.855
-60.8546
-60.8542
-60.8538
-60.8534
-60.8531
-60.8527
-60.8523
-60.8519
-60.8515
-60.8511
-60.8507
-60.8503
-60.8499
-60.8495
-60.8491
-60.8487
-60.8483
-60.8479
-60.8474
-60.847
-60.8466
-60.8462
-60.8458
-60.8453
-60.8449
-60.8445
-60.8441
-60.8436
-60.8432
-60.8428
-60.8423
-60.8419
-60.8415
-60.841
-60.8406
-60.8401
-60.8397
-60.8392
-60.8388
-60.8383
-60.8379
-60.8374
-60.837
-60.8365
-60.8361
-60.8356
-60.8351
-60.8347
-60.8342
-60.8337
-60.8333
-60.8328
-60.8323
-60.8318
-60.8313
-60.8309
-60.8304
-60.8299
-60.8294
-60.8289
-60.8284
-60.8279
-60.8274
-60.827
-60.8265
-60.826
-60.8255
-60.825
-60.8244
-60.8239
-60.8234
-60.8229
-60.8224
-60.8219
-60.8214
-60.8209
-60.8203
-60.8198
-60.8193
-60.8188
-60.8182
-60.8177
-60.8172
-60.8166
-60.8161
-60.8156
-60.815
-60.8145
-60.814
-60.8134
-60.8129
-60.8123
-60.8118
-60.8112
-60.8107
-60.8101
-60.8096
-60.809
-60.8084
-60.8079
-60.8073
-60.8067
-60.8062
-60.8056
-60.805
-60.8045
-60.8039
-60.8033
-60.8027
-60.8021
-60.8016
-60.801
-60.8004
-60.7998
-60.7992
-60.7986
-60.798
-60.7974
-60.7968
-60.7962
-60.7956
-60.795
-60.7944
-60.7938
-60.7932
-60.7926
-60.792
-60.7914
-60.7907
-60.7901
-60.7895
-60.7889
-60.7883
-60.7876
-60.787
-60.7864
-60.7857
-60.7851
-60.7845
-60.7838
-60.7832
-60.7826
-60.7819
-60.7813
-60.7806
-60.78
-60.7793
-60.7787
-60.778
-60.7774
-60.7767
-60.776
-60.7754
-60.7747
-60.774
-60.7734
-60.7727
-60.772
-60.7714
-60.7707
-60.77
-60.7693
-60.7687
-60.768
-60.7673
-60.7666
-60.7659
-60.7652
-60.7645
-60.7638
-60.7631
-60.7624
-60.7617
-60.761
-60.7603
-60.7596
-60.7589
-60.7582
-60.7575
-60.7568
-60.7561
-60.7554
-60.7546
-60.7539
-60.7532
-60.7525
-60.7517
-60.751
-60.7503
-60.7496
-60.7488
-60.7481
-60.7474
-60.7466
-60.7459
-60.7451
-60.7444
-60.7436
-60.7429
-60.7421
-60.7414
-60.7406
-60.7399
-60.7391
-60.7384
-60.7376
-60.7368
-60.7361
-60.7353
-60.7345
-60.7338
-60.733
-60.7322
-60.7314
-60.7306
-60.7299
-60.7291
-60.7283
-60.7275
-60.7267
-60.7259
-60.7251
-60.7243
-60.7235
-60.7227
-60.7219
-60.7211
-60.7203
-60.7195
-60.7187
-60.7179
-60.7171
-60.7163
-60.7155
-60.7147
-60.7138
-60.713
-60.7122
-60.7114
-60.7105
-60.7097
-60.7089
-60.708
-60.7072
-60.7064
-60.7055
-60.7047
-60.7038
-60.703
-60.7022
-60.7013
-60.7005
-60.6996
-60.6987
-60.6979
-60.697
-60.6962
-60.6953
-60.6944
-60.6936
-60.6927
-60.6918
-60.691
-60.6901
-60.6892
-60.6883
-60.6875
-60.6866
-60.6857
-60.6848
-60.6839
-60.683
-60.6821
-60.6813
-60.6804
-60.6795
-60.6786
-60.6777
-60.6768
-60.6759
-60.6749
-60.674
-60.6731
-60.6722
-60.6713
-60.6704
-60.6695
-60.6685
-60.6676
-60.6667
-60.6658
-60.6648
-60.6639
-60.663
-60.662
-60.6611
-60.6602
-60.6592
-60.6583
-60.6573
-60.6564
-60.6554
-60.6545
-60.6535
-60.6526
-60.6516
-60.6507
-60.6497
-60.6488
-60.6478
-60.6468
-60.6459
-60.6449
-60.6439
-60.6429
-60.642
-60.641
-60.64
-60.639
-60.638
-60.6371
-60.6361
-60.6351
-60.6341
-60.6331
-60.6321
-60.6311
-60.6301
-60.6291
-60.6281
-60.6271
-60.6261
-60.6251
-60.6241
-60.6231
-60.622
-60.621
-60.62
-60.619
-60.618
-60.6169
-60.6159
-60.6149
-60.6139
-60.6128
-60.6118
-60.6107
-60.6097
-60.6087
-60.6076
-60.6066
-60.6055
-60.6045
-60.6034
-60.6024
-60.6013
-60.6003
-60.5992
-60.5981
-60.5971
-60.596
-60.595
-60.5939
-60.5928
-60.5917
-60.5907
-60.5896
-60.5885
-60.5874
-60.5863
-60.5853
-60.5842
-60.5831
-60.582
-60.5809
-60.5798
-60.5787
-60.5776
-60.5765
-60.5754
-60.5743
-60.5732
-60.5721
-60.571
-60.5699
-60.5687
-60.5676
-60.5665
-60.5654
-60.5643
-60.5631
-60.562
-60.5609
-60.5597
-60.5586
-60.5575
-60.5563
-60.5552
-60.554
-60.5529
-60.5518
-60.5506
-60.5495
-60.5483
-60.5472
-60.546
-60.5448
-60.5437
-60.5425
-60.5414
-60.5402
-60.539
-60.5378
-60.5367
-60.5355
-60.5343
-60.5331
-60.532
-60.5308
-60.5296
-60.5284
-60.5272
-60.526
-60.5248
-60.5236
-60.5224
-60.5212
-60.52
-60.5188
-60.5176
-60.5164
-60.5152
-60.514
-60.5128
-60.5116
-60.5103
-60.5091
-60.5079
-60.5067
-60.5055
-60.5042
-60.503
-60.5018
-60.5005
-60.4993
-60.498
-60.4968
-60.4956
-60.4943
-60.4931
-60.4918
-60.4906
-60.4893
-60.4881
-60.4868
-60.4855
-60.4843
-60.483
-60.4817
-60.4805
-60.4792
-60.4779
-60.4767
-60.4754
-60.4741
-60.4728
-60.4715
-60.4703
-60.469
-60.4677
-60.4664
-60.4651
-60.4638
-60.4625
-60.4612
-60.4599
-60.4586
-60.4573
-60.456
-60.4547
-60.4533
-60.452
-60.4507
-60.4494
-60.4481
-60.4467
-60.4454
-60.4441
-60.4428
-60.4414
-60.4401
-60.4388
-60.4374
-60.4361
-60.4347
-60.4334
-60.432
-60.4307
-60.4293
-60.428
-60.4266
-60.4253
-60.4239
-60.4225
-60.4212
-60.4198
-60.4184
-60.4171
-60.4157
-60.4143
-60.4129
-60.4116
-60.4102
-60.4088
-60.4074
-60.406
-60.4046
-60.4032
-60.4018
-60.4004
-60.399
-60.3976
-60.3962
-60.3948
-60.3934
-60.392
-60.3906
-60.3892
-60.3878
-60.3863
-60.3849
-60.3835
-60.3821
-60.3806
-60.3792
-60.3778
-60.3763
-60.3749
-60.3735
-60.372
-60.3706
-60.3691
-60.3677
-60.3662
-60.3648
-60.3633
-60.3619
-60.3604
-60.3589
-60.3575
-60.356
-60.3545
-60.3531
-60.3516
-60.3501
-60.3486
-60.3472
-60.3457
-60.3442
-60.3427
-60.3412
-60.3397
-60.3382
-60.3367
-60.3352
-60.3337
-60.3322
-60.3307
-60.3292
-60.3277
-60.3262
-60.3247
-60.3232
-60.3216
-60.3201
-60.3186
-60.3171
-60.3155
-60.314
-60.3125
-60.3109
-60.3094
-60.3079
-60.3063
-60.3048
-60.3032
-60.3017
-60.3001
-60.2986
-60.297
-60.2954
-60.2939
-60.2923
-60.2908
-60.2892
-60.2876
-60.286
-60.2845
-60.2829
-60.2813
-60.2797
-60.2781
-60.2766
-60.275
-60.2734
-60.2718
-60.2702
-60.2686
-60.267
-60.2654
-60.2638
-60.2622
-60.2605
-60.2589
-60.2573
-60.2557
-60.2541
-60.2525
-60.2508
-60.2492
-60.2476
-60.2459
-60.2443
-60.2427
-60.241
-60.2394
-60.2377
-60.2361
-60.2344
-60.2328
-60.2311
-60.2295
-60.2278
-60.2261
-60.2245
-60.2228
-60.2211
-60.2195
-60.2178
-60.2161
-60.2144
-60.2128
-60.2111
-60.2094
-60.2077
-60.206
-60.2043
-60.2026
-60.2009
-60.1992
-60.1975
-60.1958
-60.1941
-60.1924
-60.1907
-60.1889
-60.1872
-60.1855
-60.1838
-60.182
-60.1803
-60.1786
-60.1768
-60.1751
-60.1734
-60.1716
-60.1699
-60.1681
-60.1664
-60.1646
-60.1629
-60.1611
-60.1593
-60.1576
-60.1558
-60.154
-60.1523
-60.1505
-60.1487
-60.1469
-60.1451
-60.1434
-60.1416
-60.1398
-60.138
-60.1362
-60.1344
-60.1326
-60.1308
-60.129
-60.1272
-60.1254
-60.1235
-60.1217
-60.1199
-60.1181
-60.1163
-60.1144
-60.1126
-60.1108
-60.1089
-60.1071
-60.1052
-60.1034
-60.1016
-60.0997
-60.0978
-60.096
-60.0941
-60.0923
-60.0904
-60.0885
-60.0867
-60.0848
-60.0829
-60.081
-60.0792
-60.0773
-60.0754
-60.0735
-60.0716
-60.0697
-60.0678
-60.0659
-60.064
-60.0621
-60.0602
-60.0583
-60.0564
-60.0544
-60.0525
-60.0506
-60.0487
-60.0467
-60.0448
-60.0429
-60.0409
-60.039
-60.037
-60.0351
-60.0331
-60.0312
-60.0292
-60.0273
-60.0253
-60.0233
-60.0214
-60.0194
-60.0174
-60.0154
-60.0135
-60.0115
-60.0095
-60.0075
-60.0055
-60.0035
-60.0015
-59.9995
-59.9975
-59.9955
-59.9935
-59.9915
-59.9895
-59.9874
-59.9854
-59.9834
-59.9814
-59.9793
-59.9773
-59.9752
-59.9732
-59.9711
-59.9691
-59.967
-59.965
-59.9629
-59.9609
-59.9588
-59.9567
-59.9547
-59.9526
-59.9505
-59.9484
-59.9463
-59.9442
-59.9422
-59.9401
-59.938
-59.9359
-59.9338
-59.9316
-59.9295
-59.9274
-59.9253
-59.9232
-59.921
-59.9189
-59.9168
-59.9146
-59.9125
-59.9104
-59.9082
-59.9061
-59.9039
-59.9018
-59.8996
-59.8974
-59.8953
-59.8931
-59.8909
-59.8887
-59.8866
-59.8844
-59.8822
-59.88
-59.8778
-59.8756
-59.8734
-59.8712
-59.869
-59.8667
-59.8645
-59.8623
-59.8601
-59.8578
-59.8556
-59.8534
-59.8511
-59.8489
-59.8466
-59.8444
-59.8421
-59.8399
-59.8376
-59.8353
-59.8331
-59.8308
-59.8285
-59.8262
-59.8239
-59.8216
-59.8193
-59.817
-59.8147
-59.8124
-59.8101
-59.8078
-59.8055
-59.8032
-59.8008
-59.7985
-59.7962
-59.7938
-59.7915
-59.7891
-59.7868
-59.7844
-59.782
-59.7797
-59.7773
-59.7749
-59.7726
-59.7702
-59.7678
-59.7654
-59.763
-59.7606
-59.7582
-59.7558
-59.7534
-59.7509
-59.7485
-59.7461
-59.7437
-59.7412
-59.7388
-59.7363
-59.7339
-59.7314
-59.729
-59.7265
-59.724
-59.7215
-59.7191
-59.7166
-59.7141
-59.7116
-59.7091
-59.7066
-59.7041
-59.7016
-59.6991
-59.6965
-59.694
-59.6915
-59.6889
-59.6864
-59.6838
-59.6813
-59.6787
-59.6762
-59.6736
-59.671
-59.6684
-59.6658
-59.6633
-59.6607
-59.6581
-59.6554
-59.6528
-59.6502
-59.6476
-59.645
-59.6423
-59.6397
-59.637
-59.6344
-59.6317
-59.6291
-59.6264
-59.6237
-59.621
-59.6184
-59.6157
-59.613
-59.6103
-59.6075
-59.6048
-59.6021
-59.5994
-59.5966
-59.5939
-59.5912
-59.5884
-59.5856
-59.5829
-59.5801
-59.5773
-59.5745
-59.5717
-59.5689
-59.5661
-59.5633
-59.5605
-59.5577
-59.5548
-59.552
-59.5492
-59.5463
-59.5434
-59.5406
-59.5377
-59.5348
-59.5319
-59.529
-59.5261
-59.5232
-59.5203
-59.5174
-59.5144
-59.5115
-59.5085
-59.5056
-59.5026
-59.4997
-59.4967
-59.4937
-59.4907
-59.4877
-59.4847
-59.4817
-59.4786
-59.4756
-59.4726
-59.4695
-59.4664
-59.4634
-59.4603
-59.4572
-59.4541
-59.451
-59.4479
-59.4448
-59.4417
-59.4385
-59.4354
-59.4322
-59.4291
-59.4259
-59.4227
-59.4195
-59.4163
-59.4131
-59.4099
-59.4067
-59.4034
-59.4002
-59.3969
-59.3936
-59.3904
-59.3871
-59.3838
-59.3805
-59.3772
-59.3738
-59.3705
-59.3671
-59.3638
-59.3604
-59.357
-59.3536
-59.3502
-59.3468
-59.3434
-59.34
-59.3365
-59.3331
-59.3296
-59.3261
-59.3226
-59.3191
-59.3156
-59.3121
-59.3086
-59.305
-59.3014
-59.2979
-59.2943
-59.2907
-59.2871
-59.2835
-59.2798
-59.2762
-59.2725
-59.2689
-59.2652
-59.2615
-59.2578
-59.254
-59.2503
-59.2466
-59.2428
-59.239
-59.2352
-59.2314
-59.2276
-59.2238
-59.2199
-59.2161
-59.2122
-59.2083
-59.2044
-59.2005
-59.1966
-59.1926
-59.1887
-59.1847
-59.1807
-59.1767
-59.1727
-59.1687
-59.1646
-59.1606
-59.1565
-59.1524
-59.1483
-59.1442
-59.14
-59.1359
-59.1317
-59.1275
-59.1233
-59.1191
-59.1149
-59.1106
-59.1063
-59.102
-59.0977
-59.0934
-59.0891
-59.0847
-59.0804
-59.076
-59.0716
-59.0671
-59.0627
-59.0582
-59.0538
-59.0493
-59.0447
-59.0402
-59.0357
-59.0311
-59.0265
-59.0219
-59.0173
-59.0126
-59.008
-59.0033
-58.9986
-58.9939
-58.9891
-58.9844
-58.9796
-58.9748
-58.97
-58.9651
-58.9603
-58.9554
-58.9505
-58.9456
-58.9406
-58.9357
-58.9307
-58.9257
-58.9206
-58.9156
-58.9105
-58.9054
-58.9003
-58.8952
-58.89
-58.8848
-58.8796
-58.8744
-58.8692
-58.8639
-58.8586
-58.8533
-58.8479
-58.8426
-58.8372
-58.8318
-58.8263
-58.8209
-58.8154
-58.8099
-58.8043
-58.7988
-58.7932
-58.7876
-58.782
-58.7763
-58.7706
-58.7649
-58.7591
-58.7534
-58.7476
-58.7418
-58.7359
-58.73
-58.7241
-58.7182
-58.7122
-58.7062
-58.7002
-58.6942
-58.6881
-58.682
-58.6758
-58.6697
-58.6635
-58.6572
-58.651
-58.6447
-58.6383
-58.632
-58.6256
-58.6192
-58.6127
-58.6062
-58.5997
-58.5931
-58.5865
-58.5799
-58.5732
-58.5665
-58.5597
-58.5529
-58.5461
-58.5393
-58.5324
-58.5254
-58.5184
-58.5114
-58.5043
-58.4972
-58.4901
-58.4829
-58.4756
-58.4683
-58.461
-58.4536
-58.4462
-58.4387
-58.4311
-58.4236
-58.4159
-58.4082
-58.4005
-58.3927
-58.3849
-58.3769
-58.369
-58.361
-58.3529
-58.3447
-58.3365
-58.3282
-58.3199
-58.3115
-58.303
-58.2945
-58.2859
-58.2772
-58.2684
-58.2596
-58.2507
-58.2417
-58.2326
-58.2235
-58.2142
-58.2049
-58.1955
-58.186
-58.1764
-58.1667
-58.1569
-58.147
-58.137
-58.1269
-58.1167
-58.1064
-58.096
-58.0854
-58.0747
-58.0639
-58.053
-58.042
-58.0308
-58.0195
-58.008
-57.9964
-57.9847
-57.9728
-57.9607
-57.9485
-57.9361
-57.9236
-57.9109
-57.898
-57.8849
-57.8716
-57.8581
-57.8444
-57.8306
-57.8165
-57.8021
-57.7876
-57.7728
-57.7578
-57.7425
-57.727
-57.7112
-57.6951
-57.6788
-57.6622
-57.6452
-57.628
-57.6104
-57.5925
-57.5743
-57.5557
-57.5368
-57.5175
-57.4978
-57.4776
-57.4571
-57.4362
-57.4148
-57.3929
-57.3706
-57.3478
-57.3244
-57.3006
-57.2761
-57.2512
-57.2256
-57.1994
-57.1726
-57.1452
-57.117
-57.0882
-57.0586
-57.0283
-56.9972
-56.9652
-56.9324
-56.8987
-56.8641
-56.8286
-56.792
-56.7544
-56.7157
-56.6759
-56.6349
-56.5927
-56.5493
-56.5045
-56.4583
-56.4107
-56.3615
-56.3108
-56.2585
-56.2044
-56.1486
-56.0908
-56.0311
-55.9694
-55.9055
-55.8394
-55.7709
-55.7
-55.6265
-55.5503
-55.4712
-55.3892
-55.3042
-55.2158
-55.1241
-55.0288
-54.9298
-54.8269
-54.7199
-54.6086
-54.4928
-54.3724
-54.247
-54.1165
-53.9807
-53.8393
-53.6921
-53.5388
-53.3791
-53.2129
-53.0398
-52.8596
-52.672
-52.4767
-52.2734
-52.062
-51.842
-51.6133
-51.3755
-51.1285
-50.8719
-50.6055
-50.3291
-50.0424
-49.7453
-49.4376
-49.1191
-48.7896
-48.4491
-48.0974
-47.7345
-47.3604
-46.975
-46.5784
-46.1706
-45.7518
-45.3221
-44.8816
-44.4307
-43.9696
-43.4986
-43.018
-42.5283
-42.03
-41.5234
-41.0092
-40.4878
-39.96
-39.4264
-38.8876
-38.3444
-37.7976
-37.2478
-36.6959
-36.1427
-35.589
-35.0358
-34.4837
-33.9337
-33.3866
-32.8432
-32.3044
-31.771
-31.2438
-30.7235
-30.2108
-29.7066
-29.2114
-28.7258
-28.2505
-27.786
-27.3328
-26.8913
-26.462
-26.0451
-25.641
-25.25
-24.8721
-24.5076
-24.1565
-23.8189
-23.4947
-23.184
-22.8866
-22.6025
-22.3313
-22.073
-21.8273
-21.5938
-21.3724
-21.1628
-20.9644
-20.7771
-20.6004
-20.434
-20.2775
-20.1304
-19.9924
-19.863
-19.7419
-19.6286
-19.5228
-19.4241
-19.332
-19.2463
-19.1665
-19.0922
-19.0232
-18.9591
-18.8996
-18.8444
-18.7932
-18.7456
-18.7015
-18.6606
-18.6226
-18.5874
-18.5547
-18.5243
-18.496
-18.4697
-18.4451
-18.4223
-18.4009
-18.3808
-18.362
-18.3444
-18.3278
-18.3121
-18.2973
-18.2832
-18.2698
-18.2571
-18.2449
-18.2332
-18.222
-18.2111
-18.2007
-18.1906
-18.1807
-18.1712
-18.1619
-18.1527
-18.1438
-18.135
-18.1264
-18.1179
-18.1096
-18.1013
-18.0931
-18.085
-18.077
-18.069
-18.0611
-18.0533
-18.0454
-18.0377
-18.0299
-18.0222
-18.0145
-18.0069
-17.9992
-17.9916
-17.984
-17.9764
-17.9688
-17.9612
-17.9537
-17.9461
-17.9385
-17.931
-17.9235
-17.9159
-17.9084
-17.9009
-17.8934
-17.8859
-17.8783
-17.8708
-17.8633
-17.8558
-17.8483
-17.8408
-17.8333
-17.8258
-17.8184
-17.8109
-17.8034
-17.7959
-17.7884
-17.7809
-17.7734
-17.766
-17.7585
-17.751
-17.7435
-17.7361
-17.7286
-17.7211
-17.7137
-17.7062
-17.6987
-17.6913
-17.6838
-17.6763
-17.6689
-17.6614
-17.654
-17.6465
-17.639
-17.6316
-17.6241
-17.6167
-17.6092
-17.6018
-17.5943
-17.5869
-17.5795
-17.572
-17.5646
-17.5571
-17.5497
-17.5423
-17.5348
-17.5274
-17.52
-17.5125
-17.5051
-17.4977
-17.4902
-17.4828
-17.4754
-17.468
-17.4606
-17.4531
-17.4457
-17.4383
-17.4309
-17.4235
-17.4161
-17.4087
-17.4012
-17.3938
-17.3864
-17.379
-17.3716
-17.3642
-17.3568
-17.3494
-17.342
-17.3346
-17.3272
-17.3198
-17.3124
-17.305
-17.2977
-17.2903
-17.2829
-17.2755
-17.2681
-17.2607
-17.2533
-17.246
-17.2386
-17.2312
-17.2238
-17.2165
-17.2091
-17.2017
-17.1943
-17.187
-17.1796
-17.1722
-17.1649
-17.1575
-17.1502
-17.1428
-17.1354
-17.1281
-17.1207
-17.1134
-17.106
-17.0987
-17.0913
-17.084
-17.0766
-17.0693
-17.0619
-17.0546
-17.0472
-17.0399
-17.0325
-17.0252
-17.0179
-17.0105
-17.0032
-16.9959
-16.9885
-16.9812
-16.9739
-16.9666
-16.9592
-16.9519
-16.9446
-16.9373
-16.9299
-16.9226
-16.9153
-16.908
-16.9007
-16.8934
-16.8861
-16.8787
-16.8714
-16.8641
-16.8568
-16.8495
-16.8422
-16.8349
-16.8276
-16.8203
-16.813
-16.8057
-16.7984
-16.7911
-16.7838
-16.7765
-16.7693
-16.762
-16.7547
-16.7474
-16.7401
-16.7328
-16.7255
-16.7183
-16.711
-16.7037
-16.6964
-16.6892
-16.6819
-16.6746
-16.6673
-16.6601
-16.6528
-16.6455
-16.6383
-16.631
-16.6238
-16.6165
-16.6092
-16.602
-16.5947
-16.5875
-16.5802
-16.573
-16.5657
-16.5585
-16.5512
-16.544
-16.5367
-16.5295
-16.5222
-16.515
-16.5078
-16.5005
-16.4933
-16.486
-16.4788
-16.4716
-16.4643
-16.4571
-16.4499
-16.4427
-16.4354
-16.4282
-16.421
-16.4138
-16.4065
-16.3993
-16.3921
-16.3849
-16.3777
-16.3705
-16.3633
-16.356
-16.3488
-16.3416
-16.3344
-16.3272
-16.32
-16.3128
-16.3056
-16.2984
-16.2912
-16.284
-16.2768
-16.2696
-16.2624
-16.2552
-16.248
-16.2409
-16.2337
-16.2265
-16.2193
-16.2121
-16.2049
-16.1978
-16.1906
-16.1834
-16.1762
-16.1691
-16.1619
-16.1547
-16.1475
-16.1404
-16.1332
-16.126
-16.1189
-16.1117
-16.1045
-16.0974
-16.0902
-16.0831
-16.0759
-16.0687
-16.0616
-16.0544
-16.0473
-16.0401
-16.033
-16.0258
-16.0187
-16.0116
-16.0044
-15.9973
-15.9901
-15.983
-15.9759
-15.9687
-15.9616
-15.9544
-15.9473
-15.9402
-15.9331
-15.9259
-15.9188
-15.9117
-15.9045
-15.8974
-15.8903
-15.8832
-15.8761
-15.8689
-15.8618
-15.8547
-15.8476
-15.8405
-15.8334
-15.8263
-15.8192
-15.8121
-15.805
-15.7979
-15.7908
-15.7836
-15.7766
-15.7695
-15.7624
-15.7553
-15.7482
-15.7411
-15.734
-15.7269
-15.7198
-15.7127
-15.7056
-15.6985
-15.6915
-15.6844
-15.6773
-15.6702
-15.6631
-15.6561
-15.649
-15.6419
-15.6348
-15.6278
-15.6207
-15.6136
-15.6066
-15.5995
-15.5924
-15.5854
-15.5783
-15.5713
-15.5642
-15.5571
-15.5501
-15.543
-15.536
-15.5289
-15.5219
-15.5148
-15.5078
-15.5007
-15.4937
-15.4866
-15.4796
-15.4725
-15.4655
-15.4585
-15.4515
-15.4444
-15.4374
-15.4303
-15.4234
-15.4161
-15.4095
-15.402
-15.3955
-15.3877
-15.3817
-15.3734
-15.3681
-15.3589
-15.3546
-15.3441
-15.3415
-15.329
-15.3288
-15.3133
-15.3168
-15.2969
-15.3055
-15.2797
-15.2953
-15.2613
-15.2863
-15.2416
-15.2787
-15.2206
-15.2724
-15.1983
-15.2671
-15.1753
-15.2622
-15.1525
-15.2565
-15.1312
-15.2485
-15.1132
-15.236
-15.1009
-15.2166
-15.0967
-15.1881
-15.1024
-15.149
-15.1188
-15.1002
-15.1403
-15.0512
-15.1647
-14.9965
-15.1913
-14.9439
-15.2115
-14.9028
-15.2163
-14.8811
-15.1977
-14.8855
-15.1509
-14.9183
-15.0773
-14.975
-14.9855
-15.0428
-14.891
-15.1029
-14.8147
-15.1348
-14.7759
-15.1221
-14.7863
-15.0591
-14.8437
-14.9561
-14.93
-14.839
-15.0138
-14.7422
-15.0601
-14.6976
-15.0435
-14.7208
-14.9607
-14.8018
-14.8354
-14.9048
-14.7121
-14.9806
-14.639
-14.9877
-14.6461
-14.9127
-14.7274
-14.7809
-14.8399
-14.6487
-14.9208
-14.5769
-14.9196
-14.5987
-14.8262
-14.698
-14.6815
-14.8139
-14.5587
-14.8716
-14.5225
-14.8269
-14.5889
-14.696
-14.7106
-14.5504
-14.8028
-14.4749
-14.7954
-14.5119
-14.6822
-14.6292
-14.5293
-14.7373
-14.4337
-14.7496
-14.4553
-14.6453
-14.5702
-14.4898
-14.6834
-14.3897
-14.6977
-14.4125
-14.5899
-14.5311
-14.4334
-14.6403
-14.3433
-14.6394
-14.3835
-14.5167
-14.5097
-14.3638
-14.6027
-14.3009
-14.5691
-14.3718
-14.426
-14.5015
-14.2897
-14.5596
-14.2729
-14.4795
-14.3788
-14.3233
-14.4943
-14.2271
-14.4951
-14.271
-14.3669
-14.3984
-14.2235
-14.4681
-14.1957
-14.3955
-14.2979
-14.2416
-14.4097
-14.153
-14.399
-14.2092
-14.2632
-14.3347
-14.1346
-14.3778
-14.1394
-14.2762
-14.2566
-14.129
-14.3384
-14.0877
-14.2762
-14.1837
-14.1267
-14.2892
-14.0491
-14.264
-14.1189
-14.1226
-14.2357
-14.0193
-14.2415
-14.063
-14.1133
-14.1825
-13.9938
-14.2116
-14.0155
-14.0973
-14.1329
-13.9687
-14.1779
-13.9739
-14.0753
-14.0875
-13.9425
-14.1419
-13.9371
-14.0476
-14.047
-13.914
-14.1052
-13.904
-14.0147
-14.0116
-13.8825
-14.0687
-13.8737
-13.9775
-13.9803
-13.8487
-14.0318
-13.8462
-13.9361
-13.9528
-13.8131
-13.9939
-13.822
-13.8907
-13.9285
-13.7769
-13.9543
-13.8014
-13.8419
-13.9058
-13.7417
-13.9114
-13.7848
-13.7905
-13.883
-13.7096
-13.8637
-13.7724
-13.7376
-13.8582
-13.6825
-13.8107
-13.7632
-13.6858
-13.8282
-13.6625
-13.7522
-13.7551
-13.6384
-13.7902
-13.6506
-13.6895
-13.7449
-13.5988
-13.7422
-13.6459
-13.6264
-13.7277
-13.5707
-13.6838
-13.6455
-13.568
-13.6987
-13.5562
-13.6169
-13.6438
-13.5204
-13.6545
-13.5537
-13.5478
-13.6331
-13.4894
-13.5947
-13.5579
-13.4851
-13.6056
-13.4771
-13.5238
-13.5593
-13.4381
-13.5575
-13.4798
-13.4522
-13.5464
-13.4135
-13.4908
-13.487
-13.3932
-13.51
-13.411
-13.4158
-13.484
-13.3581
-13.4491
-13.4201
-13.349
-13.4569
-13.35
-13.3735
-13.4229
-13.3066
-13.4007
-13.3593
-13.3025
-13.4013
-13.2951
-13.3251
-13.3652
-13.2565
-13.3474
-13.3046
-13.2524
-13.3454
-13.2443
-13.2713
-13.3112
-13.2066
-13.2905
-13.2549
-13.1991
-13.2893
-13.1973
-13.2132
-13.2599
-13.1575
-13.2301
-13.2093
-13.144
-13.232
-13.1539
-13.1516
-13.2098
-13.1106
-13.1661
-13.1666
-13.0891
-13.1716
-13.1144
-13.0883
-13.1581
-13.0678
-13.0985
-13.1246
-13.0373
-13.1066
-13.0781
-13.026
-13.1019
-13.0304
-13.0288
-13.0798
-12.992
-13.0362
-13.0426
-12.9687
-13.0383
-12.9979
-12.9608
-13.0278
-12.9549
-12.9626
-13.0029
-12.9211
-12.9664
-12.9666
-12.9001
-12.9648
-12.925
-12.8912
-12.9528
-12.8852
-12.8901
-12.929
-12.8528
-12.8909
-12.896
-12.8304
-12.8879
-12.8579
-12.8181
-12.8771
-12.8201
-12.813
-12.857
-12.7872
-12.8107
-12.8288
-12.7616
-12.8072
-12.7951
-12.7441
-12.7989
-12.7596
-12.7336
-12.7837
-12.726
-12.7272
-12.7617
-12.6967
-12.7222
-12.7339
-12.6733
-12.7155
-12.7025
-12.656
-12.705
-12.67
-12.6436
-12.6896
-12.6387
-12.6345
-12.6691
-12.6104
-12.6267
-12.6442
-12.5863
-12.6182
-12.6162
-12.5664
-12.6076
-12.5867
-12.5504
-12.5939
-12.5571
-12.5376
-12.5766
-12.5289
-12.5264
-12.5559
-12.503
-12.516
-12.5325
-12.4797
-12.5052
-12.5068
-12.4594
-12.4929
-12.4802
-12.4416
-12.4789
-12.4532
-12.4259
-12.4627
-12.4266
-12.4118
-12.4443
-12.4013
-12.3986
-12.424
-12.3772
-12.3856
-12.402
-12.3548
-12.3724
-12.3787
-12.3341
-12.3585
-12.3548
-12.3148
-12.3437
-12.3305
-12.2968
-12.3279
-12.3062
-12.28
-12.3108
-12.2823
-12.2638
-12.2927
-12.2589
-12.2481
-12.2736
-12.236
-12.2327
-12.2536
-12.2141
-12.2172
-12.2331
-12.1928
-12.2016
-12.212
-12.1722
-12.1858
-12.1905
-12.1523
-12.1694
-12.169
-12.1329
-12.1528
-12.1473
-12.114
-12.1358
-12.1256
-12.0956
-12.1182
-12.1042
-12.0773
-12.1004
-12.0829
-12.0593
-12.0822
-12.0618
-12.0414
-12.0636
-12.041
-12.0235
-12.045
-12.0203
-12.0057
-12.026
-11.9999
-11.9878
-12.0069
-11.9798
-11.9698
-11.9877
-11.9598
-11.9519
-11.9684
-11.9401
-11.9337
-11.9491
-11.9206
-11.9154
-11.9298
-11.9011
-11.8972
-11.9104
-11.8819
-11.8787
-11.891
-11.8628
-11.8601
-11.8718
-11.8437
-11.8415
-11.8524
-11.8249
-11.8226
-11.8332
-11.806
-11.8037
-11.8141
-11.7872
-11.7848
-11.7948
-11.7687
-11.7657
-11.7758
-11.7501
-11.7466
-11.7566
-11.7316
-11.7275
-11.7374
-11.7133
-11.7081
-11.7185
-11.6949
-11.6889
-11.6993
-11.6767
-11.6696
-11.6801
-11.6586
-11.6501
-11.6611
-11.6405
-11.6309
-11.6418
-11.6226
-11.6115
-11.6224
-11.6048
-11.5921
-11.6032
-11.5868
-11.573
-11.5836
-11.5691
-11.5538
-11.5641
-11.5515
-11.5346
-11.5445
-11.5336
-11.5159
-11.5245
-11.5161
-11.497
-11.5047
-11.4984
-11.4783
-11.4848
-11.4804
-11.4601
-11.4645
-11.4627
-11.4418
-11.4445
-11.4446
-11.4238
-11.4244
-11.4263
-11.4063
-11.4041
-11.4081
-11.3886
-11.3841
-11.3893
-11.3713
-11.3642
-11.3703
-11.3542
-11.3443
-11.3512
-11.3369
-11.325
-11.3315
-11.32
-11.3057
-11.3117
-11.303
-11.2868
-11.2918
-11.2856
-11.2685
-11.2714
-11.2683
-11.2503
-11.2511
-11.2506
-11.2326
-11.2309
-11.2323
-11.2155
-11.2105
-11.214
-11.1982
-11.1906
-11.1949
-11.1815
-11.171
-11.1755
-11.1648
-11.1516
-11.1559
-11.1477
-11.1331
-11.1356
-11.1308
-11.1148
-11.1153
-11.1134
-11.097
-11.0951
-11.0953
-11.08
-11.0747
-11.077
-11.063
-11.0549
-11.058
-11.0463
-11.0355
-11.0383
-11.0298
-11.0164
-11.0185
-11.0127
-10.9983
-10.9982
-10.9955
-10.9807
-10.9779
-10.9778
-10.9634
-10.9579
-10.9591
-10.9469
-10.938
-10.9402
-10.9302
-10.9189
-10.9205
-10.9134
-10.9005
-10.9003
-10.8966
-10.8825
-10.8802
-10.8788
-10.8655
-10.86
-10.8605
-10.8487
-10.8403
-10.8416
-10.832
-10.8213
-10.8218
-10.8155
-10.8028
-10.8019
-10.7984
-10.7853
-10.7818
-10.7805
-10.7684
-10.7617
-10.7622
-10.7516
-10.7425
-10.7428
-10.7352
-10.7238
-10.723
-10.7184
-10.7059
-10.7031
-10.7007
-10.6889
-10.683
-10.6827
-10.6721
-10.6637
-10.6635
-10.6556
-10.645
-10.6438
-10.6389
-10.627
-10.6241
-10.6213
-10.61
-10.6041
-10.6032
-10.5933
-10.5848
-10.5842
-10.5767
-10.5663
-10.5644
-10.56
-10.5485
-10.5448
-10.5423
-10.5317
-10.525
-10.5239
-10.5151
-10.5059
-10.5048
-10.4983
-10.4879
-10.485
-10.4814
-10.4705
-10.4654
-10.4634
-10.4538
-10.4461
-10.4446
-10.4373
-10.4274
-10.4253
-10.4203
-10.41
-10.4055
-10.4029
-10.393
-10.3861
-10.3844
-10.3764
-10.3675
-10.3651
-10.3598
-10.3495
-10.3457
-10.3423
-10.3326
-10.3262
-10.3241
-10.316
-10.3074
-10.3051
-10.2992
-10.2896
-10.2855
-10.2821
-10.2724
-10.2663
-10.2638
-10.2559
-10.2475
-10.2449
-10.2392
-10.2296
-10.2256
-10.2218
-10.2127
-10.2062
-10.2038
-10.1959
-10.1877
-10.1848
-10.1792
-10.1699
-10.1654
-10.1619
-10.1529
-10.1464
-10.1435
-10.1364
-10.1278
-10.1247
-10.1195
-10.1104
-10.1054
-10.1019
-10.0937
-10.0864
-10.0836
-10.0769
-10.0684
-10.0644
-10.06
-10.0511
-10.0454
-10.0421
-10.0344
-10.0268
-10.0234
-10.0178
-10.0089
-10.0045
-10.0003
-9.99213
-9.98544
-9.98229
-9.97543
-9.96728
-9.96345
-9.95848
-9.95004
-9.94433
-9.94092
-9.93318
-9.92595
-9.92227
-9.9166
-9.90814
-9.9034
-9.89928
-9.89121
-9.88469
-9.88107
-9.87468
-9.86653
-9.86245
-9.85754
-9.84949
-9.84349
-9.83986
-9.83275
-9.82523
-9.82133
-9.81589
-9.80787
-9.8024
-9.79855
-9.79094
-9.78409
-9.78012
-9.77436
-9.76633
-9.76144
-9.7571
-9.7494
-9.74294
-9.73897
-9.73285
-9.72496
-9.72048
-9.71564
-9.70805
-9.70177
-9.69789
-9.69132
-9.68382
-9.6794
-9.67433
-9.66673
-9.66071
-9.65678
-9.64991
-9.64279
-9.63828
-9.63316
-9.62544
-9.61978
-9.61558
-9.60871
-9.60171
-9.59725
-9.59199
-9.58428
-9.57886
-9.57441
-9.56766
-9.56063
-9.55633
-9.55081
-9.54333
-9.53785
-9.53339
-9.52662
-9.51968
-9.51538
-9.50973
-9.50246
-9.49684
-9.49249
-9.48559
-9.47887
-9.47436
-9.46884
-9.46157
-9.45596
-9.45155
-9.44471
-9.43808
-9.43337
-9.42805
-9.4207
-9.41518
-9.41058
-9.40402
-9.39724
-9.39253
-9.38723
-9.37999
-9.37438
-9.3697
-9.36339
-9.35644
-9.35177
-9.34642
-9.33944
-9.33352
-9.32897
-9.32273
-9.31582
-9.31095
-9.30573
-9.29892
-9.29275
-9.28828
-9.28211
-9.27533
-9.27011
-9.26518
-9.25838
-9.25216
-9.24752
-9.24165
-9.23483
-9.22938
-9.22462
-9.21793
-9.21165
-9.20676
-9.20129
-9.19435
-9.18881
-9.18399
-9.17765
-9.17113
-9.16612
-9.16088
-9.15402
-9.14827
-9.14338
-9.13745
-9.13068
-9.1256
-9.12042
-9.11387
-9.10773
-9.10289
-9.09719
-9.09042
-9.08506
-9.08
-9.07377
-9.06729
-9.06245
-9.0569
-9.05034
-9.04452
-9.03968
-9.03362
-9.02709
-9.02195
-9.01669
-9.0103
-9.00413
-8.99934
-8.99351
-8.98705
-8.98145
-8.97653
-8.97025
-8.96397
-8.9589
-8.95349
-8.94703
-8.94114
-8.93629
-8.93029
-8.92395
-8.91849
-8.91347
-8.90708
-8.90102
-8.89594
-8.89043
-8.88397
-8.87827
-8.87332
-8.86727
-8.86102
-8.85565
-8.85052
-8.84411
-8.83821
-8.83308
-8.82754
-8.82109
-8.81552
-8.81046
-8.80443
-8.79823
-8.79292
-8.78771
-8.78135
-8.77551
-8.77035
-8.7648
-8.75838
-8.75289
-8.74774
-8.74178
-8.73558
-8.73031
-8.72504
-8.71876
-8.71293
-8.70774
-8.70222
-8.69584
-8.69036
-8.68515
-8.6793
-8.67308
-8.66781
-8.66251
-8.65636
-8.65047
-8.64527
-8.63979
-8.63348
-8.62794
-8.62271
-8.61698
-8.61074
-8.60544
-8.60013
-8.59412
-8.58814
-8.58293
-8.57749
-8.57129
-8.56564
-8.56041
-8.5548
-8.54856
-8.54318
-8.53788
-8.53204
-8.52596
-8.52072
-8.51533
-8.50927
-8.50348
-8.49825
-8.49274
-8.48656
-8.48105
-8.47577
-8.47009
-8.46396
-8.45864
-8.4533
-8.44741
-8.44147
-8.43622
-8.43081
-8.42474
-8.41906
-8.41379
-8.40827
-8.40214
-8.39669
-8.39138
-8.38569
-8.37964
-8.37431
-8.36897
-8.36309
-8.35724
-8.35194
-8.34655
-8.34052
-8.33488
-8.32957
-8.32409
-8.31802
-8.31255
-8.30724
-8.30159
-8.2956
-8.29021
-8.28491
-8.27908
-8.27326
-8.26789
-8.26257
-8.25659
-8.25095
-8.24561
-8.24019
-8.23418
-8.22865
-8.22335
-8.21777
-8.21184
-8.20636
-8.20111
-8.19534
-8.18954
-8.1841
-8.17884
-8.17296
-8.16727
-8.16188
-8.15655
-8.15063
-8.14501
-8.1397
-8.13422
-8.12836
-8.12276
-8.11754
-8.11189
-8.10611
-8.10056
-8.09536
-8.0896
-8.08388
-8.0784
-8.07315
-8.06736
-8.06165
-8.0563
-8.05091
-8.04516
-8.03945
-8.03421
-8.02869
-8.02297
-8.01729
-8.0121
-8.00651
-8.00078
-7.9952
-7.98996
-7.98436
-7.97859
-7.97315
-7.96783
-7.96224
-7.95644
-7.95111
-7.94571
-7.94012
-7.93434
-7.92906
-7.92364
-7.91798
-7.91229
-7.907
-7.90159
-7.89586
-7.89029
-7.88495
-7.87956
-7.87376
-7.86829
-7.86293
-7.85751
-7.85172
-7.84629
-7.84095
-7.83546
-7.82972
-7.82428
-7.819
-7.8134
-7.80776
-7.8023
-7.79705
-7.79139
-7.7858
-7.78036
-7.7751
-7.76942
-7.76384
-7.75846
-7.75313