/*--------------------------------*- C++ -*----------------------------------*\
  =========                 |
  \\      /  F ield         | OpenFOAM: The Open Source CFD Toolbox
   \\    /   O peration     | Website:  https://openfoam.org
    \\  /    A nd           | Version:  9
     \\/     M anipulation  |
\*---------------------------------------------------------------------------*/
FoamFile
{
    format      ascii;
    class       volVectorField;
    location    "0.017";
    object      ddtCorrDdt0(rho,U);
}
// * * * * * * * * * * * * * * * * * * * * * * * * * * * * * * * * * * * * * //

dimensions      [1 -2 -2 0 0 0 0];

internalField   nonuniform List<vector> 
10000
(
(147.442 0 0)
(127.13 0 0)
(125.406 0 0)
(111.343 0 0)
(100.816 0 0)
(91.532 0 0)
(81.5986 0 0)
(71.2423 0 0)
(61.0229 0 0)
(50.9215 0 0)
(40.7927 0 0)
(30.6286 0 0)
(20.4686 0 0)
(10.3161 0 0)
(0.163542 0 0)
(-9.99015 0 0)
(-20.1441 0 0)
(-30.298 0 0)
(-40.4516 0 0)
(-50.6052 0 0)
(-60.7592 0 0)
(-70.9131 0 0)
(-81.0667 0 0)
(-91.2204 0 0)
(-101.374 0 0)
(-111.528 0 0)
(-121.682 0 0)
(-131.836 0 0)
(-141.99 0 0)
(-152.144 0 0)
(-162.298 0 0)
(-172.452 0 0)
(-182.606 0 0)
(-192.76 0 0)
(-202.915 0 0)
(-213.069 0 0)
(-223.223 0 0)
(-233.377 0 0)
(-243.532 0 0)
(-253.686 0 0)
(-263.84 0 0)
(-273.994 0 0)
(-284.149 0 0)
(-294.303 0 0)
(-304.458 0 0)
(-314.613 0 0)
(-324.767 0 0)
(-334.921 0 0)
(-345.076 0 0)
(-355.23 0 0)
(-365.385 0 0)
(-375.539 0 0)
(-385.694 0 0)
(-395.849 0 0)
(-406.003 0 0)
(-416.158 0 0)
(-426.312 0 0)
(-436.467 0 0)
(-446.622 0 0)
(-456.777 0 0)
(-466.932 0 0)
(-477.086 0 0)
(-487.241 0 0)
(-497.395 0 0)
(-507.55 0 0)
(-517.705 0 0)
(-527.86 0 0)
(-538.015 0 0)
(-548.17 0 0)
(-558.325 0 0)
(-568.48 0 0)
(-578.635 0 0)
(-588.789 0 0)
(-598.944 0 0)
(-609.099 0 0)
(-619.254 0 0)
(-629.409 0 0)
(-639.564 0 0)
(-649.719 0 0)
(-659.874 0 0)
(-670.029 0 0)
(-680.184 0 0)
(-690.339 0 0)
(-700.494 0 0)
(-710.649 0 0)
(-720.804 0 0)
(-730.959 0 0)
(-741.114 0 0)
(-751.269 0 0)
(-761.424 0 0)
(-771.579 0 0)
(-781.734 0 0)
(-791.889 0 0)
(-802.044 0 0)
(-812.199 0 0)
(-822.354 0 0)
(-832.509 0 0)
(-842.664 0 0)
(-852.818 0 0)
(-862.973 0 0)
(-873.128 0 0)
(-883.283 0 0)
(-893.438 0 0)
(-903.593 0 0)
(-913.748 0 0)
(-923.903 0 0)
(-934.058 0 0)
(-944.212 0 0)
(-954.367 0 0)
(-964.522 0 0)
(-974.677 0 0)
(-984.832 0 0)
(-994.986 0 0)
(-1005.14 0 0)
(-1015.3 0 0)
(-1025.45 0 0)
(-1035.61 0 0)
(-1045.76 0 0)
(-1055.91 0 0)
(-1066.07 0 0)
(-1076.22 0 0)
(-1086.38 0 0)
(-1096.53 0 0)
(-1106.69 0 0)
(-1116.84 0 0)
(-1127 0 0)
(-1137.15 0 0)
(-1147.31 0 0)
(-1157.46 0 0)
(-1167.61 0 0)
(-1177.77 0 0)
(-1187.92 0 0)
(-1198.08 0 0)
(-1208.23 0 0)
(-1218.39 0 0)
(-1228.54 0 0)
(-1238.69 0 0)
(-1248.85 0 0)
(-1259 0 0)
(-1269.16 0 0)
(-1279.31 0 0)
(-1289.46 0 0)
(-1299.62 0 0)
(-1309.77 0 0)
(-1319.93 0 0)
(-1330.08 0 0)
(-1340.23 0 0)
(-1350.39 0 0)
(-1360.54 0 0)
(-1370.69 0 0)
(-1380.85 0 0)
(-1391 0 0)
(-1401.15 0 0)
(-1411.31 0 0)
(-1421.46 0 0)
(-1431.61 0 0)
(-1441.77 0 0)
(-1451.92 0 0)
(-1462.07 0 0)
(-1472.23 0 0)
(-1482.38 0 0)
(-1492.53 0 0)
(-1502.69 0 0)
(-1512.84 0 0)
(-1522.99 0 0)
(-1533.15 0 0)
(-1543.3 0 0)
(-1553.45 0 0)
(-1563.6 0 0)
(-1573.76 0 0)
(-1583.91 0 0)
(-1594.06 0 0)
(-1604.21 0 0)
(-1614.37 0 0)
(-1624.52 0 0)
(-1634.67 0 0)
(-1644.82 0 0)
(-1654.97 0 0)
(-1665.13 0 0)
(-1675.28 0 0)
(-1685.43 0 0)
(-1695.58 0 0)
(-1705.73 0 0)
(-1715.89 0 0)
(-1726.04 0 0)
(-1736.19 0 0)
(-1746.34 0 0)
(-1756.49 0 0)
(-1766.64 0 0)
(-1776.79 0 0)
(-1786.95 0 0)
(-1797.1 0 0)
(-1807.25 0 0)
(-1817.4 0 0)
(-1827.55 0 0)
(-1837.7 0 0)
(-1847.85 0 0)
(-1858 0 0)
(-1868.15 0 0)
(-1878.3 0 0)
(-1888.45 0 0)
(-1898.6 0 0)
(-1908.75 0 0)
(-1918.9 0 0)
(-1929.05 0 0)
(-1939.2 0 0)
(-1949.35 0 0)
(-1959.5 0 0)
(-1969.65 0 0)
(-1979.8 0 0)
(-1989.95 0 0)
(-2000.1 0 0)
(-2010.25 0 0)
(-2020.4 0 0)
(-2030.55 0 0)
(-2040.7 0 0)
(-2050.85 0 0)
(-2061 0 0)
(-2071.14 0 0)
(-2081.29 0 0)
(-2091.44 0 0)
(-2101.59 0 0)
(-2111.74 0 0)
(-2121.89 0 0)
(-2132.04 0 0)
(-2142.18 0 0)
(-2152.33 0 0)
(-2162.48 0 0)
(-2172.63 0 0)
(-2182.77 0 0)
(-2192.92 0 0)
(-2203.07 0 0)
(-2213.22 0 0)
(-2223.36 0 0)
(-2233.51 0 0)
(-2243.66 0 0)
(-2253.81 0 0)
(-2263.95 0 0)
(-2274.1 0 0)
(-2284.25 0 0)
(-2294.39 0 0)
(-2304.54 0 0)
(-2314.68 0 0)
(-2324.83 0 0)
(-2334.98 0 0)
(-2345.12 0 0)
(-2355.27 0 0)
(-2365.41 0 0)
(-2375.56 0 0)
(-2385.71 0 0)
(-2395.85 0 0)
(-2406 0 0)
(-2416.14 0 0)
(-2426.29 0 0)
(-2436.43 0 0)
(-2446.58 0 0)
(-2456.72 0 0)
(-2466.86 0 0)
(-2477.01 0 0)
(-2487.15 0 0)
(-2497.3 0 0)
(-2507.44 0 0)
(-2517.59 0 0)
(-2527.73 0 0)
(-2537.87 0 0)
(-2548.02 0 0)
(-2558.16 0 0)
(-2568.3 0 0)
(-2578.45 0 0)
(-2588.59 0 0)
(-2598.73 0 0)
(-2608.88 0 0)
(-2619.02 0 0)
(-2629.16 0 0)
(-2639.3 0 0)
(-2649.44 0 0)
(-2659.59 0 0)
(-2669.73 0 0)
(-2679.87 0 0)
(-2690.01 0 0)
(-2700.15 0 0)
(-2710.29 0 0)
(-2720.44 0 0)
(-2730.58 0 0)
(-2740.72 0 0)
(-2750.86 0 0)
(-2761 0 0)
(-2771.14 0 0)
(-2781.28 0 0)
(-2791.42 0 0)
(-2801.56 0 0)
(-2811.7 0 0)
(-2821.84 0 0)
(-2831.98 0 0)
(-2842.12 0 0)
(-2852.26 0 0)
(-2862.4 0 0)
(-2872.54 0 0)
(-2882.68 0 0)
(-2892.81 0 0)
(-2902.95 0 0)
(-2913.09 0 0)
(-2923.23 0 0)
(-2933.37 0 0)
(-2943.51 0 0)
(-2953.64 0 0)
(-2963.78 0 0)
(-2973.92 0 0)
(-2984.06 0 0)
(-2994.19 0 0)
(-3004.33 0 0)
(-3014.47 0 0)
(-3024.6 0 0)
(-3034.74 0 0)
(-3044.88 0 0)
(-3055.01 0 0)
(-3065.15 0 0)
(-3075.29 0 0)
(-3085.42 0 0)
(-3095.56 0 0)
(-3105.69 0 0)
(-3115.83 0 0)
(-3125.96 0 0)
(-3136.1 0 0)
(-3146.23 0 0)
(-3156.37 0 0)
(-3166.5 0 0)
(-3176.63 0 0)
(-3186.77 0 0)
(-3196.9 0 0)
(-3207.04 0 0)
(-3217.17 0 0)
(-3227.3 0 0)
(-3237.44 0 0)
(-3247.57 0 0)
(-3257.7 0 0)
(-3267.83 0 0)
(-3277.97 0 0)
(-3288.1 0 0)
(-3298.23 0 0)
(-3308.36 0 0)
(-3318.49 0 0)
(-3328.63 0 0)
(-3338.76 0 0)
(-3348.89 0 0)
(-3359.02 0 0)
(-3369.15 0 0)
(-3379.28 0 0)
(-3389.41 0 0)
(-3399.54 0 0)
(-3409.67 0 0)
(-3419.8 0 0)
(-3429.93 0 0)
(-3440.06 0 0)
(-3450.19 0 0)
(-3460.32 0 0)
(-3470.45 0 0)
(-3480.58 0 0)
(-3490.7 0 0)
(-3500.83 0 0)
(-3510.96 0 0)
(-3521.09 0 0)
(-3531.22 0 0)
(-3541.34 0 0)
(-3551.47 0 0)
(-3561.6 0 0)
(-3571.73 0 0)
(-3581.85 0 0)
(-3591.98 0 0)
(-3602.1 0 0)
(-3612.23 0 0)
(-3622.36 0 0)
(-3632.48 0 0)
(-3642.61 0 0)
(-3652.73 0 0)
(-3662.86 0 0)
(-3672.98 0 0)
(-3683.11 0 0)
(-3693.23 0 0)
(-3703.36 0 0)
(-3713.48 0 0)
(-3723.6 0 0)
(-3733.73 0 0)
(-3743.85 0 0)
(-3753.97 0 0)
(-3764.1 0 0)
(-3774.22 0 0)
(-3784.34 0 0)
(-3794.46 0 0)
(-3804.59 0 0)
(-3814.71 0 0)
(-3824.83 0 0)
(-3834.95 0 0)
(-3845.07 0 0)
(-3855.19 0 0)
(-3865.31 0 0)
(-3875.43 0 0)
(-3885.55 0 0)
(-3895.67 0 0)
(-3905.79 0 0)
(-3915.91 0 0)
(-3926.03 0 0)
(-3936.15 0 0)
(-3946.27 0 0)
(-3956.39 0 0)
(-3966.51 0 0)
(-3976.63 0 0)
(-3986.74 0 0)
(-3996.86 0 0)
(-4006.98 0 0)
(-4017.1 0 0)
(-4027.21 0 0)
(-4037.33 0 0)
(-4047.45 0 0)
(-4057.56 0 0)
(-4067.68 0 0)
(-4077.8 0 0)
(-4087.91 0 0)
(-4098.03 0 0)
(-4108.14 0 0)
(-4118.26 0 0)
(-4128.37 0 0)
(-4138.49 0 0)
(-4148.6 0 0)
(-4158.71 0 0)
(-4168.83 0 0)
(-4178.94 0 0)
(-4189.05 0 0)
(-4199.17 0 0)
(-4209.28 0 0)
(-4219.39 0 0)
(-4229.5 0 0)
(-4239.62 0 0)
(-4249.73 0 0)
(-4259.84 0 0)
(-4269.95 0 0)
(-4280.06 0 0)
(-4290.17 0 0)
(-4300.28 0 0)
(-4310.39 0 0)
(-4320.5 0 0)
(-4330.61 0 0)
(-4340.72 0 0)
(-4350.83 0 0)
(-4360.94 0 0)
(-4371.05 0 0)
(-4381.16 0 0)
(-4391.26 0 0)
(-4401.37 0 0)
(-4411.48 0 0)
(-4421.59 0 0)
(-4431.69 0 0)
(-4441.8 0 0)
(-4451.91 0 0)
(-4462.01 0 0)
(-4472.12 0 0)
(-4482.22 0 0)
(-4492.33 0 0)
(-4502.43 0 0)
(-4512.54 0 0)
(-4522.64 0 0)
(-4532.75 0 0)
(-4542.85 0 0)
(-4552.96 0 0)
(-4563.06 0 0)
(-4573.16 0 0)
(-4583.26 0 0)
(-4593.37 0 0)
(-4603.47 0 0)
(-4613.57 0 0)
(-4623.67 0 0)
(-4633.77 0 0)
(-4643.88 0 0)
(-4653.98 0 0)
(-4664.08 0 0)
(-4674.18 0 0)
(-4684.28 0 0)
(-4694.38 0 0)
(-4704.48 0 0)
(-4714.58 0 0)
(-4724.67 0 0)
(-4734.77 0 0)
(-4744.87 0 0)
(-4754.97 0 0)
(-4765.07 0 0)
(-4775.16 0 0)
(-4785.26 0 0)
(-4795.36 0 0)
(-4805.45 0 0)
(-4815.55 0 0)
(-4825.65 0 0)
(-4835.74 0 0)
(-4845.84 0 0)
(-4855.93 0 0)
(-4866.03 0 0)
(-4876.12 0 0)
(-4886.22 0 0)
(-4896.31 0 0)
(-4906.4 0 0)
(-4916.5 0 0)
(-4926.59 0 0)
(-4936.68 0 0)
(-4946.77 0 0)
(-4956.86 0 0)
(-4966.96 0 0)
(-4977.05 0 0)
(-4987.14 0 0)
(-4997.23 0 0)
(-5007.32 0 0)
(-5017.41 0 0)
(-5027.5 0 0)
(-5037.59 0 0)
(-5047.68 0 0)
(-5057.77 0 0)
(-5067.85 0 0)
(-5077.94 0 0)
(-5088.03 0 0)
(-5098.12 0 0)
(-5108.2 0 0)
(-5118.29 0 0)
(-5128.38 0 0)
(-5138.46 0 0)
(-5148.55 0 0)
(-5158.64 0 0)
(-5168.72 0 0)
(-5178.81 0 0)
(-5188.89 0 0)
(-5198.97 0 0)
(-5209.06 0 0)
(-5219.14 0 0)
(-5229.22 0 0)
(-5239.31 0 0)
(-5249.39 0 0)
(-5259.47 0 0)
(-5269.55 0 0)
(-5279.63 0 0)
(-5289.72 0 0)
(-5299.8 0 0)
(-5309.88 0 0)
(-5319.96 0 0)
(-5330.04 0 0)
(-5340.12 0 0)
(-5350.2 0 0)
(-5360.27 0 0)
(-5370.35 0 0)
(-5380.43 0 0)
(-5390.51 0 0)
(-5400.59 0 0)
(-5410.66 0 0)
(-5420.74 0 0)
(-5430.82 0 0)
(-5440.89 0 0)
(-5450.97 0 0)
(-5461.04 0 0)
(-5471.12 0 0)
(-5481.19 0 0)
(-5491.27 0 0)
(-5501.34 0 0)
(-5511.41 0 0)
(-5521.49 0 0)
(-5531.56 0 0)
(-5541.63 0 0)
(-5551.7 0 0)
(-5561.77 0 0)
(-5571.85 0 0)
(-5581.92 0 0)
(-5591.99 0 0)
(-5602.06 0 0)
(-5612.13 0 0)
(-5622.2 0 0)
(-5632.26 0 0)
(-5642.33 0 0)
(-5652.4 0 0)
(-5662.47 0 0)
(-5672.54 0 0)
(-5682.6 0 0)
(-5692.67 0 0)
(-5702.74 0 0)
(-5712.8 0 0)
(-5722.87 0 0)
(-5732.93 0 0)
(-5743 0 0)
(-5753.06 0 0)
(-5763.13 0 0)
(-5773.19 0 0)
(-5783.25 0 0)
(-5793.32 0 0)
(-5803.38 0 0)
(-5813.44 0 0)
(-5823.5 0 0)
(-5833.56 0 0)
(-5843.63 0 0)
(-5853.69 0 0)
(-5863.75 0 0)
(-5873.81 0 0)
(-5883.87 0 0)
(-5893.92 0 0)
(-5903.98 0 0)
(-5914.04 0 0)
(-5924.1 0 0)
(-5934.16 0 0)
(-5944.21 0 0)
(-5954.27 0 0)
(-5964.33 0 0)
(-5974.38 0 0)
(-5984.44 0 0)
(-5994.49 0 0)
(-6004.55 0 0)
(-6014.6 0 0)
(-6024.65 0 0)
(-6034.71 0 0)
(-6044.76 0 0)
(-6054.81 0 0)
(-6064.86 0 0)
(-6074.92 0 0)
(-6084.97 0 0)
(-6095.02 0 0)
(-6105.07 0 0)
(-6115.12 0 0)
(-6125.17 0 0)
(-6135.22 0 0)
(-6145.27 0 0)
(-6155.31 0 0)
(-6165.36 0 0)
(-6175.41 0 0)
(-6185.46 0 0)
(-6195.5 0 0)
(-6205.55 0 0)
(-6215.6 0 0)
(-6225.64 0 0)
(-6235.69 0 0)
(-6245.73 0 0)
(-6255.77 0 0)
(-6265.82 0 0)
(-6275.86 0 0)
(-6285.9 0 0)
(-6295.95 0 0)
(-6305.99 0 0)
(-6316.03 0 0)
(-6326.07 0 0)
(-6336.11 0 0)
(-6346.15 0 0)
(-6356.19 0 0)
(-6366.23 0 0)
(-6376.27 0 0)
(-6386.31 0 0)
(-6396.34 0 0)
(-6406.38 0 0)
(-6416.42 0 0)
(-6426.45 0 0)
(-6436.49 0 0)
(-6446.53 0 0)
(-6456.56 0 0)
(-6466.59 0 0)
(-6476.63 0 0)
(-6486.66 0 0)
(-6496.7 0 0)
(-6506.73 0 0)
(-6516.76 0 0)
(-6526.79 0 0)
(-6536.82 0 0)
(-6546.86 0 0)
(-6556.89 0 0)
(-6566.92 0 0)
(-6576.95 0 0)
(-6586.97 0 0)
(-6597 0 0)
(-6607.03 0 0)
(-6617.06 0 0)
(-6627.09 0 0)
(-6637.11 0 0)
(-6647.14 0 0)
(-6657.16 0 0)
(-6667.19 0 0)
(-6677.21 0 0)
(-6687.24 0 0)
(-6697.26 0 0)
(-6707.29 0 0)
(-6717.31 0 0)
(-6727.33 0 0)
(-6737.35 0 0)
(-6747.37 0 0)
(-6757.39 0 0)
(-6767.41 0 0)
(-6777.43 0 0)
(-6787.45 0 0)
(-6797.47 0 0)
(-6807.49 0 0)
(-6817.51 0 0)
(-6827.53 0 0)
(-6837.54 0 0)
(-6847.56 0 0)
(-6857.58 0 0)
(-6867.59 0 0)
(-6877.61 0 0)
(-6887.62 0 0)
(-6897.63 0 0)
(-6907.65 0 0)
(-6917.66 0 0)
(-6927.67 0 0)
(-6937.68 0 0)
(-6947.69 0 0)
(-6957.71 0 0)
(-6967.72 0 0)
(-6977.73 0 0)
(-6987.73 0 0)
(-6997.74 0 0)
(-7007.75 0 0)
(-7017.76 0 0)
(-7027.77 0 0)
(-7037.77 0 0)
(-7047.78 0 0)
(-7057.78 0 0)
(-7067.79 0 0)
(-7077.79 0 0)
(-7087.8 0 0)
(-7097.8 0 0)
(-7107.8 0 0)
(-7117.81 0 0)
(-7127.81 0 0)
(-7137.81 0 0)
(-7147.81 0 0)
(-7157.81 0 0)
(-7167.81 0 0)
(-7177.81 0 0)
(-7187.81 0 0)
(-7197.81 0 0)
(-7207.8 0 0)
(-7217.8 0 0)
(-7227.8 0 0)
(-7237.79 0 0)
(-7247.79 0 0)
(-7257.78 0 0)
(-7267.78 0 0)
(-7277.77 0 0)
(-7287.76 0 0)
(-7297.75 0 0)
(-7307.75 0 0)
(-7317.74 0 0)
(-7327.73 0 0)
(-7337.72 0 0)
(-7347.71 0 0)
(-7357.7 0 0)
(-7367.69 0 0)
(-7377.67 0 0)
(-7387.66 0 0)
(-7397.65 0 0)
(-7407.63 0 0)
(-7417.62 0 0)
(-7427.6 0 0)
(-7437.59 0 0)
(-7447.57 0 0)
(-7457.56 0 0)
(-7467.54 0 0)
(-7477.52 0 0)
(-7487.5 0 0)
(-7497.48 0 0)
(-7507.46 0 0)
(-7517.44 0 0)
(-7527.42 0 0)
(-7537.4 0 0)
(-7547.38 0 0)
(-7557.36 0 0)
(-7567.33 0 0)
(-7577.31 0 0)
(-7587.28 0 0)
(-7597.26 0 0)
(-7607.23 0 0)
(-7617.21 0 0)
(-7627.18 0 0)
(-7637.15 0 0)
(-7647.12 0 0)
(-7657.1 0 0)
(-7667.07 0 0)
(-7677.04 0 0)
(-7687.01 0 0)
(-7696.97 0 0)
(-7706.94 0 0)
(-7716.91 0 0)
(-7726.88 0 0)
(-7736.84 0 0)
(-7746.81 0 0)
(-7756.77 0 0)
(-7766.74 0 0)
(-7776.7 0 0)
(-7786.67 0 0)
(-7796.63 0 0)
(-7806.59 0 0)
(-7816.55 0 0)
(-7826.51 0 0)
(-7836.47 0 0)
(-7846.43 0 0)
(-7856.39 0 0)
(-7866.35 0 0)
(-7876.3 0 0)
(-7886.26 0 0)
(-7896.22 0 0)
(-7906.17 0 0)
(-7916.13 0 0)
(-7926.08 0 0)
(-7936.04 0 0)
(-7945.99 0 0)
(-7955.94 0 0)
(-7965.89 0 0)
(-7975.84 0 0)
(-7985.79 0 0)
(-7995.74 0 0)
(-8005.69 0 0)
(-8015.64 0 0)
(-8025.59 0 0)
(-8035.53 0 0)
(-8045.48 0 0)
(-8055.42 0 0)
(-8065.37 0 0)
(-8075.31 0 0)
(-8085.26 0 0)
(-8095.2 0 0)
(-8105.14 0 0)
(-8115.08 0 0)
(-8125.02 0 0)
(-8134.96 0 0)
(-8144.9 0 0)
(-8154.84 0 0)
(-8164.78 0 0)
(-8174.71 0 0)
(-8184.65 0 0)
(-8194.59 0 0)
(-8204.52 0 0)
(-8214.45 0 0)
(-8224.39 0 0)
(-8234.32 0 0)
(-8244.25 0 0)
(-8254.18 0 0)
(-8264.11 0 0)
(-8274.04 0 0)
(-8283.97 0 0)
(-8293.9 0 0)
(-8303.83 0 0)
(-8313.76 0 0)
(-8323.68 0 0)
(-8333.61 0 0)
(-8343.53 0 0)
(-8353.46 0 0)
(-8363.38 0 0)
(-8373.3 0 0)
(-8383.22 0 0)
(-8393.14 0 0)
(-8403.06 0 0)
(-8412.98 0 0)
(-8422.9 0 0)
(-8432.82 0 0)
(-8442.74 0 0)
(-8452.65 0 0)
(-8462.57 0 0)
(-8472.48 0 0)
(-8482.4 0 0)
(-8492.31 0 0)
(-8502.22 0 0)
(-8512.14 0 0)
(-8522.05 0 0)
(-8531.96 0 0)
(-8541.87 0 0)
(-8551.78 0 0)
(-8561.68 0 0)
(-8571.59 0 0)
(-8581.5 0 0)
(-8591.4 0 0)
(-8601.31 0 0)
(-8611.21 0 0)
(-8621.11 0 0)
(-8631.02 0 0)
(-8640.92 0 0)
(-8650.82 0 0)
(-8660.72 0 0)
(-8670.62 0 0)
(-8680.52 0 0)
(-8690.41 0 0)
(-8700.31 0 0)
(-8710.21 0 0)
(-8720.1 0 0)
(-8730 0 0)
(-8739.89 0 0)
(-8749.78 0 0)
(-8759.67 0 0)
(-8769.56 0 0)
(-8779.45 0 0)
(-8789.34 0 0)
(-8799.23 0 0)
(-8809.12 0 0)
(-8819.01 0 0)
(-8828.89 0 0)
(-8838.78 0 0)
(-8848.66 0 0)
(-8858.54 0 0)
(-8868.43 0 0)
(-8878.31 0 0)
(-8888.19 0 0)
(-8898.07 0 0)
(-8907.95 0 0)
(-8917.82 0 0)
(-8927.7 0 0)
(-8937.58 0 0)
(-8947.45 0 0)
(-8957.33 0 0)
(-8967.2 0 0)
(-8977.07 0 0)
(-8986.95 0 0)
(-8996.82 0 0)
(-9006.69 0 0)
(-9016.56 0 0)
(-9026.42 0 0)
(-9036.29 0 0)
(-9046.16 0 0)
(-9056.02 0 0)
(-9065.89 0 0)
(-9075.75 0 0)
(-9085.61 0 0)
(-9095.47 0 0)
(-9105.34 0 0)
(-9115.2 0 0)
(-9125.05 0 0)
(-9134.91 0 0)
(-9144.77 0 0)
(-9154.63 0 0)
(-9164.48 0 0)
(-9174.33 0 0)
(-9184.19 0 0)
(-9194.04 0 0)
(-9203.89 0 0)
(-9213.74 0 0)
(-9223.59 0 0)
(-9233.44 0 0)
(-9243.29 0 0)
(-9253.13 0 0)
(-9262.98 0 0)
(-9272.82 0 0)
(-9282.67 0 0)
(-9292.51 0 0)
(-9302.35 0 0)
(-9312.19 0 0)
(-9322.03 0 0)
(-9331.87 0 0)
(-9341.71 0 0)
(-9351.54 0 0)
(-9361.38 0 0)
(-9371.21 0 0)
(-9381.05 0 0)
(-9390.88 0 0)
(-9400.71 0 0)
(-9410.54 0 0)
(-9420.37 0 0)
(-9430.2 0 0)
(-9440.03 0 0)
(-9449.85 0 0)
(-9459.68 0 0)
(-9469.5 0 0)
(-9479.32 0 0)
(-9489.15 0 0)
(-9498.97 0 0)
(-9508.79 0 0)
(-9518.61 0 0)
(-9528.42 0 0)
(-9538.24 0 0)
(-9548.06 0 0)
(-9557.87 0 0)
(-9567.68 0 0)
(-9577.5 0 0)
(-9587.31 0 0)
(-9597.12 0 0)
(-9606.93 0 0)
(-9616.73 0 0)
(-9626.54 0 0)
(-9636.35 0 0)
(-9646.15 0 0)
(-9655.95 0 0)
(-9665.76 0 0)
(-9675.56 0 0)
(-9685.36 0 0)
(-9695.15 0 0)
(-9704.95 0 0)
(-9714.75 0 0)
(-9724.54 0 0)
(-9734.34 0 0)
(-9744.13 0 0)
(-9753.92 0 0)
(-9763.71 0 0)
(-9773.5 0 0)
(-9783.29 0 0)
(-9793.08 0 0)
(-9802.86 0 0)
(-9812.65 0 0)
(-9822.43 0 0)
(-9832.21 0 0)
(-9841.99 0 0)
(-9851.77 0 0)
(-9861.55 0 0)
(-9871.33 0 0)
(-9881.11 0 0)
(-9890.88 0 0)
(-9900.65 0 0)
(-9910.43 0 0)
(-9920.2 0 0)
(-9929.97 0 0)
(-9939.74 0 0)
(-9949.5 0 0)
(-9959.27 0 0)
(-9969.03 0 0)
(-9978.8 0 0)
(-9988.56 0 0)
(-9998.32 0 0)
(-10008.1 0 0)
(-10017.8 0 0)
(-10027.6 0 0)
(-10037.3 0 0)
(-10047.1 0 0)
(-10056.9 0 0)
(-10066.6 0 0)
(-10076.4 0 0)
(-10086.1 0 0)
(-10095.9 0 0)
(-10105.6 0 0)
(-10115.3 0 0)
(-10125.1 0 0)
(-10134.8 0 0)
(-10144.6 0 0)
(-10154.3 0 0)
(-10164 0 0)
(-10173.8 0 0)
(-10183.5 0 0)
(-10193.3 0 0)
(-10203 0 0)
(-10212.7 0 0)
(-10222.4 0 0)
(-10232.2 0 0)
(-10241.9 0 0)
(-10251.6 0 0)
(-10261.3 0 0)
(-10271.1 0 0)
(-10280.8 0 0)
(-10290.5 0 0)
(-10300.2 0 0)
(-10309.9 0 0)
(-10319.7 0 0)
(-10329.4 0 0)
(-10339.1 0 0)
(-10348.8 0 0)
(-10358.5 0 0)
(-10368.2 0 0)
(-10377.9 0 0)
(-10387.6 0 0)
(-10397.3 0 0)
(-10407 0 0)
(-10416.7 0 0)
(-10426.4 0 0)
(-10436.1 0 0)
(-10445.8 0 0)
(-10455.5 0 0)
(-10465.2 0 0)
(-10474.9 0 0)
(-10484.6 0 0)
(-10494.3 0 0)
(-10503.9 0 0)
(-10513.6 0 0)
(-10523.3 0 0)
(-10533 0 0)
(-10542.7 0 0)
(-10552.3 0 0)
(-10562 0 0)
(-10571.7 0 0)
(-10581.4 0 0)
(-10591 0 0)
(-10600.7 0 0)
(-10610.4 0 0)
(-10620 0 0)
(-10629.7 0 0)
(-10639.4 0 0)
(-10649 0 0)
(-10658.7 0 0)
(-10668.3 0 0)
(-10678 0 0)
(-10687.6 0 0)
(-10697.3 0 0)
(-10706.9 0 0)
(-10716.6 0 0)
(-10726.2 0 0)
(-10735.9 0 0)
(-10745.5 0 0)
(-10755.1 0 0)
(-10764.8 0 0)
(-10774.4 0 0)
(-10784 0 0)
(-10793.7 0 0)
(-10803.3 0 0)
(-10812.9 0 0)
(-10822.6 0 0)
(-10832.2 0 0)
(-10841.8 0 0)
(-10851.4 0 0)
(-10861 0 0)
(-10870.7 0 0)
(-10880.3 0 0)
(-10889.9 0 0)
(-10899.5 0 0)
(-10909.1 0 0)
(-10918.7 0 0)
(-10928.3 0 0)
(-10937.9 0 0)
(-10947.5 0 0)
(-10957.1 0 0)
(-10966.7 0 0)
(-10976.3 0 0)
(-10985.9 0 0)
(-10995.5 0 0)
(-11005.1 0 0)
(-11014.6 0 0)
(-11024.2 0 0)
(-11033.8 0 0)
(-11043.4 0 0)
(-11053 0 0)
(-11062.5 0 0)
(-11072.1 0 0)
(-11081.7 0 0)
(-11091.2 0 0)
(-11100.8 0 0)
(-11110.4 0 0)
(-11119.9 0 0)
(-11129.5 0 0)
(-11139 0 0)
(-11148.6 0 0)
(-11158.1 0 0)
(-11167.7 0 0)
(-11177.2 0 0)
(-11186.8 0 0)
(-11196.3 0 0)
(-11205.8 0 0)
(-11215.4 0 0)
(-11224.9 0 0)
(-11234.4 0 0)
(-11244 0 0)
(-11253.5 0 0)
(-11263 0 0)
(-11272.5 0 0)
(-11282 0 0)
(-11291.5 0 0)
(-11301.1 0 0)
(-11310.6 0 0)
(-11320.1 0 0)
(-11329.6 0 0)
(-11339.1 0 0)
(-11348.6 0 0)
(-11358.1 0 0)
(-11367.6 0 0)
(-11377 0 0)
(-11386.5 0 0)
(-11396 0 0)
(-11405.5 0 0)
(-11415 0 0)
(-11424.4 0 0)
(-11433.9 0 0)
(-11443.4 0 0)
(-11452.9 0 0)
(-11462.3 0 0)
(-11471.8 0 0)
(-11481.2 0 0)
(-11490.7 0 0)
(-11500.1 0 0)
(-11509.6 0 0)
(-11519 0 0)
(-11528.5 0 0)
(-11537.9 0 0)
(-11547.3 0 0)
(-11556.8 0 0)
(-11566.2 0 0)
(-11575.6 0 0)
(-11585 0 0)
(-11594.5 0 0)
(-11603.9 0 0)
(-11613.3 0 0)
(-11622.7 0 0)
(-11632.1 0 0)
(-11641.5 0 0)
(-11650.9 0 0)
(-11660.3 0 0)
(-11669.7 0 0)
(-11679.1 0 0)
(-11688.4 0 0)
(-11697.8 0 0)
(-11707.2 0 0)
(-11716.6 0 0)
(-11725.9 0 0)
(-11735.3 0 0)
(-11744.7 0 0)
(-11754 0 0)
(-11763.4 0 0)
(-11772.7 0 0)
(-11782.1 0 0)
(-11791.4 0 0)
(-11800.7 0 0)
(-11810.1 0 0)
(-11819.4 0 0)
(-11828.7 0 0)
(-11838.1 0 0)
(-11847.4 0 0)
(-11856.7 0 0)
(-11866 0 0)
(-11875.3 0 0)
(-11884.6 0 0)
(-11893.9 0 0)
(-11903.2 0 0)
(-11912.5 0 0)
(-11921.8 0 0)
(-11931 0 0)
(-11940.3 0 0)
(-11949.6 0 0)
(-11958.8 0 0)
(-11968.1 0 0)
(-11977.4 0 0)
(-11986.6 0 0)
(-11995.9 0 0)
(-12005.1 0 0)
(-12014.3 0 0)
(-12023.6 0 0)
(-12032.8 0 0)
(-12042 0 0)
(-12051.3 0 0)
(-12060.5 0 0)
(-12069.7 0 0)
(-12078.9 0 0)
(-12088.1 0 0)
(-12097.3 0 0)
(-12106.5 0 0)
(-12115.6 0 0)
(-12124.8 0 0)
(-12134 0 0)
(-12143.2 0 0)
(-12152.3 0 0)
(-12161.5 0 0)
(-12170.6 0 0)
(-12179.8 0 0)
(-12188.9 0 0)
(-12198.1 0 0)
(-12207.2 0 0)
(-12216.3 0 0)
(-12225.4 0 0)
(-12234.5 0 0)
(-12243.7 0 0)
(-12252.8 0 0)
(-12261.9 0 0)
(-12270.9 0 0)
(-12280 0 0)
(-12289.1 0 0)
(-12298.2 0 0)
(-12307.2 0 0)
(-12316.3 0 0)
(-12325.4 0 0)
(-12334.4 0 0)
(-12343.5 0 0)
(-12352.5 0 0)
(-12361.5 0 0)
(-12370.5 0 0)
(-12379.6 0 0)
(-12388.6 0 0)
(-12397.6 0 0)
(-12406.6 0 0)
(-12415.6 0 0)
(-12424.5 0 0)
(-12433.5 0 0)
(-12442.5 0 0)
(-12451.5 0 0)
(-12460.4 0 0)
(-12469.4 0 0)
(-12478.3 0 0)
(-12487.2 0 0)
(-12496.2 0 0)
(-12505.1 0 0)
(-12514 0 0)
(-12522.9 0 0)
(-12531.8 0 0)
(-12540.7 0 0)
(-12549.6 0 0)
(-12558.5 0 0)
(-12567.4 0 0)
(-12576.2 0 0)
(-12585.1 0 0)
(-12593.9 0 0)
(-12602.8 0 0)
(-12611.6 0 0)
(-12620.4 0 0)
(-12629.3 0 0)
(-12638.1 0 0)
(-12646.9 0 0)
(-12655.7 0 0)
(-12664.4 0 0)
(-12673.2 0 0)
(-12682 0 0)
(-12690.8 0 0)
(-12699.5 0 0)
(-12708.3 0 0)
(-12717 0 0)
(-12725.7 0 0)
(-12734.5 0 0)
(-12743.2 0 0)
(-12751.9 0 0)
(-12760.6 0 0)
(-12769.2 0 0)
(-12777.9 0 0)
(-12786.6 0 0)
(-12795.3 0 0)
(-12803.9 0 0)
(-12812.6 0 0)
(-12821.2 0 0)
(-12829.8 0 0)
(-12838.4 0 0)
(-12847 0 0)
(-12855.6 0 0)
(-12864.2 0 0)
(-12872.8 0 0)
(-12881.4 0 0)
(-12889.9 0 0)
(-12898.5 0 0)
(-12907 0 0)
(-12915.5 0 0)
(-12924.1 0 0)
(-12932.6 0 0)
(-12941.1 0 0)
(-12949.6 0 0)
(-12958.1 0 0)
(-12966.5 0 0)
(-12975 0 0)
(-12983.4 0 0)
(-12991.9 0 0)
(-13000.3 0 0)
(-13008.7 0 0)
(-13017.1 0 0)
(-13025.5 0 0)
(-13033.9 0 0)
(-13042.3 0 0)
(-13050.7 0 0)
(-13059 0 0)
(-13067.4 0 0)
(-13075.7 0 0)
(-13084 0 0)
(-13092.3 0 0)
(-13100.6 0 0)
(-13108.9 0 0)
(-13117.2 0 0)
(-13125.5 0 0)
(-13133.7 0 0)
(-13142 0 0)
(-13150.2 0 0)
(-13158.4 0 0)
(-13166.6 0 0)
(-13174.8 0 0)
(-13183 0 0)
(-13191.2 0 0)
(-13199.3 0 0)
(-13207.5 0 0)
(-13215.6 0 0)
(-13223.7 0 0)
(-13231.8 0 0)
(-13239.9 0 0)
(-13248 0 0)
(-13256.1 0 0)
(-13264.1 0 0)
(-13272.2 0 0)
(-13280.2 0 0)
(-13288.2 0 0)
(-13296.2 0 0)
(-13304.2 0 0)
(-13312.2 0 0)
(-13320.2 0 0)
(-13328.1 0 0)
(-13336 0 0)
(-13343.9 0 0)
(-13351.9 0 0)
(-13359.7 0 0)
(-13367.6 0 0)
(-13375.5 0 0)
(-13383.3 0 0)
(-13391.1 0 0)
(-13399 0 0)
(-13406.7 0 0)
(-13414.5 0 0)
(-13422.3 0 0)
(-13430 0 0)
(-13437.8 0 0)
(-13445.5 0 0)
(-13453.2 0 0)
(-13460.9 0 0)
(-13468.5 0 0)
(-13476.2 0 0)
(-13483.8 0 0)
(-13491.4 0 0)
(-13499 0 0)
(-13506.6 0 0)
(-13514.1 0 0)
(-13521.7 0 0)
(-13529.2 0 0)
(-13536.7 0 0)
(-13544.2 0 0)
(-13551.6 0 0)
(-13559.1 0 0)
(-13566.5 0 0)
(-13573.9 0 0)
(-13581.2 0 0)
(-13588.6 0 0)
(-13595.9 0 0)
(-13603.2 0 0)
(-13610.5 0 0)
(-13617.8 0 0)
(-13625 0 0)
(-13632.2 0 0)
(-13639.4 0 0)
(-13646.6 0 0)
(-13653.7 0 0)
(-13660.8 0 0)
(-13667.9 0 0)
(-13675 0 0)
(-13682 0 0)
(-13689 0 0)
(-13696 0 0)
(-13702.9 0 0)
(-13709.9 0 0)
(-13716.8 0 0)
(-13723.6 0 0)
(-13730.5 0 0)
(-13737.2 0 0)
(-13744 0 0)
(-13750.7 0 0)
(-13757.4 0 0)
(-13764.1 0 0)
(-13770.7 0 0)
(-13777.3 0 0)
(-13783.9 0 0)
(-13790.4 0 0)
(-13796.9 0 0)
(-13803.3 0 0)
(-13809.7 0 0)
(-13816.1 0 0)
(-13822.4 0 0)
(-13828.7 0 0)
(-13834.9 0 0)
(-13841.1 0 0)
(-13847.2 0 0)
(-13853.3 0 0)
(-13859.4 0 0)
(-13865.4 0 0)
(-13871.3 0 0)
(-13877.2 0 0)
(-13883.1 0 0)
(-13888.8 0 0)
(-13894.6 0 0)
(-13900.2 0 0)
(-13905.9 0 0)
(-13911.4 0 0)
(-13916.9 0 0)
(-13922.3 0 0)
(-13927.7 0 0)
(-13933 0 0)
(-13938.2 0 0)
(-13943.4 0 0)
(-13948.4 0 0)
(-13953.5 0 0)
(-13958.4 0 0)
(-13963.2 0 0)
(-13968 0 0)
(-13972.7 0 0)
(-13977.3 0 0)
(-13981.8 0 0)
(-13986.2 0 0)
(-13990.5 0 0)
(-13994.8 0 0)
(-13998.9 0 0)
(-14002.9 0 0)
(-14006.9 0 0)
(-14010.7 0 0)
(-14014.4 0 0)
(-14018 0 0)
(-14021.4 0 0)
(-14024.8 0 0)
(-14028 0 0)
(-14031.1 0 0)
(-14034.1 0 0)
(-14036.9 0 0)
(-14039.6 0 0)
(-14042.1 0 0)
(-14044.5 0 0)
(-14046.7 0 0)
(-14048.7 0 0)
(-14050.6 0 0)
(-14052.4 0 0)
(-14053.9 0 0)
(-14055.3 0 0)
(-14056.4 0 0)
(-14057.4 0 0)
(-14058.2 0 0)
(-14058.7 0 0)
(-14059 0 0)
(-14059.2 0 0)
(-14059 0 0)
(-14058.7 0 0)
(-14058.1 0 0)
(-14057.2 0 0)
(-14056 0 0)
(-14054.6 0 0)
(-14052.9 0 0)
(-14050.9 0 0)
(-14048.6 0 0)
(-14045.9 0 0)
(-14043 0 0)
(-14039.7 0 0)
(-14036 0 0)
(-14031.9 0 0)
(-14027.5 0 0)
(-14022.6 0 0)
(-14017.4 0 0)
(-14011.7 0 0)
(-14005.5 0 0)
(-13998.9 0 0)
(-13991.8 0 0)
(-13984.2 0 0)
(-13976 0 0)
(-13967.4 0 0)
(-13958.1 0 0)
(-13948.2 0 0)
(-13937.7 0 0)
(-13926.6 0 0)
(-13914.7 0 0)
(-13902.2 0 0)
(-13888.9 0 0)
(-13874.9 0 0)
(-13860 0 0)
(-13844.3 0 0)
(-13827.7 0 0)
(-13810.2 0 0)
(-13791.8 0 0)
(-13772.3 0 0)
(-13751.8 0 0)
(-13730.2 0 0)
(-13707.4 0 0)
(-13683.4 0 0)
(-13658.2 0 0)
(-13631.6 0 0)
(-13603.7 0 0)
(-13574.3 0 0)
(-13543.3 0 0)
(-13510.8 0 0)
(-13476.6 0 0)
(-13440.7 0 0)
(-13402.9 0 0)
(-13363.2 0 0)
(-13321.5 0 0)
(-13277.7 0 0)
(-13231.8 0 0)
(-13183.5 0 0)
(-13132.8 0 0)
(-13079.5 0 0)
(-13023.7 0 0)
(-12965.1 0 0)
(-12903.6 0 0)
(-12839.2 0 0)
(-12771.6 0 0)
(-12700.8 0 0)
(-12626.6 0 0)
(-12548.9 0 0)
(-12467.6 0 0)
(-12382.5 0 0)
(-12293.4 0 0)
(-12200.4 0 0)
(-12103.1 0 0)
(-12001.5 0 0)
(-11895.5 0 0)
(-11784.8 0 0)
(-11669.5 0 0)
(-11549.3 0 0)
(-11424.2 0 0)
(-11294 0 0)
(-11158.7 0 0)
(-11018 0 0)
(-10872.1 0 0)
(-10720.7 0 0)
(-10563.9 0 0)
(-10401.6 0 0)
(-10233.6 0 0)
(-10060.1 0 0)
(-9881.04 0 0)
(-9696.37 0 0)
(-9506.16 0 0)
(-9310.45 0 0)
(-9109.31 0 0)
(-8902.83 0 0)
(-8691.12 0 0)
(-8474.31 0 0)
(-8252.55 0 0)
(-8026.01 0 0)
(-7794.89 0 0)
(-7559.41 0 0)
(-7319.8 0 0)
(-7076.31 0 0)
(-6829.24 0 0)
(-6578.88 0 0)
(-6325.54 0 0)
(-6069.56 0 0)
(-5811.3 0 0)
(-5551.1 0 0)
(-5289.37 0 0)
(-5026.48 0 0)
(-4762.83 0 0)
(-4498.83 0 0)
(-4234.9 0 0)
(-3971.45 0 0)
(-3708.9 0 0)
(-3447.66 0 0)
(-3188.16 0 0)
(-2930.79 0 0)
(-2675.95 0 0)
(-2424.05 0 0)
(-2175.45 0 0)
(-1930.52 0 0)
(-1689.61 0 0)
(-1453.06 0 0)
(-1221.17 0 0)
(-994.236 0 0)
(-772.531 0 0)
(-556.302 0 0)
(-345.772 0 0)
(-141.14 0 0)
(57.4197 0 0)
(249.757 0 0)
(435.749 0 0)
(615.297 0 0)
(788.328 0 0)
(954.792 0 0)
(1114.67 0 0)
(1267.95 0 0)
(1414.65 0 0)
(1554.83 0 0)
(1688.53 0 0)
(1815.85 0 0)
(1936.88 0 0)
(2051.73 0 0)
(2160.53 0 0)
(2263.43 0 0)
(2360.57 0 0)
(2452.13 0 0)
(2538.27 0 0)
(2619.18 0 0)
(2695.05 0 0)
(2766.05 0 0)
(2832.39 0 0)
(2894.27 0 0)
(2951.89 0 0)
(3005.43 0 0)
(3055.11 0 0)
(3101.1 0 0)
(3143.62 0 0)
(3182.83 0 0)
(3218.94 0 0)
(3252.12 0 0)
(3282.55 0 0)
(3310.38 0 0)
(3335.8 0 0)
(3358.95 0 0)
(3379.99 0 0)
(3399.06 0 0)
(3416.3 0 0)
(3431.84 0 0)
(3445.8 0 0)
(3458.3 0 0)
(3469.45 0 0)
(3479.36 0 0)
(3488.13 0 0)
(3495.84 0 0)
(3502.58 0 0)
(3508.44 0 0)
(3513.49 0 0)
(3517.8 0 0)
(3521.43 0 0)
(3524.45 0 0)
(3526.9 0 0)
(3528.85 0 0)
(3530.33 0 0)
(3531.39 0 0)
(3532.08 0 0)
(3532.43 0 0)
(3532.46 0 0)
(3532.22 0 0)
(3531.73 0 0)
(3531.01 0 0)
(3530.09 0 0)
(3528.99 0 0)
(3527.73 0 0)
(3526.33 0 0)
(3524.79 0 0)
(3523.14 0 0)
(3521.39 0 0)
(3519.55 0 0)
(3517.62 0 0)
(3515.63 0 0)
(3513.57 0 0)
(3511.45 0 0)
(3509.29 0 0)
(3507.08 0 0)
(3504.83 0 0)
(3502.55 0 0)
(3500.25 0 0)
(3497.91 0 0)
(3495.55 0 0)
(3493.17 0 0)
(3490.78 0 0)
(3488.37 0 0)
(3485.95 0 0)
(3483.51 0 0)
(3481.07 0 0)
(3478.62 0 0)
(3476.16 0 0)
(3473.7 0 0)
(3471.23 0 0)
(3468.75 0 0)
(3466.28 0 0)
(3463.8 0 0)
(3461.31 0 0)
(3458.83 0 0)
(3456.34 0 0)
(3453.86 0 0)
(3451.37 0 0)
(3448.88 0 0)
(3446.39 0 0)
(3443.9 0 0)
(3441.41 0 0)
(3438.92 0 0)
(3436.44 0 0)
(3433.95 0 0)
(3431.46 0 0)
(3428.98 0 0)
(3426.49 0 0)
(3424 0 0)
(3421.52 0 0)
(3419.04 0 0)
(3416.55 0 0)
(3414.07 0 0)
(3411.59 0 0)
(3409.11 0 0)
(3406.63 0 0)
(3404.16 0 0)
(3401.68 0 0)
(3399.21 0 0)
(3396.73 0 0)
(3394.26 0 0)
(3391.79 0 0)
(3389.32 0 0)
(3386.85 0 0)
(3384.38 0 0)
(3381.91 0 0)
(3379.44 0 0)
(3376.98 0 0)
(3374.52 0 0)
(3372.05 0 0)
(3369.59 0 0)
(3367.13 0 0)
(3364.67 0 0)
(3362.21 0 0)
(3359.75 0 0)
(3357.3 0 0)
(3354.84 0 0)
(3352.39 0 0)
(3349.94 0 0)
(3347.49 0 0)
(3345.04 0 0)
(3342.59 0 0)
(3340.14 0 0)
(3337.69 0 0)
(3335.25 0 0)
(3332.8 0 0)
(3330.36 0 0)
(3327.91 0 0)
(3325.47 0 0)
(3323.03 0 0)
(3320.59 0 0)
(3318.16 0 0)
(3315.72 0 0)
(3313.28 0 0)
(3310.85 0 0)
(3308.42 0 0)
(3305.98 0 0)
(3303.55 0 0)
(3301.12 0 0)
(3298.7 0 0)
(3296.27 0 0)
(3293.84 0 0)
(3291.42 0 0)
(3288.99 0 0)
(3286.57 0 0)
(3284.15 0 0)
(3281.73 0 0)
(3279.31 0 0)
(3276.89 0 0)
(3274.47 0 0)
(3272.05 0 0)
(3269.64 0 0)
(3267.23 0 0)
(3264.81 0 0)
(3262.4 0 0)
(3259.99 0 0)
(3257.58 0 0)
(3255.17 0 0)
(3252.77 0 0)
(3250.36 0 0)
(3247.95 0 0)
(3245.55 0 0)
(3243.15 0 0)
(3240.75 0 0)
(3238.35 0 0)
(3235.95 0 0)
(3233.55 0 0)
(3231.15 0 0)
(3228.76 0 0)
(3226.36 0 0)
(3223.97 0 0)
(3221.58 0 0)
(3219.18 0 0)
(3216.79 0 0)
(3214.41 0 0)
(3212.02 0 0)
(3209.63 0 0)
(3207.24 0 0)
(3204.86 0 0)
(3202.48 0 0)
(3200.09 0 0)
(3197.71 0 0)
(3195.33 0 0)
(3192.95 0 0)
(3190.58 0 0)
(3188.2 0 0)
(3185.82 0 0)
(3183.45 0 0)
(3181.08 0 0)
(3178.7 0 0)
(3176.33 0 0)
(3173.96 0 0)
(3171.59 0 0)
(3169.23 0 0)
(3166.86 0 0)
(3164.5 0 0)
(3162.13 0 0)
(3159.77 0 0)
(3157.41 0 0)
(3155.04 0 0)
(3152.69 0 0)
(3150.33 0 0)
(3147.97 0 0)
(3145.61 0 0)
(3143.26 0 0)
(3140.9 0 0)
(3138.55 0 0)
(3136.2 0 0)
(3133.85 0 0)
(3131.5 0 0)
(3129.15 0 0)
(3126.8 0 0)
(3124.45 0 0)
(3122.11 0 0)
(3119.77 0 0)
(3117.42 0 0)
(3115.08 0 0)
(3112.74 0 0)
(3110.4 0 0)
(3108.06 0 0)
(3105.72 0 0)
(3103.39 0 0)
(3101.05 0 0)
(3098.72 0 0)
(3096.39 0 0)
(3094.05 0 0)
(3091.72 0 0)
(3089.39 0 0)
(3087.06 0 0)
(3084.74 0 0)
(3082.41 0 0)
(3080.09 0 0)
(3077.76 0 0)
(3075.44 0 0)
(3073.12 0 0)
(3070.8 0 0)
(3068.48 0 0)
(3066.16 0 0)
(3063.84 0 0)
(3061.52 0 0)
(3059.21 0 0)
(3056.89 0 0)
(3054.58 0 0)
(3052.27 0 0)
(3049.96 0 0)
(3047.65 0 0)
(3045.34 0 0)
(3043.03 0 0)
(3040.73 0 0)
(3038.42 0 0)
(3036.12 0 0)
(3033.81 0 0)
(3031.51 0 0)
(3029.21 0 0)
(3026.91 0 0)
(3024.61 0 0)
(3022.32 0 0)
(3020.02 0 0)
(3017.72 0 0)
(3015.43 0 0)
(3013.14 0 0)
(3010.85 0 0)
(3008.55 0 0)
(3006.27 0 0)
(3003.98 0 0)
(3001.69 0 0)
(2999.4 0 0)
(2997.12 0 0)
(2994.83 0 0)
(2992.55 0 0)
(2990.27 0 0)
(2987.99 0 0)
(2985.71 0 0)
(2983.43 0 0)
(2981.15 0 0)
(2978.87 0 0)
(2976.6 0 0)
(2974.32 0 0)
(2972.05 0 0)
(2969.78 0 0)
(2967.51 0 0)
(2965.24 0 0)
(2962.97 0 0)
(2960.7 0 0)
(2958.44 0 0)
(2956.17 0 0)
(2953.91 0 0)
(2951.64 0 0)
(2949.38 0 0)
(2947.12 0 0)
(2944.86 0 0)
(2942.6 0 0)
(2940.34 0 0)
(2938.08 0 0)
(2935.83 0 0)
(2933.57 0 0)
(2931.32 0 0)
(2929.07 0 0)
(2926.82 0 0)
(2924.57 0 0)
(2922.32 0 0)
(2920.07 0 0)
(2917.82 0 0)
(2915.58 0 0)
(2913.33 0 0)
(2911.09 0 0)
(2908.85 0 0)
(2906.61 0 0)
(2904.36 0 0)
(2902.13 0 0)
(2899.89 0 0)
(2897.65 0 0)
(2895.41 0 0)
(2893.18 0 0)
(2890.95 0 0)
(2888.71 0 0)
(2886.48 0 0)
(2884.25 0 0)
(2882.02 0 0)
(2879.79 0 0)
(2877.57 0 0)
(2875.34 0 0)
(2873.11 0 0)
(2870.89 0 0)
(2868.67 0 0)
(2866.45 0 0)
(2864.22 0 0)
(2862.01 0 0)
(2859.79 0 0)
(2857.57 0 0)
(2855.35 0 0)
(2853.14 0 0)
(2850.92 0 0)
(2848.71 0 0)
(2846.5 0 0)
(2844.29 0 0)
(2842.08 0 0)
(2839.87 0 0)
(2837.66 0 0)
(2835.45 0 0)
(2833.25 0 0)
(2831.04 0 0)
(2828.84 0 0)
(2826.64 0 0)
(2824.44 0 0)
(2822.24 0 0)
(2820.04 0 0)
(2817.84 0 0)
(2815.64 0 0)
(2813.45 0 0)
(2811.25 0 0)