/*--------------------------------*- C++ -*----------------------------------*\
  =========                 |
  \\      /  F ield         | OpenFOAM: The Open Source CFD Toolbox
   \\    /   O peration     | Website:  https://openfoam.org
    \\  /    A nd           | Version:  9
     \\/     M anipulation  |
\*---------------------------------------------------------------------------*/
FoamFile
{
    format      ascii;
    class       volScalarField;
    location    "0.017";
    object      p;
}
// * * * * * * * * * * * * * * * * * * * * * * * * * * * * * * * * * * * * * //

dimensions      [1 -1 -2 0 0 0 0];

internalField   nonuniform List<scalar> 
10000
(
58347.6
58347.1
58346.8
58346.5
58346.2
58345.9
58345.6
58345.2
58344.9
58344.6
58344.3
58343.9
58343.6
58343.3
58342.9
58342.6
58342.3
58341.9
58341.6
58341.3
58340.9
58340.6
58340.3
58339.9
58339.6
58339.3
58338.9
58338.6
58338.2
58337.9
58337.6
58337.2
58336.9
58336.5
58336.2
58335.8
58335.5
58335.1
58334.8
58334.4
58334.1
58333.7
58333.4
58333
58332.7
58332.3
58332
58331.6
58331.3
58330.9
58330.6
58330.2
58329.8
58329.5
58329.1
58328.8
58328.4
58328
58327.7
58327.3
58326.9
58326.6
58326.2
58325.8
58325.5
58325.1
58324.7
58324.4
58324
58323.6
58323.2
58322.9
58322.5
58322.1
58321.7
58321.4
58321
58320.6
58320.2
58319.9
58319.5
58319.1
58318.7
58318.3
58317.9
58317.6
58317.2
58316.8
58316.4
58316
58315.6
58315.2
58314.8
58314.5
58314.1
58313.7
58313.3
58312.9
58312.5
58312.1
58311.7
58311.3
58310.9
58310.5
58310.1
58309.7
58309.3
58308.9
58308.5
58308.1
58307.7
58307.3
58306.9
58306.5
58306.1
58305.7
58305.2
58304.8
58304.4
58304
58303.6
58303.2
58302.8
58302.4
58301.9
58301.5
58301.1
58300.7
58300.3
58299.9
58299.4
58299
58298.6
58298.2
58297.8
58297.3
58296.9
58296.5
58296.1
58295.6
58295.2
58294.8
58294.3
58293.9
58293.5
58293.1
58292.6
58292.2
58291.8
58291.3
58290.9
58290.5
58290
58289.6
58289.1
58288.7
58288.3
58287.8
58287.4
58286.9
58286.5
58286.1
58285.6
58285.2
58284.7
58284.3
58283.8
58283.4
58282.9
58282.5
58282
58281.6
58281.1
58280.7
58280.2
58279.8
58279.3
58278.8
58278.4
58277.9
58277.5
58277
58276.6
58276.1
58275.6
58275.2
58274.7
58274.2
58273.8
58273.3
58272.8
58272.4
58271.9
58271.4
58271
58270.5
58270
58269.6
58269.1
58268.6
58268.1
58267.7
58267.2
58266.7
58266.2
58265.8
58265.3
58264.8
58264.3
58263.8
58263.4
58262.9
58262.4
58261.9
58261.4
58260.9
58260.4
58260
58259.5
58259
58258.5
58258
58257.5
58257
58256.5
58256
58255.5
58255
58254.5
58254
58253.5
58253
58252.5
58252
58251.5
58251
58250.5
58250
58249.5
58249
58248.5
58248
58247.5
58247
58246.5
58246
58245.5
58245
58244.4
58243.9
58243.4
58242.9
58242.4
58241.9
58241.4
58240.8
58240.3
58239.8
58239.3
58238.8
58238.2
58237.7
58237.2
58236.7
58236.2
58235.6
58235.1
58234.6
58234
58233.5
58233
58232.5
58231.9
58231.4
58230.9
58230.3
58229.8
58229.3
58228.7
58228.2
58227.6
58227.1
58226.6
58226
58225.5
58225
58224.4
58223.9
58223.3
58222.8
58222.2
58221.7
58221.1
58220.6
58220
58219.5
58218.9
58218.4
58217.8
58217.3
58216.7
58216.2
58215.6
58215.1
58214.5
58214
58213.4
58212.8
58212.3
58211.7
58211.2
58210.6
58210
58209.5
58208.9
58208.3
58207.8
58207.2
58206.6
58206.1
58205.5
58204.9
58204.4
58203.8
58203.2
58202.7
58202.1
58201.5
58200.9
58200.4
58199.8
58199.2
58198.6
58198
58197.5
58196.9
58196.3
58195.7
58195.1
58194.6
58194
58193.4
58192.8
58192.2
58191.6
58191
58190.4
58189.9
58189.3
58188.7
58188.1
58187.5
58186.9
58186.3
58185.7
58185.1
58184.5
58183.9
58183.3
58182.7
58182.1
58181.5
58180.9
58180.3
58179.7
58179.1
58178.5
58177.9
58177.3
58176.7
58176.1
58175.4
58174.8
58174.2
58173.6
58173
58172.4
58171.8
58171.2
58170.5
58169.9
58169.3
58168.7
58168.1
58167.4
58166.8
58166.2
58165.6
58165
58164.3
58163.7
58163.1
58162.5
58161.8
58161.2
58160.6
58159.9
58159.3
58158.7
58158.1
58157.4
58156.8
58156.2
58155.5
58154.9
58154.2
58153.6
58153
58152.3
58151.7
58151
58150.4
58149.8
58149.1
58148.5
58147.8
58147.2
58146.5
58145.9
58145.2
58144.6
58143.9
58143.3
58142.6
58142
58141.3
58140.7
58140
58139.4
58138.7
58138.1
58137.4
58136.7
58136.1
58135.4
58134.8
58134.1
58133.4
58132.8
58132.1
58131.5
58130.8
58130.1
58129.5
58128.8
58128.1
58127.4
58126.8
58126.1
58125.4
58124.8
58124.1
58123.4
58122.7
58122.1
58121.4
58120.7
58120
58119.3
58118.7
58118
58117.3
58116.6
58115.9
58115.3
58114.6
58113.9
58113.2
58112.5
58111.8
58111.1
58110.4
58109.8
58109.1
58108.4
58107.7
58107
58106.3
58105.6
58104.9
58104.2
58103.5
58102.8
58102.1
58101.4
58100.7
58100
58099.3
58098.6
58097.9
58097.2
58096.5
58095.8
58095.1
58094.4
58093.6
58092.9
58092.2
58091.5
58090.8
58090.1
58089.4
58088.7
58087.9
58087.2
58086.5
58085.8
58085.1
58084.4
58083.6
58082.9
58082.2
58081.5
58080.7
58080
58079.3
58078.6
58077.8
58077.1
58076.4
58075.6
58074.9
58074.2
58073.5
58072.7
58072
58071.3
58070.5
58069.8
58069
58068.3
58067.6
58066.8
58066.1
58065.4
58064.6
58063.9
58063.1
58062.4
58061.6
58060.9
58060.1
58059.4
58058.6
58057.9
58057.1
58056.4
58055.6
58054.9
58054.1
58053.4
58052.6
58051.9
58051.1
58050.4
58049.6
58048.8
58048.1
58047.3
58046.6
58045.8
58045
58044.3
58043.5
58042.7
58042
58041.2
58040.4
58039.7
58038.9
58038.1
58037.4
58036.6
58035.8
58035
58034.3
58033.5
58032.7
58031.9
58031.2
58030.4
58029.6
58028.8
58028
58027.3
58026.5
58025.7
58024.9
58024.1
58023.3
58022.6
58021.8
58021
58020.2
58019.4
58018.6
58017.8
58017
58016.2
58015.4
58014.6
58013.9
58013.1
58012.3
58011.5
58010.7
58009.9
58009.1
58008.3
58007.5
58006.7
58005.9
58005
58004.2
58003.4
58002.6
58001.8
58001
58000.2
57999.4
57998.6
57997.8
57997
57996.1
57995.3
57994.5
57993.7
57992.9
57992.1
57991.2
57990.4
57989.6
57988.8
57988
57987.1
57986.3
57985.5
57984.7
57983.8
57983
57982.2
57981.4
57980.5
57979.7
57978.9
57978
57977.2
57976.4
57975.5
57974.7
57973.9
57973
57972.2
57971.3
57970.5
57969.7
57968.8
57968
57967.1
57966.3
57965.5
57964.6
57963.8
57962.9
57962.1
57961.2
57960.4
57959.5
57958.7
57957.8
57957
57956.1
57955.3
57954.4
57953.5
57952.7
57951.8
57951
57950.1
57949.3
57948.4
57947.5
57946.7
57945.8
57944.9
57944.1
57943.2
57942.3
57941.5
57940.6
57939.7
57938.9
57938
57937.1
57936.3
57935.4
57934.5
57933.6
57932.8
57931.9
57931
57930.1
57929.2
57928.4
57927.5
57926.6
57925.7
57924.8
57924
57923.1
57922.2
57921.3
57920.4
57919.5
57918.6
57917.7
57916.9
57916
57915.1
57914.2
57913.3
57912.4
57911.5
57910.6
57909.7
57908.8
57907.9
57907
57906.1
57905.2
57904.3
57903.4
57902.5
57901.6
57900.7
57899.8
57898.9
57898
57897
57896.1
57895.2
57894.3
57893.4
57892.5
57891.6
57890.7
57889.7
57888.8
57887.9
57887
57886.1
57885.1
57884.2
57883.3
57882.4
57881.5
57880.5
57879.6
57878.7
57877.8
57876.8
57875.9
57875
57874
57873.1
57872.2
57871.2
57870.3
57869.4
57868.4
57867.5
57866.6
57865.6
57864.7
57863.8
57862.8
57861.9
57860.9
57860
57859
57858.1
57857.2
57856.2
57855.3
57854.3
57853.4
57852.4
57851.5
57850.5
57849.6
57848.6
57847.7
57846.7
57845.7
57844.8
57843.8
57842.9
57841.9
57841
57840
57839
57838.1
57837.1
57836.1
57835.2
57834.2
57833.2
57832.3
57831.3
57830.3
57829.4
57828.4
57827.4
57826.5
57825.5
57824.5
57823.5
57822.6
57821.6
57820.6
57819.6
57818.6
57817.7
57816.7
57815.7
57814.7
57813.7
57812.8
57811.8
57810.8
57809.8
57808.8
57807.8
57806.8
57805.8
57804.8
57803.9
57802.9
57801.9
57800.9
57799.9
57798.9
57797.9
57796.9
57795.9
57794.9
57793.9
57792.9
57791.9
57790.9
57789.9
57788.9
57787.9
57786.9
57785.9
57784.8
57783.8
57782.8
57781.8
57780.8
57779.8
57778.8
57777.8
57776.7
57775.7
57774.7
57773.7
57772.7
57771.7
57770.6
57769.6
57768.6
57767.6
57766.6
57765.5
57764.5
57763.5
57762.4
57761.4
57760.4
57759.4
57758.3
57757.3
57756.3
57755.2
57754.2
57753.2
57752.1
57751.1
57750.1
57749
57748
57746.9
57745.9
57744.9
57743.8
57742.8
57741.7
57740.7
57739.6
57738.6
57737.5
57736.5
57735.4
57734.4
57733.3
57732.3
57731.2
57730.2
57729.1
57728.1
57727
57726
57724.9
57723.8
57722.8
57721.7
57720.7
57719.6
57718.5
57717.5
57716.4
57715.3
57714.3
57713.2
57712.1
57711.1
57710
57708.9
57707.8
57706.8
57705.7
57704.6
57703.5
57702.5
57701.4
57700.3
57699.2
57698.2
57697.1
57696
57694.9
57693.8
57692.7
57691.7
57690.6
57689.5
57688.4
57687.3
57686.2
57685.1
57684
57682.9
57681.8
57680.8
57679.7
57678.6
57677.5
57676.4
57675.3
57674.2
57673.1
57672
57670.9
57669.8
57668.7
57667.6
57666.4
57665.3
57664.2
57663.1
57662
57660.9
57659.8
57658.7
57657.6
57656.5
57655.3
57654.2
57653.1
57652
57650.9
57649.8
57648.6
57647.5
57646.4
57645.3
57644.1
57643
57641.9
57640.8
57639.6
57638.5
57637.4
57636.3
57635.1
57634
57632.9
57631.7
57630.6
57629.5
57628.3
57627.2
57626
57624.9
57623.8
57622.6
57621.5
57620.3
57619.2
57618.1
57616.9
57615.8
57614.6
57613.5
57612.3
57611.2
57610
57608.9
57607.7
57606.6
57605.4
57604.3
57603.1
57601.9
57600.8
57599.6
57598.5
57597.3
57596.2
57595
57593.8
57592.7
57591.5
57590.3
57589.2
57588
57586.8
57585.7
57584.5
57583.3
57582.1
57581
57579.8
57578.6
57577.4
57576.3
57575.1
57573.9
57572.7
57571.6
57570.4
57569.2
57568
57566.8
57565.6
57564.5
57563.3
57562.1
57560.9
57559.7
57558.5
57557.3
57556.1
57554.9
57553.7
57552.5
57551.3
57550.1
57548.9
57547.7
57546.5
57545.3
57544.1
57542.9
57541.7
57540.5
57539.3
57538.1
57536.9
57535.7
57534.5
57533.3
57532.1
57530.9
57529.7
57528.4
57527.2
57526
57524.8
57523.6
57522.4
57521.1
57519.9
57518.7
57517.5
57516.2
57515
57513.8
57512.6
57511.3
57510.1
57508.9
57507.7
57506.4
57505.2
57504
57502.7
57501.5
57500.3
57499
57497.8
57496.5
57495.3
57494.1
57492.8
57491.6
57490.3
57489.1
57487.8
57486.6
57485.4
57484.1
57482.9
57481.6
57480.4
57479.1
57477.8
57476.6
57475.3
57474.1
57472.8
57471.6
57470.3
57469
57467.8
57466.5
57465.3
57464
57462.7
57461.5
57460.2
57458.9
57457.7
57456.4
57455.1
57453.9
57452.6
57451.3
57450
57448.8
57447.5
57446.2
57444.9
57443.6
57442.4
57441.1
57439.8
57438.5
57437.2
57435.9
57434.7
57433.4
57432.1
57430.8
57429.5
57428.2
57426.9
57425.6
57424.3
57423
57421.7
57420.4
57419.1
57417.8
57416.5
57415.2
57413.9
57412.6
57411.3
57410
57408.7
57407.4
57406.1
57404.8
57403.5
57402.2
57400.8
57399.5
57398.2
57396.9
57395.6
57394.3
57392.9
57391.6
57390.3
57389
57387.7
57386.3
57385
57383.7
57382.3
57381
57379.7
57378.4
57377
57375.7
57374.4
57373
57371.7
57370.3
57369
57367.7
57366.3
57365
57363.6
57362.3
57360.9
57359.6
57358.3
57356.9
57355.6
57354.2
57352.9
57351.5
57350.1
57348.8
57347.4
57346.1
57344.7
57343.4
57342
57340.6
57339.3
57337.9
57336.5
57335.2
57333.8
57332.4
57331.1
57329.7
57328.3
57327
57325.6
57324.2
57322.8
57321.4
57320.1
57318.7
57317.3
57315.9
57314.5
57313.2
57311.8
57310.4
57309
57307.6
57306.2
57304.8
57303.4
57302
57300.6
57299.2
57297.8
57296.4
57295
57293.6
57292.2
57290.8
57289.4
57288
57286.6
57285.2
57283.8
57282.4
57281
57279.6
57278.1
57276.7
57275.3
57273.9
57272.5
57271
57269.6
57268.2
57266.8
57265.3
57263.9
57262.5
57261.1
57259.6
57258.2
57256.8
57255.3
57253.9
57252.4
57251
57249.6
57248.1
57246.7
57245.2
57243.8
57242.3
57240.9
57239.4
57238
57236.5
57235.1
57233.6
57232.2
57230.7
57229.3
57227.8
57226.3
57224.9
57223.4
57221.9
57220.5
57219
57217.5
57216.1
57214.6
57213.1
57211.6
57210.2
57208.7
57207.2
57205.7
57204.2
57202.7
57201.3
57199.8
57198.3
57196.8
57195.3
57193.8
57192.3
57190.8
57189.3
57187.8
57186.3
57184.8
57183.3
57181.8
57180.3
57178.8
57177.3
57175.8
57174.3
57172.7
57171.2
57169.7
57168.2
57166.7
57165.1
57163.6
57162.1
57160.6
57159
57157.5
57156
57154.4
57152.9
57151.4
57149.8
57148.3
57146.8
57145.2
57143.7
57142.1
57140.6
57139
57137.5
57135.9
57134.4
57132.8
57131.3
57129.7
57128.1
57126.6
57125
57123.4
57121.9
57120.3
57118.7
57117.2
57115.6
57114
57112.4
57110.8
57109.3
57107.7
57106.1
57104.5
57102.9
57101.3
57099.7
57098.1
57096.5
57094.9
57093.3
57091.7
57090.1
57088.5
57086.9
57085.3
57083.7
57082.1
57080.5
57078.8
57077.2
57075.6
57074
57072.3
57070.7
57069.1
57067.5
57065.8
57064.2
57062.5
57060.9
57059.3
57057.6
57056
57054.3
57052.7
57051
57049.4
57047.7
57046
57044.4
57042.7
57041.1
57039.4
57037.7
57036
57034.4
57032.7
57031
57029.3
57027.6
57026
57024.3
57022.6
57020.9
57019.2
57017.5
57015.8
57014.1
57012.4
57010.7
57008.9
57007.2
57005.5
57003.8
57002.1
57000.3
56998.6
56996.9
56995.1
56993.4
56991.7
56989.9
56988.2
56986.4
56984.7
56982.9
56981.1
56979.4
56977.6
56975.8
56974.1
56972.3
56970.5
56968.7
56966.9
56965.1
56963.4
56961.6
56959.8
56957.9
56956.1
56954.3
56952.5
56950.7
56948.9
56947
56945.2
56943.4
56941.5
56939.7
56937.8
56936
56934.1
56932.2
56930.3
56928.5
56926.6
56924.7
56922.8
56920.9
56919
56917.1
56915.2
56913.3
56911.3
56909.4
56907.5
56905.5
56903.5
56901.6
56899.6
56897.6
56895.7
56893.7
56891.7
56889.7
56887.6
56885.6
56883.6
56881.5
56879.5
56877.4
56875.4
56873.3
56871.2
56869.1
56867
56864.9
56862.7
56860.6
56858.4
56856.2
56854.1
56851.9
56849.6
56847.4
56845.2
56842.9
56840.6
56838.4
56836
56833.7
56831.4
56829
56826.6
56824.2
56821.8
56819.3
56816.9
56814.4
56811.8
56809.3
56806.7
56804.1
56801.5
56798.8
56796.1
56793.4
56790.6
56787.8
56785
56782.1
56779.2
56776.3
56773.3
56770.2
56767.1
56764
56760.8
56757.5
56754.2
56750.9
56747.4
56744
56740.4
56736.8
56733.1
56729.4
56725.5
56721.6
56717.6
56713.6
56709.4
56705.2
56700.8
56696.4
56691.9
56687.2
56682.5
56677.7
56672.8
56667.7
56662.6
56657.3
56651.9
56646.4
56640.8
56635.1
56629.2
56623.2
56617.1
56610.8
56604.5
56598
56591.3
56584.5
56577.6
56570.6
56563.4
56556.1
56548.7
56541.2
56533.5
56525.6
56517.7
56509.6
56501.4
56493.1
56484.7
56476.1
56467.4
56458.6
56449.7
56440.7
56431.6
56422.3
56413
56403.6
56394.1
56384.5
56374.8
56365
56355.1
56345.2
56335.1
56325
56314.9
56304.7
56294.4
56284
56273.6
56263.2
56252.7
56242.1
56231.5
56220.9
56210.2
56199.5
56188.8
56178
56167.2
56156.4
56145.5
56134.6
56123.7
56112.8
56101.9
56090.9
56079.9
56068.9
56057.9
56046.9
56035.9
56024.9
56013.8
56002.8
55991.7
55980.7
55969.6
55958.5
55947.5
55936.4
55925.3
55914.2
55903.1
55892
55881
55869.9
55858.8
55847.7
55836.6
55825.5
55814.4
55803.3
55792.2
55781.1
55770
55759
55747.9
55736.8
55725.7
55714.6
55703.5
55692.4
55681.4
55670.3
55659.2
55648.1
55637.1
55626
55614.9
55603.8
55592.8
55581.7
55570.6
55559.6
55548.5
55537.5
55526.4
55515.4
55504.3
55493.3
55482.2
55471.2
55460.1
55449.1
55438
55427
55416
55404.9
55393.9
55382.9
55371.8
55360.8
55349.8
55338.7
55327.7
55316.7
55305.7
55294.7
55283.6
55272.6
55261.6
55250.6
55239.6
55228.6
55217.6
55206.6
55195.6
55184.6
55173.6
55162.6
55151.6
55140.6
55129.6
55118.6
55107.7
55096.7
55085.7
55074.7
55063.7
55052.8
55041.8
55030.8
55019.8
55008.9
54997.9
54986.9
54976
54965
54954.1
54943.1
54932.2
54921.2
54910.2
54899.3
54888.4
54877.4
54866.5
54855.5
54844.6
54833.6
54822.7
54811.8
54800.8
54789.9
54779
54768.1
54757.1
54746.2
54735.3
54724.4
54713.4
54702.5
54691.6
54680.7
54669.8
54658.9
54648
54637.1
54626.2
54615.3
54604.4
54593.5
54582.6
54571.7
54560.8
54549.9
54539
54528.1
54517.2
54506.4
54495.5
54484.6
54473.7
54462.9
54452
54441.1
54430.2
54419.4
54408.5
54397.6
54386.8
54375.9
54365.1
54354.2
54343.4
54332.5
54321.7
54310.8
54300
54289.1
54278.3
54267.4
54256.6
54245.8
54234.9
54224.1
54213.3
54202.4
54191.6
54180.8
54169.9
54159.1
54148.3
54137.5
54126.7
54115.8
54105
54094.2
54083.4
54072.6
54061.8
54051
54040.2
54029.4
54018.6
54007.8
53997
53986.2
53975.4
53964.6
53953.8
53943.1
53932.3
53921.5
53910.7
53899.9
53889.2
53878.4
53867.6
53856.8
53846.1
53835.3
53824.5
53813.8
53803
53792.3
53781.5
53770.7
53760
53749.2
53738.5
53727.7
53717
53706.2
53695.5
53684.8
53674
53663.3
53652.5
53641.8
53631.1
53620.3
53609.6
53598.9
53588.2
53577.4
53566.7
53556
53545.3
53534.6
53523.9
53513.1
53502.4
53491.7
53481
53470.3
53459.6
53448.9
53438.2
53427.5
53416.8
53406.1
53395.4
53384.7
53374.1
53363.4
53352.7
53342
53331.3
53320.6
53310
53299.3
53288.6
53277.9
53267.3
53256.6
53245.9
53235.3
53224.6
53214
53203.3
53192.6
53182
53171.3
53160.7
53150
53139.4
53128.7
53118.1
53107.5
53096.8
53086.2
53075.5
53064.9
53054.3
53043.6
53033
53022.4
53011.8
53001.1
52990.5
52979.9
52969.3
52958.7
52948
52937.4
52926.8
52916.2
52905.6
52895
52884.4
52873.8
52863.2
52852.6
52842
52831.4
52820.8
52810.2
52799.6
52789
52778.5
52767.9
52757.3
52746.7
52736.1
52725.6
52715
52704.4
52693.8
52683.3
52672.7
52662.1
52651.6
52641
52630.5
52619.9
52609.3
52598.8
52588.2
52577.7
52567.1
52556.6
52546
52535.5
52525
52514.4
52503.9
52493.3
52482.8
52472.3
52461.7
52451.2
52440.7
52430.2
52419.6
52409.1
52398.6
52388.1
52377.6
52367
52356.5
52346
52335.5
52325
52314.5
52304
52293.5
52283
52272.5
52262
52251.5
52241
52230.5
52220
52209.5
52199.1
52188.6
52178.1
52167.6
52157.1
52146.7
52136.2
52125.7
52115.2
52104.8
52094.3
52083.8
52073.4
52062.9
52052.4
52042
52031.5
52021.1
52010.6
52000.2
51989.7
51979.3
51968.8
51958.4
51947.9
51937.5
51927.1
51916.6
51906.2
51895.8
51885.3
51874.9
51864.5
51854
51843.6
51833.2
51822.8
51812.4
51801.9
51791.5
51781.1
51770.7
51760.3
51749.9
51739.5
51729.1
51718.7
51708.3
51697.9
51687.5
51677.1
51666.7
51656.3
51645.9
51635.5
51625.1
51614.7
51604.4
51594
51583.6
51573.2
51562.8
51552.5
51542.1
51531.7
51521.4
51511
51500.6
51490.3
51479.9
51469.5
51459.2
51448.8
51438.5
51428.1
51417.8
51407.4
51397.1
51386.7
51376.4
51366
51355.7
51345.4
51335
51324.7
51314.4
51304
51293.7
51283.4
51273
51262.7
51252.4
51242.1
51231.8
51221.4
51211.1
51200.8
51190.5
51180.2
51169.9
51159.6
51149.3
51139
51128.7
51118.4
51108.1
51097.8
51087.5
51077.2
51066.9
51056.6
51046.3
51036
51025.8
51015.5
51005.2
50994.9
50984.6
50974.4
50964.1
50953.8
50943.6
50933.3
50923
50912.8
50902.5
50892.2
50882
50871.7
50861.5
50851.2
50841
50830.7
50820.5
50810.2
50800
50789.7
50779.5
50769.3
50759
50748.8
50738.6
50728.3
50718.1
50707.9
50697.6
50687.4
50677.2
50667
50656.8
50646.5
50636.3
50626.1
50615.9
50605.7
50595.5
50585.3
50575.1
50564.9
50554.7
50544.5
50534.3
50524.1
50513.9
50503.7
50493.5
50483.3
50473.1
50462.9
50452.7
50442.6
50432.4
50422.2
50412
50401.9
50391.7
50381.5
50371.3
50361.2
50351
50340.8
50330.7
50320.5
50310.4
50300.2
50290
50279.9
50269.7
50259.6
50249.4
50239.3
50229.2
50219
50208.9
50198.7
50188.6
50178.5
50168.3
50158.2
50148.1
50137.9
50127.8
50117.7
50107.5
50097.4
50087.3
50077.2
50067.1
50057
50046.8
50036.7
50026.6
50016.5
50006.4
49996.3
49986.2
49976.1
49966
49955.9
49945.8
49935.7
49925.6
49915.5
49905.4
49895.4
49885.3
49875.2
49865.1
49855
49844.9
49834.9
49824.8
49814.7
49804.6
49794.6
49784.5
49774.4
49764.4
49754.3
49744.3
49734.2
49724.1
49714.1
49704
49694
49683.9
49673.9
49663.8
49653.8
49643.7
49633.7
49623.7
49613.6
49603.6
49593.6
49583.5
49573.5
49563.5
49553.4
49543.4
49533.4
49523.4
49513.3
49503.3
49493.3
49483.3
49473.3
49463.3
49453.3
49443.2
49433.2
49423.2
49413.2
49403.2
49393.2
49383.2
49373.2
49363.2
49353.2
49343.3
49333.3
49323.3
49313.3
49303.3
49293.3
49283.3
49273.4
49263.4
49253.4
49243.4
49233.5
49223.5
49213.5
49203.6
49193.6
49183.6
49173.7
49163.7
49153.8
49143.8
49133.8
49123.9
49113.9
49104
49094
49084.1
49074.2
49064.2
49054.3
49044.3
49034.4
49024.5
49014.5
49004.6
48994.7
48984.7
48974.8
48964.9
48955
48945
48935.1
48925.2
48915.3
48905.4
48895.5
48885.5
48875.6
48865.7
48855.8
48845.9
48836
48826.1
48816.2
48806.3
48796.4
48786.5
48776.6
48766.7
48756.8
48747
48737.1
48727.2
48717.3
48707.4
48697.6
48687.7
48677.8
48667.9
48658.1
48648.2
48638.3
48628.4
48618.6
48608.7
48598.9
48589
48579.1
48569.3
48559.4
48549.6
48539.7
48529.9
48520
48510.2
48500.3
48490.5
48480.7
48470.8
48461
48451.1
48441.3
48431.5
48421.6
48411.8
48402
48392.2
48382.3
48372.5
48362.7
48352.9
48343.1
48333.2
48323.4
48313.6
48303.8
48294
48284.2
48274.4
48264.6
48254.8
48245
48235.2
48225.4
48215.6
48205.8
48196
48186.2
48176.4
48166.7
48156.9
48147.1
48137.3
48127.5
48117.7
48108
48098.2
48088.4
48078.7
48068.9
48059.1
48049.4
48039.6
48029.8
48020.1
48010.3
48000.6
47990.8
47981
47971.3
47961.5
47951.8
47942
47932.3
47922.6
47912.8
47903.1
47893.3
47883.6
47873.9
47864.1
47854.4
47844.7
47834.9
47825.2
47815.5
47805.8
47796
47786.3
47776.6
47766.9
47757.2
47747.5
47737.8
47728
47718.3
47708.6
47698.9
47689.2
47679.5
47669.8
47660.1
47650.4
47640.7
47631
47621.4
47611.7
47602
47592.3
47582.6
47572.9
47563.2
47553.6
47543.9
47534.2
47524.5
47514.9
47505.2
47495.5
47485.9
47476.2
47466.5
47456.9
47447.2
47437.6
47427.9
47418.2
47408.6
47398.9
47389.3
47379.6
47370
47360.3
47350.7
47341.1
47331.4
47321.8
47312.1
47302.5
47292.9
47283.2
47273.6
47264
47254.4
47244.7
47235.1
47225.5
47215.9
47206.3
47196.6
47187
47177.4
47167.8
47158.2
47148.6
47139
47129.4
47119.8
47110.2
47100.6
47091
47081.4
47071.8
47062.2
47052.6
47043
47033.4
47023.8
47014.2
47004.7
46995.1
46985.5
46975.9
46966.4
46956.8
46947.2
46937.6
46928.1
46918.5
46908.9
46899.4
46889.8
46880.2
46870.7
46861.1
46851.6
46842
46832.5
46822.9
46813.4
46803.8
46794.3
46784.7
46775.2
46765.6
46756.1
46746.6
46737
46727.5
46718
46708.4
46698.9
46689.4
46679.9
46670.3
46660.8
46651.3
46641.8
46632.2
46622.7
46613.2
46603.7
46594.2
46584.7
46575.2
46565.7
46556.2
46546.7
46537.2
46527.7
46518.2
46508.7
46499.2
46489.7
46480.2
46470.7
46461.2
46451.7
46442.3
46432.8
46423.3
46413.8
46404.3
46394.9
46385.4
46375.9
46366.4
46357
46347.5
46338
46328.6
46319.1
46309.7
46300.2
46290.7
46281.3
46271.8
46262.4
46252.9
46243.5
46234
46224.6
46215.1
46205.7
46196.3
46186.8
46177.4
46167.9
46158.5
46149.1
46139.6
46130.2
46120.8
46111.4
46101.9
46092.5
46083.1
46073.7
46064.3
46054.8
46045.4
46036
46026.6
46017.2
46007.8
45998.4
45989
45979.6
45970.2
45960.8
45951.4
45942
45932.6
45923.2
45913.8
45904.4
45895
45885.6
45876.3
45866.9
45857.5
45848.1
45838.7
45829.4
45820
45810.6
45801.2
45791.9
45782.5
45773.1
45763.8
45754.4
45745
45735.7
45726.3
45717
45707.6
45698.3
45688.9
45679.6
45670.2
45660.9
45651.5
45642.2
45632.8
45623.5
45614.2
45604.8
45595.5
45586.2
45576.8
45567.5
45558.2
45548.8
45539.5
45530.2
45520.9
45511.5
45502.2
45492.9
45483.6
45474.3
45465
45455.7
45446.3
45437
45427.7
45418.4
45409.1
45399.8
45390.5
45381.2
45371.9
45362.6
45353.4
45344.1
45334.8
45325.5
45316.2
45306.9
45297.6
45288.4
45279.1
45269.8
45260.5
45251.2
45242
45232.7
45223.4
45214.2
45204.9
45195.6
45186.4
45177.1
45167.9
45158.6
45149.3
45140.1
45130.8
45121.6
45112.3
45103.1
45093.8
45084.6
45075.3
45066.1
45056.9
45047.6
45038.4
45029.2
45019.9
45010.7
45001.5
44992.2
44983
44973.8
44964.6
44955.3
44946.1
44936.9
44927.7
44918.5
44909.2
44900
44890.8
44881.6
44872.4
44863.2
44854
44844.8
44835.6
44826.4
44817.2
44808
44798.8
44789.6
44780.4
44771.2
44762
44752.9
44743.7
44734.5
44725.3
44716.1
44707
44697.8
44688.6
44679.4
44670.3
44661.1
44651.9
44642.7
44633.6
44624.4
44615.3
44606.1
44596.9
44587.8
44578.6
44569.5
44560.3
44551.2
44542
44532.9
44523.7
44514.6
44505.4
44496.3
44487.2
44478
44468.9
44459.8
44450.6
44441.5
44432.4
44423.2
44414.1
44405
44395.9
44386.7
44377.6
44368.5
44359.4
44350.3
44341.2
44332
44322.9
44313.8
44304.7
44295.6
44286.5
44277.4
44268.3
44259.2
44250.1
44241
44231.9
44222.8
44213.7
44204.6
44195.6
44186.5
44177.4
44168.3
44159.2
44150.1
44141.1
44132
44122.9
44113.8
44104.8
44095.7
44086.6
44077.6
44068.5
44059.4
44050.4
44041.3
44032.3
44023.2
44014.1
44005.1
43996
43987
43977.9
43968.9
43959.8
43950.8
43941.8
43932.7
43923.7
43914.6
43905.6
43896.6
43887.5
43878.5
43869.5
43860.5
43851.4
43842.4
43833.4
43824.4
43815.3
43806.3
43797.3
43788.3
43779.3
43770.3
43761.2
43752.2
43743.2
43734.2
43725.2
43716.2
43707.2
43698.2
43689.2
43680.2
43671.2
43662.2
43653.2
43644.3
43635.3
43626.3
43617.3
43608.3
43599.3
43590.3
43581.4
43572.4
43563.4
43554.4
43545.5
43536.5
43527.5
43518.6
43509.6
43500.6
43491.7
43482.7
43473.8
43464.8
43455.8
43446.9
43437.9
43429
43420
43411.1
43402.1
43393.2
43384.2
43375.3
43366.4
43357.4
43348.5
43339.6
43330.6
43321.7
43312.8
43303.8
43294.9
43286
43277
43268.1
43259.2
43250.3
43241.4
43232.4
43223.5
43214.6
43205.7
43196.8
43187.9
43179
43170.1
43161.2
43152.3
43143.4
43134.5
43125.6
43116.7
43107.8
43098.9
43090
43081.1
43072.2
43063.3
43054.5
43045.6
43036.7
43027.8
43018.9
43010.1
43001.2
42992.3
42983.4
42974.6
42965.7
42956.8
42948
42939.1
42930.2
42921.4
42912.5
42903.7
42894.8
42885.9
42877.1
42868.2
42859.4
42850.5
42841.7
42832.8
42824
42815.2
42806.3
42797.5
42788.6
42779.8
42771
42762.1
42753.3
42744.5
42735.7
42726.8
42718
42709.2
42700.4
42691.5
42682.7
42673.9
42665.1
42656.3
42647.5
42638.6
42629.8
42621
42612.2
42603.4
42594.6
42585.8
42577
42568.2
42559.4
42550.6
42541.8
42533
42524.3
42515.5
42506.7
42497.9
42489.1
42480.3
42471.5
42462.8
42454
42445.2
42436.4
42427.7
42418.9
42410.1
42401.4
42392.6
42383.8
42375.1
42366.3
42357.5
42348.8
42340
42331.3
42322.5
42313.8
42305
42296.3
42287.5
42278.8
42270
42261.3
42252.5
42243.8
42235.1
42226.3
42217.6
42208.8
42200.1
42191.4
42182.7
42173.9
42165.2
42156.5
42147.8
42139
42130.3
42121.6
42112.9
42104.2
42095.4
42086.7
42078
42069.3
42060.6
42051.9
42043.2
42034.5
42025.8
42017.1
42008.4
41999.7
41991
41982.3
41973.6
41964.9
41956.2
41947.6
41938.9
41930.2
41921.5
41912.8
41904.1
41895.5
41886.8
41878.1
41869.4
41860.8
41852.1
41843.4
41834.8
41826.1
41817.4
41808.8
41800.1
41791.5
41782.8
41774.1
41765.5
41756.8
41748.2
41739.5
41730.9
41722.2
41713.6
41704.9
41696.3
41687.7
41679
41670.4
41661.8
41653.1
41644.5
41635.9
41627.2
41618.6
41610
41601.3
41592.7
41584.1
41575.5
41566.9
41558.2
41549.6
41541
41532.4
41523.8
41515.2
41506.6
41498
41489.4
41480.8
41472.2
41463.6
41455
41446.4
41437.8
41429.2
41420.6
41412
41403.4
41394.8
41386.2
41377.6
41369.1
41360.5
41351.9
41343.3
41334.7
41326.2
41317.6
41309
41300.4
41291.9
41283.3
41274.7
41266.2
41257.6
41249.1
41240.5
41231.9
41223.4
41214.8
41206.3
41197.7
41189.2
41180.6
41172.1
41163.5
41155
41146.4
41137.9
41129.4
41120.8
41112.3
41103.7
41095.2
41086.7
41078.1
41069.6
41061.1
41052.6
41044
41035.5
41027
41018.5
41009.9
41001.4
40992.9
40984.4
40975.9
40967.4
40958.9
40950.4
40941.9
40933.4
40924.8
40916.3
40907.8
40899.3
40890.8
40882.4
40873.9
40865.4
40856.9
40848.4
40839.9
40831.4
40822.9
40814.4
40806
40797.5
40789
40780.5
40772
40763.6
40755.1
40746.6
40738.2
40729.7
40721.2
40712.8
40704.3
40695.8
40687.4
40678.9
40670.5
40662
40653.5
40645.1
40636.6
40628.2
40619.7
40611.3
40602.9
40594.4
40586
40577.5
40569.1
40560.7
40552.2
40543.8
40535.3
40526.9
40518.5
40510.1
40501.6
40493.2
40484.8
40476.4
40467.9
40459.5
40451.1
40442.7
40434.3
40425.9
40417.4
40409
40400.6
40392.2
40383.8
40375.4
40367
40358.6
40350.2
40341.8
40333.4
40325
40316.6
40308.2
40299.8
40291.5
40283.1
40274.7
40266.3
40257.9
40249.5
40241.1
40232.8
40224.4
40216
40207.6
40199.3
40190.9
40182.5
40174.2
40165.8
40157.4
40149.1
40140.7
40132.3
40124
40115.6
40107.3
40098.9
40090.6
40082.2
40073.9
40065.5
40057.2
40048.8
40040.5
40032.1
40023.8
40015.5
40007.1
39998.8
39990.5
39982.1
39973.8
39965.5
39957.1
39948.8
39940.5
39932.2
39923.8
39915.5
39907.2
39898.9
39890.6
39882.2
39873.9
39865.6
39857.3
39849
39840.7
39832.4
39824.1
39815.8
39807.5
39799.2
39790.9
39782.6
39774.3
39766
39757.7
39749.4
39741.1
39732.8
39724.6
39716.3
39708
39699.7
39691.4
39683.1
39674.9
39666.6
39658.3
39650
39641.8
39633.5
39625.2
39617
39608.7
39600.4
39592.2
39583.9
39575.7
39567.4
39559.1
39550.9
39542.6
39534.4
39526.1
39517.9
39509.6
39501.4
39493.2
39484.9
39476.7
39468.4
39460.2
39452
39443.7
39435.5
39427.3
39419
39410.8
39402.6
39394.3
39386.1
39377.9
39369.7
39361.5
39353.2
39345
39336.8
39328.6
39320.4
39312.2
39304
39295.7
39287.5
39279.3
39271.1
39262.9
39254.7
39246.5
39238.3
39230.1
39221.9
39213.7
39205.6
39197.4
39189.2
39181
39172.8
39164.6
39156.4
39148.3
39140.1
39131.9
39123.7
39115.5
39107.4
39099.2
39091
39082.9
39074.7
39066.5
39058.4
39050.2
39042
39033.9
39025.7
39017.6
39009.4
39001.3
38993.1
38984.9
38976.8
38968.6
38960.5
38952.4
38944.2
38936.1
38927.9
38919.8
38911.7
38903.5
38895.4
38887.2
38879.1
38871
38862.9
38854.7
38846.6
38838.5
38830.4
38822.2
38814.1
38806
38797.9
38789.8
38781.6
38773.5
38765.4
38757.3
38749.2
38741.1
38733
38724.9
38716.8
38708.7
38700.6
38692.5
38684.4
38676.3
38668.2
38660.1
38652
38643.9
38635.9
38627.8
38619.7
38611.6
38603.5
38595.4
38587.4
38579.3
38571.2
38563.1
38555.1
38547
38538.9
38530.9
38522.8
38514.7
38506.7
38498.6
38490.5
38482.5
38474.4
38466.4
38458.3
38450.3
38442.2
38434.2
38426.1
38418.1
38410
38402
38393.9
38385.9
38377.8
38369.8
38361.8
38353.7
38345.7
38337.7
38329.6
38321.6
38313.6
38305.5
38297.5
38289.5
38281.5
38273.5
38265.4
38257.4
38249.4
38241.4
38233.4
38225.4
38217.4
38209.3
38201.3
38193.3
38185.3
38177.3
38169.3
38161.3
38153.3
38145.3
38137.3
38129.3
38121.3
38113.4
38105.4
38097.4
38089.4
38081.4
38073.4
38065.4
38057.5
38049.5
38041.5
38033.5
38025.6
38017.6
38009.6
38001.6
37993.7
37985.7
37977.7
37969.8
37961.8
37953.8
37945.9
37937.9
37930
37922
37914.1
37906.1
37898.2
37890.2
37882.3
37874.3
37866.4
37858.4
37850.5
37842.5
37834.6
37826.7
37818.7
37810.8
37802.9
37794.9
37787
37779.1
37771.1
37763.2
37755.3
37747.4
37739.4
37731.5
37723.6
37715.7
37707.8
37699.9
37691.9
37684
37676.1
37668.2
37660.3
37652.4
37644.5
37636.6
37628.7
37620.8
37612.9
37605
37597.1
37589.2
37581.3
37573.4
37565.5
37557.6
37549.8
37541.9
37534
37526.1
37518.2
37510.3
37502.5
37494.6
37486.7
37478.8
37471
37463.1
37455.2
37447.4
37439.5
37431.6
37423.8
37415.9
37408
37400.2
37392.3
37384.5
37376.6
37368.8
37360.9
37353.1
37345.2
37337.4
37329.5
37321.7
37313.8
37306
37298.2
37290.3
37282.5
37274.7
37266.8
37259
37251.2
37243.3
37235.5
37227.7
37219.8
37212
37204.2
37196.4
37188.6
37180.7
37172.9
37165.1
37157.3
37149.5
37141.7
37133.9
37126.1
37118.3
37110.5
37102.6
37094.8
37087
37079.2
37071.5
37063.7
37055.9
37048.1
37040.3
37032.5
37024.7
37016.9
37009.1
37001.3
36993.6
36985.8
36978
36970.2
36962.4
36954.7
36946.9
36939.1
36931.4
36923.6
36915.8
36908.1
36900.3
36892.5
36884.8
36877
36869.2
36861.5
36853.7
36846
36838.2
36830.5
36822.7
36815
36807.2
36799.5
36791.7
36784
36776.2
36768.5
36760.8
36753
36745.3
36737.6
36729.8
36722.1
36714.4
36706.6
36698.9
36691.2
36683.5
36675.7
36668
36660.3
36652.6
36644.9
36637.2
36629.4
36621.7
36614
36606.3
36598.6
36590.9
36583.2
36575.5
36567.8
36560.1
36552.4
36544.7
36537
36529.3
36521.6
36513.9
36506.2