/*--------------------------------*- C++ -*----------------------------------*\
  =========                 |
  \\      /  F ield         | OpenFOAM: The Open Source CFD Toolbox
   \\    /   O peration     | Website:  https://openfoam.org
    \\  /    A nd           | Version:  9
     \\/     M anipulation  |
\*---------------------------------------------------------------------------*/
FoamFile
{
    format      ascii;
    class       surfaceScalarField;
    location    "0.017";
    object      phi_0;
}
// * * * * * * * * * * * * * * * * * * * * * * * * * * * * * * * * * * * * * //

dimensions      [1 0 -1 0 0 0 0];

internalField   nonuniform List<scalar> 
9999
(
4.13497
4.3784
4.62182
4.86528
5.1088
5.35235
5.59591
5.83948
6.08306
6.32664
6.57022
6.8138
7.05738
7.30096
7.54454
7.78812
8.03169
8.27527
8.51885
8.76243
9.00601
9.24959
9.49317
9.73674
9.98032
10.2239
10.4675
10.7111
10.9546
11.1982
11.4418
11.6854
11.9289
12.1725
12.4161
12.6597
12.9032
13.1468
13.3904
13.634
13.8775
14.1211
14.3647
14.6083
14.8518
15.0954
15.339
15.5826
15.8261
16.0697
16.3133
16.5569
16.8004
17.044
17.2876
17.5311
17.7747
18.0183
18.2619
18.5054
18.749
18.9926
19.2361
19.4797
19.7233
19.9668
20.2104
20.454
20.6975
20.9411
21.1847
21.4282
21.6718
21.9153
22.1589
22.4025
22.646
22.8896
23.1332
23.3767
23.6203
23.8638
24.1074
24.3509
24.5945
24.8381
25.0816
25.3252
25.5687
25.8123
26.0558
26.2994
26.5429
26.7865
27.03
27.2736
27.5172
27.7607
28.0042
28.2478
28.4913
28.7349
28.9784
29.222
29.4655
29.7091
29.9526
30.1962
30.4397
30.6832
30.9268
31.1703
31.4139
31.6574
31.9009
32.1445
32.388
32.6315
32.8751
33.1186
33.3621
33.6057
33.8492
34.0927
34.3363
34.5798
34.8233
35.0669
35.3104
35.5539
35.7974
36.0409
36.2845
36.528
36.7715
37.015
37.2586
37.5021
37.7456
37.9891
38.2326
38.4761
38.7196
38.9632
39.2067
39.4502
39.6937
39.9372
40.1807
40.4242
40.6677
40.9112
41.1547
41.3982
41.6417
41.8852
42.1287
42.3722
42.6157
42.8592
43.1027
43.3462
43.5897
43.8332
44.0767
44.3202
44.5637
44.8071
45.0506
45.2941
45.5376
45.7811
46.0246
46.268
46.5115
46.755
46.9985
47.2419
47.4854
47.7289
47.9724
48.2158
48.4593
48.7028
48.9462
49.1897
49.4332
49.6766
49.9201
50.1635
50.407
50.6505
50.8939
51.1374
51.3808
51.6243
51.8677
52.1112
52.3546
52.5981
52.8415
53.0849
53.3284
53.5718
53.8153
54.0587
54.3021
54.5456
54.789
55.0324
55.2759
55.5193
55.7627
56.0062
56.2496
56.493
56.7364
56.9798
57.2233
57.4667
57.7101
57.9535
58.1969
58.4403
58.6837
58.9271
59.1706
59.414
59.6574
59.9008
60.1442
60.3876
60.631
60.8743
61.1177
61.3611
61.6045
61.8479
62.0913
62.3347
62.5781
62.8214
63.0648
63.3082
63.5516
63.795
64.0383
64.2817
64.5251
64.7684
65.0118
65.2552
65.4985
65.7419
65.9852
66.2286
66.472
66.7153
66.9587
67.202
67.4454
67.6887
67.9321
68.1754
68.4187
68.6621
68.9054
69.1487
69.3921
69.6354
69.8787
70.1221
70.3654
70.6087
70.852
71.0954
71.3387
71.582
71.8253
72.0686
72.3119
72.5552
72.7985
73.0418
73.2851
73.5284
73.7717
74.015
74.2583
74.5016
74.7449
74.9882
75.2315
75.4748
75.718
75.9613
76.2046
76.4479
76.6912
76.9344
77.1777
77.421
77.6642
77.9075
78.1507
78.394
78.6373
78.8805
79.1238
79.367
79.6103
79.8535
80.0967
80.34
80.5832
80.8265
81.0697
81.3129
81.5562
81.7994
82.0426
82.2858
82.5291
82.7723
83.0155
83.2587
83.5019
83.7451
83.9883
84.2315
84.4747
84.7179
84.9611
85.2043
85.4475
85.6907
85.9339
86.1771
86.4203
86.6634
86.9066
87.1498
87.393
87.6361
87.8793
88.1225
88.3656
88.6088
88.8519
89.0951
89.3383
89.5814
89.8246
90.0677
90.3108
90.554
90.7971
91.0403
91.2834
91.5265
91.7696
92.0128
92.2559
92.499
92.7421
92.9852
93.2284
93.4715
93.7146
93.9577
94.2008
94.4439
94.687
94.9301
95.1732
95.4162
95.6593
95.9024
96.1455
96.3886
96.6316
96.8747
97.1178
97.3609
97.6039
97.847
98.09
98.3331
98.5761
98.8192
99.0622
99.3053
99.5483
99.7914
100.034
100.277
100.52
100.763
101.007
101.25
101.493
101.736
101.979
102.222
102.465
102.708
102.951
103.194
103.437
103.68
103.923
104.166
104.409
104.652
104.895
105.137
105.38
105.623
105.866
106.109
106.352
106.595
106.838
107.081
107.324
107.567
107.81
108.053
108.296
108.539
108.782
109.025
109.268
109.511
109.753
109.996
110.239
110.482
110.725
110.968
111.211
111.454
111.697
111.94
112.182
112.425
112.668
112.911
113.154
113.397
113.64
113.883
114.125
114.368
114.611
114.854
115.097
115.34
115.582
115.825
116.068
116.311
116.554
116.797
117.039
117.282
117.525
117.768
118.011
118.253
118.496
118.739
118.982
119.225
119.467
119.71
119.953
120.196
120.439
120.681
120.924
121.167
121.41
121.652
121.895
122.138
122.381
122.623
122.866
123.109
123.352
123.594
123.837
124.08
124.322
124.565
124.808
125.051
125.293
125.536
125.779
126.021
126.264
126.507
126.749
126.992
127.235
127.477
127.72
127.963
128.205
128.448
128.691
128.933
129.176
129.419
129.661
129.904
130.146
130.389
130.632
130.874
131.117
131.359
131.602
131.845
132.087
132.33
132.572
132.815
133.058
133.3
133.543
133.785
134.028
134.27
134.513
134.756
134.998
135.241
135.483
135.726
135.968
136.211
136.453
136.696
136.938
137.181
137.423
137.666
137.908
138.151
138.393
138.636
138.878
139.121
139.363
139.606
139.848
140.091
140.333
140.576
140.818
141.061
141.303
141.545
141.788
142.03
142.273
142.515
142.758
143
143.242
143.485
143.727
143.97
144.212
144.454
144.697
144.939
145.181
145.424
145.666
145.909
146.151
146.393
146.636
146.878
147.12
147.363
147.605
147.847
148.09
148.332
148.574
148.817
149.059
149.301
149.544
149.786
150.028
150.27
150.513
150.755
150.997
151.239
151.482
151.724
151.966
152.208
152.451
152.693
152.935
153.177
153.42
153.662
153.904
154.146
154.389
154.631
154.873
155.115
155.357
155.599
155.842
156.084
156.326
156.568
156.81
157.052
157.295
157.537
157.779
158.021
158.263
158.505
158.747
158.99
159.232
159.474
159.716
159.958
160.2
160.442
160.684
160.926
161.168
161.41
161.653
161.895
162.137
162.379
162.621
162.863
163.105
163.347
163.589
163.831
164.073
164.315
164.557
164.799
165.041
165.283
165.525
165.767
166.009
166.251
166.493
166.735
166.977
167.219
167.461
167.703
167.945
168.186
168.428
168.67
168.912
169.154
169.396
169.638
169.88
170.122
170.364
170.606
170.847
171.089
171.331
171.573
171.815
172.057
172.299
172.54
172.782
173.024
173.266
173.508
173.749
173.991
174.233
174.475
174.717
174.958
175.2
175.442
175.684
175.926
176.167
176.409
176.651
176.893
177.134
177.376
177.618
177.86
178.101
178.343
178.585
178.826
179.068
179.31
179.551
179.793
180.035
180.276
180.518
180.76
181.001
181.243
181.485
181.726
181.968
182.21
182.451
182.693
182.934
183.176
183.418
183.659
183.901
184.142
184.384
184.626
184.867
185.109
185.35
185.592
185.833
186.075
186.316
186.558
186.799
187.041
187.282
187.524
187.765
188.007
188.248
188.49
188.731
188.973
189.214
189.456
189.697
189.939
190.18
190.421
190.663
190.904
191.146
191.387
191.628
191.87
192.111
192.353
192.594
192.835
193.077
193.318
193.559
193.801
194.042
194.284
194.525
194.766
195.007
195.249
195.49
195.731
195.973
196.214
196.455
196.697
196.938
197.179
197.42
197.662
197.903
198.144
198.385
198.626
198.868
199.109
199.35
199.591
199.833
200.074
200.315
200.556
200.797
201.038
201.28
201.521
201.762
202.003
202.244
202.485
202.726
202.967
203.209
203.45
203.691
203.932
204.173
204.414
204.655
204.896
205.137
205.378
205.619
205.86
206.101
206.342
206.583
206.824
207.065
207.306
207.547
207.788
208.029
208.27
208.511
208.752
208.993
209.234
209.475
209.716
209.957
210.198
210.439
210.68
210.921
211.161
211.402
211.643
211.884
212.125
212.366
212.607
212.848
213.088
213.329
213.57
213.811
214.052
214.292
214.533
214.774
215.015
215.256
215.496
215.737
215.978
216.219
216.459
216.7
216.941
217.182
217.422
217.663
217.904
218.144
218.385
218.626
218.866
219.107
219.348
219.588
219.829
220.07
220.31
220.551
220.792
221.032
221.273
221.513
221.754
221.995
222.235
222.476
222.716
222.957
223.197
223.438
223.678
223.919
224.159
224.4
224.64
224.881
225.121
225.362
225.602
225.843
226.083
226.324
226.564
226.805
227.045
227.285
227.526
227.766
228.007
228.247
228.487
228.728
228.968
229.209
229.449
229.689
229.93
230.17
230.41
230.651
230.891
231.131
231.371
231.612
231.852
232.092
232.333
232.573
232.813
233.053
233.294
233.534
233.774
234.014
234.254
234.495
234.735
234.975
235.215
235.455
235.695
235.936
236.176
236.416
236.656
236.896
237.136
237.376
237.616
237.857
238.097
238.337
238.577
238.817
239.057
239.297
239.537
239.777
240.017
240.257
240.497
240.737
240.977
241.217
241.457
241.697
241.937
242.177
242.417
242.657
242.896
243.136
243.376
243.616
243.856
244.096
244.336
244.576
244.816
245.055
245.295
245.535
245.775
246.015
246.254
246.494
246.734
246.974
247.214
247.453
247.693
247.933
248.173
248.412
248.652
248.892
249.131
249.371
249.611
249.85
250.09
250.33
250.569
250.809
251.049
251.288
251.528
251.768
252.007
252.247
252.486
252.726
252.965
253.205
253.445
253.684
253.924
254.163
254.403
254.642
254.882
255.121
255.361
255.6
255.84
256.079
256.318
256.558
256.797
257.037
257.276
257.516
257.755
257.994
258.234
258.473
258.712
258.952
259.191
259.43
259.67
259.909
260.148
260.388
260.627
260.866
261.105
261.345
261.584
261.823
262.062
262.302
262.541
262.78
263.019
263.258
263.497
263.737
263.976
264.215
264.454
264.693
264.932
265.171
265.41
265.65
265.889
266.128
266.367
266.606
266.845
267.084
267.323
267.562
267.801
268.04
268.279
268.518
268.757
268.996
269.235
269.473
269.712
269.951
270.19
270.429
270.668
270.907
271.146
271.385
271.623
271.862
272.101
272.34
272.579
272.817
273.056
273.295
273.534
273.772
274.011
274.25
274.489
274.727
274.966
275.205
275.443
275.682
275.921
276.159
276.398
276.637
276.875
277.114
277.352
277.591
277.83
278.068
278.307
278.545
278.784
279.022
279.261
279.499
279.738
279.976
280.215
280.453
280.692
280.93
281.168
281.407
281.645
281.884
282.122
282.36
282.599
282.837
283.075
283.314
283.552
283.79
284.029
284.267
284.505
284.743
284.982
285.22
285.458
285.696
285.934
286.173
286.411
286.649
286.887
287.125
287.363
287.602
287.84
288.078
288.316
288.554
288.792
289.03
289.268
289.506
289.744
289.982
290.22
290.458
290.696
290.934
291.172
291.41
291.648
291.886
292.123
292.361
292.599
292.837
293.075
293.313
293.551
293.788
294.026
294.264
294.502
294.739
294.977
295.215
295.453
295.69
295.928
296.166
296.403
296.641
296.879
297.116
297.354
297.592
297.829
298.067
298.304
298.542
298.779
299.017
299.254
299.492
299.729
299.967
300.204
300.442
300.679
300.917
301.154
301.391
301.629
301.866
302.103
302.341
302.578
302.815
303.053
303.29
303.527
303.764
304.002
304.239
304.476
304.713
304.95
305.188
305.425
305.662
305.899
306.136
306.373
306.61
306.847
307.084
307.321
307.558
307.795
308.032
308.269
308.506
308.743
308.98
309.217
309.454
309.691
309.928
310.165
310.401
310.638
310.875
311.112
311.349
311.585
311.822
312.059
312.296
312.532
312.769
313.006
313.242
313.479
313.715
313.952
314.189
314.425
314.662
314.898
315.135
315.371
315.608
315.844
316.081
316.317
316.553
316.79
317.026
317.263
317.499
317.735
317.972
318.208
318.444
318.68
318.917
319.153
319.389
319.625
319.861
320.098
320.334
320.57
320.806
321.042
321.278
321.514
321.75
321.986
322.222
322.458
322.694
322.93
323.166
323.402
323.637
323.873
324.109
324.345
324.581
324.816
325.052
325.288
325.524
325.759
325.995
326.231
326.466
326.702
326.937
327.173
327.408
327.644
327.879
328.115
328.35
328.586
328.821
329.057
329.292
329.527
329.763
329.998
330.233
330.469
330.704
330.939
331.174
331.409
331.645
331.88
332.115
332.35
332.585
332.82
333.055
333.29
333.525
333.76
333.995
334.23
334.465
334.699
334.934
335.169
335.404
335.639
335.873
336.108
336.343
336.577
336.812
337.047
337.281
337.516
337.75
337.985
338.219
338.454
338.688
338.922
339.157
339.391
339.626
339.86
340.094
340.328
340.563
340.797
341.031
341.265
341.499
341.733
341.967
342.201
342.435
342.669
342.903
343.137
343.371
343.605
343.839
344.072
344.306
344.54
344.773
345.007
345.241
345.474
345.708
345.942
346.175
346.408
346.642
346.875
347.109
347.342
347.575
347.809
348.042
348.275
348.508
348.741
348.975
349.208
349.441
349.674
349.907
350.14
350.372
350.605
350.838
351.071
351.304
351.536
351.769
352.002
352.234
352.467
352.699
352.932
353.164
353.397
353.629
353.861
354.093
354.326
354.558
354.79
355.022
355.254
355.486
355.718
355.95
356.182
356.414
356.645
356.877
357.109
357.34
357.572
357.803
358.035
358.266
358.497
358.729
358.96
359.191
359.422
359.653
359.884
360.115
360.346
360.577
360.807
361.038
361.269
361.499
361.73
361.96
362.19
362.42
362.651
362.881
363.111
363.341
363.57
363.8
364.03
364.259
364.489
364.718
364.948
365.177
365.406
365.635
365.864
366.093
366.321
366.55
366.778
367.007
367.235
367.463
367.691
367.919
368.147
368.374
368.602
368.829
369.056
369.283
369.51
369.737
369.963
370.19
370.416
370.642
370.868
371.093
371.319
371.544
371.769
371.994
372.218
372.443
372.667
372.891
373.114
373.338
373.561
373.784
374.006
374.228
374.45
374.672
374.893
375.114
375.334
375.554
375.774
375.993
376.212
376.431
376.649
376.866
377.083
377.3
377.516
377.731
377.946
378.16
378.373
378.586
378.798
379.01
379.221
379.43
379.64
379.848
380.055
380.262
380.467
380.672
380.875
381.078
381.279
381.479
381.678
381.876
382.072
382.267
382.461
382.654
382.845
383.034
383.222
383.408
383.593
383.776
383.957
384.137
384.314
384.49
384.664
384.836
385.006
385.175
385.341
385.505
385.667
385.827
385.984
386.14
386.293
386.444
386.593
386.74
386.885
387.027
387.167
387.305
387.441
387.574
387.706
387.835
387.962
388.087
388.21
388.331
388.45
388.566
388.681
388.794
388.906
389.015
389.122
389.228
389.332
389.435
389.536
389.635
389.734
389.83
389.925
390.019
390.112
390.204
390.294
390.383
390.472
390.559
390.645
390.731
390.816
390.899
390.983
391.065
391.147
391.228
391.308
391.388
391.468
391.547
391.625
391.703
391.781
391.858
391.935
392.012
392.088
392.164
392.24
392.316
392.391
392.466
392.541
392.616
392.691
392.765
392.84
392.914
392.988
393.062
393.136
393.21
393.283
393.357
393.43
393.504
393.577
393.651
393.724
393.797
393.87
393.943
394.016
394.089
394.162
394.235
394.308
394.381
394.453
394.526
394.599
394.672
394.744
394.817
394.889
394.962
395.034
395.107
395.179
395.251
395.324
395.396
395.468
395.541
395.613
395.685
395.757
395.829
395.901
395.973
396.045
396.117
396.189
396.261
396.333
396.405
396.477
396.549
396.621
396.692
396.764
396.836
396.907
396.979
397.051
397.122
397.194
397.265
397.337
397.408
397.48
397.551
397.622
397.694
397.765
397.836
397.908
397.979
398.05
398.121
398.192
398.263
398.334
398.405
398.476
398.547
398.618
398.689
398.76
398.831
398.902
398.973
399.043
399.114
399.185
399.255
399.326
399.397
399.467
399.538
399.608
399.679
399.749
399.82
399.89
399.961
400.031
400.101
400.172
400.242
400.312
400.382
400.452
400.523
400.593
400.663
400.733
400.803
400.873
400.943
401.013
401.083
401.152
401.222
401.292
401.362
401.432
401.501
401.571
401.641
401.71
401.78
401.85
401.919
401.989
402.058
402.128
402.197
402.266
402.336
402.405
402.474
402.544
402.613
402.682
402.751
402.82
402.89
402.959
403.028
403.097
403.166
403.235
403.304
403.373
403.442
403.51
403.579
403.648
403.717
403.786
403.854
403.923
403.992
404.06
404.129
404.198
404.266
404.335
404.403
404.472
404.54
404.608
404.677
404.745
404.813
404.882
404.95
405.018
405.086
405.154
405.223
405.291
405.359
405.427
405.495
405.563
405.631
405.699
405.767
405.834
405.902
405.97
406.038
406.106
406.173
406.241
406.309
406.376
406.444
406.511
406.579
406.647
406.714
406.781
406.849
406.916
406.984
407.051
407.118
407.186
407.253
407.32
407.387
407.454
407.522
407.589
407.656
407.723
407.79
407.857
407.924
407.991
408.058
408.124
408.191
408.258
408.325
408.392
408.458
408.525
408.592
408.658
408.725
408.792
408.858
408.925
408.991
409.058
409.124
409.19
409.257
409.323
409.39
409.456
409.522
409.588
409.655
409.721
409.787
409.853
409.919
409.985
410.051
410.117
410.183
410.249
410.315
410.381
410.447
410.513
410.578
410.644
410.71
410.776
410.841
410.907
410.973
411.038
411.104
411.169
411.235
411.3
411.366
411.431
411.497
411.562
411.627
411.693
411.758
411.823
411.888
411.953
412.019
412.084
412.149
412.214
412.279
412.344
412.409
412.474
412.539
412.604
412.669
412.734
412.798
412.863
412.928
412.993
413.057
413.122
413.187
413.251
413.316
413.38
413.445
413.509
413.574
413.638
413.703
413.767
413.832
413.896
413.96
414.024
414.089
414.153
414.217
414.281
414.345
414.41
414.474
414.538
414.602
414.666
414.73
414.794
414.857
414.921
414.985
415.049
415.113
415.177
415.24
415.304
415.368
415.431
415.495
415.559
415.622
415.686
415.749
415.813
415.876
415.939
416.003
416.066
416.13
416.193
416.256
416.319
416.383
416.446
416.509
416.572
416.635
416.698
416.761
416.824
416.887
416.95
417.013
417.076
417.139
417.202
417.265
417.327
417.39
417.453
417.516
417.578
417.641
417.704
417.766
417.829
417.891
417.954
418.016
418.079
418.141
418.204
418.266
418.328
418.391
418.453
418.515
418.577
418.64
418.702
418.764
418.826
418.888
418.95
419.012
419.074
419.136
419.198
419.26
419.322
419.384
419.446
419.507
419.569
419.631
419.693
419.754
419.816
419.878
419.939
420.001
420.062
420.124
420.185
420.247
420.308
420.37
420.431
420.493
420.554
420.615
420.676
420.738
420.799
420.86
420.921
420.982
421.043
421.105
421.166
421.227
421.288
421.349
421.409
421.471
421.531
421.592
421.653
421.714
421.774
421.835
421.896
421.957
422.017
422.078
422.138
422.199
422.26
422.32
422.381
422.441
422.502
422.562
422.623
422.683
422.743
422.803
422.864
422.924
422.984
423.044
423.105
423.164
423.225
423.285
423.345
423.405
423.465
423.525
423.584
423.645
423.704
423.765
423.824
423.884
423.943
424.004
424.063
424.123
424.183
424.242
424.302
424.361
424.421
424.48
424.54
424.599
424.659
424.718
424.777
424.837
424.896
424.956
425.014
425.074
425.133
425.192
425.251
425.311
425.37
425.428
425.488
425.546
425.606
425.665
425.724
425.783
425.841
425.901
425.959
426.018
426.076
426.136
426.194
426.253
426.312
426.37
426.429
426.487
426.546
426.604
426.663
426.722
426.78
426.839
426.896
426.955
427.013
427.072
427.13
427.188
427.247
427.304
427.363
427.421
427.479
427.537
427.595
427.653
427.711
427.769
427.827
427.885
427.943
428
428.059
428.116
428.174
428.232
428.29
428.348
428.405
428.463
428.52
428.578
428.635
428.693
428.751
428.808
428.866
428.923
428.98
429.038
429.095
429.153
429.209
429.267
429.324
429.381
429.439
429.495
429.553
429.61
429.667
429.724
429.781
429.838
429.895
429.952
430.009
430.065
430.123
430.179
430.236
430.293
430.349
430.407
430.463
430.52
430.576
430.633
430.69
430.746
430.803
430.859
430.916
430.972
431.028
431.085
431.141
431.198
431.254
431.31
431.367
431.423
431.479
431.535
431.591
431.648
431.703
431.759
431.816
431.871
431.928
431.983
432.039
432.095
432.151
432.207
432.263
432.319
432.375
432.43
432.486
432.542
432.597
432.653
432.708
432.764
432.82
432.875
432.931
432.986
433.042
433.097
433.152
433.208
433.263
433.319
433.374
433.429
433.484
433.539
433.595
433.65
433.705
433.76
433.815
433.87
433.925
433.98
434.035
434.09
434.145
434.2
434.255
434.31
434.364
434.419
434.474
434.528
434.583
434.638
434.692
434.747
434.802
434.856
434.911
434.965
435.02
435.074
435.129
435.183
435.237
435.292
435.346
435.4
435.455
435.509
435.563
435.618
435.671
435.726
435.78
435.834
435.888
435.942
435.996
436.05
436.104
436.158
436.212
436.266
436.32
436.373
436.427
436.481
436.534
436.588
436.642
436.696
436.749
436.803
436.857
436.91
436.963
437.017
437.07
437.124
437.177
437.231
437.284
437.337
437.391
437.444
437.497
437.551
437.604
437.657
437.71
437.763
437.816
437.87
437.922
437.975
438.029
438.081
438.134
438.187
438.24
438.293
438.346
438.399
438.452
438.504
438.557
438.61
438.662
438.715
438.768
438.82
438.873
438.925
438.978
439.03
439.083
439.135
439.188
439.24
439.293
439.345
439.397
439.449
439.502
439.554
439.606
439.658
439.71
439.762
439.815
439.867
439.919
439.971
440.023
440.075
440.127
440.179
440.23
440.282
440.334
440.386
440.438
440.489
440.541
440.593
440.645
440.696
440.748
440.799
440.851
440.903
440.954
441.006
441.057
441.109
441.16
441.211
441.263
441.314
441.365
441.417
441.468
441.519
441.57
441.622
441.673
441.724
441.775
441.826
441.877
441.928
441.979
442.03
442.081
442.132
442.183
442.234
442.285
442.335
442.386
442.437
442.488
442.539
442.589
442.64
442.691
442.741
442.792
442.842
442.893
442.943
442.994
443.044
443.095
443.145
443.195
443.246
443.296
443.346
443.397
443.447
443.497
443.547
443.598
443.648
443.698
443.748
443.798
443.848
443.898
443.948
443.998
444.048
444.098
444.148
444.198
444.247
444.297
444.347
444.397
444.447
444.496
444.546
444.596
444.645
444.695
444.744
444.794
444.843
444.893
444.942
444.992
445.041
445.091
445.14
445.189
445.239
445.288
445.337
445.387
445.436
445.485
445.534
445.583
445.632
445.682
445.731
445.78
445.829
445.878
445.927
445.976
446.024
446.073
446.122
446.171
446.22
446.269
446.317
446.366
446.415
446.463
446.512
446.561
446.609
446.658
446.706
446.755
446.803
446.852
446.9
446.949
446.997
447.046
447.094
447.142
447.191
447.239
447.287
447.335
447.384
447.432
447.48
447.528
447.576
447.624
447.672
447.72
447.768
447.816
447.864
447.912
447.96
448.008
448.056
448.103
448.151
448.199
448.247
448.294
448.342
448.39
448.437
448.485
448.533
448.58
448.628
448.675
448.723
448.77
448.818
448.865
448.912
448.96
449.007
449.054
449.102
449.149
449.196
449.243
449.291
449.338
449.385
449.432
449.479
449.526
449.573
449.62
449.667
449.714
449.761
449.808
449.855
449.902
449.948
449.995
450.042
450.089
450.135
450.182
450.229
450.276
450.322
450.369
450.415
450.462
450.508
450.555
450.601
450.648
450.694
450.741
450.787
450.833
450.88
450.926
450.972
451.018
451.065
451.111
451.157
451.203
451.249
451.295
451.342
451.388
451.434
451.48
451.526
451.572
451.617
451.663
451.709
451.755
451.801
451.847
451.893
451.938
451.984
452.03
452.075
452.121
452.167
452.212
452.258
452.303
452.349
452.394
452.44
452.485
452.531
452.576
452.622
452.667
452.712
452.758
452.803
452.848
452.893
452.938
452.984
453.029
453.074
453.119
453.164
453.209
453.254
453.299
453.344
453.389
453.434
453.479
453.524
453.569
453.614
453.658
453.703
453.748
453.793
453.837
453.882
453.927
453.971
454.016
454.06
454.105
454.15
454.194
454.238
454.283
454.327
454.372
454.416
454.461
454.505
454.549
454.593
454.638
454.682
454.726
454.77
454.815
454.859
454.903
454.947
454.991
455.035
455.079
455.123
455.167
455.211
455.255
455.299
455.343
455.386
455.43
455.474
455.518
455.562
455.605
455.649
455.693
455.736
455.78
455.823
455.867
455.911
455.954
455.998
456.041
456.084
456.128
456.171
456.215
456.258
456.301
456.345
456.388
456.431
456.474
456.518
456.561
456.604
456.647
456.69
456.733
456.776
456.819
456.862
456.905
456.948
456.991
457.034
457.077
457.12
457.163
457.206
457.248
457.291
457.334
457.377
457.419
457.462
457.505
457.547
457.59
457.632
457.675
457.717
457.76
457.802
457.845
457.887
457.93
457.972
458.014
458.057
458.099
458.141
458.184
458.226
458.268
458.31
458.352
458.394
458.437
458.479
458.521
458.563
458.605
458.647
458.689
458.731
458.773
458.814
458.856
458.898
458.94
458.982
459.024
459.065
459.107
459.149
459.19
459.232
459.274
459.315
459.357
459.398
459.44
459.481
459.523
459.564
459.606
459.647
459.689
459.73
459.771
459.813
459.854
459.895
459.936
459.978
460.019
460.06
460.101
460.142
460.183
460.224
460.265
460.306
460.347
460.388
460.429
460.47
460.511
460.552
460.593
460.634
460.675
460.715
460.756
460.797
460.838
460.878
460.919
460.96
461
461.041
461.081
461.122
461.162
461.203
461.243
461.284
461.324
461.365
461.405
461.445
461.486
461.526
461.566
461.607
461.647
461.687
461.727
461.767
461.807
461.848
461.888
461.928
461.968
462.008
462.048
462.088
462.128
462.168
462.208
462.247
462.287
462.327
462.367
462.407
462.446
462.486
462.526
462.566
462.605
462.645
462.684
462.724
462.764
462.803
462.843
462.882
462.922
462.961
463.001
463.04
463.079
463.119
463.158
463.197
463.237
463.276
463.315
463.354
463.393
463.433
463.472
463.511
463.55
463.589
463.628
463.667
463.706
463.745
463.784
463.823
463.862
463.901
463.94
463.978
464.017
464.056
464.095
464.134
464.172
464.211
464.25
464.288
464.327
464.366
464.404
464.443
464.481
464.52
464.558
464.597
464.635
464.673
464.712
464.75
464.789
464.827
464.865
464.903
464.942
464.98
465.018
465.056
465.094
465.133
465.171
465.209
465.247
465.285
465.323
465.361
465.399
465.437
465.475
465.513
465.55
465.588
465.626
465.664
465.702
465.739
465.777
465.815
465.853
465.89
465.928
465.966
466.003
466.041
466.078
466.116
466.153
466.191
466.228
466.266
466.303
466.34
466.378
466.415
466.452
466.49
466.527
466.564
466.601
466.639
466.676
466.713
466.75
466.787
466.824
466.861
466.898
466.935
466.972
467.009
467.046
467.083
467.12
467.157
467.194
467.231
467.267
467.304
467.341
467.378
467.414
467.451
467.488
467.524
467.561
467.598
467.634
467.671
467.707
467.744
467.78
467.817
467.853
467.89
467.926
467.962
467.999
468.035
468.071
468.108
468.144
468.18
468.216
468.252
468.289
468.325
468.361
468.397
468.433
468.469
468.505
468.541
468.577
468.613
468.649
468.685
468.721
468.756
468.792
468.828
468.864
468.9
468.935
468.971
469.007
469.043
469.078
469.114
469.149
469.185
469.221
469.256
469.292
469.327
469.363
469.398
469.433
469.469
469.504
469.54
469.575
469.61
469.645
469.681
469.716
469.751
469.786
469.822
469.857
469.892
469.927
469.962
469.997
470.032
470.067
470.102
470.137
470.172
470.207
470.242
470.277
470.312
470.346
470.381
470.416
470.451
470.485
470.52
470.555
470.59
470.624
470.659
470.693
470.728
470.763
470.797
470.832
470.866
470.901
470.935
470.969
471.004
471.038
471.073
471.107
471.141
471.176
471.21
471.244
471.278
471.312
471.347
471.381
471.415
471.449
471.483
471.517
471.551
471.585
471.619
471.653
471.687
471.721
471.755
471.789
471.823
471.856
471.89
471.924
471.958
471.992
472.025
472.059
472.093
472.126
472.16
472.194
472.227
472.261
472.294
472.328
472.361
472.395
472.428
472.462
472.495
472.528
472.562
472.595
472.628
472.662
472.695
472.728
472.762
472.795
472.828
472.861
472.894
472.927
472.96
472.994
473.027
473.06
473.093
473.126
473.159
473.191
473.224
473.257
473.29
473.323
473.356
473.389
473.421
473.454
473.487
473.52
473.552
473.585
473.618
473.65
473.683
473.715
473.748
473.781
473.813
473.846
473.878
473.91
473.943
473.975
474.008
474.04
474.072
474.105
474.137
474.169
474.201
474.234
474.266
474.298
474.33
474.362
474.394
474.427
474.459
474.491
474.523
474.555
474.587
474.619
474.651
474.683
474.714
474.746
474.778
474.81
474.842
474.874
474.905
474.937
474.969
475
475.032
475.064
475.095
475.127
475.159
475.19
475.222
475.253
475.285
475.316
475.348
475.379
475.41
475.442
475.473
475.505
475.536
475.567
475.598
475.63
475.661
475.692
475.723
475.754
475.786
475.817
475.848
475.879
475.91
475.941
475.972
476.003
476.034
476.065
476.096
476.127
476.158
476.189
476.219
476.25
476.281
476.312
476.342
476.373
476.404
476.435
476.465
476.496
476.527
476.557
476.588
476.618
476.649
476.679
476.71
476.74
476.771
476.801
476.831
476.862
476.892
476.923
476.953
476.983
477.013
477.044
477.074
477.104
477.134
477.164
477.195
477.225
477.255
477.285
477.315
477.345
477.375
477.405
477.435
477.465
477.495
477.525
477.555
477.584
477.614
477.644
477.674
477.704
477.733
477.763
477.793
477.822
477.852
477.882
477.911
477.941
477.971
478
478.03
478.059
478.089
478.118
478.148
478.177
478.206
478.236
478.265
478.294
478.324
478.353
478.382
478.412
478.441
478.47
478.499
478.528
478.558
478.587
478.616
478.645
478.674
478.703
478.732
478.761
478.79
478.819
478.848
478.877
478.906
478.934
478.963
478.992
479.021
479.05
479.078
479.107
479.136
479.165
479.193
479.222
479.251
479.279
479.308
479.336
479.365
479.393
479.422
479.45
479.479
479.507
479.536
479.564
479.592
479.621
479.649
479.677
479.706
479.734
479.762
479.79
479.819
479.847
479.875
479.903
479.931
479.959
479.987
480.015
480.043
480.071
480.099
480.127
480.155
480.183
480.211
480.239
480.267
480.295
480.323
480.35
480.378
480.406
480.434
480.461
480.489
480.517
480.544
480.572
480.6
480.627
480.655
480.682
480.71
480.737
480.765
480.792
480.82
480.847
480.874
480.902
480.929
480.956
480.984
481.011
481.038
481.066
481.093
481.12
481.147
481.174
481.201
481.229
481.256
481.283
481.31
481.337
481.364
481.391
481.418
481.445
481.472
481.499
481.525
481.552
481.579
481.606
481.633
481.66
481.686
481.713
481.74
481.766
481.793
481.82
481.846
481.873
481.9
481.926
481.953
481.979
482.006
482.032
482.059
482.085
482.112
482.138
482.164
482.191
482.217
482.243
482.27
482.296
482.322
482.349
482.375
482.401
482.427
482.453
482.479
482.505
482.532
482.558
482.584
482.61
482.636
482.662
482.688
482.714
482.74
482.765
482.791
482.817
482.843
482.869
482.895
482.92
482.946
482.972
482.998
483.023
483.049
483.075
483.1
483.126
483.151
483.177
483.203
483.228
483.254
483.279
483.305
483.33
483.355
483.381
483.406
483.432
483.457
483.482
483.508
483.533
483.558
483.583
483.608
483.634
483.659
483.684
483.709
483.734
483.759
483.784
483.809
483.835
483.86
483.885
483.909
483.934
483.959
483.984
484.009
484.034
484.059
484.084
484.108
484.133
484.158
484.183
484.207
484.232
484.257
484.282
484.306
484.331
484.355
484.38
484.404
484.429
484.454
484.478
484.503
484.527
484.551
484.576
484.6
484.625
484.649
484.673
484.698
484.722
484.746
484.77
484.795
484.819
484.843
484.867
484.891
484.915
484.94
484.964
484.988
485.012
485.036
485.06
485.084
485.108
485.132
485.156
485.179
485.203
485.227
485.251
485.275
485.299
485.322
485.346
485.37
485.394
485.417
485.441
485.465
485.488
485.512
485.535
485.559
485.583
485.606
485.63
485.653
485.677
485.7
485.723
485.747
485.77
485.794
485.817
485.84
485.864
485.887
485.91
485.933
485.957
485.98
486.003
486.026
486.049
486.073
486.096
486.119
486.142
486.165
486.188
486.211
486.234
486.257
486.28
486.303
486.326
486.348
486.371
486.394
486.417
486.44
486.463
486.485
486.508
486.531
486.554
486.576
486.599
486.622
486.644
486.667
486.689
486.712
486.734
486.757
486.779
486.802
486.824
486.847
486.869
486.892
486.914
486.936
486.959
486.981
487.003
487.026