/*--------------------------------*- C++ -*----------------------------------*\
  =========                 |
  \\      /  F ield         | OpenFOAM: The Open Source CFD Toolbox
   \\    /   O peration     | Website:  https://openfoam.org
    \\  /    A nd           | Version:  9
     \\/     M anipulation  |
\*---------------------------------------------------------------------------*/
FoamFile
{
    format      ascii;
    class       volScalarField;
    location    "0.017";
    object      rho_0;
}
// * * * * * * * * * * * * * * * * * * * * * * * * * * * * * * * * * * * * * //

dimensions      [1 -3 0 0 0 0 0];

internalField   nonuniform List<scalar> 
10000
(
0.679276
0.679255
0.679223
0.679197
0.679181
0.679173
0.679168
0.679164
0.67916
0.679158
0.679155
0.679153
0.67915
0.679147
0.679144
0.679142
0.679139
0.679136
0.679133
0.679131
0.679128
0.679125
0.679122
0.679119
0.679117
0.679114
0.679111
0.679108
0.679105
0.679103
0.6791
0.679097
0.679094
0.679091
0.679088
0.679085
0.679083
0.67908
0.679077
0.679074
0.679071
0.679068
0.679065
0.679062
0.679059
0.679056
0.679053
0.67905
0.679048
0.679045
0.679042
0.679039
0.679036
0.679033
0.67903
0.679027
0.679024
0.679021
0.679018
0.679015
0.679012
0.679009
0.679005
0.679002
0.678999
0.678996
0.678993
0.67899
0.678987
0.678984
0.678981
0.678978
0.678975
0.678972
0.678968
0.678965
0.678962
0.678959
0.678956
0.678953
0.67895
0.678946
0.678943
0.67894
0.678937
0.678934
0.67893
0.678927
0.678924
0.678921
0.678918
0.678914
0.678911
0.678908
0.678905
0.678901
0.678898
0.678895
0.678892
0.678888
0.678885
0.678882
0.678878
0.678875
0.678872
0.678868
0.678865
0.678862
0.678858
0.678855
0.678852
0.678848
0.678845
0.678842
0.678838
0.678835
0.678831
0.678828
0.678825
0.678821
0.678818
0.678814
0.678811
0.678808
0.678804
0.678801
0.678797
0.678794
0.67879
0.678787
0.678783
0.67878
0.678776
0.678773
0.678769
0.678766
0.678762
0.678759
0.678755
0.678752
0.678748
0.678745
0.678741
0.678737
0.678734
0.67873
0.678727
0.678723
0.678719
0.678716
0.678712
0.678709
0.678705
0.678701
0.678698
0.678694
0.67869
0.678687
0.678683
0.678679
0.678676
0.678672
0.678668
0.678665
0.678661
0.678657
0.678654
0.67865
0.678646
0.678642
0.678639
0.678635
0.678631
0.678627
0.678624
0.67862
0.678616
0.678612
0.678608
0.678605
0.678601
0.678597
0.678593
0.678589
0.678586
0.678582
0.678578
0.678574
0.67857
0.678566
0.678562
0.678559
0.678555
0.678551
0.678547
0.678543
0.678539
0.678535
0.678531
0.678527
0.678523
0.678519
0.678515
0.678511
0.678507
0.678504
0.6785
0.678496
0.678492
0.678488
0.678484
0.67848
0.678476
0.678472
0.678467
0.678463
0.678459
0.678455
0.678451
0.678447
0.678443
0.678439
0.678435
0.678431
0.678427
0.678423
0.678419
0.678414
0.67841
0.678406
0.678402
0.678398
0.678394
0.67839
0.678385
0.678381
0.678377
0.678373
0.678369
0.678365
0.67836
0.678356
0.678352
0.678348
0.678344
0.678339
0.678335
0.678331
0.678327
0.678322
0.678318
0.678314
0.678309
0.678305
0.678301
0.678297
0.678292
0.678288
0.678284
0.678279
0.678275
0.678271
0.678266
0.678262
0.678258
0.678253
0.678249
0.678244
0.67824
0.678236
0.678231
0.678227
0.678222
0.678218
0.678214
0.678209
0.678205
0.6782
0.678196
0.678191
0.678187
0.678182
0.678178
0.678174
0.678169
0.678165
0.67816
0.678156
0.678151
0.678146
0.678142
0.678137
0.678133
0.678128
0.678124
0.678119
0.678115
0.67811
0.678105
0.678101
0.678096
0.678092
0.678087
0.678082
0.678078
0.678073
0.678069
0.678064
0.678059
0.678055
0.67805
0.678045
0.678041
0.678036
0.678031
0.678027
0.678022
0.678017
0.678012
0.678008
0.678003
0.677998
0.677994
0.677989
0.677984
0.677979
0.677974
0.67797
0.677965
0.67796
0.677955
0.677951
0.677946
0.677941
0.677936
0.677931
0.677926
0.677922
0.677917
0.677912
0.677907
0.677902
0.677897
0.677892
0.677888
0.677883
0.677878
0.677873
0.677868
0.677863
0.677858
0.677853
0.677848
0.677843
0.677838
0.677833
0.677828
0.677823
0.677818
0.677813
0.677808
0.677803
0.677798
0.677793
0.677788
0.677783
0.677778
0.677773
0.677768
0.677763
0.677758
0.677753
0.677748
0.677743
0.677738
0.677733
0.677728
0.677723
0.677717
0.677712
0.677707
0.677702
0.677697
0.677692
0.677687
0.677681
0.677676
0.677671
0.677666
0.677661
0.677656
0.67765
0.677645
0.67764
0.677635
0.677629
0.677624
0.677619
0.677614
0.677608
0.677603
0.677598
0.677593
0.677587
0.677582
0.677577
0.677572
0.677566
0.677561
0.677556
0.67755
0.677545
0.67754
0.677534
0.677529
0.677524
0.677518
0.677513
0.677507
0.677502
0.677497
0.677491
0.677486
0.67748
0.677475
0.67747
0.677464
0.677459
0.677453
0.677448
0.677442
0.677437
0.677431
0.677426
0.67742
0.677415
0.677409
0.677404
0.677398
0.677393
0.677387
0.677382
0.677376
0.677371
0.677365
0.67736
0.677354
0.677348
0.677343
0.677337
0.677332
0.677326
0.67732
0.677315
0.677309
0.677304
0.677298
0.677292
0.677287
0.677281
0.677275
0.67727
0.677264
0.677258
0.677253
0.677247
0.677241
0.677236
0.67723
0.677224
0.677218
0.677213
0.677207
0.677201
0.677195
0.67719
0.677184
0.677178
0.677172
0.677166
0.677161
0.677155
0.677149
0.677143
0.677137
0.677132
0.677126
0.67712
0.677114
0.677108
0.677102
0.677096
0.677091
0.677085
0.677079
0.677073
0.677067
0.677061
0.677055
0.677049
0.677043
0.677037
0.677031
0.677025
0.677019
0.677014
0.677008
0.677002
0.676996
0.67699
0.676984
0.676978
0.676972
0.676966
0.67696
0.676953
0.676947
0.676941
0.676935
0.676929
0.676923
0.676917
0.676911
0.676905
0.676899
0.676893
0.676887
0.676881
0.676874
0.676868
0.676862
0.676856
0.67685
0.676844
0.676838
0.676831
0.676825
0.676819
0.676813
0.676807
0.6768
0.676794
0.676788
0.676782
0.676776
0.676769
0.676763
0.676757
0.676751
0.676744
0.676738
0.676732
0.676725
0.676719
0.676713
0.676707
0.6767
0.676694
0.676688
0.676681
0.676675
0.676669
0.676662
0.676656
0.676649
0.676643
0.676637
0.67663
0.676624
0.676618
0.676611
0.676605
0.676598
0.676592
0.676585
0.676579
0.676572
0.676566
0.67656
0.676553
0.676547
0.67654
0.676534
0.676527
0.676521
0.676514
0.676508
0.676501
0.676495
0.676488
0.676481
0.676475
0.676468
0.676462
0.676455
0.676449
0.676442
0.676435
0.676429
0.676422
0.676416
0.676409
0.676402
0.676396
0.676389
0.676382
0.676376
0.676369
0.676362
0.676356
0.676349
0.676342
0.676336
0.676329
0.676322
0.676316
0.676309
0.676302
0.676295
0.676289
0.676282
0.676275
0.676268
0.676262
0.676255
0.676248
0.676241
0.676234
0.676228
0.676221
0.676214
0.676207
0.6762
0.676194
0.676187
0.67618
0.676173
0.676166
0.676159
0.676152
0.676145
0.676139
0.676132
0.676125
0.676118
0.676111
0.676104
0.676097
0.67609
0.676083
0.676076
0.676069
0.676062
0.676055
0.676048
0.676041
0.676034
0.676027
0.67602
0.676013
0.676006
0.675999
0.675992
0.675985
0.675978
0.675971
0.675964
0.675957
0.67595
0.675943
0.675936
0.675928
0.675921
0.675914
0.675907
0.6759
0.675893
0.675886
0.675878
0.675871
0.675864
0.675857
0.67585
0.675843
0.675835
0.675828
0.675821
0.675814
0.675807
0.675799
0.675792
0.675785
0.675778
0.67577
0.675763
0.675756
0.675749
0.675741
0.675734
0.675727
0.675719
0.675712
0.675705
0.675697
0.67569
0.675683
0.675675
0.675668
0.675661
0.675653
0.675646
0.675639
0.675631
0.675624
0.675616
0.675609
0.675602
0.675594
0.675587
0.675579
0.675572
0.675564
0.675557
0.675549
0.675542
0.675534
0.675527
0.675519
0.675512
0.675504
0.675497
0.675489
0.675482
0.675474
0.675467
0.675459
0.675452
0.675444
0.675437
0.675429
0.675421
0.675414
0.675406
0.675399
0.675391
0.675383
0.675376
0.675368
0.67536
0.675353
0.675345
0.675337
0.67533
0.675322
0.675314
0.675307
0.675299
0.675291
0.675284
0.675276
0.675268
0.67526
0.675253
0.675245
0.675237
0.675229
0.675222
0.675214
0.675206
0.675198
0.675191
0.675183
0.675175
0.675167
0.675159
0.675151
0.675144
0.675136
0.675128
0.67512
0.675112
0.675104
0.675096
0.675089
0.675081
0.675073
0.675065
0.675057
0.675049
0.675041
0.675033
0.675025
0.675017
0.675009
0.675001
0.674993
0.674985
0.674977
0.674969
0.674961
0.674953
0.674945
0.674937
0.674929
0.674921
0.674913
0.674905
0.674897
0.674889
0.674881
0.674873
0.674865
0.674857
0.674849
0.674841
0.674832
0.674824
0.674816
0.674808
0.6748
0.674792
0.674784
0.674775
0.674767
0.674759
0.674751
0.674743
0.674734
0.674726
0.674718
0.67471
0.674702
0.674693
0.674685
0.674677
0.674669
0.67466
0.674652
0.674644
0.674635
0.674627
0.674619
0.674611
0.674602
0.674594
0.674586
0.674577
0.674569
0.674561
0.674552
0.674544
0.674535
0.674527
0.674519
0.67451
0.674502
0.674493
0.674485
0.674477
0.674468
0.67446
0.674451
0.674443
0.674434
0.674426
0.674417
0.674409
0.674401
0.674392
0.674384
0.674375
0.674366
0.674358
0.674349
0.674341
0.674332
0.674324
0.674315
0.674307
0.674298
0.67429
0.674281
0.674272
0.674264
0.674255
0.674246
0.674238
0.674229
0.674221
0.674212
0.674203
0.674195
0.674186
0.674177
0.674169
0.67416
0.674151
0.674143
0.674134
0.674125
0.674116
0.674108
0.674099
0.67409
0.674081
0.674073
0.674064
0.674055
0.674046
0.674037
0.674029
0.67402
0.674011
0.674002
0.673993
0.673985
0.673976
0.673967
0.673958
0.673949
0.67394
0.673931
0.673923
0.673914
0.673905
0.673896
0.673887
0.673878
0.673869
0.67386
0.673851
0.673842
0.673833
0.673824
0.673815
0.673806
0.673797
0.673788
0.673779
0.67377
0.673761
0.673752
0.673743
0.673734
0.673725
0.673716
0.673707
0.673698
0.673689
0.67368
0.673671
0.673662
0.673652
0.673643
0.673634
0.673625
0.673616
0.673607
0.673598
0.673588
0.673579
0.67357
0.673561
0.673552
0.673543
0.673533
0.673524
0.673515
0.673506
0.673496
0.673487
0.673478
0.673469
0.673459
0.67345
0.673441
0.673432
0.673422
0.673413
0.673404
0.673394
0.673385
0.673376
0.673366
0.673357
0.673348
0.673338
0.673329
0.67332
0.67331
0.673301
0.673291
0.673282
0.673273
0.673263
0.673254
0.673244
0.673235
0.673225
0.673216
0.673206
0.673197
0.673188
0.673178
0.673169
0.673159
0.67315
0.67314
0.67313
0.673121
0.673111
0.673102
0.673092
0.673083
0.673073
0.673064
0.673054
0.673044
0.673035
0.673025
0.673016
0.673006
0.672996
0.672987
0.672977
0.672967
0.672958
0.672948
0.672938
0.672929
0.672919
0.672909
0.6729
0.67289
0.67288
0.67287
0.672861
0.672851
0.672841
0.672831
0.672822
0.672812
0.672802
0.672792
0.672782
0.672773
0.672763
0.672753
0.672743
0.672733
0.672723
0.672714
0.672704
0.672694
0.672684
0.672674
0.672664
0.672654
0.672644
0.672634
0.672624
0.672615
0.672605
0.672595
0.672585
0.672575
0.672565
0.672555
0.672545
0.672535
0.672525
0.672515
0.672505
0.672495
0.672485
0.672475
0.672465
0.672455
0.672444
0.672434
0.672424
0.672414
0.672404
0.672394
0.672384
0.672374
0.672364
0.672354
0.672343
0.672333
0.672323
0.672313
0.672303
0.672293
0.672282
0.672272
0.672262
0.672252
0.672241
0.672231
0.672221
0.672211
0.6722
0.67219
0.67218
0.67217
0.672159
0.672149
0.672139
0.672128
0.672118
0.672108
0.672097
0.672087
0.672077
0.672066
0.672056
0.672046
0.672035
0.672025
0.672014
0.672004
0.671994
0.671983
0.671973
0.671962
0.671952
0.671941
0.671931
0.67192
0.67191
0.671899
0.671889
0.671878
0.671868
0.671857
0.671847
0.671836
0.671826
0.671815
0.671805
0.671794
0.671784
0.671773
0.671762
0.671752
0.671741
0.67173
0.67172
0.671709
0.671699
0.671688
0.671677
0.671667
0.671656
0.671645
0.671634
0.671624
0.671613
0.671602
0.671592
0.671581
0.67157
0.671559
0.671549
0.671538
0.671527
0.671516
0.671505
0.671495
0.671484
0.671473
0.671462
0.671451
0.67144
0.67143
0.671419
0.671408
0.671397
0.671386
0.671375
0.671364
0.671353
0.671342
0.671331
0.67132
0.671309
0.671298
0.671287
0.671277
0.671266
0.671255
0.671243
0.671232
0.671221
0.67121
0.671199
0.671188
0.671177
0.671166
0.671155
0.671144
0.671133
0.671122
0.671111
0.6711
0.671088
0.671077
0.671066
0.671055
0.671044
0.671033
0.671021
0.67101
0.670999
0.670988
0.670977
0.670965
0.670954
0.670943
0.670931
0.67092
0.670909
0.670898
0.670886
0.670875
0.670864
0.670852
0.670841
0.67083
0.670818
0.670807
0.670796
0.670784
0.670773
0.670761
0.67075
0.670739
0.670727
0.670716
0.670704
0.670693
0.670681
0.67067
0.670658
0.670647
0.670635
0.670624
0.670612
0.670601
0.670589
0.670578
0.670566
0.670554
0.670543
0.670531
0.67052
0.670508
0.670496
0.670485
0.670473
0.670461
0.67045
0.670438
0.670426
0.670415
0.670403
0.670391
0.670379
0.670368
0.670356
0.670344
0.670332
0.670321
0.670309
0.670297
0.670285
0.670273
0.670262
0.67025
0.670238
0.670226
0.670214
0.670202
0.67019
0.670178
0.670166
0.670155
0.670143
0.670131
0.670119
0.670107
0.670095
0.670083
0.670071
0.670059
0.670047
0.670035
0.670023
0.670011
0.669998
0.669986
0.669974
0.669962
0.66995
0.669938
0.669926
0.669914
0.669901
0.669889
0.669877
0.669865
0.669853
0.66984
0.669828
0.669816
0.669804
0.669791
0.669779
0.669767
0.669755
0.669742
0.66973
0.669718
0.669705
0.669693
0.66968
0.669668
0.669656
0.669643
0.669631
0.669618
0.669606
0.669593
0.669581
0.669569
0.669556
0.669543
0.669531
0.669518
0.669506
0.669493
0.669481
0.669468
0.669456
0.669443
0.66943
0.669418
0.669405
0.669392
0.66938
0.669367
0.669354
0.669342
0.669329
0.669316
0.669303
0.669291
0.669278
0.669265
0.669252
0.669239
0.669227
0.669214
0.669201
0.669188
0.669175
0.669162
0.669149
0.669136
0.669123
0.66911
0.669097
0.669084
0.669071
0.669058
0.669045
0.669032
0.669019
0.669006
0.668993
0.66898
0.668967
0.668954
0.668941
0.668927
0.668914
0.668901
0.668888
0.668875
0.668861
0.668848
0.668835
0.668822
0.668808
0.668795
0.668782
0.668768
0.668755
0.668742
0.668728
0.668715
0.668701
0.668688
0.668674
0.668661
0.668647
0.668634
0.66862
0.668607
0.668593
0.66858
0.668566
0.668553
0.668539
0.668525
0.668512
0.668498
0.668484
0.668471
0.668457
0.668443
0.668429
0.668416
0.668402
0.668388
0.668374
0.66836
0.668346
0.668333
0.668319
0.668305
0.668291
0.668277
0.668263
0.668249
0.668235
0.668221
0.668207
0.668193
0.668178
0.668164
0.66815
0.668136
0.668122
0.668108
0.668093
0.668079
0.668065
0.668051
0.668036
0.668022
0.668008
0.667993
0.667979
0.667964
0.66795
0.667935
0.667921
0.667906
0.667892
0.667877
0.667863
0.667848
0.667833
0.667819
0.667804
0.667789
0.667774
0.66776
0.667745
0.66773
0.667715
0.6677
0.667685
0.66767
0.667655
0.66764
0.667625
0.66761
0.667595
0.66758
0.667565
0.667549
0.667534
0.667519
0.667503
0.667488
0.667473
0.667457
0.667442
0.667426
0.667411
0.667395
0.667379
0.667364
0.667348
0.667332
0.667316
0.667301
0.667285
0.667269
0.667253
0.667237
0.66722
0.667204
0.667188
0.667172
0.667156
0.667139
0.667123
0.667106
0.66709
0.667073
0.667056
0.66704
0.667023
0.667006
0.666989
0.666972
0.666955
0.666937
0.66692
0.666903
0.666885
0.666868
0.66685
0.666832
0.666815
0.666797
0.666779
0.666761
0.666742
0.666724
0.666705
0.666687
0.666668
0.666649
0.66663
0.666611
0.666592
0.666573
0.666553
0.666533
0.666513
0.666493
0.666473
0.666453
0.666432
0.666411
0.66639
0.666369
0.666348
0.666326
0.666304
0.666282
0.66626
0.666237
0.666214
0.666191
0.666167
0.666143
0.666119
0.666094
0.666069
0.666044
0.666018
0.665992
0.665966
0.665939
0.665912
0.665884
0.665855
0.665826
0.665797
0.665767
0.665736
0.665705
0.665674
0.665641
0.665608
0.665574
0.66554
0.665505
0.665469
0.665432
0.665395
0.665357
0.665317
0.665277
0.665237
0.665195
0.665152
0.665109
0.665064
0.665018
0.664972
0.664924
0.664876
0.664826
0.664775
0.664724
0.664671
0.664617
0.664562
0.664506
0.664449
0.66439
0.664331
0.66427
0.664208
0.664146
0.664082
0.664017
0.663951
0.663884
0.663815
0.663746
0.663676
0.663605
0.663532
0.663459
0.663385
0.66331
0.663234
0.663157
0.663079
0.663
0.662921
0.662841
0.66276
0.662678
0.662596
0.662513
0.662429
0.662344
0.662259
0.662174
0.662088
0.662001
0.661914
0.661827
0.661739
0.66165
0.661562
0.661473
0.661383
0.661293
0.661203
0.661113
0.661022
0.660932
0.66084
0.660749
0.660658
0.660566
0.660474
0.660382
0.66029
0.660198
0.660105
0.660013
0.65992
0.659828
0.659735
0.659642
0.659549
0.659456
0.659363
0.65927
0.659177
0.659084
0.658991
0.658897
0.658804
0.658711
0.658618
0.658524
0.658431
0.658338
0.658244
0.658151
0.658058
0.657964
0.657871
0.657778
0.657684
0.657591
0.657498
0.657404
0.657311
0.657218
0.657124
0.657031
0.656938
0.656845
0.656751
0.656658
0.656565
0.656471
0.656378
0.656285
0.656192
0.656098
0.656005
0.655912
0.655819
0.655726
0.655633
0.655539
0.655446
0.655353
0.65526
0.655167
0.655074
0.654981
0.654887
0.654794
0.654701
0.654608
0.654515
0.654422
0.654329
0.654236
0.654143
0.65405
0.653957
0.653864
0.653771
0.653678
0.653585
0.653492
0.653399
0.653307
0.653214
0.653121
0.653028
0.652935
0.652842
0.652749
0.652656
0.652564
0.652471
0.652378
0.652285
0.652192
0.6521
0.652007
0.651914
0.651821
0.651729
0.651636
0.651543
0.65145
0.651358
0.651265
0.651172
0.65108
0.650987
0.650894
0.650802
0.650709
0.650617
0.650524
0.650431
0.650339
0.650246
0.650154
0.650061
0.649969
0.649876
0.649784
0.649691
0.649599
0.649506
0.649414
0.649321
0.649229
0.649136
0.649044
0.648952
0.648859
0.648767
0.648674
0.648582
0.64849
0.648397
0.648305
0.648213
0.64812
0.648028
0.647936
0.647843
0.647751
0.647659
0.647567
0.647474
0.647382
0.64729
0.647198
0.647105
0.647013
0.646921
0.646829
0.646737
0.646645
0.646552
0.64646
0.646368
0.646276
0.646184
0.646092
0.646
0.645908
0.645816
0.645724
0.645632
0.645539
0.645447
0.645355
0.645263
0.645171
0.645079
0.644988
0.644896
0.644804
0.644712
0.64462
0.644528
0.644436
0.644344
0.644252
0.64416
0.644068
0.643977
0.643885
0.643793
0.643701
0.643609
0.643518
0.643426
0.643334
0.643242
0.64315
0.643059
0.642967
0.642875
0.642784
0.642692
0.6426
0.642508
0.642417
0.642325
0.642233
0.642142
0.64205
0.641959
0.641867
0.641775
0.641684
0.641592
0.641501
0.641409
0.641318
0.641226
0.641134
0.641043
0.640951
0.64086
0.640768
0.640677
0.640586
0.640494
0.640403
0.640311
0.64022
0.640128
0.640037
0.639946
0.639854
0.639763
0.639672
0.63958
0.639489
0.639398
0.639306
0.639215
0.639124
0.639032
0.638941
0.63885
0.638759
0.638667
0.638576
0.638485
0.638394
0.638302
0.638211
0.63812
0.638029
0.637938
0.637847
0.637755
0.637664
0.637573
0.637482
0.637391
0.6373
0.637209
0.637118
0.637027
0.636936
0.636845
0.636754
0.636663
0.636572
0.636481
0.63639
0.636299
0.636208
0.636117
0.636026
0.635935
0.635844
0.635753
0.635662
0.635571
0.63548
0.63539
0.635299
0.635208
0.635117
0.635026
0.634935
0.634845
0.634754
0.634663
0.634572
0.634481
0.634391
0.6343
0.634209
0.634118
0.634028
0.633937
0.633846
0.633756
0.633665
0.633574
0.633484
0.633393
0.633302
0.633212
0.633121
0.633031
0.63294
0.632849
0.632759
0.632668
0.632578
0.632487
0.632397
0.632306
0.632216
0.632125
0.632035
0.631944
0.631854
0.631763
0.631673
0.631583
0.631492
0.631402
0.631311
0.631221
0.631131
0.63104
0.63095
0.630859
0.630769
0.630679
0.630588
0.630498
0.630408
0.630318
0.630227
0.630137
0.630047
0.629957
0.629866
0.629776
0.629686
0.629596
0.629505
0.629415
0.629325
0.629235
0.629145
0.629055
0.628965
0.628874
0.628784
0.628694
0.628604
0.628514
0.628424
0.628334
0.628244
0.628154
0.628064
0.627974
0.627884
0.627794
0.627704
0.627614
0.627524
0.627434
0.627344
0.627254
0.627164
0.627074
0.626984
0.626894
0.626805
0.626715
0.626625
0.626535
0.626445
0.626355
0.626265
0.626176
0.626086
0.625996
0.625906
0.625817
0.625727
0.625637
0.625547
0.625458
0.625368
0.625278
0.625188
0.625099
0.625009
0.624919
0.62483
0.62474
0.62465
0.624561
0.624471
0.624382
0.624292
0.624202
0.624113
0.624023
0.623934
0.623844
0.623755
0.623665
0.623576
0.623486
0.623397
0.623307
0.623218
0.623128
0.623039
0.622949
0.62286
0.622771
0.622681
0.622592
0.622502
0.622413
0.622324
0.622234
0.622145
0.622056
0.621966
0.621877
0.621788
0.621698
0.621609
0.62152
0.621431
0.621341
0.621252
0.621163
0.621074
0.620984
0.620896
0.620805
0.620717
0.620627
0.620539
0.620448
0.620361
0.62027
0.620184
0.620091
0.620006
0.619912
0.619829
0.619733
0.619651
0.619554
0.619474
0.619375
0.619297
0.619197
0.619119
0.619018
0.618941
0.61884
0.618763
0.618663
0.618585
0.618486
0.618406
0.618309
0.618227
0.618133
0.618047
0.617957
0.617867
0.617782
0.617688
0.617605
0.617509
0.617429
0.617331
0.617251
0.617154
0.617072
0.616978
0.616893
0.616803
0.616713
0.616627
0.616534
0.616451
0.616356
0.616275
0.616179
0.616096
0.616003
0.615917
0.615828
0.615738
0.615652
0.615559
0.615476
0.615381
0.615299
0.615205
0.615121
0.61503
0.614942
0.614855
0.614763
0.614679
0.614585
0.614502
0.614409
0.614324
0.614234
0.614145
0.614059
0.613967
0.613883
0.61379
0.613706
0.613614
0.613528
0.613439
0.613349
0.613264
0.613171
0.613088
0.612995
0.61291
0.612821
0.612732
0.612646
0.612554
0.61247
0.612378
0.612293
0.612203
0.612114
0.612028
0.611937
0.611853
0.61176
0.611676
0.611586
0.611497
0.611411
0.61132
0.611236
0.611144
0.611059
0.610969
0.610881
0.610795
0.610703
0.610619
0.610528
0.610442
0.610354
0.610264
0.610179
0.610088
0.610003
0.609913
0.609826
0.609739
0.609648
0.609564
0.609473
0.609387
0.609298
0.60921
0.609124
0.609033
0.608948
0.608858
0.608772
0.608684
0.608595
0.60851
0.608419
0.608333
0.608245
0.608156
0.608071
0.60798
0.607895
0.607806
0.607718
0.607632
0.607542
0.607457
0.607367
0.607281
0.607193
0.607104
0.607019
0.606929
0.606843
0.606755
0.606666
0.606581
0.606491
0.606405
0.606317
0.606229
0.606143
0.606053
0.605968
0.605879
0.605792
0.605706
0.605616
0.605531
0.605442
0.605355
0.605268
0.605179
0.605094
0.605005
0.604918
0.604831
0.604742
0.604657
0.604568
0.604482
0.604395
0.604306
0.604221
0.604132
0.604045
0.603958
0.60387
0.603784
0.603696
0.603609
0.603522
0.603434
0.603348
0.60326
0.603173
0.603087
0.602998
0.602913
0.602824
0.602737
0.602651
0.602562
0.602477
0.602389
0.602302
0.602216
0.602127
0.602042
0.601954
0.601867
0.601781
0.601692
0.601606
0.601519
0.601432
0.601346
0.601258
0.601172
0.601085
0.600997
0.600911
0.600823
0.600737
0.600651
0.600563
0.600477
0.60039
0.600302
0.600217
0.600129
0.600043
0.599956
0.599868
0.599783
0.599695
0.599609
0.599522
0.599434
0.599349
0.599262
0.599175
0.599089
0.599001
0.598915
0.598829
0.598741
0.598656
0.598568
0.598482
0.598396
0.598308
0.598223
0.598135
0.598049
0.597963
0.597875
0.59779
0.597703
0.597616
0.59753
0.597443
0.597357
0.597271
0.597183
0.597098
0.597011
0.596924
0.596839
0.596752
0.596665
0.596579
0.596492
0.596407
0.59632
0.596233
0.596148
0.596061
0.595975
0.595889
0.595802
0.595716
0.595629
0.595543
0.595457
0.59537
0.595284
0.595199
0.595112
0.595026
0.59494
0.594853
0.594768
0.594681
0.594595
0.594509
0.594422
0.594337
0.59425
0.594164
0.594079
0.593992
0.593906
0.59382
0.593734
0.593648
0.593562
0.593475
0.59339
0.593304
0.593218
0.593132
0.593045
0.59296
0.592874
0.592788
0.592702
0.592616
0.59253
0.592445
0.592358
0.592272
0.592187
0.5921
0.592015
0.591929
0.591843
0.591758
0.591671
0.591586
0.5915
0.591414
0.591328
0.591243
0.591157
0.591071
0.590985
0.590899
0.590814
0.590728
0.590642
0.590557
0.590471
0.590385
0.5903
0.590214
0.590129
0.590043
0.589957
0.589872
0.589786
0.5897
0.589615
0.589529
0.589444
0.589358
0.589272
0.589187
0.589102
0.589016
0.588931
0.588845
0.588759
0.588674
0.588589
0.588503
0.588418
0.588332
0.588247
0.588162
0.588076
0.587991
0.587906
0.58782
0.587735
0.587649
0.587564
0.587479
0.587393
0.587308
0.587223
0.587137
0.587052
0.586967
0.586882
0.586797
0.586711
0.586626
0.586541
0.586456
0.58637
0.586285
0.5862
0.586115
0.58603
0.585944
0.585859
0.585774
0.585689
0.585604
0.585519
0.585434
0.585349
0.585264
0.585178
0.585094
0.585009
0.584923
0.584839
0.584754
0.584668
0.584584
0.584499
0.584413
0.584329
0.584244
0.584159
0.584074
0.583989
0.583904
0.583819
0.583734
0.583649
0.583565
0.583479
0.583395
0.58331
0.583225
0.58314
0.583055
0.58297
0.582886
0.582801
0.582716
0.582632
0.582547
0.582462
0.582377
0.582292
0.582208
0.582123
0.582038
0.581954
0.581869
0.581784
0.5817
0.581615
0.58153
0.581446
0.581361
0.581277
0.581192
0.581108
0.581023
0.580938
0.580854
0.580769
0.580685
0.5806
0.580516
0.580431
0.580347
0.580262
0.580178
0.580093
0.580009
0.579924
0.57984
0.579755
0.579671
0.579587
0.579502
0.579418
0.579334
0.579249
0.579165
0.57908
0.578996
0.578912
0.578827
0.578743
0.578659
0.578575
0.57849
0.578406
0.578322
0.578238
0.578153
0.578069
0.577985
0.577901
0.577816
0.577732
0.577648
0.577564
0.57748
0.577396
0.577311
0.577227
0.577143
0.577059
0.576975
0.576891
0.576807
0.576723
0.576639
0.576555
0.576471
0.576387
0.576303
0.576219
0.576135
0.576051
0.575967
0.575883
0.575799
0.575715
0.575631
0.575547
0.575463
0.575379
0.575295
0.575211
0.575127
0.575043
0.57496
0.574876
0.574792
0.574708
0.574624
0.57454
0.574457
0.574373
0.574289
0.574205
0.574122
0.574038
0.573954
0.57387
0.573787
0.573703
0.573619
0.573535
0.573452
0.573368
0.573284
0.573201
0.573117
0.573033
0.57295
0.572866
0.572783
0.572699
0.572616
0.572532
0.572448
0.572365
0.572281
0.572198
0.572114
0.572031
0.571947
0.571864
0.57178
0.571697
0.571613
0.57153
0.571446
0.571363
0.571279
0.571196
0.571113
0.571029
0.570946
0.570862
0.570779
0.570696
0.570612
0.570529
0.570446
0.570362
0.570279
0.570196
0.570112
0.570029
0.569946
0.569863
0.569779
0.569696
0.569613
0.56953
0.569446
0.569363
0.56928
0.569197
0.569114
0.569031
0.568947
0.568864
0.568781
0.568698
0.568615
0.568532
0.568449
0.568365
0.568282
0.568199
0.568116
0.568033
0.56795
0.567867
0.567784
0.567701
0.567618
0.567535
0.567452
0.567369
0.567286
0.567203
0.56712
0.567037
0.566955
0.566872
0.566789
0.566706
0.566623
0.56654
0.566457
0.566374
0.566291
0.566209
0.566126
0.566043
0.56596
0.565877
0.565795
0.565712
0.565629
0.565546
0.565464
0.565381
0.565298
0.565215
0.565133
0.56505
0.564967
0.564885
0.564802
0.564719
0.564637
0.564554
0.564471
0.564389
0.564306
0.564224
0.564141
0.564058
0.563976
0.563893
0.563811
0.563728
0.563646
0.563563
0.563481
0.563398
0.563316
0.563233
0.563151
0.563068
0.562986
0.562903
0.562821
0.562739
0.562656
0.562574
0.562491
0.562409
0.562326
0.562244
0.562162
0.562079
0.561997
0.561915
0.561832
0.56175
0.561668
0.561586
0.561503
0.561421
0.561339
0.561256
0.561174
0.561092
0.56101
0.560928
0.560845
0.560763
0.560681
0.560599
0.560517
0.560435
0.560352
0.56027
0.560188
0.560106
0.560024
0.559942
0.55986
0.559778
0.559696
0.559614
0.559532
0.559449
0.559367
0.559285
0.559203
0.559121
0.559039
0.558957
0.558875
0.558794
0.558712
0.55863
0.558548
0.558466
0.558384
0.558302
0.55822
0.558138
0.558056
0.557974
0.557893
0.557811
0.557729
0.557647
0.557565
0.557484
0.557402
0.55732
0.557238
0.557156
0.557075
0.556993
0.556911
0.556829
0.556748
0.556666
0.556584
0.556503
0.556421
0.556339
0.556258
0.556176
0.556094
0.556013
0.555931
0.555849
0.555768
0.555686
0.555605
0.555523
0.555442
0.55536
0.555278
0.555197
0.555115
0.555034
0.554952
0.554871
0.554789
0.554708
0.554627
0.554545
0.554464
0.554382
0.554301
0.554219
0.554138
0.554057
0.553975
0.553894
0.553812
0.553731
0.55365
0.553568
0.553487
0.553406
0.553324
0.553243
0.553162
0.553081
0.552999
0.552918
0.552837
0.552755
0.552674
0.552593
0.552512
0.552431
0.552349
0.552268
0.552187
0.552106
0.552025
0.551944
0.551862
0.551781
0.5517
0.551619
0.551538
0.551457
0.551376
0.551295
0.551214
0.551133
0.551052
0.550971
0.55089
0.550809
0.550728
0.550647
0.550566
0.550485
0.550404
0.550323
0.550242
0.550161
0.55008
0.549999
0.549918
0.549837
0.549756
0.549675
0.549595
0.549514
0.549433
0.549352
0.549271
0.54919
0.54911
0.549029
0.548948
0.548867
0.548786
0.548706
0.548625
0.548544
0.548463
0.548383
0.548302
0.548221
0.548141
0.54806
0.547979
0.547899
0.547818
0.547737
0.547657
0.547576
0.547495
0.547415
0.547334
0.547254
0.547173
0.547092
0.547012
0.546931
0.546851
0.54677
0.54669
0.546609
0.546529
0.546448
0.546368
0.546287
0.546207
0.546126
0.546046
0.545965
0.545885
0.545805
0.545724
0.545644
0.545563
0.545483
0.545403
0.545322
0.545242
0.545162
0.545081
0.545001
0.544921
0.54484
0.54476
0.54468
0.544599
0.544519
0.544439
0.544359
0.544278
0.544198
0.544118
0.544038
0.543958
0.543877
0.543797
0.543717
0.543637
0.543557
0.543477
0.543397
0.543316
0.543236
0.543156
0.543076
0.542996
0.542916
0.542836
0.542756
0.542676
0.542596
0.542516
0.542436
0.542356
0.542276
0.542196
0.542116
0.542036
0.541956
0.541876
0.541796
0.541716
0.541636
0.541556
0.541476
0.541396
0.541317
0.541237
0.541157
0.541077
0.540997
0.540917
0.540837
0.540758
0.540678
0.540598
0.540518
0.540438
0.540359
0.540279
0.540199
0.540119
0.54004
0.53996
0.53988
0.539801
0.539721
0.539641
0.539562
0.539482
0.539402
0.539323
0.539243
0.539163
0.539084
0.539004
0.538925
0.538845
0.538765
0.538686
0.538606
0.538527
0.538447
0.538368
0.538288
0.538209
0.538129
0.53805
0.53797
0.537891
0.537811
0.537732
0.537652
0.537573
0.537493
0.537414
0.537335
0.537255
0.537176
0.537096
0.537017
0.536938
0.536858
0.536779
0.5367
0.53662
0.536541
0.536462
0.536383
0.536303
0.536224
0.536145
0.536065
0.535986
0.535907
0.535828
0.535749
0.535669
0.53559
0.535511
0.535432
0.535353
0.535273
0.535194
0.535115
0.535036
0.534957
0.534878
0.534799
0.53472
0.534641
0.534561
0.534482
0.534403
0.534324
0.534245
0.534166
0.534087
0.534008
0.533929
0.53385
0.533771
0.533692
0.533613
0.533534
0.533455
0.533377
0.533298
0.533219
0.53314
0.533061
0.532982
0.532903
0.532824
0.532745
0.532667
0.532588
0.532509
0.53243
0.532351
0.532273
0.532194
0.532115
0.532036
0.531957
0.531879
0.5318
0.531721
0.531642
0.531564
0.531485
0.531406
0.531328
0.531249
0.53117
0.531092
0.531013
0.530934
0.530856
0.530777
0.530699
0.53062
0.530541
0.530463
0.530384
0.530306
0.530227
0.530149
0.53007
0.529992
0.529913
0.529834
0.529756
0.529678
0.529599
0.529521
0.529442
0.529364
0.529285
0.529207
0.529128
0.52905
0.528972
0.528893
0.528815
0.528736
0.528658
0.52858
0.528501
0.528423
0.528345
0.528266
0.528188
0.52811
0.528032
0.527953
0.527875
0.527797
0.527718
0.52764
0.527562
0.527484
0.527406
0.527327
0.527249
0.527171
0.527093
0.527015
0.526937
0.526858
0.52678
0.526702
0.526624
0.526546
0.526468
0.52639
0.526312
0.526234
0.526155
0.526077
0.525999
0.525921
0.525843
0.525765
0.525687
0.525609
0.525531
0.525453
0.525375
0.525297
0.52522
0.525142
0.525064
0.524986
0.524908
0.52483
0.524752
0.524674
0.524596
0.524518
0.524441
0.524363
0.524285
0.524207
0.524129
0.524051
0.523974
0.523896
0.523818
0.52374
0.523663
0.523585
0.523507
0.523429
0.523352
0.523274
0.523196
0.523119
0.523041
0.522963
0.522885
0.522808
0.52273
0.522653
0.522575
0.522497
0.52242
0.522342
0.522265
0.522187
0.522109
0.522032
0.521954
0.521877
0.521799
0.521722
0.521644
0.521567
0.521489
0.521412
0.521334
0.521257
0.521179
0.521102
0.521024
0.520947
0.52087
0.520792