/*--------------------------------*- C++ -*----------------------------------*\
  =========                 |
  \\      /  F ield         | OpenFOAM: The Open Source CFD Toolbox
   \\    /   O peration     | Website:  https://openfoam.org
    \\  /    A nd           | Version:  9
     \\/     M anipulation  |
\*---------------------------------------------------------------------------*/
FoamFile
{
    format      ascii;
    class       volVectorField;
    location    "0.017";
    object      U;
}
// * * * * * * * * * * * * * * * * * * * * * * * * * * * * * * * * * * * * * //

dimensions      [0 1 -1 0 0 0 0];

internalField   nonuniform List<vector> 
10000
(
(1.43276 0 0)
(1.58387 0 0)
(1.65445 0 0)
(1.74392 0 0)
(1.83603 0 0)
(1.92594 0 0)
(2.01519 0 0)
(2.10479 0 0)
(2.19456 0 0)
(2.28425 0 0)
(2.3739 0 0)
(2.46356 0 0)
(2.55323 0 0)
(2.6429 0 0)
(2.73257 0 0)
(2.82224 0 0)
(2.91191 0 0)
(3.00158 0 0)
(3.09126 0 0)
(3.18093 0 0)
(3.2706 0 0)
(3.36028 0 0)
(3.44995 0 0)
(3.53963 0 0)
(3.6293 0 0)
(3.71898 0 0)
(3.80866 0 0)
(3.89833 0 0)
(3.98801 0 0)
(4.07769 0 0)
(4.16737 0 0)
(4.25705 0 0)
(4.34674 0 0)
(4.43642 0 0)
(4.5261 0 0)
(4.61578 0 0)
(4.70547 0 0)
(4.79515 0 0)
(4.88484 0 0)
(4.97453 0 0)
(5.06421 0 0)
(5.1539 0 0)
(5.24359 0 0)
(5.33328 0 0)
(5.42297 0 0)
(5.51266 0 0)
(5.60235 0 0)
(5.69204 0 0)
(5.78174 0 0)
(5.87143 0 0)
(5.96112 0 0)
(6.05082 0 0)
(6.14051 0 0)
(6.23021 0 0)
(6.31991 0 0)
(6.40961 0 0)
(6.4993 0 0)
(6.589 0 0)
(6.6787 0 0)
(6.7684 0 0)
(6.85811 0 0)
(6.94781 0 0)
(7.03751 0 0)
(7.12721 0 0)
(7.21692 0 0)
(7.30662 0 0)
(7.39633 0 0)
(7.48604 0 0)
(7.57574 0 0)
(7.66545 0 0)
(7.75516 0 0)
(7.84487 0 0)
(7.93458 0 0)
(8.02429 0 0)
(8.114 0 0)
(8.20371 0 0)
(8.29343 0 0)
(8.38314 0 0)
(8.47285 0 0)
(8.56257 0 0)
(8.65228 0 0)
(8.742 0 0)
(8.83172 0 0)
(8.92144 0 0)
(9.01115 0 0)
(9.10087 0 0)
(9.19059 0 0)
(9.28031 0 0)
(9.37004 0 0)
(9.45976 0 0)
(9.54948 0 0)
(9.63921 0 0)
(9.72893 0 0)
(9.81865 0 0)
(9.90838 0 0)
(9.99811 0 0)
(10.0878 0 0)
(10.1776 0 0)
(10.2673 0 0)
(10.357 0 0)
(10.4468 0 0)
(10.5365 0 0)
(10.6262 0 0)
(10.7159 0 0)
(10.8057 0 0)
(10.8954 0 0)
(10.9851 0 0)
(11.0749 0 0)
(11.1646 0 0)
(11.2544 0 0)
(11.3441 0 0)
(11.4338 0 0)
(11.5236 0 0)
(11.6133 0 0)
(11.703 0 0)
(11.7928 0 0)
(11.8825 0 0)
(11.9723 0 0)
(12.062 0 0)
(12.1518 0 0)
(12.2415 0 0)
(12.3312 0 0)
(12.421 0 0)
(12.5107 0 0)
(12.6005 0 0)
(12.6902 0 0)
(12.78 0 0)
(12.8697 0 0)
(12.9595 0 0)
(13.0492 0 0)
(13.139 0 0)
(13.2287 0 0)
(13.3185 0 0)
(13.4082 0 0)
(13.498 0 0)
(13.5878 0 0)
(13.6775 0 0)
(13.7673 0 0)
(13.857 0 0)
(13.9468 0 0)
(14.0365 0 0)
(14.1263 0 0)
(14.2161 0 0)
(14.3058 0 0)
(14.3956 0 0)
(14.4854 0 0)
(14.5751 0 0)
(14.6649 0 0)
(14.7546 0 0)
(14.8444 0 0)
(14.9342 0 0)
(15.0239 0 0)
(15.1137 0 0)
(15.2035 0 0)
(15.2932 0 0)
(15.383 0 0)
(15.4728 0 0)
(15.5626 0 0)
(15.6523 0 0)
(15.7421 0 0)
(15.8319 0 0)
(15.9217 0 0)
(16.0114 0 0)
(16.1012 0 0)
(16.191 0 0)
(16.2808 0 0)
(16.3705 0 0)
(16.4603 0 0)
(16.5501 0 0)
(16.6399 0 0)
(16.7297 0 0)
(16.8194 0 0)
(16.9092 0 0)
(16.999 0 0)
(17.0888 0 0)
(17.1786 0 0)
(17.2683 0 0)
(17.3581 0 0)
(17.4479 0 0)
(17.5377 0 0)
(17.6275 0 0)
(17.7173 0 0)
(17.8071 0 0)
(17.8969 0 0)
(17.9867 0 0)
(18.0764 0 0)
(18.1662 0 0)
(18.256 0 0)
(18.3458 0 0)
(18.4356 0 0)
(18.5254 0 0)
(18.6152 0 0)
(18.705 0 0)
(18.7948 0 0)
(18.8846 0 0)
(18.9744 0 0)
(19.0642 0 0)
(19.154 0 0)
(19.2438 0 0)
(19.3336 0 0)
(19.4234 0 0)
(19.5132 0 0)
(19.603 0 0)
(19.6928 0 0)
(19.7826 0 0)
(19.8724 0 0)
(19.9622 0 0)
(20.052 0 0)
(20.1418 0 0)
(20.2317 0 0)
(20.3215 0 0)
(20.4113 0 0)
(20.5011 0 0)
(20.5909 0 0)
(20.6807 0 0)
(20.7705 0 0)
(20.8603 0 0)
(20.9501 0 0)
(21.04 0 0)
(21.1298 0 0)
(21.2196 0 0)
(21.3094 0 0)
(21.3992 0 0)
(21.489 0 0)
(21.5789 0 0)
(21.6687 0 0)
(21.7585 0 0)
(21.8483 0 0)
(21.9382 0 0)
(22.028 0 0)
(22.1178 0 0)
(22.2076 0 0)
(22.2974 0 0)
(22.3873 0 0)
(22.4771 0 0)
(22.5669 0 0)
(22.6568 0 0)
(22.7466 0 0)
(22.8364 0 0)
(22.9262 0 0)
(23.0161 0 0)
(23.1059 0 0)
(23.1957 0 0)
(23.2856 0 0)
(23.3754 0 0)
(23.4652 0 0)
(23.5551 0 0)
(23.6449 0 0)
(23.7347 0 0)
(23.8246 0 0)
(23.9144 0 0)
(24.0043 0 0)
(24.0941 0 0)
(24.1839 0 0)
(24.2738 0 0)
(24.3636 0 0)
(24.4535 0 0)
(24.5433 0 0)
(24.6331 0 0)
(24.723 0 0)
(24.8128 0 0)
(24.9027 0 0)
(24.9925 0 0)
(25.0824 0 0)
(25.1722 0 0)
(25.2621 0 0)
(25.3519 0 0)
(25.4418 0 0)
(25.5316 0 0)
(25.6215 0 0)
(25.7113 0 0)
(25.8012 0 0)
(25.891 0 0)
(25.9809 0 0)
(26.0707 0 0)
(26.1606 0 0)
(26.2505 0 0)
(26.3403 0 0)
(26.4302 0 0)
(26.52 0 0)
(26.6099 0 0)
(26.6997 0 0)
(26.7896 0 0)
(26.8795 0 0)
(26.9693 0 0)
(27.0592 0 0)
(27.1491 0 0)
(27.2389 0 0)
(27.3288 0 0)
(27.4187 0 0)
(27.5085 0 0)
(27.5984 0 0)
(27.6883 0 0)
(27.7781 0 0)
(27.868 0 0)
(27.9579 0 0)
(28.0477 0 0)
(28.1376 0 0)
(28.2275 0 0)
(28.3173 0 0)
(28.4072 0 0)
(28.4971 0 0)
(28.587 0 0)
(28.6768 0 0)
(28.7667 0 0)
(28.8566 0 0)
(28.9465 0 0)
(29.0364 0 0)
(29.1262 0 0)
(29.2161 0 0)
(29.306 0 0)
(29.3959 0 0)
(29.4858 0 0)
(29.5756 0 0)
(29.6655 0 0)
(29.7554 0 0)
(29.8453 0 0)
(29.9352 0 0)
(30.0251 0 0)
(30.115 0 0)
(30.2048 0 0)
(30.2947 0 0)
(30.3846 0 0)
(30.4745 0 0)
(30.5644 0 0)
(30.6543 0 0)
(30.7442 0 0)
(30.8341 0 0)
(30.924 0 0)
(31.0139 0 0)
(31.1038 0 0)
(31.1937 0 0)
(31.2836 0 0)
(31.3734 0 0)
(31.4633 0 0)
(31.5532 0 0)
(31.6431 0 0)
(31.733 0 0)
(31.8229 0 0)
(31.9128 0 0)
(32.0027 0 0)
(32.0926 0 0)
(32.1826 0 0)
(32.2725 0 0)
(32.3624 0 0)
(32.4523 0 0)
(32.5422 0 0)
(32.6321 0 0)
(32.722 0 0)
(32.8119 0 0)
(32.9018 0 0)
(32.9917 0 0)
(33.0816 0 0)
(33.1715 0 0)
(33.2614 0 0)
(33.3514 0 0)
(33.4413 0 0)
(33.5312 0 0)
(33.6211 0 0)
(33.711 0 0)
(33.8009 0 0)
(33.8909 0 0)
(33.9808 0 0)
(34.0707 0 0)
(34.1606 0 0)
(34.2505 0 0)
(34.3404 0 0)
(34.4304 0 0)
(34.5203 0 0)
(34.6102 0 0)
(34.7001 0 0)
(34.7901 0 0)
(34.88 0 0)
(34.9699 0 0)
(35.0598 0 0)
(35.1498 0 0)
(35.2397 0 0)
(35.3296 0 0)
(35.4195 0 0)
(35.5095 0 0)
(35.5994 0 0)
(35.6893 0 0)
(35.7793 0 0)
(35.8692 0 0)
(35.9591 0 0)
(36.0491 0 0)
(36.139 0 0)
(36.2289 0 0)
(36.3189 0 0)
(36.4088 0 0)
(36.4987 0 0)
(36.5887 0 0)
(36.6786 0 0)
(36.7686 0 0)
(36.8585 0 0)
(36.9484 0 0)
(37.0384 0 0)
(37.1283 0 0)
(37.2183 0 0)
(37.3082 0 0)
(37.3982 0 0)
(37.4881 0 0)
(37.578 0 0)
(37.668 0 0)
(37.7579 0 0)
(37.8479 0 0)
(37.9378 0 0)
(38.0278 0 0)
(38.1177 0 0)
(38.2077 0 0)
(38.2976 0 0)
(38.3876 0 0)
(38.4775 0 0)
(38.5675 0 0)
(38.6575 0 0)
(38.7474 0 0)
(38.8374 0 0)
(38.9273 0 0)
(39.0173 0 0)
(39.1072 0 0)
(39.1972 0 0)
(39.2872 0 0)
(39.3771 0 0)
(39.4671 0 0)
(39.557 0 0)
(39.647 0 0)
(39.737 0 0)
(39.8269 0 0)
(39.9169 0 0)
(40.0069 0 0)
(40.0968 0 0)
(40.1868 0 0)
(40.2767 0 0)
(40.3667 0 0)
(40.4567 0 0)
(40.5467 0 0)
(40.6366 0 0)
(40.7266 0 0)
(40.8166 0 0)
(40.9065 0 0)
(40.9965 0 0)
(41.0865 0 0)
(41.1765 0 0)
(41.2664 0 0)
(41.3564 0 0)
(41.4464 0 0)
(41.5364 0 0)
(41.6263 0 0)
(41.7163 0 0)
(41.8063 0 0)
(41.8963 0 0)
(41.9863 0 0)
(42.0762 0 0)
(42.1662 0 0)
(42.2562 0 0)
(42.3462 0 0)
(42.4362 0 0)
(42.5261 0 0)
(42.6161 0 0)
(42.7061 0 0)
(42.7961 0 0)
(42.8861 0 0)
(42.9761 0 0)
(43.0661 0 0)
(43.1561 0 0)
(43.246 0 0)
(43.336 0 0)
(43.426 0 0)
(43.516 0 0)
(43.606 0 0)
(43.696 0 0)
(43.786 0 0)
(43.876 0 0)
(43.966 0 0)
(44.056 0 0)
(44.146 0 0)
(44.236 0 0)
(44.326 0 0)
(44.416 0 0)
(44.506 0 0)
(44.596 0 0)
(44.686 0 0)
(44.776 0 0)
(44.866 0 0)
(44.956 0 0)
(45.046 0 0)
(45.136 0 0)
(45.226 0 0)
(45.316 0 0)
(45.406 0 0)
(45.496 0 0)
(45.586 0 0)
(45.676 0 0)
(45.7661 0 0)
(45.8561 0 0)
(45.9461 0 0)
(46.0361 0 0)
(46.1261 0 0)
(46.2161 0 0)
(46.3061 0 0)
(46.3961 0 0)
(46.4862 0 0)
(46.5762 0 0)
(46.6662 0 0)
(46.7562 0 0)
(46.8462 0 0)
(46.9362 0 0)
(47.0263 0 0)
(47.1163 0 0)
(47.2063 0 0)
(47.2963 0 0)
(47.3863 0 0)
(47.4764 0 0)
(47.5664 0 0)
(47.6564 0 0)
(47.7464 0 0)
(47.8365 0 0)
(47.9265 0 0)
(48.0165 0 0)
(48.1065 0 0)
(48.1966 0 0)
(48.2866 0 0)
(48.3766 0 0)
(48.4667 0 0)
(48.5567 0 0)
(48.6467 0 0)
(48.7368 0 0)
(48.8268 0 0)
(48.9168 0 0)
(49.0069 0 0)
(49.0969 0 0)
(49.1869 0 0)
(49.277 0 0)
(49.367 0 0)
(49.457 0 0)
(49.5471 0 0)
(49.6371 0 0)
(49.7272 0 0)
(49.8172 0 0)
(49.9072 0 0)
(49.9973 0 0)
(50.0873 0 0)
(50.1774 0 0)
(50.2674 0 0)
(50.3575 0 0)
(50.4475 0 0)
(50.5376 0 0)
(50.6276 0 0)
(50.7176 0 0)
(50.8077 0 0)
(50.8977 0 0)
(50.9878 0 0)
(51.0778 0 0)
(51.1679 0 0)
(51.2579 0 0)
(51.348 0 0)
(51.4381 0 0)
(51.5281 0 0)
(51.6182 0 0)
(51.7082 0 0)
(51.7983 0 0)
(51.8883 0 0)
(51.9784 0 0)
(52.0684 0 0)
(52.1585 0 0)
(52.2486 0 0)
(52.3386 0 0)
(52.4287 0 0)
(52.5187 0 0)
(52.6088 0 0)
(52.6989 0 0)
(52.7889 0 0)
(52.879 0 0)
(52.9691 0 0)
(53.0591 0 0)
(53.1492 0 0)
(53.2393 0 0)
(53.3293 0 0)
(53.4194 0 0)
(53.5095 0 0)
(53.5995 0 0)
(53.6896 0 0)
(53.7797 0 0)
(53.8697 0 0)
(53.9598 0 0)
(54.0499 0 0)
(54.14 0 0)
(54.23 0 0)
(54.3201 0 0)
(54.4102 0 0)
(54.5003 0 0)
(54.5903 0 0)
(54.6804 0 0)
(54.7705 0 0)
(54.8606 0 0)
(54.9507 0 0)
(55.0407 0 0)
(55.1308 0 0)
(55.2209 0 0)
(55.311 0 0)
(55.4011 0 0)
(55.4912 0 0)
(55.5812 0 0)
(55.6713 0 0)
(55.7614 0 0)
(55.8515 0 0)
(55.9416 0 0)
(56.0317 0 0)
(56.1218 0 0)
(56.2119 0 0)
(56.3019 0 0)
(56.392 0 0)
(56.4821 0 0)
(56.5722 0 0)
(56.6623 0 0)
(56.7524 0 0)
(56.8425 0 0)
(56.9326 0 0)
(57.0227 0 0)
(57.1128 0 0)
(57.2029 0 0)
(57.293 0 0)
(57.3831 0 0)
(57.4732 0 0)
(57.5633 0 0)
(57.6534 0 0)
(57.7435 0 0)
(57.8336 0 0)
(57.9237 0 0)
(58.0138 0 0)
(58.1039 0 0)
(58.194 0 0)
(58.2841 0 0)
(58.3742 0 0)
(58.4643 0 0)
(58.5544 0 0)
(58.6445 0 0)
(58.7346 0 0)
(58.8247 0 0)
(58.9149 0 0)
(59.005 0 0)
(59.0951 0 0)
(59.1852 0 0)
(59.2753 0 0)
(59.3654 0 0)
(59.4555 0 0)
(59.5456 0 0)
(59.6358 0 0)
(59.7259 0 0)
(59.816 0 0)
(59.9061 0 0)
(59.9962 0 0)
(60.0863 0 0)
(60.1765 0 0)
(60.2666 0 0)
(60.3567 0 0)
(60.4468 0 0)
(60.537 0 0)
(60.6271 0 0)
(60.7172 0 0)
(60.8073 0 0)
(60.8974 0 0)
(60.9876 0 0)
(61.0777 0 0)
(61.1678 0 0)
(61.258 0 0)
(61.3481 0 0)
(61.4382 0 0)
(61.5283 0 0)
(61.6185 0 0)
(61.7086 0 0)
(61.7987 0 0)
(61.8889 0 0)
(61.979 0 0)
(62.0691 0 0)
(62.1593 0 0)
(62.2494 0 0)
(62.3395 0 0)
(62.4297 0 0)
(62.5198 0 0)
(62.6099 0 0)
(62.7001 0 0)
(62.7902 0 0)
(62.8804 0 0)
(62.9705 0 0)
(63.0606 0 0)
(63.1508 0 0)
(63.2409 0 0)
(63.3311 0 0)
(63.4212 0 0)
(63.5114 0 0)
(63.6015 0 0)
(63.6916 0 0)
(63.7818 0 0)
(63.8719 0 0)
(63.9621 0 0)
(64.0522 0 0)
(64.1424 0 0)
(64.2325 0 0)
(64.3227 0 0)
(64.4128 0 0)
(64.503 0 0)
(64.5931 0 0)
(64.6833 0 0)
(64.7734 0 0)
(64.8636 0 0)
(64.9538 0 0)
(65.0439 0 0)
(65.1341 0 0)
(65.2242 0 0)
(65.3144 0 0)
(65.4045 0 0)
(65.4947 0 0)
(65.5849 0 0)
(65.675 0 0)
(65.7652 0 0)
(65.8553 0 0)
(65.9455 0 0)
(66.0357 0 0)
(66.1258 0 0)
(66.216 0 0)
(66.3062 0 0)
(66.3963 0 0)
(66.4865 0 0)
(66.5767 0 0)
(66.6668 0 0)
(66.757 0 0)
(66.8472 0 0)
(66.9373 0 0)
(67.0275 0 0)
(67.1177 0 0)
(67.2078 0 0)
(67.298 0 0)
(67.3882 0 0)
(67.4784 0 0)
(67.5685 0 0)
(67.6587 0 0)
(67.7489 0 0)
(67.8391 0 0)
(67.9292 0 0)
(68.0194 0 0)
(68.1096 0 0)
(68.1998 0 0)
(68.2899 0 0)
(68.3801 0 0)
(68.4703 0 0)
(68.5605 0 0)
(68.6507 0 0)
(68.7409 0 0)
(68.831 0 0)
(68.9212 0 0)
(69.0114 0 0)
(69.1016 0 0)
(69.1918 0 0)
(69.282 0 0)
(69.3721 0 0)
(69.4623 0 0)
(69.5525 0 0)
(69.6427 0 0)
(69.7329 0 0)
(69.8231 0 0)
(69.9133 0 0)
(70.0035 0 0)
(70.0937 0 0)
(70.1839 0 0)
(70.2741 0 0)
(70.3642 0 0)
(70.4544 0 0)
(70.5446 0 0)
(70.6348 0 0)
(70.725 0 0)
(70.8152 0 0)
(70.9054 0 0)
(70.9956 0 0)
(71.0858 0 0)
(71.176 0 0)
(71.2662 0 0)
(71.3564 0 0)
(71.4466 0 0)
(71.5368 0 0)
(71.627 0 0)
(71.7172 0 0)
(71.8074 0 0)
(71.8976 0 0)
(71.9878 0 0)
(72.0781 0 0)
(72.1683 0 0)
(72.2585 0 0)
(72.3487 0 0)
(72.4389 0 0)
(72.5291 0 0)
(72.6193 0 0)
(72.7095 0 0)
(72.7997 0 0)
(72.8899 0 0)
(72.9802 0 0)
(73.0704 0 0)
(73.1606 0 0)
(73.2508 0 0)
(73.341 0 0)
(73.4312 0 0)
(73.5214 0 0)
(73.6117 0 0)
(73.7019 0 0)
(73.7921 0 0)
(73.8823 0 0)
(73.9725 0 0)
(74.0628 0 0)
(74.153 0 0)
(74.2432 0 0)
(74.3334 0 0)
(74.4236 0 0)
(74.5139 0 0)
(74.6041 0 0)
(74.6943 0 0)
(74.7845 0 0)
(74.8748 0 0)
(74.965 0 0)
(75.0552 0 0)
(75.1454 0 0)
(75.2357 0 0)
(75.3259 0 0)
(75.4161 0 0)
(75.5064 0 0)
(75.5966 0 0)
(75.6868 0 0)
(75.7771 0 0)
(75.8673 0 0)
(75.9575 0 0)
(76.0478 0 0)
(76.138 0 0)
(76.2282 0 0)
(76.3185 0 0)
(76.4087 0 0)
(76.4989 0 0)
(76.5892 0 0)
(76.6794 0 0)
(76.7696 0 0)
(76.8599 0 0)
(76.9501 0 0)
(77.0404 0 0)
(77.1306 0 0)
(77.2208 0 0)
(77.3111 0 0)
(77.4013 0 0)
(77.4916 0 0)
(77.5818 0 0)
(77.6721 0 0)
(77.7623 0 0)
(77.8526 0 0)
(77.9428 0 0)
(78.0331 0 0)
(78.1233 0 0)
(78.2135 0 0)
(78.3038 0 0)
(78.394 0 0)
(78.4843 0 0)
(78.5745 0 0)
(78.6648 0 0)
(78.7551 0 0)
(78.8453 0 0)
(78.9356 0 0)
(79.0258 0 0)
(79.1161 0 0)
(79.2063 0 0)
(79.2966 0 0)
(79.3868 0 0)
(79.4771 0 0)
(79.5673 0 0)
(79.6576 0 0)
(79.7479 0 0)
(79.8381 0 0)
(79.9284 0 0)
(80.0186 0 0)
(80.1089 0 0)
(80.1992 0 0)
(80.2894 0 0)
(80.3797 0 0)
(80.47 0 0)
(80.5602 0 0)
(80.6505 0 0)
(80.7407 0 0)
(80.831 0 0)
(80.9213 0 0)
(81.0115 0 0)
(81.1018 0 0)
(81.1921 0 0)
(81.2824 0 0)
(81.3726 0 0)
(81.4629 0 0)
(81.5532 0 0)
(81.6434 0 0)
(81.7337 0 0)
(81.824 0 0)
(81.9142 0 0)
(82.0045 0 0)
(82.0948 0 0)
(82.1851 0 0)
(82.2753 0 0)
(82.3656 0 0)
(82.4559 0 0)
(82.5462 0 0)
(82.6365 0 0)
(82.7267 0 0)
(82.817 0 0)
(82.9073 0 0)
(82.9976 0 0)
(83.0878 0 0)
(83.1781 0 0)
(83.2684 0 0)
(83.3587 0 0)
(83.449 0 0)
(83.5393 0 0)
(83.6295 0 0)
(83.7198 0 0)
(83.8101 0 0)
(83.9004 0 0)
(83.9907 0 0)
(84.081 0 0)
(84.1713 0 0)
(84.2615 0 0)
(84.3518 0 0)
(84.4421 0 0)
(84.5324 0 0)
(84.6227 0 0)
(84.713 0 0)
(84.8033 0 0)
(84.8936 0 0)
(84.9839 0 0)
(85.0742 0 0)
(85.1644 0 0)
(85.2547 0 0)
(85.345 0 0)
(85.4353 0 0)
(85.5256 0 0)
(85.6159 0 0)
(85.7062 0 0)
(85.7965 0 0)
(85.8868 0 0)
(85.9771 0 0)
(86.0674 0 0)
(86.1577 0 0)
(86.248 0 0)
(86.3383 0 0)
(86.4286 0 0)
(86.5189 0 0)
(86.6092 0 0)
(86.6995 0 0)
(86.7898 0 0)
(86.8801 0 0)
(86.9704 0 0)
(87.0607 0 0)
(87.151 0 0)
(87.2413 0 0)
(87.3316 0 0)
(87.422 0 0)
(87.5123 0 0)
(87.6026 0 0)
(87.6929 0 0)
(87.7832 0 0)
(87.8735 0 0)
(87.9638 0 0)
(88.0541 0 0)
(88.1444 0 0)
(88.2347 0 0)
(88.3251 0 0)
(88.4154 0 0)
(88.5057 0 0)
(88.596 0 0)
(88.6863 0 0)
(88.7766 0 0)
(88.8669 0 0)
(88.9572 0 0)
(89.0476 0 0)
(89.1379 0 0)
(89.2282 0 0)
(89.3185 0 0)
(89.4088 0 0)
(89.4992 0 0)
(89.5895 0 0)
(89.6798 0 0)
(89.7701 0 0)
(89.8604 0 0)
(89.9508 0 0)
(90.0411 0 0)
(90.1314 0 0)
(90.2217 0 0)
(90.312 0 0)
(90.4024 0 0)
(90.4927 0 0)
(90.583 0 0)
(90.6733 0 0)
(90.7637 0 0)
(90.854 0 0)
(90.9443 0 0)
(91.0346 0 0)
(91.125 0 0)
(91.2153 0 0)
(91.3056 0 0)
(91.396 0 0)
(91.4863 0 0)
(91.5766 0 0)
(91.6669 0 0)
(91.7573 0 0)
(91.8476 0 0)
(91.9379 0 0)
(92.0283 0 0)
(92.1186 0 0)
(92.2089 0 0)
(92.2993 0 0)
(92.3896 0 0)
(92.4799 0 0)
(92.5703 0 0)
(92.6606 0 0)
(92.7509 0 0)
(92.8413 0 0)
(92.9316 0 0)
(93.0219 0 0)
(93.1123 0 0)
(93.2026 0 0)
(93.293 0 0)
(93.3833 0 0)
(93.4736 0 0)
(93.564 0 0)
(93.6543 0 0)
(93.7447 0 0)
(93.835 0 0)
(93.9253 0 0)
(94.0157 0 0)
(94.106 0 0)
(94.1964 0 0)
(94.2867 0 0)
(94.3771 0 0)
(94.4674 0 0)
(94.5577 0 0)
(94.6481 0 0)
(94.7384 0 0)
(94.8288 0 0)
(94.9191 0 0)
(95.0095 0 0)
(95.0998 0 0)
(95.1902 0 0)
(95.2805 0 0)
(95.3709 0 0)
(95.4612 0 0)
(95.5516 0 0)
(95.6419 0 0)
(95.7323 0 0)
(95.8226 0 0)
(95.913 0 0)
(96.0033 0 0)
(96.0937 0 0)
(96.184 0 0)
(96.2744 0 0)
(96.3647 0 0)
(96.4551 0 0)
(96.5454 0 0)
(96.6358 0 0)
(96.7261 0 0)
(96.8165 0 0)
(96.9068 0 0)
(96.9972 0 0)
(97.0876 0 0)
(97.1779 0 0)
(97.2683 0 0)
(97.3586 0 0)
(97.449 0 0)
(97.5393 0 0)
(97.6297 0 0)
(97.72 0 0)
(97.8104 0 0)
(97.9008 0 0)
(97.9911 0 0)
(98.0815 0 0)
(98.1718 0 0)
(98.2622 0 0)
(98.3526 0 0)
(98.4429 0 0)
(98.5333 0 0)
(98.6236 0 0)
(98.714 0 0)
(98.8044 0 0)
(98.8947 0 0)
(98.9851 0 0)
(99.0755 0 0)
(99.1658 0 0)
(99.2562 0 0)
(99.3465 0 0)
(99.4369 0 0)
(99.5273 0 0)
(99.6176 0 0)
(99.708 0 0)
(99.7984 0 0)
(99.8887 0 0)
(99.9791 0 0)
(100.069 0 0)
(100.16 0 0)
(100.25 0 0)
(100.341 0 0)
(100.431 0 0)
(100.521 0 0)
(100.612 0 0)
(100.702 0 0)
(100.792 0 0)
(100.883 0 0)
(100.973 0 0)
(101.064 0 0)
(101.154 0 0)
(101.244 0 0)
(101.335 0 0)
(101.425 0 0)
(101.515 0 0)
(101.606 0 0)
(101.696 0 0)
(101.786 0 0)
(101.877 0 0)
(101.967 0 0)
(102.058 0 0)
(102.148 0 0)
(102.238 0 0)
(102.329 0 0)
(102.419 0 0)
(102.509 0 0)
(102.6 0 0)
(102.69 0 0)
(102.781 0 0)
(102.871 0 0)
(102.961 0 0)
(103.052 0 0)
(103.142 0 0)
(103.232 0 0)
(103.323 0 0)
(103.413 0 0)
(103.504 0 0)
(103.594 0 0)
(103.684 0 0)
(103.775 0 0)
(103.865 0 0)
(103.955 0 0)
(104.046 0 0)
(104.136 0 0)
(104.227 0 0)
(104.317 0 0)
(104.407 0 0)
(104.498 0 0)
(104.588 0 0)
(104.678 0 0)
(104.769 0 0)
(104.859 0 0)
(104.95 0 0)
(105.04 0 0)
(105.13 0 0)
(105.221 0 0)
(105.311 0 0)
(105.401 0 0)
(105.492 0 0)
(105.582 0 0)
(105.673 0 0)
(105.763 0 0)
(105.853 0 0)
(105.944 0 0)
(106.034 0 0)
(106.124 0 0)
(106.215 0 0)
(106.305 0 0)
(106.396 0 0)
(106.486 0 0)
(106.576 0 0)
(106.667 0 0)
(106.757 0 0)
(106.848 0 0)
(106.938 0 0)
(107.028 0 0)
(107.119 0 0)
(107.209 0 0)
(107.299 0 0)
(107.39 0 0)
(107.48 0 0)
(107.571 0 0)
(107.661 0 0)
(107.751 0 0)
(107.842 0 0)
(107.932 0 0)
(108.022 0 0)
(108.113 0 0)
(108.203 0 0)
(108.294 0 0)
(108.384 0 0)
(108.474 0 0)
(108.565 0 0)
(108.655 0 0)
(108.745 0 0)
(108.836 0 0)
(108.926 0 0)
(109.017 0 0)
(109.107 0 0)
(109.197 0 0)
(109.288 0 0)
(109.378 0 0)
(109.468 0 0)
(109.559 0 0)
(109.649 0 0)
(109.74 0 0)
(109.83 0 0)
(109.92 0 0)
(110.011 0 0)
(110.101 0 0)
(110.191 0 0)
(110.282 0 0)
(110.372 0 0)
(110.463 0 0)
(110.553 0 0)
(110.643 0 0)
(110.734 0 0)
(110.824 0 0)
(110.914 0 0)
(111.005 0 0)
(111.095 0 0)
(111.185 0 0)
(111.276 0 0)
(111.366 0 0)
(111.457 0 0)
(111.547 0 0)
(111.637 0 0)
(111.728 0 0)
(111.818 0 0)
(111.908 0 0)
(111.999 0 0)
(112.089 0 0)
(112.18 0 0)
(112.27 0 0)
(112.36 0 0)
(112.451 0 0)
(112.541 0 0)
(112.631 0 0)
(112.722 0 0)
(112.812 0 0)
(112.902 0 0)
(112.993 0 0)
(113.083 0 0)
(113.174 0 0)
(113.264 0 0)
(113.354 0 0)
(113.445 0 0)
(113.535 0 0)
(113.625 0 0)
(113.716 0 0)
(113.806 0 0)
(113.896 0 0)
(113.987 0 0)
(114.077 0 0)
(114.167 0 0)
(114.258 0 0)
(114.348 0 0)
(114.439 0 0)
(114.529 0 0)
(114.619 0 0)
(114.71 0 0)
(114.8 0 0)
(114.89 0 0)
(114.981 0 0)
(115.071 0 0)
(115.161 0 0)
(115.252 0 0)
(115.342 0 0)
(115.432 0 0)
(115.523 0 0)
(115.613 0 0)
(115.703 0 0)
(115.794 0 0)
(115.884 0 0)
(115.974 0 0)
(116.065 0 0)
(116.155 0 0)
(116.245 0 0)
(116.336 0 0)
(116.426 0 0)
(116.516 0 0)
(116.607 0 0)
(116.697 0 0)
(116.787 0 0)
(116.878 0 0)
(116.968 0 0)
(117.058 0 0)
(117.149 0 0)
(117.239 0 0)
(117.329 0 0)
(117.42 0 0)
(117.51 0 0)
(117.6 0 0)
(117.691 0 0)
(117.781 0 0)
(117.871 0 0)
(117.962 0 0)
(118.052 0 0)
(118.142 0 0)
(118.233 0 0)
(118.323 0 0)
(118.413 0 0)
(118.503 0 0)
(118.594 0 0)
(118.684 0 0)
(118.774 0 0)
(118.865 0 0)
(118.955 0 0)
(119.045 0 0)
(119.136 0 0)
(119.226 0 0)
(119.316 0 0)
(119.406 0 0)
(119.497 0 0)
(119.587 0 0)
(119.677 0 0)
(119.768 0 0)
(119.858 0 0)
(119.948 0 0)
(120.038 0 0)
(120.129 0 0)
(120.219 0 0)
(120.309 0 0)
(120.4 0 0)
(120.49 0 0)
(120.58 0 0)
(120.67 0 0)
(120.761 0 0)
(120.851 0 0)
(120.941 0 0)
(121.031 0 0)
(121.122 0 0)
(121.212 0 0)
(121.302 0 0)
(121.393 0 0)
(121.483 0 0)
(121.573 0 0)
(121.663 0 0)
(121.754 0 0)
(121.844 0 0)
(121.934 0 0)
(122.024 0 0)
(122.115 0 0)
(122.205 0 0)
(122.295 0 0)
(122.385 0 0)
(122.475 0 0)
(122.566 0 0)
(122.656 0 0)
(122.746 0 0)
(122.836 0 0)
(122.927 0 0)
(123.017 0 0)
(123.107 0 0)
(123.197 0 0)
(123.287 0 0)
(123.378 0 0)
(123.468 0 0)
(123.558 0 0)
(123.648 0 0)
(123.738 0 0)
(123.829 0 0)
(123.919 0 0)
(124.009 0 0)
(124.099 0 0)
(124.189 0 0)
(124.28 0 0)
(124.37 0 0)
(124.46 0 0)
(124.55 0 0)
(124.64 0 0)
(124.731 0 0)
(124.821 0 0)
(124.911 0 0)
(125.001 0 0)
(125.091 0 0)
(125.181 0 0)
(125.272 0 0)
(125.362 0 0)
(125.452 0 0)
(125.542 0 0)
(125.632 0 0)
(125.722 0 0)
(125.812 0 0)
(125.903 0 0)
(125.993 0 0)
(126.083 0 0)
(126.173 0 0)
(126.263 0 0)
(126.353 0 0)
(126.443 0 0)
(126.533 0 0)
(126.624 0 0)
(126.714 0 0)
(126.804 0 0)
(126.894 0 0)
(126.984 0 0)
(127.074 0 0)
(127.164 0 0)
(127.254 0 0)
(127.344 0 0)
(127.434 0 0)
(127.524 0 0)
(127.615 0 0)
(127.705 0 0)
(127.795 0 0)
(127.885 0 0)
(127.975 0 0)
(128.065 0 0)
(128.155 0 0)
(128.245 0 0)
(128.335 0 0)
(128.425 0 0)
(128.515 0 0)
(128.605 0 0)
(128.695 0 0)
(128.785 0 0)
(128.875 0 0)
(128.965 0 0)
(129.055 0 0)
(129.145 0 0)
(129.235 0 0)
(129.325 0 0)
(129.415 0 0)
(129.505 0 0)
(129.595 0 0)
(129.685 0 0)
(129.775 0 0)
(129.865 0 0)
(129.955 0 0)
(130.045 0 0)
(130.135 0 0)
(130.225 0 0)
(130.315 0 0)
(130.405 0 0)
(130.495 0 0)
(130.585 0 0)
(130.674 0 0)
(130.764 0 0)
(130.854 0 0)
(130.944 0 0)
(131.034 0 0)
(131.124 0 0)
(131.214 0 0)
(131.304 0 0)
(131.394 0 0)
(131.483 0 0)
(131.573 0 0)
(131.663 0 0)
(131.753 0 0)
(131.843 0 0)
(131.933 0 0)
(132.022 0 0)
(132.112 0 0)
(132.202 0 0)
(132.292 0 0)
(132.382 0 0)
(132.471 0 0)
(132.561 0 0)
(132.651 0 0)
(132.741 0 0)
(132.831 0 0)
(132.92 0 0)
(133.01 0 0)
(133.1 0 0)
(133.189 0 0)
(133.279 0 0)
(133.369 0 0)
(133.459 0 0)
(133.548 0 0)
(133.638 0 0)
(133.728 0 0)
(133.817 0 0)
(133.907 0 0)
(133.997 0 0)
(134.086 0 0)
(134.176 0 0)
(134.265 0 0)
(134.355 0 0)
(134.445 0 0)
(134.534 0 0)
(134.624 0 0)
(134.713 0 0)
(134.803 0 0)
(134.892 0 0)
(134.982 0 0)
(135.071 0 0)
(135.161 0 0)
(135.25 0 0)
(135.34 0 0)
(135.429 0 0)
(135.519 0 0)
(135.608 0 0)
(135.697 0 0)
(135.787 0 0)
(135.876 0 0)
(135.965 0 0)
(136.055 0 0)
(136.144 0 0)
(136.233 0 0)
(136.323 0 0)
(136.412 0 0)
(136.501 0 0)
(136.59 0 0)
(136.68 0 0)
(136.769 0 0)
(136.858 0 0)
(136.947 0 0)
(137.036 0 0)
(137.125 0 0)
(137.214 0 0)
(137.303 0 0)
(137.392 0 0)
(137.481 0 0)
(137.57 0 0)
(137.659 0 0)
(137.748 0 0)
(137.837 0 0)
(137.926 0 0)
(138.015 0 0)
(138.103 0 0)
(138.192 0 0)
(138.281 0 0)
(138.37 0 0)
(138.458 0 0)
(138.547 0 0)
(138.635 0 0)
(138.724 0 0)
(138.812 0 0)
(138.901 0 0)
(138.989 0 0)
(139.078 0 0)
(139.166 0 0)
(139.254 0 0)
(139.343 0 0)
(139.431 0 0)
(139.519 0 0)
(139.607 0 0)
(139.695 0 0)
(139.783 0 0)
(139.871 0 0)
(139.959 0 0)
(140.046 0 0)
(140.134 0 0)
(140.222 0 0)
(140.309 0 0)
(140.397 0 0)
(140.484 0 0)
(140.571 0 0)
(140.658 0 0)
(140.746 0 0)
(140.833 0 0)
(140.92 0 0)
(141.006 0 0)
(141.093 0 0)
(141.18 0 0)
(141.266 0 0)
(141.353 0 0)
(141.439 0 0)
(141.525 0 0)
(141.611 0 0)
(141.697 0 0)
(141.783 0 0)
(141.868 0 0)
(141.954 0 0)
(142.039 0 0)
(142.124 0 0)
(142.209 0 0)
(142.294 0 0)
(142.378 0 0)
(142.462 0 0)
(142.547 0 0)
(142.63 0 0)
(142.714 0 0)
(142.798 0 0)
(142.881 0 0)
(142.964 0 0)
(143.046 0 0)
(143.129 0 0)
(143.211 0 0)
(143.293 0 0)
(143.374 0 0)
(143.455 0 0)
(143.536 0 0)
(143.617 0 0)
(143.697 0 0)
(143.776 0 0)
(143.856 0 0)
(143.935 0 0)
(144.013 0 0)
(144.092 0 0)
(144.169 0 0)
(144.247 0 0)
(144.324 0 0)
(144.4 0 0)
(144.476 0 0)
(144.551 0 0)
(144.626 0 0)
(144.701 0 0)
(144.775 0 0)
(144.848 0 0)
(144.921 0 0)
(144.994 0 0)
(145.065 0 0)
(145.137 0 0)
(145.207 0 0)
(145.278 0 0)
(145.347 0 0)
(145.416 0 0)
(145.485 0 0)
(145.553 0 0)
(145.62 0 0)
(145.687 0 0)
(145.753 0 0)
(145.818 0 0)
(145.883 0 0)
(145.948 0 0)
(146.012 0 0)
(146.075 0 0)
(146.138 0 0)
(146.2 0 0)
(146.261 0 0)
(146.322 0 0)
(146.383 0 0)
(146.443 0 0)
(146.503 0 0)
(146.562 0 0)
(146.62 0 0)
(146.678 0 0)
(146.736 0 0)
(146.793 0 0)
(146.85 0 0)
(146.906 0 0)
(146.962 0 0)
(147.018 0 0)
(147.073 0 0)
(147.128 0 0)
(147.182 0 0)
(147.237 0 0)
(147.29 0 0)
(147.344 0 0)
(147.397 0 0)
(147.45 0 0)
(147.503 0 0)
(147.555 0 0)
(147.607 0 0)
(147.659 0 0)
(147.711 0 0)
(147.763 0 0)
(147.814 0 0)
(147.865 0 0)
(147.916 0 0)
(147.967 0 0)
(148.018 0 0)
(148.068 0 0)
(148.119 0 0)
(148.169 0 0)
(148.219 0 0)
(148.269 0 0)
(148.319 0 0)
(148.369 0 0)
(148.419 0 0)
(148.469 0 0)
(148.518 0 0)
(148.568 0 0)
(148.617 0 0)
(148.667 0 0)
(148.716 0 0)
(148.766 0 0)
(148.815 0 0)
(148.864 0 0)
(148.914 0 0)
(148.963 0 0)
(149.012 0 0)
(149.061 0 0)
(149.111 0 0)
(149.16 0 0)
(149.209 0 0)
(149.258 0 0)
(149.307 0 0)
(149.356 0 0)
(149.405 0 0)
(149.454 0 0)
(149.503 0 0)
(149.552 0 0)
(149.601 0 0)
(149.65 0 0)
(149.699 0 0)
(149.748 0 0)
(149.797 0 0)
(149.846 0 0)
(149.895 0 0)
(149.944 0 0)
(149.993 0 0)
(150.042 0 0)
(150.091 0 0)
(150.14 0 0)
(150.189 0 0)
(150.238 0 0)
(150.287 0 0)
(150.336 0 0)
(150.385 0 0)
(150.434 0 0)
(150.483 0 0)
(150.532 0 0)
(150.581 0 0)
(150.63 0 0)
(150.679 0 0)
(150.728 0 0)
(150.777 0 0)
(150.826 0 0)
(150.875 0 0)
(150.924 0 0)
(150.973 0 0)
(151.022 0 0)
(151.071 0 0)
(151.12 0 0)
(151.169 0 0)
(151.218 0 0)
(151.266 0 0)
(151.315 0 0)
(151.364 0 0)
(151.413 0 0)
(151.462 0 0)
(151.511 0 0)
(151.56 0 0)
(151.609 0 0)
(151.658 0 0)
(151.707 0 0)
(151.756 0 0)
(151.805 0 0)
(151.854 0 0)
(151.903 0 0)
(151.952 0 0)
(152.001 0 0)
(152.05 0 0)
(152.099 0 0)
(152.148 0 0)
(152.197 0 0)
(152.246 0 0)
(152.295 0 0)
(152.344 0 0)
(152.392 0 0)
(152.441 0 0)
(152.49 0 0)
(152.539 0 0)
(152.588 0 0)
(152.637 0 0)
(152.686 0 0)
(152.735 0 0)
(152.784 0 0)
(152.833 0 0)
(152.882 0 0)
(152.931 0 0)
(152.98 0 0)
(153.029 0 0)
(153.078 0 0)
(153.127 0 0)
(153.176 0 0)
(153.225 0 0)
(153.274 0 0)
(153.323 0 0)
(153.372 0 0)
(153.421 0 0)
(153.47 0 0)
(153.519 0 0)
(153.567 0 0)
(153.616 0 0)
(153.665 0 0)
(153.714 0 0)
(153.763 0 0)
(153.812 0 0)
(153.861 0 0)
(153.91 0 0)
(153.959 0 0)
(154.008 0 0)
(154.057 0 0)
(154.106 0 0)
(154.155 0 0)
(154.204 0 0)
(154.253 0 0)
(154.302 0 0)
(154.351 0 0)
(154.4 0 0)
(154.449 0 0)
(154.498 0 0)
(154.547 0 0)
(154.596 0 0)
(154.645 0 0)
(154.693 0 0)
(154.742 0 0)
(154.791 0 0)
(154.84 0 0)
(154.889 0 0)
(154.938 0 0)
(154.987 0 0)
(155.036 0 0)
(155.085 0 0)
(155.134 0 0)
(155.183 0 0)
(155.232 0 0)
(155.281 0 0)
(155.33 0 0)
(155.379 0 0)
(155.428 0 0)
(155.477 0 0)
(155.526 0 0)
(155.575 0 0)
(155.624 0 0)
(155.673 0 0)
(155.722 0 0)
(155.771 0 0)
(155.819 0 0)
(155.868 0 0)
(155.917 0 0)
(155.966 0 0)
(156.015 0 0)
(156.064 0 0)
(156.113 0 0)
(156.162 0 0)
(156.211 0 0)
(156.26 0 0)
(156.309 0 0)
(156.358 0 0)
(156.407 0 0)
(156.456 0 0)
(156.505 0 0)
(156.554 0 0)
(156.603 0 0)
(156.652 0 0)
(156.701 0 0)
(156.75 0 0)
(156.799 0 0)
(156.848 0 0)
(156.897 0 0)
(156.946 0 0)
(156.994 0 0)
(157.043 0 0)
(157.092 0 0)
(157.141 0 0)
(157.19 0 0)
(157.239 0 0)
(157.288 0 0)
(157.337 0 0)
(157.386 0 0)
(157.435 0 0)
(157.484 0 0)
(157.533 0 0)
(157.582 0 0)
(157.631 0 0)
(157.68 0 0)
(157.729 0 0)
(157.778 0 0)
(157.827 0 0)
(157.876 0 0)
(157.925 0 0)
(157.974 0 0)
(158.023 0 0)
(158.071 0 0)
(158.12 0 0)
(158.169 0 0)
(158.218 0 0)
(158.267 0 0)
(158.316 0 0)
(158.365 0 0)
(158.414 0 0)
(158.463 0 0)
(158.512 0 0)
(158.561 0 0)
(158.61 0 0)
(158.659 0 0)
(158.708 0 0)
(158.757 0 0)
(158.806 0 0)
(158.855 0 0)
(158.904 0 0)
(158.953 0 0)
(159.002 0 0)
(159.051 0 0)
(159.1 0 0)
(159.149 0 0)
(159.197 0 0)
(159.246 0 0)
(159.295 0 0)
(159.344 0 0)
(159.393 0 0)
(159.442 0 0)
(159.491 0 0)
(159.54 0 0)
(159.589 0 0)
(159.638 0 0)
(159.687 0 0)
(159.736 0 0)
(159.785 0 0)
(159.834 0 0)
(159.883 0 0)
(159.932 0 0)
(159.981 0 0)
(160.03 0 0)
(160.079 0 0)
(160.128 0 0)
(160.177 0 0)
(160.226 0 0)
(160.275 0 0)
(160.323 0 0)
(160.372 0 0)
(160.421 0 0)
(160.47 0 0)
(160.519 0 0)
(160.568 0 0)
(160.617 0 0)
(160.666 0 0)
(160.715 0 0)
(160.764 0 0)
(160.813 0 0)
(160.862 0 0)
(160.911 0 0)
(160.96 0 0)
(161.009 0 0)
(161.058 0 0)
(161.107 0 0)
(161.156 0 0)
(161.205 0 0)
(161.254 0 0)
(161.303 0 0)
(161.352 0 0)
(161.4 0 0)
(161.449 0 0)
(161.498 0 0)
(161.547 0 0)
(161.596 0 0)
(161.645 0 0)
(161.694 0 0)
(161.743 0 0)
(161.792 0 0)
(161.841 0 0)
(161.89 0 0)
(161.939 0 0)
(161.988 0 0)
(162.037 0 0)
(162.086 0 0)
(162.135 0 0)
(162.184 0 0)
(162.233 0 0)
(162.282 0 0)
(162.331 0 0)
(162.38 0 0)
(162.429 0 0)
(162.478 0 0)
(162.526 0 0)
(162.575 0 0)
(162.624 0 0)
(162.673 0 0)
(162.722 0 0)
(162.771 0 0)
(162.82 0 0)
(162.869 0 0)
(162.918 0 0)
(162.967 0 0)
(163.016 0 0)
(163.065 0 0)
(163.114 0 0)
(163.163 0 0)
(163.212 0 0)
(163.261 0 0)
(163.31 0 0)
(163.359 0 0)
(163.408 0 0)
(163.457 0 0)
(163.506 0 0)
(163.555 0 0)
(163.603 0 0)
(163.652 0 0)
(163.701 0 0)
(163.75 0 0)
(163.799 0 0)
(163.848 0 0)
(163.897 0 0)
(163.946 0 0)
(163.995 0 0)
(164.044 0 0)
(164.093 0 0)
(164.142 0 0)
(164.191 0 0)
(164.24 0 0)
(164.289 0 0)
(164.338 0 0)
(164.387 0 0)
(164.436 0 0)
(164.485 0 0)
(164.534 0 0)
(164.583 0 0)
(164.632 0 0)
(164.68 0 0)
(164.729 0 0)
(164.778 0 0)
(164.827 0 0)
(164.876 0 0)
(164.925 0 0)
(164.974 0 0)
(165.023 0 0)
(165.072 0 0)
(165.121 0 0)
(165.17 0 0)
(165.219 0 0)
(165.268 0 0)
(165.317 0 0)
(165.366 0 0)
(165.415 0 0)
(165.464 0 0)
(165.513 0 0)
(165.562 0 0)
(165.611 0 0)
(165.66 0 0)
(165.709 0 0)
(165.757 0 0)
(165.806 0 0)
(165.855 0 0)
(165.904 0 0)
(165.953 0 0)
(166.002 0 0)
(166.051 0 0)
(166.1 0 0)
(166.149 0 0)
(166.198 0 0)
(166.247 0 0)
(166.296 0 0)
(166.345 0 0)
(166.394 0 0)
(166.443 0 0)
(166.492 0 0)
(166.541 0 0)
(166.59 0 0)
(166.639 0 0)
(166.688 0 0)
(166.737 0 0)
(166.785 0 0)
(166.834 0 0)
(166.883 0 0)
(166.932 0 0)
(166.981 0 0)
(167.03 0 0)
(167.079 0 0)
(167.128 0 0)
(167.177 0 0)
(167.226 0 0)
(167.275 0 0)
(167.324 0 0)
(167.373 0 0)
(167.422 0 0)
(167.471 0 0)
(167.52 0 0)
(167.569 0 0)
(167.618 0 0)
(167.667 0 0)
(167.716 0 0)
(167.765 0 0)
(167.814 0 0)
(167.862 0 0)
(167.911 0 0)
(167.96 0 0)
(168.009 0 0)
(168.058 0 0)
(168.107 0 0)
(168.156 0 0)
(168.205 0 0)
(168.254 0 0)
(168.303 0 0)
(168.352 0 0)
(168.401 0 0)
(168.45 0 0)
(168.499 0 0)
(168.548 0 0)
(168.597 0 0)
(168.646 0 0)
(168.695 0 0)
(168.744 0 0)
(168.793 0 0)
(168.842 0 0)
(168.89 0 0)
(168.939 0 0)
(168.988 0 0)
(169.037 0 0)
(169.086 0 0)
(169.135 0 0)
(169.184 0 0)
(169.233 0 0)
(169.282 0 0)
(169.331 0 0)
(169.38 0 0)
(169.429 0 0)
(169.478 0 0)
(169.527 0 0)
(169.576 0 0)
(169.625 0 0)
(169.674 0 0)
(169.723 0 0)
(169.772 0 0)
(169.821 0 0)
(169.87 0 0)
(169.919 0 0)
(169.967 0 0)
(170.016 0 0)
(170.065 0 0)
(170.114 0 0)
(170.163 0 0)
(170.212 0 0)
(170.261 0 0)
(170.31 0 0)
(170.359 0 0)
(170.408 0 0)
(170.457 0 0)
(170.506 0 0)
(170.555 0 0)
(170.604 0 0)
(170.653 0 0)