/*--------------------------------*- C++ -*----------------------------------*\
  =========                 |
  \\      /  F ield         | OpenFOAM: The Open Source CFD Toolbox
   \\    /   O peration     | Website:  https://openfoam.org
    \\  /    A nd           | Version:  9
     \\/     M anipulation  |
\*---------------------------------------------------------------------------*/
FoamFile
{
    format      ascii;
    class       volVectorField;
    location    "0.017";
    object      U_0;
}
// * * * * * * * * * * * * * * * * * * * * * * * * * * * * * * * * * * * * * //

dimensions      [0 1 -1 0 0 0 0];

internalField   nonuniform List<vector> 
10000
(
(1.43241 0 0)
(1.58354 0 0)
(1.65412 0 0)
(1.7436 0 0)
(1.83572 0 0)
(1.92563 0 0)
(2.01489 0 0)
(2.1045 0 0)
(2.19427 0 0)
(2.28397 0 0)
(2.37362 0 0)
(2.46329 0 0)
(2.55297 0 0)
(2.64265 0 0)
(2.73232 0 0)
(2.822 0 0)
(2.91168 0 0)
(3.00136 0 0)
(3.09104 0 0)
(3.18072 0 0)
(3.2704 0 0)
(3.36008 0 0)
(3.44976 0 0)
(3.53944 0 0)
(3.62913 0 0)
(3.71881 0 0)
(3.80849 0 0)
(3.89818 0 0)
(3.98787 0 0)
(4.07755 0 0)
(4.16724 0 0)
(4.25693 0 0)
(4.34661 0 0)
(4.4363 0 0)
(4.52599 0 0)
(4.61568 0 0)
(4.70538 0 0)
(4.79507 0 0)
(4.88476 0 0)
(4.97445 0 0)
(5.06415 0 0)
(5.15384 0 0)
(5.24354 0 0)
(5.33323 0 0)
(5.42293 0 0)
(5.51263 0 0)
(5.60233 0 0)
(5.69203 0 0)
(5.78173 0 0)
(5.87143 0 0)
(5.96113 0 0)
(6.05083 0 0)
(6.14053 0 0)
(6.23024 0 0)
(6.31994 0 0)
(6.40964 0 0)
(6.49935 0 0)
(6.58906 0 0)
(6.67876 0 0)
(6.76847 0 0)
(6.85818 0 0)
(6.94789 0 0)
(7.0376 0 0)
(7.12731 0 0)
(7.21702 0 0)
(7.30673 0 0)
(7.39644 0 0)
(7.48616 0 0)
(7.57587 0 0)
(7.66559 0 0)
(7.7553 0 0)
(7.84502 0 0)
(7.93473 0 0)
(8.02445 0 0)
(8.11417 0 0)
(8.20389 0 0)
(8.29361 0 0)
(8.38333 0 0)
(8.47305 0 0)
(8.56277 0 0)
(8.6525 0 0)
(8.74222 0 0)
(8.83194 0 0)
(8.92167 0 0)
(9.01139 0 0)
(9.10112 0 0)
(9.19085 0 0)
(9.28057 0 0)
(9.3703 0 0)
(9.46003 0 0)
(9.54976 0 0)
(9.63949 0 0)
(9.72922 0 0)
(9.81896 0 0)
(9.90869 0 0)
(9.99842 0 0)
(10.0882 0 0)
(10.1779 0 0)
(10.2676 0 0)
(10.3574 0 0)
(10.4471 0 0)
(10.5368 0 0)
(10.6266 0 0)
(10.7163 0 0)
(10.8061 0 0)
(10.8958 0 0)
(10.9855 0 0)
(11.0753 0 0)
(11.165 0 0)
(11.2548 0 0)
(11.3445 0 0)
(11.4343 0 0)
(11.524 0 0)
(11.6137 0 0)
(11.7035 0 0)
(11.7932 0 0)
(11.883 0 0)
(11.9727 0 0)
(12.0625 0 0)
(12.1522 0 0)
(12.242 0 0)
(12.3317 0 0)
(12.4215 0 0)
(12.5113 0 0)
(12.601 0 0)
(12.6908 0 0)
(12.7805 0 0)
(12.8703 0 0)
(12.96 0 0)
(13.0498 0 0)
(13.1395 0 0)
(13.2293 0 0)
(13.3191 0 0)
(13.4088 0 0)
(13.4986 0 0)
(13.5884 0 0)
(13.6781 0 0)
(13.7679 0 0)
(13.8576 0 0)
(13.9474 0 0)
(14.0372 0 0)
(14.1269 0 0)
(14.2167 0 0)
(14.3065 0 0)
(14.3962 0 0)
(14.486 0 0)
(14.5758 0 0)
(14.6656 0 0)
(14.7553 0 0)
(14.8451 0 0)
(14.9349 0 0)
(15.0246 0 0)
(15.1144 0 0)
(15.2042 0 0)
(15.294 0 0)
(15.3837 0 0)
(15.4735 0 0)
(15.5633 0 0)
(15.6531 0 0)
(15.7429 0 0)
(15.8326 0 0)
(15.9224 0 0)
(16.0122 0 0)
(16.102 0 0)
(16.1918 0 0)
(16.2816 0 0)
(16.3713 0 0)
(16.4611 0 0)
(16.5509 0 0)
(16.6407 0 0)
(16.7305 0 0)
(16.8203 0 0)
(16.9101 0 0)
(16.9999 0 0)
(17.0896 0 0)
(17.1794 0 0)
(17.2692 0 0)
(17.359 0 0)
(17.4488 0 0)
(17.5386 0 0)
(17.6284 0 0)
(17.7182 0 0)
(17.808 0 0)
(17.8978 0 0)
(17.9876 0 0)
(18.0774 0 0)
(18.1672 0 0)
(18.257 0 0)
(18.3468 0 0)
(18.4366 0 0)
(18.5264 0 0)
(18.6162 0 0)
(18.706 0 0)
(18.7958 0 0)
(18.8856 0 0)
(18.9754 0 0)
(19.0652 0 0)
(19.155 0 0)
(19.2448 0 0)
(19.3346 0 0)
(19.4244 0 0)
(19.5143 0 0)
(19.6041 0 0)
(19.6939 0 0)
(19.7837 0 0)
(19.8735 0 0)
(19.9633 0 0)
(20.0531 0 0)
(20.1429 0 0)
(20.2328 0 0)
(20.3226 0 0)
(20.4124 0 0)
(20.5022 0 0)
(20.592 0 0)
(20.6818 0 0)
(20.7717 0 0)
(20.8615 0 0)
(20.9513 0 0)
(21.0411 0 0)
(21.1309 0 0)
(21.2208 0 0)
(21.3106 0 0)
(21.4004 0 0)
(21.4902 0 0)
(21.5801 0 0)
(21.6699 0 0)
(21.7597 0 0)
(21.8496 0 0)
(21.9394 0 0)
(22.0292 0 0)
(22.119 0 0)
(22.2089 0 0)
(22.2987 0 0)
(22.3885 0 0)
(22.4784 0 0)
(22.5682 0 0)
(22.658 0 0)
(22.7479 0 0)
(22.8377 0 0)
(22.9276 0 0)
(23.0174 0 0)
(23.1072 0 0)
(23.1971 0 0)
(23.2869 0 0)
(23.3767 0 0)
(23.4666 0 0)
(23.5564 0 0)
(23.6463 0 0)
(23.7361 0 0)
(23.826 0 0)
(23.9158 0 0)
(24.0057 0 0)
(24.0955 0 0)
(24.1853 0 0)
(24.2752 0 0)
(24.365 0 0)
(24.4549 0 0)
(24.5447 0 0)
(24.6346 0 0)
(24.7244 0 0)
(24.8143 0 0)
(24.9041 0 0)
(24.994 0 0)
(25.0839 0 0)
(25.1737 0 0)
(25.2636 0 0)
(25.3534 0 0)
(25.4433 0 0)
(25.5331 0 0)
(25.623 0 0)
(25.7129 0 0)
(25.8027 0 0)
(25.8926 0 0)
(25.9824 0 0)
(26.0723 0 0)
(26.1622 0 0)
(26.252 0 0)
(26.3419 0 0)
(26.4318 0 0)
(26.5216 0 0)
(26.6115 0 0)
(26.7013 0 0)
(26.7912 0 0)
(26.8811 0 0)
(26.971 0 0)
(27.0608 0 0)
(27.1507 0 0)
(27.2406 0 0)
(27.3304 0 0)
(27.4203 0 0)
(27.5102 0 0)
(27.6001 0 0)
(27.6899 0 0)
(27.7798 0 0)
(27.8697 0 0)
(27.9596 0 0)
(28.0494 0 0)
(28.1393 0 0)
(28.2292 0 0)
(28.3191 0 0)
(28.409 0 0)
(28.4988 0 0)
(28.5887 0 0)
(28.6786 0 0)
(28.7685 0 0)
(28.8584 0 0)
(28.9483 0 0)
(29.0381 0 0)
(29.128 0 0)
(29.2179 0 0)
(29.3078 0 0)
(29.3977 0 0)
(29.4876 0 0)
(29.5775 0 0)
(29.6674 0 0)
(29.7572 0 0)
(29.8471 0 0)
(29.937 0 0)
(30.0269 0 0)
(30.1168 0 0)
(30.2067 0 0)
(30.2966 0 0)
(30.3865 0 0)
(30.4764 0 0)
(30.5663 0 0)
(30.6562 0 0)
(30.7461 0 0)
(30.836 0 0)
(30.9259 0 0)
(31.0158 0 0)
(31.1057 0 0)
(31.1956 0 0)
(31.2855 0 0)
(31.3754 0 0)
(31.4653 0 0)
(31.5552 0 0)
(31.6451 0 0)
(31.735 0 0)
(31.8249 0 0)
(31.9148 0 0)
(32.0048 0 0)
(32.0947 0 0)
(32.1846 0 0)
(32.2745 0 0)
(32.3644 0 0)
(32.4543 0 0)
(32.5442 0 0)
(32.6341 0 0)
(32.7241 0 0)
(32.814 0 0)
(32.9039 0 0)
(32.9938 0 0)
(33.0837 0 0)
(33.1736 0 0)
(33.2636 0 0)
(33.3535 0 0)
(33.4434 0 0)
(33.5333 0 0)
(33.6232 0 0)
(33.7132 0 0)
(33.8031 0 0)
(33.893 0 0)
(33.9829 0 0)
(34.0729 0 0)
(34.1628 0 0)
(34.2527 0 0)
(34.3426 0 0)
(34.4326 0 0)
(34.5225 0 0)
(34.6124 0 0)
(34.7024 0 0)
(34.7923 0 0)
(34.8822 0 0)
(34.9721 0 0)
(35.0621 0 0)
(35.152 0 0)
(35.2419 0 0)
(35.3319 0 0)
(35.4218 0 0)
(35.5118 0 0)
(35.6017 0 0)
(35.6916 0 0)
(35.7816 0 0)
(35.8715 0 0)
(35.9614 0 0)
(36.0514 0 0)
(36.1413 0 0)
(36.2313 0 0)
(36.3212 0 0)
(36.4112 0 0)
(36.5011 0 0)
(36.591 0 0)
(36.681 0 0)
(36.7709 0 0)
(36.8609 0 0)
(36.9508 0 0)
(37.0408 0 0)
(37.1307 0 0)
(37.2207 0 0)
(37.3106 0 0)
(37.4006 0 0)
(37.4905 0 0)
(37.5805 0 0)
(37.6704 0 0)
(37.7604 0 0)
(37.8504 0 0)
(37.9403 0 0)
(38.0303 0 0)
(38.1202 0 0)
(38.2102 0 0)
(38.3001 0 0)
(38.3901 0 0)
(38.4801 0 0)
(38.57 0 0)
(38.66 0 0)
(38.7499 0 0)
(38.8399 0 0)
(38.9299 0 0)
(39.0198 0 0)
(39.1098 0 0)
(39.1998 0 0)
(39.2897 0 0)
(39.3797 0 0)
(39.4697 0 0)
(39.5596 0 0)
(39.6496 0 0)
(39.7396 0 0)
(39.8295 0 0)
(39.9195 0 0)
(40.0095 0 0)
(40.0994 0 0)
(40.1894 0 0)
(40.2794 0 0)
(40.3694 0 0)
(40.4593 0 0)
(40.5493 0 0)
(40.6393 0 0)
(40.7293 0 0)
(40.8193 0 0)
(40.9092 0 0)
(40.9992 0 0)
(41.0892 0 0)
(41.1792 0 0)
(41.2692 0 0)
(41.3591 0 0)
(41.4491 0 0)
(41.5391 0 0)
(41.6291 0 0)
(41.7191 0 0)
(41.8091 0 0)
(41.899 0 0)
(41.989 0 0)
(42.079 0 0)
(42.169 0 0)
(42.259 0 0)
(42.349 0 0)
(42.439 0 0)
(42.529 0 0)
(42.619 0 0)
(42.709 0 0)
(42.7989 0 0)
(42.8889 0 0)
(42.9789 0 0)
(43.0689 0 0)
(43.1589 0 0)
(43.2489 0 0)
(43.3389 0 0)
(43.4289 0 0)
(43.5189 0 0)
(43.6089 0 0)
(43.6989 0 0)
(43.7889 0 0)
(43.8789 0 0)
(43.9689 0 0)
(44.0589 0 0)
(44.1489 0 0)
(44.2389 0 0)
(44.3289 0 0)
(44.4189 0 0)
(44.509 0 0)
(44.599 0 0)
(44.689 0 0)
(44.779 0 0)
(44.869 0 0)
(44.959 0 0)
(45.049 0 0)
(45.139 0 0)
(45.229 0 0)
(45.319 0 0)
(45.4091 0 0)
(45.4991 0 0)
(45.5891 0 0)
(45.6791 0 0)
(45.7691 0 0)
(45.8591 0 0)
(45.9492 0 0)
(46.0392 0 0)
(46.1292 0 0)
(46.2192 0 0)
(46.3092 0 0)
(46.3993 0 0)
(46.4893 0 0)
(46.5793 0 0)
(46.6693 0 0)
(46.7593 0 0)
(46.8494 0 0)
(46.9394 0 0)
(47.0294 0 0)
(47.1195 0 0)
(47.2095 0 0)
(47.2995 0 0)
(47.3895 0 0)
(47.4796 0 0)
(47.5696 0 0)
(47.6596 0 0)
(47.7497 0 0)
(47.8397 0 0)
(47.9297 0 0)
(48.0198 0 0)
(48.1098 0 0)
(48.1998 0 0)
(48.2899 0 0)
(48.3799 0 0)
(48.4699 0 0)
(48.56 0 0)
(48.65 0 0)
(48.7401 0 0)
(48.8301 0 0)
(48.9201 0 0)
(49.0102 0 0)
(49.1002 0 0)
(49.1903 0 0)
(49.2803 0 0)
(49.3704 0 0)
(49.4604 0 0)
(49.5504 0 0)
(49.6405 0 0)
(49.7305 0 0)
(49.8206 0 0)
(49.9106 0 0)
(50.0007 0 0)
(50.0907 0 0)
(50.1808 0 0)
(50.2708 0 0)
(50.3609 0 0)
(50.4509 0 0)
(50.541 0 0)
(50.631 0 0)
(50.7211 0 0)
(50.8112 0 0)
(50.9012 0 0)
(50.9913 0 0)
(51.0813 0 0)
(51.1714 0 0)
(51.2614 0 0)
(51.3515 0 0)
(51.4416 0 0)
(51.5316 0 0)
(51.6217 0 0)
(51.7117 0 0)
(51.8018 0 0)
(51.8919 0 0)
(51.9819 0 0)
(52.072 0 0)
(52.1621 0 0)
(52.2521 0 0)
(52.3422 0 0)
(52.4323 0 0)
(52.5223 0 0)
(52.6124 0 0)
(52.7025 0 0)
(52.7925 0 0)
(52.8826 0 0)
(52.9727 0 0)
(53.0628 0 0)
(53.1528 0 0)
(53.2429 0 0)
(53.333 0 0)
(53.4231 0 0)
(53.5131 0 0)
(53.6032 0 0)
(53.6933 0 0)
(53.7834 0 0)
(53.8734 0 0)
(53.9635 0 0)
(54.0536 0 0)
(54.1437 0 0)
(54.2338 0 0)
(54.3238 0 0)
(54.4139 0 0)
(54.504 0 0)
(54.5941 0 0)
(54.6842 0 0)
(54.7743 0 0)
(54.8644 0 0)
(54.9544 0 0)
(55.0445 0 0)
(55.1346 0 0)
(55.2247 0 0)
(55.3148 0 0)
(55.4049 0 0)
(55.495 0 0)
(55.5851 0 0)
(55.6752 0 0)
(55.7653 0 0)
(55.8553 0 0)
(55.9454 0 0)
(56.0355 0 0)
(56.1256 0 0)
(56.2157 0 0)
(56.3058 0 0)
(56.3959 0 0)
(56.486 0 0)
(56.5761 0 0)
(56.6662 0 0)
(56.7563 0 0)
(56.8464 0 0)
(56.9365 0 0)
(57.0266 0 0)
(57.1167 0 0)
(57.2068 0 0)
(57.2969 0 0)
(57.387 0 0)
(57.4772 0 0)
(57.5673 0 0)
(57.6574 0 0)
(57.7475 0 0)
(57.8376 0 0)
(57.9277 0 0)
(58.0178 0 0)
(58.1079 0 0)
(58.198 0 0)
(58.2881 0 0)
(58.3782 0 0)
(58.4684 0 0)
(58.5585 0 0)
(58.6486 0 0)
(58.7387 0 0)
(58.8288 0 0)
(58.9189 0 0)
(59.0091 0 0)
(59.0992 0 0)
(59.1893 0 0)
(59.2794 0 0)
(59.3695 0 0)
(59.4597 0 0)
(59.5498 0 0)
(59.6399 0 0)
(59.73 0 0)
(59.8201 0 0)
(59.9103 0 0)
(60.0004 0 0)
(60.0905 0 0)
(60.1806 0 0)
(60.2708 0 0)
(60.3609 0 0)
(60.451 0 0)
(60.5412 0 0)
(60.6313 0 0)
(60.7214 0 0)
(60.8116 0 0)
(60.9017 0 0)
(60.9918 0 0)
(61.0819 0 0)
(61.1721 0 0)
(61.2622 0 0)
(61.3524 0 0)
(61.4425 0 0)
(61.5326 0 0)
(61.6228 0 0)
(61.7129 0 0)
(61.803 0 0)
(61.8932 0 0)
(61.9833 0 0)
(62.0735 0 0)
(62.1636 0 0)
(62.2537 0 0)
(62.3439 0 0)
(62.434 0 0)
(62.5242 0 0)
(62.6143 0 0)
(62.7045 0 0)
(62.7946 0 0)
(62.8847 0 0)
(62.9749 0 0)
(63.065 0 0)
(63.1552 0 0)
(63.2453 0 0)
(63.3355 0 0)
(63.4256 0 0)
(63.5158 0 0)
(63.6059 0 0)
(63.6961 0 0)
(63.7863 0 0)
(63.8764 0 0)
(63.9666 0 0)
(64.0567 0 0)
(64.1469 0 0)
(64.237 0 0)
(64.3272 0 0)
(64.4173 0 0)
(64.5075 0 0)
(64.5977 0 0)
(64.6878 0 0)
(64.778 0 0)
(64.8681 0 0)
(64.9583 0 0)
(65.0485 0 0)
(65.1386 0 0)
(65.2288 0 0)
(65.319 0 0)
(65.4091 0 0)
(65.4993 0 0)
(65.5895 0 0)
(65.6796 0 0)
(65.7698 0 0)
(65.86 0 0)
(65.9501 0 0)
(66.0403 0 0)
(66.1305 0 0)
(66.2206 0 0)
(66.3108 0 0)
(66.401 0 0)
(66.4912 0 0)
(66.5813 0 0)
(66.6715 0 0)
(66.7617 0 0)
(66.8519 0 0)
(66.942 0 0)
(67.0322 0 0)
(67.1224 0 0)
(67.2126 0 0)
(67.3027 0 0)
(67.3929 0 0)
(67.4831 0 0)
(67.5733 0 0)
(67.6635 0 0)
(67.7536 0 0)
(67.8438 0 0)
(67.934 0 0)
(68.0242 0 0)
(68.1144 0 0)
(68.2046 0 0)
(68.2947 0 0)
(68.3849 0 0)
(68.4751 0 0)
(68.5653 0 0)
(68.6555 0 0)
(68.7457 0 0)
(68.8359 0 0)
(68.9261 0 0)
(69.0163 0 0)
(69.1065 0 0)
(69.1966 0 0)
(69.2868 0 0)
(69.377 0 0)
(69.4672 0 0)
(69.5574 0 0)
(69.6476 0 0)
(69.7378 0 0)
(69.828 0 0)
(69.9182 0 0)
(70.0084 0 0)
(70.0986 0 0)
(70.1888 0 0)
(70.279 0 0)
(70.3692 0 0)
(70.4594 0 0)
(70.5496 0 0)
(70.6398 0 0)
(70.73 0 0)
(70.8202 0 0)
(70.9104 0 0)
(71.0006 0 0)
(71.0908 0 0)
(71.181 0 0)
(71.2713 0 0)
(71.3615 0 0)
(71.4517 0 0)
(71.5419 0 0)
(71.6321 0 0)
(71.7223 0 0)
(71.8125 0 0)
(71.9027 0 0)
(71.9929 0 0)
(72.0831 0 0)
(72.1734 0 0)
(72.2636 0 0)
(72.3538 0 0)
(72.444 0 0)
(72.5342 0 0)
(72.6244 0 0)
(72.7147 0 0)
(72.8049 0 0)
(72.8951 0 0)
(72.9853 0 0)
(73.0755 0 0)
(73.1658 0 0)
(73.256 0 0)
(73.3462 0 0)
(73.4364 0 0)
(73.5266 0 0)
(73.6169 0 0)
(73.7071 0 0)
(73.7973 0 0)
(73.8875 0 0)
(73.9778 0 0)
(74.068 0 0)
(74.1582 0 0)
(74.2485 0 0)
(74.3387 0 0)
(74.4289 0 0)
(74.5191 0 0)
(74.6094 0 0)
(74.6996 0 0)
(74.7898 0 0)
(74.8801 0 0)
(74.9703 0 0)
(75.0605 0 0)
(75.1508 0 0)
(75.241 0 0)
(75.3312 0 0)
(75.4215 0 0)
(75.5117 0 0)
(75.6019 0 0)
(75.6922 0 0)
(75.7824 0 0)
(75.8727 0 0)
(75.9629 0 0)
(76.0531 0 0)
(76.1434 0 0)
(76.2336 0 0)
(76.3239 0 0)
(76.4141 0 0)
(76.5044 0 0)
(76.5946 0 0)
(76.6848 0 0)
(76.7751 0 0)
(76.8653 0 0)
(76.9556 0 0)
(77.0458 0 0)
(77.1361 0 0)
(77.2263 0 0)
(77.3166 0 0)
(77.4068 0 0)
(77.4971 0 0)
(77.5873 0 0)
(77.6776 0 0)
(77.7678 0 0)
(77.8581 0 0)
(77.9483 0 0)
(78.0386 0 0)
(78.1289 0 0)
(78.2191 0 0)
(78.3094 0 0)
(78.3996 0 0)
(78.4899 0 0)
(78.5801 0 0)
(78.6704 0 0)
(78.7607 0 0)
(78.8509 0 0)
(78.9412 0 0)
(79.0314 0 0)
(79.1217 0 0)
(79.212 0 0)
(79.3022 0 0)
(79.3925 0 0)
(79.4827 0 0)
(79.573 0 0)
(79.6633 0 0)
(79.7535 0 0)
(79.8438 0 0)
(79.9341 0 0)
(80.0243 0 0)
(80.1146 0 0)
(80.2049 0 0)
(80.2951 0 0)
(80.3854 0 0)
(80.4757 0 0)
(80.566 0 0)
(80.6562 0 0)
(80.7465 0 0)
(80.8368 0 0)
(80.927 0 0)
(81.0173 0 0)
(81.1076 0 0)
(81.1979 0 0)
(81.2881 0 0)
(81.3784 0 0)
(81.4687 0 0)
(81.559 0 0)
(81.6493 0 0)
(81.7395 0 0)
(81.8298 0 0)
(81.9201 0 0)
(82.0104 0 0)
(82.1007 0 0)
(82.1909 0 0)
(82.2812 0 0)
(82.3715 0 0)
(82.4618 0 0)
(82.5521 0 0)
(82.6424 0 0)
(82.7326 0 0)
(82.8229 0 0)
(82.9132 0 0)
(83.0035 0 0)
(83.0938 0 0)
(83.1841 0 0)
(83.2744 0 0)
(83.3646 0 0)
(83.4549 0 0)
(83.5452 0 0)
(83.6355 0 0)
(83.7258 0 0)
(83.8161 0 0)
(83.9064 0 0)
(83.9967 0 0)
(84.087 0 0)
(84.1773 0 0)
(84.2676 0 0)
(84.3579 0 0)
(84.4482 0 0)
(84.5385 0 0)
(84.6288 0 0)
(84.719 0 0)
(84.8093 0 0)
(84.8996 0 0)
(84.9899 0 0)
(85.0802 0 0)
(85.1705 0 0)
(85.2608 0 0)
(85.3511 0 0)
(85.4414 0 0)
(85.5317 0 0)
(85.6221 0 0)
(85.7124 0 0)
(85.8027 0 0)
(85.893 0 0)
(85.9833 0 0)
(86.0736 0 0)
(86.1639 0 0)
(86.2542 0 0)
(86.3445 0 0)
(86.4348 0 0)
(86.5251 0 0)
(86.6154 0 0)
(86.7057 0 0)
(86.796 0 0)
(86.8863 0 0)
(86.9767 0 0)
(87.067 0 0)
(87.1573 0 0)
(87.2476 0 0)
(87.3379 0 0)
(87.4282 0 0)
(87.5185 0 0)
(87.6088 0 0)
(87.6992 0 0)
(87.7895 0 0)
(87.8798 0 0)
(87.9701 0 0)
(88.0604 0 0)
(88.1507 0 0)
(88.2411 0 0)
(88.3314 0 0)
(88.4217 0 0)
(88.512 0 0)
(88.6023 0 0)
(88.6927 0 0)
(88.783 0 0)
(88.8733 0 0)
(88.9636 0 0)
(89.054 0 0)
(89.1443 0 0)
(89.2346 0 0)
(89.3249 0 0)
(89.4152 0 0)
(89.5056 0 0)
(89.5959 0 0)
(89.6862 0 0)
(89.7766 0 0)
(89.8669 0 0)
(89.9572 0 0)
(90.0475 0 0)
(90.1379 0 0)
(90.2282 0 0)
(90.3185 0 0)
(90.4089 0 0)
(90.4992 0 0)
(90.5895 0 0)
(90.6798 0 0)
(90.7702 0 0)
(90.8605 0 0)
(90.9508 0 0)
(91.0412 0 0)
(91.1315 0 0)
(91.2218 0 0)
(91.3122 0 0)
(91.4025 0 0)
(91.4929 0 0)
(91.5832 0 0)
(91.6735 0 0)
(91.7639 0 0)
(91.8542 0 0)
(91.9445 0 0)
(92.0349 0 0)
(92.1252 0 0)
(92.2156 0 0)
(92.3059 0 0)
(92.3962 0 0)
(92.4866 0 0)
(92.5769 0 0)
(92.6673 0 0)
(92.7576 0 0)
(92.848 0 0)
(92.9383 0 0)
(93.0286 0 0)
(93.119 0 0)
(93.2093 0 0)
(93.2997 0 0)
(93.39 0 0)
(93.4804 0 0)
(93.5707 0 0)
(93.6611 0 0)
(93.7514 0 0)
(93.8418 0 0)
(93.9321 0 0)
(94.0224 0 0)
(94.1128 0 0)
(94.2031 0 0)
(94.2935 0 0)
(94.3838 0 0)
(94.4742 0 0)
(94.5646 0 0)
(94.6549 0 0)
(94.7453 0 0)
(94.8356 0 0)
(94.926 0 0)
(95.0163 0 0)
(95.1067 0 0)
(95.197 0 0)
(95.2874 0 0)
(95.3777 0 0)
(95.4681 0 0)
(95.5584 0 0)
(95.6488 0 0)
(95.7392 0 0)
(95.8295 0 0)
(95.9199 0 0)
(96.0102 0 0)
(96.1006 0 0)
(96.1909 0 0)
(96.2813 0 0)
(96.3717 0 0)
(96.462 0 0)
(96.5524 0 0)
(96.6427 0 0)
(96.7331 0 0)
(96.8235 0 0)
(96.9138 0 0)
(97.0042 0 0)
(97.0945 0 0)
(97.1849 0 0)
(97.2753 0 0)
(97.3656 0 0)
(97.456 0 0)
(97.5464 0 0)
(97.6367 0 0)
(97.7271 0 0)
(97.8175 0 0)
(97.9078 0 0)
(97.9982 0 0)
(98.0886 0 0)
(98.1789 0 0)
(98.2693 0 0)
(98.3597 0 0)
(98.45 0 0)
(98.5404 0 0)
(98.6308 0 0)
(98.7211 0 0)
(98.8115 0 0)
(98.9019 0 0)
(98.9922 0 0)
(99.0826 0 0)
(99.173 0 0)
(99.2633 0 0)
(99.3537 0 0)
(99.4441 0 0)
(99.5345 0 0)
(99.6248 0 0)
(99.7152 0 0)
(99.8056 0 0)
(99.8959 0 0)
(99.9863 0 0)
(100.077 0 0)
(100.167 0 0)
(100.257 0 0)
(100.348 0 0)
(100.438 0 0)
(100.529 0 0)
(100.619 0 0)
(100.709 0 0)
(100.8 0 0)
(100.89 0 0)
(100.98 0 0)
(101.071 0 0)
(101.161 0 0)
(101.252 0 0)
(101.342 0 0)
(101.432 0 0)
(101.523 0 0)
(101.613 0 0)
(101.703 0 0)
(101.794 0 0)
(101.884 0 0)
(101.975 0 0)
(102.065 0 0)
(102.155 0 0)
(102.246 0 0)
(102.336 0 0)
(102.426 0 0)
(102.517 0 0)
(102.607 0 0)
(102.698 0 0)
(102.788 0 0)
(102.878 0 0)
(102.969 0 0)
(103.059 0 0)
(103.15 0 0)
(103.24 0 0)
(103.33 0 0)
(103.421 0 0)
(103.511 0 0)
(103.601 0 0)
(103.692 0 0)
(103.782 0 0)
(103.873 0 0)
(103.963 0 0)
(104.053 0 0)
(104.144 0 0)
(104.234 0 0)
(104.324 0 0)
(104.415 0 0)
(104.505 0 0)
(104.596 0 0)
(104.686 0 0)
(104.776 0 0)
(104.867 0 0)
(104.957 0 0)
(105.048 0 0)
(105.138 0 0)
(105.228 0 0)
(105.319 0 0)
(105.409 0 0)
(105.499 0 0)
(105.59 0 0)
(105.68 0 0)
(105.771 0 0)
(105.861 0 0)
(105.951 0 0)
(106.042 0 0)
(106.132 0 0)
(106.223 0 0)
(106.313 0 0)
(106.403 0 0)
(106.494 0 0)
(106.584 0 0)
(106.674 0 0)
(106.765 0 0)
(106.855 0 0)
(106.946 0 0)
(107.036 0 0)
(107.126 0 0)
(107.217 0 0)
(107.307 0 0)
(107.398 0 0)
(107.488 0 0)
(107.578 0 0)
(107.669 0 0)
(107.759 0 0)
(107.849 0 0)
(107.94 0 0)
(108.03 0 0)
(108.121 0 0)
(108.211 0 0)
(108.301 0 0)
(108.392 0 0)
(108.482 0 0)
(108.573 0 0)
(108.663 0 0)
(108.753 0 0)
(108.844 0 0)
(108.934 0 0)
(109.024 0 0)
(109.115 0 0)
(109.205 0 0)
(109.296 0 0)
(109.386 0 0)
(109.476 0 0)
(109.567 0 0)
(109.657 0 0)
(109.747 0 0)
(109.838 0 0)
(109.928 0 0)
(110.019 0 0)
(110.109 0 0)
(110.199 0 0)
(110.29 0 0)
(110.38 0 0)
(110.471 0 0)
(110.561 0 0)
(110.651 0 0)
(110.742 0 0)
(110.832 0 0)
(110.922 0 0)
(111.013 0 0)
(111.103 0 0)
(111.194 0 0)
(111.284 0 0)
(111.374 0 0)
(111.465 0 0)
(111.555 0 0)
(111.645 0 0)
(111.736 0 0)
(111.826 0 0)
(111.917 0 0)
(112.007 0 0)
(112.097 0 0)
(112.188 0 0)
(112.278 0 0)
(112.368 0 0)
(112.459 0 0)
(112.549 0 0)
(112.64 0 0)
(112.73 0 0)
(112.82 0 0)
(112.911 0 0)
(113.001 0 0)
(113.091 0 0)
(113.182 0 0)
(113.272 0 0)
(113.362 0 0)
(113.453 0 0)
(113.543 0 0)
(113.634 0 0)
(113.724 0 0)
(113.814 0 0)
(113.905 0 0)
(113.995 0 0)
(114.085 0 0)
(114.176 0 0)
(114.266 0 0)
(114.356 0 0)
(114.447 0 0)
(114.537 0 0)
(114.627 0 0)
(114.718 0 0)
(114.808 0 0)
(114.899 0 0)
(114.989 0 0)
(115.079 0 0)
(115.17 0 0)
(115.26 0 0)
(115.35 0 0)
(115.441 0 0)
(115.531 0 0)
(115.621 0 0)
(115.712 0 0)
(115.802 0 0)
(115.892 0 0)
(115.983 0 0)
(116.073 0 0)
(116.163 0 0)
(116.254 0 0)
(116.344 0 0)
(116.434 0 0)
(116.525 0 0)
(116.615 0 0)
(116.705 0 0)
(116.796 0 0)
(116.886 0 0)
(116.976 0 0)
(117.067 0 0)
(117.157 0 0)
(117.247 0 0)
(117.338 0 0)
(117.428 0 0)
(117.518 0 0)
(117.609 0 0)
(117.699 0 0)
(117.789 0 0)
(117.88 0 0)
(117.97 0 0)
(118.06 0 0)
(118.151 0 0)
(118.241 0 0)
(118.331 0 0)
(118.422 0 0)
(118.512 0 0)
(118.602 0 0)
(118.693 0 0)
(118.783 0 0)
(118.873 0 0)
(118.964 0 0)
(119.054 0 0)
(119.144 0 0)
(119.234 0 0)
(119.325 0 0)
(119.415 0 0)
(119.505 0 0)
(119.596 0 0)
(119.686 0 0)
(119.776 0 0)
(119.867 0 0)
(119.957 0 0)
(120.047 0 0)
(120.137 0 0)
(120.228 0 0)
(120.318 0 0)
(120.408 0 0)
(120.499 0 0)
(120.589 0 0)
(120.679 0 0)
(120.769 0 0)
(120.86 0 0)
(120.95 0 0)
(121.04 0 0)
(121.13 0 0)
(121.221 0 0)
(121.311 0 0)
(121.401 0 0)
(121.492 0 0)
(121.582 0 0)
(121.672 0 0)
(121.762 0 0)
(121.853 0 0)
(121.943 0 0)
(122.033 0 0)
(122.123 0 0)
(122.214 0 0)
(122.304 0 0)
(122.394 0 0)
(122.484 0 0)
(122.574 0 0)
(122.665 0 0)
(122.755 0 0)
(122.845 0 0)
(122.935 0 0)
(123.026 0 0)
(123.116 0 0)
(123.206 0 0)
(123.296 0 0)
(123.387 0 0)
(123.477 0 0)
(123.567 0 0)
(123.657 0 0)
(123.747 0 0)
(123.838 0 0)
(123.928 0 0)
(124.018 0 0)
(124.108 0 0)
(124.198 0 0)
(124.289 0 0)
(124.379 0 0)
(124.469 0 0)
(124.559 0 0)
(124.649 0 0)
(124.739 0 0)
(124.83 0 0)
(124.92 0 0)
(125.01 0 0)
(125.1 0 0)
(125.19 0 0)
(125.28 0 0)
(125.371 0 0)
(125.461 0 0)
(125.551 0 0)
(125.641 0 0)
(125.731 0 0)
(125.821 0 0)
(125.912 0 0)
(126.002 0 0)
(126.092 0 0)
(126.182 0 0)
(126.272 0 0)
(126.362 0 0)
(126.452 0 0)
(126.542 0 0)
(126.633 0 0)
(126.723 0 0)
(126.813 0 0)
(126.903 0 0)
(126.993 0 0)
(127.083 0 0)
(127.173 0 0)
(127.263 0 0)
(127.353 0 0)
(127.443 0 0)
(127.534 0 0)
(127.624 0 0)
(127.714 0 0)
(127.804 0 0)
(127.894 0 0)
(127.984 0 0)
(128.074 0 0)
(128.164 0 0)
(128.254 0 0)
(128.344 0 0)
(128.434 0 0)
(128.524 0 0)
(128.614 0 0)
(128.704 0 0)
(128.794 0 0)
(128.884 0 0)
(128.974 0 0)
(129.064 0 0)
(129.154 0 0)
(129.244 0 0)
(129.334 0 0)
(129.424 0 0)
(129.514 0 0)
(129.604 0 0)
(129.694 0 0)
(129.784 0 0)
(129.874 0 0)
(129.964 0 0)
(130.054 0 0)
(130.144 0 0)
(130.234 0 0)
(130.324 0 0)
(130.414 0 0)
(130.504 0 0)
(130.594 0 0)
(130.684 0 0)
(130.774 0 0)
(130.863 0 0)
(130.953 0 0)
(131.043 0 0)
(131.133 0 0)
(131.223 0 0)
(131.313 0 0)
(131.403 0 0)
(131.493 0 0)
(131.583 0 0)
(131.672 0 0)
(131.762 0 0)
(131.852 0 0)
(131.942 0 0)
(132.032 0 0)
(132.122 0 0)
(132.211 0 0)
(132.301 0 0)
(132.391 0 0)
(132.481 0 0)
(132.571 0 0)
(132.66 0 0)
(132.75 0 0)
(132.84 0 0)
(132.93 0 0)
(133.019 0 0)
(133.109 0 0)
(133.199 0 0)
(133.289 0 0)
(133.378 0 0)
(133.468 0 0)
(133.558 0 0)
(133.647 0 0)
(133.737 0 0)
(133.827 0 0)
(133.916 0 0)
(134.006 0 0)
(134.096 0 0)
(134.185 0 0)
(134.275 0 0)
(134.364 0 0)
(134.454 0 0)
(134.543 0 0)
(134.633 0 0)
(134.723 0 0)
(134.812 0 0)
(134.902 0 0)
(134.991 0 0)
(135.081 0 0)
(135.17 0 0)
(135.26 0 0)
(135.349 0 0)
(135.438 0 0)
(135.528 0 0)
(135.617 0 0)
(135.707 0 0)
(135.796 0 0)
(135.885 0 0)
(135.975 0 0)
(136.064 0 0)
(136.153 0 0)
(136.243 0 0)
(136.332 0 0)
(136.421 0 0)
(136.51 0 0)
(136.6 0 0)
(136.689 0 0)
(136.778 0 0)
(136.867 0 0)
(136.956 0 0)
(137.045 0 0)
(137.135 0 0)
(137.224 0 0)
(137.313 0 0)
(137.402 0 0)
(137.491 0 0)
(137.58 0 0)
(137.669 0 0)
(137.757 0 0)
(137.846 0 0)
(137.935 0 0)
(138.024 0 0)
(138.113 0 0)
(138.201 0 0)
(138.29 0 0)
(138.379 0 0)
(138.467 0 0)
(138.556 0 0)
(138.645 0 0)
(138.733 0 0)
(138.822 0 0)
(138.91 0 0)
(138.998 0 0)
(139.087 0 0)
(139.175 0 0)
(139.263 0 0)
(139.352 0 0)
(139.44 0 0)
(139.528 0 0)
(139.616 0 0)
(139.704 0 0)
(139.792 0 0)
(139.88 0 0)
(139.967 0 0)
(140.055 0 0)
(140.143 0 0)
(140.23 0 0)
(140.318 0 0)
(140.405 0 0)
(140.493 0 0)
(140.58 0 0)
(140.667 0 0)
(140.754 0 0)
(140.841 0 0)
(140.928 0 0)
(141.015 0 0)
(141.102 0 0)
(141.188 0 0)
(141.275 0 0)
(141.361 0 0)
(141.447 0 0)
(141.533 0 0)
(141.619 0 0)
(141.705 0 0)
(141.791 0 0)
(141.876 0 0)
(141.962 0 0)
(142.047 0 0)
(142.132 0 0)
(142.217 0 0)
(142.301 0 0)
(142.386 0 0)
(142.47 0 0)
(142.554 0 0)
(142.638 0 0)
(142.721 0 0)
(142.804 0 0)
(142.888 0 0)
(142.97 0 0)
(143.053 0 0)
(143.135 0 0)
(143.217 0 0)
(143.299 0 0)
(143.38 0 0)
(143.461 0 0)
(143.542 0 0)
(143.622 0 0)
(143.702 0 0)
(143.782 0 0)
(143.861 0 0)
(143.94 0 0)
(144.018 0 0)
(144.096 0 0)
(144.174 0 0)
(144.251 0 0)
(144.327 0 0)
(144.404 0 0)
(144.479 0 0)
(144.554 0 0)
(144.629 0 0)
(144.703 0 0)
(144.777 0 0)
(144.85 0 0)
(144.923 0 0)
(144.995 0 0)
(145.067 0 0)
(145.138 0 0)
(145.208 0 0)
(145.278 0 0)
(145.347 0 0)
(145.416 0 0)
(145.484 0 0)
(145.552 0 0)
(145.619 0 0)
(145.685 0 0)
(145.751 0 0)
(145.816 0 0)
(145.881 0 0)
(145.945 0 0)
(146.009 0 0)
(146.072 0 0)
(146.134 0 0)
(146.196 0 0)
(146.258 0 0)
(146.319 0 0)
(146.379 0 0)
(146.439 0 0)
(146.498 0 0)
(146.557 0 0)
(146.615 0 0)
(146.673 0 0)
(146.73 0 0)
(146.787 0 0)
(146.844 0 0)
(146.9 0 0)
(146.956 0 0)
(147.011 0 0)
(147.066 0 0)
(147.121 0 0)
(147.175 0 0)
(147.229 0 0)
(147.283 0 0)
(147.336 0 0)
(147.389 0 0)
(147.442 0 0)
(147.495 0 0)
(147.547 0 0)
(147.599 0 0)
(147.651 0 0)
(147.703 0 0)
(147.754 0 0)
(147.805 0 0)
(147.856 0 0)
(147.907 0 0)
(147.958 0 0)
(148.009 0 0)
(148.059 0 0)
(148.11 0 0)
(148.16 0 0)
(148.21 0 0)
(148.26 0 0)
(148.31 0 0)
(148.36 0 0)
(148.41 0 0)
(148.459 0 0)
(148.509 0 0)
(148.559 0 0)
(148.608 0 0)
(148.658 0 0)
(148.707 0 0)
(148.756 0 0)
(148.806 0 0)
(148.855 0 0)
(148.904 0 0)
(148.954 0 0)
(149.003 0 0)
(149.052 0 0)
(149.101 0 0)
(149.15 0 0)
(149.199 0 0)
(149.248 0 0)
(149.298 0 0)
(149.347 0 0)
(149.396 0 0)
(149.445 0 0)
(149.494 0 0)
(149.543 0 0)
(149.592 0 0)
(149.641 0 0)
(149.69 0 0)
(149.739 0 0)
(149.788 0 0)
(149.837 0 0)
(149.886 0 0)
(149.935 0 0)
(149.984 0 0)
(150.033 0 0)
(150.082 0 0)
(150.131 0 0)
(150.18 0 0)
(150.229 0 0)
(150.278 0 0)
(150.327 0 0)
(150.376 0 0)
(150.425 0 0)
(150.474 0 0)
(150.523 0 0)
(150.572 0 0)
(150.621 0 0)
(150.669 0 0)
(150.718 0 0)
(150.767 0 0)
(150.816 0 0)
(150.865 0 0)
(150.914 0 0)
(150.963 0 0)
(151.012 0 0)
(151.061 0 0)
(151.11 0 0)
(151.159 0 0)
(151.208 0 0)
(151.257 0 0)
(151.306 0 0)
(151.355 0 0)
(151.404 0 0)
(151.453 0 0)
(151.502 0 0)
(151.551 0 0)
(151.6 0 0)
(151.649 0 0)
(151.698 0 0)
(151.747 0 0)
(151.796 0 0)
(151.845 0 0)
(151.894 0 0)
(151.942 0 0)
(151.991 0 0)
(152.04 0 0)
(152.089 0 0)
(152.138 0 0)
(152.187 0 0)
(152.236 0 0)
(152.285 0 0)
(152.334 0 0)
(152.383 0 0)
(152.432 0 0)
(152.481 0 0)
(152.53 0 0)
(152.579 0 0)
(152.628 0 0)
(152.677 0 0)
(152.726 0 0)
(152.775 0 0)
(152.824 0 0)
(152.873 0 0)
(152.922 0 0)
(152.971 0 0)
(153.02 0 0)
(153.069 0 0)
(153.118 0 0)
(153.166 0 0)
(153.215 0 0)
(153.264 0 0)
(153.313 0 0)
(153.362 0 0)
(153.411 0 0)
(153.46 0 0)
(153.509 0 0)
(153.558 0 0)
(153.607 0 0)
(153.656 0 0)
(153.705 0 0)
(153.754 0 0)
(153.803 0 0)
(153.852 0 0)
(153.901 0 0)
(153.95 0 0)
(153.999 0 0)
(154.048 0 0)
(154.097 0 0)
(154.146 0 0)
(154.195 0 0)
(154.244 0 0)
(154.293 0 0)
(154.342 0 0)
(154.39 0 0)
(154.439 0 0)
(154.488 0 0)
(154.537 0 0)
(154.586 0 0)
(154.635 0 0)
(154.684 0 0)
(154.733 0 0)
(154.782 0 0)
(154.831 0 0)
(154.88 0 0)
(154.929 0 0)
(154.978 0 0)
(155.027 0 0)
(155.076 0 0)
(155.125 0 0)
(155.174 0 0)
(155.223 0 0)
(155.272 0 0)
(155.321 0 0)
(155.37 0 0)
(155.419 0 0)
(155.468 0 0)
(155.517 0 0)
(155.566 0 0)
(155.614 0 0)
(155.663 0 0)
(155.712 0 0)
(155.761 0 0)
(155.81 0 0)
(155.859 0 0)
(155.908 0 0)
(155.957 0 0)
(156.006 0 0)
(156.055 0 0)
(156.104 0 0)
(156.153 0 0)
(156.202 0 0)
(156.251 0 0)
(156.3 0 0)
(156.349 0 0)
(156.398 0 0)
(156.447 0 0)
(156.496 0 0)
(156.545 0 0)
(156.594 0 0)
(156.643 0 0)
(156.692 0 0)
(156.741 0 0)
(156.789 0 0)
(156.838 0 0)
(156.887 0 0)
(156.936 0 0)
(156.985 0 0)
(157.034 0 0)
(157.083 0 0)
(157.132 0 0)
(157.181 0 0)
(157.23 0 0)
(157.279 0 0)
(157.328 0 0)
(157.377 0 0)
(157.426 0 0)
(157.475 0 0)
(157.524 0 0)
(157.573 0 0)
(157.622 0 0)
(157.671 0 0)
(157.72 0 0)
(157.769 0 0)
(157.818 0 0)
(157.867 0 0)
(157.916 0 0)
(157.965 0 0)
(158.013 0 0)
(158.062 0 0)
(158.111 0 0)
(158.16 0 0)
(158.209 0 0)
(158.258 0 0)
(158.307 0 0)
(158.356 0 0)
(158.405 0 0)
(158.454 0 0)
(158.503 0 0)
(158.552 0 0)
(158.601 0 0)
(158.65 0 0)
(158.699 0 0)
(158.748 0 0)
(158.797 0 0)
(158.846 0 0)
(158.895 0 0)
(158.944 0 0)
(158.993 0 0)
(159.042 0 0)
(159.091 0 0)
(159.14 0 0)
(159.188 0 0)
(159.237 0 0)
(159.286 0 0)
(159.335 0 0)
(159.384 0 0)
(159.433 0 0)
(159.482 0 0)
(159.531 0 0)
(159.58 0 0)
(159.629 0 0)
(159.678 0 0)
(159.727 0 0)
(159.776 0 0)
(159.825 0 0)
(159.874 0 0)
(159.923 0 0)
(159.972 0 0)
(160.021 0 0)
(160.07 0 0)
(160.119 0 0)
(160.168 0 0)
(160.217 0 0)
(160.266 0 0)
(160.315 0 0)
(160.364 0 0)
(160.412 0 0)
(160.461 0 0)
(160.51 0 0)
(160.559 0 0)
(160.608 0 0)
(160.657 0 0)
(160.706 0 0)
(160.755 0 0)
(160.804 0 0)
(160.853 0 0)
(160.902 0 0)
(160.951 0 0)
(161 0 0)
(161.049 0 0)
(161.098 0 0)
(161.147 0 0)
(161.196 0 0)
(161.245 0 0)
(161.294 0 0)
(161.343 0 0)
(161.392 0 0)
(161.441 0 0)
(161.49 0 0)
(161.539 0 0)
(161.587 0 0)
(161.636 0 0)
(161.685 0 0)
(161.734 0 0)
(161.783 0 0)
(161.832 0 0)
(161.881 0 0)
(161.93 0 0)
(161.979 0 0)
(162.028 0 0)
(162.077 0 0)
(162.126 0 0)
(162.175 0 0)
(162.224 0 0)
(162.273 0 0)
(162.322 0 0)
(162.371 0 0)
(162.42 0 0)
(162.469 0 0)
(162.518 0 0)
(162.567 0 0)
(162.616 0 0)
(162.665 0 0)
(162.713 0 0)
(162.762 0 0)
(162.811 0 0)
(162.86 0 0)
(162.909 0 0)
(162.958 0 0)
(163.007 0 0)
(163.056 0 0)
(163.105 0 0)
(163.154 0 0)
(163.203 0 0)
(163.252 0 0)
(163.301 0 0)
(163.35 0 0)
(163.399 0 0)
(163.448 0 0)
(163.497 0 0)
(163.546 0 0)
(163.595 0 0)
(163.644 0 0)
(163.693 0 0)
(163.742 0 0)
(163.791 0 0)
(163.84 0 0)
(163.888 0 0)
(163.937 0 0)
(163.986 0 0)
(164.035 0 0)
(164.084 0 0)
(164.133 0 0)
(164.182 0 0)
(164.231 0 0)
(164.28 0 0)
(164.329 0 0)
(164.378 0 0)
(164.427 0 0)
(164.476 0 0)
(164.525 0 0)
(164.574 0 0)
(164.623 0 0)
(164.672 0 0)
(164.721 0 0)
(164.77 0 0)
(164.819 0 0)
(164.868 0 0)
(164.917 0 0)
(164.966 0 0)
(165.015 0 0)
(165.063 0 0)
(165.112 0 0)
(165.161 0 0)
(165.21 0 0)
(165.259 0 0)
(165.308 0 0)
(165.357 0 0)
(165.406 0 0)
(165.455 0 0)
(165.504 0 0)
(165.553 0 0)
(165.602 0 0)
(165.651 0 0)
(165.7 0 0)
(165.749 0 0)
(165.798 0 0)
(165.847 0 0)
(165.896 0 0)
(165.945 0 0)
(165.994 0 0)
(166.043 0 0)
(166.092 0 0)
(166.141 0 0)
(166.189 0 0)
(166.238 0 0)
(166.287 0 0)
(166.336 0 0)
(166.385 0 0)
(166.434 0 0)
(166.483 0 0)
(166.532 0 0)
(166.581 0 0)
(166.63 0 0)
(166.679 0 0)
(166.728 0 0)
(166.777 0 0)
(166.826 0 0)
(166.875 0 0)
(166.924 0 0)
(166.973 0 0)
(167.022 0 0)
(167.071 0 0)
(167.12 0 0)
(167.169 0 0)
(167.218 0 0)
(167.267 0 0)
(167.315 0 0)
(167.364 0 0)
(167.413 0 0)
(167.462 0 0)
(167.511 0 0)
(167.56 0 0)
(167.609 0 0)
(167.658 0 0)
(167.707 0 0)
(167.756 0 0)
(167.805 0 0)
(167.854 0 0)
(167.903 0 0)
(167.952 0 0)
(168.001 0 0)
(168.05 0 0)
(168.099 0 0)
(168.148 0 0)
(168.197 0 0)
(168.246 0 0)
(168.295 0 0)
(168.344 0 0)
(168.393 0 0)
(168.441 0 0)
(168.49 0 0)
(168.539 0 0)
(168.588 0 0)
(168.637 0 0)
(168.686 0 0)
(168.735 0 0)
(168.784 0 0)
(168.833 0 0)
(168.882 0 0)
(168.931 0 0)
(168.98 0 0)
(169.029 0 0)
(169.078 0 0)
(169.127 0 0)
(169.176 0 0)
(169.225 0 0)
(169.274 0 0)
(169.323 0 0)
(169.372 0 0)
(169.421 0 0)
(169.47 0 0)
(169.518 0 0)
(169.567 0 0)
(169.616 0 0)
(169.665 0 0)
(169.714 0 0)
(169.763 0 0)
(169.812 0 0)
(169.861 0 0)
(169.91 0 0)
(169.959 0 0)
(170.008 0 0)
(170.057 0 0)
(170.106 0 0)
(170.155 0 0)
(170.204 0 0)
(170.253 0 0)
(170.302 0 0)
(170.351 0 0)
(170.4 0 0)
(170.449 0 0)
(170.498 0 0)
(170.547 0 0)
(170.596 0 0)