/*--------------------------------*- C++ -*----------------------------------*\
  =========                 |
  \\      /  F ield         | OpenFOAM: The Open Source CFD Toolbox
   \\    /   O peration     | Website:  https://openfoam.org
    \\  /    A nd           | Version:  9
     \\/     M anipulation  |
\*---------------------------------------------------------------------------*/
FoamFile
{
    format      ascii;
    class       volScalarField;
    location    "0.013";
    object      p;
}
// * * * * * * * * * * * * * * * * * * * * * * * * * * * * * * * * * * * * * //

dimensions      [1 -1 -2 0 0 0 0];

internalField   nonuniform List<scalar> 
10000
(
99990.4
99990.3
99990.2
99990
99989.8
99989.5
99989.3
99988.9
99988.5
99988.1
99987.7
99987.2
99986.6
99986
99985.4
99984.7
99983.9
99983.2
99982.3
99981.4
99980.5
99979.4
99978.4
99977.2
99976.1
99974.8
99973.5
99972.1
99970.6
99969.1
99967.5
99965.8
99964.1
99962.2
99960.3
99958.3
99956.2
99954.1
99951.8
99949.4
99947
99944.4
99941.8
99939
99936.2
99933.2
99930.2
99927
99923.7
99920.3
99916.8
99913.1
99909.3
99905.5
99901.4
99897.3
99893
99888.6
99884.1
99879.4
99874.6
99869.7
99864.6
99859.3
99854
99848.4
99842.8
99836.9
99831
99824.9
99818.6
99812.2
99805.6
99798.9
99792
99784.9
99777.7
99770.4
99762.8
99755.2
99747.3
99739.3
99731.2
99722.8
99714.4
99705.7
99696.9
99687.9
99678.8
99669.5
99660.1
99650.5
99640.7
99630.8
99620.7
99610.4
99600
99589.5
99578.7
99567.9
99556.8
99545.7
99534.3
99522.8
99511.2
99499.4
99487.4
99475.4
99463.1
99450.7
99438.2
99425.5
99412.7
99399.8
99386.7
99373.4
99360
99346.5
99332.9
99319.1
99305.2
99291.2
99277
99262.7
99248.3
99233.8
99219.1
99204.3
99189.4
99174.4
99159.2
99144
99128.6
99113.1
99097.5
99081.8
99066
99050.1
99034.1
99017.9
99001.7
98985.4
98969
98952.4
98935.8
98919.1
98902.3
98885.4
98868.4
98851.3
98834.1
98816.9
98799.5
98782.1
98764.6
98747
98729.4
98711.6
98693.8
98675.9
98657.9
98639.9
98621.7
98603.5
98585.3
98566.9
98548.5
98530.1
98511.5
98492.9
98474.3
98455.6
98436.8
98417.9
98399
98380.1
98361
98342
98322.8
98303.6
98284.4
98265.1
98245.8
98226.4
98206.9
98187.4
98167.9
98148.3
98128.7
98109
98089.2
98069.5
98049.6
98029.8
98009.9
97989.9
97970
97949.9
97929.9
97909.8
97889.6
97869.5
97849.2
97829
97808.7
97788.4
97768
97747.7
97727.2
97706.8
97686.3
97665.8
97645.2
97624.7
97604.1
97583.4
97562.8
97542.1
97521.4
97500.6
97479.8
97459
97438.2
97417.4
97396.5
97375.6
97354.7
97333.7
97312.7
97291.8
97270.7
97249.7
97228.6
97207.6
97186.5
97165.3
97144.2
97123
97101.9
97080.7
97059.4
97038.2
97017
96995.7
96974.4
96953.1
96931.8
96910.4
96889.1
96867.7
96846.3
96824.9
96803.5
96782.1
96760.6
96739.1
96717.7
96696.2
96674.7
96653.2
96631.6
96610.1
96588.5
96567
96545.4
96523.8
96502.2
96480.6
96459
96437.3
96415.7
96394
96372.3
96350.7
96329
96307.3
96285.6
96263.8
96242.1
96220.4
96198.6
96176.9
96155.1
96133.3
96111.6
96089.8
96068
96046.2
96024.4
96002.5
95980.7
95958.9
95937
95915.2
95893.3
95871.5
95849.6
95827.7
95805.8
95784
95762.1
95740.2
95718.3
95696.3
95674.4
95652.5
95630.6
95608.6
95586.7
95564.8
95542.8
95520.9
95498.9
95477
95455
95433
95411
95389.1
95367.1
95345.1
95323.1
95301.1
95279.1
95257.1
95235.1
95213.1
95191.1
95169.1
95147.1
95125
95103
95081
95059
95036.9
95014.9
94992.9
94970.8
94948.8
94926.7
94904.7
94882.7
94860.6
94838.6
94816.5
94794.4
94772.4
94750.3
94728.3
94706.2
94684.1
94662.1
94640
94618
94595.9
94573.8
94551.7
94529.7
94507.6
94485.5
94463.4
94441.4
94419.3
94397.2
94375.1
94353.1
94331
94308.9
94286.8
94264.7
94242.7
94220.6
94198.5
94176.4
94154.3
94132.3
94110.2
94088.1
94066
94043.9
94021.8
93999.8
93977.7
93955.6
93933.5
93911.4
93889.4
93867.3
93845.2
93823.1
93801
93779
93756.9
93734.8
93712.7
93690.7
93668.6
93646.5
93624.4
93602.4
93580.3
93558.2
93536.2
93514.1
93492
93470
93447.9
93425.8
93403.8
93381.7
93359.6
93337.6
93315.5
93293.5
93271.4
93249.4
93227.3
93205.3
93183.2
93161.2
93139.1
93117.1
93095
93073
93050.9
93028.9
93006.9
92984.8
92962.8
92940.8
92918.7
92896.7
92874.7
92852.6
92830.6
92808.6
92786.6
92764.6
92742.5
92720.5
92698.5
92676.5
92654.5
92632.5
92610.5
92588.5
92566.5
92544.5
92522.5
92500.5
92478.5
92456.5
92434.5
92412.5
92390.6
92368.6
92346.6
92324.6
92302.7
92280.7
92258.7
92236.8
92214.8
92192.8
92170.9
92148.9
92127
92105
92083.1
92061.1
92039.2
92017.2
91995.3
91973.4
91951.4
91929.5
91907.6
91885.6
91863.7
91841.8
91819.9
91798
91776
91754.1
91732.2
91710.3
91688.4
91666.5
91644.6
91622.7
91600.8
91579
91557.1
91535.2
91513.3
91491.4
91469.6
91447.7
91425.8
91404
91382.1
91360.2
91338.4
91316.5
91294.7
91272.8
91251
91229.1
91207.3
91185.5
91163.6
91141.8
91120
91098.2
91076.3
91054.5
91032.7
91010.9
90989.1
90967.3
90945.5
90923.7
90901.9
90880.1
90858.3
90836.5
90814.8
90793
90771.2
90749.4
90727.7
90705.9
90684.1
90662.4
90640.6
90618.9
90597.1
90575.4
90553.6
90531.9
90510.1
90488.4
90466.7
90445
90423.2
90401.5
90379.8
90358.1
90336.4
90314.7
90293
90271.3
90249.6
90227.9
90206.2
90184.5
90162.8
90141.1
90119.5
90097.8
90076.1
90054.4
90032.8
90011.1
89989.5
89967.8
89946.2
89924.5
89902.9
89881.2
89859.6
89838
89816.4
89794.7
89773.1
89751.5
89729.9
89708.3
89686.7
89665.1
89643.5
89621.9
89600.3
89578.7
89557.1
89535.5
89513.9
89492.4
89470.8
89449.2
89427.7
89406.1
89384.5
89363
89341.4
89319.9
89298.4
89276.8
89255.3
89233.8
89212.2
89190.7
89169.2
89147.7
89126.2
89104.6
89083.1
89061.6
89040.1
89018.6
88997.2
88975.7
88954.2
88932.7
88911.2
88889.8
88868.3
88846.8
88825.4
88803.9
88782.5
88761
88739.6
88718.1
88696.7
88675.2
88653.8
88632.4
88611
88589.5
88568.1
88546.7
88525.3
88503.9
88482.5
88461.1
88439.7
88418.3
88396.9
88375.6
88354.2
88332.8
88311.4
88290.1
88268.7
88247.3
88226
88204.6
88183.3
88161.9
88140.6
88119.3
88097.9
88076.6
88055.3
88034
88012.6
87991.3
87970
87948.7
87927.4
87906.1
87884.8
87863.5
87842.2
87821
87799.7
87778.4
87757.1
87735.9
87714.6
87693.3
87672.1
87650.8
87629.6
87608.3
87587.1
87565.9
87544.6
87523.4
87502.2
87481
87459.8
87438.5
87417.3
87396.1
87374.9
87353.7
87332.5
87311.3
87290.2
87269
87247.8
87226.6
87205.5
87184.3
87163.1
87142
87120.8
87099.7
87078.5
87057.4
87036.2
87015.1
86994
86972.9
86951.7
86930.6
86909.5
86888.4
86867.3
86846.2
86825.1
86804
86782.9
86761.8
86740.7
86719.7
86698.6
86677.5
86656.4
86635.4
86614.3
86593.3
86572.2
86551.2
86530.1
86509.1
86488.1
86467
86446
86425
86404
86382.9
86361.9
86340.9
86319.9
86298.9
86277.9
86256.9
86235.9
86215
86194
86173
86152
86131.1
86110.1
86089.1
86068.2
86047.2
86026.3
86005.3
85984.4
85963.5
85942.5
85921.6
85900.7
85879.8
85858.9
85837.9
85817
85796.1
85775.2
85754.3
85733.5
85712.6
85691.7
85670.8
85649.9
85629.1
85608.2
85587.3
85566.5
85545.6
85524.8
85503.9
85483.1
85462.2
85441.4
85420.6
85399.7
85378.9
85358.1
85337.3
85316.5
85295.7
85274.9
85254.1
85233.3
85212.5
85191.7
85170.9
85150.1
85129.4
85108.6
85087.8
85067.1
85046.3
85025.6
85004.8
84984.1
84963.3
84942.6
84921.9
84901.1
84880.4
84859.7
84839
84818.3
84797.5
84776.8
84756.1
84735.4
84714.7
84694.1
84673.4
84652.7
84632
84611.3
84590.7
84570
84549.4
84528.7
84508
84487.4
84466.8
84446.1
84425.5
84404.8
84384.2
84363.6
84343
84322.4
84301.7
84281.1
84260.5
84239.9
84219.3
84198.7
84178.2
84157.6
84137
84116.4
84095.9
84075.3
84054.7
84034.2
84013.6
83993.1
83972.5
83952
83931.4
83910.9
83890.4
83869.8
83849.3
83828.8
83808.3
83787.8
83767.3
83746.8
83726.3
83705.8
83685.3
83664.8
83644.3
83623.8
83603.4
83582.9
83562.4
83542
83521.5
83501.1
83480.6
83460.2
83439.7
83419.3
83398.9
83378.4
83358
83337.6
83317.2
83296.8
83276.4
83256
83235.6
83215.2
83194.8
83174.4
83154
83133.6
83113.2
83092.9
83072.5
83052.1
83031.8
83011.4
82991.1
82970.7
82950.4
82930
82909.7
82889.4
82869.1
82848.7
82828.4
82808.1
82787.8
82767.5
82747.2
82726.9
82706.6
82686.3
82666
82645.7
82625.5
82605.2
82584.9
82564.7
82544.4
82524.1
82503.9
82483.6
82463.4
82443.2
82422.9
82402.7
82382.5
82362.2
82342
82321.8
82301.6
82281.4
82261.2
82241
82220.8
82200.6
82180.4
82160.2
82140
82119.9
82099.7
82079.5
82059.4
82039.2
82019
81998.9
81978.7
81958.6
81938.5
81918.3
81898.2
81878.1
81858
81837.8
81817.7
81797.6
81777.5
81757.4
81737.3
81717.2
81697.1
81677
81657
81636.9
81616.8
81596.7
81576.7
81556.6
81536.6
81516.5
81496.5
81476.4
81456.4
81436.3
81416.3
81396.3
81376.2
81356.2
81336.2
81316.2
81296.2
81276.2
81256.2
81236.2
81216.2
81196.2
81176.2
81156.3
81136.3
81116.3
81096.3
81076.4
81056.4
81036.5
81016.5
80996.6
80976.6
80956.7
80936.7
80916.8
80896.9
80877
80857
80837.1
80817.2
80797.3
80777.4
80757.5
80737.6
80717.7
80697.9
80678
80658.1
80638.2
80618.3
80598.5
80578.6
80558.8
80538.9
80519.1
80499.2
80479.4
80459.5
80439.7
80419.9
80400.1
80380.2
80360.4
80340.6
80320.8
80301
80281.2
80261.4
80241.6
80221.8
80202
80182.3
80162.5
80142.7
80122.9
80103.2
80083.4
80063.7
80043.9
80024.2
80004.4
79984.7
79964.9
79945.2
79925.5
79905.8
79886
79866.3
79846.6
79826.9
79807.2
79787.5
79767.8
79748.1
79728.4
79708.8
79689.1
79669.4
79649.7
79630.1
79610.4
79590.7
79571.1
79551.4
79531.8
79512.2
79492.5
79472.9
79453.3
79433.6
79414
79394.4
79374.8
79355.2
79335.6
79316
79296.4
79276.8
79257.2
79237.6
79218
79198.4
79178.9
79159.3
79139.7
79120.2
79100.6
79081.1
79061.5
79042
79022.4
79002.9
78983.4
78963.8
78944.3
78924.8
78905.3
78885.7
78866.2
78846.7
78827.2
78807.7
78788.2
78768.8
78749.3
78729.8
78710.3
78690.8
78671.4
78651.9
78632.5
78613
78593.5
78574.1
78554.7
78535.2
78515.8
78496.3
78476.9
78457.5
78438.1
78418.7
78399.3
78379.8
78360.4
78341
78321.6
78302.3
78282.9
78263.5
78244.1
78224.7
78205.4
78186
78166.6
78147.3
78127.9
78108.6
78089.2
78069.9
78050.5
78031.2
78011.9
77992.5
77973.2
77953.9
77934.6
77915.3
77896
77876.7
77857.4
77838.1
77818.8
77799.5
77780.2
77760.9
77741.7
77722.4
77703.1
77683.9
77664.6
77645.3
77626.1
77606.8
77587.6
77568.4
77549.1
77529.9
77510.7
77491.5
77472.2
77453
77433.8
77414.6
77395.4
77376.2
77357
77337.8
77318.6
77299.4
77280.3
77261.1
77241.9
77222.8
77203.6
77184.4
77165.3
77146.1
77127
77107.8
77088.7
77069.6
77050.4
77031.3
77012.2
76993.1
76974
76954.8
76935.7
76916.6
76897.5
76878.4
76859.4
76840.3
76821.2
76802.1
76783
76764
76744.9
76725.8
76706.8
76687.7
76668.7
76649.6
76630.6
76611.5
76592.5
76573.5
76554.5
76535.4
76516.4
76497.4
76478.4
76459.4
76440.4
76421.4
76402.4
76383.4
76364.4
76345.4
76326.4
76307.5
76288.5
76269.5
76250.6
76231.6
76212.7
76193.7
76174.8
76155.8
76136.9
76117.9
76099
76080.1
76061.2
76042.2
76023.3
76004.4
75985.5
75966.6
75947.7
75928.8
75909.9
75891
75872.1
75853.3
75834.4
75815.5
75796.7
75777.8
75758.9
75740.1
75721.2
75702.4
75683.5
75664.7
75645.9
75627
75608.2
75589.4
75570.6
75551.7
75532.9
75514.1
75495.3
75476.5
75457.7
75438.9
75420.1
75401.4
75382.6
75363.8
75345
75326.3
75307.5
75288.7
75270
75251.2
75232.5
75213.7
75195
75176.2
75157.5
75138.8
75120.1
75101.3
75082.6
75063.9
75045.2
75026.5
75007.8
74989.1
74970.4
74951.7
74933
74914.3
74895.7
74877
74858.3
74839.7
74821
74802.3
74783.7
74765
74746.4
74727.7
74709.1
74690.5
74671.8
74653.2
74634.6
74616
74597.4
74578.8
74560.1
74541.5
74522.9
74504.3
74485.8
74467.2
74448.6
74430
74411.4
74392.9
74374.3
74355.7
74337.2
74318.6
74300.1
74281.5
74263
74244.4
74225.9
74207.4
74188.8
74170.3
74151.8
74133.3
74114.8
74096.2
74077.7
74059.2
74040.7
74022.3
74003.8
73985.3
73966.8
73948.3
73929.8
73911.4
73892.9
73874.4
73856
73837.5
73819.1
73800.6
73782.2
73763.8
73745.3
73726.9
73708.5
73690
73671.6
73653.2
73634.8
73616.4
73598
73579.6
73561.2
73542.8
73524.4
73506
73487.7
73469.3
73450.9
73432.5
73414.2
73395.8
73377.5
73359.1
73340.8
73322.4
73304.1
73285.7
73267.4
73249.1
73230.7
73212.4
73194.1
73175.8
73157.5
73139.2
73120.9
73102.6
73084.3
73066
73047.7
73029.4
73011.1
72992.9
72974.6
72956.3
72938.1
72919.8
72901.6
72883.3
72865.1
72846.8
72828.6
72810.3
72792.1
72773.9
72755.6
72737.4
72719.2
72701
72682.8
72664.6
72646.4
72628.2
72610
72591.8
72573.6
72555.4
72537.3
72519.1
72500.9
72482.7
72464.6
72446.4
72428.3
72410.1
72392
72373.8
72355.7
72337.6
72319.4
72301.3
72283.2
72265.1
72246.9
72228.8
72210.7
72192.6
72174.5
72156.4
72138.3
72120.2
72102.1
72084.1
72066
72047.9
72029.8
72011.8
71993.7
71975.7
71957.6
71939.6
71921.5
71903.5
71885.4
71867.4
71849.4
71831.3
71813.3
71795.3
71777.3
71759.3
71741.2
71723.2
71705.2
71687.2
71669.3
71651.3
71633.3
71615.3
71597.3
71579.3
71561.4
71543.4
71525.4
71507.5
71489.5
71471.6
71453.6
71435.7
71417.8
71399.8
71381.9
71364
71346
71328.1
71310.2
71292.3
71274.4
71256.5
71238.6
71220.7
71202.8
71184.9
71167
71149.1
71131.2
71113.4
71095.5
71077.6
71059.8
71041.9
71024.1
71006.2
70988.4
70970.5
70952.7
70934.8
70917
70899.2
70881.4
70863.5
70845.7
70827.9
70810.1
70792.3
70774.5
70756.7
70738.9
70721.1
70703.3
70685.5
70667.8
70650
70632.2
70614.4
70596.7
70578.9
70561.2
70543.4
70525.7
70507.9
70490.2
70472.4
70454.7
70437
70419.3
70401.5
70383.8
70366.1
70348.4
70330.7
70313
70295.3
70277.6
70259.9
70242.2
70224.5
70206.8
70189.2
70171.5
70153.8
70136.2
70118.5
70100.8
70083.2
70065.5
70047.9
70030.2
70012.6
69995
69977.3
69959.7
69942.1
69924.5
69906.9
69889.2
69871.6
69854
69836.4
69818.8
69801.2
69783.7
69766.1
69748.5
69730.9
69713.3
69695.8
69678.2
69660.6
69643.1
69625.5
69608
69590.4
69572.9
69555.3
69537.8
69520.3
69502.7
69485.2
69467.7
69450.2
69432.7
69415.1
69397.6
69380.1
69362.6
69345.1
69327.7
69310.2
69292.7
69275.2
69257.7
69240.2
69222.8
69205.3
69187.9
69170.4
69152.9
69135.5
69118
69100.6
69083.2
69065.7
69048.3
69030.9
69013.4
68996
68978.6
68961.2
68943.8
68926.4
68909
68891.6
68874.2
68856.8
68839.4
68822
68804.7
68787.3
68769.9
68752.5
68735.2
68717.8
68700.5
68683.1
68665.8
68648.4
68631.1
68613.7
68596.4
68579.1
68561.7
68544.4
68527.1
68509.8
68492.5
68475.2
68457.9
68440.6
68423.3
68406
68388.7
68371.4
68354.1
68336.8
68319.6
68302.3
68285
68267.8
68250.5
68233.2
68216
68198.7
68181.5
68164.3
68147
68129.8
68112.6
68095.3
68078.1
68060.9
68043.7
68026.5
68009.3
67992.1
67974.9
67957.7
67940.5
67923.3
67906.1
67888.9
67871.7
67854.6
67837.4
67820.2
67803.1
67785.9
67768.7
67751.6
67734.4
67717.3
67700.2
67683
67665.9
67648.8
67631.6
67614.5
67597.4
67580.3
67563.2
67546.1
67528.9
67511.8
67494.8
67477.7
67460.6
67443.5
67426.4
67409.3
67392.3
67375.2
67358.1
67341.1
67324
67306.9
67289.9
67272.8
67255.8
67238.8
67221.7
67204.7
67187.6
67170.6
67153.6
67136.6
67119.6
67102.6
67085.5
67068.5
67051.5
67034.5
67017.6
67000.6
66983.6
66966.6
66949.6
66932.6
66915.7
66898.7
66881.7
66864.8
66847.8
66830.9
66813.9
66797
66780
66763.1
66746.2
66729.2
66712.3
66695.4
66678.5
66661.5
66644.6
66627.7
66610.8
66593.9
66577
66560.1
66543.2
66526.3
66509.5
66492.6
66475.7
66458.8
66442
66425.1
66408.2
66391.4
66374.5
66357.7
66340.8
66324
66307.1
66290.3
66273.5
66256.7
66239.8
66223
66206.2
66189.4
66172.6
66155.8
66139
66122.2
66105.4
66088.6
66071.8
66055
66038.2
66021.4
66004.7
65987.9
65971.1
65954.4
65937.6
65920.8
65904.1
65887.3
65870.6
65853.9
65837.1
65820.4
65803.7
65786.9
65770.2
65753.5
65736.8
65720.1
65703.4
65686.7
65670
65653.3
65636.6
65619.9
65603.2
65586.5
65569.8
65553.1
65536.5
65519.8
65503.1
65486.5
65469.8
65453.2
65436.5
65419.9
65403.2
65386.6
65370
65353.3
65336.7
65320.1
65303.4
65286.8
65270.2
65253.6
65237
65220.4
65203.8
65187.2
65170.6
65154
65137.4
65120.8
65104.3
65087.7
65071.1
65054.6
65038
65021.4
65004.9
64988.3
64971.8
64955.2
64938.7
64922.1
64905.6
64889.1
64872.6
64856
64839.5
64823
64806.5
64790
64773.5
64757
64740.5
64724
64707.5
64691
64674.5
64658
64641.5
64625.1
64608.6
64592.1
64575.7
64559.2
64542.8
64526.3
64509.9
64493.4
64477
64460.5
64444.1
64427.7
64411.2
64394.8
64378.4
64362
64345.6
64329.2
64312.7
64296.3
64279.9
64263.6
64247.2
64230.8
64214.4
64198
64181.6
64165.3
64148.9
64132.5
64116.2
64099.8
64083.4
64067.1
64050.7
64034.4
64018.1
64001.7
63985.4
63969.1
63952.7
63936.4
63920.1
63903.8
63887.5
63871.1
63854.8
63838.5
63822.2
63805.9
63789.7
63773.4
63757.1
63740.8
63724.5
63708.2
63692
63675.7
63659.4
63643.2
63626.9
63610.7
63594.4
63578.2
63561.9
63545.7
63529.5
63513.2
63497
63480.8
63464.6
63448.3
63432.1
63415.9
63399.7
63383.5
63367.3
63351.1
63334.9
63318.7
63302.6
63286.4
63270.2
63254
63237.8
63221.7
63205.5
63189.4
63173.2
63157
63140.9
63124.7
63108.6
63092.5
63076.3
63060.2
63044.1
63027.9
63011.8
62995.7
62979.6
62963.5
62947.4
62931.3
62915.2
62899.1
62883
62866.9
62850.8
62834.7
62818.6
62802.6
62786.5
62770.4
62754.4
62738.3
62722.2
62706.2
62690.1
62674.1
62658
62642
62626
62609.9
62593.9
62577.9
62561.8
62545.8
62529.8
62513.8
62497.8
62481.8
62465.8
62449.8
62433.8
62417.8
62401.8
62385.8
62369.8
62353.9
62337.9
62321.9
62306
62290
62274
62258.1
62242.1
62226.2
62210.2
62194.3
62178.3
62162.4
62146.5
62130.5
62114.6
62098.7
62082.8
62066.9
62051
62035.1
62019.1
62003.2
61987.3
61971.5
61955.6
61939.7
61923.8
61907.9
61892
61876.2
61860.3
61844.4
61828.6
61812.7
61796.9
61781
61765.2
61749.3
61733.5
61717.6
61701.8
61686
61670.1
61654.3
61638.5
61622.7
61606.9
61591.1
61575.2
61559.4
61543.6
61527.8
61512.1
61496.3
61480.5
61464.7
61448.9
61433.1
61417.4
61401.6
61385.8
61370.1
61354.3
61338.6
61322.8
61307.1
61291.3
61275.6
61259.8
61244.1
61228.4
61212.6
61196.9
61181.2
61165.5
61149.8
61134.1
61118.4
61102.7
61087
61071.3
61055.6
61039.9
61024.2
61008.5
60992.8
60977.2
60961.5
60945.8
60930.2
60914.5
60898.8
60883.2
60867.5
60851.9
60836.2
60820.6
60805
60789.3
60773.7
60758.1
60742.4
60726.8
60711.2
60695.6
60680
60664.4
60648.8
60633.2
60617.6
60602
60586.4
60570.8
60555.2
60539.7
60524.1
60508.5
60492.9
60477.4
60461.8
60446.3
60430.7
60415.1
60399.6
60384.1
60368.5
60353
60337.4
60321.9
60306.4
60290.9
60275.3
60259.8
60244.3
60228.8
60213.3
60197.8
60182.3
60166.8
60151.3
60135.8
60120.3
60104.8
60089.4
60073.9
60058.4
60042.9
60027.5
60012
59996.5
59981.1
59965.6
59950.2
59934.7
59919.3
59903.9
59888.4
59873
59857.6
59842.1
59826.7
59811.3
59795.9
59780.5
59765.1
59749.7
59734.3
59718.9
59703.5
59688.1
59672.7
59657.3
59641.9
59626.5
59611.2
59595.8
59580.4
59565.1
59549.7
59534.4
59519
59503.7
59488.3
59473
59457.6
59442.3
59427
59411.6
59396.3
59381
59365.7
59350.3
59335
59319.7
59304.4
59289.1
59273.8
59258.5
59243.2
59227.9
59212.6
59197.4
59182.1
59166.8
59151.5
59136.3
59121
59105.7
59090.5
59075.2
59060
59044.7
59029.5
59014.2
58999
58983.8
58968.5
58953.3
58938.1
58922.8
58907.6
58892.4
58877.2
58862
58846.8
58831.6
58816.4
58801.2
58786
58770.8
58755.6
58740.4
58725.3
58710.1
58694.9
58679.8
58664.6
58649.4
58634.3
58619.1
58604
58588.8
58573.7
58558.5
58543.4
58528.3
58513.1
58498
58482.9
58467.8
58452.6
58437.5
58422.4
58407.3
58392.2
58377.1
58362
58346.9
58331.8
58316.7
58301.6
58286.6
58271.5
58256.4
58241.3
58226.3
58211.2
58196.1
58181.1
58166
58151
58135.9
58120.9
58105.8
58090.8
58075.8
58060.7
58045.7
58030.7
58015.7
58000.7
57985.6
57970.6
57955.6
57940.6
57925.6
57910.6
57895.6
57880.6
57865.6
57850.7
57835.7
57820.7
57805.7
57790.8
57775.8
57760.8
57745.9
57730.9
57716
57701
57686.1
57671.1
57656.2
57641.2
57626.3
57611.4
57596.4
57581.5
57566.6
57551.7
57536.8
57521.8
57506.9
57492
57477.1
57462.2
57447.3
57432.4
57417.6
57402.7
57387.8
57372.9
57358
57343.2
57328.3
57313.4
57298.6
57283.7
57268.9
57254
57239.2
57224.3
57209.5
57194.6
57179.8
57165
57150.1
57135.3
57120.5
57105.7
57090.9
57076
57061.2
57046.4
57031.6
57016.8
57002
56987.2
56972.4
56957.7
56942.9
56928.1
56913.3
56898.6
56883.8
56869
56854.3
56839.5
56824.7
56810
56795.2
56780.5
56765.7
56751
56736.3
56721.5
56706.8
56692.1
56677.4
56662.6
56647.9
56633.2
56618.5
56603.8
56589.1
56574.4
56559.7
56545
56530.3
56515.6
56500.9
56486.2
56471.6
56456.9
56442.2
56427.6
56412.9
56398.2
56383.6
56368.9
56354.3
56339.6
56325
56310.3
56295.7
56281.1
56266.4
56251.8
56237.2
56222.5
56207.9
56193.3
56178.7
56164.1
56149.5
56134.9
56120.3
56105.7
56091.1
56076.5
56061.9
56047.3
56032.8
56018.2
56003.6
55989
55974.5
55959.9
55945.3
55930.8
55916.2
55901.7
55887.1
55872.6
55858
55843.5
55829
55814.4
55799.9
55785.4
55770.9
55756.4
55741.8
55727.3
55712.8
55698.3
55683.8
55669.3
55654.8
55640.3
55625.8
55611.4
55596.9
55582.4
55567.9
55553.4
55539
55524.5
55510
55495.6
55481.1
55466.7
55452.2
55437.8
55423.3
55408.9
55394.5
55380
55365.6
55351.2
55336.7
55322.3
55307.9
55293.5
55279.1
55264.7
55250.3
55235.9
55221.5
55207.1
55192.7
55178.3
55163.9
55149.5
55135.1
55120.8
55106.4
55092
55077.6
55063.3
55048.9
55034.6
55020.2
55005.9
54991.5
54977.2
54962.8
54948.5
54934.2
54919.8
54905.5
54891.2
54876.9
54862.5
54848.2
54833.9
54819.6
54805.3
54791
54776.7
54762.4
54748.1
54733.8
54719.5
54705.2
54691
54676.7
54662.4
54648.1
54633.9
54619.6
54605.3
54591.1
54576.8
54562.6
54548.3
54534.1
54519.9
54505.6
54491.4
54477.1
54462.9
54448.7
54434.5
54420.2
54406
54391.8
54377.6
54363.4
54349.2
54335
54320.8
54306.6
54292.4
54278.2
54264
54249.9
54235.7
54221.5
54207.3
54193.2
54179
54164.8
54150.7
54136.5
54122.4
54108.2
54094.1
54079.9
54065.8
54051.7
54037.5
54023.4
54009.3
53995.1
53981
53966.9
53952.8
53938.7
53924.6
53910.5
53896.4
53882.3
53868.2
53854.1
53840
53825.9
53811.8
53797.7
53783.7
53769.6
53755.5
53741.5
53727.4
53713.3
53699.3
53685.2
53671.2
53657.1
53643.1
53629
53615
53601
53586.9
53572.9
53558.9
53544.9
53530.8
53516.8
53502.8
53488.8
53474.8
53460.8
53446.8
53432.8
53418.8
53404.8
53390.8
53376.8
53362.8
53348.9
53334.9
53320.9
53306.9
53293
53279
53265.1
53251.1
53237.1
53223.2
53209.2
53195.3
53181.4
53167.4
53153.5
53139.6
53125.6
53111.7
53097.8
53083.9
53069.9
53056
53042.1
53028.2
53014.3
53000.4
52986.5
52972.6
52958.7
52944.8
52931
52917.1
52903.2
52889.3
52875.4
52861.6
52847.7
52833.8
52820
52806.1
52792.3
52778.4
52764.6
52750.7
52736.9
52723.1
52709.2
52695.4
52681.6
52667.7
52653.9
52640.1
52626.3
52612.5
52598.7
52584.8
52571
52557.2
52543.4
52529.7
52515.9
52502.1
52488.3
52474.5
52460.7
52447
52433.2
52419.4
52405.6
52391.9
52378.1
52364.4
52350.6
52336.9
52323.1
52309.4
52295.6
52281.9
52268.1
52254.4
52240.7
52227
52213.2
52199.5
52185.8
52172.1
52158.4
52144.7
52131
52117.3
52103.6
52089.9
52076.2
52062.5
52048.8
52035.1
52021.4
52007.8
51994.1
51980.4
51966.8
51953.1
51939.4
51925.8
51912.1
51898.5
51884.8
51871.2
51857.5
51843.9
51830.2
51816.6
51803
51789.4
51775.7
51762.1
51748.5
51734.9
51721.3
51707.7
51694.1
51680.4
51666.8
51653.3
51639.7
51626.1
51612.5
51598.9
51585.3
51571.7
51558.2
51544.6
51531
51517.5
51503.9
51490.3
51476.8
51463.2
51449.7
51436.1
51422.6
51409
51395.5
51382
51368.4
51354.9
51341.4
51327.9
51314.3
51300.8
51287.3
51273.8
51260.3
51246.8
51233.3
51219.8
51206.3
51192.8
51179.3
51165.8
51152.3
51138.9
51125.4
51111.9
51098.4
51085
51071.5
51058
51044.6
51031.1
51017.7
51004.2
50990.8
50977.3
50963.9
50950.4
50937
50923.6
50910.2
50896.7
50883.3
50869.9
50856.5
50843.1
50829.6
50816.2
50802.8
50789.4
50776
50762.6
50749.3
50735.9
50722.5
50709.1
50695.7
50682.3
50669
50655.6
50642.2
50628.9
50615.5
50602.1
50588.8
50575.4
50562.1
50548.7
50535.4
50522.1
50508.7
50495.4
50482
50468.7
50455.4
50442.1
50428.8
50415.4
50402.1
50388.8
50375.5
50362.2
50348.9
50335.6
50322.3
50309
50295.7
50282.4
50269.2
50255.9
50242.6
50229.3
50216.1
50202.8
50189.5
50176.3
50163
50149.7
50136.5
50123.2
50110
50096.7
50083.5
50070.3
50057
50043.8
50030.6
50017.3
50004.1
49990.9
49977.7
49964.5
49951.3
49938.1
49924.9
49911.6
49898.5
49885.3
49872.1
49858.9
49845.7
49832.5
49819.3
49806.1
49793
49779.8
49766.6
49753.5
49740.3
49727.1
49714
49700.8
49687.7
49674.5
49661.4
49648.2
49635.1
49622
49608.8
49595.7
49582.6
49569.5
49556.3
49543.2
49530.1
49517
49503.9
49490.8
49477.7
49464.6
49451.5
49438.4
49425.3
49412.2
49399.1
49386
49372.9
49359.9
49346.8
49333.7
49320.7
49307.6
49294.5
49281.5
49268.4
49255.4
49242.3
49229.3
49216.2
49203.2
49190.1
49177.1
49164.1
49151.1
49138
49125
49112
49099
49086
49072.9
49059.9
49046.9
49033.9
49020.9
49007.9
48994.9
48981.9
48969
48956
48943
48930
48917
48904.1
48891.1
48878.1
48865.2
48852.2
48839.3
48826.3
48813.3
48800.4
48787.5
48774.5
48761.6
48748.6
48735.7
48722.8
48709.8
48696.9
48684
48671.1
48658.2
48645.2
48632.3
48619.4
48606.5
48593.6
48580.7
48567.8
48554.9
48542
48529.2
48516.3
48503.4
48490.5
48477.6
48464.8
48451.9
48439
48426.2
48413.3
48400.4
48387.6
48374.7
48361.9
48349
48336.2
48323.4
48310.5
48297.7
48284.9
48272
48259.2
48246.4
48233.6
48220.7
48207.9
48195.1
48182.3
48169.5
48156.7
48143.9
48131.1
48118.3
48105.5
48092.7
48080
48067.2
48054.4
48041.6
48028.8
48016.1
48003.3
47990.5
47977.8
47965
47952.3
47939.5
47926.8
47914
47901.3
47888.5
47875.8
47863.1
47850.3
47837.6
47824.9
47812.2
47799.4
47786.7
47774
47761.3
47748.6
47735.9
47723.2
47710.5
47697.8
47685.1
47672.4
47659.7
47647
47634.3
47621.7
47609
47596.3
47583.6
47571
47558.3
47545.6
47533
47520.3
47507.7
47495
47482.4
47469.7
47457.1
47444.5
47431.8
47419.2
47406.6
47393.9
47381.3
47368.7
47356.1
47343.5
47330.8
47318.2
47305.6
47293
47280.4
47267.8
47255.2
47242.6
47230
47217.5
47204.9
47192.3
47179.7
47167.1
47154.6
47142
47129.4
47116.9
47104.3
47091.7
47079.2
47066.6
47054.1
47041.5
47029
47016.5
47003.9
46991.4
46978.9
46966.3
46953.8
46941.3
46928.8
46916.2
46903.7
46891.2
46878.7
46866.2
46853.7
46841.2
46828.7
46816.2
46803.7
46791.2
46778.7
46766.3
46753.8
46741.3
46728.8
46716.3
46703.9
46691.4
46678.9
46666.5
46654
46641.6
46629.1
46616.7
46604.2
46591.8
46579.3
46566.9
46554.5
46542
46529.6
46517.2
46504.8
46492.3
46479.9
46467.5
46455.1
46442.7
46430.3
46417.9
46405.5
46393.1
46380.7
46368.3
46355.9
46343.5
46331.1
46318.8
46306.4
46294
46281.6
46269.3
46256.9
46244.5
46232.2
46219.8
46207.5
46195.1
46182.8
46170.4
46158.1
46145.7
46133.4
46121.1
46108.7
46096.4
46084.1
46071.8
46059.4
46047.1
46034.8
46022.5
46010.2
45997.9
45985.6
45973.3
45961
45948.7
45936.4
45924.1
45911.8
45899.5
45887.2
45875
45862.7
45850.4
45838.2
45825.9
45813.6
45801.4
45789.1
45776.8
45764.6
45752.3
45740.1
45727.9
45715.6
45703.4
45691.1
45678.9
45666.7
45654.4
45642.2
45630
45617.8
45605.6
45593.4
45581.1
45568.9
45556.7
45544.5
45532.3
45520.1
45507.9
45495.8
45483.6
45471.4
45459.2
45447
45434.8
45422.7
45410.5
45398.3
45386.2
45374
45361.8
45349.7
45337.5
45325.4
45313.2
45301.1
45288.9
45276.8
45264.7
45252.5
45240.4
45228.3
45216.1
45204
45191.9
45179.8
45167.7
45155.6
45143.5
45131.3
45119.2
45107.1
45095
45082.9
45070.9
45058.8
45046.7
45034.6
45022.5
45010.4
44998.4
44986.3
44974.2
44962.2
44950.1
44938
44926
44913.9
44901.9
44889.8
44877.8
44865.7
44853.7
44841.6
44829.6
44817.6
44805.5
44793.5
44781.5
44769.5
44757.4
44745.4
44733.4
44721.4
44709.4
44697.4
44685.4
44673.4
44661.4
44649.4
44637.4
44625.4
44613.4
44601.4
44589.5
44577.5
44565.5
44553.5
44541.6
44529.6
44517.6
44505.7
44493.7
44481.8
44469.8
44457.8
44445.9
44434
44422
44410.1
44398.1
44386.2
44374.3
44362.3
44350.4
44338.5
44326.6
44314.7
44302.7
44290.8
44278.9
44267
44255.1
44243.2
44231.3
44219.4
44207.5
44195.6
44183.8
44171.9
44160
44148.1
44136.2
44124.4
44112.5
44100.6
44088.8
44076.9
44065
44053.2
44041.3
44029.5
44017.6
44005.8
43993.9
43982.1
43970.3
43958.4
43946.6
43934.8
43922.9
43911.1
43899.3
43887.5
43875.7
43863.9
43852
43840.2
43828.4
43816.6
43804.8
43793
43781.2
43769.5
43757.7
43745.9
43734.1
43722.3
43710.5
43698.8
43687
43675.2
43663.5
43651.7
43639.9
43628.2
43616.4
43604.7
43592.9
43581.2
43569.4
43557.7
43546
43534.2
43522.5
43510.8
43499
43487.3
43475.6
43463.9
43452.2
43440.4
43428.7
43417
43405.3
43393.6
43381.9
43370.2
43358.5
43346.8
43335.1
43323.5
43311.8
43300.1
43288.4
43276.7
43265.1
43253.4
43241.7
43230.1
43218.4
43206.7
43195.1
43183.4
43171.8
43160.1
43148.5
43136.8
43125.2
43113.6
43101.9
43090.3
43078.7
43067
43055.4
43043.8
43032.2
43020.6
43008.9
42997.3
42985.7
42974.1
42962.5
42950.9
42939.3
42927.7
42916.1
42904.6
42893
42881.4
42869.8
42858.2
42846.7
42835.1
42823.5
42811.9
42800.4
42788.8
42777.3
42765.7
42754.1
42742.6
42731
42719.5
42708
42696.4
42684.9
42673.3
42661.8
42650.3
42638.8
42627.2
42615.7
42604.2
42592.7
42581.2
42569.7
42558.2
42546.6
42535.1
42523.6
42512.1
42500.7
42489.2
42477.7
42466.2
42454.7
42443.2
42431.7
42420.3
42408.8
42397.3
42385.9
42374.4
42362.9
42351.5
42340
42328.6
42317.1
42305.7
42294.2
42282.8
42271.3
42259.9
42248.5
42237
42225.6
42214.2
42202.7
42191.3
42179.9
42168.5
42157.1
42145.7
42134.3
42122.9
42111.5
42100
42088.7
42077.3
42065.9
42054.5
42043.1
42031.7
42020.3
42008.9
41997.6
41986.2
41974.8
41963.5
41952.1
41940.7
41929.4
41918
41906.7
41895.3
41884
41872.6
41861.3
41849.9
41838.6
41827.2
41815.9
41804.6
41793.3
41781.9
41770.6
41759.3
41748
41736.7
41725.3
41714
41702.7
41691.4
41680.1
41668.8
41657.5
41646.2
41634.9
41623.7
41612.4
41601.1
41589.8
41578.5
41567.2
41556
41544.7
41533.4
41522.2
41510.9
41499.7
41488.4
41477.1
41465.9
41454.6
41443.4
41432.2
41420.9
41409.7
41398.4
41387.2
41376
41364.8
41353.5
41342.3
41331.1
41319.9
41308.7
41297.4
41286.2
41275
41263.8
41252.6
41241.4
41230.2
41219
41207.8
41196.7
41185.5
41174.3
41163.1
41151.9
41140.8
41129.6
41118.4
41107.3
41096.1
41084.9
41073.8
41062.6
41051.5
41040.3
41029.2
41018
41006.9
40995.7
40984.6
40973.5
40962.3
40951.2
40940.1
40929
40917.8
40906.7
40895.6
40884.5
40873.4
40862.3
40851.2
40840
40828.9
40817.9
40806.8
40795.7
40784.6
40773.5
40762.4
40751.3
40740.2
40729.2
40718.1
40707
40695.9
40684.9
40673.8
40662.8
40651.7
40640.6
40629.6
40618.5
40607.5
40596.4
40585.4
40574.4
40563.3
40552.3
40541.3
40530.2
40519.2
40508.2
40497.1
40486.1
40475.1
40464.1
40453.1
40442.1
40431.1
40420.1
40409.1
40398.1
40387.1
40376.1
40365.1
40354.1
40343.1
40332.1
40321.1
40310.2
40299.2
40288.2
40277.3
40266.3
40255.3
40244.4
40233.4
40222.4
40211.5
40200.5
40189.6
40178.6
40167.7
40156.8
40145.8
40134.9
40123.9
40113
40102.1
40091.2
40080.2
40069.3
40058.4
40047.5
40036.6
40025.7
40014.8
40003.9
39993
39982.1
39971.2
39960.3
39949.4
39938.5
39927.6
39916.7
39905.8
39894.9
39884.1
39873.2
39862.3
39851.5
39840.6
39829.7
39818.9
39808
39797.2
39786.3
39775.5
39764.6
39753.8
39742.9
39732.1
39721.2
39710.4
39699.6
39688.7
39677.9
39667.1
39656.3
39645.4
39634.6
39623.8
39613
39602.2
39591.4
39580.6
39569.8