/*--------------------------------*- C++ -*----------------------------------*\
  =========                 |
  \\      /  F ield         | OpenFOAM: The Open Source CFD Toolbox
   \\    /   O peration     | Website:  https://openfoam.org
    \\  /    A nd           | Version:  9
     \\/     M anipulation  |
\*---------------------------------------------------------------------------*/
FoamFile
{
    format      ascii;
    class       volScalarField;
    location    "0.013";
    object      rho;
}
// * * * * * * * * * * * * * * * * * * * * * * * * * * * * * * * * * * * * * //

dimensions      [1 -3 0 0 0 0 0];

internalField   nonuniform List<scalar> 
10000
(
0.997506
0.997505
0.997504
0.997503
0.997502
0.9975
0.997498
0.997495
0.997493
0.99749
0.997486
0.997483
0.997479
0.997475
0.99747
0.997465
0.99746
0.997454
0.997448
0.997442
0.997435
0.997428
0.99742
0.997412
0.997404
0.997395
0.997385
0.997376
0.997365
0.997354
0.997343
0.997331
0.997318
0.997305
0.997292
0.997277
0.997263
0.997247
0.997231
0.997214
0.997197
0.997179
0.99716
0.99714
0.99712
0.997099
0.997077
0.997054
0.997031
0.997007
0.996981
0.996956
0.996929
0.996901
0.996872
0.996843
0.996812
0.996781
0.996749
0.996716
0.996681
0.996646
0.99661
0.996572
0.996534
0.996495
0.996454
0.996413
0.996371
0.996327
0.996282
0.996237
0.99619
0.996142
0.996093
0.996042
0.995991
0.995939
0.995885
0.99583
0.995775
0.995718
0.995659
0.9956
0.99554
0.995478
0.995415
0.995351
0.995286
0.99522
0.995153
0.995084
0.995015
0.994944
0.994872
0.994799
0.994725
0.99465
0.994573
0.994496
0.994417
0.994337
0.994256
0.994174
0.994091
0.994007
0.993922
0.993836
0.993749
0.99366
0.993571
0.993481
0.993389
0.993297
0.993203
0.993109
0.993014
0.992917
0.99282
0.992722
0.992622
0.992522
0.992421
0.992319
0.992216
0.992113
0.992008
0.991902
0.991796
0.991689
0.991581
0.991472
0.991362
0.991252
0.99114
0.991028
0.990915
0.990802
0.990687
0.990572
0.990456
0.99034
0.990222
0.990104
0.989985
0.989866
0.989746
0.989625
0.989504
0.989382
0.989259
0.989136
0.989012
0.988888
0.988762
0.988637
0.988511
0.988384
0.988256
0.988128
0.988
0.987871
0.987741
0.987611
0.987481
0.98735
0.987218
0.987086
0.986954
0.986821
0.986687
0.986553
0.986419
0.986284
0.986149
0.986013
0.985877
0.985741
0.985604
0.985466
0.985329
0.985191
0.985052
0.984913
0.984774
0.984635
0.984495
0.984355
0.984214
0.984073
0.983932
0.98379
0.983648
0.983506
0.983364
0.983221
0.983078
0.982934
0.982791
0.982647
0.982502
0.982358
0.982213
0.982068
0.981923
0.981777
0.981631
0.981485
0.981339
0.981192
0.981045
0.980898
0.980751
0.980603
0.980456
0.980308
0.98016
0.980011
0.979863
0.979714
0.979565
0.979416
0.979266
0.979117
0.978967
0.978817
0.978667
0.978517
0.978366
0.978216
0.978065
0.977914
0.977763
0.977611
0.97746
0.977308
0.977156
0.977005
0.976852
0.9767
0.976548
0.976395
0.976243
0.97609
0.975937
0.975784
0.975631
0.975477
0.975324
0.97517
0.975017
0.974863
0.974709
0.974555
0.974401
0.974247
0.974092
0.973938
0.973783
0.973628
0.973474
0.973319
0.973164
0.973009
0.972853
0.972698
0.972543
0.972387
0.972232
0.972076
0.97192
0.971764
0.971609
0.971453
0.971296
0.97114
0.970984
0.970828
0.970671
0.970515
0.970358
0.970202
0.970045
0.969888
0.969731
0.969574
0.969417
0.96926
0.969103
0.968946
0.968789
0.968631
0.968474
0.968317
0.968159
0.968002
0.967844
0.967686
0.967529
0.967371
0.967213
0.967055
0.966897
0.966739
0.966581
0.966423
0.966265
0.966107
0.965949
0.96579
0.965632
0.965474
0.965315
0.965157
0.964998
0.96484
0.964681
0.964523
0.964364
0.964205
0.964047
0.963888
0.963729
0.96357
0.963411
0.963252
0.963093
0.962934
0.962775
0.962616
0.962457
0.962298
0.962139
0.96198
0.961821
0.961662
0.961502
0.961343
0.961184
0.961024
0.960865
0.960706
0.960546
0.960387
0.960227
0.960068
0.959908
0.959749
0.959589
0.95943
0.95927
0.959111
0.958951
0.958791
0.958632
0.958472
0.958312
0.958153
0.957993
0.957833
0.957673
0.957514
0.957354
0.957194
0.957034
0.956874
0.956714
0.956554
0.956395
0.956235
0.956075
0.955915
0.955755
0.955595
0.955435
0.955275
0.955115
0.954955
0.954795
0.954635
0.954475
0.954315
0.954155
0.953995
0.953835
0.953675
0.953515
0.953354
0.953194
0.953034
0.952874
0.952714
0.952554
0.952394
0.952234
0.952074
0.951913
0.951753
0.951593
0.951433
0.951273
0.951113
0.950952
0.950792
0.950632
0.950472
0.950312
0.950152
0.949991
0.949831
0.949671
0.949511
0.949351
0.94919
0.94903
0.94887
0.94871
0.94855
0.948389
0.948229
0.948069
0.947909
0.947749
0.947588
0.947428
0.947268
0.947108
0.946948
0.946787
0.946627
0.946467
0.946307
0.946147
0.945986
0.945826
0.945666
0.945506
0.945346
0.945186
0.945025
0.944865
0.944705
0.944545
0.944385
0.944225
0.944065
0.943904
0.943744
0.943584
0.943424
0.943264
0.943104
0.942944
0.942784
0.942624
0.942463
0.942303
0.942143
0.941983
0.941823
0.941663
0.941503
0.941343
0.941183
0.941023
0.940863
0.940703
0.940543
0.940383
0.940223
0.940063
0.939903
0.939743
0.939583
0.939423
0.939263
0.939103
0.938943
0.938783
0.938623
0.938463
0.938304
0.938144
0.937984
0.937824
0.937664
0.937504
0.937344
0.937185
0.937025
0.936865
0.936705
0.936545
0.936386
0.936226
0.936066
0.935906
0.935747
0.935587
0.935427
0.935267
0.935108
0.934948
0.934788
0.934629
0.934469
0.934309
0.93415
0.93399
0.93383
0.933671
0.933511
0.933352
0.933192
0.933033
0.932873
0.932713
0.932554
0.932394
0.932235
0.932075
0.931916
0.931757
0.931597
0.931438
0.931278
0.931119
0.930959
0.9308
0.930641
0.930481
0.930322
0.930163
0.930003
0.929844
0.929685
0.929525
0.929366
0.929207
0.929048
0.928888
0.928729
0.92857
0.928411
0.928252
0.928092
0.927933
0.927774
0.927615
0.927456
0.927297
0.927138
0.926979
0.92682
0.926661
0.926502
0.926343
0.926184
0.926025
0.925866
0.925707
0.925548
0.925389
0.92523
0.925071
0.924912
0.924753
0.924594
0.924436
0.924277
0.924118
0.923959
0.9238
0.923642
0.923483
0.923324
0.923165
0.923007
0.922848
0.922689
0.922531
0.922372
0.922213
0.922055
0.921896
0.921738
0.921579
0.92142
0.921262
0.921103
0.920945
0.920786
0.920628
0.920469
0.920311
0.920153
0.919994
0.919836
0.919677
0.919519
0.919361
0.919202
0.919044
0.918886
0.918727
0.918569
0.918411
0.918253
0.918094
0.917936
0.917778
0.91762
0.917462
0.917304
0.917145
0.916987
0.916829
0.916671
0.916513
0.916355
0.916197
0.916039
0.915881
0.915723
0.915565
0.915407
0.915249
0.915091
0.914934
0.914776
0.914618
0.91446
0.914302
0.914144
0.913987
0.913829
0.913671
0.913513
0.913356
0.913198
0.91304
0.912883
0.912725
0.912567
0.91241
0.912252
0.912094
0.911937
0.911779
0.911622
0.911464
0.911307
0.911149
0.910992
0.910834
0.910677
0.91052
0.910362
0.910205
0.910047
0.90989
0.909733
0.909575
0.909418
0.909261
0.909104
0.908946
0.908789
0.908632
0.908475
0.908318
0.908161
0.908003
0.907846
0.907689
0.907532
0.907375
0.907218
0.907061
0.906904
0.906747
0.90659
0.906433
0.906276
0.906119
0.905962
0.905806
0.905649
0.905492
0.905335
0.905178
0.905021
0.904865
0.904708
0.904551
0.904394
0.904238
0.904081
0.903924
0.903768
0.903611
0.903455
0.903298
0.903141
0.902985
0.902828
0.902672
0.902515
0.902359
0.902202
0.902046
0.90189
0.901733
0.901577
0.90142
0.901264
0.901108
0.900951
0.900795
0.900639
0.900483
0.900326
0.90017
0.900014
0.899858
0.899702
0.899546
0.899389
0.899233
0.899077
0.898921
0.898765
0.898609
0.898453
0.898297
0.898141
0.897985
0.897829
0.897673
0.897517
0.897362
0.897206
0.89705
0.896894
0.896738
0.896582
0.896427
0.896271
0.896115
0.895959
0.895804
0.895648
0.895492
0.895337
0.895181
0.895026
0.89487
0.894715
0.894559
0.894403
0.894248
0.894092
0.893937
0.893782
0.893626
0.893471
0.893315
0.89316
0.893005
0.892849
0.892694
0.892539
0.892383
0.892228
0.892073
0.891918
0.891763
0.891607
0.891452
0.891297
0.891142
0.890987
0.890832
0.890677
0.890522
0.890367
0.890212
0.890057
0.889902
0.889747
0.889592
0.889437
0.889282
0.889127
0.888972
0.888818
0.888663
0.888508
0.888353
0.888198
0.888044
0.887889
0.887734
0.88758
0.887425
0.88727
0.887116
0.886961
0.886807
0.886652
0.886498
0.886343
0.886189
0.886034
0.88588
0.885725
0.885571
0.885416
0.885262
0.885108
0.884953
0.884799
0.884645
0.88449
0.884336
0.884182
0.884028
0.883873
0.883719
0.883565
0.883411
0.883257
0.883103
0.882949
0.882795
0.882641
0.882486
0.882332
0.882179
0.882025
0.881871
0.881717
0.881563
0.881409
0.881255
0.881101
0.880947
0.880794
0.88064
0.880486
0.880332
0.880178
0.880025
0.879871
0.879717
0.879564
0.87941
0.879257
0.879103
0.878949
0.878796
0.878642
0.878489
0.878335
0.878182
0.878028
0.877875
0.877721
0.877568
0.877415
0.877261
0.877108
0.876955
0.876801
0.876648
0.876495
0.876342
0.876188
0.876035
0.875882
0.875729
0.875576
0.875423
0.87527
0.875116
0.874963
0.87481
0.874657
0.874504
0.874351
0.874198
0.874045
0.873893
0.87374
0.873587
0.873434
0.873281
0.873128
0.872975
0.872823
0.87267
0.872517
0.872364
0.872212
0.872059
0.871906
0.871754
0.871601
0.871449
0.871296
0.871143
0.870991
0.870838
0.870686
0.870533
0.870381
0.870229
0.870076
0.869924
0.869771
0.869619
0.869467
0.869314
0.869162
0.86901
0.868857
0.868705
0.868553
0.868401
0.868249
0.868096
0.867944
0.867792
0.86764
0.867488
0.867336
0.867184
0.867032
0.86688
0.866728
0.866576
0.866424
0.866272
0.86612
0.865968
0.865817
0.865665
0.865513
0.865361
0.865209
0.865058
0.864906
0.864754
0.864602
0.864451
0.864299
0.864147
0.863996
0.863844
0.863693
0.863541
0.86339
0.863238
0.863087
0.862935
0.862784
0.862632
0.862481
0.862329
0.862178
0.862027
0.861875
0.861724
0.861573
0.861421
0.86127
0.861119
0.860968
0.860817
0.860665
0.860514
0.860363
0.860212
0.860061
0.85991
0.859759
0.859608
0.859457
0.859306
0.859155
0.859004
0.858853
0.858702
0.858551
0.8584
0.858249
0.858098
0.857948
0.857797
0.857646
0.857495
0.857345
0.857194
0.857043
0.856893
0.856742
0.856591
0.856441
0.85629
0.85614
0.855989
0.855838
0.855688
0.855537
0.855387
0.855237
0.855086
0.854936
0.854785
0.854635
0.854485
0.854334
0.854184
0.854034
0.853883
0.853733
0.853583
0.853433
0.853283
0.853132
0.852982
0.852832
0.852682
0.852532
0.852382
0.852232
0.852082
0.851932
0.851782
0.851632
0.851482
0.851332
0.851182
0.851032
0.850882
0.850733
0.850583
0.850433
0.850283
0.850133
0.849984
0.849834
0.849684
0.849535
0.849385
0.849235
0.849086
0.848936
0.848786
0.848637
0.848487
0.848338
0.848188
0.848039
0.847889
0.84774
0.847591
0.847441
0.847292
0.847142
0.846993
0.846844
0.846695
0.846545
0.846396
0.846247
0.846098
0.845948
0.845799
0.84565
0.845501
0.845352
0.845203
0.845054
0.844905
0.844756
0.844607
0.844458
0.844309
0.84416
0.844011
0.843862
0.843713
0.843564
0.843415
0.843266
0.843118
0.842969
0.84282
0.842671
0.842523
0.842374
0.842225
0.842076
0.841928
0.841779
0.841631
0.841482
0.841333
0.841185
0.841036
0.840888
0.840739
0.840591
0.840443
0.840294
0.840146
0.839997
0.839849
0.839701
0.839552
0.839404
0.839256
0.839107
0.838959
0.838811
0.838663
0.838515
0.838366
0.838218
0.83807
0.837922
0.837774
0.837626
0.837478
0.83733
0.837182
0.837034
0.836886
0.836738
0.83659
0.836442
0.836294
0.836147
0.835999
0.835851
0.835703
0.835555
0.835408
0.83526
0.835112
0.834964
0.834817
0.834669
0.834521
0.834374
0.834226
0.834079
0.833931
0.833784
0.833636
0.833489
0.833341
0.833194
0.833046
0.832899
0.832751
0.832604
0.832457
0.832309
0.832162
0.832015
0.831868
0.83172
0.831573
0.831426
0.831279
0.831132
0.830984
0.830837
0.83069
0.830543
0.830396
0.830249
0.830102
0.829955
0.829808
0.829661
0.829514
0.829367
0.82922
0.829073
0.828927
0.82878
0.828633
0.828486
0.828339
0.828192
0.828046
0.827899
0.827752
0.827606
0.827459
0.827312
0.827166
0.827019
0.826873
0.826726
0.826579
0.826433
0.826286
0.82614
0.825994
0.825847
0.825701
0.825554
0.825408
0.825262
0.825115
0.824969
0.824823
0.824676
0.82453
0.824384
0.824238
0.824091
0.823945
0.823799
0.823653
0.823507
0.823361
0.823215
0.823069
0.822923
0.822777
0.822631
0.822485
0.822339
0.822193
0.822047
0.821901
0.821755
0.821609
0.821463
0.821318
0.821172
0.821026
0.82088
0.820735
0.820589
0.820443
0.820298
0.820152
0.820006
0.819861
0.819715
0.81957
0.819424
0.819278
0.819133
0.818987
0.818842
0.818697
0.818551
0.818406
0.81826
0.818115
0.81797
0.817824
0.817679
0.817534
0.817388
0.817243
0.817098
0.816953
0.816808
0.816662
0.816517
0.816372
0.816227
0.816082
0.815937
0.815792
0.815647
0.815502
0.815357
0.815212
0.815067
0.814922
0.814777
0.814632
0.814487
0.814343
0.814198
0.814053
0.813908
0.813763
0.813619
0.813474
0.813329
0.813185
0.81304
0.812895
0.812751
0.812606
0.812462
0.812317
0.812172
0.812028
0.811883
0.811739
0.811594
0.81145
0.811306
0.811161
0.811017
0.810873
0.810728
0.810584
0.81044
0.810295
0.810151
0.810007
0.809863
0.809718
0.809574
0.80943
0.809286
0.809142
0.808998
0.808854
0.80871
0.808566
0.808422
0.808278
0.808134
0.80799
0.807846
0.807702
0.807558
0.807414
0.80727
0.807126
0.806983
0.806839
0.806695
0.806551
0.806408
0.806264
0.80612
0.805976
0.805833
0.805689
0.805546
0.805402
0.805258
0.805115
0.804971
0.804828
0.804684
0.804541
0.804397
0.804254
0.804111
0.803967
0.803824
0.80368
0.803537
0.803394
0.803251
0.803107
0.802964
0.802821
0.802678
0.802534
0.802391
0.802248
0.802105
0.801962
0.801819
0.801676
0.801533
0.80139
0.801247
0.801104
0.800961
0.800818
0.800675
0.800532
0.800389
0.800246
0.800103
0.799961
0.799818
0.799675
0.799532
0.799389
0.799247
0.799104
0.798961
0.798819
0.798676
0.798533
0.798391
0.798248
0.798106
0.797963
0.797821
0.797678
0.797536
0.797393
0.797251
0.797108
0.796966
0.796823
0.796681
0.796539
0.796396
0.796254
0.796112
0.79597
0.795827
0.795685
0.795543
0.795401
0.795259
0.795116
0.794974
0.794832
0.79469
0.794548
0.794406
0.794264
0.794122
0.79398
0.793838
0.793696
0.793554
0.793412
0.79327
0.793128
0.792987
0.792845
0.792703
0.792561
0.792419
0.792278
0.792136
0.791994
0.791853
0.791711
0.791569
0.791428
0.791286
0.791144
0.791003
0.790861
0.79072
0.790578
0.790437
0.790295
0.790154
0.790013
0.789871
0.78973
0.789588
0.789447
0.789306
0.789164
0.789023
0.788882
0.788741
0.788599
0.788458
0.788317
0.788176
0.788035
0.787894
0.787752
0.787611
0.78747
0.787329
0.787188
0.787047
0.786906
0.786765
0.786624
0.786483
0.786343
0.786202
0.786061
0.78592
0.785779
0.785638
0.785498
0.785357
0.785216
0.785075
0.784935
0.784794
0.784653
0.784513
0.784372
0.784231
0.784091
0.78395
0.78381
0.783669
0.783529
0.783388
0.783248
0.783107
0.782967
0.782826
0.782686
0.782546
0.782405
0.782265
0.782125
0.781984
0.781844
0.781704
0.781564
0.781423
0.781283
0.781143
0.781003
0.780863
0.780723
0.780583
0.780443
0.780303
0.780162
0.780022
0.779882
0.779743
0.779603
0.779463
0.779323
0.779183
0.779043
0.778903
0.778763
0.778623
0.778484
0.778344
0.778204
0.778064
0.777925
0.777785
0.777645
0.777506
0.777366
0.777226
0.777087
0.776947
0.776808
0.776668
0.776529
0.776389
0.77625
0.77611
0.775971
0.775831
0.775692
0.775553
0.775413
0.775274
0.775135
0.774995
0.774856
0.774717
0.774578
0.774438
0.774299
0.77416
0.774021
0.773882
0.773743
0.773604
0.773464
0.773325
0.773186
0.773047
0.772908
0.772769
0.77263
0.772491
0.772353
0.772214
0.772075
0.771936
0.771797
0.771658
0.771519
0.771381
0.771242
0.771103
0.770964
0.770826
0.770687
0.770548
0.77041
0.770271
0.770133
0.769994
0.769855
0.769717
0.769578
0.76944
0.769301
0.769163
0.769024
0.768886
0.768748
0.768609
0.768471
0.768333
0.768194
0.768056
0.767918
0.767779
0.767641
0.767503
0.767365
0.767227
0.767088
0.76695
0.766812
0.766674
0.766536
0.766398
0.76626
0.766122
0.765984
0.765846
0.765708
0.76557
0.765432
0.765294
0.765156
0.765018
0.76488
0.764743
0.764605
0.764467
0.764329
0.764191
0.764054
0.763916
0.763778
0.763641
0.763503
0.763365
0.763228
0.76309
0.762953
0.762815
0.762677
0.76254
0.762402
0.762265
0.762127
0.76199
0.761853
0.761715
0.761578
0.76144
0.761303
0.761166
0.761029
0.760891
0.760754
0.760617
0.76048
0.760342
0.760205
0.760068
0.759931
0.759794
0.759657
0.75952
0.759382
0.759245
0.759108
0.758971
0.758834
0.758697
0.75856
0.758424
0.758287
0.75815
0.758013
0.757876
0.757739
0.757602
0.757466
0.757329
0.757192
0.757055
0.756919
0.756782
0.756645
0.756509
0.756372
0.756235
0.756099
0.755962
0.755826
0.755689
0.755553
0.755416
0.75528
0.755143
0.755007
0.75487
0.754734
0.754598
0.754461
0.754325
0.754189
0.754052
0.753916
0.75378
0.753643
0.753507
0.753371
0.753235
0.753099
0.752963
0.752826
0.75269
0.752554
0.752418
0.752282
0.752146
0.75201
0.751874
0.751738
0.751602
0.751466
0.75133
0.751194
0.751059
0.750923
0.750787
0.750651
0.750515
0.75038
0.750244
0.750108
0.749972
0.749837
0.749701
0.749565
0.74943
0.749294
0.749158
0.749023
0.748887
0.748752
0.748616
0.748481
0.748345
0.74821
0.748074
0.747939
0.747804
0.747668
0.747533
0.747397
0.747262
0.747127
0.746992
0.746856
0.746721
0.746586
0.746451
0.746315
0.74618
0.746045
0.74591
0.745775
0.74564
0.745505
0.74537
0.745235
0.7451
0.744965
0.74483
0.744695
0.74456
0.744425
0.74429
0.744155
0.74402
0.743885
0.743751
0.743616
0.743481
0.743346
0.743211
0.743077
0.742942
0.742807
0.742673
0.742538
0.742403
0.742269
0.742134
0.742
0.741865
0.741731
0.741596
0.741462
0.741327
0.741193
0.741058
0.740924
0.740789
0.740655
0.740521
0.740386
0.740252
0.740118
0.739983
0.739849
0.739715
0.739581
0.739447
0.739312
0.739178
0.739044
0.73891
0.738776
0.738642
0.738508
0.738374
0.73824
0.738106
0.737972
0.737838
0.737704
0.73757
0.737436
0.737302
0.737168
0.737034
0.736901
0.736767
0.736633
0.736499
0.736365
0.736232
0.736098
0.735964
0.735831
0.735697
0.735563
0.73543
0.735296
0.735162
0.735029
0.734895
0.734762
0.734628
0.734495
0.734361
0.734228
0.734095
0.733961
0.733828
0.733694
0.733561
0.733428
0.733294
0.733161
0.733028
0.732895
0.732761
0.732628
0.732495
0.732362
0.732229
0.732095
0.731962
0.731829
0.731696
0.731563
0.73143
0.731297
0.731164
0.731031
0.730898
0.730765
0.730632
0.730499
0.730366
0.730234
0.730101
0.729968
0.729835
0.729702
0.72957
0.729437
0.729304
0.729171
0.729039
0.728906
0.728773
0.728641
0.728508
0.728376
0.728243
0.72811
0.727978
0.727845
0.727713
0.72758
0.727448
0.727315
0.727183
0.727051
0.726918
0.726786
0.726654
0.726521
0.726389
0.726257
0.726124
0.725992
0.72586
0.725728
0.725595
0.725463
0.725331
0.725199
0.725067
0.724935
0.724803
0.724671
0.724539
0.724407
0.724275
0.724143
0.724011
0.723879
0.723747
0.723615
0.723483
0.723351
0.723219
0.723087
0.722956
0.722824
0.722692
0.72256
0.722429
0.722297
0.722165
0.722034
0.721902
0.72177
0.721639
0.721507
0.721375
0.721244
0.721112
0.720981
0.720849
0.720718
0.720586
0.720455
0.720323
0.720192
0.720061
0.719929
0.719798
0.719667
0.719535
0.719404
0.719273
0.719141
0.71901
0.718879
0.718748
0.718617
0.718485
0.718354
0.718223
0.718092
0.717961
0.71783
0.717699
0.717568
0.717437
0.717306
0.717175
0.717044
0.716913
0.716782
0.716651
0.71652
0.71639
0.716259
0.716128
0.715997
0.715866
0.715736
0.715605
0.715474
0.715343
0.715213
0.715082
0.714951
0.714821
0.71469
0.71456
0.714429
0.714298
0.714168
0.714037
0.713907
0.713776
0.713646
0.713516
0.713385
0.713255
0.713124
0.712994
0.712864
0.712733
0.712603
0.712473
0.712342
0.712212
0.712082
0.711952
0.711822
0.711691
0.711561
0.711431
0.711301
0.711171
0.711041
0.710911
0.710781
0.710651
0.710521
0.710391
0.710261
0.710131
0.710001
0.709871
0.709741
0.709611
0.709481
0.709352
0.709222
0.709092
0.708962
0.708833
0.708703
0.708573
0.708443
0.708314
0.708184
0.708054
0.707925
0.707795
0.707666
0.707536
0.707406
0.707277
0.707147
0.707018
0.706889
0.706759
0.70663
0.7065
0.706371
0.706241
0.706112
0.705983
0.705853
0.705724
0.705595
0.705466
0.705336
0.705207
0.705078
0.704949
0.70482
0.70469
0.704561
0.704432
0.704303
0.704174
0.704045
0.703916
0.703787
0.703658
0.703529
0.7034
0.703271
0.703142
0.703013
0.702884
0.702755
0.702627
0.702498
0.702369
0.70224
0.702111
0.701983
0.701854
0.701725
0.701597
0.701468
0.701339
0.701211
0.701082
0.700953
0.700825
0.700696
0.700568
0.700439
0.700311
0.700182
0.700054
0.699925
0.699797
0.699668
0.69954
0.699412
0.699283
0.699155
0.699027
0.698898
0.69877
0.698642
0.698514
0.698385
0.698257
0.698129
0.698001
0.697873
0.697744
0.697616
0.697488
0.69736
0.697232
0.697104
0.696976
0.696848
0.69672
0.696592
0.696464
0.696336
0.696208
0.69608
0.695953
0.695825
0.695697
0.695569
0.695441
0.695314
0.695186
0.695058
0.69493
0.694803
0.694675
0.694547
0.69442
0.694292
0.694164
0.694037
0.693909
0.693782
0.693654
0.693527
0.693399
0.693272
0.693144
0.693017
0.692889
0.692762
0.692635
0.692507
0.69238
0.692253
0.692125
0.691998
0.691871
0.691743
0.691616
0.691489
0.691362
0.691235
0.691108
0.69098
0.690853
0.690726
0.690599
0.690472
0.690345
0.690218
0.690091
0.689964
0.689837
0.68971
0.689583
0.689456
0.689329
0.689202
0.689076
0.688949
0.688822
0.688695
0.688568
0.688442
0.688315
0.688188
0.688061
0.687935
0.687808
0.687681
0.687555
0.687428
0.687302
0.687175
0.687048
0.686922
0.686795
0.686669
0.686542
0.686416
0.686289
0.686163
0.686037
0.68591
0.685784
0.685657
0.685531
0.685405
0.685279
0.685152
0.685026
0.6849
0.684773
0.684647
0.684521
0.684395
0.684269
0.684143
0.684017
0.68389
0.683764
0.683638
0.683512
0.683386
0.68326
0.683134
0.683008
0.682882
0.682756
0.682631
0.682505
0.682379
0.682253
0.682127
0.682001
0.681875
0.68175
0.681624
0.681498
0.681372
0.681247
0.681121
0.680995
0.68087
0.680744
0.680619
0.680493
0.680367
0.680242
0.680116
0.679991
0.679865
0.67974
0.679614
0.679489
0.679363
0.679238
0.679113
0.678987
0.678862
0.678737
0.678611
0.678486
0.678361
0.678235
0.67811
0.677985
0.67786
0.677735
0.677609
0.677484
0.677359
0.677234
0.677109
0.676984
0.676859
0.676734
0.676609
0.676484
0.676359
0.676234
0.676109
0.675984
0.675859
0.675734
0.675609
0.675484
0.675359
0.675235
0.67511
0.674985
0.67486
0.674736
0.674611
0.674486
0.674361
0.674237
0.674112
0.673988
0.673863
0.673738
0.673614
0.673489
0.673365
0.67324
0.673116
0.672991
0.672867
0.672742
0.672618
0.672493
0.672369
0.672245
0.67212
0.671996
0.671872
0.671747
0.671623
0.671499
0.671374
0.67125
0.671126
0.671002
0.670878
0.670754
0.670629
0.670505
0.670381
0.670257
0.670133
0.670009
0.669885
0.669761
0.669637
0.669513
0.669389
0.669265
0.669141
0.669017
0.668893
0.66877
0.668646
0.668522
0.668398
0.668274
0.668151
0.668027
0.667903
0.667779
0.667656
0.667532
0.667408
0.667285
0.667161
0.667037
0.666914
0.66679
0.666667
0.666543
0.66642
0.666296
0.666173
0.666049
0.665926
0.665802
0.665679
0.665556
0.665432
0.665309
0.665186
0.665062
0.664939
0.664816
0.664692
0.664569
0.664446
0.664323
0.6642
0.664076
0.663953
0.66383
0.663707
0.663584
0.663461
0.663338
0.663215
0.663092
0.662969
0.662846
0.662723
0.6626
0.662477
0.662354
0.662231
0.662108
0.661985
0.661863
0.66174
0.661617
0.661494
0.661371
0.661249
0.661126
0.661003
0.660881
0.660758
0.660635
0.660513
0.66039
0.660267
0.660145
0.660022
0.6599
0.659777
0.659655
0.659532
0.65941
0.659287
0.659165
0.659042
0.65892
0.658798
0.658675
0.658553
0.658431
0.658308
0.658186
0.658064
0.657941
0.657819
0.657697
0.657575
0.657453
0.65733
0.657208
0.657086
0.656964
0.656842
0.65672
0.656598
0.656476
0.656354
0.656232
0.65611
0.655988
0.655866
0.655744
0.655622
0.6555
0.655378
0.655256
0.655135
0.655013
0.654891
0.654769
0.654647
0.654526
0.654404
0.654282
0.654161
0.654039
0.653917
0.653796
0.653674
0.653552
0.653431
0.653309
0.653188
0.653066
0.652945
0.652823
0.652702
0.65258
0.652459
0.652337
0.652216
0.652095
0.651973
0.651852
0.65173
0.651609
0.651488
0.651367
0.651245
0.651124
0.651003
0.650882
0.650761
0.650639
0.650518
0.650397
0.650276
0.650155
0.650034
0.649913
0.649792
0.649671
0.64955
0.649429
0.649308
0.649187
0.649066
0.648945
0.648824
0.648703
0.648582
0.648461
0.648341
0.64822
0.648099
0.647978
0.647857
0.647737
0.647616
0.647495
0.647375
0.647254
0.647133
0.647013
0.646892
0.646772
0.646651
0.64653
0.64641
0.646289
0.646169
0.646048
0.645928
0.645807
0.645687
0.645567
0.645446
0.645326
0.645205
0.645085
0.644965
0.644845
0.644724
0.644604
0.644484
0.644364
0.644243
0.644123
0.644003
0.643883
0.643763
0.643643
0.643522
0.643402
0.643282
0.643162
0.643042
0.642922
0.642802
0.642682
0.642562
0.642442
0.642322
0.642202
0.642083
0.641963
0.641843
0.641723
0.641603
0.641483
0.641364
0.641244
0.641124
0.641004
0.640885
0.640765
0.640645
0.640526
0.640406
0.640286
0.640167
0.640047
0.639928
0.639808
0.639689
0.639569
0.63945
0.63933
0.639211
0.639091
0.638972
0.638852
0.638733
0.638614
0.638494
0.638375
0.638256
0.638136
0.638017
0.637898
0.637778
0.637659
0.63754
0.637421
0.637302
0.637183
0.637063
0.636944
0.636825
0.636706
0.636587
0.636468
0.636349
0.63623
0.636111
0.635992
0.635873
0.635754
0.635635
0.635516
0.635397
0.635278
0.63516
0.635041
0.634922
0.634803
0.634684
0.634566
0.634447
0.634328
0.634209
0.634091
0.633972
0.633853
0.633735
0.633616
0.633498
0.633379
0.63326
0.633142
0.633023
0.632905
0.632786
0.632668
0.632549
0.632431
0.632312
0.632194
0.632076
0.631957
0.631839
0.631721
0.631602
0.631484
0.631366
0.631247
0.631129
0.631011
0.630893
0.630775
0.630656
0.630538
0.63042
0.630302
0.630184
0.630066
0.629948
0.62983
0.629712
0.629594
0.629476
0.629358
0.62924
0.629122
0.629004
0.628886
0.628768
0.62865
0.628532
0.628414
0.628297
0.628179
0.628061
0.627943
0.627825
0.627708
0.62759
0.627472
0.627355
0.627237
0.627119
0.627002
0.626884
0.626766
0.626649
0.626531
0.626414
0.626296
0.626179
0.626061
0.625944
0.625826
0.625709
0.625592
0.625474
0.625357
0.625239
0.625122
0.625005
0.624887
0.62477
0.624653
0.624536
0.624418
0.624301
0.624184
0.624067
0.62395
0.623832
0.623715
0.623598
0.623481
0.623364
0.623247
0.62313
0.623013
0.622895
0.622779
0.622661
0.622546
0.622427
0.622312
0.622193
0.622078
0.621959
0.621845
0.621725
0.621612
0.621491
0.621379
0.621257
0.621146
0.621023
0.620913
0.620789
0.62068
0.620555
0.620448
0.620321
0.620215
0.620087
0.619983
0.619853
0.61975
0.61962
0.619517
0.619387
0.619284
0.619154
0.619052
0.618921
0.618819
0.618689
0.618585
0.618456
0.618352
0.618224
0.618119
0.617993
0.617885
0.617761
0.617652
0.617529
0.617419
0.617298
0.617186
0.617066
0.616953
0.616835
0.61672
0.616603
0.616488
0.616371
0.616256
0.616139
0.616023
0.615907
0.615791
0.615676
0.61556
0.615444
0.615328
0.615212
0.615096
0.61498
0.614865
0.614749
0.614633
0.614517
0.614402
0.614286
0.61417
0.614055
0.613939
0.613823
0.613708
0.613592
0.613476
0.613361
0.613245
0.61313
0.613014
0.612899
0.612783
0.612668
0.612552
0.612437
0.612322
0.612206
0.612091
0.611975
0.61186
0.611745
0.611629
0.611514
0.611399
0.611284
0.611168
0.611053
0.610938
0.610823
0.610708
0.610592
0.610477
0.610362
0.610247
0.610132
0.610017
0.609902
0.609787
0.609672
0.609557
0.609442
0.609327
0.609212
0.609097
0.608982
0.608867
0.608752
0.608638
0.608523
0.608408
0.608293
0.608178
0.608063
0.607949
0.607834
0.607719
0.607605
0.60749
0.607375
0.607261
0.607146
0.607031
0.606917
0.606802
0.606688
0.606573
0.606459
0.606344
0.60623
0.606115
0.606001
0.605886
0.605772
0.605657
0.605543
0.605429
0.605314
0.6052
0.605086
0.604971
0.604857
0.604743
0.604628
0.604514
0.6044
0.604286
0.604172
0.604058
0.603943
0.603829
0.603715
0.603601
0.603487
0.603373
0.603259
0.603145
0.603031
0.602917
0.602803
0.602689
0.602575
0.602461
0.602347
0.602233
0.602119
0.602006
0.601892
0.601778
0.601664
0.60155
0.601437
0.601323
0.601209
0.601095
0.600982
0.600868
0.600754
0.600641
0.600527
0.600413
0.6003
0.600186
0.600073
0.599959
0.599846
0.599732
0.599619
0.599505
0.599392
0.599278
0.599165
0.599052
0.598938
0.598825
0.598711
0.598598
0.598485
0.598372
0.598258
0.598145
0.598032
0.597918
0.597805
0.597692
0.597579
0.597466
0.597353
0.597239
0.597126
0.597013
0.5969
0.596787
0.596674
0.596561
0.596448
0.596335
0.596222
0.596109
0.595996
0.595883
0.59577
0.595658
0.595545
0.595432
0.595319
0.595206
0.595093
0.594981
0.594868
0.594755
0.594642
0.59453
0.594417
0.594304
0.594192
0.594079
0.593966
0.593854
0.593741
0.593629
0.593516
0.593403
0.593291
0.593178
0.593066
0.592953
0.592841
0.592729
0.592616
0.592504
0.592391
0.592279
0.592167
0.592054
0.591942
0.59183
0.591717
0.591605
0.591493
0.591381
0.591268
0.591156
0.591044
0.590932
0.59082
0.590708
0.590596
0.590483
0.590371
0.590259
0.590147
0.590035
0.589923
0.589811
0.589699
0.589587
0.589475
0.589363
0.589251
0.58914
0.589028
0.588916
0.588804
0.588692
0.58858
0.588469
0.588357
0.588245
0.588133
0.588022
0.58791
0.587798
0.587687
0.587575
0.587463
0.587352
0.58724
0.587129
0.587017
0.586905
0.586794
0.586682
0.586571
0.586459
0.586348
0.586236
0.586125
0.586014
0.585902
0.585791
0.585679
0.585568
0.585457
0.585345
0.585234
0.585123
0.585012
0.5849
0.584789
0.584678
0.584567
0.584456
0.584344
0.584233
0.584122
0.584011
0.5839
0.583789
0.583678
0.583567
0.583456
0.583345
0.583234
0.583123
0.583012
0.582901
0.58279
0.582679
0.582568
0.582457
0.582347
0.582236
0.582125
0.582014
0.581903
0.581793
0.581682
0.581571
0.58146
0.58135
0.581239
0.581128
0.581018
0.580907
0.580796
0.580686
0.580575
0.580465
0.580354
0.580244
0.580133
0.580023
0.579912
0.579802
0.579691
0.579581
0.57947
0.57936
0.57925
0.579139
0.579029
0.578919
0.578808
0.578698
0.578588
0.578477
0.578367
0.578257
0.578147
0.578037
0.577926
0.577816
0.577706
0.577596
0.577486
0.577376
0.577266
0.577156
0.577046
0.576936
0.576826
0.576716
0.576606
0.576496
0.576386
0.576276
0.576166
0.576056
0.575946
0.575836
0.575727
0.575617
0.575507
0.575397
0.575287
0.575178
0.575068
0.574958
0.574848
0.574739
0.574629
0.574519
0.57441
0.5743
0.574191
0.574081
0.573971
0.573862
0.573752
0.573643
0.573533
0.573424
0.573314
0.573205
0.573096
0.572986
0.572877
0.572767
0.572658
0.572549
0.572439
0.57233
0.572221
0.572111
0.572002
0.571893
0.571784
0.571674
0.571565
0.571456
0.571347
0.571238
0.571129
0.57102
0.57091
0.570801
0.570692
0.570583
0.570474
0.570365
0.570256
0.570147
0.570038
0.569929
0.56982
0.569712
0.569603
0.569494
0.569385
0.569276
0.569167
0.569058
0.56895
0.568841
0.568732
0.568623
0.568515
0.568406
0.568297
0.568189
0.56808
0.567971
0.567863
0.567754
0.567645
0.567537
0.567428
0.56732
0.567211
0.567103
0.566994
0.566886
0.566777
0.566669
0.56656
0.566452
0.566344
0.566235
0.566127
0.566019
0.56591
0.565802
0.565694
0.565585
0.565477
0.565369
0.565261
0.565152
0.565044
0.564936
0.564828
0.56472
0.564612
0.564504
0.564396
0.564287
0.564179
0.564071
0.563963
0.563855
0.563747
0.563639
0.563531
0.563423
0.563316
0.563208
0.5631
0.562992
0.562884