/*--------------------------------*- C++ -*----------------------------------*\
  =========                 |
  \\      /  F ield         | OpenFOAM: The Open Source CFD Toolbox
   \\    /   O peration     | Website:  https://openfoam.org
    \\  /    A nd           | Version:  9
     \\/     M anipulation  |
\*---------------------------------------------------------------------------*/
FoamFile
{
    format      ascii;
    class       volScalarField;
    location    "0.023";
    object      p;
}
// * * * * * * * * * * * * * * * * * * * * * * * * * * * * * * * * * * * * * //

dimensions      [1 -1 -2 0 0 0 0];

internalField   nonuniform List<scalar> 
100
(
36559.3
36342.2
36112.4
36019.5
35851.2
35699.5
35554.8
35405.6
35261.7
35110.7
34971.2
34817.2
34679.7
34527.9
34387.7
34241.1
34095.2
33955.3
33806.5
33663.6
33524.2
33379.4
33234
33096
32957.3
32811.4
32671.4
32537.1
32401.3
32259.1
32125.4
31995.9
31866.6
31733.3
31606.9
31485.9
31365.5
31251.1
31134.3
31027.8
30924.9
30825.8
30737.7
30647.6
30570.8
30501.9
30437.8
30383.2
30339.5
30297.3
30283.4
30283.8
30298.5
30305.2
30304.3
30322.5
30339.1
30357
30373.7
30384
30418.9
30429.5
30432.8
30424.3
30460.4
30482.3
30490.3
30497.4
30494.8
30499.7
30541
30553.8
30562.1
30565.5
30555.3
30600.4
30628.8
30642.5
30655.7
30665.6
30659.4
30697.8
30752
30777.5
30801.2
30825
30852.5
31023.5
31250.9
31663.1
32495.8
34197
37720.6
45196.1
45416.6
44940.6
43681.4
41831.6
41360.8
41273.7
)
;

boundaryField
{
    sides
    {
        type            zeroGradient;
    }
    empty
    {
        type            empty;
    }
}


// ************************************************************************* //
