/*--------------------------------*- C++ -*----------------------------------*\
  =========                 |
  \\      /  F ield         | OpenFOAM: The Open Source CFD Toolbox
   \\    /   O peration     | Website:  https://openfoam.org
    \\  /    A nd           | Version:  9
     \\/     M anipulation  |
\*---------------------------------------------------------------------------*/
FoamFile
{
    format      ascii;
    class       volScalarField;
    location    "0.028";
    object      ddt0(p);
}
// * * * * * * * * * * * * * * * * * * * * * * * * * * * * * * * * * * * * * //

dimensions      [1 -1 -3 0 0 0 0];

internalField   nonuniform List<scalar> 
10000
(
-1.44109e+06
-1.44108e+06
-1.44107e+06
-1.44106e+06
-1.44105e+06
-1.44104e+06
-1.44103e+06
-1.44102e+06
-1.44101e+06
-1.441e+06
-1.44098e+06
-1.44097e+06
-1.44096e+06
-1.44095e+06
-1.44094e+06
-1.44093e+06
-1.44092e+06
-1.44091e+06
-1.4409e+06
-1.44089e+06
-1.44088e+06
-1.44087e+06
-1.44086e+06
-1.44085e+06
-1.44084e+06
-1.44082e+06
-1.44081e+06
-1.4408e+06
-1.44079e+06
-1.44078e+06
-1.44077e+06
-1.44076e+06
-1.44075e+06
-1.44074e+06
-1.44073e+06
-1.44072e+06
-1.44071e+06
-1.44069e+06
-1.44068e+06
-1.44067e+06
-1.44066e+06
-1.44065e+06
-1.44064e+06
-1.44063e+06
-1.44062e+06
-1.44061e+06
-1.4406e+06
-1.44059e+06
-1.44057e+06
-1.44056e+06
-1.44055e+06
-1.44054e+06
-1.44053e+06
-1.44052e+06
-1.44051e+06
-1.4405e+06
-1.44049e+06
-1.44047e+06
-1.44046e+06
-1.44045e+06
-1.44044e+06
-1.44043e+06
-1.44042e+06
-1.44041e+06
-1.4404e+06
-1.44039e+06
-1.44037e+06
-1.44036e+06
-1.44035e+06
-1.44034e+06
-1.44033e+06
-1.44032e+06
-1.44031e+06
-1.4403e+06
-1.44029e+06
-1.44027e+06
-1.44026e+06
-1.44025e+06
-1.44024e+06
-1.44023e+06
-1.44022e+06
-1.44021e+06
-1.44019e+06
-1.44018e+06
-1.44017e+06
-1.44016e+06
-1.44015e+06
-1.44014e+06
-1.44012e+06
-1.44011e+06
-1.4401e+06
-1.44009e+06
-1.44008e+06
-1.44007e+06
-1.44006e+06
-1.44004e+06
-1.44003e+06
-1.44002e+06
-1.44001e+06
-1.44e+06
-1.43999e+06
-1.43997e+06
-1.43996e+06
-1.43995e+06
-1.43994e+06
-1.43993e+06
-1.43992e+06
-1.4399e+06
-1.43989e+06
-1.43988e+06
-1.43987e+06
-1.43986e+06
-1.43985e+06
-1.43984e+06
-1.43982e+06
-1.43981e+06
-1.4398e+06
-1.43979e+06
-1.43978e+06
-1.43976e+06
-1.43975e+06
-1.43974e+06
-1.43973e+06
-1.43972e+06
-1.4397e+06
-1.43969e+06
-1.43968e+06
-1.43967e+06
-1.43966e+06
-1.43965e+06
-1.43963e+06
-1.43962e+06
-1.43961e+06
-1.4396e+06
-1.43959e+06
-1.43957e+06
-1.43956e+06
-1.43955e+06
-1.43954e+06
-1.43953e+06
-1.43951e+06
-1.4395e+06
-1.43949e+06
-1.43948e+06
-1.43947e+06
-1.43945e+06
-1.43944e+06
-1.43943e+06
-1.43942e+06
-1.4394e+06
-1.43939e+06
-1.43938e+06
-1.43937e+06
-1.43936e+06
-1.43934e+06
-1.43933e+06
-1.43932e+06
-1.43931e+06
-1.4393e+06
-1.43928e+06
-1.43927e+06
-1.43926e+06
-1.43925e+06
-1.43923e+06
-1.43922e+06
-1.43921e+06
-1.4392e+06
-1.43918e+06
-1.43917e+06
-1.43916e+06
-1.43915e+06
-1.43913e+06
-1.43912e+06
-1.43911e+06
-1.4391e+06
-1.43908e+06
-1.43907e+06
-1.43906e+06
-1.43905e+06
-1.43903e+06
-1.43902e+06
-1.43901e+06
-1.439e+06
-1.43898e+06
-1.43897e+06
-1.43896e+06
-1.43895e+06
-1.43893e+06
-1.43892e+06
-1.43891e+06
-1.4389e+06
-1.43888e+06
-1.43887e+06
-1.43886e+06
-1.43885e+06
-1.43883e+06
-1.43882e+06
-1.43881e+06
-1.4388e+06
-1.43878e+06
-1.43877e+06
-1.43876e+06
-1.43874e+06
-1.43873e+06
-1.43872e+06
-1.43871e+06
-1.43869e+06
-1.43868e+06
-1.43867e+06
-1.43866e+06
-1.43864e+06
-1.43863e+06
-1.43862e+06
-1.4386e+06
-1.43859e+06
-1.43858e+06
-1.43857e+06
-1.43855e+06
-1.43854e+06
-1.43853e+06
-1.43851e+06
-1.4385e+06
-1.43849e+06
-1.43847e+06
-1.43846e+06
-1.43845e+06
-1.43844e+06
-1.43842e+06
-1.43841e+06
-1.4384e+06
-1.43838e+06
-1.43837e+06
-1.43836e+06
-1.43834e+06
-1.43833e+06
-1.43832e+06
-1.4383e+06
-1.43829e+06
-1.43828e+06
-1.43827e+06
-1.43825e+06
-1.43824e+06
-1.43823e+06
-1.43821e+06
-1.4382e+06
-1.43819e+06
-1.43817e+06
-1.43816e+06
-1.43815e+06
-1.43813e+06
-1.43812e+06
-1.43811e+06
-1.43809e+06
-1.43808e+06
-1.43807e+06
-1.43805e+06
-1.43804e+06
-1.43803e+06
-1.43801e+06
-1.438e+06
-1.43799e+06
-1.43797e+06
-1.43796e+06
-1.43795e+06
-1.43793e+06
-1.43792e+06
-1.43791e+06
-1.43789e+06
-1.43788e+06
-1.43787e+06
-1.43785e+06
-1.43784e+06
-1.43782e+06
-1.43781e+06
-1.4378e+06
-1.43778e+06
-1.43777e+06
-1.43776e+06
-1.43774e+06
-1.43773e+06
-1.43772e+06
-1.4377e+06
-1.43769e+06
-1.43767e+06
-1.43766e+06
-1.43765e+06
-1.43763e+06
-1.43762e+06
-1.43761e+06
-1.43759e+06
-1.43758e+06
-1.43757e+06
-1.43755e+06
-1.43754e+06
-1.43752e+06
-1.43751e+06
-1.4375e+06
-1.43748e+06
-1.43747e+06
-1.43745e+06
-1.43744e+06
-1.43743e+06
-1.43741e+06
-1.4374e+06
-1.43739e+06
-1.43737e+06
-1.43736e+06
-1.43734e+06
-1.43733e+06
-1.43732e+06
-1.4373e+06
-1.43729e+06
-1.43727e+06
-1.43726e+06
-1.43725e+06
-1.43723e+06
-1.43722e+06
-1.4372e+06
-1.43719e+06
-1.43718e+06
-1.43716e+06
-1.43715e+06
-1.43713e+06
-1.43712e+06
-1.43711e+06
-1.43709e+06
-1.43708e+06
-1.43706e+06
-1.43705e+06
-1.43703e+06
-1.43702e+06
-1.43701e+06
-1.43699e+06
-1.43698e+06
-1.43696e+06
-1.43695e+06
-1.43694e+06
-1.43692e+06
-1.43691e+06
-1.43689e+06
-1.43688e+06
-1.43686e+06
-1.43685e+06
-1.43683e+06
-1.43682e+06
-1.43681e+06
-1.43679e+06
-1.43678e+06
-1.43676e+06
-1.43675e+06
-1.43673e+06
-1.43672e+06
-1.43671e+06
-1.43669e+06
-1.43668e+06
-1.43666e+06
-1.43665e+06
-1.43663e+06
-1.43662e+06
-1.4366e+06
-1.43659e+06
-1.43657e+06
-1.43656e+06
-1.43655e+06
-1.43653e+06
-1.43652e+06
-1.4365e+06
-1.43649e+06
-1.43647e+06
-1.43646e+06
-1.43644e+06
-1.43643e+06
-1.43641e+06
-1.4364e+06
-1.43638e+06
-1.43637e+06
-1.43636e+06
-1.43634e+06
-1.43633e+06
-1.43631e+06
-1.4363e+06
-1.43628e+06
-1.43627e+06
-1.43625e+06
-1.43624e+06
-1.43622e+06
-1.43621e+06
-1.43619e+06
-1.43618e+06
-1.43616e+06
-1.43615e+06
-1.43613e+06
-1.43612e+06
-1.4361e+06
-1.43609e+06
-1.43607e+06
-1.43606e+06
-1.43604e+06
-1.43603e+06
-1.43601e+06
-1.436e+06
-1.43598e+06
-1.43597e+06
-1.43595e+06
-1.43594e+06
-1.43592e+06
-1.43591e+06
-1.43589e+06
-1.43588e+06
-1.43586e+06
-1.43585e+06
-1.43583e+06
-1.43582e+06
-1.4358e+06
-1.43579e+06
-1.43577e+06
-1.43576e+06
-1.43574e+06
-1.43573e+06
-1.43571e+06
-1.4357e+06
-1.43568e+06
-1.43567e+06
-1.43565e+06
-1.43564e+06
-1.43562e+06
-1.4356e+06
-1.43559e+06
-1.43557e+06
-1.43556e+06
-1.43554e+06
-1.43553e+06
-1.43551e+06
-1.4355e+06
-1.43548e+06
-1.43547e+06
-1.43545e+06
-1.43544e+06
-1.43542e+06
-1.43541e+06
-1.43539e+06
-1.43537e+06
-1.43536e+06
-1.43534e+06
-1.43533e+06
-1.43531e+06
-1.4353e+06
-1.43528e+06
-1.43527e+06
-1.43525e+06
-1.43523e+06
-1.43522e+06
-1.4352e+06
-1.43519e+06
-1.43517e+06
-1.43516e+06
-1.43514e+06
-1.43513e+06
-1.43511e+06
-1.43509e+06
-1.43508e+06
-1.43506e+06
-1.43505e+06
-1.43503e+06
-1.43502e+06
-1.435e+06
-1.43498e+06
-1.43497e+06
-1.43495e+06
-1.43494e+06
-1.43492e+06
-1.43491e+06
-1.43489e+06
-1.43487e+06
-1.43486e+06
-1.43484e+06
-1.43483e+06
-1.43481e+06
-1.43479e+06
-1.43478e+06
-1.43476e+06
-1.43475e+06
-1.43473e+06
-1.43471e+06
-1.4347e+06
-1.43468e+06
-1.43467e+06
-1.43465e+06
-1.43464e+06
-1.43462e+06
-1.4346e+06
-1.43459e+06
-1.43457e+06
-1.43455e+06
-1.43454e+06
-1.43452e+06
-1.43451e+06
-1.43449e+06
-1.43447e+06
-1.43446e+06
-1.43444e+06
-1.43443e+06
-1.43441e+06
-1.43439e+06
-1.43438e+06
-1.43436e+06
-1.43434e+06
-1.43433e+06
-1.43431e+06
-1.4343e+06
-1.43428e+06
-1.43426e+06
-1.43425e+06
-1.43423e+06
-1.43422e+06
-1.4342e+06
-1.43418e+06
-1.43417e+06
-1.43415e+06
-1.43413e+06
-1.43412e+06
-1.4341e+06
-1.43408e+06
-1.43407e+06
-1.43405e+06
-1.43404e+06
-1.43402e+06
-1.434e+06
-1.43399e+06
-1.43397e+06
-1.43395e+06
-1.43394e+06
-1.43392e+06
-1.4339e+06
-1.43389e+06
-1.43387e+06
-1.43385e+06
-1.43384e+06
-1.43382e+06
-1.4338e+06
-1.43379e+06
-1.43377e+06
-1.43375e+06
-1.43374e+06
-1.43372e+06
-1.4337e+06
-1.43369e+06
-1.43367e+06
-1.43365e+06
-1.43364e+06
-1.43362e+06
-1.4336e+06
-1.43359e+06
-1.43357e+06
-1.43355e+06
-1.43354e+06
-1.43352e+06
-1.4335e+06
-1.43349e+06
-1.43347e+06
-1.43345e+06
-1.43344e+06
-1.43342e+06
-1.4334e+06
-1.43339e+06
-1.43337e+06
-1.43335e+06
-1.43334e+06
-1.43332e+06
-1.4333e+06
-1.43328e+06
-1.43327e+06
-1.43325e+06
-1.43323e+06
-1.43322e+06
-1.4332e+06
-1.43318e+06
-1.43317e+06
-1.43315e+06
-1.43313e+06
-1.43311e+06
-1.4331e+06
-1.43308e+06
-1.43306e+06
-1.43305e+06
-1.43303e+06
-1.43301e+06
-1.433e+06
-1.43298e+06
-1.43296e+06
-1.43294e+06
-1.43293e+06
-1.43291e+06
-1.43289e+06
-1.43287e+06
-1.43286e+06
-1.43284e+06
-1.43282e+06
-1.43281e+06
-1.43279e+06
-1.43277e+06
-1.43275e+06
-1.43274e+06
-1.43272e+06
-1.4327e+06
-1.43268e+06
-1.43267e+06
-1.43265e+06
-1.43263e+06
-1.43261e+06
-1.4326e+06
-1.43258e+06
-1.43256e+06
-1.43254e+06
-1.43253e+06
-1.43251e+06
-1.43249e+06
-1.43247e+06
-1.43246e+06
-1.43244e+06
-1.43242e+06
-1.4324e+06
-1.43239e+06
-1.43237e+06
-1.43235e+06
-1.43233e+06
-1.43232e+06
-1.4323e+06
-1.43228e+06
-1.43226e+06
-1.43224e+06
-1.43223e+06
-1.43221e+06
-1.43219e+06
-1.43217e+06
-1.43215e+06
-1.43214e+06
-1.43212e+06
-1.4321e+06
-1.43208e+06
-1.43206e+06
-1.43205e+06
-1.43203e+06
-1.43201e+06
-1.43199e+06
-1.43198e+06
-1.43196e+06
-1.43194e+06
-1.43192e+06
-1.4319e+06
-1.43189e+06
-1.43187e+06
-1.43185e+06
-1.43183e+06
-1.43181e+06
-1.4318e+06
-1.43178e+06
-1.43176e+06
-1.43174e+06
-1.43172e+06
-1.43171e+06
-1.43169e+06
-1.43167e+06
-1.43165e+06
-1.43163e+06
-1.43162e+06
-1.4316e+06
-1.43158e+06
-1.43156e+06
-1.43154e+06
-1.43153e+06
-1.43151e+06
-1.43149e+06
-1.43147e+06
-1.43145e+06
-1.43144e+06
-1.43142e+06
-1.4314e+06
-1.43138e+06
-1.43136e+06
-1.43135e+06
-1.43133e+06
-1.43131e+06
-1.43129e+06
-1.43127e+06
-1.43126e+06
-1.43124e+06
-1.43122e+06
-1.4312e+06
-1.43118e+06
-1.43117e+06
-1.43115e+06
-1.43113e+06
-1.43111e+06
-1.43109e+06
-1.43108e+06
-1.43106e+06
-1.43104e+06
-1.43102e+06
-1.431e+06
-1.43098e+06
-1.43097e+06
-1.43095e+06
-1.43093e+06
-1.43091e+06
-1.43089e+06
-1.43087e+06
-1.43086e+06
-1.43084e+06
-1.43082e+06
-1.4308e+06
-1.43078e+06
-1.43076e+06
-1.43075e+06
-1.43073e+06
-1.43071e+06
-1.43069e+06
-1.43067e+06
-1.43065e+06
-1.43063e+06
-1.43062e+06
-1.4306e+06
-1.43058e+06
-1.43056e+06
-1.43054e+06
-1.43052e+06
-1.4305e+06
-1.43049e+06
-1.43047e+06
-1.43045e+06
-1.43043e+06
-1.43041e+06
-1.43039e+06
-1.43037e+06
-1.43035e+06
-1.43033e+06
-1.43032e+06
-1.4303e+06
-1.43028e+06
-1.43026e+06
-1.43024e+06
-1.43022e+06
-1.4302e+06
-1.43018e+06
-1.43016e+06
-1.43014e+06
-1.43013e+06
-1.43011e+06
-1.43009e+06
-1.43007e+06
-1.43005e+06
-1.43003e+06
-1.43001e+06
-1.42999e+06
-1.42997e+06
-1.42995e+06
-1.42993e+06
-1.42992e+06
-1.4299e+06
-1.42988e+06
-1.42986e+06
-1.42984e+06
-1.42982e+06
-1.4298e+06
-1.42978e+06
-1.42976e+06
-1.42974e+06
-1.42972e+06
-1.4297e+06
-1.42968e+06
-1.42967e+06
-1.42965e+06
-1.42963e+06
-1.42961e+06
-1.42959e+06
-1.42957e+06
-1.42955e+06
-1.42953e+06
-1.42951e+06
-1.42949e+06
-1.42947e+06
-1.42945e+06
-1.42943e+06
-1.42941e+06
-1.42939e+06
-1.42937e+06
-1.42936e+06
-1.42934e+06
-1.42932e+06
-1.4293e+06
-1.42928e+06
-1.42926e+06
-1.42924e+06
-1.42922e+06
-1.4292e+06
-1.42918e+06
-1.42916e+06
-1.42914e+06
-1.42912e+06
-1.4291e+06
-1.42908e+06
-1.42906e+06
-1.42904e+06
-1.42902e+06
-1.429e+06
-1.42898e+06
-1.42896e+06
-1.42894e+06
-1.42892e+06
-1.4289e+06
-1.42888e+06
-1.42887e+06
-1.42885e+06
-1.42883e+06
-1.42881e+06
-1.42879e+06
-1.42877e+06
-1.42875e+06
-1.42873e+06
-1.42871e+06
-1.42869e+06
-1.42867e+06
-1.42865e+06
-1.42863e+06
-1.42861e+06
-1.42859e+06
-1.42857e+06
-1.42855e+06
-1.42853e+06
-1.42851e+06
-1.42849e+06
-1.42847e+06
-1.42845e+06
-1.42843e+06
-1.42841e+06
-1.42839e+06
-1.42837e+06
-1.42835e+06
-1.42833e+06
-1.42831e+06
-1.42829e+06
-1.42827e+06
-1.42825e+06
-1.42823e+06
-1.42821e+06
-1.42819e+06
-1.42817e+06
-1.42815e+06
-1.42813e+06
-1.42811e+06
-1.42809e+06
-1.42807e+06
-1.42805e+06
-1.42803e+06
-1.42801e+06
-1.42799e+06
-1.42797e+06
-1.42794e+06
-1.42792e+06
-1.4279e+06
-1.42788e+06
-1.42786e+06
-1.42784e+06
-1.42782e+06
-1.4278e+06
-1.42778e+06
-1.42776e+06
-1.42774e+06
-1.42772e+06
-1.4277e+06
-1.42768e+06
-1.42766e+06
-1.42764e+06
-1.42762e+06
-1.4276e+06
-1.42758e+06
-1.42756e+06
-1.42754e+06
-1.42752e+06
-1.4275e+06
-1.42748e+06
-1.42746e+06
-1.42743e+06
-1.42741e+06
-1.42739e+06
-1.42737e+06
-1.42735e+06
-1.42733e+06
-1.42731e+06
-1.42729e+06
-1.42727e+06
-1.42725e+06
-1.42723e+06
-1.42721e+06
-1.42719e+06
-1.42717e+06
-1.42715e+06
-1.42712e+06
-1.4271e+06
-1.42708e+06
-1.42706e+06
-1.42704e+06
-1.42702e+06
-1.427e+06
-1.42698e+06
-1.42696e+06
-1.42694e+06
-1.42692e+06
-1.4269e+06
-1.42688e+06
-1.42685e+06
-1.42683e+06
-1.42681e+06
-1.42679e+06
-1.42677e+06
-1.42675e+06
-1.42673e+06
-1.42671e+06
-1.42669e+06
-1.42667e+06
-1.42664e+06
-1.42662e+06
-1.4266e+06
-1.42658e+06
-1.42656e+06
-1.42654e+06
-1.42652e+06
-1.4265e+06
-1.42648e+06
-1.42646e+06
-1.42643e+06
-1.42641e+06
-1.42639e+06
-1.42637e+06
-1.42635e+06
-1.42633e+06
-1.42631e+06
-1.42629e+06
-1.42626e+06
-1.42624e+06
-1.42622e+06
-1.4262e+06
-1.42618e+06
-1.42616e+06
-1.42614e+06
-1.42612e+06
-1.42609e+06
-1.42607e+06
-1.42605e+06
-1.42603e+06
-1.42601e+06
-1.42599e+06
-1.42597e+06
-1.42595e+06
-1.42592e+06
-1.4259e+06
-1.42588e+06
-1.42586e+06
-1.42584e+06
-1.42582e+06
-1.4258e+06
-1.42577e+06
-1.42575e+06
-1.42573e+06
-1.42571e+06
-1.42569e+06
-1.42567e+06
-1.42564e+06
-1.42562e+06
-1.4256e+06
-1.42558e+06
-1.42556e+06
-1.42554e+06
-1.42552e+06
-1.42549e+06
-1.42547e+06
-1.42545e+06
-1.42543e+06
-1.42541e+06
-1.42539e+06
-1.42536e+06
-1.42534e+06
-1.42532e+06
-1.4253e+06
-1.42528e+06
-1.42525e+06
-1.42523e+06
-1.42521e+06
-1.42519e+06
-1.42517e+06
-1.42514e+06
-1.42512e+06
-1.4251e+06
-1.42508e+06
-1.42506e+06
-1.42504e+06
-1.42501e+06
-1.42499e+06
-1.42497e+06
-1.42495e+06
-1.42493e+06
-1.42491e+06
-1.42488e+06
-1.42486e+06
-1.42484e+06
-1.42482e+06
-1.4248e+06
-1.42477e+06
-1.42475e+06
-1.42473e+06
-1.42471e+06
-1.42468e+06
-1.42466e+06
-1.42464e+06
-1.42462e+06
-1.4246e+06
-1.42457e+06
-1.42455e+06
-1.42453e+06
-1.42451e+06
-1.42449e+06
-1.42446e+06
-1.42444e+06
-1.42442e+06
-1.4244e+06
-1.42438e+06
-1.42435e+06
-1.42433e+06
-1.42431e+06
-1.42429e+06
-1.42426e+06
-1.42424e+06
-1.42422e+06
-1.4242e+06
-1.42417e+06
-1.42415e+06
-1.42413e+06
-1.42411e+06
-1.42408e+06
-1.42406e+06
-1.42404e+06
-1.42401e+06
-1.424e+06
-1.42397e+06
-1.42395e+06
-1.42393e+06
-1.4239e+06
-1.42388e+06
-1.42386e+06
-1.42384e+06
-1.42382e+06
-1.42379e+06
-1.42377e+06
-1.42375e+06
-1.42373e+06
-1.4237e+06
-1.42368e+06
-1.42366e+06
-1.42364e+06
-1.42361e+06
-1.42359e+06
-1.42357e+06
-1.42354e+06
-1.42352e+06
-1.4235e+06
-1.42348e+06
-1.42346e+06
-1.42343e+06
-1.42341e+06
-1.42339e+06
-1.42337e+06
-1.42334e+06
-1.42332e+06
-1.4233e+06
-1.42326e+06
-1.42325e+06
-1.42322e+06
-1.42321e+06
-1.42318e+06
-1.42316e+06
-1.42314e+06
-1.42311e+06
-1.42309e+06
-1.42306e+06
-1.42304e+06
-1.42302e+06
-1.42299e+06
-1.42297e+06
-1.42295e+06
-1.42293e+06
-1.4229e+06
-1.42288e+06
-1.42286e+06
-1.42284e+06
-1.42281e+06
-1.42279e+06
-1.42277e+06
-1.42274e+06
-1.42272e+06
-1.4227e+06
-1.42267e+06
-1.42265e+06
-1.42263e+06
-1.4226e+06
-1.42258e+06
-1.42256e+06
-1.42254e+06
-1.42251e+06
-1.42249e+06
-1.42247e+06
-1.42244e+06
-1.42242e+06
-1.4224e+06
-1.42237e+06
-1.42235e+06
-1.42233e+06
-1.42231e+06
-1.42228e+06
-1.42225e+06
-1.42224e+06
-1.4222e+06
-1.42219e+06
-1.42216e+06
-1.42214e+06
-1.42212e+06
-1.42209e+06
-1.42207e+06
-1.42205e+06
-1.42202e+06
-1.422e+06
-1.42198e+06
-1.42195e+06
-1.42193e+06
-1.4219e+06
-1.42188e+06
-1.42186e+06
-1.42184e+06
-1.42181e+06
-1.42179e+06
-1.42176e+06
-1.42174e+06
-1.42172e+06
-1.42169e+06
-1.42167e+06
-1.42165e+06
-1.42162e+06
-1.4216e+06
-1.42157e+06
-1.42155e+06
-1.42153e+06
-1.4215e+06
-1.42148e+06
-1.42146e+06
-1.42143e+06
-1.42141e+06
-1.42138e+06
-1.42136e+06
-1.42134e+06
-1.42131e+06
-1.42129e+06
-1.42127e+06
-1.42124e+06
-1.42122e+06
-1.42119e+06
-1.42117e+06
-1.42115e+06
-1.42112e+06
-1.4211e+06
-1.42107e+06
-1.42105e+06
-1.42103e+06
-1.421e+06
-1.42098e+06
-1.42095e+06
-1.42093e+06
-1.42091e+06
-1.42088e+06
-1.42086e+06
-1.42083e+06
-1.42081e+06
-1.42079e+06
-1.42076e+06
-1.42074e+06
-1.42072e+06
-1.42069e+06
-1.42066e+06
-1.42064e+06
-1.42062e+06
-1.42059e+06
-1.42057e+06
-1.42054e+06
-1.42052e+06
-1.4205e+06
-1.42047e+06
-1.42045e+06
-1.42042e+06
-1.4204e+06
-1.42038e+06
-1.42035e+06
-1.42033e+06
-1.4203e+06
-1.42028e+06
-1.42025e+06
-1.42023e+06
-1.42021e+06
-1.42018e+06
-1.42016e+06
-1.42013e+06
-1.42011e+06
-1.42008e+06
-1.42006e+06
-1.42004e+06
-1.42001e+06
-1.41999e+06
-1.41996e+06
-1.41994e+06
-1.41991e+06
-1.41989e+06
-1.41986e+06
-1.41984e+06
-1.41981e+06
-1.41979e+06
-1.41977e+06
-1.41974e+06
-1.41972e+06
-1.41969e+06
-1.41967e+06
-1.41964e+06
-1.41962e+06
-1.41959e+06
-1.41957e+06
-1.41954e+06
-1.41952e+06
-1.41949e+06
-1.41947e+06
-1.41945e+06
-1.41942e+06
-1.4194e+06
-1.41937e+06
-1.41935e+06
-1.41932e+06
-1.4193e+06
-1.41927e+06
-1.41925e+06
-1.41922e+06
-1.4192e+06
-1.41917e+06
-1.41915e+06
-1.41912e+06
-1.4191e+06
-1.41907e+06
-1.41905e+06
-1.41902e+06
-1.419e+06
-1.41897e+06
-1.41895e+06
-1.41892e+06
-1.4189e+06
-1.41887e+06
-1.41885e+06
-1.41882e+06
-1.4188e+06
-1.41877e+06
-1.41875e+06
-1.41872e+06
-1.4187e+06
-1.41867e+06
-1.41865e+06
-1.41862e+06
-1.4186e+06
-1.41857e+06
-1.41855e+06
-1.41852e+06
-1.4185e+06
-1.41847e+06
-1.41845e+06
-1.41842e+06
-1.4184e+06
-1.41837e+06
-1.41835e+06
-1.41832e+06
-1.4183e+06
-1.41827e+06
-1.41825e+06
-1.41822e+06
-1.41819e+06
-1.41817e+06
-1.41814e+06
-1.41812e+06
-1.41809e+06
-1.41807e+06
-1.41804e+06
-1.41802e+06
-1.41799e+06
-1.41797e+06
-1.41794e+06
-1.41792e+06
-1.41789e+06
-1.41786e+06
-1.41784e+06
-1.41781e+06
-1.41779e+06
-1.41776e+06
-1.41774e+06
-1.41771e+06
-1.41769e+06
-1.41766e+06
-1.41764e+06
-1.41761e+06
-1.41758e+06
-1.41756e+06
-1.41753e+06
-1.41751e+06
-1.41748e+06
-1.41746e+06
-1.41743e+06
-1.4174e+06
-1.41738e+06
-1.41735e+06
-1.41733e+06
-1.4173e+06
-1.41728e+06
-1.41725e+06
-1.41722e+06
-1.4172e+06
-1.41717e+06
-1.41715e+06
-1.41712e+06
-1.4171e+06
-1.41707e+06
-1.41704e+06
-1.41702e+06
-1.41699e+06
-1.41697e+06
-1.41694e+06
-1.41691e+06
-1.41689e+06
-1.41686e+06
-1.41684e+06
-1.41681e+06
-1.41679e+06
-1.41676e+06
-1.41673e+06
-1.41671e+06
-1.41668e+06
-1.41666e+06
-1.41663e+06
-1.4166e+06
-1.41658e+06
-1.41655e+06
-1.41652e+06
-1.4165e+06
-1.41647e+06
-1.41645e+06
-1.41642e+06
-1.41639e+06
-1.41637e+06
-1.41634e+06
-1.41632e+06
-1.41629e+06
-1.41626e+06
-1.41624e+06
-1.41621e+06
-1.41619e+06
-1.41616e+06
-1.41613e+06
-1.41611e+06
-1.41608e+06
-1.41605e+06
-1.41603e+06
-1.416e+06
-1.41597e+06
-1.41595e+06
-1.41592e+06
-1.4159e+06
-1.41587e+06
-1.41584e+06
-1.41582e+06
-1.41579e+06
-1.41576e+06
-1.41574e+06
-1.41571e+06
-1.41568e+06
-1.41566e+06
-1.41563e+06
-1.41561e+06
-1.41558e+06
-1.41555e+06
-1.41553e+06
-1.4155e+06
-1.41547e+06
-1.41545e+06
-1.41542e+06
-1.41539e+06
-1.41537e+06
-1.41534e+06
-1.41531e+06
-1.41529e+06
-1.41526e+06
-1.41523e+06
-1.41521e+06
-1.41518e+06
-1.41515e+06
-1.41513e+06
-1.4151e+06
-1.41507e+06
-1.41505e+06
-1.41502e+06
-1.41499e+06
-1.41497e+06
-1.41494e+06
-1.41491e+06
-1.41489e+06
-1.41486e+06
-1.41483e+06
-1.41481e+06
-1.41478e+06
-1.41475e+06
-1.41472e+06
-1.4147e+06
-1.41467e+06
-1.41464e+06
-1.41462e+06
-1.41459e+06
-1.41456e+06
-1.41454e+06
-1.41451e+06
-1.41448e+06
-1.41446e+06
-1.41443e+06
-1.4144e+06
-1.41437e+06
-1.41435e+06
-1.41432e+06
-1.41429e+06
-1.41427e+06
-1.41424e+06
-1.41421e+06
-1.41418e+06
-1.41416e+06
-1.41413e+06
-1.4141e+06
-1.41408e+06
-1.41405e+06
-1.41402e+06
-1.41399e+06
-1.41397e+06
-1.41394e+06
-1.41391e+06
-1.41389e+06
-1.41386e+06
-1.41383e+06
-1.4138e+06
-1.41378e+06
-1.41375e+06
-1.41372e+06
-1.4137e+06
-1.41367e+06
-1.41364e+06
-1.41361e+06
-1.41359e+06
-1.41356e+06
-1.41353e+06
-1.4135e+06
-1.41348e+06
-1.41345e+06
-1.41342e+06
-1.41339e+06
-1.41337e+06
-1.41334e+06
-1.41331e+06
-1.41328e+06
-1.41326e+06
-1.41323e+06
-1.4132e+06
-1.41317e+06
-1.41315e+06
-1.41312e+06
-1.41309e+06
-1.41306e+06
-1.41304e+06
-1.41301e+06
-1.41298e+06
-1.41295e+06
-1.41293e+06
-1.4129e+06
-1.41287e+06
-1.41284e+06
-1.41281e+06
-1.41279e+06
-1.41276e+06
-1.41273e+06
-1.4127e+06
-1.41268e+06
-1.41265e+06
-1.41262e+06
-1.41259e+06
-1.41256e+06
-1.41254e+06
-1.41251e+06
-1.41248e+06
-1.41245e+06
-1.41243e+06
-1.4124e+06
-1.41237e+06
-1.41234e+06
-1.41231e+06
-1.41229e+06
-1.41226e+06
-1.41223e+06
-1.4122e+06
-1.41217e+06
-1.41215e+06
-1.41212e+06
-1.41209e+06
-1.41206e+06
-1.41203e+06
-1.41201e+06
-1.41198e+06
-1.41195e+06
-1.41192e+06
-1.41189e+06
-1.41187e+06
-1.41184e+06
-1.41181e+06
-1.41178e+06
-1.41175e+06
-1.41173e+06
-1.4117e+06
-1.41167e+06
-1.41164e+06
-1.41161e+06
-1.41158e+06
-1.41156e+06
-1.41153e+06
-1.4115e+06
-1.41147e+06
-1.41144e+06
-1.41141e+06
-1.41139e+06
-1.41136e+06
-1.41133e+06
-1.4113e+06
-1.41127e+06
-1.41124e+06
-1.41122e+06
-1.41119e+06
-1.41116e+06
-1.41113e+06
-1.4111e+06
-1.41107e+06
-1.41105e+06
-1.41102e+06
-1.41099e+06
-1.41096e+06
-1.41093e+06
-1.4109e+06
-1.41087e+06
-1.41085e+06
-1.41082e+06
-1.41079e+06
-1.41076e+06
-1.41073e+06
-1.4107e+06
-1.41068e+06
-1.41065e+06
-1.41062e+06
-1.41059e+06
-1.41056e+06
-1.41053e+06
-1.4105e+06
-1.41047e+06
-1.41045e+06
-1.41042e+06
-1.41039e+06
-1.41036e+06
-1.41033e+06
-1.4103e+06
-1.41027e+06
-1.41024e+06
-1.41022e+06
-1.41019e+06
-1.41016e+06
-1.41013e+06
-1.4101e+06
-1.41007e+06
-1.41004e+06
-1.41001e+06
-1.40999e+06
-1.40996e+06
-1.40993e+06
-1.4099e+06
-1.40987e+06
-1.40984e+06
-1.40981e+06
-1.40978e+06
-1.40975e+06
-1.40972e+06
-1.4097e+06
-1.40967e+06
-1.40964e+06
-1.40961e+06
-1.40958e+06
-1.40955e+06
-1.40952e+06
-1.40949e+06
-1.40946e+06
-1.40943e+06
-1.40941e+06
-1.40938e+06
-1.40935e+06
-1.40932e+06
-1.40929e+06
-1.40926e+06
-1.40923e+06
-1.4092e+06
-1.40917e+06
-1.40914e+06
-1.40911e+06
-1.40908e+06
-1.40905e+06
-1.40903e+06
-1.409e+06
-1.40897e+06
-1.40894e+06
-1.40891e+06
-1.40888e+06
-1.40885e+06
-1.40882e+06
-1.40879e+06
-1.40876e+06
-1.40873e+06
-1.4087e+06
-1.40867e+06
-1.40864e+06
-1.40861e+06
-1.40859e+06
-1.40856e+06
-1.40853e+06
-1.4085e+06
-1.40847e+06
-1.40844e+06
-1.40841e+06
-1.40838e+06
-1.40835e+06
-1.40832e+06
-1.40829e+06
-1.40826e+06
-1.40823e+06
-1.4082e+06
-1.40817e+06
-1.40814e+06
-1.40811e+06
-1.40808e+06
-1.40805e+06
-1.40802e+06
-1.40799e+06
-1.40796e+06
-1.40793e+06
-1.4079e+06
-1.40787e+06
-1.40785e+06
-1.40782e+06
-1.40779e+06
-1.40776e+06
-1.40773e+06
-1.4077e+06
-1.40767e+06
-1.40764e+06
-1.40761e+06
-1.40758e+06
-1.40755e+06
-1.40752e+06
-1.40749e+06
-1.40746e+06
-1.40743e+06
-1.4074e+06
-1.40737e+06
-1.40734e+06
-1.40731e+06
-1.40728e+06
-1.40725e+06
-1.40722e+06
-1.40719e+06
-1.40716e+06
-1.40713e+06
-1.4071e+06
-1.40707e+06
-1.40704e+06
-1.40701e+06
-1.40698e+06
-1.40695e+06
-1.40692e+06
-1.40689e+06
-1.40686e+06
-1.40683e+06
-1.4068e+06
-1.40677e+06
-1.40674e+06
-1.40671e+06
-1.40668e+06
-1.40665e+06
-1.40662e+06
-1.40659e+06
-1.40655e+06
-1.40652e+06
-1.40649e+06
-1.40646e+06
-1.40643e+06
-1.4064e+06
-1.40637e+06
-1.40634e+06
-1.40631e+06
-1.40628e+06
-1.40625e+06
-1.40622e+06
-1.40619e+06
-1.40616e+06
-1.40613e+06
-1.4061e+06
-1.40607e+06
-1.40604e+06
-1.40601e+06
-1.40598e+06
-1.40595e+06
-1.40592e+06
-1.40589e+06
-1.40586e+06
-1.40583e+06
-1.40579e+06
-1.40576e+06
-1.40573e+06
-1.4057e+06
-1.40567e+06
-1.40564e+06
-1.40561e+06
-1.40558e+06
-1.40555e+06
-1.40552e+06
-1.40549e+06
-1.40546e+06
-1.40543e+06
-1.4054e+06
-1.40537e+06
-1.40534e+06
-1.4053e+06
-1.40527e+06
-1.40524e+06
-1.40521e+06
-1.40518e+06
-1.40515e+06
-1.40512e+06
-1.40509e+06
-1.40506e+06
-1.40503e+06
-1.405e+06
-1.40497e+06
-1.40493e+06
-1.4049e+06
-1.40487e+06
-1.40484e+06
-1.40481e+06
-1.40478e+06
-1.40475e+06
-1.40472e+06
-1.40469e+06
-1.40466e+06
-1.40463e+06
-1.40459e+06
-1.40456e+06
-1.40453e+06
-1.4045e+06
-1.40447e+06
-1.40444e+06
-1.40441e+06
-1.40438e+06
-1.40435e+06
-1.40431e+06
-1.40428e+06
-1.40425e+06
-1.40422e+06
-1.40419e+06
-1.40416e+06
-1.40413e+06
-1.4041e+06
-1.40406e+06
-1.40403e+06
-1.404e+06
-1.40397e+06
-1.40394e+06
-1.40391e+06
-1.40388e+06
-1.40385e+06
-1.40381e+06
-1.40378e+06
-1.40375e+06
-1.40372e+06
-1.40369e+06
-1.40366e+06
-1.40363e+06
-1.4036e+06
-1.40356e+06
-1.40353e+06
-1.4035e+06
-1.40347e+06
-1.40344e+06
-1.40341e+06
-1.40338e+06
-1.40334e+06
-1.40331e+06
-1.40328e+06
-1.40325e+06
-1.40322e+06
-1.40319e+06
-1.40315e+06
-1.40312e+06
-1.40309e+06
-1.40306e+06
-1.40303e+06
-1.403e+06
-1.40296e+06
-1.40293e+06
-1.4029e+06
-1.40287e+06
-1.40284e+06
-1.40281e+06
-1.40277e+06
-1.40274e+06
-1.40271e+06
-1.40268e+06
-1.40265e+06
-1.40262e+06
-1.40258e+06
-1.40255e+06
-1.40252e+06
-1.40249e+06
-1.40246e+06
-1.40243e+06
-1.40239e+06
-1.40236e+06
-1.40233e+06
-1.4023e+06
-1.40227e+06
-1.40223e+06
-1.4022e+06
-1.40217e+06
-1.40214e+06
-1.40211e+06
-1.40207e+06
-1.40204e+06
-1.40201e+06
-1.40198e+06
-1.40195e+06
-1.40191e+06
-1.40188e+06
-1.40185e+06
-1.40182e+06
-1.40179e+06
-1.40175e+06
-1.40172e+06
-1.40169e+06
-1.40166e+06
-1.40163e+06
-1.40159e+06
-1.40156e+06
-1.40153e+06
-1.4015e+06
-1.40146e+06
-1.40143e+06
-1.4014e+06
-1.40137e+06
-1.40134e+06
-1.4013e+06
-1.40127e+06
-1.40124e+06
-1.40121e+06
-1.40117e+06
-1.40114e+06
-1.40111e+06
-1.40108e+06
-1.40105e+06
-1.40101e+06
-1.40098e+06
-1.40095e+06
-1.40092e+06
-1.40088e+06
-1.40085e+06
-1.40082e+06
-1.40079e+06
-1.40075e+06
-1.40072e+06
-1.40069e+06
-1.40066e+06
-1.40062e+06
-1.40059e+06
-1.40056e+06
-1.40053e+06
-1.40049e+06
-1.40046e+06
-1.40043e+06
-1.4004e+06
-1.40036e+06
-1.40033e+06
-1.4003e+06
-1.40027e+06
-1.40023e+06
-1.4002e+06
-1.40017e+06
-1.40013e+06
-1.4001e+06
-1.40007e+06
-1.40004e+06
-1.4e+06
-1.39997e+06
-1.39994e+06
-1.39991e+06
-1.39987e+06
-1.39984e+06
-1.39981e+06
-1.39977e+06
-1.39974e+06
-1.39971e+06
-1.39968e+06
-1.39964e+06
-1.39961e+06
-1.39958e+06
-1.39954e+06
-1.39951e+06
-1.39948e+06
-1.39945e+06
-1.39941e+06
-1.39938e+06
-1.39935e+06
-1.39931e+06
-1.39928e+06
-1.39925e+06
-1.39922e+06
-1.39918e+06
-1.39915e+06
-1.39912e+06
-1.39908e+06
-1.39905e+06
-1.39902e+06
-1.39898e+06
-1.39895e+06
-1.39892e+06
-1.39888e+06
-1.39885e+06
-1.39882e+06
-1.39878e+06
-1.39875e+06
-1.39872e+06
-1.39869e+06
-1.39865e+06
-1.39862e+06
-1.39859e+06
-1.39855e+06
-1.39852e+06
-1.39849e+06
-1.39845e+06
-1.39842e+06
-1.39839e+06
-1.39835e+06
-1.39832e+06
-1.39829e+06
-1.39825e+06
-1.39822e+06
-1.39819e+06
-1.39815e+06
-1.39812e+06
-1.39809e+06
-1.39805e+06
-1.39802e+06
-1.39799e+06
-1.39795e+06
-1.39792e+06
-1.39788e+06
-1.39785e+06
-1.39782e+06
-1.39778e+06
-1.39775e+06
-1.39772e+06
-1.39768e+06
-1.39765e+06
-1.39762e+06
-1.39758e+06
-1.39755e+06
-1.39752e+06
-1.39748e+06
-1.39745e+06
-1.39741e+06
-1.39738e+06
-1.39735e+06
-1.39731e+06
-1.39728e+06
-1.39725e+06
-1.39721e+06
-1.39718e+06
-1.39714e+06
-1.39711e+06
-1.39708e+06
-1.39704e+06
-1.39701e+06
-1.39698e+06
-1.39694e+06
-1.39691e+06
-1.39687e+06
-1.39684e+06
-1.39681e+06
-1.39677e+06
-1.39674e+06
-1.3967e+06
-1.39667e+06
-1.39664e+06
-1.3966e+06
-1.39657e+06
-1.39653e+06
-1.3965e+06
-1.39647e+06
-1.39643e+06
-1.3964e+06
-1.39636e+06
-1.39633e+06
-1.3963e+06
-1.39626e+06
-1.39623e+06
-1.39619e+06
-1.39616e+06
-1.39613e+06
-1.39609e+06
-1.39606e+06
-1.39602e+06
-1.39599e+06
-1.39596e+06
-1.39592e+06
-1.39589e+06
-1.39585e+06
-1.39582e+06
-1.39578e+06
-1.39575e+06
-1.39572e+06
-1.39568e+06
-1.39565e+06
-1.39561e+06
-1.39558e+06
-1.39554e+06
-1.39551e+06
-1.39547e+06
-1.39544e+06
-1.39541e+06
-1.39537e+06
-1.39534e+06
-1.3953e+06
-1.39527e+06
-1.39523e+06
-1.3952e+06
-1.39516e+06
-1.39513e+06
-1.3951e+06
-1.39506e+06
-1.39503e+06
-1.39499e+06
-1.39496e+06
-1.39492e+06
-1.39489e+06
-1.39485e+06
-1.39482e+06
-1.39478e+06
-1.39475e+06
-1.39471e+06
-1.39468e+06
-1.39465e+06
-1.39461e+06
-1.39458e+06
-1.39454e+06
-1.39451e+06
-1.39447e+06
-1.39444e+06
-1.3944e+06
-1.39437e+06
-1.39433e+06
-1.3943e+06
-1.39426e+06
-1.39423e+06
-1.39419e+06
-1.39416e+06
-1.39412e+06
-1.39409e+06
-1.39405e+06
-1.39402e+06
-1.39398e+06
-1.39395e+06
-1.39391e+06
-1.39388e+06
-1.39384e+06
-1.39381e+06
-1.39377e+06
-1.39374e+06
-1.3937e+06
-1.39367e+06
-1.39363e+06
-1.3936e+06
-1.39356e+06
-1.39353e+06
-1.39349e+06
-1.39346e+06
-1.39342e+06
-1.39339e+06
-1.39335e+06
-1.39332e+06
-1.39328e+06
-1.39325e+06
-1.39321e+06
-1.39318e+06
-1.39314e+06
-1.3931e+06
-1.39307e+06
-1.39303e+06
-1.393e+06
-1.39296e+06
-1.39293e+06
-1.39289e+06
-1.39286e+06
-1.39282e+06
-1.39279e+06
-1.39275e+06
-1.39272e+06
-1.39268e+06
-1.39264e+06
-1.39261e+06
-1.39257e+06
-1.39254e+06
-1.3925e+06
-1.39247e+06
-1.39243e+06
-1.3924e+06
-1.39236e+06
-1.39233e+06
-1.39229e+06
-1.39225e+06
-1.39222e+06
-1.39218e+06
-1.39215e+06
-1.39211e+06
-1.39208e+06
-1.39204e+06
-1.392e+06
-1.39197e+06
-1.39193e+06
-1.3919e+06
-1.39186e+06
-1.39183e+06
-1.39179e+06
-1.39175e+06
-1.39172e+06
-1.39168e+06
-1.39165e+06
-1.39161e+06
-1.39157e+06
-1.39154e+06
-1.3915e+06
-1.39147e+06
-1.39143e+06
-1.3914e+06
-1.39136e+06
-1.39132e+06
-1.39129e+06
-1.39125e+06
-1.39122e+06
-1.39118e+06
-1.39114e+06
-1.39111e+06
-1.39107e+06
-1.39104e+06
-1.391e+06
-1.39096e+06
-1.39093e+06
-1.39089e+06
-1.39085e+06
-1.39082e+06
-1.39078e+06
-1.39075e+06
-1.39071e+06
-1.39067e+06
-1.39064e+06
-1.3906e+06
-1.39057e+06
-1.39053e+06
-1.39049e+06
-1.39046e+06
-1.39042e+06
-1.39038e+06
-1.39035e+06
-1.39031e+06
-1.39028e+06
-1.39024e+06
-1.3902e+06
-1.39017e+06
-1.39013e+06
-1.39009e+06
-1.39006e+06
-1.39002e+06
-1.38998e+06
-1.38995e+06
-1.38991e+06
-1.38987e+06
-1.38984e+06
-1.3898e+06
-1.38977e+06
-1.38973e+06
-1.38969e+06
-1.38966e+06
-1.38962e+06
-1.38958e+06
-1.38955e+06
-1.38951e+06
-1.38947e+06
-1.38944e+06
-1.3894e+06
-1.38936e+06
-1.38933e+06
-1.38929e+06
-1.38925e+06
-1.38922e+06
-1.38918e+06
-1.38914e+06
-1.38911e+06
-1.38907e+06
-1.38903e+06
-1.38899e+06
-1.38896e+06
-1.38892e+06
-1.38888e+06
-1.38885e+06
-1.38881e+06
-1.38877e+06
-1.38874e+06
-1.3887e+06
-1.38866e+06
-1.38863e+06
-1.38859e+06
-1.38855e+06
-1.38852e+06
-1.38848e+06
-1.38844e+06
-1.3884e+06
-1.38837e+06
-1.38833e+06
-1.38829e+06
-1.38826e+06
-1.38822e+06
-1.38818e+06
-1.38814e+06
-1.38811e+06
-1.38807e+06
-1.38803e+06
-1.388e+06
-1.38796e+06
-1.38792e+06
-1.38788e+06
-1.38785e+06
-1.38781e+06
-1.38777e+06
-1.38774e+06
-1.3877e+06
-1.38766e+06
-1.38762e+06
-1.38759e+06
-1.38755e+06
-1.38751e+06
-1.38747e+06
-1.38744e+06
-1.3874e+06
-1.38736e+06
-1.38732e+06