/*--------------------------------*- C++ -*----------------------------------*\
  =========                 |
  \\      /  F ield         | OpenFOAM: The Open Source CFD Toolbox
   \\    /   O peration     | Website:  https://openfoam.org
    \\  /    A nd           | Version:  9
     \\/     M anipulation  |
\*---------------------------------------------------------------------------*/
FoamFile
{
    format      ascii;
    class       volScalarField;
    location    "0.028";
    object      p_0;
}
// * * * * * * * * * * * * * * * * * * * * * * * * * * * * * * * * * * * * * //

dimensions      [1 -1 -2 0 0 0 0];

internalField   nonuniform List<scalar> 
10000
(
21599.2
21599
21598.8
21598.6
21598.5
21598.3
21598.1
21598
21597.8
21597.6
21597.5
21597.3
21597.1
21597
21596.8
21596.6
21596.5
21596.3
21596.1
21596
21595.8
21595.6
21595.5
21595.3
21595.1
21595
21594.8
21594.6
21594.4
21594.3
21594.1
21593.9
21593.8
21593.6
21593.4
21593.3
21593.1
21592.9
21592.8
21592.6
21592.4
21592.3
21592.1
21591.9
21591.7
21591.6
21591.4
21591.2
21591.1
21590.9
21590.7
21590.6
21590.4
21590.2
21590.1
21589.9
21589.7
21589.5
21589.4
21589.2
21589
21588.9
21588.7
21588.5
21588.4
21588.2
21588
21587.8
21587.7
21587.5
21587.3
21587.2
21587
21586.8
21586.7
21586.5
21586.3
21586.1
21586
21585.8
21585.6
21585.5
21585.3
21585.1
21584.9
21584.8
21584.6
21584.4
21584.3
21584.1
21583.9
21583.7
21583.6
21583.4
21583.2
21583
21582.9
21582.7
21582.5
21582.4
21582.2
21582
21581.8
21581.7
21581.5
21581.3
21581.2
21581
21580.8
21580.6
21580.5
21580.3
21580.1
21579.9
21579.8
21579.6
21579.4
21579.2
21579.1
21578.9
21578.7
21578.6
21578.4
21578.2
21578
21577.9
21577.7
21577.5
21577.3
21577.2
21577
21576.8
21576.6
21576.5
21576.3
21576.1
21575.9
21575.8
21575.6
21575.4
21575.2
21575.1
21574.9
21574.7
21574.5
21574.4
21574.2
21574
21573.8
21573.7
21573.5
21573.3
21573.1
21573
21572.8
21572.6
21572.4
21572.3
21572.1
21571.9
21571.7
21571.5
21571.4
21571.2
21571
21570.8
21570.7
21570.5
21570.3
21570.1
21570
21569.8
21569.6
21569.4
21569.3
21569.1
21568.9
21568.7
21568.5
21568.4
21568.2
21568
21567.8
21567.7
21567.5
21567.3
21567.1
21566.9
21566.8
21566.6
21566.4
21566.2
21566.1
21565.9
21565.7
21565.5
21565.3
21565.2
21565
21564.8
21564.6
21564.4
21564.3
21564.1
21563.9
21563.7
21563.6
21563.4
21563.2
21563
21562.8
21562.7
21562.5
21562.3
21562.1
21561.9
21561.8
21561.6
21561.4
21561.2
21561
21560.9
21560.7
21560.5
21560.3
21560.1
21560
21559.8
21559.6
21559.4
21559.2
21559.1
21558.9
21558.7
21558.5
21558.3
21558.1
21558
21557.8
21557.6
21557.4
21557.2
21557.1
21556.9
21556.7
21556.5
21556.3
21556.2
21556
21555.8
21555.6
21555.4
21555.2
21555.1
21554.9
21554.7
21554.5
21554.3
21554.2
21554
21553.8
21553.6
21553.4
21553.2
21553.1
21552.9
21552.7
21552.5
21552.3
21552.1
21552
21551.8
21551.6
21551.4
21551.2
21551
21550.9
21550.7
21550.5
21550.3
21550.1
21549.9
21549.8
21549.6
21549.4
21549.2
21549
21548.8
21548.6
21548.5
21548.3
21548.1
21547.9
21547.7
21547.5
21547.4
21547.2
21547
21546.8
21546.6
21546.4
21546.2
21546.1
21545.9
21545.7
21545.5
21545.3
21545.1
21545
21544.8
21544.6
21544.4
21544.2
21544
21543.8
21543.7
21543.5
21543.3
21543.1
21542.9
21542.7
21542.5
21542.3
21542.2
21542
21541.8
21541.6
21541.4
21541.2
21541
21540.9
21540.7
21540.5
21540.3
21540.1
21539.9
21539.7
21539.5
21539.4
21539.2
21539
21538.8
21538.6
21538.4
21538.2
21538
21537.9
21537.7
21537.5
21537.3
21537.1
21536.9
21536.7
21536.5
21536.3
21536.2
21536
21535.8
21535.6
21535.4
21535.2
21535
21534.8
21534.6
21534.5
21534.3
21534.1
21533.9
21533.7
21533.5
21533.3
21533.1
21532.9
21532.8
21532.6
21532.4
21532.2
21532
21531.8
21531.6
21531.4
21531.2
21531
21530.9
21530.7
21530.5
21530.3
21530.1
21529.9
21529.7
21529.5
21529.3
21529.1
21528.9
21528.8
21528.6
21528.4
21528.2
21528
21527.8
21527.6
21527.4
21527.2
21527
21526.8
21526.7
21526.5
21526.3
21526.1
21525.9
21525.7
21525.5
21525.3
21525.1
21524.9
21524.7
21524.5
21524.3
21524.2
21524
21523.8
21523.6
21523.4
21523.2
21523
21522.8
21522.6
21522.4
21522.2
21522
21521.8
21521.6
21521.5
21521.3
21521.1
21520.9
21520.7
21520.5
21520.3
21520.1
21519.9
21519.7
21519.5
21519.3
21519.1
21518.9
21518.7
21518.5
21518.3
21518.2
21518
21517.8
21517.6
21517.4
21517.2
21517
21516.8
21516.6
21516.4
21516.2
21516
21515.8
21515.6
21515.4
21515.2
21515
21514.8
21514.6
21514.4
21514.2
21514.1
21513.9
21513.7
21513.5
21513.3
21513.1
21512.9
21512.7
21512.5
21512.3
21512.1
21511.9
21511.7
21511.5
21511.3
21511.1
21510.9
21510.7
21510.5
21510.3
21510.1
21509.9
21509.7
21509.5
21509.3
21509.1
21508.9
21508.7
21508.5
21508.3
21508.1
21507.9
21507.8
21507.6
21507.4
21507.2
21507
21506.8
21506.6
21506.4
21506.2
21506
21505.8
21505.6
21505.4
21505.2
21505
21504.8
21504.6
21504.4
21504.2
21504
21503.8
21503.6
21503.4
21503.2
21503
21502.8
21502.6
21502.4
21502.2
21502
21501.8
21501.6
21501.4
21501.2
21501
21500.8
21500.6
21500.4
21500.2
21500
21499.8
21499.6
21499.4
21499.2
21499
21498.8
21498.6
21498.4
21498.2
21498
21497.8
21497.6
21497.4
21497.2
21497
21496.8
21496.6
21496.4
21496.2
21496
21495.8
21495.6
21495.4
21495.1
21494.9
21494.7
21494.5
21494.3
21494.1
21493.9
21493.7
21493.5
21493.3
21493.1
21492.9
21492.7
21492.5
21492.3
21492.1
21491.9
21491.7
21491.5
21491.3
21491.1
21490.9
21490.7
21490.5
21490.3
21490.1
21489.9
21489.7
21489.5
21489.3
21489.1
21488.9
21488.7
21488.4
21488.2
21488
21487.8
21487.6
21487.4
21487.2
21487
21486.8
21486.6
21486.4
21486.2
21486
21485.8
21485.6
21485.4
21485.2
21485
21484.8
21484.6
21484.4
21484.1
21483.9
21483.7
21483.5
21483.3
21483.1
21482.9
21482.7
21482.5
21482.3
21482.1
21481.9
21481.7
21481.5
21481.3
21481.1
21480.8
21480.6
21480.4
21480.2
21480
21479.8
21479.6
21479.4
21479.2
21479
21478.8
21478.6
21478.4
21478.2
21477.9
21477.7
21477.5
21477.3
21477.1
21476.9
21476.7
21476.5
21476.3
21476.1
21475.9
21475.7
21475.5
21475.2
21475
21474.8
21474.6
21474.4
21474.2
21474
21473.8
21473.6
21473.4
21473.2
21473
21472.7
21472.5
21472.3
21472.1
21471.9
21471.7
21471.5
21471.3
21471.1
21470.9
21470.6
21470.4
21470.2
21470
21469.8
21469.6
21469.4
21469.2
21469
21468.8
21468.5
21468.3
21468.1
21467.9
21467.7
21467.5
21467.3
21467.1
21466.9
21466.6
21466.4
21466.2
21466
21465.8
21465.6
21465.4
21465.2
21465
21464.7
21464.5
21464.3
21464.1
21463.9
21463.7
21463.5
21463.3
21463.1
21462.8
21462.6
21462.4
21462.2
21462
21461.8
21461.6
21461.4
21461.1
21460.9
21460.7
21460.5
21460.3
21460.1
21459.9
21459.6
21459.4
21459.2
21459
21458.8
21458.6
21458.4
21458.2
21457.9
21457.7
21457.5
21457.3
21457.1
21456.9
21456.7
21456.4
21456.2
21456
21455.8
21455.6
21455.4
21455.2
21454.9
21454.7
21454.5
21454.3
21454.1
21453.9
21453.7
21453.4
21453.2
21453
21452.8
21452.6
21452.4
21452.1
21451.9
21451.7
21451.5
21451.3
21451.1
21450.9
21450.6
21450.4
21450.2
21450
21449.8
21449.6
21449.3
21449.1
21448.9
21448.7
21448.5
21448.3
21448
21447.8
21447.6
21447.4
21447.2
21447
21446.7
21446.5
21446.3
21446.1
21445.9
21445.7
21445.4
21445.2
21445
21444.8
21444.6
21444.3
21444.1
21443.9
21443.7
21443.5
21443.3
21443
21442.8
21442.6
21442.4
21442.2
21441.9
21441.7
21441.5
21441.3
21441.1
21440.9
21440.6
21440.4
21440.2
21440
21439.8
21439.5
21439.3
21439.1
21438.9
21438.7
21438.4
21438.2
21438
21437.8
21437.6
21437.3
21437.1
21436.9
21436.7
21436.5
21436.2
21436
21435.8
21435.6
21435.4
21435.1
21434.9
21434.7
21434.5
21434.3
21434
21433.8
21433.6
21433.4
21433.2
21432.9
21432.7
21432.5
21432.3
21432
21431.8
21431.6
21431.4
21431.2
21430.9
21430.7
21430.5
21430.3
21430.1
21429.8
21429.6
21429.4
21429.2
21428.9
21428.7
21428.5
21428.3
21428
21427.8
21427.6
21427.4
21427.2
21426.9
21426.7
21426.5
21426.3
21426
21425.8
21425.6
21425.4
21425.1
21424.9
21424.7
21424.5
21424.3
21424
21423.8
21423.6
21423.4
21423.1
21422.9
21422.7
21422.5
21422.2
21422
21421.8
21421.6
21421.3
21421.1
21420.9
21420.7
21420.4
21420.2
21420
21419.8
21419.5
21419.3
21419.1
21418.9
21418.6
21418.4
21418.2
21418
21417.7
21417.5
21417.3
21417.1
21416.8
21416.6
21416.4
21416.2
21415.9
21415.7
21415.5
21415.2
21415
21414.8
21414.6
21414.3
21414.1
21413.9
21413.7
21413.4
21413.2
21413
21412.8
21412.5
21412.3
21412.1
21411.8
21411.6
21411.4
21411.2
21410.9
21410.7
21410.5
21410.2
21410
21409.8
21409.6
21409.3
21409.1
21408.9
21408.7
21408.4
21408.2
21408
21407.7
21407.5
21407.3
21407.1
21406.8
21406.6
21406.4
21406.1
21405.9
21405.7
21405.4
21405.2
21405
21404.8
21404.5
21404.3
21404.1
21403.8
21403.6
21403.4
21403.1
21402.9
21402.7
21402.5
21402.2
21402
21401.8
21401.5
21401.3
21401.1
21400.8
21400.6
21400.4
21400.2
21399.9
21399.7
21399.5
21399.2
21399
21398.8
21398.5
21398.3
21398.1
21397.8
21397.6
21397.4
21397.1
21396.9
21396.7
21396.5
21396.2
21396
21395.8
21395.5
21395.3
21395.1
21394.8
21394.6
21394.4
21394.1
21393.9
21393.7
21393.4
21393.2
21393
21392.7
21392.5
21392.3
21392
21391.8
21391.6
21391.3
21391.1
21390.9
21390.6
21390.4
21390.2
21389.9
21389.7
21389.5
21389.2
21389
21388.8
21388.5
21388.3
21388.1
21387.8
21387.6
21387.4
21387.1
21386.9
21386.7
21386.4
21386.2
21385.9
21385.7
21385.5
21385.2
21385
21384.8
21384.5
21384.3
21384.1
21383.8
21383.6
21383.4
21383.1
21382.9
21382.7
21382.4
21382.2
21381.9
21381.7
21381.5
21381.2
21381
21380.8
21380.5
21380.3
21380.1
21379.8
21379.6
21379.3
21379.1
21378.9
21378.6
21378.4
21378.2
21377.9
21377.7
21377.4
21377.2
21377
21376.7
21376.5
21376.3
21376
21375.8
21375.5
21375.3
21375.1
21374.8
21374.6
21374.4
21374.1
21373.9
21373.6
21373.4
21373.2
21372.9
21372.7
21372.4
21372.2
21372
21371.7
21371.5
21371.3
21371
21370.8
21370.5
21370.3
21370.1
21369.8
21369.6
21369.3
21369.1
21368.9
21368.6
21368.4
21368.1
21367.9
21367.7
21367.4
21367.2
21366.9
21366.7
21366.5
21366.2
21366
21365.7
21365.5
21365.3
21365
21364.8
21364.5
21364.3
21364.1
21363.8
21363.6
21363.3
21363.1
21362.8
21362.6
21362.4
21362.1
21361.9
21361.6
21361.4
21361.2
21360.9
21360.7
21360.4
21360.2
21359.9
21359.7
21359.5
21359.2
21359
21358.7
21358.5
21358.2
21358
21357.8
21357.5
21357.3
21357
21356.8
21356.5
21356.3
21356.1
21355.8
21355.6
21355.3
21355.1
21354.8
21354.6
21354.4
21354.1
21353.9
21353.6
21353.4
21353.1
21352.9
21352.6
21352.4
21352.2
21351.9
21351.7
21351.4
21351.2
21350.9
21350.7
21350.4
21350.2
21350
21349.7
21349.5
21349.2
21349
21348.7
21348.5
21348.2
21348
21347.7
21347.5
21347.3
21347
21346.8
21346.5
21346.3
21346
21345.8
21345.5
21345.3
21345
21344.8
21344.5
21344.3
21344.1
21343.8
21343.6
21343.3
21343.1
21342.8
21342.6
21342.3
21342.1
21341.8
21341.6
21341.3
21341.1
21340.8
21340.6
21340.3
21340.1
21339.9
21339.6
21339.4
21339.1
21338.9
21338.6
21338.4
21338.1
21337.9
21337.6
21337.4
21337.1
21336.9
21336.6
21336.4
21336.1
21335.9
21335.6
21335.4
21335.1
21334.9
21334.6
21334.4
21334.1
21333.9
21333.6
21333.4
21333.1
21332.9
21332.6
21332.4
21332.1
21331.9
21331.6
21331.4
21331.1
21330.9
21330.6
21330.4
21330.1
21329.9
21329.6
21329.4
21329.1
21328.9
21328.6
21328.4
21328.1
21327.9
21327.6
21327.4
21327.1
21326.9
21326.6
21326.4
21326.1
21325.9
21325.6
21325.4
21325.1
21324.9
21324.6
21324.4
21324.1
21323.9
21323.6
21323.4
21323.1
21322.9
21322.6
21322.3
21322.1
21321.8
21321.6
21321.3
21321.1
21320.8
21320.6
21320.3
21320.1
21319.8
21319.6
21319.3
21319.1
21318.8
21318.6
21318.3
21318
21317.8
21317.5
21317.3
21317
21316.8
21316.5
21316.3
21316
21315.8
21315.5
21315.3
21315
21314.7
21314.5
21314.2
21314
21313.7
21313.5
21313.2
21313
21312.7
21312.5
21312.2
21311.9
21311.7
21311.4
21311.2
21310.9
21310.7
21310.4
21310.2
21309.9
21309.6
21309.4
21309.1
21308.9
21308.6
21308.4
21308.1
21307.9
21307.6
21307.3
21307.1
21306.8
21306.6
21306.3
21306.1
21305.8
21305.5
21305.3
21305
21304.8
21304.5
21304.3
21304
21303.7
21303.5
21303.2
21303
21302.7
21302.5
21302.2
21301.9
21301.7
21301.4
21301.2
21300.9
21300.6
21300.4
21300.1
21299.9
21299.6
21299.4
21299.1
21298.8
21298.6
21298.3
21298.1
21297.8
21297.5
21297.3
21297
21296.8
21296.5
21296.2
21296
21295.7
21295.5
21295.2
21295
21294.7
21294.4
21294.2
21293.9
21293.7
21293.4
21293.1
21292.9
21292.6
21292.4
21292.1
21291.8
21291.6
21291.3
21291
21290.8
21290.5
21290.3
21290
21289.7
21289.5
21289.2
21289
21288.7
21288.4
21288.2
21287.9
21287.7
21287.4
21287.1
21286.9
21286.6
21286.3
21286.1
21285.8
21285.6
21285.3
21285
21284.8
21284.5
21284.2
21284
21283.7
21283.5
21283.2
21282.9
21282.7
21282.4
21282.1
21281.9
21281.6
21281.4
21281.1
21280.8
21280.6
21280.3
21280
21279.8
21279.5
21279.3
21279
21278.7
21278.5
21278.2
21277.9
21277.7
21277.4
21277.1
21276.9
21276.6
21276.3
21276.1
21275.8
21275.6
21275.3
21275
21274.8
21274.5
21274.2
21274
21273.7
21273.4
21273.2
21272.9
21272.6
21272.4
21272.1
21271.8
21271.6
21271.3
21271
21270.8
21270.5
21270.2
21270
21269.7
21269.4
21269.2
21268.9
21268.6
21268.4
21268.1
21267.8
21267.6
21267.3
21267
21266.8
21266.5
21266.2
21266
21265.7
21265.4
21265.2
21264.9
21264.6
21264.4
21264.1
21263.8
21263.6
21263.3
21263
21262.8
21262.5
21262.2
21262
21261.7
21261.4
21261.2
21260.9
21260.6
21260.4
21260.1
21259.8
21259.6
21259.3
21259
21258.7
21258.5
21258.2
21257.9
21257.7
21257.4
21257.1
21256.9
21256.6
21256.3
21256.1
21255.8
21255.5
21255.2
21255
21254.7
21254.4
21254.2
21253.9
21253.6
21253.4
21253.1
21252.8
21252.5
21252.3
21252
21251.7
21251.5
21251.2
21250.9
21250.6
21250.4
21250.1
21249.8
21249.6
21249.3
21249
21248.7
21248.5
21248.2
21247.9
21247.7
21247.4
21247.1
21246.8
21246.6
21246.3
21246
21245.8
21245.5
21245.2
21244.9
21244.7
21244.4
21244.1
21243.9
21243.6
21243.3
21243
21242.8
21242.5
21242.2
21241.9
21241.7
21241.4
21241.1
21240.8
21240.6
21240.3
21240
21239.8
21239.5
21239.2
21238.9
21238.7
21238.4
21238.1
21237.8
21237.6
21237.3
21237
21236.7
21236.5
21236.2
21235.9
21235.6
21235.4
21235.1
21234.8
21234.5
21234.3
21234
21233.7
21233.4
21233.2
21232.9
21232.6
21232.3
21232.1
21231.8
21231.5
21231.2
21231
21230.7
21230.4
21230.1
21229.9
21229.6
21229.3
21229
21228.8
21228.5
21228.2
21227.9
21227.6
21227.4
21227.1
21226.8
21226.5
21226.3
21226
21225.7
21225.4
21225.2
21224.9
21224.6
21224.3
21224
21223.8
21223.5
21223.2
21222.9
21222.7
21222.4
21222.1
21221.8
21221.5
21221.3
21221
21220.7
21220.4
21220.2
21219.9
21219.6
21219.3
21219
21218.8
21218.5
21218.2
21217.9
21217.6
21217.4
21217.1
21216.8
21216.5
21216.2
21216
21215.7
21215.4
21215.1
21214.8
21214.6
21214.3
21214
21213.7
21213.4
21213.2
21212.9
21212.6
21212.3
21212
21211.8
21211.5
21211.2
21210.9
21210.6
21210.4
21210.1
21209.8
21209.5
21209.2
21209
21208.7
21208.4
21208.1
21207.8
21207.6
21207.3
21207
21206.7
21206.4
21206.1
21205.9
21205.6
21205.3
21205
21204.7
21204.5
21204.2
21203.9
21203.6
21203.3
21203
21202.8
21202.5
21202.2
21201.9
21201.6
21201.3
21201.1
21200.8
21200.5
21200.2
21199.9
21199.6
21199.4
21199.1
21198.8
21198.5
21198.2
21197.9
21197.7
21197.4
21197.1
21196.8
21196.5
21196.2
21196
21195.7
21195.4
21195.1
21194.8
21194.5
21194.2
21194
21193.7
21193.4
21193.1
21192.8
21192.5
21192.3
21192
21191.7
21191.4
21191.1
21190.8
21190.5
21190.3
21190
21189.7
21189.4
21189.1
21188.8
21188.5
21188.3
21188
21187.7
21187.4
21187.1
21186.8
21186.5
21186.2
21186
21185.7
21185.4
21185.1
21184.8
21184.5
21184.2
21184
21183.7
21183.4
21183.1
21182.8
21182.5
21182.2
21181.9
21181.7
21181.4
21181.1
21180.8
21180.5
21180.2
21179.9
21179.6
21179.3
21179.1
21178.8
21178.5
21178.2
21177.9
21177.6
21177.3
21177
21176.8
21176.5
21176.2
21175.9
21175.6
21175.3
21175
21174.7
21174.4
21174.2
21173.9
21173.6
21173.3
21173
21172.7
21172.4
21172.1
21171.8
21171.5
21171.3
21171
21170.7
21170.4
21170.1
21169.8
21169.5
21169.2
21168.9
21168.6
21168.3
21168.1
21167.8
21167.5
21167.2
21166.9
21166.6
21166.3
21166
21165.7
21165.4
21165.1
21164.9
21164.6
21164.3
21164
21163.7
21163.4
21163.1
21162.8
21162.5
21162.2
21161.9
21161.6
21161.4
21161.1
21160.8
21160.5
21160.2
21159.9
21159.6
21159.3
21159
21158.7
21158.4
21158.1
21157.8
21157.5
21157.2
21157
21156.7
21156.4
21156.1
21155.8
21155.5
21155.2
21154.9
21154.6
21154.3
21154
21153.7
21153.4
21153.1
21152.8
21152.5
21152.3
21152
21151.7
21151.4
21151.1
21150.8
21150.5
21150.2
21149.9
21149.6
21149.3
21149
21148.7
21148.4
21148.1
21147.8
21147.5
21147.2
21146.9
21146.6
21146.3
21146.1
21145.8
21145.5
21145.2
21144.9
21144.6
21144.3
21144
21143.7
21143.4
21143.1
21142.8
21142.5
21142.2
21141.9
21141.6
21141.3
21141
21140.7
21140.4
21140.1
21139.8
21139.5
21139.2
21138.9
21138.6
21138.3
21138
21137.7
21137.4
21137.1
21136.8
21136.5
21136.3
21136
21135.7
21135.4
21135.1
21134.8
21134.5
21134.2
21133.9
21133.6
21133.3
21133
21132.7
21132.4
21132.1
21131.8
21131.5
21131.2
21130.9
21130.6
21130.3
21130
21129.7
21129.4
21129.1
21128.8
21128.5
21128.2
21127.9
21127.6
21127.3
21127
21126.7
21126.4
21126.1
21125.8
21125.5
21125.2
21124.9
21124.6
21124.3
21124
21123.7
21123.4
21123.1
21122.8
21122.5
21122.2
21121.9
21121.6
21121.3
21121
21120.7
21120.4
21120.1
21119.8
21119.5
21119.1
21118.8
21118.5
21118.2
21117.9
21117.6
21117.3
21117
21116.7
21116.4
21116.1
21115.8
21115.5
21115.2
21114.9
21114.6
21114.3
21114
21113.7
21113.4
21113.1
21112.8
21112.5
21112.2
21111.9
21111.6
21111.3
21111
21110.7
21110.4
21110.1
21109.8
21109.5
21109.1
21108.8
21108.5
21108.2
21107.9
21107.6
21107.3
21107
21106.7
21106.4
21106.1
21105.8
21105.5
21105.2
21104.9
21104.6
21104.3
21104
21103.7
21103.4
21103
21102.7
21102.4
21102.1
21101.8
21101.5
21101.2
21100.9
21100.6
21100.3
21100
21099.7
21099.4
21099.1
21098.8
21098.5
21098.2
21097.8
21097.5
21097.2
21096.9
21096.6
21096.3
21096
21095.7
21095.4
21095.1
21094.8
21094.5
21094.2
21093.9
21093.5
21093.2
21092.9
21092.6
21092.3
21092
21091.7
21091.4
21091.1
21090.8
21090.5
21090.2
21089.8
21089.5
21089.2
21088.9
21088.6
21088.3
21088
21087.7
21087.4
21087.1
21086.8
21086.5
21086.1
21085.8
21085.5
21085.2
21084.9
21084.6
21084.3
21084
21083.7
21083.4
21083
21082.7
21082.4
21082.1
21081.8
21081.5
21081.2
21080.9
21080.6
21080.3
21079.9
21079.6
21079.3
21079
21078.7
21078.4
21078.1
21077.8
21077.5
21077.1
21076.8
21076.5
21076.2
21075.9
21075.6
21075.3
21075
21074.7
21074.3
21074
21073.7
21073.4
21073.1
21072.8
21072.5
21072.2
21071.8
21071.5
21071.2
21070.9
21070.6
21070.3
21070
21069.7
21069.3
21069
21068.7
21068.4
21068.1
21067.8
21067.5
21067.2
21066.8
21066.5
21066.2
21065.9
21065.6
21065.3
21065
21064.6
21064.3
21064
21063.7
21063.4
21063.1
21062.8
21062.4
21062.1
21061.8
21061.5
21061.2
21060.9
21060.6
21060.2
21059.9
21059.6
21059.3
21059
21058.7
21058.4
21058
21057.7
21057.4
21057.1
21056.8
21056.5
21056.1
21055.8
21055.5
21055.2
21054.9
21054.6
21054.3
21053.9
21053.6
21053.3
21053
21052.7
21052.4
21052
21051.7
21051.4
21051.1
21050.8
21050.5
21050.1
21049.8
21049.5
21049.2
21048.9
21048.6
21048.2
21047.9
21047.6
21047.3
21047
21046.6
21046.3
21046
21045.7
21045.4
21045.1
21044.7
21044.4
21044.1
21043.8
21043.5
21043.1
21042.8
21042.5
21042.2
21041.9
21041.6
21041.2
21040.9
21040.6
21040.3
21040
21039.6
21039.3
21039
21038.7
21038.4
21038
21037.7
21037.4
21037.1
21036.8
21036.4
21036.1
21035.8
21035.5
21035.2
21034.8
21034.5
21034.2
21033.9
21033.6
21033.2
21032.9
21032.6
21032.3
21032
21031.6
21031.3
21031
21030.7
21030.4
21030
21029.7
21029.4
21029.1
21028.8
21028.4
21028.1
21027.8
21027.5
21027.1
21026.8
21026.5
21026.2
21025.9
21025.5
21025.2
21024.9
21024.6
21024.2
21023.9
21023.6
21023.3
21023
21022.6
21022.3
21022
21021.7
21021.3
21021
21020.7
21020.4
21020.1
21019.7
21019.4
21019.1
21018.8
21018.4
21018.1
21017.8
21017.5
21017.1
21016.8
21016.5
21016.2
21015.8
21015.5
21015.2
21014.9
21014.5
21014.2
21013.9
21013.6
21013.2
21012.9
21012.6
21012.3
21011.9
21011.6
21011.3
21011
21010.6
21010.3
21010
21009.7
21009.3
21009
21008.7
21008.4
21008
21007.7
21007.4
21007.1
21006.7
21006.4
21006.1
21005.8
21005.4
21005.1
21004.8
21004.5
21004.1
21003.8
21003.5
21003.2
21002.8
21002.5
21002.2
21001.8
21001.5
21001.2
21000.9
21000.5
21000.2
20999.9
20999.6
20999.2
20998.9
20998.6
20998.2
20997.9
20997.6
20997.3
20996.9
20996.6
20996.3
20996
20995.6
20995.3
20995
20994.6
20994.3
20994
20993.7
20993.3
20993
20992.7
20992.3
20992
20991.7
20991.4
20991
20990.7
20990.4
20990
20989.7
20989.4
20989
20988.7
20988.4
20988.1
20987.7
20987.4
20987.1
20986.7
20986.4
20986.1
20985.8
20985.4
20985.1
20984.8
20984.4
20984.1
20983.8
20983.4
20983.1
20982.8
20982.4
20982.1
20981.8
20981.5
20981.1
20980.8
20980.5
20980.1
20979.8
20979.5
20979.1
20978.8
20978.5
20978.1
20977.8
20977.5
20977.1
20976.8
20976.5
20976.1
20975.8
20975.5
20975.2
20974.8
20974.5
20974.2
20973.8
20973.5
20973.2
20972.8
20972.5
20972.2
20971.8
20971.5
20971.2
20970.8
20970.5
20970.2
20969.8
20969.5
20969.2
20968.8
20968.5
20968.2
20967.8
20967.5
20967.2
20966.8
20966.5
20966.2
20965.8
20965.5
20965.2
20964.8
20964.5
20964.2
20963.8
20963.5
20963.2
20962.8
20962.5
20962.1
20961.8
20961.5
20961.1
20960.8
20960.5
20960.1
20959.8
20959.5
20959.1
20958.8
20958.5
20958.1
20957.8
20957.5
20957.1
20956.8
20956.4
20956.1
20955.8
20955.4
20955.1
20954.8
20954.4
20954.1
20953.8
20953.4
20953.1
20952.7
20952.4
20952.1
20951.7
20951.4
20951.1
20950.7
20950.4
20950.1
20949.7
20949.4
20949
20948.7
20948.4
20948
20947.7
20947.4
20947
20946.7
20946.3
20946
20945.7
20945.3
20945
20944.7
20944.3
20944
20943.6
20943.3
20943
20942.6
20942.3
20941.9
20941.6
20941.3
20940.9
20940.6
20940.3
20939.9
20939.6
20939.2
20938.9
20938.6
20938.2
20937.9
20937.5
20937.2
20936.9
20936.5
20936.2
20935.8
20935.5
20935.2
20934.8
20934.5
20934.1
20933.8
20933.5
20933.1
20932.8
20932.4
20932.1
20931.8
20931.4
20931.1
20930.7
20930.4
20930.1
20929.7
20929.4
20929
20928.7
20928.4
20928
20927.7
20927.3
20927
20926.6
20926.3
20926
20925.6
20925.3
20924.9
20924.6
20924.3
20923.9
20923.6
20923.2
20922.9
20922.5
20922.2
20921.9
20921.5
20921.2
20920.8
20920.5
20920.1
20919.8
20919.5
20919.1
20918.8
20918.4
20918.1
20917.7
20917.4
20917.1
20916.7
20916.4
20916
20915.7
20915.3
20915
20914.7
20914.3
20914
20913.6
20913.3
20912.9
20912.6
20912.2
20911.9
20911.6
20911.2
20910.9
20910.5
20910.2
20909.8
20909.5
20909.1
20908.8
20908.5
20908.1
20907.8
20907.4
20907.1
20906.7
20906.4
20906
20905.7
20905.4
20905
20904.7
20904.3
20904
20903.6
20903.3
20902.9
20902.6
20902.2
20901.9
20901.5
20901.2
20900.9
20900.5
20900.2
20899.8
20899.5
20899.1
20898.8
20898.4
20898.1
20897.7
20897.4
20897
20896.7
20896.4
20896
20895.7
20895.3
20895
20894.6
20894.3
20893.9
20893.6
20893.2
20892.9
20892.5
20892.2
20891.8
20891.5
20891.1
20890.8
20890.4
20890.1
20889.7
20889.4
20889.1
20888.7
20888.4
20888
20887.7
20887.3
20887
20886.6
20886.3
20885.9
20885.6
20885.2
20884.9
20884.5
20884.2
20883.8
20883.5
20883.1
20882.8
20882.4
20882.1
20881.7
20881.4
20881
20880.7
20880.3
20880
20879.6
20879.3
20878.9
20878.6
20878.2
20877.9
20877.5
20877.2
20876.8
20876.5
20876.1
20875.8
20875.4
20875.1
20874.7
20874.4
20874
20873.7
20873.3
20873
20872.6
20872.3
20871.9
20871.6
20871.2
20870.9
20870.5
20870.2
20869.8
20869.5
20869.1
20868.8
20868.4
20868
20867.7
20867.3
20867
20866.6
20866.3
20865.9
20865.6
20865.2
20864.9
20864.5
20864.2
20863.8
20863.5
20863.1
20862.8
20862.4
20862.1
20861.7
20861.4
20861
20860.6
20860.3
20859.9
20859.6
20859.2
20858.9
20858.5
20858.2
20857.8
20857.5
20857.1
20856.8
20856.4
20856
20855.7
20855.3
20855
20854.6
20854.3
20853.9
20853.6
20853.2
20852.9
20852.5
20852.2
20851.8
20851.4
20851.1
20850.7
20850.4
20850
20849.7
20849.3
20849
20848.6
20848.3
20847.9
20847.5
20847.2
20846.8
20846.5
20846.1
20845.8
20845.4
20845.1
20844.7
20844.3
20844
20843.6
20843.3
20842.9
20842.6
20842.2
20841.8
20841.5
20841.1
20840.8
20840.4
20840.1
20839.7
20839.4
20839
20838.6
20838.3
20837.9
20837.6
20837.2
20836.9
20836.5
20836.1
20835.8
20835.4
20835.1
20834.7
20834.4
20834
20833.6
20833.3
20832.9
20832.6
20832.2
20831.9
20831.5
20831.1
20830.8
20830.4
20830.1
20829.7
20829.3
20829
20828.6
20828.3
20827.9
20827.6
20827.2
20826.8
20826.5
20826.1
20825.8
20825.4
20825
20824.7
20824.3
20824
20823.6
20823.3
20822.9
20822.5
20822.2
20821.8
20821.5
20821.1
20820.7
20820.4
20820
20819.7
20819.3
20818.9
20818.6
20818.2
20817.9
20817.5
20817.1
20816.8
20816.4
20816.1
20815.7
20815.3
20815
20814.6
20814.3
20813.9
20813.5
20813.2
20812.8
20812.5
20812.1
20811.7
20811.4
20811
20810.6
20810.3
20809.9
20809.6
20809.2
20808.8
20808.5
20808.1
20807.8
20807.4
20807
20806.7
20806.3
20806
20805.6
20805.2
20804.9
20804.5
20804.1
20803.8
20803.4
20803.1
20802.7
20802.3
20802
20801.6
20801.2
20800.9
20800.5
20800.2
20799.8
20799.4
20799.1
20798.7
20798.3
20798
20797.6
20797.3
20796.9
20796.5
20796.2
20795.8
20795.4
20795.1
20794.7
20794.4
20794
20793.6
20793.3
20792.9
20792.5
20792.2
20791.8
20791.4
20791.1
20790.7
20790.4
20790
20789.6
20789.3
20788.9
20788.5
20788.2
20787.8
20787.4
20787.1
20786.7
20786.3
20786
20785.6
20785.3
20784.9
20784.5
20784.2
20783.8
20783.4
20783.1
20782.7
20782.3
20782
20781.6
20781.2
20780.9
20780.5
20780.1
20779.8
20779.4
20779.1
20778.7
20778.3
20778
20777.6
20777.2
20776.9
20776.5
20776.1
20775.8
20775.4
20775
20774.7
20774.3
20773.9
20773.6
20773.2
20772.8
20772.5
20772.1
20771.7
20771.4
20771
20770.6
20770.3
20769.9
20769.5
20769.2
20768.8
20768.4
20768.1
20767.7
20767.3
20767
20766.6
20766.2
20765.9
20765.5
20765.1
20764.8
20764.4
20764
20763.7
20763.3
20762.9
20762.6
20762.2
20761.8
20761.5
20761.1
20760.7
20760.4
20760
20759.6
20759.3
20758.9
20758.5
20758.2
20757.8
20757.4
20757
20756.7
20756.3
20755.9
20755.6
20755.2
20754.8
20754.5
20754.1
20753.7
20753.4
20753
20752.6
20752.3
20751.9
20751.5
20751.2
20750.8
20750.4
20750
20749.7
20749.3
20748.9
20748.6
20748.2
20747.8
20747.5
20747.1
20746.7
20746.4
20746
20745.6
20745.2
20744.9
20744.5
20744.1
20743.8
20743.4
20743
20742.7
20742.3
20741.9
20741.6
20741.2
20740.8
20740.4
20740.1
20739.7
20739.3
20739
20738.6
20738.2
20737.9
20737.5
20737.1
20736.7
20736.4
20736
20735.6
20735.3
20734.9
20734.5
20734.2
20733.8
20733.4
20733
20732.7
20732.3
20731.9
20731.6
20731.2
20730.8
20730.4
20730.1
20729.7
20729.3
20729
20728.6
20728.2
20727.8
20727.5
20727.1
20726.7
20726.4
20726
20725.6
20725.3
20724.9
20724.5
20724.1
20723.8
20723.4
20723
20722.7
20722.3
20721.9
20721.5
20721.2
20720.8
20720.4
20720
20719.7
20719.3
20718.9
20718.6
20718.2
20717.8
20717.4
20717.1
20716.7
20716.3
20716
20715.6
20715.2
20714.8
20714.5
20714.1
20713.7
20713.4
20713
20712.6
20712.2
20711.9
20711.5
20711.1
20710.7
20710.4
20710
20709.6
20709.3
20708.9
20708.5
20708.1
20707.8
20707.4
20707
20706.6
20706.3
20705.9
20705.5
20705.2
20704.8
20704.4
20704
20703.7
20703.3
20702.9
20702.5
20702.2
20701.8
20701.4
20701.1
20700.7
20700.3
20699.9
20699.6
20699.2
20698.8
20698.4
20698.1
20697.7
20697.3
20696.9
20696.6
20696.2
20695.8
20695.5
20695.1
20694.7
20694.3
20694
20693.6
20693.2
20692.8
20692.5
20692.1
20691.7
20691.3
20691
20690.6
20690.2
20689.9
20689.5
20689.1
20688.7
20688.4
20688
20687.6
20687.2
20686.9
20686.5
20686.1
20685.7
20685.4
20685
20684.6
20684.2
20683.9
20683.5
20683.1
20682.7
20682.4
20682
20681.6
20681.3
20680.9
20680.5
20680.1
20679.8
20679.4
20679
20678.6
20678.3
20677.9
20677.5
20677.1
20676.8
20676.4
20676
20675.6
20675.3
20674.9
20674.5
20674.1
20673.8
20673.4
20673
20672.6
20672.3
20671.9
20671.5
20671.1
20670.8
20670.4
20670
20669.7
20669.3
20668.9
20668.5
20668.2
20667.8
20667.4
20667
20666.7
20666.3
20665.9
20665.5
20665.2
20664.8
20664.4
20664
20663.7
20663.3
20662.9
20662.5
20662.2
20661.8
20661.4
20661
20660.7
20660.3
20659.9
20659.5
20659.2
20658.8
20658.4
20658
20657.7
20657.3
20656.9
20656.6
20656.2
20655.8
20655.4
20655.1
20654.7
20654.3
20653.9
20653.6
20653.2
20652.8
20652.4
20652.1
20651.7
20651.3
20650.9
20650.6
20650.2
20649.8
20649.4
20649.1
20648.7
20648.3
20647.9
20647.6
20647.2
20646.8
20646.4
20646.1
20645.7
20645.3
20645
20644.6
20644.2
20643.8
20643.5
20643.1
20642.7
20642.3
20642
20641.6
20641.2
20640.8
20640.5
20640.1
20639.7
20639.3
20639
20638.6
20638.2
20637.9
20637.5
20637.1
20636.7
20636.4
20636
20635.6
20635.2
20634.9
20634.5
20634.1
20633.7
20633.4
20633
20632.6
20632.3
20631.9
20631.5
20631.1
20630.8
20630.4
20630
20629.6
20629.3
20628.9
20628.5
20628.1
20627.8
20627.4
20627
20626.7
20626.3
20625.9
20625.5
20625.2
20624.8
20624.4
20624.1
20623.7
20623.3
20622.9
20622.6
20622.2
20621.8
20621.4
20621.1
20620.7
20620.3
20620
20619.6
20619.2
20618.8
20618.5
20618.1
20617.7
20617.4
20617
20616.6
20616.2
20615.9
20615.5
20615.1
20614.8
20614.4
20614
20613.6
20613.3
20612.9
20612.5
20612.2
20611.8
20611.4
20611
20610.7
20610.3
20609.9
20609.6
20609.2
20608.8
20608.5
20608.1
20607.7
20607.3
20607
20606.6
20606.2
20605.9
20605.5
20605.1
20604.8
20604.4
20604
20603.6
20603.3
20602.9
20602.5
20602.2
20601.8
20601.4
20601.1
20600.7
20600.3
20600
20599.6
20599.2
20598.9
20598.5
20598.1
20597.7
20597.4
20597
20596.6
20596.3
20595.9
20595.5
20595.2
20594.8
20594.4
20594.1
20593.7
20593.3
20593
20592.6
20592.2
20591.9
20591.5
20591.1
20590.8
20590.4
20590
20589.7
20589.3
20588.9
20588.6
20588.2
20587.8
20587.5
20587.1
20586.8
20586.4
20586
20585.7
20585.3
20584.9
20584.6
20584.2
20583.8
20583.5
20583.1
20582.7
20582.4
20582
20581.7
20581.3
20580.9
20580.6
20580.2
20579.8
20579.5
20579.1
20578.7
20578.4
20578
20577.7
20577.3
20576.9
20576.6
20576.2
20575.9
20575.5
20575.1
20574.8
20574.4
20574
20573.7
20573.3
20573
20572.6
20572.2
20571.9
20571.5
20571.2
20570.8
20570.4
20570.1
20569.7
20569.4
20569
20568.7
20568.3
20567.9
20567.6
20567.2
20566.9
20566.5
20566.2
20565.8
20565.4
20565.1
20564.7
20564.4
20564
20563.7
20563.3
20562.9
20562.6
20562.2
20561.9
20561.5
20561.2
20560.8
20560.5
20560.1
20559.8
20559.4
20559
20558.7
20558.3
20558
20557.6
20557.3
20556.9
20556.6
20556.2
20555.9
20555.5
20555.2
20554.8
20554.5
20554.1
20553.8
20553.4
20553.1
20552.7
20552.4
20552
20551.7
20551.3
20551
20550.6
20550.3
20549.9
20549.6
20549.2
20548.9
20548.5
20548.2
20547.9
20547.5
20547.2
20546.8
20546.5
20546.1
20545.8
20545.4
20545.1
20544.7
20544.4
20544.1
20543.7
20543.4
20543
20542.7
20542.3
20542
20541.7
20541.3
20541
20540.6
20540.3
20540
20539.6
20539.3
20538.9
20538.6
20538.3
20537.9
20537.6
20537.3
20536.9
20536.6
20536.2
20535.9
20535.6
20535.2
20534.9
20534.6
20534.2
20533.9
20533.6
20533.2
20532.9
20532.6
20532.2
20531.9
20531.6
20531.2
20530.9
20530.6
20530.3
20529.9
20529.6