/*--------------------------------*- C++ -*----------------------------------*\
  =========                 |
  \\      /  F ield         | OpenFOAM: The Open Source CFD Toolbox
   \\    /   O peration     | Website:  https://openfoam.org
    \\  /    A nd           | Version:  9
     \\/     M anipulation  |
\*---------------------------------------------------------------------------*/
FoamFile
{
    format      ascii;
    class       surfaceScalarField;
    location    "0.028";
    object      phi_0;
}
// * * * * * * * * * * * * * * * * * * * * * * * * * * * * * * * * * * * * * //

dimensions      [1 0 -1 0 0 0 0];

internalField   nonuniform List<scalar> 
9999
(
6.64067
6.70424
6.7678
6.83137
6.89493
6.95849
7.02205
7.0856
7.14915
7.2127
7.27625
7.33978
7.40332
7.46686
7.5304
7.59393
7.65746
7.72098
7.7845
7.84802
7.91154
7.97506
8.03858
8.10208
8.16558
8.22907
8.29257
8.35608
8.41958
8.48309
8.54659
8.61008
8.67355
8.73702
8.80048
8.86395
8.92743
8.99092
9.05441
9.11791
9.1814
9.24488
9.30834
9.37178
9.43521
9.49863
9.56204
9.62546
9.68888
9.75232
9.81578
9.87926
9.94275
10.0063
10.0698
10.1334
10.1969
10.2605
10.3241
10.3877
10.4513
10.5149
10.5785
10.6421
10.7057
10.7694
10.833
10.8966
10.9602
11.0239
11.0875
11.1511
11.2147
11.2783
11.342
11.4056
11.4692
11.5328
11.5964
11.6601
11.7237
11.7873
11.8509
11.9145
11.9781
12.0417
12.1054
12.169
12.2326
12.2962
12.3598
12.4234
12.487
12.5507
12.6143
12.6779
12.7415
12.8051
12.8687
12.9323
12.9959
13.0595
13.1232
13.1868
13.2504
13.314
13.3776
13.4412
13.5048
13.5684
13.632
13.6956
13.7592
13.8228
13.8864
13.95
14.0136
14.0773
14.1409
14.2045
14.2681
14.3317
14.3953
14.4589
14.5225
14.5861
14.6497
14.7133
14.7769
14.8405
14.9041
14.9677
15.0313
15.0949
15.1585
15.2221
15.2857
15.3492
15.4128
15.4764
15.54
15.6036
15.6672
15.7308
15.7944
15.858
15.9216
15.9852
16.0488
16.1124
16.176
16.2396
16.3031
16.3667
16.4303
16.4939
16.5575
16.6211
16.6847
16.7483
16.8119
16.8754
16.939
17.0026
17.0662
17.1298
17.1934
17.257
17.3205
17.3841
17.4477
17.5113
17.5749
17.6385
17.702
17.7656
17.8292
17.8928
17.9564
18.0199
18.0835
18.1471
18.2107
18.2743
18.3378
18.4014
18.465
18.5286
18.5921
18.6557
18.7193
18.7829
18.8464
18.91
18.9736
19.0372
19.1007
19.1643
19.2279
19.2914
19.355
19.4186
19.4822
19.5457
19.6093
19.6729
19.7364
19.8
19.8636
19.9271
19.9907
20.0543
20.1178
20.1814
20.245
20.3085
20.3721
20.4357
20.4992
20.5628
20.6264
20.6899
20.7535
20.817
20.8806
20.9442
21.0077
21.0713
21.1348
21.1984
21.262
21.3255
21.3891
21.4526
21.5162
21.5798
21.6433
21.7069
21.7704
21.834
21.8975
21.9611
22.0246
22.0882
22.1517
22.2153
22.2788
22.3424
22.4059
22.4695
22.533
22.5966
22.6601
22.7237
22.7872
22.8508
22.9143
22.9779
23.0414
23.105
23.1685
23.2321
23.2956
23.3592
23.4227
23.4862
23.5498
23.6133
23.6769
23.7404
23.804
23.8675
23.931
23.9946
24.0581
24.1217
24.1852
24.2487
24.3123
24.3758
24.4393
24.5029
24.5664
24.63
24.6935
24.757
24.8206
24.8841
24.9476
25.0112
25.0747
25.1382
25.2018
25.2653
25.3288
25.3923
25.4559
25.5194
25.5829
25.6465
25.71
25.7735
25.837
25.9006
25.9641
26.0276
26.0911
26.1547
26.2182
26.2817
26.3452
26.4088
26.4723
26.5358
26.5993
26.6629
26.7264
26.7899
26.8534
26.9169
26.9805
27.044
27.1075
27.171
27.2345
27.298
27.3616
27.4251
27.4886
27.5521
27.6156
27.6791
27.7426
27.8062
27.8697
27.9332
27.9967
28.0602
28.1237
28.1872
28.2507
28.3142
28.3777
28.4413
28.5048
28.5683
28.6318
28.6953
28.7588
28.8223
28.8858
28.9493
29.0128
29.0763
29.1398
29.2033
29.2668
29.3303
29.3938
29.4573
29.5208
29.5843
29.6478
29.7113
29.7748
29.8383
29.9018
29.9653
30.0288
30.0923
30.1558
30.2193
30.2828
30.3463
30.4098
30.4733
30.5367
30.6002
30.6637
30.7272
30.7907
30.8542
30.9177
30.9812
31.0447
31.1081
31.1716
31.2351
31.2986
31.3621
31.4256
31.4891
31.5525
31.616
31.6795
31.743
31.8065
31.87
31.9334
31.9969
32.0604
32.1239
32.1874
32.2508
32.3143
32.3778
32.4413
32.5047
32.5682
32.6317
32.6952
32.7586
32.8221
32.8856
32.9491
33.0125
33.076
33.1395
33.203
33.2664
33.3299
33.3934
33.4568
33.5203
33.5838
33.6472
33.7107
33.7742
33.8376
33.9011
33.9646
34.028
34.0915
34.155
34.2184
34.2819
34.3453
34.4088
34.4723
34.5357
34.5992
34.6626
34.7261
34.7896
34.853
34.9165
34.9799
35.0434
35.1068
35.1703
35.2338
35.2972
35.3607
35.4241
35.4876
35.551
35.6145
35.6779
35.7414
35.8048
35.8683
35.9317
35.9952
36.0586
36.1221
36.1855
36.249
36.3124
36.3758
36.4393
36.5027
36.5662
36.6296
36.6931
36.7565
36.8199
36.8834
36.9468
37.0103
37.0737
37.1371
37.2006
37.264
37.3275
37.3909
37.4543
37.5178
37.5812
37.6446
37.7081
37.7715
37.8349
37.8984
37.9618
38.0252
38.0887
38.1521
38.2155
38.2789
38.3424
38.4058
38.4692
38.5327
38.5961
38.6595
38.7229
38.7864
38.8498
38.9132
38.9766
39.04
39.1035
39.1669
39.2303
39.2937
39.3572
39.4206
39.484
39.5474
39.6108
39.6742
39.7377
39.8011
39.8645
39.9279
39.9913
40.0547
40.1181
40.1816
40.245
40.3084
40.3718
40.4352
40.4986
40.562
40.6254
40.6888
40.7522
40.8156
40.8791
40.9425
41.0059
41.0693
41.1327
41.1961
41.2595
41.3229
41.3863
41.4497
41.5131
41.5765
41.6399
41.7033
41.7667
41.8301
41.8935
41.9569
42.0203
42.0837
42.1471
42.2104
42.2738
42.3372
42.4006
42.464
42.5274
42.5908
42.6542
42.7176
42.781
42.8444
42.9077
42.9711
43.0345
43.0979
43.1613
43.2247
43.2881
43.3514
43.4148
43.4782
43.5416
43.605
43.6684
43.7317
43.7951
43.8585
43.9219
43.9852
44.0486
44.112
44.1754
44.2388
44.3021
44.3655
44.4289
44.4923
44.5556
44.619
44.6824
44.7457
44.8091
44.8725
44.9358
44.9992
45.0626
45.1259
45.1893
45.2527
45.316
45.3794
45.4428
45.5061
45.5695
45.6329
45.6962
45.7596
45.8229
45.8863
45.9497
46.013
46.0764
46.1397
46.2031
46.2665
46.3298
46.3932
46.4565
46.5199
46.5832
46.6466
46.7099
46.7733
46.8366
46.9
46.9633
47.0267
47.09
47.1534
47.2167
47.2801
47.3434
47.4068
47.4701
47.5335
47.5968
47.6601
47.7235
47.7868
47.8502
47.9135
47.9768
48.0402
48.1035
48.1669
48.2302
48.2935
48.3569
48.4202
48.4835
48.5469
48.6102
48.6735
48.7369
48.8002
48.8635
48.9269
48.9902
49.0535
49.1169
49.1802
49.2435
49.3068
49.3702
49.4335
49.4968
49.5601
49.6235
49.6868
49.7501
49.8134
49.8768
49.9401
50.0034
50.0667
50.13
50.1933
50.2567
50.32
50.3833
50.4466
50.5099
50.5732
50.6366
50.6999
50.7632
50.8265
50.8898
50.9531
51.0164
51.0797
51.143
51.2064
51.2697
51.333
51.3963
51.4596
51.5229
51.5862
51.6495
51.7128
51.7761
51.8394
51.9027
51.966
52.0293
52.0926
52.1559
52.2192
52.2825
52.3458
52.4091
52.4724
52.5357
52.599
52.6623
52.7256
52.7888
52.8521
52.9154
52.9787
53.042
53.1053
53.1686
53.2319
53.2952
53.3584
53.4217
53.485
53.5483
53.6116
53.6749
53.7381
53.8014
53.8647
53.928
53.9913
54.0546
54.1178
54.1811
54.2444
54.3077
54.3709
54.4342
54.4975
54.5608
54.624
54.6873
54.7506
54.8138
54.8771
54.9404
55.0037
55.0669
55.1302
55.1935
55.2567
55.32
55.3833
55.4465
55.5098
55.573
55.6363
55.6996
55.7628
55.8261
55.8893
55.9526
56.0159
56.0791
56.1424
56.2056
56.2689
56.3321
56.3954
56.4587
56.5219
56.5852
56.6484
56.7117
56.7749
56.8382
56.9014
56.9647
57.0279
57.0912
57.1544
57.2176
57.2809
57.3441
57.4074
57.4706
57.5339
57.5971
57.6603
57.7236
57.7868
57.8501
57.9133
57.9765
58.0398
58.103
58.1662
58.2295
58.2927
58.3559
58.4192
58.4824
58.5456
58.6089
58.6721
58.7353
58.7986
58.8618
58.925
58.9882
59.0515
59.1147
59.1779
59.2411
59.3044
59.3676
59.4308
59.494
59.5572
59.6205
59.6837
59.7469
59.8101
59.8733
59.9365
59.9998
60.063
60.1262
60.1894
60.2526
60.3158
60.379
60.4422
60.5054
60.5687
60.6319
60.6951
60.7583
60.8215
60.8847
60.9479
61.0111
61.0743
61.1375
61.2007
61.2639
61.3271
61.3903
61.4535
61.5167
61.5799
61.6431
61.7063
61.7695
61.8327
61.8959
61.9591
62.0223
62.0854
62.1486
62.2118
62.275
62.3382
62.4014
62.4646
62.5278
62.5909
62.6541
62.7173
62.7805
62.8437
62.9069
62.97
63.0332
63.0964
63.1596
63.2228
63.2859
63.3491
63.4123
63.4755
63.5386
63.6018
63.665
63.7282
63.7913
63.8545
63.9177
63.9808
64.044
64.1072
64.1704
64.2335
64.2967
64.3599
64.423
64.4862
64.5493
64.6125
64.6757
64.7388
64.802
64.8651
64.9283
64.9915
65.0546
65.1178
65.1809
65.2441
65.3072
65.3704
65.4335
65.4967
65.5598
65.623
65.6861
65.7493
65.8124
65.8756
65.9387
66.0019
66.065
66.1282
66.1913
66.2545
66.3176
66.3807
66.4439
66.507
66.5702
66.6333
66.6964
66.7596
66.8227
66.8859
66.949
67.0121
67.0753
67.1384
67.2015
67.2646
67.3278
67.3909
67.454
67.5172
67.5803
67.6434
67.7065
67.7697
67.8328
67.8959
67.959
68.0222
68.0853
68.1484
68.2115
68.2746
68.3378
68.4009
68.464
68.5271
68.5902
68.6533
68.7164
68.7796
68.8427
68.9058
68.9689
69.032
69.0951
69.1582
69.2213
69.2844
69.3475
69.4106
69.4737
69.5369
69.6
69.6631
69.7262
69.7893
69.8524
69.9155
69.9786
70.0417
70.1047
70.1678
70.2309
70.294
70.3571
70.4202
70.4833
70.5464
70.6095
70.6726
70.7357
70.7988
70.8618
70.9249
70.988
71.0511
71.1142
71.1773
71.2404
71.3034
71.3665
71.4296
71.4927
71.5557
71.6188
71.6819
71.745
71.8081
71.8711
71.9342
71.9973
72.0604
72.1234
72.1865
72.2496
72.3126
72.3757
72.4388
72.5018
72.5649
72.628
72.691
72.7541
72.8171
72.8802
72.9433
73.0063
73.0694
73.1324
73.1955
73.2586
73.3216
73.3847
73.4477
73.5108
73.5738
73.6369
73.6999
73.763
73.826
73.8891
73.9521
74.0152
74.0782
74.1413
74.2043
74.2674
74.3304
74.3935
74.4565
74.5195
74.5826
74.6456
74.7087
74.7717
74.8347
74.8978
74.9608
75.0238
75.0869
75.1499
75.2129
75.276
75.339
75.402
75.465
75.5281
75.5911
75.6541
75.7172
75.7802
75.8432
75.9062
75.9692
76.0323
76.0953
76.1583
76.2213
76.2843
76.3474
76.4104
76.4734
76.5364
76.5994
76.6625
76.7254
76.7885
76.8515
76.9145
76.9775
77.0405
77.1035
77.1665
77.2295
77.2925
77.3555
77.4185
77.4815
77.5445
77.6075
77.6705
77.7335
77.7965
77.8595
77.9225
77.9855
78.0485
78.1115
78.1745
78.2375
78.3005
78.3635
78.4265
78.4894
78.5525
78.6154
78.6784
78.7414
78.8044
78.8674
78.9303
78.9933
79.0563
79.1193
79.1823
79.2453
79.3082
79.3712
79.4342
79.4972
79.5601
79.6231
79.6861
79.749
79.812
79.875
79.938
80.0009
80.0639
80.1269
80.1899
80.2528
80.3158
80.3787
80.4417
80.5047
80.5676
80.6306
80.6936
80.7565
80.8195
80.8824
80.9453
81.0083
81.0713
81.1342
81.1972
81.2601
81.3231
81.386
81.449
81.5119
81.5749
81.6378
81.7008
81.7637
81.8267
81.8896
81.9525
82.0155
82.0784
82.1413
82.2043
82.2672
82.3302
82.3931
82.456
82.519
82.5819
82.6448
82.7078
82.7707
82.8336
82.8966
82.9595
83.0224
83.0854
83.1483
83.2112
83.2741
83.337
83.4
83.4629
83.5258
83.5887
83.6516
83.7146
83.7775
83.8404
83.9033
83.9662
84.0291
84.0921
84.1549
84.2179
84.2808
84.3437
84.4066
84.4695
84.5324
84.5953
84.6582
84.7211
84.784
84.8469
84.9098
84.9727
85.0356
85.0985
85.1614
85.2243
85.2872
85.3501
85.413
85.4759
85.5388
85.6017
85.6646
85.7274
85.7903
85.8532
85.9161
85.979
86.0419
86.1047
86.1677
86.2305
86.2934
86.3563
86.4192
86.482
86.545
86.6078
86.6707
86.7336
86.7964
86.8593
86.9222
86.985
87.0479
87.1108
87.1736
87.2365
87.2994
87.3622
87.4251
87.488
87.5508
87.6137
87.6766
87.7394
87.8023
87.8651
87.928
87.9909
88.0537
88.1166
88.1795
88.2423
88.3051
88.368
88.4308
88.4937
88.5566
88.6194
88.6822
88.7451
88.8079
88.8708
88.9336
88.9964
89.0593
89.1221
89.1849
89.2478
89.3106
89.3735
89.4363
89.4991
89.562
89.6248
89.6876
89.7505
89.8133
89.8761
89.939
90.0018
90.0646
90.1274
90.1903
90.2531
90.3159
90.3788
90.4415
90.5044
90.5672
90.63
90.6928
90.7557
90.8184
90.8813
90.9441
91.0069
91.0697
91.1325
91.1953
91.2581
91.321
91.3837
91.4466
91.5094
91.5722
91.635
91.6978
91.7606
91.8234
91.8862
91.949
92.0118
92.0746
92.1374
92.2002
92.263
92.3257
92.3885
92.4514
92.5141
92.5769
92.6397
92.7025
92.7653
92.8281
92.8908
92.9536
93.0164
93.0792
93.142
93.2048
93.2675
93.3303
93.3931
93.4558
93.5186
93.5814
93.6442
93.7069
93.7697
93.8325
93.8953
93.9581
94.0208
94.0836
94.1463
94.2091
94.2718
94.3346
94.3974
94.4601
94.5229
94.5857
94.6484
94.7112
94.7739
94.8367
94.8994
94.9622
95.0249
95.0877
95.1505
95.2132
95.2759
95.3387
95.4014
95.4642
95.5269
95.5896
95.6524
95.7152
95.7779
95.8406
95.9034
95.9661
96.0288
96.0916
96.1543
96.217
96.2798
96.3425
96.4052
96.468
96.5307
96.5934
96.6562
96.7189
96.7816
96.8443
96.9071
96.9698
97.0325
97.0952
97.1579
97.2206
97.2834
97.3461
97.4088
97.4715
97.5342
97.5969
97.6596
97.7223
97.785
97.8478
97.9105
97.9732
98.0359
98.0986
98.1613
98.224
98.2867
98.3494
98.4121
98.4748
98.5375
98.6002
98.6629
98.7256
98.7883
98.851
98.9137
98.9763
99.039
99.1017
99.1644
99.2271
99.2898
99.3524
99.4151
99.4778
99.5405
99.6032
99.6659
99.7285
99.7912
99.8539
99.9166
99.9792
100.042
100.105
100.167
100.23
100.293
100.355
100.418
100.481
100.543
100.606
100.669
100.731
100.794
100.857
100.919
100.982
101.045
101.107
101.17
101.233
101.295
101.358
101.42
101.483
101.546
101.608
101.671
101.734
101.796
101.859
101.922
101.984
102.047
102.11
102.172
102.235
102.297
102.36
102.423
102.485
102.548
102.611
102.673
102.736
102.799
102.861
102.924
102.986
103.049
103.112
103.174
103.237
103.3
103.362
103.425
103.487
103.55
103.613
103.675
103.738
103.8
103.863
103.926
103.988
104.051
104.113
104.176
104.239
104.301
104.364
104.427
104.489
104.552
104.614
104.677
104.74
104.802
104.865
104.927
104.99
105.052
105.115
105.178
105.24
105.303
105.365
105.428
105.491
105.553
105.616
105.678
105.741
105.803
105.866
105.929
105.991
106.054
106.116
106.179
106.242
106.304
106.367
106.429
106.492
106.554
106.617
106.679
106.742
106.805
106.867
106.93
106.992
107.055
107.117
107.18
107.243
107.305
107.368
107.43
107.493
107.555
107.618
107.68
107.743
107.805
107.868
107.931
107.993
108.056
108.118
108.181
108.243
108.306
108.368
108.431
108.493
108.556
108.618
108.681
108.744
108.806
108.869
108.931
108.994
109.056
109.119
109.181
109.244
109.306
109.369
109.431
109.494
109.556
109.619
109.681
109.744
109.806
109.869
109.931
109.994
110.056
110.119
110.181
110.244
110.306
110.369
110.431
110.494
110.556
110.619
110.681
110.744
110.806
110.869
110.931
110.994
111.056
111.119
111.181
111.244
111.306
111.369
111.431
111.494
111.556
111.619
111.681
111.744
111.806
111.869
111.931
111.994
112.056
112.119
112.181
112.243
112.306
112.368
112.431
112.493
112.556
112.618
112.681
112.743
112.806
112.868
112.931
112.993
113.055
113.118
113.18
113.243
113.305
113.368
113.43
113.493
113.555
113.617
113.68
113.742
113.805
113.867
113.93
113.992
114.055
114.117
114.179
114.242
114.304
114.367
114.429
114.492
114.554
114.616
114.679
114.741
114.804
114.866
114.929
114.991
115.053
115.116
115.178
115.241
115.303
115.365
115.428
115.49
115.553
115.615
115.678
115.74
115.802
115.865
115.927
115.99
116.052
116.114
116.177
116.239
116.302
116.364
116.426
116.489
116.551
116.614
116.676
116.738
116.801
116.863
116.925
116.988
117.05
117.113
117.175
117.237
117.3
117.362
117.424
117.487
117.549
117.612
117.674
117.736
117.799
117.861
117.923
117.986
118.048
118.111
118.173
118.235
118.298
118.36
118.422
118.485
118.547
118.609
118.672
118.734
118.796
118.859
118.921
118.984
119.046
119.108
119.171
119.233
119.295
119.358
119.42
119.482
119.545
119.607
119.669
119.732
119.794
119.856
119.919
119.981
120.043
120.106
120.168
120.23
120.293
120.355
120.417
120.48
120.542
120.604
120.666
120.729
120.791
120.853
120.916
120.978
121.04
121.103
121.165
121.227
121.29
121.352
121.414
121.477
121.539
121.601
121.663
121.726
121.788
121.85
121.913
121.975
122.037
122.099
122.162
122.224
122.286
122.349
122.411
122.473
122.535
122.598
122.66
122.722
122.785
122.847
122.909
122.971
123.034
123.096
123.158
123.22
123.283
123.345
123.407
123.47
123.532
123.594
123.656
123.719
123.781
123.843
123.905
123.968
124.03
124.092
124.154
124.217
124.279
124.341
124.403
124.466
124.528
124.59
124.652
124.715
124.777
124.839
124.901
124.964
125.026
125.088
125.15
125.212
125.275
125.337
125.399
125.461
125.524
125.586
125.648
125.71
125.772
125.835
125.897
125.959
126.021
126.084
126.146
126.208
126.27
126.332
126.395
126.457
126.519
126.581
126.643
126.706
126.768
126.83
126.892
126.954
127.017
127.079
127.141
127.203
127.265
127.328
127.39
127.452
127.514
127.576
127.639
127.701
127.763
127.825
127.887
127.949
128.012
128.074
128.136
128.198
128.26
128.322
128.385
128.447
128.509
128.571
128.633
128.695
128.758
128.82
128.882
128.944
129.006
129.068
129.131
129.193
129.255
129.317
129.379
129.441
129.503
129.566
129.628
129.69
129.752
129.814
129.876
129.938
130.001
130.063
130.125
130.187
130.249
130.311
130.373
130.436
130.498
130.56
130.622
130.684
130.746
130.808
130.87
130.933
130.995
131.057
131.119
131.181
131.243
131.305
131.367
131.429
131.492
131.554
131.616
131.678
131.74
131.802
131.864
131.926
131.988
132.05
132.113
132.175
132.237
132.299
132.361
132.423
132.485
132.547
132.609
132.671
132.733
132.796
132.858
132.92
132.982
133.044
133.106
133.168
133.23
133.292
133.354
133.416
133.478
133.54
133.602
133.665
133.727
133.789
133.851
133.913
133.975
134.037
134.099
134.161
134.223
134.285
134.347
134.409
134.471
134.533
134.595
134.657
134.719
134.781
134.844
134.906
134.968
135.03
135.092
135.154
135.216
135.278
135.34
135.402
135.464
135.526
135.588
135.65
135.712
135.774
135.836
135.898
135.96
136.022
136.084
136.146
136.208
136.27
136.332
136.394
136.456
136.518
136.58
136.642
136.704
136.766
136.828
136.89
136.952
137.014
137.076
137.138
137.2
137.262
137.324
137.386
137.448
137.51
137.572
137.634
137.696
137.758
137.82
137.882
137.944
138.006
138.068
138.13
138.192
138.254
138.316
138.378
138.44
138.502
138.564
138.626
138.688
138.749
138.811
138.873
138.935
138.997
139.059
139.121
139.183
139.245
139.307
139.369
139.431
139.493
139.555
139.617
139.679
139.741
139.803
139.865
139.926
139.988
140.05
140.112
140.174
140.236
140.298
140.36
140.422
140.484
140.546
140.608
140.67
140.731
140.793
140.855
140.917
140.979
141.041
141.103
141.165
141.227
141.289
141.351
141.412
141.474
141.536
141.598
141.66
141.722
141.784
141.846
141.908
141.97
142.031
142.093
142.155
142.217
142.279
142.341
142.403
142.465
142.527
142.588
142.65
142.712
142.774
142.836
142.898
142.96
143.021
143.083
143.145
143.207
143.269
143.331
143.393
143.455
143.516
143.578
143.64
143.702
143.764
143.826
143.887
143.949
144.011
144.073
144.135
144.197
144.259
144.32
144.382
144.444
144.506
144.568
144.63
144.691
144.753
144.815
144.877
144.939
145.001
145.062
145.124
145.186
145.248
145.31
145.371
145.433
145.495
145.557
145.619
145.681
145.742
145.804
145.866
145.928
145.99
146.051
146.113
146.175
146.237
146.299
146.36
146.422
146.484
146.546
146.608
146.669
146.731
146.793
146.855
146.916
146.978
147.04
147.102
147.164
147.225
147.287
147.349
147.411
147.472
147.534
147.596
147.658
147.719
147.781
147.843
147.905
147.967
148.028
148.09
148.152
148.214
148.275
148.337
148.399
148.461
148.522
148.584
148.646
148.708
148.769
148.831
148.893
148.954
149.016
149.078
149.14
149.201
149.263
149.325
149.387
149.448
149.51
149.572
149.633
149.695
149.757
149.819
149.88
149.942
150.004
150.066
150.127
150.189
150.251
150.312
150.374
150.436
150.497
150.559
150.621
150.683
150.744
150.806
150.868
150.929
150.991
151.053
151.114
151.176
151.238
151.299
151.361
151.423
151.484
151.546
151.608
151.67
151.731
151.793
151.855
151.916
151.978
152.04
152.101
152.163
152.225
152.286
152.348
152.409
152.471
152.533
152.594
152.656
152.718
152.779
152.841
152.903
152.964
153.026
153.088
153.149
153.211
153.273
153.334
153.396
153.457
153.519
153.581
153.642
153.704
153.766
153.827
153.889
153.95
154.012
154.074
154.135
154.197
154.259
154.32
154.382
154.443
154.505
154.567
154.628
154.69
154.751
154.813
154.875
154.936
154.998
155.059
155.121
155.183
155.244
155.306
155.367
155.429
155.491
155.552
155.614
155.675
155.737
155.798
155.86
155.922
155.983
156.045
156.106
156.168
156.229
156.291
156.353
156.414
156.476
156.537
156.599
156.66
156.722
156.784
156.845
156.907
156.968
157.03
157.091
157.153
157.214
157.276
157.337
157.399
157.461
157.522
157.584
157.645
157.707
157.768
157.83
157.891
157.953
158.014
158.076
158.137
158.199
158.26
158.322
158.383
158.445
158.506
158.568
158.629
158.691
158.753
158.814
158.876
158.937
158.999
159.06
159.122
159.183
159.245
159.306
159.368
159.429
159.49
159.552
159.613
159.675
159.736
159.798
159.859
159.921
159.982
160.044
160.105
160.167
160.228
160.29
160.351
160.413
160.474
160.536
160.597
160.659
160.72
160.781
160.843
160.904
160.966
161.027
161.089
161.15
161.212
161.273
161.335
161.396
161.457
161.519
161.58
161.642
161.703
161.765
161.826
161.887
161.949
162.01
162.072
162.133
162.195
162.256
162.317
162.379
162.44
162.502
162.563
162.625
162.686
162.747
162.809
162.87
162.932
162.993
163.054
163.116
163.177
163.239
163.3
163.361
163.423
163.484
163.546
163.607
163.668
163.73
163.791
163.852
163.914
163.975
164.037
164.098
164.159
164.221
164.282
164.343
164.405
164.466
164.528
164.589
164.65
164.712
164.773
164.834
164.896
164.957
165.018
165.08
165.141
165.202
165.264
165.325
165.387
165.448
165.509
165.571
165.632
165.693
165.755
165.816
165.877
165.939
166
166.061
166.123
166.184
166.245
166.307
166.368
166.429
166.49
166.552
166.613
166.674
166.736
166.797
166.858
166.92
166.981
167.042
167.104
167.165
167.226
167.287
167.349
167.41
167.471
167.533
167.594
167.655
167.716
167.778
167.839
167.9
167.962
168.023
168.084
168.145
168.207
168.268
168.329
168.391
168.452
168.513
168.574
168.636
168.697
168.758
168.819
168.881
168.942
169.003
169.064
169.126
169.187
169.248
169.309
169.371
169.432
169.493
169.554
169.616
169.677
169.738
169.799
169.86
169.922
169.983
170.044
170.105
170.167
170.228
170.289
170.35
170.411
170.473
170.534
170.595
170.656
170.718
170.779
170.84
170.901
170.962
171.024
171.085
171.146
171.207
171.268
171.33
171.391
171.452
171.513
171.574
171.635
171.697
171.758
171.819
171.88
171.941
172.003
172.064
172.125
172.186
172.247
172.308
172.37
172.431
172.492
172.553
172.614
172.675
172.736
172.798
172.859
172.92
172.981
173.042
173.103
173.165
173.226
173.287
173.348
173.409
173.47
173.531
173.592
173.654
173.715
173.776
173.837
173.898
173.959
174.02
174.081
174.143
174.204
174.265
174.326
174.387
174.448
174.509
174.57
174.631
174.693
174.754
174.815
174.876
174.937
174.998
175.059
175.12
175.181
175.242
175.304
175.365
175.426
175.487
175.548
175.609
175.67
175.731
175.792
175.853
175.914
175.975
176.036
176.097
176.159
176.22
176.281
176.342
176.403
176.464
176.525
176.586
176.647
176.708
176.769
176.83
176.891
176.952
177.013
177.074
177.135
177.196
177.257
177.318
177.379
177.44
177.502
177.563
177.624
177.685
177.746
177.807
177.868
177.929
177.99
178.051
178.112
178.173
178.234
178.295
178.356
178.417
178.478
178.539
178.6
178.661
178.722
178.783
178.844
178.905
178.966
179.027
179.088
179.149
179.21
179.271
179.332
179.393
179.453
179.514
179.575
179.636
179.697
179.758
179.819
179.88
179.941
180.002
180.063
180.124
180.185
180.246
180.307
180.368
180.429
180.49
180.551
180.612
180.673
180.734
180.794
180.855
180.916
180.977
181.038
181.099
181.16
181.221
181.282
181.343
181.404
181.465
181.526
181.586
181.647
181.708
181.769
181.83
181.891
181.952
182.013
182.074
182.135
182.196
182.256
182.317
182.378
182.439
182.5
182.561
182.622
182.683
182.743
182.804
182.865
182.926
182.987
183.048
183.109
183.17
183.23
183.291
183.352
183.413
183.474
183.535
183.596
183.656
183.717
183.778
183.839
183.9
183.961
184.022
184.082
184.143
184.204
184.265
184.326
184.387
184.447
184.508
184.569
184.63
184.691
184.752
184.812
184.873
184.934
184.995
185.056
185.116
185.177
185.238
185.299
185.36
185.421
185.481
185.542
185.603
185.664
185.725
185.785
185.846
185.907
185.968
186.028
186.089
186.15
186.211
186.272
186.332
186.393
186.454
186.515
186.575
186.636
186.697
186.758
186.819
186.879
186.94
187.001
187.062
187.122
187.183
187.244
187.305
187.365
187.426
187.487
187.548
187.608
187.669
187.73
187.791
187.851
187.912
187.973
188.033
188.094
188.155
188.216
188.276
188.337
188.398
188.458
188.519
188.58
188.641
188.701
188.762
188.823
188.883
188.944
189.005
189.066
189.126
189.187
189.248
189.308
189.369
189.43
189.49
189.551
189.612
189.672
189.733
189.794
189.854
189.915
189.976
190.036
190.097
190.158
190.218
190.279
190.34
190.4
190.461
190.522
190.582
190.643
190.704
190.764
190.825
190.886
190.946
191.007
191.068
191.128
191.189
191.249
191.31
191.371
191.431
191.492
191.553
191.613
191.674
191.734
191.795
191.856
191.916
191.977
192.038
192.098
192.159
192.219
192.28
192.341
192.401
192.462
192.522
192.583
192.644
192.704
192.765
192.825
192.886
192.946
193.007
193.068
193.128
193.189
193.249
193.31
193.37
193.431
193.492
193.552
193.613
193.673
193.734
193.794
193.855
193.916
193.976
194.037
194.097
194.158
194.218
194.279
194.339
194.4
194.46
194.521
194.581
194.642
194.703
194.763
194.824
194.884
194.945
195.005
195.066
195.126
195.187
195.247
195.308
195.368
195.429
195.489
195.55
195.61
195.671
195.731
195.792
195.852
195.913
195.973
196.034
196.094
196.155
196.215
196.276
196.336
196.397
196.457
196.517
196.578
196.638
196.699
196.759
196.82
196.88
196.941
197.001
197.062
197.122
197.183
197.243
197.303
197.364
197.424
197.485
197.545
197.606
197.666
197.727
197.787
197.847
197.908
197.968
198.029
198.089
198.149
198.21
198.27
198.331
198.391
198.452
198.512
198.572
198.633
198.693
198.754
198.814
198.874
198.935
198.995
199.056
199.116
199.176
199.237
199.297
199.357
199.418
199.478
199.539
199.599
199.659
199.72
199.78
199.84
199.901
199.961
200.022
200.082
200.142
200.203
200.263
200.323
200.384
200.444
200.504
200.565
200.625
200.685
200.746
200.806
200.866
200.927
200.987
201.047
201.108
201.168
201.228
201.289
201.349
201.409
201.47
201.53
201.59
201.651
201.711
201.771
201.831
201.892
201.952
202.012
202.073
202.133
202.193
202.254
202.314
202.374
202.434
202.495
202.555
202.615
202.675
202.736
202.796
202.856
202.917
202.977
203.037
203.097
203.158
203.218
203.278
203.338
203.399
203.459
203.519
203.579
203.64
203.7
203.76
203.82
203.881
203.941
204.001
204.061
204.121
204.182
204.242
204.302
204.362
204.423
204.483
204.543
204.603
204.663
204.724
204.784
204.844
204.904
204.964
205.025
205.085
205.145
205.205
205.265
205.326
205.386
205.446
205.506
205.566
205.626
205.687
205.747
205.807
205.867
205.927
205.988
206.048
206.108
206.168
206.228
206.288
206.348
206.409
206.469
206.529
206.589
206.649
206.709
206.769
206.83
206.89
206.95
207.01
207.07
207.13
207.19
207.25
207.311
207.371
207.431
207.491
207.551
207.611
207.671
207.731
207.791
207.852
207.912
207.972
208.032
208.092
208.152
208.212
208.272
208.332
208.392
208.452
208.513
208.573
208.633
208.693
208.753
208.813
208.873
208.933
208.993
209.053
209.113
209.173
209.233
209.293
209.353
209.413
209.474
209.534
209.594
209.654
209.714
209.774
209.834
209.894
209.954
210.014
210.074
210.134
210.194
210.254
210.314
210.374
210.434
210.494
210.554
210.614
210.674
210.734
210.794
210.854
210.914
210.974
211.034
211.094
211.154
211.214
211.274
211.334
211.394
211.454
211.514
211.574
211.634
211.694
211.754
211.814
211.874
211.934
211.993
212.053
212.113
212.173
212.233
212.293
212.353
212.413
212.473
212.533
212.593
212.653
212.713
212.773
212.833
212.893
212.952
213.012
213.072
213.132
213.192
213.252
213.312
213.372
213.432
213.492
213.552
213.611
213.671
213.731
213.791
213.851
213.911
213.971
214.031
214.091
214.15
214.21
214.27
214.33
214.39
214.45
214.51
214.57
214.629
214.689
214.749
214.809
214.869
214.929
214.988
215.048
215.108
215.168
215.228
215.288
215.348
215.407
215.467
215.527
215.587
215.647
215.706
215.766
215.826
215.886
215.946
216.006
216.065
216.125
216.185
216.245
216.305
216.364
216.424
216.484
216.544
216.603
216.663
216.723
216.783
216.843
216.902
216.962
217.022
217.082
217.141
217.201
217.261
217.321
217.381
217.44
217.5
217.56
217.62
217.679
217.739
217.799
217.858
217.918
217.978
218.038
218.097
218.157
218.217
218.277
218.336
218.396
218.456
218.515
218.575
218.635
218.695
218.754
218.814
218.874
218.933
218.993
219.053
219.112
219.172
219.232
219.291
219.351
219.411
219.471
219.53
219.59
219.65
219.709
219.769
219.829
219.888
219.948
220.007
220.067
220.127
220.186
220.246
220.306
220.365
220.425
220.485
220.544
220.604
220.664
220.723
220.783
220.842
220.902
220.962
221.021
221.081
221.14
221.2
221.26
221.319
221.379
221.438
221.498
221.558
221.617
221.677
221.736
221.796
221.856
221.915
221.975
222.034
222.094
222.153
222.213
222.273
222.332
222.392
222.451
222.511
222.57
222.63
222.689
222.749
222.809
222.868
222.928
222.987
223.047
223.106
223.166
223.225
223.285
223.344
223.404
223.463
223.523
223.582
223.642
223.701
223.761
223.82
223.88
223.939
223.999
224.058
224.118
224.177
224.237
224.296
224.356
224.415
224.475
224.534
224.594
224.653
224.713
224.772
224.831
224.891
224.95
225.01
225.069
225.129
225.188
225.248
225.307
225.366
225.426
225.485
225.545
225.604
225.664
225.723
225.782
225.842
225.901
225.961
226.02
226.079
226.139
226.198
226.258
226.317
226.376
226.436
226.495
226.555
226.614
226.673
226.733
226.792
226.851
226.911
226.97
227.029
227.089
227.148
227.208
227.267
227.326
227.386
227.445
227.504
227.564
227.623
227.682
227.742
227.801
227.86
227.92
227.979
228.038
228.097
228.157
228.216
228.275
228.335
228.394
228.453
228.513
228.572
228.631
228.69
228.75
228.809
228.868
228.928
228.987
229.046
229.105
229.165
229.224
229.283
229.342
229.402
229.461
229.52
229.579
229.639
229.698
229.757
229.816
229.875
229.935
229.994
230.053
230.112
230.172
230.231
230.29
230.349
230.408
230.468
230.527
230.586
230.645
230.704
230.764
230.823
230.882
230.941
231
231.059
231.119
231.178
231.237
231.296
231.355
231.414
231.474
231.533
231.592
231.651
231.71
231.769
231.828
231.887
231.947
232.006
232.065
232.124
232.183
232.242
232.301
232.36
232.419
232.479
232.538
232.597
232.656
232.715
232.774
232.833
232.892
232.951
233.01
233.069
233.128
233.187
233.247
233.306
233.365
233.424
233.483
233.542
233.601
233.66
233.719
233.778
233.837
233.896
233.955
234.014
234.073
234.132
234.191
234.25
234.309
234.368
234.427
234.486
234.545
234.604
234.663
234.722
234.781
234.84
234.899
234.958
235.017
235.076
235.135
235.194
235.253
235.311
235.37
235.429
235.488
235.547
235.606
235.665
235.724
235.783
235.842
235.901
235.96
236.019
236.077
236.136
236.195
236.254
236.313
236.372
236.431
236.49
236.548
236.607
236.666
236.725