/*--------------------------------*- C++ -*----------------------------------*\
  =========                 |
  \\      /  F ield         | OpenFOAM: The Open Source CFD Toolbox
   \\    /   O peration     | Website:  https://openfoam.org
    \\  /    A nd           | Version:  9
     \\/     M anipulation  |
\*---------------------------------------------------------------------------*/
FoamFile
{
    format      ascii;
    class       volScalarField;
    location    "0.028";
    object      rho_0;
}
// * * * * * * * * * * * * * * * * * * * * * * * * * * * * * * * * * * * * * //

dimensions      [1 -3 0 0 0 0 0];

internalField   nonuniform List<scalar> 
10000
(
0.334503
0.334497
0.334488
0.334479
0.33447
0.334461
0.334451
0.334442
0.334433
0.334425
0.334416
0.334406
0.334397
0.334388
0.33438
0.334371
0.334362
0.334353
0.334343
0.334334
0.334326
0.334317
0.334309
0.3343
0.334291
0.334281
0.334272
0.334263
0.334255
0.334247
0.334239
0.33423
0.334221
0.334212
0.334202
0.334193
0.334184
0.334176
0.334168
0.334161
0.334153
0.334145
0.334137
0.334128
0.334119
0.334109
0.334099
0.334089
0.33408
0.334071
0.334063
0.334055
0.334048
0.334042
0.334037
0.334033
0.334029
0.334025
0.334022
0.33402
0.334017
0.334014
0.334012
0.334009
0.334007
0.334005
0.334003
0.334001
0.333999
0.333997
0.333995
0.333994
0.333992
0.33399
0.333988
0.333986
0.333984
0.333982
0.33398
0.333979
0.333977
0.333975
0.333973
0.333971
0.333969
0.333967
0.333965
0.333963
0.333962
0.33396
0.333958
0.333956
0.333954
0.333952
0.33395
0.333948
0.333946
0.333944
0.333943
0.333941
0.333939
0.333937
0.333935
0.333933
0.333931
0.333929
0.333927
0.333925
0.333924
0.333922
0.33392
0.333918
0.333916
0.333914
0.333912
0.33391
0.333908
0.333906
0.333904
0.333902
0.333901
0.333899
0.333897
0.333895
0.333893
0.333891
0.333889
0.333887
0.333885
0.333883
0.333881
0.333879
0.333878
0.333876
0.333874
0.333872
0.33387
0.333868
0.333866
0.333864
0.333862
0.33386
0.333858
0.333856
0.333854
0.333852
0.33385
0.333849
0.333847
0.333845
0.333843
0.333841
0.333839
0.333837
0.333835
0.333833
0.333831
0.333829
0.333827
0.333825
0.333823
0.333821
0.333819
0.333818
0.333816
0.333814
0.333812
0.33381
0.333808
0.333806
0.333804
0.333802
0.3338
0.333798
0.333796
0.333794
0.333792
0.33379
0.333788
0.333786
0.333784
0.333782
0.33378
0.333778
0.333776
0.333775
0.333773
0.333771
0.333769
0.333767
0.333765
0.333763
0.333761
0.333759
0.333757
0.333755
0.333753
0.333751
0.333749
0.333747
0.333745
0.333743
0.333741
0.333739
0.333737
0.333735
0.333733
0.333731
0.333729
0.333727
0.333725
0.333723
0.333721
0.333719
0.333717
0.333715
0.333713
0.333711
0.333709
0.333707
0.333705
0.333703
0.333701
0.333699
0.333697
0.333695
0.333693
0.333691
0.333689
0.333688
0.333686
0.333684
0.333682
0.33368
0.333678
0.333676
0.333674
0.333672
0.33367
0.333668
0.333666
0.333664
0.333662
0.33366
0.333658
0.333656
0.333654
0.333652
0.33365
0.333648
0.333646
0.333643
0.333641
0.333639
0.333637
0.333635
0.333633
0.333631
0.333629
0.333627
0.333625
0.333623
0.333621
0.333619
0.333617
0.333615
0.333613
0.333611
0.333609
0.333607
0.333605
0.333603
0.333601
0.333599
0.333597
0.333595
0.333593
0.333591
0.333589
0.333587
0.333585
0.333583
0.333581
0.333579
0.333577
0.333575
0.333573
0.333571
0.333569
0.333567
0.333565
0.333563
0.333561
0.333559
0.333556
0.333554
0.333552
0.33355
0.333548
0.333546
0.333544
0.333542
0.33354
0.333538
0.333536
0.333534
0.333532
0.33353
0.333528
0.333526
0.333524
0.333522
0.33352
0.333518
0.333516
0.333514
0.333511
0.333509
0.333507
0.333505
0.333503
0.333501
0.333499
0.333497
0.333495
0.333493
0.333491
0.333489
0.333487
0.333485
0.333483
0.333481
0.333479
0.333476
0.333474
0.333472
0.33347
0.333468
0.333466
0.333464
0.333462
0.33346
0.333458
0.333456
0.333454
0.333452
0.33345
0.333447
0.333445
0.333443
0.333441
0.333439
0.333437
0.333435
0.333433
0.333431
0.333429
0.333427
0.333425
0.333423
0.33342
0.333418
0.333416
0.333414
0.333412
0.33341
0.333408
0.333406
0.333404
0.333402
0.3334
0.333397
0.333395
0.333393
0.333391
0.333389
0.333387
0.333385
0.333383
0.333381
0.333379
0.333376
0.333374
0.333372
0.33337
0.333368
0.333366
0.333364
0.333362
0.33336
0.333358
0.333355
0.333353
0.333351
0.333349
0.333347
0.333345
0.333343
0.333341
0.333339
0.333336
0.333334
0.333332
0.33333
0.333328
0.333326
0.333324
0.333322
0.33332
0.333317
0.333315
0.333313
0.333311
0.333309
0.333307
0.333305
0.333303
0.3333
0.333298
0.333296
0.333294
0.333292
0.33329
0.333288
0.333286
0.333283
0.333281
0.333279
0.333277
0.333275
0.333273
0.333271
0.333268
0.333266
0.333264
0.333262
0.33326
0.333258
0.333256
0.333253
0.333251
0.333249
0.333247
0.333245
0.333243
0.333241
0.333238
0.333236
0.333234
0.333232
0.33323
0.333228
0.333226
0.333223
0.333221
0.333219
0.333217
0.333215
0.333213
0.333211
0.333208
0.333206
0.333204
0.333202
0.3332
0.333198
0.333195
0.333193
0.333191
0.333189
0.333187
0.333185
0.333182
0.33318
0.333178
0.333176
0.333174
0.333172
0.333169
0.333167
0.333165
0.333163
0.333161
0.333159
0.333156
0.333154
0.333152
0.33315
0.333148
0.333146
0.333143
0.333141
0.333139
0.333137
0.333135
0.333132
0.33313
0.333128
0.333126
0.333124
0.333122
0.333119
0.333117
0.333115
0.333113
0.333111
0.333108
0.333106
0.333104
0.333102
0.3331
0.333097
0.333095
0.333093
0.333091
0.333089
0.333086
0.333084
0.333082
0.33308
0.333078
0.333075
0.333073
0.333071
0.333069
0.333067
0.333064
0.333062
0.33306
0.333058
0.333056
0.333053
0.333051
0.333049
0.333047
0.333045
0.333042
0.33304
0.333038
0.333036
0.333034
0.333031
0.333029
0.333027
0.333025
0.333022
0.33302
0.333018
0.333016
0.333014
0.333011
0.333009
0.333007
0.333005
0.333002
0.333
0.332998
0.332996
0.332994
0.332991
0.332989
0.332987
0.332985
0.332982
0.33298
0.332978
0.332976
0.332974
0.332971
0.332969
0.332967
0.332965
0.332962
0.33296
0.332958
0.332956
0.332953
0.332951
0.332949
0.332947
0.332944
0.332942
0.33294
0.332938
0.332935
0.332933
0.332931
0.332929
0.332926
0.332924
0.332922
0.33292
0.332917
0.332915
0.332913
0.332911
0.332908
0.332906
0.332904
0.332902
0.332899
0.332897
0.332895
0.332893
0.33289
0.332888
0.332886
0.332884
0.332881
0.332879
0.332877
0.332875
0.332872
0.33287
0.332868
0.332865
0.332863
0.332861
0.332859
0.332856
0.332854
0.332852
0.33285
0.332847
0.332845
0.332843
0.33284
0.332838
0.332836
0.332834
0.332831
0.332829
0.332827
0.332825
0.332822
0.33282
0.332818
0.332815
0.332813
0.332811
0.332809
0.332806
0.332804
0.332802
0.332799
0.332797
0.332795
0.332793
0.33279
0.332788
0.332786
0.332783
0.332781
0.332779
0.332776
0.332774
0.332772
0.33277
0.332767
0.332765
0.332763
0.33276
0.332758
0.332756
0.332753
0.332751
0.332749
0.332747
0.332744
0.332742
0.33274
0.332737
0.332735
0.332733
0.33273
0.332728
0.332726
0.332723
0.332721
0.332719
0.332717
0.332714
0.332712
0.33271
0.332707
0.332705
0.332703
0.3327
0.332698
0.332696
0.332693
0.332691
0.332689
0.332686
0.332684
0.332682
0.332679
0.332677
0.332675
0.332672
0.33267
0.332668
0.332665
0.332663
0.332661
0.332658
0.332656
0.332654
0.332651
0.332649
0.332647
0.332644
0.332642
0.33264
0.332637
0.332635
0.332633
0.33263
0.332628
0.332626
0.332623
0.332621
0.332619
0.332616
0.332614
0.332612
0.332609
0.332607
0.332605
0.332602
0.3326
0.332597
0.332595
0.332593
0.33259
0.332588
0.332586
0.332583
0.332581
0.332579
0.332576
0.332574
0.332572
0.332569
0.332567
0.332564
0.332562
0.33256
0.332557
0.332555
0.332553
0.33255
0.332548
0.332546
0.332543
0.332541
0.332538
0.332536
0.332534
0.332531
0.332529
0.332527
0.332524
0.332522
0.332519
0.332517
0.332515
0.332512
0.33251
0.332508
0.332505
0.332503
0.3325
0.332498
0.332496
0.332493
0.332491
0.332488
0.332486
0.332484
0.332481
0.332479
0.332477
0.332474
0.332472
0.332469
0.332467
0.332465
0.332462
0.33246
0.332457
0.332455
0.332453
0.33245
0.332448
0.332445
0.332443
0.332441
0.332438
0.332436
0.332433
0.332431
0.332429
0.332426
0.332424
0.332421
0.332419
0.332417
0.332414
0.332412
0.332409
0.332407
0.332405
0.332402
0.3324
0.332397
0.332395
0.332392
0.33239
0.332388
0.332385
0.332383
0.33238
0.332378
0.332376
0.332373
0.332371
0.332368
0.332366
0.332363
0.332361
0.332359
0.332356
0.332354
0.332351
0.332349
0.332346
0.332344
0.332342
0.332339
0.332337
0.332334
0.332332
0.332329
0.332327
0.332325
0.332322
0.33232
0.332317
0.332315
0.332312
0.33231
0.332307
0.332305
0.332303
0.3323
0.332298
0.332295
0.332293
0.33229
0.332288
0.332285
0.332283
0.332281
0.332278
0.332276
0.332273
0.332271
0.332268
0.332266
0.332263
0.332261
0.332258
0.332256
0.332254
0.332251
0.332249
0.332246
0.332244
0.332241
0.332239
0.332236
0.332234
0.332231
0.332229
0.332226
0.332224
0.332222
0.332219
0.332217
0.332214
0.332212
0.332209
0.332207
0.332204
0.332202
0.332199
0.332197
0.332194
0.332192
0.332189
0.332187
0.332184
0.332182
0.332179
0.332177
0.332175
0.332172
0.33217
0.332167
0.332165
0.332162
0.33216
0.332157
0.332155
0.332152
0.33215
0.332147
0.332145
0.332142
0.33214
0.332137
0.332135
0.332132
0.33213
0.332127
0.332125
0.332122
0.33212
0.332117
0.332115
0.332112
0.33211
0.332107
0.332105
0.332102
0.3321
0.332097
0.332095
0.332092
0.33209
0.332087
0.332085
0.332082
0.33208
0.332077
0.332075
0.332072
0.33207
0.332067
0.332065
0.332062
0.33206
0.332057
0.332055
0.332052
0.33205
0.332047
0.332044
0.332042
0.332039
0.332037
0.332034
0.332032
0.332029
0.332027
0.332024
0.332022
0.332019
0.332017
0.332014
0.332012
0.332009
0.332007
0.332004
0.332002
0.331999
0.331996
0.331994
0.331991
0.331989
0.331986
0.331984
0.331981
0.331979
0.331976
0.331974
0.331971
0.331969
0.331966
0.331963
0.331961
0.331958
0.331956
0.331953
0.331951
0.331948
0.331946
0.331943
0.331941
0.331938
0.331936
0.331933
0.331931
0.331928
0.331925
0.331923
0.33192
0.331917
0.331915
0.331912
0.33191
0.331907
0.331905
0.331902
0.3319
0.331897
0.331895
0.331892
0.33189
0.331887
0.331884
0.331882
0.331879
0.331877
0.331874
0.331871
0.331869
0.331866
0.331864
0.331861
0.331858
0.331856
0.331853
0.331851
0.331848
0.331846
0.331843
0.33184
0.331838
0.331835
0.331833
0.33183
0.331828
0.331825
0.331822
0.33182
0.331817
0.331815
0.331812
0.33181
0.331807
0.331804
0.331802
0.331799
0.331797
0.331794
0.331791
0.331789
0.331786
0.331784
0.331781
0.331779
0.331776
0.331773
0.331771
0.331768
0.331766
0.331763
0.33176
0.331757
0.331755
0.331752
0.33175
0.331747
0.331744
0.331742
0.331739
0.331737
0.331734
0.331731
0.331729
0.331726
0.331724
0.331721
0.331718
0.331716
0.331713
0.331711
0.331708
0.331705
0.331703
0.3317
0.331698
0.331695
0.331692
0.33169
0.331687
0.331685
0.331682
0.331679
0.331677
0.331674
0.331671
0.331668
0.331666
0.331663
0.331661
0.331658
0.331655
0.331653
0.33165
0.331647
0.331645
0.331642
0.33164
0.331637
0.331634
0.331632
0.331629
0.331627
0.331624
0.331621
0.331619
0.331616
0.331613
0.331611
0.331608
0.331606
0.331603
0.3316
0.331597
0.331595
0.331592
0.331589
0.331587
0.331584
0.331581
0.331579
0.331576
0.331573
0.331571
0.331568
0.331566
0.331563
0.33156
0.331558
0.331555
0.331552
0.33155
0.331547
0.331544
0.331541
0.331539
0.331536
0.331533
0.331531
0.331528
0.331525
0.331523
0.33152
0.331518
0.331515
0.331512
0.33151
0.331507
0.331504
0.331502
0.331499
0.331496
0.331494
0.331491
0.331488
0.331485
0.331483
0.33148
0.331477
0.331475
0.331472
0.331469
0.331467
0.331464
0.331461
0.331459
0.331456
0.331453
0.331451
0.331448
0.331445
0.331442
0.33144
0.331437
0.331434
0.331432
0.331429
0.331426
0.331424
0.331421
0.331418
0.331416
0.331413
0.33141
0.331408
0.331405
0.331402
0.331399
0.331396
0.331394
0.331391
0.331388
0.331386
0.331383
0.33138
0.331378
0.331375
0.331372
0.331369
0.331367
0.331364
0.331361
0.331359
0.331356
0.331353
0.331351
0.331348
0.331345
0.331343
0.33134
0.331337
0.331334
0.331331
0.331329
0.331326
0.331323
0.331321
0.331318
0.331315
0.331313
0.33131
0.331307
0.331304
0.331301
0.331299
0.331296
0.331293
0.331291
0.331288
0.331285
0.331282
0.33128
0.331277
0.331274
0.331271
0.331268
0.331266
0.331263
0.33126
0.331258
0.331255
0.331252
0.33125
0.331246
0.331244
0.331241
0.331238
0.331236
0.331233
0.33123
0.331228
0.331225
0.331222
0.331219
0.331216
0.331214
0.331211
0.331208
0.331205
0.331203
0.3312
0.331197
0.331194
0.331191
0.331189
0.331186
0.331183
0.331181
0.331178
0.331175
0.331172
0.331169
0.331166
0.331164
0.331161
0.331158
0.331156
0.331153
0.33115
0.331147
0.331144
0.331142
0.331139
0.331136
0.331133
0.331131
0.331128
0.331125
0.331122
0.331119
0.331117
0.331114
0.331111
0.331108
0.331106
0.331103
0.3311
0.331097
0.331094
0.331092
0.331089
0.331086
0.331083
0.331081
0.331078
0.331075
0.331072
0.331069
0.331067
0.331064
0.331061
0.331058
0.331055
0.331052
0.33105
0.331047
0.331044
0.331041
0.331038
0.331036
0.331033
0.33103
0.331027
0.331025
0.331022
0.331019
0.331016
0.331013
0.33101
0.331008
0.331005
0.331002
0.330999
0.330996
0.330993
0.330991
0.330988
0.330985
0.330982
0.330979
0.330977
0.330974
0.330971
0.330968
0.330965
0.330963
0.33096
0.330957
0.330954
0.330951
0.330949
0.330946
0.330943
0.33094
0.330937
0.330934
0.330932
0.330929
0.330926
0.330923
0.33092
0.330917
0.330914
0.330912
0.330909
0.330906
0.330903
0.3309
0.330897
0.330895
0.330892
0.330889
0.330886
0.330883
0.33088
0.330878
0.330875
0.330872
0.330869
0.330866
0.330863
0.33086
0.330857
0.330855
0.330852
0.330849
0.330846
0.330843
0.33084
0.330837
0.330835
0.330832
0.330829
0.330826
0.330823
0.33082
0.330818
0.330815
0.330812
0.330809
0.330806
0.330803
0.3308
0.330798
0.330795
0.330792
0.330789
0.330786
0.330783
0.33078
0.330777
0.330774
0.330772
0.330769
0.330766
0.330763
0.33076
0.330757
0.330754
0.330752
0.330748
0.330746
0.330743
0.33074
0.330737
0.330734
0.330731
0.330728
0.330726
0.330723
0.33072
0.330717
0.330714
0.330711
0.330708
0.330705
0.330702
0.3307
0.330697
0.330694
0.330691
0.330688
0.330685
0.330682
0.330679
0.330676
0.330673
0.330671
0.330668
0.330665
0.330662
0.330659
0.330656
0.330653
0.33065
0.330647
0.330644
0.330642
0.330639
0.330636
0.330633
0.33063
0.330627
0.330624
0.330621
0.330618
0.330615
0.330612
0.330609
0.330606
0.330604
0.330601
0.330598
0.330595
0.330592
0.330589
0.330586
0.330583
0.33058
0.330577
0.330574
0.330571
0.330568
0.330566
0.330563
0.33056
0.330557
0.330554
0.330551
0.330548
0.330545
0.330542
0.330539
0.330536
0.330533
0.33053
0.330527
0.330524
0.330522
0.330519
0.330516
0.330513
0.33051
0.330507
0.330504
0.330501
0.330498
0.330495
0.330492
0.330489
0.330486
0.330483
0.33048
0.330477
0.330474
0.330471
0.330469
0.330466
0.330463
0.33046
0.330457
0.330454
0.330451
0.330448
0.330445
0.330442
0.330439
0.330436
0.330433
0.33043
0.330427
0.330424
0.330421
0.330418
0.330415
0.330412
0.330409
0.330406
0.330403
0.3304
0.330397
0.330394
0.330391
0.330388
0.330385
0.330382
0.33038
0.330377
0.330374
0.330371
0.330368
0.330365
0.330362
0.330359
0.330356
0.330353
0.33035
0.330347
0.330344
0.330341
0.330338
0.330335
0.330332
0.330329
0.330326
0.330323
0.33032
0.330317
0.330314
0.330311
0.330308
0.330305
0.330302
0.330299
0.330296
0.330293
0.33029
0.330287
0.330284
0.330281
0.330278
0.330275
0.330272
0.330269
0.330266
0.330263
0.33026
0.330257
0.330254
0.330251
0.330248
0.330245
0.330242
0.330239
0.330236
0.330233
0.33023
0.330227
0.330224
0.330221
0.330218
0.330215
0.330212
0.330209
0.330206
0.330203
0.3302
0.330197
0.330194
0.33019
0.330187
0.330184
0.330181
0.330178
0.330175
0.330172
0.330169
0.330166
0.330163
0.33016
0.330157
0.330154
0.330151
0.330148
0.330145
0.330142
0.330139
0.330136
0.330133
0.33013
0.330127
0.330124
0.330121
0.330118
0.330115
0.330112
0.330109
0.330105
0.330102
0.330099
0.330096
0.330093
0.33009
0.330087
0.330084
0.330081
0.330078
0.330075
0.330072
0.330069
0.330066
0.330063
0.33006
0.330057
0.330054
0.33005
0.330047
0.330044
0.330041
0.330038
0.330035
0.330032
0.330029
0.330026
0.330023
0.33002
0.330017
0.330014
0.330011
0.330008
0.330005
0.330001
0.329998
0.329995
0.329992
0.329989
0.329986
0.329983
0.32998
0.329977
0.329974
0.329971
0.329968
0.329965
0.329961
0.329958
0.329955
0.329952
0.329949
0.329946
0.329943
0.32994
0.329937
0.329934
0.329931
0.329927
0.329924
0.329921
0.329918
0.329915
0.329912
0.329909
0.329906
0.329903
0.3299
0.329897
0.329893
0.32989
0.329887
0.329884
0.329881
0.329878
0.329875
0.329872
0.329869
0.329866
0.329862
0.329859
0.329856
0.329853
0.32985
0.329847
0.329844
0.329841
0.329838
0.329834
0.329831
0.329828
0.329825
0.329822
0.329819
0.329816
0.329813
0.329809
0.329806
0.329803
0.3298
0.329797
0.329794
0.329791
0.329788
0.329785
0.329781
0.329778
0.329775
0.329772
0.329769
0.329766
0.329763
0.329759
0.329756
0.329753
0.32975
0.329747
0.329744
0.329741
0.329738
0.329734
0.329731
0.329728
0.329725
0.329722
0.329719
0.329716
0.329712
0.329709
0.329706
0.329703
0.3297
0.329697
0.329694
0.32969
0.329687
0.329684
0.329681
0.329678
0.329675
0.329671
0.329668
0.329665
0.329662
0.329659
0.329656
0.329653
0.329649
0.329646
0.329643
0.32964
0.329637
0.329634
0.32963
0.329627
0.329624
0.329621
0.329618
0.329615
0.329611
0.329608
0.329605
0.329602
0.329599
0.329596
0.329592
0.329589
0.329586
0.329583
0.32958
0.329577
0.329573
0.32957
0.329567
0.329564
0.329561
0.329557
0.329554
0.329551
0.329548
0.329545
0.329542
0.329538
0.329535
0.329532
0.329529
0.329526
0.329522
0.329519
0.329516
0.329513
0.32951
0.329506
0.329503
0.3295
0.329497
0.329494
0.329491
0.329487
0.329484
0.329481
0.329478
0.329475
0.329471
0.329468
0.329465
0.329462
0.329459
0.329455
0.329452
0.329449
0.329446
0.329442
0.329439
0.329436
0.329433
0.32943
0.329426
0.329423
0.32942
0.329417
0.329414
0.32941
0.329407
0.329404
0.329401
0.329397
0.329394
0.329391
0.329388
0.329385
0.329381
0.329378
0.329375
0.329372
0.329368
0.329365
0.329362
0.329359
0.329356
0.329352
0.329349
0.329346
0.329343
0.329339
0.329336
0.329333
0.32933
0.329326
0.329323
0.32932
0.329317
0.329314
0.32931
0.329307
0.329304
0.329301
0.329297
0.329294
0.329291
0.329288
0.329284
0.329281
0.329278
0.329275
0.329271
0.329268
0.329265
0.329262
0.329258
0.329255
0.329252
0.329249
0.329245
0.329242
0.329239
0.329236
0.329232
0.329229
0.329226
0.329223
0.329219
0.329216
0.329213
0.329209
0.329206
0.329203
0.3292
0.329196
0.329193
0.32919
0.329187
0.329183
0.32918
0.329177
0.329174
0.32917
0.329167
0.329164
0.32916
0.329157
0.329154
0.329151
0.329147
0.329144
0.329141
0.329138
0.329134
0.329131
0.329128
0.329124
0.329121
0.329118
0.329115
0.329111
0.329108
0.329105
0.329101
0.329098
0.329095
0.329092
0.329088
0.329085
0.329082
0.329078
0.329075
0.329072
0.329068
0.329065
0.329062
0.329059
0.329055
0.329052
0.329049
0.329045
0.329042
0.329039
0.329035
0.329032
0.329029
0.329026
0.329022
0.329019
0.329016
0.329012
0.329009
0.329006
0.329002
0.328999
0.328996
0.328992
0.328989
0.328986
0.328983
0.328979
0.328976
0.328973
0.328969
0.328966
0.328963
0.328959
0.328956
0.328953
0.328949
0.328946
0.328943
0.328939
0.328936
0.328933
0.328929
0.328926
0.328923
0.328919
0.328916
0.328913
0.328909
0.328906
0.328903
0.328899
0.328896
0.328893
0.328889
0.328886
0.328883
0.328879
0.328876
0.328873
0.328869
0.328866
0.328863
0.328859
0.328856
0.328853
0.328849
0.328846
0.328843
0.328839
0.328836
0.328833
0.328829
0.328826
0.328822
0.328819
0.328816
0.328812
0.328809
0.328806
0.328802
0.328799
0.328796
0.328792
0.328789
0.328786
0.328782
0.328779
0.328775
0.328772
0.328769
0.328765
0.328762
0.328759
0.328755
0.328752
0.328749
0.328745
0.328742
0.328738
0.328735
0.328732
0.328728
0.328725
0.328722
0.328718
0.328715
0.328711
0.328708
0.328705
0.328701
0.328698
0.328695
0.328691
0.328688
0.328684
0.328681
0.328678
0.328674
0.328671
0.328667
0.328664
0.328661
0.328657
0.328654
0.32865
0.328647
0.328644
0.32864
0.328637
0.328634
0.32863
0.328627
0.328623
0.32862
0.328617
0.328613
0.32861
0.328606
0.328603
0.3286
0.328596
0.328593
0.328589
0.328586
0.328583
0.328579
0.328576
0.328572
0.328569
0.328565
0.328562
0.328559
0.328555
0.328552
0.328548
0.328545
0.328542
0.328538
0.328535
0.328531
0.328528
0.328524
0.328521
0.328518
0.328514
0.328511
0.328507
0.328504
0.328501
0.328497
0.328494
0.32849
0.328487
0.328483
0.32848
0.328477
0.328473
0.32847
0.328466
0.328463
0.328459
0.328456
0.328453
0.328449
0.328446
0.328442
0.328439
0.328435
0.328432
0.328428
0.328425
0.328422
0.328418
0.328415
0.328411
0.328408
0.328404
0.328401
0.328397
0.328394
0.328391
0.328387
0.328384
0.32838
0.328377
0.328373
0.32837
0.328366
0.328363
0.328359
0.328356
0.328353
0.328349
0.328346
0.328342
0.328339
0.328335
0.328332
0.328328
0.328325
0.328321
0.328318
0.328314
0.328311
0.328308
0.328304
0.328301
0.328297
0.328294
0.32829
0.328287
0.328283
0.32828
0.328276
0.328273
0.328269
0.328266
0.328262
0.328259
0.328255
0.328252
0.328248
0.328245
0.328242
0.328238
0.328235
0.328231
0.328228
0.328224
0.328221
0.328217
0.328214
0.32821
0.328207
0.328203
0.3282
0.328196
0.328193
0.328189
0.328186
0.328182
0.328179
0.328175
0.328172
0.328168
0.328165
0.328161
0.328158
0.328154
0.328151
0.328147
0.328144
0.32814
0.328137
0.328133
0.32813
0.328126
0.328123
0.328119
0.328116
0.328112
0.328109
0.328105
0.328102
0.328098
0.328095
0.328091
0.328088
0.328084
0.328081
0.328077
0.328074
0.32807
0.328066
0.328063
0.328059
0.328056
0.328052
0.328049
0.328045
0.328042
0.328038
0.328035
0.328031
0.328028
0.328024
0.328021
0.328017
0.328014
0.32801
0.328007
0.328003
0.327999
0.327996
0.327992
0.327989
0.327985
0.327982
0.327978
0.327975
0.327971
0.327968
0.327964
0.327961
0.327957
0.327953
0.32795
0.327946
0.327943
0.327939
0.327936
0.327932
0.327929
0.327925
0.327922
0.327918
0.327914
0.327911
0.327907
0.327904
0.3279
0.327897
0.327893
0.32789
0.327886
0.327882
0.327879
0.327875
0.327872
0.327868
0.327865
0.327861
0.327857
0.327854
0.32785
0.327847
0.327843
0.32784
0.327836
0.327833
0.327829
0.327825
0.327822
0.327818
0.327815
0.327811
0.327808
0.327804
0.3278
0.327797
0.327793
0.32779
0.327786
0.327782
0.327779
0.327775
0.327772
0.327768
0.327765
0.327761
0.327757
0.327754
0.32775
0.327747
0.327743
0.327739
0.327736
0.327732
0.327729
0.327725
0.327721
0.327718
0.327714
0.327711
0.327707
0.327704
0.3277
0.327696
0.327693
0.327689
0.327686
0.327682
0.327678
0.327675
0.327671
0.327667
0.327664
0.32766
0.327657
0.327653
0.327649
0.327646
0.327642
0.327639
0.327635
0.327631
0.327628
0.327624
0.327621
0.327617
0.327613
0.32761
0.327606
0.327602
0.327599
0.327595
0.327592
0.327588
0.327584
0.327581
0.327577
0.327574
0.32757
0.327566
0.327563
0.327559
0.327555
0.327552
0.327548
0.327545
0.327541
0.327537
0.327534
0.32753
0.327526
0.327523
0.327519
0.327515
0.327512
0.327508
0.327505
0.327501
0.327497
0.327494
0.32749
0.327486
0.327483
0.327479
0.327475
0.327472
0.327468
0.327464
0.327461
0.327457
0.327454
0.32745
0.327446
0.327443
0.327439
0.327435
0.327432
0.327428
0.327424
0.327421
0.327417
0.327413
0.32741
0.327406
0.327402
0.327399
0.327395
0.327391
0.327388
0.327384
0.32738
0.327377
0.327373
0.327369
0.327366
0.327362
0.327358
0.327355
0.327351
0.327347
0.327344
0.32734
0.327336
0.327333
0.327329
0.327325
0.327322
0.327318
0.327314
0.327311
0.327307
0.327303
0.3273
0.327296
0.327292
0.327289
0.327285
0.327281
0.327277
0.327274
0.32727
0.327266
0.327263
0.327259
0.327255
0.327252
0.327248
0.327244
0.327241
0.327237
0.327233
0.32723
0.327226
0.327222
0.327218
0.327215
0.327211
0.327207
0.327204
0.3272
0.327196
0.327193
0.327189
0.327185
0.327181
0.327178
0.327174
0.32717
0.327167
0.327163
0.327159
0.327155
0.327152
0.327148
0.327144
0.327141
0.327137
0.327133
0.32713
0.327126
0.327122
0.327118
0.327115
0.327111
0.327107
0.327103
0.3271
0.327096
0.327092
0.327089
0.327085
0.327081
0.327077
0.327074
0.32707
0.327066
0.327063
0.327059
0.327055
0.327051
0.327048
0.327044
0.32704
0.327036
0.327033
0.327029
0.327025
0.327021
0.327018
0.327014
0.32701
0.327007
0.327003
0.326999
0.326995
0.326992
0.326988
0.326984
0.32698
0.326977
0.326973
0.326969
0.326965
0.326962
0.326958
0.326954
0.32695
0.326947
0.326943
0.326939
0.326935
0.326932
0.326928
0.326924
0.32692
0.326917
0.326913
0.326909
0.326905
0.326902
0.326898
0.326894
0.32689
0.326886
0.326883
0.326879
0.326875
0.326871
0.326868
0.326864
0.32686
0.326856
0.326853
0.326849
0.326845
0.326841
0.326838
0.326834
0.32683
0.326826
0.326822
0.326819
0.326815
0.326811
0.326807
0.326804
0.3268
0.326796
0.326792
0.326788
0.326785
0.326781
0.326777
0.326773
0.326769
0.326766
0.326762
0.326758
0.326754
0.326751
0.326747
0.326743
0.326739
0.326735
0.326732
0.326728
0.326724
0.32672
0.326716
0.326713
0.326709
0.326705
0.326701
0.326697
0.326694
0.32669
0.326686
0.326682
0.326678
0.326675
0.326671
0.326667
0.326663
0.326659
0.326656
0.326652
0.326648
0.326644
0.32664
0.326637
0.326633
0.326629
0.326625
0.326621
0.326618
0.326614
0.32661
0.326606
0.326602
0.326598
0.326595
0.326591
0.326587
0.326583
0.326579
0.326576
0.326572
0.326568
0.326564
0.32656
0.326556
0.326553
0.326549
0.326545
0.326541
0.326537
0.326533
0.32653
0.326526
0.326522
0.326518
0.326514
0.32651
0.326507
0.326503
0.326499
0.326495
0.326491
0.326487
0.326484
0.32648
0.326476
0.326472
0.326468
0.326464
0.326461
0.326457
0.326453
0.326449
0.326445
0.326441
0.326437
0.326434
0.32643
0.326426
0.326422
0.326418
0.326414
0.32641
0.326407
0.326403
0.326399
0.326395
0.326391
0.326387
0.326384
0.32638
0.326376
0.326372
0.326368
0.326364
0.32636
0.326356
0.326353
0.326349
0.326345
0.326341
0.326337
0.326333
0.326329
0.326326
0.326322
0.326318
0.326314
0.32631
0.326306
0.326302
0.326298
0.326295
0.326291
0.326287
0.326283
0.326279
0.326275
0.326271
0.326267
0.326264
0.32626
0.326256
0.326252
0.326248
0.326244
0.32624
0.326236
0.326233
0.326229
0.326225
0.326221
0.326217
0.326213
0.326209
0.326205
0.326201
0.326198
0.326194
0.32619
0.326186
0.326182
0.326178
0.326174
0.32617
0.326166
0.326162
0.326159
0.326155
0.326151
0.326147
0.326143
0.326139
0.326135
0.326131
0.326127
0.326123
0.32612
0.326116
0.326112
0.326108
0.326104
0.3261
0.326096
0.326092
0.326088
0.326084
0.32608
0.326077
0.326073
0.326069
0.326065
0.326061
0.326057
0.326053
0.326049
0.326045
0.326041
0.326037
0.326033
0.32603
0.326026
0.326022
0.326018
0.326014
0.32601
0.326006
0.326002
0.325998
0.325994
0.32599
0.325986
0.325982
0.325979
0.325975
0.325971
0.325967
0.325963
0.325959
0.325955
0.325951
0.325947
0.325943
0.325939
0.325935
0.325931
0.325927
0.325923
0.325919
0.325916
0.325912
0.325908
0.325904
0.3259
0.325896
0.325892
0.325888
0.325884
0.32588
0.325876
0.325872
0.325868
0.325864
0.32586
0.325856
0.325852
0.325848
0.325844
0.325841
0.325837
0.325833
0.325829
0.325825
0.325821
0.325817
0.325813
0.325809
0.325805
0.325801
0.325797
0.325793
0.325789
0.325785
0.325781
0.325777
0.325773
0.325769
0.325765
0.325761
0.325757
0.325753
0.325749
0.325745
0.325741
0.325738
0.325734
0.32573
0.325726
0.325722
0.325718
0.325714
0.32571
0.325706
0.325702
0.325698
0.325694
0.32569
0.325686
0.325682
0.325678
0.325674
0.32567
0.325666
0.325662
0.325658
0.325654
0.32565
0.325646
0.325642
0.325638
0.325634
0.32563
0.325626
0.325622
0.325618
0.325614
0.32561
0.325606
0.325602
0.325598
0.325594
0.32559
0.325586
0.325582
0.325578
0.325574
0.32557
0.325566
0.325562
0.325558
0.325554
0.32555
0.325546
0.325542
0.325538
0.325534
0.32553
0.325526
0.325522
0.325518
0.325514
0.32551
0.325506
0.325502
0.325498
0.325494
0.32549
0.325486
0.325482
0.325478
0.325474
0.32547
0.325466
0.325462
0.325458
0.325454
0.32545
0.325446
0.325442
0.325438
0.325434
0.32543
0.325426
0.325422
0.325418
0.325414
0.32541
0.325406
0.325402
0.325398
0.325394
0.32539
0.325386
0.325382
0.325378
0.325374
0.325369
0.325365
0.325361
0.325357
0.325353
0.325349
0.325345
0.325341
0.325337
0.325333
0.325329
0.325325
0.325321
0.325317
0.325313
0.325309
0.325305
0.325301
0.325297
0.325293
0.325289
0.325285
0.325281
0.325277
0.325273
0.325269
0.325265
0.32526
0.325256
0.325252
0.325248
0.325244
0.32524
0.325236
0.325232
0.325228
0.325224
0.32522
0.325216
0.325212
0.325208
0.325204
0.3252
0.325196
0.325192
0.325188
0.325184
0.325179
0.325175
0.325171
0.325167
0.325163
0.325159
0.325155
0.325151
0.325147
0.325143
0.325139
0.325135
0.325131
0.325127
0.325123
0.325119
0.325114
0.32511
0.325106
0.325102
0.325098
0.325094
0.32509
0.325086
0.325082
0.325078
0.325074
0.32507
0.325066
0.325062
0.325057
0.325053
0.325049
0.325045
0.325041
0.325037
0.325033
0.325029
0.325025
0.325021
0.325017
0.325013
0.325009
0.325004
0.325
0.324996
0.324992
0.324988
0.324984
0.32498
0.324976
0.324972
0.324968
0.324964
0.32496
0.324955
0.324951
0.324947
0.324943
0.324939
0.324935
0.324931
0.324927
0.324923
0.324919
0.324915
0.32491
0.324906
0.324902
0.324898
0.324894
0.32489
0.324886
0.324882
0.324878
0.324874
0.324869
0.324865
0.324861
0.324857
0.324853
0.324849
0.324845
0.324841
0.324837
0.324833
0.324828
0.324824
0.32482
0.324816
0.324812
0.324808
0.324804
0.3248
0.324796
0.324792
0.324787
0.324783
0.324779
0.324775
0.324771
0.324767
0.324763
0.324759
0.324755
0.32475
0.324746
0.324742
0.324738
0.324734
0.32473
0.324726
0.324722
0.324717
0.324713
0.324709
0.324705
0.324701
0.324697
0.324693
0.324689
0.324685
0.32468
0.324676
0.324672
0.324668
0.324664
0.32466
0.324656
0.324652
0.324647
0.324643
0.324639
0.324635
0.324631
0.324627
0.324623
0.324619
0.324614
0.32461
0.324606
0.324602
0.324598
0.324594
0.32459
0.324585
0.324581
0.324577
0.324573
0.324569
0.324565
0.324561
0.324557
0.324552
0.324548
0.324544
0.32454
0.324536
0.324532
0.324528
0.324523
0.324519
0.324515
0.324511
0.324507
0.324503
0.324499
0.324494
0.32449
0.324486
0.324482
0.324478
0.324474
0.32447
0.324465
0.324461
0.324457
0.324453
0.324449
0.324445
0.324441
0.324436
0.324432
0.324428
0.324424
0.32442
0.324416
0.324412
0.324407
0.324403
0.324399
0.324395
0.324391
0.324387
0.324383
0.324378
0.324374
0.32437
0.324366
0.324362
0.324358
0.324353
0.324349
0.324345
0.324341
0.324337
0.324333
0.324329
0.324324
0.32432
0.324316
0.324312
0.324308
0.324304
0.324299
0.324295
0.324291
0.324287
0.324283
0.324279
0.324274
0.32427
0.324266
0.324262
0.324258
0.324254
0.324249
0.324245
0.324241
0.324237
0.324233
0.324229
0.324224
0.32422
0.324216
0.324212
0.324208
0.324204
0.324199
0.324195
0.324191
0.324187
0.324183
0.324179
0.324174
0.32417
0.324166
0.324162
0.324158
0.324154
0.324149
0.324145
0.324141
0.324137
0.324133
0.324129
0.324124
0.32412
0.324116
0.324112
0.324108
0.324104
0.324099