/*--------------------------------*- C++ -*----------------------------------*\
  =========                 |
  \\      /  F ield         | OpenFOAM: The Open Source CFD Toolbox
   \\    /   O peration     | Website:  https://openfoam.org
    \\  /    A nd           | Version:  9
     \\/     M anipulation  |
\*---------------------------------------------------------------------------*/
FoamFile
{
    format      ascii;
    class       volScalarField;
    location    "0.013";
    object      ddt0(rho);
}
// * * * * * * * * * * * * * * * * * * * * * * * * * * * * * * * * * * * * * //

dimensions      [1 -3 -1 0 0 0 0];

internalField   nonuniform List<scalar> 
100
(
-49.7444
-49.6758
-48.2349
-47.2249
-46.0288
-44.9732
-43.9548
-42.9464
-41.8952
-40.7869
-39.6264
-38.4228
-37.1862
-35.9265
-34.6532
-33.374
-32.0954
-30.8223
-29.5587
-28.3074
-27.0722
-25.8491
-24.6611
-23.4396
-22.3863
-21.0005
-20.3458
-18.5813
-18.1109
-17.0846
-14.9328
-15.8525
-13.6247
-11.7752
-13.165
-11.5643
-8.51946
-9.33716
-10.3803
-7.48484
-4.82785
-6.21548
-7.83469
-5.43912
-1.84142
-1.93677
-4.63775
-5.07625
-1.86008
0.920176
1.16163
-2.15529
-3.37992
-1.37834
1.18312
1.98512
2.76104
-1.13814
-1.85424
-0.288887
0.148802
1.4819
1.52542
0.34985
0.181983
-0.023545
0.174305
0.149458
1.20354
2.77137
-0.703556
-0.711973
0.640653
3.81473
1.20231
-2.06452
1.08052
9.20973
-4.28343
-4.15173
-0.571237
0.219045
5.42855
15.1059
21.8702
79.0631
120.031
74.0386
51.957
49.9129
28.3223
-5.71641
2.35169
28.922
8.08728
-21.9303
-0.0643123
14.6174
-10.2364
-5.11868
)
;

boundaryField
{
    sides
    {
        type            calculated;
        value           nonuniform List<scalar> 2(-5.11868 -49.7444);
    }
    empty
    {
        type            empty;
    }
}


// ************************************************************************* //
