/*--------------------------------*- C++ -*----------------------------------*\
  =========                 |
  \\      /  F ield         | OpenFOAM: The Open Source CFD Toolbox
   \\    /   O peration     | Website:  https://openfoam.org
    \\  /    A nd           | Version:  9
     \\/     M anipulation  |
\*---------------------------------------------------------------------------*/
FoamFile
{
    format      ascii;
    class       volScalarField;
    location    "0.013";
    object      ddt0(rho,e);
}
// * * * * * * * * * * * * * * * * * * * * * * * * * * * * * * * * * * * * * //

dimensions      [1 -1 -3 0 0 0 0];

internalField   nonuniform List<scalar> 
100
(
-2.2624e+06
-2.09043e+06
-2.01838e+06
-1.90467e+06
-1.77614e+06
-1.65082e+06
-1.52779e+06
-1.40686e+06
-1.28737e+06
-1.16969e+06
-1.05467e+06
-943089
-835595
-732713
-634832
-542221
-455041
-373380
-297224
-226683
-161135
-102616
-43577.4
-7442.92
72184.5
32860.1
214052
36917.8
247166
283741
-58476.2
552701
185515
-93364.2
616668
410942
-249709
246761
802003
165570
-414732
203264
880299
354938
-540367
-354633
594490
857699
51135.9
-704380
-573452
355817
834095
344122
-383205
-637694
-618405
102892
661349
170630
-72634.4
-299873
-426342
-149922
-25861.1
56555.8
17269.2
-13939.1
-230201
-450058
-157850
-42982.5
-72104.3
-234653
-113221
-428339
-431468
-705022
23986.9
90138.5
-60895.6
-195779
-896312
-2.4227e+06
-7.51505e+06
-2.38288e+07
-3.37117e+07
-2.4551e+07
-1.72425e+07
-1.03249e+07
-6.74935e+06
-6.00736e+06
-2.74709e+06
1.5961e+06
477189
-2.47287e+06
-286058
2.22448e+06
-332741
-879370
)
;

boundaryField
{
    sides
    {
        type            calculated;
        value           nonuniform List<scalar> 2(-879370 -2.2624e+06);
    }
    empty
    {
        type            empty;
    }
}


// ************************************************************************* //
