/*--------------------------------*- C++ -*----------------------------------*\
  =========                 |
  \\      /  F ield         | OpenFOAM: The Open Source CFD Toolbox
   \\    /   O peration     | Website:  https://openfoam.org
    \\  /    A nd           | Version:  9
     \\/     M anipulation  |
\*---------------------------------------------------------------------------*/
FoamFile
{
    format      ascii;
    class       volVectorField;
    location    "0.013";
    object      ddt0(rho,U);
}
// * * * * * * * * * * * * * * * * * * * * * * * * * * * * * * * * * * * * * //

dimensions      [1 -2 -2 0 0 0 0];

internalField   nonuniform List<vector> 
100
(
(5502.83 0 0)
(9876 0 0)
(11505.8 0 0)
(13024.1 0 0)
(13643.7 0 0)
(13884.5 0 0)
(13752.3 0 0)
(13400.6 0 0)
(12918.7 0 0)
(12365.2 0 0)
(11774.6 0 0)
(11168.3 0 0)
(10559.9 0 0)
(9957.71 0 0)
(9367.09 0 0)
(8791.38 0 0)
(8232.82 0 0)
(7692.9 0 0)
(7172.66 0 0)
(6672.74 0 0)
(6193.59 0 0)
(5735.59 0 0)
(5297.4 0 0)
(4885.35 0 0)
(4476.72 0 0)
(4136.29 0 0)
(3709.57 0 0)
(3489.57 0 0)
(3053.94 0 0)
(2783.11 0 0)
(2683.54 0 0)
(2075.36 0 0)
(2095.6 0 0)
(2017.38 0 0)
(1345.01 0 0)
(1319.63 0 0)
(1590.22 0 0)
(1060.08 0 0)
(512.124 0 0)
(856.855 0 0)
(1169.85 0 0)
(565.173 0 0)
(-90.9385 0 0)
(238.124 0 0)
(909.35 0 0)
(688.795 0 0)
(-206.75 0 0)
(-523.615 0 0)
(147.297 0 0)
(770.346 0 0)
(748.013 0 0)
(-292.441 0 0)
(-794.034 0 0)
(-284.46 0 0)
(373.475 0 0)
(560.454 0 0)
(932.528 0 0)
(-360.397 0 0)
(-703.455 0 0)
(-155.914 0 0)
(-56.473 0 0)
(401.897 0 0)
(447.846 0 0)
(74.3845 0 0)
(37.4865 0 0)
(-21.3401 0 0)
(24.9817 0 0)
(-6.94454 0 0)
(304.337 0 0)
(808.28 0 0)
(-281.956 0 0)
(-337.253 0 0)
(171.545 0 0)
(1216.48 0 0)
(291.581 0 0)
(-841.246 0 0)
(283.159 0 0)
(2888.63 0 0)
(-1439.05 0 0)
(-1698 0 0)
(-465.317 0 0)
(-102.184 0 0)
(1734.51 0 0)
(4608.75 0 0)
(5978.45 0 0)
(23091.1 0 0)
(35835 0 0)
(21701.1 0 0)
(15060.2 0 0)
(15433.9 0 0)
(8470.68 0 0)
(-2740.9 0 0)
(595.795 0 0)
(9966.78 0 0)
(2358.24 0 0)
(-7952.84 0 0)
(784.715 0 0)
(5928.58 0 0)
(-4398.43 0 0)
(-3258.63 0 0)
)
;

boundaryField
{
    sides
    {
        type            calculated;
        value           nonuniform List<vector> 2((-3258.63 0 0) (5502.83 0 0));
    }
    empty
    {
        type            empty;
    }
}


// ************************************************************************* //
