/*--------------------------------*- C++ -*----------------------------------*\
  =========                 |
  \\      /  F ield         | OpenFOAM: The Open Source CFD Toolbox
   \\    /   O peration     | Website:  https://openfoam.org
    \\  /    A nd           | Version:  9
     \\/     M anipulation  |
\*---------------------------------------------------------------------------*/
FoamFile
{
    format      ascii;
    class       volScalarField;
    location    "0.013";
    object      ddt0(p);
}
// * * * * * * * * * * * * * * * * * * * * * * * * * * * * * * * * * * * * * //

dimensions      [1 -1 -3 0 0 0 0];

internalField   nonuniform List<scalar> 
100
(
-6.88573e+06
-6.80852e+06
-6.60645e+06
-6.43946e+06
-6.24417e+06
-6.06704e+06
-5.8953e+06
-5.72561e+06
-5.55134e+06
-5.37096e+06
-5.18535e+06
-4.99595e+06
-4.80422e+06
-4.61156e+06
-4.41927e+06
-4.2284e+06
-4.03976e+06
-3.85401e+06
-3.67161e+06
-3.49293e+06
-3.31819e+06
-3.14773e+06
-2.98127e+06
-2.81998e+06
-2.66146e+06
-2.51068e+06
-2.35932e+06
-2.21831e+06
-2.07745e+06
-1.93944e+06
-1.8181e+06
-1.68349e+06
-1.56303e+06
-1.4526e+06
-1.33485e+06
-1.22499e+06
-1.12403e+06
-1.02318e+06
-925844
-833128
-746558
-665456
-588507
-511319
-438035
-375000
-318929
-266060
-203036
-171927
-90395.7
-116312
-71660
-27628.4
-11508.1
-17195.4
83792.2
-95514.5
42411.4
33718.1
-11249.3
57822.3
12328
-18085.8
11498.5
19853.9
27874.5
12371.3
52313.1
152556
-147865
-102805
48074.5
364342
99083.1
-419915
-43197
824061
-505165
-462806
-93076
-52198.8
292912
843735
-385785
-55457.3
904221
-948962
-671440
1.85743e+06
696744
-3.09645e+06
-819184
4.11604e+06
1.16333e+06
-3.62743e+06
-122462
2.64893e+06
-1.36367e+06
-967868
)
;

boundaryField
{
    sides
    {
        type            calculated;
        value           nonuniform List<scalar> 2(-967868 -6.88573e+06);
    }
    empty
    {
        type            empty;
    }
}


// ************************************************************************* //
