/*--------------------------------*- C++ -*----------------------------------*\
  =========                 |
  \\      /  F ield         | OpenFOAM: The Open Source CFD Toolbox
   \\    /   O peration     | Website:  https://openfoam.org
    \\  /    A nd           | Version:  9
     \\/     M anipulation  |
\*---------------------------------------------------------------------------*/
FoamFile
{
    format      ascii;
    class       surfaceScalarField;
    location    "0.013";
    object      phi_0;
}
// * * * * * * * * * * * * * * * * * * * * * * * * * * * * * * * * * * * * * //

dimensions      [1 0 -1 0 0 0 0];

internalField   nonuniform List<scalar> 
99
(
48.1679
68.0382
87.3322
106.222
124.634
142.623
160.205
177.383
194.142
210.456
226.307
241.676
256.55
270.921
284.782
298.132
310.97
323.299
335.123
346.445
357.274
367.614
377.478
386.854
395.809
404.209
412.347
419.78
427.024
433.858
439.831
446.172
451.622
456.332
461.598
466.224
469.632
473.367
477.519
480.513
482.444
484.93
488.064
490.239
490.976
491.751
493.606
495.636
496.38
496.012
495.548
496.41
497.762
498.313
497.84
497.046
495.941
496.397
497.138
497.254
497.194
496.602
495.991
495.851
495.779
495.788
495.718
495.659
495.177
494.069
494.35
494.635
494.379
492.853
492.372
493.198
492.765
489.081
490.795
492.456
492.684
492.596
490.425
484.383
475.635
444.009
395.997
366.382
345.599
325.634
314.305
316.591
315.651
304.082
300.847
309.619
309.645
303.798
307.892
)
;

boundaryField
{
    sides
    {
        type            calculated;
        value           nonuniform List<scalar> 2(309.94 -28.2702);
    }
    empty
    {
        type            empty;
        value           nonuniform List<scalar> 0();
    }
}


// ************************************************************************* //
