/*--------------------------------*- C++ -*----------------------------------*\
  =========                 |
  \\      /  F ield         | OpenFOAM: The Open Source CFD Toolbox
   \\    /   O peration     | Website:  https://openfoam.org
    \\  /    A nd           | Version:  9
     \\/     M anipulation  |
\*---------------------------------------------------------------------------*/
FoamFile
{
    format      ascii;
    class       volScalarField;
    location    "0.013";
    object      T;
}
// * * * * * * * * * * * * * * * * * * * * * * * * * * * * * * * * * * * * * //

dimensions      [0 0 0 1 0 0 0];

internalField   nonuniform List<scalar> 
100
(
342.357
341.204
339.956
338.364
336.647
334.795
332.867
330.887
328.874
326.841
324.795
322.74
320.68
318.619
316.557
314.497
312.44
310.387
308.34
306.298
304.264
302.237
300.224
298.206
296.24
294.172
292.389
290.064
288.698
286.07
284.702
282.75
280.39
279.106
277.275
274.892
273.429
272.144
269.979
267.891
266.731
265.583
263.6
261.532
260.367
259.671
258.373
256.462
254.901
254.215
253.863
253.151
251.767
250.552
249.973
249.932
249.948
249.799
249.251
248.759
248.699
248.767
249.006
249.199
249.235
249.21
249.176
249.183
249.258
249.497
249.688
249.828
249.898
249.925
249.965
250.261
250.684
250.943
251.058
251.303
251.463
251.588
251.889
252.724
255.772
266.307
293.385
323.231
348.876
368.471
381.92
391.144
396.776
399.221
399.571
400.56
400.897
399.779
399.16
400.207
)
;

boundaryField
{
    sides
    {
        type            zeroGradient;
    }
    empty
    {
        type            empty;
    }
}


// ************************************************************************* //
