/*--------------------------------*- C++ -*----------------------------------*\
  =========                 |
  \\      /  F ield         | OpenFOAM: The Open Source CFD Toolbox
   \\    /   O peration     | Website:  https://openfoam.org
    \\  /    A nd           | Version:  9
     \\/     M anipulation  |
\*---------------------------------------------------------------------------*/
FoamFile
{
    format      ascii;
    class       volVectorField;
    location    "0.013";
    object      U;
}
// * * * * * * * * * * * * * * * * * * * * * * * * * * * * * * * * * * * * * //

dimensions      [0 1 -1 0 0 0 0];

internalField   nonuniform List<vector> 
100
(
(7.48999 0 0)
(15.6868 0 0)
(20.1404 0 0)
(25.6936 0 0)
(30.9553 0 0)
(36.3662 0 0)
(41.8181 0 0)
(47.3396 0 0)
(52.9224 0 0)
(58.5597 0 0)
(64.2434 0 0)
(69.9659 0 0)
(75.7202 0 0)
(81.5004 0 0)
(87.3011 0 0)
(93.1179 0 0)
(98.9469 0 0)
(104.785 0 0)
(110.628 0 0)
(116.475 0 0)
(122.322 0 0)
(128.166 0 0)
(134.006 0 0)
(139.837 0 0)
(145.664 0 0)
(151.466 0 0)
(157.273 0 0)
(163.033 0 0)
(168.8 0 0)
(174.528 0 0)
(180.213 0 0)
(185.907 0 0)
(191.523 0 0)
(197.105 0 0)
(202.669 0 0)
(208.15 0 0)
(213.568 0 0)
(218.94 0 0)
(224.225 0 0)
(229.413 0 0)
(234.514 0 0)
(239.509 0 0)
(244.371 0 0)
(249.101 0 0)
(253.692 0 0)
(258.108 0 0)
(262.319 0 0)
(266.331 0 0)
(270.133 0 0)
(273.713 0 0)
(276.988 0 0)
(279.953 0 0)
(282.667 0 0)
(285.089 0 0)
(287.172 0 0)
(288.961 0 0)
(290.336 0 0)
(291.359 0 0)
(292.274 0 0)
(292.935 0 0)
(293.371 0 0)
(293.637 0 0)
(293.714 0 0)
(293.727 0 0)
(293.731 0 0)
(293.736 0 0)
(293.746 0 0)
(293.752 0 0)
(293.753 0 0)
(293.747 0 0)
(293.738 0 0)
(293.734 0 0)
(293.726 0 0)
(293.698 0 0)
(293.658 0 0)
(293.64 0 0)
(293.625 0 0)
(293.579 0 0)
(293.538 0 0)
(293.527 0 0)
(293.542 0 0)
(293.553 0 0)
(293.549 0 0)
(293.55 0 0)
(293.586 0 0)
(293.594 0 0)
(293.276 0 0)
(292.701 0 0)
(292.257 0 0)
(291.806 0 0)
(291.214 0 0)
(290.877 0 0)
(290.796 0 0)
(290.435 0 0)
(289.786 0 0)
(289.547 0 0)
(289.486 0 0)
(289.132 0 0)
(288.756 0 0)
(288.648 0 0)
)
;

boundaryField
{
    sides
    {
        type            zeroGradient;
    }
    empty
    {
        type            empty;
    }
}


// ************************************************************************* //
