/*--------------------------------*- C++ -*----------------------------------*\
  =========                 |
  \\      /  F ield         | OpenFOAM: The Open Source CFD Toolbox
   \\    /   O peration     | Website:  https://openfoam.org
    \\  /    A nd           | Version:  9
     \\/     M anipulation  |
\*---------------------------------------------------------------------------*/
FoamFile
{
    format      ascii;
    class       volVectorField;
    location    "0.013";
    object      U_0;
}
// * * * * * * * * * * * * * * * * * * * * * * * * * * * * * * * * * * * * * //

dimensions      [0 1 -1 0 0 0 0];

internalField   nonuniform List<vector> 
100
(
(7.42854 0 0)
(15.5745 0 0)
(20.0076 0 0)
(25.5403 0 0)
(30.791 0 0)
(36.1946 0 0)
(41.6432 0 0)
(47.1639 0 0)
(52.7474 0 0)
(58.3865 0 0)
(64.0726 0 0)
(69.798 0 0)
(75.5555 0 0)
(81.3391 0 0)
(87.1434 0 0)
(92.964 0 0)
(98.7969 0 0)
(104.639 0 0)
(110.486 0 0)
(116.337 0 0)
(122.188 0 0)
(128.037 0 0)
(133.881 0 0)
(139.716 0 0)
(145.547 0 0)
(151.354 0 0)
(157.166 0 0)
(162.93 0 0)
(168.702 0 0)
(174.434 0 0)
(180.124 0 0)
(185.822 0 0)
(191.442 0 0)
(197.029 0 0)
(202.597 0 0)
(208.083 0 0)
(213.506 0 0)
(218.882 0 0)
(224.171 0 0)
(229.363 0 0)
(234.469 0 0)
(239.468 0 0)
(244.334 0 0)
(249.068 0 0)
(253.663 0 0)
(258.083 0 0)
(262.297 0 0)
(266.313 0 0)
(270.119 0 0)
(273.702 0 0)
(276.978 0 0)
(279.946 0 0)
(282.663 0 0)
(285.087 0 0)
(287.171 0 0)
(288.961 0 0)
(290.333 0 0)
(291.36 0 0)
(292.278 0 0)
(292.937 0 0)
(293.374 0 0)
(293.638 0 0)
(293.714 0 0)
(293.728 0 0)
(293.731 0 0)
(293.737 0 0)
(293.747 0 0)
(293.754 0 0)
(293.755 0 0)
(293.747 0 0)
(293.739 0 0)
(293.737 0 0)
(293.727 0 0)
(293.696 0 0)
(293.659 0 0)
(293.645 0 0)
(293.626 0 0)
(293.574 0 0)
(293.541 0 0)
(293.538 0 0)
(293.549 0 0)
(293.558 0 0)
(293.546 0 0)
(293.545 0 0)
(293.596 0 0)
(293.598 0 0)
(293.258 0 0)
(292.698 0 0)
(292.263 0 0)
(291.779 0 0)
(291.201 0 0)
(290.914 0 0)
(290.807 0 0)
(290.38 0 0)
(289.777 0 0)
(289.604 0 0)
(289.464 0 0)
(289.069 0 0)
(288.804 0 0)
(288.713 0 0)
)
;

boundaryField
{
    sides
    {
        type            zeroGradient;
    }
    empty
    {
        type            empty;
    }
}


// ************************************************************************* //
