/*--------------------------------*- C++ -*----------------------------------*\
  =========                 |
  \\      /  F ield         | OpenFOAM: The Open Source CFD Toolbox
   \\    /   O peration     | Website:  https://openfoam.org
    \\  /    A nd           | Version:  9
     \\/     M anipulation  |
\*---------------------------------------------------------------------------*/
FoamFile
{
    format      ascii;
    class       volScalarField;
    location    "0.007";
    object      mag(U);
}
// * * * * * * * * * * * * * * * * * * * * * * * * * * * * * * * * * * * * * //

dimensions      [0 1 -1 0 0 0 0];

internalField   nonuniform List<scalar> 
10000
(
4.56264e-13
4.57803e-13
5.35896e-13
5.95097e-13
5.36307e-13
6.05758e-13
6.6618e-13
7.02925e-13
7.05893e-13
7.14967e-13
6.2398e-13
5.06709e-13
5.28828e-13
4.85767e-13
3.55459e-13
3.03449e-13
2.21703e-13
1.05362e-13
4.34368e-14
1.07885e-13
1.73128e-13
2.71148e-13
3.10431e-13
2.47138e-13
2.64113e-13
2.37422e-13
1.9467e-13
1.36983e-13
7.4762e-14
4.4047e-14
7.17699e-16
2.93336e-14
5.12573e-14
1.26543e-13
1.00984e-13
1.12024e-13
1.87945e-13
6.51199e-14
2.32697e-15
7.13304e-14
4.07261e-14
4.48206e-14
8.67222e-14
4.68847e-14
8.31373e-15
3.61411e-15
1.35497e-14
2.06023e-14
2.02592e-14
5.15898e-14
8.27181e-14
6.29857e-14
1.01833e-13
1.53718e-13
1.38256e-13
8.63461e-14
1.07579e-13
1.39024e-13
4.54077e-14
5.40546e-14
6.59375e-15
8.323e-14
6.73651e-14
1.29198e-14
1.76838e-14
5.81719e-14
1.12331e-13
1.59547e-13
2.05085e-13
1.90499e-13
6.96084e-14
8.80276e-14
6.71126e-14
1.37884e-13
1.76278e-13
2.34982e-13
1.54253e-13
3.10806e-14
9.25102e-14
1.28856e-13
3.7537e-14
3.25289e-14
1.70076e-13
1.50357e-13
1.23807e-13
9.70684e-14
1.52509e-13
2.59382e-13
3.9697e-13
3.96447e-13
4.60871e-13
5.77275e-13
6.03235e-13
7.1604e-13
8.40251e-13
9.47571e-13
9.9153e-13
9.90252e-13
9.48765e-13
1.0634e-12
1.178e-12
1.30625e-12
1.33366e-12
1.31108e-12
1.37711e-12
1.35317e-12
1.355e-12
1.31138e-12
1.29819e-12
1.32283e-12
1.32012e-12
1.29222e-12
1.34077e-12
1.36638e-12
1.33874e-12
1.23103e-12
1.0728e-12
9.2617e-13
8.02186e-13
7.17594e-13
6.28941e-13
5.56457e-13
6.3711e-13
7.99494e-13
8.14831e-13
9.22823e-13
1.00153e-12
9.71666e-13
1.02454e-12
1.18082e-12
1.25207e-12
1.37201e-12
1.44136e-12
1.37276e-12
1.36716e-12
1.45494e-12
1.64397e-12
1.699e-12
1.82829e-12
1.82671e-12
1.76795e-12
1.76746e-12
1.76601e-12
1.67518e-12
1.59833e-12
1.4926e-12
1.42131e-12
1.3989e-12
1.35827e-12
1.33271e-12
1.28075e-12
1.21535e-12
1.16514e-12
1.16288e-12
1.15935e-12
1.2008e-12
1.0856e-12
9.66149e-13
8.39895e-13
7.70615e-13
7.69141e-13
6.95395e-13
6.44543e-13
6.91627e-13
6.83854e-13
6.22345e-13
5.63672e-13
5.90235e-13
5.724e-13
4.11554e-13
3.29744e-13
3.36899e-13
2.77215e-13
3.00797e-13
3.59003e-13
4.14574e-13
3.49032e-13
2.88632e-13
3.04284e-13
3.09674e-13
2.84409e-13
3.26557e-13
4.89504e-13
6.13288e-13
7.60588e-13
8.78903e-13
9.1668e-13
9.65685e-13
8.97612e-13
8.72648e-13
8.38326e-13
7.84013e-13
8.8198e-13
1.01876e-12
1.1089e-12
1.05027e-12
1.03421e-12
1.04306e-12
9.35706e-13
8.67747e-13
8.76503e-13
8.36596e-13
9.09431e-13
9.7828e-13
9.37835e-13
9.43699e-13
9.45017e-13
9.22627e-13
8.44918e-13
7.84568e-13
8.67988e-13
9.8e-13
9.45607e-13
9.46022e-13
9.7271e-13
1.00111e-12
1.01066e-12
9.34984e-13
9.81338e-13
1.07118e-12
1.04414e-12
9.30922e-13
8.56689e-13
8.87834e-13
9.4453e-13
8.30867e-13
8.20414e-13
7.7176e-13
6.62807e-13
5.66878e-13
5.62076e-13
6.1676e-13
6.27948e-13
5.92782e-13
6.0268e-13
5.86309e-13
6.05503e-13
5.47191e-13
5.78393e-13
5.83079e-13
5.47633e-13
5.42528e-13
4.94086e-13
4.50316e-13
3.86344e-13
3.61944e-13
3.52183e-13
3.51862e-13
2.89671e-13
2.0314e-13
2.29211e-13
2.39105e-13
1.59746e-13
1.63739e-13
2.26583e-13
3.03262e-13
2.7248e-13
3.28711e-13
3.56449e-13
2.65661e-13
2.52684e-13
2.61654e-13
1.6582e-13
2.59778e-13
2.87657e-13
2.51944e-13
2.4328e-13
3.88897e-13
4.06084e-13
2.74802e-13
2.11921e-13
1.68493e-13
1.78449e-14
3.30502e-14
1.51528e-13
2.65965e-13
3.06882e-13
2.06829e-13
1.27922e-13
6.7473e-14
5.69968e-14
8.99892e-14
2.51825e-13
4.04601e-13
5.12543e-13
5.81136e-13
6.65721e-13
6.96151e-13
6.54824e-13
5.73633e-13
5.48594e-13
4.29646e-13
2.69895e-13
1.52201e-13
7.13703e-14
2.66277e-14
3.833e-14
2.3405e-14
7.50932e-14
1.26922e-13
2.01093e-13
2.52009e-13
2.66894e-13
1.87869e-13
1.88014e-13
5.01356e-14
1.23654e-13
1.38049e-13
2.27298e-13
3.93273e-13
4.53099e-13
5.54386e-13
5.50523e-13
4.44848e-13
3.44186e-13
3.11239e-13
3.26976e-13
2.94231e-13
3.13292e-13
2.74398e-13
3.30634e-13
4.04931e-13
3.43141e-13
3.28583e-13
2.23958e-13
1.08948e-13
1.10318e-13
1.64621e-13
1.25718e-13
1.39817e-13
3.63219e-14
1.53436e-14
3.4474e-14
4.58326e-14
2.29185e-13
2.7177e-13
1.31643e-13
4.48955e-14
1.94148e-14
2.86307e-15
9.61347e-15
7.8289e-15
3.19771e-14
3.66172e-14
7.66366e-14
5.75043e-14
9.15009e-14
6.40621e-14
3.48497e-14
3.0571e-14
1.10817e-13
7.11371e-14
1.89605e-14
8.79259e-14
8.81176e-14
9.25887e-14
9.38474e-14
1.04004e-13
1.56724e-13
1.10198e-13
1.11154e-13
1.34323e-13
1.62637e-13
1.73601e-13
9.34459e-14
4.56918e-14
1.05463e-13
1.67227e-13
2.07117e-13
1.87876e-13
1.66647e-13
6.97883e-14
3.96423e-14
1.10703e-15
5.49882e-14
1.63862e-13
2.47016e-13
3.20282e-13
3.49079e-13
3.67245e-13
2.98692e-13
3.00925e-13
3.27477e-13
2.50477e-13
2.39056e-13
2.13856e-13
1.44807e-13
2.54943e-14
1.4523e-14
7.53086e-14
1.4631e-13
3.12668e-13
2.85909e-13
2.76572e-13
2.59143e-13
1.77608e-13
1.19224e-13
1.39909e-13
9.63096e-14
6.3478e-14
2.82857e-14
6.92083e-14
2.74279e-14
2.19662e-14
8.45189e-14
2.15182e-13
3.71223e-13
4.2669e-13
4.70084e-13
5.46761e-13
4.65898e-13
3.61695e-13
3.76993e-13
3.51132e-13
2.99313e-13
2.68752e-13
1.65909e-13
9.54152e-14
9.92848e-14
2.15557e-13
1.98912e-13
1.38809e-13
2.2667e-13
2.89927e-13
3.7235e-13
4.4005e-13
3.61884e-13
2.58182e-13
2.86915e-13
2.84439e-13
2.34577e-13
2.55446e-13
1.91589e-13
4.8878e-14
7.28284e-14
1.10548e-13
1.40741e-13
5.62628e-14
3.1255e-14
2.9789e-14
1.75169e-14
2.79442e-14
6.29662e-14
1.19918e-14
1.0434e-13
8.20548e-14
2.72306e-14
8.11505e-14
1.27637e-13
8.29423e-14
6.62367e-14
1.22171e-14
1.95563e-14
1.6893e-15
4.40552e-14
1.18193e-13
1.54861e-13
2.42105e-13
2.87104e-13
3.14319e-13
2.77055e-13
2.42529e-13
2.77704e-13
2.37768e-13
2.78009e-13
3.06313e-13
2.72654e-13
1.65492e-13
1.6134e-13
1.29245e-13
1.14405e-13
1.42022e-13
3.46409e-14
4.63266e-14
6.36377e-14
6.42078e-14
2.5348e-14
6.20911e-14
1.23726e-13
7.75419e-14
1.46875e-13
2.13068e-13
2.46501e-13
2.63472e-13
1.80472e-13
1.88569e-13
1.29022e-13
7.33989e-14
3.12838e-16
5.57362e-14
5.75761e-14
1.04968e-13
1.45228e-13
1.15907e-13
1.39058e-13
1.21064e-13
5.05907e-14
2.62044e-14
1.18249e-13
2.18258e-13
3.33886e-13
3.86437e-13
2.81042e-13
2.0561e-13
1.82528e-13
1.70538e-13
1.49319e-13
1.4016e-13
4.5541e-14
7.82348e-14
1.67129e-13
1.57123e-13
1.34004e-13
1.21302e-13
1.56387e-13
8.69582e-14
1.19992e-14
1.05842e-13
1.65814e-13
1.78783e-13
2.05e-13
2.38787e-13
4.33707e-13
4.27064e-13
5.31165e-13
7.29213e-13
8.68481e-13
9.21207e-13
1.05788e-12
1.24304e-12
1.4525e-12
1.59787e-12
1.67811e-12
1.64088e-12
1.60701e-12
1.62722e-12
1.63312e-12
1.59252e-12
1.49792e-12
1.44533e-12
1.37742e-12
1.40655e-12
1.43677e-12
1.43875e-12
1.3649e-12
1.36526e-12
1.32403e-12
1.29315e-12
1.28016e-12
1.30656e-12
1.28977e-12
1.25595e-12
1.19853e-12
1.15127e-12
1.07398e-12
9.15218e-13
8.5512e-13
7.37657e-13
5.42423e-13
4.12631e-13
3.65192e-13
3.92185e-13
4.03821e-13
3.54633e-13
4.0842e-13
4.67827e-13
4.59661e-13
4.74477e-13
4.15478e-13
3.61228e-13
3.48838e-13
3.44141e-13
2.38869e-13
1.03257e-13
1.54469e-13
1.24173e-13
4.55713e-14
5.44191e-14
9.40313e-16
6.49492e-14
1.33887e-14
1.22188e-14
1.10406e-13
1.96992e-13
1.34331e-13
5.00944e-14
9.98455e-14
1.89669e-13
2.16939e-13
2.37901e-13
2.24603e-13
3.06754e-13
4.62699e-13
4.18768e-13
4.35933e-13
4.81118e-13
5.35853e-13
6.12497e-13
6.90058e-13
7.59246e-13
8.55347e-13
8.33712e-13
8.06305e-13
7.89196e-13
7.16013e-13
6.52232e-13
6.32238e-13
7.16436e-13
7.99298e-13
7.55484e-13
7.72851e-13
7.23743e-13
7.00994e-13
7.60171e-13
6.83218e-13
6.30658e-13
7.07147e-13
7.94494e-13
7.85486e-13
7.80922e-13
8.38706e-13
9.46514e-13
1.00768e-12
9.70778e-13
8.84878e-13
8.93603e-13
8.90082e-13
8.46648e-13
8.82291e-13
9.28533e-13
9.32159e-13
9.4362e-13
9.89123e-13
9.79823e-13
8.95086e-13
8.69524e-13
7.82129e-13
7.17681e-13
7.67328e-13
7.85636e-13
6.77273e-13
7.1697e-13
7.59966e-13
8.01567e-13
9.69631e-13
1.11076e-12
1.14162e-12
1.26481e-12
1.27433e-12
1.22139e-12
1.25828e-12
1.33301e-12
1.43689e-12
1.47591e-12
1.40383e-12
1.2275e-12
1.09097e-12
9.90742e-13
9.86165e-13
1.06128e-12
1.05988e-12
1.00826e-12
9.52269e-13
8.26881e-13
6.48315e-13
4.92207e-13
4.15068e-13
2.87277e-13
1.95264e-13
1.88038e-13
2.20718e-13
1.49891e-13
6.5863e-14
3.28048e-14
8.9269e-14
1.63108e-13
1.9563e-13
2.35081e-13
2.54753e-13
2.11112e-13
2.02538e-13
4.38609e-14
4.20578e-14
4.06521e-14
5.97489e-14
1.04819e-13
6.95685e-14
5.85172e-15
9.32123e-14
1.85183e-13
3.23932e-13
3.2148e-13
3.74607e-13
4.15821e-13
3.79021e-13
3.77723e-13
4.36164e-13
4.37167e-13
4.72273e-13
4.52359e-13
4.66823e-13
4.33843e-13
3.87624e-13
3.5111e-13
3.50029e-13
3.3801e-13
4.02427e-13
3.63211e-13
2.40903e-13
2.10953e-13
1.73911e-13
2.49116e-13
3.1352e-13
2.87831e-13
2.85224e-13
3.2785e-13
3.09543e-13
3.56146e-13
4.34173e-13
4.84672e-13
5.82999e-13
6.55273e-13
6.87286e-13
6.32605e-13
6.65049e-13
7.38627e-13
6.7813e-13
6.28726e-13
6.55683e-13
5.21802e-13
4.70033e-13
4.16011e-13
4.20073e-13
3.436e-13
3.26486e-13
3.75369e-13
4.69344e-13
4.41229e-13
3.63449e-13
3.46425e-13
5.88703e-13
6.47454e-13
6.02923e-13
5.37792e-13
5.0353e-13
4.7386e-13
4.38218e-13
4.33998e-13
3.76695e-13
3.51616e-13
4.11675e-13
4.08623e-13
3.76818e-13
4.22183e-13
3.43354e-13
1.84759e-13
3.60282e-14
5.40417e-15
1.68754e-13
2.78675e-13
3.71914e-13
4.36198e-13
5.27265e-13
4.26445e-13
3.57954e-13
3.16009e-13
3.33209e-13
3.43865e-13
2.56602e-13
1.10675e-13
5.66427e-15
1.56928e-14
1.30621e-14
1.01258e-14
9.49197e-14
6.27862e-14
4.06794e-14
5.22352e-14
2.47572e-14
1.05934e-13
2.30314e-13
2.61908e-13
2.99662e-13
3.00249e-13
2.86199e-13
2.28229e-13
1.42423e-13
2.24057e-14
1.10882e-13
1.56042e-14
4.95102e-14
2.03895e-14
1.02665e-13
1.15122e-13
1.03495e-13
1.30599e-13
1.02303e-13
1.51142e-13
1.68596e-13
2.24618e-13
2.9771e-13
3.94394e-13
4.19069e-13
3.73995e-13
3.59902e-13
3.8578e-13
3.9169e-13
3.64854e-13
3.00268e-13
3.59381e-13
4.04081e-13
4.34608e-13
3.98948e-13
4.44617e-13
4.11757e-13
3.75116e-13
3.84672e-13
3.5413e-13
3.53731e-13
3.61873e-13
2.68057e-13
2.69606e-13
3.03786e-13
1.77216e-13
1.28261e-13
9.02214e-14
1.97114e-14
2.3172e-14
8.60702e-14
1.50329e-13
2.62605e-13
3.06523e-13
3.38933e-13
3.06616e-13
2.62543e-13
2.10953e-13
1.85438e-13
2.20247e-13
2.14398e-13
1.68263e-13
1.12221e-13
3.07872e-14
1.06867e-14
5.70033e-14
1.01301e-13
2.41335e-13
2.75637e-13
1.8161e-13
1.97719e-13
1.72057e-13
1.91547e-13
2.61089e-13
1.73466e-13
7.7269e-14
7.58371e-14
1.15359e-13
1.55578e-13
3.0774e-13
3.30838e-13
3.53272e-13
3.58966e-13
2.69741e-13
3.47855e-13
4.30691e-13
3.8948e-13
3.33166e-13
3.53626e-13
2.79927e-13
2.59411e-13
2.57958e-13
2.01316e-13
2.30038e-13
2.32834e-13
2.71606e-13
2.92052e-13
3.79055e-13
4.43498e-13
5.27123e-13
5.92632e-13
5.92412e-13
5.90165e-13
5.08832e-13
4.59527e-13
4.31166e-13
3.89071e-13
3.51577e-13
4.12978e-13
4.20125e-13
4.45317e-13
4.21011e-13
4.21544e-13
4.6741e-13
5.78499e-13
6.63428e-13
6.36344e-13
6.69086e-13
6.5441e-13
7.23664e-13
8.4547e-13
7.80733e-13
7.55077e-13
6.24213e-13
6.25918e-13
6.4909e-13
5.56221e-13
4.74709e-13
3.27517e-13
1.78473e-13
1.27536e-13
1.98044e-13
3.04829e-13
3.86307e-13
4.58131e-13
5.59367e-13
5.92246e-13
6.33765e-13
7.32275e-13
8.87496e-13
1.02722e-12
1.04726e-12
1.15654e-12
1.26685e-12
1.33209e-12
1.44979e-12
1.48776e-12
1.46248e-12
1.39504e-12
1.31801e-12
1.29174e-12
1.36366e-12
1.48445e-12
1.59123e-12
1.66201e-12
1.71146e-12
1.66938e-12
1.5586e-12
1.46637e-12
1.35832e-12
1.22557e-12
1.05381e-12
9.37109e-13
7.94433e-13
7.66614e-13
7.67914e-13
7.43965e-13
6.51065e-13
5.2889e-13
4.38208e-13
3.2042e-13
4.41059e-13
5.60469e-13
5.86357e-13
6.9077e-13
6.94629e-13
6.4716e-13
7.46938e-13
8.99206e-13
9.39238e-13
8.56468e-13
7.58906e-13
6.86695e-13
5.95356e-13
5.98186e-13
6.28779e-13
6.0612e-13
5.91063e-13
6.2266e-13
5.98817e-13
7.80336e-13
8.85183e-13
9.17993e-13
9.83362e-13
9.54755e-13
8.82189e-13
9.20153e-13
1.01553e-12
1.09739e-12
1.1451e-12
1.21883e-12
1.25912e-12
1.19641e-12
1.13683e-12
1.09151e-12
1.11123e-12
1.13085e-12
1.0411e-12
8.46801e-13
7.06672e-13
6.65874e-13
5.62469e-13
6.38888e-13
7.03699e-13
7.01871e-13
7.45698e-13
7.98482e-13
9.26307e-13
1.04477e-12
1.12511e-12
1.18716e-12
1.11312e-12
1.04925e-12
1.01337e-12
9.94896e-13
1.06306e-12
1.0717e-12
1.06163e-12
1.01478e-12
1.09054e-12
1.09162e-12
1.07878e-12
1.24884e-12
1.15174e-12
1.04322e-12
9.68712e-13
9.71551e-13
9.96714e-13
9.92235e-13
1.03175e-12
1.09543e-12
1.15787e-12
1.18176e-12
1.24484e-12
1.34634e-12
1.46614e-12
1.55857e-12
1.52366e-12
1.58729e-12
1.60915e-12
1.71578e-12
1.82289e-12
1.90466e-12
1.92976e-12
1.81907e-12
1.6998e-12
1.67131e-12
1.57345e-12
1.54698e-12
1.42699e-12
1.26721e-12
1.12491e-12
1.11537e-12
1.06417e-12
1.04311e-12
1.06673e-12
9.82275e-13
9.2637e-13
8.29978e-13
6.87524e-13
6.59593e-13
5.4838e-13
4.70482e-13
3.72161e-13
3.77906e-13
4.80661e-13
5.88685e-13
6.07776e-13
6.99208e-13
8.21587e-13
9.03475e-13
9.2951e-13
9.30207e-13
9.32665e-13
1.04896e-12
1.04352e-12
9.56252e-13
8.7321e-13
8.04998e-13
8.51336e-13
7.81834e-13
7.28799e-13
7.20946e-13
6.52033e-13
6.10104e-13
6.42971e-13
7.39796e-13
5.93196e-13
6.41307e-13
6.7187e-13
5.45498e-13
5.0567e-13
4.42103e-13
4.05208e-13
3.98922e-13
2.33333e-13
1.28686e-13
2.29277e-14
1.01199e-13
2.00837e-13
2.88833e-13
2.48628e-13
1.71283e-13
1.94855e-13
2.03477e-13
1.48433e-13
1.79526e-13
1.76957e-13
1.91628e-13
2.35241e-13
2.65492e-13
1.86464e-13
3.55724e-14
1.23499e-15
2.1972e-14
2.40806e-14
3.61262e-15
9.12461e-14
2.12244e-13
2.43616e-13
2.75578e-13
2.68106e-13
3.44114e-13
3.98135e-13
4.32749e-13
3.84475e-13
2.81242e-13
1.2666e-13
2.85307e-14
8.58009e-14
2.014e-14
8.42167e-15
2.39572e-14
6.13928e-14
7.15036e-14
3.90095e-14
4.51508e-14
5.14369e-14
4.41626e-14
2.15333e-13
3.25961e-13
3.20875e-13
3.86893e-13
4.52352e-13
3.51395e-13
2.10666e-13
1.4576e-13
1.81753e-13
1.99434e-13
1.62e-13
2.49186e-13
3.04064e-13
3.75189e-13
4.20185e-13
4.58048e-13
4.87887e-13
4.2864e-13
4.28643e-13
4.28748e-13
4.84916e-13
5.20714e-13
4.64661e-13
3.53817e-13
3.73185e-13
4.0023e-13
2.65746e-13
3.37718e-13
3.70474e-13
3.63358e-13
2.71157e-13
1.41422e-13
5.99174e-14
5.01474e-14
4.28886e-14
1.15068e-14
1.21489e-13
6.86826e-14
2.21254e-15
1.9713e-14
7.42168e-14
6.43836e-14
7.92303e-14
1.57017e-13
1.73935e-13
1.98178e-13
2.20404e-13
2.07014e-13
1.44011e-13
2.15724e-14
8.56951e-14
2.1511e-13
2.6499e-13
1.35878e-13
3.15556e-14
7.28546e-14
1.36019e-13
9.16353e-14
1.26011e-13
8.79193e-14
1.04512e-13
1.81216e-13
1.93771e-13
2.05579e-13
2.17572e-13
1.54767e-13
1.44415e-13
2.55282e-13
2.90852e-13
3.31508e-13
2.94194e-13
2.85712e-13
2.61981e-13
2.47603e-13
3.26945e-13
4.1697e-13
4.53672e-13
5.06158e-13
6.05754e-13
6.96993e-13
6.76553e-13
6.33282e-13
6.76391e-13
7.07724e-13
8.35706e-13
7.35984e-13
7.53372e-13
8.10127e-13
8.27934e-13
9.03756e-13
1.05038e-12
1.08871e-12
1.05355e-12
9.99301e-13
9.03811e-13
7.96562e-13
7.65309e-13
7.76209e-13
8.25425e-13
8.30423e-13
8.4319e-13
9.86546e-13
9.6655e-13
9.29043e-13
9.09982e-13
8.81287e-13
9.13529e-13
8.87327e-13
9.00343e-13
1.04134e-12
1.16837e-12
1.077e-12
1.09421e-12
1.11031e-12
1.06942e-12
9.48967e-13
8.67877e-13
7.71389e-13
7.5432e-13
8.00163e-13
8.39127e-13
8.7044e-13
8.59782e-13
8.08662e-13
9.02762e-13
1.04281e-12
1.04975e-12
1.17808e-12
1.21682e-12
1.15459e-12
1.08452e-12
9.61621e-13
8.78263e-13
7.54812e-13
6.53885e-13
6.38838e-13
5.92882e-13
4.67807e-13
4.8505e-13
5.93367e-13
6.6314e-13
7.47754e-13
7.51329e-13
7.77636e-13
7.43145e-13
7.66035e-13
6.73469e-13
5.71343e-13
5.80021e-13
6.10575e-13
5.04973e-13
4.52892e-13
3.24e-13
2.13895e-13
1.89893e-13
2.04392e-13
2.44679e-13
3.25064e-13
3.84335e-13
3.01771e-13
3.05011e-13
3.57948e-13
3.08571e-13
2.70829e-13
3.21787e-13
3.63189e-13
3.47913e-13
3.7558e-13
4.49145e-13
5.2263e-13
5.09535e-13
4.71914e-13
5.37005e-13
6.06697e-13
7.2433e-13
7.74013e-13
8.51019e-13
8.83198e-13
9.79709e-13
9.92227e-13
9.51001e-13
9.77316e-13
9.98565e-13
9.37421e-13
9.35025e-13
1.02875e-12
1.09561e-12
1.09887e-12
1.0544e-12
8.99655e-13
6.7408e-13
5.61659e-13
4.79549e-13
4.43375e-13
3.57196e-13
2.34317e-13
1.69674e-13
1.19704e-13
1.67863e-13
2.55079e-13
3.73064e-13
4.75797e-13
4.41695e-13
3.76473e-13
4.22275e-13
3.73858e-13
4.38099e-13
3.97279e-13
3.32858e-13
2.89671e-13
2.81373e-13
2.98122e-13
2.82273e-13
2.4095e-13
1.53753e-13
1.85281e-13
2.04053e-13
2.53582e-13
1.87756e-13
1.08712e-13
6.68617e-14
1.17745e-13
1.36324e-13
9.29513e-14
5.53455e-14
7.44833e-14
9.62358e-14
2.10894e-13
3.08496e-13
3.70843e-13
3.51672e-13
4.08685e-13
4.34131e-13
3.87438e-13
4.39849e-13
4.69045e-13
4.87293e-13
5.26631e-13
5.02534e-13
4.11724e-13
2.71084e-13
8.77286e-14
5.45816e-14
8.50897e-14
1.86993e-14
1.58808e-14
3.96693e-14
2.36465e-14
6.26085e-14
9.33937e-14
7.96034e-14
1.02411e-13
1.41357e-13
6.70992e-14
6.77757e-14
1.03543e-13
7.43738e-14
1.17887e-13
1.56634e-13
2.49784e-13
2.57422e-13
2.06679e-13
2.72005e-13
1.70292e-13
4.39278e-14
1.10651e-13
9.34665e-14
6.20897e-14
8.72592e-14
2.06618e-13
3.12511e-13
4.28631e-13
5.1943e-13
5.07043e-13
5.56898e-13
5.83668e-13
7.09948e-13
7.54358e-13
7.06219e-13
7.67425e-13
8.42402e-13
8.86281e-13
9.07599e-13
8.23665e-13
7.59561e-13
8.52331e-13
9.20733e-13
9.75567e-13
1.07552e-12
1.18422e-12
1.24977e-12
1.19719e-12
1.14938e-12
1.09105e-12
1.10021e-12
1.12781e-12
1.09762e-12
1.02567e-12
1.05905e-12
1.08076e-12
1.01448e-12
9.81507e-13
9.68017e-13
9.91437e-13
1.02512e-12
9.9635e-13
9.39092e-13
8.58198e-13
9.55201e-13
1.07923e-12
1.09049e-12
1.1831e-12
1.24132e-12
1.25216e-12
1.22636e-12
1.08083e-12
9.38238e-13
8.2915e-13
6.33072e-13
5.60184e-13
4.52748e-13
3.21123e-13
2.70273e-13
1.92359e-13
1.88306e-13
1.72222e-13
1.52345e-13
1.8429e-13
2.41788e-13
2.88189e-13
3.24398e-13
2.24583e-13
1.22087e-13
2.41147e-13
2.62338e-13
2.71984e-13
4.04708e-13
4.63204e-13
3.80889e-13
3.26008e-13
3.95321e-13
3.32082e-13
3.2333e-13
3.38921e-13
3.11333e-13
3.98945e-13
3.73475e-13
2.87139e-13
4.2693e-13
4.74499e-13
5.02301e-13
5.49595e-13
5.66774e-13
4.93549e-13
3.56328e-13
3.2977e-13
3.065e-13
2.53537e-13
1.68845e-13
1.18884e-13
8.68787e-14
1.40343e-13
1.7519e-13
1.8546e-13
2.65976e-13
2.95378e-13
2.47189e-13
1.74284e-13
1.42009e-13
1.83062e-13
7.84799e-14
6.91351e-15
1.00674e-13
1.8593e-13
1.43851e-13
4.72743e-14
9.63441e-14
1.36776e-13
2.436e-13
3.0199e-13
2.8995e-13
4.06423e-13
4.24547e-13
3.87006e-13
3.42405e-13
2.89073e-13
3.04148e-13
1.64372e-13
1.98767e-14
1.02274e-13
7.41941e-14
6.74466e-14
1.30252e-14
2.85937e-14
1.34328e-13
2.40943e-13
3.43661e-13
4.27295e-13
4.15756e-13
3.74641e-13
3.8556e-13
4.74815e-13
5.4293e-13
5.52736e-13
5.00609e-13
3.82103e-13
3.89768e-13
4.69847e-13
4.37696e-13
3.33787e-13
3.62053e-13
3.55527e-13
3.19495e-13
2.84372e-13
2.22273e-13
1.54063e-13
1.11395e-13
7.4844e-14
1.12521e-13
1.20418e-13
1.9767e-13
3.43047e-13
4.47778e-13
4.11457e-13
3.53325e-13
4.36582e-13
5.69565e-13
6.33463e-13
7.06372e-13
7.61e-13
6.88732e-13
6.71346e-13
6.42458e-13
6.14243e-13
5.97539e-13
5.61686e-13
6.05978e-13
5.815e-13
5.33089e-13
5.3278e-13
5.44764e-13
4.66215e-13
4.09672e-13
3.5174e-13
3.0254e-13
3.04021e-13
3.06052e-13
3.07476e-13
2.01121e-13
9.57197e-14
2.13624e-14
4.3698e-14
1.34153e-15
5.8141e-14
4.65e-15
2.63153e-14
6.64037e-14
6.8155e-14
9.9022e-14
1.00482e-13
1.26467e-13
1.9926e-13
2.65241e-13
2.40879e-13
1.71807e-13
1.70816e-13
1.39873e-13
1.08732e-13
1.64456e-13
9.50419e-14
2.35246e-14
4.87155e-14
2.76189e-14
8.9888e-14
7.84326e-14
1.33975e-13
2.35531e-13
2.8365e-13
4.26728e-13
4.93904e-13
5.73415e-13
5.84869e-13
5.98411e-13
5.85352e-13
4.40559e-13
3.24143e-13
3.59431e-13
3.92071e-13
5.05236e-13
5.35746e-13
4.79609e-13
4.61037e-13
3.86206e-13
3.22979e-13
2.75316e-13
2.74128e-13
2.20054e-13
1.68689e-13
1.86993e-13
2.57608e-13
2.34508e-13
2.75553e-13
3.38161e-13
3.68849e-13
3.1128e-13
3.49425e-13
5.63004e-13
7.17563e-13
9.05888e-13
1.07303e-12
1.05114e-12
9.37079e-13
9.22567e-13
8.60097e-13
7.26317e-13
7.02676e-13
6.78999e-13
5.67334e-13
5.42089e-13
5.7776e-13
4.58648e-13
5.03668e-13
4.1617e-13
4.48785e-13
5.5054e-13
6.95131e-13
8.34246e-13
9.13989e-13
9.23295e-13
8.94627e-13
9.51403e-13
1.00113e-12
9.45531e-13
1.01233e-12
1.06842e-12
1.14643e-12
1.09139e-12
1.10014e-12
1.16692e-12
1.26731e-12
1.41791e-12
1.43843e-12
1.43076e-12
1.38022e-12
1.34931e-12
1.29753e-12
1.305e-12
1.27432e-12
1.1408e-12
9.63885e-13
8.12534e-13
6.62315e-13
5.10077e-13
4.61632e-13
3.79543e-13
3.94048e-13
5.56178e-13
7.63625e-13
8.13039e-13
8.0929e-13
7.91813e-13
8.46162e-13
8.7151e-13
8.35872e-13
8.93112e-13
1.00513e-12
9.53335e-13
8.5473e-13
8.66947e-13
7.47334e-13
6.21116e-13
5.80243e-13
5.92074e-13
5.72895e-13
5.71712e-13
6.17754e-13
6.12967e-13
6.0021e-13
6.3215e-13
6.1959e-13
5.8886e-13
6.30092e-13
5.95768e-13
5.99591e-13
6.13008e-13
5.79102e-13
6.09764e-13
6.54075e-13
7.07182e-13
6.84333e-13
7.77494e-13
7.12301e-13
6.92174e-13
6.53737e-13
6.41947e-13
7.24649e-13
7.50549e-13
7.59028e-13
8.04359e-13
7.58281e-13
7.93551e-13
7.06263e-13
6.70067e-13
5.6276e-13
5.32962e-13
5.0386e-13
5.2125e-13
5.55951e-13
4.97122e-13
4.85916e-13
5.39413e-13
4.53652e-13
2.60726e-13
6.23415e-14
6.3052e-14
1.40755e-13
1.08072e-13
1.5331e-13
1.77506e-13
1.60659e-13
1.80527e-13
1.56801e-13
1.86568e-13
2.57091e-13
2.8162e-13
3.18526e-13
3.59932e-13
3.3421e-13
3.48086e-13
3.37613e-13
2.78457e-13
2.52921e-13
2.81388e-13
2.306e-13
2.65991e-13
3.02733e-13
3.27193e-13
3.10189e-13
2.50028e-13
2.63449e-13
2.7545e-13
2.4938e-13
2.58316e-13
2.79052e-13
2.45043e-13
2.23742e-13
1.3131e-13
1.71881e-13
1.1707e-13
8.94785e-14
1.19142e-13
4.08395e-14
8.12203e-15
9.65174e-14
1.42165e-13
2.07703e-13
1.36172e-13
5.28487e-14
1.80539e-14
1.22944e-14
4.73794e-14
2.91126e-14
8.64958e-15
4.36881e-14
4.88686e-14
2.93396e-15
2.63195e-14
4.42383e-14
6.92603e-14
2.60379e-13
3.29145e-13
2.36154e-13
1.65656e-13
1.63674e-14
8.87728e-14
2.741e-13
4.22403e-13
5.37938e-13
5.62207e-13
5.53256e-13
5.55897e-13
5.23676e-13
3.58336e-13
2.49587e-13
1.65425e-13
9.0591e-14
1.37416e-14
1.02376e-13
1.47563e-13
1.57606e-13
1.12316e-13
1.18246e-13
3.20764e-14
1.91733e-14
6.1657e-15
1.21843e-13
8.78546e-14
1.31863e-13
1.55675e-13
1.47274e-13
1.84127e-13
2.3539e-13
2.81947e-13
2.78284e-13
3.72788e-13
3.9985e-13
4.45785e-13
4.79165e-13
4.89738e-13
4.18234e-13
4.01317e-13
4.55523e-13
5.58747e-13
7.27765e-13
8.08463e-13
8.99448e-13
1.03678e-12
1.15697e-12
1.32189e-12
1.48358e-12
1.49392e-12
1.55291e-12
1.63005e-12
1.68447e-12
1.7127e-12
1.77728e-12
1.85178e-12
1.94961e-12
1.95169e-12
1.90125e-12
1.89099e-12
1.78582e-12
1.67956e-12
1.62919e-12
1.44107e-12
1.22837e-12
1.10813e-12
9.37028e-13
9.01824e-13
8.87924e-13
8.40359e-13
8.06461e-13
7.42514e-13
6.09919e-13
4.3748e-13
3.96155e-13
2.39553e-13
8.3705e-14
1.49941e-13
2.33728e-13
3.14918e-13
3.70699e-13
2.77115e-13
1.91908e-13
1.40869e-13
3.96926e-14
9.55676e-14
2.26244e-13
2.43521e-13
3.26428e-13
3.33136e-13
2.5298e-13
2.68234e-13
3.07199e-13
2.57707e-13
3.10605e-13
3.49506e-13
4.05399e-13
4.20665e-13
4.38961e-13
3.94482e-13
4.37141e-13
4.37056e-13
4.28895e-13
5.41431e-13
6.14579e-13
6.78841e-13
6.9076e-13
7.37549e-13
7.17616e-13
7.25721e-13
7.1697e-13
6.7678e-13
6.52211e-13
6.5718e-13
5.33156e-13
2.4705e-13
4.49859e-15
2.96363e-15
1.25356e-14
7.89974e-14
1.81173e-13
3.18173e-13
2.99018e-13
3.44766e-13
2.58915e-13
3.4091e-14
1.26671e-13
1.73239e-13
3.47226e-13
4.69472e-13
4.39478e-13
5.30943e-13
5.20973e-13
4.16013e-13
2.9623e-13
1.62304e-13
1.56442e-13
1.24571e-13
1.39361e-13
6.08336e-14
3.4579e-14
2.10775e-13
1.90947e-13
1.47522e-13
1.30026e-13
1.83333e-13
3.14828e-13
2.35081e-13
1.9423e-13
4.95034e-14
1.127e-13
2.36897e-13
2.99379e-13
4.06095e-13
4.22698e-13
4.86528e-13
3.56361e-13
3.9451e-13
5.19957e-13
5.5415e-13
4.51277e-13
4.53657e-13
4.76807e-13
4.22522e-13
3.61756e-13
2.28813e-13
3.67068e-14
6.78666e-14
7.7194e-14
9.08722e-14
8.88077e-14
6.98036e-14
8.6222e-14
2.78103e-14
9.40493e-15
4.4176e-14
1.07279e-13
5.51962e-14
1.2743e-13
2.03802e-13
1.88361e-13
2.34092e-13
1.91671e-13
1.70024e-13
7.4716e-14
3.17479e-14
5.61174e-14
1.419e-13
1.90996e-13
2.61649e-13
4.10761e-13
5.40277e-13
6.26496e-13
7.60128e-13
8.04543e-13
7.59493e-13
6.8722e-13
5.65125e-13
5.4759e-13
4.453e-13
3.98013e-13
4.30896e-13
4.12893e-13
4.55398e-13
5.41935e-13
6.06604e-13
6.03462e-13
6.08642e-13
6.17277e-13
5.33643e-13
5.5527e-13
6.05583e-13
6.1147e-13
5.14868e-13
4.38563e-13
4.64094e-13
3.97687e-13
3.72558e-13
4.51069e-13
5.53094e-13
5.15103e-13
5.26952e-13
5.55309e-13
5.87821e-13
5.93914e-13
6.07348e-13
6.21877e-13
6.22425e-13
6.48898e-13
6.43258e-13
6.42827e-13
6.52579e-13
5.99961e-13
5.85373e-13
5.79189e-13
6.03026e-13
6.90564e-13
5.96233e-13
4.75981e-13
4.34671e-13
5.413e-13
4.83519e-13
4.95391e-13
5.67724e-13
6.11826e-13
6.52691e-13
7.14053e-13
7.89681e-13
8.70335e-13
8.90981e-13
8.8293e-13
9.74418e-13
1.03169e-12
1.10526e-12
1.15187e-12
1.28318e-12
1.3373e-12
1.40887e-12
1.3684e-12
1.44664e-12
1.53458e-12
1.5135e-12
1.42472e-12
1.40153e-12
1.45229e-12
1.39417e-12
1.45114e-12
1.46165e-12
1.34659e-12
1.35605e-12
1.3622e-12
1.4369e-12
1.51736e-12
1.46349e-12
1.40293e-12
1.39226e-12
1.41317e-12
1.50754e-12
1.59458e-12
1.566e-12
1.58391e-12
1.51333e-12
1.50269e-12
1.44523e-12
1.33248e-12
1.17664e-12
1.13273e-12
1.21587e-12
1.26527e-12
1.31782e-12
1.23559e-12
1.25406e-12
1.45913e-12
1.60774e-12
1.75832e-12
1.82146e-12
1.78372e-12
1.76972e-12
1.83896e-12
1.88288e-12
1.8964e-12
1.94157e-12
1.95156e-12
1.8926e-12
1.81856e-12
1.75553e-12
1.75818e-12
1.7058e-12
1.76772e-12
1.8705e-12
1.85377e-12
1.85166e-12
1.92674e-12
1.85881e-12
1.67829e-12
1.57357e-12
1.58066e-12
1.61689e-12
1.63957e-12
1.52477e-12
1.34187e-12
1.22393e-12
1.09141e-12
1.01908e-12
9.51136e-13
8.82164e-13
8.10797e-13
8.27468e-13
8.31822e-13
8.54875e-13
8.13499e-13
8.78273e-13
8.44956e-13
8.74597e-13
9.29618e-13
9.75044e-13
9.85382e-13
9.80162e-13
9.42253e-13
9.13983e-13
8.90105e-13
8.61962e-13
8.59574e-13
7.00295e-13
6.43411e-13
6.6214e-13
6.34858e-13
5.94407e-13
5.48488e-13
5.03412e-13
5.40734e-13
6.47194e-13
6.94611e-13
7.64149e-13
8.05617e-13
8.99963e-13
9.85284e-13
1.08328e-12
1.0883e-12
1.03851e-12
9.73663e-13
8.99998e-13
9.03913e-13
8.02279e-13
6.78519e-13
5.93072e-13
5.71905e-13
5.23123e-13
4.97158e-13
4.48631e-13
5.40176e-13
6.91203e-13
8.24966e-13
8.97129e-13
8.90914e-13
9.295e-13
9.29123e-13
9.52448e-13
9.67768e-13
1.03097e-12
9.74305e-13
8.53048e-13
8.1972e-13
8.10831e-13
7.21568e-13
5.42634e-13
3.13674e-13
1.89316e-13
1.14915e-13
8.146e-14
5.97584e-14
2.22302e-14
1.00119e-13
2.03145e-13
2.84998e-13
3.78052e-13
5.14439e-13
5.76618e-13
5.39628e-13
4.9543e-13
4.58961e-13
3.62145e-13
2.96103e-13
2.41444e-13
1.77044e-13
2.2887e-13
1.76588e-13
2.20621e-13
1.32939e-13
6.27732e-14
6.63357e-14
1.44661e-13
1.95406e-13
2.81979e-13
2.64905e-13
1.82705e-13
1.55365e-13
1.07362e-13
2.91016e-13
3.45109e-13
3.76196e-13
4.36537e-13
5.05481e-13
6.80481e-13
8.15345e-13
8.31579e-13
8.53452e-13
1.01078e-12
1.13465e-12
1.18522e-12
1.27906e-12
1.28298e-12
1.20606e-12
1.10906e-12
1.15822e-12
1.28571e-12
1.37294e-12
1.47043e-12
1.43981e-12
1.41442e-12
1.37032e-12
1.31344e-12
1.21342e-12
1.15344e-12
1.03454e-12
9.71889e-13
1.0228e-12
1.00612e-12
9.54325e-13
1.02753e-12
1.12933e-12
1.14789e-12
1.20953e-12
1.26763e-12
1.32074e-12
1.31478e-12
1.2994e-12
1.24013e-12
1.29744e-12
1.22047e-12
1.13796e-12
1.1642e-12
1.12931e-12
1.1714e-12
1.19867e-12
1.19097e-12
1.17939e-12
1.01939e-12
8.55164e-13
8.47797e-13
7.97183e-13
8.37718e-13
8.93928e-13
8.50868e-13
7.32291e-13
7.61655e-13
6.80579e-13
6.60696e-13
7.15874e-13
7.8803e-13
8.40563e-13
7.80871e-13
6.9313e-13
7.33194e-13
7.96807e-13
8.34309e-13
7.95111e-13
7.69305e-13
8.17273e-13
8.35586e-13
8.43927e-13
9.6128e-13
1.01907e-12
1.13701e-12
1.23809e-12
1.40936e-12
1.3415e-12
1.21056e-12
1.1443e-12
1.1015e-12
1.06499e-12
9.58108e-13
8.07263e-13
7.3847e-13
6.89429e-13
6.73458e-13
6.0768e-13
5.54771e-13
5.32653e-13
6.35827e-13
6.76858e-13
6.79799e-13
6.61192e-13
5.98567e-13
4.7709e-13
4.01004e-13
3.01047e-13
2.48647e-13
2.6124e-13
2.15327e-13
2.33746e-13
1.80546e-13
1.63747e-13
1.62809e-13
1.18529e-13
9.95786e-14
1.5588e-13
2.64135e-13
3.07725e-13
2.70877e-13
2.36425e-13
2.98208e-13
3.95278e-13
4.40037e-13
4.65682e-13
5.44531e-13
5.89203e-13
5.38761e-13
5.54979e-13
6.6047e-13
6.08385e-13
4.90549e-13
5.00751e-13
5.01635e-13
4.92469e-13
5.78648e-13
6.48922e-13
5.9004e-13
3.97545e-13
3.57097e-13
3.05048e-13
3.37277e-13
2.23305e-13
2.28178e-13
2.91578e-13
3.69096e-13
4.28708e-13
2.97205e-13
2.99246e-13
2.94609e-13
2.41789e-13
2.72255e-13
4.38087e-13
3.93333e-13
3.31529e-13
3.39134e-13
3.76585e-13
4.59864e-13
5.02848e-13
4.18051e-13
3.8238e-13
2.59676e-13
1.77797e-13
4.94509e-14
4.89715e-14
3.5576e-14
1.57265e-13
2.65263e-13
2.41709e-13
1.80401e-13
9.81756e-14
3.91685e-15
7.97923e-15
2.57395e-14
3.49114e-14
1.91044e-14
9.66983e-14
1.77524e-13
3.00995e-13
3.57777e-13
3.43871e-13
2.64968e-13
2.25847e-13
2.70334e-13
2.04561e-13
1.77942e-13
1.71999e-13
1.44646e-13
1.09443e-14
1.86336e-15
5.19307e-14
4.53171e-14
6.09843e-14
2.18219e-13
3.09111e-13
3.68339e-13
3.86385e-13
4.43877e-13
5.43583e-13
6.68417e-13
7.39504e-13
8.37604e-13
9.01313e-13
9.24019e-13
9.68166e-13
9.69586e-13
9.4827e-13
8.36199e-13
7.87272e-13
7.22696e-13
7.38701e-13
7.77087e-13
8.35843e-13
7.88701e-13
6.46648e-13
3.46714e-13
2.8808e-13
2.36979e-12
8.60413e-12
2.91105e-11
9.03757e-11
2.77406e-10
8.53598e-10
2.62393e-09
8.06426e-09
2.47805e-08
7.6184e-08
2.34277e-07
7.20532e-07
2.21623e-06
6.81739e-06
2.0973e-05
6.45258e-05
0.000198531
0.000610846
0.00187939
0.00578161
0.0177825
0.0546797
0.168112
0.516857
1.60355
4.46342
7.59187
9.49742
10.6559
11.4506
12.0763
12.634
13.1678
13.6765
14.1339
14.5212
14.8362
15.0864
15.2818
15.4322
15.5461
15.631
15.6935
15.7389
15.7714
15.7944
15.8106
15.8219
15.8296
15.8349
15.8385
15.8409
15.8426
15.8436
15.8443