/*--------------------------------*- C++ -*----------------------------------*\
  =========                 |
  \\      /  F ield         | OpenFOAM: The Open Source CFD Toolbox
   \\    /   O peration     | Website:  https://openfoam.org
    \\  /    A nd           | Version:  9
     \\/     M anipulation  |
\*---------------------------------------------------------------------------*/
FoamFile
{
    format      ascii;
    class       volScalarField;
    location    "0.007";
    object      p;
}
// * * * * * * * * * * * * * * * * * * * * * * * * * * * * * * * * * * * * * //

dimensions      [1 -1 -2 0 0 0 0];

internalField   nonuniform List<scalar> 
10000
(
100000
100000
100000
100000
100000
100000
100000
100000
100000
100000
100000
100000
100000
100000
100000
100000
100000
100000
100000
100000
100000
100000
100000
100000
100000
100000
100000
100000
100000
100000
100000
100000
100000
100000
100000
100000
100000
100000
100000
100000
100000
100000
100000
100000
100000
100000
100000
100000
100000
100000
100000
100000
100000
100000
100000
100000
100000
100000
100000
100000
100000
100000
100000
100000
100000
100000
100000
100000
100000
100000
100000
100000
100000
100000
100000
100000
100000
100000
100000
100000
100000
100000
100000
100000
100000
100000
100000
100000
100000
100000
100000
100000
100000
100000
100000
100000
100000
100000
100000
100000
100000
100000
100000
100000
100000
100000
100000
100000
100000
100000
100000
100000
100000
100000
100000
100000
100000
100000
100000
100000
100000
100000
100000
100000
100000
100000
100000
100000
100000
100000
100000
100000
100000
100000
100000
100000
100000
100000
100000
100000
100000
100000
100000
100000
100000
100000
100000
100000
100000
100000
100000
100000
100000
100000
100000
100000
100000
100000
100000
100000
100000
100000
100000
100000
100000
100000
100000
100000
100000
100000
100000
100000
100000
100000
100000
100000
100000
100000
100000
100000
100000
100000
100000
100000
100000
100000
100000
100000
100000
100000
100000
100000
100000
100000
100000
100000
100000
100000
100000
100000
100000
100000
100000
100000
100000
100000
100000
100000
100000
100000
100000
100000
100000
100000
100000
100000
100000
100000
100000
100000
100000
100000
100000
100000
100000
100000
100000
100000
100000
100000
100000
100000
100000
100000
100000
100000
100000
100000
100000
100000
100000
100000
100000
100000
100000
100000
100000
100000
100000
100000
100000
100000
100000
100000
100000
100000
100000
100000
100000
100000
100000
100000
100000
100000
100000
100000
100000
100000
100000
100000
100000
100000
100000
100000
100000
100000
100000
100000
100000
100000
100000
100000
100000
100000
100000
100000
100000
100000
100000
100000
100000
100000
100000
100000
100000
100000
100000
100000
100000
100000
100000
100000
100000
100000
100000
100000
100000
100000
100000
100000
100000
100000
100000
100000
100000
100000
100000
100000
100000
100000
100000
100000
100000
100000
100000
100000
100000
100000
100000
100000
100000
100000
100000
100000
100000
100000
100000
100000
100000
100000
100000
100000
100000
100000
100000
100000
100000
100000
100000
100000
100000
100000
100000
100000
100000
100000
100000
100000
100000
100000
100000
100000
100000
100000
100000
100000
100000
100000
100000
100000
100000
100000
100000
100000
100000
100000
100000
100000
100000
100000
100000
100000
100000
100000
100000
100000
100000
100000
100000
100000
100000
100000
100000
100000
100000
100000
100000
100000
100000
100000
100000
100000
100000
100000
100000
100000
100000
100000
100000
100000
100000
100000
100000
100000
100000
100000
100000
100000
100000
100000
100000
100000
100000
100000
100000
100000
100000
100000
100000
100000
100000
100000
100000
100000
100000
100000
100000
100000
100000
100000
100000
100000
100000
100000
100000
100000
100000
100000
100000
100000
100000
100000
100000
100000
100000
100000
100000
100000
100000
100000
100000
100000
100000
100000
100000
100000
100000
100000
100000
100000
100000
100000
100000
100000
100000
100000
100000
100000
100000
100000
100000
100000
100000
100000
100000
100000
100000
100000
100000
100000
100000
100000
100000
100000
100000
100000
100000
100000
100000
100000
100000
100000
100000
100000
100000
100000
100000
100000
100000
100000
100000
100000
100000
100000
100000
100000
100000
100000
100000
100000
100000
100000
100000
100000
100000
100000
100000
100000
100000
100000
100000
100000
100000
100000
100000
100000
100000
100000
100000
100000
100000
100000
100000
100000
100000
100000
100000
100000
100000
100000
100000
100000
100000
100000
100000
100000
100000
100000
100000
100000
100000
100000
100000
100000
100000
100000
100000
100000
100000
100000
100000
100000
100000
100000
100000
100000
100000
100000
100000
100000
100000
100000
100000
100000
100000
100000
100000
100000
100000
100000
100000
100000
100000
100000
100000
100000
100000
100000
100000
100000
100000
100000
100000
100000
100000
100000
100000
100000
100000
100000
100000
100000
100000
100000
100000
100000
100000
100000
100000
100000
100000
100000
100000
100000
100000
100000
100000
100000
100000
100000
100000
100000
100000
100000
100000
100000
100000
100000
100000
100000
100000
100000
100000
100000
100000
100000
100000
100000
100000
100000
100000
100000
100000
100000
100000
100000
100000
100000
100000
100000
100000
100000
100000
100000
100000
100000
100000
100000
100000
100000
100000
100000
100000
100000
100000
100000
100000
100000
100000
100000
100000
100000
100000
100000
100000
100000
100000
100000
100000
100000
100000
100000
100000
100000
100000
100000
100000
100000
100000
100000
100000
100000
100000
100000
100000
100000
100000
100000
100000
100000
100000
100000
100000
100000
100000
100000
100000
100000
100000
100000
100000
100000
100000
100000
100000
100000
100000
100000
100000
100000
100000
100000
100000
100000
100000
100000
100000
100000
100000
100000
100000
100000
100000
100000
100000
100000
100000
100000
100000
100000
100000
100000
100000
100000
100000
100000
100000
100000
100000
100000
100000
100000
100000
100000
100000
100000
100000
100000
100000
100000
100000
100000
100000
100000
100000
100000
100000
100000
100000
100000
100000
100000
100000
100000
100000
100000
100000
100000
100000
100000
100000
100000
100000
100000
100000
100000
100000
100000
100000
100000
100000
100000
100000
100000
100000
100000
100000
100000
100000
100000
100000
100000
100000
100000
100000
100000
100000
100000
100000
100000
100000
100000
100000
100000
100000
100000
100000
100000
100000
100000
100000
100000
100000
100000
100000
100000
100000
100000
100000
100000
100000
100000
100000
100000
100000
100000
100000
100000
100000
100000
100000
100000
100000
100000
100000
100000
100000
100000
100000
100000
100000
100000
100000
100000
100000
100000
100000
100000
100000
100000
100000
100000
100000
100000
100000
100000
100000
100000
100000
100000
100000
100000
100000
100000
100000
100000
100000
100000
100000
100000
100000
100000
100000
100000
100000
100000
100000
100000
100000
100000
100000
100000
100000
100000
100000
100000
100000
100000
100000
100000
100000
100000
100000
100000
100000
100000
100000
100000
100000
100000
100000
100000
100000
100000
100000
100000
100000
100000
100000
100000
100000
100000
100000
100000
100000
100000
100000
100000
100000
100000
100000
100000
100000
100000
100000
100000
100000
100000
100000
100000
100000
100000
100000
100000
100000
100000
100000
100000
100000
100000
100000
100000
100000
100000
100000
100000
100000
100000
100000
100000
100000
100000
100000
100000
100000
100000
100000
100000
100000
100000
100000
100000
100000
100000
100000
100000
100000
100000
100000
100000
100000
100000
100000
100000
100000
100000
100000
100000
100000
100000
100000
100000
100000
100000
100000
100000
100000
100000
100000
100000
100000
100000
100000
100000
100000
100000
100000
100000
100000
100000
100000
100000
100000
100000
100000
100000
100000
100000
100000
100000
100000
100000
100000
100000
100000
100000
100000
100000
100000
100000
100000
100000
100000
100000
100000
100000
100000
100000
100000
100000
100000
100000
100000
100000
100000
100000
100000
100000
100000
100000
100000
100000
100000
100000
100000
100000
100000
100000
100000
100000
100000
100000
100000
100000
100000
100000
100000
100000
100000
100000
100000
100000
100000
100000
100000
100000
100000
100000
100000
100000
100000
100000
100000
100000
100000
100000
100000
100000
100000
100000
100000
100000
100000
100000
100000
100000
100000
100000
100000
100000
100000
100000
100000
100000
100000
100000
100000
100000
100000
100000
100000
100000
100000
100000
100000
100000
100000
100000
100000
100000
100000
100000
100000
100000
100000
100000
100000
100000
100000
100000
100000
100000
100000
100000
100000
100000
100000
100000
100000
100000
100000
100000
100000
100000
100000
100000
100000
100000
100000
100000
100000
100000
100000
100000
100000
100000
100000
100000
100000
100000
100000
100000
100000
100000
100000
100000
100000
100000
100000
100000
100000
100000
100000
100000
100000
100000
100000
100000
100000
100000
100000
100000
100000
100000
100000
100000
100000
100000
100000
100000
100000
100000
100000
100000
100000
100000
100000
100000
100000
100000
100000
100000
100000
100000
100000
100000
100000
100000
100000
100000
100000
100000
100000
100000
100000
100000
100000
100000
100000
100000
100000
100000
100000
100000
100000
100000
100000
100000
100000
100000
100000
100000
100000
100000
100000
100000
100000
100000
100000
100000
100000
100000
100000
100000
100000
100000
100000
100000
100000
100000
100000
100000
100000
100000
100000
100000
100000
100000
100000
100000
100000
100000
100000
100000
100000
100000
100000
100000
100000
100000
100000
100000
100000
100000
100000
100000
100000
100000
100000
100000
100000
100000
100000
100000
100000
100000
100000
100000
100000
100000
100000
100000
100000
100000
100000
100000
100000
100000
100000
100000
100000
100000
100000
100000
100000
100000
100000
100000
100000
100000
100000
100000
100000
100000
100000
100000
100000
100000
100000
100000
100000
100000
100000
100000
100000
100000
100000
100000
100000
100000
100000
100000
100000
100000
100000
100000
100000
100000
100000
100000
100000
100000
100000
100000
100000
100000
100000
100000
100000
100000
100000
100000
100000
100000
100000
100000
100000
100000
100000
100000
100000
100000
100000
100000
100000
100000
100000
100000
100000
100000
100000
100000
100000
100000
100000
100000
100000
100000
100000
100000
100000
100000
100000
100000
100000
100000
100000
100000
100000
100000
100000
100000
100000
100000
100000
100000
100000
100000
100000
100000
100000
100000
100000
100000
100000
100000
100000
100000
100000
100000
100000
100000
100000
100000
100000
100000
100000
100000
100000
100000
100000
100000
100000
100000
100000
100000
100000
100000
100000
100000
100000
100000
100000
100000
100000
100000
100000
100000
100000
100000
100000
100000
100000
100000
100000
100000
100000
100000
100000
100000
100000
100000
100000
100000
100000
100000
100000
100000
100000
100000
100000
100000
100000
100000
100000
100000
100000
100000
100000
100000
100000
100000
100000
100000
100000
100000
100000
100000
100000
100000
100000
100000
100000
100000
100000
100000
100000
100000
100000
100000
100000
100000
100000
100000
100000
100000
100000
100000
100000
100000
100000
100000
100000
100000
100000
100000
100000
100000
100000
100000
100000
100000
100000
100000
100000
100000
100000
100000
100000
100000
100000
100000
100000
100000
100000
100000
100000
100000
100000
100000
100000
100000
100000
100000
100000
100000
100000
100000
100000
100000
100000
100000
100000
100000
100000
100000
100000
100000
100000
100000
100000
100000
100000
100000
100000
100000
100000
100000
100000
100000
100000
100000
100000
100000
100000
100000
100000
100000
100000
100000
100000
100000
100000
100000
100000
100000
100000
100000
100000
100000
100000
100000
100000
100000
100000
100000
100000
100000
100000
100000
100000
100000
100000
100000
100000
100000
100000
100000
100000
100000
100000
100000
100000
100000
100000
100000
100000
100000
100000
100000
100000
100000
100000
100000
100000
100000
100000
100000
100000
100000
100000
100000
100000
100000
100000
100000
100000
100000
100000
100000
100000
100000
100000
100000
100000
100000
100000
100000
100000
100000
100000
100000
100000
100000
100000
100000
100000
100000
100000
100000
100000
100000
100000
100000
100000
100000
100000
100000
100000
100000
100000
100000
100000
100000
100000
100000
100000
100000
100000
100000
100000
100000
100000
100000
100000
100000
100000
100000
100000
100000
100000
100000
100000
100000
100000
100000
100000
100000
100000
100000
100000
100000
100000
100000
100000
100000
100000
100000
100000
100000
100000
100000
100000
100000
100000
100000
100000
100000
100000
100000
100000
100000
100000
100000
100000
100000
100000
100000
100000
100000
100000
100000
100000
100000
100000
100000
100000
100000
100000
100000
100000
100000
100000
100000
100000
100000
100000
100000
100000
100000
100000
100000
100000
100000
100000
100000
100000
100000
100000
100000
100000
100000
100000
100000
100000
100000
100000
100000
100000
100000
100000
100000
100000
100000
100000
100000
100000
100000
100000
100000
100000
100000
100000
100000
100000
100000
100000
100000
100000
100000
100000
100000
100000
100000
100000
100000
100000
100000
100000
100000
100000
100000
100000
100000
100000
100000
100000
100000
100000
100000
100000
100000
100000
100000
100000
100000
100000
100000
100000
100000
100000
100000
100000
100000
100000
100000
100000
100000
100000
100000
100000
100000
100000
100000
100000
100000
100000
100000
100000
100000
100000
100000
100000
100000
100000
100000
100000
100000
100000
100000
100000
100000
100000
100000
100000
100000
100000
100000
100000
100000
100000
100000
100000
100000
100000
100000
100000
100000
100000
100000
100000
100000
100000
100000
100000
100000
100000
100000
100000
100000
100000
100000
100000
100000
100000
100000
100000
100000
100000
100000
100000
100000
100000
100000
100000
100000
100000
100000
100000
100000
100000
100000
100000
100000
100000
100000
100000
100000
100000
100000
100000
100000
100000
100000
100000
100000
100000
100000
100000
100000
100000
100000
100000
100000
100000
100000
100000
100000
100000
100000
100000
100000
100000
100000
100000
100000
100000
100000
100000
100000
100000
100000
100000
100000
100000
100000
100000
100000
100000
100000
100000
100000
100000
100000
100000
100000
100000
100000
100000
100000
100000
100000
100000
100000
100000
100000
100000
100000
100000
100000
100000
100000
100000
100000
100000
100000
100000
100000
100000
100000
100000
100000
100000
100000
100000
100000
100000
100000
100000
100000
100000
100000
100000
100000
100000
100000
100000
100000
100000
100000
100000
100000
100000
100000
100000
100000
100000
100000
100000
100000
100000
100000
100000
100000
100000
100000
100000
100000
100000
100000
100000
100000
100000
100000
100000
100000
100000
100000
100000
100000
100000
100000
100000
100000
100000
100000
100000
100000
100000
100000
100000
100000
100000
100000
100000
100000
100000
100000
100000
100000
100000
100000
100000
100000
100000
100000
100000
100000
100000
100000
100000
100000
100000
100000
100000
100000
100000
100000
100000
100000
100000
100000
100000
100000
100000
100000
100000
100000
100000
100000
100000
100000
100000
100000
100000
100000
100000
100000
100000
100000
100000
100000
100000
100000
100000
100000
100000
100000
100000
100000
100000
100000
100000
100000
100000
100000
100000
100000
100000
100000
100000
100000
100000
100000
100000
100000
100000
100000
100000
100000
100000
100000
100000
100000
100000
100000
100000
100000
100000
100000
100000
100000
100000
100000
100000
100000
100000
100000
100000
100000
100000
100000
100000
100000
100000
100000
100000
100000
100000
100000
100000
100000
100000
100000
100000
100000
100000
100000
100000
100000
100000
100000
100000
100000
100000
100000
100000
100000
100000
100000
100000
100000
100000
100000
100000
100000
100000
100000
100000
100000
100000
100000
100000
100000
100000
100000
100000
100000
100000
100000
100000
100000
100000
100000
100000
100000
100000
100000
100000
100000
100000
100000
100000
100000
100000
100000
100000
100000
100000
100000
100000
100000
100000
100000
100000
100000
100000
100000
100000
100000
100000
100000
100000
100000
100000
100000
100000
100000
100000
100000
100000
100000
100000
100000
100000
100000
100000
100000
100000
100000
100000
100000
100000
100000
100000
100000
100000
100000
100000
100000
100000
100000
100000
100000
100000
100000
100000
100000
100000
100000
100000
100000
100000
100000
100000
100000
100000
100000
100000
100000
100000
100000
100000
100000
100000
100000
100000
100000
100000
100000
100000
100000
100000
100000
100000
100000
100000
100000
100000
100000
100000
100000
100000
100000
100000
100000
100000
100000
100000
100000
100000
100000
100000
100000
100000
100000
100000
100000
100000
100000
100000
100000
100000
100000
100000
100000
100000
100000
100000
100000
100000
100000
100000
100000
100000
100000
100000
100000
100000
100000
100000
100000
100000
100000
100000
100000
100000
100000
100000
100000
100000
100000
100000
100000
100000
100000
100000
100000
100000
100000
100000
100000
100000
100000
100000
100000
100000
100000
100000
100000
100000
100000
100000
100000
100000
100000
100000
100000
100000
100000
100000
100000
100000
100000
100000
100000
100000
100000
100000
100000
100000
100000
100000
100000
100000
100000
100000
100000
100000
100000
100000
100000
100000
100000
100000
100000
100000
100000
100000
100000
100000
100000
100000
100000
100000
100000
100000
100000
100000
100000
100000
100000
100000
100000
100000
100000
100000
100000
100000
100000
100000
100000
100000
100000
100000
100000
100000
100000
100000
100000
100000
100000
100000
100000
100000
100000
100000
100000
100000
100000
100000
99999.9
99999.8
99999.3
99997.8
99993.3
99979.5
99937.1
99806.8
99401.4
98341.1
97193.8
96500.5
96080.9
95794
95568.6
95368.1
95176.5
94994.3
94830.6
94692.3
94579.9
94490.6
94421
94367.5
94326.9
94296.7
94274.5
94258.4
94246.8
94238.6
94232.8
94228.8
94226.1
94224.2
94222.9
94222.1
94221.5
94221.1
94220.9
94220.7
94220.6
94220.5
94220.5
94220.4
94220.4
94220.4
94220.4
94220.4
94220.4
94220.4
94220.4
94220.4
94220.4
94220.4
94220.4
94220.4
94220.4
94220.4
94220.4
94220.4
94220.4
94220.4
94220.4
94220.4
94220.4
94220.4
94220.4
94220.4
94220.4
94220.4
94220.4
94220.4
94220.4
94220.4
94220.4
94220.4
94220.4
94220.4
94220.4
94220.3
94220.1
94219.5
94217.5
94210.9
94189.6
94120.6
93893.1
93392.4
92985.7
92787.9
92657.3
92615.3
92588.3
92555.9
92534.8
92534.5
92527.7
92504.8
92484.7
92478.3
92478.6
92461.8
92442.3
92430.5
92432.8
92424.3
92406.6
92393
92392.6
92391.1
92377.7
92365.7
92361.6
92363.9
92356.4
92347.1
92342.3
92345
92342.5
92337.2
92334.2
92336.4
92336.8
92334.6
92330.8
92324.1
92305.1
92241.3
92055.5
91840
91729.3
91657.4
91635.1
91620.7
91603.8
91593
91593.7
91590.9
91580.9
91573.3
91573.9
91575.8
91573.1
91569.9
91568.2
91566
91556.8
91526
91431.5
91158.2
90814.6
90623.5
90499.5
90461.9
90438.3
90408.1
90387.3
90388.2
90384.6
90365.7
90350.2
90347
90351.1
90342.7
90333.5
90332.2
90335.2
90331
90316.7
90279.7
90175.5
90012.9
89912.9
89843
89822.3
89815.1
89797
89783
89781.7
89784.8
89778.5
89771.1
89768.7
89768.6
89760
89728.5
89633.1
89433.9
89277.8
89182.6
89139.1
89119.4
89100.3
89091.1
89091.1
89087.1
89080.4
89076
89075
89068.4
89043.5
88966.1
88812.2
88696.9
88647.6
88602.7
88584.8
88588.9
88581.9
88570.2
88557.5
88540.2
88491.5
88377.7
88270.1
88214.2
88200.6
88179.7
88161.7
88153.5
88159.2
88155.1
88144.7
88129.6
88099.5
88013
87877.1
87773.6
87732.6
87717.3
87696.4
87683.7
87685.6
87685.5
87677.1
87662.6
87636.6
87567.7
87411.5
87271.3
87183.4
87157.8
87137.9
87114.2
87098.2
87100.4
87098.6
87086.3
87076.9
87077.6
87080.9
87074.7
87059.5
87029.6
86986.3
86947.8
86906.6
86853.2
86762.1
86604.4
86459.9
86366.3
86310.7
86294
86279.4
86264.1
86254.8
86258.4
86256.8
86249.3
86239.6
86226.6
86195.7
86105.3
85966.5
85863.2
85811.9
85776.3
85742.2
85716.1
85698.2
85677.4
85646.8
85605.9
85557.7
85508.7
85460.6
85412.3
85368.4
85331
85295.8
85257.8
85218
85179.8
85143.5
85105.9
85065.7
85025.3
84986.8
84949.1
84909.9
84869.5
84830.1
84792
84753.6
84714.1
84674.6
84636.2
84598.5
84560.2
84521.3
84482.6
84444.4
84406.2
84367.5
84328.6
84289.8
84251
84212
84173.1
84134.8
84096.8
84058.8
84020.7
83982.7
83944.9
83906.8
83868.2
83829.5
83791
83752.5
83713.7
83674.9
83636.6
83598.9
83561.3
83523.2
83485.1
83447.4
83409.7
83371.7
83333.2
83294.8
83256.6
83218.4
83180
83141.5
83103.5
83066
83028.6
82990.9
82953.1
82915.4
82877.7
82839.6
82801.2
82762.9
82724.9
82687.1
82649.4
82611.8
82574.2
82536.7
82498.9
82460.8
82422.8
82385.3
82348.2
82311.2
82273.8
82236
82198
82159.5
82120.6
82081.8
82043.7
82006.8
81971.1
81936.2
81901.3
81865.5
81827.6
81786.8
81744
81701.5
81661.4
81624.8
81591.5
81560.6
81530.4
81499
81463.9
81422.6
81375.6
81326.8
81281
81240.7
81206.8
81178.1
81151.6
81124.1
81094.2
81059.7
81018.1
80970.1
80920.6
80872.7
80829.8
80795.7
80771
80750.3
80723.5
80685.5
80636.4
80582.8
80535.8
80500.3
80471.3
80442.4
80413.2
80385.4
80357.8
80324.7
80277.6
80218.1
80160.1
80112.1
80075.5
80048.4
80027.8
80009.9
79992.1
79971.9
79943.9
79896.5
79823.4
79751.2
79696.8
79657.3
79627.9
79605.8
79588.6
79574.2
79560
79542.6
79516.1
79467.3
79390.8
79317.9
79264.4
79225.2
79195
79170.5
79150.2
79132.5
79115.4
79095.4
79066.5
79019.8
78955.9
78893.6
78842.5
78801.7
78768.7
78741.3
78717.6
78695.3
78672.2
78646
78613.6
78570.8
78518.4
78464.7
78416
78373.1
78335.2
78302.1
78273.6
78249.1
78227.2
78204.9
78178.7
78144.3
78098.7
78044.9
77991.7
77944.7
77905.1
77871.6
77842.1
77814.4
77787
77759.4
77730.7
77699.8
77664.7
77624.6
77581.1
77537.2
77494.5
77454.1
77416.8
77382.9
77351.8
77321.7
77290.1
77255.3
77217.4
77178.4
77141
77107
77075.8
77044.7
77010.5
76972.4
76931.6
76890
76849.8
76812.2
76777.3
76744.8
76714.4
76685.4
76656.4
76625.4
76590.8
76552.1
76510.2
76467.6
76426.3
76386.5
76348.5
76313.4
76282.7
76256.6
76232.4
76204.7
76169.4
76126.9
76081.3
76038.2
76001.5
75971.6
75943.3
75910.6
75872.5
75832.3
75793.7
75760.1
75732
75704.1
75669
75626.2
75581.5
75539.7
75504.8
75478.8
75455.4
75424.1
75382.2
75337.5
75296.8
75264.1
75241.4
75221.8
75192.7
75150
75099.4
75049.7
75008.5
74979
74955
74924.7
74885.7
74846.3
74811.2
74784.8
74774.5
74764.7
74722.1
74655.5
74589.7
74530.4
74486.3
74471.8
74491.6
74496.2
74456
74395
74328.7
74273.3
74227.9
74214.6
74227.4
74215
74156.6
74087.5
74024.1
73971.1
73930.9
73926.3
73943
73936.7
73892.7
73840
73791
73743.7
73700.7
73663.4
73633.9
73613.8
73597.5
73559.5
73500.5
73444.8
73395.2
73358
73343.3
73363.9
73381.1
73352.8
73292
73213
73137.9
73076.8
73044
73055
73061.3
73014.7
72953.5
72885.8
72843.3
72817.7
72828.4
72846.8
72820.8
72762.1
72694.3
72633.1
72585.8
72569.1
72579
72557.4
72500.5
72441.8
72391.9
72355.2
72340.2
72320.4
72281.5
72239.7
72205.4
72199.2
72208.1
72175.4
72116.4
72044.9
71984.4
71937.3
71911.9
71927.9
71949.5
71919.1
71858.5
71780.6
71711.3
71659.2
71617
71616.6
71649.1
71663
71622
71558.5
71476
71407.2
71359.1
71323.2
71333.3
71368.7
71365
71313.8
71241
71155.8
71099.5
71057.4
71057.4
71089.9
71094.2
71046.1
70976.9
70892.9
70833.9
70790.6
70784.3
70812.8
70822.4
70779.1
70715.5
70640.5
70581.8
70535.3
70504.1
70512.2
70530.4
70508.6
70456.3
70404.1
70359.7
70328.4
70287.4
70238
70191.7
70153.3
70151.9
70176.9
70173
70123.7
70058.1
69980.8
69921.7
69874.3
69836.7
69841.8
69876.8
69883.3
69838.7
69774.7
69692.6
69627.8
69579.7
69541
69542.9
69572.9
69572.1
69525.5
69464.6
69406.1
69359.5
69329.4
69315.5
69276.2
69228.8
69189.7
69189.1
69208
69179.2
69121.3
69042.8
68978.2
68934.3
68919.6
68945.2
68963.9
68926.7
68865.1
68782.2
68717.6
68673.8
68658.6
68682.9
68699.3
68661.3
68600.8
68526.6
68472.5
68432.2
68426.5
68445.5
68423.6
68371.5
68314.1
68270.3
68252.2
68254.9
68215.9
68157.6
68101.3
68059.8
68050.6
68070.2
68049.1
67995.4
67924.3
67866.6
67825.3
67816.7
67838.5
67822.5
67770.5
67700
67638.5
67595.8
67582.5
67606.1
67605.4
67558.4
67491.9
67418.3
67371.3
67340.2
67352.9
67377.4
67349.7
67293.7
67217.4
67155
67112.6
67099.2
67124.6
67132.8
67090.3
67027.1
66948
66895.1
66856.6
66857.9
66890.8
66885.5
66837.4
66768.6
66690.1
66640.8
66605.6
66614.5
66651.8
66644.5
66595.7
66524.4
66435.9
66378.9
66338.6
66333.2
66371.4
66398.8
66367.4
66310.1
66223.2
66136.6
66085.9
66047.9
66050.2
66097.7
66129.1
66099.7
66043.6
65957.6
65864.7
65810.1
65770.6
65765
65805.4
65841
65815.5
65761.2
65678.3
65576.4
65514.2
65472.8
65451.5
65482.8
65554.2
65576.2
65541
65483.3
65393.5
65282.9
65216.7
65172.3
65136.9
65142
65192.9
65229.4
65204
65150.8
65070.3
64975.4
64918.3
64878.6
64866.7
64900.9
64938.9
64916.8
64865.3
64788.8
64703.9
64652.2
64614
64610.4
64644.6
64656.7
64618.4
64560.5
64485.1
64429.8
64390.3
64377.7
64401
64399.3
64355.1
64293.2
64223.5
64178.8
64147.4
64158.5
64189.5
64170.4
64120.4
64046.3
63965.2
63916.9
63881.2
63886.1
63930.6
63946.6
63909.7
63851.5
63760.8
63677.7
63630.4
63594.8
63598
63645.5
63674.4
63645.4
63593
63516.3
63438.5
63389
63351
63338.1
63359.4
63358.9
63318
63266.3
63222
63188.8
63190.2
63169.5
63121.5
63058.7
63007.7
62970.5
62966.2
62996.7
62995.2
62952.2
62890.7
62812.6
62760.3
62722.8
62714.3
62743.3
62751.4
62712.7
62656.3
62581.7
62528
62490
62477.6
62503.1
62510.6
62472
62415.6
62341.7
62288.6
62250.9
62239.7
62266.2
62274.9
62237
62181.5
62108.3
62054.8
62016.7
62002.4
62025.8
62033.9
61996.5
61942.1
61873.9
61824.4
61787.6
61776.7
61798.9
61792.7
61750.3
61693.8
61636.4
61595.8
61566.2
61570.9
61557.8
61515.5
61471
61434.8
61427.8
61437.1
61404.4
61351.2
61274.7
61213.8
61175.1
61156.5
61185.1
61232.8
61221.8
61177.1
61111.1
61012.1
60941.7
60900.8
60870.5
60883.2
60936.4
60953.2
60918.9
60865.3
60779.8
60692.3
60643.1
60607.3
60599.1
60640.1
60688.6
60674.1
60629.2
60562.9
60462.5
60391.5
60350.3
60318.7
60326.9
60379.1
60404.9
60375.4
60325.7
60249.2
60163.2
60112.6
60076.2
60061.4
60088.3
60118.3
60094.9
60048.3
59981
59911.3
59867.6
59833.6
59830.2
59859.1
59855.1
59814.8
59759.1
59692.1
59646.1
59611.4
59602.5
59626.3
59620.1
59579.5
59523.8
59462
59420
59387.5
59387.1
59409
59389.3
59345.1
59284.4
59227.6
59189.3
59163.4
59175.4
59195.6
59169.6
59123.2
59059
59001
58962.1
58932.3
58937.8
58963.2
58946.8
58905.1
58852.5
58800.2
58757.9
58717.9
58680.2
58648.6
58638
58657.2
58657.5
58620.6
58571.4
58509.7
58463.1
58427.9
58411.8
58431.6
58434.1
58397.1
58345.8
58279.9
58233.1
58198.6
58186.3
58209.5
58209.9
58172.1
58119.2
58049
58000.1
57965.6
57953.9
57985.4
58016.3
57992.7
57947
57876.8
57780.3
57721.2
57684.1
57658
57673.7
57733.1
57754.3
57724.2
57676.6
57601.9
57508.3
57453.8
57417.4
57391.4
57405.1
57453.7
57459.9
57424.7
57375.6
57302.6
57239.8
57199.4
57167
57159
57181.1
57172.2
57133.6
57082.3
57030.5
56993.8
56967.3
56975.7
56987.9
56958.2
56911.9
56845.8
56789.4
56752.9
56726.9
56738.7
56772
56758.9
56718.7
56662.4
56591.4
56543.7
56509.1
56488.3
56504.3
56521.1
56493.7
56449.9
56391.1
56340.9
56305.2
56279.2
56286.9
56294.3
56263.3
56218.2
56163.2
56121.3
56088.9
56078.2
56094.8
56079.1
56039.1
55984.3
55929.4
55892.8
55864.7
55871
55899
55883.7
55843.8
55787.4
55718
55672.4
55638.9
55620.5
55639.7
55659.3
55633.9
55591.6
55533.5
55479.8
55442.6
55411.9
55407.8
55421.3
55398.6
55358.2
55309.3
55268.6
55236.6
55225.2
55229.9
55201.9
55160.1
55112
55075
55045.7
55046
55060.8
55036.7
54995.2
54937.1
54883.5
54847.6
54819.4
54822
54845.4
54828.5
54789.6
54736.6
54681
54642.9
54612.2
54605.2
54624.5
54610.8
54573.1
54522.4
54469.7
54433.1
54403.8
54401.4
54419.9
54400.9
54361.6
54307
54251.2
54214.2
54184.6
54182.4
54211.6
54207.7
54172.5
54125.1
54059.8
54011.3
53977
53950
53953
53971.7
53951.3
53912.7
53863.4
53819.5
53786.2
53763.4
53772.5
53771.7
53738.5
53694.1
53639.2
53598.8
53567.2
53552.2
53570.1
53568.4
53534.6
53489.8
53432.9
53391
53358.9
53338.5
53350.5
53349.4
53316.4
53272.7
53219.4
53179.9
53148.6
53132.5
53147.2
53139.5
53104.8
53059.3
53009.4
52973.1
52943.6
52936
52951.2
52933.4
52896.1
52846.9
52798.9
52764.3
52735.9
52733.4
52745.8
52723
52684.8
52636.1
52593.8
52561.5
52537.8
52544.4
52539.7
52506.8
52464.7
52419.9
52385.9
52358.1
52356.3
52353.9
52322.4
52282.5
52241.6
52209.5
52187.2
52196.5
52197.6
52166
52123.3
52062.5
52015.2
51982.8
51958
51965.5
51996.6
51985.9
51951.1
51903.9
51838.2
51790.7
51757.6
51730.6
51730
51753.6
51741.2
51706.4
51659.6
51603.7
51565.1
51535
51518.9
51537.4
51546.9
51519.2
51478.9
51418.4
51358.1
51321
51291.7
51279.6
51306.1
51331.6
51310.7
51273.6
51220.8
51149.4
51102.8
51070.2
51043.4
51041.8
51071.3
51069.4
51037.7
50996.4
50939.4
50895
50862.9
50836.7
50836.5
50854.5
50836.5
50800.9
50752.1
50697
50660.2
50630.8
50616.5
50637
50651.5
50626.5
50588.7
50534
50474.4
50436.7
50406.9
50387.2
50400
50416.3
50393.7
50357.3
50307.4
50256.3
50221.5
50193
50179.8
50198.3
50198.7
50168.4
50128.7
50072.8
50027.8
49996
49969.6
49967.4
49991.5
49982.5
49950.2
49907.7
49850.8
49808.8
49777.5
49751.3
49748.3
49764.3
49747
49713.2
49669.1
49622.9
49589.3
49561
49546.2
49556.6
49543.2
49510.9
49471.7
49435
49405.4
49384.2
49383.7
49363.5
49329.7
49287.4
49249.2
49219.7
49198.9
49209.5
49227.5
49206.6
49171.3
49120.4
49051.8
49008.2
48977.8
48952.7
48953.8
48989.6
48994.6
48966.5
48928.7
48870.7
48807.6
48770.1
48741.1
48720
48730.3
48766.1
48759.3
48728.3
48687.3
48621.6
48558.9
48522.7
48494.2
48474.1
48486.7
48526.7
48522.4
48492.3
48453
48390.7
48327.1
48290.4
48261.5
48239
48245
48276.6
48269.3
48238.7
48198.8
48138.9
48088.5
48056.1
48029.2
48017.4
48042.3
48066.6
48047.3
48013.7
47966.6
47890.2
47831.2
47797.1
47769
47748.4
47759.4
47812.1
47829.8
47807.4
47774.4
47732.8
47676.7
47632.6
47599
47566.7
47533.4
47498.6
47466.6
47436.6
47408.4
47384.7
47383.9
47417
47424
47398.2
47363.6
47313.7
47256
47219.7
47190.8
47166.4
47162.9
47182.9
47171.9
47141.7
47103
47052.8
47015.7
46987
46963
46961.2
46979
46964.2
46933.3
46892.9
46841.8
46805.7
46777.6
46754.6
46755.8
46776.3
46762.1
46731.4
46691.4
46635.8
46595.2
46565.6
46540.3
46530.7