/*--------------------------------*- C++ -*----------------------------------*\
  =========                 |
  \\      /  F ield         | OpenFOAM: The Open Source CFD Toolbox
   \\    /   O peration     | Website:  https://openfoam.org
    \\  /    A nd           | Version:  9
     \\/     M anipulation  |
\*---------------------------------------------------------------------------*/
FoamFile
{
    format      ascii;
    class       volScalarField;
    location    "0.044";
    object      p;
}
// * * * * * * * * * * * * * * * * * * * * * * * * * * * * * * * * * * * * * //

dimensions      [1 -1 -2 0 0 0 0];

internalField   nonuniform List<scalar> 
10000
(
9653.5
9653.44
9653.35
9653.26
9653.19
9653.12
9653.05
9652.98
9652.9
9652.83
9652.76
9652.69
9652.61
9652.54
9652.47
9652.4
9652.32
9652.25
9652.18
9652.11
9652.03
9651.96
9651.89
9651.82
9651.74
9651.67
9651.6
9651.53
9651.45
9651.38
9651.31
9651.24
9651.17
9651.09
9651.02
9650.95
9650.88
9650.8
9650.73
9650.66
9650.59
9650.51
9650.44
9650.37
9650.3
9650.22
9650.15
9650.08
9650.01
9649.93
9649.86
9649.79
9649.72
9649.65
9649.57
9649.5
9649.43
9649.36
9649.28
9649.21
9649.14
9649.07
9649
9648.92
9648.85
9648.78
9648.71
9648.63
9648.56
9648.49
9648.42
9648.35
9648.27
9648.2
9648.13
9648.06
9647.98
9647.91
9647.84
9647.77
9647.7
9647.62
9647.55
9647.48
9647.41
9647.34
9647.26
9647.19
9647.12
9647.05
9646.98
9646.9
9646.83
9646.76
9646.69
9646.61
9646.54
9646.47
9646.4
9646.33
9646.25
9646.18
9646.11
9646.04
9645.97
9645.89
9645.82
9645.75
9645.68
9645.61
9645.54
9645.46
9645.39
9645.32
9645.25
9645.18
9645.1
9645.03
9644.96
9644.89
9644.82
9644.74
9644.67
9644.6
9644.53
9644.46
9644.38
9644.31
9644.24
9644.17
9644.1
9644.03
9643.95
9643.88
9643.81
9643.74
9643.67
9643.59
9643.52
9643.45
9643.38
9643.31
9643.24
9643.16
9643.09
9643.02
9642.95
9642.88
9642.81
9642.73
9642.66
9642.59
9642.52
9642.45
9642.38
9642.3
9642.23
9642.16
9642.09
9642.02
9641.95
9641.87
9641.8
9641.73
9641.66
9641.59
9641.52
9641.44
9641.37
9641.3
9641.23
9641.16
9641.09
9641.02
9640.94
9640.87
9640.8
9640.73
9640.66
9640.59
9640.51
9640.44
9640.37
9640.3
9640.23
9640.16
9640.09
9640.01
9639.94
9639.87
9639.8
9639.73
9639.66
9639.59
9639.51
9639.44
9639.37
9639.3
9639.23
9639.16
9639.09
9639.02
9638.94
9638.87
9638.8
9638.73
9638.66
9638.59
9638.52
9638.44
9638.37
9638.3
9638.23
9638.16
9638.09
9638.02
9637.95
9637.87
9637.8
9637.73
9637.66
9637.59
9637.52
9637.45
9637.38
9637.31
9637.23
9637.16
9637.09
9637.02
9636.95
9636.88
9636.81
9636.74
9636.66
9636.59
9636.52
9636.45
9636.38
9636.31
9636.24
9636.17
9636.1
9636.03
9635.95
9635.88
9635.81
9635.74
9635.67
9635.6
9635.53
9635.46
9635.39
9635.32
9635.24
9635.17
9635.1
9635.03
9634.96
9634.89
9634.82
9634.75
9634.68
9634.61
9634.53
9634.46
9634.39
9634.32
9634.25
9634.18
9634.11
9634.04
9633.97
9633.9
9633.83
9633.76
9633.68
9633.61
9633.54
9633.47
9633.4
9633.33
9633.26
9633.19
9633.12
9633.05
9632.98
9632.91
9632.84
9632.76
9632.69
9632.62
9632.55
9632.48
9632.41
9632.34
9632.27
9632.2
9632.13
9632.06
9631.99
9631.92
9631.85
9631.78
9631.71
9631.63
9631.56
9631.49
9631.42
9631.35
9631.28
9631.21
9631.14
9631.07
9631
9630.93
9630.86
9630.79
9630.72
9630.65
9630.58
9630.51
9630.44
9630.37
9630.29
9630.22
9630.15
9630.08
9630.01
9629.94
9629.87
9629.8
9629.73
9629.66
9629.59
9629.52
9629.45
9629.38
9629.31
9629.24
9629.17
9629.1
9629.03
9628.96
9628.89
9628.82
9628.75
9628.68
9628.61
9628.54
9628.47
9628.4
9628.33
9628.26
9628.19
9628.12
9628.05
9627.98
9627.91
9627.83
9627.76
9627.69
9627.62
9627.55
9627.48
9627.41
9627.34
9627.27
9627.2
9627.13
9627.06
9626.99
9626.92
9626.85
9626.78
9626.71
9626.64
9626.57
9626.5
9626.43
9626.36
9626.29
9626.22
9626.15
9626.08
9626.01
9625.94
9625.87
9625.81
9625.74
9625.67
9625.6
9625.53
9625.46
9625.39
9625.32
9625.25
9625.18
9625.11
9625.04
9624.97
9624.9
9624.83
9624.76
9624.69
9624.62
9624.55
9624.48
9624.41
9624.34
9624.27
9624.2
9624.13
9624.06
9623.99
9623.92
9623.85
9623.78
9623.71
9623.64
9623.57
9623.51
9623.44
9623.37
9623.3
9623.23
9623.16
9623.09
9623.02
9622.95
9622.88
9622.81
9622.74
9622.67
9622.6
9622.53
9622.46
9622.39
9622.33
9622.26
9622.19
9622.12
9622.05
9621.98
9621.91
9621.84
9621.77
9621.7
9621.63
9621.56
9621.49
9621.42
9621.36
9621.29
9621.22
9621.15
9621.08
9621.01
9620.94
9620.87
9620.8
9620.73
9620.66
9620.6
9620.53
9620.46
9620.39
9620.32
9620.25
9620.18
9620.11
9620.04
9619.97
9619.91
9619.84
9619.77
9619.7
9619.63
9619.56
9619.49
9619.42
9619.35
9619.29
9619.22
9619.15
9619.08
9619.01
9618.94
9618.87
9618.8
9618.74
9618.67
9618.6
9618.53
9618.46
9618.39
9618.32
9618.26
9618.19
9618.12
9618.05
9617.98
9617.91
9617.84
9617.78
9617.71
9617.64
9617.57
9617.5
9617.43
9617.36
9617.3
9617.23
9617.16
9617.09
9617.02
9616.95
9616.89
9616.82
9616.75
9616.68
9616.61
9616.54
9616.48
9616.41
9616.34
9616.27
9616.2
9616.14
9616.07
9616
9615.93
9615.86
9615.8
9615.73
9615.66
9615.59
9615.52
9615.45
9615.39
9615.32
9615.25
9615.18
9615.12
9615.05
9614.98
9614.91
9614.84
9614.78
9614.71
9614.64
9614.57
9614.5
9614.44
9614.37
9614.3
9614.23
9614.17
9614.1
9614.03
9613.96
9613.9
9613.83
9613.76
9613.69
9613.62
9613.56
9613.49
9613.42
9613.35
9613.29
9613.22
9613.15
9613.08
9613.02
9612.95
9612.88
9612.82
9612.75
9612.68
9612.61
9612.55
9612.48
9612.41
9612.34
9612.28
9612.21
9612.14
9612.08
9612.01
9611.94
9611.87
9611.81
9611.74
9611.67
9611.61
9611.54
9611.47
9611.4
9611.34
9611.27
9611.2
9611.14
9611.07
9611
9610.94
9610.87
9610.8
9610.74
9610.67
9610.6
9610.54
9610.47
9610.4
9610.34
9610.27
9610.2
9610.14
9610.07
9610
9609.94
9609.87
9609.8
9609.74
9609.67
9609.6
9609.54
9609.47
9609.4
9609.34
9609.27
9609.21
9609.14
9609.07
9609.01
9608.94
9608.87
9608.81
9608.74
9608.68
9608.61
9608.54
9608.48
9608.41
9608.34
9608.28
9608.21
9608.15
9608.08
9608.01
9607.95
9607.88
9607.82
9607.75
9607.69
9607.62
9607.55
9607.49
9607.42
9607.36
9607.29
9607.23
9607.16
9607.09
9607.03
9606.96
9606.9
9606.83
9606.77
9606.7
9606.64
9606.57
9606.5
9606.44
9606.37
9606.31
9606.24
9606.18
9606.11
9606.05
9605.98
9605.92
9605.85
9605.79
9605.72
9605.66
9605.59
9605.53
9605.46
9605.4
9605.33
9605.27
9605.2
9605.14
9605.07
9605.01
9604.94
9604.88
9604.81
9604.75
9604.68
9604.62
9604.55
9604.49
9604.43
9604.36
9604.3
9604.23
9604.17
9604.1
9604.04
9603.97
9603.91
9603.85
9603.78
9603.72
9603.65
9603.59
9603.52
9603.46
9603.4
9603.33
9603.27
9603.2
9603.14
9603.08
9603.01
9602.95
9602.88
9602.82
9602.76
9602.69
9602.63
9602.56
9602.5
9602.44
9602.37
9602.31
9602.25
9602.18
9602.12
9602.06
9601.99
9601.93
9601.87
9601.8
9601.74
9601.68
9601.61
9601.55
9601.49
9601.42
9601.36
9601.3
9601.23
9601.17
9601.11
9601.04
9600.98
9600.92
9600.86
9600.79
9600.73
9600.67
9600.6
9600.54
9600.48
9600.42
9600.35
9600.29
9600.23
9600.17
9600.1
9600.04
9599.98
9599.92
9599.85
9599.79
9599.73
9599.67
9599.6
9599.54
9599.48
9599.42
9599.36
9599.29
9599.23
9599.17
9599.11
9599.05
9598.99
9598.92
9598.86
9598.8
9598.74
9598.68
9598.61
9598.55
9598.49
9598.43
9598.37
9598.31
9598.25
9598.18
9598.12
9598.06
9598
9597.94
9597.88
9597.82
9597.76
9597.7
9597.63
9597.57
9597.51
9597.45
9597.39
9597.33
9597.27
9597.21
9597.15
9597.09
9597.03
9596.97
9596.91
9596.85
9596.79
9596.72
9596.66
9596.6
9596.54
9596.48
9596.42
9596.36
9596.3
9596.24
9596.18
9596.12
9596.06
9596
9595.94
9595.88
9595.83
9595.77
9595.71
9595.65
9595.59
9595.53
9595.47
9595.41
9595.35
9595.29
9595.23
9595.17
9595.11
9595.05
9594.99
9594.94
9594.88
9594.82
9594.76
9594.7
9594.64
9594.58
9594.52
9594.47
9594.41
9594.35
9594.29
9594.23
9594.17
9594.11
9594.06
9594
9593.94
9593.88
9593.82
9593.77
9593.71
9593.65
9593.59
9593.54
9593.48
9593.42
9593.36
9593.3
9593.25
9593.19
9593.13
9593.07
9593.02
9592.96
9592.9
9592.85
9592.79
9592.73
9592.68
9592.62
9592.56
9592.5
9592.45
9592.39
9592.33
9592.28
9592.22
9592.17
9592.11
9592.05
9592
9591.94
9591.88
9591.83
9591.77
9591.72
9591.66
9591.6
9591.55
9591.49
9591.44
9591.38
9591.33
9591.27
9591.22
9591.16
9591.11
9591.05
9590.99
9590.94
9590.88
9590.83
9590.77
9590.72
9590.67
9590.61
9590.56
9590.5
9590.45
9590.39
9590.34
9590.28
9590.23
9590.18
9590.12
9590.07
9590.01
9589.96
9589.91
9589.85
9589.8
9589.75
9589.69
9589.64
9589.58
9589.53
9589.48
9589.43
9589.37
9589.32
9589.27
9589.21
9589.16
9589.11
9589.06
9589
9588.95
9588.9
9588.85
9588.79
9588.74
9588.69
9588.64
9588.58
9588.53
9588.48
9588.43
9588.38
9588.33
9588.27
9588.22
9588.17
9588.12
9588.07
9588.02
9587.97
9587.92
9587.87
9587.81
9587.76
9587.71
9587.66
9587.61
9587.56
9587.51
9587.46
9587.41
9587.36
9587.31
9587.26
9587.21
9587.16
9587.11
9587.06
9587.01
9586.97
9586.92
9586.87
9586.82
9586.77
9586.72
9586.67
9586.62
9586.57
9586.53
9586.48
9586.43
9586.38
9586.33
9586.28
9586.24
9586.19
9586.14
9586.09
9586.05
9586
9585.95
9585.9
9585.86
9585.81
9585.76
9585.72
9585.67
9585.62
9585.58
9585.53
9585.48
9585.44
9585.39
9585.34
9585.3
9585.25
9585.21
9585.16
9585.12
9585.07
9585.03
9584.98
9584.94
9584.89
9584.85
9584.8
9584.76
9584.71
9584.67
9584.62
9584.58
9584.53
9584.49
9584.45
9584.4
9584.36
9584.32
9584.27
9584.23
9584.19
9584.14
9584.1
9584.06
9584.01
9583.97
9583.93
9583.89
9583.85
9583.8
9583.76
9583.72
9583.68
9583.64
9583.59
9583.55
9583.51
9583.47
9583.43
9583.39
9583.35
9583.31
9583.27
9583.23
9583.19
9583.15
9583.11
9583.07
9583.03
9582.99
9582.95
9582.91
9582.87
9582.83
9582.79
9582.75
9582.71
9582.68
9582.64
9582.6
9582.56
9582.52
9582.49
9582.45
9582.41
9582.37
9582.34
9582.3
9582.26
9582.23
9582.19
9582.15
9582.12
9582.08
9582.04
9582.01
9581.97
9581.94
9581.9
9581.87
9581.83
9581.8
9581.76
9581.73
9581.69
9581.66
9581.63
9581.59
9581.56
9581.52
9581.49
9581.46
9581.42
9581.39
9581.36
9581.33
9581.29
9581.26
9581.23
9581.2
9581.17
9581.13
9581.1
9581.07
9581.04
9581.01
9580.98
9580.95
9580.92
9580.89
9580.86
9580.83
9580.8
9580.77
9580.74
9580.71
9580.68
9580.65
9580.62
9580.6
9580.57
9580.54
9580.51
9580.48
9580.46
9580.43
9580.4
9580.38
9580.35
9580.32
9580.3
9580.27
9580.24
9580.22
9580.19
9580.17
9580.14
9580.12
9580.09
9580.07
9580.05
9580.02
9580
9579.97
9579.95
9579.93
9579.9
9579.88
9579.86
9579.84
9579.82
9579.79
9579.77
9579.75
9579.73
9579.71
9579.69
9579.67
9579.65
9579.63
9579.61
9579.59
9579.57
9579.55
9579.53
9579.51
9579.49
9579.48
9579.46
9579.44
9579.42
9579.41
9579.39
9579.37
9579.36
9579.34
9579.33
9579.31
9579.29
9579.28
9579.26
9579.25
9579.24
9579.22
9579.21
9579.19
9579.18
9579.17
9579.16
9579.14
9579.13
9579.12
9579.11
9579.1
9579.09
9579.08
9579.07
9579.05
9579.05
9579.04
9579.03
9579.02
9579.01
9579
9578.99
9578.98
9578.98
9578.97
9578.96
9578.96
9578.95
9578.94
9578.94
9578.93
9578.93
9578.92
9578.92
9578.92
9578.91
9578.91
9578.9
9578.9
9578.9
9578.9
9578.9
9578.89
9578.89
9578.89
9578.89
9578.89
9578.89
9578.89
9578.89
9578.89
9578.89
9578.89
9578.9
9578.9
9578.9
9578.9
9578.91
9578.91
9578.91
9578.92
9578.92
9578.93
9578.94
9578.94
9578.95
9578.96
9578.96
9578.97
9578.98
9578.99
9579
9579.01
9579.02
9579.03
9579.04
9579.05
9579.06
9579.07
9579.08
9579.09
9579.11
9579.12
9579.13
9579.15
9579.16
9579.18
9579.19
9579.21
9579.22
9579.24
9579.26
9579.28
9579.29
9579.31
9579.33
9579.35
9579.37
9579.39
9579.41
9579.43
9579.45
9579.48
9579.5
9579.52
9579.55
9579.57
9579.59
9579.62
9579.64
9579.67
9579.7
9579.72
9579.75
9579.78
9579.81
9579.84
9579.86
9579.89
9579.92
9579.96
9579.99
9580.02
9580.05
9580.08
9580.12
9580.15
9580.19
9580.22
9580.26
9580.29
9580.33
9580.37
9580.41
9580.44
9580.48
9580.52
9580.56
9580.6
9580.64
9580.69
9580.73
9580.77
9580.82
9580.86
9580.91
9580.95
9581
9581.04
9581.09
9581.14
9581.19
9581.24
9581.29
9581.34
9581.39
9581.44
9581.49
9581.54
9581.6
9581.65
9581.71
9581.76
9581.82
9581.87
9581.93
9581.99
9582.05
9582.11
9582.17
9582.23
9582.29
9582.35
9582.42
9582.48
9582.55
9582.61
9582.68
9582.74
9582.81
9582.88
9582.95
9583.02
9583.09
9583.16
9583.23
9583.3
9583.38
9583.45
9583.52
9583.6
9583.68
9583.75
9583.83
9583.91
9583.99
9584.07
9584.15
9584.23
9584.32
9584.4
9584.49
9584.57
9584.66
9584.74
9584.83
9584.92
9585.01
9585.1
9585.19
9585.28
9585.38
9585.47
9585.57
9585.66
9585.76
9585.86
9585.95
9586.05
9586.15
9586.26
9586.36
9586.46
9586.57
9586.67
9586.78
9586.88
9586.99
9587.1
9587.21
9587.32
9587.43
9587.55
9587.66
9587.77
9587.89
9588.01
9588.12
9588.24
9588.36
9588.48
9588.61
9588.73
9588.85
9588.98
9589.1
9589.23
9589.36
9589.49
9589.62
9589.75
9589.89
9590.02
9590.15
9590.29
9590.43
9590.57
9590.71
9590.85
9590.99
9591.13
9591.28
9591.42
9591.57
9591.72
9591.87
9592.02
9592.17
9592.32
9592.47
9592.63
9592.78
9592.94
9593.1
9593.26
9593.42
9593.59
9593.75
9593.91
9594.08
9594.25
9594.42
9594.59
9594.76
9594.93
9595.11
9595.28
9595.46
9595.64
9595.82
9596
9596.18
9596.37
9596.55
9596.74
9596.93
9597.12
9597.31
9597.5
9597.69
9597.89
9598.09
9598.28
9598.48
9598.68
9598.89
9599.09
9599.3
9599.5
9599.71
9599.92
9600.13
9600.35
9600.56
9600.78
9601
9601.22
9601.44
9601.66
9601.88
9602.11
9602.34
9602.56
9602.79
9603.03
9603.26
9603.5
9603.73
9603.97
9604.21
9604.45
9604.7
9604.94
9605.19
9605.44
9605.69
9605.94
9606.19
9606.45
9606.71
9606.97
9607.23
9607.49
9607.75
9608.02
9608.29
9608.56
9608.83
9609.1
9609.37
9609.65
9609.93
9610.21
9610.49
9610.78
9611.06
9611.35
9611.64
9611.93
9612.22
9612.52
9612.81
9613.11
9613.41
9613.71
9614.02
9614.33
9614.63
9614.94
9615.25
9615.57
9615.88
9616.2
9616.52
9616.84
9617.17
9617.49
9617.82
9618.15
9618.48
9618.81
9619.15
9619.49
9619.82
9620.17
9620.51
9620.85
9621.2
9621.55
9621.9
9622.25
9622.61
9622.97
9623.33
9623.69
9624.05
9624.42
9624.78
9625.15
9625.52
9625.9
9626.27
9626.65
9627.03
9627.41
9627.79
9628.18
9628.57
9628.96
9629.35
9629.74
9630.14
9630.54
9630.94
9631.34
9631.74
9632.15
9632.56
9632.97
9633.38
9633.8
9634.21
9634.63
9635.05
9635.47
9635.9
9636.33
9636.75
9637.18
9637.62
9638.05
9638.49
9638.93
9639.37
9639.81
9640.26
9640.71
9641.16
9641.61
9642.06
9642.52
9642.97
9643.43
9643.89
9644.36
9644.82
9645.29
9645.76
9646.23
9646.7
9647.18
9647.66
9648.14
9648.62
9649.1
9649.59
9650.07
9650.56
9651.05
9651.55
9652.04
9652.54
9653.04
9653.54
9654.04
9654.54
9655.05
9655.56
9656.07
9656.58
9657.09
9657.61
9658.13
9658.65
9659.17
9659.69
9660.22
9660.74
9661.27
9661.8
9662.33
9662.86
9663.4
9663.94
9664.48
9665.02
9665.56
9666.1
9666.65
9667.19
9667.74
9668.29
9668.84
9669.4
9669.95
9670.51
9671.07
9671.63
9672.19
9672.75
9673.32
9673.88
9674.45
9675.02
9675.59
9676.16
9676.74
9677.31
9677.89
9678.47
9679.04
9679.63
9680.21
9680.79
9681.38
9681.96
9682.55
9683.14
9683.73
9684.32
9684.91
9685.51
9686.1
9686.7
9687.3
9687.89
9688.49
9689.1
9689.7
9690.3
9690.91
9691.51
9692.12
9692.73
9693.34
9693.95
9694.56
9695.17
9695.79
9696.4
9697.02
9697.63
9698.25
9698.87
9699.49
9700.11
9700.73
9701.36
9701.98
9702.6
9703.23
9703.86
9704.48
9705.11
9705.74
9706.37
9707
9707.63
9708.26
9708.9
9709.53
9710.17
9710.8
9711.44
9712.08
9712.71
9713.35
9713.99
9714.63
9715.27
9715.91
9716.55
9717.2
9717.84
9718.48
9719.13
9719.77
9720.42
9721.06
9721.71
9722.36
9723.01
9723.66
9724.3
9724.95
9725.6
9726.26
9726.91
9727.56
9728.21
9728.86
9729.52
9730.17
9730.82
9731.48
9732.13
9732.79
9733.45
9734.1
9734.76
9735.42
9736.07
9736.73
9737.39
9738.05
9738.71
9739.37
9740.03
9740.69
9741.35
9742.01
9742.67
9743.33
9744
9744.66
9745.32
9745.98
9746.65
9747.31
9747.97
9748.64
9749.3
9749.97
9750.63
9751.3
9751.96
9752.63
9753.29
9753.96
9754.63
9755.29
9755.96
9756.63
9757.29
9757.96
9758.63
9759.3
9759.97
9760.63
9761.3
9761.97
9762.64
9763.31
9763.98
9764.65
9765.32
9765.99
9766.66
9767.33
9768
9768.67
9769.34
9770.01
9770.68
9771.35
9772.03
9772.7
9773.37
9774.04
9774.71
9775.38
9776.06
9776.73
9777.4
9778.07
9778.75
9779.42
9780.09
9780.77
9781.44
9782.11
9782.79
9783.46
9784.13
9784.81
9785.48
9786.15
9786.83
9787.5
9788.18
9788.85
9789.53
9790.2
9790.87
9791.55
9792.22
9792.9
9793.57
9794.25
9794.92
9795.6
9796.27
9796.95
9797.63
9798.3
9798.98
9799.65
9800.33
9801
9801.68
9802.36
9803.03
9803.71
9804.39
9805.06
9805.74
9806.41
9807.09
9807.77
9808.44
9809.12
9809.8
9810.48
9811.15
9811.83
9812.51
9813.18
9813.86
9814.54
9815.22
9815.89
9816.57
9817.25
9817.93
9818.6
9819.28
9819.96
9820.64
9821.32
9821.99
9822.67
9823.35
9824.03
9824.71
9825.39
9826.06
9826.74
9827.42
9828.1
9828.78
9829.46
9830.14
9830.81
9831.49
9832.17
9832.85
9833.53
9834.21
9834.89
9835.57
9836.25
9836.93
9837.61
9838.29
9838.96
9839.64
9840.32
9841
9841.68
9842.36
9843.04
9843.72
9844.4
9845.08
9845.76
9846.44
9847.12
9847.8
9848.48
9849.16
9849.84
9850.53
9851.21
9851.89
9852.57
9853.25
9853.93
9854.61
9855.29
9855.97
9856.65
9857.33
9858.01
9858.7
9859.38
9860.06
9860.74
9861.42
9862.1
9862.78
9863.46
9864.15
9864.83
9865.51
9866.19
9866.87
9867.56
9868.24
9868.92
9869.6
9870.28
9870.97
9871.65
9872.33
9873.01
9873.69
9874.38
9875.06
9875.74
9876.42
9877.11
9877.79
9878.47
9879.15
9879.84
9880.52
9881.2
9881.89
9882.57
9883.25
9883.94
9884.62
9885.3
9885.99
9886.67
9887.35
9888.04
9888.72
9889.4
9890.09
9890.77
9891.45
9892.14
9892.82
9893.51
9894.19
9894.87
9895.56
9896.24
9896.93
9897.61
9898.29
9898.98
9899.66
9900.35
9901.03
9901.72
9902.4
9903.09
9903.77
9904.46
9905.14
9905.83
9906.51
9907.2
9907.88
9908.57
9909.25
9909.94
9910.62
9911.31
9911.99
9912.68
9913.36
9914.05
9914.73
9915.42
9916.11
9916.79
9917.48
9918.16
9918.85
9919.53
9920.22
9920.91
9921.59
9922.28
9922.97
9923.65
9924.34
9925.02
9925.71
9926.4
9927.08
9927.77
9928.46
9929.14
9929.83
9930.52
9931.2
9931.89
9932.58
9933.27
9933.95
9934.64
9935.33
9936.01
9936.7
9937.39
9938.08
9938.76
9939.45
9940.14
9940.83
9941.51
9942.2
9942.89
9943.58
9944.27
9944.95
9945.64
9946.33
9947.02
9947.71
9948.4
9949.08
9949.77
9950.46
9951.15
9951.84
9952.53
9953.21
9953.9
9954.59
9955.28
9955.97
9956.66
9957.35
9958.04
9958.73
9959.42
9960.1
9960.79
9961.48
9962.17
9962.86
9963.55
9964.24
9964.93
9965.62
9966.31
9967
9967.69
9968.38
9969.07
9969.76
9970.45
9971.14
9971.83
9972.52
9973.21
9973.9
9974.59
9975.28
9975.97
9976.66
9977.35
9978.04
9978.73
9979.42
9980.12
9980.81
9981.5
9982.19
9982.88
9983.57
9984.26
9984.95
9985.64
9986.34
9987.03
9987.72
9988.41
9989.1
9989.79
9990.48
9991.18
9991.87
9992.56
9993.25
9993.94
9994.64
9995.33
9996.02
9996.71
9997.4
9998.1
9998.79
9999.48
10000.2
10000.9
10001.6
10002.3
10002.9
10003.6
10004.3
10005
10005.7
10006.4
10007.1
10007.8
10008.5
10009.2
10009.9
10010.6
10011.3
10012
10012.6
10013.3
10014
10014.7
10015.4
10016.1
10016.8
10017.5
10018.2
10018.9
10019.6
10020.3
10021
10021.7
10022.4
10023.1
10023.7
10024.4
10025.1
10025.8
10026.5
10027.2
10027.9
10028.6
10029.3
10030
10030.7
10031.4
10032.1
10032.8
10033.5
10034.2
10034.9
10035.6
10036.3
10037
10037.6
10038.3
10039
10039.7
10040.4
10041.1
10041.8
10042.5
10043.2
10043.9
10044.6
10045.3
10046
10046.7
10047.4
10048.1
10048.8
10049.5
10050.2
10050.9
10051.6
10052.3
10053
10053.7
10054.4
10055.1
10055.7
10056.4
10057.1
10057.8
10058.5
10059.2
10059.9
10060.6
10061.3
10062
10062.7
10063.4
10064.1
10064.8
10065.5
10066.2
10066.9
10067.6
10068.3
10069
10069.7
10070.4
10071.1
10071.8
10072.5
10073.2
10073.9
10074.6
10075.3
10076
10076.7
10077.4
10078.1
10078.8
10079.5
10080.2
10080.9
10081.6
10082.3
10083
10083.7
10084.4
10085.1
10085.8
10086.5
10087.2
10087.9
10088.6
10089.3
10090
10090.7
10091.4
10092.1
10092.8
10093.5
10094.2
10094.9
10095.6
10096.3
10097
10097.7
10098.4
10099.1
10099.8
10100.5
10101.2
10101.9
10102.6
10103.3
10104
10104.7
10105.4
10106.1
10106.8
10107.5
10108.2
10108.9
10109.6
10110.3
10111
10111.7
10112.4
10113.1
10113.8
10114.5
10115.2
10115.9
10116.6
10117.3
10118
10118.7
10119.4
10120.1
10120.8
10121.5
10122.2
10122.9
10123.6
10124.3
10125
10125.7
10126.4
10127.1
10127.8
10128.5
10129.2
10129.9
10130.6
10131.3
10132
10132.7
10133.5
10134.2
10134.9
10135.6
10136.3
10137
10137.7
10138.4
10139.1
10139.8
10140.5
10141.2
10141.9
10142.6
10143.3
10144
10144.7
10145.4
10146.1
10146.8
10147.5
10148.2
10148.9
10149.6
10150.3
10151
10151.8
10152.5
10153.2
10153.9
10154.6
10155.3
10156
10156.7
10157.4
10158.1
10158.8
10159.5
10160.2
10160.9
10161.6
10162.3
10163
10163.7
10164.4
10165.1
10165.9
10166.6
10167.3
10168
10168.7
10169.4
10170.1
10170.8
10171.5
10172.2
10172.9
10173.6
10174.3
10175
10175.7
10176.4
10177.2
10177.9
10178.6
10179.3
10180
10180.7
10181.4
10182.1
10182.8
10183.5
10184.2
10184.9
10185.6
10186.3
10187.1
10187.8
10188.5
10189.2
10189.9
10190.6
10191.3
10192
10192.7
10193.4
10194.1
10194.8
10195.5
10196.3
10197
10197.7
10198.4
10199.1
10199.8
10200.5
10201.2
10201.9
10202.6
10203.3
10204
10204.8
10205.5
10206.2
10206.9
10207.6
10208.3
10209
10209.7
10210.4
10211.1
10211.8
10212.6
10213.3
10214
10214.7
10215.4
10216.1
10216.8
10217.5
10218.2
10218.9
10219.7
10220.4
10221.1
10221.8
10222.5
10223.2
10223.9
10224.6
10225.3
10226
10226.8
10227.5
10228.2
10228.9
10229.6
10230.3
10231
10231.7
10232.4
10233.2
10233.9
10234.6
10235.3
10236
10236.7
10237.4
10238.1
10238.8
10239.6
10240.3
10241
10241.7
10242.4
10243.1
10243.8
10244.5
10245.2
10246
10246.7
10247.4
10248.1
10248.8
10249.5
10250.2
10250.9
10251.7
10252.4
10253.1
10253.8
10254.5
10255.2
10255.9
10256.6
10257.4
10258.1
10258.8
10259.5
10260.2
10260.9
10261.6
10262.3
10263.1
10263.8
10264.5
10265.2
10265.9
10266.6
10267.3
10268.1
10268.8
10269.5
10270.2
10270.9
10271.6
10272.3
10273.1
10273.8
10274.5
10275.2
10275.9
10276.6
10277.3
10278.1
10278.8
10279.5
10280.2
10280.9
10281.6
10282.3
10283.1
10283.8
10284.5
10285.2
10285.9
10286.6
10287.3
10288.1
10288.8
10289.5
10290.2
10290.9
10291.6
10292.4
10293.1
10293.8
10294.5
10295.2
10295.9
10296.7
10297.4
10298.1
10298.8
10299.5
10300.2
10300.9
10301.7
10302.4
10303.1
10303.8
10304.5
10305.2
10306
10306.7
10307.4
10308.1
10308.8
10309.5
10310.3
10311
10311.7
10312.4
10313.1
10313.9
10314.6
10315.3
10316
10316.7
10317.4
10318.2
10318.9
10319.6
10320.3
10321
10321.7
10322.5
10323.2
10323.9
10324.6
10325.3
10326.1
10326.8
10327.5
10328.2
10328.9
10329.6
10330.4
10331.1
10331.8
10332.5
10333.2
10334
10334.7
10335.4
10336.1
10336.8
10337.6
10338.3
10339
10339.7
10340.4
10341.2
10341.9
10342.6
10343.3
10344
10344.8
10345.5
10346.2
10346.9
10347.6
10348.3
10349.1
10349.8
10350.5
10351.2
10352
10352.7
10353.4
10354.1
10354.8
10355.6
10356.3
10357
10357.7
10358.4
10359.2
10359.9
10360.6
10361.3
10362
10362.8
10363.5
10364.2
10364.9
10365.6
10366.4
10367.1
10367.8
10368.5
10369.3
10370
10370.7
10371.4
10372.1
10372.9
10373.6
10374.3
10375
10375.8
10376.5
10377.2
10377.9
10378.6
10379.4
10380.1
10380.8
10381.5
10382.3
10383
10383.7
10384.4
10385.1
10385.9
10386.6
10387.3
10388
10388.8
10389.5
10390.2
10390.9
10391.7
10392.4
10393.1
10393.8
10394.6
10395.3
10396
10396.7
10397.4
10398.2
10398.9
10399.6
10400.3
10401.1
10401.8
10402.5
10403.2
10404
10404.7
10405.4
10406.1
10406.9
10407.6
10408.3
10409
10409.8
10410.5
10411.2
10411.9
10412.7
10413.4
10414.1
10414.8
10415.6
10416.3
10417
10417.7
10418.5
10419.2
10419.9
10420.6
10421.4
10422.1
10422.8
10423.5
10424.3
10425
10425.7
10426.5
10427.2
10427.9
10428.6
10429.4
10430.1
10430.8
10431.5
10432.3
10433
10433.7
10434.4
10435.2
10435.9
10436.6
10437.4
10438.1
10438.8
10439.5
10440.3
10441
10441.7
10442.4
10443.2
10443.9
10444.6
10445.4
10446.1
10446.8
10447.5
10448.3
10449
10449.7
10450.5
10451.2
10451.9
10452.6
10453.4
10454.1
10454.8
10455.6
10456.3
10457
10457.7
10458.5
10459.2
10459.9
10460.7
10461.4
10462.1
10462.8
10463.6
10464.3
10465
10465.8
10466.5
10467.2
10467.9
10468.7
10469.4
10470.1
10470.9
10471.6
10472.3
10473.1
10473.8
10474.5
10475.2
10476
10476.7
10477.4
10478.2
10478.9
10479.6
10480.4
10481.1
10481.8
10482.6
10483.3
10484
10484.7
10485.5
10486.2
10486.9
10487.7
10488.4
10489.1
10489.9
10490.6
10491.3
10492.1
10492.8
10493.5
10494.3
10495
10495.7
10496.4
10497.2
10497.9
10498.6
10499.4
10500.1
10500.8
10501.6
10502.3
10503
10503.8
10504.5
10505.2
10506
10506.7
10507.4
10508.2
10508.9
10509.6
10510.4
10511.1
10511.8
10512.6
10513.3
10514
10514.8
10515.5
10516.2
10517
10517.7
10518.4
10519.2
10519.9
10520.6
10521.4
10522.1
10522.8
10523.6
10524.3
10525
10525.8
10526.5
10527.2
10528
10528.7
10529.4
10530.2
10530.9
10531.6
10532.4
10533.1
10533.9
10534.6
10535.3
10536.1
10536.8
10537.5
10538.3
10539
10539.7
10540.5
10541.2
10541.9
10542.7
10543.4
10544.1
10544.9
10545.6
10546.4
10547.1
10547.8
10548.6
10549.3
10550
10550.8
10551.5
10552.2
10553
10553.7
10554.5
10555.2
10555.9
10556.7
10557.4
10558.1
10558.9
10559.6
10560.3
10561.1
10561.8
10562.6
10563.3
10564
10564.8
10565.5
10566.2
10567
10567.7
10568.5
10569.2
10569.9
10570.7
10571.4
10572.1
10572.9
10573.6
10574.4
10575.1
10575.8
10576.6
10577.3
10578.1
10578.8
10579.5
10580.3
10581
10581.7
10582.5
10583.2
10584
10584.7
10585.4
10586.2
10586.9
10587.7
10588.4
10589.1
10589.9
10590.6
10591.4
10592.1
10592.8
10593.6
10594.3
10595.1
10595.8
10596.5
10597.3
10598
10598.8
10599.5
10600.2
10601
10601.7
10602.5
10603.2
10603.9
10604.7
10605.4
10606.2
10606.9
10607.6
10608.4
10609.1
10609.9
10610.6
10611.3
10612.1
10612.8
10613.6
10614.3
10615
10615.8
10616.5
10617.3
10618
10618.8
10619.5
10620.2
10621
10621.7
10622.5
10623.2
10623.9
10624.7
10625.4
10626.2
10626.9
10627.7
10628.4
10629.1
10629.9
10630.6
10631.4
10632.1
10632.9
10633.6
10634.3
10635.1
10635.8
10636.6
10637.3
10638.1
10638.8
10639.5
10640.3
10641
10641.8
10642.5
10643.3
10644
10644.7
10645.5
10646.2
10647
10647.7
10648.5
10649.2
10649.9
10650.7
10651.4
10652.2
10652.9
10653.7
10654.4
10655.2
10655.9
10656.6
10657.4
10658.1
10658.9
10659.6
10660.4
10661.1
10661.9
10662.6
10663.4
10664.1
10664.8
10665.6
10666.3
10667.1
10667.8
10668.6
10669.3
10670.1
10670.8
10671.5
10672.3
10673
10673.8
10674.5
10675.3
10676
10676.8
10677.5
10678.3
10679
10679.8
10680.5
10681.2
10682
10682.7
10683.5
10684.2
10685
10685.7
10686.5
10687.2
10688
10688.7
10689.5
10690.2
10691
10691.7
10692.5
10693.2
10693.9
10694.7
10695.4
10696.2
10696.9
10697.7
10698.4
10699.2
10699.9
10700.7
10701.4
10702.2
10702.9
10703.7
10704.4
10705.2
10705.9
10706.7
10707.4
10708.2
10708.9
10709.7
10710.4
10711.2
10711.9
10712.7
10713.4
10714.1
10714.9
10715.6
10716.4
10717.1
10717.9
10718.6
10719.4
10720.1
10720.9
10721.6
10722.4
10723.1
10723.9
10724.6
10725.4
10726.1
10726.9
10727.6
10728.4
10729.1
10729.9
10730.6
10731.4
10732.1
10732.9
10733.6
10734.4
10735.1
10735.9
10736.6
10737.4
10738.1
10738.9
10739.7
10740.4
10741.2
10741.9
10742.7
10743.4
10744.2
10744.9
10745.7
10746.4
10747.2
10747.9
10748.7
10749.4
10750.2
10750.9
10751.7
10752.4
10753.2
10753.9
10754.7
10755.4
10756.2
10756.9
10757.7
10758.4
10759.2
10760
10760.7
10761.5
10762.2
10763
10763.7
10764.5
10765.2
10766
10766.7
10767.5
10768.2
10769
10769.7
10770.5
10771.2
10772
10772.8
10773.5
10774.3
10775
10775.8
10776.5
10777.3
10778
10778.8
10779.5
10780.3
10781
10781.8
10782.6
10783.3
10784.1
10784.8
10785.6
10786.3
10787.1
10787.8
10788.6
10789.3
10790.1
10790.9
10791.6
10792.4
10793.1
10793.9
10794.6
10795.4
10796.1
10796.9
10797.7
10798.4
10799.2
10799.9
10800.7
10801.4
10802.2
10802.9
10803.7
10804.5
10805.2
10806
10806.7
10807.5
10808.2
10809
10809.8
10810.5
10811.3
10812
10812.8
10813.5
10814.3
10815.1
10815.8
10816.6
10817.3
10818.1
10818.8
10819.6
10820.4
10821.1
10821.9
10822.6
10823.4
10824.1
10824.9
10825.7
10826.4
10827.2
10827.9
10828.7
10829.4
10830.2
10831
10831.7
10832.5
10833.2
10834
10834.8
10835.5
10836.3
10837
10837.8
10838.5
10839.3
10840.1
10840.8
10841.6
10842.3
10843.1
10843.9
10844.6
10845.4
10846.1
10846.9
10847.7
10848.4
10849.2
10849.9
10850.7
10851.5
10852.2
10853
10853.7
10854.5
10855.3
10856
10856.8
10857.5
10858.3
10859.1
10859.8
10860.6
10861.3
10862.1
10862.9
10863.6
10864.4
10865.1
10865.9
10866.7
10867.4
10868.2
10868.9
10869.7
10870.5
10871.2
10872
10872.8
10873.5
10874.3
10875
10875.8
10876.6
10877.3
10878.1
10878.8
10879.6
10880.4
10881.1
10881.9
10882.7
10883.4
10884.2
10884.9
10885.7
10886.5
10887.2
10888
10888.8
10889.5
10890.3
10891
10891.8
10892.6
10893.3
10894.1
10894.9
10895.6
10896.4
10897.2
10897.9
10898.7
10899.4
10900.2
10901
10901.7
10902.5
10903.3
10904
10904.8
10905.6
10906.3
10907.1
10907.9
10908.6
10909.4
10910.1
10910.9
10911.7
10912.4
10913.2
10914
10914.7
10915.5
10916.3
10917
10917.8
10918.6
10919.3
10920.1
10920.9
10921.6
10922.4
10923.1
10923.9
10924.7
10925.4
10926.2
10927
10927.7
10928.5
10929.3
10930
10930.8
10931.6
10932.3
10933.1
10933.9
10934.6
10935.4
10936.2
10936.9
10937.7
10938.5
10939.2
10940
10940.8
10941.5
10942.3
10943.1
10943.8
10944.6
10945.4
10946.1
10946.9
10947.7
10948.4
10949.2
10950
10950.7
10951.5
10952.3
10953.1
10953.8
10954.6
10955.4
10956.1
10956.9
10957.7
10958.4
10959.2
10960
10960.7
10961.5
10962.3
10963
10963.8
10964.6
10965.3
10966.1
10966.9
10967.7
10968.4
10969.2
10970
10970.7
10971.5
10972.3
10973
10973.8
10974.6
10975.3
10976.1
10976.9
10977.7
10978.4
10979.2
10980
10980.7
10981.5
10982.3
10983
10983.8
10984.6
10985.4
10986.1
10986.9
10987.7
10988.4
10989.2
10990
10990.8
10991.5
10992.3
10993.1
10993.8
10994.6
10995.4
10996.1
10996.9
10997.7
10998.5
10999.2
11000
11000.8
11001.5
11002.3
11003.1
11003.9
11004.6
11005.4
11006.2
11007
11007.7
11008.5
11009.3
11010
11010.8
11011.6
11012.4
11013.1
11013.9
11014.7
11015.5
11016.2
11017
11017.8
11018.5
11019.3
11020.1
11020.9
11021.6
11022.4
11023.2
11024
11024.7
11025.5
11026.3
11027
11027.8
11028.6
11029.4
11030.1
11030.9
11031.7
11032.5
11033.2
11034
11034.8
11035.6
11036.3
11037.1
11037.9
11038.7
11039.4
11040.2
11041
11041.8
11042.5
11043.3
11044.1
11044.9
11045.6
11046.4
11047.2
11048
11048.7
11049.5
11050.3
11051.1
11051.8
11052.6
11053.4
11054.2
11054.9
11055.7
11056.5
11057.3
11058
11058.8
11059.6
11060.4
11061.2
11061.9
11062.7
11063.5
11064.3
11065
11065.8
11066.6
11067.4
11068.1
11068.9
11069.7
11070.5
11071.2
11072
11072.8
11073.6
11074.4
11075.1
11075.9
11076.7
11077.5
11078.2
11079
11079.8
11080.6
11081.4
11082.1
11082.9
11083.7
11084.5
11085.2
11086
11086.8
11087.6
11088.4
11089.1
11089.9
11090.7
11091.5
11092.3
11093
11093.8
11094.6
11095.4
11096.2
11096.9
11097.7
11098.5
11099.3
11100
11100.8
11101.6
11102.4
11103.2
11103.9
11104.7
11105.5
11106.3
11107.1
11107.8
11108.6
11109.4
11110.2
11111
11111.7
11112.5
11113.3
11114.1
11114.9
11115.6
11116.4
11117.2
11118
11118.8