/*--------------------------------*- C++ -*----------------------------------*\
  =========                 |
  \\      /  F ield         | OpenFOAM: The Open Source CFD Toolbox
   \\    /   O peration     | Website:  https://openfoam.org
    \\  /    A nd           | Version:  9
     \\/     M anipulation  |
\*---------------------------------------------------------------------------*/
FoamFile
{
    format      ascii;
    class       volScalarField;
    location    "0.028";
    object      p;
}
// * * * * * * * * * * * * * * * * * * * * * * * * * * * * * * * * * * * * * //

dimensions      [1 -1 -2 0 0 0 0];

internalField   nonuniform List<scalar> 
10000
(
21468.9
21468.8
21468.6
21468.5
21468.3
21468.2
21468.1
21467.9
21467.8
21467.7
21467.6
21467.4
21467.3
21467.2
21467
21466.9
21466.8
21466.6
21466.5
21466.4
21466.2
21466.1
21466
21465.9
21465.7
21465.6
21465.5
21465.3
21465.2
21465.1
21464.9
21464.8
21464.7
21464.5
21464.4
21464.3
21464.1
21464
21463.9
21463.7
21463.6
21463.5
21463.3
21463.2
21463.1
21462.9
21462.8
21462.7
21462.5
21462.4
21462.3
21462.1
21462
21461.9
21461.7
21461.6
21461.5
21461.3
21461.2
21461.1
21460.9
21460.8
21460.7
21460.5
21460.4
21460.3
21460.1
21460
21459.9
21459.7
21459.6
21459.5
21459.3
21459.2
21459.1
21458.9
21458.8
21458.7
21458.5
21458.4
21458.3
21458.1
21458
21457.8
21457.7
21457.6
21457.4
21457.3
21457.2
21457
21456.9
21456.8
21456.6
21456.5
21456.4
21456.2
21456.1
21455.9
21455.8
21455.7
21455.5
21455.4
21455.3
21455.1
21455
21454.8
21454.7
21454.6
21454.4
21454.3
21454.2
21454
21453.9
21453.8
21453.6
21453.5
21453.3
21453.2
21453.1
21452.9
21452.8
21452.6
21452.5
21452.4
21452.2
21452.1
21452
21451.8
21451.7
21451.5
21451.4
21451.3
21451.1
21451
21450.8
21450.7
21450.6
21450.4
21450.3
21450.2
21450
21449.9
21449.7
21449.6
21449.5
21449.3
21449.2
21449
21448.9
21448.8
21448.6
21448.5
21448.3
21448.2
21448.1
21447.9
21447.8
21447.6
21447.5
21447.4
21447.2
21447.1
21446.9
21446.8
21446.7
21446.5
21446.4
21446.2
21446.1
21445.9
21445.8
21445.7
21445.5
21445.4
21445.2
21445.1
21445
21444.8
21444.7
21444.5
21444.4
21444.2
21444.1
21444
21443.8
21443.7
21443.5
21443.4
21443.2
21443.1
21443
21442.8
21442.7
21442.5
21442.4
21442.2
21442.1
21442
21441.8
21441.7
21441.5
21441.4
21441.2
21441.1
21441
21440.8
21440.7
21440.5
21440.4
21440.2
21440.1
21439.9
21439.8
21439.7
21439.5
21439.4
21439.2
21439.1
21438.9
21438.8
21438.6
21438.5
21438.4
21438.2
21438.1
21437.9
21437.8
21437.6
21437.5
21437.3
21437.2
21437.1
21436.9
21436.8
21436.6
21436.5
21436.3
21436.2
21436
21435.9
21435.7
21435.6
21435.4
21435.3
21435.2
21435
21434.9
21434.7
21434.6
21434.4
21434.3
21434.1
21434
21433.8
21433.7
21433.5
21433.4
21433.2
21433.1
21432.9
21432.8
21432.7
21432.5
21432.4
21432.2
21432.1
21431.9
21431.8
21431.6
21431.5
21431.3
21431.2
21431
21430.9
21430.7
21430.6
21430.4
21430.3
21430.1
21430
21429.8
21429.7
21429.5
21429.4
21429.2
21429.1
21428.9
21428.8
21428.6
21428.5
21428.3
21428.2
21428
21427.9
21427.7
21427.6
21427.4
21427.3
21427.1
21427
21426.8
21426.7
21426.5
21426.4
21426.2
21426.1
21425.9
21425.8
21425.6
21425.5
21425.3
21425.2
21425
21424.9
21424.7
21424.6
21424.4
21424.3
21424.1
21424
21423.8
21423.7
21423.5
21423.4
21423.2
21423.1
21422.9
21422.8
21422.6
21422.5
21422.3
21422.1
21422
21421.8
21421.7
21421.5
21421.4
21421.2
21421.1
21420.9
21420.8
21420.6
21420.5
21420.3
21420.2
21420
21419.9
21419.7
21419.5
21419.4
21419.2
21419.1
21418.9
21418.8
21418.6
21418.5
21418.3
21418.2
21418
21417.9
21417.7
21417.5
21417.4
21417.2
21417.1
21416.9
21416.8
21416.6
21416.5
21416.3
21416.1
21416
21415.8
21415.7
21415.5
21415.4
21415.2
21415.1
21414.9
21414.7
21414.6
21414.4
21414.3
21414.1
21414
21413.8
21413.7
21413.5
21413.3
21413.2
21413
21412.9
21412.7
21412.6
21412.4
21412.2
21412.1
21411.9
21411.8
21411.6
21411.5
21411.3
21411.1
21411
21410.8
21410.7
21410.5
21410.4
21410.2
21410
21409.9
21409.7
21409.6
21409.4
21409.3
21409.1
21408.9
21408.8
21408.6
21408.5
21408.3
21408.1
21408
21407.8
21407.7
21407.5
21407.3
21407.2
21407
21406.9
21406.7
21406.5
21406.4
21406.2
21406.1
21405.9
21405.8
21405.6
21405.4
21405.3
21405.1
21405
21404.8
21404.6
21404.5
21404.3
21404.2
21404
21403.8
21403.7
21403.5
21403.3
21403.2
21403
21402.9
21402.7
21402.5
21402.4
21402.2
21402.1
21401.9
21401.7
21401.6
21401.4
21401.2
21401.1
21400.9
21400.8
21400.6
21400.4
21400.3
21400.1
21400
21399.8
21399.6
21399.5
21399.3
21399.1
21399
21398.8
21398.7
21398.5
21398.3
21398.2
21398
21397.8
21397.7
21397.5
21397.3
21397.2
21397
21396.9
21396.7
21396.5
21396.4
21396.2
21396
21395.9
21395.7
21395.5
21395.4
21395.2
21395.1
21394.9
21394.7
21394.6
21394.4
21394.2
21394.1
21393.9
21393.7
21393.6
21393.4
21393.2
21393.1
21392.9
21392.7
21392.6
21392.4
21392.2
21392.1
21391.9
21391.7
21391.6
21391.4
21391.3
21391.1
21390.9
21390.8
21390.6
21390.4
21390.3
21390.1
21389.9
21389.8
21389.6
21389.4
21389.3
21389.1
21388.9
21388.8
21388.6
21388.4
21388.2
21388.1
21387.9
21387.7
21387.6
21387.4
21387.2
21387.1
21386.9
21386.7
21386.6
21386.4
21386.2
21386.1
21385.9
21385.7
21385.6
21385.4
21385.2
21385.1
21384.9
21384.7
21384.6
21384.4
21384.2
21384
21383.9
21383.7
21383.5
21383.4
21383.2
21383
21382.9
21382.7
21382.5
21382.3
21382.2
21382
21381.8
21381.7
21381.5
21381.3
21381.2
21381
21380.8
21380.6
21380.5
21380.3
21380.1
21380
21379.8
21379.6
21379.5
21379.3
21379.1
21378.9
21378.8
21378.6
21378.4
21378.3
21378.1
21377.9
21377.7
21377.6
21377.4
21377.2
21377.1
21376.9
21376.7
21376.5
21376.4
21376.2
21376
21375.8
21375.7
21375.5
21375.3
21375.2
21375
21374.8
21374.6
21374.5
21374.3
21374.1
21373.9
21373.8
21373.6
21373.4
21373.3
21373.1
21372.9
21372.7
21372.6
21372.4
21372.2
21372
21371.9
21371.7
21371.5
21371.3
21371.2
21371
21370.8
21370.6
21370.5
21370.3
21370.1
21369.9
21369.8
21369.6
21369.4
21369.2
21369.1
21368.9
21368.7
21368.5
21368.4
21368.2
21368
21367.8
21367.7
21367.5
21367.3
21367.1
21367
21366.8
21366.6
21366.4
21366.3
21366.1
21365.9
21365.7
21365.5
21365.4
21365.2
21365
21364.8
21364.7
21364.5
21364.3
21364.1
21364
21363.8
21363.6
21363.4
21363.2
21363.1
21362.9
21362.7
21362.5
21362.4
21362.2
21362
21361.8
21361.6
21361.5
21361.3
21361.1
21360.9
21360.7
21360.6
21360.4
21360.2
21360
21359.9
21359.7
21359.5
21359.3
21359.1
21359
21358.8
21358.6
21358.4
21358.2
21358.1
21357.9
21357.7
21357.5
21357.3
21357.2
21357
21356.8
21356.6
21356.4
21356.3
21356.1
21355.9
21355.7
21355.5
21355.4
21355.2
21355
21354.8
21354.6
21354.5
21354.3
21354.1
21353.9
21353.7
21353.5
21353.4
21353.2
21353
21352.8
21352.6
21352.5
21352.3
21352.1
21351.9
21351.7
21351.5
21351.4
21351.2
21351
21350.8
21350.6
21350.5
21350.3
21350.1
21349.9
21349.7
21349.5
21349.4
21349.2
21349
21348.8
21348.6
21348.4
21348.3
21348.1
21347.9
21347.7
21347.5
21347.3
21347.2
21347
21346.8
21346.6
21346.4
21346.2
21346
21345.9
21345.7
21345.5
21345.3
21345.1
21344.9
21344.8
21344.6
21344.4
21344.2
21344
21343.8
21343.6
21343.5
21343.3
21343.1
21342.9
21342.7
21342.5
21342.3
21342.2
21342
21341.8
21341.6
21341.4
21341.2
21341
21340.9
21340.7
21340.5
21340.3
21340.1
21339.9
21339.7
21339.5
21339.4
21339.2
21339
21338.8
21338.6
21338.4
21338.2
21338.1
21337.9
21337.7
21337.5
21337.3
21337.1
21336.9
21336.7
21336.5
21336.4
21336.2
21336
21335.8
21335.6
21335.4
21335.2
21335
21334.9
21334.7
21334.5
21334.3
21334.1
21333.9
21333.7
21333.5
21333.3
21333.2
21333
21332.8
21332.6
21332.4
21332.2
21332
21331.8
21331.6
21331.4
21331.3
21331.1
21330.9
21330.7
21330.5
21330.3
21330.1
21329.9
21329.7
21329.5
21329.4
21329.2
21329
21328.8
21328.6
21328.4
21328.2
21328
21327.8
21327.6
21327.4
21327.2
21327.1
21326.9
21326.7
21326.5
21326.3
21326.1
21325.9
21325.7
21325.5
21325.3
21325.1
21324.9
21324.8
21324.6
21324.4
21324.2
21324
21323.8
21323.6
21323.4
21323.2
21323
21322.8
21322.6
21322.4
21322.2
21322
21321.9
21321.7
21321.5
21321.3
21321.1
21320.9
21320.7
21320.5
21320.3
21320.1
21319.9
21319.7
21319.5
21319.3
21319.1
21318.9
21318.7
21318.6
21318.4
21318.2
21318
21317.8
21317.6
21317.4
21317.2
21317
21316.8
21316.6
21316.4
21316.2
21316
21315.8
21315.6
21315.4
21315.2
21315
21314.8
21314.6
21314.4
21314.3
21314.1
21313.9
21313.7
21313.5
21313.3
21313.1
21312.9
21312.7
21312.5
21312.3
21312.1
21311.9
21311.7
21311.5
21311.3
21311.1
21310.9
21310.7
21310.5
21310.3
21310.1
21309.9
21309.7
21309.5
21309.3
21309.1
21308.9
21308.7
21308.5
21308.3
21308.1
21307.9
21307.7
21307.5
21307.3
21307.1
21306.9
21306.7
21306.5
21306.3
21306.1
21305.9
21305.7
21305.5
21305.3
21305.1
21304.9
21304.7
21304.5
21304.3
21304.1
21303.9
21303.7
21303.5
21303.3
21303.1
21302.9
21302.7
21302.5
21302.3
21302.1
21301.9
21301.7
21301.5
21301.3
21301.1
21300.9
21300.7
21300.5
21300.3
21300.1
21299.9
21299.7
21299.5
21299.3
21299.1
21298.9
21298.7
21298.5
21298.3
21298.1
21297.9
21297.7
21297.5
21297.3
21297.1
21296.9
21296.7
21296.5
21296.3
21296.1
21295.9
21295.7
21295.5
21295.3
21295.1
21294.9
21294.7
21294.5
21294.2
21294
21293.8
21293.6
21293.4
21293.2
21293
21292.8
21292.6
21292.4
21292.2
21292
21291.8
21291.6
21291.4
21291.2
21291
21290.8
21290.6
21290.4
21290.2
21290
21289.7
21289.5
21289.3
21289.1
21288.9
21288.7
21288.5
21288.3
21288.1
21287.9
21287.7
21287.5
21287.3
21287.1
21286.9
21286.7
21286.5
21286.3
21286
21285.8
21285.6
21285.4
21285.2
21285
21284.8
21284.6
21284.4
21284.2
21284
21283.8
21283.6
21283.4
21283.1
21282.9
21282.7
21282.5
21282.3
21282.1
21281.9
21281.7
21281.5
21281.3
21281.1
21280.9
21280.6
21280.4
21280.2
21280
21279.8
21279.6
21279.4
21279.2
21279
21278.8
21278.6
21278.4
21278.1
21277.9
21277.7
21277.5
21277.3
21277.1
21276.9
21276.7
21276.5
21276.3
21276
21275.8
21275.6
21275.4
21275.2
21275
21274.8
21274.6
21274.4
21274.2
21273.9
21273.7
21273.5
21273.3
21273.1
21272.9
21272.7
21272.5
21272.3
21272
21271.8
21271.6
21271.4
21271.2
21271
21270.8
21270.6
21270.3
21270.1
21269.9
21269.7
21269.5
21269.3
21269.1
21268.9
21268.6
21268.4
21268.2
21268
21267.8
21267.6
21267.4
21267.2
21266.9
21266.7
21266.5
21266.3
21266.1
21265.9
21265.7
21265.5
21265.2
21265
21264.8
21264.6
21264.4
21264.2
21264
21263.7
21263.5
21263.3
21263.1
21262.9
21262.7
21262.5
21262.2
21262
21261.8
21261.6
21261.4
21261.2
21260.9
21260.7
21260.5
21260.3
21260.1
21259.9
21259.7
21259.4
21259.2
21259
21258.8
21258.6
21258.4
21258.1
21257.9
21257.7
21257.5
21257.3
21257.1
21256.8
21256.6
21256.4
21256.2
21256
21255.8
21255.5
21255.3
21255.1
21254.9
21254.7
21254.5
21254.2
21254
21253.8
21253.6
21253.4
21253.2
21252.9
21252.7
21252.5
21252.3
21252.1
21251.8
21251.6
21251.4
21251.2
21251
21250.8
21250.5
21250.3
21250.1
21249.9
21249.7
21249.4
21249.2
21249
21248.8
21248.6
21248.3
21248.1
21247.9
21247.7
21247.5
21247.2
21247
21246.8
21246.6
21246.4
21246.1
21245.9
21245.7
21245.5
21245.3
21245
21244.8
21244.6
21244.4
21244.2
21243.9
21243.7
21243.5
21243.3
21243.1
21242.8
21242.6
21242.4
21242.2
21241.9
21241.7
21241.5
21241.3
21241.1
21240.8
21240.6
21240.4
21240.2
21239.9
21239.7
21239.5
21239.3
21239.1
21238.8
21238.6
21238.4
21238.2
21237.9
21237.7
21237.5
21237.3
21237.1
21236.8
21236.6
21236.4
21236.2
21235.9
21235.7
21235.5
21235.3
21235
21234.8
21234.6
21234.4
21234.1
21233.9
21233.7
21233.5
21233.2
21233
21232.8
21232.6
21232.3
21232.1
21231.9
21231.7
21231.4
21231.2
21231
21230.8
21230.5
21230.3
21230.1
21229.9
21229.6
21229.4
21229.2
21229
21228.7
21228.5
21228.3
21228.1
21227.8
21227.6
21227.4
21227.2
21226.9
21226.7
21226.5
21226.3
21226
21225.8
21225.6
21225.3
21225.1
21224.9
21224.7
21224.4
21224.2
21224
21223.8
21223.5
21223.3
21223.1
21222.8
21222.6
21222.4
21222.2
21221.9
21221.7
21221.5
21221.2
21221
21220.8
21220.6
21220.3
21220.1
21219.9
21219.6
21219.4
21219.2
21219
21218.7
21218.5
21218.3
21218
21217.8
21217.6
21217.4
21217.1
21216.9
21216.7
21216.4
21216.2
21216
21215.7
21215.5
21215.3
21215.1
21214.8
21214.6
21214.4
21214.1
21213.9
21213.7
21213.4
21213.2
21213
21212.7
21212.5
21212.3
21212.1
21211.8
21211.6
21211.4
21211.1
21210.9
21210.7
21210.4
21210.2
21210
21209.7
21209.5
21209.3
21209
21208.8
21208.6
21208.3
21208.1
21207.9
21207.6
21207.4
21207.2
21206.9
21206.7
21206.5
21206.3
21206
21205.8
21205.6
21205.3
21205.1
21204.9
21204.6
21204.4
21204.1
21203.9
21203.7
21203.4
21203.2
21203
21202.7
21202.5
21202.3
21202
21201.8
21201.6
21201.3
21201.1
21200.9
21200.6
21200.4
21200.2
21199.9
21199.7
21199.5
21199.2
21199
21198.8
21198.5
21198.3
21198
21197.8
21197.6
21197.3
21197.1
21196.9
21196.6
21196.4
21196.2
21195.9
21195.7
21195.4
21195.2
21195
21194.7
21194.5
21194.3
21194
21193.8
21193.6
21193.3
21193.1
21192.8
21192.6
21192.4
21192.1
21191.9
21191.7
21191.4
21191.2
21190.9
21190.7
21190.5
21190.2
21190
21189.8
21189.5
21189.3
21189
21188.8
21188.6
21188.3
21188.1
21187.8
21187.6
21187.4
21187.1
21186.9
21186.6
21186.4
21186.2
21185.9
21185.7
21185.5
21185.2
21185
21184.7
21184.5
21184.3
21184
21183.8
21183.5
21183.3
21183.1
21182.8
21182.6
21182.3
21182.1
21181.8
21181.6
21181.4
21181.1
21180.9
21180.6
21180.4
21180.2
21179.9
21179.7
21179.4
21179.2
21179
21178.7
21178.5
21178.2
21178
21177.7
21177.5
21177.3
21177
21176.8
21176.5
21176.3
21176.1
21175.8
21175.6
21175.3
21175.1
21174.8
21174.6
21174.4
21174.1
21173.9
21173.6
21173.4
21173.1
21172.9
21172.6
21172.4
21172.2
21171.9
21171.7
21171.4
21171.2
21170.9
21170.7
21170.5
21170.2
21170
21169.7
21169.5
21169.2
21169
21168.7
21168.5
21168.3
21168
21167.8
21167.5
21167.3
21167
21166.8
21166.5
21166.3
21166
21165.8
21165.6
21165.3
21165.1
21164.8
21164.6
21164.3
21164.1
21163.8
21163.6
21163.3
21163.1
21162.8
21162.6
21162.4
21162.1
21161.9
21161.6
21161.4
21161.1
21160.9
21160.6
21160.4
21160.1
21159.9
21159.6
21159.4
21159.1
21158.9
21158.6
21158.4
21158.2
21157.9
21157.7
21157.4
21157.2
21156.9
21156.7
21156.4
21156.2
21155.9
21155.7
21155.4
21155.2
21154.9
21154.7
21154.4
21154.2
21153.9
21153.7
21153.4
21153.2
21152.9
21152.7
21152.4
21152.2
21151.9
21151.7
21151.4
21151.2
21150.9
21150.7
21150.4
21150.2
21149.9
21149.7
21149.4
21149.2
21148.9
21148.7
21148.4
21148.2
21147.9
21147.7
21147.4
21147.2
21146.9
21146.7
21146.4
21146.2
21145.9
21145.7
21145.4
21145.2
21144.9
21144.7
21144.4
21144.2
21143.9
21143.7
21143.4
21143.1
21142.9
21142.6
21142.4
21142.1
21141.9
21141.6
21141.4
21141.1
21140.9
21140.6
21140.4
21140.1
21139.9
21139.6
21139.4
21139.1
21138.8
21138.6
21138.3
21138.1
21137.8
21137.6
21137.3
21137.1
21136.8
21136.6
21136.3
21136.1
21135.8
21135.5
21135.3
21135
21134.8
21134.5
21134.3
21134
21133.8
21133.5
21133.3
21133
21132.7
21132.5
21132.2
21132
21131.7
21131.5
21131.2
21131
21130.7
21130.4
21130.2
21129.9
21129.7
21129.4
21129.2
21128.9
21128.6
21128.4
21128.1
21127.9
21127.6
21127.4
21127.1
21126.9
21126.6
21126.3
21126.1
21125.8
21125.6
21125.3
21125.1
21124.8
21124.5
21124.3
21124
21123.8
21123.5
21123.2
21123
21122.7
21122.5
21122.2
21122
21121.7
21121.4
21121.2
21120.9
21120.7
21120.4
21120.1
21119.9
21119.6
21119.4
21119.1
21118.9
21118.6
21118.3
21118.1
21117.8
21117.6
21117.3
21117
21116.8
21116.5
21116.3
21116
21115.7
21115.5
21115.2
21115
21114.7
21114.4
21114.2
21113.9
21113.6
21113.4
21113.1
21112.9
21112.6
21112.3
21112.1
21111.8
21111.6
21111.3
21111
21110.8
21110.5
21110.3
21110
21109.7
21109.5
21109.2
21108.9
21108.7
21108.4
21108.2
21107.9
21107.6
21107.4
21107.1
21106.8
21106.6
21106.3
21106.1
21105.8
21105.5
21105.3
21105
21104.7
21104.5
21104.2
21104
21103.7
21103.4
21103.2
21102.9
21102.6
21102.4
21102.1
21101.8
21101.6
21101.3
21101
21100.8
21100.5
21100.3
21100
21099.7
21099.5
21099.2
21098.9
21098.7
21098.4
21098.1
21097.9
21097.6
21097.3
21097.1
21096.8
21096.5
21096.3
21096
21095.7
21095.5
21095.2
21095
21094.7
21094.4
21094.2
21093.9
21093.6
21093.4
21093.1
21092.8
21092.6
21092.3
21092
21091.8
21091.5
21091.2
21091
21090.7
21090.4
21090.2
21089.9
21089.6
21089.3
21089.1
21088.8
21088.5
21088.3
21088
21087.7
21087.5
21087.2
21086.9
21086.7
21086.4
21086.1
21085.9
21085.6
21085.3
21085.1
21084.8
21084.5
21084.3
21084
21083.7
21083.4
21083.2
21082.9
21082.6
21082.4
21082.1
21081.8
21081.6
21081.3
21081
21080.8
21080.5
21080.2
21079.9
21079.7
21079.4
21079.1
21078.9
21078.6
21078.3
21078
21077.8
21077.5
21077.2
21077
21076.7
21076.4
21076.2
21075.9
21075.6
21075.3
21075.1
21074.8
21074.5
21074.3
21074
21073.7
21073.4
21073.2
21072.9
21072.6
21072.3
21072.1
21071.8
21071.5
21071.3
21071
21070.7
21070.4
21070.2
21069.9
21069.6
21069.4
21069.1
21068.8
21068.5
21068.3
21068
21067.7
21067.4
21067.2
21066.9
21066.6
21066.3
21066.1
21065.8
21065.5
21065.2
21065
21064.7
21064.4
21064.2
21063.9
21063.6
21063.3
21063.1
21062.8
21062.5
21062.2
21062
21061.7
21061.4
21061.1
21060.9
21060.6
21060.3
21060
21059.8
21059.5
21059.2
21058.9
21058.6
21058.4
21058.1
21057.8
21057.5
21057.3
21057
21056.7
21056.4
21056.2
21055.9
21055.6
21055.3
21055.1
21054.8
21054.5
21054.2
21054
21053.7
21053.4
21053.1
21052.8
21052.6
21052.3
21052
21051.7
21051.5
21051.2
21050.9
21050.6
21050.3
21050.1
21049.8
21049.5
21049.2
21049
21048.7
21048.4
21048.1
21047.8
21047.6
21047.3
21047
21046.7
21046.4
21046.2
21045.9
21045.6
21045.3
21045
21044.8
21044.5
21044.2
21043.9
21043.6
21043.4
21043.1
21042.8
21042.5
21042.2
21042
21041.7
21041.4
21041.1
21040.8
21040.6
21040.3
21040
21039.7
21039.4
21039.2
21038.9
21038.6
21038.3
21038
21037.8
21037.5
21037.2
21036.9
21036.6
21036.3
21036.1
21035.8
21035.5
21035.2
21034.9
21034.7
21034.4
21034.1
21033.8
21033.5
21033.2
21033
21032.7
21032.4
21032.1
21031.8
21031.5
21031.3
21031
21030.7
21030.4
21030.1
21029.9
21029.6
21029.3
21029
21028.7
21028.4
21028.1
21027.9
21027.6
21027.3
21027
21026.7
21026.4
21026.2
21025.9
21025.6
21025.3
21025
21024.7
21024.5
21024.2
21023.9
21023.6
21023.3
21023
21022.7
21022.5
21022.2
21021.9
21021.6
21021.3
21021
21020.7
21020.5
21020.2
21019.9
21019.6
21019.3
21019
21018.7
21018.5
21018.2
21017.9
21017.6
21017.3
21017
21016.7
21016.5
21016.2
21015.9
21015.6
21015.3
21015
21014.7
21014.4
21014.2
21013.9
21013.6
21013.3
21013
21012.7
21012.4
21012.1
21011.9
21011.6
21011.3
21011
21010.7
21010.4
21010.1
21009.8
21009.5
21009.3
21009
21008.7
21008.4
21008.1
21007.8
21007.5
21007.2
21006.9
21006.7
21006.4
21006.1
21005.8
21005.5
21005.2
21004.9
21004.6
21004.3
21004
21003.8
21003.5
21003.2
21002.9
21002.6
21002.3
21002
21001.7
21001.4
21001.1
21000.9
21000.6
21000.3
21000
20999.7
20999.4
20999.1
20998.8
20998.5
20998.2
20997.9
20997.7
20997.4
20997.1
20996.8
20996.5
20996.2
20995.9
20995.6
20995.3
20995
20994.7
20994.4
20994.1
20993.9
20993.6
20993.3
20993
20992.7
20992.4
20992.1
20991.8
20991.5
20991.2
20990.9
20990.6
20990.3
20990
20989.8
20989.5
20989.2
20988.9
20988.6
20988.3
20988
20987.7
20987.4
20987.1
20986.8
20986.5
20986.2
20985.9
20985.6
20985.3
20985
20984.8
20984.5
20984.2
20983.9
20983.6
20983.3
20983
20982.7
20982.4
20982.1
20981.8
20981.5
20981.2
20980.9
20980.6
20980.3
20980
20979.7
20979.4
20979.1
20978.8
20978.5
20978.3
20978
20977.7
20977.4
20977.1
20976.8
20976.5
20976.2
20975.9
20975.6
20975.3
20975
20974.7
20974.4
20974.1
20973.8
20973.5
20973.2
20972.9
20972.6
20972.3
20972
20971.7
20971.4
20971.1
20970.8
20970.5
20970.2
20969.9
20969.6
20969.3
20969
20968.7
20968.4
20968.1
20967.8
20967.5
20967.2
20966.9
20966.6
20966.3
20966
20965.7
20965.4
20965.1
20964.8
20964.5
20964.2
20963.9
20963.6
20963.3
20963
20962.7
20962.4
20962.1
20961.8
20961.5
20961.2
20960.9
20960.6
20960.3
20960
20959.7
20959.4
20959.1
20958.8
20958.5
20958.2
20957.9
20957.6
20957.3
20957
20956.7
20956.4
20956.1
20955.8
20955.5
20955.2
20954.9
20954.6
20954.3
20954
20953.7
20953.4
20953.1
20952.8
20952.5
20952.2
20951.9
20951.6
20951.3
20951
20950.7
20950.4
20950.1
20949.8
20949.5
20949.2
20948.9
20948.6
20948.3
20947.9
20947.6
20947.3
20947
20946.7
20946.4
20946.1
20945.8
20945.5
20945.2
20944.9
20944.6
20944.3
20944
20943.7
20943.4
20943.1
20942.8
20942.5
20942.2
20941.9
20941.6
20941.2
20940.9
20940.6
20940.3
20940
20939.7
20939.4
20939.1
20938.8
20938.5
20938.2
20937.9
20937.6
20937.3
20937
20936.7
20936.4
20936
20935.7
20935.4
20935.1
20934.8
20934.5
20934.2
20933.9
20933.6
20933.3
20933
20932.7
20932.4
20932.1
20931.8
20931.4
20931.1
20930.8
20930.5
20930.2
20929.9
20929.6
20929.3
20929
20928.7
20928.4
20928.1
20927.7
20927.4
20927.1
20926.8
20926.5
20926.2
20925.9
20925.6
20925.3
20925
20924.7
20924.4
20924
20923.7
20923.4
20923.1
20922.8
20922.5
20922.2
20921.9
20921.6
20921.3
20920.9
20920.6
20920.3
20920
20919.7
20919.4
20919.1
20918.8
20918.5
20918.2
20917.8
20917.5
20917.2
20916.9
20916.6
20916.3
20916
20915.7
20915.4
20915
20914.7
20914.4
20914.1
20913.8
20913.5
20913.2
20912.9
20912.6
20912.2
20911.9
20911.6
20911.3
20911
20910.7
20910.4
20910.1
20909.7
20909.4
20909.1
20908.8
20908.5
20908.2
20907.9
20907.6
20907.2
20906.9
20906.6
20906.3
20906
20905.7
20905.4
20905
20904.7
20904.4
20904.1
20903.8
20903.5
20903.2
20902.8
20902.5
20902.2
20901.9
20901.6
20901.3
20901
20900.6
20900.3
20900
20899.7
20899.4
20899.1
20898.8
20898.4
20898.1
20897.8
20897.5
20897.2
20896.9
20896.6
20896.2
20895.9
20895.6
20895.3
20895
20894.7
20894.3
20894
20893.7
20893.4
20893.1
20892.8
20892.4
20892.1
20891.8
20891.5
20891.2
20890.9
20890.5
20890.2
20889.9
20889.6
20889.3
20889
20888.6
20888.3
20888
20887.7
20887.4
20887.1
20886.7
20886.4
20886.1
20885.8
20885.5
20885.1
20884.8
20884.5
20884.2
20883.9
20883.6
20883.2
20882.9
20882.6
20882.3
20882
20881.6
20881.3
20881
20880.7
20880.4
20880.1
20879.7
20879.4
20879.1
20878.8
20878.5
20878.1
20877.8
20877.5
20877.2
20876.9
20876.5
20876.2
20875.9
20875.6
20875.3
20874.9
20874.6
20874.3
20874
20873.7
20873.3
20873
20872.7
20872.4
20872.1
20871.7
20871.4
20871.1
20870.8
20870.4
20870.1
20869.8
20869.5
20869.2
20868.8
20868.5
20868.2
20867.9
20867.6
20867.2
20866.9
20866.6
20866.3
20865.9
20865.6
20865.3
20865
20864.7
20864.3
20864
20863.7
20863.4
20863
20862.7
20862.4
20862.1
20861.7
20861.4
20861.1
20860.8
20860.5
20860.1
20859.8
20859.5
20859.2
20858.8
20858.5
20858.2
20857.9
20857.5
20857.2
20856.9
20856.6
20856.2
20855.9
20855.6
20855.3
20855
20854.6
20854.3
20854
20853.7
20853.3
20853
20852.7
20852.4
20852
20851.7
20851.4
20851.1
20850.7
20850.4
20850.1
20849.7
20849.4
20849.1
20848.8
20848.4
20848.1
20847.8
20847.5
20847.1
20846.8
20846.5
20846.2
20845.8
20845.5
20845.2
20844.9
20844.5
20844.2
20843.9
20843.6
20843.2
20842.9
20842.6
20842.2
20841.9
20841.6
20841.3
20840.9
20840.6
20840.3
20840
20839.6
20839.3
20839
20838.6
20838.3
20838
20837.7
20837.3
20837
20836.7
20836.3
20836
20835.7
20835.4
20835
20834.7
20834.4
20834
20833.7
20833.4
20833.1
20832.7
20832.4
20832.1
20831.7
20831.4
20831.1
20830.8
20830.4
20830.1
20829.8
20829.4
20829.1
20828.8
20828.4
20828.1
20827.8
20827.5
20827.1
20826.8
20826.5
20826.1
20825.8
20825.5
20825.1
20824.8
20824.5
20824.1
20823.8
20823.5
20823.2
20822.8
20822.5
20822.2
20821.8
20821.5
20821.2
20820.8
20820.5
20820.2
20819.8
20819.5
20819.2
20818.8
20818.5
20818.2
20817.9
20817.5
20817.2
20816.9
20816.5
20816.2
20815.9
20815.5
20815.2
20814.9
20814.5
20814.2
20813.9
20813.5
20813.2
20812.9
20812.5
20812.2
20811.9
20811.5
20811.2
20810.9
20810.5
20810.2
20809.9
20809.5
20809.2
20808.9
20808.5
20808.2
20807.9
20807.5
20807.2
20806.9
20806.5
20806.2
20805.9
20805.5
20805.2
20804.9
20804.5
20804.2
20803.8
20803.5
20803.2
20802.8
20802.5
20802.2
20801.8
20801.5
20801.2
20800.8
20800.5
20800.2
20799.8
20799.5
20799.2
20798.8
20798.5
20798.1
20797.8
20797.5
20797.1
20796.8
20796.5
20796.1
20795.8
20795.5
20795.1
20794.8
20794.5
20794.1
20793.8
20793.4
20793.1
20792.8
20792.4
20792.1
20791.8
20791.4
20791.1
20790.7
20790.4
20790.1
20789.7
20789.4
20789.1
20788.7
20788.4
20788
20787.7
20787.4
20787
20786.7
20786.4
20786
20785.7
20785.3
20785
20784.7
20784.3
20784
20783.6
20783.3
20783
20782.6
20782.3
20782
20781.6
20781.3
20780.9
20780.6
20780.3
20779.9
20779.6
20779.2
20778.9
20778.6
20778.2
20777.9
20777.5
20777.2
20776.9
20776.5
20776.2
20775.8
20775.5
20775.2
20774.8
20774.5
20774.1
20773.8
20773.5
20773.1
20772.8
20772.4
20772.1
20771.8
20771.4
20771.1
20770.7
20770.4
20770.1
20769.7
20769.4
20769
20768.7
20768.4
20768
20767.7
20767.3
20767
20766.6
20766.3
20766
20765.6
20765.3
20764.9
20764.6
20764.3
20763.9
20763.6
20763.2
20762.9
20762.5
20762.2
20761.9
20761.5
20761.2
20760.8
20760.5
20760.1
20759.8
20759.5
20759.1
20758.8
20758.4
20758.1
20757.7
20757.4
20757.1
20756.7
20756.4
20756
20755.7
20755.3
20755
20754.7
20754.3
20754
20753.6
20753.3
20752.9
20752.6
20752.2
20751.9
20751.6
20751.2
20750.9
20750.5
20750.2
20749.8
20749.5
20749.1
20748.8
20748.5
20748.1
20747.8
20747.4
20747.1
20746.7
20746.4
20746
20745.7
20745.4
20745
20744.7
20744.3
20744
20743.6
20743.3
20742.9
20742.6
20742.2
20741.9
20741.6
20741.2
20740.9
20740.5
20740.2
20739.8
20739.5
20739.1
20738.8
20738.4
20738.1
20737.7
20737.4
20737.1
20736.7
20736.4
20736
20735.7
20735.3
20735
20734.6
20734.3
20733.9
20733.6
20733.2
20732.9
20732.5
20732.2
20731.9
20731.5
20731.2
20730.8
20730.5
20730.1
20729.8
20729.4
20729.1
20728.7
20728.4
20728
20727.7
20727.3
20727
20726.6
20726.3
20725.9
20725.6
20725.2
20724.9
20724.5
20724.2
20723.8
20723.5
20723.2
20722.8
20722.5
20722.1
20721.8
20721.4
20721.1
20720.7
20720.4
20720
20719.7
20719.3
20719
20718.6
20718.3
20717.9
20717.6
20717.2
20716.9
20716.5
20716.2
20715.8
20715.5
20715.1
20714.8
20714.4
20714.1
20713.7
20713.4
20713
20712.7
20712.3
20712
20711.6
20711.3
20710.9
20710.6
20710.2
20709.9
20709.5
20709.2
20708.8
20708.5
20708.1
20707.8
20707.4
20707.1
20706.7
20706.4
20706
20705.7
20705.3
20705
20704.6
20704.3
20703.9
20703.5
20703.2
20702.8
20702.5
20702.1
20701.8
20701.4
20701.1
20700.7
20700.4
20700
20699.7
20699.3
20699
20698.6
20698.3
20697.9
20697.6
20697.2
20696.9
20696.5
20696.2
20695.8
20695.5
20695.1
20694.7
20694.4
20694
20693.7
20693.3
20693
20692.6
20692.3
20691.9
20691.6
20691.2
20690.9
20690.5
20690.2
20689.8
20689.5
20689.1
20688.7
20688.4
20688
20687.7
20687.3
20687
20686.6
20686.3
20685.9
20685.6
20685.2
20684.9
20684.5
20684.2
20683.8
20683.4
20683.1
20682.7
20682.4
20682
20681.7
20681.3
20681
20680.6
20680.3
20679.9
20679.5
20679.2
20678.8
20678.5
20678.1
20677.8
20677.4
20677.1
20676.7
20676.4
20676
20675.6
20675.3
20674.9
20674.6
20674.2
20673.9
20673.5
20673.2
20672.8
20672.5
20672.1
20671.7
20671.4
20671
20670.7
20670.3
20670
20669.6
20669.3
20668.9
20668.5
20668.2
20667.8
20667.5
20667.1
20666.8
20666.4
20666.1
20665.7
20665.3
20665
20664.6
20664.3
20663.9
20663.6
20663.2
20662.8
20662.5
20662.1
20661.8
20661.4
20661.1
20660.7
20660.4
20660
20659.6
20659.3
20658.9
20658.6
20658.2
20657.9
20657.5
20657.1
20656.8
20656.4
20656.1
20655.7
20655.4
20655
20654.7
20654.3
20653.9
20653.6
20653.2
20652.9
20652.5
20652.2
20651.8
20651.4
20651.1
20650.7
20650.4
20650
20649.7
20649.3
20648.9
20648.6
20648.2
20647.9
20647.5
20647.2
20646.8
20646.4
20646.1
20645.7
20645.4
20645
20644.6
20644.3
20643.9
20643.6
20643.2
20642.9
20642.5
20642.1
20641.8
20641.4
20641.1
20640.7
20640.4
20640
20639.6
20639.3
20638.9
20638.6
20638.2
20637.8
20637.5
20637.1
20636.8
20636.4
20636.1
20635.7
20635.3
20635
20634.6
20634.3
20633.9
20633.6
20633.2
20632.8
20632.5
20632.1
20631.8
20631.4
20631
20630.7
20630.3
20630
20629.6
20629.3
20628.9
20628.5
20628.2
20627.8
20627.5
20627.1
20626.7
20626.4
20626
20625.7
20625.3
20624.9
20624.6
20624.2
20623.9
20623.5
20623.2
20622.8
20622.4
20622.1
20621.7
20621.4
20621
20620.6
20620.3
20619.9
20619.6
20619.2
20618.9
20618.5
20618.1
20617.8
20617.4
20617.1
20616.7
20616.3
20616
20615.6
20615.3
20614.9
20614.5
20614.2
20613.8
20613.5
20613.1
20612.7
20612.4
20612
20611.7
20611.3
20611
20610.6
20610.2
20609.9
20609.5
20609.2
20608.8
20608.4
20608.1
20607.7
20607.4
20607
20606.6
20606.3
20605.9
20605.6
20605.2
20604.9
20604.5
20604.1
20603.8
20603.4
20603.1
20602.7
20602.3
20602
20601.6
20601.3
20600.9
20600.5
20600.2
20599.8
20599.5
20599.1
20598.8
20598.4
20598
20597.7
20597.3
20597
20596.6
20596.2
20595.9
20595.5
20595.2
20594.8
20594.4
20594.1
20593.7
20593.4
20593
20592.7
20592.3
20591.9
20591.6
20591.2
20590.9
20590.5
20590.1
20589.8
20589.4
20589.1
20588.7
20588.4
20588
20587.6
20587.3
20586.9
20586.6
20586.2
20585.8
20585.5
20585.1
20584.8
20584.4
20584.1
20583.7
20583.3
20583
20582.6
20582.3
20581.9
20581.5
20581.2
20580.8
20580.5
20580.1
20579.8
20579.4
20579
20578.7
20578.3
20578
20577.6
20577.3
20576.9
20576.5
20576.2
20575.8
20575.5
20575.1
20574.7
20574.4
20574
20573.7
20573.3
20573
20572.6
20572.2
20571.9
20571.5
20571.2
20570.8
20570.5
20570.1
20569.8
20569.4
20569
20568.7
20568.3
20568
20567.6
20567.3
20566.9
20566.5
20566.2
20565.8
20565.5
20565.1
20564.8
20564.4
20564
20563.7
20563.3
20563
20562.6
20562.3
20561.9
20561.6
20561.2
20560.8
20560.5
20560.1
20559.8
20559.4
20559.1
20558.7
20558.4
20558
20557.6
20557.3
20556.9
20556.6
20556.2
20555.9
20555.5
20555.2
20554.8
20554.5
20554.1
20553.7
20553.4
20553
20552.7
20552.3
20552
20551.6
20551.3
20550.9
20550.6
20550.2
20549.9
20549.5
20549.2
20548.8
20548.4
20548.1
20547.7
20547.4
20547
20546.7
20546.3
20546
20545.6
20545.3
20544.9
20544.6
20544.2
20543.9
20543.5
20543.2
20542.8
20542.5
20542.1
20541.8
20541.4
20541.1
20540.7
20540.3
20540
20539.6
20539.3
20538.9
20538.6
20538.2
20537.9
20537.5
20537.2
20536.8
20536.5
20536.1
20535.8
20535.4
20535.1
20534.7
20534.4
20534
20533.7
20533.4
20533
20532.7
20532.3
20532
20531.6
20531.3
20530.9
20530.6
20530.2
20529.9
20529.5
20529.2
20528.8
20528.5
20528.1
20527.8
20527.4
20527.1
20526.7
20526.4
20526.1
20525.7
20525.4
20525
20524.7
20524.3
20524
20523.6
20523.3
20522.9
20522.6
20522.3
20521.9
20521.6
20521.2
20520.9
20520.5
20520.2
20519.9
20519.5
20519.2
20518.8
20518.5
20518.1
20517.8
20517.5
20517.1
20516.8
20516.4
20516.1
20515.7
20515.4
20515.1
20514.7
20514.4
20514
20513.7
20513.4
20513
20512.7
20512.3
20512
20511.7
20511.3
20511
20510.7
20510.3
20510
20509.6
20509.3
20509
20508.6
20508.3
20508
20507.6
20507.3
20506.9
20506.6
20506.3
20505.9
20505.6
20505.3
20504.9
20504.6
20504.3
20503.9
20503.6
20503.3
20502.9
20502.6
20502.3
20501.9
20501.6
20501.3
20500.9
20500.6
20500.3
20499.9
20499.6
20499.3
20499
20498.6
20498.3
20498
20497.6
20497.3
20497
20496.6
20496.3
20496
20495.7
20495.3
20495
20494.7
20494.4