/*--------------------------------*- C++ -*----------------------------------*\
  =========                 |
  \\      /  F ield         | OpenFOAM: The Open Source CFD Toolbox
   \\    /   O peration     | Website:  https://openfoam.org
    \\  /    A nd           | Version:  9
     \\/     M anipulation  |
\*---------------------------------------------------------------------------*/
FoamFile
{
    format      ascii;
    class       volVectorField;
    location    "0.028";
    object      U;
}
// * * * * * * * * * * * * * * * * * * * * * * * * * * * * * * * * * * * * * //

dimensions      [0 1 -1 0 0 0 0];

internalField   nonuniform List<vector> 
10000
(
(3.77271 0 0)
(3.83401 0 0)
(3.89336 0 0)
(3.94254 0 0)
(3.98879 0 0)
(4.03588 0 0)
(4.08384 0 0)
(4.13197 0 0)
(4.17999 0 0)
(4.22794 0 0)
(4.27588 0 0)
(4.32383 0 0)
(4.37179 0 0)
(4.41975 0 0)
(4.4677 0 0)
(4.51566 0 0)
(4.56362 0 0)
(4.61158 0 0)
(4.65954 0 0)
(4.7075 0 0)
(4.75546 0 0)
(4.80341 0 0)
(4.85137 0 0)
(4.89933 0 0)
(4.9473 0 0)
(4.99526 0 0)
(5.04322 0 0)
(5.09119 0 0)
(5.13915 0 0)
(5.1871 0 0)
(5.23506 0 0)
(5.28302 0 0)
(5.33098 0 0)
(5.37894 0 0)
(5.42691 0 0)
(5.47487 0 0)
(5.52284 0 0)
(5.57081 0 0)
(5.61877 0 0)
(5.66674 0 0)
(5.71471 0 0)
(5.76268 0 0)
(5.81065 0 0)
(5.85862 0 0)
(5.90658 0 0)
(5.95455 0 0)
(6.00252 0 0)
(6.05048 0 0)
(6.09845 0 0)
(6.14641 0 0)
(6.19438 0 0)
(6.24235 0 0)
(6.29032 0 0)
(6.33828 0 0)
(6.38625 0 0)
(6.43422 0 0)
(6.48218 0 0)
(6.53015 0 0)
(6.57812 0 0)
(6.62609 0 0)
(6.67406 0 0)
(6.72203 0 0)
(6.76999 0 0)
(6.81796 0 0)
(6.86593 0 0)
(6.9139 0 0)
(6.96187 0 0)
(7.00984 0 0)
(7.05781 0 0)
(7.10579 0 0)
(7.15376 0 0)
(7.20173 0 0)
(7.2497 0 0)
(7.29767 0 0)
(7.34564 0 0)
(7.39361 0 0)
(7.44159 0 0)
(7.48956 0 0)
(7.53753 0 0)
(7.58551 0 0)
(7.63348 0 0)
(7.68145 0 0)
(7.72943 0 0)
(7.7774 0 0)
(7.82538 0 0)
(7.87335 0 0)
(7.92133 0 0)
(7.9693 0 0)
(8.01728 0 0)
(8.06525 0 0)
(8.11323 0 0)
(8.16121 0 0)
(8.20918 0 0)
(8.25716 0 0)
(8.30514 0 0)
(8.35311 0 0)
(8.40109 0 0)
(8.44907 0 0)
(8.49705 0 0)
(8.54502 0 0)
(8.593 0 0)
(8.64098 0 0)
(8.68896 0 0)
(8.73694 0 0)
(8.78492 0 0)
(8.8329 0 0)
(8.88088 0 0)
(8.92886 0 0)
(8.97684 0 0)
(9.02482 0 0)
(9.0728 0 0)
(9.12078 0 0)
(9.16876 0 0)
(9.21675 0 0)
(9.26473 0 0)
(9.31271 0 0)
(9.36069 0 0)
(9.40868 0 0)
(9.45666 0 0)
(9.50464 0 0)
(9.55262 0 0)
(9.60061 0 0)
(9.64859 0 0)
(9.69658 0 0)
(9.74456 0 0)
(9.79255 0 0)
(9.84053 0 0)
(9.88852 0 0)
(9.9365 0 0)
(9.98449 0 0)
(10.0325 0 0)
(10.0805 0 0)
(10.1284 0 0)
(10.1764 0 0)
(10.2244 0 0)
(10.2724 0 0)
(10.3204 0 0)
(10.3684 0 0)
(10.4164 0 0)
(10.4644 0 0)
(10.5123 0 0)
(10.5603 0 0)
(10.6083 0 0)
(10.6563 0 0)
(10.7043 0 0)
(10.7523 0 0)
(10.8003 0 0)
(10.8483 0 0)
(10.8963 0 0)
(10.9443 0 0)
(10.9922 0 0)
(11.0402 0 0)
(11.0882 0 0)
(11.1362 0 0)
(11.1842 0 0)
(11.2322 0 0)
(11.2802 0 0)
(11.3282 0 0)
(11.3762 0 0)
(11.4242 0 0)
(11.4722 0 0)
(11.5202 0 0)
(11.5682 0 0)
(11.6161 0 0)
(11.6641 0 0)
(11.7121 0 0)
(11.7601 0 0)
(11.8081 0 0)
(11.8561 0 0)
(11.9041 0 0)
(11.9521 0 0)
(12.0001 0 0)
(12.0481 0 0)
(12.0961 0 0)
(12.1441 0 0)
(12.1921 0 0)
(12.2401 0 0)
(12.2881 0 0)
(12.3361 0 0)
(12.3841 0 0)
(12.4321 0 0)
(12.4801 0 0)
(12.5281 0 0)
(12.5761 0 0)
(12.6241 0 0)
(12.6721 0 0)
(12.7201 0 0)
(12.7681 0 0)
(12.8161 0 0)
(12.8641 0 0)
(12.9121 0 0)
(12.9601 0 0)
(13.0081 0 0)
(13.0561 0 0)
(13.1041 0 0)
(13.1521 0 0)
(13.2001 0 0)
(13.2481 0 0)
(13.2961 0 0)
(13.3441 0 0)
(13.3921 0 0)
(13.4401 0 0)
(13.4881 0 0)
(13.5361 0 0)
(13.5841 0 0)
(13.6321 0 0)
(13.6801 0 0)
(13.7281 0 0)
(13.7761 0 0)
(13.8241 0 0)
(13.8722 0 0)
(13.9202 0 0)
(13.9682 0 0)
(14.0162 0 0)
(14.0642 0 0)
(14.1122 0 0)
(14.1602 0 0)
(14.2082 0 0)
(14.2562 0 0)
(14.3042 0 0)
(14.3522 0 0)
(14.4002 0 0)
(14.4482 0 0)
(14.4963 0 0)
(14.5443 0 0)
(14.5923 0 0)
(14.6403 0 0)
(14.6883 0 0)
(14.7363 0 0)
(14.7843 0 0)
(14.8323 0 0)
(14.8803 0 0)
(14.9283 0 0)
(14.9764 0 0)
(15.0244 0 0)
(15.0724 0 0)
(15.1204 0 0)
(15.1684 0 0)
(15.2164 0 0)
(15.2644 0 0)
(15.3124 0 0)
(15.3605 0 0)
(15.4085 0 0)
(15.4565 0 0)
(15.5045 0 0)
(15.5525 0 0)
(15.6005 0 0)
(15.6485 0 0)
(15.6966 0 0)
(15.7446 0 0)
(15.7926 0 0)
(15.8406 0 0)
(15.8886 0 0)
(15.9366 0 0)
(15.9846 0 0)
(16.0327 0 0)
(16.0807 0 0)
(16.1287 0 0)
(16.1767 0 0)
(16.2247 0 0)
(16.2728 0 0)
(16.3208 0 0)
(16.3688 0 0)
(16.4168 0 0)
(16.4648 0 0)
(16.5128 0 0)
(16.5609 0 0)
(16.6089 0 0)
(16.6569 0 0)
(16.7049 0 0)
(16.7529 0 0)
(16.801 0 0)
(16.849 0 0)
(16.897 0 0)
(16.945 0 0)
(16.9931 0 0)
(17.0411 0 0)
(17.0891 0 0)
(17.1371 0 0)
(17.1851 0 0)
(17.2332 0 0)
(17.2812 0 0)
(17.3292 0 0)
(17.3772 0 0)
(17.4253 0 0)
(17.4733 0 0)
(17.5213 0 0)
(17.5693 0 0)
(17.6174 0 0)
(17.6654 0 0)
(17.7134 0 0)
(17.7614 0 0)
(17.8095 0 0)
(17.8575 0 0)
(17.9055 0 0)
(17.9535 0 0)
(18.0016 0 0)
(18.0496 0 0)
(18.0976 0 0)
(18.1456 0 0)
(18.1937 0 0)
(18.2417 0 0)
(18.2897 0 0)
(18.3378 0 0)
(18.3858 0 0)
(18.4338 0 0)
(18.4818 0 0)
(18.5299 0 0)
(18.5779 0 0)
(18.6259 0 0)
(18.674 0 0)
(18.722 0 0)
(18.77 0 0)
(18.8181 0 0)
(18.8661 0 0)
(18.9141 0 0)
(18.9622 0 0)
(19.0102 0 0)
(19.0582 0 0)
(19.1063 0 0)
(19.1543 0 0)
(19.2023 0 0)
(19.2503 0 0)
(19.2984 0 0)
(19.3464 0 0)
(19.3945 0 0)
(19.4425 0 0)
(19.4905 0 0)
(19.5386 0 0)
(19.5866 0 0)
(19.6346 0 0)
(19.6827 0 0)
(19.7307 0 0)
(19.7787 0 0)
(19.8268 0 0)
(19.8748 0 0)
(19.9228 0 0)
(19.9709 0 0)
(20.0189 0 0)
(20.067 0 0)
(20.115 0 0)
(20.163 0 0)
(20.2111 0 0)
(20.2591 0 0)
(20.3071 0 0)
(20.3552 0 0)
(20.4032 0 0)
(20.4513 0 0)
(20.4993 0 0)
(20.5473 0 0)
(20.5954 0 0)
(20.6434 0 0)
(20.6915 0 0)
(20.7395 0 0)
(20.7875 0 0)
(20.8356 0 0)
(20.8836 0 0)
(20.9317 0 0)
(20.9797 0 0)
(21.0277 0 0)
(21.0758 0 0)
(21.1238 0 0)
(21.1719 0 0)
(21.2199 0 0)
(21.268 0 0)
(21.316 0 0)
(21.364 0 0)
(21.4121 0 0)
(21.4601 0 0)
(21.5082 0 0)
(21.5562 0 0)
(21.6043 0 0)
(21.6523 0 0)
(21.7004 0 0)
(21.7484 0 0)
(21.7965 0 0)
(21.8445 0 0)
(21.8925 0 0)
(21.9406 0 0)
(21.9886 0 0)
(22.0367 0 0)
(22.0847 0 0)
(22.1328 0 0)
(22.1808 0 0)
(22.2289 0 0)
(22.2769 0 0)
(22.325 0 0)
(22.373 0 0)
(22.4211 0 0)
(22.4691 0 0)
(22.5172 0 0)
(22.5652 0 0)
(22.6133 0 0)
(22.6613 0 0)
(22.7094 0 0)
(22.7574 0 0)
(22.8055 0 0)
(22.8535 0 0)
(22.9016 0 0)
(22.9496 0 0)
(22.9977 0 0)
(23.0457 0 0)
(23.0938 0 0)
(23.1418 0 0)
(23.1899 0 0)
(23.2379 0 0)
(23.286 0 0)
(23.3341 0 0)
(23.3821 0 0)
(23.4302 0 0)
(23.4782 0 0)
(23.5263 0 0)
(23.5743 0 0)
(23.6224 0 0)
(23.6704 0 0)
(23.7185 0 0)
(23.7665 0 0)
(23.8146 0 0)
(23.8627 0 0)
(23.9107 0 0)
(23.9588 0 0)
(24.0068 0 0)
(24.0549 0 0)
(24.1029 0 0)
(24.151 0 0)
(24.1991 0 0)
(24.2471 0 0)
(24.2952 0 0)
(24.3432 0 0)
(24.3913 0 0)
(24.4394 0 0)
(24.4874 0 0)
(24.5355 0 0)
(24.5835 0 0)
(24.6316 0 0)
(24.6797 0 0)
(24.7277 0 0)
(24.7758 0 0)
(24.8238 0 0)
(24.8719 0 0)
(24.92 0 0)
(24.968 0 0)
(25.0161 0 0)
(25.0642 0 0)
(25.1122 0 0)
(25.1603 0 0)
(25.2083 0 0)
(25.2564 0 0)
(25.3045 0 0)
(25.3525 0 0)
(25.4006 0 0)
(25.4487 0 0)
(25.4967 0 0)
(25.5448 0 0)
(25.5929 0 0)
(25.6409 0 0)
(25.689 0 0)
(25.7371 0 0)
(25.7851 0 0)
(25.8332 0 0)
(25.8812 0 0)
(25.9293 0 0)
(25.9774 0 0)
(26.0254 0 0)
(26.0735 0 0)
(26.1216 0 0)
(26.1697 0 0)
(26.2177 0 0)
(26.2658 0 0)
(26.3139 0 0)
(26.3619 0 0)
(26.41 0 0)
(26.4581 0 0)
(26.5061 0 0)
(26.5542 0 0)
(26.6023 0 0)
(26.6503 0 0)
(26.6984 0 0)
(26.7465 0 0)
(26.7946 0 0)
(26.8426 0 0)
(26.8907 0 0)
(26.9388 0 0)
(26.9868 0 0)
(27.0349 0 0)
(27.083 0 0)
(27.1311 0 0)
(27.1791 0 0)
(27.2272 0 0)
(27.2753 0 0)
(27.3234 0 0)
(27.3714 0 0)
(27.4195 0 0)
(27.4676 0 0)
(27.5157 0 0)
(27.5637 0 0)
(27.6118 0 0)
(27.6599 0 0)
(27.708 0 0)
(27.756 0 0)
(27.8041 0 0)
(27.8522 0 0)
(27.9003 0 0)
(27.9483 0 0)
(27.9964 0 0)
(28.0445 0 0)
(28.0926 0 0)
(28.1406 0 0)
(28.1887 0 0)
(28.2368 0 0)
(28.2849 0 0)
(28.333 0 0)
(28.381 0 0)
(28.4291 0 0)
(28.4772 0 0)
(28.5253 0 0)
(28.5734 0 0)
(28.6214 0 0)
(28.6695 0 0)
(28.7176 0 0)
(28.7657 0 0)
(28.8138 0 0)
(28.8618 0 0)
(28.9099 0 0)
(28.958 0 0)
(29.0061 0 0)
(29.0542 0 0)
(29.1023 0 0)
(29.1503 0 0)
(29.1984 0 0)
(29.2465 0 0)
(29.2946 0 0)
(29.3427 0 0)
(29.3908 0 0)
(29.4388 0 0)
(29.4869 0 0)
(29.535 0 0)
(29.5831 0 0)
(29.6312 0 0)
(29.6793 0 0)
(29.7273 0 0)
(29.7754 0 0)
(29.8235 0 0)
(29.8716 0 0)
(29.9197 0 0)
(29.9678 0 0)
(30.0159 0 0)
(30.064 0 0)
(30.112 0 0)
(30.1601 0 0)
(30.2082 0 0)
(30.2563 0 0)
(30.3044 0 0)
(30.3525 0 0)
(30.4006 0 0)
(30.4487 0 0)
(30.4967 0 0)
(30.5448 0 0)
(30.5929 0 0)
(30.641 0 0)
(30.6891 0 0)
(30.7372 0 0)
(30.7853 0 0)
(30.8334 0 0)
(30.8815 0 0)
(30.9296 0 0)
(30.9777 0 0)
(31.0257 0 0)
(31.0738 0 0)
(31.1219 0 0)
(31.17 0 0)
(31.2181 0 0)
(31.2662 0 0)
(31.3143 0 0)
(31.3624 0 0)
(31.4105 0 0)
(31.4586 0 0)
(31.5067 0 0)
(31.5548 0 0)
(31.6029 0 0)
(31.651 0 0)
(31.6991 0 0)
(31.7472 0 0)
(31.7953 0 0)
(31.8434 0 0)
(31.8914 0 0)
(31.9395 0 0)
(31.9876 0 0)
(32.0357 0 0)
(32.0838 0 0)
(32.1319 0 0)
(32.18 0 0)
(32.2281 0 0)
(32.2762 0 0)
(32.3243 0 0)
(32.3724 0 0)
(32.4205 0 0)
(32.4686 0 0)
(32.5167 0 0)
(32.5648 0 0)
(32.6129 0 0)
(32.661 0 0)
(32.7091 0 0)
(32.7572 0 0)
(32.8053 0 0)
(32.8534 0 0)
(32.9015 0 0)
(32.9496 0 0)
(32.9977 0 0)
(33.0458 0 0)
(33.0939 0 0)
(33.142 0 0)
(33.1901 0 0)
(33.2382 0 0)
(33.2863 0 0)
(33.3344 0 0)
(33.3826 0 0)
(33.4307 0 0)
(33.4788 0 0)
(33.5269 0 0)
(33.575 0 0)
(33.6231 0 0)
(33.6712 0 0)
(33.7193 0 0)
(33.7674 0 0)
(33.8155 0 0)
(33.8636 0 0)
(33.9117 0 0)
(33.9598 0 0)
(34.0079 0 0)
(34.056 0 0)
(34.1041 0 0)
(34.1522 0 0)
(34.2003 0 0)
(34.2485 0 0)
(34.2966 0 0)
(34.3447 0 0)
(34.3928 0 0)
(34.4409 0 0)
(34.489 0 0)
(34.5371 0 0)
(34.5852 0 0)
(34.6333 0 0)
(34.6814 0 0)
(34.7295 0 0)
(34.7777 0 0)
(34.8258 0 0)
(34.8739 0 0)
(34.922 0 0)
(34.9701 0 0)
(35.0182 0 0)
(35.0663 0 0)
(35.1144 0 0)
(35.1626 0 0)
(35.2107 0 0)
(35.2588 0 0)
(35.3069 0 0)
(35.355 0 0)
(35.4031 0 0)
(35.4512 0 0)
(35.4993 0 0)
(35.5475 0 0)
(35.5956 0 0)
(35.6437 0 0)
(35.6918 0 0)
(35.7399 0 0)
(35.788 0 0)
(35.8361 0 0)
(35.8843 0 0)
(35.9324 0 0)
(35.9805 0 0)
(36.0286 0 0)
(36.0767 0 0)
(36.1248 0 0)
(36.173 0 0)
(36.2211 0 0)
(36.2692 0 0)
(36.3173 0 0)
(36.3654 0 0)
(36.4136 0 0)
(36.4617 0 0)
(36.5098 0 0)
(36.5579 0 0)
(36.606 0 0)
(36.6541 0 0)
(36.7023 0 0)
(36.7504 0 0)
(36.7985 0 0)
(36.8466 0 0)
(36.8947 0 0)
(36.9429 0 0)
(36.991 0 0)
(37.0391 0 0)
(37.0872 0 0)
(37.1354 0 0)
(37.1835 0 0)
(37.2316 0 0)
(37.2797 0 0)
(37.3278 0 0)
(37.376 0 0)
(37.4241 0 0)
(37.4722 0 0)
(37.5203 0 0)
(37.5685 0 0)
(37.6166 0 0)
(37.6647 0 0)
(37.7128 0 0)
(37.761 0 0)
(37.8091 0 0)
(37.8572 0 0)
(37.9053 0 0)
(37.9535 0 0)
(38.0016 0 0)
(38.0497 0 0)
(38.0978 0 0)
(38.146 0 0)
(38.1941 0 0)
(38.2422 0 0)
(38.2904 0 0)
(38.3385 0 0)
(38.3866 0 0)
(38.4347 0 0)
(38.4829 0 0)
(38.531 0 0)
(38.5791 0 0)
(38.6273 0 0)
(38.6754 0 0)
(38.7235 0 0)
(38.7716 0 0)
(38.8198 0 0)
(38.8679 0 0)
(38.916 0 0)
(38.9642 0 0)
(39.0123 0 0)
(39.0604 0 0)
(39.1086 0 0)
(39.1567 0 0)
(39.2048 0 0)
(39.253 0 0)
(39.3011 0 0)
(39.3492 0 0)
(39.3974 0 0)
(39.4455 0 0)
(39.4936 0 0)
(39.5418 0 0)
(39.5899 0 0)
(39.638 0 0)
(39.6862 0 0)
(39.7343 0 0)
(39.7824 0 0)
(39.8306 0 0)
(39.8787 0 0)
(39.9268 0 0)
(39.975 0 0)
(40.0231 0 0)
(40.0712 0 0)
(40.1194 0 0)
(40.1675 0 0)
(40.2157 0 0)
(40.2638 0 0)
(40.3119 0 0)
(40.3601 0 0)
(40.4082 0 0)
(40.4563 0 0)
(40.5045 0 0)
(40.5526 0 0)
(40.6008 0 0)
(40.6489 0 0)
(40.697 0 0)
(40.7452 0 0)
(40.7933 0 0)
(40.8415 0 0)
(40.8896 0 0)
(40.9377 0 0)
(40.9859 0 0)
(41.034 0 0)
(41.0822 0 0)
(41.1303 0 0)
(41.1784 0 0)
(41.2266 0 0)
(41.2747 0 0)
(41.3229 0 0)
(41.371 0 0)
(41.4192 0 0)
(41.4673 0 0)
(41.5154 0 0)
(41.5636 0 0)
(41.6117 0 0)
(41.6599 0 0)
(41.708 0 0)
(41.7562 0 0)
(41.8043 0 0)
(41.8525 0 0)
(41.9006 0 0)
(41.9487 0 0)
(41.9969 0 0)
(42.045 0 0)
(42.0932 0 0)
(42.1413 0 0)
(42.1895 0 0)
(42.2376 0 0)
(42.2858 0 0)
(42.3339 0 0)
(42.3821 0 0)
(42.4302 0 0)
(42.4784 0 0)
(42.5265 0 0)
(42.5747 0 0)
(42.6228 0 0)
(42.671 0 0)
(42.7191 0 0)
(42.7673 0 0)
(42.8154 0 0)
(42.8636 0 0)
(42.9117 0 0)
(42.9599 0 0)
(43.008 0 0)
(43.0562 0 0)
(43.1043 0 0)
(43.1525 0 0)
(43.2006 0 0)
(43.2488 0 0)
(43.2969 0 0)
(43.3451 0 0)
(43.3932 0 0)
(43.4414 0 0)
(43.4895 0 0)
(43.5377 0 0)
(43.5858 0 0)
(43.634 0 0)
(43.6821 0 0)
(43.7303 0 0)
(43.7784 0 0)
(43.8266 0 0)
(43.8748 0 0)
(43.9229 0 0)
(43.9711 0 0)
(44.0192 0 0)
(44.0674 0 0)
(44.1155 0 0)
(44.1637 0 0)
(44.2118 0 0)
(44.26 0 0)
(44.3082 0 0)
(44.3563 0 0)
(44.4045 0 0)
(44.4526 0 0)
(44.5008 0 0)
(44.5489 0 0)
(44.5971 0 0)
(44.6453 0 0)
(44.6934 0 0)
(44.7416 0 0)
(44.7897 0 0)
(44.8379 0 0)
(44.8861 0 0)
(44.9342 0 0)
(44.9824 0 0)
(45.0305 0 0)
(45.0787 0 0)
(45.1269 0 0)
(45.175 0 0)
(45.2232 0 0)
(45.2713 0 0)
(45.3195 0 0)
(45.3677 0 0)
(45.4158 0 0)
(45.464 0 0)
(45.5122 0 0)
(45.5603 0 0)
(45.6085 0 0)
(45.6566 0 0)
(45.7048 0 0)
(45.753 0 0)
(45.8011 0 0)
(45.8493 0 0)
(45.8975 0 0)
(45.9456 0 0)
(45.9938 0 0)
(46.042 0 0)
(46.0901 0 0)
(46.1383 0 0)
(46.1865 0 0)
(46.2346 0 0)
(46.2828 0 0)
(46.3309 0 0)
(46.3791 0 0)
(46.4273 0 0)
(46.4755 0 0)
(46.5236 0 0)
(46.5718 0 0)
(46.62 0 0)
(46.6681 0 0)
(46.7163 0 0)
(46.7645 0 0)
(46.8126 0 0)
(46.8608 0 0)
(46.909 0 0)
(46.9571 0 0)
(47.0053 0 0)
(47.0535 0 0)
(47.1016 0 0)
(47.1498 0 0)
(47.198 0 0)
(47.2462 0 0)
(47.2943 0 0)
(47.3425 0 0)
(47.3907 0 0)
(47.4388 0 0)
(47.487 0 0)
(47.5352 0 0)
(47.5834 0 0)
(47.6315 0 0)
(47.6797 0 0)
(47.7279 0 0)
(47.7761 0 0)
(47.8242 0 0)
(47.8724 0 0)
(47.9206 0 0)
(47.9687 0 0)
(48.0169 0 0)
(48.0651 0 0)
(48.1133 0 0)
(48.1614 0 0)
(48.2096 0 0)
(48.2578 0 0)
(48.306 0 0)
(48.3542 0 0)
(48.4023 0 0)
(48.4505 0 0)
(48.4987 0 0)
(48.5469 0 0)
(48.595 0 0)
(48.6432 0 0)
(48.6914 0 0)
(48.7396 0 0)
(48.7877 0 0)
(48.8359 0 0)
(48.8841 0 0)
(48.9323 0 0)
(48.9805 0 0)
(49.0286 0 0)
(49.0768 0 0)
(49.125 0 0)
(49.1732 0 0)
(49.2214 0 0)
(49.2695 0 0)
(49.3177 0 0)
(49.3659 0 0)
(49.4141 0 0)
(49.4623 0 0)
(49.5105 0 0)
(49.5586 0 0)
(49.6068 0 0)
(49.655 0 0)
(49.7032 0 0)
(49.7514 0 0)
(49.7995 0 0)
(49.8477 0 0)
(49.8959 0 0)
(49.9441 0 0)
(49.9923 0 0)
(50.0405 0 0)
(50.0887 0 0)
(50.1368 0 0)
(50.185 0 0)
(50.2332 0 0)
(50.2814 0 0)
(50.3296 0 0)
(50.3778 0 0)
(50.4259 0 0)
(50.4741 0 0)
(50.5223 0 0)
(50.5705 0 0)
(50.6187 0 0)
(50.6669 0 0)
(50.7151 0 0)
(50.7633 0 0)
(50.8114 0 0)
(50.8596 0 0)
(50.9078 0 0)
(50.956 0 0)
(51.0042 0 0)
(51.0524 0 0)
(51.1006 0 0)
(51.1488 0 0)
(51.197 0 0)
(51.2451 0 0)
(51.2933 0 0)
(51.3415 0 0)
(51.3897 0 0)
(51.4379 0 0)
(51.4861 0 0)
(51.5343 0 0)
(51.5825 0 0)
(51.6307 0 0)
(51.6789 0 0)
(51.7271 0 0)
(51.7753 0 0)
(51.8234 0 0)
(51.8716 0 0)
(51.9198 0 0)
(51.968 0 0)
(52.0162 0 0)
(52.0644 0 0)
(52.1126 0 0)
(52.1608 0 0)
(52.209 0 0)
(52.2572 0 0)
(52.3054 0 0)
(52.3536 0 0)
(52.4018 0 0)
(52.45 0 0)
(52.4982 0 0)
(52.5464 0 0)
(52.5946 0 0)
(52.6428 0 0)
(52.691 0 0)
(52.7392 0 0)
(52.7873 0 0)
(52.8355 0 0)
(52.8837 0 0)
(52.9319 0 0)
(52.9801 0 0)
(53.0283 0 0)
(53.0765 0 0)
(53.1247 0 0)
(53.1729 0 0)
(53.2211 0 0)
(53.2693 0 0)
(53.3175 0 0)
(53.3657 0 0)
(53.4139 0 0)
(53.4621 0 0)
(53.5103 0 0)
(53.5585 0 0)
(53.6067 0 0)
(53.6549 0 0)
(53.7031 0 0)
(53.7513 0 0)
(53.7995 0 0)
(53.8477 0 0)
(53.896 0 0)
(53.9442 0 0)
(53.9924 0 0)
(54.0406 0 0)
(54.0888 0 0)
(54.137 0 0)
(54.1852 0 0)
(54.2334 0 0)
(54.2816 0 0)
(54.3298 0 0)
(54.378 0 0)
(54.4262 0 0)
(54.4744 0 0)
(54.5226 0 0)
(54.5708 0 0)
(54.619 0 0)
(54.6672 0 0)
(54.7154 0 0)
(54.7636 0 0)
(54.8118 0 0)
(54.8601 0 0)
(54.9083 0 0)
(54.9565 0 0)
(55.0047 0 0)
(55.0529 0 0)
(55.1011 0 0)
(55.1493 0 0)
(55.1975 0 0)
(55.2457 0 0)
(55.2939 0 0)
(55.3421 0 0)
(55.3903 0 0)
(55.4386 0 0)
(55.4868 0 0)
(55.535 0 0)
(55.5832 0 0)
(55.6314 0 0)
(55.6796 0 0)
(55.7278 0 0)
(55.776 0 0)
(55.8242 0 0)
(55.8725 0 0)
(55.9207 0 0)
(55.9689 0 0)
(56.0171 0 0)
(56.0653 0 0)
(56.1135 0 0)
(56.1617 0 0)
(56.2099 0 0)
(56.2582 0 0)
(56.3064 0 0)
(56.3546 0 0)
(56.4028 0 0)
(56.451 0 0)
(56.4992 0 0)
(56.5474 0 0)
(56.5957 0 0)
(56.6439 0 0)
(56.6921 0 0)
(56.7403 0 0)
(56.7885 0 0)
(56.8367 0 0)
(56.885 0 0)
(56.9332 0 0)
(56.9814 0 0)
(57.0296 0 0)
(57.0778 0 0)
(57.126 0 0)
(57.1743 0 0)
(57.2225 0 0)
(57.2707 0 0)
(57.3189 0 0)
(57.3671 0 0)
(57.4154 0 0)
(57.4636 0 0)
(57.5118 0 0)
(57.56 0 0)
(57.6082 0 0)
(57.6565 0 0)
(57.7047 0 0)
(57.7529 0 0)
(57.8011 0 0)
(57.8493 0 0)
(57.8976 0 0)
(57.9458 0 0)
(57.994 0 0)
(58.0422 0 0)
(58.0905 0 0)
(58.1387 0 0)
(58.1869 0 0)
(58.2351 0 0)
(58.2833 0 0)
(58.3316 0 0)
(58.3798 0 0)
(58.428 0 0)
(58.4762 0 0)
(58.5245 0 0)
(58.5727 0 0)
(58.6209 0 0)
(58.6691 0 0)
(58.7174 0 0)
(58.7656 0 0)
(58.8138 0 0)
(58.862 0 0)
(58.9103 0 0)
(58.9585 0 0)
(59.0067 0 0)
(59.0549 0 0)
(59.1032 0 0)
(59.1514 0 0)
(59.1996 0 0)
(59.2479 0 0)
(59.2961 0 0)
(59.3443 0 0)
(59.3925 0 0)
(59.4408 0 0)
(59.489 0 0)
(59.5372 0 0)
(59.5855 0 0)
(59.6337 0 0)
(59.6819 0 0)
(59.7301 0 0)
(59.7784 0 0)
(59.8266 0 0)
(59.8748 0 0)
(59.9231 0 0)
(59.9713 0 0)
(60.0195 0 0)
(60.0678 0 0)
(60.116 0 0)
(60.1642 0 0)
(60.2125 0 0)
(60.2607 0 0)
(60.3089 0 0)
(60.3572 0 0)
(60.4054 0 0)
(60.4536 0 0)
(60.5019 0 0)
(60.5501 0 0)
(60.5983 0 0)
(60.6466 0 0)
(60.6948 0 0)
(60.743 0 0)
(60.7913 0 0)
(60.8395 0 0)
(60.8877 0 0)
(60.936 0 0)
(60.9842 0 0)
(61.0324 0 0)
(61.0807 0 0)
(61.1289 0 0)
(61.1772 0 0)
(61.2254 0 0)
(61.2736 0 0)
(61.3219 0 0)
(61.3701 0 0)
(61.4183 0 0)
(61.4666 0 0)
(61.5148 0 0)
(61.5631 0 0)
(61.6113 0 0)
(61.6595 0 0)
(61.7078 0 0)
(61.756 0 0)
(61.8043 0 0)
(61.8525 0 0)
(61.9007 0 0)
(61.949 0 0)
(61.9972 0 0)
(62.0455 0 0)
(62.0937 0 0)
(62.1419 0 0)
(62.1902 0 0)
(62.2384 0 0)
(62.2867 0 0)
(62.3349 0 0)
(62.3832 0 0)
(62.4314 0 0)
(62.4796 0 0)
(62.5279 0 0)
(62.5761 0 0)
(62.6244 0 0)
(62.6726 0 0)
(62.7209 0 0)
(62.7691 0 0)
(62.8173 0 0)
(62.8656 0 0)
(62.9138 0 0)
(62.9621 0 0)
(63.0103 0 0)
(63.0586 0 0)
(63.1068 0 0)
(63.1551 0 0)
(63.2033 0 0)
(63.2516 0 0)
(63.2998 0 0)
(63.3481 0 0)
(63.3963 0 0)
(63.4445 0 0)
(63.4928 0 0)
(63.541 0 0)
(63.5893 0 0)
(63.6375 0 0)
(63.6858 0 0)
(63.734 0 0)
(63.7823 0 0)
(63.8305 0 0)
(63.8788 0 0)
(63.927 0 0)
(63.9753 0 0)
(64.0235 0 0)
(64.0718 0 0)
(64.12 0 0)
(64.1683 0 0)
(64.2165 0 0)
(64.2648 0 0)
(64.313 0 0)
(64.3613 0 0)
(64.4095 0 0)
(64.4578 0 0)
(64.5061 0 0)
(64.5543 0 0)
(64.6026 0 0)
(64.6508 0 0)
(64.6991 0 0)
(64.7473 0 0)
(64.7956 0 0)
(64.8438 0 0)
(64.8921 0 0)
(64.9403 0 0)
(64.9886 0 0)
(65.0368 0 0)
(65.0851 0 0)
(65.1334 0 0)
(65.1816 0 0)
(65.2299 0 0)
(65.2781 0 0)
(65.3264 0 0)
(65.3746 0 0)
(65.4229 0 0)
(65.4711 0 0)
(65.5194 0 0)
(65.5677 0 0)
(65.6159 0 0)
(65.6642 0 0)
(65.7124 0 0)
(65.7607 0 0)
(65.809 0 0)
(65.8572 0 0)
(65.9055 0 0)
(65.9537 0 0)
(66.002 0 0)
(66.0503 0 0)
(66.0985 0 0)
(66.1468 0 0)
(66.195 0 0)
(66.2433 0 0)
(66.2916 0 0)
(66.3398 0 0)
(66.3881 0 0)
(66.4363 0 0)
(66.4846 0 0)
(66.5329 0 0)
(66.5811 0 0)
(66.6294 0 0)
(66.6776 0 0)
(66.7259 0 0)
(66.7742 0 0)
(66.8224 0 0)
(66.8707 0 0)
(66.919 0 0)
(66.9672 0 0)
(67.0155 0 0)
(67.0638 0 0)
(67.112 0 0)
(67.1603 0 0)
(67.2085 0 0)
(67.2568 0 0)
(67.3051 0 0)
(67.3533 0 0)
(67.4016 0 0)
(67.4499 0 0)
(67.4981 0 0)
(67.5464 0 0)
(67.5947 0 0)
(67.6429 0 0)
(67.6912 0 0)
(67.7395 0 0)
(67.7877 0 0)
(67.836 0 0)
(67.8843 0 0)
(67.9326 0 0)
(67.9808 0 0)
(68.0291 0 0)
(68.0774 0 0)
(68.1256 0 0)
(68.1739 0 0)
(68.2222 0 0)
(68.2704 0 0)
(68.3187 0 0)
(68.367 0 0)
(68.4152 0 0)
(68.4635 0 0)
(68.5118 0 0)
(68.5601 0 0)
(68.6083 0 0)
(68.6566 0 0)
(68.7049 0 0)
(68.7531 0 0)
(68.8014 0 0)
(68.8497 0 0)
(68.898 0 0)
(68.9462 0 0)
(68.9945 0 0)
(69.0428 0 0)
(69.0911 0 0)
(69.1393 0 0)
(69.1876 0 0)
(69.2359 0 0)
(69.2842 0 0)
(69.3324 0 0)
(69.3807 0 0)
(69.429 0 0)
(69.4773 0 0)
(69.5255 0 0)
(69.5738 0 0)
(69.6221 0 0)
(69.6704 0 0)
(69.7186 0 0)
(69.7669 0 0)
(69.8152 0 0)
(69.8635 0 0)
(69.9117 0 0)
(69.96 0 0)
(70.0083 0 0)
(70.0566 0 0)
(70.1049 0 0)
(70.1531 0 0)
(70.2014 0 0)
(70.2497 0 0)
(70.298 0 0)
(70.3463 0 0)
(70.3945 0 0)
(70.4428 0 0)
(70.4911 0 0)
(70.5394 0 0)
(70.5877 0 0)
(70.6359 0 0)
(70.6842 0 0)
(70.7325 0 0)
(70.7808 0 0)
(70.8291 0 0)
(70.8773 0 0)
(70.9256 0 0)
(70.9739 0 0)
(71.0222 0 0)
(71.0705 0 0)
(71.1188 0 0)
(71.167 0 0)
(71.2153 0 0)
(71.2636 0 0)
(71.3119 0 0)
(71.3602 0 0)
(71.4085 0 0)
(71.4567 0 0)
(71.505 0 0)
(71.5533 0 0)
(71.6016 0 0)
(71.6499 0 0)
(71.6982 0 0)
(71.7465 0 0)
(71.7947 0 0)
(71.843 0 0)
(71.8913 0 0)
(71.9396 0 0)
(71.9879 0 0)
(72.0362 0 0)
(72.0845 0 0)
(72.1328 0 0)
(72.181 0 0)
(72.2293 0 0)
(72.2776 0 0)
(72.3259 0 0)
(72.3742 0 0)
(72.4225 0 0)
(72.4708 0 0)
(72.5191 0 0)
(72.5674 0 0)
(72.6156 0 0)
(72.6639 0 0)
(72.7122 0 0)
(72.7605 0 0)
(72.8088 0 0)
(72.8571 0 0)
(72.9054 0 0)
(72.9537 0 0)
(73.002 0 0)
(73.0503 0 0)
(73.0986 0 0)
(73.1469 0 0)
(73.1951 0 0)
(73.2434 0 0)
(73.2917 0 0)
(73.34 0 0)
(73.3883 0 0)
(73.4366 0 0)
(73.4849 0 0)
(73.5332 0 0)
(73.5815 0 0)
(73.6298 0 0)
(73.6781 0 0)
(73.7264 0 0)
(73.7747 0 0)
(73.823 0 0)
(73.8713 0 0)
(73.9196 0 0)
(73.9679 0 0)
(74.0162 0 0)
(74.0645 0 0)
(74.1128 0 0)
(74.161 0 0)
(74.2093 0 0)
(74.2576 0 0)
(74.3059 0 0)
(74.3542 0 0)
(74.4025 0 0)
(74.4508 0 0)
(74.4991 0 0)
(74.5474 0 0)
(74.5957 0 0)
(74.644 0 0)
(74.6923 0 0)
(74.7406 0 0)
(74.7889 0 0)
(74.8372 0 0)
(74.8855 0 0)
(74.9338 0 0)
(74.9821 0 0)
(75.0304 0 0)
(75.0787 0 0)
(75.127 0 0)
(75.1753 0 0)
(75.2236 0 0)
(75.2719 0 0)
(75.3202 0 0)
(75.3685 0 0)
(75.4169 0 0)
(75.4652 0 0)
(75.5135 0 0)
(75.5618 0 0)
(75.6101 0 0)
(75.6584 0 0)
(75.7067 0 0)
(75.755 0 0)
(75.8033 0 0)
(75.8516 0 0)
(75.8999 0 0)
(75.9482 0 0)
(75.9965 0 0)
(76.0448 0 0)
(76.0931 0 0)
(76.1414 0 0)
(76.1897 0 0)
(76.238 0 0)
(76.2863 0 0)
(76.3346 0 0)
(76.383 0 0)
(76.4313 0 0)
(76.4796 0 0)
(76.5279 0 0)
(76.5762 0 0)
(76.6245 0 0)
(76.6728 0 0)
(76.7211 0 0)
(76.7694 0 0)
(76.8177 0 0)
(76.866 0 0)
(76.9144 0 0)
(76.9627 0 0)
(77.011 0 0)
(77.0593 0 0)
(77.1076 0 0)
(77.1559 0 0)
(77.2042 0 0)
(77.2525 0 0)
(77.3008 0 0)
(77.3491 0 0)
(77.3975 0 0)
(77.4458 0 0)
(77.4941 0 0)
(77.5424 0 0)
(77.5907 0 0)
(77.639 0 0)
(77.6873 0 0)
(77.7356 0 0)
(77.784 0 0)
(77.8323 0 0)
(77.8806 0 0)
(77.9289 0 0)
(77.9772 0 0)
(78.0255 0 0)
(78.0739 0 0)
(78.1222 0 0)
(78.1705 0 0)
(78.2188 0 0)
(78.2671 0 0)
(78.3154 0 0)
(78.3637 0 0)
(78.4121 0 0)
(78.4604 0 0)
(78.5087 0 0)
(78.557 0 0)
(78.6053 0 0)
(78.6536 0 0)
(78.702 0 0)
(78.7503 0 0)
(78.7986 0 0)
(78.8469 0 0)
(78.8952 0 0)
(78.9436 0 0)
(78.9919 0 0)
(79.0402 0 0)
(79.0885 0 0)
(79.1368 0 0)
(79.1852 0 0)
(79.2335 0 0)
(79.2818 0 0)
(79.3301 0 0)
(79.3784 0 0)
(79.4268 0 0)
(79.4751 0 0)
(79.5234 0 0)
(79.5717 0 0)
(79.62 0 0)
(79.6684 0 0)
(79.7167 0 0)
(79.765 0 0)
(79.8133 0 0)
(79.8617 0 0)
(79.91 0 0)
(79.9583 0 0)
(80.0066 0 0)
(80.055 0 0)
(80.1033 0 0)
(80.1516 0 0)
(80.1999 0 0)
(80.2483 0 0)
(80.2966 0 0)
(80.3449 0 0)
(80.3932 0 0)
(80.4416 0 0)
(80.4899 0 0)
(80.5382 0 0)
(80.5865 0 0)
(80.6349 0 0)
(80.6832 0 0)
(80.7315 0 0)
(80.7798 0 0)
(80.8282 0 0)
(80.8765 0 0)
(80.9248 0 0)
(80.9732 0 0)
(81.0215 0 0)
(81.0698 0 0)
(81.1181 0 0)
(81.1665 0 0)
(81.2148 0 0)
(81.2631 0 0)
(81.3115 0 0)
(81.3598 0 0)
(81.4081 0 0)
(81.4564 0 0)
(81.5048 0 0)
(81.5531 0 0)
(81.6014 0 0)
(81.6498 0 0)
(81.6981 0 0)
(81.7464 0 0)
(81.7948 0 0)
(81.8431 0 0)
(81.8914 0 0)
(81.9398 0 0)
(81.9881 0 0)
(82.0364 0 0)
(82.0848 0 0)
(82.1331 0 0)
(82.1814 0 0)
(82.2298 0 0)
(82.2781 0 0)
(82.3264 0 0)
(82.3748 0 0)
(82.4231 0 0)
(82.4714 0 0)
(82.5198 0 0)
(82.5681 0 0)
(82.6164 0 0)
(82.6648 0 0)
(82.7131 0 0)
(82.7615 0 0)
(82.8098 0 0)
(82.8581 0 0)
(82.9065 0 0)
(82.9548 0 0)
(83.0031 0 0)
(83.0515 0 0)
(83.0998 0 0)
(83.1482 0 0)
(83.1965 0 0)
(83.2448 0 0)
(83.2932 0 0)
(83.3415 0 0)
(83.3898 0 0)
(83.4382 0 0)
(83.4865 0 0)
(83.5349 0 0)
(83.5832 0 0)
(83.6315 0 0)
(83.6799 0 0)
(83.7282 0 0)
(83.7766 0 0)
(83.8249 0 0)
(83.8732 0 0)
(83.9216 0 0)
(83.9699 0 0)
(84.0183 0 0)
(84.0666 0 0)
(84.115 0 0)
(84.1633 0 0)
(84.2116 0 0)
(84.26 0 0)
(84.3083 0 0)
(84.3567 0 0)
(84.405 0 0)
(84.4534 0 0)
(84.5017 0 0)
(84.5501 0 0)
(84.5984 0 0)
(84.6467 0 0)
(84.6951 0 0)
(84.7434 0 0)
(84.7918 0 0)
(84.8401 0 0)
(84.8885 0 0)
(84.9368 0 0)
(84.9852 0 0)
(85.0335 0 0)
(85.0819 0 0)
(85.1302 0 0)
(85.1785 0 0)
(85.2269 0 0)
(85.2752 0 0)
(85.3236 0 0)
(85.3719 0 0)
(85.4203 0 0)
(85.4686 0 0)
(85.517 0 0)
(85.5653 0 0)
(85.6137 0 0)
(85.662 0 0)
(85.7104 0 0)
(85.7587 0 0)
(85.8071 0 0)
(85.8554 0 0)
(85.9038 0 0)
(85.9521 0 0)
(86.0005 0 0)
(86.0488 0 0)
(86.0972 0 0)
(86.1455 0 0)
(86.1939 0 0)
(86.2422 0 0)
(86.2906 0 0)
(86.3389 0 0)
(86.3873 0 0)
(86.4357 0 0)
(86.484 0 0)
(86.5324 0 0)
(86.5807 0 0)
(86.6291 0 0)
(86.6774 0 0)
(86.7258 0 0)
(86.7741 0 0)
(86.8225 0 0)
(86.8708 0 0)
(86.9192 0 0)
(86.9676 0 0)
(87.0159 0 0)
(87.0643 0 0)
(87.1126 0 0)
(87.161 0 0)
(87.2093 0 0)
(87.2577 0 0)
(87.306 0 0)
(87.3544 0 0)
(87.4028 0 0)
(87.4511 0 0)
(87.4995 0 0)
(87.5478 0 0)
(87.5962 0 0)
(87.6445 0 0)
(87.6929 0 0)
(87.7413 0 0)
(87.7896 0 0)
(87.838 0 0)
(87.8863 0 0)
(87.9347 0 0)
(87.9831 0 0)
(88.0314 0 0)
(88.0798 0 0)
(88.1281 0 0)
(88.1765 0 0)
(88.2249 0 0)
(88.2732 0 0)
(88.3216 0 0)
(88.3699 0 0)
(88.4183 0 0)
(88.4667 0 0)
(88.515 0 0)
(88.5634 0 0)
(88.6118 0 0)
(88.6601 0 0)
(88.7085 0 0)
(88.7568 0 0)
(88.8052 0 0)
(88.8536 0 0)
(88.9019 0 0)
(88.9503 0 0)
(88.9987 0 0)
(89.047 0 0)
(89.0954 0 0)
(89.1438 0 0)
(89.1921 0 0)
(89.2405 0 0)
(89.2889 0 0)
(89.3372 0 0)
(89.3856 0 0)
(89.434 0 0)
(89.4823 0 0)
(89.5307 0 0)
(89.5791 0 0)
(89.6274 0 0)
(89.6758 0 0)
(89.7242 0 0)
(89.7725 0 0)
(89.8209 0 0)
(89.8693 0 0)
(89.9176 0 0)
(89.966 0 0)
(90.0144 0 0)
(90.0627 0 0)
(90.1111 0 0)
(90.1595 0 0)
(90.2078 0 0)
(90.2562 0 0)
(90.3046 0 0)
(90.353 0 0)
(90.4013 0 0)
(90.4497 0 0)
(90.4981 0 0)
(90.5464 0 0)
(90.5948 0 0)
(90.6432 0 0)
(90.6916 0 0)
(90.7399 0 0)
(90.7883 0 0)
(90.8367 0 0)
(90.885 0 0)
(90.9334 0 0)
(90.9818 0 0)
(91.0302 0 0)
(91.0785 0 0)
(91.1269 0 0)
(91.1753 0 0)
(91.2237 0 0)
(91.272 0 0)
(91.3204 0 0)
(91.3688 0 0)
(91.4172 0 0)
(91.4655 0 0)
(91.5139 0 0)
(91.5623 0 0)
(91.6107 0 0)
(91.659 0 0)
(91.7074 0 0)
(91.7558 0 0)
(91.8042 0 0)
(91.8525 0 0)
(91.9009 0 0)
(91.9493 0 0)
(91.9977 0 0)
(92.0461 0 0)
(92.0944 0 0)
(92.1428 0 0)
(92.1912 0 0)
(92.2396 0 0)
(92.288 0 0)
(92.3363 0 0)
(92.3847 0 0)
(92.4331 0 0)
(92.4815 0 0)
(92.5299 0 0)
(92.5782 0 0)
(92.6266 0 0)
(92.675 0 0)
(92.7234 0 0)
(92.7718 0 0)
(92.8201 0 0)
(92.8685 0 0)
(92.9169 0 0)
(92.9653 0 0)
(93.0137 0 0)
(93.062 0 0)
(93.1104 0 0)
(93.1588 0 0)
(93.2072 0 0)
(93.2556 0 0)
(93.304 0 0)
(93.3523 0 0)
(93.4007 0 0)
(93.4491 0 0)
(93.4975 0 0)
(93.5459 0 0)
(93.5943 0 0)
(93.6427 0 0)
(93.691 0 0)
(93.7394 0 0)
(93.7878 0 0)
(93.8362 0 0)
(93.8846 0 0)
(93.933 0 0)
(93.9814 0 0)
(94.0297 0 0)
(94.0781 0 0)
(94.1265 0 0)
(94.1749 0 0)
(94.2233 0 0)
(94.2717 0 0)
(94.3201 0 0)
(94.3685 0 0)
(94.4168 0 0)
(94.4652 0 0)
(94.5136 0 0)
(94.562 0 0)
(94.6104 0 0)
(94.6588 0 0)
(94.7072 0 0)
(94.7556 0 0)
(94.804 0 0)
(94.8523 0 0)
(94.9007 0 0)
(94.9491 0 0)
(94.9975 0 0)
(95.0459 0 0)
(95.0943 0 0)
(95.1427 0 0)
(95.1911 0 0)
(95.2395 0 0)
(95.2879 0 0)
(95.3363 0 0)
(95.3847 0 0)
(95.4331 0 0)
(95.4814 0 0)
(95.5298 0 0)
(95.5782 0 0)
(95.6266 0 0)
(95.675 0 0)
(95.7234 0 0)
(95.7718 0 0)
(95.8202 0 0)
(95.8686 0 0)
(95.917 0 0)
(95.9654 0 0)
(96.0138 0 0)
(96.0622 0 0)
(96.1106 0 0)
(96.159 0 0)
(96.2074 0 0)
(96.2558 0 0)
(96.3042 0 0)
(96.3526 0 0)
(96.401 0 0)
(96.4494 0 0)
(96.4977 0 0)
(96.5461 0 0)
(96.5945 0 0)
(96.6429 0 0)
(96.6913 0 0)
(96.7397 0 0)
(96.7881 0 0)
(96.8365 0 0)
(96.8849 0 0)
(96.9333 0 0)
(96.9817 0 0)
(97.0301 0 0)
(97.0785 0 0)
(97.1269 0 0)
(97.1753 0 0)
(97.2237 0 0)
(97.2721 0 0)
(97.3205 0 0)
(97.3689 0 0)
(97.4173 0 0)
(97.4657 0 0)
(97.5141 0 0)
(97.5626 0 0)
(97.611 0 0)
(97.6594 0 0)
(97.7078 0 0)
(97.7562 0 0)
(97.8046 0 0)
(97.853 0 0)
(97.9014 0 0)
(97.9498 0 0)
(97.9982 0 0)
(98.0466 0 0)
(98.095 0 0)
(98.1434 0 0)
(98.1918 0 0)
(98.2402 0 0)
(98.2886 0 0)
(98.337 0 0)
(98.3854 0 0)
(98.4338 0 0)
(98.4822 0 0)
(98.5306 0 0)
(98.579 0 0)
(98.6275 0 0)
(98.6759 0 0)
(98.7243 0 0)
(98.7727 0 0)
(98.8211 0 0)
(98.8695 0 0)
(98.9179 0 0)
(98.9663 0 0)
(99.0147 0 0)
(99.0631 0 0)
(99.1115 0 0)
(99.1599 0 0)
(99.2084 0 0)
(99.2568 0 0)
(99.3052 0 0)
(99.3536 0 0)
(99.402 0 0)
(99.4504 0 0)
(99.4988 0 0)
(99.5472 0 0)
(99.5956 0 0)
(99.644 0 0)
(99.6925 0 0)
(99.7409 0 0)
(99.7893 0 0)
(99.8377 0 0)
(99.8861 0 0)
(99.9345 0 0)
(99.9829 0 0)
(100.031 0 0)
(100.08 0 0)
(100.128 0 0)
(100.177 0 0)
(100.225 0 0)
(100.273 0 0)
(100.322 0 0)
(100.37 0 0)
(100.419 0 0)
(100.467 0 0)
(100.515 0 0)
(100.564 0 0)
(100.612 0 0)
(100.661 0 0)
(100.709 0 0)
(100.758 0 0)
(100.806 0 0)
(100.854 0 0)
(100.903 0 0)
(100.951 0 0)
(101 0 0)
(101.048 0 0)
(101.096 0 0)
(101.145 0 0)
(101.193 0 0)
(101.242 0 0)
(101.29 0 0)
(101.339 0 0)
(101.387 0 0)
(101.435 0 0)
(101.484 0 0)
(101.532 0 0)
(101.581 0 0)
(101.629 0 0)
(101.678 0 0)
(101.726 0 0)
(101.774 0 0)
(101.823 0 0)
(101.871 0 0)
(101.92 0 0)
(101.968 0 0)
(102.016 0 0)
(102.065 0 0)
(102.113 0 0)
(102.162 0 0)
(102.21 0 0)
(102.259 0 0)
(102.307 0 0)
(102.355 0 0)
(102.404 0 0)
(102.452 0 0)
(102.501 0 0)
(102.549 0 0)
(102.598 0 0)
(102.646 0 0)
(102.694 0 0)
(102.743 0 0)
(102.791 0 0)
(102.84 0 0)
(102.888 0 0)
(102.937 0 0)
(102.985 0 0)
(103.033 0 0)
(103.082 0 0)
(103.13 0 0)
(103.179 0 0)
(103.227 0 0)
(103.275 0 0)
(103.324 0 0)
(103.372 0 0)
(103.421 0 0)
(103.469 0 0)
(103.518 0 0)
(103.566 0 0)
(103.614 0 0)
(103.663 0 0)
(103.711 0 0)
(103.76 0 0)
(103.808 0 0)
(103.857 0 0)
(103.905 0 0)
(103.953 0 0)
(104.002 0 0)
(104.05 0 0)
(104.099 0 0)
(104.147 0 0)
(104.196 0 0)
(104.244 0 0)
(104.293 0 0)
(104.341 0 0)
(104.389 0 0)
(104.438 0 0)
(104.486 0 0)
(104.535 0 0)
(104.583 0 0)
(104.632 0 0)
(104.68 0 0)
(104.728 0 0)
(104.777 0 0)
(104.825 0 0)
(104.874 0 0)
(104.922 0 0)
(104.971 0 0)
(105.019 0 0)
(105.067 0 0)
(105.116 0 0)
(105.164 0 0)
(105.213 0 0)
(105.261 0 0)
(105.31 0 0)
(105.358 0 0)
(105.406 0 0)
(105.455 0 0)