/*--------------------------------*- C++ -*----------------------------------*\
  =========                 |
  \\      /  F ield         | OpenFOAM: The Open Source CFD Toolbox
   \\    /   O peration     | Website:  https://openfoam.org
    \\  /    A nd           | Version:  9
     \\/     M anipulation  |
\*---------------------------------------------------------------------------*/
FoamFile
{
    format      ascii;
    class       volScalarField;
    location    "0.011";
    object      rho;
}
// * * * * * * * * * * * * * * * * * * * * * * * * * * * * * * * * * * * * * //

dimensions      [1 -3 0 0 0 0 0];

internalField   nonuniform List<scalar> 
1000
(
0.997574
0.997574
0.997574
0.997574
0.997574
0.997574
0.997574
0.997574
0.997574
0.997574
0.997574
0.997574
0.997574
0.997574
0.997574
0.997574
0.997574
0.997574
0.997574
0.997574
0.997574
0.997574
0.997574
0.997574
0.997574
0.997574
0.997574
0.997574
0.997574
0.997573
0.997573
0.997573
0.997572
0.997572
0.997571
0.99757
0.997568
0.997567
0.997564
0.997561
0.997558
0.997553
0.997547
0.99754
0.99753
0.997519
0.997505
0.997488
0.997467
0.997441
0.99741
0.997373
0.997328
0.997275
0.997213
0.997139
0.997052
0.996951
0.996834
0.996698
0.996543
0.996366
0.996164
0.995937
0.995681
0.995395
0.995076
0.994723
0.994334
0.993907
0.99344
0.992933
0.992385
0.991793
0.991158
0.99048
0.989757
0.98899
0.988179
0.987325
0.986428
0.985488
0.984507
0.983485
0.982424
0.981326
0.98019
0.979019
0.977814
0.976577
0.975308
0.97401
0.972683
0.971329
0.96995
0.968547
0.967121
0.965673
0.964205
0.962718
0.961212
0.95969
0.958152
0.956598
0.955031
0.95345
0.951857
0.950252
0.948636
0.94701
0.945375
0.943731
0.942078
0.940418
0.93875
0.937076
0.935395
0.933708
0.932016
0.930319
0.928617
0.926911
0.925201
0.923487
0.92177
0.920049
0.918325
0.916599
0.91487
0.913139
0.911407
0.909672
0.907935
0.906198
0.904458
0.902718
0.900977
0.899235
0.897492
0.895749
0.894005
0.892261
0.890517
0.888773
0.887029
0.885285
0.883542
0.881798
0.880055
0.878313
0.876571
0.87483
0.87309
0.871351
0.869612
0.867875
0.866138
0.864403
0.862669
0.860936
0.859204
0.857474
0.855745
0.854018
0.852292
0.850567
0.848844
0.847123
0.845404
0.843686
0.841969
0.840255
0.838542
0.836831
0.835122
0.833415
0.83171
0.830007
0.828306
0.826606
0.824909
0.823214
0.821521
0.819829
0.81814
0.816454
0.814769
0.813086
0.811406
0.809727
0.808051
0.806377
0.804706
0.803036
0.801369
0.799704
0.798042
0.796382
0.794724
0.793068
0.791415
0.789764
0.788115
0.786469
0.784825
0.783183
0.781544
0.779907
0.778273
0.776641
0.775011
0.773384
0.77176
0.770137
0.768517
0.7669
0.765285
0.763673
0.762063
0.760455
0.75885
0.757247
0.755647
0.754049
0.752454
0.750862
0.749271
0.747684
0.746098
0.744516
0.742935
0.741358
0.739782
0.73821
0.73664
0.735072
0.733507
0.731944
0.730384
0.728826
0.727271
0.725719
0.724169
0.722621
0.721076
0.719534
0.717994
0.716457
0.714922
0.713389
0.71186
0.710332
0.708808
0.707285
0.705766
0.704249
0.702734
0.701222
0.699712
0.698205
0.696701
0.695199
0.6937
0.692203
0.690709
0.689217
0.687728
0.686241
0.684757
0.683275
0.681796
0.680319
0.678845
0.677374
0.675905
0.674438
0.672974
0.671513
0.670054
0.668598
0.667144
0.665693
0.664244
0.662798
0.661354
0.659913
0.658474
0.657038
0.655604
0.654173
0.652744
0.651318
0.649895
0.648474
0.647055
0.645639
0.644225
0.642814
0.641406
0.64
0.638596
0.637196
0.635795
0.634404
0.633002
0.631624
0.630216
0.628858
0.627435
0.626109
0.624657
0.623374
0.621887
0.620649
0.619131
0.617924
0.616401
0.615189
0.613703
0.612444
0.611029
0.609704
0.608358
0.60699
0.605675
0.604309
0.602985
0.601646
0.600305
0.598984
0.597647
0.596324
0.595002
0.593676
0.592361
0.591043
0.589728
0.588419
0.587108
0.585802
0.584498
0.583196
0.581897
0.580601
0.579306
0.578015
0.576725
0.575438
0.574154
0.572873
0.571593
0.570316
0.569042
0.56777
0.566501
0.565234
0.563969
0.562707
0.561448
0.560191
0.558936
0.557685
0.556435
0.555188
0.553944
0.552702
0.551462
0.550225
0.548991
0.547759
0.54653
0.545303
0.544079
0.542857
0.541638
0.540421
0.539207
0.537995
0.536786
0.53558
0.534376
0.533175
0.531976
0.53078
0.529586
0.528395
0.527207
0.526021
0.524839
0.523658
0.522481
0.521305
0.520133
0.518963
0.517797
0.516632
0.515471
0.514312
0.513156
0.512003
0.510853
0.509706
0.508561
0.507419
0.50628
0.505144
0.504011
0.502881
0.501754
0.50063
0.499509
0.498391
0.497276
0.496164
0.495056
0.49395
0.492848
0.491749
0.490654
0.489562
0.488473
0.487387
0.486306
0.485227
0.484153
0.483082
0.482015
0.480952
0.479892
0.478837
0.477785
0.476738
0.475695
0.474656
0.473621
0.472591
0.471566
0.470545
0.469529
0.468519
0.467513
0.466512
0.465517
0.464527
0.463543
0.462565
0.461592
0.460626
0.459667
0.458714
0.457767
0.456828
0.455896
0.454972
0.454056
0.453147
0.452247
0.451356
0.450474
0.4496
0.448737
0.447884
0.447041
0.446209
0.445389
0.44458
0.443783
0.442999
0.442228
0.44147
0.440726
0.439997
0.439283
0.438584
0.437902
0.437236
0.436587
0.435956
0.435343
0.434749
0.434174
0.433618
0.433082
0.432566
0.432071
0.431597
0.431144
0.430713
0.430303
0.429914
0.429547
0.429202
0.428877
0.428573
0.42829
0.428027
0.427784
0.42756
0.427354
0.427165
0.426994
0.426838
0.426698
0.426572
0.426459
0.426359
0.42627
0.426192
0.426123
0.426063
0.426011
0.425966
0.425927
0.425893
0.425865
0.42584
0.42582
0.425803
0.425788
0.425776
0.425765
0.425757
0.42575
0.425743
0.425738
0.425734
0.42573
0.425727
0.425724
0.425722
0.42572
0.425718
0.425716
0.425715
0.425714
0.425712
0.425711
0.42571
0.425708
0.425707
0.425706
0.425705
0.425704
0.425703
0.425701
0.4257
0.425699
0.425698
0.425697
0.425696
0.425694
0.425693
0.425692
0.425691
0.425689
0.425688
0.425687
0.425686
0.425684
0.425683
0.425682
0.425681
0.425679
0.425678
0.425677
0.425676
0.425674
0.425673
0.425672
0.425671
0.425669
0.425668
0.425667
0.425666
0.425664
0.425663
0.425662
0.42566
0.425659
0.425658
0.425656
0.425655
0.425654
0.425653
0.425651
0.42565
0.425649
0.425648
0.425646
0.425645
0.425644
0.425643
0.425642
0.425641
0.425639
0.425638
0.425637
0.425636
0.425635
0.425634
0.425632
0.425631
0.42563
0.425629
0.425627
0.425626
0.425625
0.425624
0.425622
0.425621
0.425619
0.425618
0.425617
0.425615
0.425614
0.425612
0.42561
0.425609
0.425607
0.425606
0.425604
0.425602
0.425601
0.425599
0.425597
0.425596
0.425594
0.425592
0.42559
0.425588
0.425586
0.425585
0.425583
0.425581
0.425579
0.425577
0.425575
0.425573
0.425571
0.425569
0.425567
0.425565
0.425563
0.425561
0.425559
0.425557
0.425555
0.425552
0.42555
0.425548
0.425546
0.425543
0.425541
0.425539
0.425536
0.425534
0.425532
0.425529
0.425527
0.425524
0.425522
0.425519
0.425517
0.425514
0.425511
0.425509
0.425506
0.425503
0.4255
0.425498
0.425495
0.425492
0.425489
0.425486
0.425483
0.42548
0.425477
0.425474
0.425471
0.425467
0.425464
0.425461
0.425458
0.425454
0.425451
0.425447
0.425444
0.42544
0.425437
0.425433
0.425429
0.425425
0.425421
0.425418
0.425414
0.42541
0.425405
0.425401
0.425397
0.425393
0.425388
0.425384
0.42538
0.425375
0.42537
0.425366
0.425361
0.425356
0.425351
0.425346
0.425341
0.425335
0.42533
0.425325
0.425319
0.425313
0.425308
0.425302
0.425296
0.42529
0.425284
0.425277
0.425271
0.425264
0.425258
0.425251
0.425244
0.425237
0.425229
0.425222
0.425214
0.425207
0.425199
0.425191
0.425182
0.425174
0.425165
0.425156
0.425147
0.425138
0.425128
0.425118
0.425108
0.425098
0.425087
0.425077
0.425065
0.425054
0.425042
0.42503
0.425018
0.425005
0.424992
0.424978
0.424964
0.42495
0.424935
0.42492
0.424904
0.424888
0.424871
0.424854
0.424836
0.424817
0.424798
0.424778
0.424757
0.424736
0.424713
0.42469
0.424665
0.42464
0.424613
0.424586
0.424557
0.424526
0.424495
0.424462
0.424427
0.42439
0.424351
0.42431
0.424265
0.424218
0.424167
0.424113
0.424056
0.423996
0.423934
0.42387
0.423805
0.423739
0.42367
0.423595
0.42351
0.423405
0.42327
0.423086
0.422834
0.422486
0.422012
0.421377
0.42054
0.41946
0.418095
0.416404
0.414346
0.411888
0.409002
0.405669
0.401881
0.397639
0.392957
0.387862
0.382391
0.376592
0.370521
0.364244
0.357827
0.351342
0.344859
0.338447
0.332169
0.326083
0.320239
0.31468
0.309438
0.304537
0.299994
0.295816
0.292004
0.288552
0.285449
0.28268
0.280226
0.278066
0.276177
0.274537
0.273122
0.271908
0.270874
0.269997
0.26926
0.268643
0.268129
0.267705
0.267355
0.267069
0.266837
0.266649
0.266497
0.266376
0.266279
0.266202
0.266141
0.266094
0.266056
0.266026
0.266003
0.265985
0.265971
0.26596
0.265951
0.265944
0.265939
0.265935
0.265931
0.265928
0.265926
0.265924
0.265922
0.265921
0.26592
0.265919
0.265918
0.265917
0.265917
0.265916
0.265916
0.265915
0.265915
0.265915
0.265914
0.265914
0.265914
0.265913
0.265913
0.265913
0.265913
0.265913
0.265913
0.265913
0.265912
0.265912
0.265912
0.265912
0.265912
0.265912
0.265912
0.265912
0.265912
0.265912
0.265912
0.265911
0.265911
0.265911
0.265911
0.265911
0.265911
0.265911
0.265911
0.26591
0.26591
0.26591
0.26591
0.26591
0.26591
0.26591
0.26591
0.26591
0.26591
0.265909
0.265909
0.265909
0.265909
0.265909
0.265909
0.265909
0.265909
0.265908
0.265908
0.265908
0.265908
0.265908
0.265908
0.265908
0.265908
0.265908
0.265908
0.265908
0.265908
0.265908
0.265907
0.265907
0.265907
0.265907
0.265907
0.265907
0.265907
0.265907
0.265907
0.265906
0.265906
0.265906
0.265906
0.265905
0.265905
0.265905
0.265904
0.265904
0.265904
0.265903
0.265904
0.265904
0.265905
0.265907
0.26591
0.265918
0.265929
0.265945
0.265969
0.266001
0.266043
0.266095
0.266159
0.266233
0.266318
0.266412
0.266512
0.266616
0.26672
0.266822
0.266919
0.267007
0.267085
0.267152
0.267208
0.267253
0.267287
0.267313
0.267331
0.267343
0.267351
0.267356
0.267359
0.26736
0.26736
0.267361
0.267361
0.267361
)
;

boundaryField
{
    sides
    {
        type            calculated;
        value           nonuniform List<scalar> 2(0.267361 0.997574);
    }
    empty
    {
        type            empty;
    }
}


// ************************************************************************* //
