/*--------------------------------*- C++ -*----------------------------------*\
  =========                 |
  \\      /  F ield         | OpenFOAM: The Open Source CFD Toolbox
   \\    /   O peration     | Website:  https://openfoam.org
    \\  /    A nd           | Version:  9
     \\/     M anipulation  |
\*---------------------------------------------------------------------------*/
FoamFile
{
    format      ascii;
    class       volScalarField;
    location    "0.001";
    object      mag(U);
}
// * * * * * * * * * * * * * * * * * * * * * * * * * * * * * * * * * * * * * //

dimensions      [0 1 -1 0 0 0 0];

internalField   nonuniform List<scalar> 
100
(
3.36967e-13
6.47823e-31
3.36967e-13
0
0
3.36967e-13
9.18745e-31
3.36967e-13
2.59753e-34
0
1.45873e-13
1.45873e-13
0
5.1431e-32
0
0
5.1431e-32
0
1.45873e-13
3.14236e-29
2.72735e-29
1.45873e-13
0
1.45873e-13
1.45873e-13
0
0
0
1.89635e-13
6.84144e-13
7.82463e-12
9.51661e-11
9.68782e-10
1.06384e-08
9.74117e-08
9.50492e-07
7.70492e-06
6.54653e-05
0.000460997
0.00331759
0.0197661
0.115691
0.559098
2.48636
8.55052
23.6469
51.6439
94.6801
148.864
195.585
235.906
275.941
309.074
317.548
282.87
180.83
48.6112
7.10298
0.985596
0.1298
0.016407
0.00195997
0.000221197
2.3413e-05
2.34705e-06
2.20944e-07
1.98408e-08
1.67744e-09
1.36295e-10
1.04387e-11
8.06679e-13
2.47984e-14
3.32484e-32
0
0
0
0
0
0
0
0
0
0
0
0
0
0
0
0
0
0
4.0002e-32
4.24491e-13
1.98192e-30
4.24491e-13
0
5.22104e-32
4.24491e-13
1.98192e-30
4.24491e-13
)
;

boundaryField
{
    sides
    {
        type            calculated;
        value           nonuniform List<scalar> 2(4.24491e-13 3.36967e-13);
    }
    empty
    {
        type            empty;
    }
}


// ************************************************************************* //
