/*--------------------------------*- C++ -*----------------------------------*\
  =========                 |
  \\      /  F ield         | OpenFOAM: The Open Source CFD Toolbox
   \\    /   O peration     | Website:  https://openfoam.org
    \\  /    A nd           | Version:  9
     \\/     M anipulation  |
\*---------------------------------------------------------------------------*/
FoamFile
{
    format      ascii;
    class       volScalarField;
    location    "0.041";
    object      mag(U);
}
// * * * * * * * * * * * * * * * * * * * * * * * * * * * * * * * * * * * * * //

dimensions      [0 1 -1 0 0 0 0];

internalField   nonuniform List<scalar> 
1000
(
217.967
218.287
218.474
218.677
218.876
219.076
219.276
219.476
219.676
219.876
220.076
220.276
220.476
220.676
220.876
221.076
221.276
221.476
221.676
221.876
222.076
222.276
222.476
222.676
222.876
223.076
223.276
223.476
223.676
223.875
224.075
224.275
224.475
224.675
224.875
225.075
225.275
225.475
225.675
225.875
226.075
226.274
226.474
226.674
226.874
227.074
227.274
227.474
227.674
227.874
228.073
228.273
228.473
228.673
228.873
229.073
229.273
229.473
229.672
229.872
230.072
230.272
230.472
230.672
230.872
231.071
231.271
231.471
231.671
231.871
232.071
232.27
232.47
232.67
232.87
233.07
233.27
233.469
233.669
233.869
234.069
234.269
234.468
234.668
234.868
235.068
235.268
235.467
235.667
235.867
236.067
236.266
236.466
236.666
236.865
237.065
237.265
237.465
237.664
237.864
238.064
238.264
238.463
238.663
238.863
239.063
239.262
239.462
239.662
239.861
240.061
240.261
240.46
240.66
240.86
241.059
241.259
241.459
241.659
241.858
242.058
242.258
242.457
242.657
242.857
243.056
243.256
243.456
243.655
243.855
244.055
244.254
244.454
244.654
244.853
245.053
245.253
245.452
245.652
245.852
246.051
246.251
246.451
246.65
246.85
247.05
247.249
247.449
247.649
247.848
248.048
248.248
248.447
248.647
248.846
249.046
249.246
249.445
249.645
249.845
250.044
250.244
250.443
250.643
250.843
251.042
251.242
251.442
251.641
251.841
252.04
252.239
252.439
252.64
252.841
253.039
253.236
253.434
253.638
253.845
254.042
254.233
254.426
254.633
254.853
255.049
255.236
255.424
255.624
255.851
256.057
256.244
256.429
256.619
256.835
257.062
257.254
257.438
257.623
257.82
258.049
258.262
258.449
258.632
258.818
259.023
259.257
259.458
259.643
259.827
260.014
260.228
260.462
260.656
260.84
261.023
261.211
261.426
261.663
261.858
262.04
262.222
262.405
262.596
262.824
263.055
263.245
263.428
263.61
263.794
263.984
264.21
264.446
264.637
264.821
265.002
265.185
265.368
265.552
265.742
265.972
266.265
266.486
266.672
266.856
267.039
267.221
267.405
267.59
267.781
268
268.233
268.426
268.611
268.796
268.981
269.167
269.369
269.607
269.819
270.006
270.192
270.377
270.564
270.759
270.986
271.209
271.399
271.586
271.772
271.959
272.155
272.383
272.601
272.791
272.978
273.166
273.354
273.556
273.787
273.993
274.182
274.37
274.558
274.75
274.962
275.188
275.384
275.573
275.762
275.952
276.154
276.379
276.583
276.773
276.963
277.153
277.349
277.567
277.779
277.971
278.162
278.352
278.546
278.756
278.973
279.168
279.359
279.55
279.743
279.948
280.166
280.364
280.556
280.747
280.94
281.142
281.36
281.559
281.751
281.943
282.136
282.334
282.549
282.755
282.949
283.142
283.334
283.529
283.732
283.954
284.158
284.351
284.544
284.736
284.93
285.129
285.342
285.545
285.739
285.932
286.126
286.322
286.53
286.739
286.935
287.128
287.322
287.516
287.718
287.93
288.129
288.323
288.517
288.711
288.908
289.118
289.322
289.518
289.712
289.906
290.101
290.303
290.513
290.71
290.905
291.099
291.294
291.489
291.686
291.89
292.107
292.309
292.505
292.7
292.895
293.09
293.285
293.484
293.69
293.889
294.084
294.278
294.472
294.666
294.862
295.062
295.274
295.477
295.672
295.866
296.059
296.253
296.448
296.646
296.844
297.037
297.228
297.418
297.608
297.797
297.99
298.178
298.363
298.545
298.725
298.904
299.081
299.257
299.427
299.594
299.755
299.911
300.064
300.211
300.35
300.48
300.598
300.701
300.792
300.871
300.937
300.991
301.032
301.06
301.074
301.08
301.081
301.078
301.071
301.061
301.044
301.014
300.977
300.942
300.909
300.879
300.849
300.814
300.777
300.748
300.723
300.698
300.67
300.636
300.588
300.541
300.507
300.479
300.457
300.44
300.427
300.418
300.413
300.41
300.412
300.444
300.492
300.535
300.571
300.599
300.617
300.618
300.621
300.628
300.634
300.637
300.638
300.632
300.615
300.604
300.598
300.591
300.582
300.569
300.548
300.521
300.503
300.485
300.467
300.446
300.419
300.382
300.353
300.334
300.319
300.305
300.293
300.276
300.259
300.259
300.273
300.298
300.324
300.343
300.348
300.359
300.372
300.384
300.394
300.4
300.396
300.384
300.382
300.382
300.381
300.379
300.373
300.356
300.339
300.33
300.322
300.313
300.302
300.287
300.263
300.241
300.224
300.207
300.189
300.166
300.139
300.123
300.112
300.104
300.097
300.091
300.079
300.079
300.099
300.123
300.145
300.162
300.173
300.17
300.167
300.173
300.178
300.182
300.185
300.185
300.178
300.16
300.144
300.135
300.127
300.122
300.117
300.11
300.103
300.096
300.086
300.075
300.063
300.048
300.025
299.99
299.966
299.952
299.94
299.93
299.921
299.908
299.884
299.872
299.875
299.89
299.912
299.934
299.951
299.962
299.954
299.934
299.935
299.94
299.944
299.95
299.954
299.956
299.955
299.947
299.931
299.924
299.92
299.914
299.904
299.887
299.873
299.864
299.853
299.837
299.811
299.796
299.786
299.775
299.765
299.755
299.746
299.736
299.721
299.684
299.655
299.651
299.657
299.672
299.689
299.706
299.722
299.734
299.743
299.75
299.753
299.745
299.712
299.697
299.697
299.699
299.701
299.702
299.707
299.711
299.71
299.707
299.703
299.697
299.686
299.654
299.614
299.6
299.59
299.581
299.571
299.56
299.543
299.512
299.495
299.487
299.482
299.478
299.477
299.474
299.463
299.462
299.472
299.482
299.49
299.495
299.489
299.472
299.47
299.471
299.471
299.471
299.463
299.441
299.433
299.432
299.43
299.428
299.426
299.422
299.418
299.409
299.388
299.371
299.363
299.356
299.348
299.339
299.324
299.297
299.28
299.272
299.267
299.263
299.261
299.26
299.263
299.271
299.281
299.289
299.286
299.255
299.245
299.249
299.253
299.258
299.261
299.262
299.258
299.237
299.218
299.214
299.212
299.209
299.201
299.176
299.153
299.146
299.141
299.137
299.133
299.128
299.122
299.112
299.086
299.056
299.045
299.038
299.032
299.027
299.021
299.009
298.983
298.976
298.98
298.988
298.997
299.004
299.005
298.99
298.979
298.98
298.983
298.986
298.987
298.985
298.968
298.952
298.949
298.948
298.947
298.946
298.943
298.936
298.917
298.898
298.89
298.884
298.877
298.864
298.84
298.828
298.821
298.815
298.809
298.803
298.793
298.771
298.759
298.757
298.759
298.763
298.769
298.776
298.781
298.78
298.753
298.727
298.725
298.726
298.729
298.731
298.734
298.735
298.736
298.735
298.73
298.708
298.668
298.657
298.654
298.652
298.65
298.647
298.644
298.642
298.64
298.636
298.633
298.629
298.624
298.62
298.613
298.598
298.549
298.505
298.498
298.499
298.503
298.508
298.513
298.519
298.524
298.529
298.532
298.531
298.514
298.495
298.492
298.492
298.493
298.494
298.493
298.488
298.468
298.451
298.445
298.44
298.434
298.42
298.399
298.392
298.387
298.383
298.379
298.375
298.368
298.357
298.335
298.318
298.305
298.286
298.273
298.27
298.271
298.275
298.278
298.278
298.27
298.251
298.249
298.251
298.254
298.257
298.258
298.258
298.257
298.254
298.239
298.194
298.178
298.175
298.173
298.172
298.17
298.168
298.166
298.163
298.155
298.132
298.116
298.109
298.104
298.1
298.094
298.081
298.056
298.046
298.043
298.042
298.038
298.025
297.981
297.822
297.209
295.082
292.528
291.303
290.858
290.686
290.61
290.582
290.565
290.58
290.582
290.568
290.552
290.536
290.531
290.529
290.529
290.526
290.508
290.497
290.486
290.482
290.483
290.486
290.491
290.491
290.486
290.465
290.446
290.444
290.443
290.445
290.446
290.441
290.423
290.412
290.41
290.411
290.414
290.414
290.403
290.383
290.381
290.383
290.387
290.391
290.393
290.391
290.374
290.326
290.172
289.705
288.361
286.497
285.326
284.768
284.552
284.447
284.371
284.325
284.304
284.295
284.3
284.311
284.323
284.325
284.317
284.288
284.254
284.243
284.244
284.245
284.25
284.264
284.271
284.269
284.263
284.231
284.162
284.143
284.141
284.14
284.14
284.141
284.146
284.157
284.162
284.163
284.16
284.144
284.082
284.041
284.035
284.035
284.036
284.039
284.052
284.067
284.069
284.069
284.068
284.064
284.048
283.988
283.938
283.929
283.926
283.926
283.93
283.937
283.938
283.936
283.934
283.934
283.933
283.932
283.929
283.923
283.905
283.84
283.791
283.781
283.777
283.775
283.776
283.79
283.795
283.793
283.79
283.785
283.77
283.717
283.657
283.644
283.641
)
;

boundaryField
{
    sides
    {
        type            calculated;
        value           nonuniform List<scalar> 2(283.641 217.967);
    }
    empty
    {
        type            empty;
    }
}


// ************************************************************************* //
