/*--------------------------------*- C++ -*----------------------------------*\
  =========                 |
  \\      /  F ield         | OpenFOAM: The Open Source CFD Toolbox
   \\    /   O peration     | Website:  https://openfoam.org
    \\  /    A nd           | Version:  9
     \\/     M anipulation  |
\*---------------------------------------------------------------------------*/
FoamFile
{
    format      ascii;
    class       volScalarField;
    location    "0.041";
    object      p;
}
// * * * * * * * * * * * * * * * * * * * * * * * * * * * * * * * * * * * * * //

dimensions      [1 -1 -2 0 0 0 0];

internalField   nonuniform List<scalar> 
1000
(
45523.9
45462.3
45425
45384.6
45345
45305.3
45265.7
45226.1
45186.5
45146.9
45107.4
45067.9
45028.4
44989
44949.6
44910.2
44870.9
44831.6
44792.3
44753
44713.8
44674.6
44635.4
44596.3
44557.1
44518
44479
44439.9
44400.9
44362
44323
44284.1
44245.2
44206.4
44167.5
44128.7
44090
44051.2
44012.5
43973.8
43935.2
43896.6
43858
43819.4
43780.9
43742.4
43703.9
43665.4
43627
43588.6
43550.3
43511.9
43473.6
43435.4
43397.1
43358.9
43320.7
43282.5
43244.4
43206.3
43168.2
43130.2
43092.1
43054.1
43016.2
42978.3
42940.3
42902.5
42864.6
42826.8
42789
42751.2
42713.5
42675.8
42638.1
42600.5
42562.8
42525.2
42487.7
42450.1
42412.6
42375.2
42337.7
42300.3
42262.9
42225.5
42188.2
42150.9
42113.6
42076.3
42039.1
42001.9
41964.7
41927.6
41890.5
41853.4
41816.4
41779.3
41742.3
41705.4
41668.4
41631.5
41594.6
41557.7
41520.9
41484.1
41447.3
41410.6
41373.9
41337.2
41300.5
41263.9
41227.3
41190.7
41154.1
41117.6
41081.1
41044.6
41008.1
40971.7
40935.3
40899
40862.6
40826.3
40790
40753.8
40717.5
40681.3
40645.2
40609
40572.9
40536.8
40500.7
40464.7
40428.7
40392.7
40356.7
40320.8
40284.9
40249
40213.1
40177.3
40141.5
40105.7
40070
40034.3
39998.6
39962.9
39927.3
39891.7
39856.1
39820.6
39785
39749.5
39714.1
39678.6
39643.2
39607.8
39572.4
39537.1
39501.8
39466.5
39431.2
39396
39360.8
39325.6
39290.4
39255.3
39220.3
39185.2
39150.1
39115
39080
39045.2
39010.5
38975.4
38940
38904.9
38870.9
38837.4
38802.2
38766.1
38730.3
38696.9
38665.5
38630.3
38593.6
38557.2
38522.5
38492.6
38459
38422.3
38385.4
38349.4
38317.6
38287.5
38251.7
38214.8
38178.2
38143.3
38114.1
38081.8
38045.4
38008.7
37972.6
37939.2
37911
37877
37840.6
37804.1
37768.4
37736.7
37708.4
37673.4
37637
37600.6
37565
37533.7
37506.1
37471.3
37434.8
37398.3
37362.1
37327.1
37298.1
37269.4
37234.1
37197.8
37161.5
37125.6
37090.7
37061.5
37033.8
36999
36963.1
36926.9
36890.9
36855.1
36819.5
36785.2
36756.5
36738.3
36708.1
36672.8
36637.3
36601.6
36565.8
36530.3
36495.1
36460.8
36431
36403.2
36369.2
36334.1
36298.8
36263.8
36229.1
36196.5
36170
36138.9
36104.3
36069.5
36034.7
36000.1
35966.7
35938.7
35909.5
35875.5
35841
35806.5
35772.3
35739.2
35711.3
35681.6
35647.8
35613.5
35579.4
35545.5
35513.5
35486.2
35454.9
35421.1
35387.2
35353.3
35320.1
35289.9
35261.8
35229.2
35195.6
35162
35128.8
35097.1
35069.3
35038
35004.8
34971.4
34938.3
34906
34877.2
34847.4
34814.6
34781.6
34748.7
34716.2
34686.4
34657.5
34625.3
34592.5
34559.8
34527.4
34496.9
34468.3
34436.6
34404.1
34371.6
34339.4
34308.6
34280.1
34248.8
34216.5
34184.2
34152.1
34120.8
34092.1
34061.9
34030
33998
33966.1
33934.4
33904
33876.4
33846.1
33814.4
33782.5
33750.7
33719
33688.1
33659.5
33629.3
33597.8
33566.2
33534.7
33503.5
33474.2
33445.1
33413.9
33382.5
33351.2
33320
33289.9
33261.4
33230.9
33199.7
33168.5
33137.5
33106.9
33078.1
33048.6
33017.7
32986.7
32955.8
32925.1
32895.4
32866.7
32836.4
32805.7
32774.9
32744.3
32713.7
32683.4
32654.2
32626.9
32597.5
32567.2
32536.8
32506.4
32476.1
32445.8
32416.1
32387.5
32357.8
32327.7
32297.6
32267.3
32237.3
32207.5
32178.3
32151
32122.4
32092.8
32063.1
32033.5
32004
31974.8
31946.3
31917.9
31889
31860.1
31831.3
31802.8
31774.6
31747.2
31719.7
31692.2
31664.8
31637.7
31611.2
31585.2
31559.8
31534.7
31510
31485.6
31462
31439.4
31417.8
31397.4
31378.2
31360.4
31344
31329.4
31317.1
31306.8
31298.3
31291.5
31286.1
31281.8
31278.8
31277.4
31277
31276.9
31277.3
31278
31279.2
31282.1
31286
31289.8
31293.4
31296.5
31298.7
31300.2
31302.8
31305.7
31308.8
31312
31315.3
31317.5
31320.3
31324.2
31327.7
31330.5
31332.6
31334.1
31334.9
31335
31333.5
31327.8
31320.5
31313.4
31307
31301.7
31297.3
31293.4
31288.8
31285.4
31283.7
31282.4
31281.6
31280.9
31280
31277.9
31277.1
31277.4
31278
31278.9
31279.7
31279.8
31279.5
31280.8
31282.8
31285
31287.4
31289.5
31290.2
31291.6
31293.8
31295.7
31297.2
31298
31297
31295.3
31294.2
31292
31288.2
31284.1
31279.8
31274.4
31270.7
31268.2
31266.2
31264.5
31262.9
31260.7
31257.8
31256.7
31256.3
31256
31255.9
31255.6
31254.1
31252.8
31253.2
31253.9
31254.9
31256
31256.8
31256.6
31257
31258.3
31260
31261.6
31262.3
31262.3
31263.4
31264.5
31265.3
31265.7
31265.3
31262.9
31259.6
31256.2
31252.6
31249.3
31246.5
31243.9
31240.1
31237
31235.4
31234.1
31233
31232
31231
31229.6
31226.8
31224.6
31223.6
31223.2
31223.3
31223.6
31224.2
31225
31226.1
31227.1
31228.2
31229.3
31230.3
31230.3
31228.9
31229.1
31230.6
31232.1
31233.5
31234.6
31234.6
31232.2
31230.7
31230.1
31228.4
31225.5
31222.5
31219.8
31217.1
31212.6
31207.3
31205.5
31204.5
31203.7
31203.1
31202.4
31201.9
31201.3
31199.9
31197.9
31197.3
31197.2
31197.3
31197
31195.9
31195.6
31196.1
31196.7
31196.9
31195.8
31196.3
31197.7
31199.1
31200.6
31202
31203.2
31204
31203.8
31199.9
31196.4
31195.7
31194.7
31192.7
31190.3
31188.1
31186.3
31184.6
31183.3
31182.2
31181.1
31178.9
31173.3
31170.3
31169.5
31169.1
31168.9
31168.9
31169.7
31170.8
31171.2
31171.6
31172.1
31172.6
31172.4
31169.6
31165.9
31165.8
31166.7
31167.7
31168.8
31169.7
31169.7
31167.6
31167.2
31167.7
31168.2
31168.4
31168.2
31166.6
31162.2
31158.6
31156.4
31154.6
31152.9
31151.1
31148.2
31144.3
31142.9
31142.2
31141.6
31140.8
31139.1
31135.6
31134.3
31134
31134.1
31134.3
31134.6
31135
31135.3
31135.2
31133.6
31132.6
31133
31133.8
31134.6
31135.4
31135.5
31133.8
31133.3
31133.9
31134.6
31135.2
31135.6
31135.7
31135.3
31134.2
31132.6
31130.9
31127.9
31121.6
31118.3
31117
31116.1
31115.3
31114.7
31114.1
31113.1
31109.9
31107
31106.1
31105.7
31105.4
31104.6
31101.6
31099.2
31099.1
31099.4
31099.9
31100.4
31101
31101.5
31101.6
31099.8
31097.4
31097.5
31098.1
31098.7
31099.2
31099.2
31098.1
31094.8
31093.4
31092.4
31091.1
31089.6
31088.3
31086.6
31083.1
31080.4
31079.4
31078.7
31078.1
31077.5
31076.6
31074
31071.6
31071.1
31071
31070.9
31070.9
31070.9
31070.5
31068.4
31066.8
31066.7
31066.8
31066.9
31066.2
31064.1
31063.8
31064.3
31064.9
31065.5
31065.8
31065.4
31063
31061.7
31061.5
31061.3
31060.7
31059.8
31058.7
31057.4
31055.4
31050.4
31045.8
31044.7
31044.2
31043.8
31043.5
31043.1
31042.8
31042.7
31042.5
31041.9
31039.1
31033.9
31032.8
31032.7
31033
31033.3
31033.7
31034.2
31034.8
31035.5
31036
31036.5
31037.1
31037.7
31038.2
31038.4
31037.3
31031.3
31025.6
31024.5
31024
31023.4
31022.7
31022
31021.2
31020.4
31019.7
31019.1
31018.2
31015.5
31012.6
31011.9
31011.5
31011.2
31010.9
31010.5
31009.7
31007.2
31005.1
31004.7
31004.4
31004
31002.4
31000.1
30999.8
31000
31000.4
31000.8
31001.1
31001.2
31000.5
30998.4
30996.9
30995.9
30993.9
30992.4
30991.9
30991.4
30990.7
30989.9
30989
30986.9
30983.4
30982
30981.3
30980.8
30980.4
30980.2
30980.1
30979.9
30979.4
30977
30970.7
30968.2
30967.8
30967.8
30968
30968.2
30968.4
30968.6
30968.5
30967.8
30965.1
30963.6
30963.5
30963.8
30964.1
30964.1
30963.2
30960.4
30959.4
30959.1
30958.9
30959
30959.7
30962.4
30978.9
31059.8
31352
31704.1
31880.1
31944.1
31962.7
31967.3
31968.3
31966.6
31968.4
31968.6
31966.5
31964.2
31961.8
31960.8
31960.3
31960.2
31959.5
31956.7
31955
31953.2
31952.6
31952.6
31952.7
31953.2
31953
31951.8
31948.4
31945.3
31944.3
31943.8
31943.5
31943.1
31941.7
31938.6
31936.4
31935.3
31934.7
31934.1
31933.3
31930.7
31926.8
31925.3
31924.2
31923.4
31922.9
31922.7
31922.9
31924.2
31928.3
31943.3
31999.3
32181.9
32444.7
32613.5
32692.2
32729.8
32744.7
32747
32746.4
32746.2
32745.6
32746.5
32748.1
32749.7
32749.7
32748.5
32744.4
32739.5
32737.9
32738.1
32738.4
32738.9
32740.9
32741.7
32741.5
32740.6
32736
32726.2
32723.5
32723.1
32722.9
32722.9
32723.1
32723.8
32725.4
32726.2
32726.2
32725.8
32723.5
32714.6
32708.7
32707.8
32707.7
32707.8
32708.2
32710
32712.1
32712.5
32712.6
32712.7
32712.3
32710.3
32702
32695.2
32694.2
32694.3
32694.8
32695.8
32697.5
32698.2
32698.7
32699.2
32699.9
32700.7
32701.3
32701.8
32701.8
32700
32691.4
32685.2
32684.6
32685
32685.5
32686.5
32689.4
32691
32691.6
32692
32692.1
32690.9
32684.1
32676.3
32675.4
32675.5
)
;

boundaryField
{
    sides
    {
        type            zeroGradient;
    }
    empty
    {
        type            empty;
    }
}


// ************************************************************************* //
