/*--------------------------------*- C++ -*----------------------------------*\
  =========                 |
  \\      /  F ield         | OpenFOAM: The Open Source CFD Toolbox
   \\    /   O peration     | Website:  https://openfoam.org
    \\  /    A nd           | Version:  9
     \\/     M anipulation  |
\*---------------------------------------------------------------------------*/
FoamFile
{
    format      ascii;
    class       volScalarField;
    location    "0.009";
    object      rho;
}
// * * * * * * * * * * * * * * * * * * * * * * * * * * * * * * * * * * * * * //

dimensions      [1 -3 0 0 0 0 0];

internalField   nonuniform List<scalar> 
10000
(
0.997574
0.997574
0.997574
0.997574
0.997574
0.997574
0.997574
0.997574
0.997574
0.997574
0.997574
0.997574
0.997574
0.997574
0.997574
0.997574
0.997574
0.997574
0.997574
0.997574
0.997574
0.997574
0.997574
0.997574
0.997574
0.997574
0.997574
0.997574
0.997574
0.997574
0.997574
0.997574
0.997574
0.997574
0.997574
0.997574
0.997574
0.997574
0.997574
0.997574
0.997574
0.997574
0.997574
0.997574
0.997574
0.997574
0.997574
0.997574
0.997574
0.997574
0.997574
0.997574
0.997574
0.997574
0.997574
0.997574
0.997574
0.997574
0.997574
0.997574
0.997574
0.997574
0.997574
0.997574
0.997574
0.997574
0.997574
0.997574
0.997574
0.997574
0.997574
0.997574
0.997574
0.997574
0.997574
0.997574
0.997574
0.997574
0.997574
0.997574
0.997574
0.997574
0.997574
0.997574
0.997574
0.997574
0.997574
0.997574
0.997574
0.997574
0.997574
0.997574
0.997574
0.997574
0.997574
0.997574
0.997574
0.997574
0.997574
0.997574
0.997574
0.997574
0.997574
0.997574
0.997574
0.997574
0.997574
0.997574
0.997574
0.997574
0.997574
0.997574
0.997574
0.997574
0.997574
0.997574
0.997574
0.997574
0.997574
0.997574
0.997574
0.997574
0.997574
0.997574
0.997574
0.997574
0.997574
0.997574
0.997574
0.997574
0.997574
0.997574
0.997574
0.997574
0.997574
0.997574
0.997574
0.997574
0.997574
0.997574
0.997574
0.997574
0.997574
0.997574
0.997574
0.997574
0.997574
0.997574
0.997574
0.997574
0.997574
0.997574
0.997574
0.997574
0.997574
0.997574
0.997574
0.997574
0.997574
0.997574
0.997574
0.997574
0.997574
0.997574
0.997574
0.997574
0.997574
0.997574
0.997574
0.997574
0.997574
0.997574
0.997574
0.997574
0.997574
0.997574
0.997574
0.997574
0.997574
0.997574
0.997574
0.997574
0.997574
0.997574
0.997574
0.997574
0.997574
0.997574
0.997574
0.997574
0.997574
0.997574
0.997574
0.997574
0.997574
0.997574
0.997574
0.997574
0.997574
0.997574
0.997574
0.997574
0.997574
0.997574
0.997574
0.997574
0.997574
0.997574
0.997574
0.997574
0.997574
0.997574
0.997574
0.997574
0.997574
0.997574
0.997574
0.997574
0.997574
0.997574
0.997574
0.997574
0.997574
0.997574
0.997574
0.997574
0.997574
0.997574
0.997574
0.997574
0.997574
0.997574
0.997574
0.997574
0.997574
0.997574
0.997574
0.997574
0.997574
0.997574
0.997574
0.997574
0.997574
0.997574
0.997574
0.997574
0.997574
0.997574
0.997574
0.997574
0.997574
0.997574
0.997574
0.997574
0.997574
0.997574
0.997574
0.997574
0.997574
0.997574
0.997574
0.997574
0.997574
0.997574
0.997574
0.997574
0.997574
0.997574
0.997574
0.997574
0.997574
0.997574
0.997574
0.997574
0.997574
0.997574
0.997574
0.997574
0.997574
0.997574
0.997574
0.997574
0.997574
0.997574
0.997574
0.997574
0.997574
0.997574
0.997574
0.997574
0.997574
0.997574
0.997574
0.997574
0.997574
0.997574
0.997574
0.997574
0.997574
0.997574
0.997574
0.997574
0.997574
0.997574
0.997574
0.997574
0.997574
0.997574
0.997574
0.997574
0.997574
0.997574
0.997574
0.997574
0.997574
0.997574
0.997574
0.997574
0.997574
0.997574
0.997574
0.997574
0.997574
0.997574
0.997574
0.997574
0.997574
0.997574
0.997574
0.997574
0.997574
0.997574
0.997574
0.997574
0.997574
0.997574
0.997574
0.997574
0.997574
0.997574
0.997574
0.997574
0.997574
0.997574
0.997574
0.997574
0.997574
0.997574
0.997574
0.997574
0.997574
0.997574
0.997574
0.997574
0.997574
0.997574
0.997574
0.997574
0.997574
0.997574
0.997574
0.997574
0.997574
0.997574
0.997574
0.997574
0.997574
0.997574
0.997574
0.997574
0.997574
0.997574
0.997574
0.997574
0.997574
0.997574
0.997574
0.997574
0.997574
0.997574
0.997574
0.997574
0.997574
0.997574
0.997574
0.997574
0.997574
0.997574
0.997574
0.997574
0.997574
0.997574
0.997574
0.997574
0.997574
0.997574
0.997574
0.997574
0.997574
0.997574
0.997574
0.997574
0.997574
0.997574
0.997574
0.997574
0.997574
0.997574
0.997574
0.997574
0.997574
0.997574
0.997574
0.997574
0.997574
0.997574
0.997574
0.997574
0.997574
0.997574
0.997574
0.997574
0.997574
0.997574
0.997574
0.997574
0.997574
0.997574
0.997574
0.997574
0.997574
0.997574
0.997574
0.997574
0.997574
0.997574
0.997574
0.997574
0.997574
0.997574
0.997574
0.997574
0.997574
0.997574
0.997574
0.997574
0.997574
0.997574
0.997574
0.997574
0.997574
0.997574
0.997574
0.997574
0.997574
0.997574
0.997574
0.997574
0.997574
0.997574
0.997574
0.997574
0.997574
0.997574
0.997574
0.997574
0.997574
0.997574
0.997574
0.997574
0.997574
0.997574
0.997574
0.997574
0.997574
0.997574
0.997574
0.997574
0.997574
0.997574
0.997574
0.997574
0.997574
0.997574
0.997574
0.997574
0.997574
0.997574
0.997574
0.997574
0.997574
0.997574
0.997574
0.997574
0.997574
0.997574
0.997574
0.997574
0.997574
0.997574
0.997574
0.997574
0.997574
0.997574
0.997574
0.997574
0.997574
0.997574
0.997574
0.997574
0.997574
0.997574
0.997574
0.997574
0.997574
0.997574
0.997574
0.997574
0.997574
0.997574
0.997574
0.997574
0.997574
0.997574
0.997574
0.997574
0.997574
0.997574
0.997574
0.997574
0.997574
0.997574
0.997574
0.997574
0.997574
0.997574
0.997574
0.997574
0.997574
0.997574
0.997574
0.997574
0.997574
0.997574
0.997574
0.997574
0.997574
0.997574
0.997574
0.997574
0.997574
0.997574
0.997574
0.997574
0.997574
0.997574
0.997574
0.997574
0.997574
0.997574
0.997574
0.997574
0.997574
0.997574
0.997574
0.997574
0.997574
0.997574
0.997574
0.997574
0.997574
0.997574
0.997574
0.997574
0.997574
0.997574
0.997574
0.997574
0.997574
0.997574
0.997574
0.997574
0.997574
0.997574
0.997574
0.997574
0.997574
0.997574
0.997574
0.997574
0.997574
0.997574
0.997574
0.997574
0.997574
0.997574
0.997574
0.997574
0.997574
0.997574
0.997574
0.997574
0.997574
0.997574
0.997574
0.997574
0.997574
0.997574
0.997574
0.997574
0.997574
0.997574
0.997574
0.997574
0.997574
0.997574
0.997574
0.997574
0.997574
0.997574
0.997574
0.997574
0.997574
0.997574
0.997574
0.997574
0.997574
0.997574
0.997574
0.997574
0.997574
0.997574
0.997574
0.997574
0.997574
0.997574
0.997574
0.997574
0.997574
0.997574
0.997574
0.997574
0.997574
0.997574
0.997574
0.997574
0.997574
0.997574
0.997574
0.997574
0.997574
0.997574
0.997574
0.997574
0.997574
0.997574
0.997574
0.997574
0.997574
0.997574
0.997574
0.997574
0.997574
0.997574
0.997574
0.997574
0.997574
0.997574
0.997574
0.997574
0.997574
0.997574
0.997574
0.997574
0.997574
0.997574
0.997574
0.997574
0.997574
0.997574
0.997574
0.997574
0.997574
0.997574
0.997574
0.997574
0.997574
0.997574
0.997574
0.997574
0.997574
0.997574
0.997574
0.997574
0.997574
0.997574
0.997574
0.997574
0.997574
0.997574
0.997574
0.997574
0.997574
0.997574
0.997574
0.997574
0.997574
0.997574
0.997574
0.997574
0.997574
0.997574
0.997574
0.997574
0.997574
0.997574
0.997574
0.997574
0.997574
0.997574
0.997574
0.997574
0.997574
0.997574
0.997574
0.997574
0.997574
0.997574
0.997574
0.997574
0.997574
0.997574
0.997574
0.997574
0.997574
0.997574
0.997574
0.997574
0.997574
0.997574
0.997574
0.997574
0.997574
0.997574
0.997574
0.997574
0.997574
0.997574
0.997574
0.997574
0.997574
0.997574
0.997574
0.997574
0.997574
0.997574
0.997574
0.997574
0.997574
0.997574
0.997574
0.997574
0.997574
0.997574
0.997574
0.997574
0.997574
0.997574
0.997574
0.997574
0.997574
0.997574
0.997574
0.997574
0.997574
0.997574
0.997574
0.997574
0.997574
0.997574
0.997574
0.997574
0.997574
0.997574
0.997574
0.997574
0.997574
0.997574
0.997574
0.997574
0.997574
0.997574
0.997574
0.997574
0.997574
0.997574
0.997574
0.997574
0.997574
0.997574
0.997574
0.997574
0.997574
0.997574
0.997574
0.997574
0.997574
0.997574
0.997574
0.997574
0.997574
0.997574
0.997574
0.997574
0.997574
0.997574
0.997574
0.997574
0.997574
0.997574
0.997574
0.997574
0.997574
0.997574
0.997574
0.997574
0.997574
0.997574
0.997574
0.997574
0.997574
0.997574
0.997574
0.997574
0.997574
0.997574
0.997574
0.997574
0.997574
0.997574
0.997574
0.997574
0.997574
0.997574
0.997574
0.997574
0.997574
0.997574
0.997574
0.997574
0.997574
0.997574
0.997574
0.997574
0.997574
0.997574
0.997574
0.997574
0.997574
0.997574
0.997574
0.997574
0.997574
0.997574
0.997574
0.997574
0.997574
0.997574
0.997574
0.997574
0.997574
0.997574
0.997574
0.997574
0.997574
0.997574
0.997574
0.997574
0.997574
0.997574
0.997574
0.997574
0.997574
0.997574
0.997574
0.997574
0.997574
0.997574
0.997574
0.997574
0.997574
0.997574
0.997574
0.997574
0.997574
0.997574
0.997574
0.997574
0.997574
0.997574
0.997574
0.997574
0.997574
0.997574
0.997574
0.997574
0.997574
0.997574
0.997574
0.997574
0.997574
0.997574
0.997574
0.997574
0.997574
0.997574
0.997574
0.997574
0.997574
0.997574
0.997574
0.997574
0.997574
0.997574
0.997574
0.997574
0.997574
0.997574
0.997574
0.997574
0.997574
0.997574
0.997574
0.997574
0.997574
0.997574
0.997574
0.997574
0.997574
0.997574
0.997574
0.997574
0.997574
0.997574
0.997574
0.997574
0.997574
0.997574
0.997574
0.997574
0.997574
0.997574
0.997574
0.997574
0.997574
0.997574
0.997574
0.997574
0.997574
0.997574
0.997574
0.997574
0.997574
0.997574
0.997574
0.997574
0.997574
0.997574
0.997574
0.997574
0.997574
0.997574
0.997574
0.997574
0.997574
0.997574
0.997574
0.997574
0.997574
0.997574
0.997574
0.997574
0.997574
0.997574
0.997574
0.997574
0.997574
0.997574
0.997574
0.997574
0.997574
0.997574
0.997574
0.997574
0.997574
0.997574
0.997574
0.997574
0.997574
0.997574
0.997574
0.997574
0.997574
0.997574
0.997574
0.997574
0.997574
0.997574
0.997574
0.997574
0.997574
0.997574
0.997574
0.997574
0.997574
0.997574
0.997574
0.997574
0.997574
0.997574
0.997574
0.997574
0.997574
0.997574
0.997574
0.997574
0.997574
0.997574
0.997574
0.997574
0.997574
0.997574
0.997574
0.997574
0.997574
0.997574
0.997574
0.997574
0.997574
0.997574
0.997574
0.997574
0.997574
0.997574
0.997574
0.997574
0.997574
0.997574
0.997574
0.997574
0.997574
0.997574
0.997574
0.997574
0.997574
0.997574
0.997574
0.997574
0.997574
0.997574
0.997574
0.997574
0.997574
0.997574
0.997574
0.997574
0.997574
0.997574
0.997574
0.997574
0.997574
0.997574
0.997574
0.997574
0.997574
0.997574
0.997574
0.997574
0.997574
0.997574
0.997574
0.997574
0.997574
0.997574
0.997574
0.997574
0.997574
0.997574
0.997574
0.997574
0.997574
0.997574
0.997574
0.997574
0.997574
0.997574
0.997574
0.997574
0.997574
0.997574
0.997574
0.997574
0.997574
0.997574
0.997574
0.997574
0.997574
0.997574
0.997574
0.997574
0.997574
0.997574
0.997574
0.997574
0.997574
0.997574
0.997574
0.997574
0.997574
0.997574
0.997574
0.997574
0.997574
0.997574
0.997574
0.997574
0.997574
0.997574
0.997574
0.997574
0.997574
0.997574
0.997574
0.997574
0.997574
0.997574
0.997574
0.997574
0.997574
0.997574
0.997574
0.997574
0.997574
0.997574
0.997574
0.997574
0.997574
0.997574
0.997574
0.997574
0.997574
0.997574
0.997574
0.997574
0.997574
0.997574
0.997574
0.997574
0.997574
0.997574
0.997574
0.997574
0.997574
0.997574
0.997574
0.997574
0.997574
0.997574
0.997574
0.997574
0.997574
0.997574
0.997574
0.997574
0.997574
0.997574
0.997574
0.997574
0.997574
0.997574
0.997574
0.997574
0.997574
0.997574
0.997574
0.997574
0.997574
0.997574
0.997574
0.997574
0.997574
0.997574
0.997574
0.997574
0.997574
0.997574
0.997574
0.997574
0.997574
0.997574
0.997574
0.997574
0.997574
0.997574
0.997574
0.997574
0.997574
0.997574
0.997574
0.997574
0.997574
0.997574
0.997574
0.997574
0.997574
0.997574
0.997574
0.997574
0.997574
0.997574
0.997574
0.997574
0.997574
0.997574
0.997574
0.997574
0.997574
0.997574
0.997574
0.997574
0.997574
0.997574
0.997574
0.997574
0.997574
0.997574
0.997574
0.997574
0.997574
0.997574
0.997574
0.997574
0.997574
0.997574
0.997574
0.997574
0.997574
0.997574
0.997574
0.997574
0.997574
0.997574
0.997574
0.997574
0.997574
0.997574
0.997574
0.997574
0.997574
0.997574
0.997574
0.997574
0.997574
0.997574
0.997574
0.997574
0.997574
0.997574
0.997574
0.997574
0.997574
0.997574
0.997574
0.997574
0.997574
0.997574
0.997574
0.997574
0.997574
0.997574
0.997574
0.997574
0.997574
0.997574
0.997574
0.997574
0.997574
0.997574
0.997574
0.997574
0.997574
0.997574
0.997574
0.997574
0.997574
0.997574
0.997574
0.997574
0.997574
0.997574
0.997574
0.997574
0.997574
0.997574
0.997574
0.997574
0.997574
0.997574
0.997574
0.997574
0.997574
0.997574
0.997574
0.997574
0.997574
0.997574
0.997574
0.997574
0.997574
0.997574
0.997574
0.997574
0.997574
0.997574
0.997574
0.997574
0.997574
0.997574
0.997574
0.997574
0.997574
0.997574
0.997574
0.997574
0.997574
0.997574
0.997574
0.997574
0.997574
0.997574
0.997574
0.997574
0.997574
0.997574
0.997574
0.997574
0.997574
0.997574
0.997574
0.997574
0.997574
0.997574
0.997574
0.997574
0.997574
0.997574
0.997574
0.997574
0.997574
0.997574
0.997574
0.997574
0.997574
0.997574
0.997574
0.997574
0.997574
0.997574
0.997574
0.997574
0.997574
0.997574
0.997574
0.997574
0.997574
0.997574
0.997574
0.997574
0.997574
0.997574
0.997574
0.997574
0.997574
0.997574
0.997574
0.997574
0.997574
0.997574
0.997574
0.997574
0.997574
0.997574
0.997574
0.997574
0.997574
0.997574
0.997574
0.997574
0.997574
0.997574
0.997574
0.997574
0.997574
0.997574
0.997574
0.997574
0.997574
0.997574
0.997574
0.997574
0.997574
0.997574
0.997574
0.997574
0.997574
0.997574
0.997574
0.997574
0.997574
0.997574
0.997574
0.997574
0.997574
0.997574
0.997574
0.997574
0.997574
0.997574
0.997574
0.997574
0.997574
0.997574
0.997574
0.997574
0.997574
0.997574
0.997574
0.997574
0.997574
0.997574
0.997574
0.997574
0.997574
0.997574
0.997574
0.997574
0.997574
0.997574
0.997574
0.997574
0.997574
0.997574
0.997574
0.997574
0.997574
0.997574
0.997574
0.997574
0.997574
0.997574
0.997574
0.997574
0.997574
0.997574
0.997574
0.997574
0.997574
0.997574
0.997574
0.997574
0.997574
0.997574
0.997574
0.997574
0.997574
0.997574
0.997574
0.997573
0.997573
0.997573
0.997573
0.997573
0.997573
0.997573
0.997573
0.997572
0.997572
0.997572
0.997572
0.997571
0.997571
0.997571
0.997571
0.99757
0.99757
0.997569
0.997569
0.997568
0.997568
0.997567
0.997566
0.997565
0.997565
0.997564
0.997563
0.997562
0.99756
0.997559
0.997558
0.997556
0.997554
0.997553
0.997551
0.997549
0.997546
0.997544
0.997541
0.997539
0.997536
0.997532
0.997529
0.997525
0.997521
0.997517
0.997512
0.997507
0.997502
0.997496
0.99749
0.997484
0.997477
0.997469
0.997462
0.997453
0.997445
0.997435
0.997425
0.997415
0.997403
0.997392
0.997379
0.997366
0.997352
0.997337
0.997321
0.997305
0.997288
0.997269
0.99725
0.99723
0.997209
0.997187
0.997163
0.997139
0.997114
0.997087
0.997059
0.99703
0.996999
0.996967
0.996934
0.996899
0.996863
0.996826
0.996787
0.996747
0.996704
0.996661
0.996616
0.996569
0.99652
0.99647
0.996418
0.996364
0.996309
0.996252
0.996193
0.996132
0.996069
0.996004
0.995938
0.995869
0.995799
0.995727
0.995652
0.995576
0.995498
0.995418
0.995336
0.995252
0.995166
0.995078
0.994988
0.994896
0.994802
0.994706
0.994608
0.994508
0.994406
0.994302
0.994197
0.994089
0.993979
0.993868
0.993754
0.993639
0.993521
0.993402
0.993281
0.993158
0.993033
0.992907
0.992778
0.992648
0.992516
0.992383
0.992247
0.99211
0.991972
0.991831
0.991689
0.991546
0.9914
0.991253
0.991105
0.990955
0.990804
0.990651
0.990496
0.990341
0.990183
0.990025
0.989865
0.989703
0.98954
0.989376
0.989211
0.989044
0.988876
0.988707
0.988537
0.988366
0.988193
0.988019
0.987844
0.987668
0.987491
0.987313
0.987134
0.986953
0.986772
0.98659
0.986407
0.986222
0.986037
0.985851
0.985664
0.985476
0.985288
0.985098
0.984908
0.984717
0.984525
0.984332
0.984139
0.983944
0.983749
0.983554
0.983357
0.98316
0.982962
0.982764
0.982565
0.982365
0.982164
0.981963
0.981762
0.98156
0.981357
0.981153
0.980949
0.980745
0.98054
0.980335
0.980129
0.979922
0.979715
0.979507
0.9793
0.979091
0.978882
0.978673
0.978463
0.978253
0.978042
0.977831
0.97762
0.977408
0.977196
0.976983
0.97677
0.976557
0.976343
0.976129
0.975915
0.9757
0.975485
0.97527
0.975054
0.974839
0.974622
0.974406
0.974189
0.973972
0.973754
0.973537
0.973319
0.973101
0.972882
0.972663
0.972444
0.972225
0.972006
0.971786
0.971566
0.971346
0.971126
0.970905
0.970685
0.970464
0.970242
0.970021
0.9698
0.969578
0.969356
0.969134
0.968912
0.968689
0.968466
0.968244
0.968021
0.967798
0.967574
0.967351
0.967127
0.966903
0.96668
0.966456
0.966231
0.966007
0.965783
0.965558
0.965333
0.965109
0.964884
0.964659
0.964433
0.964208
0.963983
0.963757
0.963531
0.963306
0.96308
0.962854
0.962628
0.962402
0.962175
0.961949
0.961723
0.961496
0.96127
0.961043
0.960816
0.960589
0.960362
0.960135
0.959908
0.959681
0.959454
0.959226
0.958999
0.958771
0.958544
0.958316
0.958089
0.957861
0.957633
0.957405
0.957177
0.95695
0.956721
0.956493
0.956265
0.956037
0.955809
0.955581
0.955352
0.955124
0.954896
0.954667
0.954439
0.95421
0.953981
0.953753
0.953524
0.953295
0.953067
0.952838
0.952609
0.95238
0.952151
0.951923
0.951694
0.951465
0.951236
0.951007
0.950778
0.950549
0.95032
0.95009
0.949861
0.949632
0.949403
0.949174
0.948945
0.948715
0.948486
0.948257
0.948027
0.947798
0.947569
0.947339
0.94711
0.946881
0.946651
0.946422
0.946193
0.945963
0.945734
0.945504
0.945275
0.945045
0.944816
0.944587
0.944357
0.944128
0.943898
0.943669
0.943439
0.94321
0.94298
0.942751
0.942521
0.942292
0.942062
0.941833
0.941603
0.941374
0.941144
0.940915
0.940685
0.940456
0.940226
0.939997
0.939768
0.939538
0.939309
0.939079
0.93885
0.93862
0.938391
0.938161
0.937932
0.937703
0.937473
0.937244
0.937014
0.936785
0.936556
0.936326
0.936097
0.935868
0.935638
0.935409
0.93518
0.934951
0.934721
0.934492
0.934263
0.934034
0.933804
0.933575
0.933346
0.933117
0.932888
0.932658
0.932429
0.9322
0.931971
0.931742
0.931513
0.931284
0.931055
0.930826
0.930597
0.930368
0.930139
0.92991
0.929681
0.929452
0.929224
0.928995
0.928766
0.928537
0.928308
0.92808
0.927851
0.927622
0.927393
0.927165
0.926936
0.926707
0.926479
0.92625
0.926022
0.925793
0.925565
0.925336
0.925108
0.924879
0.924651
0.924422
0.924194
0.923966
0.923737
0.923509
0.923281
0.923052
0.922824
0.922596
0.922368
0.92214
0.921912
0.921683
0.921455
0.921227
0.920999
0.920771
0.920543
0.920315
0.920087
0.91986
0.919632
0.919404
0.919176
0.918948
0.918721
0.918493
0.918265
0.918038
0.91781
0.917582
0.917355
0.917127
0.9169
0.916672
0.916445
0.916217
0.91599
0.915763
0.915535
0.915308
0.915081
0.914853
0.914626
0.914399
0.914172
0.913945
0.913718
0.913491
0.913264
0.913037
0.91281
0.912583
0.912356
0.912129
0.911902
0.911675
0.911449
0.911222
0.910995
0.910768
0.910542
0.910315
0.910089
0.909862
0.909636
0.909409
0.909183
0.908956
0.90873
0.908504
0.908277
0.908051
0.907825
0.907598
0.907372
0.907146
0.90692
0.906694
0.906468
0.906242
0.906016
0.90579
0.905564
0.905338
0.905112
0.904887
0.904661
0.904435
0.904209
0.903984
0.903758
0.903532
0.903307
0.903081
0.902856
0.90263
0.902405
0.90218
0.901954
0.901729
0.901504
0.901278
0.901053
0.900828
0.900603
0.900378
0.900153
0.899928
0.899703
0.899478
0.899253
0.899028
0.898803
0.898578
0.898354
0.898129
0.897904
0.897679
0.897455
0.89723
0.897006
0.896781
0.896557
0.896332
0.896108
0.895883
0.895659
0.895435
0.895211
0.894986
0.894762
0.894538
0.894314
0.89409
0.893866
0.893642
0.893418
0.893194
0.89297
0.892746
0.892522
0.892299
0.892075
0.891851
0.891627
0.891404
0.89118
0.890957
0.890733
0.89051
0.890286
0.890063
0.88984
0.889616
0.889393
0.88917
0.888946
0.888723
0.8885
0.888277
0.888054
0.887831
0.887608
0.887385
0.887162
0.886939
0.886717
0.886494
0.886271
0.886048
0.885826
0.885603
0.88538
0.885158
0.884935
0.884713
0.88449
0.884268
0.884046
0.883823
0.883601
0.883379
0.883157
0.882935
0.882712
0.88249
0.882268
0.882046
0.881824
0.881602
0.881381
0.881159
0.880937
0.880715
0.880493
0.880272
0.88005
0.879828
0.879607
0.879385
0.879164
0.878942
0.878721
0.8785
0.878278
0.878057
0.877836
0.877614
0.877393
0.877172
0.876951
0.87673
0.876509
0.876288
0.876067
0.875846
0.875625
0.875405
0.875184
0.874963
0.874742
0.874522
0.874301
0.874081
0.87386
0.873639
0.873419
0.873199
0.872978
0.872758
0.872538
0.872317
0.872097
0.871877
0.871657
0.871437
0.871217
0.870997
0.870777
0.870557
0.870337
0.870117
0.869897
0.869677
0.869458
0.869238
0.869018
0.868799
0.868579
0.86836
0.86814
0.867921
0.867701
0.867482
0.867263
0.867043
0.866824
0.866605
0.866386
0.866167
0.865948
0.865729
0.86551
0.865291
0.865072
0.864853
0.864634
0.864415
0.864196
0.863978
0.863759
0.86354
0.863322
0.863103
0.862885
0.862666
0.862448
0.862229
0.862011
0.861793
0.861575
0.861356
0.861138
0.86092
0.860702
0.860484
0.860266
0.860048
0.85983
0.859612
0.859394
0.859176
0.858959
0.858741
0.858523
0.858305
0.858088
0.85787
0.857653
0.857435
0.857218
0.857
0.856783
0.856566
0.856348
0.856131
0.855914
0.855697
0.85548
0.855263
0.855046
0.854829
0.854612
0.854395
0.854178
0.853961
0.853744
0.853528
0.853311
0.853094
0.852878
0.852661
0.852444
0.852228
0.852012
0.851795
0.851579
0.851362
0.851146
0.85093
0.850714
0.850497
0.850281
0.850065
0.849849
0.849633
0.849417
0.849201
0.848985
0.84877
0.848554
0.848338
0.848122
0.847907
0.847691
0.847476
0.84726
0.847044
0.846829
0.846614
0.846398
0.846183
0.845968
0.845752
0.845537
0.845322
0.845107
0.844892
0.844677
0.844462
0.844247
0.844032
0.843817
0.843602
0.843387
0.843173
0.842958
0.842743
0.842528
0.842314
0.842099
0.841885
0.84167
0.841456
0.841242
0.841027
0.840813
0.840599
0.840384
0.84017
0.839956
0.839742
0.839528
0.839314
0.8391
0.838886
0.838672
0.838458
0.838245
0.838031
0.837817
0.837603
0.83739
0.837176
0.836963
0.836749
0.836536
0.836322
0.836109
0.835896
0.835682
0.835469
0.835256
0.835043
0.834829
0.834616
0.834403
0.83419
0.833977
0.833764
0.833552
0.833339
0.833126
0.832913
0.8327
0.832488
0.832275
0.832063
0.83185
0.831637
0.831425
0.831213
0.831
0.830788
0.830576
0.830363
0.830151
0.829939
0.829727
0.829515
0.829303
0.829091
0.828879
0.828667
0.828455
0.828243
0.828031
0.827819
0.827608
0.827396
0.827184
0.826973
0.826761
0.82655
0.826338
0.826127
0.825916
0.825704
0.825493
0.825282
0.82507
0.824859
0.824648
0.824437
0.824226
0.824015
0.823804
0.823593
0.823382
0.823171
0.822961
0.82275
0.822539
0.822328
0.822118
0.821907
0.821697
0.821486
0.821276
0.821065
0.820855
0.820644
0.820434
0.820224
0.820014
0.819804
0.819593
0.819383
0.819173
0.818963
0.818753
0.818543
0.818334
0.818124
0.817914
0.817704
0.817494
0.817285
0.817075
0.816866
0.816656
0.816446
0.816237
0.816028
0.815818
0.815609
0.8154
0.81519
0.814981
0.814772
0.814563
0.814354
0.814145
0.813936
0.813727
0.813518
0.813309
0.8131
0.812891
0.812682
0.812474
0.812265
0.812056
0.811848
0.811639
0.811431
0.811222
0.811014
0.810806
0.810597
0.810389
0.810181
0.809972
0.809764
0.809556
0.809348
0.80914
0.808932
0.808724
0.808516
0.808308
0.8081
0.807893
0.807685
0.807477
0.807269
0.807062
0.806854
0.806647
0.806439
0.806232
0.806024
0.805817
0.80561
0.805402
0.805195
0.804988
0.804781
0.804574
0.804366
0.804159
0.803952
0.803745
0.803538
0.803332
0.803125
0.802918
0.802711
0.802504
0.802298
0.802091
0.801885
0.801678
0.801472
0.801265
0.801059
0.800852
0.800646
0.80044
0.800233
0.800027
0.799821
0.799615
0.799409
0.799203
0.798997
0.798791
0.798585
0.798379
0.798173
0.797967
0.797762
0.797556
0.79735
0.797144
0.796939
0.796733
0.796528
0.796322
0.796117
0.795912
0.795706
0.795501
0.795296
0.79509
0.794885
0.79468
0.794475
0.79427
0.794065
0.79386
0.793655
0.79345
0.793245
0.79304
0.792836
0.792631
0.792426
0.792222
0.792017
0.791813
0.791608
0.791404
0.791199
0.790995
0.79079
0.790586
0.790382
0.790178
0.789973
0.789769
0.789565
0.789361
0.789157
0.788953
0.788749
0.788545
0.788341
0.788138
0.787934
0.78773
0.787526
0.787323
0.787119
0.786916
0.786712
0.786509
0.786305
0.786102
0.785898
0.785695
0.785492
0.785289
0.785085
0.784882
0.784679
0.784476
0.784273
0.78407
0.783867
0.783664
0.783461
0.783259
0.783056
0.782853
0.78265
0.782448
0.782245
0.782042
0.78184
0.781637
0.781435
0.781233
0.78103
0.780828
0.780626
0.780423
0.780221
0.780019
0.779817
0.779615
0.779413
0.779211
0.779009
0.778807
0.778605
0.778403
0.778201
0.778
0.777798
0.777596
0.777395
0.777193
0.776992
0.77679
0.776589
0.776387
0.776186
0.775985
0.775783
0.775582
0.775381
0.77518
0.774978
0.774777
0.774576
0.774375
0.774174
0.773973
0.773773
0.773572
0.773371
0.77317
0.772969
0.772769
0.772568
0.772368
0.772167
0.771966
0.771766
0.771566
0.771365
0.771165
0.770964
0.770764
0.770564
0.770364
0.770164
0.769964
0.769764
0.769563
0.769364
0.769164
0.768964
0.768764
0.768564
0.768364
0.768164
0.767965
0.767765
0.767566
0.767366
0.767166
0.766967
0.766768
0.766568
0.766369
0.766169
0.76597
0.765771
0.765572
0.765373
0.765173
0.764974
0.764775
0.764576
0.764377
0.764178
0.76398
0.763781
0.763582
0.763383
0.763184
0.762986
0.762787
0.762589
0.76239
0.762192
0.761993
0.761795
0.761596
0.761398
0.7612
0.761001
0.760803
0.760605
0.760407
0.760209
0.760011
0.759813
0.759615
0.759417
0.759219
0.759021
0.758823
0.758625
0.758428
0.75823
0.758032
0.757835
0.757637
0.75744
0.757242
0.757045
0.756847
0.75665
0.756453
0.756255
0.756058
0.755861
0.755664
0.755467
0.75527
0.755073
0.754876
0.754679
0.754482
0.754285
0.754088
0.753891
0.753694
0.753498
0.753301
0.753104
0.752908
0.752711
0.752515
0.752318
0.752122
0.751925
0.751729
0.751533
0.751337
0.75114
0.750944
0.750748
0.750552
0.750356
0.75016
0.749964
0.749768
0.749572
0.749376
0.74918
0.748985
0.748789
0.748593
0.748397
0.748202
0.748006
0.747811
0.747615
0.74742
0.747224
0.747029
0.746834
0.746638
0.746443
0.746248
0.746053
0.745858
0.745663
0.745467
0.745272
0.745077
0.744883
0.744688
0.744493
0.744298
0.744103
0.743909
0.743714
0.743519
0.743325
0.74313
0.742936
0.742741
0.742547
0.742352
0.742158
0.741964
0.741769
0.741575
0.741381
0.741187
0.740993
0.740798
0.740604
0.74041
0.740216
0.740023
0.739829
0.739635
0.739441
0.739247
0.739054
0.73886
0.738666
0.738473
0.738279
0.738086
0.737892
0.737699
0.737505
0.737312
0.737119
0.736925
0.736732
0.736539
0.736346
0.736153
0.73596
0.735767
0.735574
0.735381
0.735188
0.734995
0.734802
0.734609
0.734416
0.734224
0.734031
0.733838
0.733646
0.733453
0.733261
0.733068
0.732876
0.732683
0.732491
0.732299
0.732107
0.731914
0.731722
0.73153
0.731338
0.731146
0.730954
0.730762
0.73057
0.730378
0.730186
0.729994
0.729802
0.729611
0.729419
0.729227
0.729036
0.728844
0.728653
0.728461
0.72827
0.728078
0.727887
0.727695
0.727504
0.727313
0.727122
0.72693
0.726739
0.726548
0.726357
0.726166
0.725975
0.725784
0.725593
0.725402
0.725212
0.725021
0.72483
0.724639
0.724449
0.724258
0.724067
0.723877
0.723686
0.723496
0.723305
0.723115
0.722925
0.722734
0.722544
0.722354
0.722164
0.721974
0.721783
0.721593
0.721403
0.721213
0.721023
0.720834
0.720644
0.720454
0.720264
0.720074
0.719885
0.719695
0.719505
0.719316
0.719126
0.718937
0.718747
0.718558
0.718368
0.718179
0.71799
0.7178
0.717611
0.717422
0.717233
0.717044
0.716855
0.716666
0.716477
0.716288
0.716099
0.71591
0.715721
0.715532
0.715343
0.715155
0.714966
0.714777
0.714589
0.7144
0.714212
0.714023
0.713835
0.713646
0.713458
0.71327
0.713081
0.712893
0.712705
0.712517
0.712329
0.712141
0.711953
0.711765
0.711577
0.711389
0.711201
0.711013
0.710825
0.710637
0.71045
0.710262
0.710074
0.709887
0.709699
0.709512
0.709324
0.709137
0.708949
0.708762
0.708574
0.708387
0.7082
0.708013
0.707826
0.707638
0.707451
0.707264
0.707077
0.70689
0.706703
0.706516
0.70633
0.706143
0.705956
0.705769
0.705582
0.705396
0.705209
0.705023
0.704836
0.70465
0.704463
0.704277
0.70409
0.703904
0.703718
0.703531
0.703345
0.703159
0.702973
0.702787
0.702601
0.702415
0.702229
0.702043
0.701857
0.701671
0.701485
0.701299
0.701113
0.700928
0.700742
0.700556
0.700371
0.700185
0.7
0.699814
0.699629
0.699443
0.699258
0.699073
0.698887
0.698702
0.698517
0.698332
0.698147
0.697961
0.697776
0.697591
0.697406
0.697221
0.697037
0.696852
0.696667
0.696482
0.696297
0.696113
0.695928
0.695743
0.695559
0.695374
0.69519
0.695005
0.694821
0.694636
0.694452
0.694268
0.694083
0.693899
0.693715
0.693531
0.693347
0.693163
0.692979
0.692795
0.692611
0.692427
0.692243
0.692059
0.691875
0.691691
0.691508
0.691324
0.69114
0.690957
0.690773
0.69059
0.690406
0.690223
0.690039
0.689856
0.689673
0.689489
0.689306
0.689123
0.68894
0.688756
0.688573
0.68839
0.688207
0.688024
0.687841
0.687658
0.687476
0.687293
0.68711
0.686927
0.686744
0.686562
0.686379
0.686197
0.686014
0.685831
0.685649
0.685467
0.685284
0.685102
0.684919
0.684737
0.684555
0.684373
0.684191
0.684008
0.683826
0.683644
0.683462
0.68328
0.683098
0.682916
0.682735
0.682553
0.682371
0.682189
0.682007
0.681826
0.681644
0.681463
0.681281
0.681099
0.680918
0.680737
0.680555
0.680374
0.680192
0.680011
0.67983
0.679649
0.679468
0.679286
0.679105
0.678924
0.678743
0.678562
0.678381
0.6782
0.67802
0.677839
0.677658
0.677477
0.677297
0.677116
0.676935
0.676755
0.676574
0.676394
0.676213
0.676033
0.675852
0.675672
0.675492
0.675311
0.675131
0.674951
0.674771
0.674591
0.67441
0.67423
0.67405
0.67387
0.673691
0.673511
0.673331
0.673151
0.672971
0.672791
0.672612
0.672432
0.672252
0.672073
0.671893
0.671714
0.671534
0.671355
0.671175
0.670996
0.670817
0.670637
0.670458
0.670279
0.6701
0.669921
0.669742
0.669563
0.669384
0.669205
0.669026
0.668847
0.668668
0.668489
0.66831
0.668132
0.667953
0.667774
0.667595
0.667417
0.667238
0.66706
0.666881
0.666703
0.666524
0.666346
0.666168
0.66599
0.665811
0.665633
0.665455
0.665277
0.665099
0.664921
0.664743
0.664565
0.664387
0.664209
0.664031
0.663853
0.663675
0.663497
0.66332
0.663142
0.662964
0.662787
0.662609
0.662432
0.662254
0.662077
0.661899
0.661722
0.661545
0.661367
0.66119
0.661013
0.660836
0.660659
0.660481
0.660304
0.660127
0.65995
0.659773
0.659596
0.65942
0.659243
0.659066
0.658889
0.658712
0.658536
0.658359
0.658182
0.658006
0.657829
0.657653
0.657476
0.6573
0.657124
0.656947
0.656771
0.656595
0.656418
0.656242
0.656066
0.65589
0.655714
0.655538
0.655362
0.655186
0.65501
0.654834
0.654658
0.654482
0.654307
0.654131
0.653955
0.653779
0.653604
0.653428
0.653253
0.653077
0.652902
0.652726
0.652551
0.652375
0.6522
0.652025
0.65185