/*--------------------------------*- C++ -*----------------------------------*\
  =========                 |
  \\      /  F ield         | OpenFOAM: The Open Source CFD Toolbox
   \\    /   O peration     | Website:  https://openfoam.org
    \\  /    A nd           | Version:  9
     \\/     M anipulation  |
\*---------------------------------------------------------------------------*/
FoamFile
{
    format      ascii;
    class       volVectorField;
    location    "0.009";
    object      U;
}
// * * * * * * * * * * * * * * * * * * * * * * * * * * * * * * * * * * * * * //

dimensions      [0 1 -1 0 0 0 0];

internalField   nonuniform List<vector> 
10000
(
(9.77349e-13 0 0)
(1.50249e-12 0 0)
(1.76506e-12 0 0)
(1.9547e-12 0 0)
(2.37773e-12 0 0)
(2.37773e-12 0 0)
(3.04875e-12 0 0)
(3.04875e-12 0 0)
(3.58848e-12 0 0)
(3.47178e-12 0 0)
(4.34702e-12 0 0)
(4.12821e-12 0 0)
(4.81381e-12 0 0)
(5.03262e-12 0 0)
(5.2806e-12 0 0)
(5.45565e-12 0 0)
(6.03914e-12 0 0)
(5.70363e-12 0 0)
(6.85603e-12 0 0)
(6.33089e-12 0 0)
(7.352e-12 0 0)
(7.43952e-12 0 0)
(7.03108e-12 0 0)
(7.78962e-12 0 0)
(7.5854e-12 0 0)
(7.52705e-12 0 0)
(7.74586e-12 0 0)
(8.21265e-12 0 0)
(7.39576e-12 0 0)
(7.74586e-12 0 0)
(7.5854e-12 0 0)
(7.43952e-12 0 0)
(7.08943e-12 0 0)
(7.14778e-12 0 0)
(6.52052e-12 0 0)
(6.63722e-12 0 0)
(6.38924e-12 0 0)
(6.40382e-12 0 0)
(6.03914e-12 0 0)
(6.36006e-12 0 0)
(5.70363e-12 0 0)
(6.05373e-12 0 0)
(5.86409e-12 0 0)
(5.55776e-12 0 0)
(5.54317e-12 0 0)
(5.65987e-12 0 0)
(5.17849e-12 0 0)
(5.09097e-12 0 0)
(5.01803e-12 0 0)
(4.43454e-12 0 0)
(4.595e-12 0 0)
(4.28867e-12 0 0)
(4.53665e-12 0 0)
(3.98233e-12 0 0)
(4.2449e-12 0 0)
(4.17197e-12 0 0)
(4.3616e-12 0 0)
(4.12821e-12 0 0)
(4.14279e-12 0 0)
(3.82187e-12 0 0)
(3.85105e-12 0 0)
(3.20921e-12 0 0)
(3.34049e-12 0 0)
(2.53819e-12 0 0)
(2.72783e-12 0 0)
(1.96929e-12 0 0)
(1.91094e-12 0 0)
(1.44414e-12 0 0)
(1.34203e-12 0 0)
(7.14778e-13 0 0)
(8.46063e-13 0 0)
(-7.29365e-14 0 0)
(1.75048e-13 0 0)
(-7.73127e-13 0 0)
(-6.85603e-13 0 0)
(-1.32744e-12 0 0)
(-1.07946e-12 0 0)
(-1.92552e-12 0 0)
(-1.64836e-12 0 0)
(-2.33397e-12 0 0)
(-2.27562e-12 0 0)
(-2.46525e-12 0 0)
(-2.84452e-12 0 0)
(-2.93205e-12 0 0)
(-3.38425e-12 0 0)
(-3.50095e-12 0 0)
(-4.05527e-12 0 0)
(-4.15738e-12 0 0)
(-5.06179e-12 0 0)
(-4.40536e-12 0 0)
(-5.64529e-12 0 0)
(-5.00344e-12 0 0)
(-6.30171e-12 0 0)
(-4.93051e-12 0 0)
(-6.63722e-12 0 0)
(-5.3973e-12 0 0)
(-6.76851e-12 0 0)
(-6.25795e-12 0 0)
(-7.30824e-12 0 0)
(-6.00997e-12 0 0)
(-7.90632e-12 0 0)
(-6.1996e-12 0 0)
(-7.57081e-12 0 0)
(-6.76851e-12 0 0)
(-7.77503e-12 0 0)
(-6.24336e-12 0 0)
(-7.78962e-12 0 0)
(-6.62263e-12 0 0)
(-7.95008e-12 0 0)
(-7.04567e-12 0 0)
(-7.5854e-12 0 0)
(-6.92897e-12 0 0)
(-8.35852e-12 0 0)
(-6.5497e-12 0 0)
(-8.86908e-12 0 0)
(-6.52052e-12 0 0)
(-8.3877e-12 0 0)
(-7.38117e-12 0 0)
(-7.54163e-12 0 0)
(-6.92897e-12 0 0)
(-7.07484e-12 0 0)
(-6.47676e-12 0 0)
(-6.85603e-12 0 0)
(-5.98079e-12 0 0)
(-5.95162e-12 0 0)
(-5.20767e-12 0 0)
(-5.44106e-12 0 0)
(-4.4783e-12 0 0)
(-5.25143e-12 0 0)
(-4.39078e-12 0 0)
(-4.55124e-12 0 0)
(-3.80729e-12 0 0)
(-3.74894e-12 0 0)
(-3.16544e-12 0 0)
(-3.42802e-12 0 0)
(-2.12975e-12 0 0)
(-2.62571e-12 0 0)
(-1.73589e-12 0 0)
(-1.41497e-12 0 0)
(-1.54625e-12 0 0)
(-1.09405e-12 0 0)
(-5.10556e-13 0 0)
(-1.00652e-12 0 0)
(-8.75238e-14 0 0)
(-3.06333e-13 0 0)
(4.37619e-14 0 0)
(3.06333e-13 0 0)
(2.1881e-13 0 0)
(6.12667e-13 0 0)
(6.12667e-13 0 0)
(8.16889e-13 0 0)
(1.0357e-12 0 0)
(9.33587e-13 0 0)
(8.75238e-13 0 0)
(8.16889e-13 0 0)
(1.19616e-12 0 0)
(6.27254e-13 0 0)
(1.19616e-12 0 0)
(8.75238e-13 0 0)
(1.12322e-12 0 0)
(1.0357e-12 0 0)
(1.53167e-12 0 0)
(1.12322e-12 0 0)
(1.44414e-12 0 0)
(1.22533e-12 0 0)
(1.32744e-12 0 0)
(8.60651e-13 0 0)
(1.63378e-12 0 0)
(8.02302e-13 0 0)
(1.1524e-12 0 0)
(1.13781e-12 0 0)
(9.91936e-13 0 0)
(5.54317e-13 0 0)
(8.02302e-13 0 0)
(1.75048e-13 0 0)
(3.93857e-13 0 0)
(-2.1881e-13 0 0)
(-5.83492e-14 0 0)
(-5.83492e-13 0 0)
(-9.04413e-13 0 0)
(-1.35662e-12 0 0)
(-1.28368e-12 0 0)
(-2.04222e-12 0 0)
(-2.08598e-12 0 0)
(-2.65489e-12 0 0)
(-3.22379e-12 0 0)
(-3.36967e-12 0 0)
(-3.99692e-12 0 0)
(-4.25949e-12 0 0)
(-4.63876e-12 0 0)
(-5.10556e-12 0 0)
(-5.07638e-12 0 0)
(-5.06179e-12 0 0)
(-5.70363e-12 0 0)
(-4.7117e-12 0 0)
(-5.6307e-12 0 0)
(-5.25143e-12 0 0)
(-5.71822e-12 0 0)
(-5.19308e-12 0 0)
(-5.98079e-12 0 0)
(-5.06179e-12 0 0)
(-5.93703e-12 0 0)
(-5.57235e-12 0 0)
(-5.60152e-12 0 0)
(-5.38271e-12 0 0)
(-5.64529e-12 0 0)
(-4.7117e-12 0 0)
(-5.1639e-12 0 0)
(-4.91592e-12 0 0)
(-4.98886e-12 0 0)
(-5.03262e-12 0 0)
(-4.65335e-12 0 0)
(-4.595e-12 0 0)
(-4.43454e-12 0 0)
(-4.12821e-12 0 0)
(-3.96775e-12 0 0)
(-3.76352e-12 0 0)
(-3.42802e-12 0 0)
(-3.09251e-12 0 0)
(-2.84452e-12 0 0)
(-2.5236e-12 0 0)
(-2.08598e-12 0 0)
(-1.64836e-12 0 0)
(-1.42956e-12 0 0)
(-1.31286e-12 0 0)
(-1.06487e-12 0 0)
(-9.04413e-13 0 0)
(-4.37619e-13 0 0)
(-5.10556e-13 0 0)
(1.31286e-13 0 0)
(3.06333e-13 0 0)
(7.29365e-13 0 0)
(4.66794e-13 0 0)
(9.91936e-13 0 0)
(8.60651e-13 0 0)
(1.31286e-12 0 0)
(1.13781e-12 0 0)
(1.79424e-12 0 0)
(1.37121e-12 0 0)
(2.04222e-12 0 0)
(1.47332e-12 0 0)
(1.92552e-12 0 0)
(1.61919e-12 0 0)
(1.61919e-12 0 0)
(1.53167e-12 0 0)
(1.28368e-12 0 0)
(1.32744e-12 0 0)
(1.10863e-12 0 0)
(1.25451e-12 0 0)
(1.0357e-12 0 0)
(1.16698e-12 0 0)
(9.62762e-13 0 0)
(9.48175e-13 0 0)
(7.87714e-13 0 0)
(3.93857e-13 0 0)
(5.3973e-13 0 0)
(2.62571e-13 0 0)
(-2.47984e-13 0 0)
(-2.04222e-13 0 0)
(-4.66794e-13 0 0)
(-4.81381e-13 0 0)
(-5.54317e-13 0 0)
(-2.91746e-13 0 0)
(-7.43952e-13 0 0)
(-5.10556e-13 0 0)
(-8.89825e-13 0 0)
(-6.27254e-13 0 0)
(-4.81381e-13 0 0)
(-6.56429e-13 0 0)
(-6.41841e-13 0 0)
(-5.98079e-13 0 0)
(-6.71016e-13 0 0)
(-4.23032e-13 0 0)
(-4.95968e-13 0 0)
(-4.95968e-13 0 0)
(-3.93857e-13 0 0)
(-2.33397e-13 0 0)
(4.37619e-14 0 0)
(2.91746e-14 0 0)
(-1.45873e-14 0 0)
(1.75048e-13 0 0)
(1.45873e-13 0 0)
(3.93857e-13 0 0)
(3.93857e-13 0 0)
(4.37619e-13 0 0)
(6.71016e-13 0 0)
(6.27254e-13 0 0)
(9.91936e-13 0 0)
(5.3973e-13 0 0)
(7.43952e-13 0 0)
(2.62571e-13 0 0)
(2.91746e-13 0 0)
(-5.83492e-14 0 0)
(-1.02111e-13 0 0)
(-4.66794e-13 0 0)
(-4.23032e-13 0 0)
(-1.02111e-12 0 0)
(-1.05029e-12 0 0)
(-1.57543e-12 0 0)
(-1.56084e-12 0 0)
(-2.05681e-12 0 0)
(-1.73589e-12 0 0)
(-2.26103e-12 0 0)
(-2.17351e-12 0 0)
(-2.82994e-12 0 0)
(-2.33397e-12 0 0)
(-3.20921e-12 0 0)
(-2.55278e-12 0 0)
(-3.47178e-12 0 0)
(-2.90287e-12 0 0)
(-3.69059e-12 0 0)
(-3.20921e-12 0 0)
(-4.27408e-12 0 0)
(-3.26756e-12 0 0)
(-4.56582e-12 0 0)
(-3.41343e-12 0 0)
(-4.56582e-12 0 0)
(-3.57389e-12 0 0)
(-4.84298e-12 0 0)
(-3.5593e-12 0 0)
(-4.91592e-12 0 0)
(-4.05527e-12 0 0)
(-4.98886e-12 0 0)
(-4.58041e-12 0 0)
(-5.6307e-12 0 0)
(-5.10556e-12 0 0)
(-5.60152e-12 0 0)
(-5.61611e-12 0 0)
(-5.42648e-12 0 0)
(-5.514e-12 0 0)
(-5.67446e-12 0 0)
(-5.17849e-12 0 0)
(-5.10556e-12 0 0)
(-4.68252e-12 0 0)
(-4.81381e-12 0 0)
(-4.39078e-12 0 0)
(-4.23032e-12 0 0)
(-4.20114e-12 0 0)
(-3.89481e-12 0 0)
(-3.64683e-12 0 0)
(-3.45719e-12 0 0)
(-3.38425e-12 0 0)
(-3.26756e-12 0 0)
(-2.82994e-12 0 0)
(-3.06333e-12 0 0)
(-2.4069e-12 0 0)
(-2.74241e-12 0 0)
(-1.79424e-12 0 0)
(-2.46525e-12 0 0)
(-1.38579e-12 0 0)
(-1.61919e-12 0 0)
(-8.02302e-13 0 0)
(-1.00652e-12 0 0)
(-2.91746e-14 0 0)
(-4.81381e-13 0 0)
(2.04222e-13 0 0)
(1.45873e-14 0 0)
(5.54317e-13 0 0)
(4.37619e-13 0 0)
(9.33587e-13 0 0)
(2.33397e-13 0 0)
(8.60651e-13 0 0)
(4.66794e-13 0 0)
(4.95968e-13 0 0)
(1.45873e-14 0 0)
(3.20921e-13 0 0)
(-8.75238e-14 0 0)
(1.31286e-13 0 0)
(-4.23032e-13 0 0)
(-1.6046e-13 0 0)
(-9.48175e-13 0 0)
(-3.35508e-13 0 0)
(-1.23992e-12 0 0)
(-6.56429e-13 0 0)
(-1.42956e-12 0 0)
(-1.09405e-12 0 0)
(-1.96929e-12 0 0)
(-1.35662e-12 0 0)
(-2.14433e-12 0 0)
(-2.02763e-12 0 0)
(-2.33397e-12 0 0)
(-2.12975e-12 0 0)
(-2.84452e-12 0 0)
(-2.55278e-12 0 0)
(-2.66948e-12 0 0)
(-2.94663e-12 0 0)
(-2.82994e-12 0 0)
(-2.9904e-12 0 0)
(-3.29673e-12 0 0)
(-2.84452e-12 0 0)
(-3.03416e-12 0 0)
(-3.50095e-12 0 0)
(-2.97581e-12 0 0)
(-3.76352e-12 0 0)
(-2.94663e-12 0 0)
(-3.54471e-12 0 0)
(-3.15086e-12 0 0)
(-3.50095e-12 0 0)
(-3.07792e-12 0 0)
(-3.25297e-12 0 0)
(-3.10709e-12 0 0)
(-3.09251e-12 0 0)
(-2.8737e-12 0 0)
(-2.84452e-12 0 0)
(-2.59654e-12 0 0)
(-2.61113e-12 0 0)
(-2.62571e-12 0 0)
(-2.62571e-12 0 0)
(-2.91746e-12 0 0)
(-2.66948e-12 0 0)
(-2.97581e-12 0 0)
(-2.94663e-12 0 0)
(-2.8737e-12 0 0)
(-2.93205e-12 0 0)
(-2.96122e-12 0 0)
(-2.91746e-12 0 0)
(-2.66948e-12 0 0)
(-2.88829e-12 0 0)
(-2.29021e-12 0 0)
(-2.37773e-12 0 0)
(-2.12975e-12 0 0)
(-2.05681e-12 0 0)
(-1.70671e-12 0 0)
(-1.88176e-12 0 0)
(-1.34203e-12 0 0)
(-1.67754e-12 0 0)
(-1.16698e-12 0 0)
(-1.4879e-12 0 0)
(-1.1524e-12 0 0)
(-1.42956e-12 0 0)
(-1.34203e-12 0 0)
(-1.29827e-12 0 0)
(-1.07946e-12 0 0)
(-1.06487e-12 0 0)
(-9.48175e-13 0 0)
(-9.04413e-13 0 0)
(-9.19e-13 0 0)
(-1.19616e-12 0 0)
(-1.19616e-12 0 0)
(-1.12322e-12 0 0)
(-1.37121e-12 0 0)
(-1.35662e-12 0 0)
(-1.42956e-12 0 0)
(-1.88176e-12 0 0)
(-1.77965e-12 0 0)
(-2.23186e-12 0 0)
(-2.46525e-12 0 0)
(-2.45067e-12 0 0)
(-2.33397e-12 0 0)
(-2.8737e-12 0 0)
(-2.39232e-12 0 0)
(-3.26756e-12 0 0)
(-3.00498e-12 0 0)
(-3.25297e-12 0 0)
(-3.01957e-12 0 0)
(-4.04068e-12 0 0)
(-2.72783e-12 0 0)
(-4.09903e-12 0 0)
(-2.81535e-12 0 0)
(-4.05527e-12 0 0)
(-3.09251e-12 0 0)
(-4.04068e-12 0 0)
(-3.51554e-12 0 0)
(-4.55124e-12 0 0)
(-3.61765e-12 0 0)
(-4.8284e-12 0 0)
(-4.20114e-12 0 0)
(-4.66794e-12 0 0)
(-4.39078e-12 0 0)
(-5.01803e-12 0 0)
(-4.78463e-12 0 0)
(-5.13473e-12 0 0)
(-4.98886e-12 0 0)
(-5.26602e-12 0 0)
(-4.72629e-12 0 0)
(-5.68905e-12 0 0)
(-5.17849e-12 0 0)
(-5.25143e-12 0 0)
(-5.32436e-12 0 0)
(-5.58694e-12 0 0)
(-5.10556e-12 0 0)
(-5.60152e-12 0 0)
(-4.95968e-12 0 0)
(-5.19308e-12 0 0)
(-4.91592e-12 0 0)
(-4.95968e-12 0 0)
(-4.65335e-12 0 0)
(-5.1639e-12 0 0)
(-4.37619e-12 0 0)
(-5.83492e-12 0 0)
(-4.58041e-12 0 0)
(-5.45565e-12 0 0)
(-4.74087e-12 0 0)
(-5.01803e-12 0 0)
(-4.98886e-12 0 0)
(-4.77005e-12 0 0)
(-4.8284e-12 0 0)
(-4.58041e-12 0 0)
(-5.01803e-12 0 0)
(-4.68252e-12 0 0)
(-4.72629e-12 0 0)
(-4.39078e-12 0 0)
(-4.53665e-12 0 0)
(-4.30325e-12 0 0)
(-3.88022e-12 0 0)
(-4.4783e-12 0 0)
(-4.18656e-12 0 0)
(-3.82187e-12 0 0)
(-3.82187e-12 0 0)
(-3.63224e-12 0 0)
(-3.26756e-12 0 0)
(-3.10709e-12 0 0)
(-3.39884e-12 0 0)
(-2.757e-12 0 0)
(-3.50095e-12 0 0)
(-2.69865e-12 0 0)
(-2.8737e-12 0 0)
(-2.29021e-12 0 0)
(-2.53819e-12 0 0)
(-2.27562e-12 0 0)
(-2.17351e-12 0 0)
(-1.85259e-12 0 0)
(-2.10057e-12 0 0)
(-1.9547e-12 0 0)
(-1.92552e-12 0 0)
(-1.96929e-12 0 0)
(-1.92552e-12 0 0)
(-1.57543e-12 0 0)
(-1.89635e-12 0 0)
(-1.50249e-12 0 0)
(-1.98387e-12 0 0)
(-1.76506e-12 0 0)
(-2.42149e-12 0 0)
(-2.1881e-12 0 0)
(-2.91746e-12 0 0)
(-2.36314e-12 0 0)
(-2.97581e-12 0 0)
(-2.74241e-12 0 0)
(-3.45719e-12 0 0)
(-2.94663e-12 0 0)
(-3.96775e-12 0 0)
(-3.74894e-12 0 0)
(-4.75546e-12 0 0)
(-4.37619e-12 0 0)
(-5.00344e-12 0 0)
(-5.36813e-12 0 0)
(-5.26602e-12 0 0)
(-5.67446e-12 0 0)
(-5.89327e-12 0 0)
(-6.05373e-12 0 0)
(-6.21419e-12 0 0)
(-6.52052e-12 0 0)
(-6.433e-12 0 0)
(-7.2353e-12 0 0)
(-6.92897e-12 0 0)
(-7.20613e-12 0 0)
(-6.98732e-12 0 0)
(-6.81227e-12 0 0)
(-6.95814e-12 0 0)
(-6.91438e-12 0 0)
(-6.89979e-12 0 0)
(-6.59346e-12 0 0)
(-7.32282e-12 0 0)
(-6.21419e-12 0 0)
(-7.26448e-12 0 0)
(-6.87062e-12 0 0)
(-6.72475e-12 0 0)
(-6.25795e-12 0 0)
(-7.03108e-12 0 0)
(-5.83492e-12 0 0)
(-6.22878e-12 0 0)
(-6.25795e-12 0 0)
(-5.79116e-12 0 0)
(-5.47024e-12 0 0)
(-5.6307e-12 0 0)
(-5.19308e-12 0 0)
(-5.14932e-12 0 0)
(-5.07638e-12 0 0)
(-4.14279e-12 0 0)
(-4.41995e-12 0 0)
(-4.23032e-12 0 0)
(-3.77811e-12 0 0)
(-4.12821e-12 0 0)
(-3.61765e-12 0 0)
(-3.66141e-12 0 0)
(-3.50095e-12 0 0)
(-3.20921e-12 0 0)
(-3.06333e-12 0 0)
(-2.97581e-12 0 0)
(-2.65489e-12 0 0)
(-2.36314e-12 0 0)
(-2.01305e-12 0 0)
(-2.21727e-12 0 0)
(-1.88176e-12 0 0)
(-2.0714e-12 0 0)
(-1.35662e-12 0 0)
(-1.838e-12 0 0)
(-8.75238e-13 0 0)
(-1.13781e-12 0 0)
(-9.19e-13 0 0)
(-4.95968e-13 0 0)
(-1.31286e-13 0 0)
(-1.75048e-13 0 0)
(5.3973e-13 0 0)
(3.7927e-13 0 0)
(9.33587e-13 0 0)
(9.91936e-13 0 0)
(9.91936e-13 0 0)
(1.37121e-12 0 0)
(1.86717e-12 0 0)
(1.57543e-12 0 0)
(2.14433e-12 0 0)
(2.30479e-12 0 0)
(2.1881e-12 0 0)
(2.94663e-12 0 0)
(2.14433e-12 0 0)
(3.10709e-12 0 0)
(2.71324e-12 0 0)
(2.97581e-12 0 0)
(2.8737e-12 0 0)
(3.10709e-12 0 0)
(2.65489e-12 0 0)
(3.31132e-12 0 0)
(2.94663e-12 0 0)
(3.00498e-12 0 0)
(3.03416e-12 0 0)
(3.35508e-12 0 0)
(2.68406e-12 0 0)
(3.10709e-12 0 0)
(3.00498e-12 0 0)
(2.84452e-12 0 0)
(2.27562e-12 0 0)
(2.50902e-12 0 0)
(2.17351e-12 0 0)
(1.86717e-12 0 0)
(2.04222e-12 0 0)
(1.56084e-12 0 0)
(1.56084e-12 0 0)
(1.82341e-12 0 0)
(1.00652e-12 0 0)
(1.29827e-12 0 0)
(1.13781e-12 0 0)
(1.00652e-12 0 0)
(9.77349e-13 0 0)
(7.29365e-13 0 0)
(5.68905e-13 0 0)
(7.43952e-13 0 0)
(5.83492e-14 0 0)
(2.91746e-13 0 0)
(-4.08444e-13 0 0)
(-5.98079e-13 0 0)
(-1.07946e-12 0 0)
(-1.40038e-12 0 0)
(-1.88176e-12 0 0)
(-1.96929e-12 0 0)
(-1.98387e-12 0 0)
(-2.62571e-12 0 0)
(-2.47984e-12 0 0)
(-2.91746e-12 0 0)
(-3.28214e-12 0 0)
(-3.45719e-12 0 0)
(-3.95316e-12 0 0)
(-4.02609e-12 0 0)
(-4.69711e-12 0 0)
(-5.06179e-12 0 0)
(-5.19308e-12 0 0)
(-5.23684e-12 0 0)
(-5.64529e-12 0 0)
(-5.67446e-12 0 0)
(-6.09749e-12 0 0)
(-6.38924e-12 0 0)
(-6.33089e-12 0 0)
(-5.95162e-12 0 0)
(-7.03108e-12 0 0)
(-6.28713e-12 0 0)
(-7.33741e-12 0 0)
(-6.3163e-12 0 0)
(-7.4687e-12 0 0)
(-6.91438e-12 0 0)
(-7.65833e-12 0 0)
(-6.68098e-12 0 0)
(-8.18348e-12 0 0)
(-6.59346e-12 0 0)
(-7.90632e-12 0 0)
(-7.06025e-12 0 0)
(-7.54163e-12 0 0)
(-6.97273e-12 0 0)
(-7.97925e-12 0 0)
(-6.60805e-12 0 0)
(-8.1543e-12 0 0)
(-7.03108e-12 0 0)
(-7.81879e-12 0 0)
(-6.6664e-12 0 0)
(-8.12513e-12 0 0)
(-6.40382e-12 0 0)
(-7.62916e-12 0 0)
(-6.50594e-12 0 0)
(-7.17695e-12 0 0)
(-5.84951e-12 0 0)
(-7.1186e-12 0 0)
(-5.48482e-12 0 0)
(-6.33089e-12 0 0)
(-5.19308e-12 0 0)
(-5.71822e-12 0 0)
(-4.87216e-12 0 0)
(-5.55776e-12 0 0)
(-4.34702e-12 0 0)
(-5.49941e-12 0 0)
(-4.14279e-12 0 0)
(-4.97427e-12 0 0)
(-4.04068e-12 0 0)
(-4.49289e-12 0 0)
(-3.80729e-12 0 0)
(-4.31784e-12 0 0)
(-3.41343e-12 0 0)
(-4.08444e-12 0 0)
(-3.28214e-12 0 0)
(-3.70517e-12 0 0)
(-3.29673e-12 0 0)
(-3.36967e-12 0 0)
(-2.82994e-12 0 0)
(-2.97581e-12 0 0)
(-3.07792e-12 0 0)
(-2.62571e-12 0 0)
(-2.42149e-12 0 0)
(-2.46525e-12 0 0)
(-2.45067e-12 0 0)
(-2.61113e-12 0 0)
(-2.65489e-12 0 0)
(-2.59654e-12 0 0)
(-2.42149e-12 0 0)
(-2.66948e-12 0 0)
(-2.4069e-12 0 0)
(-2.81535e-12 0 0)
(-2.58195e-12 0 0)
(-2.59654e-12 0 0)
(-2.49443e-12 0 0)
(-2.91746e-12 0 0)
(-2.58195e-12 0 0)
(-3.22379e-12 0 0)
(-2.77159e-12 0 0)
(-3.28214e-12 0 0)
(-3.45719e-12 0 0)
(-3.45719e-12 0 0)
(-3.5593e-12 0 0)
(-3.45719e-12 0 0)
(-3.51554e-12 0 0)
(-3.63224e-12 0 0)
(-3.676e-12 0 0)
(-3.54471e-12 0 0)
(-3.63224e-12 0 0)
(-4.02609e-12 0 0)
(-3.63224e-12 0 0)
(-4.2449e-12 0 0)
(-4.58041e-12 0 0)
(-3.99692e-12 0 0)
(-4.17197e-12 0 0)
(-4.68252e-12 0 0)
(-4.53665e-12 0 0)
(-4.72629e-12 0 0)
(-5.13473e-12 0 0)
(-5.12014e-12 0 0)
(-5.1639e-12 0 0)
(-5.76198e-12 0 0)
(-5.35354e-12 0 0)
(-5.68905e-12 0 0)
(-6.00997e-12 0 0)
(-5.67446e-12 0 0)
(-5.98079e-12 0 0)
(-5.77657e-12 0 0)
(-5.98079e-12 0 0)
(-6.06832e-12 0 0)
(-5.71822e-12 0 0)
(-5.92244e-12 0 0)
(-6.02455e-12 0 0)
(-5.68905e-12 0 0)
(-6.21419e-12 0 0)
(-6.02455e-12 0 0)
(-5.95162e-12 0 0)
(-5.7474e-12 0 0)
(-6.12667e-12 0 0)
(-6.00997e-12 0 0)
(-6.15584e-12 0 0)
(-6.22878e-12 0 0)
(-6.05373e-12 0 0)
(-5.96621e-12 0 0)
(-5.82033e-12 0 0)
(-5.73281e-12 0 0)
(-5.06179e-12 0 0)
(-5.30978e-12 0 0)
(-5.12014e-12 0 0)
(-4.93051e-12 0 0)
(-5.07638e-12 0 0)
(-4.37619e-12 0 0)
(-4.84298e-12 0 0)
(-4.60959e-12 0 0)
(-4.88675e-12 0 0)
(-4.46371e-12 0 0)
(-4.81381e-12 0 0)
(-4.40536e-12 0 0)
(-4.94509e-12 0 0)
(-4.87216e-12 0 0)
(-5.13473e-12 0 0)
(-4.78463e-12 0 0)
(-5.26602e-12 0 0)
(-4.595e-12 0 0)
(-5.19308e-12 0 0)
(-4.7117e-12 0 0)
(-4.72629e-12 0 0)
(-4.72629e-12 0 0)
(-4.91592e-12 0 0)
(-4.85757e-12 0 0)
(-4.56582e-12 0 0)
(-4.97427e-12 0 0)
(-4.68252e-12 0 0)
(-4.90133e-12 0 0)
(-4.58041e-12 0 0)
(-5.14932e-12 0 0)
(-4.60959e-12 0 0)
(-5.13473e-12 0 0)
(-4.74087e-12 0 0)
(-5.22225e-12 0 0)
(-4.7117e-12 0 0)
(-5.09097e-12 0 0)
(-4.84298e-12 0 0)
(-4.91592e-12 0 0)
(-4.595e-12 0 0)
(-4.49289e-12 0 0)
(-4.50748e-12 0 0)
(-4.18656e-12 0 0)
(-3.95316e-12 0 0)
(-3.77811e-12 0 0)
(-3.66141e-12 0 0)
(-3.93857e-12 0 0)
(-3.45719e-12 0 0)
(-3.20921e-12 0 0)
(-3.35508e-12 0 0)
(-2.56736e-12 0 0)
(-3.09251e-12 0 0)
(-2.56736e-12 0 0)
(-2.31938e-12 0 0)
(-1.9547e-12 0 0)
(-2.14433e-12 0 0)
(-1.89635e-12 0 0)
(-1.77965e-12 0 0)
(-1.73589e-12 0 0)
(-1.77965e-12 0 0)
(-1.42956e-12 0 0)
(-1.73589e-12 0 0)
(-2.12975e-12 0 0)
(-1.50249e-12 0 0)
(-2.12975e-12 0 0)
(-2.15892e-12 0 0)
(-1.9547e-12 0 0)
(-2.30479e-12 0 0)
(-2.5236e-12 0 0)
(-2.43608e-12 0 0)
(-2.55278e-12 0 0)
(-2.46525e-12 0 0)
(-2.58195e-12 0 0)
(-2.96122e-12 0 0)
(-2.9904e-12 0 0)
(-2.71324e-12 0 0)
(-2.9904e-12 0 0)
(-2.78617e-12 0 0)
(-3.00498e-12 0 0)
(-2.36314e-12 0 0)
(-2.62571e-12 0 0)
(-1.99846e-12 0 0)
(-2.15892e-12 0 0)
(-1.69213e-12 0 0)
(-2.15892e-12 0 0)
(-1.21075e-12 0 0)
(-1.80883e-12 0 0)
(-1.47332e-12 0 0)
(-1.70671e-12 0 0)
(-1.09405e-12 0 0)
(-1.50249e-12 0 0)
(-1.10863e-12 0 0)
(-1.22533e-12 0 0)
(-1.23992e-12 0 0)
(-1.40038e-12 0 0)
(-1.05029e-12 0 0)
(-1.09405e-12 0 0)
(-1.06487e-12 0 0)
(-9.62762e-13 0 0)
(-9.91936e-13 0 0)
(-1.10863e-12 0 0)
(-1.02111e-12 0 0)
(-1.28368e-12 0 0)
(-9.77349e-13 0 0)
(-8.75238e-13 0 0)
(-8.16889e-13 0 0)
(-9.19e-13 0 0)
(-7.0019e-13 0 0)
(-8.31476e-13 0 0)
(-7.0019e-13 0 0)
(-5.98079e-13 0 0)
(-4.23032e-13 0 0)
(-5.10556e-13 0 0)
(-2.04222e-13 0 0)
(-4.52206e-13 0 0)
(-1.16698e-13 0 0)
(-2.1881e-13 0 0)
(2.91746e-13 0 0)
(8.75238e-14 0 0)
(7.87714e-13 0 0)
(5.54317e-13 0 0)
(1.02111e-12 0 0)
(8.02302e-13 0 0)
(1.00652e-12 0 0)
(1.07946e-12 0 0)
(1.37121e-12 0 0)
(1.59002e-12 0 0)
(1.21075e-12 0 0)
(2.05681e-12 0 0)
(1.12322e-12 0 0)
(1.94011e-12 0 0)
(7.29365e-13 0 0)
(1.50249e-12 0 0)
(5.68905e-13 0 0)
(8.89825e-13 0 0)
(5.68905e-13 0 0)
(8.75238e-13 0 0)
(1.16698e-13 0 0)
(8.31476e-13 0 0)
(3.06333e-13 0 0)
(7.29365e-13 0 0)
(3.64683e-13 0 0)
(6.12667e-13 0 0)
(3.7927e-13 0 0)
(2.1881e-13 0 0)
(1.6046e-13 0 0)
(-1.31286e-13 0 0)
(-1.45873e-13 0 0)
(-2.04222e-13 0 0)
(1.02111e-13 0 0)
(-2.91746e-13 0 0)
(-7.29365e-14 0 0)
(-6.12667e-13 0 0)
(1.45873e-14 0 0)
(-3.93857e-13 0 0)
(-1.6046e-13 0 0)
(-4.81381e-13 0 0)
(-2.62571e-13 0 0)
(-4.66794e-13 0 0)
(-4.23032e-13 0 0)
(-6.56429e-13 0 0)
(-4.66794e-13 0 0)
(-1.0357e-12 0 0)
(-5.3973e-13 0 0)
(-1.40038e-12 0 0)
(-7.43952e-13 0 0)
(-1.64836e-12 0 0)
(-1.0357e-12 0 0)
(-2.39232e-12 0 0)
(-1.2691e-12 0 0)
(-2.59654e-12 0 0)
(-1.37121e-12 0 0)
(-2.58195e-12 0 0)
(-1.91094e-12 0 0)
(-2.91746e-12 0 0)
(-2.26103e-12 0 0)
(-3.03416e-12 0 0)
(-2.15892e-12 0 0)
(-3.48636e-12 0 0)
(-2.757e-12 0 0)
(-3.35508e-12 0 0)
(-2.66948e-12 0 0)
(-3.19462e-12 0 0)
(-2.69865e-12 0 0)
(-3.03416e-12 0 0)
(-2.9904e-12 0 0)
(-2.77159e-12 0 0)
(-2.50902e-12 0 0)
(-2.78617e-12 0 0)
(-2.61113e-12 0 0)
(-2.36314e-12 0 0)
(-2.5236e-12 0 0)
(-1.94011e-12 0 0)
(-1.91094e-12 0 0)
(-1.64836e-12 0 0)
(-1.41497e-12 0 0)
(-8.75238e-13 0 0)
(-1.00652e-12 0 0)
(-3.20921e-13 0 0)
(-5.54317e-13 0 0)
(1.6046e-13 0 0)
(-5.83492e-14 0 0)
(5.68905e-13 0 0)
(3.20921e-13 0 0)
(9.33587e-13 0 0)
(8.02302e-13 0 0)
(1.06487e-12 0 0)
(1.16698e-12 0 0)
(1.34203e-12 0 0)
(1.16698e-12 0 0)
(1.56084e-12 0 0)
(1.63378e-12 0 0)
(1.45873e-12 0 0)
(1.70671e-12 0 0)
(1.66295e-12 0 0)
(2.04222e-12 0 0)
(2.20268e-12 0 0)
(2.29021e-12 0 0)
(2.0714e-12 0 0)
(2.6403e-12 0 0)
(2.5236e-12 0 0)
(2.55278e-12 0 0)
(2.27562e-12 0 0)
(2.84452e-12 0 0)
(2.26103e-12 0 0)
(2.78617e-12 0 0)
(2.27562e-12 0 0)
(2.8737e-12 0 0)
(2.1881e-12 0 0)
(2.97581e-12 0 0)
(1.838e-12 0 0)
(2.46525e-12 0 0)
(2.01305e-12 0 0)
(2.15892e-12 0 0)
(2.05681e-12 0 0)
(2.47984e-12 0 0)
(1.63378e-12 0 0)
(2.33397e-12 0 0)
(1.86717e-12 0 0)
(2.21727e-12 0 0)
(2.05681e-12 0 0)
(2.27562e-12 0 0)
(2.23186e-12 0 0)
(2.46525e-12 0 0)
(2.11516e-12 0 0)
(2.88829e-12 0 0)
(2.59654e-12 0 0)
(2.74241e-12 0 0)
(2.96122e-12 0 0)
(3.25297e-12 0 0)
(3.09251e-12 0 0)
(3.73435e-12 0 0)
(3.31132e-12 0 0)
(4.04068e-12 0 0)
(3.13627e-12 0 0)
(4.37619e-12 0 0)
(3.10709e-12 0 0)
(4.05527e-12 0 0)
(3.53013e-12 0 0)
(3.89481e-12 0 0)
(3.03416e-12 0 0)
(4.04068e-12 0 0)
(3.03416e-12 0 0)
(3.20921e-12 0 0)
(2.82994e-12 0 0)
(2.50902e-12 0 0)
(2.42149e-12 0 0)
(2.0714e-12 0 0)
(1.51708e-12 0 0)
(1.6046e-12 0 0)
(1.28368e-12 0 0)
(1.16698e-12 0 0)
(7.43952e-13 0 0)
(7.0019e-13 0 0)
(2.33397e-13 0 0)
(2.04222e-13 0 0)
(-4.23032e-13 0 0)
(-4.52206e-13 0 0)
(-9.33587e-13 0 0)
(-8.89825e-13 0 0)
(-1.66295e-12 0 0)
(-1.40038e-12 0 0)
(-1.85259e-12 0 0)
(-1.838e-12 0 0)
(-2.24644e-12 0 0)
(-2.14433e-12 0 0)
(-2.88829e-12 0 0)
(-2.81535e-12 0 0)
(-3.25297e-12 0 0)
(-3.23838e-12 0 0)
(-4.21573e-12 0 0)
(-3.4426e-12 0 0)
(-4.84298e-12 0 0)
(-4.01151e-12 0 0)
(-4.53665e-12 0 0)
(-4.66794e-12 0 0)
(-5.14932e-12 0 0)
(-4.4783e-12 0 0)
(-5.42648e-12 0 0)
(-4.69711e-12 0 0)
(-5.1639e-12 0 0)
(-5.30978e-12 0 0)
(-5.82033e-12 0 0)
(-5.33895e-12 0 0)
(-5.86409e-12 0 0)
(-5.49941e-12 0 0)
(-5.42648e-12 0 0)
(-5.17849e-12 0 0)
(-5.48482e-12 0 0)
(-5.32436e-12 0 0)
(-5.6307e-12 0 0)
(-5.64529e-12 0 0)
(-5.61611e-12 0 0)
(-5.20767e-12 0 0)
(-5.58694e-12 0 0)
(-5.77657e-12 0 0)
(-5.44106e-12 0 0)
(-5.23684e-12 0 0)
(-5.19308e-12 0 0)
(-5.45565e-12 0 0)
(-5.2806e-12 0 0)
(-4.85757e-12 0 0)
(-5.67446e-12 0 0)
(-4.77005e-12 0 0)
(-5.73281e-12 0 0)
(-5.32436e-12 0 0)
(-5.19308e-12 0 0)
(-5.57235e-12 0 0)
(-5.6307e-12 0 0)
(-5.03262e-12 0 0)
(-5.79116e-12 0 0)
(-5.90786e-12 0 0)
(-5.77657e-12 0 0)
(-5.6307e-12 0 0)
(-5.76198e-12 0 0)
(-5.26602e-12 0 0)
(-5.77657e-12 0 0)
(-4.78463e-12 0 0)
(-5.20767e-12 0 0)
(-4.72629e-12 0 0)
(-5.12014e-12 0 0)
(-4.18656e-12 0 0)
(-4.63876e-12 0 0)
(-3.54471e-12 0 0)
(-4.25949e-12 0 0)
(-3.09251e-12 0 0)
(-3.31132e-12 0 0)
(-2.43608e-12 0 0)
(-2.55278e-12 0 0)
(-1.86717e-12 0 0)
(-2.21727e-12 0 0)
(-1.67754e-12 0 0)
(-1.80883e-12 0 0)
(-1.45873e-12 0 0)
(-1.6046e-12 0 0)
(-1.29827e-12 0 0)
(-1.22533e-12 0 0)
(-1.0357e-12 0 0)
(-9.19e-13 0 0)
(-7.73127e-13 0 0)
(-9.33587e-13 0 0)
(-8.89825e-13 0 0)
(-1.05029e-12 0 0)
(-7.5854e-13 0 0)
(-7.0019e-13 0 0)
(-6.12667e-13 0 0)
(-4.66794e-13 0 0)
(-6.85603e-13 0 0)
(-7.14778e-13 0 0)
(-8.60651e-13 0 0)
(-9.77349e-13 0 0)
(-1.16698e-12 0 0)
(-1.67754e-12 0 0)
(-1.6046e-12 0 0)
(-2.29021e-12 0 0)
(-2.21727e-12 0 0)
(-3.03416e-12 0 0)
(-3.00498e-12 0 0)
(-3.50095e-12 0 0)
(-3.3259e-12 0 0)
(-4.20114e-12 0 0)
(-3.92398e-12 0 0)
(-4.69711e-12 0 0)
(-4.79922e-12 0 0)
(-5.19308e-12 0 0)
(-5.2806e-12 0 0)
(-5.79116e-12 0 0)
(-5.68905e-12 0 0)
(-6.24336e-12 0 0)
(-6.3163e-12 0 0)
(-6.18502e-12 0 0)
(-6.27254e-12 0 0)
(-7.01649e-12 0 0)
(-6.50594e-12 0 0)
(-7.29365e-12 0 0)
(-6.50594e-12 0 0)
(-7.24989e-12 0 0)
(-7.03108e-12 0 0)
(-7.33741e-12 0 0)
(-7.59998e-12 0 0)
(-7.59998e-12 0 0)
(-7.10402e-12 0 0)
(-7.76044e-12 0 0)
(-7.16236e-12 0 0)
(-7.52705e-12 0 0)
(-7.64375e-12 0 0)
(-8.08136e-12 0 0)
(-7.36659e-12 0 0)
(-8.69403e-12 0 0)
(-7.87714e-12 0 0)
(-8.19806e-12 0 0)
(-7.43952e-12 0 0)
(-8.86908e-12 0 0)
(-7.14778e-12 0 0)
(-8.21265e-12 0 0)
(-7.64375e-12 0 0)
(-7.4687e-12 0 0)
(-7.352e-12 0 0)
(-7.76044e-12 0 0)
(-6.79768e-12 0 0)
(-7.59998e-12 0 0)
(-6.78309e-12 0 0)
(-6.95814e-12 0 0)
(-6.57887e-12 0 0)
(-6.59346e-12 0 0)
(-5.87868e-12 0 0)
(-6.17043e-12 0 0)
(-5.61611e-12 0 0)
(-5.38271e-12 0 0)
(-5.12014e-12 0 0)
(-4.72629e-12 0 0)
(-4.79922e-12 0 0)
(-4.3616e-12 0 0)
(-4.15738e-12 0 0)
(-4.21573e-12 0 0)
(-3.71976e-12 0 0)
(-3.676e-12 0 0)
(-3.60306e-12 0 0)
(-3.676e-12 0 0)
(-3.15086e-12 0 0)
(-3.25297e-12 0 0)
(-2.8737e-12 0 0)
(-3.54471e-12 0 0)
(-2.55278e-12 0 0)
(-2.65489e-12 0 0)
(-2.6403e-12 0 0)
(-2.97581e-12 0 0)
(-2.30479e-12 0 0)
(-2.88829e-12 0 0)
(-1.99846e-12 0 0)
(-2.757e-12 0 0)
(-1.88176e-12 0 0)
(-2.30479e-12 0 0)
(-1.47332e-12 0 0)
(-2.20268e-12 0 0)
(-1.63378e-12 0 0)
(-1.57543e-12 0 0)
(-1.16698e-12 0 0)
(-1.31286e-12 0 0)
(-8.46063e-13 0 0)
(-1.06487e-12 0 0)
(-3.35508e-13 0 0)
(-8.60651e-13 0 0)
(-3.93857e-13 0 0)
(-5.3973e-13 0 0)
(-2.77159e-13 0 0)
(-4.81381e-13 0 0)
(-1.45873e-14 0 0)
(-8.31476e-13 0 0)
(-1.31286e-13 0 0)
(-7.29365e-13 0 0)
(-6.85603e-13 0 0)
(-8.16889e-13 0 0)
(-4.95968e-13 0 0)
(-8.60651e-13 0 0)
(-7.43952e-13 0 0)
(-3.93857e-13 0 0)
(-4.08444e-13 0 0)
(-4.37619e-14 0 0)
(-1.16698e-13 0 0)
(1.45873e-13 0 0)
(1.16698e-13 0 0)
(2.91746e-13 0 0)
(-1.45873e-13 0 0)
(4.37619e-14 0 0)
(-1.02111e-13 0 0)
(2.1881e-13 0 0)
(4.08444e-13 0 0)
(6.27254e-13 0 0)
(4.81381e-13 0 0)
(6.12667e-13 0 0)
(5.83492e-13 0 0)
(5.83492e-13 0 0)
(4.95968e-13 0 0)
(4.52206e-13 0 0)
(3.20921e-13 0 0)
(2.47984e-13 0 0)
(1.6046e-13 0 0)
(-2.62571e-13 0 0)
(-3.06333e-13 0 0)
(-8.46063e-13 0 0)
(-7.43952e-13 0 0)
(-1.21075e-12 0 0)
(-9.77349e-13 0 0)
(-1.61919e-12 0 0)
(-1.22533e-12 0 0)
(-1.99846e-12 0 0)
(-1.64836e-12 0 0)
(-2.39232e-12 0 0)
(-1.80883e-12 0 0)
(-2.47984e-12 0 0)
(-1.70671e-12 0 0)
(-2.49443e-12 0 0)
(-1.57543e-12 0 0)
(-2.42149e-12 0 0)
(-1.44414e-12 0 0)
(-2.04222e-12 0 0)
(-1.23992e-12 0 0)
(-1.77965e-12 0 0)
(-1.02111e-12 0 0)
(-1.38579e-12 0 0)
(-5.3973e-13 0 0)
(-9.77349e-13 0 0)
(-8.75238e-14 0 0)
(-4.95968e-13 0 0)
(3.20921e-13 0 0)
(-2.77159e-13 0 0)
(4.81381e-13 0 0)
(-8.75238e-14 0 0)
(6.56429e-13 0 0)
(1.34608e-23 0 0)
(8.60651e-13 0 0)
(2.04222e-13 0 0)
(1.0357e-12 0 0)
(1.31286e-13 0 0)
(9.19e-13 0 0)
(1.89635e-13 0 0)
(9.48175e-13 0 0)
(1.6046e-13 0 0)
(5.68905e-13 0 0)
(-5.83492e-14 0 0)
(-1.02111e-13 0 0)
(-5.25143e-13 0 0)
(-6.71016e-13 0 0)
(-9.77349e-13 0 0)
(-1.16698e-12 0 0)
(-1.51708e-12 0 0)
(-1.41497e-12 0 0)
(-2.05681e-12 0 0)
(-1.79424e-12 0 0)
(-1.9547e-12 0 0)
(-2.04222e-12 0 0)
(-2.23186e-12 0 0)
(-2.36314e-12 0 0)
(-2.78617e-12 0 0)
(-2.80076e-12 0 0)
(-2.82994e-12 0 0)
(-2.88829e-12 0 0)
(-3.42802e-12 0 0)
(-3.16544e-12 0 0)
(-3.3259e-12 0 0)
(-3.4426e-12 0 0)
(-3.42802e-12 0 0)
(-2.71324e-12 0 0)
(-2.84452e-12 0 0)
(-2.39232e-12 0 0)
(-2.14433e-12 0 0)
(-1.25451e-12 0 0)
(-8.60651e-13 0 0)
(4.08444e-13 0 0)
(8.16889e-13 0 0)
(2.61113e-12 0 0)
(3.61765e-12 0 0)
(6.433e-12 0 0)
(8.1543e-12 0 0)
(1.15386e-11 0 0)
(1.42956e-11 0 0)
(1.85988e-11 0 0)
(2.27854e-11 0 0)
(2.84744e-11 0 0)
(3.45719e-11 0 0)
(4.29596e-11 0 0)
(5.13035e-11 0 0)
(6.28275e-11 0 0)
(7.52413e-11 0 0)
(9.12727e-11 0 0)
(1.09142e-10 0 0)
(1.30804e-10 0 0)
(1.56303e-10 0 0)
(1.86528e-10 0 0)
(2.22442e-10 0 0)
(2.64584e-10 0 0)
(3.14561e-10 0 0)
(3.73304e-10 0 0)
(4.43571e-10 0 0)
(5.2577e-10 0 0)
(6.22105e-10 0 0)
(7.36936e-10 0 0)
(8.71868e-10 0 0)
(1.03021e-09 0 0)
(1.21648e-09 0 0)
(1.43628e-09 0 0)
(1.69388e-09 0 0)
(1.99715e-09 0 0)
(2.35255e-09 0 0)
(2.76915e-09 0 0)
(3.25828e-09 0 0)
(3.83067e-09 0 0)
(4.50116e-09 0 0)
(5.28545e-09 0 0)
(6.20351e-09 0 0)
(7.27473e-09 0 0)
(8.52746e-09 0 0)
(9.98905e-09 0 0)
(1.16934e-08 0 0)
(1.3681e-08 0 0)
(1.59958e-08 0 0)
(1.86911e-08 0 0)
(2.18261e-08 0 0)
(2.5473e-08 0 0)
(2.97102e-08 0 0)
(3.46309e-08 0 0)
(4.0341e-08 0 0)
(4.69648e-08 0 0)
(5.46416e-08 0 0)
(6.35344e-08 0 0)
(7.38292e-08 0 0)
(8.57381e-08 0 0)
(9.95059e-08 0 0)
(1.15415e-07 0 0)
(1.33783e-07 0 0)
(1.54978e-07 0 0)
(1.79419e-07 0 0)
(2.07587e-07 0 0)
(2.40025e-07 0 0)
(2.77361e-07 0 0)
(3.20304e-07 0 0)
(3.69664e-07 0 0)
(4.26364e-07 0 0)
(4.91452e-07 0 0)
(5.66121e-07 0 0)
(6.51727e-07 0 0)
(7.49807e-07 0 0)
(8.62102e-07 0 0)
(9.90593e-07 0 0)
(1.13752e-06 0 0)
(1.30541e-06 0 0)
(1.49713e-06 0 0)
(1.71593e-06 0 0)
(1.96545e-06 0 0)
(2.24984e-06 0 0)
(2.57374e-06 0 0)
(2.9424e-06 0 0)
(3.36173e-06 0 0)
(3.83837e-06 0 0)
(4.37979e-06 0 0)
(4.99441e-06 0 0)
(5.69162e-06 0 0)
(6.48203e-06 0 0)
(7.37747e-06 0 0)
(8.39123e-06 0 0)
(9.53817e-06 0 0)
(1.08349e-05 0 0)
(1.23e-05 0 0)
(1.39543e-05 0 0)
(1.58208e-05 0 0)
(1.79254e-05 0 0)
(2.02969e-05 0 0)
(2.29673e-05 0 0)
(2.59721e-05 0 0)
(2.93511e-05 0 0)
(3.31481e-05 0 0)
(3.7412e-05 0 0)
(4.21969e-05 0 0)
(4.75628e-05 0 0)
(5.35762e-05 0 0)
(6.03104e-05 0 0)
(6.78467e-05 0 0)
(7.62748e-05 0 0)
(8.56937e-05 0 0)
(9.62126e-05 0 0)
(0.000107952 0 0)
(0.000121044 0 0)
(0.000135634 0 0)
(0.000151883 0 0)
(0.000169967 0 0)
(0.000190078 0 0)
(0.000212429 0 0)
(0.00023725 0 0)
(0.000264797 0 0)
(0.000295345 0 0)
(0.0003292 0 0)
(0.000366691 0 0)
(0.000408181 0 0)
(0.000454062 0 0)
(0.000504764 0 0)
(0.000560753 0 0)
(0.000622536 0 0)
(0.000690664 0 0)
(0.000765735 0 0)
(0.000848397 0 0)
(0.000939352 0 0)
(0.00103936 0 0)
(0.00114924 0 0)
(0.00126988 0 0)
(0.00140225 0 0)
(0.00154736 0 0)
(0.00170634 0 0)
(0.00188038 0 0)
(0.00207077 0 0)
(0.0022789 0 0)
(0.00250624 0 0)
(0.0027544 0 0)
(0.00302507 0 0)
(0.00332008 0 0)
(0.00364139 0 0)
(0.00399107 0 0)
(0.00437135 0 0)
(0.00478459 0 0)
(0.00523334 0 0)
(0.00572026 0 0)
(0.00624822 0 0)
(0.00682023 0 0)
(0.00743952 0 0)
(0.00810949 0 0)
(0.00883373 0 0)
(0.00961606 0 0)
(0.0104605 0 0)
(0.0113713 0 0)
(0.0123529 0 0)
(0.01341 0 0)
(0.0145476 0 0)
(0.0157709 0 0)
(0.0170853 0 0)
(0.0184965 0 0)
(0.0200105 0 0)
(0.0216336 0 0)
(0.0233722 0 0)
(0.0252333 0 0)
(0.0272238 0 0)
(0.0293512 0 0)
(0.0316232 0 0)
(0.0340476 0 0)
(0.0366328 0 0)
(0.0393873 0 0)
(0.04232 0 0)
(0.0454399 0 0)
(0.0487565 0 0)
(0.0522795 0 0)
(0.056019 0 0)
(0.059985 0 0)
(0.0641883 0 0)
(0.0686395 0 0)
(0.0733498 0 0)
(0.0783303 0 0)
(0.0835926 0 0)
(0.0891486 0 0)
(0.09501 0 0)
(0.101189 0 0)
(0.107698 0 0)
(0.114549 0 0)
(0.121756 0 0)
(0.12933 0 0)
(0.137285 0 0)
(0.145634 0 0)
(0.154389 0 0)
(0.163565 0 0)
(0.173172 0 0)
(0.183226 0 0)
(0.193739 0 0)
(0.204725 0 0)
(0.216195 0 0)
(0.228163 0 0)
(0.240642 0 0)
(0.253645 0 0)
(0.267183 0 0)
(0.28127 0 0)
(0.295917 0 0)
(0.311137 0 0)
(0.326941 0 0)
(0.34334 0 0)
(0.360346 0 0)
(0.377969 0 0)
(0.39622 0 0)
(0.415109 0 0)
(0.434646 0 0)
(0.45484 0 0)
(0.4757 0 0)
(0.497235 0 0)
(0.519453 0 0)
(0.542361 0 0)
(0.565968 0 0)
(0.590279 0 0)
(0.615301 0 0)
(0.64104 0 0)
(0.667502 0 0)
(0.694692 0 0)
(0.722613 0 0)
(0.75127 0 0)
(0.780667 0 0)
(0.810806 0 0)
(0.84169 0 0)
(0.873322 0 0)
(0.905701 0 0)
(0.938831 0 0)
(0.972711 0 0)
(1.00734 0 0)
(1.04272 0 0)
(1.07885 0 0)
(1.11573 0 0)
(1.15336 0 0)