/*--------------------------------*- C++ -*----------------------------------*\
  =========                 |
  \\      /  F ield         | OpenFOAM: The Open Source CFD Toolbox
   \\    /   O peration     | Website:  https://openfoam.org
    \\  /    A nd           | Version:  9
     \\/     M anipulation  |
\*---------------------------------------------------------------------------*/
FoamFile
{
    format      ascii;
    class       volScalarField;
    location    "0.03";
    object      p;
}
// * * * * * * * * * * * * * * * * * * * * * * * * * * * * * * * * * * * * * //

dimensions      [1 -1 -2 0 0 0 0];

internalField   nonuniform List<scalar> 
10000
(
18875.3
18875.2
18875
18874.9
18874.8
18874.7
18874.6
18874.4
18874.3
18874.2
18874.1
18874
18873.9
18873.7
18873.6
18873.5
18873.4
18873.3
18873.2
18873
18872.9
18872.8
18872.7
18872.6
18872.5
18872.3
18872.2
18872.1
18872
18871.9
18871.8
18871.6
18871.5
18871.4
18871.3
18871.2
18871
18870.9
18870.8
18870.7
18870.6
18870.5
18870.3
18870.2
18870.1
18870
18869.9
18869.8
18869.6
18869.5
18869.4
18869.3
18869.2
18869
18868.9
18868.8
18868.7
18868.6
18868.5
18868.3
18868.2
18868.1
18868
18867.9
18867.7
18867.6
18867.5
18867.4
18867.3
18867.1
18867
18866.9
18866.8
18866.7
18866.5
18866.4
18866.3
18866.2
18866.1
18866
18865.8
18865.7
18865.6
18865.5
18865.4
18865.2
18865.1
18865
18864.9
18864.8
18864.6
18864.5
18864.4
18864.3
18864.2
18864
18863.9
18863.8
18863.7
18863.5
18863.4
18863.3
18863.2
18863.1
18862.9
18862.8
18862.7
18862.6
18862.5
18862.3
18862.2
18862.1
18862
18861.9
18861.7
18861.6
18861.5
18861.4
18861.2
18861.1
18861
18860.9
18860.8
18860.6
18860.5
18860.4
18860.3
18860.2
18860
18859.9
18859.8
18859.7
18859.5
18859.4
18859.3
18859.2
18859.1
18858.9
18858.8
18858.7
18858.6
18858.4
18858.3
18858.2
18858.1
18858
18857.8
18857.7
18857.6
18857.5
18857.3
18857.2
18857.1
18857
18856.8
18856.7
18856.6
18856.5
18856.4
18856.2
18856.1
18856
18855.9
18855.7
18855.6
18855.5
18855.4
18855.2
18855.1
18855
18854.9
18854.7
18854.6
18854.5
18854.4
18854.2
18854.1
18854
18853.9
18853.8
18853.6
18853.5
18853.4
18853.3
18853.1
18853
18852.9
18852.8
18852.6
18852.5
18852.4
18852.3
18852.1
18852
18851.9
18851.8
18851.6
18851.5
18851.4
18851.3
18851.1
18851
18850.9
18850.8
18850.6
18850.5
18850.4
18850.2
18850.1
18850
18849.9
18849.7
18849.6
18849.5
18849.4
18849.2
18849.1
18849
18848.9
18848.7
18848.6
18848.5
18848.4
18848.2
18848.1
18848
18847.8
18847.7
18847.6
18847.5
18847.3
18847.2
18847.1
18847
18846.8
18846.7
18846.6
18846.5
18846.3
18846.2
18846.1
18845.9
18845.8
18845.7
18845.6
18845.4
18845.3
18845.2
18845.1
18844.9
18844.8
18844.7
18844.5
18844.4
18844.3
18844.2
18844
18843.9
18843.8
18843.6
18843.5
18843.4
18843.3
18843.1
18843
18842.9
18842.7
18842.6
18842.5
18842.4
18842.2
18842.1
18842
18841.8
18841.7
18841.6
18841.5
18841.3
18841.2
18841.1
18840.9
18840.8
18840.7
18840.5
18840.4
18840.3
18840.2
18840
18839.9
18839.8
18839.6
18839.5
18839.4
18839.3
18839.1
18839
18838.9
18838.7
18838.6
18838.5
18838.3
18838.2
18838.1
18837.9
18837.8
18837.7
18837.6
18837.4
18837.3
18837.2
18837
18836.9
18836.8
18836.6
18836.5
18836.4
18836.2
18836.1
18836
18835.9
18835.7
18835.6
18835.5
18835.3
18835.2
18835.1
18834.9
18834.8
18834.7
18834.5
18834.4
18834.3
18834.1
18834
18833.9
18833.8
18833.6
18833.5
18833.4
18833.2
18833.1
18833
18832.8
18832.7
18832.6
18832.4
18832.3
18832.2
18832
18831.9
18831.8
18831.6
18831.5
18831.4
18831.2
18831.1
18831
18830.8
18830.7
18830.6
18830.4
18830.3
18830.2
18830
18829.9
18829.8
18829.6
18829.5
18829.4
18829.2
18829.1
18829
18828.8
18828.7
18828.6
18828.4
18828.3
18828.2
18828
18827.9
18827.8
18827.6
18827.5
18827.4
18827.2
18827.1
18827
18826.8
18826.7
18826.5
18826.4
18826.3
18826.1
18826
18825.9
18825.7
18825.6
18825.5
18825.3
18825.2
18825.1
18824.9
18824.8
18824.7
18824.5
18824.4
18824.3
18824.1
18824
18823.8
18823.7
18823.6
18823.4
18823.3
18823.2
18823
18822.9
18822.8
18822.6
18822.5
18822.4
18822.2
18822.1
18821.9
18821.8
18821.7
18821.5
18821.4
18821.3
18821.1
18821
18820.9
18820.7
18820.6
18820.4
18820.3
18820.2
18820
18819.9
18819.8
18819.6
18819.5
18819.3
18819.2
18819.1
18818.9
18818.8
18818.7
18818.5
18818.4
18818.2
18818.1
18818
18817.8
18817.7
18817.6
18817.4
18817.3
18817.1
18817
18816.9
18816.7
18816.6
18816.4
18816.3
18816.2
18816
18815.9
18815.8
18815.6
18815.5
18815.3
18815.2
18815.1
18814.9
18814.8
18814.6
18814.5
18814.4
18814.2
18814.1
18814
18813.8
18813.7
18813.5
18813.4
18813.3
18813.1
18813
18812.8
18812.7
18812.6
18812.4
18812.3
18812.1
18812
18811.9
18811.7
18811.6
18811.4
18811.3
18811.2
18811
18810.9
18810.7
18810.6
18810.5
18810.3
18810.2
18810
18809.9
18809.8
18809.6
18809.5
18809.3
18809.2
18809
18808.9
18808.8
18808.6
18808.5
18808.3
18808.2
18808.1
18807.9
18807.8
18807.6
18807.5
18807.4
18807.2
18807.1
18806.9
18806.8
18806.6
18806.5
18806.4
18806.2
18806.1
18805.9
18805.8
18805.7
18805.5
18805.4
18805.2
18805.1
18804.9
18804.8
18804.7
18804.5
18804.4
18804.2
18804.1
18803.9
18803.8
18803.7
18803.5
18803.4
18803.2
18803.1
18802.9
18802.8
18802.7
18802.5
18802.4
18802.2
18802.1
18801.9
18801.8
18801.7
18801.5
18801.4
18801.2
18801.1
18800.9
18800.8
18800.6
18800.5
18800.4
18800.2
18800.1
18799.9
18799.8
18799.6
18799.5
18799.3
18799.2
18799.1
18798.9
18798.8
18798.6
18798.5
18798.3
18798.2
18798
18797.9
18797.8
18797.6
18797.5
18797.3
18797.2
18797
18796.9
18796.7
18796.6
18796.5
18796.3
18796.2
18796
18795.9
18795.7
18795.6
18795.4
18795.3
18795.1
18795
18794.8
18794.7
18794.6
18794.4
18794.3
18794.1
18794
18793.8
18793.7
18793.5
18793.4
18793.2
18793.1
18792.9
18792.8
18792.7
18792.5
18792.4
18792.2
18792.1
18791.9
18791.8
18791.6
18791.5
18791.3
18791.2
18791
18790.9
18790.7
18790.6
18790.4
18790.3
18790.2
18790
18789.9
18789.7
18789.6
18789.4
18789.3
18789.1
18789
18788.8
18788.7
18788.5
18788.4
18788.2
18788.1
18787.9
18787.8
18787.6
18787.5
18787.3
18787.2
18787
18786.9
18786.7
18786.6
18786.5
18786.3
18786.2
18786
18785.9
18785.7
18785.6
18785.4
18785.3
18785.1
18785
18784.8
18784.7
18784.5
18784.4
18784.2
18784.1
18783.9
18783.8
18783.6
18783.5
18783.3
18783.2
18783
18782.9
18782.7
18782.6
18782.4
18782.3
18782.1
18782
18781.8
18781.7
18781.5
18781.4
18781.2
18781.1
18780.9
18780.8
18780.6
18780.5
18780.3
18780.2
18780
18779.9
18779.7
18779.6
18779.4
18779.3
18779.1
18778.9
18778.8
18778.6
18778.5
18778.3
18778.2
18778
18777.9
18777.7
18777.6
18777.4
18777.3
18777.1
18777
18776.8
18776.7
18776.5
18776.4
18776.2
18776.1
18775.9
18775.8
18775.6
18775.5
18775.3
18775.2
18775
18774.8
18774.7
18774.5
18774.4
18774.2
18774.1
18773.9
18773.8
18773.6
18773.5
18773.3
18773.2
18773
18772.9
18772.7
18772.6
18772.4
18772.2
18772.1
18771.9
18771.8
18771.6
18771.5
18771.3
18771.2
18771
18770.9
18770.7
18770.6
18770.4
18770.2
18770.1
18769.9
18769.8
18769.6
18769.5
18769.3
18769.2
18769
18768.9
18768.7
18768.5
18768.4
18768.2
18768.1
18767.9
18767.8
18767.6
18767.5
18767.3
18767.2
18767
18766.8
18766.7
18766.5
18766.4
18766.2
18766.1
18765.9
18765.8
18765.6
18765.4
18765.3
18765.1
18765
18764.8
18764.7
18764.5
18764.3
18764.2
18764
18763.9
18763.7
18763.6
18763.4
18763.3
18763.1
18762.9
18762.8
18762.6
18762.5
18762.3
18762.2
18762
18761.8
18761.7
18761.5
18761.4
18761.2
18761.1
18760.9
18760.7
18760.6
18760.4
18760.3
18760.1
18760
18759.8
18759.6
18759.5
18759.3
18759.2
18759
18758.9
18758.7
18758.5
18758.4
18758.2
18758.1
18757.9
18757.7
18757.6
18757.4
18757.3
18757.1
18757
18756.8
18756.6
18756.5
18756.3
18756.2
18756
18755.8
18755.7
18755.5
18755.4
18755.2
18755.1
18754.9
18754.7
18754.6
18754.4
18754.3
18754.1
18753.9
18753.8
18753.6
18753.5
18753.3
18753.1
18753
18752.8
18752.7
18752.5
18752.3
18752.2
18752
18751.9
18751.7
18751.5
18751.4
18751.2
18751.1
18750.9
18750.7
18750.6
18750.4
18750.3
18750.1
18749.9
18749.8
18749.6
18749.5
18749.3
18749.1
18749
18748.8
18748.6
18748.5
18748.3
18748.2
18748
18747.8
18747.7
18747.5
18747.4
18747.2
18747
18746.9
18746.7
18746.5
18746.4
18746.2
18746.1
18745.9
18745.7
18745.6
18745.4
18745.2
18745.1
18744.9
18744.8
18744.6
18744.4
18744.3
18744.1
18744
18743.8
18743.6
18743.5
18743.3
18743.1
18743
18742.8
18742.6
18742.5
18742.3
18742.2
18742
18741.8
18741.7
18741.5
18741.3
18741.2
18741
18740.9
18740.7
18740.5
18740.4
18740.2
18740
18739.9
18739.7
18739.5
18739.4
18739.2
18739
18738.9
18738.7
18738.6
18738.4
18738.2
18738.1
18737.9
18737.7
18737.6
18737.4
18737.2
18737.1
18736.9
18736.7
18736.6
18736.4
18736.3
18736.1
18735.9
18735.8
18735.6
18735.4
18735.3
18735.1
18734.9
18734.8
18734.6
18734.4
18734.3
18734.1
18733.9
18733.8
18733.6
18733.4
18733.3
18733.1
18732.9
18732.8
18732.6
18732.4
18732.3
18732.1
18731.9
18731.8
18731.6
18731.4
18731.3
18731.1
18730.9
18730.8
18730.6
18730.4
18730.3
18730.1
18729.9
18729.8
18729.6
18729.4
18729.3
18729.1
18728.9
18728.8
18728.6
18728.4
18728.3
18728.1
18727.9
18727.8
18727.6
18727.4
18727.3
18727.1
18726.9
18726.8
18726.6
18726.4
18726.3
18726.1
18725.9
18725.8
18725.6
18725.4
18725.2
18725.1
18724.9
18724.7
18724.6
18724.4
18724.2
18724.1
18723.9
18723.7
18723.6
18723.4
18723.2
18723.1
18722.9
18722.7
18722.5
18722.4
18722.2
18722
18721.9
18721.7
18721.5
18721.4
18721.2
18721
18720.8
18720.7
18720.5
18720.3
18720.2
18720
18719.8
18719.7
18719.5
18719.3
18719.1
18719
18718.8
18718.6
18718.5
18718.3
18718.1
18718
18717.8
18717.6
18717.4
18717.3
18717.1
18716.9
18716.8
18716.6
18716.4
18716.2
18716.1
18715.9
18715.7
18715.6
18715.4
18715.2
18715
18714.9
18714.7
18714.5
18714.4
18714.2
18714
18713.8
18713.7
18713.5
18713.3
18713.2
18713
18712.8
18712.6
18712.5
18712.3
18712.1
18712
18711.8
18711.6
18711.4
18711.3
18711.1
18710.9
18710.7
18710.6
18710.4
18710.2
18710.1
18709.9
18709.7
18709.5
18709.4
18709.2
18709
18708.8
18708.7
18708.5
18708.3
18708.1
18708
18707.8
18707.6
18707.5
18707.3
18707.1
18706.9
18706.8
18706.6
18706.4
18706.2
18706.1
18705.9
18705.7
18705.5
18705.4
18705.2
18705
18704.8
18704.7
18704.5
18704.3
18704.1
18704
18703.8
18703.6
18703.4
18703.3
18703.1
18702.9
18702.7
18702.6
18702.4
18702.2
18702
18701.9
18701.7
18701.5
18701.3
18701.2
18701
18700.8
18700.6
18700.5
18700.3
18700.1
18699.9
18699.8
18699.6
18699.4
18699.2
18699
18698.9
18698.7
18698.5
18698.3
18698.2
18698
18697.8
18697.6
18697.5
18697.3
18697.1
18696.9
18696.8
18696.6
18696.4
18696.2
18696
18695.9
18695.7
18695.5
18695.3
18695.2
18695
18694.8
18694.6
18694.4
18694.3
18694.1
18693.9
18693.7
18693.6
18693.4
18693.2
18693
18692.8
18692.7
18692.5
18692.3
18692.1
18692
18691.8
18691.6
18691.4
18691.2
18691.1
18690.9
18690.7
18690.5
18690.3
18690.2
18690
18689.8
18689.6
18689.5
18689.3
18689.1
18688.9
18688.7
18688.6
18688.4
18688.2
18688
18687.8
18687.7
18687.5
18687.3
18687.1
18686.9
18686.8
18686.6
18686.4
18686.2
18686
18685.9
18685.7
18685.5
18685.3
18685.1
18685
18684.8
18684.6
18684.4
18684.2
18684.1
18683.9
18683.7
18683.5
18683.3
18683.2
18683
18682.8
18682.6
18682.4
18682.3
18682.1
18681.9
18681.7
18681.5
18681.3
18681.2
18681
18680.8
18680.6
18680.4
18680.3
18680.1
18679.9
18679.7
18679.5
18679.3
18679.2
18679
18678.8
18678.6
18678.4
18678.3
18678.1
18677.9
18677.7
18677.5
18677.3
18677.2
18677
18676.8
18676.6
18676.4
18676.2
18676.1
18675.9
18675.7
18675.5
18675.3
18675.1
18675
18674.8
18674.6
18674.4
18674.2
18674
18673.9
18673.7
18673.5
18673.3
18673.1
18672.9
18672.8
18672.6
18672.4
18672.2
18672
18671.8
18671.7
18671.5
18671.3
18671.1
18670.9
18670.7
18670.6
18670.4
18670.2
18670
18669.8
18669.6
18669.4
18669.3
18669.1
18668.9
18668.7
18668.5
18668.3
18668.1
18668
18667.8
18667.6
18667.4
18667.2
18667
18666.9
18666.7
18666.5
18666.3
18666.1
18665.9
18665.7
18665.6
18665.4
18665.2
18665
18664.8
18664.6
18664.4
18664.2
18664.1
18663.9
18663.7
18663.5
18663.3
18663.1
18662.9
18662.8
18662.6
18662.4
18662.2
18662
18661.8
18661.6
18661.4
18661.3
18661.1
18660.9
18660.7
18660.5
18660.3
18660.1
18660
18659.8
18659.6
18659.4
18659.2
18659
18658.8
18658.6
18658.4
18658.3
18658.1
18657.9
18657.7
18657.5
18657.3
18657.1
18656.9
18656.8
18656.6
18656.4
18656.2
18656
18655.8
18655.6
18655.4
18655.2
18655.1
18654.9
18654.7
18654.5
18654.3
18654.1
18653.9
18653.7
18653.5
18653.4
18653.2
18653
18652.8
18652.6
18652.4
18652.2
18652
18651.8
18651.7
18651.5
18651.3
18651.1
18650.9
18650.7
18650.5
18650.3
18650.1
18649.9
18649.8
18649.6
18649.4
18649.2
18649
18648.8
18648.6
18648.4
18648.2
18648
18647.8
18647.7
18647.5
18647.3
18647.1
18646.9
18646.7
18646.5
18646.3
18646.1
18645.9
18645.7
18645.6
18645.4
18645.2
18645
18644.8
18644.6
18644.4
18644.2
18644
18643.8
18643.6
18643.4
18643.3
18643.1
18642.9
18642.7
18642.5
18642.3
18642.1
18641.9
18641.7
18641.5
18641.3
18641.1
18640.9
18640.8
18640.6
18640.4
18640.2
18640
18639.8
18639.6
18639.4
18639.2
18639
18638.8
18638.6
18638.4
18638.2
18638.1
18637.9
18637.7
18637.5
18637.3
18637.1
18636.9
18636.7
18636.5
18636.3
18636.1
18635.9
18635.7
18635.5
18635.3
18635.1
18635
18634.8
18634.6
18634.4
18634.2
18634
18633.8
18633.6
18633.4
18633.2
18633
18632.8
18632.6
18632.4
18632.2
18632
18631.8
18631.6
18631.4
18631.2
18631.1
18630.9
18630.7
18630.5
18630.3
18630.1
18629.9
18629.7
18629.5
18629.3
18629.1
18628.9
18628.7
18628.5
18628.3
18628.1
18627.9
18627.7
18627.5
18627.3
18627.1
18626.9
18626.7
18626.5
18626.4
18626.2
18626
18625.8
18625.6
18625.4
18625.2
18625
18624.8
18624.6
18624.4
18624.2
18624
18623.8
18623.6
18623.4
18623.2
18623
18622.8
18622.6
18622.4
18622.2
18622
18621.8
18621.6
18621.4
18621.2
18621
18620.8
18620.6
18620.4
18620.2
18620
18619.8
18619.6
18619.4
18619.2
18619
18618.8
18618.6
18618.4
18618.3
18618.1
18617.9
18617.7
18617.5
18617.3
18617.1
18616.9
18616.7
18616.5
18616.3
18616.1
18615.9
18615.7
18615.5
18615.3
18615.1
18614.9
18614.7
18614.5
18614.3
18614.1
18613.9
18613.7
18613.5
18613.3
18613.1
18612.9
18612.7
18612.5
18612.3
18612.1
18611.9
18611.7
18611.5
18611.3
18611.1
18610.9
18610.7
18610.5
18610.3
18610.1
18609.9
18609.7
18609.5
18609.3
18609.1
18608.9
18608.7
18608.5
18608.3
18608
18607.8
18607.6
18607.4
18607.2
18607
18606.8
18606.6
18606.4
18606.2
18606
18605.8
18605.6
18605.4
18605.2
18605
18604.8
18604.6
18604.4
18604.2
18604
18603.8
18603.6
18603.4
18603.2
18603
18602.8
18602.6
18602.4
18602.2
18602
18601.8
18601.6
18601.4
18601.2
18601
18600.8
18600.6
18600.4
18600.2
18600
18599.8
18599.5
18599.3
18599.1
18598.9
18598.7
18598.5
18598.3
18598.1
18597.9
18597.7
18597.5
18597.3
18597.1
18596.9
18596.7
18596.5
18596.3
18596.1
18595.9
18595.7
18595.5
18595.3
18595.1
18594.9
18594.6
18594.4
18594.2
18594
18593.8
18593.6
18593.4
18593.2
18593
18592.8
18592.6
18592.4
18592.2
18592
18591.8
18591.6
18591.4
18591.2
18591
18590.7
18590.5
18590.3
18590.1
18589.9
18589.7
18589.5
18589.3
18589.1
18588.9
18588.7
18588.5
18588.3
18588.1
18587.9
18587.7
18587.4
18587.2
18587
18586.8
18586.6
18586.4
18586.2
18586
18585.8
18585.6
18585.4
18585.2
18585
18584.8
18584.6
18584.3
18584.1
18583.9
18583.7
18583.5
18583.3
18583.1
18582.9
18582.7
18582.5
18582.3
18582.1
18581.9
18581.6
18581.4
18581.2
18581
18580.8
18580.6
18580.4
18580.2
18580
18579.8
18579.6
18579.4
18579.1
18578.9
18578.7
18578.5
18578.3
18578.1
18577.9
18577.7
18577.5
18577.3
18577.1
18576.8
18576.6
18576.4
18576.2
18576
18575.8
18575.6
18575.4
18575.2
18575
18574.8
18574.5
18574.3
18574.1
18573.9
18573.7
18573.5
18573.3
18573.1
18572.9
18572.7
18572.4
18572.2
18572
18571.8
18571.6
18571.4
18571.2
18571
18570.8
18570.5
18570.3
18570.1
18569.9
18569.7
18569.5
18569.3
18569.1
18568.9
18568.6
18568.4
18568.2
18568
18567.8
18567.6
18567.4
18567.2
18567
18566.7
18566.5
18566.3
18566.1
18565.9
18565.7
18565.5
18565.3
18565
18564.8
18564.6
18564.4
18564.2
18564
18563.8
18563.6
18563.4
18563.1
18562.9
18562.7
18562.5
18562.3
18562.1
18561.9
18561.6
18561.4
18561.2
18561
18560.8
18560.6
18560.4
18560.2
18559.9
18559.7
18559.5
18559.3
18559.1
18558.9
18558.7
18558.4
18558.2
18558
18557.8
18557.6
18557.4
18557.2
18557
18556.7
18556.5
18556.3
18556.1
18555.9
18555.7
18555.5
18555.2
18555
18554.8
18554.6
18554.4
18554.2
18553.9
18553.7
18553.5
18553.3
18553.1
18552.9
18552.7
18552.4
18552.2
18552
18551.8
18551.6
18551.4
18551.2
18550.9
18550.7
18550.5
18550.3
18550.1
18549.9
18549.6
18549.4
18549.2
18549
18548.8
18548.6
18548.3
18548.1
18547.9
18547.7
18547.5
18547.3
18547
18546.8
18546.6
18546.4
18546.2
18546
18545.7
18545.5
18545.3
18545.1
18544.9
18544.7
18544.4
18544.2
18544
18543.8
18543.6
18543.4
18543.1
18542.9
18542.7
18542.5
18542.3
18542.1
18541.8
18541.6
18541.4
18541.2
18541
18540.8
18540.5
18540.3
18540.1
18539.9
18539.7
18539.4
18539.2
18539
18538.8
18538.6
18538.3
18538.1
18537.9
18537.7
18537.5
18537.3
18537
18536.8
18536.6
18536.4
18536.2
18535.9
18535.7
18535.5
18535.3
18535.1
18534.8
18534.6
18534.4
18534.2
18534
18533.8
18533.5
18533.3
18533.1
18532.9
18532.7
18532.4
18532.2
18532
18531.8
18531.6
18531.3
18531.1
18530.9
18530.7
18530.5
18530.2
18530
18529.8
18529.6
18529.3
18529.1
18528.9
18528.7
18528.5
18528.2
18528
18527.8
18527.6
18527.4
18527.1
18526.9
18526.7
18526.5
18526.3
18526
18525.8
18525.6
18525.4
18525.1
18524.9
18524.7
18524.5
18524.3
18524
18523.8
18523.6
18523.4
18523.2
18522.9
18522.7
18522.5
18522.3
18522
18521.8
18521.6
18521.4
18521.2
18520.9
18520.7
18520.5
18520.3
18520
18519.8
18519.6
18519.4
18519.1
18518.9
18518.7
18518.5
18518.3
18518
18517.8
18517.6
18517.4
18517.1
18516.9
18516.7
18516.5
18516.2
18516
18515.8
18515.6
18515.4
18515.1
18514.9
18514.7
18514.5
18514.2
18514
18513.8
18513.6
18513.3
18513.1
18512.9
18512.7
18512.4
18512.2
18512
18511.8
18511.5
18511.3
18511.1
18510.9
18510.6
18510.4
18510.2
18510
18509.7
18509.5
18509.3
18509.1
18508.8
18508.6
18508.4
18508.2
18507.9
18507.7
18507.5
18507.3
18507
18506.8
18506.6
18506.4
18506.1
18505.9
18505.7
18505.5
18505.2
18505
18504.8
18504.6
18504.3
18504.1
18503.9
18503.6
18503.4
18503.2
18503
18502.7
18502.5
18502.3
18502.1
18501.8
18501.6
18501.4
18501.2
18500.9
18500.7
18500.5
18500.2
18500
18499.8
18499.6
18499.3
18499.1
18498.9
18498.7
18498.4
18498.2
18498
18497.7
18497.5
18497.3
18497.1
18496.8
18496.6
18496.4
18496.1
18495.9
18495.7
18495.5
18495.2
18495
18494.8
18494.5
18494.3
18494.1
18493.9
18493.6
18493.4
18493.2
18492.9
18492.7
18492.5
18492.3
18492
18491.8
18491.6
18491.3
18491.1
18490.9
18490.7
18490.4
18490.2
18490
18489.7
18489.5
18489.3
18489.1
18488.8
18488.6
18488.4
18488.1
18487.9
18487.7
18487.4
18487.2
18487
18486.8
18486.5
18486.3
18486.1
18485.8
18485.6
18485.4
18485.1
18484.9
18484.7
18484.5
18484.2
18484
18483.8
18483.5
18483.3
18483.1
18482.8
18482.6
18482.4
18482.1
18481.9
18481.7
18481.4
18481.2
18481
18480.8
18480.5
18480.3
18480.1
18479.8
18479.6
18479.4
18479.1
18478.9
18478.7
18478.4
18478.2
18478
18477.7
18477.5
18477.3
18477
18476.8
18476.6
18476.3
18476.1
18475.9
18475.7
18475.4
18475.2
18475
18474.7
18474.5
18474.3
18474
18473.8
18473.6
18473.3
18473.1
18472.9
18472.6
18472.4
18472.2
18471.9
18471.7
18471.5
18471.2
18471
18470.8
18470.5
18470.3
18470.1
18469.8
18469.6
18469.4
18469.1
18468.9
18468.7
18468.4
18468.2
18468
18467.7
18467.5
18467.3
18467
18466.8
18466.5
18466.3
18466.1
18465.8
18465.6
18465.4
18465.1
18464.9
18464.7
18464.4
18464.2
18464
18463.7
18463.5
18463.3
18463
18462.8
18462.6
18462.3
18462.1
18461.9
18461.6
18461.4
18461.1
18460.9
18460.7
18460.4
18460.2
18460
18459.7
18459.5
18459.3
18459
18458.8
18458.6
18458.3
18458.1
18457.8
18457.6
18457.4
18457.1
18456.9
18456.7
18456.4
18456.2
18456
18455.7
18455.5
18455.2
18455
18454.8
18454.5
18454.3
18454.1
18453.8
18453.6
18453.3
18453.1
18452.9
18452.6
18452.4
18452.2
18451.9
18451.7
18451.5
18451.2
18451
18450.7
18450.5
18450.3
18450
18449.8
18449.5
18449.3
18449.1
18448.8
18448.6
18448.4
18448.1
18447.9
18447.6
18447.4
18447.2
18446.9
18446.7
18446.5
18446.2
18446
18445.7
18445.5
18445.3
18445
18444.8
18444.5
18444.3
18444.1
18443.8
18443.6
18443.3
18443.1
18442.9
18442.6
18442.4
18442.2
18441.9
18441.7
18441.4
18441.2
18441
18440.7
18440.5
18440.2
18440
18439.8
18439.5
18439.3
18439
18438.8
18438.6
18438.3
18438.1
18437.8
18437.6
18437.4
18437.1
18436.9
18436.6
18436.4
18436.2
18435.9
18435.7
18435.4
18435.2
18435
18434.7
18434.5
18434.2
18434
18433.7
18433.5
18433.3
18433
18432.8
18432.5
18432.3
18432.1
18431.8
18431.6
18431.3
18431.1
18430.9
18430.6
18430.4
18430.1
18429.9
18429.6
18429.4
18429.2
18428.9
18428.7
18428.4
18428.2
18428
18427.7
18427.5
18427.2
18427
18426.7
18426.5
18426.3
18426
18425.8
18425.5
18425.3
18425
18424.8
18424.6
18424.3
18424.1
18423.8
18423.6
18423.3
18423.1
18422.9
18422.6
18422.4
18422.1
18421.9
18421.6
18421.4
18421.2
18420.9
18420.7
18420.4
18420.2
18419.9
18419.7
18419.5
18419.2
18419
18418.7
18418.5
18418.2
18418
18417.7
18417.5
18417.3
18417
18416.8
18416.5
18416.3
18416
18415.8
18415.5
18415.3
18415.1
18414.8
18414.6
18414.3
18414.1
18413.8
18413.6
18413.3
18413.1
18412.9
18412.6
18412.4
18412.1
18411.9
18411.6
18411.4
18411.1
18410.9
18410.7
18410.4
18410.2
18409.9
18409.7
18409.4
18409.2
18408.9
18408.7
18408.4
18408.2
18408
18407.7
18407.5
18407.2
18407
18406.7
18406.5
18406.2
18406
18405.7
18405.5
18405.2
18405
18404.8
18404.5
18404.3
18404
18403.8
18403.5
18403.3
18403
18402.8
18402.5
18402.3
18402
18401.8
18401.5
18401.3
18401.1
18400.8
18400.6
18400.3
18400.1
18399.8
18399.6
18399.3
18399.1
18398.8
18398.6
18398.3
18398.1
18397.8
18397.6
18397.3
18397.1
18396.8
18396.6
18396.4
18396.1
18395.9
18395.6
18395.4
18395.1
18394.9
18394.6
18394.4
18394.1
18393.9
18393.6
18393.4
18393.1
18392.9
18392.6
18392.4
18392.1
18391.9
18391.6
18391.4
18391.1
18390.9
18390.6
18390.4
18390.1
18389.9
18389.6
18389.4
18389.1
18388.9
18388.6
18388.4
18388.2
18387.9
18387.7
18387.4
18387.2
18386.9
18386.7
18386.4
18386.2
18385.9
18385.7
18385.4
18385.2
18384.9
18384.7
18384.4
18384.2
18383.9
18383.7
18383.4
18383.2
18382.9
18382.7
18382.4
18382.2
18381.9
18381.7
18381.4
18381.2
18380.9
18380.7
18380.4
18380.2
18379.9
18379.7
18379.4
18379.2
18378.9
18378.7
18378.4
18378.1
18377.9
18377.6
18377.4
18377.1
18376.9
18376.6
18376.4
18376.1
18375.9
18375.6
18375.4
18375.1
18374.9
18374.6
18374.4
18374.1
18373.9
18373.6
18373.4
18373.1
18372.9
18372.6
18372.4
18372.1
18371.9
18371.6
18371.4
18371.1
18370.9
18370.6
18370.4
18370.1
18369.8
18369.6
18369.3
18369.1
18368.8
18368.6
18368.3
18368.1
18367.8
18367.6
18367.3
18367.1
18366.8
18366.6
18366.3
18366.1
18365.8
18365.6
18365.3
18365
18364.8
18364.5
18364.3
18364
18363.8
18363.5
18363.3
18363
18362.8
18362.5
18362.3
18362
18361.8
18361.5
18361.3
18361
18360.7
18360.5
18360.2
18360
18359.7
18359.5
18359.2
18359
18358.7
18358.5
18358.2
18358
18357.7
18357.4
18357.2
18356.9
18356.7
18356.4
18356.2
18355.9
18355.7
18355.4
18355.2
18354.9
18354.6
18354.4
18354.1
18353.9
18353.6
18353.4
18353.1
18352.9
18352.6
18352.4
18352.1
18351.8
18351.6
18351.3
18351.1
18350.8
18350.6
18350.3
18350.1
18349.8
18349.6
18349.3
18349
18348.8
18348.5
18348.3
18348
18347.8
18347.5
18347.3
18347
18346.7
18346.5
18346.2
18346
18345.7
18345.5
18345.2
18345
18344.7
18344.4
18344.2
18343.9
18343.7
18343.4
18343.2
18342.9
18342.6
18342.4
18342.1
18341.9
18341.6
18341.4
18341.1
18340.9
18340.6
18340.3
18340.1
18339.8
18339.6
18339.3
18339.1
18338.8
18338.5
18338.3
18338
18337.8
18337.5
18337.3
18337
18336.8
18336.5
18336.2
18336
18335.7
18335.5
18335.2
18335
18334.7
18334.4
18334.2
18333.9
18333.7
18333.4
18333.2
18332.9
18332.6
18332.4
18332.1
18331.9
18331.6
18331.3
18331.1
18330.8
18330.6
18330.3
18330.1
18329.8
18329.5
18329.3
18329
18328.8
18328.5
18328.3
18328
18327.7
18327.5
18327.2
18327
18326.7
18326.5
18326.2
18325.9
18325.7
18325.4
18325.2
18324.9
18324.6
18324.4
18324.1
18323.9
18323.6
18323.4
18323.1
18322.8
18322.6
18322.3
18322.1
18321.8
18321.5
18321.3
18321
18320.8
18320.5
18320.2
18320
18319.7
18319.5
18319.2
18319
18318.7
18318.4
18318.2
18317.9
18317.7
18317.4
18317.1
18316.9
18316.6
18316.4
18316.1
18315.8
18315.6
18315.3
18315.1
18314.8
18314.5
18314.3
18314
18313.8
18313.5
18313.2
18313
18312.7
18312.5
18312.2
18312
18311.7
18311.4
18311.2
18310.9
18310.7
18310.4
18310.1
18309.9
18309.6
18309.4
18309.1
18308.8
18308.6
18308.3
18308.1
18307.8
18307.5
18307.3
18307
18306.8
18306.5
18306.2
18306
18305.7
18305.5
18305.2
18304.9
18304.7
18304.4
18304.2
18303.9
18303.6
18303.4
18303.1
18302.8
18302.6
18302.3
18302.1
18301.8
18301.5
18301.3
18301
18300.8
18300.5
18300.2
18300
18299.7
18299.5
18299.2
18298.9
18298.7
18298.4
18298.2
18297.9
18297.6
18297.4
18297.1
18296.9
18296.6
18296.3
18296.1
18295.8
18295.5
18295.3
18295
18294.8
18294.5
18294.2
18294
18293.7
18293.5
18293.2
18292.9
18292.7
18292.4
18292.2
18291.9
18291.6
18291.4
18291.1
18290.8
18290.6
18290.3
18290.1
18289.8
18289.5
18289.3
18289
18288.8
18288.5
18288.2
18288
18287.7
18287.4
18287.2
18286.9
18286.7
18286.4
18286.1
18285.9
18285.6
18285.4
18285.1
18284.8
18284.6
18284.3
18284
18283.8
18283.5
18283.3
18283
18282.7
18282.5
18282.2
18281.9
18281.7
18281.4
18281.2
18280.9
18280.6
18280.4
18280.1
18279.9
18279.6
18279.3
18279.1
18278.8
18278.5
18278.3
18278
18277.8
18277.5
18277.2
18277
18276.7
18276.4
18276.2
18275.9
18275.7
18275.4
18275.1
18274.9
18274.6
18274.4
18274.1
18273.8
18273.6
18273.3
18273
18272.8
18272.5
18272.3
18272
18271.7
18271.5
18271.2
18270.9
18270.7
18270.4
18270.2
18269.9
18269.6
18269.4
18269.1
18268.8
18268.6
18268.3
18268.1
18267.8
18267.5
18267.3
18267
18266.7
18266.5
18266.2
18266
18265.7
18265.4
18265.2
18264.9
18264.6
18264.4
18264.1
18263.9
18263.6
18263.3
18263.1
18262.8
18262.6
18262.3
18262
18261.8
18261.5
18261.2
18261
18260.7
18260.5
18260.2
18259.9
18259.7
18259.4
18259.1
18258.9
18258.6
18258.4
18258.1
18257.8
18257.6
18257.3
18257
18256.8
18256.5
18256.3
18256
18255.7
18255.5
18255.2
18254.9
18254.7
18254.4
18254.2
18253.9
18253.6
18253.4
18253.1
18252.8
18252.6
18252.3
18252.1
18251.8
18251.5
18251.3
18251
18250.8
18250.5
18250.2
18250
18249.7
18249.4
18249.2
18248.9
18248.7
18248.4
18248.1
18247.9
18247.6
18247.3
18247.1
18246.8
18246.6
18246.3
18246
18245.8
18245.5
18245.3
18245
18244.7
18244.5
18244.2
18243.9
18243.7
18243.4
18243.2
18242.9
18242.6
18242.4
18242.1
18241.9
18241.6
18241.3
18241.1
18240.8
18240.5
18240.3
18240
18239.8
18239.5
18239.2
18239
18238.7
18238.5
18238.2
18237.9
18237.7
18237.4
18237.1
18236.9
18236.6
18236.4
18236.1
18235.8
18235.6
18235.3
18235.1
18234.8
18234.5
18234.3
18234
18233.8
18233.5
18233.2
18233
18232.7
18232.5
18232.2
18231.9
18231.7
18231.4
18231.2
18230.9
18230.6
18230.4
18230.1
18229.9
18229.6
18229.3
18229.1
18228.8
18228.5
18228.3
18228
18227.8
18227.5
18227.3
18227
18226.7
18226.5
18226.2
18226
18225.7
18225.4
18225.2
18224.9
18224.7
18224.4
18224.1
18223.9
18223.6
18223.4
18223.1
18222.8
18222.6
18222.3
18222.1
18221.8
18221.5
18221.3
18221
18220.8
18220.5
18220.3
18220
18219.7
18219.5
18219.2
18219
18218.7
18218.4
18218.2
18217.9
18217.7
18217.4
18217.2
18216.9
18216.6
18216.4
18216.1
18215.9
18215.6
18215.3
18215.1
18214.8
18214.6
18214.3
18214.1
18213.8
18213.5
18213.3
18213
18212.8
18212.5
18212.3
18212
18211.7
18211.5
18211.2
18211
18210.7
18210.5
18210.2
18210
18209.7
18209.4
18209.2
18208.9
18208.7
18208.4
18208.2
18207.9
18207.7
18207.4
18207.1
18206.9
18206.6
18206.4
18206.1
18205.9
18205.6
18205.4
18205.1
18204.8
18204.6
18204.3
18204.1
18203.8
18203.6
18203.3
18203.1
18202.8
18202.6
18202.3
18202.1
18201.8
18201.5
18201.3
18201
18200.8
18200.5
18200.3
18200
18199.8
18199.5
18199.3
18199
18198.8
18198.5
18198.3
18198
18197.8
18197.5
18197.2
18197
18196.7
18196.5
18196.2
18196
18195.7
18195.5
18195.2
18195
18194.7
18194.5
18194.2
18194
18193.7
18193.5
18193.2
18193
18192.7
18192.5
18192.2
18192
18191.7
18191.5
18191.2
18191
18190.7
18190.5
18190.2
18190
18189.7
18189.5
18189.2
18189
18188.8
18188.5
18188.3
18188
18187.8
18187.5
18187.3
18187
18186.8
18186.5
18186.3
18186
18185.8
18185.5
18185.3
18185.1
18184.8
18184.6
18184.3
18184.1
18183.8
18183.6
18183.3
18183.1
18182.8
18182.6
18182.4
18182.1
18181.9
18181.6
18181.4
18181.1
18180.9
18180.7
18180.4
18180.2
18179.9
18179.7
18179.4
18179.2
18179
18178.7
18178.5
18178.2
18178
18177.8
18177.5
18177.3
18177
18176.8
18176.6
18176.3
18176.1
18175.8
18175.6
18175.4
18175.1
18174.9
18174.6
18174.4
18174.2
18173.9
18173.7
18173.5
18173.2
18173
18172.7
18172.5
18172.3
18172
18171.8
18171.6
18171.3
18171.1
18170.9
18170.6
18170.4
18170.2
18169.9
18169.7
18169.5
18169.2
18169
18168.8
18168.5
18168.3
18168.1
18167.8
18167.6
18167.4
18167.1
18166.9
18166.7
18166.4
18166.2
18166
18165.7
18165.5
18165.3
18165.1
18164.8
18164.6
18164.4
18164.1
18163.9
18163.7
18163.5
18163.2
18163
18162.8
18162.6
18162.3
18162.1
18161.9
18161.7
18161.4
18161.2
18161
18160.8
18160.5
18160.3
18160.1
18159.9
18159.6
18159.4
18159.2
18159
18158.8
18158.5
18158.3
18158.1
18157.9
18157.7
18157.4
18157.2
18157
18156.8
18156.6
18156.4
18156.1
18155.9
18155.7
18155.5
18155.3
18155.1
18154.8
18154.6
18154.4
18154.2
18154
18153.8
18153.6
18153.4
18153.1
18152.9
18152.7
18152.5
18152.3
18152.1
18151.9
18151.7
18151.5
18151.3
18151
18150.8
18150.6
18150.4
18150.2
18150
18149.8
18149.6
18149.4
18149.2
18149
18148.8
18148.6
18148.4
18148.2
18148
18147.8
18147.6
18147.4
18147.2
18147
18146.8
18146.6
18146.4
18146.2
18146
18145.8
18145.6
18145.4
18145.2
18145
18144.8
18144.6
18144.4
18144.2
18144
18143.9
18143.7
18143.5
18143.3
18143.1
18142.9
18142.7
18142.5
18142.3
18142.2
18142
18141.8
18141.6
18141.4
18141.2
18141.1
18140.9
18140.7
18140.5
18140.3
18140.2
18140
18139.8
18139.6
18139.4
18139.3
18139.1
18138.9
18138.7
18138.6
18138.4
18138.2
18138
18137.9
18137.7
18137.5
18137.4
18137.2
18137
18136.9
18136.7
18136.5
18136.4
18136.2
18136
18135.9
18135.7
18135.5
18135.4
18135.2
18135.1
18134.9
18134.7
18134.6
18134.4
18134.3
18134.1
18134
18133.8
18133.7
18133.5
18133.4
18133.2
18133.1
18132.9
18132.8
18132.6
18132.5
18132.3
18132.2
18132
18131.9
18131.8
18131.6
18131.5
18131.3
18131.2
18131.1
18130.9
18130.8
18130.7
18130.5
18130.4
18130.3
18130.1
18130
18129.9
18129.8
18129.6
18129.5
18129.4
18129.3
18129.1
18129
18128.9
18128.8
18128.7
18128.5
18128.4
18128.3
18128.2
18128.1
18128
18127.9
18127.8
18127.7
18127.5
18127.4
18127.3
18127.2
18127.1
18127
18126.9
18126.8
18126.7
18126.6
18126.5
18126.5
18126.4
18126.3