/*--------------------------------*- C++ -*----------------------------------*\
  =========                 |
  \\      /  F ield         | OpenFOAM: The Open Source CFD Toolbox
   \\    /   O peration     | Website:  https://openfoam.org
    \\  /    A nd           | Version:  9
     \\/     M anipulation  |
\*---------------------------------------------------------------------------*/
FoamFile
{
    format      ascii;
    class       surfaceScalarField;
    location    "0.03";
    object      phi;
}
// * * * * * * * * * * * * * * * * * * * * * * * * * * * * * * * * * * * * * //

dimensions      [1 0 -1 0 0 0 0];

internalField   nonuniform List<scalar> 
9999
(
5.13391
5.18735
5.24079
5.29423
5.34766
5.4011
5.45453
5.50796
5.56138
5.61481
5.66823
5.72165
5.77507
5.82848
5.8819
5.93531
5.98872
6.04212
6.09553
6.14893
6.20234
6.25574
6.30914
6.36253
6.41591
6.4693
6.52269
6.57609
6.62948
6.68287
6.73625
6.78963
6.84299
6.89636
6.94972
7.00309
7.05647
7.10986
7.16324
7.21662
7.27
7.32336
7.37672
7.43006
7.4834
7.53672
7.59005
7.64338
7.69672
7.75007
7.80343
7.8568
7.91019
7.96359
8.01701
8.07044
8.12388
8.17733
8.23078
8.28424
8.3377
8.39117
8.44463
8.49809
8.55156
8.60503
8.65851
8.71198
8.76546
8.81894
8.87241
8.92589
8.97936
9.03284
9.08631
9.13979
9.19326
9.24674
9.30021
9.35368
9.40716
9.46063
9.5141
9.56758
9.62105
9.67452
9.72799
9.78146
9.83493
9.88841
9.94188
9.99535
10.0488
10.1023
10.1558
10.2092
10.2627
10.3162
10.3696
10.4231
10.4766
10.53
10.5835
10.637
10.6904
10.7439
10.7974
10.8508
10.9043
10.9578
11.0112
11.0647
11.1182
11.1716
11.2251
11.2786
11.332
11.3855
11.439
11.4924
11.5459
11.5994
11.6528
11.7063
11.7597
11.8132
11.8667
11.9201
11.9736
12.0271
12.0805
12.134
12.1874
12.2409
12.2944
12.3478
12.4013
12.4547
12.5082
12.5617
12.6151
12.6686
12.722
12.7755
12.829
12.8824
12.9359
12.9893
13.0428
13.0962
13.1497
13.2032
13.2566
13.3101
13.3635
13.417
13.4704
13.5239
13.5773
13.6308
13.6842
13.7377
13.7912
13.8446
13.8981
13.9515
14.005
14.0584
14.1119
14.1653
14.2188
14.2722
14.3257
14.3791
14.4326
14.486
14.5395
14.5929
14.6464
14.6998
14.7533
14.8067
14.8602
14.9136
14.9671
15.0205
15.074
15.1274
15.1808
15.2343
15.2877
15.3412
15.3946
15.4481
15.5015
15.555
15.6084
15.6619
15.7153
15.7687
15.8222
15.8756
15.9291
15.9825
16.036
16.0894
16.1428
16.1963
16.2497
16.3032
16.3566
16.41
16.4635
16.5169
16.5704
16.6238
16.6772
16.7307
16.7841
16.8376
16.891
16.9444
16.9979
17.0513
17.1047
17.1582
17.2116
17.2651
17.3185
17.3719
17.4254
17.4788
17.5322
17.5857
17.6391
17.6925
17.746
17.7994
17.8528
17.9063
17.9597
18.0131
18.0666
18.12
18.1734
18.2269
18.2803
18.3337
18.3871
18.4406
18.494
18.5474
18.6009
18.6543
18.7077
18.7612
18.8146
18.868
18.9214
18.9749
19.0283
19.0817
19.1351
19.1886
19.242
19.2954
19.3488
19.4023
19.4557
19.5091
19.5625
19.616
19.6694
19.7228
19.7762
19.8297
19.8831
19.9365
19.9899
20.0433
20.0968
20.1502
20.2036
20.257
20.3104
20.3639
20.4173
20.4707
20.5241
20.5775
20.631
20.6844
20.7378
20.7912
20.8446
20.898
20.9515
21.0049
21.0583
21.1117
21.1651
21.2185
21.2719
21.3254
21.3788
21.4322
21.4856
21.539
21.5924
21.6458
21.6992
21.7527
21.8061
21.8595
21.9129
21.9663
22.0197
22.0731
22.1265
22.1799
22.2333
22.2868
22.3402
22.3936
22.447
22.5004
22.5538
22.6072
22.6606
22.714
22.7674
22.8208
22.8742
22.9276
22.981
23.0344
23.0878
23.1412
23.1946
23.2481
23.3015
23.3549
23.4083
23.4617
23.5151
23.5685
23.6219
23.6753
23.7287
23.7821
23.8355
23.8889
23.9423
23.9957
24.0491
24.1025
24.1559
24.2092
24.2626
24.316
24.3694
24.4228
24.4762
24.5296
24.583
24.6364
24.6898
24.7432
24.7966
24.85
24.9034
24.9568
25.0102
25.0636
25.1169
25.1703
25.2237
25.2771
25.3305
25.3839
25.4373
25.4907
25.5441
25.5975
25.6508
25.7042
25.7576
25.811
25.8644
25.9178
25.9712
26.0246
26.0779
26.1313
26.1847
26.2381
26.2915
26.3449
26.3982
26.4516
26.505
26.5584
26.6118
26.6652
26.7185
26.7719
26.8253
26.8787
26.9321
26.9854
27.0388
27.0922
27.1456
27.199
27.2523
27.3057
27.3591
27.4125
27.4658
27.5192
27.5726
27.626
27.6793
27.7327
27.7861
27.8395
27.8928
27.9462
27.9996
28.053
28.1063
28.1597
28.2131
28.2665
28.3198
28.3732
28.4266
28.4799
28.5333
28.5867
28.64
28.6934
28.7468
28.8001
28.8535
28.9069
28.9602
29.0136
29.067
29.1203
29.1737
29.2271
29.2804
29.3338
29.3872
29.4405
29.4939
29.5473
29.6006
29.654
29.7073
29.7607
29.8141
29.8674
29.9208
29.9742
30.0275
30.0809
30.1342
30.1876
30.2409
30.2943
30.3477
30.401
30.4544
30.5077
30.5611
30.6144
30.6678
30.7212
30.7745
30.8279
30.8812
30.9346
30.9879
31.0413
31.0946
31.148
31.2013
31.2547
31.308
31.3614
31.4147
31.4681
31.5214
31.5748
31.6281
31.6815
31.7348
31.7882
31.8415
31.8949
31.9482
32.0016
32.0549
32.1083
32.1616
32.215
32.2683
32.3216
32.375
32.4283
32.4817
32.535
32.5884
32.6417
32.695
32.7484
32.8017
32.8551
32.9084
32.9617
33.0151
33.0684
33.1218
33.1751
33.2284
33.2818
33.3351
33.3884
33.4418
33.4951
33.5484
33.6018
33.6551
33.7085
33.7618
33.8151
33.8685
33.9218
33.9751
34.0284
34.0818
34.1351
34.1884
34.2418
34.2951
34.3484
34.4018
34.4551
34.5084
34.5617
34.6151
34.6684
34.7217
34.7751
34.8284
34.8817
34.935
34.9884
35.0417
35.095
35.1483
35.2016
35.255
35.3083
35.3616
35.4149
35.4683
35.5216
35.5749
35.6282
35.6815
35.7349
35.7882
35.8415
35.8948
35.9481
36.0014
36.0548
36.1081
36.1614
36.2147
36.268
36.3213
36.3747
36.428
36.4813
36.5346
36.5879
36.6412
36.6945
36.7478
36.8012
36.8545
36.9078
36.9611
37.0144
37.0677
37.121
37.1743
37.2276
37.2809
37.3343
37.3876
37.4409
37.4942
37.5475
37.6008
37.6541
37.7074
37.7607
37.814
37.8673
37.9206
37.9739
38.0272
38.0805
38.1338
38.1871
38.2404
38.2937
38.347
38.4003
38.4536
38.5069
38.5602
38.6135
38.6668
38.7201
38.7734
38.8267
38.88
38.9333
38.9866
39.0399
39.0932
39.1464
39.1997
39.253
39.3063
39.3596
39.4129
39.4662
39.5195
39.5728
39.6261
39.6794
39.7326
39.7859
39.8392
39.8925
39.9458
39.9991
40.0524
40.1057
40.1589
40.2122
40.2655
40.3188
40.3721
40.4254
40.4786
40.5319
40.5852
40.6385
40.6918
40.745
40.7983
40.8516
40.9049
40.9582
41.0114
41.0647
41.118
41.1713
41.2245
41.2778
41.3311
41.3844
41.4377
41.4909
41.5442
41.5975
41.6507
41.704
41.7573
41.8106
41.8638
41.9171
41.9704
42.0236
42.0769
42.1302
42.1835
42.2367
42.29
42.3433
42.3965
42.4498
42.5031
42.5563
42.6096
42.6628
42.7161
42.7694
42.8226
42.8759
42.9292
42.9824
43.0357
43.0889
43.1422
43.1955
43.2487
43.302
43.3552
43.4085
43.4618
43.515
43.5683
43.6215
43.6748
43.728
43.7813
43.8346
43.8878
43.9411
43.9943
44.0476
44.1008
44.1541
44.2073
44.2606
44.3138
44.3671
44.4203
44.4736
44.5268
44.5801
44.6333
44.6866
44.7398
44.7931
44.8463
44.8996
44.9528
45.006
45.0593
45.1125
45.1658
45.219
45.2723
45.3255
45.3787
45.432
45.4852
45.5385
45.5917
45.6449
45.6982
45.7514
45.8047
45.8579
45.9111
45.9644
46.0176
46.0708
46.1241
46.1773
46.2305
46.2838
46.337
46.3902
46.4435
46.4967
46.5499
46.6032
46.6564
46.7096
46.7629
46.8161
46.8693
46.9225
46.9758
47.029
47.0822
47.1355
47.1887
47.2419
47.2951
47.3484
47.4016
47.4548
47.508
47.5612
47.6145
47.6677
47.7209
47.7741
47.8274
47.8806
47.9338
47.987
48.0402
48.0934
48.1467
48.1999
48.2531
48.3063
48.3595
48.4127
48.466
48.5192
48.5724
48.6256
48.6788
48.732
48.7852
48.8384
48.8917
48.9449
48.9981
49.0513
49.1045
49.1577
49.2109
49.2641
49.3173
49.3705
49.4237
49.4769
49.5301
49.5833
49.6365
49.6897
49.7429
49.7962
49.8494
49.9026
49.9558
50.009
50.0622
50.1154
50.1686
50.2217
50.2749
50.3281
50.3813
50.4345
50.4877
50.5409
50.5941
50.6473
50.7005
50.7537
50.8069
50.8601
50.9133
50.9665
51.0197
51.0729
51.126
51.1792
51.2324
51.2856
51.3388
51.392
51.4452
51.4984
51.5515
51.6047
51.6579
51.7111
51.7643
51.8175
51.8706
51.9238
51.977
52.0302
52.0834
52.1365
52.1897
52.2429
52.2961
52.3493
52.4024
52.4556
52.5088
52.562
52.6151
52.6683
52.7215
52.7747
52.8278
52.881
52.9342
52.9874
53.0405
53.0937
53.1469
53.2
53.2532
53.3064
53.3595
53.4127
53.4659
53.5191
53.5722
53.6254
53.6785
53.7317
53.7849
53.838
53.8912
53.9444
53.9975
54.0507
54.1039
54.157
54.2102
54.2633
54.3165
54.3696
54.4228
54.476
54.5291
54.5823
54.6354
54.6886
54.7417
54.7949
54.8481
54.9012
54.9544
55.0075
55.0607
55.1138
55.167
55.2201
55.2733
55.3264
55.3796
55.4327
55.4859
55.539
55.5921
55.6453
55.6984
55.7516
55.8047
55.8579
55.911
55.9642
56.0173
56.0704
56.1236
56.1767
56.2299
56.283
56.3361
56.3893
56.4424
56.4956
56.5487
56.6018
56.655
56.7081
56.7612
56.8144
56.8675
56.9206
56.9738
57.0269
57.08
57.1332
57.1863
57.2394
57.2926
57.3457
57.3988
57.4519
57.5051
57.5582
57.6113
57.6644
57.7176
57.7707
57.8238
57.8769
57.9301
57.9832
58.0363
58.0894
58.1425
58.1957
58.2488
58.3019
58.355
58.4081
58.4613
58.5144
58.5675
58.6206
58.6737
58.7268
58.7799
58.8331
58.8862
58.9393
58.9924
59.0455
59.0986
59.1517
59.2048
59.2579
59.3111
59.3642
59.4173
59.4704
59.5235
59.5766
59.6297
59.6828
59.7359
59.789
59.8421
59.8952
59.9483
60.0014
60.0545
60.1076
60.1607
60.2138
60.2669
60.32
60.3731
60.4262
60.4793
60.5324
60.5855
60.6386
60.6917
60.7448
60.7979
60.851
60.904
60.9571
61.0102
61.0633
61.1164
61.1695
61.2226
61.2757
61.3288
61.3818
61.4349
61.488
61.5411
61.5942
61.6473
61.7004
61.7534
61.8065
61.8596
61.9127
61.9658
62.0188
62.0719
62.125
62.1781
62.2312
62.2842
62.3373
62.3904
62.4435
62.4965
62.5496
62.6027
62.6558
62.7088
62.7619
62.815
62.868
62.9211
62.9742
63.0272
63.0803
63.1334
63.1864
63.2395
63.2926
63.3456
63.3987
63.4518
63.5048
63.5579
63.611
63.664
63.7171
63.7701
63.8232
63.8763
63.9293
63.9824
64.0354
64.0885
64.1416
64.1946
64.2477
64.3007
64.3538
64.4068
64.4599
64.5129
64.566
64.619
64.6721
64.7251
64.7782
64.8312
64.8843
64.9373
64.9904
65.0434
65.0965
65.1495
65.2026
65.2556
65.3086
65.3617
65.4147
65.4678
65.5208
65.5739
65.6269
65.6799
65.733
65.786
65.839
65.8921
65.9451
65.9982
66.0512
66.1042
66.1573
66.2103
66.2633
66.3164
66.3694
66.4224
66.4754
66.5285
66.5815
66.6345
66.6876
66.7406
66.7936
66.8466
66.8997
66.9527
67.0057
67.0587
67.1118
67.1648
67.2178
67.2708
67.3238
67.3769
67.4299
67.4829
67.5359
67.5889
67.642
67.695
67.748
67.801
67.854
67.907
67.96
68.0131
68.0661
68.1191
68.1721
68.2251
68.2781
68.3311
68.3841
68.4371
68.4901
68.5431
68.5962
68.6492
68.7022
68.7552
68.8082
68.8612
68.9142
68.9672
69.0202
69.0732
69.1262
69.1792
69.2322
69.2852
69.3382
69.3912
69.4442
69.4972
69.5501
69.6031
69.6561
69.7091
69.7621
69.8151
69.8681
69.9211
69.9741
70.0271
70.0801
70.133
70.186
70.239
70.292
70.345
70.398
70.451
70.5039
70.5569
70.6099
70.6629
70.7159
70.7689
70.8218
70.8748
70.9278
70.9808
71.0337
71.0867
71.1397
71.1927
71.2456
71.2986
71.3516
71.4046
71.4575
71.5105
71.5635
71.6164
71.6694
71.7224
71.7754
71.8283
71.8813
71.9343
71.9872
72.0402
72.0931
72.1461
72.1991
72.252
72.305
72.358
72.4109
72.4639
72.5168
72.5698
72.6228
72.6757
72.7287
72.7816
72.8346
72.8875
72.9405
72.9934
73.0464
73.0993
73.1523
73.2052
73.2582
73.3111
73.3641
73.417
73.47
73.5229
73.5759
73.6288
73.6818
73.7347
73.7877
73.8406
73.8935
73.9465
73.9994
74.0524
74.1053
74.1582
74.2112
74.2641
74.3171
74.37
74.4229
74.4759
74.5288
74.5817
74.6347
74.6876
74.7405
74.7935
74.8464
74.8993
74.9522
75.0052
75.0581
75.111
75.164
75.2169
75.2698
75.3227
75.3757
75.4286
75.4815
75.5344
75.5873
75.6403
75.6932
75.7461
75.799
75.8519
75.9048
75.9578
76.0107
76.0636
76.1165
76.1694
76.2223
76.2752
76.3282
76.3811
76.434
76.4869
76.5398
76.5927
76.6456
76.6985
76.7514
76.8043
76.8572
76.9101
76.963
77.0159
77.0688
77.1217
77.1746
77.2275
77.2804
77.3333
77.3862
77.4391
77.492
77.5449
77.5978
77.6507
77.7036
77.7565
77.8094
77.8623
77.9152
77.9681
78.021
78.0739
78.1267
78.1796
78.2325
78.2854
78.3383
78.3912
78.4441
78.4969
78.5498
78.6027
78.6556
78.7085
78.7613
78.8142
78.8671
78.92
78.9729
79.0257
79.0786
79.1315
79.1844
79.2372
79.2901
79.343
79.3959
79.4487
79.5016
79.5545
79.6073
79.6602
79.7131
79.7659
79.8188
79.8717
79.9245
79.9774
80.0303
80.0831
80.136
80.1888
80.2417
80.2946
80.3474
80.4003
80.4531
80.506
80.5589
80.6117
80.6646
80.7174
80.7703
80.8231
80.876
80.9288
80.9817
81.0345
81.0874
81.1402
81.1931
81.2459
81.2988
81.3516
81.4045
81.4573
81.5102
81.563
81.6158
81.6687
81.7215
81.7744
81.8272
81.88
81.9329
81.9857
82.0386
82.0914
82.1442
82.1971
82.2499
82.3027
82.3556
82.4084
82.4612
82.5141
82.5669
82.6197
82.6725
82.7254
82.7782
82.831
82.8838
82.9367
82.9895
83.0423
83.0951
83.148
83.2008
83.2536
83.3064
83.3592
83.4121
83.4649
83.5177
83.5705
83.6233
83.6761
83.729
83.7818
83.8346
83.8874
83.9402
83.993
84.0458
84.0986
84.1514
84.2042
84.2571
84.3099
84.3627
84.4155
84.4683
84.5211
84.5739
84.6267
84.6795
84.7323
84.7851
84.8379
84.8907
84.9435
84.9963
85.0491
85.1019
85.1547
85.2074
85.2602
85.313
85.3658
85.4186
85.4714
85.5242
85.577
85.6298
85.6826
85.7353
85.7881
85.8409
85.8937
85.9465
85.9993
86.052
86.1048
86.1576
86.2104
86.2632
86.3159
86.3687
86.4215
86.4743
86.527
86.5798
86.6326
86.6854
86.7381
86.7909
86.8437
86.8964
86.9492
87.002
87.0547
87.1075
87.1603
87.213
87.2658
87.3186
87.3713
87.4241
87.4769
87.5296
87.5824
87.6351
87.6879
87.7407
87.7934
87.8462
87.8989
87.9517
88.0044
88.0572
88.1099
88.1627
88.2154
88.2682
88.3209
88.3737
88.4264
88.4792
88.5319
88.5847
88.6374
88.6902
88.7429
88.7956
88.8484
88.9011
88.9539
89.0066
89.0594
89.1121
89.1648
89.2176
89.2703
89.323
89.3758
89.4285
89.4812
89.534
89.5867
89.6394
89.6922
89.7449
89.7976
89.8503
89.9031
89.9558
90.0085
90.0612
90.114
90.1667
90.2194
90.2721
90.3249
90.3776
90.4303
90.483
90.5357
90.5884
90.6412
90.6939
90.7466
90.7993
90.852
90.9047
90.9574
91.0101
91.0629
91.1156
91.1683
91.221
91.2737
91.3264
91.3791
91.4318
91.4845
91.5372
91.5899
91.6426
91.6953
91.748
91.8007
91.8534
91.9061
91.9588
92.0115
92.0642
92.1169
92.1696
92.2223
92.275
92.3276
92.3803
92.433
92.4857
92.5384
92.5911
92.6438
92.6965
92.7491
92.8018
92.8545
92.9072
92.9599
93.0126
93.0652
93.1179
93.1706
93.2233
93.2759
93.3286
93.3813
93.434
93.4866
93.5393
93.592
93.6447
93.6973
93.75
93.8027
93.8553
93.908
93.9607
94.0133
94.066
94.1187
94.1713
94.224
94.2767
94.3293
94.382
94.4346
94.4873
94.5399
94.5926
94.6453
94.6979
94.7506
94.8032
94.8559
94.9085
94.9612
95.0138
95.0665
95.1191
95.1718
95.2244
95.2771
95.3297
95.3824
95.435
95.4876
95.5403
95.5929
95.6456
95.6982
95.7508
95.8035
95.8561
95.9088
95.9614
96.014
96.0667
96.1193
96.1719
96.2246
96.2772
96.3298
96.3825
96.4351
96.4877
96.5403
96.593
96.6456
96.6982
96.7508
96.8035
96.8561
96.9087
96.9613
97.0139
97.0666
97.1192
97.1718
97.2244
97.277
97.3296
97.3822
97.4349
97.4875
97.5401
97.5927
97.6453
97.6979
97.7505
97.8031
97.8557
97.9083
97.9609
98.0135
98.0662
98.1188
98.1714
98.224
98.2766
98.3292
98.3818
98.4343
98.4869
98.5395
98.5921
98.6447
98.6973
98.7499
98.8025
98.8551
98.9077
98.9603
99.0129
99.0654
99.118
99.1706
99.2232
99.2758
99.3284
99.381
99.4335
99.4861
99.5387
99.5913
99.6439
99.6964
99.749
99.8016
99.8542
99.9067
99.9593
100.012
100.064
100.117
100.17
100.222
100.275
100.327
100.38
100.432
100.485
100.538
100.59
100.643
100.695
100.748
100.8
100.853
100.905
100.958
101.011
101.063
101.116
101.168
101.221
101.273
101.326
101.378
101.431
101.484
101.536
101.589
101.641
101.694
101.746
101.799
101.851
101.904
101.956
102.009
102.062
102.114
102.167
102.219
102.272
102.324
102.377
102.429
102.482
102.534
102.587
102.639
102.692
102.744
102.797
102.85
102.902
102.955
103.007
103.06
103.112
103.165
103.217
103.27
103.322
103.375
103.427
103.48
103.532
103.585
103.637
103.69
103.742
103.795
103.847
103.9
103.952
104.005
104.057
104.11
104.162
104.215
104.267
104.32
104.372
104.425
104.477
104.53
104.582
104.635
104.687
104.74
104.792
104.845
104.897
104.95
105.002
105.055
105.107
105.16
105.212
105.265
105.317
105.37
105.422
105.475
105.527
105.58
105.632
105.685
105.737
105.79
105.842
105.895
105.947
105.999
106.052
106.104
106.157
106.209
106.262
106.314
106.367
106.419
106.472
106.524
106.577
106.629
106.682
106.734
106.786
106.839
106.891
106.944
106.996
107.049
107.101
107.154
107.206
107.259
107.311
107.363
107.416
107.468
107.521
107.573
107.626
107.678
107.731
107.783
107.836
107.888
107.94
107.993
108.045
108.098
108.15
108.203
108.255
108.307
108.36
108.412
108.465
108.517
108.57
108.622
108.674
108.727
108.779
108.832
108.884
108.937
108.989
109.041
109.094
109.146
109.199
109.251
109.304
109.356
109.408
109.461
109.513
109.566
109.618
109.67
109.723
109.775
109.828
109.88
109.932
109.985
110.037
110.09
110.142
110.194
110.247
110.299
110.352
110.404
110.456
110.509
110.561
110.614
110.666
110.718
110.771
110.823
110.876
110.928
110.98
111.033
111.085
111.138
111.19
111.242
111.295
111.347
111.399
111.452
111.504
111.557
111.609
111.661
111.714
111.766
111.818
111.871
111.923
111.976
112.028
112.08
112.133
112.185
112.237
112.29
112.342
112.395
112.447
112.499
112.552
112.604
112.656
112.709
112.761
112.813
112.866
112.918
112.97
113.023
113.075
113.127
113.18
113.232
113.285
113.337
113.389
113.442
113.494
113.546
113.599
113.651
113.703
113.756
113.808
113.86
113.913
113.965
114.017
114.07
114.122
114.174
114.227
114.279
114.331
114.384
114.436
114.488
114.541
114.593
114.645
114.698
114.75
114.802
114.855
114.907
114.959
115.011
115.064
115.116
115.168
115.221
115.273
115.325
115.378
115.43
115.482
115.535
115.587
115.639
115.691
115.744
115.796
115.848
115.901
115.953
116.005
116.058
116.11
116.162
116.214
116.267
116.319
116.371
116.424
116.476
116.528
116.58
116.633
116.685
116.737
116.79
116.842
116.894
116.946
116.999
117.051
117.103
117.156
117.208
117.26
117.312
117.365
117.417
117.469
117.521
117.574
117.626
117.678
117.731
117.783
117.835
117.887
117.94
117.992
118.044
118.096
118.149
118.201
118.253
118.305
118.358
118.41
118.462
118.514
118.567
118.619
118.671
118.723
118.776
118.828
118.88
118.932
118.985
119.037
119.089
119.141
119.194
119.246
119.298
119.35
119.403
119.455
119.507
119.559
119.611
119.664
119.716
119.768
119.82
119.873
119.925
119.977
120.029
120.081
120.134
120.186
120.238
120.29
120.343
120.395
120.447
120.499
120.551
120.604
120.656
120.708
120.76
120.812
120.865
120.917
120.969
121.021
121.074
121.126
121.178
121.23
121.282
121.334
121.387
121.439
121.491
121.543
121.595
121.648
121.7
121.752
121.804
121.856
121.909
121.961
122.013
122.065
122.117
122.17
122.222
122.274
122.326
122.378
122.43
122.483
122.535
122.587
122.639
122.691
122.743
122.796
122.848
122.9
122.952
123.004
123.056
123.109
123.161
123.213
123.265
123.317
123.369
123.422
123.474
123.526
123.578
123.63
123.682
123.734
123.787
123.839
123.891
123.943
123.995
124.047
124.1
124.152
124.204
124.256
124.308
124.36
124.412
124.464
124.517
124.569
124.621
124.673
124.725
124.777
124.829
124.882
124.934
124.986
125.038
125.09
125.142
125.194
125.246
125.299
125.351
125.403
125.455
125.507
125.559
125.611
125.663
125.715
125.768
125.82
125.872
125.924
125.976
126.028
126.08
126.132
126.184
126.237
126.289
126.341
126.393
126.445
126.497
126.549
126.601
126.653
126.705
126.757
126.81
126.862
126.914
126.966
127.018
127.07
127.122
127.174
127.226
127.278
127.33
127.382
127.435
127.487
127.539
127.591
127.643
127.695
127.747
127.799
127.851
127.903
127.955
128.007
128.059
128.111
128.164
128.216
128.268
128.32
128.372
128.424
128.476
128.528
128.58
128.632
128.684
128.736
128.788
128.84
128.892
128.944
128.996
129.048
129.1
129.153
129.205
129.257
129.309
129.361
129.413
129.465
129.517
129.569
129.621
129.673
129.725
129.777
129.829
129.881
129.933
129.985
130.037
130.089
130.141
130.193
130.245
130.297
130.349
130.401
130.453
130.505
130.557
130.609
130.661
130.713
130.765
130.817
130.869
130.921
130.973
131.025
131.077
131.129
131.181
131.233
131.285
131.337
131.389
131.441
131.493
131.545
131.597
131.649
131.701
131.753
131.805
131.857
131.909
131.961
132.013
132.065
132.117
132.169
132.221
132.273
132.325
132.377
132.429
132.481
132.533
132.585
132.637
132.689
132.741
132.793
132.845
132.897
132.949
133.001
133.053
133.105
133.157
133.208
133.26
133.312
133.364
133.416
133.468
133.52
133.572
133.624
133.676
133.728
133.78
133.832
133.884
133.936
133.988
134.04
134.092
134.144
134.195
134.247
134.299
134.351
134.403
134.455
134.507
134.559
134.611
134.663
134.715
134.767
134.819
134.871
134.922
134.974
135.026
135.078
135.13
135.182
135.234
135.286
135.338
135.39
135.442
135.494
135.545
135.597
135.649
135.701
135.753
135.805
135.857
135.909
135.961
136.013
136.064
136.116
136.168
136.22
136.272
136.324
136.376
136.428
136.48
136.531
136.583
136.635
136.687
136.739
136.791
136.843
136.895
136.947
136.998
137.05
137.102
137.154
137.206
137.258
137.31
137.362
137.413
137.465
137.517
137.569
137.621
137.673
137.725
137.776
137.828
137.88
137.932
137.984
138.036
138.088
138.139
138.191
138.243
138.295
138.347
138.399
138.45
138.502
138.554
138.606
138.658
138.71
138.762
138.813
138.865
138.917
138.969
139.021
139.073
139.124
139.176
139.228
139.28
139.332
139.383
139.435
139.487
139.539
139.591
139.643
139.694
139.746
139.798
139.85
139.902
139.953
140.005
140.057
140.109
140.161
140.212
140.264
140.316
140.368
140.42
140.472
140.523
140.575
140.627
140.679
140.73
140.782
140.834
140.886
140.938
140.989
141.041
141.093
141.145
141.197
141.248
141.3
141.352
141.404
141.455
141.507
141.559
141.611
141.663
141.714
141.766
141.818
141.87
141.921
141.973
142.025
142.077
142.128
142.18
142.232
142.284
142.335
142.387
142.439
142.491
142.543
142.594
142.646
142.698
142.75
142.801
142.853
142.905
142.956
143.008
143.06
143.112
143.163
143.215
143.267
143.319
143.37
143.422
143.474
143.526
143.577
143.629
143.681
143.732
143.784
143.836
143.888
143.939
143.991
144.043
144.095
144.146
144.198
144.25
144.301
144.353
144.405
144.457
144.508
144.56
144.612
144.663
144.715
144.767
144.818
144.87
144.922
144.974
145.025
145.077
145.129
145.18
145.232
145.284
145.335
145.387
145.439
145.49
145.542
145.594
145.645
145.697
145.749
145.8
145.852
145.904
145.956
146.007
146.059
146.111
146.162
146.214
146.266
146.317
146.369
146.421
146.472
146.524
146.575
146.627
146.679
146.73
146.782
146.834
146.885
146.937
146.989
147.04
147.092
147.144
147.195
147.247
147.299
147.35
147.402
147.453
147.505
147.557
147.608
147.66
147.712
147.763
147.815
147.867
147.918
147.97
148.021
148.073
148.125
148.176
148.228
148.28
148.331
148.383
148.434
148.486
148.538
148.589
148.641
148.692
148.744
148.796
148.847
148.899
148.95
149.002
149.054
149.105
149.157
149.208
149.26
149.312
149.363
149.415
149.466
149.518
149.57
149.621
149.673
149.724
149.776
149.827
149.879
149.931
149.982
150.034
150.085
150.137
150.188
150.24
150.292
150.343
150.395
150.446
150.498
150.549
150.601
150.653
150.704
150.756
150.807
150.859
150.91
150.962
151.013
151.065
151.117
151.168
151.22
151.271
151.323
151.374
151.426
151.477
151.529
151.58
151.632
151.683
151.735
151.787
151.838
151.89
151.941
151.993
152.044
152.096
152.147
152.199
152.25
152.302
152.353
152.405
152.456
152.508
152.559
152.611
152.662
152.714
152.765
152.817
152.868
152.92
152.971
153.023
153.074
153.126
153.177
153.229
153.28
153.332
153.383
153.435
153.486
153.538
153.589
153.641
153.692
153.744
153.795
153.847
153.898
153.95
154.001
154.053
154.104
154.156
154.207
154.259
154.31
154.361
154.413
154.464
154.516
154.567
154.619
154.67
154.722
154.773
154.825
154.876
154.928
154.979
155.03
155.082
155.133
155.185
155.236
155.288
155.339
155.391
155.442
155.493
155.545
155.596
155.648
155.699
155.751
155.802
155.853
155.905
155.956
156.008
156.059
156.111
156.162
156.213
156.265
156.316
156.368
156.419
156.47
156.522
156.573
156.625
156.676
156.727
156.779
156.83
156.882
156.933
156.984
157.036
157.087
157.139
157.19
157.241
157.293
157.344
157.396
157.447
157.498
157.55
157.601
157.653
157.704
157.755
157.807
157.858
157.909
157.961
158.012
158.064
158.115
158.166
158.218
158.269
158.32
158.372
158.423
158.474
158.526
158.577
158.629
158.68
158.731
158.783
158.834
158.885
158.937
158.988
159.039
159.091
159.142
159.193
159.245
159.296
159.347
159.399
159.45
159.501
159.553
159.604
159.655
159.707
159.758
159.809
159.861
159.912
159.963
160.015
160.066
160.117
160.169
160.22
160.271
160.322
160.374
160.425
160.476
160.528
160.579
160.63
160.682
160.733
160.784
160.835
160.887
160.938
160.989
161.041
161.092
161.143
161.194
161.246
161.297
161.348
161.4
161.451
161.502
161.553
161.605
161.656
161.707
161.759
161.81
161.861
161.912
161.964
162.015
162.066
162.117
162.169
162.22
162.271
162.322
162.374
162.425
162.476
162.527
162.579
162.63
162.681
162.732
162.784
162.835
162.886
162.937
162.989
163.04
163.091
163.142
163.193
163.245
163.296
163.347
163.398
163.45
163.501
163.552
163.603
163.654
163.706
163.757
163.808
163.859
163.911
163.962
164.013
164.064
164.115
164.167
164.218
164.269
164.32
164.371
164.423
164.474
164.525
164.576
164.627
164.678
164.73
164.781
164.832
164.883
164.934
164.986
165.037
165.088
165.139
165.19
165.241
165.293
165.344
165.395
165.446
165.497
165.548
165.6
165.651
165.702
165.753
165.804
165.855
165.906
165.958
166.009
166.06
166.111
166.162
166.213
166.264
166.316
166.367
166.418
166.469
166.52
166.571
166.622
166.674
166.725
166.776
166.827
166.878
166.929
166.98
167.031
167.083
167.134
167.185
167.236
167.287
167.338
167.389
167.44
167.491
167.542
167.594
167.645
167.696
167.747
167.798
167.849
167.9
167.951
168.002
168.053
168.105
168.156
168.207
168.258
168.309
168.36
168.411
168.462
168.513
168.564
168.615
168.666
168.717
168.768
168.82
168.871
168.922
168.973
169.024
169.075
169.126
169.177
169.228
169.279
169.33
169.381
169.432
169.483
169.534
169.585
169.636
169.687
169.738
169.789
169.84
169.891
169.943
169.994
170.045
170.096
170.147
170.198
170.249
170.3
170.351
170.402
170.453
170.504
170.555
170.606
170.657
170.708
170.759
170.81
170.861
170.912
170.963
171.014
171.065
171.116
171.167
171.218
171.269
171.32
171.371
171.422
171.473
171.524
171.575
171.626
171.677
171.727
171.778
171.829
171.88
171.931
171.982
172.033
172.084
172.135
172.186
172.237
172.288
172.339
172.39
172.441
172.492
172.543
172.594
172.645
172.696
172.747
172.797
172.848
172.899
172.95
173.001
173.052
173.103
173.154
173.205
173.256
173.307
173.358
173.409
173.46
173.51
173.561
173.612
173.663
173.714
173.765
173.816
173.867
173.918
173.969
174.019
174.07
174.121
174.172
174.223
174.274
174.325
174.376
174.427
174.477
174.528
174.579
174.63
174.681
174.732
174.783
174.834
174.884
174.935
174.986
175.037
175.088
175.139
175.19
175.24
175.291
175.342
175.393
175.444
175.495
175.546
175.596
175.647
175.698
175.749
175.8
175.851
175.901
175.952
176.003
176.054
176.105
176.155
176.206
176.257
176.308
176.359
176.41
176.46
176.511
176.562
176.613
176.664
176.714
176.765
176.816
176.867
176.918
176.968
177.019
177.07
177.121
177.172
177.222
177.273
177.324
177.375
177.425
177.476
177.527
177.578
177.629
177.679
177.73
177.781
177.832
177.882
177.933
177.984
178.035
178.085
178.136
178.187
178.238
178.288
178.339
178.39
178.441
178.491
178.542
178.593
178.644
178.694
178.745
178.796
178.846
178.897
178.948
178.999
179.049
179.1
179.151
179.201
179.252
179.303
179.354
179.404
179.455
179.506
179.556
179.607
179.658
179.708
179.759
179.81
179.86
179.911
179.962
180.012
180.063
180.114
180.165
180.215
180.266
180.317
180.367
180.418
180.469
180.519
180.57
180.62
180.671
180.722
180.772
180.823
180.874
180.924
180.975
181.026
181.076
181.127
181.178
181.228
181.279
181.329
181.38
181.431
181.481
181.532
181.583
181.633
181.684
181.734
181.785
181.836
181.886
181.937
181.987
182.038
182.089
182.139
182.19
182.24
182.291
182.341
182.392
182.443
182.493
182.544
182.594
182.645
182.696
182.746
182.797
182.847
182.898
182.948
182.999
183.049
183.1
183.151
183.201
183.252
183.302
183.353
183.403
183.454
183.504
183.555
183.605
183.656
183.706
183.757
183.807
183.858
183.909
183.959
184.01
184.06
184.111
184.161
184.212
184.262
184.313
184.363
184.414
184.464
184.515
184.565
184.615
184.666
184.716
184.767
184.817
184.868
184.918
184.969
185.019
185.07
185.12
185.171
185.221
185.272
185.322
185.372
185.423
185.473
185.524
185.574
185.625
185.675
185.726
185.776
185.826
185.877
185.927
185.978
186.028
186.078
186.129
186.179
186.23
186.28
186.331
186.381
186.431
186.482
186.532
186.582
186.633
186.683
186.734
186.784
186.834
186.885
186.935
186.985
187.036
187.086
187.137
187.187
187.237
187.288
187.338
187.388
187.439
187.489
187.539
187.59
187.64
187.69
187.741
187.791
187.841
187.892
187.942
187.992
188.043
188.093
188.143
188.194
188.244
188.294
188.344
188.395
188.445
188.495
188.546
188.596
188.646
188.696
188.747
188.797
188.847
188.898
188.948
188.998
189.048
189.099
189.149
189.199
189.249
189.3
189.35
189.4
189.45
189.501
189.551
189.601
189.651
189.701
189.752
189.802
189.852
189.902
189.952
190.003
190.053
190.103
190.153
190.203
190.254
190.304
190.354
190.404
190.454
190.505
190.555
190.605
190.655
190.705
190.755
190.806
190.856
190.906
190.956
191.006
191.056
191.106
191.156
191.207
191.257
191.307
191.357
191.407
191.457
191.507
191.557
191.608
191.658
191.708
191.758
191.808
191.858
191.908
191.958
192.008
192.058
192.108
192.158
192.208
192.259
192.309
192.359
192.409
192.459
192.509
192.559
192.609
192.659
192.709
192.759
192.809
192.859
192.909
192.959
193.009
193.059
193.109
193.159
193.209
193.259
193.309
193.359
193.409
193.459
193.509
193.559
193.609
193.659
193.709
193.759
193.809
193.858
193.908
193.958
194.008
194.058
194.108
194.158
194.208
194.258
194.308
194.358
194.408
194.457
194.507
194.557
194.607
194.657
194.707
194.757
194.807
194.856
194.906
194.956
195.006
195.056
195.106
195.155
195.205
195.255
195.305
195.355
195.405
195.454
195.504
195.554
195.604
195.654
195.703
195.753
195.803
195.853
195.902
195.952
196.002
196.052
196.101
196.151
196.201
196.251
196.3
196.35
196.4
196.45
196.499
196.549
196.599
196.648
196.698
196.748
196.797
196.847
196.897
196.946
196.996
197.046
197.095
197.145
197.195
197.244
197.294
197.344
197.393
197.443
197.492
197.542
197.592
197.641
197.691
197.74
197.79
197.839
197.889
197.939
197.988
198.038
198.087
198.137
198.186
198.236
198.285
198.335
198.384
198.434
198.483
198.533
198.582
198.632
198.681
198.731
198.78
198.83
198.879
198.928
198.978
199.027
199.077
199.126
199.176
199.225
199.274