/*--------------------------------*- C++ -*----------------------------------*\
  =========                 |
  \\      /  F ield         | OpenFOAM: The Open Source CFD Toolbox
   \\    /   O peration     | Website:  https://openfoam.org
    \\  /    A nd           | Version:  9
     \\/     M anipulation  |
\*---------------------------------------------------------------------------*/
FoamFile
{
    format      ascii;
    class       volScalarField;
    location    "0.05";
    object      p;
}
// * * * * * * * * * * * * * * * * * * * * * * * * * * * * * * * * * * * * * //

dimensions      [1 -1 -2 0 0 0 0];

internalField   nonuniform List<scalar> 
100
(
12189
12179.1
12152.1
12119.3
12096.9
12079.1
12062.2
12045.8
12030.5
12016.5
12003.9
11992.7
11982.8
11974.3
11967.4
11962.2
11958.6
11956.8
11956.8
11957
11957.7
11959.7
11964.1
11972.9
11991.2
12014.5
12040.6
12068
12096.5
12126.1
12157.5
12190.7
12225.8
12262.9
12302.2
12343.5
12386.8
12431.7
12478.4
12526.8
12576.6
12627.8
12680.3
12734
12788.8
12844.7
12901.6
12959.6
13018.5
13078.4
13139.3
13201.1
13263.7
13327.3
13391.8
13457.1
13522.9
13589.8
13656.8
13724.8
13792.6
13861.5
13929.8
13999.1
14067.9
14137.7
14206.8
14276.8
14346.4
14417.3
14488.2
14560.8
14633.7
14708.9
14785.5
14865.5
14947.9
15034.2
15123.8
15218.2
15315.5
15417
15520.3
15627.1
15733.6
15840.8
15945.4
16049
16148.6
16246
16338.8
16430
16517.2
16603.2
16685.8
16767.7
16846.8
16925.5
17001.6
17079.5
)
;

boundaryField
{
    sides
    {
        type            zeroGradient;
    }
    empty
    {
        type            empty;
    }
}


// ************************************************************************* //
