/*--------------------------------*- C++ -*----------------------------------*\
  =========                 |
  \\      /  F ield         | OpenFOAM: The Open Source CFD Toolbox
   \\    /   O peration     | Website:  https://openfoam.org
    \\  /    A nd           | Version:  9
     \\/     M anipulation  |
\*---------------------------------------------------------------------------*/
FoamFile
{
    format      ascii;
    class       volScalarField;
    location    "0.009";
    object      T;
}
// * * * * * * * * * * * * * * * * * * * * * * * * * * * * * * * * * * * * * //

dimensions      [0 0 0 1 0 0 0];

internalField   nonuniform List<scalar> 
1000
(
348.432
348.432
348.432
348.432
348.432
348.432
348.432
348.432
348.432
348.432
348.432
348.432
348.432
348.432
348.432
348.432
348.432
348.432
348.432
348.432
348.432
348.432
348.432
348.432
348.432
348.432
348.432
348.432
348.432
348.432
348.432
348.432
348.432
348.432
348.432
348.432
348.432
348.432
348.432
348.432
348.432
348.432
348.432
348.432
348.432
348.432
348.432
348.432
348.432
348.432
348.432
348.432
348.432
348.432
348.432
348.432
348.432
348.432
348.432
348.432
348.432
348.432
348.432
348.432
348.432
348.432
348.432
348.432
348.432
348.432
348.432
348.432
348.432
348.432
348.432
348.432
348.432
348.432
348.432
348.432
348.432
348.432
348.432
348.432
348.432
348.432
348.432
348.432
348.432
348.432
348.432
348.432
348.432
348.432
348.432
348.432
348.432
348.432
348.432
348.432
348.432
348.432
348.432
348.432
348.432
348.432
348.432
348.432
348.432
348.432
348.432
348.432
348.432
348.432
348.432
348.432
348.432
348.432
348.432
348.432
348.432
348.432
348.432
348.432
348.432
348.432
348.432
348.432
348.432
348.432
348.432
348.432
348.432
348.432
348.432
348.432
348.432
348.432
348.432
348.432
348.432
348.432
348.432
348.432
348.432
348.432
348.432
348.432
348.432
348.432
348.432
348.432
348.432
348.432
348.432
348.432
348.432
348.432
348.432
348.432
348.432
348.432
348.432
348.432
348.432
348.432
348.432
348.432
348.432
348.431
348.429
348.422
348.405
348.353
348.203
347.764
346.514
344.622
343.267
342.412
341.821
341.373
341.003
340.678
340.377
340.088
339.802
339.514
339.218
338.913
338.598
338.274
337.943
337.607
337.269
336.93
336.59
336.251
335.912
335.574
335.236
334.898
334.561
334.223
333.886
333.549
333.213
332.876
332.54
332.204
331.868
331.533
331.198
330.862
330.528
330.193
329.859
329.525
329.191
328.857
328.523
328.19
327.857
327.524
327.192
326.859
326.527
326.195
325.864
325.532
325.201
324.87
324.539
324.208
323.877
323.547
323.217
322.887
322.557
322.228
321.899
321.569
321.241
320.912
320.583
320.255
319.927
319.599
319.271
318.943
318.616
318.289
317.962
317.635
317.308
316.982
316.656
316.329
316.004
315.678
315.352
315.027
314.702
314.377
314.052
313.727
313.403
313.078
312.754
312.43
312.107
311.783
311.46
311.136
310.813
310.49
310.168
309.845
309.523
309.201
308.879
308.557
308.235
307.914
307.592
307.271
306.95
306.629
306.309
305.988
305.668
305.348
305.028
304.708
304.389
304.069
303.75
303.431
303.112
302.793
302.474
302.156
301.838
301.52
301.202
300.884
300.566
300.249
299.932
299.615
299.298
298.981
298.664
298.348
298.032
297.716
297.4
297.084
296.768
296.453
296.138
295.822
295.508
295.193
294.878
294.564
294.249
293.935
293.621
293.308
292.994
292.68
292.367
292.054
291.741
291.428
291.116
290.803
290.491
290.179
289.867
289.555
289.243
288.932
288.62
288.309
287.998
287.687
287.377
287.066
286.756
286.445
286.135
285.826
285.516
285.206
284.897
284.588
284.279
283.97
283.661
283.352
283.044
282.736
282.428
282.12
281.812
281.504
281.197
280.889
280.582
280.275
279.969
279.662
279.355
279.049
278.743
278.437
278.131
277.825
277.52
277.215
276.909
276.604
276.299
275.995
275.69
275.386
275.082
274.778
274.474
274.17
273.866
273.563
273.26
272.957
272.654
272.351
272.048
271.746
271.444
271.142
270.84
270.538
270.236
269.935
269.634
269.333
269.032
268.731
268.43
268.13
267.83
267.53
267.23
266.93
266.63
266.331
266.032
265.733
265.434
265.135
264.837
264.538
264.24
263.942
263.644
263.347
263.049
262.752
262.455
262.158
261.861
261.564
261.268
260.972
260.675
260.38
260.084
259.788
259.493
259.198
258.903
258.608
258.313
258.019
257.725
257.431
257.137
256.843
256.55
256.256
255.963
255.671
255.378
255.085
254.793
254.501
254.209
253.917
253.626
253.335
253.044
252.753
252.463
252.173
251.883
251.593
251.304
251.016
250.728
250.441
250.155
249.872
249.591
249.316
249.049
248.794
248.557
248.344
248.16
248.007
247.884
247.789
247.716
247.661
247.622
247.597
247.579
247.573
247.57
247.567
247.566
247.566
247.566
247.567
247.569
247.575
247.589
247.607
247.618
247.627
247.632
247.632
247.633
247.636
247.646
247.661
247.675
247.682
247.683
247.684
247.686
247.692
247.704
247.723
247.739
247.743
247.747
247.751
247.75
247.743
247.727
247.71
247.693
247.678
247.663
247.655
247.647
247.639
247.638
247.639
247.642
247.643
247.642
247.637
247.632
247.632
247.633
247.641
247.651
247.655
247.655
247.656
247.657
247.66
247.666
247.677
247.685
247.689
247.693
247.697
247.701
247.708
247.715
247.718
247.721
247.72
247.711
247.691
247.675
247.662
247.66
247.661
247.662
247.661
247.655
247.645
247.636
247.637
247.639
247.644
247.647
247.646
247.643
247.638
247.638
247.639
247.644
247.655
247.66
247.66
247.661
247.661
247.661
247.661
247.667
247.68
247.688
247.692
247.694
247.695
247.695
247.695
247.694
247.693
247.689
247.678
247.66
247.648
247.645
247.641
247.641
247.642
247.644
247.643
247.637
247.631
247.627
247.625
247.628
247.633
247.636
247.636
247.633
247.63
247.627
247.629
247.64
247.648
247.653
247.653
247.651
247.649
247.647
247.651
247.664
247.674
247.68
247.68
247.678
247.671
247.666
247.664
247.663
247.662
247.657
247.644
247.63
247.625
247.62
247.62
247.625
247.626
247.626
247.621
247.612
247.61
247.608
247.613
247.62
247.621
247.621
247.616
247.611
247.608
247.609
247.62
247.631
247.634
247.634
247.629
247.625
247.623
247.627
247.642
247.656
247.656
247.655
247.645
247.63
247.623
247.621
247.622
247.624
247.623
247.614
247.599
247.594
247.588
247.589
247.597
247.598
247.597
247.589
247.576
247.571
247.569
247.577
247.59
247.594
247.593
247.586
247.578
247.571
247.571
247.581
247.594
247.594
247.593
247.584
247.577
247.572
247.577
247.595
247.609
247.608
247.603
247.584
247.564
247.554
247.548
247.556
247.559
247.557
247.548
247.53
247.521
247.511
247.514
247.53
247.53
247.527
247.516
247.5
247.49
247.479
247.487
247.503
247.501
247.496
247.484
247.47
247.46
247.451
247.466
247.477
247.474
247.468
247.455
247.441
247.423
247.425
247.445
247.44
247.43
247.411
247.391
247.365
247.363
247.372
247.403
247.44
247.48
247.556
247.705
247.987
248.529
249.572
251.489
254.984
261.367
272.939
293.47
326.464
360.928
382.579
393.625
399.027
401.691
402.53
402.065
400.381
400.133
400.033
399.811
399.671
400.226
400.814
400.319
399.286
397.973
396.059
395.189
394.937
394.87
395.239
396.968
397.973
398.365
398.675
398.53
397.351
397.138
397.404
397.76
398.351
399.603
399.934
399.774
399.299
398.292
396.599
395.936
395.732
395.691
396.227
397.694
398.226
398.501
398.691
398.408
397.414
397.303
397.442
397.655
398.213
399.073
399.143
398.882
398.413
397.501
396.365
396.089
396.058
396.188
397.042
398.231
398.644
398.895
398.988
398.503
397.692
397.598
397.588
397.61
398.072
398.633
398.583
398.29
397.901
397.144
396.462
396.382
396.438
396.722
397.623
398.471
398.743
398.892
398.879
398.234
397.654
397.53
397.435
397.417
397.863
398.237
398.163
397.964
397.692
397.071
396.71
396.718
396.871
397.224
398.023
398.579
398.733
398.789
398.682
397.996
397.559
397.413
397.294
397.301
397.76
398.004
397.966
397.871
397.696
397.203
397.026
397.095
397.288
397.612
398.246
398.567
398.62
398.612
398.407
397.746
397.404
397.264
397.171
397.224
397.676
397.845
397.849
397.84
397.74
397.368
397.292
397.392
397.561
397.823
398.276
398.412
398.408
398.335
398.05
397.502
397.284
397.193
397.157
397.296
397.726
397.851
397.905
397.947
397.868
397.562
397.528
397.603
397.71
397.912
398.228
398.277
398.231
398.104
397.822
397.407
397.272
397.233
397.238
397.432
397.8
397.922
397.997
398.037
397.933
397.678
397.653
397.674
397.713
397.862
398.063
398.067
397.988
397.865
397.628
397.351
397.294
397.293
397.341
397.584
397.895
398.001
398.058
398.072
397.927
397.707
397.673
397.659
397.656
397.776
397.932
397.923
397.858
397.77
397.591
397.426
397.413
397.449
397.543
397.771
397.994
398.051
398.069
398.054
397.882
397.691
397.644
397.616
397.607
397.707
397.826
397.816
397.774
397.723
397.604
397.506
397.522
397.593
397.723
397.792
397.695
396.011
376.735
306.458
)
;

boundaryField
{
    sides
    {
        type            zeroGradient;
    }
    empty
    {
        type            empty;
    }
}


// ************************************************************************* //
