/*--------------------------------*- C++ -*----------------------------------*\
  =========                 |
  \\      /  F ield         | OpenFOAM: The Open Source CFD Toolbox
   \\    /   O peration     | Website:  https://openfoam.org
    \\  /    A nd           | Version:  9
     \\/     M anipulation  |
\*---------------------------------------------------------------------------*/
FoamFile
{
    format      ascii;
    class       volScalarField;
    location    "0.027";
    object      mag(U);
}
// * * * * * * * * * * * * * * * * * * * * * * * * * * * * * * * * * * * * * //

dimensions      [0 1 -1 0 0 0 0];

internalField   nonuniform List<scalar> 
1000
(
162.15
162.635
162.917
163.224
163.524
163.825
164.126
164.426
164.726
165.027
165.327
165.627
165.928
166.229
166.53
166.831
167.133
167.434
167.735
168.036
168.337
168.638
168.938
169.238
169.538
169.839
170.139
170.439
170.74
171.041
171.342
171.643
171.944
172.245
172.546
172.847
173.149
173.45
173.751
174.052
174.353
174.654
174.956
175.257
175.558
175.86
176.161
176.463
176.764
177.065
177.366
177.668
177.969
178.271
178.572
178.873
179.174
179.475
179.776
180.077
180.377
180.678
180.978
181.278
181.578
181.878
182.179
182.479
182.78
183.08
183.381
183.683
183.984
184.286
184.588
184.89
185.191
185.493
185.794
186.095
186.395
186.696
186.996
187.297
187.597
187.898
188.199
188.5
188.801
189.103
189.404
189.705
190.006
190.307
190.608
190.909
191.209
191.51
191.811
192.111
192.412
192.712
193.013
193.313
193.614
193.915
194.215
194.516
194.816
195.117
195.417
195.718
196.018
196.319
196.619
196.92
197.22
197.52
197.821
198.121
198.422
198.722
199.023
199.323
199.623
199.922
200.222
200.521
200.82
201.12
201.419
201.719
202.02
202.32
202.62
202.919
203.219
203.519
203.819
204.119
204.42
204.72
205.021
205.321
205.621
205.922
206.222
206.522
206.823
207.123
207.424
207.725
208.025
208.326
208.626
208.926
209.226
209.527
209.827
210.128
210.429
210.729
211.03
211.33
211.631
211.931
212.232
212.532
212.832
213.133
213.433
213.733
214.034
214.334
214.635
214.935
215.235
215.536
215.836
216.136
216.437
216.737
217.038
217.338
217.639
217.94
218.24
218.541
218.841
219.142
219.442
219.743
220.043
220.344
220.644
220.945
221.245
221.546
221.846
222.146
222.447
222.747
223.047
223.348
223.648
223.949
224.249
224.55
224.85
225.151
225.451
225.752
226.052
226.352
226.653
226.953
227.254
227.554
227.855
228.155
228.456
228.756
229.056
229.357
229.657
229.958
230.258
230.558
230.859
231.159
231.459
231.76
232.06
232.361
232.661
232.962
233.262
233.563
233.863
234.163
234.464
234.764
235.064
235.365
235.665
235.966
236.266
236.566
236.867
237.167
237.467
237.768
238.068
238.368
238.669
238.969
239.27
239.57
239.871
240.171
240.471
240.772
241.072
241.372
241.673
241.973
242.273
242.574
242.874
243.174
243.475
243.775
244.076
244.376
244.676
244.977
245.277
245.577
245.878
246.178
246.478
246.779
247.079
247.379
247.68
247.98
248.28
248.58
248.881
249.181
249.481
249.782
250.082
250.383
250.684
250.985
251.286
251.587
251.888
252.188
252.488
252.788
253.089
253.389
253.689
253.989
254.288
254.588
254.888
255.189
255.489
255.79
256.09
256.39
256.69
256.99
257.291
257.592
257.892
258.192
258.491
258.792
259.093
259.394
259.695
259.994
260.293
260.593
260.894
261.195
261.497
261.797
262.096
262.395
262.695
262.996
263.298
263.599
263.898
264.197
264.497
264.798
265.1
265.4
265.699
265.998
266.299
266.602
266.904
267.203
267.5
267.797
268.097
268.405
268.711
269.009
269.302
269.595
269.892
270.204
270.521
270.818
271.108
271.397
271.689
271.997
272.325
272.627
272.915
273.202
273.49
273.789
274.118
274.433
274.723
275.009
275.296
275.587
275.896
276.224
276.523
276.812
277.101
277.391
277.685
277.992
278.333
278.653
278.945
279.233
279.521
279.81
280.103
280.418
280.738
281.032
281.322
281.612
281.906
282.22
282.538
282.832
283.122
283.413
283.708
284.025
284.338
284.632
284.923
285.214
285.51
285.825
286.137
286.431
286.722
287.013
287.308
287.622
287.933
288.226
288.517
288.808
289.1
289.406
289.718
290.01
290.297
290.584
290.87
291.167
291.464
291.743
292.015
292.281
292.543
292.802
293.064
293.311
293.542
293.759
293.962
294.154
294.333
294.495
294.633
294.747
294.831
294.896
294.948
294.985
295.01
295.025
295.03
295.018
295.007
295
294.987
294.967
294.937
294.897
294.845
294.803
294.775
294.751
294.727
294.701
294.668
294.62
294.579
294.553
294.53
294.504
294.474
294.434
294.375
294.323
294.295
294.278
294.267
294.261
294.252
294.234
294.258
294.302
294.351
294.398
294.433
294.459
294.472
294.458
294.425
294.423
294.427
294.434
294.452
294.46
294.46
294.453
294.418
294.365
294.346
294.334
294.326
294.331
294.327
294.314
294.295
294.26
294.204
294.173
294.151
294.133
294.121
294.115
294.11
294.108
294.109
294.11
294.082
294.067
294.087
294.111
294.131
294.149
294.164
294.176
294.185
294.187
294.168
294.145
294.143
294.143
294.144
294.147
294.148
294.146
294.139
294.117
294.073
294.051
294.039
294.029
294.019
294.01
293.997
293.978
293.95
293.926
293.909
293.896
293.887
293.879
293.863
293.815
293.794
293.803
293.822
293.85
293.891
293.919
293.934
293.943
293.934
293.902
293.899
293.904
293.909
293.916
293.919
293.919
293.91
293.869
293.841
293.837
293.835
293.842
293.892
293.923
293.918
293.906
293.884
293.811
293.74
293.72
293.706
293.697
293.72
293.748
293.745
293.739
293.727
293.67
293.613
293.615
293.631
293.659
293.717
293.779
293.799
293.808
293.807
293.767
293.697
293.687
293.69
293.695
293.712
293.736
293.74
293.739
293.731
293.697
293.66
293.652
293.647
293.643
293.646
293.646
293.638
293.629
293.615
293.584
293.561
293.547
293.536
293.528
293.531
293.536
293.536
293.537
293.541
293.54
293.504
293.465
293.472
293.485
293.497
293.51
293.541
293.573
293.58
293.582
293.582
293.566
293.502
293.473
293.471
293.472
293.478
293.523
293.611
293.628
293.626
293.62
293.597
293.508
293.423
293.403
293.395
293.391
293.405
293.441
293.441
293.434
293.424
293.396
293.311
293.278
293.28
293.291
293.313
293.378
293.512
293.555
293.568
293.575
293.571
293.52
293.426
293.407
293.406
293.408
293.419
293.451
293.462
293.463
293.46
293.439
293.369
293.331
293.324
293.321
293.325
293.361
293.429
293.437
293.431
293.422
293.406
293.357
293.297
293.283
293.278
293.276
293.278
293.292
293.341
293.383
293.401
293.412
293.418
293.423
293.428
293.429
293.412
293.316
293.218
293.204
293.204
293.206
293.22
293.296
293.427
293.454
293.456
293.452
293.432
293.342
293.228
293.206
293.202
293.202
293.215
293.279
293.312
293.309
293.302
293.293
293.263
293.219
293.21
293.209
293.21
293.22
293.248
293.268
293.28
293.288
293.29
293.282
293.281
293.283
293.287
293.293
293.304
293.309
293.31
293.31
293.307
293.305
293.304
293.304
293.306
293.31
293.31
293.305
293.3
293.294
293.287
293.283
293.28
293.277
293.271
293.263
293.256
293.253
293.25
293.246
293.239
293.238
293.239
293.242
293.247
293.256
293.267
293.276
293.281
293.284
293.286
293.287
293.287
293.289
293.292
293.297
293.301
293.302
293.301
293.299
293.297
293.296
293.295
293.296
293.297
293.295
293.29
293.285
293.281
293.278
293.277
293.276
293.275
293.269
293.263
293.258
293.256
293.256
293.259
293.265
293.272
293.276
293.28
293.284
293.29
293.299
293.306
293.31
293.311
293.311
293.31
293.31
293.311
293.313
293.316
293.318
293.323
293.326
293.324
293.322
293.321
293.32
293.318
293.317
293.313
293.307
293.303
293.303
293.304
293.304
293.302
293.299
293.294
293.289
293.287
293.287
293.29
293.296
293.302
293.305
293.308
293.309
293.311
293.315
293.321
293.325
293.328
293.328
293.326
293.323
293.323
293.324
293.327
293.331
293.333
293.332
293.328
293.323
293.32
293.317
293.317
293.318
293.317
293.314
293.308
293.303
293.301
293.3
293.299
293.299
293.297
293.294
293.292
293.29
293.291
293.298
293.306
293.311
293.313
293.313
293.297
293.221
292.915
291.694
289.048
287.17
286.343
286.047
285.962
285.93
285.926
285.934
285.933
285.932
285.933
285.928
285.927
285.927
285.923
285.927
285.927
285.929
285.932
285.933
285.936
285.936
285.937
285.936
285.935
285.937
285.936
285.938
285.939
285.938
285.936
285.934
285.935
285.939
285.945
285.953
285.96
285.961
285.96
285.957
285.951
285.953
285.959
285.964
285.971
285.981
285.984
285.987
285.99
285.993
285.996
285.998
285.998
285.997
285.994
285.991
285.989
285.984
285.973
285.935
285.799
285.328
283.927
282.092
280.948
280.43
280.215
280.12
280.075
280.054
280.042
280.042
280.044
280.049
280.06
280.063
280.064
280.066
280.058
280.05
280.047
280.043
280.042
280.044
280.054
280.065
280.07
280.073
280.07
280.067
280.058
280.043
280.04
280.04
280.04
280.042
280.049
280.067
)
;

boundaryField
{
    sides
    {
        type            calculated;
        value           nonuniform List<scalar> 2(280.067 162.15);
    }
    empty
    {
        type            empty;
    }
}


// ************************************************************************* //
