/*--------------------------------*- C++ -*----------------------------------*\
  =========                 |
  \\      /  F ield         | OpenFOAM: The Open Source CFD Toolbox
   \\    /   O peration     | Website:  https://openfoam.org
    \\  /    A nd           | Version:  9
     \\/     M anipulation  |
\*---------------------------------------------------------------------------*/
FoamFile
{
    format      ascii;
    class       volScalarField;
    location    "0.027";
    object      p;
}
// * * * * * * * * * * * * * * * * * * * * * * * * * * * * * * * * * * * * * //

dimensions      [1 -1 -2 0 0 0 0];

internalField   nonuniform List<scalar> 
1000
(
55227.6
55117
55050
54977.7
54906.9
54835.9
54765.1
54694.5
54623.9
54553.5
54483.1
54412.8
54342.5
54272.3
54202
54131.8
54061.7
53991.6
53921.6
53851.8
53782.1
53712.5
53643.1
53573.7
53504.5
53435.3
53366.1
53297
53228
53158.9
53090
53021
52952.1
52883.3
52814.6
52745.9
52677.3
52608.9
52540.4
52472.1
52403.8
52335.6
52267.4
52199.3
52131.3
52063.3
51995.5
51927.7
51859.9
51792.3
51724.8
51657.3
51589.9
51522.5
51455.2
51388.1
51321
51254
51187.2
51120.4
51053.8
50987.3
50920.8
50854.5
50788.2
50722
50655.8
50589.7
50523.6
50457.6
50391.6
50325.6
50259.6
50193.7
50127.8
50062
49996.3
49930.7
49865.3
49800
49734.8
49669.7
49604.7
49539.7
49474.8
49410
49345.2
49280.4
49215.7
49151
49086.4
49021.9
48957.5
48893.2
48828.9
48764.8
48700.7
48636.7
48572.8
48509
48445.2
48381.5
48317.9
48254.3
48190.8
48127.4
48064.1
48000.8
47937.6
47874.5
47811.5
47748.5
47685.6
47622.7
47560
47497.3
47434.7
47372.2
47309.7
47247.3
47185
47122.8
47060.6
46998.5
46936.6
46874.8
46813.1
46751.5
46690
46628.5
46567
46505.5
46444.1
46382.7
46321.4
46260.3
46199.2
46138.2
46077.2
46016.2
45955.3
45894.4
45833.5
45772.8
45712.2
45651.7
45591.2
45530.8
45470.4
45410
45349.7
45289.5
45229.4
45169.4
45109.5
45049.6
44989.8
44930.1
44870.4
44810.7
44751.1
44691.6
44632.2
44572.8
44513.5
44454.3
44395.1
44335.9
44276.9
44217.9
44159
44100.1
44041.3
43982.6
43923.9
43865.3
43806.8
43748.3
43689.9
43631.6
43573.4
43515.2
43457.1
43399
43341.1
43283.2
43225.3
43167.6
43109.9
43052.2
42994.7
42937.2
42879.7
42822.4
42765.1
42707.8
42650.6
42593.5
42536.4
42479.4
42422.5
42365.6
42308.8
42252.1
42195.4
42138.8
42082.3
42025.8
41969.4
41913.1
41856.8
41800.6
41744.5
41688.4
41632.4
41576.5
41520.6
41464.8
41409
41353.4
41297.7
41242.2
41186.7
41131.3
41075.9
41020.6
40965.4
40910.2
40855.1
40800.1
40745.1
40690.2
40635.3
40580.5
40525.8
40471.1
40416.5
40362
40307.5
40253.2
40198.8
40144.6
40090.4
40036.2
39982.1
39928.1
39874.1
39820.2
39766.4
39712.6
39658.9
39605.3
39551.7
39498.2
39444.7
39391.3
39338
39284.7
39231.5
39178.3
39125.3
39072.2
39019.3
38966.4
38913.5
38860.8
38808.1
38755.4
38702.8
38650.3
38597.8
38545.4
38493.1
38440.8
38388.6
38336.5
38284.4
38232.4
38180.4
38128.5
38076.6
38024.8
37973.1
37921.5
37869.9
37818.3
37766.9
37715.4
37664.1
37612.8
37561.6
37510.4
37459.2
37408.1
37357
37305.9
37255
37204.1
37153.3
37102.5
37051.9
37001.3
36950.8
36900.5
36850.2
36799.9
36749.7
36699.4
36649.3
36599.3
36549.3
36499.4
36449.4
36399.5
36349.6
36299.9
36250.4
36200.8
36151.2
36101.6
36052.1
36002.7
35953.5
35904.3
35855.2
35805.9
35756.7
35707.5
35658.6
35609.9
35561.2
35512.4
35463.5
35414.6
35366
35317.6
35269.3
35220.9
35172.4
35123.9
35075.5
35027.4
34979.5
34931.4
34883.2
34835
34787.1
34739.6
34692.1
34644.2
34596
34547.8
34500.3
34453.9
34407.4
34359.6
34311.2
34262.8
34215.1
34169.6
34125
34077.5
34028.9
33980.3
33932.3
33886.5
33844
33797.4
33749
33700.4
33652.2
33605.4
33563.3
33518.9
33471.1
33422.8
33374.7
33327.3
33282.4
33240.4
33194.1
33146.7
33099.2
33051.9
33005.4
32960.6
32921
32878.1
32831.4
32784.2
32737
32690.1
32643.8
32600.8
32558.4
32512.4
32465.8
32419.4
32373.6
32330.7
32288.4
32242.7
32196.7
32150.8
32105.5
32063.3
32020.7
31975.4
31929.8
31884.3
31839.5
31797.7
31755.3
31710.4
31665.3
31620.3
31575.9
31534.2
31492.3
31448
31403.5
31359.2
31315.3
31273.4
31232.7
31189.5
31146.2
31103.2
31060.8
31020.4
30981
30940
30899.3
30859.2
30820.2
30782.6
30747.7
30713.2
30679.3
30646.6
30615.6
30587.3
30561.8
30539.4
30519.3
30502
30486.8
30474.7
30466.1
30460.1
30455.8
30452.8
30450.3
30447.1
30445.2
30445
30446
30448.2
30451.3
30454.6
30456
30457.9
30460.8
30463.7
30466.5
30469.4
30471.8
30471.9
30472.7
30475.3
30478.1
30481.3
30484.9
30488.4
30489.4
30490.6
30493.4
30495.6
30496.7
30496.6
30493.7
30486.4
30480.4
30473.9
30467.2
30461.5
30456.5
30452.7
30449.3
30443.9
30437
30435.1
30434.4
30434.5
30436.3
30436.9
30436.8
30436.4
30433
30428
30428.4
30430
30432.1
30435.9
30438.8
30440.9
30443
30443.8
30442.4
30444.5
30447.5
30450.2
30452.6
30454.7
30455.7
30456
30455.4
30452.6
30443.5
30434.5
30430
30426.5
30423.6
30421.4
30419.5
30417.7
30416.2
30414.3
30410.2
30406.2
30405.3
30405.1
30405.2
30405.6
30405.8
30406
30406.1
30404.7
30401.1
30401.1
30402.3
30403.6
30404.9
30406.1
30407.6
30409.2
30410.2
30412
30414
30415.6
30416.7
30416.9
30415.4
30408.8
30404.6
30402.6
30399.9
30397
30395.9
30394
30391.8
30389.9
30386.4
30380.3
30378.1
30377.2
30376.6
30376.5
30376.2
30375.9
30374.6
30369.3
30366
30365.9
30366.5
30368.7
30377.2
30383.8
30385.8
30387.1
30386.7
30379.2
30371.9
30372.3
30374.2
30377.3
30384.5
30391.6
30393.4
30394
30392.9
30384.9
30376
30373.5
30371.2
30369.1
30371.2
30374.8
30373.7
30372.3
30370.3
30363.5
30352.9
30350.4
30349.7
30349.4
30351
30353.8
30354.1
30354.2
30353.7
30349.7
30345.6
30345.5
30346.1
30347.2
30349.9
30352.5
30353.9
30355.1
30355.4
30353.5
30353.3
30354.8
30356.5
30358.2
30360.6
30362.4
30362.8
30362.6
30361.6
30358.9
30350.3
30340.9
30337.5
30335.4
30333.8
30333.1
30335.4
30338.6
30338.7
30338.4
30337.6
30334.7
30325.6
30321.1
30320.5
30320.6
30322
30328.9
30342
30345.3
30346
30346.3
30344.8
30334.7
30325.5
30325.2
30326.2
30327.7
30331.8
30339.2
30341.8
30343
30343.3
30340.4
30329.1
30323.8
30322.4
30321.1
30320.7
30326.3
30341.5
30344.8
30344
30342.8
30340.6
30332.7
30319.2
30316.2
30315.7
30315.7
30316.7
30320.6
30321.8
30321.8
30321.6
30319.6
30311.4
30307.7
30307.8
30308.3
30309.7
30315.8
30326.7
30330
30331.3
30332.3
30332.2
30327.4
30321.1
30320.6
30321
30321.4
30321.7
30322.8
30327.6
30330.3
30329.5
30328.3
30327.3
30326.5
30325.7
30324.2
30320.5
30306.3
30292.2
30289.8
30289.5
30289.7
30291.5
30301.7
30319.1
30322.7
30323
30323.1
30321.6
30310.9
30296.9
30294.8
30295
30295.6
30298.5
30308.8
30315.6
30317.5
30318.5
30318.6
30315.4
30310.1
30309.2
30309.2
30309.2
30310
30312.3
30312.1
30310.6
30309.3
30308.1
30306.1
30305.1
30304.7
30304.3
30304.1
30304.7
30304.7
30304.6
30304.5
30304.4
30304.3
30304.3
30304.3
30304.5
30305.4
30306.2
30307
30307.8
30308.2
30308
30308.1
30308.3
30308.8
30309.8
30311
30312
30312.6
30312.8
30312.3
30311.1
30310.5
30310
30309.6
30309.2
30308.6
30307.5
30306.6
30305.9
30305.5
30305.2
30305
30304.7
30304.4
30304
30303.7
30303.8
30303.9
30304.1
30304.5
30304.7
30304.8
30304.9
30305.1
30305.7
30306.3
30307.1
30307.8
30308.3
30308.6
30308.8
30309.2
30310
30311.1
30312.2
30312.7
30312.9
30312.9
30312.6
30312
30311.7
30311.5
30311.2
30310.8
30310.1
30309.5
30308.8
30308.4
30308.3
30308.2
30308.1
30308.1
30307.9
30307.5
30307.2
30307.2
30307.9
30308.8
30309.5
30309.9
30310
30309.9
30309.8
30309.9
30310.3
30311.2
30312.1
30313.1
30313.7
30313.9
30314.1
30314.5
30315.1
30315.7
30315.9
30315.9
30315.5
30314.5
30313.5
30313
30312.8
30312.6
30312.4
30312.2
30311.5
30310.8
30310.4
30310.2
30310.1
30310.2
30310.3
30310.2
30310
30309.8
30310.1
30310.2
30310.8
30311.3
30311.4
30311.1
30311
30311
30311.1
30311.6
30312.6
30313.5
30314.1
30314.3
30314.4
30314.4
30314.6
30315
30315.3
30315.1
30314.8
30313.8
30312.6
30312
30311.9
30312.5
30314.9
30325.2
30366.3
30530.9
30888.3
31153
31259.4
31298.2
31313.7
31318.4
31319.8
31321
31321
31321
31320.7
31319.3
31318.3
31318
31317.8
31319
31319.8
31320.1
31320
31319.2
31318.7
31318.5
31318.8
31319.1
31319.3
31319.3
31318.6
31318
31317.7
31317.4
31317.2
31317.3
31317.3
31317.3
31317
31316.8
31317
31316.6
31316.5
31316.1
31314.8
31314.1
31313.4
31312.7
31312.8
31313.7
31313.7
31313.4
31312.7
31311.2
31309.8
31309
31308.8
31309
31309.7
31310.5
31311.1
31311.9
31313.4
31318.7
31337.5
31402.5
31597
31855.6
32012.8
32088.7
32121.8
32134.1
32139
32140
32139.7
32139.8
32139.9
32140.5
32142.1
32142.4
32142.5
32142.7
32141.5
32140.4
32139.9
32139.3
32139.1
32139.4
32140.8
32142.4
32143.1
32143.4
32143
32142.5
32141.2
32139.1
32138.7
32138.7
32138.7
32138.9
32139.9
32142.6
)
;

boundaryField
{
    sides
    {
        type            zeroGradient;
    }
    empty
    {
        type            empty;
    }
}


// ************************************************************************* //
