/*--------------------------------*- C++ -*----------------------------------*\
  =========                 |
  \\      /  F ield         | OpenFOAM: The Open Source CFD Toolbox
   \\    /   O peration     | Website:  https://openfoam.org
    \\  /    A nd           | Version:  9
     \\/     M anipulation  |
\*---------------------------------------------------------------------------*/
FoamFile
{
    format      ascii;
    class       volScalarField;
    location    "0.027";
    object      T;
}
// * * * * * * * * * * * * * * * * * * * * * * * * * * * * * * * * * * * * * //

dimensions      [0 0 0 1 0 0 0];

internalField   nonuniform List<scalar> 
1000
(
294.128
293.96
293.858
293.747
293.639
293.53
293.422
293.313
293.205
293.097
292.989
292.88
292.772
292.664
292.555
292.447
292.338
292.23
292.121
292.013
291.905
291.797
291.689
291.581
291.473
291.365
291.257
291.149
291.041
290.933
290.825
290.717
290.608
290.5
290.392
290.284
290.176
290.068
289.96
289.852
289.744
289.636
289.528
289.42
289.312
289.204
289.096
288.988
288.88
288.772
288.664
288.556
288.448
288.341
288.233
288.125
288.017
287.91
287.802
287.695
287.587
287.48
287.372
287.265
287.158
287.051
286.943
286.836
286.729
286.622
286.514
286.407
286.299
286.191
286.084
285.976
285.869
285.761
285.654
285.547
285.44
285.333
285.226
285.119
285.011
284.904
284.797
284.69
284.583
284.476
284.369
284.262
284.154
284.047
283.94
283.834
283.727
283.62
283.513
283.406
283.299
283.192
283.086
282.979
282.872
282.765
282.659
282.552
282.445
282.339
282.232
282.125
282.019
281.912
281.806
281.699
281.593
281.486
281.38
281.273
281.167
281.06
280.954
280.847
280.741
280.635
280.529
280.423
280.317
280.211
280.105
279.999
279.892
279.786
279.68
279.574
279.468
279.362
279.255
279.149
279.043
278.936
278.83
278.724
278.617
278.511
278.405
278.299
278.192
278.086
277.979
277.872
277.766
277.659
277.552
277.445
277.338
277.231
277.123
277.015
276.908
276.799
276.691
276.583
276.475
276.367
276.259
276.151
276.043
275.936
275.829
275.723
275.617
275.511
275.406
275.301
275.196
275.091
274.987
274.883
274.778
274.674
274.57
274.465
274.361
274.256
274.152
274.047
273.942
273.837
273.732
273.627
273.522
273.418
273.313
273.208
273.103
272.999
272.894
272.79
272.685
272.581
272.476
272.372
272.267
272.163
272.059
271.954
271.85
271.745
271.641
271.537
271.432
271.328
271.224
271.12
271.016
270.911
270.807
270.703
270.599
270.495
270.391
270.287
270.183
270.079
269.975
269.871
269.767
269.663
269.559
269.455
269.351
269.247
269.143
269.039
268.936
268.832
268.728
268.624
268.521
268.417
268.313
268.21
268.106
268.003
267.899
267.795
267.692
267.588
267.485
267.381
267.278
267.175
267.071
266.968
266.864
266.761
266.658
266.554
266.451
266.348
266.245
266.141
266.038
265.935
265.832
265.729
265.626
265.522
265.419
265.316
265.213
265.11
265.007
264.904
264.801
264.698
264.596
264.493
264.39
264.287
264.184
264.081
263.979
263.876
263.773
263.671
263.568
263.465
263.363
263.26
263.157
263.055
262.952
262.849
262.746
262.644
262.541
262.439
262.336
262.234
262.132
262.029
261.927
261.825
261.723
261.621
261.518
261.416
261.314
261.212
261.11
261.008
260.906
260.804
260.702
260.6
260.498
260.396
260.293
260.191
260.09
259.988
259.886
259.784
259.682
259.58
259.478
259.377
259.276
259.174
259.072
258.97
258.868
258.766
258.665
258.564
258.462
258.36
258.258
258.157
258.056
257.955
257.853
257.751
257.65
257.549
257.448
257.347
257.244
257.142
257.041
256.942
256.843
256.741
256.637
256.534
256.432
256.334
256.238
256.136
256.032
255.927
255.824
255.725
255.634
255.533
255.428
255.323
255.219
255.117
255.026
254.929
254.825
254.72
254.616
254.512
254.414
254.322
254.221
254.117
254.013
253.909
253.807
253.709
253.621
253.527
253.424
253.32
253.215
253.111
253.009
252.914
252.82
252.717
252.614
252.511
252.409
252.313
252.219
252.117
252.014
251.911
251.809
251.715
251.619
251.517
251.415
251.312
251.211
251.117
251.021
250.919
250.817
250.716
250.615
250.52
250.425
250.324
250.223
250.122
250.022
249.926
249.833
249.734
249.635
249.537
249.439
249.346
249.256
249.162
249.068
248.975
248.885
248.799
248.718
248.638
248.559
248.484
248.412
248.346
248.287
248.235
248.188
248.148
248.113
248.084
248.064
248.05
248.041
248.034
248.028
248.02
248.016
248.015
248.017
248.023
248.03
248.037
248.041
248.045
248.052
248.058
248.065
248.072
248.077
248.078
248.079
248.085
248.092
248.099
248.108
248.116
248.118
248.121
248.127
248.132
248.135
248.135
248.128
248.111
248.097
248.082
248.066
248.053
248.041
248.032
248.025
248.012
247.996
247.991
247.99
247.99
247.994
247.995
247.995
247.994
247.986
247.975
247.976
247.98
247.984
247.993
248
248.005
248.01
248.011
248.008
248.013
248.02
248.026
248.032
248.037
248.039
248.04
248.038
248.032
248.01
247.99
247.979
247.971
247.964
247.959
247.954
247.95
247.947
247.942
247.933
247.923
247.921
247.921
247.921
247.922
247.922
247.923
247.923
247.92
247.911
247.911
247.914
247.917
247.92
247.923
247.926
247.93
247.932
247.936
247.941
247.945
247.947
247.948
247.944
247.929
247.919
247.914
247.908
247.901
247.899
247.894
247.889
247.885
247.876
247.862
247.857
247.855
247.853
247.853
247.852
247.852
247.849
247.836
247.828
247.828
247.83
247.835
247.855
247.87
247.874
247.877
247.877
247.859
247.842
247.843
247.847
247.854
247.871
247.888
247.892
247.893
247.891
247.872
247.851
247.845
247.84
247.835
247.84
247.848
247.846
247.842
247.838
247.822
247.797
247.791
247.79
247.789
247.793
247.799
247.8
247.8
247.799
247.789
247.78
247.779
247.781
247.783
247.79
247.796
247.799
247.802
247.803
247.798
247.797
247.801
247.805
247.809
247.814
247.819
247.819
247.819
247.817
247.81
247.79
247.768
247.76
247.755
247.752
247.75
247.755
247.763
247.763
247.762
247.76
247.754
247.732
247.722
247.72
247.721
247.724
247.74
247.77
247.778
247.78
247.78
247.777
247.753
247.732
247.731
247.733
247.737
247.746
247.764
247.77
247.772
247.773
247.766
247.74
247.728
247.724
247.721
247.72
247.733
247.769
247.776
247.774
247.771
247.766
247.748
247.717
247.709
247.708
247.708
247.711
247.72
247.722
247.722
247.722
247.717
247.698
247.689
247.689
247.691
247.694
247.708
247.734
247.741
247.744
247.747
247.746
247.735
247.72
247.719
247.72
247.721
247.721
247.724
247.735
247.742
247.74
247.737
247.735
247.733
247.73
247.727
247.718
247.685
247.652
247.647
247.646
247.646
247.651
247.674
247.715
247.723
247.724
247.724
247.72
247.696
247.663
247.658
247.659
247.66
247.666
247.69
247.706
247.711
247.713
247.713
247.706
247.693
247.691
247.691
247.691
247.694
247.699
247.698
247.694
247.69
247.687
247.683
247.681
247.681
247.68
247.679
247.68
247.68
247.679
247.68
247.68
247.68
247.68
247.679
247.679
247.68
247.682
247.685
247.688
247.69
247.689
247.688
247.688
247.688
247.69
247.693
247.697
247.699
247.7
247.699
247.695
247.692
247.69
247.69
247.689
247.688
247.686
247.684
247.683
247.682
247.681
247.679
247.678
247.677
247.676
247.676
247.677
247.678
247.678
247.679
247.679
247.678
247.678
247.679
247.681
247.682
247.684
247.686
247.686
247.687
247.687
247.689
247.691
247.694
247.696
247.696
247.696
247.696
247.695
247.695
247.695
247.695
247.694
247.693
247.69
247.687
247.685
247.685
247.686
247.687
247.686
247.686
247.685
247.683
247.682
247.682
247.684
247.687
247.689
247.689
247.689
247.689
247.688
247.688
247.69
247.692
247.694
247.696
247.698
247.698
247.699
247.699
247.7
247.701
247.701
247.701
247.701
247.699
247.698
247.697
247.696
247.695
247.693
247.692
247.689
247.687
247.687
247.689
247.689
247.691
247.691
247.69
247.689
247.686
247.685
247.685
247.686
247.688
247.689
247.69
247.691
247.691
247.692
247.693
247.695
247.696
247.695
247.695
247.695
247.695
247.696
247.698
247.699
247.699
247.698
247.696
247.693
247.691
247.69
247.692
247.697
247.72
247.816
248.199
249.033
249.646
249.826
249.964
250.041
250.047
250.033
250.004
249.993
249.995
250.012
250.03
250.03
250.025
250.009
250.003
250.004
250.01
250.02
250.022
250.02
250.013
250.007
250.007
250.01
250.016
250.018
250.018
250.014
250.007
250.004
250.004
250.006
250.01
250.01
250.009
250.007
250.004
250.004
250.005
250.004
250.003
250.002
249.999
249.997
249.998
249.998
249.999
249.998
249.995
249.99
249.986
249.985
249.986
249.989
249.992
249.995
249.996
249.999
250.01
250.051
250.199
250.642
251.224
251.569
251.781
251.839
251.836
251.839
251.857
251.877
251.879
251.875
251.863
251.859
251.86
251.865
251.875
251.877
251.873
251.866
251.858
251.857
251.86
251.868
251.873
251.873
251.871
251.866
251.864
251.863
251.862
251.862
251.862
251.86
251.859
251.86
251.867
)
;

boundaryField
{
    sides
    {
        type            zeroGradient;
    }
    empty
    {
        type            empty;
    }
}


// ************************************************************************* //
