/*--------------------------------*- C++ -*----------------------------------*\
  =========                 |
  \\      /  F ield         | OpenFOAM: The Open Source CFD Toolbox
   \\    /   O peration     | Website:  https://openfoam.org
    \\  /    A nd           | Version:  9
     \\/     M anipulation  |
\*---------------------------------------------------------------------------*/
FoamFile
{
    format      ascii;
    class       volVectorField;
    location    "0.027";
    object      U;
}
// * * * * * * * * * * * * * * * * * * * * * * * * * * * * * * * * * * * * * //

dimensions      [0 1 -1 0 0 0 0];

internalField   nonuniform List<vector> 
1000
(
(162.15 0 0)
(162.635 0 0)
(162.917 0 0)
(163.224 0 0)
(163.524 0 0)
(163.825 0 0)
(164.126 0 0)
(164.426 0 0)
(164.726 0 0)
(165.027 0 0)
(165.327 0 0)
(165.627 0 0)
(165.928 0 0)
(166.229 0 0)
(166.53 0 0)
(166.831 0 0)
(167.133 0 0)
(167.434 0 0)
(167.735 0 0)
(168.036 0 0)
(168.337 0 0)
(168.638 0 0)
(168.938 0 0)
(169.238 0 0)
(169.538 0 0)
(169.839 0 0)
(170.139 0 0)
(170.439 0 0)
(170.74 0 0)
(171.041 0 0)
(171.342 0 0)
(171.643 0 0)
(171.944 0 0)
(172.245 0 0)
(172.546 0 0)
(172.847 0 0)
(173.149 0 0)
(173.45 0 0)
(173.751 0 0)
(174.052 0 0)
(174.353 0 0)
(174.654 0 0)
(174.956 0 0)
(175.257 0 0)
(175.558 0 0)
(175.86 0 0)
(176.161 0 0)
(176.463 0 0)
(176.764 0 0)
(177.065 0 0)
(177.366 0 0)
(177.668 0 0)
(177.969 0 0)
(178.271 0 0)
(178.572 0 0)
(178.873 0 0)
(179.174 0 0)
(179.475 0 0)
(179.776 0 0)
(180.077 0 0)
(180.377 0 0)
(180.678 0 0)
(180.978 0 0)
(181.278 0 0)
(181.578 0 0)
(181.878 0 0)
(182.179 0 0)
(182.479 0 0)
(182.78 0 0)
(183.08 0 0)
(183.381 0 0)
(183.683 0 0)
(183.984 0 0)
(184.286 0 0)
(184.588 0 0)
(184.89 0 0)
(185.191 0 0)
(185.493 0 0)
(185.794 0 0)
(186.095 0 0)
(186.395 0 0)
(186.696 0 0)
(186.996 0 0)
(187.297 0 0)
(187.597 0 0)
(187.898 0 0)
(188.199 0 0)
(188.5 0 0)
(188.801 0 0)
(189.103 0 0)
(189.404 0 0)
(189.705 0 0)
(190.006 0 0)
(190.307 0 0)
(190.608 0 0)
(190.909 0 0)
(191.209 0 0)
(191.51 0 0)
(191.811 0 0)
(192.111 0 0)
(192.412 0 0)
(192.712 0 0)
(193.013 0 0)
(193.313 0 0)
(193.614 0 0)
(193.915 0 0)
(194.215 0 0)
(194.516 0 0)
(194.816 0 0)
(195.117 0 0)
(195.417 0 0)
(195.718 0 0)
(196.018 0 0)
(196.319 0 0)
(196.619 0 0)
(196.92 0 0)
(197.22 0 0)
(197.52 0 0)
(197.821 0 0)
(198.121 0 0)
(198.422 0 0)
(198.722 0 0)
(199.023 0 0)
(199.323 0 0)
(199.623 0 0)
(199.922 0 0)
(200.222 0 0)
(200.521 0 0)
(200.82 0 0)
(201.12 0 0)
(201.419 0 0)
(201.719 0 0)
(202.02 0 0)
(202.32 0 0)
(202.62 0 0)
(202.919 0 0)
(203.219 0 0)
(203.519 0 0)
(203.819 0 0)
(204.119 0 0)
(204.42 0 0)
(204.72 0 0)
(205.021 0 0)
(205.321 0 0)
(205.621 0 0)
(205.922 0 0)
(206.222 0 0)
(206.522 0 0)
(206.823 0 0)
(207.123 0 0)
(207.424 0 0)
(207.725 0 0)
(208.025 0 0)
(208.326 0 0)
(208.626 0 0)
(208.926 0 0)
(209.226 0 0)
(209.527 0 0)
(209.827 0 0)
(210.128 0 0)
(210.429 0 0)
(210.729 0 0)
(211.03 0 0)
(211.33 0 0)
(211.631 0 0)
(211.931 0 0)
(212.232 0 0)
(212.532 0 0)
(212.832 0 0)
(213.133 0 0)
(213.433 0 0)
(213.733 0 0)
(214.034 0 0)
(214.334 0 0)
(214.635 0 0)
(214.935 0 0)
(215.235 0 0)
(215.536 0 0)
(215.836 0 0)
(216.136 0 0)
(216.437 0 0)
(216.737 0 0)
(217.038 0 0)
(217.338 0 0)
(217.639 0 0)
(217.94 0 0)
(218.24 0 0)
(218.541 0 0)
(218.841 0 0)
(219.142 0 0)
(219.442 0 0)
(219.743 0 0)
(220.043 0 0)
(220.344 0 0)
(220.644 0 0)
(220.945 0 0)
(221.245 0 0)
(221.546 0 0)
(221.846 0 0)
(222.146 0 0)
(222.447 0 0)
(222.747 0 0)
(223.047 0 0)
(223.348 0 0)
(223.648 0 0)
(223.949 0 0)
(224.249 0 0)
(224.55 0 0)
(224.85 0 0)
(225.151 0 0)
(225.451 0 0)
(225.752 0 0)
(226.052 0 0)
(226.352 0 0)
(226.653 0 0)
(226.953 0 0)
(227.254 0 0)
(227.554 0 0)
(227.855 0 0)
(228.155 0 0)
(228.456 0 0)
(228.756 0 0)
(229.056 0 0)
(229.357 0 0)
(229.657 0 0)
(229.958 0 0)
(230.258 0 0)
(230.558 0 0)
(230.859 0 0)
(231.159 0 0)
(231.459 0 0)
(231.76 0 0)
(232.06 0 0)
(232.361 0 0)
(232.661 0 0)
(232.962 0 0)
(233.262 0 0)
(233.563 0 0)
(233.863 0 0)
(234.163 0 0)
(234.464 0 0)
(234.764 0 0)
(235.064 0 0)
(235.365 0 0)
(235.665 0 0)
(235.966 0 0)
(236.266 0 0)
(236.566 0 0)
(236.867 0 0)
(237.167 0 0)
(237.467 0 0)
(237.768 0 0)
(238.068 0 0)
(238.368 0 0)
(238.669 0 0)
(238.969 0 0)
(239.27 0 0)
(239.57 0 0)
(239.871 0 0)
(240.171 0 0)
(240.471 0 0)
(240.772 0 0)
(241.072 0 0)
(241.372 0 0)
(241.673 0 0)
(241.973 0 0)
(242.273 0 0)
(242.574 0 0)
(242.874 0 0)
(243.174 0 0)
(243.475 0 0)
(243.775 0 0)
(244.076 0 0)
(244.376 0 0)
(244.676 0 0)
(244.977 0 0)
(245.277 0 0)
(245.577 0 0)
(245.878 0 0)
(246.178 0 0)
(246.478 0 0)
(246.779 0 0)
(247.079 0 0)
(247.379 0 0)
(247.68 0 0)
(247.98 0 0)
(248.28 0 0)
(248.58 0 0)
(248.881 0 0)
(249.181 0 0)
(249.481 0 0)
(249.782 0 0)
(250.082 0 0)
(250.383 0 0)
(250.684 0 0)
(250.985 0 0)
(251.286 0 0)
(251.587 0 0)
(251.888 0 0)
(252.188 0 0)
(252.488 0 0)
(252.788 0 0)
(253.089 0 0)
(253.389 0 0)
(253.689 0 0)
(253.989 0 0)
(254.288 0 0)
(254.588 0 0)
(254.888 0 0)
(255.189 0 0)
(255.489 0 0)
(255.79 0 0)
(256.09 0 0)
(256.39 0 0)
(256.69 0 0)
(256.99 0 0)
(257.291 0 0)
(257.592 0 0)
(257.892 0 0)
(258.192 0 0)
(258.491 0 0)
(258.792 0 0)
(259.093 0 0)
(259.394 0 0)
(259.695 0 0)
(259.994 0 0)
(260.293 0 0)
(260.593 0 0)
(260.894 0 0)
(261.195 0 0)
(261.497 0 0)
(261.797 0 0)
(262.096 0 0)
(262.395 0 0)
(262.695 0 0)
(262.996 0 0)
(263.298 0 0)
(263.599 0 0)
(263.898 0 0)
(264.197 0 0)
(264.497 0 0)
(264.798 0 0)
(265.1 0 0)
(265.4 0 0)
(265.699 0 0)
(265.998 0 0)
(266.299 0 0)
(266.602 0 0)
(266.904 0 0)
(267.203 0 0)
(267.5 0 0)
(267.797 0 0)
(268.097 0 0)
(268.405 0 0)
(268.711 0 0)
(269.009 0 0)
(269.302 0 0)
(269.595 0 0)
(269.892 0 0)
(270.204 0 0)
(270.521 0 0)
(270.818 0 0)
(271.108 0 0)
(271.397 0 0)
(271.689 0 0)
(271.997 0 0)
(272.325 0 0)
(272.627 0 0)
(272.915 0 0)
(273.202 0 0)
(273.49 0 0)
(273.789 0 0)
(274.118 0 0)
(274.433 0 0)
(274.723 0 0)
(275.009 0 0)
(275.296 0 0)
(275.587 0 0)
(275.896 0 0)
(276.224 0 0)
(276.523 0 0)
(276.812 0 0)
(277.101 0 0)
(277.391 0 0)
(277.685 0 0)
(277.992 0 0)
(278.333 0 0)
(278.653 0 0)
(278.945 0 0)
(279.233 0 0)
(279.521 0 0)
(279.81 0 0)
(280.103 0 0)
(280.418 0 0)
(280.738 0 0)
(281.032 0 0)
(281.322 0 0)
(281.612 0 0)
(281.906 0 0)
(282.22 0 0)
(282.538 0 0)
(282.832 0 0)
(283.122 0 0)
(283.413 0 0)
(283.708 0 0)
(284.025 0 0)
(284.338 0 0)
(284.632 0 0)
(284.923 0 0)
(285.214 0 0)
(285.51 0 0)
(285.825 0 0)
(286.137 0 0)
(286.431 0 0)
(286.722 0 0)
(287.013 0 0)
(287.308 0 0)
(287.622 0 0)
(287.933 0 0)
(288.226 0 0)
(288.517 0 0)
(288.808 0 0)
(289.1 0 0)
(289.406 0 0)
(289.718 0 0)
(290.01 0 0)
(290.297 0 0)
(290.584 0 0)
(290.87 0 0)
(291.167 0 0)
(291.464 0 0)
(291.743 0 0)
(292.015 0 0)
(292.281 0 0)
(292.543 0 0)
(292.802 0 0)
(293.064 0 0)
(293.311 0 0)
(293.542 0 0)
(293.759 0 0)
(293.962 0 0)
(294.154 0 0)
(294.333 0 0)
(294.495 0 0)
(294.633 0 0)
(294.747 0 0)
(294.831 0 0)
(294.896 0 0)
(294.948 0 0)
(294.985 0 0)
(295.01 0 0)
(295.025 0 0)
(295.03 0 0)
(295.018 0 0)
(295.007 0 0)
(295 0 0)
(294.987 0 0)
(294.967 0 0)
(294.937 0 0)
(294.897 0 0)
(294.845 0 0)
(294.803 0 0)
(294.775 0 0)
(294.751 0 0)
(294.727 0 0)
(294.701 0 0)
(294.668 0 0)
(294.62 0 0)
(294.579 0 0)
(294.553 0 0)
(294.53 0 0)
(294.504 0 0)
(294.474 0 0)
(294.434 0 0)
(294.375 0 0)
(294.323 0 0)
(294.295 0 0)
(294.278 0 0)
(294.267 0 0)
(294.261 0 0)
(294.252 0 0)
(294.234 0 0)
(294.258 0 0)
(294.302 0 0)
(294.351 0 0)
(294.398 0 0)
(294.433 0 0)
(294.459 0 0)
(294.472 0 0)
(294.458 0 0)
(294.425 0 0)
(294.423 0 0)
(294.427 0 0)
(294.434 0 0)
(294.452 0 0)
(294.46 0 0)
(294.46 0 0)
(294.453 0 0)
(294.418 0 0)
(294.365 0 0)
(294.346 0 0)
(294.334 0 0)
(294.326 0 0)
(294.331 0 0)
(294.327 0 0)
(294.314 0 0)
(294.295 0 0)
(294.26 0 0)
(294.204 0 0)
(294.173 0 0)
(294.151 0 0)
(294.133 0 0)
(294.121 0 0)
(294.115 0 0)
(294.11 0 0)
(294.108 0 0)
(294.109 0 0)
(294.11 0 0)
(294.082 0 0)
(294.067 0 0)
(294.087 0 0)
(294.111 0 0)
(294.131 0 0)
(294.149 0 0)
(294.164 0 0)
(294.176 0 0)
(294.185 0 0)
(294.187 0 0)
(294.168 0 0)
(294.145 0 0)
(294.143 0 0)
(294.143 0 0)
(294.144 0 0)
(294.147 0 0)
(294.148 0 0)
(294.146 0 0)
(294.139 0 0)
(294.117 0 0)
(294.073 0 0)
(294.051 0 0)
(294.039 0 0)
(294.029 0 0)
(294.019 0 0)
(294.01 0 0)
(293.997 0 0)
(293.978 0 0)
(293.95 0 0)
(293.926 0 0)
(293.909 0 0)
(293.896 0 0)
(293.887 0 0)
(293.879 0 0)
(293.863 0 0)
(293.815 0 0)
(293.794 0 0)
(293.803 0 0)
(293.822 0 0)
(293.85 0 0)
(293.891 0 0)
(293.919 0 0)
(293.934 0 0)
(293.943 0 0)
(293.934 0 0)
(293.902 0 0)
(293.899 0 0)
(293.904 0 0)
(293.909 0 0)
(293.916 0 0)
(293.919 0 0)
(293.919 0 0)
(293.91 0 0)
(293.869 0 0)
(293.841 0 0)
(293.837 0 0)
(293.835 0 0)
(293.842 0 0)
(293.892 0 0)
(293.923 0 0)
(293.918 0 0)
(293.906 0 0)
(293.884 0 0)
(293.811 0 0)
(293.74 0 0)
(293.72 0 0)
(293.706 0 0)
(293.697 0 0)
(293.72 0 0)
(293.748 0 0)
(293.745 0 0)
(293.739 0 0)
(293.727 0 0)
(293.67 0 0)
(293.613 0 0)
(293.615 0 0)
(293.631 0 0)
(293.659 0 0)
(293.717 0 0)
(293.779 0 0)
(293.799 0 0)
(293.808 0 0)
(293.807 0 0)
(293.767 0 0)
(293.697 0 0)
(293.687 0 0)
(293.69 0 0)
(293.695 0 0)
(293.712 0 0)
(293.736 0 0)
(293.74 0 0)
(293.739 0 0)
(293.731 0 0)
(293.697 0 0)
(293.66 0 0)
(293.652 0 0)
(293.647 0 0)
(293.643 0 0)
(293.646 0 0)
(293.646 0 0)
(293.638 0 0)
(293.629 0 0)
(293.615 0 0)
(293.584 0 0)
(293.561 0 0)
(293.547 0 0)
(293.536 0 0)
(293.528 0 0)
(293.531 0 0)
(293.536 0 0)
(293.536 0 0)
(293.537 0 0)
(293.541 0 0)
(293.54 0 0)
(293.504 0 0)
(293.465 0 0)
(293.472 0 0)
(293.485 0 0)
(293.497 0 0)
(293.51 0 0)
(293.541 0 0)
(293.573 0 0)
(293.58 0 0)
(293.582 0 0)
(293.582 0 0)
(293.566 0 0)
(293.502 0 0)
(293.473 0 0)
(293.471 0 0)
(293.472 0 0)
(293.478 0 0)
(293.523 0 0)
(293.611 0 0)
(293.628 0 0)
(293.626 0 0)
(293.62 0 0)
(293.597 0 0)
(293.508 0 0)
(293.423 0 0)
(293.403 0 0)
(293.395 0 0)
(293.391 0 0)
(293.405 0 0)
(293.441 0 0)
(293.441 0 0)
(293.434 0 0)
(293.424 0 0)
(293.396 0 0)
(293.311 0 0)
(293.278 0 0)
(293.28 0 0)
(293.291 0 0)
(293.313 0 0)
(293.378 0 0)
(293.512 0 0)
(293.555 0 0)
(293.568 0 0)
(293.575 0 0)
(293.571 0 0)
(293.52 0 0)
(293.426 0 0)
(293.407 0 0)
(293.406 0 0)
(293.408 0 0)
(293.419 0 0)
(293.451 0 0)
(293.462 0 0)
(293.463 0 0)
(293.46 0 0)
(293.439 0 0)
(293.369 0 0)
(293.331 0 0)
(293.324 0 0)
(293.321 0 0)
(293.325 0 0)
(293.361 0 0)
(293.429 0 0)
(293.437 0 0)
(293.431 0 0)
(293.422 0 0)
(293.406 0 0)
(293.357 0 0)
(293.297 0 0)
(293.283 0 0)
(293.278 0 0)
(293.276 0 0)
(293.278 0 0)
(293.292 0 0)
(293.341 0 0)
(293.383 0 0)
(293.401 0 0)
(293.412 0 0)
(293.418 0 0)
(293.423 0 0)
(293.428 0 0)
(293.429 0 0)
(293.412 0 0)
(293.316 0 0)
(293.218 0 0)
(293.204 0 0)
(293.204 0 0)
(293.206 0 0)
(293.22 0 0)
(293.296 0 0)
(293.427 0 0)
(293.454 0 0)
(293.456 0 0)
(293.452 0 0)
(293.432 0 0)
(293.342 0 0)
(293.228 0 0)
(293.206 0 0)
(293.202 0 0)
(293.202 0 0)
(293.215 0 0)
(293.279 0 0)
(293.312 0 0)
(293.309 0 0)
(293.302 0 0)
(293.293 0 0)
(293.263 0 0)
(293.219 0 0)
(293.21 0 0)
(293.209 0 0)
(293.21 0 0)
(293.22 0 0)
(293.248 0 0)
(293.268 0 0)
(293.28 0 0)
(293.288 0 0)
(293.29 0 0)
(293.282 0 0)
(293.281 0 0)
(293.283 0 0)
(293.287 0 0)
(293.293 0 0)
(293.304 0 0)
(293.309 0 0)
(293.31 0 0)
(293.31 0 0)
(293.307 0 0)
(293.305 0 0)
(293.304 0 0)
(293.304 0 0)
(293.306 0 0)
(293.31 0 0)
(293.31 0 0)
(293.305 0 0)
(293.3 0 0)
(293.294 0 0)
(293.287 0 0)
(293.283 0 0)
(293.28 0 0)
(293.277 0 0)
(293.271 0 0)
(293.263 0 0)
(293.256 0 0)
(293.253 0 0)
(293.25 0 0)
(293.246 0 0)
(293.239 0 0)
(293.238 0 0)
(293.239 0 0)
(293.242 0 0)
(293.247 0 0)
(293.256 0 0)
(293.267 0 0)
(293.276 0 0)
(293.281 0 0)
(293.284 0 0)
(293.286 0 0)
(293.287 0 0)
(293.287 0 0)
(293.289 0 0)
(293.292 0 0)
(293.297 0 0)
(293.301 0 0)
(293.302 0 0)
(293.301 0 0)
(293.299 0 0)
(293.297 0 0)
(293.296 0 0)
(293.295 0 0)
(293.296 0 0)
(293.297 0 0)
(293.295 0 0)
(293.29 0 0)
(293.285 0 0)
(293.281 0 0)
(293.278 0 0)
(293.277 0 0)
(293.276 0 0)
(293.275 0 0)
(293.269 0 0)
(293.263 0 0)
(293.258 0 0)
(293.256 0 0)
(293.256 0 0)
(293.259 0 0)
(293.265 0 0)
(293.272 0 0)
(293.276 0 0)
(293.28 0 0)
(293.284 0 0)
(293.29 0 0)
(293.299 0 0)
(293.306 0 0)
(293.31 0 0)
(293.311 0 0)
(293.311 0 0)
(293.31 0 0)
(293.31 0 0)
(293.311 0 0)
(293.313 0 0)
(293.316 0 0)
(293.318 0 0)
(293.323 0 0)
(293.326 0 0)
(293.324 0 0)
(293.322 0 0)
(293.321 0 0)
(293.32 0 0)
(293.318 0 0)
(293.317 0 0)
(293.313 0 0)
(293.307 0 0)
(293.303 0 0)
(293.303 0 0)
(293.304 0 0)
(293.304 0 0)
(293.302 0 0)
(293.299 0 0)
(293.294 0 0)
(293.289 0 0)
(293.287 0 0)
(293.287 0 0)
(293.29 0 0)
(293.296 0 0)
(293.302 0 0)
(293.305 0 0)
(293.308 0 0)
(293.309 0 0)
(293.311 0 0)
(293.315 0 0)
(293.321 0 0)
(293.325 0 0)
(293.328 0 0)
(293.328 0 0)
(293.326 0 0)
(293.323 0 0)
(293.323 0 0)
(293.324 0 0)
(293.327 0 0)
(293.331 0 0)
(293.333 0 0)
(293.332 0 0)
(293.328 0 0)
(293.323 0 0)
(293.32 0 0)
(293.317 0 0)
(293.317 0 0)
(293.318 0 0)
(293.317 0 0)
(293.314 0 0)
(293.308 0 0)
(293.303 0 0)
(293.301 0 0)
(293.3 0 0)
(293.299 0 0)
(293.299 0 0)
(293.297 0 0)
(293.294 0 0)
(293.292 0 0)
(293.29 0 0)
(293.291 0 0)
(293.298 0 0)
(293.306 0 0)
(293.311 0 0)
(293.313 0 0)
(293.313 0 0)
(293.297 0 0)
(293.221 0 0)
(292.915 0 0)
(291.694 0 0)
(289.048 0 0)
(287.17 0 0)
(286.343 0 0)
(286.047 0 0)
(285.962 0 0)
(285.93 0 0)
(285.926 0 0)
(285.934 0 0)
(285.933 0 0)
(285.932 0 0)
(285.933 0 0)
(285.928 0 0)
(285.927 0 0)
(285.927 0 0)
(285.923 0 0)
(285.927 0 0)
(285.927 0 0)
(285.929 0 0)
(285.932 0 0)
(285.933 0 0)
(285.936 0 0)
(285.936 0 0)
(285.937 0 0)
(285.936 0 0)
(285.935 0 0)
(285.937 0 0)
(285.936 0 0)
(285.938 0 0)
(285.939 0 0)
(285.938 0 0)
(285.936 0 0)
(285.934 0 0)
(285.935 0 0)
(285.939 0 0)
(285.945 0 0)
(285.953 0 0)
(285.96 0 0)
(285.961 0 0)
(285.96 0 0)
(285.957 0 0)
(285.951 0 0)
(285.953 0 0)
(285.959 0 0)
(285.964 0 0)
(285.971 0 0)
(285.981 0 0)
(285.984 0 0)
(285.987 0 0)
(285.99 0 0)
(285.993 0 0)
(285.996 0 0)
(285.998 0 0)
(285.998 0 0)
(285.997 0 0)
(285.994 0 0)
(285.991 0 0)
(285.989 0 0)
(285.984 0 0)
(285.973 0 0)
(285.935 0 0)
(285.799 0 0)
(285.328 0 0)
(283.927 0 0)
(282.092 0 0)
(280.948 0 0)
(280.43 0 0)
(280.215 0 0)
(280.12 0 0)
(280.075 0 0)
(280.054 0 0)
(280.042 0 0)
(280.042 0 0)
(280.044 0 0)
(280.049 0 0)
(280.06 0 0)
(280.063 0 0)
(280.064 0 0)
(280.066 0 0)
(280.058 0 0)
(280.05 0 0)
(280.047 0 0)
(280.043 0 0)
(280.042 0 0)
(280.044 0 0)
(280.054 0 0)
(280.065 0 0)
(280.07 0 0)
(280.073 0 0)
(280.07 0 0)
(280.067 0 0)
(280.058 0 0)
(280.043 0 0)
(280.04 0 0)
(280.04 0 0)
(280.04 0 0)
(280.042 0 0)
(280.049 0 0)
(280.067 0 0)
)
;

boundaryField
{
    sides
    {
        type            zeroGradient;
    }
    empty
    {
        type            empty;
    }
}


// ************************************************************************* //
