/*--------------------------------*- C++ -*----------------------------------*\
  =========                 |
  \\      /  F ield         | OpenFOAM: The Open Source CFD Toolbox
   \\    /   O peration     | Website:  https://openfoam.org
    \\  /    A nd           | Version:  9
     \\/     M anipulation  |
\*---------------------------------------------------------------------------*/
FoamFile
{
    format      ascii;
    class       volScalarField;
    location    "0.013";
    object      ddt0(rho,e);
}
// * * * * * * * * * * * * * * * * * * * * * * * * * * * * * * * * * * * * * //

dimensions      [1 -1 -3 0 0 0 0];

internalField   nonuniform List<scalar> 
10000
(
-0.00146829
-0.00171921
-0.00207956
-0.00255219
-0.00323103
-0.00419961
-0.00550907
-0.00710604
-0.0092903
-0.0121426
-0.0157223
-0.0204569
-0.0265888
-0.0344458
-0.0447336
-0.0578687
-0.0748574
-0.0966728
-0.124721
-0.160614
-0.206618
-0.265389
-0.340503
-0.436227
-0.558165
-0.713264
-0.910138
-1.15976
-1.47588
-1.87544
-2.37994
-3.01578
-3.81617
-4.82203
-6.08425
-7.66577
-9.64429
-12.1155
-15.1973
-19.0347
-23.805
-29.7255
-37.0617
-46.1372
-57.3454
-71.1646
-88.174
-109.074
-134.711
-166.104
-204.475
-251.293
-308.315
-377.636
-461.755
-563.639
-686.805
-835.414
-1014.37
-1229.46
-1487.44
-1796.25
-2165.15
-2604.9
-3128.01
-3748.95
-4484.41
-5353.56
-6378.42
-7584.1
-8999.21
-10656.2
-12591.7
-14847.1
-17468.5
-20507.7
-24022
-28075.1
-32736.9
-38084
-44199.9
-51175
-59106.9
-68099.7
-78264.1
-89716.9
-102580
-116981
-133048
-150915
-170714
-192575
-216627
-242990
-271779
-303095
-337028
-373650
-413015
-455153
-500073
-547756
-598155
-651196
-706773
-764752
-824970
-887236
-951335
-1.01703e+06
-1.08405e+06
-1.15214e+06
-1.221e+06
-1.29034e+06
-1.35987e+06
-1.42929e+06
-1.49832e+06
-1.56667e+06
-1.63409e+06
-1.70034e+06
-1.76519e+06
-1.82844e+06
-1.88992e+06
-1.94948e+06
-2.00699e+06
-2.06235e+06
-2.11549e+06
-2.16635e+06
-2.21492e+06
-2.26118e+06
-2.30514e+06
-2.34683e+06
-2.38628e+06
-2.42355e+06
-2.4587e+06
-2.49179e+06
-2.5229e+06
-2.55212e+06
-2.57953e+06
-2.60522e+06
-2.62927e+06
-2.65178e+06
-2.67282e+06
-2.69248e+06
-2.71085e+06
-2.728e+06
-2.744e+06
-2.75893e+06
-2.77284e+06
-2.78581e+06
-2.7979e+06
-2.80916e+06
-2.81964e+06
-2.8294e+06
-2.83847e+06
-2.84691e+06
-2.85475e+06
-2.86204e+06
-2.8688e+06
-2.87507e+06
-2.88088e+06
-2.88627e+06
-2.89124e+06
-2.89584e+06
-2.90009e+06
-2.904e+06
-2.90759e+06
-2.9109e+06
-2.91392e+06
-2.91668e+06
-2.9192e+06
-2.92149e+06
-2.92356e+06
-2.92542e+06
-2.92709e+06
-2.92858e+06
-2.92989e+06
-2.93104e+06
-2.93204e+06
-2.9329e+06
-2.93361e+06
-2.9342e+06
-2.93466e+06
-2.93501e+06
-2.93524e+06
-2.93538e+06
-2.93541e+06
-2.93535e+06
-2.9352e+06
-2.93496e+06
-2.93465e+06
-2.93426e+06
-2.93379e+06
-2.93326e+06
-2.93267e+06
-2.93201e+06
-2.93129e+06
-2.93051e+06
-2.92968e+06
-2.9288e+06
-2.92788e+06
-2.9269e+06
-2.92589e+06
-2.92483e+06
-2.92373e+06
-2.92259e+06
-2.92141e+06
-2.9202e+06
-2.91896e+06
-2.91769e+06
-2.91638e+06
-2.91505e+06
-2.91369e+06
-2.9123e+06
-2.91089e+06
-2.90945e+06
-2.90799e+06
-2.90651e+06
-2.905e+06
-2.90348e+06
-2.90194e+06
-2.90037e+06
-2.89879e+06
-2.8972e+06
-2.89558e+06
-2.89395e+06
-2.89231e+06
-2.89065e+06
-2.88898e+06
-2.88729e+06
-2.88559e+06
-2.88388e+06
-2.88216e+06
-2.88042e+06
-2.87868e+06
-2.87692e+06
-2.87515e+06
-2.87337e+06
-2.87159e+06
-2.86979e+06
-2.86799e+06
-2.86617e+06
-2.86435e+06
-2.86252e+06
-2.86068e+06
-2.85884e+06
-2.85699e+06
-2.85513e+06
-2.85326e+06
-2.85139e+06
-2.84951e+06
-2.84762e+06
-2.84573e+06
-2.84383e+06
-2.84193e+06
-2.84002e+06
-2.83811e+06
-2.83619e+06
-2.83426e+06
-2.83233e+06
-2.8304e+06
-2.82846e+06
-2.82651e+06
-2.82457e+06
-2.82261e+06
-2.82065e+06
-2.81869e+06
-2.81673e+06
-2.81476e+06
-2.81278e+06
-2.81081e+06
-2.80882e+06
-2.80684e+06
-2.80485e+06
-2.80286e+06
-2.80086e+06
-2.79886e+06
-2.79686e+06
-2.79485e+06
-2.79284e+06
-2.79083e+06
-2.78881e+06
-2.78679e+06
-2.78477e+06
-2.78275e+06
-2.78072e+06
-2.77869e+06
-2.77665e+06
-2.77462e+06
-2.77258e+06
-2.77053e+06
-2.76849e+06
-2.76644e+06
-2.76439e+06
-2.76234e+06
-2.76028e+06
-2.75822e+06
-2.75616e+06
-2.7541e+06
-2.75203e+06
-2.74996e+06
-2.74789e+06
-2.74582e+06
-2.74375e+06
-2.74167e+06
-2.73959e+06
-2.73751e+06
-2.73542e+06
-2.73334e+06
-2.73125e+06
-2.72916e+06
-2.72707e+06
-2.72497e+06
-2.72288e+06
-2.72078e+06
-2.71868e+06
-2.71658e+06
-2.71447e+06
-2.71237e+06
-2.71026e+06
-2.70815e+06
-2.70604e+06
-2.70393e+06
-2.70181e+06
-2.6997e+06
-2.69758e+06
-2.69546e+06
-2.69334e+06
-2.69122e+06
-2.68909e+06
-2.68697e+06
-2.68484e+06
-2.68271e+06
-2.68058e+06
-2.67845e+06
-2.67632e+06
-2.67418e+06
-2.67205e+06
-2.66991e+06
-2.66778e+06
-2.66564e+06
-2.6635e+06
-2.66136e+06
-2.65921e+06
-2.65707e+06
-2.65493e+06
-2.65278e+06
-2.65063e+06
-2.64849e+06
-2.64634e+06
-2.64419e+06
-2.64204e+06
-2.63989e+06
-2.63773e+06
-2.63558e+06
-2.63343e+06
-2.63127e+06
-2.62912e+06
-2.62696e+06
-2.6248e+06
-2.62264e+06
-2.62049e+06
-2.61833e+06
-2.61617e+06
-2.61401e+06
-2.61185e+06
-2.60968e+06
-2.60752e+06
-2.60536e+06
-2.6032e+06
-2.60103e+06
-2.59887e+06
-2.5967e+06
-2.59454e+06
-2.59237e+06
-2.59021e+06
-2.58804e+06
-2.58587e+06
-2.58371e+06
-2.58154e+06
-2.57937e+06
-2.5772e+06
-2.57504e+06
-2.57287e+06
-2.5707e+06
-2.56853e+06
-2.56636e+06
-2.56419e+06
-2.56202e+06
-2.55985e+06
-2.55768e+06
-2.55552e+06
-2.55335e+06
-2.55118e+06
-2.54901e+06
-2.54684e+06
-2.54467e+06
-2.5425e+06
-2.54033e+06
-2.53816e+06
-2.53599e+06
-2.53382e+06
-2.53165e+06
-2.52948e+06
-2.52731e+06
-2.52514e+06
-2.52297e+06
-2.5208e+06
-2.51863e+06
-2.51647e+06
-2.5143e+06
-2.51213e+06
-2.50996e+06
-2.50779e+06
-2.50563e+06
-2.50346e+06
-2.50129e+06
-2.49913e+06
-2.49696e+06
-2.49479e+06
-2.49263e+06
-2.49046e+06
-2.4883e+06
-2.48613e+06
-2.48397e+06
-2.4818e+06
-2.47964e+06
-2.47748e+06
-2.47532e+06
-2.47315e+06
-2.47099e+06
-2.46883e+06
-2.46667e+06
-2.46451e+06
-2.46235e+06
-2.46019e+06
-2.45803e+06
-2.45587e+06
-2.45371e+06
-2.45155e+06
-2.4494e+06
-2.44724e+06
-2.44508e+06
-2.44293e+06
-2.44077e+06
-2.43862e+06
-2.43646e+06
-2.43431e+06
-2.43216e+06
-2.43e+06
-2.42785e+06
-2.4257e+06
-2.42355e+06
-2.4214e+06
-2.41925e+06
-2.4171e+06
-2.41495e+06
-2.41281e+06
-2.41066e+06
-2.40851e+06
-2.40637e+06
-2.40422e+06
-2.40208e+06
-2.39993e+06
-2.39779e+06
-2.39565e+06
-2.39351e+06
-2.39137e+06
-2.38923e+06
-2.38709e+06
-2.38495e+06
-2.38281e+06
-2.38067e+06
-2.37853e+06
-2.3764e+06
-2.37426e+06
-2.37213e+06
-2.36999e+06
-2.36786e+06
-2.36573e+06
-2.3636e+06
-2.36147e+06
-2.35934e+06
-2.35721e+06
-2.35508e+06
-2.35295e+06
-2.35082e+06
-2.3487e+06
-2.34657e+06
-2.34445e+06
-2.34232e+06
-2.3402e+06
-2.33808e+06
-2.33596e+06
-2.33384e+06
-2.33172e+06
-2.3296e+06
-2.32748e+06
-2.32536e+06
-2.32324e+06
-2.32113e+06
-2.31901e+06
-2.3169e+06
-2.31478e+06
-2.31267e+06
-2.31056e+06
-2.30845e+06
-2.30634e+06
-2.30423e+06
-2.30212e+06
-2.30001e+06
-2.29791e+06
-2.2958e+06
-2.2937e+06
-2.29159e+06
-2.28949e+06
-2.28739e+06
-2.28529e+06
-2.28319e+06
-2.28109e+06
-2.27899e+06
-2.27689e+06
-2.27479e+06
-2.2727e+06
-2.2706e+06
-2.26851e+06
-2.26641e+06
-2.26432e+06
-2.26223e+06
-2.26014e+06
-2.25805e+06
-2.25596e+06
-2.25387e+06
-2.25178e+06
-2.2497e+06
-2.24761e+06
-2.24553e+06
-2.24344e+06
-2.24136e+06
-2.23928e+06
-2.2372e+06
-2.23512e+06
-2.23304e+06
-2.23096e+06
-2.22888e+06
-2.22681e+06
-2.22473e+06
-2.22266e+06
-2.22058e+06
-2.21851e+06
-2.21644e+06
-2.21437e+06
-2.2123e+06
-2.21023e+06
-2.20816e+06
-2.20609e+06
-2.20403e+06
-2.20196e+06
-2.1999e+06
-2.19784e+06
-2.19577e+06
-2.19371e+06
-2.19165e+06
-2.18959e+06
-2.18754e+06
-2.18548e+06
-2.18342e+06
-2.18137e+06
-2.17931e+06
-2.17726e+06
-2.1752e+06
-2.17315e+06
-2.1711e+06
-2.16905e+06
-2.167e+06
-2.16496e+06
-2.16291e+06
-2.16086e+06
-2.15882e+06
-2.15677e+06
-2.15473e+06
-2.15269e+06
-2.15065e+06
-2.14861e+06
-2.14657e+06
-2.14453e+06
-2.14249e+06
-2.14046e+06
-2.13842e+06
-2.13639e+06
-2.13435e+06
-2.13232e+06
-2.13029e+06
-2.12826e+06
-2.12623e+06
-2.1242e+06
-2.12218e+06
-2.12015e+06
-2.11812e+06
-2.1161e+06
-2.11408e+06
-2.11205e+06
-2.11003e+06
-2.10801e+06
-2.10599e+06
-2.10397e+06
-2.10196e+06
-2.09994e+06
-2.09793e+06
-2.09591e+06
-2.0939e+06
-2.09189e+06
-2.08987e+06
-2.08786e+06
-2.08585e+06
-2.08385e+06
-2.08184e+06
-2.07983e+06
-2.07783e+06
-2.07582e+06
-2.07382e+06
-2.07182e+06
-2.06981e+06
-2.06781e+06
-2.06581e+06
-2.06382e+06
-2.06182e+06
-2.05982e+06
-2.05783e+06
-2.05583e+06
-2.05384e+06
-2.05185e+06
-2.04985e+06
-2.04786e+06
-2.04588e+06
-2.04389e+06
-2.0419e+06
-2.03991e+06
-2.03793e+06
-2.03594e+06
-2.03396e+06
-2.03198e+06
-2.03e+06
-2.02802e+06
-2.02604e+06
-2.02406e+06
-2.02208e+06
-2.02011e+06
-2.01813e+06
-2.01616e+06
-2.01418e+06
-2.01221e+06
-2.01024e+06
-2.00827e+06
-2.0063e+06
-2.00433e+06
-2.00237e+06
-2.0004e+06
-1.99843e+06
-1.99647e+06
-1.99451e+06
-1.99254e+06
-1.99058e+06
-1.98862e+06
-1.98667e+06
-1.98471e+06
-1.98275e+06
-1.98079e+06
-1.97884e+06
-1.97689e+06
-1.97493e+06
-1.97298e+06
-1.97103e+06
-1.96908e+06
-1.96713e+06
-1.96518e+06
-1.96324e+06
-1.96129e+06
-1.95935e+06
-1.9574e+06
-1.95546e+06
-1.95352e+06
-1.95158e+06
-1.94964e+06
-1.9477e+06
-1.94576e+06
-1.94383e+06
-1.94189e+06
-1.93996e+06
-1.93802e+06
-1.93609e+06
-1.93416e+06
-1.93223e+06
-1.9303e+06
-1.92837e+06
-1.92645e+06
-1.92452e+06
-1.92259e+06
-1.92067e+06
-1.91875e+06
-1.91683e+06
-1.9149e+06
-1.91298e+06
-1.91106e+06
-1.90915e+06
-1.90723e+06
-1.90531e+06
-1.9034e+06
-1.90149e+06
-1.89957e+06
-1.89766e+06
-1.89575e+06
-1.89384e+06
-1.89193e+06
-1.89002e+06
-1.88812e+06
-1.88621e+06
-1.88431e+06
-1.8824e+06
-1.8805e+06
-1.8786e+06
-1.8767e+06
-1.8748e+06
-1.8729e+06
-1.871e+06
-1.86911e+06
-1.86721e+06
-1.86532e+06
-1.86342e+06
-1.86153e+06
-1.85964e+06
-1.85775e+06
-1.85586e+06
-1.85397e+06
-1.85209e+06
-1.8502e+06
-1.84831e+06
-1.84643e+06
-1.84455e+06
-1.84267e+06
-1.84078e+06
-1.8389e+06
-1.83703e+06
-1.83515e+06
-1.83327e+06
-1.8314e+06
-1.82952e+06
-1.82765e+06
-1.82577e+06
-1.8239e+06
-1.82203e+06
-1.82016e+06
-1.81829e+06
-1.81643e+06
-1.81456e+06
-1.81269e+06
-1.81083e+06
-1.80897e+06
-1.8071e+06
-1.80524e+06
-1.80338e+06
-1.80152e+06
-1.79966e+06
-1.79781e+06
-1.79595e+06
-1.7941e+06
-1.79224e+06
-1.79039e+06
-1.78854e+06
-1.78668e+06
-1.78483e+06
-1.78299e+06
-1.78114e+06
-1.77929e+06
-1.77744e+06
-1.7756e+06
-1.77375e+06
-1.77191e+06
-1.77007e+06
-1.76823e+06
-1.76639e+06
-1.76455e+06
-1.76271e+06
-1.76088e+06
-1.75904e+06
-1.75721e+06
-1.75537e+06
-1.75354e+06
-1.75171e+06
-1.74988e+06
-1.74805e+06
-1.74622e+06
-1.74439e+06
-1.74256e+06
-1.74074e+06
-1.73891e+06
-1.73709e+06
-1.73527e+06
-1.73345e+06
-1.73163e+06
-1.72981e+06
-1.72799e+06
-1.72617e+06
-1.72436e+06
-1.72254e+06
-1.72073e+06
-1.71891e+06
-1.7171e+06
-1.71529e+06
-1.71348e+06
-1.71167e+06
-1.70986e+06
-1.70806e+06
-1.70625e+06
-1.70444e+06
-1.70264e+06
-1.70084e+06
-1.69904e+06
-1.69723e+06
-1.69543e+06
-1.69364e+06
-1.69184e+06
-1.69004e+06
-1.68824e+06
-1.68645e+06
-1.68466e+06
-1.68286e+06
-1.68107e+06
-1.67928e+06
-1.67749e+06
-1.6757e+06
-1.67391e+06
-1.67213e+06
-1.67034e+06
-1.66856e+06
-1.66677e+06
-1.66499e+06
-1.66321e+06
-1.66143e+06
-1.65965e+06
-1.65787e+06
-1.65609e+06
-1.65432e+06
-1.65254e+06
-1.65077e+06
-1.64899e+06
-1.64722e+06
-1.64545e+06
-1.64368e+06
-1.64191e+06
-1.64014e+06
-1.63838e+06
-1.63661e+06
-1.63484e+06
-1.63308e+06
-1.63132e+06
-1.62955e+06
-1.62779e+06
-1.62603e+06
-1.62427e+06
-1.62252e+06
-1.62076e+06
-1.619e+06
-1.61725e+06
-1.61549e+06
-1.61374e+06
-1.61199e+06
-1.61024e+06
-1.60849e+06
-1.60674e+06
-1.60499e+06
-1.60324e+06
-1.6015e+06
-1.59975e+06
-1.59801e+06
-1.59626e+06
-1.59452e+06
-1.59278e+06
-1.59104e+06
-1.5893e+06
-1.58756e+06
-1.58583e+06
-1.58409e+06
-1.58236e+06
-1.58062e+06
-1.57889e+06
-1.57716e+06
-1.57543e+06
-1.5737e+06
-1.57197e+06
-1.57024e+06
-1.56851e+06
-1.56679e+06
-1.56506e+06
-1.56334e+06
-1.56162e+06
-1.5599e+06
-1.55817e+06
-1.55645e+06
-1.55474e+06
-1.55302e+06
-1.5513e+06
-1.54959e+06
-1.54787e+06
-1.54616e+06
-1.54444e+06
-1.54273e+06
-1.54102e+06
-1.53931e+06
-1.5376e+06
-1.5359e+06
-1.53419e+06
-1.53248e+06
-1.53078e+06
-1.52908e+06
-1.52737e+06
-1.52567e+06
-1.52397e+06
-1.52227e+06
-1.52057e+06
-1.51887e+06
-1.51718e+06
-1.51548e+06
-1.51379e+06
-1.51209e+06
-1.5104e+06
-1.50871e+06
-1.50702e+06
-1.50533e+06
-1.50364e+06
-1.50195e+06
-1.50027e+06
-1.49858e+06
-1.4969e+06
-1.49521e+06
-1.49353e+06
-1.49185e+06
-1.49017e+06
-1.48849e+06
-1.48681e+06
-1.48513e+06
-1.48345e+06
-1.48178e+06
-1.4801e+06
-1.47843e+06
-1.47676e+06
-1.47509e+06
-1.47342e+06
-1.47175e+06
-1.47008e+06
-1.46841e+06
-1.46674e+06
-1.46508e+06
-1.46341e+06
-1.46175e+06
-1.46009e+06
-1.45842e+06
-1.45676e+06
-1.4551e+06
-1.45344e+06
-1.45179e+06
-1.45013e+06
-1.44847e+06
-1.44682e+06
-1.44517e+06
-1.44351e+06
-1.44186e+06
-1.44021e+06
-1.43856e+06
-1.43691e+06
-1.43526e+06
-1.43362e+06
-1.43197e+06
-1.43033e+06
-1.42868e+06
-1.42704e+06
-1.4254e+06
-1.42376e+06
-1.42212e+06
-1.42048e+06
-1.41884e+06
-1.4172e+06
-1.41557e+06
-1.41393e+06
-1.4123e+06
-1.41066e+06
-1.40903e+06
-1.4074e+06
-1.40577e+06
-1.40414e+06
-1.40251e+06
-1.40089e+06
-1.39926e+06
-1.39763e+06
-1.39601e+06
-1.39439e+06
-1.39277e+06
-1.39114e+06
-1.38952e+06
-1.3879e+06
-1.38629e+06
-1.38467e+06
-1.38305e+06
-1.38144e+06
-1.37982e+06
-1.37821e+06
-1.3766e+06
-1.37499e+06
-1.37338e+06
-1.37177e+06
-1.37016e+06
-1.36855e+06
-1.36694e+06
-1.36534e+06
-1.36373e+06
-1.36213e+06
-1.36053e+06
-1.35893e+06
-1.35732e+06
-1.35573e+06
-1.35413e+06
-1.35253e+06
-1.35093e+06
-1.34934e+06
-1.34774e+06
-1.34615e+06
-1.34455e+06
-1.34296e+06
-1.34137e+06
-1.33978e+06
-1.33819e+06
-1.33661e+06
-1.33502e+06
-1.33343e+06
-1.33185e+06
-1.33026e+06
-1.32868e+06
-1.3271e+06
-1.32552e+06
-1.32394e+06
-1.32236e+06
-1.32078e+06
-1.3192e+06
-1.31763e+06
-1.31605e+06
-1.31448e+06
-1.3129e+06
-1.31133e+06
-1.30976e+06
-1.30819e+06
-1.30662e+06
-1.30505e+06
-1.30348e+06
-1.30192e+06
-1.30035e+06
-1.29879e+06
-1.29722e+06
-1.29566e+06
-1.2941e+06
-1.29254e+06
-1.29098e+06
-1.28942e+06
-1.28786e+06
-1.2863e+06
-1.28475e+06
-1.28319e+06
-1.28164e+06
-1.28008e+06
-1.27853e+06
-1.27698e+06
-1.27543e+06
-1.27388e+06
-1.27233e+06
-1.27079e+06
-1.26924e+06
-1.26769e+06
-1.26615e+06
-1.26461e+06
-1.26306e+06
-1.26152e+06
-1.25998e+06
-1.25844e+06
-1.2569e+06
-1.25537e+06
-1.25383e+06
-1.25229e+06
-1.25076e+06
-1.24923e+06
-1.24769e+06
-1.24616e+06
-1.24463e+06
-1.2431e+06
-1.24157e+06
-1.24004e+06
-1.23851e+06
-1.23699e+06
-1.23546e+06
-1.23394e+06
-1.23242e+06
-1.23089e+06
-1.22937e+06
-1.22785e+06
-1.22633e+06
-1.22481e+06
-1.2233e+06
-1.22178e+06
-1.22026e+06
-1.21875e+06
-1.21724e+06
-1.21572e+06
-1.21421e+06
-1.2127e+06
-1.21119e+06
-1.20968e+06
-1.20817e+06
-1.20667e+06
-1.20516e+06
-1.20365e+06
-1.20215e+06
-1.20065e+06
-1.19914e+06
-1.19764e+06
-1.19614e+06
-1.19464e+06
-1.19314e+06
-1.19165e+06
-1.19015e+06
-1.18865e+06
-1.18716e+06
-1.18566e+06
-1.18417e+06
-1.18268e+06
-1.18119e+06
-1.1797e+06
-1.17821e+06
-1.17672e+06
-1.17523e+06
-1.17375e+06
-1.17226e+06
-1.17078e+06
-1.16929e+06
-1.16781e+06
-1.16633e+06
-1.16485e+06
-1.16337e+06
-1.16189e+06
-1.16041e+06
-1.15894e+06
-1.15746e+06
-1.15599e+06
-1.15451e+06
-1.15304e+06
-1.15157e+06
-1.1501e+06
-1.14863e+06
-1.14716e+06
-1.14569e+06
-1.14422e+06
-1.14275e+06
-1.14129e+06
-1.13982e+06
-1.13836e+06
-1.1369e+06
-1.13544e+06
-1.13397e+06
-1.13251e+06
-1.13106e+06
-1.1296e+06
-1.12814e+06
-1.12668e+06
-1.12523e+06
-1.12377e+06
-1.12232e+06
-1.12087e+06
-1.11942e+06
-1.11797e+06
-1.11652e+06
-1.11507e+06
-1.11362e+06
-1.11217e+06
-1.11073e+06
-1.10928e+06
-1.10784e+06
-1.10639e+06
-1.10495e+06
-1.10351e+06
-1.10207e+06
-1.10063e+06
-1.09919e+06
-1.09776e+06
-1.09632e+06
-1.09488e+06
-1.09345e+06
-1.09201e+06
-1.09058e+06
-1.08915e+06
-1.08772e+06
-1.08629e+06
-1.08486e+06
-1.08343e+06
-1.082e+06
-1.08058e+06
-1.07915e+06
-1.07773e+06
-1.0763e+06
-1.07488e+06
-1.07346e+06
-1.07204e+06
-1.07062e+06
-1.0692e+06
-1.06778e+06
-1.06636e+06
-1.06495e+06
-1.06353e+06
-1.06212e+06
-1.0607e+06
-1.05929e+06
-1.05788e+06
-1.05647e+06
-1.05506e+06
-1.05365e+06
-1.05224e+06
-1.05083e+06
-1.04943e+06
-1.04802e+06
-1.04662e+06
-1.04522e+06
-1.04381e+06
-1.04241e+06
-1.04101e+06
-1.03961e+06
-1.03821e+06
-1.03681e+06
-1.03542e+06
-1.03402e+06
-1.03263e+06
-1.03123e+06
-1.02984e+06
-1.02845e+06
-1.02705e+06
-1.02566e+06
-1.02427e+06
-1.02289e+06
-1.0215e+06
-1.02011e+06
-1.01872e+06
-1.01734e+06
-1.01596e+06
-1.01457e+06
-1.01319e+06
-1.01181e+06
-1.01043e+06
-1.00905e+06
-1.00767e+06
-1.00629e+06
-1.00491e+06
-1.00354e+06
-1.00216e+06
-1.00079e+06
-999416
-998044
-996673
-995302
-993932
-992564
-991196
-989829
-988463
-987098
-985734
-984371
-983008
-981647
-980286
-978926
-977568
-976210
-974853
-973497
-972142
-970788
-969434
-968082
-966730
-965380
-964030
-962681
-961333
-959986
-958640
-957295
-955950
-954607
-953264
-951923
-950582
-949242
-947903
-946565
-945228
-943892
-942557
-941222
-939889
-938556
-937224
-935893
-934563
-933234
-931906
-930579
-929252
-927927
-926602
-925279
-923956
-922634
-921313
-919993
-918673
-917355
-916037
-914721
-913405
-912090
-910776
-909463
-908151
-906840
-905530
-904220
-902912
-901604
-900297
-898991
-897686
-896382
-895079
-893776
-892475
-891174
-889874
-888576
-887278
-885981
-884684
-883389
-882095
-880801
-879508
-878217
-876926
-875636
-874347
-873058
-871771
-870484
-869199
-867914
-866630
-865347
-864065
-862784
-861504
-860224
-858946
-857668
-856391
-855115
-853840
-852566
-851293
-850020
-848748
-847478
-846208
-844939
-843671
-842404
-841137
-839872
-838607
-837344
-836081
-834819
-833558
-832298
-831038
-829780
-828522
-827265
-826009
-824754
-823500
-822247
-820995
-819743
-818493
-817243
-815994
-814746
-813499
-812252
-811007
-809762
-808519
-807276
-806034
-804793
-803552
-802313
-801074
-799837
-798600
-797364
-796129
-794895
-793661
-792429
-791197
-789966
-788737
-787507
-786279
-785052
-783826
-782600
-781375
-780151
-778928
-777706
-776485
-775264
-774045
-772826
-771608
-770391
-769175
-767960
-766745
-765532
-764319
-763107
-761896
-760686
-759476
-758268
-757060
-755854
-754648
-753443
-752238
-751035
-749832
-748631
-747430
-746230
-745031
-743833
-742635
-741439
-740243
-739048
-737854
-736661
-735469
-734277
-733087
-731897
-730708
-729520
-728333
-727146
-725961
-724776
-723592
-722409
-721227
-720046
-718865
-717686
-716507
-715329
-714152
-712976
-711800
-710626
-709452
-708279
-707107
-705936
-704766
-703596
-702427
-701260
-700093
-698926
-697761
-696597
-695433
-694270
-693108
-691947
-690787
-689627
-688469
-687311
-686154
-684998
-683843
-682688
-681535
-680382
-679230
-678079
-676929
-675779
-674631
-673483
-672336
-671190
-670045
-668900
-667756
-666614
-665472
-664331
-663190
-662051
-660912
-659775
-658638
-657501
-656366
-655232
-654098
-652965
-651833
-650702
-649572
-648442
-647313
-646186
-645059
-643932
-642807
-641682
-640559
-639436
-638314
-637192
-636072
-634952
-633833
-632716
-631598
-630482
-629367
-628252
-627138
-626025
-624913
-623801
-622691
-621581
-620472
-619364
-618257
-617150
-616044
-614940
-613835
-612732
-611630
-610528
-609427
-608328
-607228
-606130
-605033
-603936
-602840
-601745
-600651
-599557
-598465
-597373
-596282
-595192
-594102
-593014
-591926
-590839
-589753
-588667
-587583
-586499
-585416
-584334
-583253
-582173
-581093
-580014
-578936
-577859
-576782
-575707
-574632
-573558
-572485
-571412
-570341
-569270
-568200
-567131
-566063
-564995
-563928
-562862
-561797
-560733
-559669
-558607
-557545
-556483
-555423
-554364
-553305
-552247
-551190
-550134
-549078
-548023
-546969
-545916
-544864
-543812
-542762
-541712
-540663
-539614
-538567
-537520
-536474
-535429
-534385
-533341
-532298
-531256
-530215
-529175
-528135
-527096
-526058
-525021
-523985
-522949
-521914
-520880
-519847
-518815
-517783
-516752
-515722
-514693
-513664
-512637
-511610
-510584
-509558
-508534
-507510
-506487
-505465
-504443
-503423
-502403
-501384
-500366
-499348
-498332
-497316
-496301
-495286
-494273
-493260
-492248
-491237
-490227
-489217
-488208
-487200
-486193
-485187
-484181
-483176
-482172
-481168
-480166
-479164
-478163
-477163
-476163
-475165
-474167
-473170
-472174
-471178
-470183
-469189
-468196
-467204
-466212
-465221
-464231
-463242
-462253
-461265
-460278
-459292
-458307
-457322
-456338
-455355
-454373
-453391
-452410
-451430
-450451
-449472
-448495
-447518
-446542
-445566
-444592
-443618
-442645
-441672
-440701
-439730
-438760
-437791
-436822
-435855
-434888
-433921
-432956
-431991
-431028
-430064
-429102
-428141
-427180
-426220
-425260
-424302
-423344
-422387
-421431
-420476
-419521
-418567
-417614
-416661
-415710
-414759
-413809
-412859
-411911
-410963
-410016
-409070
-408124
-407179
-406235
-405292
-404350
-403408
-402467
-401527
-400587
-399648
-398711
-397773
-396837
-395901
-394966
-394032
-393099
-392166
-391234
-390303
-389373
-388443
-387514
-386586
-385659
-384732
-383806
-382881
-381957
-381033
-380110
-379188
-378267
-377346
-376426
-375507
-374589
-373671
-372754
-371838
-370923
-370008
-369094
-368181
-367269
-366357
-365446
-364536
-363627
-362718
-361810
-360903
-359997
-359091
-358186
-357282
-356379
-355476
-354574
-353673
-352772
-351873
-350974
-350076
-349178
-348281
-347385
-346490
-345596
-344702
-343809
-342917
-342025
-341134
-340244
-339355
-338466
-337579
-336691
-335805
-334919
-334035
-333150
-332267
-331384
-330502
-329621
-328741
-327861
-326982
-326104
-325226
-324349
-323473
-322598
-321724
-320850
-319977
-319104
-318233
-317362
-316491
-315622
-314753
-313885
-313018
-312151
-311286
-310421
-309556
-308693
-307830
-306968
-306106
-305246
-304386
-303526
-302668
-301810
-300953
-300097
-299241
-298386
-297532
-296679
-295826
-294974
-294123
-293272
-292422
-291573
-290725
-289877
-289031
-288184
-287339
-286494
-285650
-284807
-283964
-283123
-282281
-281441
-280601
-279762
-278924
-278087
-277250
-276414
-275578
-274744
-273910
-273077
-272244
-271412
-270581
-269751
-268921
-268093
-267264
-266437
-265610
-264784
-263959
-263134
-262310
-261487
-260665
-259843
-259022
-258202
-257382
-256563
-255745
-254927
-254111
-253295
-252479
-251665
-250851
-250038
-249225
-248413
-247602
-246792
-245982
-245173
-244365
-243558
-242751
-241945
-241139
-240335
-239531
-238727
-237925
-237123
-236322
-235521
-234722
-233923
-233124
-232327
-231530
-230734
-229938
-229143
-228349
-227556
-226763
-225971
-225180
-224389
-223599
-222810
-222022
-221234
-220447
-219660
-218875
-218090
-217305
-216522
-215739
-214957
-214175
-213394
-212614
-211835
-211056
-210278
-209501
-208724
-207948
-207173
-206399
-205625
-204852
-204079
-203308
-202537
-201766
-200997
-200228
-199459
-198692
-197925
-197159
-196393
-195629
-194864
-194101
-193338
-192576
-191815
-191054
-190294
-189535
-188776
-188019
-187261
-186505
-185749
-184994
-184239
-183486
-182733
-181980
-181229
-180478
-179727
-178978
-178229
-177480
-176733
-175986
-175240
-174494
-173749
-173005
-172262
-171519
-170777
-170036
-169295
-168555
-167815
-167077
-166339
-165601
-164865
-164129
-163393
-162659
-161925
-161192
-160459
-159727
-158996
-158266
-157536
-156807
-156078
-155350
-154623
-153897
-153171
-152446
-151721
-150998
-150275
-149552
-148831
-148110
-147389
-146669
-145950
-145232
-144514
-143797
-143081
-142366
-141651
-140936
-140223
-139510
-138797
-138086
-137375
-136665
-135955
-135246
-134538
-133830
-133123
-132417
-131712
-131007
-130302
-129599
-128896
-128194
-127492
-126791
-126091
-125391
-124693
-123994
-123297
-122600
-121904
-121208
-120513
-119819
-119125
-118432
-117740
-117049
-116358
-115668
-114978
-114289
-113601
-112913
-112226
-111540
-110854
-110169
-109485
-108801
-108118
-107436
-106755
-106074
-105393
-104714
-104035
-103356
-102678
-102001
-101325
-100649
-99974.3
-99299.9
-98626.1
-97953.1
-97280.6
-96608.8
-95937.7
-95267.3
-94597.5
-93928.3
-93259.8
-92592
-91924.8
-91258.2
-90592.3
-89927.1
-89262.5
-88598.6
-87935.3
-87272.7
-86610.8
-85949.4
-85288.8
-84628.8
-83969.4
-83310.7
-82652.7
-81995.2
-81338.5
-80682.4
-80026.9
-79372.1
-78718
-78064.5
-77411.6
-76759.4
-76107.8
-75456.9
-74806.6
-74157
-73508
-72859.7
-72212
-71565
-70918.6
-70272.9
-69627.8
-68983.3
-68339.5
-67696.4
-67053.9
-66412
-65770.8
-65130.2
-64490.2
-63850.9
-63212.3
-62574.3
-61936.9
-61300.2
-60664.1
-60028.7
-59393.9
-58759.7
-58126.2
-57493.3
-56861.1
-56229.5
-55598.5
-54968.2
-54338.6
-53709.5
-53081.1
-52453.4
-51826.2
-51199.8
-50573.9
-49948.7
-49324.1
-48700.2
-48076.9
-47454.3
-46832.2
-46210.9
-45590.1
-44970
-44350.5
-43731.7
-43113.5
-42495.9
-41879
-41262.7
-40647
-40032
-39417.5
-38803.8
-38190.6
-37578.1
-36966.3
-36355
-35744.4
-35134.5
-34525.1
-33916.4
-33308.3
-32700.9
-32094
-31487.9
-30882.3
-30277.4
-29673.1
-29069.4
-28466.3
-27863.9
-27262.1
-26661
-26060.5
-25460.6
-24861.3
-24262.6
-23664.6
-23067.2
-22470.5
-21874.3
-21278.8
-20683.9
-20089.6
-19496
-18903
-18310.6
-17718.8
-17127.7
-16537.2
-15947.3
-15358
-14769.4
-14181.3
-13593.9
-13007.2
-12421
-11835.5
-11250.5
-10666.3
-10082.6
-9499.54
-8917.11
-8335.3
-7754.11
-7173.54
-6593.59
-6014.26
-5435.55
-4857.46
-4279.98
-3703.13
-3126.89
-2551.27
-1976.27
-1401.89
-828.121
-254.972
317.561
889.48
1460.78
2031.46
2601.53
3170.99
3739.83
4308.05
4875.66
5442.65
6009.03
6574.8
7139.95
7704.49
8268.42
8831.73
9394.43
9956.52
10518
11078.9
11639.1
12198.8
12757.8
13316.2
13874
14431.2
14987.8
15543.8
16099.1
16653.9
17208
17761.6
18314.5
18866.8
19418.6
19969.7
20520.2
21070
21619.3
22168
22716.1
23263.5
23810.4
24356.7
24902.3
25447.3
25991.8
26535.6
27078.8
27621.5
28163.5
28704.9
29245.7
29785.9
30325.5
30864.5
31402.9
31940.7
32477.9
33014.5
33550.5
34085.8
34620.6
35154.8
35688.4
36221.4
36753.8
37285.5
37816.7
38347.3
38877.3
39406.7
39935.5
40463.6
40991.2
41518.2
42044.6
42570.4
43095.6
43620.2
44144.2
44667.6
45190.4
45712.6
46234.2
46755.3
47275.7
47795.5
48314.8
48833.4
49351.4
49868.9
50385.8
50902
51417.7
51932.8
52447.3
52961.1
53474.4
53987.2
54499.3
55010.8
55521.7
56032.1
56541.8
57051
57559.5
58067.5
58574.9
59081.7
59587.9
60093.5
60598.6
61103
61606.9
62110.1
62612.8
63114.9
63616.4
64117.3
64617.6
65117.4
65616.5
66115.1
66613.1
67110.4
67607.3
68103.5
68599.1
69094.2
69588.6
70082.5
70575.8
71068.5
71560.7
72052.2
72543.2
73033.5
73523.3
74012.6
74501.2
74989.2
75476.7
75963.6
76449.9
76935.6
77420.8
77905.3
78389.3
78872.7
79355.5
79837.8
80319.4
80800.5
81281
81761
82240.3
82719.1
83197.3
83674.9
84151.9
84628.4
85104.2
85579.6
86054.3
86528.4
87002
87475
87947.4
88419.3
88890.5
89361.2
89831.4
90300.9
90769.9
91238.3
91706.1
92173.4
92640.1
93106.2
93571.7
94036.7
94501
94964.9
95428.1
95890.8
96352.9
96814.4
97275.4
97735.8
98195.6
98654.8
99113.5
99571.6
100029
100486
100943
101398
101854
102308
102762
103216
103669
104121
104573
105025
105475
105925
106375
106824
107273
107720
108168
108615
109061
109506
109951
110396
110840
111283
111726
112168
112610
113051
113492
113932
114371
114810
115248
115686
116123
116560
116996
117432
117867
118301
118735
119168
119601
120033
120465
120896
121326
121756
122185
122614
123042
123470
123897
124324
124750
125175
125600
126025
126448
126872
127294
127717
128138
128559
128980
129400
129819
130238
130656
131074
131491
131908
132324
132739
133154
133568
133982
134396
134808
135221
135632
136043
136454
136864
137273
137682
138091
138498
138906
139312
139719
140124
140529
140934
141338
141741
142144
142546
142948
143349
143750
144150
144550
144949
145347
145745
146143
146540
146936
147332
147727
148122
148516
148910
149303
149695
150087
150479
150870
151260
151650
152039
152428
152816
153204
153591
153977
154364
154749
155134
155518
155902
156286
156669
157051
157433
157814
158194
158575
158954
159333
159712
160090
160467
160844
161221
161596
161972
162347
162721
163095
163468
163840
164212
164584
164955
165326
165696
166065
166434
166802
167170
167538
167904
168271
168636
169002
169366
169730
170094
170457
170820
171182
171543
171904
172265
172624
172984
173343
173701
174059
174416
174773
175129
175485
175840
176195
176549
176902
177255
177608
177960
178311
178662
179013
179363
179712
180061
180409
180757
181105
181451
181798
182143
182489
182833
183177
183521
183864
184207
184549
184891
185232
185572
185912
186252
186591
186929
187267
187604
187941
188278
188614
188949
189284
189618
189952
190286
190617
190951
191281
191615
191942
192277
192599
192939
193253
193601
193901
194267
194540
194940
195165
195626
195767
196338
196331
197093
196835
197920
197245
198860
197510
199972
197561
201338
197308
203056
196639
205245
195438
208019
193597
211466
191061
215596
187883
220276
184291
225158
180772
229608
178119
232670
177438
233114
180043
229598
187225
220986
199887
206115
217567
190623
235105
172491
254769
154790
271735
142251
281028
139806
278064
151170
260494
177023
229701
213585
191875
252467
157244
282206
137541
291922
141723
275745
171464
236833
218589
188180
266132
149170
294266
137884
289009
162012
250453
213046
195256
267668
150710
298016
141464
286467
174968
237517
234662
178159
286643
144166
298906
158342
262278
213829
199306
275496
152195
301357
154885
272223
207507
208044
272950
156448
302161
158055
271739
213356
205101
279140
156700
301278
168140
260544
231127
191870
291313
156694
294726
188227
237776
258523
173851
301614
164976
275643
221167
205999
287520
163076
296951
191930
239633
263566
176106
302447
175294
266687
239090
195826
297428
169823
284857
219091
216149
287360
172044
294902
205463
233270
276780
177938
299342
197679
245834
268335
184443
300769
194241
254012
262987
189960
300816
193997
258202
261075
193652
300473
196116
258904
262446
195426
299946
200374
256332
266889
195487
299108
206695
250878
273663
194782
297094
215506
242806
281811
194662
292686
227368
232493
290169
196533
284985
242084
221351
296576
202400
273052
259038
211303
298722
213773
257046
276347
205093
294428
230996
238901
290541
206101
282140
252873
222057
297691
216530
262861
275343
211783
294045
236459
240531
292288
213170
278459
262142
222057
297316
228363
254675
285491
215717
286571
254349
231280
296956
226491
262936
281412
219723
289882
252063
236936
296474
228085