/*--------------------------------*- C++ -*----------------------------------*\
  =========                 |
  \\      /  F ield         | OpenFOAM: The Open Source CFD Toolbox
   \\    /   O peration     | Website:  https://openfoam.org
    \\  /    A nd           | Version:  9
     \\/     M anipulation  |
\*---------------------------------------------------------------------------*/
FoamFile
{
    format      ascii;
    class       surfaceScalarField;
    location    "0.013";
    object      ddtCorrDdt0(phi);
}
// * * * * * * * * * * * * * * * * * * * * * * * * * * * * * * * * * * * * * //

dimensions      [1 0 -2 0 0 0 0];

internalField   nonuniform List<scalar> 
9999
(
2.37027e-05
3.86597e-05
5.61261e-05
7.71489e-05
0.000104099
0.000138492
0.00018167
0.000238189
0.000313191
0.000409071
0.000532315
0.000693348
0.000899367
0.00116812
0.00151249
0.00195576
0.0025282
0.00326252
0.00420489
0.00541316
0.00695869
0.00893396
0.0114521
0.0146637
0.0187489
0.0239402
0.0305286
0.0388736
0.049434
0.0627722
0.0795996
0.100795
0.127452
0.160926
0.202899
0.255448
0.321134
0.403114
0.505264
0.632355
0.790212
0.985969
1.22833
1.52789
1.89754
2.3529
2.91289
3.60037
4.4429
5.47364
6.73238
8.26679
10.1339
12.4015
15.1507
18.4771
22.4945
27.337
33.1626
40.157
48.5378
58.5594
70.5182
84.7588
101.68
121.744
145.481
173.502
206.504
245.283
290.743
343.909
405.935
478.119
561.912
658.931
770.969
900.007
1048.22
1217.98
1411.86
1632.67
1883.38
2167.2
2487.49
2847.8
3251.84
3703.41
4206.42
4764.78
5382.44
6063.22
6810.86
7628.85
8520.42
9488.43
10535.3
11662.9
12872.6
14164.9
15539.7
16996.2
18532.5
20145.9
21833.1
23589.6
25410.1
27288.8
29218.8
31192.9
33203.1
35241.2
37298.5
39366.5
41436.3
43499.4
45547.4
47572.3
49566.7
51523.5
53436.7
55300.4
57110
58861.3
60551
62176.5
63735.9
65228
66652.3
68008.8
69297.8
70520.4
71677.9
72771.9
73804.2
74777.1
75692.8
76553.8
77362.7
78122.1
78834.5
79502.4
80128.4
80714.9
81264.1
81778.5
82260
82710.7
83132.5
83527.4
83896.8
84242.6
84566.1
84868.8
85152.1
85417.1
85665
85897
86114
86316.9
86506.6
86684
86849.9
87004.8
87149.5
87284.7
87410.8
87528.4
87638.1
87740.2
87835.3
87923.8
88005.9
88082.2
88152.8
88218.2
88278.6
88334.4
88385.6
88432.7
88475.8
88515.2
88551
88583.4
88612.6
88638.8
88662.1
88682.7
88700.7
88716.3
88729.5
88740.6
88749.5
88756.4
88761.4
88764.6
88766.1
88766
88764.3
88761.1
88756.5
88750.5
88743.3
88734.8
88725.1
88714.4
88702.5
88689.7
88675.8
88661.1
88645.4
88628.9
88611.6
88593.5
88574.7
88555.1
88534.9
88514
88492.5
88470.4
88447.7
88424.5
88400.7
88376.4
88351.7
88326.4
88300.7
88274.6
88248.1
88221.1
88193.8
88166.1
88138
88109.6
88080.9
88051.8
88022.5
87992.8
87962.9
87932.6
87902.1
87871.3
87840.3
87809.1
87777.5
87745.8
87713.9
87681.7
87649.3
87616.7
87583.9
87550.9
87517.8
87484.4
87450.9
87417.2
87383.3
87349.3
87315.1
87280.7
87246.2
87211.5
87176.7
87141.7
87106.6
87071.4
87036
87000.5
86964.9
86929.1
86893.2
86857.2
86821.1
86784.8
86748.4
86711.9
86675.3
86638.6
86601.8
86564.8
86527.8
86490.6
86453.4
86416
86378.5
86340.9
86303.3
86265.5
86227.7
86189.7
86151.6
86113.5
86075.2
86036.9
85998.5
85960
85921.4
85882.7
85843.9
85805.1
85766.1
85727.1
85688
85648.8
85609.5
85570.1
85530.7
85491.2
85451.6
85411.9
85372.2
85332.4
85292.5
85252.5
85212.5
85172.4
85132.2
85091.9
85051.6
85011.2
84970.8
84930.2
84889.6
84849
84808.3
84767.5
84726.6
84685.7
84644.7
84603.7
84562.6
84521.5
84480.2
84439
84397.6
84356.3
84314.8
84273.3
84231.8
84190.2
84148.5
84106.8
84065.1
84023.3
83981.4
83939.5
83897.6
83855.6
83813.5
83771.4
83729.3
83687.1
83644.9
83602.6
83560.3
83518
83475.6
83433.1
83390.7
83348.2
83305.6
83263
83220.4
83177.7
83135.1
83092.3
83049.6
83006.8
82963.9
82921.1
82878.2
82835.3
82792.3
82749.3
82706.3
82663.3
82620.2
82577.1
82534
82490.8
82447.7
82404.5
82361.2
82318
82274.7
82231.4
82188.1
82144.8
82101.4
82058
82014.6
81971.2
81927.8
81884.3
81840.8
81797.3
81753.8
81710.3
81666.7
81623.2
81579.6
81536
81492.4
81448.8
81405.1
81361.5
81317.8
81274.2
81230.5
81186.8
81143.1
81099.4
81055.6
81011.9
80968.1
80924.4
80880.6
80836.8
80793.1
80749.3
80705.5
80661.7
80617.8
80574
80530.2
80486.4
80442.5
80398.7
80354.8
80311
80267.1
80223.2
80179.4
80135.5
80091.6
80047.8
80003.9
79960
79916.1
79872.2
79828.3
79784.4
79740.5
79696.7
79652.8
79608.9
79565
79521.1
79477.2
79433.3
79389.4
79345.5
79301.6
79257.7
79213.8
79169.9
79126
79082.2
79038.3
78994.4
78950.5
78906.6
78862.8
78818.9
78775
78731.2
78687.3
78643.4
78599.6
78555.7
78511.9
78468.1
78424.2
78380.4
78336.6
78292.7
78248.9
78205.1
78161.3
78117.5
78073.7
78029.9
77986.1
77942.4
77898.6
77854.8
77811.1
77767.3
77723.6
77679.8
77636.1
77592.4
77548.6
77504.9
77461.2
77417.5
77373.8
77330.1
77286.5
77242.8
77199.1
77155.5
77111.8
77068.2
77024.6
76981
76937.4
76893.8
76850.2
76806.6
76763
76719.4
76675.9
76632.3
76588.8
76545.3
76501.7
76458.2
76414.7
76371.2
76327.7
76284.3
76240.8
76197.4
76153.9
76110.5
76067
76023.6
75980.2
75936.8
75893.5
75850.1
75806.7
75763.4
75720
75676.7
75633.4
75590.1
75546.8
75503.5
75460.2
75416.9
75373.7
75330.4
75287.2
75244
75200.8
75157.6
75114.4
75071.2
75028
74984.9
74941.7
74898.6
74855.5
74812.4
74769.3
74726.2
74683.1
74640.1
74597
74554
74511
74468
74425
74382
74339
74296
74253.1
74210.2
74167.2
74124.3
74081.4
74038.5
73995.6
73952.8
73909.9
73867.1
73824.3
73781.5
73738.7
73695.9
73653.1
73610.3
73567.6
73524.9
73482.1
73439.4
73396.7
73354
73311.4
73268.7
73226.1
73183.4
73140.8
73098.2
73055.6
73013.1
72970.5
72927.9
72885.4
72842.9
72800.4
72757.9
72715.4
72672.9
72630.5
72588
72545.6
72503.2
72460.8
72418.4
72376
72333.6
72291.3
72249
72206.6
72164.3
72122
72079.8
72037.5
71995.2
71953
71910.8
71868.6
71826.4
71784.2
71742
71699.9
71657.7
71615.6
71573.5
71531.4
71489.3
71447.3
71405.2
71363.2
71321.2
71279.1
71237.1
71195.2
71153.2
71111.2
71069.3
71027.4
70985.5
70943.6
70901.7
70859.8
70818
70776.1
70734.3
70692.5
70650.7
70608.9
70567.2
70525.4
70483.7
70441.9
70400.2
70358.5
70316.9
70275.2
70233.6
70191.9
70150.3
70108.7
70067.1
70025.5
69984
69942.4
69900.9
69859.4
69817.9
69776.4
69734.9
69693.5
69652
69610.6
69569.2
69527.8
69486.4
69445
69403.7
69362.3
69321
69279.7
69238.4
69197.1
69155.9
69114.6
69073.4
69032.2
68991
68949.8
68908.6
68867.5
68826.3
68785.2
68744.1
68703
68661.9
68620.8
68579.8
68538.7
68497.7
68456.7
68415.7
68374.7
68333.8
68292.8
68251.9
68211
68170.1
68129.2
68088.3
68047.5
68006.6
67965.8
67925
67884.2
67843.4
67802.6
67761.9
67721.2
67680.4
67639.7
67599.1
67558.4
67517.7
67477.1
67436.5
67395.8
67355.3
67314.7
67274.1
67233.6
67193
67152.5
67112
67071.5
67031
66990.6
66950.1
66909.7
66869.3
66828.9
66788.5
66748.2
66707.8
66667.5
66627.2
66586.8
66546.6
66506.3
66466
66425.8
66385.6
66345.3
66305.2
66265
66224.8
66184.7
66144.5
66104.4
66064.3
66024.2
65984.1
65944.1
65904
65864
65824
65784
65744
65704.1
65664.1
65624.2
65584.3
65544.4
65504.5
65464.6
65424.8
65384.9
65345.1
65305.3
65265.5
65225.7
65186
65146.2
65106.5
65066.8
65027.1
64987.4
64947.7
64908.1
64868.4
64828.8
64789.2
64749.6
64710
64670.5
64630.9
64591.4
64551.9
64512.4
64472.9
64433.5
64394
64354.6
64315.1
64275.7
64236.4
64197
64157.6
64118.3
64079
64039.7
64000.4
63961.1
63921.8
63882.6
63843.3
63804.1
63764.9
63725.7
63686.6
63647.4
63608.3
63569.2
63530.1
63491
63451.9
63412.8
63373.8
63334.8
63295.7
63256.7
63217.8
63178.8
63139.8
63100.9
63062
63023.1
62984.2
62945.3
62906.5
62867.6
62828.8
62790
62751.2
62712.4
62673.7
62634.9
62596.2
62557.5
62518.8
62480.1
62441.4
62402.8
62364.1
62325.5
62286.9
62248.3
62209.7
62171.2
62132.6
62094.1
62055.6
62017.1
61978.6
61940.2
61901.7
61863.3
61824.9
61786.4
61748.1
61709.7
61671.3
61633
61594.7
61556.4
61518.1
61479.8
61441.5
61403.3
61365.1
61326.8
61288.6
61250.5
61212.3
61174.1
61136
61097.9
61059.8
61021.7
60983.6
60945.5
60907.5
60869.5
60831.5
60793.5
60755.5
60717.5
60679.6
60641.6
60603.7
60565.8
60527.9
60490.1
60452.2
60414.4
60376.5
60338.7
60300.9
60263.2
60225.4
60187.7
60149.9
60112.2
60074.5
60036.8
59999.2
59961.5
59923.9
59886.3
59848.6
59811.1
59773.5
59735.9
59698.4
59660.9
59623.3
59585.8
59548.4
59510.9
59473.5
59436
59398.6
59361.2
59323.8
59286.4
59249.1
59211.7
59174.4
59137.1
59099.8
59062.5
59025.3
58988
58950.8
58913.6
58876.4
58839.2
58802
58764.9
58727.7
58690.6
58653.5
58616.4
58579.3
58542.3
58505.2
58468.2
58431.2
58394.2
58357.2
58320.2
58283.3
58246.4
58209.4
58172.5
58135.6
58098.8
58061.9
58025.1
57988.2
57951.4
57914.6
57877.9
57841.1
57804.3
57767.6
57730.9
57694.2
57657.5
57620.8
57584.2
57547.5
57510.9
57474.3
57437.7
57401.1
57364.6
57328
57291.5
57255
57218.5
57182
57145.5
57109
57072.6
57036.2
56999.8
56963.4
56927
56890.6
56854.3
56818
56781.6
56745.3
56709.1
56672.8
56636.5
56600.3
56564.1
56527.9
56491.7
56455.5
56419.3
56383.2
56347.1
56310.9
56274.8
56238.8
56202.7
56166.6
56130.6
56094.6
56058.6
56022.6
55986.6
55950.6
55914.7
55878.8
55842.8
55806.9
55771.1
55735.2
55699.3
55663.5
55627.7
55591.9
55556.1
55520.3
55484.5
55448.8
55413.1
55377.4
55341.7
55306
55270.3
55234.6
55199
55163.4
55127.8
55092.2
55056.6
55021
54985.5
54950
54914.5
54879
54843.5
54808
54772.5
54737.1
54701.7
54666.3
54630.9
54595.5
54560.1
54524.8
54489.5
54454.1
54418.8
54383.6
54348.3
54313
54277.8
54242.6
54207.4
54172.2
54137
54101.8
54066.7
54031.5
53996.4
53961.3
53926.2
53891.2
53856.1
53821.1
53786
53751
53716
53681
53646.1
53611.1
53576.2
53541.3
53506.4
53471.5
53436.6
53401.7
53366.9
53332.1
53297.3
53262.5
53227.7
53192.9
53158.2
53123.4
53088.7
53054
53019.3
52984.6
52950
52915.3
52880.7
52846.1
52811.5
52776.9
52742.3
52707.8
52673.2
52638.7
52604.2
52569.7
52535.2
52500.7
52466.3
52431.9
52397.4
52363
52328.6
52294.3
52259.9
52225.6
52191.2
52156.9
52122.6
52088.3
52054.1
52019.8
51985.6
51951.4
51917.2
51883
51848.8
51814.6
51780.5
51746.3
51712.2
51678.1
51644
51610
51575.9
51541.9
51507.8
51473.8
51439.8
51405.8
51371.9
51337.9
51304
51270.1
51236.2
51202.3
51168.4
51134.5
51100.7
51066.8
51033
50999.2
50965.4
50931.7
50897.9
50864.2
50830.4
50796.7
50763
50729.3
50695.7
50662
50628.4
50594.8
50561.2
50527.6
50494
50460.4
50426.9
50393.3
50359.8
50326.3
50292.8
50259.4
50225.9
50192.5
50159
50125.6
50092.2
50058.8
50025.5
49992.1
49958.8
49925.5
49892.1
49858.9
49825.6
49792.3
49759.1
49725.8
49692.6
49659.4
49626.2
49593
49559.9
49526.7
49493.6
49460.5
49427.4
49394.3
49361.2
49328.2
49295.1
49262.1
49229.1
49196.1
49163.1
49130.1
49097.2
49064.2
49031.3
48998.4
48965.5
48932.6
48899.8
48866.9
48834.1
48801.3
48768.5
48735.7
48702.9
48670.1
48637.4
48604.7
48571.9
48539.2
48506.6
48473.9
48441.2
48408.6
48376
48343.3
48310.7
48278.2
48245.6
48213
48180.5
48148
48115.5
48083
48050.5
48018
47985.6
47953.1
47920.7
47888.3
47855.9
47823.5
47791.2
47758.8
47726.5
47694.2
47661.9
47629.6
47597.3
47565
47532.8
47500.5
47468.3
47436.1
47403.9
47371.8
47339.6
47307.5
47275.3
47243.2
47211.1
47179
47147
47114.9
47082.9
47050.8
47018.8
46986.8
46954.8
46922.9
46890.9
46859
46827.1
46795.1
46763.2
46731.4
46699.5
46667.6
46635.8
46604
46572.2
46540.4
46508.6
46476.8
46445.1
46413.4
46381.6
46349.9
46318.2
46286.6
46254.9
46223.2
46191.6
46160
46128.4
46096.8
46065.2
46033.6
46002.1
45970.6
45939
45907.5
45876.1
45844.6
45813.1
45781.7
45750.2
45718.8
45687.4
45656
45624.7
45593.3
45561.9
45530.6
45499.3
45468
45436.7
45405.4
45374.2
45342.9
45311.7
45280.5
45249.3
45218.1
45186.9
45155.8
45124.6
45093.5
45062.4
45031.3
45000.2
44969.1
44938.1
44907
44876
44845
44814
44783
44752
44721.1
44690.1
44659.2
44628.3
44597.4
44566.5
44535.6
44504.8
44473.9
44443.1
44412.3
44381.5
44350.7
44319.9
44289.1
44258.4
44227.7
44197
44166.3
44135.6
44104.9
44074.2
44043.6
44013
43982.4
43951.8
43921.2
43890.6
43860
43829.5
43799
43768.5
43738
43707.5
43677
43646.5
43616.1
43585.7
43555.2
43524.8
43494.5
43464.1
43433.7
43403.4
43373
43342.7
43312.4
43282.1
43251.9
43221.6
43191.4
43161.1
43130.9
43100.7
43070.5
43040.3
43010.2
42980
42949.9
42919.8
42889.7
42859.6
42829.5
42799.4
42769.4
42739.4
42709.3
42679.3
42649.3
42619.4
42589.4
42559.5
42529.5
42499.6
42469.7
42439.8
42409.9
42380.1
42350.2
42320.4
42290.5
42260.7
42230.9
42201.2
42171.4
42141.6
42111.9
42082.2
42052.5
42022.8
41993.1
41963.4
41933.8
41904.1
41874.5
41844.9
41815.3
41785.7
41756.1
41726.6
41697
41667.5
41638
41608.5
41579
41549.5
41520
41490.6
41461.2
41431.8
41402.3
41373
41343.6
41314.2
41284.9
41255.5
41226.2
41196.9
41167.6
41138.3
41109.1
41079.8
41050.6
41021.4
40992.2
40963
40933.8
40904.6
40875.5
40846.3
40817.2
40788.1
40759
40729.9
40700.8
40671.8
40642.7
40613.7
40584.7
40555.7
40526.7
40497.7
40468.8
40439.8
40410.9
40382
40353.1
40324.2
40295.3
40266.4
40237.6
40208.7
40179.9
40151.1
40122.3
40093.5
40064.8
40036
40007.3
39978.5
39949.8
39921.1
39892.4
39863.8
39835.1
39806.5
39777.8
39749.2
39720.6
39692
39663.5
39634.9
39606.4
39577.8
39549.3
39520.8
39492.3
39463.8
39435.4
39406.9
39378.5
39350
39321.6
39293.2
39264.8
39236.5
39208.1
39179.8
39151.4
39123.1
39094.8
39066.5
39038.3
39010
38981.8
38953.5
38925.3
38897.1
38868.9
38840.7
38812.6
38784.4
38756.3
38728.1
38700
38671.9
38643.9
38615.8
38587.7
38559.7
38531.7
38503.6
38475.6
38447.6
38419.7
38391.7
38363.8
38335.8
38307.9
38280
38252.1
38224.2
38196.4
38168.5
38140.7
38112.8
38085
38057.2
38029.4
38001.7
37973.9
37946.2
37918.4
37890.7
37863
37835.3
37807.6
37780
37752.3
37724.7
37697
37669.4
37641.8
37614.3
37586.7
37559.1
37531.6
37504.1
37476.5
37449
37421.5
37394.1
37366.6
37339.1
37311.7
37284.3
37256.9
37229.5
37202.1
37174.7
37147.4
37120
37092.7
37065.4
37038.1
37010.8
36983.5
36956.2
36929
36901.8
36874.5
36847.3
36820.1
36793
36765.8
36738.6
36711.5
36684.4
36657.2
36630.1
36603
36576
36548.9
36521.9
36494.8
36467.8
36440.8
36413.8
36386.8
36359.8
36332.9
36305.9
36279
36252.1
36225.2
36198.3
36171.4
36144.5
36117.7
36090.9
36064
36037.2
36010.4
35983.6
35956.9
35930.1
35903.4
35876.6
35849.9
35823.2
35796.5
35769.8
35743.2
35716.5
35689.9
35663.3
35636.6
35610
35583.5
35556.9
35530.3
35503.8
35477.2
35450.7
35424.2
35397.7
35371.2
35344.8
35318.3
35291.9
35265.4
35239
35212.6
35186.2
35159.8
35133.5
35107.1
35080.8
35054.5
35028.2
35001.9
34975.6
34949.3
34923
34896.8
34870.6
34844.3
34818.1
34791.9
34765.8
34739.6
34713.4
34687.3
34661.2
34635.1
34609
34582.9
34556.8
34530.7
34504.7
34478.6
34452.6
34426.6
34400.6
34374.6
34348.6
34322.7
34296.7
34270.8
34244.9
34219
34193.1
34167.2
34141.3
34115.5
34089.6
34063.8
34038
34012.2
33986.4
33960.6
33934.8
33909.1
33883.4
33857.6
33831.9
33806.2
33780.5
33754.9
33729.2
33703.5
33677.9
33652.3
33626.7
33601.1
33575.5
33549.9
33524.4
33498.8
33473.3
33447.8
33422.3
33396.8
33371.3
33345.8
33320.4
33294.9
33269.5
33244.1
33218.7
33193.3
33167.9
33142.5
33117.2
33091.8
33066.5
33041.2
33015.9
32990.6
32965.3
32940.1
32914.8
32889.6
32864.3
32839.1
32813.9
32788.7
32763.6
32738.4
32713.3
32688.1
32663
32637.9
32612.8
32587.7
32562.6
32537.6
32512.5
32487.5
32462.5
32437.5
32412.5
32387.5
32362.5
32337.6
32312.6
32287.7
32262.8
32237.9
32213
32188.1
32163.2
32138.4
32113.5
32088.7
32063.9
32039.1
32014.3
31989.5
31964.7
31940
31915.2
31890.5
31865.8
31841.1
31816.4
31791.7
31767
31742.4
31717.7
31693.1
31668.5
31643.9
31619.3
31594.7
31570.1
31545.6
31521.1
31496.5
31472
31447.5
31423
31398.5
31374.1
31349.6
31325.2
31300.8
31276.3
31251.9
31227.5
31203.2
31178.8
31154.5
31130.1
31105.8
31081.5
31057.2
31032.9
31008.6
30984.3
30960.1
30935.8
30911.6
30887.4
30863.2
30839
30814.8
30790.7
30766.5
30742.4
30718.2
30694.1
30670
30645.9
30621.9
30597.8
30573.7
30549.7
30525.7
30501.7
30477.7
30453.7
30429.7
30405.7
30381.8
30357.8
30333.9
30310
30286.1
30262.2
30238.3
30214.4
30190.6
30166.8
30142.9
30119.1
30095.3
30071.5
30047.7
30024
30000.2
29976.5
29952.7
29929
29905.3
29881.6
29857.9
29834.3
29810.6
29787
29763.3
29739.7
29716.1
29692.5
29668.9
29645.4
29621.8
29598.3
29574.7
29551.2
29527.7
29504.2
29480.7
29457.2
29433.8
29410.3
29386.9
29363.5
29340.1
29316.7
29293.3
29269.9
29246.5
29223.2
29199.9
29176.5
29153.2
29129.9
29106.6
29083.4
29060.1
29036.8
29013.6
28990.4
28967.2
28944
28920.8
28897.6
28874.4
28851.3
28828.1
28805
28781.9
28758.8
28735.7
28712.6
28689.5
28666.5
28643.4
28620.4
28597.4
28574.4
28551.4
28528.4
28505.4
28482.5
28459.5
28436.6
28413.6
28390.7
28367.8
28344.9
28322.1
28299.2
28276.4
28253.5
28230.7
28207.9
28185.1
28162.3
28139.5
28116.7
28094
28071.2
28048.5
28025.8
28003.1
27980.4
27957.7
27935
27912.4
27889.7
27867.1
27844.5
27821.9
27799.3
27776.7
27754.1
27731.6
27709
27686.5
27663.9
27641.4
27618.9
27596.4
27574
27551.5
27529
27506.6
27484.2
27461.8
27439.3
27417
27394.6
27372.2
27349.8
27327.5
27305.2
27282.8
27260.5
27238.2
27215.9
27193.7
27171.4
27149.2
27126.9
27104.7
27082.5
27060.3
27038.1
27015.9
26993.7
26971.6
26949.4
26927.3
26905.2
26883.1
26861
26838.9
26816.8
26794.8
26772.7
26750.7
26728.7
26706.6
26684.6
26662.7
26640.7
26618.7
26596.8
26574.8
26552.9
26531
26509.1
26487.2
26465.3
26443.4
26421.5
26399.7
26377.9
26356
26334.2
26312.4
26290.6
26268.9
26247.1
26225.3
26203.6
26181.9
26160.2
26138.4
26116.7
26095.1
26073.4
26051.7
26030.1
26008.5
25986.8
25965.2
25943.6
25922
25900.4
25878.9
25857.3
25835.8
25814.3
25792.7
25771.2
25749.7
25728.2
25706.8
25685.3
25663.9
25642.4
25621
25599.6
25578.2
25556.8
25535.4
25514.1
25492.7
25471.4
25450
25428.7
25407.4
25386.1
25364.8
25343.5
25322.3
25301
25279.8
25258.6
25237.3
25216.1
25194.9
25173.8
25152.6
25131.4
25110.3
25089.1
25068
25046.9
25025.8
25004.7
24983.6
24962.6
24941.5
24920.5
24899.5
24878.4
24857.4
24836.4
24815.4
24794.5
24773.5
24752.6
24731.6
24710.7
24689.8
24668.9
24648
24627.1
24606.2
24585.4
24564.5
24543.7
24522.9
24502.1
24481.3
24460.5
24439.7
24418.9
24398.2
24377.4
24356.7
24336
24315.3
24294.6
24273.9
24253.2
24232.5
24211.9
24191.2
24170.6
24150
24129.4
24108.8
24088.2
24067.6
24047.1
24026.5
24006
23985.5
23965
23944.5
23924
23903.5
23883
23862.6
23842.1
23821.7
23801.2
23780.8
23760.4
23740
23719.7
23699.3
23678.9
23658.6
23638.3
23617.9
23597.6
23577.3
23557
23536.8
23516.5
23496.3
23476
23455.8
23435.6
23415.3
23395.2
23375
23354.8
23334.6
23314.5
23294.3
23274.2
23254.1
23234
23213.9
23193.8
23173.7
23153.7
23133.6
23113.6
23093.5
23073.5
23053.5
23033.5
23013.5
22993.6
22973.6
22953.7
22933.7
22913.8
22893.9
22874
22854.1
22834.2
22814.3
22794.5
22774.6
22754.8
22735
22715.1
22695.3
22675.5
22655.8
22636
22616.2
22596.5
22576.7
22557
22537.3
22517.6
22497.9
22478.2
22458.6
22438.9
22419.2
22399.6
22380
22360.4
22340.8
22321.2
22301.6
22282
22262.5
22242.9
22223.4
22203.9
22184.3
22164.8
22145.3
22125.9
22106.4
22086.9
22067.5
22048
22028.6
22009.2
21989.8
21970.4
21951
21931.7
21912.3
21892.9
21873.6
21854.3
21835
21815.7
21796.4
21777.1
21757.8
21738.6
21719.3
21700.1
21680.8
21661.6
21642.4
21623.2
21604
21584.9
21565.7
21546.5
21527.4
21508.3
21489.2
21470.1
21451
21431.9
21412.8
21393.7
21374.7
21355.6
21336.6
21317.6
21298.6
21279.6
21260.6
21241.6
21222.7
21203.7
21184.8
21165.8
21146.9
21128
21109.1
21090.2
21071.3
21052.5
21033.6
21014.8
20995.9
20977.1
20958.3
20939.5
20920.7
20901.9
20883.2
20864.4
20845.7
20826.9
20808.2
20789.5
20770.8
20752.1
20733.4
20714.7
20696.1
20677.4
20658.8
20640.1
20621.5
20602.9
20584.3
20565.7
20547.2
20528.6
20510.1
20491.5
20473
20454.5
20436
20417.5
20399
20380.5
20362
20343.6
20325.1
20306.7
20288.3
20269.9
20251.5
20233.1
20214.7
20196.3
20178
20159.6
20141.3
20122.9
20104.6
20086.3
20068
20049.7
20031.5
20013.2
19995
19976.7
19958.5
19940.3
19922.1
19903.9
19885.7
19867.5
19849.3
19831.2
19813
19794.9
19776.8
19758.7
19740.5
19722.5
19704.4
19686.3
19668.2
19650.2
19632.2
19614.1
19596.1
19578.1
19560.1
19542.1
19524.1
19506.2
19488.2
19470.3
19452.4
19434.4
19416.5
19398.6
19380.7
19362.9
19345
19327.1
19309.3
19291.4
19273.6
19255.8
19238
19220.2
19202.4
19184.6
19166.9
19149.1
19131.4
19113.6
19095.9
19078.2
19060.5
19042.8
19025.1
19007.5
18989.8
18972.2
18954.5
18936.9
18919.3
18901.7
18884.1
18866.5
18848.9
18831.4
18813.8
18796.3
18778.7
18761.2
18743.7
18726.2
18708.7
18691.2
18673.8
18656.3
18638.9
18621.4
18604
18586.6
18569.2
18551.8
18534.4
18517
18499.6
18482.3
18464.9
18447.6
18430.3
18413
18395.7
18378.4
18361.1
18343.8
18326.6
18309.3
18292.1
18274.8
18257.6
18240.4
18223.2
18206
18188.8
18171.7
18154.5
18137.4
18120.2
18103.1
18086
18068.9
18051.8
18034.7
18017.6
18000.6
17983.5
17966.5
17949.4
17932.4
17915.4
17898.4
17881.4
17864.4
17847.4
17830.5
17813.5
17796.6
17779.7
17762.7
17745.8
17728.9
17712
17695.2
17678.3
17661.4
17644.6
17627.7
17610.9
17594.1
17577.3
17560.5
17543.7
17526.9
17510.2
17493.4
17476.7
17459.9
17443.2
17426.5
17409.8
17393.1
17376.4
17359.7
17343.1
17326.4
17309.8
17293.1
17276.5
17259.9
17243.3
17226.7
17210.1
17193.5
17177
17160.4
17143.9
17127.3
17110.8
17094.3
17077.8
17061.3
17044.8
17028.4
17011.9
16995.4
16979
16962.6
16946.1
16929.7
16913.3
16896.9
16880.6
16864.2
16847.8
16831.5
16815.1
16798.8
16782.5
16766.2
16749.9
16733.6
16717.3
16701
16684.8
16668.5
16652.3
16636.1
16619.8
16603.6
16587.4
16571.2
16555.1
16538.9
16522.7
16506.6
16490.5
16474.3
16458.2
16442.1
16426
16409.9
16393.8
16377.8
16361.7
16345.6
16329.6
16313.6
16297.6
16281.6
16265.6
16249.6
16233.6
16217.6
16201.7
16185.7
16169.8
16153.8
16137.9
16122
16106.1
16090.2
16074.3
16058.5
16042.6
16026.8
16010.9
15995.1
15979.3
15963.5
15947.7
15931.9
15916.1
15900.3
15884.6
15868.8
15853.1
15837.3
15821.6
15805.9
15790.2
15774.5
15758.8
15743.2
15727.5
15711.8
15696.2
15680.6
15664.9
15649.3
15633.7
15618.1
15602.6
15587
15571.4
15555.9
15540.3
15524.8
15509.3
15493.7
15478.2
15462.7
15447.3
15431.8
15416.3
15400.9
15385.4
15370
15354.6
15339.1
15323.7
15308.3
15293
15277.6
15262.2
15246.9
15231.5
15216.2
15200.8
15185.5
15170.2
15154.9
15139.6
15124.3
15109.1
15093.8
15078.6
15063.3
15048.1
15032.9
15017.7
15002.5
14987.3
14972.1
14956.9
14941.7
14926.6
14911.5
14896.3
14881.2
14866.1
14851
14835.9
14820.8
14805.7
14790.7
14775.6
14760.6
14745.5
14730.5
14715.5
14700.5
14685.5
14670.5
14655.5
14640.5
14625.6
14610.6
14595.7
14580.7
14565.8
14550.9
14536
14521.1
14506.2
14491.4
14476.5
14461.6
14446.8
14432
14417.1
14402.3
14387.5
14372.7
14357.9
14343.2
14328.4
14313.6
14298.9
14284.1
14269.4
14254.7
14240
14225.3
14210.6
14195.9
14181.2
14166.6
14151.9
14137.3
14122.7
14108
14093.4
14078.8
14064.2
14049.6
14035
14020.5
14005.9
13991.4
13976.8
13962.3
13947.7
13933.3
13918.7
13904.4
13889.7
13875.5
13860.7
13846.7
13831.7
13817.9
13802.7
13789.3
13773.6
13760.7
13744.6
13732.3
13715.5
13703.9
13686.4
13675.6
13657.3
13647.3
13628.4
13618.9
13599.7
13590.2
13571.5
13561
13543.9
13531.2
13517.1
13500.7
13491.1
13469.5
13465.7
13437.9
13441.3
13404.9
13414.2
13378.2
13385.2
13351.2
13356.2
13323.5
13324.6
13300.1
13290.1
13280.3
13254
13260.6
13217.4
13239.1
13183.9
13214
13156.3
13182.9
13135.3
13144.6
13119.9
13101.8
13107.1
13059.8
13091.4
13024
13066.7
12998.6
13030.2
12984.5
12984.5
12977.3
12936.4
12967.6
12895.6
12946
12869.7
12908.1
12859.8
12857.6
12857.7
12805.9
12849.3
12767.1
12822.8
12749.4
12775.9
12748.5
12719.1
12748.4
12671
12731
12646.3
12688.2
12645
12629
12649.8
12575.6
12637.3
12548.1
12595.3
12548.2
12533.6
12556
12478.6
12543.4
12453.7
12497.4
12458.5
12432.4
12467
12380.5
12448
12364.6
12393.1
12376.1
12326.5
12380.3
12285.1
12347.4
12283.9
12281.6
12299.2
12220.5
12289.6
12198.8
12236.6
12212.6
12166.1
12220.8
12123.7
12185.9
12127.2
12115.6
12145
12057.1
12128.1
12046.5
12064.7
12066.8
11996
12064.6
11971.2
12010.9
11989.2
11937.1
11997.5
11900.4
11953.5
11914.1
11878.2
11929.1
11832.7
11893.1
11842
11817.9
11860.9
11766.7
11830.5
11772.8
11755.7
11793.9
11701.5
11766.1
11706.6
11691.3
11728.4
11636.8
11700.3
11643
11624.8
11664.4
11572.6
11633
11582
11556.4
11601.7
11509.1
11564.1
11523.6
11486.5
11539.3
11447.4
11493
11467.5
11416.1
11476.1
11388.3
11419.4
11413.3
11346.4
11410.7
11332.8
11343.6
11359.6
11279.2
11341.5
11281.3
11266.3
11304.4
11216.7
11267.4
11233.3
11189.9
11244.9
11160.7
11188.4
11186.4
11117.7
11178.4
11112
11106.7
11136.8
11053.4
11103.4
11068.6
11026.7
11079.7
10999.8
11021.1
11025.8
10954.3
11011
10956.1
10936.6
10976.5
10895
10930.6
10917.2
10858.3
10913.8
10849.8
10843.9
10873.5
10794.5
10835.5
10813.2
10761.8
10814.8
10748.5
10747.6
10772.7
10696.1
10737.1
10713.7
10664
10715.2
10651.2
10648
10674.5
10599.3
10635.9
10618.5
10564.8
10615
10558
10545.4
10578.2
10504.6
10531.8
10526.9
10465.7
10513
10468.8
10441.1
10482
10413.7
10424.6
10437.3
10369
10407.7
10383.4
10337.2
10382.8
10327.9
10315.6
10346.5
10277.9
10298
10299.8
10237.8
10277.8
10247.3
10207.9
10250.1
10194.7
10185.6
10213.1
10147.2
10166
10168
10107.7
10144.2
10118.1
10076.4
10116.8
10067.8
10051.5
10082.2
10020.8
10029.5
10040.8
9979.45
10007.2
9994.85
9944.52
9981.57
9947
9915.29
9951
9900.05
9889.9
9915.12
9856.17
9866.09
9874.59
9816.65
9841.68
9830.94
9781.73
9814.91
9785.94
9750.89
9784.83
9741.27
9723.04
9751.09
9698.38
9696.84
9713.97
9658.09
9670.96
9674.25
9620.84
9644.26
9632.83
9586.55
9615.95
9590.74
9554.79
9585.58
9548.87
9524.99
9553
9507.92
9496.41
9518.39
9468.4
9468.38
9482.03
9430.54
9440.33
9444.42
9394.38
9411.75
9405.99
9359.84
9382.39
9367.18
9326.66
9352.07
9328.42
9294.6
9320.73
9289.94
9263.36
9288.45
9251.99
9232.65
9255.3
9214.69
9202.27
9221.46
9178.08
9171.98
9187.08
9142.21
9141.65
9152.31
9107
9111.16
9117.33
9072.41
9080.44
9082.24
9038.37
9049.47
9047.17
9004.75
9018.21
9012.2
8971.53
8986.69
8977.39
8938.59
8954.94
8942.81
8905.86
8922.96
8908.46
8873.32
8890.81
8874.39
8840.86
8858.51
8840.59
8808.5
8826.09
8807.05
8776.18
8793.58
8773.81
8743.87
8761
8740.81
8711.61
8728.36
8708.09
8679.33
8695.68
8675.63
8647.08
8662.96
8643.39
8614.85
8630.21
8611.41
8582.63
8597.42
8579.64
8550.48
8564.58
8548.07
8518.38
8531.68
8516.73
8486.37
8498.73
8485.52
8454.5
8465.71
8454.5
8422.75
8432.61
8423.59
8391.21
8399.44
8392.76
8359.88
8366.18
8362
8328.8
8332.87
8331.22
8298.02
8299.52
8300.4
8267.55
8266.14
8269.47
8237.41
8232.81
8238.35
8207.62
8199.55
8207.02
8178.16
8166.47
8175.39
8149
8133.64
8143.43
8120.09
8101.14
8111.12
8091.36
8069.1
8078.43
8062.71
8037.57
8045.41
8034.02
8006.65
8012.1
8005.14
7976.43
7978.6
7975.94
7946.86
7945.07
7946.26
7917.99
7911.65
7915.98
7889.71
7878.55
7885.04
7861.88
7845.97
7853.36
7834.35
7814.11
7821.01
7806.82
7783.15
7788.09
7779.08
7753.17
7754.77
7750.84
7724.21
7721.36
7721.83
7696.18
7688.15
7691.92
7668.89
7655.5
7660.97
7642.06
7623.75
7629.06
7615.29
7593.11
7596.38
7588.18
7563.77
7563.23
7560.32
7535.66
7530.08
7531.4
7508.6
7497.4
7501.22
7482.24
7465.67
7469.84
7456.02
7435.25
7437.47
7429.43
7406.32
7404.56
7401.9
7378.83
7371.73
7373.05
7352.46
7339.57
7342.77
7326.66
7308.7
7311.15
7300.73
7279.43
7278.68
7274
7251.82
7246.02
7245.89
7225.61
7213.95
7216.16
7200.11
7183.19
7184.94
7174.57
7154.18
7152.73
7148.12
7126.99
7120.38
7120.13
7101.22
7088.75
7090.39
7076.11
7058.67
7059.11
7050.66
7030.53
7027.03
7024
7004.23
6995.13
6995.53
6979.16
6964.43
6965.23
6954.25
6935.65
6933.66
6928.46
6908.92
6901.82
6900.92
6883.77
6870.92
6871.39
6859.17
6841.84
6840.32
6833.9
6814.95
6808.71
6806.93
6789.84
6777.87
6777.89
6765.45
6748.87
6747.14
6740.46
6722.11
6715.81
6713.72
6697.22
6685.26
6684.84
6673.02
6656.63
6654.25
6648.09
6630.36
6623.19
6621.28
6605.83
6593.16
6592.24
6581.78
6565.24
6561.68
6556.66
6539.68
6531.01
6529.42
6515.63
6501.76
6500.05
6491.53
6474.89
6469.5
6465.92
6450.2
6439.47
6437.98
6426.47
6411.39
6408.15
6402.04
6385.75
6377.9
6375.5
6361.9
6348.91
6346.71
6338.15
6322.33
6316.69
6312.82
6298.02
6287.18
6285.14
6274.56
6259.81
6255.62
6250.15
6234.9
6225.96
6223.48
6211.48
6197.97
6194.62
6187.7
6172.51
6165.06
6161.88
6148.99
6136.68
6133.73
6125.59
6110.78
6104.37
6100.47
6087.1
6075.82
6072.94
6063.92
6049.62
6043.87
6039.35
6025.77
6015.3
6012.31
6002.77
5988.93
5983.56
5978.56
5964.99
5955.08
5951.91
5942.14
5928.66
5923.45
5918.15
5904.76
5895.11
5891.78
5881.99
5868.8
5863.56
5858.14
5845.03
5835.4
5831.94
5822.32
5809.35
5803.88
5798.55
5785.75
5776
5772.38
5763.14
5750.28
5744.43
5739.33
5726.94
5716.91
5713.07
5704.42
5691.6
5685.28
5680.44
5668.61
5658.16
5654.04
5646.1
5633.38
5626.41
5621.85
5610.74
5599.78
5595.28
5588.13
5575.64
5567.85
5563.52
5553.29
5541.86
5536.78
5530.45
5518.4
5509.66
5505.43
5496.22
5484.46
5478.53
5473.03
5461.62
5451.94
5447.51
5439.47
5427.6
5420.61
5415.76
5405.3
5394.76
5389.76
5382.97
5371.31
5363.14
5358.58
5349.37
5338.19
5332.26
5326.57
5315.58
5306.2
5301.47
5293.7
5282.29
5275.14
5270.17
5260.34
5249.92
5244.51
5238.12
5227.07
5218.53
5213.75
5205.4
5194.41
5187.83
5182.47
5172.44
5162.6
5157.36
5150.55
5139.68
5131.62
5126.7
5118.15
5107.53
5101.17
5095.58
5085.63
5076.13
5070.88
5063.94
5053.34
5045.43
5040.4
5031.95
5021.58
5015.19
5009.55
4999.87
4990.48
4985.09
4978.3
4968
4959.98
4954.88
4946.75
4936.56
4929.91
4924.38
4915.12
4905.67
4900.03
4893.57
4883.64
4875.32
4870.11
4862.51
4852.48
4845.39
4840.01
4831.35
4821.77
4815.7
4809.68
4800.26
4791.52
4786.07
4779.15
4769.39
4761.68
4756.38
4748.49
4738.84
4732.14
4726.54
4717.83
4708.68
4702.76
4696.55
4687.29
4678.9
4673.42
4666.44
4656.96
4649.45
4644.05
4636.29
4626.92
4620.23
4614.59
4606.16
4597.19
4591.16
4585.04
4576.13
4567.78
4562.15
4555.45
4546.29
4538.63
4533.16
4525.83
4516.67
4509.72
4504.14
4496.24
4487.31
4480.95
4475.11
4466.73
4458.21
4452.28
4446.05
4437.35
4429.35
4423.68
4417
4408.14
4400.69
4395.13
4387.97
4379.13
4372.2
4366.6
4359
4350.33
4343.85
4338.1
4330.11
4321.74
4315.61
4309.62
4301.35
4293.33
4287.47
4281.17
4272.74
4265.09
4259.4
4252.76
4244.29
4237
4231.4
4224.43
4215.99
4209.06
4203.46
4196.19
4187.85
4181.24
4175.57
4168.05
4159.87
4153.55
4147.74
4140.03
4132.03
4125.96
4119.98
4112.13
4104.34
4098.45
4092.29
4084.36
4076.8
4071.04
4064.7
4056.7
4049.39
4043.7
4037.2
4029.18
4022.1
4016.44
4009.8
4001.8
3994.93
3989.28
3982.5
3974.55
3967.86
3962.21
3955.3
3947.43
3940.89
3935.24
3928.21
3920.43
3914.03
3908.35
3901.24
3893.56
3887.27
3881.56
3874.39
3866.79
3860.62
3854.86
3847.66
3840.14
3834.07
3828.25
3821.05
3813.61