/*--------------------------------*- C++ -*----------------------------------*\
  =========                 |
  \\      /  F ield         | OpenFOAM: The Open Source CFD Toolbox
   \\    /   O peration     | Website:  https://openfoam.org
    \\  /    A nd           | Version:  9
     \\/     M anipulation  |
\*---------------------------------------------------------------------------*/
FoamFile
{
    format      ascii;
    class       surfaceScalarField;
    location    "0.013";
    object      phi;
}
// * * * * * * * * * * * * * * * * * * * * * * * * * * * * * * * * * * * * * //

dimensions      [1 0 -1 0 0 0 0];

internalField   nonuniform List<scalar> 
9999
(
2.29903e-10
3.80936e-10
5.6383e-10
7.90408e-10
1.0765e-09
1.44502e-09
1.92344e-09
2.54727e-09
3.36141e-09
4.4208e-09
5.79743e-09
7.58743e-09
9.90909e-09
1.2922e-08
1.6825e-08
2.18726e-08
2.83997e-08
3.68252e-08
4.76895e-08
6.16759e-08
7.96574e-08
1.02744e-07
1.32344e-07
1.70251e-07
2.18729e-07
2.80641e-07
3.59603e-07
4.6017e-07
5.88078e-07
7.50528e-07
9.56565e-07
1.21751e-06
1.54753e-06
1.9643e-06
2.48988e-06
3.1517e-06
3.98387e-06
5.02868e-06
6.33852e-06
7.97814e-06
1.00275e-05
1.2585e-05
1.57719e-05
1.97367e-05
2.46619e-05
3.07702e-05
3.83338e-05
4.76846e-05
5.92261e-05
7.34482e-05
9.09447e-05
0.000112434
0.000138782
0.000171033
0.000210443
0.000258516
0.000317055
0.000388213
0.000474555
0.000579133
0.000705566
0.000858141
0.00104192
0.00126287
0.00152799
0.00184551
0.00222503
0.00267777
0.00321677
0.00385716
0.00461644
0.00551482
0.00657551
0.00782517
0.00929425
0.0110175
0.0130343
0.0153894
0.0181332
0.0213222
0.0250201
0.0292977
0.0342337
0.0399154
0.046439
0.05391
0.0624439
0.0721662
0.083213
0.0957306
0.109876
0.125816
0.143729
0.163801
0.186227
0.21121
0.238961
0.269695
0.30363
0.340987
0.381987
0.426848
0.475785
0.529006
0.586707
0.649078
0.716291
0.788505
0.865859
0.948475
1.03645
1.12987
1.22879
1.33323
1.44321
1.55871
1.67971
1.80613
1.9379
2.07494
2.21711
2.3643
2.51636
2.67315
2.83449
3.00022
3.17017
3.34415
3.52199
3.70351
3.88853
4.07686
4.26835
4.46282
4.6601
4.86004
5.06248
5.26728
5.4743
5.68341
5.89447
6.10738
6.32202
6.53828
6.75606
6.97528
7.19583
7.41765
7.64064
7.86475
8.0899
8.31602
8.54307
8.77098
8.99969
9.22917
9.45937
9.69023
9.92173
10.1538
10.3865
10.6197
10.8533
11.0875
11.3221
11.557
11.7924
12.0282
12.2643
12.5007
12.7374
12.9744
13.2117
13.4492
13.687
13.925
14.1632
14.4016
14.6402
14.8789
15.1179
15.357
15.5962
15.8356
16.0751
16.3147
16.5544
16.7943
17.0342
17.2742
17.5143
17.7545
17.9948
18.2351
18.4755
18.716
18.9565
19.197
19.4376
19.6783
19.9189
20.1597
20.4004
20.6412
20.882
21.1228
21.3636
21.6044
21.8453
22.0861
22.327
22.5679
22.8088
23.0496
23.2905
23.5314
23.7723
24.0131
24.254
24.4948
24.7356
24.9764
25.2172
25.458
25.6988
25.9395
26.1803
26.421
26.6616
26.9023
27.1429
27.3835
27.6241
27.8647
28.1052
28.3457
28.5861
28.8266
29.067
29.3073
29.5477
29.788
30.0282
30.2685
30.5086
30.7488
30.9889
31.229
31.469
31.709
31.949
32.1889
32.4288
32.6686
32.9084
33.1482
33.3879
33.6275
33.8672
34.1067
34.3463
34.5857
34.8252
35.0646
35.3039
35.5432
35.7825
36.0217
36.2608
36.5
36.739
36.978
37.217
37.4559
37.6948
37.9336
38.1723
38.411
38.6497
38.8883
39.1268
39.3653
39.6038
39.8422
40.0805
40.3188
40.557
40.7952
41.0333
41.2714
41.5094
41.7474
41.9853
42.2231
42.4609
42.6986
42.9363
43.1739
43.4115
43.649
43.8865
44.1238
44.3612
44.5984
44.8357
45.0728
45.3099
45.5469
45.7839
46.0208
46.2577
46.4945
46.7312
46.9679
47.2045
47.441
47.6775
47.914
48.1503
48.3866
48.6229
48.859
49.0951
49.3312
49.5672
49.8031
50.039
50.2748
50.5105
50.7462
50.9818
51.2173
51.4528
51.6882
51.9235
52.1588
52.394
52.6292
52.8642
53.0993
53.3342
53.5691
53.8039
54.0386
54.2733
54.5079
54.7425
54.977
55.2114
55.4457
55.68
55.9142
56.1483
56.3824
56.6164
56.8503
57.0842
57.318
57.5517
57.7854
58.019
58.2525
58.4859
58.7193
58.9526
59.1859
59.419
59.6521
59.8852
60.1181
60.351
60.5838
60.8166
61.0493
61.2819
61.5144
61.7469
61.9793
62.2116
62.4438
62.676
62.9081
63.1401
63.3721
63.604
63.8358
64.0675
64.2992
64.5308
64.7623
64.9938
65.2252
65.4565
65.6877
65.9189
66.15
66.381
66.6119
66.8428
67.0736
67.3043
67.535
67.7656
67.9961
68.2265
68.4568
68.6871
68.9173
69.1475
69.3775
69.6075
69.8374
70.0673
70.297
70.5267
70.7563
70.9859
71.2153
71.4447
71.6741
71.9033
72.1325
72.3616
72.5906
72.8195
73.0484
73.2772
73.5059
73.7346
73.9631
74.1916
74.42
74.6484
74.8766
75.1048
75.333
75.561
75.789
76.0169
76.2447
76.4724
76.7001
76.9277
77.1552
77.3826
77.61
77.8373
78.0645
78.2916
78.5187
78.7457
78.9726
79.1994
79.4262
79.6529
79.8795
80.106
80.3324
80.5588
80.7851
81.0113
81.2375
81.4636
81.6896
81.9155
82.1413
82.3671
82.5928
82.8184
83.0439
83.2694
83.4948
83.7201
83.9453
84.1705
84.3956
84.6206
84.8455
85.0704
85.2951
85.5198
85.7444
85.969
86.1935
86.4179
86.6422
86.8664
87.0906
87.3147
87.5387
87.7626
87.9865
88.2102
88.4339
88.6576
88.8811
89.1046
89.328
89.5513
89.7745
89.9977
90.2208
90.4438
90.6667
90.8896
91.1124
91.3351
91.5577
91.7803
92.0027
92.2251
92.4475
92.6697
92.8919
93.114
93.336
93.5579
93.7798
94.0015
94.2232
94.4449
94.6664
94.8879
95.1093
95.3306
95.5519
95.773
95.9941
96.2151
96.4361
96.6569
96.8777
97.0984
97.319
97.5396
97.7601
97.9805
98.2008
98.421
98.6412
98.8613
99.0813
99.3012
99.5211
99.7409
99.9606
100.18
100.4
100.619
100.839
101.058
101.277
101.496
101.715
101.934
102.153
102.372
102.591
102.81
103.028
103.247
103.465
103.684
103.902
104.12
104.338
104.557
104.775
104.992
105.21
105.428
105.646
105.863
106.081
106.298
106.516
106.733
106.95
107.168
107.385
107.602
107.819
108.035
108.252
108.469
108.686
108.902
109.119
109.335
109.551
109.768
109.984
110.2
110.416
110.632
110.848
111.063
111.279
111.495
111.71
111.926
112.141
112.356
112.572
112.787
113.002
113.217
113.432
113.647
113.861
114.076
114.291
114.505
114.72
114.934
115.149
115.363
115.577
115.791
116.005
116.219
116.433
116.647
116.86
117.074
117.287
117.501
117.714
117.928
118.141
118.354
118.567
118.78
118.993
119.206
119.419
119.631
119.844
120.057
120.269
120.482
120.694
120.906
121.118
121.33
121.542
121.754
121.966
122.178
122.39
122.601
122.813
123.024
123.236
123.447
123.658
123.869
124.081
124.292
124.503
124.713
124.924
125.135
125.346
125.556
125.767
125.977
126.187
126.398
126.608
126.818
127.028
127.238
127.448
127.658
127.867
128.077
128.287
128.496
128.705
128.915
129.124
129.333
129.542
129.751
129.96
130.169
130.378
130.587
130.795
131.004
131.213
131.421
131.629
131.838
132.046
132.254
132.462
132.67
132.878
133.086
133.293
133.501
133.709
133.916
134.124
134.331
134.538
134.745
134.953
135.16
135.367
135.574
135.78
135.987
136.194
136.4
136.607
136.813
137.02
137.226
137.432
137.638
137.845
138.051
138.256
138.462
138.668
138.874
139.079
139.285
139.49
139.696
139.901
140.106
140.311
140.517
140.722
140.927
141.131
141.336
141.541
141.746
141.95
142.155
142.359
142.563
142.768
142.972
143.176
143.38
143.584
143.788
143.992
144.195
144.399
144.602
144.806
145.009
145.213
145.416
145.619
145.822
146.025
146.228
146.431
146.634
146.837
147.04
147.242
147.445
147.647
147.849
148.052
148.254
148.456
148.658
148.86
149.062
149.264
149.466
149.667
149.869
150.071
150.272
150.474
150.675
150.876
151.077
151.278
151.479
151.68
151.881
152.082
152.283
152.483
152.684
152.884
153.085
153.285
153.485
153.686
153.886
154.086
154.286
154.486
154.686
154.885
155.085
155.285
155.484
155.684
155.883
156.082
156.281
156.481
156.68
156.879
157.078
157.276
157.475
157.674
157.873
158.071
158.27
158.468
158.666
158.865
159.063
159.261
159.459
159.657
159.855
160.053
160.25
160.448
160.646
160.843
161.04
161.238
161.435
161.632
161.829
162.027
162.224
162.42
162.617
162.814
163.011
163.207
163.404
163.6
163.797
163.993
164.189
164.386
164.582
164.778
164.974
165.169
165.365
165.561
165.757
165.952
166.148
166.343
166.539
166.734
166.929
167.124
167.319
167.514
167.709
167.904
168.099
168.293
168.488
168.683
168.877
169.072
169.266
169.46
169.654
169.848
170.042
170.236
170.43
170.624
170.818
171.011
171.205
171.399
171.592
171.785
171.979
172.172
172.365
172.558
172.751
172.944
173.137
173.33
173.522
173.715
173.908
174.1
174.292
174.485
174.677
174.869
175.061
175.253
175.445
175.637
175.829
176.021
176.213
176.404
176.596
176.787
176.979
177.17
177.361
177.552
177.743
177.934
178.125
178.316
178.507
178.698
178.888
179.079
179.269
179.46
179.65
179.84
180.031
180.221
180.411
180.601
180.791
180.981
181.17
181.36
181.55
181.739
181.929
182.118
182.308
182.497
182.686
182.875
183.064
183.253
183.442
183.631
183.82
184.008
184.197
184.386
184.574
184.762
184.951
185.139
185.327
185.515
185.703
185.891
186.079
186.267
186.455
186.642
186.83
187.017
187.205
187.392
187.58
187.767
187.954
188.141
188.328
188.515
188.702
188.889
189.075
189.262
189.449
189.635
189.822
190.008
190.194
190.38
190.567
190.753
190.939
191.125
191.311
191.496
191.682
191.868
192.053
192.239
192.424
192.61
192.795
192.98
193.165
193.35
193.535
193.72
193.905
194.09
194.274
194.459
194.644
194.828
195.013
195.197
195.381
195.565
195.75
195.934
196.118
196.301
196.485
196.669
196.853
197.036
197.22
197.403
197.587
197.77
197.954
198.137
198.32
198.503
198.686
198.869
199.052
199.234
199.417
199.6
199.782
199.965
200.147
200.33
200.512
200.694
200.876
201.058
201.24
201.422
201.604
201.786
201.967
202.149
202.331
202.512
202.693
202.875
203.056
203.237
203.418
203.599
203.78
203.961
204.142
204.323
204.504
204.684
204.865
205.045
205.226
205.406
205.586
205.767
205.947
206.127
206.307
206.487
206.667
206.846
207.026
207.206
207.385
207.565
207.744
207.924
208.103
208.282
208.461
208.64
208.819
208.998
209.177
209.356
209.535
209.713
209.892
210.07
210.249
210.427
210.605
210.784
210.962
211.14
211.318
211.496
211.674
211.851
212.029
212.207
212.384
212.562
212.739
212.917
213.094
213.271
213.448
213.625
213.803
213.979
214.156
214.333
214.51
214.687
214.863
215.04
215.216
215.393
215.569
215.745
215.921
216.097
216.273
216.449
216.625
216.801
216.977
217.153
217.328
217.504
217.679
217.855
218.03
218.205
218.38
218.556
218.731
218.906
219.081
219.255
219.43
219.605
219.78
219.954
220.129
220.303
220.477
220.652
220.826
221
221.174
221.348
221.522
221.696
221.87
222.043
222.217
222.391
222.564
222.738
222.911
223.084
223.258
223.431
223.604
223.777
223.95
224.123
224.296
224.468
224.641
224.814
224.986
225.159
225.331
225.504
225.676
225.848
226.02
226.192
226.364
226.536
226.708
226.88
227.051
227.223
227.395
227.566
227.738
227.909
228.08
228.252
228.423
228.594
228.765
228.936
229.107
229.278
229.448
229.619
229.79
229.96
230.131
230.301
230.471
230.642
230.812
230.982
231.152
231.322
231.492
231.662
231.832
232.001
232.171
232.34
232.51
232.679
232.849
233.018
233.187
233.356
233.526
233.695
233.864
234.032
234.201
234.37
234.539
234.707
234.876
235.044
235.213
235.381
235.549
235.718
235.886
236.054
236.222
236.39
236.558
236.725
236.893
237.061
237.228
237.396
237.563
237.731
237.898
238.065
238.232
238.4
238.567
238.734
238.9
239.067
239.234
239.401
239.567
239.734
239.9
240.067
240.233
240.4
240.566
240.732
240.898
241.064
241.23
241.396
241.562
241.727
241.893
242.059
242.224
242.39
242.555
242.721
242.886
243.051
243.216
243.381
243.546
243.711
243.876
244.041
244.206
244.37
244.535
244.699
244.864
245.028
245.193
245.357
245.521
245.685
245.849
246.013
246.177
246.341
246.505
246.668
246.832
246.996
247.159
247.323
247.486
247.649
247.813
247.976
248.139
248.302
248.465
248.628
248.791
248.953
249.116
249.279
249.441
249.604
249.766
249.929
250.091
250.253
250.415
250.577
250.739
250.901
251.063
251.225
251.387
251.549
251.71
251.872
252.033
252.195
252.356
252.517
252.679
252.84
253.001
253.162
253.323
253.484
253.644
253.805
253.966
254.127
254.287
254.448
254.608
254.768
254.929
255.089
255.249
255.409
255.569
255.729
255.889
256.049
256.209
256.368
256.528
256.687
256.847
257.006
257.166
257.325
257.484
257.643
257.803
257.962
258.12
258.279
258.438
258.597
258.756
258.914
259.073
259.231
259.39
259.548
259.706
259.865
260.023
260.181
260.339
260.497
260.655
260.813
260.97
261.128
261.286
261.443
261.601
261.758
261.916
262.073
262.23
262.387
262.544
262.701
262.858
263.015
263.172
263.329
263.486
263.642
263.799
263.955
264.112
264.268
264.424
264.581
264.737
264.893
265.049
265.205
265.361
265.517
265.673
265.828
265.984
266.139
266.295
266.45
266.606
266.761
266.916
267.072
267.227
267.382
267.537
267.692
267.847
268.001
268.156
268.311
268.465
268.62
268.774
268.929
269.083
269.237
269.392
269.546
269.7
269.854
270.008
270.162
270.315
270.469
270.623
270.777
270.93
271.084
271.237
271.39
271.544
271.697
271.85
272.003
272.156
272.309
272.462
272.615
272.768
272.92
273.073
273.226
273.378
273.53
273.683
273.835
273.987
274.14
274.292
274.444
274.596
274.748
274.9
275.051
275.203
275.355
275.506
275.658
275.809
275.961
276.112
276.263
276.415
276.566
276.717
276.868
277.019
277.17
277.321
277.471
277.622
277.773
277.923
278.074
278.224
278.374
278.525
278.675
278.825
278.975
279.125
279.275
279.425
279.575
279.725
279.875
280.024
280.174
280.323
280.473
280.622
280.772
280.921
281.07
281.219
281.368
281.517
281.666
281.815
281.964
282.113
282.261
282.41
282.559
282.707
282.856
283.004
283.152
283.301
283.449
283.597
283.745
283.893
284.041
284.189
284.336
284.484
284.632
284.779
284.927
285.075
285.222
285.369
285.517
285.664
285.811
285.958
286.105
286.252
286.399
286.546
286.693
286.839
286.986
287.132
287.279
287.425
287.572
287.718
287.864
288.011
288.157
288.303
288.449
288.595
288.741
288.887
289.032
289.178
289.324
289.469
289.615
289.76
289.905
290.051
290.196
290.341
290.486
290.631
290.776
290.921
291.066
291.211
291.356
291.5
291.645
291.79
291.934
292.078
292.223
292.367
292.511
292.656
292.8
292.944
293.088
293.232
293.375
293.519
293.663
293.807
293.95
294.094
294.237
294.381
294.524
294.667
294.811
294.954
295.097
295.24
295.383
295.526
295.669
295.811
295.954
296.097
296.239
296.382
296.524
296.667
296.809
296.951
297.094
297.236
297.378
297.52
297.662
297.804
297.946
298.087
298.229
298.371
298.512
298.654
298.795
298.937
299.078
299.219
299.361
299.502
299.643
299.784
299.925
300.066
300.207
300.347
300.488
300.629
300.769
300.91
301.05
301.191
301.331
301.471
301.612
301.752
301.892
302.032
302.172
302.312
302.452
302.591
302.731
302.871
303.01
303.15
303.289
303.429
303.568
303.707
303.847
303.986
304.125
304.264
304.403
304.542
304.681
304.819
304.958
305.097
305.235
305.374
305.512
305.651
305.789
305.927
306.066
306.204
306.342
306.48
306.618
306.756
306.894
307.032
307.169
307.307
307.445
307.582
307.72
307.857
307.994
308.132
308.269
308.406
308.543
308.68
308.817
308.954
309.091
309.228
309.365
309.501
309.638
309.775
309.911
310.047
310.184
310.32
310.456
310.593
310.729
310.865
311.001
311.137
311.273
311.409
311.544
311.68
311.816
311.951
312.087
312.222
312.358
312.493
312.628
312.763
312.899
313.034
313.169
313.304
313.439
313.573
313.708
313.843
313.978
314.112
314.247
314.381
314.516
314.65
314.784
314.919
315.053
315.187
315.321
315.455
315.589
315.723
315.857
315.99
316.124
316.258
316.391
316.525
316.658
316.791
316.925
317.058
317.191
317.324
317.458
317.591
317.723
317.856
317.989
318.122
318.255
318.387
318.52
318.653
318.785
318.917
319.05
319.182
319.314
319.446
319.579
319.711
319.843
319.975
320.106
320.238
320.37
320.502
320.633
320.765
320.896
321.028
321.159
321.291
321.422
321.553
321.684
321.815
321.946
322.077
322.208
322.339
322.47
322.601
322.731
322.862
322.992
323.123
323.253
323.384
323.514
323.644
323.774
323.904
324.035
324.165
324.295
324.424
324.554
324.684
324.814
324.943
325.073
325.202
325.332
325.461
325.591
325.72
325.849
325.978
326.107
326.237
326.365
326.494
326.623
326.752
326.881
327.01
327.138
327.267
327.395
327.524
327.652
327.78
327.909
328.037
328.165
328.293
328.421
328.549
328.677
328.805
328.933
329.06
329.188
329.316
329.443
329.571
329.698
329.826
329.953
330.08
330.207
330.335
330.462
330.589
330.716
330.843
330.969
331.096
331.223
331.35
331.476
331.603
331.729
331.856
331.982
332.108
332.235
332.361
332.487
332.613
332.739
332.865
332.991
333.117
333.242
333.368
333.494
333.619
333.745
333.871
333.996
334.121
334.247
334.372
334.497
334.622
334.747
334.872
334.997
335.122
335.247
335.372
335.496
335.621
335.746
335.87
335.995
336.119
336.244
336.368
336.492
336.616
336.74
336.865
336.989
337.113
337.236
337.36
337.484
337.608
337.731
337.855
337.979
338.102
338.226
338.349
338.472
338.595
338.719
338.842
338.965
339.088
339.211
339.334
339.457
339.579
339.702
339.825
339.947
340.07
340.193
340.315
340.437
340.56
340.682
340.804
340.926
341.048
341.17
341.292
341.414
341.536
341.658
341.78
341.901
342.023
342.145
342.266
342.388
342.509
342.63
342.752
342.873
342.994
343.115
343.236
343.357
343.478
343.599
343.72
343.84
343.961
344.082
344.202
344.323
344.443
344.564
344.684
344.804
344.925
345.045
345.165
345.285
345.405
345.525
345.645
345.765
345.885
346.004
346.124
346.244
346.363
346.483
346.602
346.721
346.841
346.96
347.079
347.198
347.317
347.436
347.555
347.674
347.793
347.912
348.031
348.149
348.268
348.387
348.505
348.624
348.742
348.86
348.979
349.097
349.215
349.333
349.451
349.569
349.687
349.805
349.923
350.041
350.158
350.276
350.394
350.511
350.629
350.746
350.863
350.981
351.098
351.215
351.332
351.449
351.566
351.683
351.8
351.917
352.034
352.151
352.267
352.384
352.501
352.617
352.734
352.85
352.966
353.083
353.199
353.315
353.431
353.547
353.663
353.779
353.895
354.011
354.127
354.242
354.358
354.474
354.589
354.705
354.82
354.935
355.051
355.166
355.281
355.396
355.512
355.627
355.742
355.856
355.971
356.086
356.201
356.316
356.43
356.545
356.659
356.774
356.888
357.003
357.117
357.231
357.345
357.46
357.574
357.688
357.802
357.916
358.029
358.143
358.257
358.371
358.484
358.598
358.711
358.825
358.938
359.052
359.165
359.278
359.391
359.505
359.618
359.731
359.844
359.956
360.069
360.182
360.295
360.408
360.52
360.633
360.745
360.858
360.97
361.082
361.195
361.307
361.419
361.531
361.643
361.755
361.867
361.979
362.091
362.203
362.315
362.426
362.538
362.649
362.761
362.872
362.984
363.095
363.206
363.318
363.429
363.54
363.651
363.762
363.873
363.984
364.095
364.206
364.316
364.427
364.538
364.648
364.759
364.869
364.98
365.09
365.2
365.31
365.421
365.531
365.641
365.751
365.861
365.971
366.081
366.19
366.3
366.41
366.519
366.629
366.738
366.848
366.957
367.067
367.176
367.285
367.394
367.504
367.613
367.722
367.831
367.94
368.048
368.157
368.266
368.375
368.483
368.592
368.7
368.809
368.917
369.026
369.134
369.242
369.35
369.459
369.567
369.675
369.783
369.891
369.998
370.106
370.214
370.322
370.429
370.537
370.644
370.752
370.859
370.967
371.074
371.181
371.289
371.396
371.503
371.61
371.717
371.824
371.931
372.037
372.144
372.251
372.358
372.464
372.571
372.677
372.784
372.89
372.997
373.103
373.209
373.315
373.421
373.527
373.633
373.739
373.845
373.951
374.057
374.163
374.268
374.374
374.48
374.585
374.691
374.796
374.901
375.007
375.112
375.217
375.322
375.427
375.532
375.637
375.742
375.847
375.952
376.057
376.161
376.266
376.371
376.475
376.58
376.684
376.789
376.893
376.997
377.101
377.206
377.31
377.414
377.518
377.622
377.726
377.83
377.933
378.037
378.141
378.244
378.348
378.452
378.555
378.658
378.762
378.865
378.968
379.072
379.175
379.278
379.381
379.484
379.587
379.69
379.793
379.895
379.998
380.101
380.203
380.306
380.408
380.511
380.613
380.716
380.818
380.92
381.022
381.124
381.227
381.329
381.431
381.532
381.634
381.736
381.838
381.94
382.041
382.143
382.244
382.346
382.447
382.549
382.65
382.751
382.853
382.954
383.055
383.156
383.257
383.358
383.459
383.56
383.661
383.761
383.862
383.963
384.063
384.164
384.264
384.365
384.465
384.565
384.666
384.766
384.866
384.966
385.066
385.166
385.266
385.366
385.466
385.566
385.666
385.765
385.865
385.964
386.064
386.164
386.263
386.362
386.462
386.561
386.66
386.759
386.858
386.957
387.056
387.155
387.254
387.353
387.452
387.551
387.649
387.748
387.847
387.945
388.044
388.142
388.241
388.339
388.437
388.535
388.633
388.732
388.83
388.928
389.026
389.124
389.221
389.319
389.417
389.515
389.612
389.71
389.807
389.905
390.002
390.1
390.197
390.294
390.392
390.489
390.586
390.683
390.78
390.877
390.974
391.071
391.168
391.264
391.361
391.458
391.554
391.651
391.747
391.844
391.94
392.036
392.133
392.229
392.325
392.421
392.517
392.613
392.709
392.805
392.901
392.997
393.093
393.189
393.284
393.38
393.475
393.571
393.666
393.762
393.857
393.952
394.048
394.143
394.238
394.333
394.428
394.523
394.618
394.713
394.808
394.903
394.997
395.092
395.187
395.281
395.376
395.47
395.565
395.659
395.753
395.848
395.942
396.036
396.13
396.224
396.318
396.412
396.506
396.6
396.694
396.788
396.881
396.975
397.069
397.162
397.256
397.349
397.442
397.536
397.629
397.722
397.816
397.909
398.002
398.095
398.188
398.281
398.374
398.466
398.559
398.652
398.745
398.837
398.93
399.022
399.115
399.207
399.3
399.392
399.484
399.577
399.669
399.761
399.853
399.945
400.037
400.129
400.221
400.313
400.404
400.496
400.588
400.679
400.771
400.862
400.954
401.045
401.137
401.228
401.319
401.41
401.502
401.593
401.684
401.775
401.866
401.957
402.047
402.138
402.229
402.32
402.41
402.501
402.591
402.682
402.772
402.863
402.953
403.043
403.134
403.224
403.314
403.404
403.494
403.584
403.674
403.764
403.854
403.944
404.033
404.123
404.213
404.302
404.392
404.481
404.571
404.66
404.75
404.839
404.928
405.017
405.106
405.195
405.285
405.374
405.462
405.551
405.64
405.729
405.818
405.906
405.995
406.084
406.172
406.261
406.349
406.437
406.526
406.614
406.702
406.791
406.879
406.967
407.055
407.143
407.231
407.319
407.406
407.494
407.582
407.67
407.757
407.845
407.932
408.02
408.107
408.195
408.282
408.369
408.457
408.544
408.631
408.718
408.805
408.892
408.979
409.066
409.153
409.24
409.326
409.413
409.5
409.586
409.673
409.759
409.846
409.932
410.018
410.105
410.191
410.277
410.363
410.449
410.536
410.622
410.707
410.793
410.879
410.965
411.051
411.137
411.222
411.308
411.393
411.479
411.564
411.65
411.735
411.82
411.906
411.991
412.076
412.161
412.246
412.331
412.416
412.501
412.586
412.671
412.756
412.84
412.925
413.01
413.094
413.179
413.263
413.348
413.432
413.516
413.601
413.685
413.769
413.853
413.937
414.021
414.105
414.189
414.273
414.357
414.441
414.524
414.608
414.692
414.775
414.859
414.942
415.026
415.109
415.193
415.276
415.359
415.442
415.526
415.609
415.692
415.775
415.858
415.941
416.023
416.106
416.189
416.272
416.354
416.437
416.52
416.602
416.685
416.767
416.849
416.932
417.014
417.096
417.178
417.261
417.343
417.425
417.507
417.589
417.671
417.752
417.834
417.916
417.998
418.079
418.161
418.242
418.324
418.405
418.487
418.568
418.65
418.731
418.812
418.893
418.974
419.055
419.136
419.217
419.298
419.379
419.46
419.541
419.622
419.702
419.783
419.863
419.944
420.024
420.105
420.185
420.266
420.346
420.426
420.506
420.587
420.667
420.747
420.827
420.907
420.987
421.067
421.146
421.226
421.306
421.386
421.465
421.545
421.624
421.704
421.783
421.863
421.942
422.022
422.1
422.18
422.259
422.338
422.417
422.496
422.575
422.654
422.733
422.811
422.891
422.969
423.048
423.126
423.206
423.283
423.363
423.44
423.519
423.597
423.676
423.754
423.832
423.911
423.988
424.067
424.144
424.223
424.3
424.379
424.456
424.534
424.612
424.689
424.767
424.844
424.923
424.999
425.077
425.154
425.232
425.309
425.386
425.464
425.54
425.618
425.694
425.772
425.849
425.926
426.003
426.079
426.157
426.232
426.31
426.386
426.463
426.54
426.616
426.693
426.768
426.846
426.921
426.998
427.074
427.15
427.227
427.302
427.379
427.454
427.531
427.606
427.682
427.758
427.833
427.91
427.985
428.061
428.136
428.211
428.288
428.362
428.438
428.513
428.588
428.664
428.739
428.815
428.889
428.964
429.039
429.114
429.19
429.264
429.339
429.414
429.488
429.563
429.637
429.713
429.787
429.861
429.936
430.01
430.085
430.158
430.233
430.307
430.381
430.456
430.529
430.604
430.678
430.751
430.826
430.899
430.974
431.047
431.121
431.195
431.267
431.342
431.415
431.488
431.562
431.635
431.709
431.782
431.855
431.929
432.001
432.075
432.147
432.221
432.294
432.366
432.44
432.512
432.585
432.658
432.73
432.803
432.876
432.948
433.021
433.093
433.166
433.238
433.31
433.383
433.454
433.527
433.599
433.671
433.744
433.815
433.887
433.959
434.031
434.103
434.174
434.246
434.318
434.389
434.462
434.533
434.604
434.676
434.747
434.819
434.89
434.961
435.033
435.103
435.175
435.246
435.316
435.388
435.458
435.529
435.601
435.671
435.742
435.813
435.883
435.954
436.024
436.095
436.166
436.236
436.307
436.377
436.447
436.518
436.587
436.658
436.728
436.798
436.868
436.938
437.008
437.078
437.147
437.218
437.287
437.357
437.427
437.496
437.566
437.636
437.705
437.775
437.844
437.913
437.983
438.052
438.121
438.19
438.259
438.328
438.398
438.466
438.536
438.604
438.673
438.742
438.811
438.879
438.948
439.017
439.086
439.154
439.222
439.291
439.359
439.428
439.496
439.564
439.633
439.701
439.769
439.837
439.905
439.973
440.041
440.109
440.177
440.245
440.312
440.38
440.448
440.515
440.583
440.651
440.718
440.786
440.853
440.92
440.988
441.055
441.122
441.19
441.256
441.324
441.391
441.458
441.525
441.592
441.659
441.726
441.792
441.859
441.926
441.992
442.059
442.126
442.192
442.259
442.325
442.391
442.458
442.524
442.59
442.657
442.723
442.789
442.855
442.921
442.987
443.053
443.119
443.185
443.251
443.316
443.382
443.448
443.514
443.579
443.645
443.71
443.776
443.841
443.907
443.972
444.037
444.103
444.168
444.233
444.298
444.363
444.428
444.493
444.558
444.623
444.688
444.753
444.817
444.882
444.947
445.011
445.076
445.14
445.205
445.27
445.334
445.398
445.463
445.527
445.591
445.655
445.719
445.784
445.848
445.912
445.976
446.04
446.103
446.167
446.231
446.295
446.359
446.422
446.486
446.55
446.613
446.676
446.74
446.803
446.867
446.93
446.993
447.056
447.12
447.183
447.246
447.309
447.372
447.435
447.498
447.561
447.624
447.687
447.749
447.812
447.875
447.937
448
448.062
448.125
448.187
448.25
448.312
448.374
448.437
448.499
448.561
448.623
448.685
448.747
448.81
448.871
448.933
448.995
449.057
449.119
449.181
449.242
449.304
449.366
449.427
449.489
449.55
449.612
449.673
449.735
449.796
449.857
449.918
449.98
450.041
450.102
450.163
450.224
450.285
450.346
450.407
450.468
450.528
450.589
450.65
450.711
450.771
450.832
450.892
450.953
451.013
451.074
451.134
451.195
451.255
451.315
451.375
451.435
451.496
451.556
451.616
451.676
451.736
451.796
451.855
451.915
451.975
452.035
452.095
452.154
452.214
452.273
452.333
452.392
452.452
452.511
452.57
452.63
452.689
452.748
452.808
452.867
452.926
452.985
453.044
453.103
453.162
453.221
453.279
453.338
453.397
453.456
453.514
453.573
453.632
453.69
453.749
453.807
453.866
453.924
453.982
454.041
454.099
454.157
454.215
454.273
454.332
454.389
454.448
454.506
454.563
454.621
454.679
454.737
454.795
454.852
454.91
454.968
455.025
455.083
455.14
455.198
455.255
455.312
455.37
455.427
455.484
455.542
455.599
455.656
455.713
455.77
455.827
455.884
455.941
455.998
456.054
456.111
456.168
456.225
456.281
456.338
456.394
456.451
456.508
456.564
456.62
456.677
456.733
456.789
456.846
456.902
456.958
457.014
457.07
457.126
457.182
457.238
457.294
457.35
457.406
457.461
457.517
457.573
457.629
457.684
457.74
457.795
457.851
457.906
457.962
458.017
458.072
458.128
458.183
458.238
458.293
458.348
458.403
458.458
458.513
458.568
458.623
458.678
458.733
458.788
458.842
458.897
458.952
459.006
459.061
459.115
459.17
459.224
459.279
459.333
459.388
459.442
459.496
459.55
459.604
459.659
459.713
459.767
459.821
459.875
459.929
459.982
460.036
460.09
460.144
460.197
460.251
460.305
460.358
460.412
460.465
460.519
460.572
460.626
460.679
460.732
460.786
460.839
460.892
460.945
460.998
461.051
461.104
461.157
461.21
461.263
461.316
461.369
461.422
461.474
461.527
461.58
461.632
461.685
461.737
461.79
461.842
461.895
461.947
461.999
462.052
462.104
462.156
462.208
462.26
462.312
462.364
462.416
462.468
462.52
462.572
462.624
462.676
462.728
462.779
462.831
462.883
462.934
462.986
463.037
463.089
463.14
463.192
463.243
463.294
463.345
463.397
463.448
463.499
463.55
463.601
463.652
463.703
463.754
463.805
463.856
463.907
463.957
464.008
464.059
464.11
464.16
464.211
464.261
464.312
464.362
464.413
464.463
464.513
464.564
464.614
464.664
464.714
464.765
464.815
464.865
464.915
464.965
465.015
465.065
465.114
465.164
465.214
465.264
465.313
465.363
465.413
465.462
465.512
465.561
465.611
465.66
465.71
465.759
465.808
465.857
465.907
465.956
466.005
466.054
466.103
466.152
466.201
466.25
466.299
466.348
466.397
466.445
466.494
466.543
466.592
466.64
466.689
466.737
466.786
466.834
466.883
466.931
466.979
467.028
467.076
467.124
467.172
467.221
467.269
467.317
467.365
467.413
467.461
467.509
467.557
467.604
467.652
467.7
467.748
467.795
467.843
467.89
467.938
467.986
468.033
468.08
468.128
468.175
468.223
468.27
468.317
468.364
468.411
468.459
468.506
468.553
468.6
468.647
468.694
468.74
468.787
468.834
468.881
468.928
468.974
469.021
469.068
469.114
469.161
469.207
469.254
469.3
469.346
469.393
469.439
469.485
469.532
469.578
469.624
469.67
469.716
469.762
469.808
469.854
469.9
469.946
469.992
470.037
470.083
470.129
470.175
470.22
470.266
470.311
470.357
470.402
470.448
470.493
470.539
470.584
470.629
470.674
470.72
470.765
470.81
470.855
470.9
470.945
470.99
471.035
471.08
471.125
471.17
471.214
471.259
471.304
471.348
471.393
471.438
471.482
471.527
471.571
471.616
471.66
471.704
471.749
471.793
471.837
471.881
471.926
471.97
472.014
472.058
472.102
472.146
472.19
472.234
472.278
472.321
472.365
472.409
472.453
472.496
472.54
472.584
472.627
472.671
472.714
472.757
472.801
472.844
472.888
472.931
472.974
473.017
473.06
473.104
473.147
473.19
473.233
473.276
473.319
473.362
473.404
473.447
473.49
473.533
473.576
473.618
473.661
473.703
473.746
473.789
473.831
473.873
473.916
473.958
474.001
474.043
474.085
474.127
474.169
474.212
474.254
474.296
474.338
474.38
474.422
474.464
474.506
474.547
474.589
474.631
474.673
474.714
474.756
474.798
474.839
474.881
474.922