/*--------------------------------*- C++ -*----------------------------------*\
  =========                 |
  \\      /  F ield         | OpenFOAM: The Open Source CFD Toolbox
   \\    /   O peration     | Website:  https://openfoam.org
    \\  /    A nd           | Version:  9
     \\/     M anipulation  |
\*---------------------------------------------------------------------------*/
FoamFile
{
    format      ascii;
    class       volVectorField;
    location    "0.013";
    object      U_0;
}
// * * * * * * * * * * * * * * * * * * * * * * * * * * * * * * * * * * * * * //

dimensions      [0 1 -1 0 0 0 0];

internalField   nonuniform List<vector> 
10000
(
(2.42195e-11 0 0)
(7.09373e-11 0 0)
(1.04573e-10 0 0)
(1.51307e-10 0 0)
(2.0915e-10 0 0)
(2.82471e-10 0 0)
(3.77915e-10 0 0)
(5.02876e-10 0 0)
(6.64623e-10 0 0)
(8.76021e-10 0 0)
(1.1517e-09 0 0)
(1.50942e-09 0 0)
(1.97447e-09 0 0)
(2.57878e-09 0 0)
(3.36092e-09 0 0)
(4.37579e-09 0 0)
(5.68782e-09 0 0)
(7.38336e-09 0 0)
(9.57272e-09 0 0)
(1.23937e-08 0 0)
(1.60259e-08 0 0)
(2.06938e-08 0 0)
(2.66854e-08 0 0)
(3.43676e-08 0 0)
(4.42026e-08 0 0)
(5.67777e-08 0 0)
(7.2835e-08 0 0)
(9.33097e-08 0 0)
(1.19381e-07 0 0)
(1.52533e-07 0 0)
(1.94631e-07 0 0)
(2.48011e-07 0 0)
(3.15603e-07 0 0)
(4.01069e-07 0 0)
(5.08979e-07 0 0)
(6.45031e-07 0 0)
(8.16316e-07 0 0)
(1.03164e-06 0 0)
(1.30192e-06 0 0)
(1.64069e-06 0 0)
(2.06466e-06 0 0)
(2.59445e-06 0 0)
(3.25547e-06 0 0)
(4.07895e-06 0 0)
(5.10324e-06 0 0)
(6.3753e-06 0 0)
(7.95258e-06 0 0)
(9.9052e-06 0 0)
(1.23186e-05 0 0)
(1.52967e-05 0 0)
(1.89656e-05 0 0)
(2.3478e-05 0 0)
(2.90188e-05 0 0)
(3.58108e-05 0 0)
(4.41223e-05 0 0)
(5.42761e-05 0 0)
(6.66588e-05 0 0)
(8.17334e-05 0 0)
(0.000100053 0 0)
(0.000122275 0 0)
(0.000149183 0 0)
(0.000181706 0 0)
(0.000220943 0 0)
(0.000268192 0 0)
(0.000324979 0 0)
(0.000393102 0 0)
(0.000474664 0 0)
(0.000572126 0 0)
(0.000688354 0 0)
(0.000826686 0 0)
(0.000990989 0 0)
(0.00118574 0 0)
(0.00141609 0 0)
(0.00168797 0 0)
(0.0020082 0 0)
(0.00238452 0 0)
(0.00282581 0 0)
(0.00334211 0 0)
(0.0039448 0 0)
(0.00464672 0 0)
(0.00546228 0 0)
(0.00640763 0 0)
(0.00750079 0 0)
(0.00876176 0 0)
(0.0102127 0 0)
(0.011878 0 0)
(0.0137845 0 0)
(0.0159615 0 0)
(0.0184406 0 0)
(0.0212564 0 0)
(0.0244459 0 0)
(0.0280487 0 0)
(0.0321072 0 0)
(0.0366661 0 0)
(0.0417725 0 0)
(0.0474755 0 0)
(0.0538266 0 0)
(0.0608784 0 0)
(0.068685 0 0)
(0.0773016 0 0)
(0.0867834 0 0)
(0.097186 0 0)
(0.108564 0 0)
(0.120971 0 0)
(0.134459 0 0)
(0.149078 0 0)
(0.164875 0 0)
(0.181892 0 0)
(0.200169 0 0)
(0.219742 0 0)
(0.240639 0 0)
(0.262887 0 0)
(0.286504 0 0)
(0.311505 0 0)
(0.337897 0 0)
(0.365682 0 0)
(0.394856 0 0)
(0.425412 0 0)
(0.457334 0 0)
(0.490603 0 0)
(0.525195 0 0)
(0.561082 0 0)
(0.598231 0 0)
(0.636609 0 0)
(0.676176 0 0)
(0.716892 0 0)
(0.758717 0 0)
(0.801605 0 0)
(0.845514 0 0)
(0.890399 0 0)
(0.936215 0 0)
(0.982918 0 0)
(1.03046 0 0)
(1.07881 0 0)
(1.12792 0 0)
(1.17774 0 0)
(1.22824 0 0)
(1.27938 0 0)
(1.33113 0 0)
(1.38345 0 0)
(1.4363 0 0)
(1.48966 0 0)
(1.5435 0 0)
(1.59779 0 0)
(1.6525 0 0)
(1.70761 0 0)
(1.76309 0 0)
(1.81893 0 0)
(1.8751 0 0)
(1.93159 0 0)
(1.98837 0 0)
(2.04543 0 0)
(2.10276 0 0)
(2.16033 0 0)
(2.21814 0 0)
(2.27617 0 0)
(2.33441 0 0)
(2.39285 0 0)
(2.45147 0 0)
(2.51028 0 0)
(2.56925 0 0)
(2.62838 0 0)
(2.68767 0 0)
(2.7471 0 0)
(2.80666 0 0)
(2.86636 0 0)
(2.92618 0 0)
(2.98611 0 0)
(3.04616 0 0)
(3.10632 0 0)
(3.16657 0 0)
(3.22693 0 0)
(3.28737 0 0)
(3.34791 0 0)
(3.40853 0 0)
(3.46923 0 0)
(3.53 0 0)
(3.59085 0 0)
(3.65177 0 0)
(3.71276 0 0)
(3.77381 0 0)
(3.83493 0 0)
(3.8961 0 0)
(3.95734 0 0)
(4.01862 0 0)
(4.07996 0 0)
(4.14135 0 0)
(4.20279 0 0)
(4.26428 0 0)
(4.32581 0 0)
(4.38739 0 0)
(4.44901 0 0)
(4.51067 0 0)
(4.57237 0 0)
(4.6341 0 0)
(4.69588 0 0)
(4.75768 0 0)
(4.81953 0 0)
(4.8814 0 0)
(4.94331 0 0)
(5.00525 0 0)
(5.06722 0 0)
(5.12922 0 0)
(5.19125 0 0)
(5.2533 0 0)
(5.31539 0 0)
(5.37749 0 0)
(5.43963 0 0)
(5.50178 0 0)
(5.56397 0 0)
(5.62617 0 0)
(5.6884 0 0)
(5.75065 0 0)
(5.81292 0 0)
(5.87522 0 0)
(5.93753 0 0)
(5.99986 0 0)
(6.06222 0 0)
(6.12459 0 0)
(6.18698 0 0)
(6.24939 0 0)
(6.31182 0 0)
(6.37427 0 0)
(6.43673 0 0)
(6.49921 0 0)
(6.56171 0 0)
(6.62422 0 0)
(6.68675 0 0)
(6.74929 0 0)
(6.81185 0 0)
(6.87443 0 0)
(6.93702 0 0)
(6.99962 0 0)
(7.06224 0 0)
(7.12487 0 0)
(7.18752 0 0)
(7.25018 0 0)
(7.31285 0 0)
(7.37554 0 0)
(7.43824 0 0)
(7.50095 0 0)
(7.56367 0 0)
(7.62641 0 0)
(7.68916 0 0)
(7.75192 0 0)
(7.8147 0 0)
(7.87748 0 0)
(7.94028 0 0)
(8.00309 0 0)
(8.06591 0 0)
(8.12874 0 0)
(8.19158 0 0)
(8.25443 0 0)
(8.3173 0 0)
(8.38017 0 0)
(8.44306 0 0)
(8.50595 0 0)
(8.56886 0 0)
(8.63177 0 0)
(8.6947 0 0)
(8.75763 0 0)
(8.82058 0 0)
(8.88353 0 0)
(8.9465 0 0)
(9.00947 0 0)
(9.07246 0 0)
(9.13545 0 0)
(9.19845 0 0)
(9.26146 0 0)
(9.32448 0 0)
(9.38751 0 0)
(9.45055 0 0)
(9.51359 0 0)
(9.57665 0 0)
(9.63971 0 0)
(9.70278 0 0)
(9.76586 0 0)
(9.82895 0 0)
(9.89204 0 0)
(9.95515 0 0)
(10.0183 0 0)
(10.0814 0 0)
(10.1445 0 0)
(10.2076 0 0)
(10.2708 0 0)
(10.3339 0 0)
(10.3971 0 0)
(10.4603 0 0)
(10.5234 0 0)
(10.5866 0 0)
(10.6498 0 0)
(10.713 0 0)
(10.7762 0 0)
(10.8394 0 0)
(10.9026 0 0)
(10.9658 0 0)
(11.0291 0 0)
(11.0923 0 0)
(11.1556 0 0)
(11.2188 0 0)
(11.2821 0 0)
(11.3453 0 0)
(11.4086 0 0)
(11.4719 0 0)
(11.5352 0 0)
(11.5984 0 0)
(11.6617 0 0)
(11.725 0 0)
(11.7883 0 0)
(11.8517 0 0)
(11.915 0 0)
(11.9783 0 0)
(12.0416 0 0)
(12.105 0 0)
(12.1683 0 0)
(12.2316 0 0)
(12.295 0 0)
(12.3584 0 0)
(12.4217 0 0)
(12.4851 0 0)
(12.5485 0 0)
(12.6118 0 0)
(12.6752 0 0)
(12.7386 0 0)
(12.802 0 0)
(12.8654 0 0)
(12.9288 0 0)
(12.9922 0 0)
(13.0556 0 0)
(13.119 0 0)
(13.1825 0 0)
(13.2459 0 0)
(13.3093 0 0)
(13.3728 0 0)
(13.4362 0 0)
(13.4997 0 0)
(13.5631 0 0)
(13.6266 0 0)
(13.69 0 0)
(13.7535 0 0)
(13.817 0 0)
(13.8804 0 0)
(13.9439 0 0)
(14.0074 0 0)
(14.0709 0 0)
(14.1344 0 0)
(14.1978 0 0)
(14.2613 0 0)
(14.3248 0 0)
(14.3883 0 0)
(14.4519 0 0)
(14.5154 0 0)
(14.5789 0 0)
(14.6424 0 0)
(14.7059 0 0)
(14.7695 0 0)
(14.833 0 0)
(14.8965 0 0)
(14.9601 0 0)
(15.0236 0 0)
(15.0871 0 0)
(15.1507 0 0)
(15.2142 0 0)
(15.2778 0 0)
(15.3413 0 0)
(15.4049 0 0)
(15.4685 0 0)
(15.532 0 0)
(15.5956 0 0)
(15.6592 0 0)
(15.7228 0 0)
(15.7863 0 0)
(15.8499 0 0)
(15.9135 0 0)
(15.9771 0 0)
(16.0407 0 0)
(16.1043 0 0)
(16.1679 0 0)
(16.2315 0 0)
(16.2951 0 0)
(16.3587 0 0)
(16.4223 0 0)
(16.4859 0 0)
(16.5495 0 0)
(16.6131 0 0)
(16.6768 0 0)
(16.7404 0 0)
(16.804 0 0)
(16.8676 0 0)
(16.9313 0 0)
(16.9949 0 0)
(17.0585 0 0)
(17.1222 0 0)
(17.1858 0 0)
(17.2494 0 0)
(17.3131 0 0)
(17.3767 0 0)
(17.4404 0 0)
(17.504 0 0)
(17.5677 0 0)
(17.6313 0 0)
(17.695 0 0)
(17.7587 0 0)
(17.8223 0 0)
(17.886 0 0)
(17.9496 0 0)
(18.0133 0 0)
(18.077 0 0)
(18.1407 0 0)
(18.2043 0 0)
(18.268 0 0)
(18.3317 0 0)
(18.3954 0 0)
(18.459 0 0)
(18.5227 0 0)
(18.5864 0 0)
(18.6501 0 0)
(18.7138 0 0)
(18.7775 0 0)
(18.8412 0 0)
(18.9049 0 0)
(18.9686 0 0)
(19.0323 0 0)
(19.096 0 0)
(19.1597 0 0)
(19.2234 0 0)
(19.2871 0 0)
(19.3508 0 0)
(19.4145 0 0)
(19.4782 0 0)
(19.5419 0 0)
(19.6056 0 0)
(19.6694 0 0)
(19.7331 0 0)
(19.7968 0 0)
(19.8605 0 0)
(19.9242 0 0)
(19.988 0 0)
(20.0517 0 0)
(20.1154 0 0)
(20.1792 0 0)
(20.2429 0 0)
(20.3066 0 0)
(20.3703 0 0)
(20.4341 0 0)
(20.4978 0 0)
(20.5616 0 0)
(20.6253 0 0)
(20.689 0 0)
(20.7528 0 0)
(20.8165 0 0)
(20.8803 0 0)
(20.944 0 0)
(21.0078 0 0)
(21.0715 0 0)
(21.1353 0 0)
(21.199 0 0)
(21.2628 0 0)
(21.3265 0 0)
(21.3903 0 0)
(21.454 0 0)
(21.5178 0 0)
(21.5816 0 0)
(21.6453 0 0)
(21.7091 0 0)
(21.7729 0 0)
(21.8366 0 0)
(21.9004 0 0)
(21.9642 0 0)
(22.0279 0 0)
(22.0917 0 0)
(22.1555 0 0)
(22.2192 0 0)
(22.283 0 0)
(22.3468 0 0)
(22.4106 0 0)
(22.4743 0 0)
(22.5381 0 0)
(22.6019 0 0)
(22.6657 0 0)
(22.7295 0 0)
(22.7932 0 0)
(22.857 0 0)
(22.9208 0 0)
(22.9846 0 0)
(23.0484 0 0)
(23.1122 0 0)
(23.176 0 0)
(23.2398 0 0)
(23.3035 0 0)
(23.3673 0 0)
(23.4311 0 0)
(23.4949 0 0)
(23.5587 0 0)
(23.6225 0 0)
(23.6863 0 0)
(23.7501 0 0)
(23.8139 0 0)
(23.8777 0 0)
(23.9415 0 0)
(24.0053 0 0)
(24.0691 0 0)
(24.1329 0 0)
(24.1967 0 0)
(24.2605 0 0)
(24.3244 0 0)
(24.3882 0 0)
(24.452 0 0)
(24.5158 0 0)
(24.5796 0 0)
(24.6434 0 0)
(24.7072 0 0)
(24.771 0 0)
(24.8349 0 0)
(24.8987 0 0)
(24.9625 0 0)
(25.0263 0 0)
(25.0901 0 0)
(25.1539 0 0)
(25.2178 0 0)
(25.2816 0 0)
(25.3454 0 0)
(25.4092 0 0)
(25.473 0 0)
(25.5369 0 0)
(25.6007 0 0)
(25.6645 0 0)
(25.7284 0 0)
(25.7922 0 0)
(25.856 0 0)
(25.9198 0 0)
(25.9837 0 0)
(26.0475 0 0)
(26.1113 0 0)
(26.1752 0 0)
(26.239 0 0)
(26.3028 0 0)
(26.3667 0 0)
(26.4305 0 0)
(26.4943 0 0)
(26.5582 0 0)
(26.622 0 0)
(26.6859 0 0)
(26.7497 0 0)
(26.8135 0 0)
(26.8774 0 0)
(26.9412 0 0)
(27.0051 0 0)
(27.0689 0 0)
(27.1327 0 0)
(27.1966 0 0)
(27.2604 0 0)
(27.3243 0 0)
(27.3881 0 0)
(27.452 0 0)
(27.5158 0 0)
(27.5797 0 0)
(27.6435 0 0)
(27.7074 0 0)
(27.7712 0 0)
(27.8351 0 0)
(27.8989 0 0)
(27.9628 0 0)
(28.0266 0 0)
(28.0905 0 0)
(28.1543 0 0)
(28.2182 0 0)
(28.282 0 0)
(28.3459 0 0)
(28.4098 0 0)
(28.4736 0 0)
(28.5375 0 0)
(28.6013 0 0)
(28.6652 0 0)
(28.7291 0 0)
(28.7929 0 0)
(28.8568 0 0)
(28.9206 0 0)
(28.9845 0 0)
(29.0484 0 0)
(29.1122 0 0)
(29.1761 0 0)
(29.24 0 0)
(29.3038 0 0)
(29.3677 0 0)
(29.4316 0 0)
(29.4954 0 0)
(29.5593 0 0)
(29.6232 0 0)
(29.687 0 0)
(29.7509 0 0)
(29.8148 0 0)
(29.8786 0 0)
(29.9425 0 0)
(30.0064 0 0)
(30.0703 0 0)
(30.1341 0 0)
(30.198 0 0)
(30.2619 0 0)
(30.3258 0 0)
(30.3896 0 0)
(30.4535 0 0)
(30.5174 0 0)
(30.5813 0 0)
(30.6451 0 0)
(30.709 0 0)
(30.7729 0 0)
(30.8368 0 0)
(30.9007 0 0)
(30.9645 0 0)
(31.0284 0 0)
(31.0923 0 0)
(31.1562 0 0)
(31.2201 0 0)
(31.2839 0 0)
(31.3478 0 0)
(31.4117 0 0)
(31.4756 0 0)
(31.5395 0 0)
(31.6034 0 0)
(31.6672 0 0)
(31.7311 0 0)
(31.795 0 0)
(31.8589 0 0)
(31.9228 0 0)
(31.9867 0 0)
(32.0506 0 0)
(32.1145 0 0)
(32.1783 0 0)
(32.2422 0 0)
(32.3061 0 0)
(32.37 0 0)
(32.4339 0 0)
(32.4978 0 0)
(32.5617 0 0)
(32.6256 0 0)
(32.6895 0 0)
(32.7534 0 0)
(32.8173 0 0)
(32.8812 0 0)
(32.9451 0 0)
(33.0089 0 0)
(33.0728 0 0)
(33.1367 0 0)
(33.2006 0 0)
(33.2645 0 0)
(33.3284 0 0)
(33.3923 0 0)
(33.4562 0 0)
(33.5201 0 0)
(33.584 0 0)
(33.6479 0 0)
(33.7118 0 0)
(33.7757 0 0)
(33.8396 0 0)
(33.9035 0 0)
(33.9674 0 0)
(34.0313 0 0)
(34.0952 0 0)
(34.1591 0 0)
(34.223 0 0)
(34.2869 0 0)
(34.3508 0 0)
(34.4147 0 0)
(34.4787 0 0)
(34.5426 0 0)
(34.6065 0 0)
(34.6704 0 0)
(34.7343 0 0)
(34.7982 0 0)
(34.8621 0 0)
(34.926 0 0)
(34.9899 0 0)
(35.0538 0 0)
(35.1177 0 0)
(35.1816 0 0)
(35.2455 0 0)
(35.3094 0 0)
(35.3734 0 0)
(35.4373 0 0)
(35.5012 0 0)
(35.5651 0 0)
(35.629 0 0)
(35.6929 0 0)
(35.7568 0 0)
(35.8207 0 0)
(35.8847 0 0)
(35.9486 0 0)
(36.0125 0 0)
(36.0764 0 0)
(36.1403 0 0)
(36.2042 0 0)
(36.2681 0 0)
(36.3321 0 0)
(36.396 0 0)
(36.4599 0 0)
(36.5238 0 0)
(36.5877 0 0)
(36.6516 0 0)
(36.7156 0 0)
(36.7795 0 0)
(36.8434 0 0)
(36.9073 0 0)
(36.9712 0 0)
(37.0351 0 0)
(37.0991 0 0)
(37.163 0 0)
(37.2269 0 0)
(37.2908 0 0)
(37.3547 0 0)
(37.4187 0 0)
(37.4826 0 0)
(37.5465 0 0)
(37.6104 0 0)
(37.6744 0 0)
(37.7383 0 0)
(37.8022 0 0)
(37.8661 0 0)
(37.93 0 0)
(37.994 0 0)
(38.0579 0 0)
(38.1218 0 0)
(38.1857 0 0)
(38.2497 0 0)
(38.3136 0 0)
(38.3775 0 0)
(38.4414 0 0)
(38.5054 0 0)
(38.5693 0 0)
(38.6332 0 0)
(38.6972 0 0)
(38.7611 0 0)
(38.825 0 0)
(38.8889 0 0)
(38.9529 0 0)
(39.0168 0 0)
(39.0807 0 0)
(39.1446 0 0)
(39.2086 0 0)
(39.2725 0 0)
(39.3364 0 0)
(39.4004 0 0)
(39.4643 0 0)
(39.5282 0 0)
(39.5922 0 0)
(39.6561 0 0)
(39.72 0 0)
(39.784 0 0)
(39.8479 0 0)
(39.9118 0 0)
(39.9758 0 0)
(40.0397 0 0)
(40.1036 0 0)
(40.1676 0 0)
(40.2315 0 0)
(40.2954 0 0)
(40.3594 0 0)
(40.4233 0 0)
(40.4872 0 0)
(40.5512 0 0)
(40.6151 0 0)
(40.679 0 0)
(40.743 0 0)
(40.8069 0 0)
(40.8708 0 0)
(40.9348 0 0)
(40.9987 0 0)
(41.0627 0 0)
(41.1266 0 0)
(41.1905 0 0)
(41.2545 0 0)
(41.3184 0 0)
(41.3823 0 0)
(41.4463 0 0)
(41.5102 0 0)
(41.5742 0 0)
(41.6381 0 0)
(41.702 0 0)
(41.766 0 0)
(41.8299 0 0)
(41.8939 0 0)
(41.9578 0 0)
(42.0217 0 0)
(42.0857 0 0)
(42.1496 0 0)
(42.2136 0 0)
(42.2775 0 0)
(42.3415 0 0)
(42.4054 0 0)
(42.4693 0 0)
(42.5333 0 0)
(42.5972 0 0)
(42.6612 0 0)
(42.7251 0 0)
(42.7891 0 0)
(42.853 0 0)
(42.9169 0 0)
(42.9809 0 0)
(43.0448 0 0)
(43.1088 0 0)
(43.1727 0 0)
(43.2367 0 0)
(43.3006 0 0)
(43.3646 0 0)
(43.4285 0 0)
(43.4925 0 0)
(43.5564 0 0)
(43.6204 0 0)
(43.6843 0 0)
(43.7482 0 0)
(43.8122 0 0)
(43.8761 0 0)
(43.9401 0 0)
(44.004 0 0)
(44.068 0 0)
(44.1319 0 0)
(44.1959 0 0)
(44.2598 0 0)
(44.3238 0 0)
(44.3877 0 0)
(44.4517 0 0)
(44.5156 0 0)
(44.5796 0 0)
(44.6435 0 0)
(44.7075 0 0)
(44.7714 0 0)
(44.8354 0 0)
(44.8993 0 0)
(44.9633 0 0)
(45.0272 0 0)
(45.0912 0 0)
(45.1551 0 0)
(45.2191 0 0)
(45.283 0 0)
(45.347 0 0)
(45.411 0 0)
(45.4749 0 0)
(45.5389 0 0)
(45.6028 0 0)
(45.6668 0 0)
(45.7307 0 0)
(45.7947 0 0)
(45.8586 0 0)
(45.9226 0 0)
(45.9865 0 0)
(46.0505 0 0)
(46.1144 0 0)
(46.1784 0 0)
(46.2424 0 0)
(46.3063 0 0)
(46.3703 0 0)
(46.4342 0 0)
(46.4982 0 0)
(46.5621 0 0)
(46.6261 0 0)
(46.69 0 0)
(46.754 0 0)
(46.818 0 0)
(46.8819 0 0)
(46.9459 0 0)
(47.0098 0 0)
(47.0738 0 0)
(47.1378 0 0)
(47.2017 0 0)
(47.2657 0 0)
(47.3296 0 0)
(47.3936 0 0)
(47.4575 0 0)
(47.5215 0 0)
(47.5855 0 0)
(47.6494 0 0)
(47.7134 0 0)
(47.7773 0 0)
(47.8413 0 0)
(47.9053 0 0)
(47.9692 0 0)
(48.0332 0 0)
(48.0971 0 0)
(48.1611 0 0)
(48.2251 0 0)
(48.289 0 0)
(48.353 0 0)
(48.4169 0 0)
(48.4809 0 0)
(48.5449 0 0)
(48.6088 0 0)
(48.6728 0 0)
(48.7368 0 0)
(48.8007 0 0)
(48.8647 0 0)
(48.9286 0 0)
(48.9926 0 0)
(49.0566 0 0)
(49.1205 0 0)
(49.1845 0 0)
(49.2485 0 0)
(49.3124 0 0)
(49.3764 0 0)
(49.4404 0 0)
(49.5043 0 0)
(49.5683 0 0)
(49.6322 0 0)
(49.6962 0 0)
(49.7602 0 0)
(49.8241 0 0)
(49.8881 0 0)
(49.9521 0 0)
(50.016 0 0)
(50.08 0 0)
(50.144 0 0)
(50.2079 0 0)
(50.2719 0 0)
(50.3359 0 0)
(50.3998 0 0)
(50.4638 0 0)
(50.5278 0 0)
(50.5917 0 0)
(50.6557 0 0)
(50.7197 0 0)
(50.7836 0 0)
(50.8476 0 0)
(50.9116 0 0)
(50.9755 0 0)
(51.0395 0 0)
(51.1035 0 0)
(51.1674 0 0)
(51.2314 0 0)
(51.2954 0 0)
(51.3594 0 0)
(51.4233 0 0)
(51.4873 0 0)
(51.5513 0 0)
(51.6152 0 0)
(51.6792 0 0)
(51.7432 0 0)
(51.8071 0 0)
(51.8711 0 0)
(51.9351 0 0)
(51.999 0 0)
(52.063 0 0)
(52.127 0 0)
(52.191 0 0)
(52.2549 0 0)
(52.3189 0 0)
(52.3829 0 0)
(52.4468 0 0)
(52.5108 0 0)
(52.5748 0 0)
(52.6388 0 0)
(52.7027 0 0)
(52.7667 0 0)
(52.8307 0 0)
(52.8946 0 0)
(52.9586 0 0)
(53.0226 0 0)
(53.0866 0 0)
(53.1505 0 0)
(53.2145 0 0)
(53.2785 0 0)
(53.3425 0 0)
(53.4064 0 0)
(53.4704 0 0)
(53.5344 0 0)
(53.5983 0 0)
(53.6623 0 0)
(53.7263 0 0)
(53.7903 0 0)
(53.8542 0 0)
(53.9182 0 0)
(53.9822 0 0)
(54.0462 0 0)
(54.1101 0 0)
(54.1741 0 0)
(54.2381 0 0)
(54.3021 0 0)
(54.366 0 0)
(54.43 0 0)
(54.494 0 0)
(54.558 0 0)
(54.6219 0 0)
(54.6859 0 0)
(54.7499 0 0)
(54.8139 0 0)
(54.8778 0 0)
(54.9418 0 0)
(55.0058 0 0)
(55.0698 0 0)
(55.1338 0 0)
(55.1977 0 0)
(55.2617 0 0)
(55.3257 0 0)
(55.3897 0 0)
(55.4536 0 0)
(55.5176 0 0)
(55.5816 0 0)
(55.6456 0 0)
(55.7095 0 0)
(55.7735 0 0)
(55.8375 0 0)
(55.9015 0 0)
(55.9655 0 0)
(56.0294 0 0)
(56.0934 0 0)
(56.1574 0 0)
(56.2214 0 0)
(56.2854 0 0)
(56.3493 0 0)
(56.4133 0 0)
(56.4773 0 0)
(56.5413 0 0)
(56.6052 0 0)
(56.6692 0 0)
(56.7332 0 0)
(56.7972 0 0)
(56.8612 0 0)
(56.9251 0 0)
(56.9891 0 0)
(57.0531 0 0)
(57.1171 0 0)
(57.1811 0 0)
(57.2451 0 0)
(57.309 0 0)
(57.373 0 0)
(57.437 0 0)
(57.501 0 0)
(57.565 0 0)
(57.6289 0 0)
(57.6929 0 0)
(57.7569 0 0)
(57.8209 0 0)
(57.8849 0 0)
(57.9488 0 0)
(58.0128 0 0)
(58.0768 0 0)
(58.1408 0 0)
(58.2048 0 0)
(58.2688 0 0)
(58.3327 0 0)
(58.3967 0 0)
(58.4607 0 0)
(58.5247 0 0)
(58.5887 0 0)
(58.6526 0 0)
(58.7166 0 0)
(58.7806 0 0)
(58.8446 0 0)
(58.9086 0 0)
(58.9726 0 0)
(59.0365 0 0)
(59.1005 0 0)
(59.1645 0 0)
(59.2285 0 0)
(59.2925 0 0)
(59.3565 0 0)
(59.4205 0 0)
(59.4844 0 0)
(59.5484 0 0)
(59.6124 0 0)
(59.6764 0 0)
(59.7404 0 0)
(59.8044 0 0)
(59.8683 0 0)
(59.9323 0 0)
(59.9963 0 0)
(60.0603 0 0)
(60.1243 0 0)
(60.1883 0 0)
(60.2523 0 0)
(60.3162 0 0)
(60.3802 0 0)
(60.4442 0 0)
(60.5082 0 0)
(60.5722 0 0)
(60.6362 0 0)
(60.7002 0 0)
(60.7641 0 0)
(60.8281 0 0)
(60.8921 0 0)
(60.9561 0 0)
(61.0201 0 0)
(61.0841 0 0)
(61.1481 0 0)
(61.212 0 0)
(61.276 0 0)
(61.34 0 0)
(61.404 0 0)
(61.468 0 0)
(61.532 0 0)
(61.596 0 0)
(61.66 0 0)
(61.7239 0 0)
(61.7879 0 0)
(61.8519 0 0)
(61.9159 0 0)
(61.9799 0 0)
(62.0439 0 0)
(62.1079 0 0)
(62.1719 0 0)
(62.2359 0 0)
(62.2998 0 0)
(62.3638 0 0)
(62.4278 0 0)
(62.4918 0 0)
(62.5558 0 0)
(62.6198 0 0)
(62.6838 0 0)
(62.7478 0 0)
(62.8117 0 0)
(62.8757 0 0)
(62.9397 0 0)
(63.0037 0 0)
(63.0677 0 0)
(63.1317 0 0)
(63.1957 0 0)
(63.2597 0 0)
(63.3237 0 0)
(63.3877 0 0)
(63.4516 0 0)
(63.5156 0 0)
(63.5796 0 0)
(63.6436 0 0)
(63.7076 0 0)
(63.7716 0 0)
(63.8356 0 0)
(63.8996 0 0)
(63.9636 0 0)
(64.0276 0 0)
(64.0915 0 0)
(64.1555 0 0)
(64.2195 0 0)
(64.2835 0 0)
(64.3475 0 0)
(64.4115 0 0)
(64.4755 0 0)
(64.5395 0 0)
(64.6035 0 0)
(64.6675 0 0)
(64.7315 0 0)
(64.7955 0 0)
(64.8594 0 0)
(64.9234 0 0)
(64.9874 0 0)
(65.0514 0 0)
(65.1154 0 0)
(65.1794 0 0)
(65.2434 0 0)
(65.3074 0 0)
(65.3714 0 0)
(65.4354 0 0)
(65.4994 0 0)
(65.5634 0 0)
(65.6274 0 0)
(65.6913 0 0)
(65.7553 0 0)
(65.8193 0 0)
(65.8833 0 0)
(65.9473 0 0)
(66.0113 0 0)
(66.0753 0 0)
(66.1393 0 0)
(66.2033 0 0)
(66.2673 0 0)
(66.3313 0 0)
(66.3953 0 0)
(66.4593 0 0)
(66.5233 0 0)
(66.5873 0 0)
(66.6512 0 0)
(66.7152 0 0)
(66.7792 0 0)
(66.8432 0 0)
(66.9072 0 0)
(66.9712 0 0)
(67.0352 0 0)
(67.0992 0 0)
(67.1632 0 0)
(67.2272 0 0)
(67.2912 0 0)
(67.3552 0 0)
(67.4192 0 0)
(67.4832 0 0)
(67.5472 0 0)
(67.6112 0 0)
(67.6752 0 0)
(67.7392 0 0)
(67.8031 0 0)
(67.8671 0 0)
(67.9311 0 0)
(67.9951 0 0)
(68.0591 0 0)
(68.1231 0 0)
(68.1871 0 0)
(68.2511 0 0)
(68.3151 0 0)
(68.3791 0 0)
(68.4431 0 0)
(68.5071 0 0)
(68.5711 0 0)
(68.6351 0 0)
(68.6991 0 0)
(68.7631 0 0)
(68.8271 0 0)
(68.8911 0 0)
(68.9551 0 0)
(69.0191 0 0)
(69.0831 0 0)
(69.1471 0 0)
(69.2111 0 0)
(69.2751 0 0)
(69.3391 0 0)
(69.4031 0 0)
(69.467 0 0)
(69.531 0 0)
(69.595 0 0)
(69.659 0 0)
(69.723 0 0)
(69.787 0 0)
(69.851 0 0)
(69.915 0 0)
(69.979 0 0)
(70.043 0 0)
(70.107 0 0)
(70.171 0 0)
(70.235 0 0)
(70.299 0 0)
(70.363 0 0)
(70.427 0 0)
(70.491 0 0)
(70.555 0 0)
(70.619 0 0)
(70.683 0 0)
(70.747 0 0)
(70.811 0 0)
(70.875 0 0)
(70.939 0 0)
(71.003 0 0)
(71.067 0 0)
(71.131 0 0)
(71.195 0 0)
(71.259 0 0)
(71.323 0 0)
(71.387 0 0)
(71.451 0 0)
(71.515 0 0)
(71.579 0 0)
(71.643 0 0)
(71.707 0 0)
(71.771 0 0)
(71.835 0 0)
(71.899 0 0)
(71.963 0 0)
(72.027 0 0)
(72.091 0 0)
(72.155 0 0)
(72.219 0 0)
(72.283 0 0)
(72.347 0 0)
(72.411 0 0)
(72.475 0 0)
(72.539 0 0)
(72.603 0 0)
(72.667 0 0)
(72.731 0 0)
(72.795 0 0)
(72.859 0 0)
(72.923 0 0)
(72.987 0 0)
(73.051 0 0)
(73.115 0 0)
(73.179 0 0)
(73.243 0 0)
(73.307 0 0)
(73.371 0 0)
(73.435 0 0)
(73.499 0 0)
(73.563 0 0)
(73.627 0 0)
(73.691 0 0)
(73.755 0 0)
(73.819 0 0)
(73.883 0 0)
(73.947 0 0)
(74.011 0 0)
(74.075 0 0)
(74.139 0 0)
(74.203 0 0)
(74.267 0 0)
(74.331 0 0)
(74.395 0 0)
(74.459 0 0)
(74.523 0 0)
(74.587 0 0)
(74.651 0 0)
(74.715 0 0)
(74.779 0 0)
(74.843 0 0)
(74.907 0 0)
(74.971 0 0)
(75.035 0 0)
(75.099 0 0)
(75.163 0 0)
(75.227 0 0)
(75.291 0 0)
(75.355 0 0)
(75.419 0 0)
(75.483 0 0)
(75.547 0 0)
(75.611 0 0)
(75.675 0 0)
(75.739 0 0)
(75.803 0 0)
(75.867 0 0)
(75.931 0 0)
(75.995 0 0)
(76.0591 0 0)
(76.1231 0 0)
(76.1871 0 0)
(76.2511 0 0)
(76.3151 0 0)
(76.3791 0 0)
(76.4431 0 0)
(76.5071 0 0)
(76.5711 0 0)
(76.6351 0 0)
(76.6991 0 0)
(76.7631 0 0)
(76.8271 0 0)
(76.8911 0 0)
(76.9551 0 0)
(77.0191 0 0)
(77.0831 0 0)
(77.1471 0 0)
(77.2111 0 0)
(77.2751 0 0)
(77.3391 0 0)
(77.4031 0 0)
(77.4671 0 0)
(77.5311 0 0)
(77.5951 0 0)
(77.6591 0 0)
(77.7231 0 0)
(77.7871 0 0)
(77.8511 0 0)
(77.9152 0 0)
(77.9792 0 0)
(78.0432 0 0)
(78.1072 0 0)
(78.1712 0 0)
(78.2352 0 0)
(78.2992 0 0)
(78.3632 0 0)
(78.4272 0 0)
(78.4912 0 0)
(78.5552 0 0)
(78.6192 0 0)
(78.6832 0 0)
(78.7472 0 0)
(78.8112 0 0)
(78.8752 0 0)
(78.9392 0 0)
(79.0032 0 0)
(79.0672 0 0)
(79.1312 0 0)
(79.1952 0 0)
(79.2593 0 0)
(79.3233 0 0)
(79.3873 0 0)
(79.4513 0 0)
(79.5153 0 0)
(79.5793 0 0)
(79.6433 0 0)
(79.7073 0 0)
(79.7713 0 0)
(79.8353 0 0)
(79.8993 0 0)
(79.9633 0 0)
(80.0273 0 0)
(80.0913 0 0)
(80.1553 0 0)
(80.2193 0 0)
(80.2833 0 0)
(80.3473 0 0)
(80.4114 0 0)
(80.4754 0 0)
(80.5394 0 0)
(80.6034 0 0)
(80.6674 0 0)
(80.7314 0 0)
(80.7954 0 0)
(80.8594 0 0)
(80.9234 0 0)
(80.9874 0 0)
(81.0514 0 0)
(81.1154 0 0)
(81.1794 0 0)
(81.2434 0 0)
(81.3074 0 0)
(81.3714 0 0)
(81.4354 0 0)
(81.4995 0 0)
(81.5635 0 0)
(81.6275 0 0)
(81.6915 0 0)
(81.7555 0 0)
(81.8195 0 0)
(81.8835 0 0)
(81.9475 0 0)
(82.0115 0 0)
(82.0755 0 0)
(82.1395 0 0)
(82.2035 0 0)
(82.2675 0 0)
(82.3315 0 0)
(82.3956 0 0)
(82.4596 0 0)
(82.5236 0 0)
(82.5876 0 0)
(82.6516 0 0)
(82.7156 0 0)
(82.7796 0 0)
(82.8436 0 0)
(82.9076 0 0)
(82.9716 0 0)
(83.0356 0 0)
(83.0996 0 0)
(83.1636 0 0)
(83.2276 0 0)
(83.2917 0 0)
(83.3557 0 0)
(83.4197 0 0)
(83.4837 0 0)
(83.5477 0 0)
(83.6117 0 0)
(83.6757 0 0)
(83.7397 0 0)
(83.8037 0 0)
(83.8677 0 0)
(83.9317 0 0)
(83.9957 0 0)
(84.0597 0 0)
(84.1238 0 0)
(84.1878 0 0)
(84.2518 0 0)
(84.3158 0 0)
(84.3798 0 0)
(84.4438 0 0)
(84.5078 0 0)
(84.5718 0 0)
(84.6358 0 0)
(84.6998 0 0)
(84.7638 0 0)
(84.8278 0 0)
(84.8919 0 0)
(84.9559 0 0)
(85.0199 0 0)
(85.0839 0 0)
(85.1479 0 0)
(85.2119 0 0)
(85.2759 0 0)
(85.3399 0 0)
(85.4039 0 0)
(85.4679 0 0)
(85.5319 0 0)
(85.596 0 0)
(85.66 0 0)
(85.724 0 0)
(85.788 0 0)
(85.852 0 0)
(85.916 0 0)
(85.98 0 0)
(86.044 0 0)
(86.108 0 0)
(86.172 0 0)
(86.236 0 0)
(86.3001 0 0)
(86.3641 0 0)
(86.4281 0 0)
(86.4921 0 0)
(86.5561 0 0)
(86.6201 0 0)
(86.6841 0 0)
(86.7481 0 0)
(86.8121 0 0)
(86.8761 0 0)
(86.9401 0 0)
(87.0042 0 0)
(87.0682 0 0)
(87.1322 0 0)
(87.1962 0 0)
(87.2602 0 0)
(87.3242 0 0)
(87.3882 0 0)
(87.4522 0 0)
(87.5162 0 0)
(87.5802 0 0)
(87.6443 0 0)
(87.7083 0 0)
(87.7723 0 0)
(87.8363 0 0)
(87.9003 0 0)
(87.9643 0 0)
(88.0283 0 0)
(88.0923 0 0)
(88.1563 0 0)
(88.2203 0 0)
(88.2844 0 0)
(88.3484 0 0)
(88.4124 0 0)
(88.4764 0 0)
(88.5404 0 0)
(88.6044 0 0)
(88.6684 0 0)
(88.7324 0 0)
(88.7964 0 0)
(88.8604 0 0)
(88.9245 0 0)
(88.9885 0 0)
(89.0525 0 0)
(89.1165 0 0)
(89.1805 0 0)
(89.2445 0 0)
(89.3085 0 0)
(89.3725 0 0)
(89.4365 0 0)
(89.5005 0 0)
(89.5646 0 0)
(89.6286 0 0)
(89.6926 0 0)
(89.7566 0 0)
(89.8206 0 0)
(89.8846 0 0)
(89.9486 0 0)
(90.0126 0 0)
(90.0766 0 0)
(90.1407 0 0)
(90.2047 0 0)
(90.2687 0 0)
(90.3327 0 0)
(90.3967 0 0)
(90.4607 0 0)
(90.5247 0 0)
(90.5887 0 0)
(90.6527 0 0)
(90.7168 0 0)
(90.7808 0 0)
(90.8448 0 0)
(90.9088 0 0)
(90.9728 0 0)
(91.0368 0 0)
(91.1008 0 0)
(91.1648 0 0)
(91.2288 0 0)
(91.2929 0 0)
(91.3569 0 0)
(91.4209 0 0)
(91.4849 0 0)
(91.5489 0 0)
(91.6129 0 0)
(91.6769 0 0)
(91.7409 0 0)
(91.805 0 0)
(91.869 0 0)
(91.933 0 0)
(91.997 0 0)
(92.061 0 0)
(92.125 0 0)
(92.189 0 0)
(92.253 0 0)
(92.317 0 0)
(92.3811 0 0)
(92.4451 0 0)
(92.5091 0 0)
(92.5731 0 0)
(92.6371 0 0)
(92.7011 0 0)
(92.7651 0 0)
(92.8291 0 0)
(92.8932 0 0)
(92.9572 0 0)
(93.0212 0 0)
(93.0852 0 0)
(93.1492 0 0)
(93.2132 0 0)
(93.2772 0 0)
(93.3412 0 0)
(93.4052 0 0)
(93.4693 0 0)
(93.5333 0 0)
(93.5973 0 0)
(93.6613 0 0)
(93.7253 0 0)
(93.7893 0 0)
(93.8533 0 0)
(93.9173 0 0)
(93.9814 0 0)
(94.0454 0 0)
(94.1094 0 0)
(94.1734 0 0)
(94.2374 0 0)
(94.3014 0 0)
(94.3654 0 0)
(94.4294 0 0)
(94.4935 0 0)
(94.5575 0 0)
(94.6215 0 0)
(94.6855 0 0)
(94.7495 0 0)
(94.8135 0 0)
(94.8775 0 0)
(94.9415 0 0)
(95.0056 0 0)
(95.0696 0 0)
(95.1336 0 0)
(95.1976 0 0)
(95.2616 0 0)
(95.3256 0 0)
(95.3896 0 0)
(95.4537 0 0)
(95.5177 0 0)
(95.5817 0 0)
(95.6457 0 0)
(95.7097 0 0)
(95.7737 0 0)
(95.8377 0 0)
(95.9017 0 0)
(95.9658 0 0)
(96.0298 0 0)
(96.0938 0 0)
(96.1578 0 0)
(96.2218 0 0)
(96.2858 0 0)
(96.3498 0 0)
(96.4138 0 0)
(96.4779 0 0)
(96.5419 0 0)
(96.6059 0 0)
(96.6699 0 0)
(96.7339 0 0)
(96.7979 0 0)
(96.8619 0 0)
(96.926 0 0)
(96.99 0 0)
(97.054 0 0)
(97.118 0 0)
(97.182 0 0)
(97.246 0 0)
(97.31 0 0)
(97.374 0 0)
(97.4381 0 0)
(97.5021 0 0)
(97.5661 0 0)
(97.6301 0 0)
(97.6941 0 0)
(97.7581 0 0)
(97.8221 0 0)
(97.8862 0 0)
(97.9502 0 0)
(98.0142 0 0)
(98.0782 0 0)
(98.1422 0 0)
(98.2062 0 0)
(98.2702 0 0)
(98.3342 0 0)
(98.3983 0 0)
(98.4623 0 0)
(98.5263 0 0)
(98.5903 0 0)
(98.6543 0 0)
(98.7183 0 0)
(98.7823 0 0)
(98.8464 0 0)
(98.9104 0 0)
(98.9744 0 0)
(99.0384 0 0)
(99.1024 0 0)
(99.1664 0 0)
(99.2304 0 0)
(99.2945 0 0)
(99.3585 0 0)
(99.4225 0 0)
(99.4865 0 0)
(99.5505 0 0)
(99.6145 0 0)
(99.6785 0 0)
(99.7426 0 0)
(99.8066 0 0)
(99.8706 0 0)
(99.9346 0 0)
(99.9986 0 0)
(100.063 0 0)
(100.127 0 0)
(100.191 0 0)
(100.255 0 0)
(100.319 0 0)
(100.383 0 0)
(100.447 0 0)
(100.511 0 0)
(100.575 0 0)
(100.639 0 0)
(100.703 0 0)
(100.767 0 0)
(100.831 0 0)
(100.895 0 0)
(100.959 0 0)
(101.023 0 0)
(101.087 0 0)
(101.151 0 0)
(101.215 0 0)
(101.279 0 0)
(101.343 0 0)
(101.407 0 0)
(101.471 0 0)
(101.535 0 0)
(101.599 0 0)
(101.663 0 0)
(101.727 0 0)
(101.791 0 0)
(101.855 0 0)
(101.919 0 0)
(101.983 0 0)
(102.047 0 0)
(102.111 0 0)
(102.175 0 0)
(102.239 0 0)
(102.303 0 0)
(102.367 0 0)
(102.431 0 0)
(102.495 0 0)
(102.559 0 0)
(102.623 0 0)
(102.687 0 0)
(102.751 0 0)
(102.815 0 0)
(102.879 0 0)
(102.943 0 0)
(103.007 0 0)
(103.071 0 0)
(103.135 0 0)
(103.199 0 0)
(103.263 0 0)
(103.327 0 0)
(103.391 0 0)
(103.455 0 0)
(103.519 0 0)
(103.583 0 0)
(103.647 0 0)
(103.711 0 0)
(103.775 0 0)
(103.839 0 0)
(103.904 0 0)
(103.968 0 0)
(104.032 0 0)
(104.096 0 0)
(104.16 0 0)
(104.224 0 0)
(104.288 0 0)
(104.352 0 0)
(104.416 0 0)
(104.48 0 0)
(104.544 0 0)
(104.608 0 0)
(104.672 0 0)
(104.736 0 0)
(104.8 0 0)
(104.864 0 0)
(104.928 0 0)
(104.992 0 0)
(105.056 0 0)
(105.12 0 0)
(105.184 0 0)
(105.248 0 0)
(105.312 0 0)
(105.376 0 0)
(105.44 0 0)
(105.504 0 0)
(105.568 0 0)
(105.632 0 0)
(105.696 0 0)
(105.76 0 0)
(105.824 0 0)
(105.888 0 0)
(105.952 0 0)
(106.016 0 0)
(106.08 0 0)
(106.144 0 0)
(106.208 0 0)
(106.272 0 0)
(106.336 0 0)
(106.4 0 0)
(106.464 0 0)
(106.528 0 0)
(106.592 0 0)
(106.656 0 0)
(106.72 0 0)
(106.784 0 0)
(106.848 0 0)
(106.912 0 0)
(106.976 0 0)
(107.04 0 0)
(107.104 0 0)
(107.168 0 0)
(107.232 0 0)
(107.296 0 0)
(107.36 0 0)
(107.424 0 0)
(107.488 0 0)
(107.552 0 0)
(107.616 0 0)
(107.68 0 0)
(107.744 0 0)
(107.808 0 0)
(107.872 0 0)
(107.936 0 0)
(108 0 0)
(108.065 0 0)
(108.129 0 0)
(108.193 0 0)
(108.257 0 0)
(108.321 0 0)
(108.385 0 0)
(108.449 0 0)
(108.513 0 0)
(108.577 0 0)
(108.641 0 0)
(108.705 0 0)
(108.769 0 0)
(108.833 0 0)
(108.897 0 0)
(108.961 0 0)
(109.025 0 0)
(109.089 0 0)
(109.153 0 0)
(109.217 0 0)
(109.281 0 0)
(109.345 0 0)
(109.409 0 0)
(109.473 0 0)
(109.537 0 0)
(109.601 0 0)
(109.665 0 0)
(109.729 0 0)
(109.793 0 0)
(109.857 0 0)
(109.921 0 0)
(109.985 0 0)
(110.049 0 0)
(110.113 0 0)
(110.177 0 0)
(110.241 0 0)
(110.305 0 0)
(110.369 0 0)
(110.433 0 0)
(110.497 0 0)
(110.561 0 0)
(110.625 0 0)
(110.689 0 0)
(110.753 0 0)
(110.817 0 0)
(110.881 0 0)
(110.945 0 0)
(111.009 0 0)
(111.073 0 0)
(111.137 0 0)
(111.201 0 0)
(111.265 0 0)
(111.329 0 0)
(111.393 0 0)
(111.457 0 0)
(111.521 0 0)
(111.585 0 0)
(111.649 0 0)
(111.713 0 0)
(111.777 0 0)
(111.841 0 0)
(111.905 0 0)
(111.969 0 0)
(112.033 0 0)
(112.098 0 0)
(112.162 0 0)
(112.226 0 0)
(112.29 0 0)
(112.354 0 0)
(112.418 0 0)
(112.482 0 0)
(112.546 0 0)
(112.61 0 0)
(112.674 0 0)
(112.738 0 0)
(112.802 0 0)
(112.866 0 0)
(112.93 0 0)
(112.994 0 0)
(113.058 0 0)
(113.122 0 0)
(113.186 0 0)
(113.25 0 0)
(113.314 0 0)
(113.378 0 0)
(113.442 0 0)
(113.506 0 0)
(113.57 0 0)
(113.634 0 0)
(113.698 0 0)
(113.762 0 0)
(113.826 0 0)
(113.89 0 0)
(113.954 0 0)
(114.018 0 0)
(114.082 0 0)
(114.146 0 0)
(114.21 0 0)
(114.274 0 0)
(114.338 0 0)
(114.402 0 0)
(114.466 0 0)
(114.53 0 0)
(114.594 0 0)
(114.658 0 0)
(114.722 0 0)
(114.786 0 0)
(114.85 0 0)
(114.914 0 0)
(114.978 0 0)
(115.042 0 0)
(115.106 0 0)
(115.17 0 0)
(115.234 0 0)
(115.298 0 0)
(115.362 0 0)
(115.426 0 0)
(115.49 0 0)
(115.554 0 0)
(115.618 0 0)
(115.682 0 0)
(115.746 0 0)
(115.81 0 0)
(115.874 0 0)
(115.938 0 0)
(116.002 0 0)
(116.067 0 0)
(116.131 0 0)
(116.195 0 0)
(116.259 0 0)
(116.323 0 0)
(116.387 0 0)
(116.451 0 0)
(116.515 0 0)
(116.579 0 0)
(116.643 0 0)
(116.707 0 0)
(116.771 0 0)
(116.835 0 0)
(116.899 0 0)
(116.963 0 0)
(117.027 0 0)
(117.091 0 0)
(117.155 0 0)
(117.219 0 0)
(117.283 0 0)
(117.347 0 0)
(117.411 0 0)
(117.475 0 0)
(117.539 0 0)
(117.603 0 0)
(117.667 0 0)
(117.731 0 0)
(117.795 0 0)
(117.859 0 0)
(117.923 0 0)
(117.987 0 0)
(118.051 0 0)
(118.115 0 0)
(118.179 0 0)
(118.243 0 0)
(118.307 0 0)
(118.371 0 0)
(118.435 0 0)
(118.499 0 0)
(118.563 0 0)
(118.627 0 0)
(118.691 0 0)
(118.755 0 0)
(118.819 0 0)
(118.883 0 0)
(118.947 0 0)
(119.011 0 0)
(119.075 0 0)
(119.139 0 0)
(119.203 0 0)
(119.267 0 0)
(119.331 0 0)
(119.395 0 0)
(119.459 0 0)
(119.523 0 0)
(119.587 0 0)
(119.651 0 0)
(119.715 0 0)
(119.779 0 0)
(119.843 0 0)
(119.907 0 0)
(119.972 0 0)
(120.036 0 0)
(120.1 0 0)
(120.164 0 0)
(120.228 0 0)
(120.292 0 0)
(120.356 0 0)
(120.42 0 0)
(120.484 0 0)
(120.548 0 0)
(120.612 0 0)
(120.676 0 0)
(120.74 0 0)
(120.804 0 0)
(120.868 0 0)
(120.932 0 0)
(120.996 0 0)
(121.06 0 0)
(121.124 0 0)
(121.188 0 0)
(121.252 0 0)
(121.316 0 0)
(121.38 0 0)
(121.444 0 0)
(121.508 0 0)
(121.572 0 0)
(121.636 0 0)
(121.7 0 0)
(121.764 0 0)
(121.828 0 0)
(121.892 0 0)
(121.956 0 0)
(122.02 0 0)
(122.084 0 0)
(122.148 0 0)
(122.212 0 0)
(122.276 0 0)
(122.34 0 0)
(122.404 0 0)
(122.468 0 0)
(122.532 0 0)
(122.596 0 0)
(122.66 0 0)
(122.724 0 0)
(122.788 0 0)
(122.852 0 0)
(122.916 0 0)
(122.98 0 0)
(123.044 0 0)
(123.108 0 0)
(123.172 0 0)
(123.236 0 0)
(123.3 0 0)
(123.364 0 0)
(123.428 0 0)
(123.492 0 0)
(123.556 0 0)
(123.62 0 0)
(123.684 0 0)
(123.748 0 0)
(123.812 0 0)
(123.877 0 0)
(123.941 0 0)
(124.005 0 0)
(124.069 0 0)
(124.133 0 0)
(124.197 0 0)
(124.261 0 0)
(124.325 0 0)
(124.389 0 0)
(124.453 0 0)
(124.517 0 0)
(124.581 0 0)
(124.645 0 0)
(124.709 0 0)
(124.773 0 0)
(124.837 0 0)
(124.901 0 0)
(124.965 0 0)
(125.029 0 0)
(125.093 0 0)
(125.157 0 0)
(125.221 0 0)
(125.285 0 0)
(125.349 0 0)
(125.413 0 0)
(125.477 0 0)
(125.541 0 0)
(125.605 0 0)