/*--------------------------------*- C++ -*----------------------------------*\
  =========                 |
  \\      /  F ield         | OpenFOAM: The Open Source CFD Toolbox
   \\    /   O peration     | Website:  https://openfoam.org
    \\  /    A nd           | Version:  9
     \\/     M anipulation  |
\*---------------------------------------------------------------------------*/
FoamFile
{
    format      ascii;
    class       volVectorField;
    location    "0.047";
    object      U;
}
// * * * * * * * * * * * * * * * * * * * * * * * * * * * * * * * * * * * * * //

dimensions      [0 1 -1 0 0 0 0];

internalField   nonuniform List<vector> 
100
(
(51.0797 0 0)
(52.62 0 0)
(55.3077 0 0)
(57.7944 0 0)
(59.7586 0 0)
(61.6112 0 0)
(63.4971 0 0)
(65.4079 0 0)
(67.3149 0 0)
(69.2027 0 0)
(71.074 0 0)
(72.9357 0 0)
(74.786 0 0)
(76.6236 0 0)
(78.4476 0 0)
(80.2567 0 0)
(82.0529 0 0)
(83.8357 0 0)
(85.6009 0 0)
(87.3486 0 0)
(89.0792 0 0)
(90.7904 0 0)
(92.4931 0 0)
(94.1999 0 0)
(95.9076 0 0)
(97.6026 0 0)
(99.2557 0 0)
(100.816 0 0)
(102.231 0 0)
(103.549 0 0)
(104.835 0 0)
(106.101 0 0)
(107.357 0 0)
(108.598 0 0)
(109.821 0 0)
(111.018 0 0)
(112.184 0 0)
(113.32 0 0)
(114.43 0 0)
(115.514 0 0)
(116.574 0 0)
(117.613 0 0)
(118.629 0 0)
(119.623 0 0)
(120.602 0 0)
(121.568 0 0)
(122.522 0 0)
(123.467 0 0)
(124.407 0 0)
(125.339 0 0)
(126.259 0 0)
(127.172 0 0)
(128.083 0 0)
(128.991 0 0)
(129.894 0 0)
(130.793 0 0)
(131.691 0 0)
(132.585 0 0)
(133.473 0 0)
(134.361 0 0)
(135.249 0 0)
(136.141 0 0)
(137.033 0 0)
(137.93 0 0)
(138.829 0 0)
(139.731 0 0)
(140.642 0 0)
(141.559 0 0)
(142.488 0 0)
(143.43 0 0)
(144.381 0 0)
(145.336 0 0)
(146.298 0 0)
(147.266 0 0)
(148.242 0 0)
(149.22 0 0)
(150.196 0 0)
(151.159 0 0)
(152.103 0 0)
(153.018 0 0)
(153.901 0 0)
(154.75 0 0)
(155.562 0 0)
(156.326 0 0)
(157.043 0 0)
(157.718 0 0)
(158.367 0 0)
(158.999 0 0)
(159.633 0 0)
(160.291 0 0)
(160.994 0 0)
(161.742 0 0)
(162.545 0 0)
(163.404 0 0)
(164.325 0 0)
(165.293 0 0)
(166.315 0 0)
(167.378 0 0)
(168.455 0 0)
(170.503 0 0)
)
;

boundaryField
{
    sides
    {
        type            zeroGradient;
    }
    empty
    {
        type            empty;
    }
}


// ************************************************************************* //
