/*--------------------------------*- C++ -*----------------------------------*\
  =========                 |
  \\      /  F ield         | OpenFOAM: The Open Source CFD Toolbox
   \\    /   O peration     | Website:  https://openfoam.org
    \\  /    A nd           | Version:  9
     \\/     M anipulation  |
\*---------------------------------------------------------------------------*/
FoamFile
{
    format      ascii;
    class       volScalarField;
    location    "0.045";
    object      mag(U);
}
// * * * * * * * * * * * * * * * * * * * * * * * * * * * * * * * * * * * * * //

dimensions      [0 1 -1 0 0 0 0];

internalField   nonuniform List<scalar> 
100
(
50.4899
52.2197
55.1289
57.7691
59.8869
61.9057
63.9676
66.0532
68.1259
70.1784
72.2208
74.2538
76.2721
78.277
80.2703
82.2506
84.2168
86.1688
88.1075
90.0314
91.9393
93.8253
95.6873
97.5331
99.3661
101.197
103.033
104.862
106.669
108.422
110.056
111.553
112.974
114.363
115.731
117.081
118.413
119.722
121.003
122.253
123.473
124.658
125.811
126.939
128.043
129.125
130.189
131.238
132.27
133.287
134.297
135.301
136.297
137.284
138.267
139.245
140.215
141.18
142.143
143.105
144.064
145.02
145.972
146.922
147.872
148.827
149.787
150.755
151.725
152.697
153.677
154.667
155.672
156.688
157.713
158.74
159.773
160.808
161.845
162.882
163.911
164.92
165.896
166.828
167.721
168.566
169.359
170.109
170.82
171.505
172.181
172.866
173.589
174.358
175.187
176.081
177.041
178.058
179.112
181.199
)
;

boundaryField
{
    sides
    {
        type            calculated;
        value           nonuniform List<scalar> 2(181.199 50.4899);
    }
    empty
    {
        type            empty;
    }
}


// ************************************************************************* //
