/*--------------------------------*- C++ -*----------------------------------*\
  =========                 |
  \\      /  F ield         | OpenFOAM: The Open Source CFD Toolbox
   \\    /   O peration     | Website:  https://openfoam.org
    \\  /    A nd           | Version:  9
     \\/     M anipulation  |
\*---------------------------------------------------------------------------*/
FoamFile
{
    format      ascii;
    class       volScalarField;
    location    "0.019";
    object      T;
}
// * * * * * * * * * * * * * * * * * * * * * * * * * * * * * * * * * * * * * //

dimensions      [0 0 0 1 0 0 0];

internalField   nonuniform List<scalar> 
100
(
287.28
287.148
286.878
286.465
286.051
285.643
285.239
284.837
284.434
284.029
283.62
283.206
282.79
282.356
281.945
281.442
281.102
280.446
280.151
279.483
279.106
278.457
277.772
277.407
276.562
275.717
275.259
274.308
273.139
272.452
271.593
270.244
269.087
268.292
267.231
265.801
264.578
263.735
262.779
261.453
260.144
259.228
258.507
257.548
256.318
255.204
254.503
254.022
253.323
252.303
251.37
250.889
250.708
250.439
249.853
249.208
248.836
248.778
248.81
248.799
248.698
248.451
248.347
248.356
248.412
248.53
248.578
248.578
248.559
248.549
248.554
248.601
248.705
248.774
248.813
248.834
248.852
248.882
248.978
249.135
249.286
249.411
249.489
249.54
249.634
249.825
249.964
250.036
250.155
250.249
250.392
250.61
250.894
251.166
251.35
251.458
251.512
251.557
251.659
253.548
)
;

boundaryField
{
    sides
    {
        type            zeroGradient;
    }
    empty
    {
        type            empty;
    }
}


// ************************************************************************* //
