/*--------------------------------*- C++ -*----------------------------------*\
  =========                 |
  \\      /  F ield         | OpenFOAM: The Open Source CFD Toolbox
   \\    /   O peration     | Website:  https://openfoam.org
    \\  /    A nd           | Version:  9
     \\/     M anipulation  |
\*---------------------------------------------------------------------------*/
FoamFile
{
    format      ascii;
    class       volVectorField;
    location    "0.035";
    object      U;
}
// * * * * * * * * * * * * * * * * * * * * * * * * * * * * * * * * * * * * * //

dimensions      [0 1 -1 0 0 0 0];

internalField   nonuniform List<vector> 
10000
(
(198.484 0 0)
(198.521 0 0)
(198.543 0 0)
(198.567 0 0)
(198.59 0 0)
(198.614 0 0)
(198.637 0 0)
(198.661 0 0)
(198.684 0 0)
(198.707 0 0)
(198.731 0 0)
(198.754 0 0)
(198.778 0 0)
(198.801 0 0)
(198.825 0 0)
(198.848 0 0)
(198.872 0 0)
(198.895 0 0)
(198.919 0 0)
(198.942 0 0)
(198.966 0 0)
(198.989 0 0)
(199.013 0 0)
(199.036 0 0)
(199.059 0 0)
(199.083 0 0)
(199.106 0 0)
(199.13 0 0)
(199.153 0 0)
(199.177 0 0)
(199.201 0 0)
(199.224 0 0)
(199.248 0 0)
(199.271 0 0)
(199.295 0 0)
(199.318 0 0)
(199.342 0 0)
(199.365 0 0)
(199.389 0 0)
(199.412 0 0)
(199.436 0 0)
(199.459 0 0)
(199.482 0 0)
(199.506 0 0)
(199.529 0 0)
(199.553 0 0)
(199.576 0 0)
(199.599 0 0)
(199.623 0 0)
(199.646 0 0)
(199.67 0 0)
(199.693 0 0)
(199.717 0 0)
(199.74 0 0)
(199.764 0 0)
(199.787 0 0)
(199.811 0 0)
(199.834 0 0)
(199.858 0 0)
(199.881 0 0)
(199.905 0 0)
(199.928 0 0)
(199.952 0 0)
(199.975 0 0)
(199.999 0 0)
(200.022 0 0)
(200.046 0 0)
(200.069 0 0)
(200.093 0 0)
(200.116 0 0)
(200.139 0 0)
(200.163 0 0)
(200.186 0 0)
(200.209 0 0)
(200.233 0 0)
(200.256 0 0)
(200.279 0 0)
(200.303 0 0)
(200.326 0 0)
(200.35 0 0)
(200.373 0 0)
(200.397 0 0)
(200.42 0 0)
(200.444 0 0)
(200.467 0 0)
(200.49 0 0)
(200.514 0 0)
(200.537 0 0)
(200.561 0 0)
(200.584 0 0)
(200.608 0 0)
(200.631 0 0)
(200.654 0 0)
(200.678 0 0)
(200.701 0 0)
(200.725 0 0)
(200.748 0 0)
(200.772 0 0)
(200.795 0 0)
(200.819 0 0)
(200.842 0 0)
(200.866 0 0)
(200.889 0 0)
(200.912 0 0)
(200.936 0 0)
(200.959 0 0)
(200.983 0 0)
(201.006 0 0)
(201.03 0 0)
(201.053 0 0)
(201.076 0 0)
(201.1 0 0)
(201.124 0 0)
(201.147 0 0)
(201.171 0 0)
(201.194 0 0)
(201.217 0 0)
(201.24 0 0)
(201.264 0 0)
(201.288 0 0)
(201.311 0 0)
(201.335 0 0)
(201.359 0 0)
(201.382 0 0)
(201.405 0 0)
(201.428 0 0)
(201.452 0 0)
(201.476 0 0)
(201.499 0 0)
(201.523 0 0)
(201.546 0 0)
(201.569 0 0)
(201.593 0 0)
(201.616 0 0)
(201.639 0 0)
(201.663 0 0)
(201.686 0 0)
(201.71 0 0)
(201.734 0 0)
(201.758 0 0)
(201.782 0 0)
(201.805 0 0)
(201.827 0 0)
(201.849 0 0)
(201.872 0 0)
(201.896 0 0)
(201.922 0 0)
(201.947 0 0)
(201.971 0 0)
(201.994 0 0)
(202.015 0 0)
(202.037 0 0)
(202.059 0 0)
(202.082 0 0)
(202.107 0 0)
(202.132 0 0)
(202.158 0 0)
(202.182 0 0)
(202.204 0 0)
(202.226 0 0)
(202.248 0 0)
(202.27 0 0)
(202.294 0 0)
(202.319 0 0)
(202.344 0 0)
(202.368 0 0)
(202.391 0 0)
(202.413 0 0)
(202.437 0 0)
(202.46 0 0)
(202.483 0 0)
(202.506 0 0)
(202.529 0 0)
(202.552 0 0)
(202.579 0 0)
(202.606 0 0)
(202.629 0 0)
(202.65 0 0)
(202.669 0 0)
(202.689 0 0)
(202.711 0 0)
(202.737 0 0)
(202.77 0 0)
(202.798 0 0)
(202.818 0 0)
(202.837 0 0)
(202.856 0 0)
(202.875 0 0)
(202.896 0 0)
(202.92 0 0)
(202.951 0 0)
(202.983 0 0)
(203.007 0 0)
(203.027 0 0)
(203.046 0 0)
(203.066 0 0)
(203.087 0 0)
(203.109 0 0)
(203.135 0 0)
(203.164 0 0)
(203.194 0 0)
(203.217 0 0)
(203.237 0 0)
(203.257 0 0)
(203.277 0 0)
(203.298 0 0)
(203.322 0 0)
(203.35 0 0)
(203.376 0 0)
(203.398 0 0)
(203.42 0 0)
(203.444 0 0)
(203.47 0 0)
(203.495 0 0)
(203.516 0 0)
(203.537 0 0)
(203.558 0 0)
(203.583 0 0)
(203.613 0 0)
(203.638 0 0)
(203.658 0 0)
(203.677 0 0)
(203.698 0 0)
(203.725 0 0)
(203.759 0 0)
(203.784 0 0)
(203.803 0 0)
(203.82 0 0)
(203.838 0 0)
(203.857 0 0)
(203.878 0 0)
(203.911 0 0)
(203.948 0 0)
(203.971 0 0)
(203.988 0 0)
(204.006 0 0)
(204.025 0 0)
(204.047 0 0)
(204.08 0 0)
(204.11 0 0)
(204.13 0 0)
(204.148 0 0)
(204.166 0 0)
(204.185 0 0)
(204.21 0 0)
(204.246 0 0)
(204.277 0 0)
(204.296 0 0)
(204.313 0 0)
(204.331 0 0)
(204.35 0 0)
(204.372 0 0)
(204.405 0 0)
(204.441 0 0)
(204.462 0 0)
(204.48 0 0)
(204.497 0 0)
(204.515 0 0)
(204.535 0 0)
(204.565 0 0)
(204.605 0 0)
(204.633 0 0)
(204.651 0 0)
(204.667 0 0)
(204.684 0 0)
(204.702 0 0)
(204.721 0 0)
(204.751 0 0)
(204.793 0 0)
(204.822 0 0)
(204.84 0 0)
(204.855 0 0)
(204.87 0 0)
(204.888 0 0)
(204.906 0 0)
(204.929 0 0)
(204.967 0 0)
(205.009 0 0)
(205.032 0 0)
(205.048 0 0)
(205.062 0 0)
(205.078 0 0)
(205.097 0 0)
(205.116 0 0)
(205.148 0 0)
(205.19 0 0)
(205.218 0 0)
(205.236 0 0)
(205.252 0 0)
(205.27 0 0)
(205.288 0 0)
(205.31 0 0)
(205.344 0 0)
(205.378 0 0)
(205.399 0 0)
(205.416 0 0)
(205.433 0 0)
(205.451 0 0)
(205.47 0 0)
(205.495 0 0)
(205.534 0 0)
(205.569 0 0)
(205.589 0 0)
(205.607 0 0)
(205.624 0 0)
(205.643 0 0)
(205.663 0 0)
(205.685 0 0)
(205.712 0 0)
(205.744 0 0)
(205.78 0 0)
(205.809 0 0)
(205.828 0 0)
(205.846 0 0)
(205.864 0 0)
(205.882 0 0)
(205.9 0 0)
(205.92 0 0)
(205.948 0 0)
(205.986 0 0)
(206.014 0 0)
(206.032 0 0)
(206.05 0 0)
(206.068 0 0)
(206.088 0 0)
(206.115 0 0)
(206.15 0 0)
(206.176 0 0)
(206.194 0 0)
(206.212 0 0)
(206.23 0 0)
(206.249 0 0)
(206.272 0 0)
(206.308 0 0)
(206.343 0 0)
(206.364 0 0)
(206.381 0 0)
(206.397 0 0)
(206.414 0 0)
(206.433 0 0)
(206.455 0 0)
(206.492 0 0)
(206.531 0 0)
(206.553 0 0)
(206.57 0 0)
(206.583 0 0)
(206.598 0 0)
(206.616 0 0)
(206.635 0 0)
(206.664 0 0)
(206.711 0 0)
(206.756 0 0)
(206.778 0 0)
(206.793 0 0)
(206.805 0 0)
(206.821 0 0)
(206.84 0 0)
(206.861 0 0)
(206.893 0 0)
(206.929 0 0)
(206.951 0 0)
(206.969 0 0)
(206.986 0 0)
(207.003 0 0)
(207.021 0 0)
(207.042 0 0)
(207.076 0 0)
(207.117 0 0)
(207.141 0 0)
(207.159 0 0)
(207.175 0 0)
(207.192 0 0)
(207.211 0 0)
(207.232 0 0)
(207.266 0 0)
(207.303 0 0)
(207.326 0 0)
(207.343 0 0)
(207.361 0 0)
(207.379 0 0)
(207.4 0 0)
(207.429 0 0)
(207.465 0 0)
(207.489 0 0)
(207.507 0 0)
(207.525 0 0)
(207.544 0 0)
(207.564 0 0)
(207.593 0 0)
(207.631 0 0)
(207.656 0 0)
(207.674 0 0)
(207.691 0 0)
(207.708 0 0)
(207.726 0 0)
(207.746 0 0)
(207.777 0 0)
(207.818 0 0)
(207.847 0 0)
(207.865 0 0)
(207.881 0 0)
(207.897 0 0)
(207.916 0 0)
(207.935 0 0)
(207.964 0 0)
(208.004 0 0)
(208.033 0 0)
(208.052 0 0)
(208.07 0 0)
(208.088 0 0)
(208.108 0 0)
(208.135 0 0)
(208.164 0 0)
(208.186 0 0)
(208.204 0 0)
(208.222 0 0)
(208.241 0 0)
(208.26 0 0)
(208.29 0 0)
(208.334 0 0)
(208.368 0 0)
(208.386 0 0)
(208.401 0 0)
(208.413 0 0)
(208.43 0 0)
(208.449 0 0)
(208.471 0 0)
(208.509 0 0)
(208.554 0 0)
(208.578 0 0)
(208.595 0 0)
(208.609 0 0)
(208.625 0 0)
(208.643 0 0)
(208.664 0 0)
(208.695 0 0)
(208.735 0 0)
(208.762 0 0)
(208.78 0 0)
(208.798 0 0)
(208.817 0 0)
(208.838 0 0)
(208.864 0 0)
(208.887 0 0)
(208.906 0 0)
(208.924 0 0)
(208.943 0 0)
(208.962 0 0)
(208.991 0 0)
(209.036 0 0)
(209.072 0 0)
(209.092 0 0)
(209.106 0 0)
(209.117 0 0)
(209.132 0 0)
(209.151 0 0)
(209.171 0 0)
(209.206 0 0)
(209.253 0 0)
(209.284 0 0)
(209.301 0 0)
(209.313 0 0)
(209.32 0 0)
(209.334 0 0)
(209.353 0 0)
(209.372 0 0)
(209.402 0 0)
(209.454 0 0)
(209.507 0 0)
(209.533 0 0)
(209.55 0 0)
(209.56 0 0)
(209.568 0 0)
(209.584 0 0)
(209.602 0 0)
(209.622 0 0)
(209.65 0 0)
(209.691 0 0)
(209.723 0 0)
(209.741 0 0)
(209.757 0 0)
(209.77 0 0)
(209.786 0 0)
(209.804 0 0)
(209.824 0 0)
(209.856 0 0)
(209.905 0 0)
(209.942 0 0)
(209.961 0 0)
(209.976 0 0)
(209.988 0 0)
(210.005 0 0)
(210.023 0 0)
(210.046 0 0)
(210.084 0 0)
(210.126 0 0)
(210.149 0 0)
(210.166 0 0)
(210.182 0 0)
(210.199 0 0)
(210.218 0 0)
(210.24 0 0)
(210.272 0 0)
(210.305 0 0)
(210.326 0 0)
(210.344 0 0)
(210.363 0 0)
(210.382 0 0)
(210.408 0 0)
(210.439 0 0)
(210.462 0 0)
(210.481 0 0)
(210.499 0 0)
(210.518 0 0)
(210.537 0 0)
(210.561 0 0)
(210.599 0 0)
(210.637 0 0)
(210.658 0 0)
(210.675 0 0)
(210.691 0 0)
(210.709 0 0)
(210.728 0 0)
(210.75 0 0)
(210.785 0 0)
(210.824 0 0)
(210.847 0 0)
(210.865 0 0)
(210.882 0 0)
(210.901 0 0)
(210.92 0 0)
(210.946 0 0)
(210.977 0 0)
(211.001 0 0)
(211.02 0 0)
(211.039 0 0)
(211.058 0 0)
(211.083 0 0)
(211.118 0 0)
(211.146 0 0)
(211.165 0 0)
(211.183 0 0)
(211.201 0 0)
(211.22 0 0)
(211.239 0 0)
(211.269 0 0)
(211.311 0 0)
(211.341 0 0)
(211.359 0 0)
(211.377 0 0)
(211.394 0 0)
(211.413 0 0)
(211.435 0 0)
(211.464 0 0)
(211.494 0 0)
(211.516 0 0)
(211.534 0 0)
(211.553 0 0)
(211.572 0 0)
(211.596 0 0)
(211.631 0 0)
(211.663 0 0)
(211.683 0 0)
(211.7 0 0)
(211.716 0 0)
(211.733 0 0)
(211.752 0 0)
(211.772 0 0)
(211.805 0 0)
(211.851 0 0)
(211.883 0 0)
(211.901 0 0)
(211.915 0 0)
(211.926 0 0)
(211.942 0 0)
(211.961 0 0)
(211.983 0 0)
(212.023 0 0)
(212.07 0 0)
(212.097 0 0)
(212.114 0 0)
(212.124 0 0)
(212.131 0 0)
(212.148 0 0)
(212.166 0 0)
(212.188 0 0)
(212.229 0 0)
(212.286 0 0)
(212.326 0 0)
(212.345 0 0)
(212.359 0 0)
(212.362 0 0)
(212.368 0 0)
(212.384 0 0)
(212.403 0 0)
(212.424 0 0)
(212.459 0 0)
(212.51 0 0)
(212.547 0 0)
(212.566 0 0)
(212.58 0 0)
(212.586 0 0)
(212.599 0 0)
(212.617 0 0)
(212.636 0 0)
(212.665 0 0)
(212.713 0 0)
(212.76 0 0)
(212.783 0 0)
(212.799 0 0)
(212.807 0 0)
(212.816 0 0)
(212.833 0 0)
(212.851 0 0)
(212.873 0 0)
(212.911 0 0)
(212.96 0 0)
(212.989 0 0)
(213.006 0 0)
(213.018 0 0)
(213.028 0 0)
(213.045 0 0)
(213.064 0 0)
(213.085 0 0)
(213.124 0 0)
(213.176 0 0)
(213.208 0 0)
(213.226 0 0)
(213.238 0 0)
(213.243 0 0)
(213.256 0 0)
(213.273 0 0)
(213.292 0 0)
(213.312 0 0)
(213.343 0 0)
(213.394 0 0)
(213.439 0 0)
(213.461 0 0)
(213.476 0 0)
(213.486 0 0)
(213.497 0 0)
(213.515 0 0)
(213.534 0 0)
(213.556 0 0)
(213.596 0 0)
(213.646 0 0)
(213.675 0 0)
(213.692 0 0)
(213.706 0 0)
(213.721 0 0)
(213.739 0 0)
(213.758 0 0)
(213.78 0 0)
(213.807 0 0)
(213.83 0 0)
(213.849 0 0)
(213.868 0 0)
(213.888 0 0)
(213.909 0 0)
(213.944 0 0)
(213.986 0 0)
(214.01 0 0)
(214.028 0 0)
(214.045 0 0)
(214.062 0 0)
(214.081 0 0)
(214.101 0 0)
(214.129 0 0)
(214.162 0 0)
(214.186 0 0)
(214.204 0 0)
(214.221 0 0)
(214.238 0 0)
(214.256 0 0)
(214.275 0 0)
(214.301 0 0)
(214.346 0 0)
(214.402 0 0)
(214.434 0 0)
(214.453 0 0)
(214.465 0 0)
(214.474 0 0)
(214.489 0 0)
(214.507 0 0)
(214.527 0 0)
(214.554 0 0)
(214.59 0 0)
(214.617 0 0)
(214.636 0 0)
(214.653 0 0)
(214.67 0 0)
(214.689 0 0)
(214.708 0 0)
(214.732 0 0)
(214.772 0 0)
(214.814 0 0)
(214.837 0 0)
(214.854 0 0)
(214.87 0 0)
(214.887 0 0)
(214.906 0 0)
(214.927 0 0)
(214.956 0 0)
(214.987 0 0)
(215.009 0 0)
(215.028 0 0)
(215.047 0 0)
(215.066 0 0)
(215.089 0 0)
(215.123 0 0)
(215.155 0 0)
(215.175 0 0)
(215.193 0 0)
(215.209 0 0)
(215.226 0 0)
(215.244 0 0)
(215.264 0 0)
(215.289 0 0)
(215.334 0 0)
(215.385 0 0)
(215.412 0 0)
(215.429 0 0)
(215.44 0 0)
(215.445 0 0)
(215.458 0 0)
(215.476 0 0)
(215.495 0 0)
(215.516 0 0)
(215.552 0 0)
(215.607 0 0)
(215.648 0 0)
(215.669 0 0)
(215.684 0 0)
(215.69 0 0)
(215.695 0 0)
(215.71 0 0)
(215.729 0 0)
(215.748 0 0)
(215.771 0 0)
(215.811 0 0)
(215.869 0 0)
(215.91 0 0)
(215.931 0 0)
(215.946 0 0)
(215.952 0 0)
(215.957 0 0)
(215.973 0 0)
(215.991 0 0)
(216.011 0 0)
(216.036 0 0)
(216.081 0 0)
(216.134 0 0)
(216.164 0 0)
(216.182 0 0)
(216.194 0 0)
(216.196 0 0)
(216.206 0 0)
(216.223 0 0)
(216.242 0 0)
(216.262 0 0)
(216.291 0 0)
(216.342 0 0)
(216.395 0 0)
(216.423 0 0)
(216.44 0 0)
(216.451 0 0)
(216.452 0 0)
(216.463 0 0)
(216.48 0 0)
(216.499 0 0)
(216.52 0 0)
(216.552 0 0)
(216.604 0 0)
(216.644 0 0)
(216.665 0 0)
(216.681 0 0)
(216.69 0 0)
(216.704 0 0)
(216.722 0 0)
(216.741 0 0)
(216.77 0 0)
(216.819 0 0)
(216.869 0 0)
(216.895 0 0)
(216.911 0 0)
(216.92 0 0)
(216.918 0 0)
(216.928 0 0)
(216.946 0 0)
(216.965 0 0)
(216.988 0 0)
(217.029 0 0)
(217.087 0 0)
(217.125 0 0)
(217.144 0 0)
(217.159 0 0)
(217.164 0 0)
(217.174 0 0)
(217.191 0 0)
(217.21 0 0)
(217.232 0 0)
(217.271 0 0)
(217.325 0 0)
(217.361 0 0)
(217.381 0 0)
(217.396 0 0)
(217.405 0 0)
(217.42 0 0)
(217.439 0 0)
(217.458 0 0)
(217.482 0 0)
(217.515 0 0)
(217.546 0 0)
(217.566 0 0)
(217.585 0 0)
(217.603 0 0)
(217.623 0 0)
(217.645 0 0)
(217.671 0 0)
(217.695 0 0)
(217.715 0 0)
(217.735 0 0)
(217.755 0 0)
(217.78 0 0)
(217.817 0 0)
(217.851 0 0)
(217.872 0 0)
(217.89 0 0)
(217.907 0 0)
(217.925 0 0)
(217.945 0 0)
(217.966 0 0)
(217.996 0 0)
(218.034 0 0)
(218.058 0 0)
(218.077 0 0)
(218.094 0 0)
(218.112 0 0)
(218.13 0 0)
(218.15 0 0)
(218.175 0 0)
(218.219 0 0)
(218.262 0 0)
(218.285 0 0)
(218.302 0 0)
(218.313 0 0)
(218.326 0 0)
(218.345 0 0)
(218.364 0 0)
(218.39 0 0)
(218.434 0 0)
(218.477 0 0)
(218.5 0 0)
(218.516 0 0)
(218.524 0 0)
(218.528 0 0)
(218.543 0 0)
(218.561 0 0)
(218.581 0 0)
(218.608 0 0)
(218.655 0 0)
(218.714 0 0)
(218.748 0 0)
(218.767 0 0)
(218.78 0 0)
(218.787 0 0)
(218.8 0 0)
(218.818 0 0)
(218.837 0 0)
(218.859 0 0)
(218.887 0 0)
(218.916 0 0)
(218.937 0 0)
(218.955 0 0)
(218.974 0 0)
(218.992 0 0)
(219.011 0 0)
(219.031 0 0)
(219.06 0 0)
(219.107 0 0)
(219.153 0 0)
(219.176 0 0)
(219.193 0 0)
(219.204 0 0)
(219.215 0 0)
(219.233 0 0)
(219.252 0 0)
(219.275 0 0)
(219.315 0 0)
(219.361 0 0)
(219.386 0 0)
(219.403 0 0)
(219.415 0 0)
(219.424 0 0)
(219.44 0 0)
(219.459 0 0)
(219.48 0 0)
(219.513 0 0)
(219.563 0 0)
(219.602 0 0)
(219.622 0 0)
(219.638 0 0)
(219.651 0 0)
(219.669 0 0)
(219.688 0 0)
(219.709 0 0)
(219.743 0 0)
(219.785 0 0)
(219.81 0 0)
(219.829 0 0)
(219.843 0 0)
(219.858 0 0)
(219.876 0 0)
(219.895 0 0)
(219.917 0 0)
(219.949 0 0)
(219.984 0 0)
(220.006 0 0)
(220.025 0 0)
(220.043 0 0)
(220.061 0 0)
(220.079 0 0)
(220.099 0 0)
(220.118 0 0)
(220.138 0 0)
(220.158 0 0)
(220.18 0 0)
(220.204 0 0)
(220.236 0 0)
(220.287 0 0)
(220.341 0 0)
(220.37 0 0)
(220.389 0 0)
(220.403 0 0)
(220.405 0 0)
(220.407 0 0)
(220.423 0 0)
(220.442 0 0)
(220.462 0 0)
(220.487 0 0)
(220.532 0 0)
(220.586 0 0)
(220.617 0 0)
(220.636 0 0)
(220.65 0 0)
(220.661 0 0)
(220.677 0 0)
(220.696 0 0)
(220.716 0 0)
(220.74 0 0)
(220.769 0 0)
(220.792 0 0)
(220.812 0 0)
(220.831 0 0)
(220.85 0 0)
(220.87 0 0)
(220.898 0 0)
(220.943 0 0)
(220.982 0 0)
(221.003 0 0)
(221.02 0 0)
(221.034 0 0)
(221.051 0 0)
(221.07 0 0)
(221.089 0 0)
(221.11 0 0)
(221.134 0 0)
(221.157 0 0)
(221.178 0 0)
(221.198 0 0)
(221.219 0 0)
(221.252 0 0)
(221.302 0 0)
(221.342 0 0)
(221.362 0 0)
(221.378 0 0)
(221.385 0 0)
(221.388 0 0)
(221.403 0 0)
(221.422 0 0)
(221.442 0 0)
(221.464 0 0)
(221.503 0 0)
(221.562 0 0)
(221.606 0 0)
(221.628 0 0)
(221.645 0 0)
(221.654 0 0)
(221.662 0 0)
(221.678 0 0)
(221.698 0 0)
(221.717 0 0)
(221.742 0 0)
(221.775 0 0)
(221.804 0 0)
(221.824 0 0)
(221.843 0 0)
(221.862 0 0)
(221.881 0 0)
(221.901 0 0)
(221.926 0 0)
(221.962 0 0)
(221.996 0 0)
(222.016 0 0)
(222.035 0 0)
(222.051 0 0)
(222.069 0 0)
(222.088 0 0)
(222.108 0 0)
(222.134 0 0)
(222.179 0 0)
(222.225 0 0)
(222.249 0 0)
(222.267 0 0)
(222.279 0 0)
(222.292 0 0)
(222.31 0 0)
(222.329 0 0)
(222.352 0 0)
(222.387 0 0)
(222.426 0 0)
(222.45 0 0)
(222.468 0 0)
(222.483 0 0)
(222.499 0 0)
(222.518 0 0)
(222.537 0 0)
(222.562 0 0)
(222.604 0 0)
(222.653 0 0)
(222.68 0 0)
(222.698 0 0)
(222.711 0 0)
(222.722 0 0)
(222.739 0 0)
(222.758 0 0)
(222.778 0 0)
(222.801 0 0)
(222.828 0 0)
(222.85 0 0)
(222.87 0 0)
(222.89 0 0)
(222.91 0 0)
(222.932 0 0)
(222.97 0 0)
(223.017 0 0)
(223.044 0 0)
(223.063 0 0)
(223.078 0 0)
(223.089 0 0)
(223.105 0 0)
(223.124 0 0)
(223.143 0 0)
(223.162 0 0)
(223.182 0 0)
(223.201 0 0)
(223.222 0 0)
(223.243 0 0)
(223.274 0 0)
(223.326 0 0)
(223.38 0 0)
(223.408 0 0)
(223.427 0 0)
(223.442 0 0)
(223.451 0 0)
(223.467 0 0)
(223.485 0 0)
(223.505 0 0)
(223.529 0 0)
(223.563 0 0)
(223.594 0 0)
(223.615 0 0)
(223.633 0 0)
(223.649 0 0)
(223.666 0 0)
(223.685 0 0)
(223.704 0 0)
(223.728 0 0)
(223.769 0 0)
(223.821 0 0)
(223.851 0 0)
(223.87 0 0)
(223.884 0 0)
(223.892 0 0)
(223.906 0 0)
(223.925 0 0)
(223.944 0 0)
(223.969 0 0)
(224.008 0 0)
(224.051 0 0)
(224.074 0 0)
(224.092 0 0)
(224.104 0 0)
(224.108 0 0)
(224.122 0 0)
(224.14 0 0)
(224.16 0 0)
(224.179 0 0)
(224.2 0 0)
(224.234 0 0)
(224.293 0 0)
(224.354 0 0)
(224.386 0 0)
(224.405 0 0)
(224.419 0 0)
(224.42 0 0)
(224.414 0 0)
(224.426 0 0)
(224.445 0 0)
(224.464 0 0)
(224.484 0 0)
(224.504 0 0)
(224.535 0 0)
(224.587 0 0)
(224.639 0 0)
(224.665 0 0)
(224.683 0 0)
(224.695 0 0)
(224.697 0 0)
(224.707 0 0)
(224.725 0 0)
(224.745 0 0)
(224.766 0 0)
(224.802 0 0)
(224.861 0 0)
(224.913 0 0)
(224.939 0 0)
(224.957 0 0)
(224.967 0 0)
(224.963 0 0)
(224.967 0 0)
(224.984 0 0)
(225.003 0 0)
(225.023 0 0)
(225.052 0 0)
(225.101 0 0)
(225.161 0 0)
(225.194 0 0)
(225.214 0 0)
(225.228 0 0)
(225.231 0 0)
(225.233 0 0)
(225.248 0 0)
(225.267 0 0)
(225.287 0 0)
(225.309 0 0)
(225.347 0 0)
(225.4 0 0)
(225.435 0 0)
(225.455 0 0)
(225.471 0 0)
(225.485 0 0)
(225.503 0 0)
(225.523 0 0)
(225.545 0 0)
(225.578 0 0)
(225.616 0 0)
(225.639 0 0)
(225.657 0 0)
(225.672 0 0)
(225.682 0 0)
(225.697 0 0)
(225.717 0 0)
(225.737 0 0)
(225.766 0 0)
(225.818 0 0)
(225.873 0 0)
(225.902 0 0)
(225.921 0 0)
(225.934 0 0)
(225.939 0 0)
(225.949 0 0)
(225.967 0 0)
(225.987 0 0)
(226.007 0 0)
(226.032 0 0)
(226.064 0 0)
(226.09 0 0)
(226.11 0 0)
(226.13 0 0)
(226.149 0 0)
(226.17 0 0)
(226.2 0 0)
(226.24 0 0)
(226.268 0 0)
(226.288 0 0)
(226.307 0 0)
(226.326 0 0)
(226.345 0 0)
(226.365 0 0)
(226.389 0 0)
(226.415 0 0)
(226.436 0 0)
(226.456 0 0)
(226.475 0 0)
(226.495 0 0)
(226.514 0 0)
(226.534 0 0)
(226.558 0 0)
(226.6 0 0)
(226.648 0 0)
(226.674 0 0)
(226.692 0 0)
(226.705 0 0)
(226.709 0 0)
(226.721 0 0)
(226.74 0 0)
(226.76 0 0)
(226.782 0 0)
(226.821 0 0)
(226.878 0 0)
(226.921 0 0)
(226.943 0 0)
(226.959 0 0)
(226.969 0 0)
(226.975 0 0)
(226.991 0 0)
(227.01 0 0)
(227.03 0 0)
(227.055 0 0)
(227.095 0 0)
(227.138 0 0)
(227.162 0 0)
(227.18 0 0)
(227.195 0 0)
(227.211 0 0)
(227.23 0 0)
(227.25 0 0)
(227.275 0 0)
(227.318 0 0)
(227.363 0 0)
(227.387 0 0)
(227.405 0 0)
(227.415 0 0)
(227.414 0 0)
(227.424 0 0)
(227.442 0 0)
(227.462 0 0)
(227.483 0 0)
(227.52 0 0)
(227.578 0 0)
(227.627 0 0)
(227.651 0 0)
(227.669 0 0)
(227.68 0 0)
(227.683 0 0)
(227.696 0 0)
(227.715 0 0)
(227.735 0 0)
(227.757 0 0)
(227.796 0 0)
(227.851 0 0)
(227.889 0 0)
(227.91 0 0)
(227.926 0 0)
(227.933 0 0)
(227.929 0 0)
(227.94 0 0)
(227.959 0 0)
(227.978 0 0)
(227.998 0 0)
(228.017 0 0)
(228.038 0 0)
(228.066 0 0)
(228.115 0 0)
(228.18 0 0)
(228.219 0 0)
(228.24 0 0)
(228.256 0 0)
(228.264 0 0)
(228.266 0 0)
(228.28 0 0)
(228.298 0 0)
(228.318 0 0)
(228.339 0 0)
(228.373 0 0)
(228.425 0 0)
(228.467 0 0)
(228.49 0 0)
(228.507 0 0)
(228.519 0 0)
(228.531 0 0)
(228.549 0 0)
(228.569 0 0)
(228.59 0 0)
(228.618 0 0)
(228.657 0 0)
(228.686 0 0)
(228.706 0 0)
(228.724 0 0)
(228.739 0 0)
(228.754 0 0)
(228.773 0 0)
(228.792 0 0)
(228.812 0 0)
(228.831 0 0)
(228.851 0 0)
(228.87 0 0)
(228.89 0 0)
(228.911 0 0)
(228.939 0 0)
(228.988 0 0)
(229.053 0 0)
(229.092 0 0)
(229.113 0 0)
(229.13 0 0)
(229.138 0 0)
(229.139 0 0)
(229.153 0 0)
(229.171 0 0)
(229.191 0 0)
(229.212 0 0)
(229.241 0 0)
(229.28 0 0)
(229.309 0 0)
(229.33 0 0)
(229.348 0 0)
(229.362 0 0)
(229.373 0 0)
(229.39 0 0)
(229.409 0 0)
(229.429 0 0)
(229.448 0 0)
(229.469 0 0)
(229.492 0 0)
(229.534 0 0)
(229.601 0 0)
(229.653 0 0)
(229.679 0 0)
(229.697 0 0)
(229.71 0 0)
(229.708 0 0)
(229.707 0 0)
(229.722 0 0)
(229.742 0 0)
(229.761 0 0)
(229.783 0 0)
(229.819 0 0)
(229.875 0 0)
(229.918 0 0)
(229.94 0 0)
(229.958 0 0)
(229.967 0 0)
(229.965 0 0)
(229.976 0 0)
(229.995 0 0)
(230.014 0 0)
(230.036 0 0)
(230.07 0 0)
(230.129 0 0)
(230.183 0 0)
(230.21 0 0)
(230.229 0 0)
(230.241 0 0)
(230.241 0 0)
(230.243 0 0)
(230.26 0 0)
(230.279 0 0)
(230.299 0 0)
(230.322 0 0)
(230.361 0 0)
(230.416 0 0)
(230.454 0 0)
(230.475 0 0)
(230.492 0 0)
(230.501 0 0)
(230.507 0 0)
(230.523 0 0)
(230.543 0 0)
(230.563 0 0)
(230.586 0 0)
(230.626 0 0)
(230.674 0 0)
(230.702 0 0)
(230.721 0 0)
(230.737 0 0)
(230.749 0 0)
(230.767 0 0)
(230.786 0 0)
(230.807 0 0)
(230.834 0 0)
(230.874 0 0)
(230.909 0 0)
(230.93 0 0)
(230.948 0 0)
(230.965 0 0)
(230.983 0 0)
(231.003 0 0)
(231.023 0 0)
(231.046 0 0)
(231.075 0 0)
(231.102 0 0)
(231.122 0 0)
(231.142 0 0)
(231.162 0 0)
(231.182 0 0)
(231.204 0 0)
(231.241 0 0)
(231.293 0 0)
(231.327 0 0)
(231.347 0 0)
(231.363 0 0)
(231.373 0 0)
(231.386 0 0)
(231.404 0 0)
(231.424 0 0)
(231.444 0 0)
(231.468 0 0)
(231.498 0 0)
(231.522 0 0)
(231.543 0 0)
(231.563 0 0)
(231.583 0 0)
(231.604 0 0)
(231.632 0 0)
(231.669 0 0)
(231.696 0 0)
(231.716 0 0)
(231.735 0 0)
(231.751 0 0)
(231.767 0 0)
(231.786 0 0)
(231.806 0 0)
(231.827 0 0)
(231.858 0 0)
(231.907 0 0)
(231.949 0 0)
(231.971 0 0)
(231.989 0 0)
(231.999 0 0)
(232.002 0 0)
(232.015 0 0)
(232.034 0 0)
(232.054 0 0)
(232.075 0 0)
(232.11 0 0)
(232.164 0 0)
(232.209 0 0)
(232.232 0 0)
(232.251 0 0)
(232.264 0 0)
(232.278 0 0)
(232.297 0 0)
(232.317 0 0)
(232.339 0 0)
(232.369 0 0)
(232.402 0 0)
(232.425 0 0)
(232.445 0 0)
(232.462 0 0)
(232.474 0 0)
(232.487 0 0)
(232.506 0 0)
(232.526 0 0)
(232.547 0 0)
(232.58 0 0)
(232.632 0 0)
(232.678 0 0)
(232.701 0 0)
(232.72 0 0)
(232.733 0 0)
(232.746 0 0)
(232.764 0 0)
(232.784 0 0)
(232.805 0 0)
(232.834 0 0)
(232.872 0 0)
(232.899 0 0)
(232.919 0 0)
(232.937 0 0)
(232.951 0 0)
(232.964 0 0)
(232.983 0 0)
(233.003 0 0)
(233.024 0 0)
(233.055 0 0)
(233.103 0 0)
(233.145 0 0)
(233.168 0 0)
(233.186 0 0)
(233.199 0 0)
(233.21 0 0)
(233.228 0 0)
(233.248 0 0)
(233.268 0 0)
(233.291 0 0)
(233.321 0 0)
(233.348 0 0)
(233.369 0 0)
(233.389 0 0)
(233.409 0 0)
(233.43 0 0)
(233.459 0 0)
(233.498 0 0)
(233.529 0 0)
(233.55 0 0)
(233.568 0 0)
(233.583 0 0)
(233.597 0 0)
(233.616 0 0)
(233.636 0 0)
(233.656 0 0)
(233.684 0 0)
(233.729 0 0)
(233.773 0 0)
(233.797 0 0)
(233.815 0 0)
(233.829 0 0)
(233.839 0 0)
(233.856 0 0)
(233.876 0 0)
(233.896 0 0)
(233.921 0 0)
(233.961 0 0)
(234.003 0 0)
(234.027 0 0)
(234.046 0 0)
(234.06 0 0)
(234.073 0 0)
(234.091 0 0)
(234.111 0 0)
(234.131 0 0)
(234.159 0 0)
(234.2 0 0)
(234.235 0 0)
(234.256 0 0)
(234.275 0 0)
(234.289 0 0)
(234.302 0 0)
(234.32 0 0)
(234.34 0 0)
(234.361 0 0)
(234.39 0 0)
(234.437 0 0)
(234.479 0 0)
(234.501 0 0)
(234.519 0 0)
(234.534 0 0)
(234.549 0 0)
(234.568 0 0)
(234.588 0 0)
(234.61 0 0)
(234.636 0 0)
(234.665 0 0)
(234.687 0 0)
(234.707 0 0)
(234.727 0 0)
(234.747 0 0)
(234.766 0 0)
(234.787 0 0)
(234.809 0 0)
(234.841 0 0)
(234.884 0 0)
(234.913 0 0)
(234.933 0 0)
(234.951 0 0)
(234.962 0 0)
(234.975 0 0)
(234.994 0 0)
(235.014 0 0)
(235.035 0 0)
(235.068 0 0)
(235.12 0 0)
(235.167 0 0)
(235.191 0 0)
(235.209 0 0)
(235.222 0 0)
(235.227 0 0)
(235.241 0 0)
(235.26 0 0)
(235.28 0 0)
(235.302 0 0)
(235.333 0 0)
(235.377 0 0)
(235.408 0 0)
(235.428 0 0)
(235.445 0 0)
(235.454 0 0)
(235.46 0 0)
(235.477 0 0)
(235.496 0 0)
(235.517 0 0)
(235.541 0 0)
(235.584 0 0)
(235.643 0 0)
(235.682 0 0)
(235.704 0 0)
(235.721 0 0)
(235.731 0 0)
(235.731 0 0)
(235.743 0 0)
(235.762 0 0)
(235.782 0 0)
(235.803 0 0)
(235.832 0 0)
(235.883 0 0)
(235.939 0 0)
(235.97 0 0)
(235.99 0 0)
(236.006 0 0)
(236.015 0 0)
(236.025 0 0)
(236.042 0 0)
(236.062 0 0)
(236.082 0 0)
(236.103 0 0)
(236.125 0 0)
(236.147 0 0)
(236.167 0 0)
(236.187 0 0)
(236.208 0 0)
(236.228 0 0)
(236.251 0 0)
(236.287 0 0)
(236.34 0 0)
(236.376 0 0)
(236.397 0 0)
(236.414 0 0)
(236.425 0 0)
(236.431 0 0)
(236.448 0 0)
(236.467 0 0)
(236.488 0 0)
(236.51 0 0)
(236.547 0 0)
(236.601 0 0)
(236.638 0 0)
(236.658 0 0)
(236.676 0 0)
(236.686 0 0)
(236.693 0 0)
(236.709 0 0)
(236.729 0 0)
(236.749 0 0)
(236.771 0 0)
(236.806 0 0)
(236.857 0 0)
(236.893 0 0)
(236.914 0 0)
(236.932 0 0)
(236.946 0 0)
(236.962 0 0)
(236.982 0 0)
(237.002 0 0)
(237.023 0 0)
(237.049 0 0)
(237.079 0 0)
(237.102 0 0)
(237.122 0 0)
(237.142 0 0)
(237.162 0 0)
(237.183 0 0)
(237.207 0 0)
(237.237 0 0)
(237.265 0 0)
(237.286 0 0)
(237.306 0 0)
(237.326 0 0)
(237.346 0 0)
(237.366 0 0)
(237.387 0 0)
(237.411 0 0)
(237.45 0 0)
(237.498 0 0)
(237.526 0 0)
(237.546 0 0)
(237.563 0 0)
(237.578 0 0)
(237.596 0 0)
(237.616 0 0)
(237.637 0 0)
(237.659 0 0)
(237.686 0 0)
(237.71 0 0)
(237.731 0 0)
(237.751 0 0)
(237.77 0 0)
(237.787 0 0)
(237.805 0 0)
(237.825 0 0)
(237.845 0 0)
(237.865 0 0)
(237.886 0 0)
(237.909 0 0)
(237.947 0 0)
(238.002 0 0)
(238.04 0 0)
(238.062 0 0)
(238.08 0 0)
(238.09 0 0)
(238.088 0 0)
(238.096 0 0)
(238.115 0 0)
(238.135 0 0)
(238.155 0 0)
(238.179 0 0)
(238.219 0 0)
(238.284 0 0)
(238.337 0 0)
(238.363 0 0)
(238.382 0 0)
(238.397 0 0)
(238.398 0 0)
(238.394 0 0)
(238.408 0 0)
(238.427 0 0)
(238.448 0 0)
(238.469 0 0)
(238.496 0 0)
(238.544 0 0)
(238.602 0 0)
(238.634 0 0)
(238.655 0 0)
(238.672 0 0)
(238.679 0 0)
(238.679 0 0)
(238.693 0 0)
(238.712 0 0)
(238.732 0 0)
(238.753 0 0)
(238.78 0 0)
(238.824 0 0)
(238.875 0 0)
(238.904 0 0)
(238.923 0 0)
(238.94 0 0)
(238.95 0 0)
(238.965 0 0)
(238.984 0 0)
(239.004 0 0)
(239.025 0 0)
(239.055 0 0)
(239.102 0 0)
(239.144 0 0)
(239.167 0 0)
(239.186 0 0)
(239.201 0 0)
(239.21 0 0)
(239.225 0 0)
(239.245 0 0)
(239.265 0 0)
(239.285 0 0)
(239.305 0 0)
(239.325 0 0)
(239.346 0 0)
(239.366 0 0)
(239.388 0 0)
(239.422 0 0)
(239.476 0 0)
(239.525 0 0)
(239.55 0 0)
(239.569 0 0)
(239.585 0 0)
(239.594 0 0)
(239.609 0 0)
(239.628 0 0)
(239.648 0 0)
(239.669 0 0)
(239.691 0 0)
(239.717 0 0)
(239.739 0 0)
(239.76 0 0)
(239.78 0 0)
(239.8 0 0)
(239.82 0 0)
(239.84 0 0)
(239.861 0 0)
(239.884 0 0)
(239.922 0 0)
(239.978 0 0)
(240.021 0 0)
(240.043 0 0)
(240.062 0 0)
(240.075 0 0)
(240.077 0 0)
(240.083 0 0)
(240.1 0 0)
(240.12 0 0)
(240.14 0 0)
(240.161 0 0)
(240.181 0 0)
(240.201 0 0)
(240.221 0 0)
(240.242 0 0)
(240.265 0 0)
(240.3 0 0)
(240.361 0 0)
(240.425 0 0)
(240.457 0 0)
(240.477 0 0)
(240.494 0 0)
(240.503 0 0)
(240.496 0 0)
(240.499 0 0)
(240.516 0 0)
(240.536 0 0)
(240.557 0 0)
(240.577 0 0)
(240.597 0 0)
(240.618 0 0)
(240.639 0 0)
(240.669 0 0)
(240.72 0 0)
(240.786 0 0)
(240.823 0 0)
(240.845 0 0)
(240.863 0 0)
(240.874 0 0)
(240.871 0 0)
(240.876 0 0)
(240.893 0 0)
(240.913 0 0)
(240.934 0 0)
(240.955 0 0)
(240.983 0 0)
(241.031 0 0)
(241.083 0 0)
(241.111 0 0)
(241.131 0 0)
(241.148 0 0)
(241.159 0 0)
(241.173 0 0)
(241.193 0 0)
(241.213 0 0)
(241.235 0 0)
(241.262 0 0)
(241.293 0 0)
(241.317 0 0)
(241.338 0 0)
(241.357 0 0)
(241.372 0 0)
(241.384 0 0)
(241.401 0 0)
(241.421 0 0)
(241.441 0 0)
(241.464 0 0)
(241.499 0 0)
(241.558 0 0)
(241.609 0 0)
(241.635 0 0)
(241.655 0 0)
(241.67 0 0)
(241.676 0 0)
(241.683 0 0)
(241.7 0 0)
(241.72 0 0)
(241.741 0 0)
(241.764 0 0)
(241.8 0 0)
(241.855 0 0)
(241.898 0 0)
(241.921 0 0)
(241.94 0 0)
(241.954 0 0)
(241.956 0 0)
(241.961 0 0)
(241.978 0 0)
(241.998 0 0)
(242.018 0 0)
(242.038 0 0)
(242.058 0 0)
(242.078 0 0)
(242.098 0 0)
(242.118 0 0)
(242.139 0 0)
(242.159 0 0)
(242.18 0 0)
(242.203 0 0)
(242.241 0 0)
(242.304 0 0)
(242.36 0 0)
(242.388 0 0)
(242.408 0 0)
(242.425 0 0)
(242.432 0 0)
(242.429 0 0)
(242.441 0 0)
(242.461 0 0)
(242.481 0 0)
(242.502 0 0)
(242.524 0 0)
(242.56 0 0)
(242.616 0 0)
(242.66 0 0)
(242.683 0 0)
(242.703 0 0)
(242.718 0 0)
(242.726 0 0)
(242.737 0 0)
(242.756 0 0)
(242.776 0 0)
(242.797 0 0)
(242.817 0 0)
(242.838 0 0)
(242.858 0 0)
(242.879 0 0)
(242.901 0 0)
(242.931 0 0)
(242.984 0 0)
(243.042 0 0)
(243.073 0 0)
(243.093 0 0)
(243.111 0 0)
(243.122 0 0)
(243.123 0 0)
(243.134 0 0)
(243.153 0 0)
(243.173 0 0)
(243.193 0 0)
(243.214 0 0)
(243.234 0 0)
(243.254 0 0)
(243.275 0 0)
(243.295 0 0)
(243.315 0 0)
(243.336 0 0)
(243.358 0 0)
(243.386 0 0)
(243.435 0 0)
(243.499 0 0)
(243.536 0 0)
(243.557 0 0)
(243.576 0 0)
(243.587 0 0)
(243.581 0 0)
(243.575 0 0)
(243.589 0 0)
(243.609 0 0)
(243.629 0 0)
(243.65 0 0)
(243.672 0 0)
(243.705 0 0)
(243.764 0 0)
(243.844 0 0)
(243.887 0 0)
(243.91 0 0)
(243.929 0 0)
(243.943 0 0)
(243.942 0 0)
(243.925 0 0)
(243.931 0 0)
(243.949 0 0)
(243.969 0 0)
(243.99 0 0)
(244.01 0 0)
(244.031 0 0)
(244.051 0 0)
(244.073 0 0)
(244.102 0 0)
(244.153 0 0)
(244.226 0 0)
(244.271 0 0)
(244.294 0 0)
(244.313 0 0)
(244.328 0 0)
(244.331 0 0)
(244.332 0 0)
(244.347 0 0)
(244.367 0 0)
(244.388 0 0)
(244.409 0 0)
(244.432 0 0)
(244.463 0 0)
(244.502 0 0)
(244.527 0 0)
(244.548 0 0)
(244.568 0 0)
(244.585 0 0)
(244.599 0 0)
(244.616 0 0)
(244.636 0 0)
(244.657 0 0)
(244.677 0 0)
(244.698 0 0)
(244.719 0 0)
(244.746 0 0)
(244.789 0 0)
(244.847 0 0)
(244.882 0 0)
(244.903 0 0)
(244.921 0 0)
(244.935 0 0)
(244.94 0 0)
(244.955 0 0)
(244.975 0 0)
(244.995 0 0)
(245.016 0 0)
(245.039 0 0)
(245.075 0 0)
(245.121 0 0)
(245.15 0 0)
(245.171 0 0)
(245.189 0 0)
(245.202 0 0)
(245.214 0 0)
(245.233 0 0)
(245.253 0 0)
(245.274 0 0)
(245.296 0 0)
(245.329 0 0)
(245.376 0 0)
(245.408 0 0)
(245.429 0 0)
(245.448 0 0)
(245.463 0 0)
(245.472 0 0)
(245.488 0 0)
(245.508 0 0)
(245.528 0 0)
(245.549 0 0)
(245.569 0 0)
(245.59 0 0)
(245.611 0 0)
(245.635 0 0)
(245.672 0 0)
(245.728 0 0)
(245.767 0 0)
(245.79 0 0)
(245.809 0 0)
(245.823 0 0)
(245.829 0 0)
(245.84 0 0)
(245.859 0 0)
(245.88 0 0)
(245.901 0 0)
(245.924 0 0)
(245.961 0 0)
(246.016 0 0)
(246.055 0 0)
(246.077 0 0)
(246.097 0 0)
(246.111 0 0)
(246.116 0 0)
(246.124 0 0)
(246.142 0 0)
(246.163 0 0)
(246.183 0 0)
(246.204 0 0)
(246.224 0 0)
(246.245 0 0)
(246.266 0 0)
(246.287 0 0)
(246.314 0 0)
(246.357 0 0)
(246.421 0 0)
(246.462 0 0)
(246.485 0 0)
(246.504 0 0)
(246.521 0 0)
(246.53 0 0)
(246.539 0 0)
(246.556 0 0)
(246.576 0 0)
(246.596 0 0)
(246.616 0 0)
(246.634 0 0)
(246.647 0 0)
(246.662 0 0)
(246.682 0 0)
(246.702 0 0)
(246.723 0 0)
(246.744 0 0)
(246.766 0 0)
(246.796 0 0)
(246.849 0 0)
(246.916 0 0)
(246.953 0 0)
(246.974 0 0)
(246.993 0 0)
(247.007 0 0)
(247.006 0 0)
(247.007 0 0)
(247.024 0 0)
(247.044 0 0)
(247.065 0 0)
(247.086 0 0)
(247.112 0 0)
(247.156 0 0)
(247.219 0 0)
(247.26 0 0)
(247.282 0 0)
(247.301 0 0)
(247.316 0 0)
(247.32 0 0)
(247.322 0 0)
(247.338 0 0)
(247.358 0 0)
(247.378 0 0)
(247.399 0 0)
(247.42 0 0)
(247.44 0 0)
(247.461 0 0)
(247.481 0 0)
(247.502 0 0)
(247.524 0 0)
(247.552 0 0)
(247.597 0 0)
(247.654 0 0)
(247.687 0 0)
(247.707 0 0)
(247.726 0 0)
(247.74 0 0)
(247.749 0 0)
(247.766 0 0)
(247.786 0 0)
(247.807 0 0)
(247.829 0 0)
(247.858 0 0)
(247.906 0 0)
(247.951 0 0)
(247.975 0 0)