/*--------------------------------*- C++ -*----------------------------------*\
  =========                 |
  \\      /  F ield         | OpenFOAM: The Open Source CFD Toolbox
   \\    /   O peration     | Website:  https://openfoam.org
    \\  /    A nd           | Version:  9
     \\/     M anipulation  |
\*---------------------------------------------------------------------------*/
FoamFile
{
    format      ascii;
    class       surfaceScalarField;
    location    "0.001";
    object      phi;
}
// * * * * * * * * * * * * * * * * * * * * * * * * * * * * * * * * * * * * * //

dimensions      [1 0 -1 0 0 0 0];

internalField   nonuniform List<scalar> 
99
(
0
1.40332e-13
1.41664e-13
-1.50102e-13
-1.34115e-13
0
1.40332e-13
1.43885e-13
-4.44089e-16
8.88178e-16
-1.48326e-13
-1.33671e-13
0
1.33671e-13
1.40332e-13
-1.43885e-13
-1.35447e-13
0
1.33671e-13
1.43885e-13
-1.48326e-13
-1.35447e-13
0
1.35447e-13
1.41664e-13
-1.48326e-13
-1.33671e-13
0
1.31761e-12
1.7391e-11
2.59457e-10
2.3848e-09
2.94559e-08
2.46495e-07
2.62771e-06
1.98433e-05
0.000178882
0.00119892
0.00890291
0.0517335
0.304929
1.47497
6.63262
22.9654
63.3606
141.836
252.33
367.348
474.223
492.731
459.656
461.132
413.673
372.02
338.957
74.4928
13.4609
1.62254
0.210108
0.0272593
0.00344802
0.000423218
4.82258e-05
5.26749e-06
5.29748e-07
5.11602e-08
4.57989e-09
3.93408e-10
3.18773e-11
2.37094e-12
2.82552e-14
-5.76761e-14
3.33067e-16
-3.88578e-16
5.76761e-14
5.24025e-14
0
-5.22915e-14
-5.76206e-14
5.76761e-14
5.29576e-14
0
-5.22915e-14
-5.76206e-14
5.76761e-14
5.29576e-14
0
-5.22915e-14
-1.12577e-13
-5.55112e-17
1.12355e-13
7.01661e-14
-3.39173e-14
-1.3195e-13
-1.71529e-14
1.12577e-13
7.03326e-14
3.69704e-14
1.73195e-14
)
;

boundaryField
{
    sides
    {
        type            calculated;
        value           nonuniform List<scalar> 2(4.85064e-17 0);
    }
    empty
    {
        type            empty;
        value           nonuniform List<scalar> 0();
    }
}


// ************************************************************************* //
