/*--------------------------------*- C++ -*----------------------------------*\
  =========                 |
  \\      /  F ield         | OpenFOAM: The Open Source CFD Toolbox
   \\    /   O peration     | Website:  https://openfoam.org
    \\  /    A nd           | Version:  9
     \\/     M anipulation  |
\*---------------------------------------------------------------------------*/
FoamFile
{
    format      ascii;
    class       volScalarField;
    location    "0.013";
    object      ddt0(rho,e);
}
// * * * * * * * * * * * * * * * * * * * * * * * * * * * * * * * * * * * * * //

dimensions      [1 -1 -3 0 0 0 0];

internalField   nonuniform List<scalar> 
1000
(
-582074
-645663
-724986
-826551
-947240
-1.08364e+06
-1.23167e+06
-1.38675e+06
-1.54408e+06
-1.69893e+06
-1.84699e+06
-1.98458e+06
-2.10891e+06
-2.2181e+06
-2.3112e+06
-2.38829e+06
-2.45033e+06
-2.49882e+06
-2.53552e+06
-2.56221e+06
-2.58054e+06
-2.59198e+06
-2.59781e+06
-2.59907e+06
-2.59663e+06
-2.59121e+06
-2.58336e+06
-2.57355e+06
-2.56216e+06
-2.54947e+06
-2.53573e+06
-2.52114e+06
-2.50586e+06
-2.49002e+06
-2.47373e+06
-2.45707e+06
-2.44012e+06
-2.42294e+06
-2.40557e+06
-2.38805e+06
-2.37043e+06
-2.35272e+06
-2.33495e+06
-2.31713e+06
-2.29929e+06
-2.28143e+06
-2.26357e+06
-2.2457e+06
-2.22785e+06
-2.21001e+06
-2.19219e+06
-2.17438e+06
-2.15661e+06
-2.13885e+06
-2.12113e+06
-2.10343e+06
-2.08577e+06
-2.06813e+06
-2.05052e+06
-2.03295e+06
-2.01541e+06
-1.9979e+06
-1.98043e+06
-1.96299e+06
-1.94559e+06
-1.92822e+06
-1.91088e+06
-1.89359e+06
-1.87633e+06
-1.85911e+06
-1.84194e+06
-1.8248e+06
-1.80771e+06
-1.79066e+06
-1.77365e+06
-1.7567e+06
-1.73979e+06
-1.72292e+06
-1.70611e+06
-1.68935e+06
-1.67265e+06
-1.656e+06
-1.6394e+06
-1.62286e+06
-1.60638e+06
-1.58996e+06
-1.5736e+06
-1.55731e+06
-1.54107e+06
-1.5249e+06
-1.5088e+06
-1.49276e+06
-1.47679e+06
-1.46089e+06
-1.44506e+06
-1.4293e+06
-1.41362e+06
-1.398e+06
-1.38246e+06
-1.36699e+06
-1.3516e+06
-1.33628e+06
-1.32103e+06
-1.30587e+06
-1.29078e+06
-1.27577e+06
-1.26083e+06
-1.24598e+06
-1.2312e+06
-1.2165e+06
-1.20188e+06
-1.18734e+06
-1.17288e+06
-1.1585e+06
-1.1442e+06
-1.12998e+06
-1.11584e+06
-1.10179e+06
-1.08781e+06
-1.07392e+06
-1.0601e+06
-1.04637e+06
-1.03272e+06
-1.01915e+06
-1.00566e+06
-992254
-978929
-965685
-952523
-939442
-926443
-913524
-900687
-887931
-875257
-862663
-850150
-837719
-825367
-813097
-800907
-788797
-776768
-764818
-752949
-741159
-729450
-717819
-706268
-694796
-683403
-672089
-660854
-649697
-638618
-627618
-616695
-605851
-595083
-584393
-573781
-563245
-552786
-542403
-532097
-521867
-511713
-501635
-491632
-481704
-471851
-462074
-452371
-442742
-433187
-423707
-414300
-404967
-395707
-386520
-377406
-368364
-359395
-350498
-341673
-332920
-324238
-315628
-307088
-298619
-290221
-281893
-273635
-265447
-257328
-249279
-241299
-233388
-225545
-217771
-210065
-202427
-194857
-187354
-179919
-172550
-165248
-158013
-150844
-143741
-136704
-129732
-122826
-115985
-109208
-102497
-95849.6
-89266.4
-82747.2
-76291.7
-69899.7
-63570.8
-57304.9
-51101.8
-44961.1
-38882.7
-32866.4
-26911.8
-21018.8
-15187.2
-9416.63
-3706.93
1942.14
7530.81
13059.3
18527.9
23936.8
29286.2
34576.4
39807.5
44979.9
50093.8
55149.3
60146.8
65086.4
69968.4
74793
79560.4
84270.9
88924.7
93522
98063
102548
106977
111351
115669
119933
124140
128296
132389
136447
140410
144404
148172
152231
155567
160121
162271
168601
167476
178865
169534
193021
166036
213373
155586
239164
142745
260277
144429
253200
188108
196110
274508
113015
362714
65269.7
366513
143379
230592
328015
71787
418339
115176
258678
353907
59921.1
427879
177661
179576
443838
65042.7
339646
351251
60896.2
445941
239314
122449
483871
160940
192395
486538
116407
247808
478701
96335.2
280707
474126
93789.9
287558
480865
103336
270814
495746
129423
230010
512159
177123
173235
512874
253384
115093
478198
355165
81501.8
394654
458048
107505
267532
517805
211634
141365
484446
369731
90063.8
346277
498557
172599
171325
494597
359189
94202
332346
504156
207613
138335
454638
423815
118980
235695
504725
320650
98066.4
328265
499378
237981
114351
392424
470426
184681
140687
427036
441137
155408
160343
439948
421518
144364
165812
436590
416324
146943
155602
419381
424505
162787
133286
386588
440501
194988
107172
334030
453563
247421
89739.6
261261
448329
315788
99574.4
176898
406252
385758
151279
103728
318972
426441
244258
77151.9
200334
402377
348164
127284
96055.4
298484
405262
244187
70005.9
154552
357966
358730
156727
61509.2
211404
373906
300349
100161
71364.7
249231
364312
249138
69820.8
79560.3
261278
351577
214868
44031.6
80560.4
264418
331806
190886
34377.3
69175.8
245437
319830
183955
22031.4
51902.8
218889
295062
190701
36304.2
15456.8
158795
288663
221811
29976.8
-28180.6
124316
265511
213637
56864.7
-22224.2
49469.9
193588
235596
109931
-28886.4
-18047.8
116510
222867
170739
-1302.98
-82025.6
36034.7
191599
189428
47331
-73186.9
-47330.4
95282.6
187883
118519
-32819.2
-99759.1
-10968
135655
163364
35008
-91003.9
-83352.6
26636.4
134805
131543
-12833.2
-141643
-83563.9
86552.2
161072
63453.3
-97575.4
-142278
-18829.2
124311
119905
-8331.72
-99041.5
-105397
-13667.7
109600
73253.9
-7633.37
-41184.2
-61322.8
-39293.8
20336.2
47245.5
12251.5
-4329.76
-25471.9
-22766.3
-5709.99
2224.9
9416.66
4410.63
2306.43
-22516.4
-15127.5
4448.11
-7331.83
4688.37
2899.08
-7014.37
-22399.4
5283.37
-1953.04
-4514.77
2745.82
3872.82
-7491.39
-17901.9
1677.38
-2915.02
1073.47
-12435.4
-17705.8
765.162
6329.04
3124.87
4473.69
-865.518
-11623.8
-4326.07
-3410.29
-10943
-13796.9
141.574
2719.36
-16663.7
1853.73
-615.905
-5060.77
-9817.29
2118.65
-967.64
-9975.15
-6265.32
-709.637
-3289.99
-10921.4
1685.87
-4440.62
-5576.13
-11599.5
2192.03
-1933.26
-7824.16
-11179.9
1546.33
-5071.41
-5369.53
-13912.7
1349.18
-1382.27
-2293.5
-13281.2
-11986.9
1490.83
5327.72
-7051.9
-15902.4
-9305.64
-2796.89
8085.23
-6373.88
-15207.8
-11946.5
-724.855
2358.31
849.162
-9262.42
-13226.1
1818.85
-4171.19
-1206.62
-1702.37
-4917.9
-4343.6
-4830.14
-4452.6
-7535.98
-5453.42
-7377.51
-6275.53
-9221.16
-6481.29
-6515.72
-7055.83
-8237.16
-7867.77
-5776.53
-9755.15
-5831.54
-4881.31
-7542.53
-8527.64
-7502.26
-4758.73
-7738.73
-6246.99
-5326.95
-6583.6
-9325.72
-3630.66
-6718.01
-6494.04
-7990.69
-5424.06
-7736.48
-9113.2
-7226.15
-6132.27
-10698.1
-7065.36
-4861.46
-8924.89
-10354.5
-8897.75
-6314.62
-10779.4
-7545.42
-6291.49
-9549.73
-11218.2
-8022.17
-5306.3
-9196.57
-7569.21
-6571.06
-10143
-12468.2
-9498.57
-6582.06
-10374.5
-8226.87
-6201.59
-7596.28
-12266.5
-4721.6
-7635.22
-11383
-13218.6
-11785.1
-8981.91
-16392.8
-8996.75
-8130.52
-12154.5
-16141.7
-8726.47
-8378.33
-10402.1
-12408
-8843.43
-8372.47
-13551.6
-5500.43
-6451.67
-10038
-12156.4
-14716.2
-11997.3
-19999.4
-15437.7
-10581.6
-17452.7
-17045.5
-13216
-9406.16
-15704
-8685.54
-8603.1
-11272.5
-11035.6
-9611.91
-8823.26
-15904.9
-16127.4
-17366.2
-18530.8
-19621.7
-16470.7
-17744.3
-18207.1
-16337.4
-15409.3
-18089
-17017.8
-15763.3
-15549.9
-13847.4
-10448
-14260.1
-18258
-20441.7
-19838.8
-21056.9
-20561.3
-22131.2
-26632.5
-27345.1
-21595.3
-14903
-14667.8
-15599.4
-18999.5
-24712.8
-20128.9
-12422.5
-11639
-15353.5
-23131.9
-31187.8
-34711.1
-29942.6
-21437.5
-17063.3
-19237.3
-24947.8
-29818.5
-32083.2
-29983.2
-27844.4
-30496.8
-33601
-32756.9
-29711.7
-21994
-14152.6
-13962.1
-22074.4
-34053.8
-42880.1
-48023.4
-41182.7
-29092.5
-25013.2
-24511.2
-30978.6
-45214.1
-54306.3
-54483.2
-46838.4
-35557.1
-22851.7
-16608.5
-23457.3
-35895.8
-48713.1
-58684.4
-63198.2
-54531.5
-42267.4
-34268
-24479.6
-24712.5
-38259.9
-57443.5
-74284.9
-87072.3
-94327
-87351.9
-68428.2
-47696.9
-29334.9
-15886.7
-19484.7
-37969.8
-100217
-114813
-106360
-84215.2
-58515.8
-36363.9
-20533.6
-21091.4
-36100.3
-102512
-177114
-175634
-152705
-107112
-61745.5
-34785.5
-37594.1
-70048.9
-121533
-162304
-181709
-181686
-162722
-128338
-87570.3
-53907.3
-34134.3
-29130.9
-45151.3
-119191
-274520
-320844
-337918
-327125
-295434
-244799
-180378
-119011
-75107.6
-50284
-49600.5
-79928.5
-230143
-553700
-615217
-612214
-566968
-487552
-386218
-277855
-180591
-109763
-69075.5
-78461.8
-131612
-227285
-842523
-1.51771e+06
-1.57224e+06
-1.57049e+06
-1.5069e+06
-1.36537e+06
-1.18314e+06
-974494
-756135
-557828
-371828
-248308
-144870
-59989.4
-102941
-179734
-1.39301e+06
-3.66304e+06
-1.5986e+07
-4.67816e+07
-1.46388e+08
-1.52426e+08
-1.43949e+08
-1.30772e+08
-1.16497e+08
-1.02049e+08
-8.82579e+07
-7.54363e+07
-6.38151e+07
-5.33986e+07
-4.42115e+07
-3.63357e+07
-2.96235e+07
-2.38799e+07
-1.90379e+07
-1.50954e+07
-1.18864e+07
-9.25948e+06
-7.12034e+06
-5.41399e+06
-4.09983e+06
-3.08216e+06
-2.23406e+06
-1.63334e+06
-1.23431e+06
-863749
-533387
-368992
-314460
-225243
-134626
-34786.7
-11386
-20107.3
-26679.4
-6921.89
6094.44
24130.4
53276.7
67881.4
76936.5
88987.8
82103.7
63108.3
61872.3
60803.4
58736
52397.9
29366.7
25491.3
19691.4
22693.7
29484.4
583.371
-11252.2
16654.5
35143.3
8860.77
-55331.9
-4768.44
73563.2
104687
-131549
-38848.3
40249.2
280501
396401
-479352
159364
722368
302001
-324938
79520.8
216961
221886
143301
228703
250407
243450
301505
313736
311429
237629
194144
203828
184297
147028
133482
126893
117849
206654
330726
288643
138609
-298435
-408505
-355889
-493565
-350417
-82008.1
1.84447e+06
677999
164292
42227.7
-205251
-165194
-111899
-89495.6
-65145.7
-44329.5
-33743
-11767.5
29685.3
8942.26
-4130.83
-2319.55
-6880.02
-32340.5
-61360.9
-59120.3
-55530.8
9350.09
31956.2
-92953.2
25921.5
150814
-121806
)
;

boundaryField
{
    sides
    {
        type            calculated;
        value           nonuniform List<scalar> 2(-121806 -582074);
    }
    empty
    {
        type            empty;
    }
}


// ************************************************************************* //
