/*--------------------------------*- C++ -*----------------------------------*\
  =========                 |
  \\      /  F ield         | OpenFOAM: The Open Source CFD Toolbox
   \\    /   O peration     | Website:  https://openfoam.org
    \\  /    A nd           | Version:  9
     \\/     M anipulation  |
\*---------------------------------------------------------------------------*/
FoamFile
{
    format      ascii;
    class       volVectorField;
    location    "0.013";
    object      ddt0(rho,U);
}
// * * * * * * * * * * * * * * * * * * * * * * * * * * * * * * * * * * * * * //

dimensions      [1 -2 -2 0 0 0 0];

internalField   nonuniform List<vector> 
1000
(
(1216.77 0 0)
(2836.75 0 0)
(3820.21 0 0)
(4984.83 0 0)
(6191.57 0 0)
(7444.16 0 0)
(8727.63 0 0)
(10021.6 0 0)
(11301.7 0 0)
(12542 0 0)
(13717.4 0 0)
(14806 0 0)
(15790.7 0 0)
(16660.1 0 0)
(17409 0 0)
(18038.8 0 0)
(18556.9 0 0)
(18974.3 0 0)
(19304 0 0)
(19559.1 0 0)
(19751.7 0 0)
(19892.8 0 0)
(19991.8 0 0)
(20056.4 0 0)
(20093.1 0 0)
(20107.2 0 0)
(20102.9 0 0)
(20083.6 0 0)
(20052 0 0)
(20010.5 0 0)
(19960.8 0 0)
(19904.4 0 0)
(19842.5 0 0)
(19776.1 0 0)
(19705.9 0 0)
(19632.7 0 0)
(19556.9 0 0)
(19479 0 0)
(19399.5 0 0)
(19318.5 0 0)
(19236.3 0 0)
(19153.2 0 0)
(19069.4 0 0)
(18984.8 0 0)
(18899.8 0 0)
(18814.3 0 0)
(18728.4 0 0)
(18642.2 0 0)
(18555.8 0 0)
(18469.2 0 0)
(18382.4 0 0)
(18295.4 0 0)
(18208.3 0 0)
(18121.1 0 0)
(18033.7 0 0)
(17946.3 0 0)
(17858.7 0 0)
(17771 0 0)
(17683.3 0 0)
(17595.5 0 0)
(17507.6 0 0)
(17419.6 0 0)
(17331.5 0 0)
(17243.3 0 0)
(17155.1 0 0)
(17066.8 0 0)
(16978.5 0 0)
(16890.1 0 0)
(16801.6 0 0)
(16713.1 0 0)
(16624.6 0 0)
(16536 0 0)
(16447.4 0 0)
(16358.7 0 0)
(16270.1 0 0)
(16181.5 0 0)
(16092.9 0 0)
(16004.3 0 0)
(15915.7 0 0)
(15827.1 0 0)
(15738.6 0 0)
(15650.2 0 0)
(15561.8 0 0)
(15473.6 0 0)
(15385.4 0 0)
(15297.3 0 0)
(15209.3 0 0)
(15121.4 0 0)
(15033.6 0 0)
(14946 0 0)
(14858.6 0 0)
(14771.3 0 0)
(14684.1 0 0)
(14597.1 0 0)
(14510.3 0 0)
(14423.7 0 0)
(14337.3 0 0)
(14251.1 0 0)
(14165 0 0)
(14079.2 0 0)
(13993.7 0 0)
(13908.3 0 0)
(13823.2 0 0)
(13738.3 0 0)
(13653.6 0 0)
(13569.2 0 0)
(13485.1 0 0)
(13401.2 0 0)
(13317.6 0 0)
(13234.2 0 0)
(13151.1 0 0)
(13068.3 0 0)
(12985.7 0 0)
(12903.4 0 0)
(12821.4 0 0)
(12739.7 0 0)
(12658.3 0 0)
(12577.1 0 0)
(12496.2 0 0)
(12415.7 0 0)
(12335.4 0 0)
(12255.4 0 0)
(12175.7 0 0)
(12096.3 0 0)
(12017.3 0 0)
(11938.5 0 0)
(11860 0 0)
(11781.8 0 0)
(11703.9 0 0)
(11626.4 0 0)
(11549.1 0 0)
(11472.1 0 0)
(11395.5 0 0)
(11319.1 0 0)
(11243.1 0 0)
(11167.4 0 0)
(11092 0 0)
(11016.9 0 0)
(10942.1 0 0)
(10867.6 0 0)
(10793.5 0 0)
(10719.6 0 0)
(10646.1 0 0)
(10572.8 0 0)
(10499.9 0 0)
(10427.3 0 0)
(10355 0 0)
(10283.1 0 0)
(10211.4 0 0)
(10140.1 0 0)
(10069 0 0)
(9998.32 0 0)
(9927.91 0 0)
(9857.82 0 0)
(9788.03 0 0)
(9718.57 0 0)
(9649.41 0 0)
(9580.56 0 0)
(9512.03 0 0)
(9443.81 0 0)
(9375.9 0 0)
(9308.3 0 0)
(9241.01 0 0)
(9174.03 0 0)
(9107.37 0 0)
(9041.01 0 0)
(8974.96 0 0)
(8909.22 0 0)
(8843.78 0 0)
(8778.66 0 0)
(8713.84 0 0)
(8649.33 0 0)
(8585.13 0 0)
(8521.23 0 0)
(8457.64 0 0)
(8394.35 0 0)
(8331.37 0 0)
(8268.69 0 0)
(8206.31 0 0)
(8144.24 0 0)
(8082.47 0 0)
(8021 0 0)
(7959.83 0 0)
(7898.96 0 0)
(7838.4 0 0)
(7778.13 0 0)
(7718.16 0 0)
(7658.49 0 0)
(7599.11 0 0)
(7540.04 0 0)
(7481.26 0 0)
(7422.77 0 0)
(7364.58 0 0)
(7306.69 0 0)
(7249.08 0 0)
(7191.77 0 0)
(7134.76 0 0)
(7078.03 0 0)
(7021.6 0 0)
(6965.46 0 0)
(6909.6 0 0)
(6854.04 0 0)
(6798.76 0 0)
(6743.78 0 0)
(6689.07 0 0)
(6634.66 0 0)
(6580.53 0 0)
(6526.68 0 0)
(6473.12 0 0)
(6419.85 0 0)
(6366.85 0 0)
(6314.14 0 0)
(6261.71 0 0)
(6209.56 0 0)
(6157.69 0 0)
(6106.1 0 0)
(6054.78 0 0)
(6003.75 0 0)
(5952.99 0 0)
(5902.51 0 0)
(5852.3 0 0)
(5802.37 0 0)
(5752.71 0 0)
(5703.33 0 0)
(5654.22 0 0)
(5605.38 0 0)
(5556.81 0 0)
(5508.51 0 0)
(5460.48 0 0)
(5412.72 0 0)
(5365.23 0 0)
(5318.01 0 0)
(5271.05 0 0)
(5224.36 0 0)
(5177.93 0 0)
(5131.77 0 0)
(5085.87 0 0)
(5040.24 0 0)
(4994.87 0 0)
(4949.75 0 0)
(4904.9 0 0)
(4860.31 0 0)
(4815.98 0 0)
(4771.91 0 0)
(4728.09 0 0)
(4684.53 0 0)
(4641.23 0 0)
(4598.18 0 0)
(4555.39 0 0)
(4512.85 0 0)
(4470.57 0 0)
(4428.54 0 0)
(4386.76 0 0)
(4345.23 0 0)
(4303.95 0 0)
(4262.92 0 0)
(4222.13 0 0)
(4181.6 0 0)
(4141.31 0 0)
(4101.27 0 0)
(4061.47 0 0)
(4021.94 0 0)
(3982.6 0 0)
(3943.6 0 0)
(3904.66 0 0)
(3866.32 0 0)
(3827.54 0 0)
(3790.27 0 0)
(3750.93 0 0)
(3715.89 0 0)
(3674.17 0 0)
(3644.1 0 0)
(3596.06 0 0)
(3576.3 0 0)
(3515.22 0 0)
(3513.35 0 0)
(3431.96 0 0)
(3452.79 0 0)
(3351.9 0 0)
(3385.05 0 0)
(3288.57 0 0)
(3293.88 0 0)
(3257.05 0 0)
(3174.81 0 0)
(3238.72 0 0)
(3062.67 0 0)
(3201.91 0 0)
(2996.09 0 0)
(3094.73 0 0)
(3010.26 0 0)
(2922.99 0 0)
(3042 0 0)
(2806.16 0 0)
(2956.95 0 0)
(2839.75 0 0)
(2753.65 0 0)
(2899.4 0 0)
(2646.97 0 0)
(2769.55 0 0)
(2737.75 0 0)
(2548.32 0 0)
(2751.25 0 0)
(2552.96 0 0)
(2518.13 0 0)
(2668.18 0 0)
(2400.58 0 0)
(2501.89 0 0)
(2545.98 0 0)
(2292.18 0 0)
(2468.32 0 0)
(2420.08 0 0)
(2207.16 0 0)
(2415.32 0 0)
(2303.68 0 0)
(2130.1 0 0)
(2349 0 0)
(2203.31 0 0)
(2053.11 0 0)
(2273.52 0 0)
(2120.96 0 0)
(1969.94 0 0)
(2191.42 0 0)
(2055.51 0 0)
(1883.04 0 0)
(2100.27 0 0)
(2008.17 0 0)
(1796.53 0 0)
(1995.79 0 0)
(1973.37 0 0)
(1721.66 0 0)
(1872.95 0 0)
(1942.01 0 0)
(1672.56 0 0)
(1733.41 0 0)
(1896.26 0 0)
(1658.77 0 0)
(1592.99 0 0)
(1811.29 0 0)
(1677.82 0 0)
(1482.65 0 0)
(1673.26 0 0)
(1699.59 0 0)
(1438.1 0 0)
(1497.18 0 0)
(1671.78 0 0)
(1469.47 0 0)
(1341.01 0 0)
(1551.11 0 0)
(1530.63 0 0)
(1279.39 0 0)
(1355.99 0 0)
(1525.33 0 0)
(1333.37 0 0)
(1189.55 0 0)
(1384.29 0 0)
(1414.35 0 0)
(1164.38 0 0)
(1167.68 0 0)
(1371.34 0 0)
(1266.06 0 0)
(1049 0 0)
(1166.21 0 0)
(1312.01 0 0)
(1122.2 0 0)
(976.476 0 0)
(1153.46 0 0)
(1227.56 0 0)
(1000.53 0 0)
(924.061 0 0)
(1122.12 0 0)
(1137.54 0 0)
(902.533 0 0)
(874.635 0 0)
(1075.6 0 0)
(1054.5 0 0)
(822.85 0 0)
(820.401 0 0)
(1017.68 0 0)
(984.344 0 0)
(757.764 0 0)
(757.425 0 0)
(951.508 0 0)
(928.563 0 0)
(705.727 0 0)
(686.089 0 0)
(876.93 0 0)
(884.647 0 0)
(668.431 0 0)
(610.467 0 0)
(791.124 0 0)
(846.235 0 0)
(649.588 0 0)
(538.939 0 0)
(690.46 0 0)
(803.266 0 0)
(650.022 0 0)
(484.041 0 0)
(577.894 0 0)
(740.299 0 0)
(663.159 0 0)
(461.416 0 0)
(464.743 0 0)
(644.521 0 0)
(670.399 0 0)
(478.907 0 0)
(376.623 0 0)
(515.31 0 0)
(641.833 0 0)
(526.02 0 0)
(344.006 0 0)
(377.095 0 0)
(550.797 0 0)
(564.847 0 0)
(381.299 0 0)
(278.646 0 0)
(403.747 0 0)
(540.417 0 0)
(456.411 0 0)
(270.539 0 0)
(258.397 0 0)
(420.892 0 0)
(491.739 0 0)
(350.937 0 0)
(199.024 0 0)
(251.975 0 0)
(415.434 0 0)
(429.8 0 0)
(263.577 0 0)
(152.144 0 0)
(242.907 0 0)
(390.482 0 0)
(371.644 0 0)
(200.78 0 0)
(110.691 0 0)
(222.215 0 0)
(364.48 0 0)
(322.147 0 0)
(148.113 0 0)
(78.1742 0 0)
(195.273 0 0)
(326.763 0 0)
(286.129 0 0)
(117.697 0 0)
(41.2554 0 0)
(155.569 0 0)
(293.91 0 0)
(257.913 0 0)
(96.7933 0 0)
(18.504 0 0)
(105.628 0 0)
(238.988 0 0)
(249.839 0 0)
(109.481 0 0)
(-18.6035 0 0)
(35.1934 0 0)
(205.044 0 0)
(251.166 0 0)
(101.536 0 0)
(-37.732 0 0)
(3.08988 0 0)
(142.196 0 0)
(208.882 0 0)
(134.304 0 0)
(-8.35949 0 0)
(-55.0171 0 0)
(56.4727 0 0)
(180.656 0 0)
(163.592 0 0)
(29.4505 0 0)
(-78.0089 0 0)
(-34.9361 0 0)
(122.382 0 0)
(193.015 0 0)
(74.3 0 0)
(-80.2108 0 0)
(-83.9425 0 0)
(46.4107 0 0)
(156.351 0 0)
(126.108 0 0)
(-16.1282 0 0)
(-110.223 0 0)
(-48.3397 0 0)
(92.7108 0 0)
(152.628 0 0)
(62.4957 0 0)
(-83.3207 0 0)
(-114.073 0 0)
(6.29213 0 0)
(124.592 0 0)
(113.667 0 0)
(3.78606 0 0)
(-104.13 0 0)
(-103.74 0 0)
(33.7974 0 0)
(156.336 0 0)
(97.5219 0 0)
(-69.9008 0 0)
(-144.116 0 0)
(-50.9646 0 0)
(104.531 0 0)
(145.255 0 0)
(26.4101 0 0)
(-117.886 0 0)
(-111.884 0 0)
(16.9386 0 0)
(84.9575 0 0)
(128.407 0 0)
(7.35915 0 0)
(-120.12 0 0)
(-68.6601 0 0)
(11.8611 0 0)
(27.0155 0 0)
(68.2045 0 0)
(72.0744 0 0)
(-38.0842 0 0)
(-43.6104 0 0)
(-20.227 0 0)
(-2.20761 0 0)
(26.2188 0 0)
(15.632 0 0)
(4.35368 0 0)
(3.2908 0 0)
(-4.20297 0 0)
(1.64288 0 0)
(-24.1728 0 0)
(25.9593 0 0)
(24.3679 0 0)
(-27.1883 0 0)
(44.0176 0 0)
(17.141 0 0)
(-62.1299 0 0)
(1.3712 0 0)
(106.836 0 0)
(1.03825 0 0)
(-110.473 0 0)
(5.10362 0 0)
(49.1198 0 0)
(-49.3515 0 0)
(23.4808 0 0)
(109.632 0 0)
(26.377 0 0)
(-86.0035 0 0)
(-24.1515 0 0)
(78.0636 0 0)
(146.947 0 0)
(-31.4271 0 0)
(-158.491 0 0)
(-116.48 0 0)
(-80.1367 0 0)
(-12.989 0 0)
(88.467 0 0)
(84.7909 0 0)
(-34.3451 0 0)
(42.1334 0 0)
(124.892 0 0)
(-53.0346 0 0)
(-60.2623 0 0)
(71.8458 0 0)
(44.0067 0 0)
(-77.7553 0 0)
(-2.22298 0 0)
(76.4878 0 0)
(-9.74975 0 0)
(-54.6771 0 0)
(48.9465 0 0)
(66.3887 0 0)
(-70.5733 0 0)
(-24.0804 0 0)
(55.939 0 0)
(19.415 0 0)
(-51.2274 0 0)
(3.6234 0 0)
(63.7766 0 0)
(4.61699 0 0)
(-48.3676 0 0)
(9.84037 0 0)
(62.2876 0 0)
(9.83314 0 0)
(-44.8951 0 0)
(-7.14971 0 0)
(71.7233 0 0)
(29.1514 0 0)
(-67.6609 0 0)
(-29.5597 0 0)
(79.2404 0 0)
(87.2163 0 0)
(-27.5457 0 0)
(-96.9833 0 0)
(-18.0679 0 0)
(126.46 0 0)
(88.3243 0 0)
(-70.2296 0 0)
(-101.51 0 0)
(-14.0279 0 0)
(115.267 0 0)
(95.9408 0 0)
(-54.8996 0 0)
(-108.147 0 0)
(-48.8033 0 0)
(46.6906 0 0)
(76.8221 0 0)
(0.596666 0 0)
(-73.2157 0 0)
(-48.2097 0 0)
(-20.5014 0 0)
(6.25935 0 0)
(16.3716 0 0)
(-16.1045 0 0)
(-4.61504 0 0)
(36.232 0 0)
(30.2667 0 0)
(4.67703 0 0)
(11.808 0 0)
(35.6878 0 0)
(20.8687 0 0)
(2.76625 0 0)
(17.8202 0 0)
(23.529 0 0)
(4.59559 0 0)
(-0.56706 0 0)
(24.5067 0 0)
(7.09019 0 0)
(-7.00393 0 0)
(12.7305 0 0)
(21.2053 0 0)
(-1.26846 0 0)
(-6.30423 0 0)
(20.2819 0 0)
(18.1623 0 0)
(-12.3546 0 0)
(1.64867 0 0)
(24.4835 0 0)
(3.95723 0 0)
(-6.7315 0 0)
(11.9001 0 0)
(14.5447 0 0)
(-3.37767 0 0)
(7.7504 0 0)
(16.1313 0 0)
(3.82275 0 0)
(-3.47049 0 0)
(23.347 0 0)
(10.9615 0 0)
(-11.2994 0 0)
(13.3818 0 0)
(24.7981 0 0)
(0.778305 0 0)
(-9.19804 0 0)
(28.469 0 0)
(17.2886 0 0)
(-14.5651 0 0)
(12.7335 0 0)
(26.6959 0 0)
(1.25553 0 0)
(-9.03588 0 0)
(23.6945 0 0)
(18.3322 0 0)
(-11.2466 0 0)
(12.2073 0 0)
(26.849 0 0)
(2.60538 0 0)
(-7.30703 0 0)
(27.0372 0 0)
(22.6328 0 0)
(-14.9594 0 0)
(-0.0922255 0 0)
(34.2288 0 0)
(7.51217 0 0)
(-11.879 0 0)
(17.1846 0 0)
(30.8897 0 0)
(0.136011 0 0)
(-8.49274 0 0)
(40.3534 0 0)
(20.3354 0 0)
(-22.7188 0 0)
(15.8737 0 0)
(42.5577 0 0)
(2.9388 0 0)
(-16.302 0 0)
(22.4086 0 0)
(34.4437 0 0)
(-13.0531 0 0)
(-4.84043 0 0)
(35.5989 0 0)
(9.67559 0 0)
(-14.8282 0 0)
(14.3479 0 0)
(27.3535 0 0)
(7.79426 0 0)
(-4.7375 0 0)
(39.3484 0 0)
(21.6333 0 0)
(-14.2839 0 0)
(23.9061 0 0)
(43.5912 0 0)
(-10.7267 0 0)
(-14.971 0 0)
(45.8478 0 0)
(24.7148 0 0)
(-19.3806 0 0)
(12.0685 0 0)
(27.0288 0 0)
(3.95819 0 0)
(-2.05429 0 0)
(28.1311 0 0)
(16.7117 0 0)
(8.83554 0 0)
(22.3675 0 0)
(26.9889 0 0)
(8.25407 0 0)
(16.0913 0 0)
(24.5972 0 0)
(16.2614 0 0)
(9.83628 0 0)
(23.5858 0 0)
(17.7642 0 0)
(8.53733 0 0)
(19.7495 0 0)
(22.1068 0 0)
(3.28419 0 0)
(12.9003 0 0)
(25.5593 0 0)
(16.9922 0 0)
(14.0258 0 0)
(27.5864 0 0)
(23.9058 0 0)
(17.7555 0 0)
(26.9266 0 0)
(32.1215 0 0)
(17.9622 0 0)
(12.2544 0 0)
(21.2708 0 0)
(14.6233 0 0)
(11.92 0 0)
(32.5527 0 0)
(23.0086 0 0)
(5.24515 0 0)
(12.9543 0 0)
(20.7703 0 0)
(20.7164 0 0)
(27.4516 0 0)
(38.01 0 0)
(32.4968 0 0)
(17.2093 0 0)
(16.1087 0 0)
(23.0015 0 0)
(24.1216 0 0)
(27.2995 0 0)
(34.1131 0 0)
(29.2122 0 0)
(24.5259 0 0)
(32.0464 0 0)
(36.0033 0 0)
(28.4446 0 0)
(30.2492 0 0)
(26.1486 0 0)
(8.12709 0 0)
(13.0329 0 0)
(27.5389 0 0)
(31.1044 0 0)
(38.8506 0 0)
(53.1684 0 0)
(39.3581 0 0)
(22.8915 0 0)
(28.6062 0 0)
(28.4967 0 0)
(24.3327 0 0)
(44.2097 0 0)
(60.2271 0 0)
(47.6327 0 0)
(43.8803 0 0)
(43.5723 0 0)
(21.7237 0 0)
(10.5836 0 0)
(25.3029 0 0)
(40.816 0 0)
(43.2716 0 0)
(53.5174 0 0)
(72.235 0 0)
(52.664 0 0)
(31.1162 0 0)
(46.0608 0 0)
(24.0247 0 0)
(12.8472 0 0)
(42.7982 0 0)
(66.6986 0 0)
(68.2418 0 0)
(77.8357 0 0)
(100.798 0 0)
(90.4605 0 0)
(59.8892 0 0)
(46.6443 0 0)
(35.6429 0 0)
(14.448 0 0)
(18.8998 0 0)
(32.0906 0 0)
(101.776 0 0)
(115.647 0 0)
(104.722 0 0)
(76.4782 0 0)
(61.8772 0 0)
(43.1644 0 0)
(16.8567 0 0)
(16.2776 0 0)
(30.2932 0 0)
(112.268 0 0)
(171.252 0 0)
(174.603 0 0)
(153.617 0 0)
(98.7991 0 0)
(58.9912 0 0)
(39.3553 0 0)
(37.571 0 0)
(63.2678 0 0)
(117.907 0 0)
(168.013 0 0)
(175.897 0 0)
(167.989 0 0)
(167.276 0 0)
(129.956 0 0)
(80.4131 0 0)
(51.2546 0 0)
(38.2054 0 0)
(24.4353 0 0)
(44.718 0 0)
(109.315 0 0)
(277.235 0 0)
(317.91 0 0)
(326.427 0 0)
(312.329 0 0)
(298.82 0 0)
(248.552 0 0)
(166.27 0 0)
(108.974 0 0)
(84.7089 0 0)
(59.9685 0 0)
(38.079 0 0)
(73.2755 0 0)
(208.773 0 0)
(557.792 0 0)
(610.123 0 0)
(596.448 0 0)
(554.238 0 0)
(478.349 0 0)
(379.364 0 0)
(267.852 0 0)
(177.477 0 0)
(112.059 0 0)
(55.5966 0 0)
(77.1712 0 0)
(133.342 0 0)
(162.837 0 0)
(891.314 0 0)
(1459.96 0 0)
(1550.48 0 0)
(1555.44 0 0)
(1448.83 0 0)
(1301.1 0 0)
(1176.15 0 0)
(965.611 0 0)
(749.032 0 0)
(470.095 0 0)
(354.513 0 0)
(326.673 0 0)
(-1.62672 0 0)
(-162.362 0 0)
(174.745 0 0)
(-143.043 0 0)
(801.403 0 0)
(1697.23 0 0)
(14664.8 0 0)
(40017.6 0 0)
(148442 0 0)
(153556 0 0)
(141363 0 0)
(126783 0 0)
(113103 0 0)
(99363.1 0 0)
(85984 0 0)
(73470.6 0 0)
(61936.3 0 0)
(51815.7 0 0)
(43282 0 0)
(35592.2 0 0)
(28678.9 0 0)
(23055 0 0)
(18676 0 0)
(14915.3 0 0)
(11544.7 0 0)
(8833.73 0 0)
(6855.8 0 0)
(5374.44 0 0)
(4022.86 0 0)
(2939.17 0 0)
(2369.63 0 0)
(1680.98 0 0)
(959.919 0 0)
(675.486 0 0)
(759.772 0 0)
(656.242 0 0)
(185.192 0 0)
(-116.153 0 0)
(-50.7532 0 0)
(185.788 0 0)
(277.039 0 0)
(83.0173 0 0)
(-80.884 0 0)
(-33.4474 0 0)
(17.7053 0 0)
(27.9119 0 0)
(-18.685 0 0)
(-114.208 0 0)
(-97.2339 0 0)
(-42.8947 0 0)
(-41.9801 0 0)
(-103.395 0 0)
(-112.245 0 0)
(-84.4613 0 0)
(-35.8179 0 0)
(-18.199 0 0)
(-68.9843 0 0)
(-67.9146 0 0)
(-47.9649 0 0)
(16.4753 0 0)
(71.0488 0 0)
(-46.3433 0 0)
(-75.2165 0 0)
(5.30225 0 0)
(104.943 0 0)
(0.807217 0 0)
(-141.37 0 0)
(-74.2038 0 0)
(169.547 0 0)
(219.334 0 0)
(-378.565 0 0)
(-513.149 0 0)
(-321.895 0 0)
(985.879 0 0)
(882.803 0 0)
(-1609.47 0 0)
(-444.497 0 0)
(1861.9 0 0)
(470.251 0 0)
(-1205.38 0 0)
(-606.864 0 0)
(-393.423 0 0)
(-370.124 0 0)
(-260.919 0 0)
(-308.948 0 0)
(-377.976 0 0)
(-400.135 0 0)
(-370.713 0 0)
(-300.729 0 0)
(-293.423 0 0)
(-374.217 0 0)
(-435.65 0 0)
(-495.433 0 0)
(-438.75 0 0)
(-128.74 0 0)
(224.679 0 0)
(37.5205 0 0)
(-392.982 0 0)
(-513.958 0 0)
(122.525 0 0)
(752.954 0 0)
(244.662 0 0)
(-1186.29 0 0)
(-2489.39 0 0)
(-2784.92 0 0)
(-3207.1 0 0)
(-3110.8 0 0)
(1383.7 0 0)
(6957.93 0 0)
(5509.06 0 0)
(2962.07 0 0)
(753.766 0 0)
(-521.313 0 0)
(-833.555 0 0)
(-861.539 0 0)
(-793.382 0 0)
(-673.468 0 0)
(-551.188 0 0)
(-460.824 0 0)
(-394.626 0 0)
(-258.869 0 0)
(-181.628 0 0)
(-164.276 0 0)
(-77.5504 0 0)
(-50.1686 0 0)
(-42.3073 0 0)
(-6.76593 0 0)
(-52.6022 0 0)
(-33.6076 0 0)
(153.917 0 0)
(5.36403 0 0)
(-263.293 0 0)
(239.476 0 0)
(168.769 0 0)
(-524.263 0 0)
)
;

boundaryField
{
    sides
    {
        type            calculated;
        value           nonuniform List<vector> 2((-524.263 0 0) (1216.77 0 0));
    }
    empty
    {
        type            empty;
    }
}


// ************************************************************************* //
