/*--------------------------------*- C++ -*----------------------------------*\
  =========                 |
  \\      /  F ield         | OpenFOAM: The Open Source CFD Toolbox
   \\    /   O peration     | Website:  https://openfoam.org
    \\  /    A nd           | Version:  9
     \\/     M anipulation  |
\*---------------------------------------------------------------------------*/
FoamFile
{
    format      ascii;
    class       surfaceScalarField;
    location    "0.013";
    object      phi_0;
}
// * * * * * * * * * * * * * * * * * * * * * * * * * * * * * * * * * * * * * //

dimensions      [1 0 -1 0 0 0 0];

internalField   nonuniform List<scalar> 
999
(
0.958333
1.47146
2.04779
2.70543
3.45992
4.32425
5.30825
6.41825
7.65687
9.02305
10.5123
12.1173
13.8282
15.6339
17.5221
19.4807
21.4981
23.5638
25.6686
27.8046
29.9654
32.1454
34.3401
36.5459
38.7599
40.9796
43.203
45.4285
47.6548
49.8809
52.1057
54.3286
56.549
58.7663
60.9801
63.1902
65.3961
67.5977
69.7947
71.987
74.1745
76.357
78.5343
80.7066
82.8736
85.0352
87.1916
89.3425
91.4879
93.6279
95.7623
97.8911
100.014
102.132
104.244
106.35
108.451
110.546
112.635
114.718
116.795
118.867
120.932
122.992
125.046
127.093
129.135
131.171
133.2
135.224
137.241
139.252
141.257
143.256
145.248
147.235
149.215
151.188
153.155
155.116
157.071
159.019
160.961
162.896
164.824
166.747
168.662
170.572
172.474
174.37
176.26
178.143
180.019
181.889
183.752
185.609
187.459
189.303
191.139
192.97
194.793
196.61
198.42
200.224
202.021
203.812
205.595
207.373
209.143
210.907
212.664
214.415
216.159
217.896
219.627
221.351
223.069
224.78
226.484
228.182
229.874
231.558
233.236
234.908
236.573
238.231
239.883
241.529
243.168
244.8
246.426
248.046
249.658
251.265
252.865
254.458
256.046
257.626
259.2
260.768
262.33
263.885
265.433
266.976
268.511
270.041
271.564
273.081
274.592
276.096
277.594
279.085
280.571
282.05
283.523
284.989
286.45
287.904
289.352
290.794
292.229
293.659
295.082
296.499
297.91
299.315
300.713
302.106
303.492
304.873
306.247
307.616
308.978
310.334
311.684
313.028
314.367
315.699
317.025
318.345
319.66
320.968
322.271
323.567
324.858
326.143
327.422
328.695
329.962
331.223
332.479
333.729
334.973
336.211
337.443
338.67
339.891
341.106
342.315
343.519
344.717
345.91
347.096
348.277
349.453
350.622
351.786
352.945
354.098
355.245
356.387
357.523
358.654
359.779
360.898
362.012
363.121
364.224
365.321
366.414
367.5
368.582
369.657
370.728
371.793
372.852
373.907
374.955
375.999
377.037
378.07
379.098
380.12
381.137
382.149
383.155
384.156
385.152
386.143
387.128
388.109
389.084
390.054
391.018
391.978
392.932
393.882
394.826
395.765
396.699
397.628
398.552
399.471
400.384
401.293
402.197
403.095
403.989
404.878
405.762
406.64
407.514
408.383
409.247
410.106
410.96
411.81
412.654
413.494
414.328
415.159
415.982
416.804
417.617
418.431
419.232
420.039
420.829
421.628
422.407
423.195
423.97
424.74
425.516
426.265
427.043
427.776
428.544
429.277
430.017
430.765
431.474
432.225
432.93
433.649
434.376
435.059
435.786
436.475
437.16
437.875
438.535
439.226
439.915
440.56
441.252
441.911
442.551
443.234
443.869
444.504
445.173
445.789
446.417
447.072
447.671
448.291
448.931
449.517
450.124
450.752
451.326
451.917
452.534
453.098
453.671
454.277
454.834
455.387
455.98
456.535
457.067
457.643
458.198
458.713
459.265
459.822
460.328
460.85
461.403
461.91
462.404
462.939
463.455
463.93
464.435
464.956
465.43
465.899
466.408
466.895
467.342
467.817
468.312
468.763
469.2
469.676
470.144
470.568
471.003
471.471
471.91
472.315
472.748
473.2
473.613
474.006
474.432
474.865
475.256
475.638
476.054
476.468
476.841
477.211
477.614
478.012
478.368
478.725
479.114
479.496
479.839
480.18
480.553
480.922
481.254
481.578
481.932
482.29
482.612
482.919
483.253
483.599
483.914
484.205
484.516
484.848
485.16
485.439
485.725
486.039
486.346
486.619
486.883
487.172
487.472
487.745
487.992
488.252
488.536
488.81
489.052
489.285
489.543
489.812
490.057
490.275
490.501
490.752
490.999
491.216
491.418
491.637
491.874
492.099
492.293
492.481
492.69
492.911
493.114
493.29
493.465
493.66
493.865
494.049
494.207
494.367
494.548
494.736
494.902
495.044
495.188
495.353
495.525
495.676
495.802
495.93
496.077
496.231
496.369
496.483
496.592
496.717
496.857
496.985
497.084
497.174
497.28
497.403
497.516
497.606
497.682
497.766
497.865
497.968
498.052
498.114
498.175
498.251
498.339
498.418
498.471
498.511
498.564
498.635
498.704
498.752
498.781
498.811
498.858
498.916
498.961
498.985
498.998
499.021
499.061
499.103
499.127
499.132
499.136
499.154
499.185
499.214
499.222
499.212
499.209
499.228
499.255
499.269
499.26
499.245
499.246
499.265
499.283
499.283
499.273
499.258
499.258
499.274
499.283
499.282
499.278
499.269
499.261
499.267
499.271
499.273
499.273
499.269
499.266
499.265
499.264
499.265
499.265
499.267
499.262
499.259
499.262
499.257
499.256
499.262
499.26
499.249
499.25
499.259
499.257
499.252
499.258
499.255
499.245
499.244
499.252
499.253
499.245
499.232
499.236
499.25
499.256
499.261
499.261
499.252
499.245
499.25
499.246
499.234
499.24
499.245
499.237
499.234
499.242
499.24
499.233
499.235
499.24
499.234
499.228
499.235
499.236
499.23
499.229
499.234
499.233
499.226
499.227
499.231
499.229
499.223
499.223
499.227
499.227
499.22
499.218
499.225
499.227
499.218
499.211
499.215
499.223
499.224
499.211
499.204
499.212
499.219
499.219
499.208
499.2
499.206
499.214
499.217
499.212
499.205
499.205
499.212
499.214
499.215
499.214
499.212
499.214
499.214
499.211
499.208
499.208
499.207
499.203
499.202
499.201
499.2
499.197
499.197
499.197
499.194
499.193
499.194
499.192
499.19
499.19
499.19
499.188
499.186
499.187
499.186
499.184
499.183
499.184
499.182
499.18
499.181
499.179
499.178
499.177
499.177
499.174
499.173
499.174
499.172
499.17
499.169
499.17
499.167
499.165
499.166
499.164
499.161
499.161
499.162
499.159
499.157
499.158
499.156
499.153
499.153
499.153
499.15
499.147
499.149
499.148
499.145
499.144
499.145
499.143
499.139
499.139
499.139
499.135
499.133
499.135
499.132
499.128
499.127
499.128
499.126
499.122
499.123
499.123
499.119
499.118
499.119
499.117
499.114
499.113
499.113
499.108
499.106
499.107
499.103
499.099
499.099
499.1
499.095
499.093
499.094
499.092
499.089
499.089
499.089
499.085
499.083
499.082
499.079
499.075
499.074
499.072
499.068
499.066
499.065
499.062
499.059
499.058
499.055
499.053
499.052
499.05
499.047
499.045
499.043
499.039
499.036
499.034
499.03
499.026
499.023
499.022
499.019
499.017
499.015
499.011
499.008
499.007
499.005
499.003
499
498.996
498.991
498.987
498.984
498.982
498.979
498.976
498.972
498.967
498.963
498.96
498.956
498.951
498.947
498.943
498.939
498.938
498.936
498.933
498.928
498.923
498.916
498.91
498.907
498.903
498.9
498.896
498.89
498.882
498.875
498.869
498.864
498.861
498.859
498.856
498.85
498.844
498.837
498.827
498.82
498.816
498.81
498.807
498.805
498.799
498.79
498.781
498.77
498.756
498.744
498.736
498.73
498.725
498.723
498.72
498.716
498.702
498.687
498.672
498.662
498.653
498.648
498.646
498.643
498.639
498.623
498.6
498.577
498.556
498.542
498.534
498.529
498.524
498.515
498.499
498.476
498.452
498.429
498.406
498.389
498.378
498.371
498.366
498.362
498.356
498.341
498.303
498.26
498.215
498.172
498.132
498.099
498.075
498.06
498.049
498.041
498.036
498.025
497.995
497.92
497.837
497.756
497.68
497.615
497.563
497.526
497.502
497.487
497.479
497.468
497.449
497.423
497.3
497.103
496.893
496.682
496.483
496.304
496.143
496.012
495.909
495.84
495.79
495.748
495.743
495.751
495.704
495.685
495.494
495.151
492.786
487.035
467.085
446.605
427.474
410.085
394.546
380.911
369.121
359.045
350.542
343.427
337.5
332.633
328.697
325.526
322.969
320.937
319.356
318.136
317.191
316.458
315.909
315.507
315.189
314.963
314.822
314.719
314.624
314.551
314.524
314.521
314.515
314.495
314.472
314.467
314.474
314.475
314.473
314.472
314.477
314.491
314.502
314.509
314.517
314.53
314.541
314.551
314.556
314.559
314.567
314.572
314.576
314.573
314.566
314.57
314.573
314.569
314.556
314.553
314.556
314.55
314.525
314.496
314.515
314.521
314.51
314.39
314.295
314.417
314.379
314.171
314.13
314.185
314.133
314.068
313.994
313.898
313.802
313.706
313.603
313.497
313.386
313.273
313.169
313.068
312.981
312.898
312.799
312.685
312.603
312.557
312.539
312.488
312.404
312.361
312.407
312.55
312.703
312.902
313.115
312.988
312.452
312.133
311.964
311.93
311.97
312.018
312.07
312.118
312.159
312.193
312.222
312.248
312.266
312.279
312.29
312.295
312.298
312.299
312.292
312.292
312.297
312.282
312.279
312.309
312.288
312.261
)
;

boundaryField
{
    sides
    {
        type            calculated;
        value           nonuniform List<scalar> 2(312.309 -0.496419);
    }
    empty
    {
        type            empty;
        value           nonuniform List<scalar> 0();
    }
}


// ************************************************************************* //
