/*--------------------------------*- C++ -*----------------------------------*\
  =========                 |
  \\      /  F ield         | OpenFOAM: The Open Source CFD Toolbox
   \\    /   O peration     | Website:  https://openfoam.org
    \\  /    A nd           | Version:  9
     \\/     M anipulation  |
\*---------------------------------------------------------------------------*/
FoamFile
{
    format      ascii;
    class       volScalarField;
    location    "0.013";
    object      rho;
}
// * * * * * * * * * * * * * * * * * * * * * * * * * * * * * * * * * * * * * //

dimensions      [1 -3 0 0 0 0 0];

internalField   nonuniform List<scalar> 
1000
(
0.996344
0.996157
0.995909
0.995574
0.995151
0.994636
0.994027
0.993322
0.992523
0.991631
0.990652
0.989589
0.988451
0.987246
0.98598
0.984664
0.983304
0.981907
0.980481
0.97903
0.977559
0.976072
0.974571
0.97306
0.971539
0.970012
0.968479
0.966941
0.965399
0.963854
0.962307
0.960758
0.959207
0.957656
0.956103
0.95455
0.952997
0.951443
0.94989
0.948336
0.946783
0.94523
0.943677
0.942124
0.940572
0.939021
0.93747
0.935919
0.93437
0.93282
0.931272
0.929724
0.928177
0.926631
0.925085
0.92354
0.921996
0.920453
0.918911
0.917369
0.915829
0.914289
0.912751
0.911213
0.909677
0.908141
0.906607
0.905073
0.903541
0.90201
0.90048
0.898952
0.897424
0.895898
0.894373
0.892849
0.891327
0.889806
0.888286
0.886768
0.885251
0.883736
0.882222
0.88071
0.879199
0.877689
0.876182
0.874675
0.873171
0.871667
0.870166
0.868666
0.867168
0.865671
0.864176
0.862683
0.861191
0.859701
0.858213
0.856726
0.855241
0.853758
0.852277
0.850797
0.849319
0.847843
0.846369
0.844897
0.843426
0.841957
0.84049
0.839025
0.837561
0.8361
0.83464
0.833182
0.831726
0.830271
0.828819
0.827368
0.82592
0.824473
0.823028
0.821585
0.820143
0.818704
0.817266
0.815831
0.814397
0.812965
0.811535
0.810107
0.80868
0.807256
0.805834
0.804413
0.802994
0.801577
0.800162
0.798749
0.797338
0.795929
0.794522
0.793116
0.791713
0.790311
0.788911
0.787513
0.786117
0.784723
0.783331
0.781941
0.780553
0.779166
0.777782
0.776399
0.775018
0.77364
0.772263
0.770888
0.769514
0.768143
0.766774
0.765407
0.764041
0.762677
0.761316
0.759956
0.758598
0.757242
0.755888
0.754536
0.753185
0.751837
0.75049
0.749146
0.747803
0.746462
0.745123
0.743786
0.742451
0.741118
0.739787
0.738457
0.737129
0.735804
0.73448
0.733158
0.731838
0.73052
0.729204
0.727889
0.726577
0.725266
0.723957
0.72265
0.721345
0.720042
0.718741
0.717442
0.716144
0.714848
0.713555
0.712263
0.710973
0.709685
0.708398
0.707114
0.705831
0.704551
0.703272
0.701995
0.70072
0.699446
0.698175
0.696905
0.695638
0.694372
0.693108
0.691846
0.690585
0.689327
0.68807
0.686816
0.685563
0.684312
0.683062
0.681815
0.680569
0.679326
0.678084
0.676844
0.675606
0.674369
0.673135
0.671902
0.670671
0.669442
0.668215
0.666989
0.665766
0.664544
0.663324
0.662106
0.66089
0.659675
0.658462
0.657252
0.656042
0.654835
0.65363
0.652426
0.651224
0.650024
0.648826
0.64763
0.646435
0.645242
0.644051
0.642862
0.641675
0.640489
0.639305
0.638123
0.636943
0.635765
0.634588
0.633414
0.63224
0.63107
0.629898
0.628735
0.627561
0.62641
0.625226
0.624098
0.622892
0.621801
0.620558
0.619516
0.618231
0.617231
0.615927
0.614928
0.613663
0.612597
0.611435
0.610257
0.609209
0.607957
0.606933
0.605731
0.604606
0.603538
0.60231
0.601283
0.600108
0.598967
0.597927
0.596711
0.595657
0.594552
0.593364
0.592347
0.591185
0.590055
0.589029
0.587846
0.586763
0.585716
0.584535
0.583481
0.582418
0.581245
0.58021
0.579136
0.577976
0.576948
0.575875
0.574722
0.573698
0.572632
0.571486
0.570459
0.569408
0.568267
0.567231
0.566201
0.565068
0.564017
0.563006
0.56189
0.560818
0.559821
0.558733
0.557639
0.556643
0.555593
0.554487
0.553471
0.552462
0.551365
0.550316
0.54933
0.548269
0.547188
0.546196
0.545184
0.5441
0.543071
0.542093
0.541046
0.539979
0.538993
0.537999
0.536935
0.535904
0.534937
0.533921
0.532862
0.531866
0.5309
0.529869
0.528828
0.527856
0.526884
0.52585
0.524829
0.523871
0.522895
0.521864
0.52086
0.519912
0.518936
0.517911
0.516921
0.51598
0.515008
0.513992
0.513011
0.512076
0.511112
0.510106
0.50913
0.508201
0.507249
0.506254
0.505281
0.504356
0.503418
0.502436
0.501464
0.50054
0.499619
0.498654
0.497683
0.496757
0.49585
0.494907
0.493941
0.493008
0.492111
0.491193
0.49024
0.4893
0.488403
0.48751
0.486579
0.485638
0.484733
0.483855
0.482955
0.482026
0.48111
0.480233
0.479362
0.478459
0.477542
0.476655
0.475798
0.47493
0.474033
0.473136
0.472274
0.471432
0.470571
0.469685
0.468812
0.467972
0.467144
0.466294
0.465426
0.464575
0.463756
0.462946
0.462112
0.461263
0.460436
0.45964
0.458849
0.458037
0.457213
0.456409
0.455637
0.454872
0.454086
0.45329
0.452513
0.451767
0.45103
0.450281
0.449519
0.44877
0.448052
0.447355
0.446648
0.445922
0.445208
0.444529
0.443873
0.443211
0.442538
0.441871
0.441229
0.440618
0.440017
0.439406
0.438793
0.438201
0.437641
0.437105
0.436569
0.436023
0.435489
0.434991
0.434526
0.434068
0.433606
0.433148
0.432716
0.432321
0.431951
0.431582
0.431212
0.430856
0.430533
0.430246
0.429973
0.429697
0.429426
0.429177
0.428961
0.428773
0.428595
0.42841
0.428227
0.428074
0.427956
0.427855
0.427748
0.427633
0.427529
0.427456
0.427408
0.42736
0.427303
0.427246
0.427197
0.427171
0.427159
0.427142
0.427122
0.427102
0.427083
0.427072
0.427071
0.42707
0.427068
0.427064
0.427061
0.427059
0.42706
0.427061
0.427063
0.427064
0.427066
0.427064
0.427064
0.427067
0.427067
0.427069
0.427073
0.427074
0.427071
0.427073
0.427078
0.42708
0.42708
0.427085
0.427086
0.427084
0.427085
0.42709
0.427093
0.427093
0.42709
0.427092
0.427099
0.427104
0.427108
0.42711
0.427109
0.427108
0.427111
0.427111
0.427109
0.427111
0.427115
0.427114
0.427114
0.427118
0.427119
0.427118
0.427119
0.427122
0.427121
0.42712
0.427123
0.427124
0.427123
0.427123
0.427125
0.427126
0.427124
0.427124
0.427126
0.427127
0.427125
0.427125
0.427126
0.427127
0.427125
0.427124
0.427126
0.427127
0.427125
0.427122
0.427123
0.427125
0.427126
0.427123
0.42712
0.427121
0.427124
0.427125
0.427121
0.427118
0.427119
0.427123
0.427123
0.427122
0.427119
0.427119
0.427121
0.427122
0.427122
0.427122
0.427121
0.427121
0.427121
0.427119
0.427118
0.427118
0.427117
0.427115
0.427114
0.427114
0.427113
0.427112
0.427111
0.427111
0.427109
0.427108
0.427108
0.427107
0.427106
0.427105
0.427105
0.427104
0.427103
0.427102
0.427102
0.427101
0.4271
0.4271
0.427099
0.427098
0.427097
0.427096
0.427095
0.427094
0.427094
0.427092
0.427091
0.427091
0.42709
0.427088
0.427087
0.427087
0.427085
0.427084
0.427084
0.427083
0.427081
0.42708
0.42708
0.427079
0.427077
0.427077
0.427076
0.427074
0.427073
0.427073
0.427071
0.427069
0.427069
0.427069
0.427067
0.427066
0.427066
0.427064
0.427062
0.427061
0.42706
0.427058
0.427056
0.427056
0.427055
0.427052
0.427051
0.427051
0.427049
0.427047
0.427047
0.427046
0.427044
0.427043
0.427043
0.427042
0.42704
0.427039
0.427038
0.427035
0.427033
0.427032
0.42703
0.427027
0.427026
0.427026
0.427024
0.427022
0.427022
0.42702
0.427019
0.427018
0.427017
0.427015
0.427013
0.427011
0.427009
0.427007
0.427005
0.427003
0.427001
0.426999
0.426997
0.426995
0.426993
0.426991
0.42699
0.426988
0.426987
0.426985
0.426983
0.426981
0.426979
0.426976
0.426974
0.426971
0.426968
0.426965
0.426963
0.426961
0.42696
0.426958
0.426956
0.426953
0.42695
0.426949
0.426948
0.426946
0.426943
0.426939
0.426935
0.426932
0.42693
0.426928
0.426926
0.426923
0.426919
0.426916
0.426913
0.426909
0.426906
0.426902
0.426898
0.426895
0.426893
0.426892
0.42689
0.426887
0.426883
0.426878
0.426872
0.426868
0.426865
0.426863
0.42686
0.426856
0.426851
0.426844
0.426838
0.426833
0.426829
0.426827
0.426826
0.426823
0.426818
0.426813
0.426806
0.426798
0.426792
0.426788
0.426784
0.426782
0.426779
0.426774
0.426767
0.426758
0.426748
0.426737
0.426727
0.426719
0.426714
0.426711
0.42671
0.426707
0.426702
0.426689
0.426676
0.426664
0.426655
0.426648
0.426645
0.426643
0.42664
0.426635
0.42662
0.426599
0.426579
0.426562
0.426551
0.426546
0.426542
0.426537
0.426528
0.426513
0.426493
0.426472
0.426451
0.426433
0.426419
0.42641
0.426405
0.426401
0.426398
0.426392
0.426374
0.426341
0.426303
0.426264
0.426227
0.426194
0.426167
0.426148
0.426136
0.426129
0.426123
0.426118
0.426108
0.426072
0.426005
0.425934
0.425864
0.425801
0.425747
0.425706
0.425677
0.425659
0.425648
0.425641
0.425633
0.425616
0.425582
0.425459
0.425285
0.425106
0.424927
0.424757
0.424606
0.424474
0.424369
0.424289
0.424232
0.424197
0.424165
0.424152
0.424157
0.424156
0.424101
0.423949
0.423167
0.421203
0.413183
0.395928
0.378586
0.362495
0.347898
0.334922
0.323584
0.31381
0.305481
0.298461
0.292604
0.287752
0.283775
0.280555
0.277966
0.275896
0.274255
0.272975
0.271985
0.271223
0.270639
0.2702
0.269876
0.269632
0.269455
0.269335
0.26925
0.269185
0.269136
0.26911
0.269099
0.26909
0.269081
0.26907
0.269068
0.269069
0.26907
0.26907
0.269071
0.269078
0.269088
0.269098
0.269106
0.269114
0.269123
0.269133
0.269141
0.269147
0.269151
0.269157
0.269163
0.269167
0.26917
0.26917
0.269174
0.269181
0.269187
0.26919
0.269196
0.269209
0.269222
0.269233
0.269244
0.269277
0.269325
0.269374
0.269386
0.269399
0.269507
0.269614
0.269661
0.269752
0.26993
0.270081
0.270272
0.270455
0.270653
0.270875
0.271108
0.271352
0.271608
0.271862
0.272123
0.272365
0.27261
0.27284
0.273058
0.273236
0.273392
0.273542
0.273693
0.273836
0.273942
0.274007
0.274078
0.274158
0.274254
0.274354
0.274443
0.274551
0.274548
0.274401
0.274274
0.274209
0.274194
0.274204
0.274222
0.274241
0.274259
0.274274
0.274287
0.274299
0.274311
0.27432
0.274326
0.27433
0.274331
0.274331
0.274329
0.274325
0.274322
0.274319
0.274315
0.274313
0.274316
0.274312
0.274312
)
;

boundaryField
{
    sides
    {
        type            calculated;
        value           nonuniform List<scalar> 2(0.274312 0.996344);
    }
    empty
    {
        type            empty;
    }
}


// ************************************************************************* //
