/*--------------------------------*- C++ -*----------------------------------*\
  =========                 |
  \\      /  F ield         | OpenFOAM: The Open Source CFD Toolbox
   \\    /   O peration     | Website:  https://openfoam.org
    \\  /    A nd           | Version:  9
     \\/     M anipulation  |
\*---------------------------------------------------------------------------*/
FoamFile
{
    format      ascii;
    class       volScalarField;
    location    "0.015";
    object      mag(U);
}
// * * * * * * * * * * * * * * * * * * * * * * * * * * * * * * * * * * * * * //

dimensions      [0 1 -1 0 0 0 0];

internalField   nonuniform List<scalar> 
100
(
36.7552
46.4538
51.7217
57.2394
62.6522
68.0638
73.4666
78.861
84.2406
89.6044
94.9562
100.301
105.641
110.977
116.309
121.639
126.966
132.293
137.619
142.945
148.272
153.6
158.93
164.261
169.594
174.93
180.269
185.61
190.955
196.302
201.652
207.004
212.359
217.716
223.074
228.433
233.792
239.148
244.502
249.85
255.19
260.519
265.83
271.107
276.305
281.327
285.915
289.591
291.982
292.953
293.092
292.984
293.141
293.532
293.693
293.772
293.777
293.695
293.616
293.598
293.614
293.627
293.645
293.664
293.638
293.522
293.428
293.413
293.42
293.43
293.443
293.462
293.454
293.377
293.304
293.279
293.276
293.266
293.258
293.274
293.298
293.25
293.159
293.113
293.079
293.031
293.005
293.028
293.092
293.264
293.704
293.664
291.915
289.579
285.036
281.176
287.627
291.302
290.804
285.017
)
;

boundaryField
{
    sides
    {
        type            calculated;
        value           nonuniform List<scalar> 2(285.017 36.7552);
    }
    empty
    {
        type            empty;
    }
}


// ************************************************************************* //
