/*--------------------------------*- C++ -*----------------------------------*\
  =========                 |
  \\      /  F ield         | OpenFOAM: The Open Source CFD Toolbox
   \\    /   O peration     | Website:  https://openfoam.org
    \\  /    A nd           | Version:  9
     \\/     M anipulation  |
\*---------------------------------------------------------------------------*/
FoamFile
{
    format      ascii;
    class       volScalarField;
    location    "0.015";
    object      p;
}
// * * * * * * * * * * * * * * * * * * * * * * * * * * * * * * * * * * * * * //

dimensions      [1 -1 -2 0 0 0 0];

internalField   nonuniform List<scalar> 
100
(
87126.4
83945.5
82226
80469.7
78785.9
77142.5
75540.1
73972.7
72436.5
70929.2
69450.4
67999.9
66577.2
65181.4
63811.6
62467.1
61147.4
59851.9
58580.2
57331.6
56105.7
54902.1
53720.4
52560.1
51420.8
50302.3
49204.2
48126
47067.7
46028.8
45009
44008.2
43026.1
42062.5
41117.1
40190
39280.9
38389.7
37516.5
36661.1
35823.7
35004.5
34204.2
33424.8
32670.9
31958.8
31319.9
30807.6
30493.5
30362.8
30339.2
30349.6
30328.1
30278.2
30260.2
30251.4
30248.7
30257.4
30266
30267.7
30268.6
30269.2
30266.8
30263
30263.9
30279.1
30290.4
30294.9
30295.6
30294.2
30291.2
30287.8
30287.4
30298.4
30310.5
30314.4
30315
30315.6
30314.2
30312
30308.6
30315.3
30329.1
30336
30339.4
30345.6
30348.7
30345.2
30337.1
30316.6
30264.9
30287.9
30562.4
31030
30950.6
30687
31411.7
31775.5
31705.2
31061.1
)
;

boundaryField
{
    sides
    {
        type            zeroGradient;
    }
    empty
    {
        type            empty;
    }
}


// ************************************************************************* //
