/*--------------------------------*- C++ -*----------------------------------*\
  =========                 |
  \\      /  F ield         | OpenFOAM: The Open Source CFD Toolbox
   \\    /   O peration     | Website:  https://openfoam.org
    \\  /    A nd           | Version:  9
     \\/     M anipulation  |
\*---------------------------------------------------------------------------*/
FoamFile
{
    format      ascii;
    class       surfaceScalarField;
    location    "0.012";
    object      phi;
}
// * * * * * * * * * * * * * * * * * * * * * * * * * * * * * * * * * * * * * //

dimensions      [1 0 -1 0 0 0 0];

internalField   nonuniform List<scalar> 
999
(
0.0147967
0.0232425
0.0328278
0.0439911
0.0572141
0.0730377
0.0920734
0.115015
0.142652
0.175878
0.215706
0.263274
0.319856
0.38687
0.465883
0.558611
0.666924
0.792838
0.93851
1.10623
1.2984
1.51751
1.76616
2.04695
2.36253
2.71553
3.10855
3.54407
4.02451
4.5521
5.12893
5.75685
6.43751
7.17229
7.96234
8.80849
9.71133
10.6711
11.688
12.7615
13.8914
15.0767
16.3166
17.61
18.9554
20.3514
21.7964
23.2888
24.8266
26.408
28.0311
29.694
31.3947
33.1312
34.9018
36.7043
38.5371
40.3983
42.2861
44.1987
46.1347
48.0924
50.0702
52.0667
54.0806
56.1105
58.1551
60.2133
62.2838
64.3658
66.4581
68.5597
70.6698
72.7876
74.9121
77.0426
79.1785
81.3191
83.4636
85.6116
87.7624
89.9155
92.0704
94.2266
96.3837
98.5412
100.699
102.856
105.013
107.168
109.323
111.475
113.626
115.774
117.92
120.064
122.204
124.341
126.475
128.606
130.732
132.855
134.973
137.088
139.197
141.303
143.403
145.499
147.59
149.675
151.756
153.831
155.901
157.965
160.023
162.076
164.123
166.164
168.199
170.229
172.252
174.268
176.279
178.283
180.281
182.272
184.257
186.236
188.208
190.173
192.131
194.083
196.028
197.967
199.898
201.823
203.741
205.652
207.556
209.453
211.343
213.226
215.102
216.971
218.833
220.688
222.535
224.376
226.21
228.036
229.855
231.668
233.473
235.271
237.061
238.845
240.621
242.39
244.152
245.907
247.655
249.395
251.128
252.854
254.573
256.285
257.989
259.686
261.376
263.059
264.735
266.404
268.065
269.719
271.366
273.006
274.638
276.264
277.882
279.494
281.098
282.695
284.284
285.867
287.443
289.011
290.573
292.127
293.674
295.215
296.748
298.274
299.793
301.305
302.81
304.308
305.799
307.283
308.761
310.231
311.694
313.15
314.6
316.042
317.478
318.906
320.328
321.743
323.151
324.552
325.947
327.334
328.715
330.089
331.456
332.817
334.17
335.517
336.858
338.191
339.518
340.838
342.152
343.458
344.759
346.052
347.339
348.619
349.893
351.16
352.421
353.675
354.922
356.163
357.398
358.626
359.847
361.062
362.271
363.473
364.668
365.858
367.041
368.217
369.387
370.551
371.709
372.86
374.005
375.143
376.275
377.401
378.521
379.635
380.742
381.843
382.938
384.027
385.109
386.186
387.256
388.32
389.378
390.43
391.476
392.516
393.55
394.578
395.6
396.615
397.625
398.629
399.627
400.619
401.605
402.585
403.559
404.528
405.49
406.447
407.398
408.342
409.282
410.215
411.143
412.064
412.981
413.89
414.797
415.693
416.59
417.473
418.36
419.23
420.107
420.966
421.83
422.681
423.53
424.375
425.206
426.047
426.862
427.694
428.499
429.316
430.117
430.915
431.711
432.496
433.281
434.057
434.829
435.596
436.356
437.113
437.863
438.607
439.348
440.082
440.812
441.536
442.254
442.968
443.677
444.38
445.078
445.771
446.459
447.142
447.819
448.492
449.159
449.822
450.479
451.131
451.778
452.421
453.058
453.69
454.317
454.94
455.557
456.169
456.777
457.379
457.977
458.57
459.158
459.741
460.319
460.893
461.461
462.025
462.584
463.139
463.688
464.233
464.773
465.308
465.839
466.365
466.886
467.403
467.915
468.422
468.925
469.423
469.917
470.406
470.89
471.37
471.845
472.316
472.782
473.243
473.701
474.153
474.602
475.045
475.485
475.92
476.35
476.776
477.198
477.615
478.028
478.437
478.841
479.241
479.636
480.028
480.414
480.797
481.176
481.55
481.919
482.285
482.646
483.004
483.357
483.705
484.05
484.39
484.727
485.059
485.387
485.71
486.03
486.346
486.657
486.965
487.268
487.567
487.862
488.153
488.44
488.724
489.003
489.278
489.549
489.816
490.079
490.338
490.593
490.844
491.091
491.335
491.574
491.809
492.041
492.268
492.492
492.712
492.928
493.14
493.348
493.552
493.753
493.95
494.142
494.331
494.516
494.698
494.875
495.049
495.219
495.385
495.547
495.706
495.86
496.011
496.158
496.302
496.442
496.578
496.71
496.838
496.963
497.084
497.202
497.315
497.426
497.532
497.635
497.734
497.829
497.921
498.01
498.095
498.176
498.254
498.329
498.4
498.467
498.532
498.593
498.651
498.706
498.757
498.806
498.851
498.894
498.934
498.971
499.005
499.037
499.066
499.093
499.118
499.14
499.161
499.179
499.196
499.211
499.224
499.236
499.246
499.255
499.263
499.27
499.276
499.281
499.285
499.289
499.291
499.294
499.296
499.297
499.298
499.299
499.299
499.299
499.3
499.299
499.299
499.299
499.299
499.298
499.298
499.297
499.296
499.296
499.295
499.294
499.294
499.293
499.292
499.291
499.291
499.29
499.289
499.288
499.288
499.287
499.286
499.285
499.285
499.284
499.283
499.282
499.281
499.281
499.28
499.279
499.278
499.277
499.276
499.276
499.275
499.274
499.273
499.272
499.271
499.27
499.27
499.269
499.268
499.267
499.266
499.265
499.264
499.263
499.262
499.261
499.26
499.259
499.259
499.258
499.257
499.256
499.255
499.254
499.253
499.252
499.251
499.249
499.248
499.247
499.246
499.245
499.244
499.243
499.242
499.241
499.24
499.239
499.237
499.236
499.235
499.234
499.233
499.232
499.23
499.229
499.228
499.227
499.226
499.224
499.223
499.222
499.221
499.219
499.218
499.217
499.215
499.214
499.213
499.211
499.21
499.209
499.207
499.206
499.205
499.203
499.202
499.2
499.199
499.198
499.196
499.195
499.193
499.192
499.19
499.189
499.187
499.186
499.184
499.182
499.181
499.179
499.178
499.176
499.174
499.173
499.171
499.169
499.168
499.166
499.164
499.162
499.161
499.159
499.157
499.155
499.153
499.152
499.15
499.148
499.146
499.144
499.142
499.14
499.138
499.136
499.134
499.132
499.13
499.128
499.126
499.124
499.122
499.119
499.117
499.115
499.113
499.11
499.108
499.106
499.104
499.101
499.099
499.096
499.094
499.091
499.089
499.086
499.084
499.081
499.079
499.076
499.073
499.071
499.068
499.065
499.062
499.06
499.057
499.054
499.051
499.048
499.045
499.042
499.039
499.036
499.032
499.029
499.026
499.023
499.019
499.016
499.013
499.009
499.006
499.002
498.999
498.995
498.991
498.987
498.984
498.98
498.976
498.972
498.968
498.964
498.96
498.956
498.951
498.947
498.943
498.938
498.934
498.929
498.924
498.92
498.915
498.91
498.905
498.9
498.895
498.89
498.884
498.879
498.873
498.868
498.862
498.857
498.851
498.845
498.839
498.832
498.826
498.82
498.813
498.807
498.8
498.793
498.786
498.779
498.771
498.764
498.756
498.749
498.741
498.733
498.725
498.716
498.708
498.699
498.69
498.681
498.671
498.662
498.652
498.642
498.632
498.621
498.61
498.599
498.588
498.576
498.565
498.552
498.54
498.527
498.514
498.5
498.487
498.472
498.458
498.442
498.427
498.411
498.394
498.377
498.36
498.342
498.323
498.304
498.284
498.263
498.241
498.219
498.196
498.172
498.148
498.122
498.095
498.067
498.038
498.008
497.976
497.943
497.908
497.872
497.834
497.794
497.752
497.707
497.66
497.609
497.555
497.497
497.437
497.373
497.307
497.239
497.168
497.096
497.021
496.939
496.848
496.741
496.606
496.43
496.196
495.88
495.454
494.887
494.142
493.179
491.957
490.432
488.561
486.306
483.629
480.502
476.902
472.818
468.247
463.198
457.693
451.765
445.456
438.821
431.919
424.819
417.592
410.309
403.044
395.866
388.839
382.022
375.468
369.218
363.308
357.763
352.601
347.831
343.455
339.469
335.864
332.623
329.731
327.165
324.903
322.921
321.196
319.702
318.416
317.316
316.38
315.588
314.921
314.364
313.899
313.515
313.198
312.938
312.726
312.554
312.415
312.303
312.213
312.141
312.084
312.039
312.003
311.974
311.952
311.935
311.921
311.91
311.901
311.894
311.889
311.884
311.881
311.878
311.875
311.873
311.872
311.87
311.869
311.868
311.867
311.867
311.866
311.865
311.865
311.864
311.864
311.864
311.863
311.863
311.863
311.863
311.862
311.862
311.862
311.862
311.862
311.862
311.861
311.861
311.861
311.861
311.861
311.861
311.861
311.86
311.86
311.86
311.86
311.86
311.86
311.86
311.86
311.859
311.859
311.859
311.859
311.859
311.859
311.859
311.858
311.858
311.858
311.857
311.856
311.854
311.852
311.849
311.844
311.838
311.831
311.822
311.81
311.795
311.778
311.758
311.735
311.708
311.679
311.648
311.614
311.58
311.544
311.508
311.472
311.438
311.406
311.376
311.349
311.325
311.304
311.286
311.271
311.259
311.249
311.242
311.236
311.232
311.229
311.227
311.225
311.224
311.224
311.223
311.223
311.223
311.223
311.222
311.222
311.222
311.222
311.222
311.222
311.222
)
;

boundaryField
{
    sides
    {
        type            calculated;
        value           nonuniform List<scalar> 2(311.222 -0.00714832);
    }
    empty
    {
        type            empty;
        value           nonuniform List<scalar> 0();
    }
}


// ************************************************************************* //
