/*--------------------------------*- C++ -*----------------------------------*\
  =========                 |
  \\      /  F ield         | OpenFOAM: The Open Source CFD Toolbox
   \\    /   O peration     | Website:  https://openfoam.org
    \\  /    A nd           | Version:  9
     \\/     M anipulation  |
\*---------------------------------------------------------------------------*/
FoamFile
{
    format      ascii;
    class       volScalarField;
    location    "0.01";
    object      rho;
}
// * * * * * * * * * * * * * * * * * * * * * * * * * * * * * * * * * * * * * //

dimensions      [1 -3 0 0 0 0 0];

internalField   nonuniform List<scalar> 
10000
(
0.999645
0.999645
0.999645
0.999645
0.999645
0.999645
0.999645
0.999645
0.999645
0.999645
0.999645
0.999645
0.999645
0.999645
0.999645
0.999645
0.999645
0.999645
0.999645
0.999645
0.999645
0.999645
0.999645
0.999645
0.999645
0.999645
0.999645
0.999645
0.999645
0.999645
0.999645
0.999645
0.999645
0.999645
0.999645
0.999645
0.999645
0.999645
0.999645
0.999645
0.999645
0.999645
0.999645
0.999645
0.999645
0.999645
0.999645
0.999645
0.999645
0.999645
0.999645
0.999645
0.999645
0.999645
0.999645
0.999645
0.999645
0.999645
0.999645
0.999645
0.999645
0.999645
0.999645
0.999645
0.999645
0.999645
0.999645
0.999645
0.999645
0.999645
0.999645
0.999645
0.999645
0.999645
0.999645
0.999645
0.999645
0.999645
0.999645
0.999645
0.999645
0.999645
0.999645
0.999645
0.999645
0.999645
0.999645
0.999645
0.999645
0.999645
0.999645
0.999645
0.999645
0.999645
0.999645
0.999645
0.999645
0.999645
0.999645
0.999645
0.999645
0.999645
0.999645
0.999645
0.999645
0.999645
0.999645
0.999645
0.999645
0.999645
0.999645
0.999645
0.999645
0.999645
0.999645
0.999645
0.999645
0.999645
0.999645
0.999645
0.999645
0.999645
0.999645
0.999645
0.999645
0.999645
0.999645
0.999645
0.999645
0.999645
0.999645
0.999645
0.999645
0.999645
0.999645
0.999645
0.999645
0.999645
0.999645
0.999645
0.999645
0.999645
0.999645
0.999645
0.999645
0.999645
0.999645
0.999645
0.999645
0.999645
0.999645
0.999645
0.999645
0.999645
0.999645
0.999645
0.999645
0.999645
0.999645
0.999645
0.999645
0.999645
0.999645
0.999645
0.999645
0.999645
0.999645
0.999645
0.999645
0.999645
0.999645
0.999645
0.999645
0.999645
0.999645
0.999645
0.999645
0.999645
0.999645
0.999645
0.999645
0.999645
0.999645
0.999645
0.999645
0.999645
0.999645
0.999645
0.999645
0.999645
0.999645
0.999645
0.999645
0.999645
0.999645
0.999645
0.999645
0.999645
0.999645
0.999645
0.999645
0.999645
0.999645
0.999645
0.999645
0.999645
0.999645
0.999645
0.999645
0.999645
0.999645
0.999645
0.999645
0.999645
0.999645
0.999645
0.999645
0.999645
0.999645
0.999645
0.999645
0.999645
0.999645
0.999645
0.999645
0.999645
0.999645
0.999645
0.999645
0.999645
0.999645
0.999645
0.999645
0.999645
0.999645
0.999645
0.999645
0.999645
0.999645
0.999645
0.999645
0.999645
0.999645
0.999645
0.999645
0.999645
0.999645
0.999645
0.999645
0.999645
0.999645
0.999645
0.999645
0.999645
0.999645
0.999645
0.999645
0.999645
0.999645
0.999645
0.999645
0.999645
0.999645
0.999645
0.999645
0.999645
0.999645
0.999645
0.999645
0.999645
0.999645
0.999645
0.999645
0.999645
0.999645
0.999645
0.999645
0.999645
0.999645
0.999645
0.999645
0.999645
0.999645
0.999645
0.999645
0.999645
0.999645
0.999645
0.999645
0.999645
0.999645
0.999645
0.999645
0.999645
0.999645
0.999645
0.999645
0.999645
0.999645
0.999645
0.999645
0.999645
0.999645
0.999645
0.999645
0.999645
0.999645
0.999645
0.999645
0.999645
0.999645
0.999645
0.999645
0.999645
0.999645
0.999645
0.999645
0.999645
0.999645
0.999645
0.999645
0.999645
0.999645
0.999645
0.999645
0.999645
0.999645
0.999645
0.999645
0.999645
0.999645
0.999645
0.999645
0.999645
0.999645
0.999645
0.999645
0.999645
0.999645
0.999645
0.999645
0.999645
0.999645
0.999645
0.999645
0.999645
0.999645
0.999645
0.999645
0.999645
0.999645
0.999645
0.999645
0.999645
0.999645
0.999645
0.999645
0.999645
0.999645
0.999645
0.999645
0.999645
0.999645
0.999645
0.999645
0.999645
0.999645
0.999645
0.999645
0.999645
0.999645
0.999645
0.999645
0.999645
0.999645
0.999645
0.999645
0.999645
0.999645
0.999645
0.999645
0.999645
0.999645
0.999645
0.999645
0.999645
0.999645
0.999645
0.999645
0.999645
0.999645
0.999645
0.999645
0.999645
0.999645
0.999645
0.999645
0.999645
0.999645
0.999645
0.999645
0.999645
0.999645
0.999645
0.999645
0.999645
0.999645
0.999645
0.999645
0.999645
0.999645
0.999645
0.999645
0.999645
0.999645
0.999645
0.999645
0.999645
0.999645
0.999645
0.999645
0.999645
0.999645
0.999645
0.999645
0.999645
0.999645
0.999645
0.999645
0.999645
0.999645
0.999645
0.999645
0.999645
0.999645
0.999645
0.999645
0.999645
0.999645
0.999645
0.999645
0.999645
0.999645
0.999645
0.999645
0.999645
0.999645
0.999645
0.999645
0.999645
0.999645
0.999645
0.999645
0.999645
0.999645
0.999645
0.999645
0.999645
0.999645
0.999645
0.999645
0.999645
0.999645
0.999645
0.999645
0.999645
0.999645
0.999645
0.999645
0.999645
0.999645
0.999645
0.999645
0.999645
0.999645
0.999645
0.999645
0.999645
0.999645
0.999645
0.999645
0.999645
0.999645
0.999645
0.999645
0.999645
0.999645
0.999645
0.999645
0.999645
0.999645
0.999645
0.999645
0.999645
0.999645
0.999645
0.999645
0.999645
0.999645
0.999645
0.999645
0.999645
0.999645
0.999645
0.999645
0.999645
0.999645
0.999645
0.999645
0.999645
0.999645
0.999645
0.999645
0.999645
0.999645
0.999645
0.999645
0.999645
0.999645
0.999645
0.999645
0.999645
0.999645
0.999645
0.999645
0.999645
0.999645
0.999645
0.999645
0.999645
0.999645
0.999645
0.999645
0.999645
0.999645
0.999645
0.999645
0.999645
0.999645
0.999645
0.999645
0.999645
0.999645
0.999645
0.999645
0.999645
0.999645
0.999645
0.999645
0.999645
0.999645
0.999645
0.999645
0.999645
0.999645
0.999645
0.999645
0.999645
0.999645
0.999645
0.999645
0.999645
0.999645
0.999645
0.999645
0.999645
0.999645
0.999645
0.999645
0.999645
0.999645
0.999645
0.999645
0.999645
0.999645
0.999645
0.999645
0.999645
0.999645
0.999645
0.999645
0.999645
0.999645
0.999645
0.999645
0.999645
0.999645
0.999645
0.999645
0.999645
0.999645
0.999645
0.999645
0.999645
0.999645
0.999645
0.999645
0.999645
0.999645
0.999645
0.999645
0.999645
0.999645
0.999645
0.999645
0.999645
0.999645
0.999645
0.999645
0.999645
0.999645
0.999645
0.999645
0.999645
0.999645
0.999645
0.999645
0.999645
0.999645
0.999645
0.999645
0.999645
0.999645
0.999645
0.999645
0.999645
0.999645
0.999645
0.999645
0.999645
0.999645
0.999645
0.999645
0.999645
0.999645
0.999645
0.999645
0.999645
0.999645
0.999645
0.999645
0.999645
0.999645
0.999645
0.999645
0.999645
0.999645
0.999645
0.999645
0.999645
0.999645
0.999645
0.999645
0.999645
0.999645
0.999645
0.999645
0.999645
0.999645
0.999645
0.999645
0.999645
0.999645
0.999645
0.999645
0.999645
0.999645
0.999645
0.999645
0.999645
0.999645
0.999645
0.999645
0.999645
0.999645
0.999645
0.999645
0.999645
0.999645
0.999645
0.999645
0.999645
0.999645
0.999645
0.999645
0.999645
0.999645
0.999645
0.999645
0.999645
0.999645
0.999645
0.999645
0.999645
0.999645
0.999645
0.999645
0.999645
0.999645
0.999645
0.999645
0.999645
0.999645
0.999645
0.999645
0.999645
0.999645
0.999645
0.999645
0.999645
0.999645
0.999645
0.999645
0.999645
0.999645
0.999645
0.999645
0.999645
0.999645
0.999645
0.999645
0.999645
0.999645
0.999645
0.999645
0.999645
0.999645
0.999645
0.999645
0.999645
0.999645
0.999645
0.999645
0.999645
0.999645
0.999645
0.999645
0.999645
0.999645
0.999645
0.999645
0.999645
0.999645
0.999645
0.999645
0.999645
0.999645
0.999645
0.999645
0.999645
0.999645
0.999645
0.999645
0.999645
0.999645
0.999645
0.999645
0.999645
0.999645
0.999645
0.999645
0.999645
0.999645
0.999645
0.999645
0.999645
0.999645
0.999645
0.999645
0.999645
0.999645
0.999645
0.999645
0.999645
0.999645
0.999645
0.999645
0.999645
0.999645
0.999645
0.999645
0.999645
0.999645
0.999645
0.999645
0.999645
0.999645
0.999645
0.999645
0.999645
0.999645
0.999645
0.999645
0.999645
0.999645
0.999645
0.999645
0.999645
0.999645
0.999645
0.999645
0.999645
0.999645
0.999645
0.999645
0.999645
0.999645
0.999645
0.999645
0.999645
0.999645
0.999645
0.999645
0.999645
0.999645
0.999645
0.999645
0.999645
0.999645
0.999645
0.999645
0.999645
0.999645
0.999645
0.999645
0.999645
0.999645
0.999645
0.999645
0.999645
0.999645
0.999645
0.999645
0.999645
0.999645
0.999645
0.999645
0.999645
0.999645
0.999645
0.999645
0.999645
0.999645
0.999645
0.999645
0.999645
0.999645
0.999645
0.999645
0.999645
0.999645
0.999645
0.999645
0.999645
0.999645
0.999645
0.999645
0.999645
0.999645
0.999645
0.999645
0.999645
0.999645
0.999645
0.999645
0.999645
0.999645
0.999645
0.999645
0.999645
0.999645
0.999645
0.999645
0.999645
0.999645
0.999645
0.999645
0.999645
0.999645
0.999645
0.999645
0.999645
0.999645
0.999645
0.999645
0.999645
0.999645
0.999645
0.999645
0.999645
0.999645
0.999645
0.999645
0.999645
0.999645
0.999645
0.999645
0.999645
0.999645
0.999645
0.999645
0.999645
0.999645
0.999645
0.999645
0.999645
0.999645
0.999645
0.999645
0.999645
0.999645
0.999645
0.999645
0.999645
0.999645
0.999645
0.999645
0.999645
0.999645
0.999645
0.999645
0.999645
0.999645
0.999645
0.999645
0.999645
0.999645
0.999645
0.999645
0.999645
0.999645
0.999645
0.999645
0.999645
0.999645
0.999645
0.999645
0.999645
0.999645
0.999645
0.999645
0.999645
0.999645
0.999645
0.999645
0.999645
0.999645
0.999645
0.999645
0.999645
0.999645
0.999645
0.999645
0.999645
0.999645
0.999645
0.999645
0.999645
0.999645
0.999645
0.999645
0.999645
0.999645
0.999645
0.999645
0.999645
0.999645
0.999645
0.999645
0.999645
0.999645
0.999645
0.999645
0.999645
0.999645
0.999645
0.999645
0.999645
0.999645
0.999645
0.999645
0.999645
0.999645
0.999645
0.999645
0.999645
0.999645
0.999645
0.999645
0.999645
0.999645
0.999645
0.999645
0.999645
0.999645
0.999645
0.999645
0.999645
0.999645
0.999645
0.999645
0.999645
0.999645
0.999645
0.999645
0.999645
0.999645
0.999645
0.999645
0.999645
0.999645
0.999645
0.999645
0.999645
0.999645
0.999645
0.999645
0.999645
0.999645
0.999645
0.999645
0.999645
0.999645
0.999645
0.999645
0.999645
0.999645
0.999645
0.999645
0.999645
0.999645
0.999645
0.999645
0.999645
0.999645
0.999645
0.999645
0.999645
0.999645
0.999645
0.999645
0.999645
0.999645
0.999645
0.999645
0.999645
0.999645
0.999645
0.999645
0.999645
0.999645
0.999645
0.999645
0.999645
0.999645
0.999645
0.999645
0.999645
0.999645
0.999645
0.999645
0.999645
0.999645
0.999645
0.999645
0.999645
0.999645
0.999645
0.999645
0.999645
0.999645
0.999645
0.999645
0.999645
0.999645
0.999645
0.999645
0.999645
0.999645
0.999645
0.999645
0.999645
0.999645
0.999645
0.999645
0.999645
0.999645
0.999645
0.999645
0.999645
0.999645
0.999645
0.999645
0.999645
0.999645
0.999645
0.999645
0.999645
0.999645
0.999645
0.999645
0.999645
0.999645
0.999645
0.999645
0.999645
0.999645
0.999645
0.999645
0.999645
0.999645
0.999645
0.999645
0.999645
0.999645
0.999645
0.999645
0.999645
0.999645
0.999645
0.999645
0.999645
0.999645
0.999645
0.999645
0.999645
0.999645
0.999645
0.999645
0.999645
0.999645
0.999645
0.999645
0.999645
0.999645
0.999645
0.999645
0.999645
0.999645
0.999645
0.999645
0.999645
0.999645
0.999645
0.999645
0.999645
0.999645
0.999645
0.999645
0.999645
0.999645
0.999645
0.999645
0.999645
0.999645
0.999645
0.999645
0.999645
0.999645
0.999645
0.999645
0.999645
0.999645
0.999645
0.999645
0.999645
0.999645
0.999645
0.999645
0.999645
0.999645
0.999645
0.999645
0.999645
0.999645
0.999645
0.999645
0.999645
0.999645
0.999645
0.999645
0.999645
0.999645
0.999645
0.999645
0.999645
0.999645
0.999645
0.999645
0.999645
0.999645
0.999645
0.999645
0.999645
0.999645
0.999645
0.999645
0.999645
0.999645
0.999645
0.999645
0.999645
0.999645
0.999645
0.999645
0.999645
0.999645
0.999645
0.999645
0.999645
0.999645
0.999645
0.999645
0.999645
0.999645
0.999645
0.999645
0.999645
0.999645
0.999645
0.999645
0.999645
0.999645
0.999645
0.999645
0.999645
0.999645
0.999645
0.999645
0.999645
0.999645
0.999645
0.999645
0.999645
0.999645
0.999645
0.999645
0.999645
0.999645
0.999645
0.999645
0.999645
0.999645
0.999645
0.999645
0.999645
0.999645
0.999645
0.999645
0.999645
0.999645
0.999645
0.999645
0.999645
0.999645
0.999645
0.999645
0.999645
0.999645
0.999645
0.999645
0.999645
0.999645
0.999645
0.999645
0.999645
0.999645
0.999645
0.999645
0.999645
0.999645
0.999645
0.999645
0.999645
0.999645
0.999645
0.999645
0.999645
0.999645
0.999645
0.999645
0.999645
0.999645
0.999645
0.999645
0.999645
0.999645
0.999645
0.999645
0.999645
0.999645
0.999645
0.999645
0.999645
0.999645
0.999645
0.999645
0.999645
0.999645
0.999645
0.999645
0.999645
0.999645
0.999645
0.999645
0.999645
0.999645
0.999645
0.999645
0.999645
0.999645
0.999645
0.999645
0.999645
0.999645
0.999645
0.999645
0.999645
0.999645
0.999645
0.999645
0.999645
0.999645
0.999645
0.999645
0.999645
0.999645
0.999645
0.999645
0.999645
0.999645
0.999645
0.999645
0.999645
0.999645
0.999645
0.999645
0.999643
0.999639
0.999625
0.999577
0.999423
0.998919
0.997262
0.99232
0.986321
0.982978
0.981111
0.980457
0.979792
0.97946
0.979423
0.979321
0.97911
0.97895
0.978956
0.978923
0.978771
0.978652
0.97866
0.978666
0.978588
0.978529
0.978551
0.978568
0.97854
0.97849
0.978408
0.978192
0.977487
0.975165
0.969494
0.964373
0.961598
0.960348
0.959402
0.959088
0.958985
0.958733
0.958533
0.958493
0.95851
0.958367
0.958232
0.958196
0.958242
0.958187
0.958113
0.958084
0.958114
0.958101
0.958065
0.958046
0.958058
0.958059
0.958045
0.958035
0.958038
0.958042
0.958038
0.958033
0.958034
0.958036
0.958035
0.958033
0.958033
0.958034
0.958034
0.958034
0.958034
0.958034
0.958034
0.958034
0.958034
0.958034
0.958034
0.958034
0.958034
0.958034
0.958034
0.958034
0.958034
0.958034
0.958034
0.958034
0.958034
0.958034
0.958034
0.958034
0.958034
0.958034
0.958034
0.958034
0.958034
0.958034
0.958034
0.958034
0.958034
0.958034
0.958034
0.958034
0.958034
0.958034
0.958034
0.958034
0.958034
0.958034
0.958034
0.958034
0.958034
0.958034
0.958034
0.958034
0.958034
0.958034
0.958034
0.958034
0.958034
0.958034
0.958034
0.958034
0.958034
0.958033
0.95803
0.958021
0.957993
0.957899
0.957594
0.956593
0.953743
0.950546
0.948705
0.94794
0.947301
0.947045
0.947004
0.946852
0.946687
0.946581
0.946586
0.946512
0.946351
0.94622
0.946198
0.946181
0.946043
0.945908
0.945836
0.945847
0.94576
0.945625
0.945525
0.945526
0.945494
0.945374
0.945268
0.945237
0.945241
0.945156
0.945057
0.944998
0.945012
0.94497
0.944884
0.944818
0.94482
0.944812
0.944749
0.944693
0.944678
0.944689
0.944654
0.944614
0.944595
0.944609
0.944598
0.944577
0.944568
0.944575
0.944575
0.944562
0.944534
0.944465
0.944255
0.94355
0.941972
0.940679
0.940021
0.939711
0.93949
0.939411
0.93938
0.939313
0.939258
0.939234
0.939233
0.939192
0.93914
0.939105
0.939112
0.939096
0.939055
0.939024
0.939025
0.939028
0.939007
0.938987
0.938987
0.938995
0.938992
0.938982
0.938972
0.938951
0.938884
0.938661
0.937941
0.935898
0.933542
0.932176
0.931571
0.931111
0.930938
0.930897
0.930782
0.930677
0.93062
0.930631
0.930575
0.93048
0.930409
0.930412
0.930403
0.930334
0.930275
0.93026
0.930276
0.930245
0.930208
0.930194
0.930211
0.930206
0.930184
0.930145
0.930057
0.929787
0.928935
0.927773
0.927041
0.926794
0.926542
0.926409
0.92639
0.926379
0.926295
0.92622
0.926194
0.926216
0.926182
0.926135
0.926116
0.926138
0.926138
0.926118
0.9261
0.926084
0.926036
0.92586
0.925272
0.923938
0.922817
0.922325
0.921923
0.921775
0.921769
0.921684
0.921585
0.921528
0.921559
0.921539
0.921492
0.921472
0.921477
0.921468
0.92141
0.921236
0.920741
0.919863
0.91929
0.91888
0.91874
0.918702
0.918607
0.918532
0.918513
0.918534
0.918505
0.918464
0.918436
0.91841
0.918316
0.917995
0.917124
0.916141
0.915663
0.9153
0.915128
0.915095
0.915033
0.914943
0.914877
0.914879
0.914872
0.914817
0.914773
0.914776
0.914793
0.914769
0.91471
0.914581
0.914238
0.913358
0.912467
0.911883
0.91168
0.911549
0.911414
0.911333
0.911339
0.911315
0.911238
0.911177
0.91117
0.911187
0.911159
0.911124
0.911117
0.911122
0.911096
0.910996
0.910696
0.909808
0.908406
0.907537
0.906948
0.906748
0.90667
0.906522
0.90641
0.906373
0.906386
0.906313
0.906221
0.906163
0.906181
0.906167
0.906104
0.906054
0.906045
0.906062
0.906036
0.906003
0.90599
0.906006
0.906008
0.905992
0.905967
0.905927
0.905821
0.90548
0.904422
0.902765
0.901662
0.901143
0.900777
0.9006
0.900549
0.900478
0.900401
0.90035
0.90035
0.900335
0.900293
0.900264
0.900264
0.900272
0.900256
0.900231
0.900192
0.900108
0.899854
0.899103
0.898118
0.897531
0.897209
0.897086
0.896976
0.896884
0.896829
0.896824
0.8968
0.896732
0.896678
0.896661
0.896686
0.896671
0.896638
0.896621
0.896609
0.89657
0.896422
0.895944
0.89476
0.893563
0.892969
0.892545
0.892333
0.892292
0.892238
0.89214
0.892065
0.892051
0.892064
0.892018
0.891969
0.891954
0.891965
0.891941
0.891847
0.891588
0.890886
0.889879
0.889284
0.88884
0.888656
0.888626
0.888535
0.888425
0.888348
0.88836
0.888349
0.888283
0.888229
0.888227
0.888251
0.888231
0.888182
0.888094
0.887883
0.887253
0.886168
0.88538
0.884931
0.884799
0.88468
0.884557
0.884476
0.884487
0.884472
0.8844
0.884341
0.884327
0.884353
0.884338
0.884301
0.884259
0.884194
0.884007
0.883389
0.882308
0.881508
0.881205
0.880967
0.880806
0.880742
0.88076
0.880704
0.88063
0.880589
0.880607
0.880608
0.880551
0.880412
0.880062
0.879379
0.878862
0.878475
0.8783
0.878281
0.878225
0.878138
0.878078
0.878086
0.878092
0.878031
0.87788
0.877504
0.876775
0.876214
0.875804
0.875592
0.875549
0.875503
0.875404
0.875329
0.875317
0.875341
0.875305
0.875245
0.875164
0.874996
0.874499
0.873649
0.872985
0.87266
0.87256
0.872424
0.872312
0.872251
0.872273
0.872242
0.872181
0.872144
0.87214
0.872129
0.872051
0.871811
0.87118
0.870324
0.869848
0.869487
0.869291
0.869248
0.869219
0.869123
0.869041
0.86901
0.869046
0.869029
0.868976
0.868914
0.868819
0.868562
0.867858
0.867064
0.866538
0.866371
0.866275
0.866132
0.866028
0.866012
0.866035
0.865987
0.86592
0.865887
0.865879
0.86581
0.865539
0.864841
0.8641
0.863761
0.863565
0.863385
0.863286
0.863304
0.863284
0.863219
0.863169
0.863139
0.863085
0.862881
0.862299
0.861596
0.861195
0.861058
0.860894
0.860774
0.860718
0.860744
0.860707
0.860645
0.860608
0.860604
0.86058
0.860467
0.860125
0.859333
0.858533
0.858134
0.857801
0.857614
0.857562
0.857512
0.857419
0.857348
0.857329
0.857328
0.857297
0.857267
0.857245
0.857207
0.857093
0.856747
0.855938
0.855142
0.854708
0.854377
0.854231
0.854222
0.854161
0.854047
0.853961
0.853941
0.853977
0.853946
0.853885
0.85385
0.853832
0.853778
0.853571
0.852935
0.852
0.851385
0.851158
0.850943
0.850782
0.850695
0.850719
0.850678
0.850585
0.850517
0.850508
0.850542
0.850521
0.850466
0.85039
0.850242
0.849829
0.84899
0.848275
0.847828
0.847675
0.84759
0.847458
0.847361
0.847335
0.847349
0.847296
0.847235
0.847209
0.847224
0.847211
0.847145
0.846973
0.846527
0.845678
0.845022
0.844559
0.84433
0.844273
0.844187
0.844078
0.843996
0.843994
0.844004
0.843956
0.843898
0.843877
0.843881
0.843838
0.843669
0.843153
0.842294
0.841715
0.841505
0.841272
0.841137
0.841089
0.841063
0.840911
0.840605
0.840321
0.840189
0.840184
0.840092
0.839973
0.839892
0.839909
0.839925
0.839863
0.839754
0.839562
0.83912
0.8383
0.837631
0.837119
0.836877
0.836837
0.836736
0.836587
0.836473
0.836445
0.836456
0.836377
0.836291
0.836244
0.836275
0.836275
0.836228
0.836153
0.836017
0.83567
0.83485
0.834036
0.833486
0.833271
0.833172
0.833019
0.832904
0.832853
0.832872
0.832812
0.832728
0.832677
0.832695
0.832713
0.832671
0.832577
0.832375
0.831878
0.831073
0.830503
0.83007
0.829865
0.829838
0.82977
0.829646
0.829552
0.829523
0.829566
0.829542
0.829475
0.829408
0.829333
0.829151
0.828633
0.827963
0.827461
0.827246
0.827199
0.827083
0.82695
0.826854
0.826858
0.826875
0.826824
0.826751
0.826723
0.826718
0.826671
0.826487
0.825932
0.824981
0.824261
0.823948
0.823695
0.823475
0.823342
0.823341
0.823316
0.823206
0.823097
0.823034
0.82307
0.823075
0.823035
0.822981
0.822942
0.822899
0.822758
0.822278
0.821392
0.820671
0.820306
0.820193
0.820048
0.819873
0.819744
0.819691
0.819761
0.819772
0.819715
0.819587
0.819521
0.819493
0.819486
0.819401
0.81908
0.81851
0.817983
0.817614
0.817383
0.817221
0.817013
0.816742
0.816476
0.816276
0.816153
0.816061
0.815984
0.81592
0.815836
0.815694
0.815494
0.815255
0.815021
0.814837
0.814658
0.814412
0.814137
0.813891
0.813704
0.813546
0.813347
0.81312
0.812913
0.812756
0.812621
0.812442
0.812234
0.812038
0.81188
0.811739
0.81156
0.81135
0.81115
0.810992
0.810856
0.810669
0.810435
0.810202
0.810009
0.809861
0.809687
0.809459
0.809223
0.809019
0.808864
0.808702
0.808496
0.808281
0.808093
0.807948
0.807789
0.807581
0.807358
0.807162
0.807023
0.806891
0.806692
0.806459
0.806241
0.80608
0.80595
0.805758
0.805516
0.805287
0.805119
0.805032
0.804867
0.804596
0.804331
0.804118
0.804104
0.80403
0.803742
0.803416
0.803157
0.80305
0.803103
0.802922
0.80259
0.802262
0.802017
0.801967
0.802016
0.801804
0.801459
0.801135
0.800891
0.800858
0.800909
0.800688
0.800333
0.79996
0.799689
0.799549
0.799629
0.799638
0.799376
0.79902
0.798675
0.798417
0.798302
0.798393
0.798397
0.798132
0.797769
0.797388
0.79709
0.79685
0.796801
0.796921
0.79695
0.796702
0.796352
0.795981
0.795672
0.795416
0.795291
0.795372
0.795424
0.795193
0.794843
0.794451
0.794135
0.793884
0.793777
0.793875
0.793966
0.79378
0.793456
0.793091
0.792778
0.792496
0.792266
0.792167
0.792229
0.792273
0.792074
0.791758
0.791437
0.791146
0.790897
0.790728
0.790747
0.79081
0.790625
0.790299
0.789921
0.789604
0.789345
0.789171
0.789212
0.789313
0.789193
0.788895
0.788556
0.78825
0.787973
0.78775
0.787694
0.787766
0.787631
0.787326
0.787024
0.786787
0.786761
0.786649
0.78635
0.78601
0.78575
0.785624
0.785711
0.785646
0.785357
0.784988
0.784696
0.784491
0.784515
0.784567
0.784339
0.783987
0.783615
0.783355
0.783229
0.783322
0.783291
0.783009
0.782624
0.782271
0.782023
0.781955
0.782078
0.782042
0.781758
0.781379
0.78104
0.780798
0.780738
0.780842
0.780723
0.780409
0.779985
0.779635
0.779391
0.779351
0.779529
0.779633
0.779421
0.779073
0.778603
0.77821
0.777946
0.777763
0.777834
0.778013
0.777924
0.777622
0.777192
0.776756
0.776487
0.776315
0.776416
0.776631
0.776562
0.776266
0.775841
0.775374
0.775077
0.774859
0.774871
0.77503
0.774967
0.77468
0.774304
0.77397
0.773726
0.773637
0.773701
0.773545
0.773239
0.772949
0.772725
0.772715
0.772625
0.772341
0.772021
0.77177
0.771662
0.771729
0.771577
0.771269
0.770938
0.770689
0.770588
0.770613
0.770407
0.770091
0.769815
0.76962
0.769659
0.769707
0.769474
0.769117
0.768692
0.768413
0.76822
0.768277
0.768431
0.768306
0.767999
0.767588
0.767234
0.766988
0.766882
0.766984
0.766971
0.76671
0.76637
0.766072
0.765846
0.765825
0.765794
0.765536
0.765223
0.764968
0.764831
0.764876
0.764707
0.764396
0.764061
0.763814
0.76371
0.763814
0.763777
0.763505
0.763144
0.762811
0.76257
0.762469
0.762529
0.762378
0.762083
0.761813
0.761614
0.761632
0.761512
0.761219
0.760871
0.760609
0.760438
0.760494
0.760471
0.760209
0.759865
0.759569
0.759349
0.759336
0.75943
0.759261
0.758946
0.758562
0.758287
0.758093
0.758129
0.758214
0.758016
0.757681
0.75725
0.756942
0.75672
0.75672
0.756902
0.756885
0.756617
0.756241
0.755832
0.75557
0.755395
0.755462
0.755579
0.755401
0.755073
0.754612
0.754235
0.753993
0.753907
0.754095
0.75433
0.754218
0.753914
0.75345
0.752861
0.752494
0.752254
0.752151
0.752344
0.75268
0.752688
0.752425
0.752041
0.75144
0.750956
0.75068
0.750475
0.750522
0.750842
0.751064
0.75092
0.750608
0.750132
0.749482
0.749066
0.74881
0.748617
0.748689
0.749065
0.749353
0.749251
0.748955
0.748513
0.747864
0.747413
0.74715
0.746953
0.747015
0.747311
0.747451
0.747257
0.746927
0.746429
0.745953
0.745675
0.745469
0.745501
0.745741
0.745808
0.745579
0.745234
0.744745
0.744363
0.744118
0.743971
0.74407
0.744242
0.744124
0.74384
0.743484
0.7432
0.742983
0.742965
0.742889
0.742619
0.742261
0.741961
0.741743
0.741746
0.741957
0.74199
0.741743
0.74138
0.740854
0.740466
0.740225
0.74009
0.740217
0.740435
0.740345
0.740065
0.739675
0.739287
0.739037
0.738872
0.73894
0.739048
0.738868
0.738549
0.738085
0.737683
0.737438
0.737288
0.737403
0.737644
0.737592
0.737325
0.736946
0.736499
0.736202
0.735981
0.735924
0.736059
0.736047
0.735798
0.735467
0.735135
0.734897
0.734757
0.73481
0.734695
0.734422
0.734115
0.733876
0.73374
0.733813
0.733768
0.733517
0.733214
0.732941
0.732696
0.732501
0.73234
0.732208
0.732162
0.732168
0.731967
0.731665
0.731301
0.731027
0.73082
0.730817
0.73097
0.730895
0.730628
0.730271
0.729933
0.729697
0.729552
0.729603
0.729483
0.729206
0.728874
0.728626
0.728464
0.72854
0.728661
0.728493
0.728188
0.727751
0.727374
0.727135
0.726993
0.727098
0.727273
0.727149
0.726865
0.726461
0.726058
0.725799
0.725599
0.725605
0.725759
0.725687
0.725429
0.725103
0.724811
0.72458
0.724457
0.724393
0.724175
0.723916
0.723695
0.723616
0.723641
0.723446
0.723156
0.722869
0.722649
0.72257
0.722637
0.722507
0.722242
0.721991
0.721793
0.721708
0.721515
0.721247
0.72098
0.720764
0.720691
0.720757
0.720603
0.720319
0.719983
0.71973
0.719545
0.719567
0.719627
0.719433
0.719132
0.718781
0.718525
0.718332
0.718335
0.718387
0.718193
0.717897
0.717576
0.71734
0.717182
0.71724
0.717241
0.717016
0.716721
0.716446
0.716224
0.716138
0.71605
0.715814
0.715557
0.715341
0.715269
0.715307
0.715118
0.714822
0.714475
0.714231
0.714057
0.714109
0.714231
0.714078
0.71379
0.713387
0.713033
0.712801
0.712659
0.712754
0.712917
0.712791
0.71252
0.712161
0.711834
0.711592
0.711398
0.711333
0.71118
0.71093
0.710701
0.710541
0.710624
0.710823
0.710729
0.710458
0.710051
0.709495
0.709137
0.708911
0.708771
0.708896
0.709187
0.709185
0.708946
0.708609
0.708124
0.707756
0.707522
0.707347
0.707399
0.707582
0.707506
0.707252
0.706904
0.706548
0.706303
0.706112
0.706113
0.706195
0.706035
0.705759
0.705436
0.705188
0.704996
0.704994
0.704962
0.704732
0.704458
0.704225
0.704069
0.70404
0.70386
0.703597
0.703346
0.703143
0.703108
0.703147
0.702958
0.702679
0.702396
0.702178
0.702083
0.702123
0.701954
0.701672
0.701324
0.701055
0.700851
0.7008
0.700908
0.700817
0.700569
0.700286
0.700062
0.699933
0.699948
0.699768
0.699478
0.699088
0.698794
0.698585
0.698544
0.698761
0.698932
0.698779
0.698496
0.698061
0.697555
0.697252
0.697039
0.696943
0.697093
0.697283
0.697159
0.696893
0.696512
0.696113
0.695862
0.695668
0.695667
0.695854
0.695833
0.695596
0.695259
0.694795
0.69447
0.694253
0.694134
0.694263
0.694469
0.694368
0.694111
0.693744
0.69333
0.693062
0.692859
0.692803
0.692947
0.692938
0.692707
0.692384
0.691972
0.69169
0.691485
0.691432
0.691608
0.691702
0.691515
0.691221
0.690788
0.69041
0.690181
0.690013
0.69009
0.690406
0.690509
0.69032
0.690023
0.689549
0.688883
0.688477
0.688221
0.688011
0.687874
0.687993
0.688392
0.688579
0.688432
0.688161
0.687766
0.687246
0.686911
0.686685
0.686507
0.68653
0.686716
0.686672
0.686437
0.686119
0.685754
0.6855
0.685301
0.685245
0.685354
0.685267
0.685022
0.684695
0.684387
0.684169
0.684027
0.684097
0.684173
0.683996
0.683722
0.683387
0.683124
0.682921
0.682844
0.682886
0.682726
0.682465
0.68217
0.681944
0.681769
0.681788
0.681773
0.681561
0.681296
0.681067
0.680891
0.680901
0.680818
0.680579
0.680267
0.679973
0.679757
0.679604
0.679638
0.679574
0.67935
0.679122
0.678938
0.678941
0.678942
0.678727
0.678423
0.678019
0.677734
0.677529
0.677449
0.677602
0.677719
0.677553
0.677281
0.676888
0.676514
0.676274
0.676082
0.676051
0.676206
0.676183
0.67596
0.675662
0.675323
0.67508
0.674888
0.674837
0.674926
0.674807
0.67456
0.674248
0.673975
0.673767
0.673637
0.673705
0.673721
0.673528
0.673287
0.673057
0.672843
0.672616
0.672372
0.672093
0.671855
0.671662
0.671622
0.671802
0.671855
0.671657
0.671372
0.670961
0.670624
0.670408
0.670246
0.670309
0.670581
0.67062
0.670418
0.670136
0.669706
0.669235
0.668945
0.668714
0.668496
0.668311
0.66826
0.668458
0.668685
0.668587
0.668345
0.668007
0.667544
0.667224
0.667008
0.666838
0.66687
0.667077
0.667051
0.666829
0.666526
0.666109
0.665802
0.665591
0.665431
0.665478
0.665635
0.665536
0.665299
0.664982
0.664658
0.664428
0.664239
0.664195
0.664214
0.664035
0.663788
0.663558
0.663373
0.663351
0.663394
0.663217
0.662947
0.662564
0.662246
0.662034
0.661882
0.661947
0.662124
0.662031
0.661793
0.661461
0.661066
0.660805
0.660607
0.660512
0.660634
0.660708
0.660531
0.660265
0.65989
0.659573
0.659362
0.659208
0.659267
0.659457
0.659376
0.659141
0.658804
0.658296
0.657931
0.657707
0.657528
0.657528
0.657817
0.658069
0.657964
0.657724
0.657377
0.65682
0.656393
0.656149
0.655959
0.655888
0.656085
0.65638
0.656327
0.656103
0.655792
0.655296
0.654879
0.654635
0.654444
0.654367
0.654529
0.654704
0.654579
0.654336
0.653987
0.653575
0.653314
0.653118
0.653023
0.653164
0.653336
0.653212
0.652968
0.652609
0.652123
0.651813
0.651606
0.65145
0.651508
0.651793
0.651858
0.651674
0.65141
0.651012
0.650609
0.650359
0.650164
0.650041
0.650125
0.65021
0.65005
0.649803
0.649483
0.649215
0.649015
0.648882
0.648946
0.648943
0.64874
0.648461
0.64808
0.647799
0.647603
0.647487
0.647609
0.64784
0.647766
0.647542
0.64723
0.646767
0.646421
0.646197
0.646014
0.645956
0.646095
0.646098
0.645896
0.645628
0.645295
0.64505
0.644863
0.644794
0.644947
0.645025
0.644852
0.644592
0.644189
0.643759
0.643506
0.643315
0.643214
0.643354
0.643579
0.643496
0.643271
0.64296
0.642505
0.642175
0.64196
0.641782
0.641755
0.641947
0.642009
0.64183
0.641577
0.641214
0.64088
0.640656
0.640471
0.640387
0.640496
0.640484
0.640285
0.640027
0.639743
0.639526
0.639347
0.639297
0.639377
0.639265
0.639044
0.638777
0.638524
0.638308
0.638097
0.63789
0.637685
0.637501
0.637354
0.637385
0.637559
0.637501
0.637287
0.637001
0.636594
0.63629
0.636081
0.635906
0.635882
0.636056
0.636069
0.635878
0.635629
0.635326
0.635088
0.634888
0.634723
0.634641
0.634488
0.634278
0.634064
0.633871
0.633729
0.63377
0.633779
0.633598
0.633367
0.633144
0.632948
0.632819
0.632711
0.632516
0.632296
0.632081
0.631897
0.631793
0.631881
0.631852
0.631649
0.631376
0.631001
0.630726
0.63053
0.630384
0.630432
0.630589
0.630491
0.630271
0.62997
0.629608
0.629363
0.629176
0.629055
0.629144
0.62926
0.629123
0.628892
0.628569
0.62821
0.627973
0.627783
0.627649
0.6277
0.627771
0.627619
0.62739
0.62712
0.626894
0.62671
0.626615
0.626609
0.626445
0.626218
0.62597
0.625771
0.62561
0.625614
0.625662
0.625502
0.625265
0.62494
0.624659
0.624461
0.624302
0.624311
0.624432
0.624324
0.624105
0.623801
0.623453
0.623222
0.62304