/*--------------------------------*- C++ -*----------------------------------*\
  =========                 |
  \\      /  F ield         | OpenFOAM: The Open Source CFD Toolbox
   \\    /   O peration     | Website:  https://openfoam.org
    \\  /    A nd           | Version:  9
     \\/     M anipulation  |
\*---------------------------------------------------------------------------*/
FoamFile
{
    format      ascii;
    class       volScalarField;
    location    "0.01";
    object      T;
}
// * * * * * * * * * * * * * * * * * * * * * * * * * * * * * * * * * * * * * //

dimensions      [0 0 0 1 0 0 0];

internalField   nonuniform List<scalar> 
10000
(
348.432
348.432
348.432
348.432
348.432
348.432
348.432
348.432
348.432
348.432
348.432
348.432
348.432
348.432
348.432
348.432
348.432
348.432
348.432
348.432
348.432
348.432
348.432
348.432
348.432
348.432
348.432
348.432
348.432
348.432
348.432
348.432
348.432
348.432
348.432
348.432
348.432
348.432
348.432
348.432
348.432
348.432
348.432
348.432
348.432
348.432
348.432
348.432
348.432
348.432
348.432
348.432
348.432
348.432
348.432
348.432
348.432
348.432
348.432
348.432
348.432
348.432
348.432
348.432
348.432
348.432
348.432
348.432
348.432
348.432
348.432
348.432
348.432
348.432
348.432
348.432
348.432
348.432
348.432
348.432
348.432
348.432
348.432
348.432
348.432
348.432
348.432
348.432
348.432
348.432
348.432
348.432
348.432
348.432
348.432
348.432
348.432
348.432
348.432
348.432
348.432
348.432
348.432
348.432
348.432
348.432
348.432
348.432
348.432
348.432
348.432
348.432
348.432
348.432
348.432
348.432
348.432
348.432
348.432
348.432
348.432
348.432
348.432
348.432
348.432
348.432
348.432
348.432
348.432
348.432
348.432
348.432
348.432
348.432
348.432
348.432
348.432
348.432
348.432
348.432
348.432
348.432
348.432
348.432
348.432
348.432
348.432
348.432
348.432
348.432
348.432
348.432
348.432
348.432
348.432
348.432
348.432
348.432
348.432
348.432
348.432
348.432
348.432
348.432
348.432
348.432
348.432
348.432
348.432
348.432
348.432
348.432
348.432
348.432
348.432
348.432
348.432
348.432
348.432
348.432
348.432
348.432
348.432
348.432
348.432
348.432
348.432
348.432
348.432
348.432
348.432
348.432
348.432
348.432
348.432
348.432
348.432
348.432
348.432
348.432
348.432
348.432
348.432
348.432
348.432
348.432
348.432
348.432
348.432
348.432
348.432
348.432
348.432
348.432
348.432
348.432
348.432
348.432
348.432
348.432
348.432
348.432
348.432
348.432
348.432
348.432
348.432
348.432
348.432
348.432
348.432
348.432
348.432
348.432
348.432
348.432
348.432
348.432
348.432
348.432
348.432
348.432
348.432
348.432
348.432
348.432
348.432
348.432
348.432
348.432
348.432
348.432
348.432
348.432
348.432
348.432
348.432
348.432
348.432
348.432
348.432
348.432
348.432
348.432
348.432
348.432
348.432
348.432
348.432
348.432
348.432
348.432
348.432
348.432
348.432
348.432
348.432
348.432
348.432
348.432
348.432
348.432
348.432
348.432
348.432
348.432
348.432
348.432
348.432
348.432
348.432
348.432
348.432
348.432
348.432
348.432
348.432
348.432
348.432
348.432
348.432
348.432
348.432
348.432
348.432
348.432
348.432
348.432
348.432
348.432
348.432
348.432
348.432
348.432
348.432
348.432
348.432
348.432
348.432
348.432
348.432
348.432
348.432
348.432
348.432
348.432
348.432
348.432
348.432
348.432
348.432
348.432
348.432
348.432
348.432
348.432
348.432
348.432
348.432
348.432
348.432
348.432
348.432
348.432
348.432
348.432
348.432
348.432
348.432
348.432
348.432
348.432
348.432
348.432
348.432
348.432
348.432
348.432
348.432
348.432
348.432
348.432
348.432
348.432
348.432
348.432
348.432
348.432
348.432
348.432
348.432
348.432
348.432
348.432
348.432
348.432
348.432
348.432
348.432
348.432
348.432
348.432
348.432
348.432
348.432
348.432
348.432
348.432
348.432
348.432
348.432
348.432
348.432
348.432
348.432
348.432
348.432
348.432
348.432
348.432
348.432
348.432
348.432
348.432
348.432
348.432
348.432
348.432
348.432
348.432
348.432
348.432
348.432
348.432
348.432
348.432
348.432
348.432
348.432
348.432
348.432
348.432
348.432
348.432
348.432
348.432
348.432
348.432
348.432
348.432
348.432
348.432
348.432
348.432
348.432
348.432
348.432
348.432
348.432
348.432
348.432
348.432
348.432
348.432
348.432
348.432
348.432
348.432
348.432
348.432
348.432
348.432
348.432
348.432
348.432
348.432
348.432
348.432
348.432
348.432
348.432
348.432
348.432
348.432
348.432
348.432
348.432
348.432
348.432
348.432
348.432
348.432
348.432
348.432
348.432
348.432
348.432
348.432
348.432
348.432
348.432
348.432
348.432
348.432
348.432
348.432
348.432
348.432
348.432
348.432
348.432
348.432
348.432
348.432
348.432
348.432
348.432
348.432
348.432
348.432
348.432
348.432
348.432
348.432
348.432
348.432
348.432
348.432
348.432
348.432
348.432
348.432
348.432
348.432
348.432
348.432
348.432
348.432
348.432
348.432
348.432
348.432
348.432
348.432
348.432
348.432
348.432
348.432
348.432
348.432
348.432
348.432
348.432
348.432
348.432
348.432
348.432
348.432
348.432
348.432
348.432
348.432
348.432
348.432
348.432
348.432
348.432
348.432
348.432
348.432
348.432
348.432
348.432
348.432
348.432
348.432
348.432
348.432
348.432
348.432
348.432
348.432
348.432
348.432
348.432
348.432
348.432
348.432
348.432
348.432
348.432
348.432
348.432
348.432
348.432
348.432
348.432
348.432
348.432
348.432
348.432
348.432
348.432
348.432
348.432
348.432
348.432
348.432
348.432
348.432
348.432
348.432
348.432
348.432
348.432
348.432
348.432
348.432
348.432
348.432
348.432
348.432
348.432
348.432
348.432
348.432
348.432
348.432
348.432
348.432
348.432
348.432
348.432
348.432
348.432
348.432
348.432
348.432
348.432
348.432
348.432
348.432
348.432
348.432
348.432
348.432
348.432
348.432
348.432
348.432
348.432
348.432
348.432
348.432
348.432
348.432
348.432
348.432
348.432
348.432
348.432
348.432
348.432
348.432
348.432
348.432
348.432
348.432
348.432
348.432
348.432
348.432
348.432
348.432
348.432
348.432
348.432
348.432
348.432
348.432
348.432
348.432
348.432
348.432
348.432
348.432
348.432
348.432
348.432
348.432
348.432
348.432
348.432
348.432
348.432
348.432
348.432
348.432
348.432
348.432
348.432
348.432
348.432
348.432
348.432
348.432
348.432
348.432
348.432
348.432
348.432
348.432
348.432
348.432
348.432
348.432
348.432
348.432
348.432
348.432
348.432
348.432
348.432
348.432
348.432
348.432
348.432
348.432
348.432
348.432
348.432
348.432
348.432
348.432
348.432
348.432
348.432
348.432
348.432
348.432
348.432
348.432
348.432
348.432
348.432
348.432
348.432
348.432
348.432
348.432
348.432
348.432
348.432
348.432
348.432
348.432
348.432
348.432
348.432
348.432
348.432
348.432
348.432
348.432
348.432
348.432
348.432
348.432
348.432
348.432
348.432
348.432
348.432
348.432
348.432
348.432
348.432
348.432
348.432
348.432
348.432
348.432
348.432
348.432
348.432
348.432
348.432
348.432
348.432
348.432
348.432
348.432
348.432
348.432
348.432
348.432
348.432
348.432
348.432
348.432
348.432
348.432
348.432
348.432
348.432
348.432
348.432
348.432
348.432
348.432
348.432
348.432
348.432
348.432
348.432
348.432
348.432
348.432
348.432
348.432
348.432
348.432
348.432
348.432
348.432
348.432
348.432
348.432
348.432
348.432
348.432
348.432
348.432
348.432
348.432
348.432
348.432
348.432
348.432
348.432
348.432
348.432
348.432
348.432
348.432
348.432
348.432
348.432
348.432
348.432
348.432
348.432
348.432
348.432
348.432
348.432
348.432
348.432
348.432
348.432
348.432
348.432
348.432
348.432
348.432
348.432
348.432
348.432
348.432
348.432
348.432
348.432
348.432
348.432
348.432
348.432
348.432
348.432
348.432
348.432
348.432
348.432
348.432
348.432
348.432
348.432
348.432
348.432
348.432
348.432
348.432
348.432
348.432
348.432
348.432
348.432
348.432
348.432
348.432
348.432
348.432
348.432
348.432
348.432
348.432
348.432
348.432
348.432
348.432
348.432
348.432
348.432
348.432
348.432
348.432
348.432
348.432
348.432
348.432
348.432
348.432
348.432
348.432
348.432
348.432
348.432
348.432
348.432
348.432
348.432
348.432
348.432
348.432
348.432
348.432
348.432
348.432
348.432
348.432
348.432
348.432
348.432
348.432
348.432
348.432
348.432
348.432
348.432
348.432
348.432
348.432
348.432
348.432
348.432
348.432
348.432
348.432
348.432
348.432
348.432
348.432
348.432
348.432
348.432
348.432
348.432
348.432
348.432
348.432
348.432
348.432
348.432
348.432
348.432
348.432
348.432
348.432
348.432
348.432
348.432
348.432
348.432
348.432
348.432
348.432
348.432
348.432
348.432
348.432
348.432
348.432
348.432
348.432
348.432
348.432
348.432
348.432
348.432
348.432
348.432
348.432
348.432
348.432
348.432
348.432
348.432
348.432
348.432
348.432
348.432
348.432
348.432
348.432
348.432
348.432
348.432
348.432
348.432
348.432
348.432
348.432
348.432
348.432
348.432
348.432
348.432
348.432
348.432
348.432
348.432
348.432
348.432
348.432
348.432
348.432
348.432
348.432
348.432
348.432
348.432
348.432
348.432
348.432
348.432
348.432
348.432
348.432
348.432
348.432
348.432
348.432
348.432
348.432
348.432
348.432
348.432
348.432
348.432
348.432
348.432
348.432
348.432
348.432
348.432
348.432
348.432
348.432
348.432
348.432
348.432
348.432
348.432
348.432
348.432
348.432
348.432
348.432
348.432
348.432
348.432
348.432
348.432
348.432
348.432
348.432
348.432
348.432
348.432
348.432
348.432
348.432
348.432
348.432
348.432
348.432
348.432
348.432
348.432
348.432
348.432
348.432
348.432
348.432
348.432
348.432
348.432
348.432
348.432
348.432
348.432
348.432
348.432
348.432
348.432
348.432
348.432
348.432
348.432
348.432
348.432
348.432
348.432
348.432
348.432
348.432
348.432
348.432
348.432
348.432
348.432
348.432
348.432
348.432
348.432
348.432
348.432
348.432
348.432
348.432
348.432
348.432
348.432
348.432
348.432
348.432
348.432
348.432
348.432
348.432
348.432
348.432
348.432
348.432
348.432
348.432
348.432
348.432
348.432
348.432
348.432
348.432
348.432
348.432
348.432
348.432
348.432
348.432
348.432
348.432
348.432
348.432
348.432
348.432
348.432
348.432
348.432
348.432
348.432
348.432
348.432
348.432
348.432
348.432
348.432
348.432
348.432
348.432
348.432
348.432
348.432
348.432
348.432
348.432
348.432
348.432
348.432
348.432
348.432
348.432
348.432
348.432
348.432
348.432
348.432
348.432
348.432
348.432
348.432
348.432
348.432
348.432
348.432
348.432
348.432
348.432
348.432
348.432
348.432
348.432
348.432
348.432
348.432
348.432
348.432
348.432
348.432
348.432
348.432
348.432
348.432
348.432
348.432
348.432
348.432
348.432
348.432
348.432
348.432
348.432
348.432
348.432
348.432
348.432
348.432
348.432
348.432
348.432
348.432
348.432
348.432
348.432
348.432
348.432
348.432
348.432
348.432
348.432
348.432
348.432
348.432
348.432
348.432
348.432
348.432
348.432
348.432
348.432
348.432
348.432
348.432
348.432
348.432
348.432
348.432
348.432
348.432
348.432
348.432
348.432
348.432
348.432
348.432
348.432
348.432
348.432
348.432
348.432
348.432
348.432
348.432
348.432
348.432
348.432
348.432
348.432
348.432
348.432
348.432
348.432
348.432
348.432
348.432
348.432
348.432
348.432
348.432
348.432
348.432
348.432
348.432
348.432
348.432
348.432
348.432
348.432
348.432
348.432
348.432
348.432
348.432
348.432
348.432
348.432
348.432
348.432
348.432
348.432
348.432
348.432
348.432
348.432
348.432
348.432
348.432
348.432
348.432
348.432
348.432
348.432
348.432
348.432
348.432
348.432
348.432
348.432
348.432
348.432
348.432
348.432
348.432
348.432
348.432
348.432
348.432
348.432
348.432
348.432
348.432
348.431
348.429
348.423
348.401
348.331
348.1
347.409
346.566
346.095
345.832
345.74
345.646
345.599
345.594
345.579
345.549
345.527
345.528
345.523
345.502
345.485
345.486
345.487
345.476
345.467
345.47
345.473
345.469
345.462
345.45
345.42
345.32
344.992
344.188
343.459
343.063
342.884
342.749
342.704
342.689
342.653
342.624
342.619
342.621
342.601
342.581
342.576
342.583
342.575
342.564
342.56
342.564
342.563
342.557
342.555
342.556
342.557
342.555
342.553
342.554
342.554
342.554
342.553
342.553
342.553
342.553
342.553
342.553
342.553
342.553
342.553
342.553
342.553
342.553
342.553
342.553
342.553
342.553
342.553
342.553
342.553
342.553
342.553
342.553
342.553
342.553
342.553
342.553
342.553
342.553
342.553
342.553
342.553
342.553
342.553
342.553
342.553
342.553
342.553
342.553
342.553
342.553
342.553
342.553
342.553
342.553
342.553
342.553
342.553
342.553
342.553
342.553
342.553
342.553
342.553
342.553
342.553
342.553
342.553
342.553
342.553
342.553
342.553
342.553
342.553
342.552
342.551
342.547
342.534
342.49
342.347
341.938
341.479
341.214
341.104
341.012
340.975
340.969
340.947
340.923
340.908
340.909
340.898
340.875
340.856
340.853
340.85
340.831
340.811
340.801
340.802
340.79
340.77
340.756
340.756
340.751
340.734
340.719
340.714
340.715
340.702
340.688
340.68
340.682
340.676
340.663
340.654
340.654
340.653
340.644
340.636
340.634
340.635
340.63
340.624
340.622
340.624
340.622
340.619
340.618
340.619
340.619
340.617
340.613
340.603
340.572
340.471
340.243
340.056
339.96
339.916
339.884
339.872
339.868
339.858
339.85
339.847
339.846
339.84
339.833
339.828
339.829
339.827
339.821
339.816
339.816
339.817
339.814
339.811
339.811
339.812
339.811
339.81
339.809
339.806
339.796
339.764
339.659
339.363
339.021
338.822
338.734
338.667
338.642
338.636
338.619
338.604
338.596
338.597
338.589
338.575
338.565
338.565
338.564
338.554
338.545
338.543
338.546
338.541
338.536
338.534
338.536
338.535
338.532
338.526
338.514
338.474
338.35
338.181
338.074
338.038
338.001
337.982
337.979
337.977
337.965
337.954
337.95
337.953
337.948
337.942
337.939
337.942
337.942
337.939
337.936
337.934
337.927
337.902
337.816
337.621
337.457
337.385
337.326
337.304
337.303
337.291
337.276
337.268
337.272
337.269
337.263
337.26
337.26
337.259
337.25
337.225
337.152
337.024
336.94
336.88
336.859
336.854
336.84
336.829
336.826
336.829
336.825
336.819
336.815
336.811
336.797
336.75
336.622
336.477
336.407
336.354
336.328
336.324
336.314
336.301
336.292
336.292
336.291
336.283
336.276
336.277
336.279
336.276
336.267
336.248
336.198
336.068
335.937
335.851
335.821
335.801
335.782
335.77
335.77
335.767
335.756
335.747
335.746
335.748
335.744
335.739
335.738
335.738
335.735
335.72
335.676
335.545
335.338
335.209
335.122
335.092
335.081
335.059
335.042
335.037
335.039
335.028
335.015
335.006
335.009
335.007
334.997
334.99
334.988
334.991
334.987
334.982
334.98
334.983
334.983
334.981
334.977
334.971
334.955
334.905
334.748
334.503
334.339
334.262
334.208
334.181
334.174
334.163
334.152
334.144
334.144
334.142
334.136
334.131
334.131
334.133
334.13
334.126
334.121
334.108
334.071
333.959
333.812
333.725
333.677
333.659
333.643
333.629
333.621
333.62
333.616
333.606
333.598
333.596
333.599
333.597
333.592
333.59
333.588
333.582
333.56
333.489
333.312
333.134
333.045
332.982
332.95
332.944
332.936
332.921
332.91
332.908
332.91
332.903
332.896
332.894
332.895
332.892
332.878
332.839
332.734
332.584
332.494
332.428
332.4
332.396
332.382
332.366
332.354
332.356
332.355
332.345
332.337
332.336
332.34
332.337
332.33
332.316
332.285
332.19
332.028
331.909
331.842
331.822
331.804
331.786
331.774
331.775
331.773
331.763
331.754
331.752
331.755
331.753
331.748
331.741
331.732
331.703
331.611
331.448
331.328
331.282
331.247
331.222
331.213
331.215
331.207
331.196
331.19
331.192
331.192
331.184
331.163
331.11
331.007
330.93
330.871
330.845
330.842
330.833
330.82
330.811
330.813
330.813
330.804
330.781
330.725
330.615
330.53
330.468
330.436
330.43
330.423
330.408
330.396
330.395
330.398
330.393
330.384
330.372
330.346
330.271
330.143
330.042
329.993
329.978
329.957
329.94
329.931
329.934
329.93
329.92
329.915
329.914
329.913
329.901
329.864
329.769
329.639
329.567
329.512
329.483
329.476
329.471
329.457
329.445
329.44
329.445
329.443
329.435
329.425
329.411
329.372
329.265
329.144
329.064
329.039
329.025
329.003
328.987
328.985
328.988
328.981
328.97
328.965
328.964
328.954
328.913
328.806
328.694
328.642
328.612
328.585
328.57
328.572
328.569
328.559
328.552
328.547
328.539
328.508
328.419
328.312
328.251
328.23
328.205
328.187
328.178
328.182
328.176
328.167
328.161
328.161
328.157
328.14
328.088
327.967
327.844
327.783
327.732
327.704
327.696
327.688
327.674
327.663
327.66
327.66
327.655
327.651
327.647
327.642
327.624
327.571
327.448
327.325
327.259
327.208
327.186
327.185
327.175
327.158
327.145
327.141
327.147
327.142
327.133
327.127
327.125
327.116
327.085
326.987
326.844
326.749
326.714
326.681
326.657
326.643
326.647
326.641
326.626
326.616
326.615
326.62
326.616
326.608
326.596
326.574
326.51
326.381
326.271
326.202
326.179
326.165
326.145
326.13
326.126
326.128
326.12
326.111
326.107
326.109
326.107
326.097
326.071
326.002
325.871
325.77
325.698
325.663
325.654
325.641
325.624
325.611
325.611
325.613
325.605
325.596
325.593
325.594
325.587
325.561
325.481
325.348
325.259
325.226
325.19
325.169
325.162
325.158
325.134
325.087
325.043
325.023
325.022
325.008
324.989
324.977
324.979
324.982
324.972
324.955
324.926
324.857
324.73
324.626
324.547
324.509
324.503
324.487
324.464
324.447
324.442
324.444
324.432
324.418
324.411
324.416
324.416
324.408
324.397
324.376
324.322
324.194
324.068
323.982
323.949
323.934
323.91
323.892
323.884
323.887
323.878
323.864
323.856
323.859
323.862
323.856
323.841
323.81
323.732
323.607
323.518
323.45
323.418
323.414
323.403
323.384
323.369
323.365
323.372
323.368
323.358
323.347
323.335
323.307
323.226
323.121
323.043
323.009
323.002
322.984
322.963
322.948
322.949
322.951
322.943
322.932
322.928
322.927
322.92
322.891
322.804
322.655
322.542
322.493
322.454
322.419
322.398
322.398
322.394
322.377
322.36
322.35
322.356
322.357
322.35
322.342
322.336
322.329
322.307
322.232
322.093
321.979
321.922
321.904
321.882
321.854
321.834
321.825
321.837
321.838
321.829
321.809
321.799
321.794
321.793
321.78
321.729
321.64
321.557
321.499
321.462
321.437
321.404
321.361
321.32
321.288
321.269
321.254
321.242
321.232
321.219
321.196
321.165
321.127
321.09
321.061
321.033
320.994
320.951
320.912
320.883
320.858
320.826
320.79
320.758
320.733
320.712
320.683
320.65
320.619
320.594
320.572
320.544
320.511
320.479
320.454
320.432
320.403
320.366
320.329
320.299
320.275
320.248
320.212
320.174
320.142
320.117
320.092
320.059
320.025
319.995
319.972
319.947
319.914
319.879
319.848
319.826
319.804
319.773
319.736
319.701
319.676
319.655
319.625
319.586
319.55
319.523
319.51
319.483
319.44
319.398
319.364
319.362
319.35
319.304
319.253
319.211
319.194
319.203
319.174
319.121
319.069
319.03
319.022
319.03
318.996
318.941
318.889
318.851
318.845
318.854
318.818
318.762
318.702
318.659
318.637
318.649
318.651
318.609
318.552
318.497
318.456
318.438
318.452
318.453
318.411
318.353
318.292
318.244
318.206
318.198
318.217
318.222
318.182
318.126
318.067
318.017
317.976
317.956
317.969
317.978
317.941
317.885
317.822
317.771
317.731
317.714
317.73
317.744
317.714
317.663
317.604
317.554
317.509
317.472
317.456
317.466
317.473
317.441
317.39
317.339
317.292
317.252
317.225
317.228
317.238
317.209
317.156
317.095
317.045
317.003
316.975
316.981
316.998
316.978
316.93
316.876
316.827
316.782
316.746
316.737
316.749
316.727
316.678
316.63
316.591
316.587
316.569
316.521
316.466
316.424
316.404
316.418
316.408
316.361
316.301
316.254
316.221
316.225
316.234
316.197
316.14
316.08
316.038
316.018
316.033
316.028
315.982
315.92
315.863
315.823
315.812
315.832
315.826
315.78
315.719
315.664
315.625
315.615
315.632
315.613
315.562
315.493
315.437
315.397
315.39
315.419
315.436
315.402
315.345
315.269
315.206
315.163
315.133
315.145
315.174
315.159
315.11
315.04
314.97
314.926
314.898
314.914
314.949
314.938
314.89
314.821
314.745
314.697
314.662
314.663
314.689
314.679
314.633
314.571
314.517
314.477
314.463
314.473
314.448
314.398
314.351
314.314
314.313
314.298
314.252
314.2
314.159
314.141
314.152
314.127
314.077
314.023
313.983
313.966
313.97
313.937
313.885
313.84
313.808
313.815
313.823
313.785
313.726
313.657
313.611
313.58
313.589
313.614
313.594
313.544
313.477
313.419
313.379
313.361
313.378
313.376
313.333
313.277
313.229
313.192
313.188
313.183
313.141
313.09
313.048
313.026
313.033
313.005
312.954
312.899
312.859
312.842
312.859
312.853
312.808
312.749
312.694
312.655
312.638
312.648
312.623
312.575
312.531
312.498
312.501
312.481
312.433
312.376
312.333
312.305
312.314
312.31
312.267
312.21
312.162
312.126
312.124
312.139
312.111
312.059
311.996
311.951
311.919
311.925
311.939
311.906
311.851
311.78
311.729
311.693
311.693
311.723
311.72
311.676
311.614
311.546
311.503
311.474
311.485
311.504
311.475
311.421
311.345
311.283
311.243
311.228
311.259
311.298
311.28
311.229
311.153
311.056
310.995
310.955
310.938
310.97
311.026
311.027
310.983
310.92
310.82
310.74
310.695
310.661
310.668
310.721
310.758
310.734
310.683
310.604
310.496
310.427
310.385
310.353
310.364
310.427
310.475
310.458
310.409
310.335
310.228
310.153
310.109
310.076
310.087
310.136
310.159
310.127
310.072
309.989
309.91
309.864
309.83
309.835
309.875
309.886
309.848
309.79
309.709
309.646
309.605
309.58
309.597
309.625
309.606
309.558
309.499
309.452
309.416
309.413
309.4
309.355
309.295
309.245
309.209
309.21
309.245
309.25
309.209
309.148
309.061
308.996
308.956
308.933
308.954
308.991
308.976
308.929
308.864
308.799
308.757
308.729
308.741
308.759
308.729
308.676
308.598
308.53
308.49
308.464
308.484
308.524
308.515
308.471
308.407
308.332
308.282
308.245
308.236
308.259
308.257
308.215
308.159
308.104
308.064
308.04
308.049
308.03
307.984
307.932
307.892
307.869
307.882
307.874
307.832
307.781
307.735
307.694
307.661
307.634
307.612
307.604
307.605
307.571
307.521
307.459
307.413
307.379
307.378
307.404
307.391
307.346
307.286
307.229
307.189
307.165
307.174
307.153
307.107
307.051
307.009
306.982
306.994
307.015
306.986
306.935
306.861
306.798
306.757
306.733
306.751
306.781
306.76
306.712
306.644
306.575
306.532
306.498
306.499
306.525
306.513
306.469
306.414
306.365
306.326
306.305
306.294
306.257
306.213
306.176
306.162
306.167
306.134
306.084
306.036
305.999
305.985
305.997
305.975
305.929
305.887
305.853
305.839
305.806
305.761
305.716
305.679
305.666
305.678
305.652
305.603
305.546
305.503
305.472
305.476
305.486
305.453
305.402
305.342
305.298
305.266
305.266
305.275
305.242
305.192
305.137
305.097
305.07
305.08
305.08
305.042
304.991
304.945
304.907
304.892
304.877
304.837
304.793
304.756
304.744
304.75
304.718
304.668
304.609
304.567
304.537
304.546
304.567
304.541
304.492
304.423
304.362
304.323
304.298
304.315
304.343
304.321
304.275
304.213
304.157
304.116
304.083
304.072
304.046
304.003
303.964
303.936
303.95
303.984
303.968
303.922
303.852
303.757
303.696
303.657
303.633
303.654
303.704
303.704
303.663
303.605
303.522
303.459
303.419
303.389
303.398
303.429
303.416
303.372
303.313
303.252
303.209
303.177
303.177
303.191
303.163
303.116
303.06
303.018
302.985
302.984
302.979
302.939
302.892
302.852
302.825
302.82
302.789
302.744
302.701
302.666
302.66
302.666
302.634
302.586
302.537
302.499
302.483
302.49
302.461
302.412
302.352
302.306
302.271
302.262
302.28
302.265
302.222
302.173
302.134
302.112
302.115
302.084
302.033
301.966
301.915
301.879
301.872
301.91
301.939
301.913
301.864
301.789
301.701
301.648
301.611
301.595
301.621
301.654
301.632
301.586
301.52
301.451
301.408
301.374
301.374
301.406
301.403
301.361
301.303
301.223
301.166
301.129
301.108
301.13
301.166
301.148
301.104
301.04
300.968
300.922
300.886
300.877
300.902
300.9
300.86
300.804
300.732
300.683
300.647
300.638
300.669
300.685
300.653
300.602
300.526
300.46
300.42
300.391
300.404
300.46
300.477
300.445
300.393
300.31
300.194
300.123
300.079
300.042
300.018
300.039
300.108
300.141
300.115
300.068
299.999
299.908
299.85
299.81
299.779
299.783
299.816
299.808
299.767
299.711
299.648
299.603
299.568
299.559
299.578
299.562
299.519
299.462
299.408
299.37
299.345
299.358
299.371
299.34
299.292
299.233
299.187
299.152
299.138
299.145
299.117
299.072
299.02
298.98
298.95
298.953
298.95
298.913
298.867
298.826
298.795
298.797
298.782
298.741
298.686
298.634
298.596
298.569
298.575
298.564
298.524
298.484
298.452
298.453
298.453
298.415
298.361
298.29
298.24
298.204
298.19
298.217
298.237
298.208
298.16
298.091
298.025
297.983
297.949
297.943
297.971
297.967
297.927
297.875
297.815
297.772
297.738
297.729
297.745
297.724
297.68
297.625
297.577
297.54
297.517
297.529
297.532
297.498
297.455
297.415
297.377
297.337
297.294
297.244
297.202
297.168
297.161
297.193
297.202
297.167
297.117
297.044
296.984
296.946
296.917
296.928
296.976
296.983
296.947
296.897
296.821
296.738
296.686
296.645
296.607
296.574
296.565
296.6
296.64
296.623
296.58
296.52
296.437
296.38
296.342
296.312
296.317
296.354
296.35
296.31
296.256
296.182
296.128
296.09
296.062
296.07
296.098
296.08
296.038
295.981
295.924
295.883
295.849
295.841
295.845
295.813
295.769
295.728
295.695
295.691
295.698
295.667
295.619
295.55
295.493
295.456
295.429
295.44
295.472
295.455
295.413
295.353
295.283
295.236
295.201
295.184
295.205
295.219
295.187
295.139
295.072
295.016
294.978
294.95
294.961
294.995
294.98
294.938
294.878
294.787
294.722
294.681
294.649
294.649
294.701
294.746
294.727
294.684
294.622
294.522
294.446
294.402
294.368
294.355
294.39
294.443
294.434
294.394
294.338
294.249
294.174
294.13
294.095
294.082
294.111
294.142
294.12
294.076
294.013
293.939
293.892
293.857
293.84
293.865
293.896
293.874
293.83
293.765
293.678
293.622
293.584
293.556
293.567
293.618
293.63
293.597
293.549
293.477
293.404
293.359
293.324
293.302
293.317
293.332
293.304
293.259
293.201
293.153
293.117
293.093
293.104
293.104
293.067
293.016
292.947
292.897
292.861
292.84
292.862
292.904
292.891
292.85
292.794
292.71
292.647
292.607
292.573
292.563
292.588
292.588
292.552
292.503
292.443
292.399
292.365
292.352
292.38
292.394
292.363
292.315
292.242
292.164
292.118
292.083
292.065
292.091
292.132
292.116
292.076
292.019
291.936
291.876
291.837
291.805
291.8
291.835
291.846
291.814
291.767
291.701
291.641
291.6
291.566
291.551
291.571
291.568
291.532
291.485
291.433
291.394
291.361
291.352
291.367
291.346
291.306
291.257
291.211
291.171
291.133
291.095
291.058
291.024
290.997
291.003
291.035
291.024
290.985
290.933
290.858
290.803
290.765
290.733
290.728
290.76
290.762
290.727
290.682
290.626
290.583
290.546
290.516
290.501
290.473
290.434
290.395
290.36
290.334
290.341
290.343
290.31
290.267
290.226
290.191
290.167
290.147
290.111
290.071
290.031
289.997
289.978
289.995
289.989
289.952
289.902
289.833
289.782
289.746
289.719
289.728
289.757
289.739
289.699
289.643
289.577
289.532
289.497
289.475
289.491
289.513
289.487
289.445
289.385
289.319
289.276
289.241
289.216
289.225
289.238
289.21
289.168
289.118
289.076
289.042
289.025
289.024
288.994
288.952
288.906
288.869
288.839
288.84
288.849
288.819
288.776
288.716
288.664
288.627
288.598
288.599
288.622
288.602
288.561
288.505
288.44
288.398
288.364
288.347
288.37
288.39
288.363
288.32
288.257
288.185
288.139
288.104
288.08
288.094
288.126
288.109
288.07
288.017
287.947
287.898
287.862
287.833
287.834
287.856
287.837
287.797
287.742
287.681
287.64
287.606
287.591
287.615
287.633
287.605
287.562
287.5
287.429
287.384
287.349
287.321
287.326
287.349
287.329
287.29
287.238
287.185
287.147
287.115
287.105
287.123
287.107
287.068
287.016
286.953
286.91
286.876
286.855
286.872
286.891
286.866
286.824
286.767
286.708
286.667
286.633
286.612
286.622
286.61
286.572
286.521
286.461
286.419
286.386
286.371
286.4
286.434
286.414
286.373
286.317
286.228
286.163
286.123
286.089
286.072
286.097
286.138
286.123
286.085
286.033
285.956
285.896
285.857
285.824
285.809
285.838
285.879
285.863
285.824
285.773
285.691
285.608
285.561
285.523
285.487
285.455
285.438
285.464
285.521
285.521
285.486
285.441
285.371
285.288
285.239
285.202
285.171
285.162
285.193
285.206
285.176
285.133
285.072
285.007
284.965
284.931
284.906
284.92
284.979
284.994
284.964
284.923
284.866
284.767
284.669
284.618
284.58
284.543
284.508
284.478
284.47
284.512
284.589
284.593
284.561
284.517
284.449
284.344
284.275
284.234
284.201
284.176
284.188
284.241
284.247
284.215
284.171
284.104
284.023
283.975
283.94
283.91
283.908
283.95
283.964
283.935
283.893
283.83
283.744
283.691
283.655
283.623
283.612
283.646
283.681
283.661
283.622
283.571
283.494
283.436
283.397
283.363
283.336
283.34
283.362
283.342
283.305
283.257
283.21
283.173
283.141
283.123
283.125
283.1
283.062
283.024
282.991
282.972
282.965
282.935
282.894
282.84
282.794
282.759
282.73
282.729
282.756
282.742
282.706
282.658
282.595
282.548
282.512
282.482
282.472
282.49
282.475
282.439
282.392
282.339
282.299
282.266
282.245
282.257
282.26
282.227
282.185
282.125
282.073
282.036
282.004
281.992
282.02
282.037
282.01
281.97
281.915
281.838
281.785
281.747
281.711
281.676
281.642
281.615
281.614
281.656
281.674
281.646
281.606
281.55
281.472
281.418
281.38
281.348
281.324
281.336
281.36
281.339
281.302
281.254
281.204
281.167
281.135
281.119
281.14
281.144
281.113
281.07
281.004
280.909
280.852
280.814
280.78
280.753
280.756
280.807
280.83
280.805
280.766
280.714
280.641
280.591
280.555
280.523
280.507
280.53
280.544
280.516
280.475
280.417
280.339
280.289
280.254
280.224
280.217
280.257
280.291
280.27
280.232
280.181
280.095
280.016
279.974
279.939
279.91
279.906
279.948
279.971
279.945
279.906
279.853
279.774
279.719
279.682
279.65
279.628
279.643
279.674
279.656
279.62
279.572
279.503
279.449
279.412
279.38
279.359
279.376
279.398
279.375
279.337
279.286
279.221
279.175
279.141
279.111
279.104
279.135
279.136
279.103
279.061
278.997
278.918
278.871
278.836
278.806
278.795
278.829
278.858
278.836
278.798
278.749
278.673
278.612
278.573
278.54
278.512
278.508
278.541
278.541
278.509
278.469
278.417
278.371
278.335
278.303
278.28
278.27
278.243
278.207
278.166
278.129
278.096
278.069
278.071
278.102
278.091
278.057
278.014
277.95
277.883
277.842
277.807
277.772
277.738
277.704
277.674
277.657
277.679
277.709
277.69
277.655
277.613
277.567
277.529
277.495
277.461
277.427
277.393
277.358
277.322
277.288
277.255
277.226
277.22
277.228
277.204
277.168
277.127
277.091
277.059
277.038
277.046
277.038
277.004
276.961
276.896
276.837
276.799
276.768