/*--------------------------------*- C++ -*----------------------------------*\
  =========                 |
  \\      /  F ield         | OpenFOAM: The Open Source CFD Toolbox
   \\    /   O peration     | Website:  https://openfoam.org
    \\  /    A nd           | Version:  9
     \\/     M anipulation  |
\*---------------------------------------------------------------------------*/
FoamFile
{
    format      ascii;
    class       volVectorField;
    location    "0.01";
    object      U;
}
// * * * * * * * * * * * * * * * * * * * * * * * * * * * * * * * * * * * * * //

dimensions      [0 1 -1 0 0 0 0];

internalField   nonuniform List<vector> 
10000
(
(-1.65333e-12 0 0)
(-1.59795e-12 0 0)
(-1.52955e-12 0 0)
(-1.41635e-12 0 0)
(-1.35521e-12 0 0)
(-1.27138e-12 0 0)
(-1.23427e-12 0 0)
(-1.23229e-12 0 0)
(-1.1496e-12 0 0)
(-1.27085e-12 0 0)
(-1.3916e-12 0 0)
(-1.47765e-12 0 0)
(-1.50386e-12 0 0)
(-1.45119e-12 0 0)
(-1.38959e-12 0 0)
(-1.26845e-12 0 0)
(-1.24289e-12 0 0)
(-1.2526e-12 0 0)
(-1.29153e-12 0 0)
(-1.40217e-12 0 0)
(-1.46311e-12 0 0)
(-1.41923e-12 0 0)
(-1.46199e-12 0 0)
(-1.40126e-12 0 0)
(-1.33094e-12 0 0)
(-1.21739e-12 0 0)
(-1.14797e-12 0 0)
(-1.17491e-12 0 0)
(-1.21722e-12 0 0)
(-1.20394e-12 0 0)
(-1.20114e-12 0 0)
(-1.14633e-12 0 0)
(-1.23111e-12 0 0)
(-1.28262e-12 0 0)
(-1.39254e-12 0 0)
(-1.56297e-12 0 0)
(-1.51718e-12 0 0)
(-1.57822e-12 0 0)
(-1.50211e-12 0 0)
(-1.47562e-12 0 0)
(-1.50437e-12 0 0)
(-1.59101e-12 0 0)
(-1.62087e-12 0 0)
(-1.5865e-12 0 0)
(-1.67254e-12 0 0)
(-1.91718e-12 0 0)
(-1.98665e-12 0 0)
(-1.93826e-12 0 0)
(-1.98817e-12 0 0)
(-2.1325e-12 0 0)
(-2.2527e-12 0 0)
(-2.35663e-12 0 0)
(-2.45978e-12 0 0)
(-2.50497e-12 0 0)
(-2.57446e-12 0 0)
(-2.47923e-12 0 0)
(-2.35691e-12 0 0)
(-2.32317e-12 0 0)
(-2.44171e-12 0 0)
(-2.34636e-12 0 0)
(-2.37303e-12 0 0)
(-2.36308e-12 0 0)
(-2.33945e-12 0 0)
(-2.49738e-12 0 0)
(-2.53938e-12 0 0)
(-2.40724e-12 0 0)
(-2.25071e-12 0 0)
(-2.07835e-12 0 0)
(-1.98026e-12 0 0)
(-2.00787e-12 0 0)
(-1.92808e-12 0 0)
(-1.84997e-12 0 0)
(-1.75195e-12 0 0)
(-1.76224e-12 0 0)
(-1.83582e-12 0 0)
(-1.84052e-12 0 0)
(-1.76212e-12 0 0)
(-1.71883e-12 0 0)
(-1.64191e-12 0 0)
(-1.63621e-12 0 0)
(-1.6876e-12 0 0)
(-1.70286e-12 0 0)
(-1.68242e-12 0 0)
(-1.80131e-12 0 0)
(-1.81722e-12 0 0)
(-1.80007e-12 0 0)
(-1.85082e-12 0 0)
(-1.82697e-12 0 0)
(-1.77258e-12 0 0)
(-1.81327e-12 0 0)
(-1.91065e-12 0 0)
(-2.01336e-12 0 0)
(-2.13764e-12 0 0)
(-2.14868e-12 0 0)
(-1.99676e-12 0 0)
(-1.86278e-12 0 0)
(-1.75963e-12 0 0)
(-1.68913e-12 0 0)
(-1.59521e-12 0 0)
(-1.70174e-12 0 0)
(-1.72663e-12 0 0)
(-1.68706e-12 0 0)
(-1.71918e-12 0 0)
(-1.67595e-12 0 0)
(-1.5719e-12 0 0)
(-1.56404e-12 0 0)
(-1.6585e-12 0 0)
(-1.70142e-12 0 0)
(-1.80645e-12 0 0)
(-1.96481e-12 0 0)
(-2.04228e-12 0 0)
(-2.1199e-12 0 0)
(-2.13128e-12 0 0)
(-2.23563e-12 0 0)
(-2.29878e-12 0 0)
(-2.43389e-12 0 0)
(-2.43426e-12 0 0)
(-2.33449e-12 0 0)
(-2.28134e-12 0 0)
(-2.19246e-12 0 0)
(-2.10481e-12 0 0)
(-2.095e-12 0 0)
(-2.18189e-12 0 0)
(-2.2688e-12 0 0)
(-2.30469e-12 0 0)
(-2.36124e-12 0 0)
(-2.4512e-12 0 0)
(-2.55257e-12 0 0)
(-2.70709e-12 0 0)
(-2.78765e-12 0 0)
(-2.87417e-12 0 0)
(-2.93893e-12 0 0)
(-2.90888e-12 0 0)
(-2.91253e-12 0 0)
(-2.99937e-12 0 0)
(-3.04196e-12 0 0)
(-3.01317e-12 0 0)
(-3.00939e-12 0 0)
(-3.06987e-12 0 0)
(-2.96391e-12 0 0)
(-2.94559e-12 0 0)
(-3.01848e-12 0 0)
(-2.85803e-12 0 0)
(-2.80182e-12 0 0)
(-2.86822e-12 0 0)
(-3.02121e-12 0 0)
(-3.18856e-12 0 0)
(-3.09562e-12 0 0)
(-3.0329e-12 0 0)
(-2.82124e-12 0 0)
(-2.60412e-12 0 0)
(-2.55586e-12 0 0)
(-2.49037e-12 0 0)
(-2.51578e-12 0 0)
(-2.60662e-12 0 0)
(-2.58333e-12 0 0)
(-2.51251e-12 0 0)
(-2.45426e-12 0 0)
(-2.3459e-12 0 0)
(-2.2326e-12 0 0)
(-2.18403e-12 0 0)
(-2.22379e-12 0 0)
(-2.17699e-12 0 0)
(-2.22271e-12 0 0)
(-2.32197e-12 0 0)
(-2.32262e-12 0 0)
(-2.25746e-12 0 0)
(-2.20241e-12 0 0)
(-2.14736e-12 0 0)
(-2.06988e-12 0 0)
(-2.06232e-12 0 0)
(-2.05746e-12 0 0)
(-1.98556e-12 0 0)
(-2.03059e-12 0 0)
(-1.99593e-12 0 0)
(-1.84984e-12 0 0)
(-1.92277e-12 0 0)
(-2.03091e-12 0 0)
(-2.06361e-12 0 0)
(-2.11072e-12 0 0)
(-2.12883e-12 0 0)
(-2.1588e-12 0 0)
(-2.04767e-12 0 0)
(-2.07662e-12 0 0)
(-2.12757e-12 0 0)
(-1.99143e-12 0 0)
(-1.70797e-12 0 0)
(-1.55291e-12 0 0)
(-1.46961e-12 0 0)
(-1.47492e-12 0 0)
(-1.39186e-12 0 0)
(-1.30796e-12 0 0)
(-1.38217e-12 0 0)
(-1.48202e-12 0 0)
(-1.50438e-12 0 0)
(-1.57879e-12 0 0)
(-1.76575e-12 0 0)
(-1.81426e-12 0 0)
(-1.93278e-12 0 0)
(-2.06632e-12 0 0)
(-2.12753e-12 0 0)
(-2.16333e-12 0 0)
(-2.17463e-12 0 0)
(-2.07357e-12 0 0)
(-2.01267e-12 0 0)
(-1.99381e-12 0 0)
(-1.99268e-12 0 0)
(-1.94249e-12 0 0)
(-1.9537e-12 0 0)
(-1.94388e-12 0 0)
(-1.81717e-12 0 0)
(-1.7744e-12 0 0)
(-1.71921e-12 0 0)
(-1.6416e-12 0 0)
(-1.64776e-12 0 0)
(-1.66817e-12 0 0)
(-1.60238e-12 0 0)
(-1.548e-12 0 0)
(-1.55702e-12 0 0)
(-1.44303e-12 0 0)
(-1.4371e-12 0 0)
(-1.50623e-12 0 0)
(-1.50835e-12 0 0)
(-1.54542e-12 0 0)
(-1.56097e-12 0 0)
(-1.37935e-12 0 0)
(-1.45826e-12 0 0)
(-1.61181e-12 0 0)
(-1.73058e-12 0 0)
(-1.81e-12 0 0)
(-1.93626e-12 0 0)
(-2.00909e-12 0 0)
(-2.09628e-12 0 0)
(-2.12831e-12 0 0)
(-2.17998e-12 0 0)
(-2.20517e-12 0 0)
(-2.17055e-12 0 0)
(-2.19434e-12 0 0)
(-2.18254e-12 0 0)
(-2.09435e-12 0 0)
(-2.02867e-12 0 0)
(-2.02693e-12 0 0)
(-1.96646e-12 0 0)
(-1.93142e-12 0 0)
(-1.97065e-12 0 0)
(-2.03017e-12 0 0)
(-2.0689e-12 0 0)
(-2.09199e-12 0 0)
(-2.03132e-12 0 0)
(-1.9327e-12 0 0)
(-1.81575e-12 0 0)
(-1.70318e-12 0 0)
(-1.59016e-12 0 0)
(-1.4863e-12 0 0)
(-1.413e-12 0 0)
(-1.41812e-12 0 0)
(-1.41635e-12 0 0)
(-1.376e-12 0 0)
(-1.35008e-12 0 0)
(-1.32575e-12 0 0)
(-1.25176e-12 0 0)
(-1.179e-12 0 0)
(-1.09308e-12 0 0)
(-1.25103e-12 0 0)
(-1.32272e-12 0 0)
(-1.37431e-12 0 0)
(-1.50308e-12 0 0)
(-1.52293e-12 0 0)
(-1.48086e-12 0 0)
(-1.6127e-12 0 0)
(-1.65048e-12 0 0)
(-1.6096e-12 0 0)
(-1.60934e-12 0 0)
(-1.56849e-12 0 0)
(-1.5215e-12 0 0)
(-1.53115e-12 0 0)
(-1.59605e-12 0 0)
(-1.53291e-12 0 0)
(-1.54446e-12 0 0)
(-1.56688e-12 0 0)
(-1.52922e-12 0 0)
(-1.46527e-12 0 0)
(-1.46254e-12 0 0)
(-1.36926e-12 0 0)
(-1.35403e-12 0 0)
(-1.36784e-12 0 0)
(-1.25099e-12 0 0)
(-1.16649e-12 0 0)
(-1.13187e-12 0 0)
(-1.15433e-12 0 0)
(-1.10108e-12 0 0)
(-1.01714e-12 0 0)
(-1.06187e-12 0 0)
(-1.11938e-12 0 0)
(-1.06716e-12 0 0)
(-1.06894e-12 0 0)
(-1.09117e-12 0 0)
(-1.14765e-12 0 0)
(-1.23398e-12 0 0)
(-1.29959e-12 0 0)
(-1.39803e-12 0 0)
(-1.44836e-12 0 0)
(-1.47352e-12 0 0)
(-1.43804e-12 0 0)
(-1.42748e-12 0 0)
(-1.52324e-12 0 0)
(-1.42159e-12 0 0)
(-1.43041e-12 0 0)
(-1.46761e-12 0 0)
(-1.40726e-12 0 0)
(-1.38759e-12 0 0)
(-1.37799e-12 0 0)
(-1.27988e-12 0 0)
(-1.30567e-12 0 0)
(-1.31222e-12 0 0)
(-1.19202e-12 0 0)
(-1.10619e-12 0 0)
(-1.13068e-12 0 0)
(-1.00281e-12 0 0)
(-1.00752e-12 0 0)
(-1.13235e-12 0 0)
(-1.09931e-12 0 0)
(-1.16142e-12 0 0)
(-1.24875e-12 0 0)
(-1.29744e-12 0 0)
(-1.30321e-12 0 0)
(-1.2734e-12 0 0)
(-1.16568e-12 0 0)
(-1.08089e-12 0 0)
(-1.12765e-12 0 0)
(-1.14491e-12 0 0)
(-1.23063e-12 0 0)
(-1.2492e-12 0 0)
(-1.23213e-12 0 0)
(-1.27339e-12 0 0)
(-1.16854e-12 0 0)
(-1.12642e-12 0 0)
(-1.07729e-12 0 0)
(-1.12361e-12 0 0)
(-1.20887e-12 0 0)
(-1.27035e-12 0 0)
(-1.37025e-12 0 0)
(-1.48636e-12 0 0)
(-1.64421e-12 0 0)
(-1.69833e-12 0 0)
(-1.69272e-12 0 0)
(-1.80588e-12 0 0)
(-1.93016e-12 0 0)
(-2.01249e-12 0 0)
(-2.05268e-12 0 0)
(-2.06457e-12 0 0)
(-2.22654e-12 0 0)
(-2.22343e-12 0 0)
(-2.15657e-12 0 0)
(-2.11514e-12 0 0)
(-2.02741e-12 0 0)
(-1.88057e-12 0 0)
(-1.7043e-12 0 0)
(-1.63794e-12 0 0)
(-1.6423e-12 0 0)
(-1.53055e-12 0 0)
(-1.50745e-12 0 0)
(-1.4679e-12 0 0)
(-1.43109e-12 0 0)
(-1.40097e-12 0 0)
(-1.39484e-12 0 0)
(-1.36793e-12 0 0)
(-1.36315e-12 0 0)
(-1.30159e-12 0 0)
(-1.22904e-12 0 0)
(-1.16057e-12 0 0)
(-1.17012e-12 0 0)
(-1.08951e-12 0 0)
(-1.00464e-12 0 0)
(-1.075e-12 0 0)
(-1.05842e-12 0 0)
(-9.93999e-13 0 0)
(-1.06926e-12 0 0)
(-1.05052e-12 0 0)
(-1.07827e-12 0 0)
(-1.05665e-12 0 0)
(-1.02726e-12 0 0)
(-1.03731e-12 0 0)
(-1.07676e-12 0 0)
(-1.1602e-12 0 0)
(-1.22469e-12 0 0)
(-1.1195e-12 0 0)
(-1.06136e-12 0 0)
(-9.79409e-13 0 0)
(-8.65057e-13 0 0)
(-8.8318e-13 0 0)
(-8.83481e-13 0 0)
(-8.6799e-13 0 0)
(-8.48863e-13 0 0)
(-8.50398e-13 0 0)
(-8.63621e-13 0 0)
(-7.24784e-13 0 0)
(-6.72865e-13 0 0)
(-6.26463e-13 0 0)
(-6.03789e-13 0 0)
(-6.50827e-13 0 0)
(-5.77701e-13 0 0)
(-5.19262e-13 0 0)
(-5.42648e-13 0 0)
(-5.56211e-13 0 0)
(-5.05063e-13 0 0)
(-5.33755e-13 0 0)
(-4.79824e-13 0 0)
(-4.06581e-13 0 0)
(-4.34945e-13 0 0)
(-5.22866e-13 0 0)
(-4.72786e-13 0 0)
(-4.05057e-13 0 0)
(-3.11693e-13 0 0)
(-2.47507e-13 0 0)
(-2.19582e-13 0 0)
(-1.6306e-13 0 0)
(-1.82467e-14 0 0)
(7.0688e-14 0 0)
(3.20002e-14 0 0)
(-2.17171e-14 0 0)
(3.49679e-14 0 0)
(4.84933e-14 0 0)
(-3.45033e-14 0 0)
(5.38262e-14 0 0)
(9.02904e-14 0 0)
(7.56898e-14 0 0)
(2.66306e-14 0 0)
(-5.23449e-14 0 0)
(-4.97241e-14 0 0)
(9.54943e-14 0 0)
(1.72081e-13 0 0)
(1.21706e-13 0 0)
(1.52338e-14 0 0)
(-5.52078e-14 0 0)
(-1.06675e-13 0 0)
(-1.91186e-13 0 0)
(-2.03535e-13 0 0)
(-1.71256e-13 0 0)
(-9.09308e-14 0 0)
(4.36649e-14 0 0)
(8.71982e-14 0 0)
(1.30163e-13 0 0)
(1.08075e-13 0 0)
(2.1015e-13 0 0)
(3.56966e-13 0 0)
(5.07635e-13 0 0)
(6.20734e-13 0 0)
(7.04551e-13 0 0)
(9.84557e-13 0 0)
(1.27243e-12 0 0)
(1.25849e-12 0 0)
(1.22578e-12 0 0)
(1.17876e-12 0 0)
(1.13778e-12 0 0)
(9.85656e-13 0 0)
(7.95181e-13 0 0)
(7.0621e-13 0 0)
(5.61108e-13 0 0)
(4.17553e-13 0 0)
(4.04535e-13 0 0)
(4.67901e-13 0 0)
(5.89986e-13 0 0)
(5.32271e-13 0 0)
(3.87625e-13 0 0)
(3.15104e-13 0 0)
(2.93209e-13 0 0)
(2.5876e-13 0 0)
(1.8521e-13 0 0)
(9.7887e-14 0 0)
(1.23882e-13 0 0)
(9.96421e-14 0 0)
(2.09982e-13 0 0)
(2.59811e-13 0 0)
(2.25685e-13 0 0)
(2.06689e-13 0 0)
(5.42296e-14 0 0)
(-3.41168e-14 0 0)
(9.51766e-15 0 0)
(-1.97679e-14 0 0)
(3.33721e-14 0 0)
(9.20158e-14 0 0)
(1.56202e-13 0 0)
(2.11148e-13 0 0)
(2.64464e-13 0 0)
(2.0445e-13 0 0)
(1.34899e-13 0 0)
(-4.9368e-15 0 0)
(-9.57156e-14 0 0)
(-5.73626e-14 0 0)
(-2.27678e-14 0 0)
(3.57149e-15 0 0)
(1.65593e-14 0 0)
(4.3028e-14 0 0)
(2.923e-14 0 0)
(9.82811e-14 0 0)
(1.42059e-13 0 0)
(1.84571e-13 0 0)
(3.87659e-13 0 0)
(5.35039e-13 0 0)
(5.18859e-13 0 0)
(5.29895e-13 0 0)
(4.89663e-13 0 0)
(4.51957e-13 0 0)
(4.22291e-13 0 0)
(3.28501e-13 0 0)
(2.37115e-13 0 0)
(2.67497e-13 0 0)
(4.15105e-13 0 0)
(5.9396e-13 0 0)
(7.06774e-13 0 0)
(7.37489e-13 0 0)
(8.1238e-13 0 0)
(8.32907e-13 0 0)
(8.27919e-13 0 0)
(8.5969e-13 0 0)
(8.51104e-13 0 0)
(7.72328e-13 0 0)
(7.38766e-13 0 0)
(6.48542e-13 0 0)
(6.69461e-13 0 0)
(8.1824e-13 0 0)
(7.80047e-13 0 0)
(7.37698e-13 0 0)
(7.55987e-13 0 0)
(6.56583e-13 0 0)
(5.55419e-13 0 0)
(5.06472e-13 0 0)
(5.51748e-13 0 0)
(6.40248e-13 0 0)
(7.01589e-13 0 0)
(6.9068e-13 0 0)
(5.10857e-13 0 0)
(3.7589e-13 0 0)
(3.6712e-13 0 0)
(2.94278e-13 0 0)
(1.36615e-13 0 0)
(1.94572e-15 0 0)
(-3.06519e-14 0 0)
(-1.63675e-14 0 0)
(-9.59801e-14 0 0)
(-1.00676e-13 0 0)
(-1.37626e-13 0 0)
(-8.60712e-14 0 0)
(-8.70495e-14 0 0)
(-1.77933e-13 0 0)
(-2.06918e-13 0 0)
(-1.80307e-13 0 0)
(-3.57308e-13 0 0)
(-2.89094e-13 0 0)
(-2.9166e-13 0 0)
(-3.09161e-13 0 0)
(-2.62003e-13 0 0)
(-2.70304e-13 0 0)
(-1.96808e-13 0 0)
(-5.67101e-14 0 0)
(3.10308e-14 0 0)
(3.48824e-14 0 0)
(-6.49813e-14 0 0)
(1.76442e-14 0 0)
(1.73235e-13 0 0)
(2.18952e-13 0 0)
(3.2152e-13 0 0)
(3.61898e-13 0 0)
(2.7709e-13 0 0)
(3.08092e-13 0 0)
(4.50824e-13 0 0)
(4.98042e-13 0 0)
(5.60926e-13 0 0)
(5.52213e-13 0 0)
(6.0986e-13 0 0)
(6.80813e-13 0 0)
(7.98953e-13 0 0)
(8.55656e-13 0 0)
(8.67486e-13 0 0)
(8.34133e-13 0 0)
(8.69488e-13 0 0)
(8.57239e-13 0 0)
(7.86383e-13 0 0)
(7.6394e-13 0 0)
(6.92412e-13 0 0)
(6.1374e-13 0 0)
(6.40752e-13 0 0)
(6.51027e-13 0 0)
(6.58538e-13 0 0)
(7.57786e-13 0 0)
(7.75583e-13 0 0)
(7.35773e-13 0 0)
(7.70791e-13 0 0)
(7.32247e-13 0 0)
(6.4232e-13 0 0)
(6.8003e-13 0 0)
(5.97446e-13 0 0)
(4.38086e-13 0 0)
(4.29173e-13 0 0)
(4.72651e-13 0 0)
(5.43037e-13 0 0)
(6.22925e-13 0 0)
(6.09987e-13 0 0)
(6.52212e-13 0 0)
(7.02276e-13 0 0)
(7.62327e-13 0 0)
(8.71273e-13 0 0)
(9.57921e-13 0 0)
(9.43133e-13 0 0)
(8.52751e-13 0 0)
(9.58387e-13 0 0)
(1.03473e-12 0 0)
(9.96403e-13 0 0)
(9.74356e-13 0 0)
(9.91778e-13 0 0)
(9.94969e-13 0 0)
(9.50566e-13 0 0)
(8.66782e-13 0 0)
(8.15599e-13 0 0)
(7.15148e-13 0 0)
(5.50587e-13 0 0)
(3.53083e-13 0 0)
(2.45387e-13 0 0)
(2.03962e-13 0 0)
(1.54051e-13 0 0)
(1.88752e-13 0 0)
(1.92188e-13 0 0)
(1.48708e-13 0 0)
(8.90079e-14 0 0)
(5.75151e-14 0 0)
(8.3278e-14 0 0)
(1.29969e-13 0 0)
(2.2215e-13 0 0)
(3.13789e-13 0 0)
(4.78177e-13 0 0)
(5.98384e-13 0 0)
(7.67665e-13 0 0)
(9.16981e-13 0 0)
(1.02489e-12 0 0)
(9.98949e-13 0 0)
(8.78137e-13 0 0)
(7.60267e-13 0 0)
(6.632e-13 0 0)
(6.63667e-13 0 0)
(6.15064e-13 0 0)
(4.72619e-13 0 0)
(3.57939e-13 0 0)
(2.84432e-13 0 0)
(1.91004e-13 0 0)
(8.84887e-14 0 0)
(-1.04568e-14 0 0)
(-7.79321e-15 0 0)
(1.70289e-14 0 0)
(-2.04099e-14 0 0)
(-1.69634e-14 0 0)
(-2.37332e-14 0 0)
(-8.73165e-14 0 0)
(-4.13318e-14 0 0)
(1.82279e-14 0 0)
(-2.53375e-14 0 0)
(-2.9929e-15 0 0)
(1.568e-14 0 0)
(-6.5426e-14 0 0)
(-1.06114e-13 0 0)
(-5.17342e-14 0 0)
(2.47475e-14 0 0)
(1.53878e-13 0 0)
(2.65044e-13 0 0)
(3.25057e-13 0 0)
(3.66597e-13 0 0)
(4.38302e-13 0 0)
(4.78064e-13 0 0)
(6.01669e-13 0 0)
(6.75701e-13 0 0)
(7.78087e-13 0 0)
(7.99901e-13 0 0)
(7.61312e-13 0 0)
(7.62735e-13 0 0)
(6.6182e-13 0 0)
(7.08895e-13 0 0)
(7.06239e-13 0 0)
(6.49214e-13 0 0)
(6.43703e-13 0 0)
(5.73893e-13 0 0)
(4.47362e-13 0 0)
(4.96644e-13 0 0)
(4.6053e-13 0 0)
(3.40454e-13 0 0)
(3.98233e-13 0 0)
(4.33417e-13 0 0)
(3.98242e-13 0 0)
(3.83134e-13 0 0)
(4.30172e-13 0 0)
(4.94536e-13 0 0)
(6.82346e-13 0 0)
(8.18896e-13 0 0)
(8.42393e-13 0 0)
(7.85676e-13 0 0)
(7.6058e-13 0 0)
(7.19438e-13 0 0)
(7.49087e-13 0 0)
(7.78162e-13 0 0)
(7.95833e-13 0 0)
(6.9632e-13 0 0)
(6.04398e-13 0 0)
(4.72733e-13 0 0)
(4.93869e-13 0 0)
(4.45543e-13 0 0)
(2.79283e-13 0 0)
(1.64418e-13 0 0)
(-8.17024e-15 0 0)
(-6.95029e-14 0 0)
(-1.27945e-13 0 0)
(-3.05685e-14 0 0)
(9.68863e-14 0 0)
(1.10343e-13 0 0)
(1.37757e-13 0 0)
(1.90294e-13 0 0)
(1.70771e-13 0 0)
(3.52994e-14 0 0)
(1.02622e-13 0 0)
(5.26924e-14 0 0)
(-8.612e-14 0 0)
(-1.1144e-13 0 0)
(-1.43981e-13 0 0)
(-8.99836e-14 0 0)
(8.14719e-14 0 0)
(1.48791e-13 0 0)
(6.97524e-14 0 0)
(1.22654e-13 0 0)
(2.11168e-13 0 0)
(3.03741e-13 0 0)
(2.30408e-13 0 0)
(2.33615e-13 0 0)
(2.40363e-13 0 0)
(2.28537e-13 0 0)
(1.261e-13 0 0)
(4.62263e-14 0 0)
(-8.54475e-14 0 0)
(-1.20809e-13 0 0)
(-1.19524e-14 0 0)
(9.367e-14 0 0)
(2.19438e-13 0 0)
(3.26136e-13 0 0)
(3.14335e-13 0 0)
(3.17739e-13 0 0)
(3.37555e-13 0 0)
(4.35346e-13 0 0)
(5.33586e-13 0 0)
(6.77709e-13 0 0)
(6.9303e-13 0 0)
(6.83574e-13 0 0)
(6.31115e-13 0 0)
(6.69086e-13 0 0)
(6.55546e-13 0 0)
(7.46887e-13 0 0)
(9.07291e-13 0 0)
(9.35441e-13 0 0)
(9.36844e-13 0 0)
(9.16718e-13 0 0)
(9.6225e-13 0 0)
(1.09573e-12 0 0)
(1.12627e-12 0 0)
(1.19182e-12 0 0)
(1.26724e-12 0 0)
(1.45916e-12 0 0)
(1.55984e-12 0 0)
(1.62798e-12 0 0)
(1.67501e-12 0 0)
(1.71142e-12 0 0)
(1.66535e-12 0 0)
(1.55488e-12 0 0)
(1.55213e-12 0 0)
(1.49889e-12 0 0)
(1.41661e-12 0 0)
(1.19505e-12 0 0)
(1.18855e-12 0 0)
(1.17374e-12 0 0)
(9.99536e-13 0 0)
(9.61959e-13 0 0)
(1.00277e-12 0 0)
(1.07239e-12 0 0)
(1.07181e-12 0 0)
(9.89853e-13 0 0)
(1.12508e-12 0 0)
(1.16363e-12 0 0)
(1.16939e-12 0 0)
(1.22951e-12 0 0)
(1.23543e-12 0 0)
(1.1788e-12 0 0)
(1.23475e-12 0 0)
(1.22e-12 0 0)
(1.17337e-12 0 0)
(1.25762e-12 0 0)
(1.32144e-12 0 0)
(1.23798e-12 0 0)
(1.17912e-12 0 0)
(1.23849e-12 0 0)
(1.25202e-12 0 0)
(1.25272e-12 0 0)
(1.27693e-12 0 0)
(1.2161e-12 0 0)
(1.21923e-12 0 0)
(1.1523e-12 0 0)
(1.02776e-12 0 0)
(8.50767e-13 0 0)
(7.10118e-13 0 0)
(6.68475e-13 0 0)
(6.49434e-13 0 0)
(6.30598e-13 0 0)
(4.8271e-13 0 0)
(4.13086e-13 0 0)
(4.15326e-13 0 0)
(4.13511e-13 0 0)
(3.33948e-13 0 0)
(2.49466e-13 0 0)
(2.05302e-13 0 0)
(2.35596e-13 0 0)
(2.22689e-13 0 0)
(2.25748e-13 0 0)
(2.63094e-13 0 0)
(3.35744e-13 0 0)
(4.236e-13 0 0)
(4.70172e-13 0 0)
(4.85658e-13 0 0)
(5.21762e-13 0 0)
(6.14321e-13 0 0)
(7.28312e-13 0 0)
(7.44589e-13 0 0)
(6.97644e-13 0 0)
(6.24939e-13 0 0)
(5.51025e-13 0 0)
(4.4575e-13 0 0)
(2.43312e-13 0 0)
(2.15574e-13 0 0)
(9.67814e-14 0 0)
(6.67627e-14 0 0)
(-9.30412e-14 0 0)
(-1.23386e-13 0 0)
(-1.49302e-13 0 0)
(-2.80364e-13 0 0)
(-4.68701e-13 0 0)
(-5.48116e-13 0 0)
(-6.17621e-13 0 0)
(-7.0644e-13 0 0)
(-6.85653e-13 0 0)
(-6.38745e-13 0 0)
(-6.55205e-13 0 0)
(-7.00382e-13 0 0)
(-6.83187e-13 0 0)
(-6.87278e-13 0 0)
(-6.41838e-13 0 0)
(-5.24315e-13 0 0)
(-4.35585e-13 0 0)
(-3.60216e-13 0 0)
(-2.18105e-13 0 0)
(-1.62193e-13 0 0)
(-3.35353e-14 0 0)
(2.14916e-14 0 0)
(7.75279e-14 0 0)
(1.4043e-13 0 0)
(2.16076e-13 0 0)
(3.51323e-13 0 0)
(3.822e-13 0 0)
(3.31841e-13 0 0)
(3.79126e-13 0 0)
(4.60683e-13 0 0)
(5.14196e-13 0 0)
(5.38611e-13 0 0)
(5.8575e-13 0 0)
(5.97132e-13 0 0)
(6.72709e-13 0 0)
(6.44775e-13 0 0)
(6.03389e-13 0 0)
(5.65689e-13 0 0)
(4.54676e-13 0 0)
(3.53784e-13 0 0)
(2.74852e-13 0 0)
(2.71629e-13 0 0)
(2.91145e-13 0 0)
(3.74177e-13 0 0)
(3.7036e-13 0 0)
(4.35271e-13 0 0)
(5.16279e-13 0 0)
(5.45918e-13 0 0)
(5.21991e-13 0 0)
(6.13857e-13 0 0)
(7.06496e-13 0 0)
(8.03273e-13 0 0)
(8.71633e-13 0 0)
(8.93582e-13 0 0)
(8.48286e-13 0 0)
(8.09287e-13 0 0)
(6.94706e-13 0 0)
(4.91364e-13 0 0)
(3.70568e-13 0 0)
(2.58278e-13 0 0)
(3.34743e-13 0 0)
(2.66887e-13 0 0)
(1.54111e-13 0 0)
(1.77037e-13 0 0)
(5.41041e-14 0 0)
(-7.00897e-14 0 0)
(-1.42605e-13 0 0)
(-2.57246e-13 0 0)
(-2.75019e-13 0 0)
(-1.90908e-13 0 0)
(-8.51747e-14 0 0)
(-1.13413e-13 0 0)
(-1.02273e-13 0 0)
(-8.27323e-14 0 0)
(-7.38995e-14 0 0)
(-1.0627e-13 0 0)
(-2.21373e-14 0 0)
(3.86007e-14 0 0)
(1.19255e-13 0 0)
(3.87438e-13 0 0)
(6.57774e-13 0 0)
(8.44076e-13 0 0)
(1.02668e-12 0 0)
(1.07465e-12 0 0)
(9.73208e-13 0 0)
(9.81754e-13 0 0)
(1.10222e-12 0 0)
(1.02875e-12 0 0)
(9.03876e-13 0 0)
(8.8775e-13 0 0)
(8.8046e-13 0 0)
(8.3783e-13 0 0)
(8.74903e-13 0 0)
(7.80581e-13 0 0)
(7.08e-13 0 0)
(6.94633e-13 0 0)
(7.52444e-13 0 0)
(8.06281e-13 0 0)
(7.95019e-13 0 0)
(8.19284e-13 0 0)
(8.50854e-13 0 0)
(9.89229e-13 0 0)
(9.38648e-13 0 0)
(8.87478e-13 0 0)
(9.63859e-13 0 0)
(9.7577e-13 0 0)
(9.18537e-13 0 0)
(8.72393e-13 0 0)
(8.54617e-13 0 0)
(8.271e-13 0 0)
(8.61362e-13 0 0)
(8.62758e-13 0 0)
(9.11462e-13 0 0)
(9.41087e-13 0 0)
(1.00832e-12 0 0)
(1.02265e-12 0 0)
(9.84477e-13 0 0)
(1.05023e-12 0 0)
(1.04778e-12 0 0)
(8.31882e-13 0 0)
(7.0021e-13 0 0)
(6.36878e-13 0 0)
(6.28407e-13 0 0)
(5.7048e-13 0 0)
(5.04868e-13 0 0)
(4.26282e-13 0 0)
(4.51105e-13 0 0)
(5.32676e-13 0 0)
(5.47521e-13 0 0)
(4.59312e-13 0 0)
(5.77122e-13 0 0)
(5.01475e-13 0 0)
(3.51838e-13 0 0)
(3.75237e-13 0 0)
(3.65043e-13 0 0)
(3.0764e-13 0 0)
(2.7184e-13 0 0)
(2.60106e-13 0 0)
(3.63084e-13 0 0)
(4.1885e-13 0 0)
(4.04157e-13 0 0)
(2.91201e-13 0 0)
(3.04424e-13 0 0)
(2.43746e-13 0 0)
(1.58321e-13 0 0)
(1.58445e-13 0 0)
(9.52633e-14 0 0)
(-2.21355e-14 0 0)
(-5.88077e-14 0 0)
(-1.05126e-13 0 0)
(-2.30233e-13 0 0)
(-2.82391e-13 0 0)
(-1.99939e-13 0 0)
(-2.38546e-13 0 0)
(-3.07085e-13 0 0)
(-2.11566e-13 0 0)
(-2.88545e-13 0 0)
(-3.10989e-13 0 0)
(-3.56245e-13 0 0)
(-3.74397e-13 0 0)
(-2.48807e-13 0 0)
(-2.36691e-13 0 0)
(-1.85392e-13 0 0)
(-1.82529e-13 0 0)
(-2.47208e-13 0 0)
(-2.6354e-13 0 0)
(-1.97628e-13 0 0)
(-2.2322e-13 0 0)
(-2.01837e-13 0 0)
(-2.50695e-13 0 0)
(-3.86366e-13 0 0)
(-4.46062e-13 0 0)
(-4.907e-13 0 0)
(-6.08973e-13 0 0)
(-5.65304e-13 0 0)
(-5.04081e-13 0 0)
(-4.06181e-13 0 0)
(-3.02346e-13 0 0)
(-2.85421e-13 0 0)
(-3.68876e-13 0 0)
(-3.89994e-13 0 0)
(-3.89269e-13 0 0)
(-4.40146e-13 0 0)
(-5.45891e-13 0 0)
(-7.38334e-13 0 0)
(-9.48835e-13 0 0)
(-1.05881e-12 0 0)
(-1.0485e-12 0 0)
(-1.10218e-12 0 0)
(-1.30296e-12 0 0)
(-1.35809e-12 0 0)
(-1.4122e-12 0 0)
(-1.26953e-12 0 0)
(-1.27088e-12 0 0)
(-1.42344e-12 0 0)
(-1.54059e-12 0 0)
(-1.55353e-12 0 0)
(-1.48402e-12 0 0)
(-1.3833e-12 0 0)
(-1.23245e-12 0 0)
(-1.09468e-12 0 0)
(-1.02318e-12 0 0)
(-1.06755e-12 0 0)
(-1.18591e-12 0 0)
(-1.25816e-12 0 0)
(-1.23721e-12 0 0)
(-1.18957e-12 0 0)
(-1.14343e-12 0 0)
(-1.02515e-12 0 0)
(-9.50446e-13 0 0)
(-8.74055e-13 0 0)
(-7.11877e-13 0 0)
(-5.66133e-13 0 0)
(-6.62246e-13 0 0)
(-7.84834e-13 0 0)
(-8.89341e-13 0 0)
(-8.73893e-13 0 0)
(-8.67789e-13 0 0)
(-9.69725e-13 0 0)
(-1.05166e-12 0 0)
(-1.17344e-12 0 0)
(-1.14683e-12 0 0)
(-1.07792e-12 0 0)
(-1.12699e-12 0 0)
(-1.24157e-12 0 0)
(-1.29056e-12 0 0)
(-1.2697e-12 0 0)
(-1.26171e-12 0 0)
(-1.20362e-12 0 0)
(-1.24701e-12 0 0)
(-1.15667e-12 0 0)
(-1.07342e-12 0 0)
(-1.05172e-12 0 0)
(-9.69971e-13 0 0)
(-9.9713e-13 0 0)
(-9.99509e-13 0 0)
(-8.55441e-13 0 0)
(-7.82295e-13 0 0)
(-7.89379e-13 0 0)
(-7.10135e-13 0 0)
(-6.34314e-13 0 0)
(-6.6069e-13 0 0)
(-6.23697e-13 0 0)
(-6.88402e-13 0 0)
(-6.76581e-13 0 0)
(-6.73769e-13 0 0)
(-7.23549e-13 0 0)
(-6.22632e-13 0 0)
(-5.61868e-13 0 0)
(-5.98135e-13 0 0)
(-6.52807e-13 0 0)
(-5.98625e-13 0 0)
(-6.67375e-13 0 0)
(-6.08632e-13 0 0)
(-6.70705e-13 0 0)
(-8.37462e-13 0 0)
(-9.0656e-13 0 0)
(-8.83208e-13 0 0)
(-9.5584e-13 0 0)
(-1.10574e-12 0 0)
(-1.22309e-12 0 0)
(-1.1537e-12 0 0)
(-1.04046e-12 0 0)
(-9.12687e-13 0 0)
(-7.65957e-13 0 0)
(-6.31206e-13 0 0)
(-6.10699e-13 0 0)
(-6.34017e-13 0 0)
(-5.99944e-13 0 0)
(-5.54446e-13 0 0)
(-5.35961e-13 0 0)
(-5.91076e-13 0 0)
(-5.64899e-13 0 0)
(-5.92984e-13 0 0)
(-5.44461e-13 0 0)
(-5.3176e-13 0 0)
(-5.51328e-13 0 0)
(-4.91473e-13 0 0)
(-4.60522e-13 0 0)
(-5.5375e-13 0 0)
(-3.56599e-13 0 0)
(-2.33971e-13 0 0)
(-4.83038e-14 0 0)
(9.01892e-14 0 0)
(1.38217e-13 0 0)
(2.13837e-13 0 0)
(2.37697e-13 0 0)
(2.53373e-13 0 0)
(1.82909e-13 0 0)
(7.76711e-14 0 0)
(4.33927e-14 0 0)
(1.15327e-13 0 0)
(2.20181e-13 0 0)
(2.73697e-13 0 0)
(2.86832e-13 0 0)
(3.38911e-13 0 0)
(2.28434e-13 0 0)
(2.28233e-13 0 0)
(3.27916e-13 0 0)
(4.35875e-13 0 0)
(5.04885e-13 0 0)
(4.57982e-13 0 0)
(4.36411e-13 0 0)
(3.99242e-13 0 0)
(3.84949e-13 0 0)
(3.58474e-13 0 0)
(3.24584e-13 0 0)
(2.42856e-13 0 0)
(1.60551e-13 0 0)
(8.07092e-14 0 0)
(1.56019e-14 0 0)
(-1.92739e-14 0 0)
(5.09512e-15 0 0)
(-4.04112e-15 0 0)
(-4.70496e-14 0 0)
(7.75458e-14 0 0)
(3.67464e-14 0 0)
(2.71162e-15 0 0)
(-1.90298e-14 0 0)
(-8.53381e-14 0 0)
(-1.27304e-13 0 0)
(-1.00061e-13 0 0)
(1.111e-14 0 0)
(2.41493e-14 0 0)
(-4.04493e-14 0 0)
(-1.25409e-13 0 0)
(-1.13022e-13 0 0)
(-3.15971e-14 0 0)
(1.12821e-14 0 0)
(1.30433e-14 0 0)
(7.60427e-14 0 0)
(1.28948e-13 0 0)
(2.07021e-13 0 0)
(1.88541e-13 0 0)
(2.15543e-13 0 0)
(2.56334e-13 0 0)
(1.98867e-13 0 0)
(3.20628e-13 0 0)
(3.54932e-13 0 0)
(2.5704e-13 0 0)
(1.81484e-13 0 0)
(1.43254e-13 0 0)
(4.0371e-14 0 0)
(-4.14421e-14 0 0)
(-9.00269e-14 0 0)
(-4.37258e-15 0 0)
(1.33642e-13 0 0)
(2.98322e-13 0 0)
(3.56006e-13 0 0)
(4.04332e-13 0 0)
(4.40783e-13 0 0)
(5.30427e-13 0 0)
(5.17832e-13 0 0)
(5.71971e-13 0 0)
(7.18295e-13 0 0)
(7.62945e-13 0 0)
(8.45249e-13 0 0)
(9.15465e-13 0 0)
(8.85449e-13 0 0)
(9.2311e-13 0 0)
(8.88055e-13 0 0)
(8.79345e-13 0 0)
(8.31903e-13 0 0)
(7.74242e-13 0 0)
(7.89455e-13 0 0)
(8.56065e-13 0 0)
(9.12127e-13 0 0)
(9.32005e-13 0 0)
(9.02749e-13 0 0)
(9.67037e-13 0 0)
(1.11448e-12 0 0)
(1.11368e-12 0 0)
(1.11248e-12 0 0)
(1.1514e-12 0 0)
(1.01534e-12 0 0)
(1.0172e-12 0 0)
(1.06522e-12 0 0)
(1.15136e-12 0 0)
(1.23922e-12 0 0)
(1.28513e-12 0 0)
(1.10136e-12 0 0)
(8.79789e-13 0 0)
(6.79301e-13 0 0)
(5.29302e-13 0 0)
(4.27487e-13 0 0)
(3.28475e-13 0 0)
(2.8565e-13 0 0)
(2.61439e-13 0 0)
(2.29699e-13 0 0)
(1.63374e-13 0 0)
(1.55658e-13 0 0)
(1.6067e-13 0 0)
(7.45163e-14 0 0)
(5.86665e-14 0 0)
(5.44269e-14 0 0)
(2.30747e-14 0 0)
(2.46216e-14 0 0)
(-6.34096e-14 0 0)
(-1.32048e-13 0 0)
(-9.66517e-14 0 0)
(-2.10808e-13 0 0)
(-2.14516e-13 0 0)
(-1.57955e-13 0 0)
(-2.26896e-13 0 0)
(-3.22897e-13 0 0)
(-2.82478e-13 0 0)
(-1.74127e-13 0 0)
(-2.36612e-13 0 0)
(-2.39002e-13 0 0)
(-2.30202e-13 0 0)
(-2.64659e-13 0 0)
(-1.1696e-13 0 0)
(-3.14565e-14 0 0)
(-1.08662e-13 0 0)
(-1.68594e-13 0 0)
(-1.80135e-13 0 0)
(-1.54098e-13 0 0)
(-1.54792e-13 0 0)
(-2.59441e-13 0 0)
(-2.21295e-13 0 0)
(-2.24038e-13 0 0)
(-1.99763e-13 0 0)
(-2.84318e-13 0 0)
(-3.68509e-13 0 0)
(-4.87378e-13 0 0)
(-5.00626e-13 0 0)
(-5.02119e-13 0 0)
(-4.92066e-13 0 0)
(-3.51906e-13 0 0)
(-3.29473e-13 0 0)
(-3.44022e-13 0 0)
(-3.37579e-13 0 0)
(-3.43359e-13 0 0)
(-4.11016e-13 0 0)
(-4.26771e-13 0 0)
(-4.00698e-13 0 0)
(-4.55954e-13 0 0)
(-5.06032e-13 0 0)
(-5.91673e-13 0 0)
(-5.52586e-13 0 0)
(-5.35907e-13 0 0)
(-5.08127e-13 0 0)
(-4.39665e-13 0 0)
(-3.82487e-13 0 0)
(-2.94292e-13 0 0)
(-2.1534e-13 0 0)
(-2.55351e-13 0 0)
(-3.32071e-13 0 0)
(-2.77979e-13 0 0)
(-3.05103e-13 0 0)
(-4.10086e-13 0 0)
(-4.86377e-13 0 0)
(-4.2833e-13 0 0)
(-3.26227e-13 0 0)
(-2.26744e-13 0 0)
(-1.0571e-13 0 0)
(-2.3489e-14 0 0)
(1.44395e-13 0 0)
(2.63567e-13 0 0)
(4.51123e-13 0 0)
(6.15993e-13 0 0)
(5.44543e-13 0 0)
(5.38648e-13 0 0)
(6.08946e-13 0 0)
(5.68169e-13 0 0)
(5.81575e-13 0 0)
(6.82339e-13 0 0)
(7.51189e-13 0 0)
(7.8255e-13 0 0)
(9.17156e-13 0 0)
(9.08621e-13 0 0)
(9.69508e-13 0 0)
(1.14619e-12 0 0)
(1.22649e-12 0 0)
(1.18854e-12 0 0)
(1.19142e-12 0 0)
(1.21177e-12 0 0)
(1.14865e-12 0 0)
(1.08783e-12 0 0)
(1.09811e-12 0 0)
(1.06715e-12 0 0)
(1.0241e-12 0 0)
(9.81914e-13 0 0)
(9.94687e-13 0 0)
(1.05079e-12 0 0)
(1.06112e-12 0 0)
(1.2263e-12 0 0)
(2.13866e-12 0 0)
(4.90859e-12 0 0)
(1.43232e-11 0 0)
(4.49977e-11 0 0)
(1.44908e-10 0 0)
(4.75186e-10 0 0)
(1.55655e-09 0 0)
(5.10353e-09 0 0)
(1.67387e-08 0 0)
(5.48857e-08 0 0)
(1.79953e-07 0 0)
(5.89924e-07 0 0)
(1.93357e-06 0 0)
(6.33628e-06 0 0)
(2.07589e-05 0 0)
(6.79911e-05 0 0)
(0.000222617 0 0)
(0.000728614 0 0)
(0.00238369 0 0)
(0.00779464 0 0)
(0.0254762 0 0)
(0.0832355 0 0)
(0.271875 0 0)
(0.892668 0 0)
(2.74895 0 0)
(5.00991 0 0)
(6.31563 0 0)
(6.90647 0 0)
(7.33509 0 0)
(7.4754 0 0)
(7.55278 0 0)
(7.66201 0 0)
(7.73303 0 0)
(7.73123 0 0)
(7.75394 0 0)
(7.82373 0 0)
(7.87879 0 0)
(7.87651 0 0)
(7.87981 0 0)
(7.92364 0 0)
(7.95838 0 0)
(7.95371 0 0)
(7.94797 0 0)
(7.96276 0 0)
(7.97326 0 0)
(7.97473 0 0)
(7.98033 0 0)
(8.01053 0 0)
(8.10452 0 0)
(8.38105 0 0)
(9.26029 0 0)
(11.4169 0 0)
(13.396 0 0)
(14.4416 0 0)
(15.033 0 0)
(15.2296 0 0)
(15.4341 0 0)
(15.551 0 0)
(15.5747 0 0)
(15.5822 0 0)
(15.6557 0 0)
(15.7232 0 0)
(15.7372 0 0)
(15.7215 0 0)
(15.7581 0 0)
(15.7981 0 0)
(15.8094 0 0)
(15.7943 0 0)
(15.8057 0 0)
(15.8262 0 0)
(15.8354 0 0)
(15.8278 0 0)
(15.8291 0 0)
(15.8382 0 0)
(15.8437 0 0)
(15.8411 0 0)
(15.8397 0 0)
(15.8428 0 0)
(15.8456 0 0)
(15.8451 0 0)
(15.8437 0 0)
(15.8444 0 0)
(15.8457 0 0)
(15.8457 0 0)
(15.845 0 0)
(15.8451 0 0)
(15.8455 0 0)
(15.8456 0 0)
(15.8454 0 0)
(15.8453 0 0)
(15.8454 0 0)
(15.8455 0 0)
(15.8454 0 0)
(15.8454 0 0)
(15.8454 0 0)
(15.8455 0 0)
(15.8454 0 0)
(15.8454 0 0)
(15.8454 0 0)
(15.8455 0 0)
(15.8455 0 0)
(15.8454 0 0)
(15.8454 0 0)
(15.8454 0 0)
(15.8454 0 0)
(15.8454 0 0)
(15.8454 0 0)
(15.8454 0 0)
(15.8454 0 0)
(15.8454 0 0)
(15.8455 0 0)
(15.8455 0 0)
(15.8455 0 0)
(15.8455 0 0)
(15.8455 0 0)
(15.8455 0 0)
(15.8455 0 0)
(15.8455 0 0)
(15.8455 0 0)
(15.8455 0 0)
(15.8455 0 0)
(15.8455 0 0)
(15.8454 0 0)
(15.8454 0 0)
(15.8454 0 0)
(15.8454 0 0)
(15.8454 0 0)
(15.8454 0 0)
(15.8454 0 0)
(15.8454 0 0)
(15.8454 0 0)
(15.8454 0 0)
(15.8454 0 0)
(15.8454 0 0)
(15.8454 0 0)
(15.8454 0 0)
(15.8454 0 0)
(15.8454 0 0)
(15.8454 0 0)
(15.8454 0 0)
(15.8455 0 0)
(15.8456 0 0)
(15.8459 0 0)
(15.8469 0 0)
(15.8504 0 0)
(15.8616 0 0)
(15.8979 0 0)
(16.0161 0 0)
(16.4037 0 0)
(17.5098 0 0)
(18.7616 0 0)
(19.437 0 0)
(19.844 0 0)
(19.9757 0 0)
(20.091 0 0)
(20.1847 0 0)
(20.2248 0 0)
(20.2246 0 0)
(20.2644 0 0)
(20.3291 0 0)
(20.3762 0 0)
(20.3794 0 0)
(20.3946 0 0)
(20.4535 0 0)
(20.5085 0 0)
(20.5255 0 0)
(20.5259 0 0)
(20.5691 0 0)
(20.6245 0 0)
(20.6578 0 0)
(20.6555 0 0)
(20.6766 0 0)
(20.7277 0 0)
(20.7696 0 0)
(20.7752 0 0)
(20.7784 0 0)
(20.8195 0 0)
(20.8613 0 0)
(20.8786 0 0)
(20.8744 0 0)
(20.8981 0 0)
(20.9358 0 0)
(20.9605 0 0)
(20.9577 0 0)
(20.9658 0 0)
(20.9954 0 0)
(21.0204 0 0)
(21.0234 0 0)
(21.0213 0 0)
(21.0404 0 0)
(21.0602 0 0)
(21.067 0 0)
(21.0619 0 0)
(21.0703 0 0)
(21.0827 0 0)
(21.0882 0 0)
(21.0834 0 0)
(21.0845 0 0)
(21.0898 0 0)
(21.0931 0 0)
(21.0945 0 0)
(21.1012 0 0)
(21.1281 0 0)
(21.2147 0 0)
(21.4938 0 0)
(22.111 0 0)
(22.6108 0 0)
(22.8749 0 0)
(23.0151 0 0)
(23.0642 0 0)
(23.1149 0 0)
(23.1464 0 0)
(23.1558 0 0)
(23.1596 0 0)
(23.1796 0 0)
(23.2013 0 0)
(23.2126 0 0)
(23.2115 0 0)
(23.2219 0 0)
(23.2412 0 0)
(23.2547 0 0)
(23.2532 0 0)
(23.2547 0 0)
(23.2672 0 0)
(23.2776 0 0)
(23.2778 0 0)
(23.2748 0 0)
(23.2792 0 0)
(23.2844 0 0)
(23.2841 0 0)
(23.2826 0 0)
(23.2856 0 0)
(23.2964 0 0)
(23.3261 0 0)
(23.4138 0 0)
(23.6936 0 0)
(24.4965 0 0)
(25.4337 0 0)
(25.9549 0 0)
(26.2546 0 0)
(26.3568 0 0)
(26.4492 0 0)
(26.5136 0 0)
(26.5357 0 0)
(26.536 0 0)
(26.5664 0 0)
(26.6075 0 0)
(26.6329 0 0)
(26.6305 0 0)
(26.6412 0 0)
(26.6747 0 0)
(26.7025 0 0)
(26.705 0 0)
(26.7017 0 0)
(26.7214 0 0)
(26.7419 0 0)
(26.7478 0 0)
(26.7404 0 0)
(26.7461 0 0)
(26.7562 0 0)
(26.7605 0 0)
(26.7608 0 0)
(26.7696 0 0)
(26.8064 0 0)
(26.9218 0 0)
(27.264 0 0)
(27.7225 0 0)
(27.9749 0 0)
(28.1513 0 0)
(28.2054 0 0)
(28.2252 0 0)
(28.2695 0 0)
(28.3064 0 0)
(28.3134 0 0)
(28.3087 0 0)
(28.3316 0 0)
(28.3575 0 0)
(28.3668 0 0)
(28.3574 0 0)
(28.363 0 0)
(28.3748 0 0)
(28.3784 0 0)
(28.3756 0 0)
(28.3761 0 0)
(28.3858 0 0)
(28.4131 0 0)
(28.4857 0 0)
(28.7141 0 0)
(29.238 0 0)
(29.6756 0 0)
(29.9369 0 0)
(30.0138 0 0)
(30.0864 0 0)
(30.1441 0 0)
(30.1672 0 0)
(30.1601 0 0)
(30.1785 0 0)
(30.2102 0 0)
(30.2268 0 0)
(30.214 0 0)
(30.2124 0 0)
(30.2251 0 0)
(30.2424 0 0)
(30.2633 0 0)
(30.3192 0 0)
(30.5089 0 0)
(30.866 0 0)
(31.1365 0 0)
(31.233 0 0)
(31.3181 0 0)
(31.3679 0 0)
(31.3795 0 0)
(31.3781 0 0)
(31.4022 0 0)
(31.4259 0 0)
(31.4286 0 0)
(31.421 0 0)
(31.4302 0 0)
(31.4548 0 0)
(31.5047 0 0)
(31.6296 0 0)
(31.9629 0 0)
(32.34 0 0)
(32.5937 0 0)
(32.6885 0 0)
(32.7459 0 0)
(32.8038 0 0)
(32.8334 0 0)
(32.8342 0 0)
(32.8443 0 0)
(32.8749 0 0)
(32.8999 0 0)
(32.8996 0 0)
(32.8943 0 0)
(32.9045 0 0)
(32.9174 0 0)
(32.9254 0 0)
(32.937 0 0)
(32.9796 0 0)
(33.1223 0 0)
(33.4899 0 0)
(33.8641 0 0)
(34.0369 0 0)
(34.1763 0 0)
(34.2388 0 0)
(34.2488 0 0)
(34.2694 0 0)
(34.3072 0 0)
(34.3356 0 0)
(34.3364 0 0)
(34.3353 0 0)
(34.3565 0 0)
(34.3773 0 0)