/*--------------------------------*- C++ -*----------------------------------*\
  =========                 |
  \\      /  F ield         | OpenFOAM: The Open Source CFD Toolbox
   \\    /   O peration     | Website:  https://openfoam.org
    \\  /    A nd           | Version:  9
     \\/     M anipulation  |
\*---------------------------------------------------------------------------*/
FoamFile
{
    format      ascii;
    class       volScalarField;
    location    "0.05";
    object      mag(U);
}
// * * * * * * * * * * * * * * * * * * * * * * * * * * * * * * * * * * * * * //

dimensions      [0 1 -1 0 0 0 0];

internalField   nonuniform List<scalar> 
100
(
236.321
238.926
240.457
242.107
243.729
245.357
246.984
248.61
250.237
251.863
253.489
255.115
256.74
258.366
259.991
261.615
263.24
264.863
266.487
268.11
269.733
271.355
272.977
274.598
276.218
277.838
279.458
281.076
282.693
284.31
285.925
287.538
289.148
290.752
292.346
293.924
295.472
296.968
298.377
299.644
300.703
301.496
302.018
302.327
302.513
302.654
302.796
302.919
302.975
302.964
302.912
302.842
302.768
302.71
302.684
302.658
302.612
302.541
302.447
302.343
302.258
302.193
302.167
302.145
302.101
302.038
301.952
301.857
301.775
301.71
301.668
301.637
301.595
301.538
301.454
301.354
301.248
301.152
301.088
301.067
301.071
301.01
300.846
300.183
297.951
295.53
294.046
292.759
291.069
289.534
288.734
288.364
288.201
288.114
288.051
287.97
287.873
287.796
287.734
287.655
)
;

boundaryField
{
    sides
    {
        type            calculated;
        value           nonuniform List<scalar> 2(287.655 236.321);
    }
    empty
    {
        type            empty;
    }
}


// ************************************************************************* //
