/*--------------------------------*- C++ -*----------------------------------*\
  =========                 |
  \\      /  F ield         | OpenFOAM: The Open Source CFD Toolbox
   \\    /   O peration     | Website:  https://openfoam.org
    \\  /    A nd           | Version:  9
     \\/     M anipulation  |
\*---------------------------------------------------------------------------*/
FoamFile
{
    format      ascii;
    class       volScalarField;
    location    "0.05";
    object      T;
}
// * * * * * * * * * * * * * * * * * * * * * * * * * * * * * * * * * * * * * //

dimensions      [0 0 0 1 0 0 0];

internalField   nonuniform List<scalar> 
100
(
273.748
272.88
272.352
271.786
271.23
270.673
270.117
269.561
269.006
268.451
267.897
267.344
266.791
266.238
265.686
265.135
264.584
264.034
263.484
262.935
262.387
261.839
261.292
260.745
260.2
259.654
259.11
258.566
258.023
257.48
256.939
256.398
255.859
255.322
254.789
254.262
253.744
253.243
252.771
252.344
251.981
251.703
251.512
251.388
251.303
251.232
251.16
251.093
251.049
251.023
251.013
251.005
251
250.989
250.967
250.944
250.932
250.917
250.919
250.919
250.914
250.904
250.879
250.852
250.833
250.815
250.807
250.8
250.789
250.773
250.746
250.715
250.688
250.659
250.639
250.622
250.603
250.575
250.535
250.477
250.412
250.345
250.325
250.467
251.092
251.784
252.194
252.561
253.062
253.518
253.78
253.836
253.871
253.895
253.893
253.89
253.881
253.869
253.856
253.829
)
;

boundaryField
{
    sides
    {
        type            zeroGradient;
    }
    empty
    {
        type            empty;
    }
}


// ************************************************************************* //
