/*--------------------------------*- C++ -*----------------------------------*\
  =========                 |
  \\      /  F ield         | OpenFOAM: The Open Source CFD Toolbox
   \\    /   O peration     | Website:  https://openfoam.org
    \\  /    A nd           | Version:  9
     \\/     M anipulation  |
\*---------------------------------------------------------------------------*/
FoamFile
{
    format      ascii;
    class       volScalarField;
    location    "0.013";
    object      mag(U);
}
// * * * * * * * * * * * * * * * * * * * * * * * * * * * * * * * * * * * * * //

dimensions      [0 1 -1 0 0 0 0];

internalField   nonuniform List<scalar> 
1000
(
5.85735e-13
5.60027e-13
5.82233e-13
4.32497e-13
3.93902e-13
3.12935e-12
1.18275e-11
3.73294e-11
1.11348e-10
3.26927e-10
9.53717e-10
2.76936e-09
8.04136e-09
2.33952e-08
6.81881e-08
1.99081e-07
5.82177e-07
1.70501e-06
5.00041e-06
1.46839e-05
4.31718e-05
0.00012707
0.000374409
0.00110428
0.00326007
0.00963324
0.0284916
0.0843525
0.250073
0.742877
2.23131
6.09176
10.4478
13.2078
14.9332
16.1178
17.0084
17.7331
18.3616
18.9332
19.4685
19.9771
20.463
20.9294
21.3818
21.8297
22.2871
22.7714
23.2998
23.8828
24.5163
25.1816
25.8566
26.527
27.1877
27.8393
28.4847
29.1264
29.7665
30.4061
31.0456
31.6853
32.3251
32.9651
33.605
34.245
34.885
35.5249
36.1648
36.8047
37.4445
38.0842
38.7239
39.3636
40.0032
40.6427
41.2822
41.9217
42.5611
43.2004
43.8397
44.4789
45.1181
45.7572
46.3963
47.0353
47.6743
48.3132
48.952
49.5908
50.2296
50.8683
51.5069
52.1455
52.784
53.4225
54.061
54.6994
55.3377
55.976
56.6143
57.2525
57.8907
58.5288
59.1669
59.805
60.443
61.081
61.7189
62.3568
62.9946
63.6325
64.2703
64.908
65.5457
66.1834
66.8211
67.4587
68.0963
68.7339
69.3715
70.009
70.6465
71.2839
71.9214
72.5588
73.1962
73.8336
74.4709
75.1082
75.7455
76.3828
77.0201
77.6573
78.2945
78.9317
79.5689
80.2061
80.8432
81.4804
82.1175
82.7546
83.3917
84.0287
84.6658
85.3028
85.9398
86.5768
87.2138
87.8508
88.4877
89.1247
89.7616
90.3985
91.0354
91.6723
92.3092
92.9461
93.5829
94.2198
94.8566
95.4935
96.1303
96.7671
97.4039
98.0407
98.6775
99.3142
99.951
100.588
101.225
101.861
102.498
103.135
103.771
104.408
105.045
105.682
106.318
106.955
107.592
108.228
108.865
109.502
110.138
110.775
111.412
112.048
112.685
113.322
113.958
114.595
115.231
115.868
116.505
117.141
117.778
118.415
119.051
119.688
120.324
120.961
121.598
122.234
122.871
123.507
124.144
124.781
125.417
126.054
126.69
127.327
127.964
128.6
129.237
129.873
130.51
131.147
131.783
132.42
133.056
133.693
134.33
134.966
135.603
136.239
136.876
137.513
138.149
138.786
139.423
140.059
140.696
141.332
141.969
142.606
143.242
143.879
144.516
145.152
145.789
146.426
147.062
147.699
148.336
148.972
149.609
150.246
150.882
151.519
152.156
152.792
153.429
154.066
154.702
155.339
155.976
156.613
157.249
157.886
158.523
159.159
159.796
160.433
161.07
161.706
162.343
162.98
163.617
164.253
164.89
165.527
166.164
166.801
167.437
168.074
168.711
169.348
169.985
170.622
171.258
171.895
172.532
173.169
173.806
174.443
175.08
175.716
176.353
176.99
177.627
178.264
178.901
179.538
180.175
180.812
181.449
182.086
182.723
183.359
183.996
184.633
185.27
185.907
186.544
187.181
187.818
188.455
189.092
189.729
190.366
191.003
191.641
192.278
192.915
193.552
194.189
194.826
195.463
196.1
196.737
197.374
198.011
198.648
199.286
199.923
200.56
201.197
201.834
202.471
203.108
203.746
204.383
205.02
205.657
206.294
206.931
207.569
208.206
208.843
209.48
210.117
210.755
211.392
212.029
212.666
213.304
213.941
214.578
215.215
215.853
216.49
217.127
217.764
218.402
219.039
219.676
220.314
220.951
221.589
222.226
222.863
223.499
224.136
224.774
225.412
226.051
226.689
227.326
227.962
228.597
229.232
229.869
230.509
231.149
231.789
232.427
233.062
233.696
234.331
234.967
235.605
236.246
236.886
237.525
238.162
238.796
239.431
240.067
240.704
241.344
241.983
242.621
243.258
243.894
244.53
245.166
245.804
246.442
247.08
247.718
248.355
248.991
249.628
250.265
250.902
251.54
252.177
252.814
253.451
254.088
254.725
255.362
255.999
256.636
257.273
257.91
258.547
259.184
259.821
260.458
261.095
261.732
262.369
263.005
263.642
264.279
264.916
265.552
266.189
266.826
267.462
268.099
268.736
269.372
270.009
270.645
271.281
271.918
272.554
273.191
273.827
274.463
275.099
275.735
276.371
277.007
277.643
278.278
278.914
279.549
280.184
280.819
281.454
282.088
282.722
283.356
283.989
284.621
285.253
285.883
286.51
287.135
287.755
288.367
288.97
289.558
290.126
290.666
291.171
291.633
292.048
292.411
292.721
292.98
293.189
293.352
293.471
293.554
293.607
293.638
293.656
293.664
293.668
293.669
293.669
293.667
293.661
293.642
293.603
293.554
293.516
293.49
293.474
293.462
293.45
293.433
293.404
293.367
293.335
293.313
293.298
293.286
293.272
293.252
293.215
293.165
293.125
293.1
293.089
293.086
293.087
293.099
293.135
293.193
293.251
293.303
293.345
293.377
293.396
293.406
293.412
293.414
293.415
293.417
293.421
293.425
293.428
293.428
293.426
293.413
293.391
293.375
293.364
293.358
293.352
293.343
293.326
293.3
293.274
293.255
293.239
293.223
293.204
293.183
293.168
293.161
293.16
293.164
293.186
293.235
293.277
293.303
293.317
293.326
293.333
293.343
293.357
293.372
293.382
293.387
293.388
293.386
293.383
293.381
293.38
293.381
293.381
293.379
293.37
293.349
293.331
293.321
293.316
293.312
293.309
293.302
293.285
293.256
293.23
293.214
293.204
293.201
293.199
293.199
293.2
293.205
293.219
293.252
293.294
293.325
293.341
293.348
293.35
293.351
293.353
293.357
293.37
293.381
293.387
293.388
293.385
293.377
293.371
293.369
293.369
293.37
293.369
293.363
293.343
293.323
293.312
293.307
293.304
293.302
293.298
293.284
293.254
293.227
293.214
293.209
293.209
293.214
293.227
293.238
293.247
293.258
293.278
293.307
293.333
293.346
293.351
293.353
293.352
293.351
293.353
293.362
293.374
293.38
293.381
293.377
293.364
293.356
293.353
293.354
293.356
293.356
293.353
293.334
293.313
293.301
293.297
293.296
293.295
293.292
293.279
293.249
293.226
293.217
293.216
293.223
293.246
293.265
293.275
293.28
293.284
293.292
293.313
293.336
293.35
293.354
293.354
293.348
293.344
293.344
293.352
293.367
293.375
293.376
293.369
293.351
293.338
293.335
293.336
293.341
293.342
293.341
293.324
293.302
293.291
293.289
293.289
293.289
293.287
293.273
293.243
293.225
293.219
293.222
293.247
293.282
293.301
293.305
293.306
293.305
293.305
293.314
293.337
293.352
293.355
293.353
293.341
293.334
293.334
293.343
293.362
293.372
293.372
293.361
293.335
293.321
293.317
293.321
293.33
293.335
293.335
293.316
293.292
293.281
293.278
293.282
293.285
293.283
293.27
293.243
293.229
293.227
293.238
293.278
293.312
293.328
293.33
293.32
293.308
293.305
293.312
293.337
293.353
293.359
293.354
293.334
293.323
293.324
293.337
293.36
293.37
293.37
293.352
293.319
293.301
293.298
293.307
293.325
293.333
293.333
293.312
293.282
293.267
293.265
293.274
293.285
293.286
293.279
293.255
293.242
293.241
293.259
293.304
293.338
293.352
293.349
293.325
293.306
293.301
293.312
293.343
293.36
293.364
293.352
293.321
293.307
293.309
293.33
293.361
293.375
293.372
293.346
293.303
293.283
293.278
293.297
293.324
293.334
293.332
293.3
293.265
293.25
293.25
293.272
293.301
293.311
293.306
293.276
293.253
293.25
293.269
293.317
293.349
293.365
293.361
293.322
293.297
293.295
293.316
293.356
293.377
293.377
293.352
293.303
293.282
293.284
293.314
293.361
293.381
293.378
293.333
293.281
293.265
293.27
293.302
293.337
293.349
293.341
293.275
293.227
293.217
293.231
293.278
293.33
293.353
293.343
293.288
293.259
293.263
293.293
293.328
293.368
293.381
293.351
293.283
293.261
293.282
293.323
293.357
293.395
293.407
293.348
293.275
293.266
293.287
293.308
293.342
293.393
293.389
293.302
293.252
293.253
293.275
293.329
293.475
293.707
293.99
296.166
292.047
288.481
289.614
291.04
293.497
297.164
297.876
297.503
294.17
290.513
289.954
289.781
289.874
291.227
295.282
297.413
297.426
296.802
294.506
290.719
289.88
289.82
290.085
291.85
295.691
296.716
296.927
296.578
294.062
290.502
289.891
289.983
290.487
292.708
295.793
296.44
296.428
295.98
293.817
290.823
290.264
290.228
290.69
293.171
295.705
296.108
296.175
295.669
293.11
290.773
290.479
290.598
291.21
293.657
295.559
295.884
295.778
295.217
292.863
291.047
290.822
290.867
291.468
293.949
295.4
295.725
295.867
295.314
292.725
291.064
289.607
288.097
287.089
287.786
287.779
287.373
286.996
286.114
283.665
282.912
282.869
283.008
283.901
286.153
286.888
287.006
286.847
285.687
283.445
282.992
282.956
283.201
284.548
286.46
286.821
286.761
286.449
285.048
283.447
283.192
283.212
283.52
285.002
286.361
286.574
286.568
286.193
284.556
283.558
283.411
283.42
283.846
285.438
286.334
286.385
286.371
285.593
)
;

boundaryField
{
    sides
    {
        type            calculated;
        value           nonuniform List<scalar> 2(285.593 5.85735e-13);
    }
    empty
    {
        type            empty;
    }
}


// ************************************************************************* //
