/*--------------------------------*- C++ -*----------------------------------*\
  =========                 |
  \\      /  F ield         | OpenFOAM: The Open Source CFD Toolbox
   \\    /   O peration     | Website:  https://openfoam.org
    \\  /    A nd           | Version:  9
     \\/     M anipulation  |
\*---------------------------------------------------------------------------*/
FoamFile
{
    format      ascii;
    class       volScalarField;
    location    "0.013";
    object      p;
}
// * * * * * * * * * * * * * * * * * * * * * * * * * * * * * * * * * * * * * //

dimensions      [1 -1 -2 0 0 0 0];

internalField   nonuniform List<scalar> 
1000
(
100000
100000
100000
100000
100000
100000
100000
100000
100000
100000
100000
100000
100000
100000
100000
100000
100000
100000
100000
100000
100000
100000
99999.9
99999.6
99998.8
99996.4
99989.3
99968.4
99906.5
99722.4
99167.8
97741.3
96155.7
95162.2
94545.3
94123.8
93807.9
93551.6
93329.7
93128.3
92940.1
92761.5
92591.2
92428
92269.9
92113.6
91954.2
91785.8
91602.2
91400.1
91180.9
90951.2
90718.6
90488.1
90261.5
90038.5
89818
89599.3
89381.5
89164.5
88947.8
88731.6
88515.7
88300.3
88085.4
87870.8
87656.7
87443.1
87229.9
87017.2
86805
86593.2
86381.9
86171
85960.6
85750.7
85541.2
85332.1
85123.5
84915.4
84707.7
84500.5
84293.8
84087.4
83881.6
83676.2
83471.2
83266.7
83062.6
82859
82655.8
82453
82250.7
82048.9
81847.5
81646.5
81445.9
81245.8
81046.2
80846.9
80648.1
80449.8
80251.8
80054.3
79857.3
79660.6
79464.4
79268.6
79073.2
78878.3
78683.8
78489.7
78296
78102.8
77909.9
77717.5
77525.5
77333.9
77142.7
76952
76761.6
76571.7
76382.2
76193.1
76004.4
75816.1
75628.2
75440.7
75253.6
75066.9
74880.7
74694.8
74509.3
74324.3
74139.6
73955.3
73771.5
73588
73404.9
73222.2
73039.9
72858.1
72676.6
72495.4
72314.7
72134.4
71954.5
71774.9
71595.8
71417
71238.6
71060.6
70883
70705.8
70528.9
70352.5
70176.4
70000.7
69825.4
69650.4
69475.9
69301.7
69127.9
68954.4
68781.4
68608.7
68436.4
68264.5
68092.9
67921.7
67750.9
67580.4
67410.4
67240.7
67071.3
66902.3
66733.7
66565.5
66397.6
66230.1
66063
65896.2
65729.8
65563.7
65398
65232.7
65067.7
64903.1
64738.8
64574.9
64411.3
64248.2
64085.3
63922.8
63760.7
63598.9
63437.5
63276.4
63115.7
62955.3
62795.3
62635.7
62476.3
62317.4
62158.7
62000.5
61842.5
61684.9
61527.7
61370.8
61214.2
61058
60902.1
60746.6
60591.4
60436.6
60282
60127.9
59974
59820.5
59667.4
59514.5
59362.1
59209.9
59058.1
58906.6
58755.4
58604.6
58454.1
58303.9
58154.1
58004.6
57855.4
57706.6
57558.1
57409.9
57262
57114.5
56967.3
56820.4
56673.8
56527.6
56381.6
56236.1
56090.8
55945.8
55801.2
55656.9
55512.9
55369.2
55225.8
55082.8
54940.1
54797.7
54655.6
54513.8
54372.3
54231.2
54090.4
53949.8
53809.6
53669.7
53530.1
53390.8
53251.9
53113.2
52974.9
52836.8
52699.1
52561.6
52424.5
52287.7
52151.2
52015
51879.1
51743.5
51608.2
51473.2
51338.5
51204.1
51070
50936.2
50802.7
50669.5
50536.6
50404
50271.7
50139.7
50008
49876.5
49745.4
49614.6
49484.1
49353.8
49223.9
49094.2
48964.8
48835.8
48707
48578.5
48450.3
48322.4
48194.7
48067.4
47940.3
47813.6
47687.1
47560.9
47435
47309.4
47184
47059
46934.2
46809.7
46685.5
46561.6
46437.9
46314.5
46191.5
46068.6
45946.1
45823.9
45701.9
45580.2
45458.8
45337.6
45216.8
45096.2
44975.8
44855.8
44736
44616.5
44497.3
44378.3
44259.7
44141.3
44023.1
43905.2
43787.6
43670.3
43553.2
43436.4
43319.9
43203.7
43087.7
42971.9
42856.5
42741.3
42626.3
42511.7
42397.3
42283.1
42169.3
42055.6
41942.2
41829.1
41716.3
41603.8
41491.5
41379.5
41267.7
41156.1
41044.6
40933.5
40822.8
40712.5
40602.5
40492.7
40382.9
40273.1
40163.5
40054.2
39945.5
39837.4
39729.7
39622.2
39514.6
39406.8
39299
39191.5
39084.6
38978.3
38872.7
38767.3
38661.8
38556.2
38450.5
38345.1
38240.1
38135.7
38031.8
37928.2
37824.6
37721
37617.6
37514.3
37411.4
37308.9
37206.8
37104.9
37003.2
36901.6
36800.2
36699
36598.1
36497.5
36397.2
36297.1
36197.3
36097.6
35998.2
35899
35800
35701.4
35602.9
35504.7
35406.7
35308.9
35211.4
35114.1
35017
34920.2
34823.6
34727.3
34631.1
34535.2
34439.6
34344.1
34248.9
34154
34059.2
33964.7
33870.4
33776.4
33682.5
33588.9
33495.6
33402.4
33309.5
33216.8
33124.4
33032.1
32940.1
32848.4
32756.8
32665.5
32574.5
32483.6
32393
32302.6
32212.5
32122.6
32032.9
31943.5
31854.4
31765.5
31676.9
31588.6
31500.6
31412.9
31325.7
31238.9
31152.8
31067.6
30983.5
30901
30820.7
30743.4
30669.9
30601.4
30538.7
30482.6
30433.6
30391.7
30356.9
30328.7
30306.9
30290.7
30279.6
30272.5
30268.2
30266
30264.9
30264.3
30264.2
30264.1
30264.4
30265.3
30267.8
30273.1
30279.7
30284.8
30288.2
30290.3
30292
30293.6
30295.9
30299.8
30304.8
30308.9
30312
30314.1
30315.8
30317.5
30320.3
30325.2
30331.8
30337.4
30340.5
30342.1
30342.5
30342.3
30340.8
30336
30328.3
30320.5
30313.5
30307.7
30303.5
30300.8
30299.2
30298.6
30298.3
30298.2
30298.1
30297.7
30297
30296.6
30296.5
30296.9
30298.5
30301.4
30303.5
30304.9
30305.9
30306.8
30308.1
30310.4
30313.9
30317.3
30319.9
30322
30324
30326.5
30329.2
30331.2
30332.4
30332.6
30332.1
30329.2
30322.9
30317.1
30313.5
30311.5
30310.1
30309
30307.7
30305.8
30303.8
30302.7
30302.1
30302.1
30302.4
30302.9
30303.1
30303
30302.8
30302.7
30302.9
30304
30306.7
30309.4
30310.9
30311.8
30312.3
30312.8
30313.7
30315.9
30319.7
30323
30325.1
30326.2
30326.9
30327.2
30327.2
30327.2
30326.7
30324.9
30320.4
30314.8
30310.6
30308.2
30307
30306.6
30306.4
30306.3
30305.9
30304.7
30303.1
30302.4
30302.2
30302.4
30303.5
30304
30304.2
30304.1
30304.1
30304.2
30305.1
30307.9
30310.8
30312.4
30313.1
30313.4
30313.6
30314.1
30315.7
30319.6
30323
30325
30325.7
30325.8
30325.4
30323.9
30322.5
30321.2
30319.6
30316.8
30312.6
30309.1
30307
30306.3
30306.2
30306.5
30306.8
30306.9
30305.9
30304.1
30303.2
30303
30303.4
30304.8
30305.8
30306.1
30306.1
30305.8
30305.9
30306.7
30309.4
30312.4
30313.9
30314.5
30314.6
30314.4
30314.6
30316.1
30319.9
30323.1
30324.6
30324.8
30324.1
30321.4
30319
30317.6
30316.7
30315.9
30314.5
30311.6
30308.4
30306.6
30305.9
30306.1
30307.1
30307.9
30308.1
30307.2
30305.2
30304.1
30303.7
30304.5
30306.7
30308
30308.4
30308.2
30307.7
30307.5
30308.2
30310.9
30313.9
30315.4
30315.8
30315.6
30315.1
30315.1
30316.7
30320.5
30323.1
30323.9
30323.7
30320.7
30316.5
30314.5
30313.6
30313.4
30313.5
30313.2
30311.5
30308.2
30306.1
30305.4
30305.7
30307.7
30309.2
30309.6
30308.6
30306.1
30304.7
30304.3
30305.4
30308.5
30310.3
30310.6
30310.1
30308.8
30308.2
30308.9
30312
30315.5
30317.1
30317.4
30316.8
30315.9
30315.5
30317
30320.3
30322.2
30322.7
30321.3
30316.3
30312.2
30310.9
30310.8
30312
30313.1
30313.2
30311.6
30307.7
30305.2
30304.5
30305.3
30308.3
30310.3
30311
30310
30306.9
30305.1
30304.9
30306.9
30310.8
30312.5
30312.8
30311.5
30309.1
30308.1
30308.7
30312.7
30317.4
30319.3
30319.6
30318.2
30316.2
30315.2
30315.7
30318.3
30320
30320.1
30317.9
30312.1
30308.7
30308.1
30308.7
30311.9
30314
30314.2
30312
30307.1
30304.1
30303.3
30304.8
30309.3
30311.9
30312.6
30311
30307.2
30305.6
30305.2
30308.5
30313.6
30315.4
30315
30312.3
30308.5
30307
30307.6
30313
30319.9
30322.2
30322.2
30319.3
30315
30313.1
30312.7
30315.6
30318
30318.2
30315.5
30309
30305.3
30305
30307.4
30313.2
30316.1
30316.2
30312.9
30306.6
30303.2
30301.8
30304.6
30311.1
30313.6
30313.6
30310.7
30306.9
30305.1
30304.8
30310.5
30317
30318.4
30317.4
30312.7
30308.1
30305.7
30306.9
30315.2
30321.7
30322.7
30321.6
30316.9
30312.3
30309.1
30309.7
30316.8
30319.6
30318.7
30314.2
30309
30303.7
30300.6
30304.5
30313.7
30316.4
30316
30313.7
30308.6
30301.9
30300.1
30307
30315.6
30316.7
30314.2
30311.9
30307.8
30301.7
30302.5
30313.9
30319.7
30318.7
30317.4
30319.4
30328.2
30346.1
30397.8
30650.5
30192.2
29813.3
29945.1
30076.6
30336.1
30726.4
30798.9
30758.7
30402.8
30014.5
29956.9
29940.9
29951
30090.2
30522.2
30748.2
30745
30681.4
30434.6
30032.7
29944.7
29938.3
29966
30152.4
30562.9
30672
30691.5
30655.7
30387.3
30010.2
29949
29957.8
30011.5
30246.2
30575.5
30645.5
30641.1
30595.9
30365.1
30048.1
29990.2
29987
30036
30299.5
30572.2
30615
30621.6
30569.3
30297.2
30049.4
30019.5
30030
30093.2
30350.9
30554.5
30585.7
30573.6
30513.7
30262.2
30069.9
30047
30054.2
30121.5
30386.1
30537.2
30549.1
30528.9
30443.2
30188.9
30107.2
30209.6
30422
30696.3
31092.7
31317
31402.1
31428.1
31348.1
31081.6
30996.3
30990
31003.6
31100
31344.6
31425.1
31436.7
31420.9
31294.4
31050.7
31000.8
30997.1
31022.9
31169.1
31379.3
31417.4
31411.6
31377.1
31222.9
31047.8
31020.6
31024.1
31058.4
31219.8
31368.1
31389
31386.6
31345.2
31167.8
31060.4
31047.3
31048.4
31092.8
31261.7
31358
31369.9
31353.2
31287.1
)
;

boundaryField
{
    sides
    {
        type            zeroGradient;
    }
    empty
    {
        type            empty;
    }
}


// ************************************************************************* //
