/*--------------------------------*- C++ -*----------------------------------*\
  =========                 |
  \\      /  F ield         | OpenFOAM: The Open Source CFD Toolbox
   \\    /   O peration     | Website:  https://openfoam.org
    \\  /    A nd           | Version:  9
     \\/     M anipulation  |
\*---------------------------------------------------------------------------*/
FoamFile
{
    format      ascii;
    class       volScalarField;
    location    "0.014";
    object      ddt0(p);
}
// * * * * * * * * * * * * * * * * * * * * * * * * * * * * * * * * * * * * * //

dimensions      [1 -1 -3 0 0 0 0];

internalField   nonuniform List<scalar> 
100
(
-9.02875e+06
-8.71086e+06
-8.30049e+06
-7.71318e+06
-7.08379e+06
-6.45547e+06
-5.89137e+06
-5.41357e+06
-5.0231e+06
-4.70741e+06
-4.44845e+06
-4.2283e+06
-4.0329e+06
-3.85288e+06
-3.6826e+06
-3.5189e+06
-3.3601e+06
-3.20538e+06
-3.05437e+06
-2.90703e+06
-2.76307e+06
-2.62327e+06
-2.48587e+06
-2.35455e+06
-2.22285e+06
-2.10005e+06
-1.97611e+06
-1.85555e+06
-1.74847e+06
-1.62735e+06
-1.52673e+06
-1.42496e+06
-1.31844e+06
-1.22311e+06
-1.13228e+06
-1.03933e+06
-951488
-869260
-790453
-714544
-640553
-568452
-502723
-443519
-385870
-326756
-271702
-228215
-191042
-157379
-96507.5
-105615
-8493.54
-83301.1
-10259.1
-6116.09
19298.2
-4591.81
22208.4
74801.9
-62174.9
45222.9
539.094
7528.47
-21972.1
5570.5
30654.3
39961.1
12283.3
-66994.1
13343
83089.8
217313
-13694.8
-242610
242681
132827
-205168
747542
-3020.65
-1.06868e+06
19098.1
710345
306182
-1.35202e+06
759311
1.57709e+06
-2.16369e+06
-583668
583073
2.7211e+06
-2.24184e+06
-1.34508e+06
2.56112e+06
194394
-1.74675e+06
1.37192e+06
-290188
-2.7591e+06
2.76312e+06
)
;

boundaryField
{
    sides
    {
        type            calculated;
        value           nonuniform List<scalar> 2(2.76312e+06 -9.02875e+06);
    }
    empty
    {
        type            empty;
    }
}


// ************************************************************************* //
