/*--------------------------------*- C++ -*----------------------------------*\
  =========                 |
  \\      /  F ield         | OpenFOAM: The Open Source CFD Toolbox
   \\    /   O peration     | Website:  https://openfoam.org
    \\  /    A nd           | Version:  9
     \\/     M anipulation  |
\*---------------------------------------------------------------------------*/
FoamFile
{
    format      ascii;
    class       volVectorField;
    location    "0.014";
    object      ddtCorrDdt0(rho,U);
}
// * * * * * * * * * * * * * * * * * * * * * * * * * * * * * * * * * * * * * //

dimensions      [1 -2 -2 0 0 0 0];

internalField   nonuniform List<vector> 
100
(
(3641.01 0 0)
(4450.69 0 0)
(5217.09 0 0)
(6044.39 0 0)
(7049.39 0 0)
(7961.27 0 0)
(8676.35 0 0)
(9122.37 0 0)
(9300.76 0 0)
(9248.74 0 0)
(9023.55 0 0)
(8683.76 0 0)
(8277.49 0 0)
(7838.55 0 0)
(7388.44 0 0)
(6940.05 0 0)
(6500.84 0 0)
(6074.93 0 0)
(5664.45 0 0)
(5270.61 0 0)
(4892.65 0 0)
(4535.58 0 0)
(4182.28 0 0)
(3881.65 0 0)
(3515.11 0 0)
(3316.36 0 0)
(2922.82 0 0)
(2721.14 0 0)
(2567.84 0 0)
(2063.73 0 0)
(2143.95 0 0)
(1905.01 0 0)
(1371.18 0 0)
(1536.73 0 0)
(1541.6 0 0)
(912.641 0 0)
(770.291 0 0)
(1179.92 0 0)
(988.99 0 0)
(291.901 0 0)
(238.7 0 0)
(814.984 0 0)
(846.528 0 0)
(93.6438 0 0)
(-330.067 0 0)
(200.077 0 0)
(820.627 0 0)
(544.15 0 0)
(-301.068 0 0)
(-623.769 0 0)
(19.4645 0 0)
(530.65 0 0)
(824.407 0 0)
(60.8744 0 0)
(-734.485 0 0)
(-495.783 0 0)
(161.504 0 0)
(249.229 0 0)
(540.076 0 0)
(594.666 0 0)
(-326.998 0 0)
(-293.921 0 0)
(-152.874 0 0)
(-61.0493 0 0)
(170.845 0 0)
(269.603 0 0)
(201.221 0 0)
(144.204 0 0)
(12.9497 0 0)
(-273.598 0 0)
(-6.2043 0 0)
(387.239 0 0)
(961.711 0 0)
(73.9416 0 0)
(-772.311 0 0)
(768.965 0 0)
(349.193 0 0)
(-378.926 0 0)
(2834.59 0 0)
(344.305 0 0)
(-3340.17 0 0)
(-22.8589 0 0)
(2342.68 0 0)
(805.465 0 0)
(-3921.43 0 0)
(3345.88 0 0)
(6962.16 0 0)
(1887.21 0 0)
(24721.7 0 0)
(33184.2 0 0)
(29767.9 0 0)
(10693.5 0 0)
(7213.09 0 0)
(12348.8 0 0)
(4723.08 0 0)
(-1318.63 0 0)
(3803.64 0 0)
(-417.258 0 0)
(-4259.46 0 0)
(5911.51 0 0)
)
;

boundaryField
{
    sides
    {
        type            calculated;
        value           nonuniform List<vector> 2((5911.51 0 0) (3641.01 0 0));
    }
    empty
    {
        type            empty;
    }
}


// ************************************************************************* //
