/*--------------------------------*- C++ -*----------------------------------*\
  =========                 |
  \\      /  F ield         | OpenFOAM: The Open Source CFD Toolbox
   \\    /   O peration     | Website:  https://openfoam.org
    \\  /    A nd           | Version:  9
     \\/     M anipulation  |
\*---------------------------------------------------------------------------*/
FoamFile
{
    format      ascii;
    class       volScalarField;
    location    "0.014";
    object      mag(U);
}
// * * * * * * * * * * * * * * * * * * * * * * * * * * * * * * * * * * * * * //

dimensions      [0 1 -1 0 0 0 0];

internalField   nonuniform List<scalar> 
100
(
13.1755
24.8455
31.0708
38.447
45.0436
51.4668
57.5593
63.4224
69.1133
74.6904
80.1999
85.6735
91.1312
96.5836
102.036
107.491
112.947
118.404
123.861
129.315
134.765
140.207
145.646
151.065
156.488
161.872
167.265
172.62
177.949
183.281
188.545
193.799
199.029
204.188
209.31
214.397
219.407
224.348
229.228
234.023
238.718
243.318
247.807
252.159
256.364
260.429
264.332
268.032
271.509
274.782
277.824
280.631
283.144
285.321
287.249
288.937
290.309
291.415
292.289
292.802
293.137
293.425
293.567
293.644
293.691
293.706
293.699
293.682
293.662
293.647
293.633
293.61
293.585
293.556
293.539
293.522
293.464
293.408
293.341
293.268
293.26
293.259
293.194
293.093
293.056
293.068
293.004
293.017
293.063
292.793
292.136
291.517
291.252
290.896
290.322
289.976
289.72
289.37
289.27
289.138
)
;

boundaryField
{
    sides
    {
        type            calculated;
        value           nonuniform List<scalar> 2(289.138 13.1755);
    }
    empty
    {
        type            empty;
    }
}


// ************************************************************************* //
