/*--------------------------------*- C++ -*----------------------------------*\
  =========                 |
  \\      /  F ield         | OpenFOAM: The Open Source CFD Toolbox
   \\    /   O peration     | Website:  https://openfoam.org
    \\  /    A nd           | Version:  9
     \\/     M anipulation  |
\*---------------------------------------------------------------------------*/
FoamFile
{
    format      ascii;
    class       volScalarField;
    location    "0.014";
    object      p;
}
// * * * * * * * * * * * * * * * * * * * * * * * * * * * * * * * * * * * * * //

dimensions      [1 -1 -2 0 0 0 0];

internalField   nonuniform List<scalar> 
100
(
85790.9
84890.1
84156.1
83162
82056.7
80798.9
79432.8
77985.8
76488.3
74965.5
73436.5
71914.2
70406.9
68919.5
67454.9
66014.5
64599.3
63209.7
61846
60508.1
59196.4
57910.3
56651.1
55415.8
54210.6
53024
51874.2
50737.3
49638.6
48558.5
47503.3
46480.5
45479.2
44503.5
43557.5
42637.4
41743.3
40877.3
40039.9
39231.4
38452.6
37703
36983.4
36296.6
35644.4
35025.3
34439
33887.5
33378.4
32907.8
32474.5
32080.5
31729.3
31411
31155.8
30930.1
30737.5
30590.9
30480.6
30377.1
30328.8
30300.1
30278.5
30278.8
30279.3
30281.1
30281.6
30282
30283.4
30288.6
30299.3
30313.1
30321.9
30315
30338.5
30352.9
30347.2
30370.4
30392.4
30346.9
30404.7
30456.4
30477.1
30444.1
30484.3
30542.1
30476.3
30460.1
30625.8
30662.1
30571.8
30502.9
30694.7
30705.6
30597.1
30656
30694.7
30639
30763.5
30612
)
;

boundaryField
{
    sides
    {
        type            zeroGradient;
    }
    empty
    {
        type            empty;
    }
}


// ************************************************************************* //
