/*--------------------------------*- C++ -*----------------------------------*\
  =========                 |
  \\      /  F ield         | OpenFOAM: The Open Source CFD Toolbox
   \\    /   O peration     | Website:  https://openfoam.org
    \\  /    A nd           | Version:  9
     \\/     M anipulation  |
\*---------------------------------------------------------------------------*/
FoamFile
{
    format      ascii;
    class       volVectorField;
    location    "0.014";
    object      U_0;
}
// * * * * * * * * * * * * * * * * * * * * * * * * * * * * * * * * * * * * * //

dimensions      [0 1 -1 0 0 0 0];

internalField   nonuniform List<vector> 
100
(
(13.1251 0 0)
(24.7774 0 0)
(30.9902 0 0)
(38.353 0 0)
(44.935 0 0)
(51.345 0 0)
(57.4268 0 0)
(63.2821 0 0)
(68.9683 0 0)
(74.5434 0 0)
(80.0527 0 0)
(85.5277 0 0)
(90.9875 0 0)
(96.4428 0 0)
(101.898 0 0)
(107.356 0 0)
(112.816 0 0)
(118.277 0 0)
(123.737 0 0)
(129.195 0 0)
(134.649 0 0)
(140.095 0 0)
(145.537 0 0)
(150.96 0 0)
(156.387 0 0)
(161.775 0 0)
(167.172 0 0)
(172.53 0 0)
(177.864 0 0)
(183.2 0 0)
(188.467 0 0)
(193.725 0 0)
(198.96 0 0)
(204.121 0 0)
(209.248 0 0)
(214.338 0 0)
(219.352 0 0)
(224.297 0 0)
(229.181 0 0)
(233.98 0 0)
(238.679 0 0)
(243.282 0 0)
(247.775 0 0)
(252.13 0 0)
(256.339 0 0)
(260.408 0 0)
(264.314 0 0)
(268.016 0 0)
(271.496 0 0)
(274.772 0 0)
(277.816 0 0)
(280.626 0 0)
(283.139 0 0)
(285.317 0 0)
(287.249 0 0)
(288.937 0 0)
(290.309 0 0)
(291.417 0 0)
(292.289 0 0)
(292.799 0 0)
(293.138 0 0)
(293.427 0 0)
(293.569 0 0)
(293.646 0 0)
(293.693 0 0)
(293.706 0 0)
(293.698 0 0)
(293.682 0 0)
(293.663 0 0)
(293.649 0 0)
(293.636 0 0)
(293.612 0 0)
(293.585 0 0)
(293.557 0 0)
(293.543 0 0)
(293.522 0 0)
(293.465 0 0)
(293.411 0 0)
(293.336 0 0)
(293.268 0 0)
(293.274 0 0)
(293.267 0 0)
(293.19 0 0)
(293.092 0 0)
(293.066 0 0)
(293.065 0 0)
(292.994 0 0)
(293.037 0 0)
(293.089 0 0)
(292.774 0 0)
(292.092 0 0)
(291.524 0 0)
(291.276 0 0)
(290.865 0 0)
(290.3 0 0)
(289.984 0 0)
(289.707 0 0)
(289.377 0 0)
(289.259 0 0)
(289.1 0 0)
)
;

boundaryField
{
    sides
    {
        type            zeroGradient;
    }
    empty
    {
        type            empty;
    }
}


// ************************************************************************* //
