/*--------------------------------*- C++ -*----------------------------------*\
  =========                 |
  \\      /  F ield         | OpenFOAM: The Open Source CFD Toolbox
   \\    /   O peration     | Website:  https://openfoam.org
    \\  /    A nd           | Version:  9
     \\/     M anipulation  |
\*---------------------------------------------------------------------------*/
FoamFile
{
    format      ascii;
    class       surfaceScalarField;
    location    "0.011";
    object      phi;
}
// * * * * * * * * * * * * * * * * * * * * * * * * * * * * * * * * * * * * * //

dimensions      [1 0 -1 0 0 0 0];

internalField   nonuniform List<scalar> 
9999
(
4.77485e-12
3.52429e-12
2.04636e-12
7.38964e-13
-2.84217e-13
-1.3074e-12
-2.6148e-12
-4.54747e-12
-5.17275e-12
-6.48015e-12
-6.48015e-12
-7.21911e-12
-7.78755e-12
-7.7307e-12
-8.52651e-12
-9.15179e-12
-9.83391e-12
-1.10845e-11
-1.14255e-11
-1.17097e-11
-1.17097e-11
-1.22782e-11
-1.25624e-11
-1.28466e-11
-1.23919e-11
-1.26761e-11
-1.26192e-11
-1.30171e-11
-1.31877e-11
-1.21076e-11
-1.23919e-11
-1.15961e-11
-1.08002e-11
-1.02318e-11
-1.08002e-11
-1.06866e-11
-9.72022e-12
-9.37916e-12
-8.58336e-12
-7.61702e-12
-6.25278e-12
-5.11591e-12
-4.718e-12
-3.80851e-12
-3.29692e-12
-2.50111e-12
-1.25056e-12
-5.68434e-14
8.52651e-13
1.08002e-12
2.16005e-12
2.6148e-12
3.52429e-12
4.54747e-12
5.05906e-12
6.13909e-12
6.13909e-12
7.3328e-12
7.7307e-12
8.58336e-12
8.86757e-12
9.54969e-12
9.72022e-12
1.00044e-11
1.01181e-11
9.72022e-12
1.00044e-11
9.89075e-12
9.60654e-12
9.43601e-12
9.77707e-12
1.02318e-11
1.00044e-11
1.00613e-11
9.83391e-12
1.00044e-11
9.43601e-12
9.72022e-12
9.32232e-12
8.81073e-12
8.46967e-12
8.07177e-12
8.69704e-12
7.95808e-12
8.2423e-12
8.29914e-12
8.58336e-12
8.29914e-12
8.69704e-12
8.07177e-12
7.84439e-12
7.7307e-12
7.61702e-12
8.52651e-12
8.2423e-12
8.46967e-12
8.46967e-12
8.41283e-12
8.52651e-12
8.52651e-12
8.86757e-12
1.02318e-11
1.02318e-11
1.08002e-11
1.08571e-11
1.13687e-11
1.18234e-11
1.21076e-11
1.23919e-11
1.26192e-11
1.30171e-11
1.34719e-11
1.35287e-11
1.45519e-11
1.49498e-11
1.56888e-11
1.69962e-11
1.76215e-11
1.79057e-11
1.87015e-11
1.95541e-11
1.98952e-11
2.05205e-11
2.13731e-11
2.19416e-11
2.34195e-11
2.42153e-11
2.47837e-11
2.59774e-11
2.71712e-11
2.81943e-11
2.91607e-11
3.0866e-11
3.20597e-11
3.3026e-11
3.44471e-11
3.50724e-11
3.6664e-11
3.80282e-11
3.9222e-11
4.07567e-11
4.15525e-11
4.26326e-11
4.37694e-11
4.47926e-11
4.5361e-11
4.61e-11
4.6839e-11
4.77485e-11
4.82601e-11
4.84306e-11
4.88285e-11
4.90559e-11
5.01927e-11
5.04201e-11
5.13296e-11
5.14433e-11
5.16138e-11
5.12159e-11
5.13296e-11
5.14433e-11
5.18412e-11
5.24096e-11
5.23528e-11
5.23528e-11
5.24096e-11
5.2637e-11
5.25802e-11
5.1898e-11
5.14433e-11
5.13865e-11
5.05338e-11
4.88853e-11
4.7919e-11
4.60432e-11
4.46221e-11
4.38263e-11
4.26894e-11
4.08704e-11
3.9563e-11
3.78009e-11
3.60387e-11
3.49587e-11
3.42197e-11
3.41061e-11
3.31966e-11
3.21165e-11
3.09797e-11
2.94449e-11
2.88196e-11
2.72848e-11
2.58069e-11
2.5409e-11
2.38742e-11
2.35332e-11
2.251e-11
2.23395e-11
2.1771e-11
2.16005e-11
2.14868e-11
2.143e-11
2.143e-11
2.10889e-11
2.10889e-11
2.13163e-11
2.05205e-11
2.01226e-11
2.01226e-11
2.06342e-11
2.08615e-11
2.10889e-11
2.17142e-11
2.04068e-11
2.05773e-11
2.07478e-11
2.06342e-11
2.02931e-11
1.98952e-11
1.98384e-11
1.93268e-11
1.88152e-11
1.82467e-11
1.72804e-11
1.63141e-11
1.5973e-11
1.60867e-11
1.57456e-11
1.64846e-11
1.68825e-11
1.78488e-11
1.77351e-11
1.84741e-11
1.87015e-11
1.98384e-11
2.04636e-11
2.09752e-11
2.15437e-11
2.19416e-11
2.31353e-11
2.44995e-11
2.51248e-11
2.63185e-11
2.7228e-11
2.85922e-11
3.02407e-11
3.04112e-11
3.09228e-11
3.21734e-11
3.33102e-11
3.39924e-11
3.5584e-11
3.68345e-11
3.86535e-11
3.96199e-11
4.10978e-11
4.22915e-11
4.30873e-11
4.30305e-11
4.37694e-11
4.47926e-11
4.46221e-11
4.43379e-11
4.47358e-11
4.52474e-11
4.50768e-11
4.58726e-11
4.62137e-11
4.69527e-11
4.68958e-11
4.67821e-11
4.74643e-11
4.66116e-11
4.64411e-11
4.74074e-11
4.718e-11
4.718e-11
4.6839e-11
4.73506e-11
4.67821e-11
4.57021e-11
4.51337e-11
4.45084e-11
4.34852e-11
4.25757e-11
4.22347e-11
4.12683e-11
4.05862e-11
3.97335e-11
3.90514e-11
3.85398e-11
3.81988e-11
3.72324e-11
3.71188e-11
3.67777e-11
3.58114e-11
3.52998e-11
3.45608e-11
3.38787e-11
3.42197e-11
3.37081e-11
3.3026e-11
3.22302e-11
3.18323e-11
3.14913e-11
3.06386e-11
3.09228e-11
3.02407e-11
2.96723e-11
2.98996e-11
2.98996e-11
2.9047e-11
2.75122e-11
2.64322e-11
2.55227e-11
2.39311e-11
2.29647e-11
2.33058e-11
2.30216e-11
2.22826e-11
2.19984e-11
2.22826e-11
2.10321e-11
2.06342e-11
1.9611e-11
1.88152e-11
1.79625e-11
1.73941e-11
1.68825e-11
1.64277e-11
1.56888e-11
1.64846e-11
1.61435e-11
1.53477e-11
1.5234e-11
1.51772e-11
1.46088e-11
1.43814e-11
1.34719e-11
1.25624e-11
1.16529e-11
1.11982e-11
1.15961e-11
9.9476e-12
9.54969e-12
9.15179e-12
8.07177e-12
7.95808e-12
6.99174e-12
6.25278e-12
5.6275e-12
4.718e-12
4.20641e-12
3.35376e-12
2.6148e-12
2.04636e-12
2.16005e-12
1.47793e-12
7.95808e-13
7.38964e-13
3.97904e-13
1.13687e-13
-4.54747e-13
-1.36424e-12
-1.53477e-12
-1.87583e-12
-2.33058e-12
-2.72848e-12
-3.97904e-12
-4.3201e-12
-3.97904e-12
-4.54747e-12
-5.11591e-12
-5.11591e-12
-4.77485e-12
-4.49063e-12
-4.54747e-12
-4.09273e-12
-4.03588e-12
-4.37694e-12
-3.97904e-12
-3.63798e-12
-2.55795e-12
-1.64846e-12
-9.09495e-13
5.68434e-14
1.64846e-12
2.78533e-12
3.9222e-12
4.94538e-12
5.85487e-12
6.70752e-12
7.7307e-12
8.86757e-12
9.43601e-12
1.03455e-11
1.17097e-11
1.29035e-11
1.39835e-11
1.51772e-11
1.55183e-11
1.60298e-11
1.71099e-11
1.76215e-11
1.8872e-11
1.95541e-11
1.95541e-11
2.00089e-11
2.02931e-11
2.09752e-11
2.12594e-11
2.09752e-11
2.13163e-11
2.08615e-11
2.13163e-11
2.02931e-11
1.98384e-11
1.93836e-11
1.84741e-11
1.84173e-11
1.77351e-11
1.71667e-11
1.63141e-11
1.5973e-11
1.56319e-11
1.52909e-11
1.4154e-11
1.43245e-11
1.31877e-11
1.26192e-11
1.20508e-11
1.17666e-11
1.08002e-11
9.54969e-12
8.46967e-12
7.78755e-12
6.59384e-12
5.22959e-12
4.66116e-12
3.58114e-12
2.55795e-12
1.98952e-12
8.52651e-13
-7.95808e-13
-1.36424e-12
-1.93268e-12
-2.55795e-12
-3.12639e-12
-3.18323e-12
-3.29692e-12
-4.43379e-12
-4.20641e-12
-4.60432e-12
-5.34328e-12
-5.96856e-12
-5.85487e-12
-5.40012e-12
-5.85487e-12
-5.68434e-12
-5.22959e-12
-5.17275e-12
-4.3201e-12
-2.89901e-12
-1.87583e-12
-6.25278e-13
8.52651e-13
2.04636e-12
2.55795e-12
3.9222e-12
4.14957e-12
5.45697e-12
5.85487e-12
6.36646e-12
6.87805e-12
7.61702e-12
7.95808e-12
8.35598e-12
8.92442e-12
9.66338e-12
1.01181e-11
1.02887e-11
1.06866e-11
1.13687e-11
1.23919e-11
1.35856e-11
1.40403e-11
1.35856e-11
1.35856e-11
1.4154e-11
1.40972e-11
1.46088e-11
1.40972e-11
1.46656e-11
1.47793e-11
1.5234e-11
1.42109e-11
1.36993e-11
1.38698e-11
1.49498e-11
1.56319e-11
1.53477e-11
1.52909e-11
1.55751e-11
1.64277e-11
1.71667e-11
1.68257e-11
1.73372e-11
1.71099e-11
1.67688e-11
1.74509e-11
1.73941e-11
1.79057e-11
1.85878e-11
1.90994e-11
2.00657e-11
2.04068e-11
2.13163e-11
2.15437e-11
2.1771e-11
2.27374e-11
2.35332e-11
2.44995e-11
2.467e-11
2.51816e-11
2.50111e-11
2.58638e-11
2.65459e-11
2.6489e-11
2.68301e-11
2.66596e-11
2.73985e-11
2.7967e-11
2.82512e-11
2.80238e-11
2.82512e-11
2.91607e-11
2.83649e-11
2.81943e-11
2.80238e-11
2.77396e-11
2.81375e-11
2.85354e-11
2.86491e-11
2.85922e-11
2.76259e-11
2.75691e-11
2.73985e-11
2.69438e-11
2.59774e-11
2.5409e-11
2.42153e-11
2.37605e-11
2.29079e-11
2.19984e-11
2.12026e-11
2.09752e-11
2.05205e-11
1.97815e-11
1.89857e-11
1.81899e-11
1.77351e-11
1.75078e-11
1.71667e-11
1.66551e-11
1.68257e-11
1.74509e-11
1.72804e-11
1.73941e-11
1.74509e-11
1.77351e-11
1.75078e-11
1.80762e-11
1.87015e-11
1.93836e-11
2.02363e-11
2.17142e-11
2.33626e-11
2.4329e-11
2.59206e-11
2.83649e-11
3.05818e-11
3.42766e-11
3.83125e-11
4.24052e-11
4.78053e-11
5.46834e-11
6.26414e-11
7.20775e-11
8.37304e-11
9.80549e-11
1.13687e-10
1.33184e-10
1.55069e-10
1.80933e-10
2.10548e-10
2.45223e-10
2.85695e-10
3.33841e-10
3.9023e-10
4.56168e-10
5.32737e-10
6.22208e-10
7.26629e-10
8.47706e-10
9.89075e-10
1.15415e-09
1.34605e-09
1.56922e-09
1.8286e-09
2.13066e-09
2.48139e-09
2.88873e-09
3.36195e-09
3.91009e-09
4.54634e-09
5.2836e-09
6.1375e-09
7.1264e-09
8.27129e-09
9.59528e-09
1.11257e-08
1.28938e-08
1.49376e-08
1.72961e-08
2.0018e-08
2.31557e-08
2.67726e-08
3.09388e-08
3.5736e-08
4.12563e-08
4.76057e-08
5.4904e-08
6.32898e-08
7.29189e-08
8.39702e-08
9.66483e-08
1.11183e-07
1.27839e-07
1.46914e-07
1.68749e-07
1.93729e-07
2.22292e-07
2.54936e-07
2.92222e-07
3.34789e-07
3.83359e-07
4.38748e-07
5.01878e-07
5.73794e-07
6.55675e-07
7.48849e-07
8.5482e-07
9.75278e-07
1.11213e-06
1.26752e-06
1.44387e-06
1.6439e-06
1.87065e-06
2.12756e-06
2.41849e-06
2.74776e-06
3.12022e-06
3.54129e-06
4.01708e-06
4.55438e-06
5.16082e-06
5.84493e-06
6.61621e-06
7.48531e-06
8.46409e-06
9.56578e-06
1.08051e-05
1.21986e-05
1.37644e-05
1.55229e-05
1.74967e-05
1.9711e-05
2.21938e-05
2.49758e-05
2.80916e-05
3.15792e-05
3.54807e-05
3.98428e-05
4.47173e-05
5.01611e-05
5.62374e-05
6.30158e-05
7.05732e-05
7.89942e-05
8.83724e-05
9.88106e-05
0.000110422
0.000123331
0.000137674
0.000153602
0.00017128
0.000190889
0.000212627
0.000236711
0.00026338
0.000292894
0.000325537
0.00036162
0.000401484
0.000445497
0.000494065
0.000547627
0.000606663
0.000671693
0.000743286
0.000822056
0.000908673
0.00100386
0.00110841
0.00122317
0.00134907
0.0014871
0.00163835
0.00180398
0.00198525
0.00218352
0.00240026
0.00263704
0.00289557
0.00317767
0.00348531
0.00382059
0.00418579
0.00458334
0.00501583
0.00548606
0.005997
0.00655185
0.00715402
0.00780714
0.00851509
0.00928201
0.0101123
0.0110107
0.0119821
0.0130318
0.0141655
0.0153891
0.016709
0.0181317
0.0196645
0.0213148
0.0230905
0.0249999
0.0270518
0.0292555
0.0316208
0.0341579
0.0368776
0.0397911
0.0429104
0.046248
0.0498167
0.0536303
0.057703
0.0620496
0.0666856
0.0716272
0.0768912
0.0824951
0.088457
0.0947959
0.101531
0.108683
0.116273
0.124322
0.132853
0.141889
0.151454
0.161572
0.172269
0.18357
0.195502
0.208092
0.221369
0.23536
0.250095
0.265604
0.281918
0.299066
0.317081
0.335995
0.355839
0.376648
0.398453
0.42129
0.445191
0.470191
0.496324
0.523626
0.552131
0.581873
0.612889
0.645213
0.678879
0.713924
0.750381
0.788286
0.827671
0.868573
0.911024
0.955057
1.00071
1.048
1.09698
1.14766
1.20009
1.25429
1.31029
1.36811
1.42779
1.48936
1.55283
1.61824
1.6856
1.75494
1.82628
1.89964
1.97505
2.05251
2.13205
2.21369
2.29743
2.3833
2.47129
2.56144
2.65374
2.74821
2.84485
2.94367
3.04468
3.14787
3.25326
3.36084
3.47062
3.5826
3.69677
3.81313
3.93168
4.05241
4.17532
4.3004
4.42764
4.55704
4.68859
4.82227
4.95808
5.09599
5.23601
5.37811
5.52229
5.66852
5.81679
5.96709
6.11939
6.27369
6.42996
6.58818
6.74833
6.91041
7.07438
7.24022
7.40792
7.57745
7.7488
7.92194
8.09685
8.27351
8.45189
8.63198
8.81375
8.99718
9.18225
9.36893
9.5572
9.74704
9.93843
10.1313
10.3258
10.5216
10.719
10.9178
11.118
11.3195
11.5225
11.7268
11.9324
12.1393
12.3475
12.5569
12.7676
12.9795
13.1926
13.4069
13.6223
13.8389
14.0565
14.2753
14.4951
14.716
14.9379
15.1609
15.3848
15.6097
15.8356
16.0624
16.2902
16.5188
16.7484
16.9788
17.2101
17.4422
17.6751
17.9089
18.1434
18.3787
18.6148
18.8516
19.0892
19.3275
19.5665
19.8061
20.0465
20.2875
20.5292
20.7715
21.0144
21.2579
21.5021
21.7468
21.9921
22.2379
22.4843
22.7313
22.9788
23.2268
23.4753
23.7243
23.9738
24.2237
24.4741
24.725
24.9764
25.2281
25.4803
25.7329
25.986
26.2394
26.4932
26.7474
27.002
27.2569
27.5122
27.7679
28.0239
28.2803
28.5369
28.7939
29.0512
29.3089
29.5668
29.825
30.0835
30.3423
30.6013
30.8607
31.1203
31.3801
31.6402
31.9006
32.1612
32.422
32.683
32.9443
33.2058
33.4675
33.7294
33.9916
34.2539
34.5164
34.7791
35.042
35.3051
35.5683
35.8317
36.0953
36.359
36.6229
36.887
37.1512
37.4155
37.68
37.9447
38.2094
38.4743
38.7394
39.0045
39.2698
39.5352
39.8007
40.0663
40.332
40.5979
40.8638
41.1298
41.396
41.6622
41.9285
42.1949
42.4614
42.7279
42.9946
43.2613
43.5281
43.7949
44.0619
44.3288
44.5959
44.863
45.1302
45.3974
45.6647
45.9321
46.1994
46.4669
46.7344
47.0019
47.2695
47.5371
47.8047
48.0724
48.3401
48.6078
48.8756
49.1434
49.4112
49.6791
49.9469
50.2148
50.4827
50.7507
51.0186
51.2866
51.5545
51.8225
52.0905
52.3585
52.6265
52.8945
53.1625
53.4305
53.6985
53.9665
54.2345
54.5025
54.7705
55.0385
55.3065
55.5745
55.8424
56.1104
56.3783
56.6462
56.9141
57.182
57.4499
57.7178
57.9856
58.2534
58.5212
58.789
59.0567
59.3244
59.5921
59.8598
60.1275
60.3951
60.6626
60.9302
61.1977
61.4652
61.7326
62.0001
62.2674
62.5348
62.8021
63.0694
63.3366
63.6038
63.8709
64.138
64.4051
64.6721
64.9391
65.2061
65.4729
65.7398
66.0066
66.2733
66.54
66.8067
67.0733
67.3399
67.6064
67.8728
68.1392
68.4056
68.6719
68.9381
69.2043
69.4704
69.7365
70.0025
70.2685
70.5344
70.8002
71.066
71.3318
71.5974
71.863
72.1286
72.3941
72.6595
72.9249
73.1902
73.4554
73.7206
73.9857
74.2507
74.5157
74.7806
75.0455
75.3103
75.575
75.8396
76.1042
76.3687
76.6332
76.8976
77.1619
77.4261
77.6903
77.9544
78.2184
78.4824
78.7462
79.01
79.2738
79.5375
79.801
80.0646
80.328
80.5914
80.8547
81.1179
81.381
81.6441
81.9071
82.17
82.4329
82.6956
82.9583
83.2209
83.4835
83.7459
84.0083
84.2706
84.5328
84.795
85.057
85.319
85.5809
85.8427
86.1045
86.3661
86.6277
86.8892
87.1506
87.412
87.6732
87.9344
88.1955
88.4565
88.7174
88.9783
89.239
89.4997
89.7603
90.0208
90.2812
90.5416
90.8018
91.062
91.3221
91.5821
91.842
92.1018
92.3616
92.6212
92.8808
93.1403
93.3997
93.659
93.9182
94.1773
94.4364
94.6953
94.9542
95.213
95.4717
95.7303
95.9888
96.2473
96.5056
96.7639
97.022
97.2801
97.5381
97.796
98.0538
98.3115
98.5692
98.8267
99.0841
99.3415
99.5988
99.856
100.113
100.37
100.627
100.884
101.14
101.397
101.654
101.91
102.166
102.423
102.679
102.935
103.191
103.447
103.703
103.958
104.214
104.47
104.725
104.98
105.236
105.491
105.746
106.001
106.256
106.51
106.765
107.02
107.274
107.529
107.783
108.037
108.291
108.545
108.799
109.053
109.307
109.56
109.814
110.068
110.321
110.574
110.827
111.08
111.333
111.586
111.839
112.092
112.344
112.597
112.849
113.102
113.354
113.606
113.858
114.11
114.362
114.614
114.865
115.117
115.368
115.62
115.871
116.122
116.373
116.624
116.875
117.126
117.376
117.627
117.877
118.128
118.378
118.628
118.878
119.128
119.378
119.628
119.878
120.127
120.377
120.626
120.876
121.125
121.374
121.623
121.872
122.121
122.37
122.618
122.867
123.115
123.364
123.612
123.86
124.108
124.356
124.604
124.852
125.099
125.347
125.594
125.842
126.089
126.336
126.583
126.83
127.077
127.324
127.57
127.817
128.063
128.31
128.556
128.802
129.048
129.294
129.54
129.786
130.032
130.277
130.523
130.768
131.013
131.258
131.504
131.749
131.993
132.238
132.483
132.727
132.972
133.216
133.461
133.705
133.949
134.193
134.437
134.681
134.924
135.168
135.411
135.655
135.898
136.141
136.384
136.627
136.87
137.113
137.356
137.598
137.841
138.083
138.325
138.568
138.81
139.052
139.294
139.535
139.777
140.019
140.26
140.502
140.743
140.984
141.225
141.466
141.707
141.948
142.189
142.429
142.67
142.91
143.15
143.391
143.631
143.871
144.111
144.35
144.59
144.83
145.069
145.309
145.548
145.787
146.026
146.265
146.504
146.743
146.982
147.22
147.459
147.697
147.935
148.173
148.412
148.65
148.887
149.125
149.363
149.601
149.838
150.075
150.313
150.55
150.787
151.024
151.261
151.498
151.734
151.971
152.207
152.444
152.68
152.916
153.152
153.388
153.624
153.86
154.096
154.331
154.567
154.802
155.037
155.273
155.508
155.743
155.978
156.212
156.447
156.682
156.916
157.15
157.385
157.619
157.853
158.087
158.321
158.555
158.788
159.022
159.255
159.489
159.722
159.955
160.188
160.421
160.654
160.887
161.12
161.352
161.585
161.817
162.049
162.281
162.513
162.745
162.977
163.209
163.441
163.672
163.904
164.135
164.366
164.598
164.829
165.06
165.29
165.521
165.752
165.982
166.213
166.443
166.674
166.904
167.134
167.364
167.594
167.823
168.053
168.283
168.512
168.741
168.971
169.2
169.429
169.658
169.887
170.116
170.344
170.573
170.801
171.03
171.258
171.486
171.714
171.942
172.17
172.398
172.625
172.853
173.08
173.308
173.535
173.762
173.989
174.216
174.443
174.67
174.896
175.123
175.349
175.576
175.802
176.028
176.254
176.48
176.706
176.932
177.158
177.383
177.609
177.834
178.059
178.284
178.509
178.734
178.959
179.184
179.409
179.633
179.858
180.082
180.306
180.531
180.755
180.979
181.202
181.426
181.65
181.873
182.097
182.32
182.544
182.767
182.99
183.213
183.436
183.658
183.881
184.104
184.326
184.549
184.771
184.993
185.215
185.437
185.659
185.881
186.102
186.324
186.546
186.767
186.988
187.209
187.43
187.651
187.872
188.093
188.314
188.534
188.755
188.975
189.196
189.416
189.636
189.856
190.076
190.296
190.515
190.735
190.954
191.174
191.393
191.612
191.831
192.05
192.269
192.488
192.707
192.925
193.144
193.362
193.581
193.799
194.017
194.235
194.453
194.671
194.888
195.106
195.324
195.541
195.758
195.976
196.193
196.41
196.627
196.844
197.06
197.277
197.493
197.71
197.926
198.142
198.359
198.575
198.791
199.006
199.222
199.438
199.653
199.869
200.084
200.3
200.515
200.73
200.945
201.16
201.374
201.589
201.804
202.018
202.232
202.447
202.661
202.875
203.089
203.303
203.517
203.73
203.944
204.157
204.371
204.584
204.797
205.01
205.223
205.436
205.649
205.862
206.074
206.287
206.499
206.712
206.924
207.136
207.348
207.56
207.772
207.984
208.195
208.407
208.618
208.83
209.041
209.252
209.463
209.674
209.885
210.096
210.306
210.517
210.727
210.938
211.148
211.358
211.568
211.778
211.988
212.198
212.407
212.617
212.827
213.036
213.245
213.454
213.664
213.873
214.081
214.29
214.499
214.708
214.916
215.125
215.333
215.541
215.749
215.957
216.165
216.373
216.581
216.789
216.996
217.204
217.411
217.618
217.825
218.032
218.239
218.446
218.653
218.86
219.066
219.273
219.479
219.685
219.892
220.098
220.304
220.51
220.715
220.921
221.127
221.332
221.538
221.743
221.948
222.153
222.359
222.563
222.768
222.973
223.178
223.382
223.587
223.791
223.995
224.2
224.404
224.608
224.812
225.015
225.219
225.423
225.626
225.83
226.033
226.236
226.439
226.642
226.845
227.048
227.251
227.453
227.656
227.858
228.061
228.263
228.465
228.667
228.869
229.071
229.273
229.474
229.676
229.878
230.079
230.28
230.481
230.683
230.884
231.085
231.285
231.486
231.687
231.887
232.088
232.288
232.488
232.688
232.889
233.088
233.288
233.488
233.688
233.887
234.087
234.286
234.486
234.685
234.884
235.083
235.282
235.481
235.679
235.878
236.077
236.275
236.473
236.672
236.87
237.068
237.266
237.464
237.661
237.859
238.057
238.254
238.452
238.649
238.846
239.043
239.24
239.437
239.634
239.831
240.027
240.224
240.421
240.617
240.813
241.009
241.205
241.401
241.597
241.793
241.989
242.184
242.38
242.575
242.771
242.966
243.161
243.356
243.551
243.746
243.941
244.135
244.33
244.524
244.719
244.913
245.107
245.301
245.495
245.689
245.883
246.077
246.27
246.464
246.657
246.851
247.044
247.237
247.43
247.623
247.816
248.009
248.202
248.394
248.587
248.779
248.971
249.164
249.356
249.548
249.74
249.932
250.123
250.315
250.507
250.698
250.89
251.081
251.272
251.463
251.654
251.845
252.036
252.227
252.417
252.608
252.798
252.989
253.179
253.369
253.559
253.749
253.939
254.129
254.319
254.508
254.698
254.887
255.077
255.266
255.455
255.644
255.833
256.022
256.211
256.399
256.588
256.777
256.965
257.153
257.342
257.53
257.718
257.906
258.094
258.281
258.469
258.657
258.844
259.031
259.219
259.406
259.593
259.78
259.967
260.154
260.341
260.527
260.714
260.9
261.087
261.273
261.459
261.645
261.831
262.017
262.203
262.389
262.575
262.76
262.946
263.131
263.316
263.501
263.686
263.872
264.056
264.241
264.426
264.611
264.795
264.98
265.164
265.348
265.532
265.717
265.901
266.084
266.268
266.452
266.636
266.819
267.003
267.186
267.369
267.552
267.735
267.918
268.101
268.284
268.467
268.65
268.832
269.015
269.197
269.379
269.561
269.743
269.925
270.107
270.289
270.471
270.652
270.834
271.015
271.197
271.378
271.559
271.74
271.921
272.102
272.283
272.464
272.644
272.825
273.005
273.186
273.366
273.546
273.726
273.906
274.086
274.266
274.446
274.625
274.805
274.984
275.164
275.343
275.522
275.701
275.88
276.059
276.238
276.417
276.595
276.774
276.952
277.131
277.309
277.487
277.665
277.843
278.021
278.199
278.377
278.554
278.732
278.909
279.087
279.264
279.441
279.618
279.795
279.972
280.149
280.326
280.503
280.679
280.856
281.032
281.208
281.385
281.561
281.737
281.913
282.089
282.264
282.44
282.616
282.791
282.966
283.142
283.317
283.492
283.667
283.842
284.017
284.192
284.366
284.541
284.716
284.89
285.064
285.239
285.413
285.587
285.761
285.935
286.109
286.282
286.456
286.629
286.803
286.976
287.149
287.323
287.496
287.669
287.842
288.014
288.187
288.36
288.532
288.705
288.877
289.05
289.222
289.394
289.566
289.738
289.91
290.081
290.253
290.425
290.596
290.768
290.939
291.11
291.281
291.452
291.623
291.794
291.965
292.136
292.306
292.477
292.647
292.818
292.988
293.158
293.328
293.498
293.668
293.838
294.008
294.177
294.347
294.516
294.686
294.855
295.024
295.193
295.362
295.531
295.7
295.869
296.038
296.206
296.375
296.543
296.711
296.88
297.048
297.216
297.384
297.552
297.72
297.887
298.055
298.222
298.39
298.557
298.725
298.892
299.059
299.226
299.393
299.56
299.726
299.893
300.06
300.226
300.393
300.559
300.725
300.891
301.057
301.223
301.389
301.555
301.721
301.886
302.052
302.217
302.383
302.548
302.713
302.878
303.043
303.208
303.373
303.538
303.703
303.867
304.032
304.196
304.36
304.525
304.689
304.853
305.017
305.181
305.344
305.508
305.672
305.835
305.999
306.162
306.326
306.489
306.652
306.815
306.978
307.141
307.303
307.466
307.629
307.791
307.954
308.116
308.278
308.44
308.603
308.765
308.926
309.088
309.25
309.412
309.573
309.735
309.896
310.057
310.219
310.38
310.541
310.702
310.863
311.023
311.184
311.345
311.505
311.666
311.826
311.986
312.147
312.307
312.467
312.627
312.787
312.946
313.106
313.266
313.425
313.585
313.744
313.903
314.062
314.221
314.38
314.539
314.698
314.857
315.016
315.174
315.333
315.491
315.649
315.808
315.966
316.124
316.282
316.44
316.598
316.755
316.913
317.071
317.228
317.385
317.543
317.7
317.857
318.014
318.171
318.328
318.485
318.641
318.798
318.955
319.111
319.268
319.424
319.58
319.736
319.892
320.048
320.204
320.36
320.515
320.671
320.827
320.982
321.137
321.293
321.448
321.603
321.758
321.913
322.068
322.223
322.377
322.532
322.686
322.841
322.995
323.15
323.304
323.458
323.612
323.766
323.92
324.073
324.227
324.381
324.534
324.688
324.841
324.994
325.147
325.301
325.454
325.606
325.759
325.912
326.065
326.217
326.37
326.522
326.675
326.827
326.979
327.131
327.283
327.435
327.587
327.739
327.89
328.042
328.194
328.345
328.496
328.648
328.799
328.95
329.101
329.252
329.403
329.554
329.704
329.855
330.005
330.156
330.306
330.456
330.607
330.757
330.907
331.057
331.207
331.356
331.506
331.656
331.805
331.955
332.104
332.253
332.402
332.552
332.701
332.849
332.998
333.147
333.296
333.444
333.593
333.741
333.89
334.038
334.186
334.334
334.483
334.63
334.778
334.926
335.074
335.221
335.369
335.517
335.664
335.811
335.958
336.106
336.253
336.4
336.547
336.693
336.84
336.987
337.133
337.28
337.426
337.572
337.719
337.865
338.011
338.157
338.303
338.449
338.594
338.74
338.886
339.031
339.177
339.322
339.467
339.612
339.758
339.903
340.047
340.192
340.337
340.482
340.626
340.771
340.915
341.06
341.204
341.348
341.492
341.636
341.78
341.924
342.068
342.212
342.355
342.499
342.642
342.786
342.929
343.072
343.216
343.359
343.502
343.645
343.787
343.93
344.073
344.215
344.358
344.5
344.643
344.785
344.927
345.069
345.211
345.353
345.495
345.637
345.778
345.92
346.062
346.203
346.344
346.486
346.627
346.768
346.909
347.05
347.191
347.332
347.473
347.613
347.754
347.894
348.035
348.175
348.315
348.456
348.596
348.736
348.876
349.015
349.155
349.295
349.435
349.574
349.714
349.853
349.992
350.131
350.271
350.41
350.549
350.687
350.826
350.965
351.104
351.242
351.381
351.519
351.658
351.796
351.934
352.072
352.21
352.348
352.486
352.624
352.761
352.899
353.037
353.174
353.311
353.449
353.586
353.723
353.86
353.997
354.134
354.271
354.408
354.544
354.681
354.817
354.954
355.09
355.226
355.363
355.499
355.635
355.771
355.907
356.043
356.178
356.314
356.449
356.585
356.72
356.856
356.991
357.126
357.261
357.396
357.531
357.666
357.801
357.936
358.07
358.205
358.339
358.474
358.608
358.742
358.876
359.01
359.144
359.278
359.412
359.546
359.68
359.813
359.947
360.08
360.213
360.347
360.48
360.613
360.746
360.879
361.012
361.145
361.278
361.41
361.543
361.675
361.808
361.94
362.072
362.205
362.337
362.469
362.601
362.733
362.865
362.996
363.128
363.259
363.391
363.522
363.654
363.785
363.916
364.047
364.178
364.309
364.44
364.571
364.702
364.832
364.963
365.093
365.224
365.354
365.484
365.615
365.745
365.875
366.005
366.135
366.264
366.394
366.524
366.653
366.783
366.912
367.042
367.171
367.3
367.429
367.558
367.687
367.816
367.945
368.074
368.202
368.331
368.459
368.588
368.716
368.844
368.972
369.1
369.229
369.356
369.484
369.612
369.74
369.868
369.995
370.123
370.25
370.377
370.505
370.632
370.759
370.886
371.013
371.14
371.267
371.393
371.52
371.647
371.773
371.899
372.026
372.152
372.278
372.404
372.53
372.656
372.782
372.908
373.034
373.16
373.285
373.411
373.536
373.661
373.787
373.912
374.037
374.162
374.287
374.412
374.537
374.662
374.786
374.911
375.035
375.16
375.284
375.408
375.533
375.657
375.781
375.905
376.029
376.153
376.276
376.4
376.524
376.647
376.771
376.894
377.017
377.141
377.264
377.387
377.51
377.633
377.756
377.879
378.001
378.124
378.246
378.369
378.491
378.614
378.736
378.858
378.98
379.102
379.224
379.346
379.468
379.59
379.711
379.833
379.954
380.076
380.197
380.319
380.44
380.561
380.682
380.803
380.924
381.045
381.166
381.286
381.407
381.527
381.648
381.768
381.889
382.009
382.129
382.249
382.369
382.489
382.609
382.729
382.848
382.968
383.088
383.207
383.327
383.446
383.565
383.684
383.804
383.923
384.042
384.16
384.279
384.398
384.517
384.635
384.754
384.872
384.991
385.109
385.227
385.345
385.464
385.582
385.7
385.817
385.935
386.053
386.171
386.288
386.406
386.523
386.64
386.758
386.875
386.992
387.109
387.226
387.343
387.46
387.577
387.693
387.81
387.927
388.043
388.159
388.276
388.392
388.508
388.624
388.74
388.856
388.972
389.088
389.204
389.319
389.435
389.551
389.666
389.781
389.897
390.012
390.127
390.242
390.357
390.472
390.587
390.702
390.816
390.931
391.046
391.16
391.275
391.389
391.503
391.617
391.732
391.846
391.96
392.074
392.187
392.301
392.415
392.528
392.642
392.756
392.869
392.982
393.096
393.209
393.322
393.435
393.548
393.661
393.774
393.886
393.999
394.112
394.224
394.337
394.449
394.561
394.674
394.786
394.898
395.01
395.122
395.234
395.346
395.457
395.569
395.681
395.792
395.904
396.015
396.126
396.238
396.349
396.46
396.571
396.682
396.793
396.904
397.014
397.125
397.236
397.346
397.457
397.567
397.677
397.787
397.898
398.008
398.118
398.228
398.338
398.447
398.557
398.667
398.776
398.886
398.995
399.105
399.214
399.323
399.432
399.542
399.651
399.76
399.868
399.977
400.086
400.195
400.303
400.412
400.52
400.629
400.737
400.845
400.953
401.061
401.169
401.277
401.385
401.493
401.601
401.709
401.816
401.924
402.031
402.139
402.246
402.353
402.46
402.567
402.674
402.781
402.888
402.995
403.102
403.209
403.315
403.422
403.528
403.635
403.741
403.847
403.953
404.06
404.166
404.272
404.377
404.483
404.589
404.695
404.8
404.906
405.011
405.117
405.222
405.328
405.433
405.538
405.643
405.748
405.853
405.958
406.062
406.167
406.272
406.376
406.481
406.585
406.69
406.794
406.898
407.002
407.107
407.211
407.314
407.418
407.522
407.626
407.73
407.833
407.937
408.04
408.144
408.247
408.35
408.453
408.556
408.659
408.762
408.865
408.968
409.071
409.174
409.276
409.379
409.481
409.584
409.686
409.788
409.891
409.993
410.095
410.197
410.299
410.401
410.502
410.604
410.706
410.807
410.909
411.01
411.112
411.213
411.314
411.415
411.517
411.618
411.719
411.819
411.92
412.021
412.122
412.222
412.323
412.423
412.524
412.624
412.724
412.825
412.925
413.025
413.125
413.225
413.325
413.424
413.524
413.624
413.723
413.823
413.922
414.022
414.121
414.22
414.32
414.419
414.518
414.617
414.716
414.815
414.913
415.012
415.111
415.209
415.308
415.406
415.504
415.603
415.701
415.799
415.897
415.995
416.093
416.191
416.289
416.387
416.484
416.582
416.68
416.777
416.874
416.972
417.069
417.166
417.263
417.36
417.458
417.554
417.651
417.748
417.845
417.942
418.038
418.135
418.231
418.328
418.424
418.52
418.616
418.712
418.809
418.904
419
419.096
419.192
419.288
419.383
419.479
419.575
419.67
419.765
419.861
419.956
420.051
420.146
420.241
420.336
420.431
420.526
420.621
420.716
420.81
420.905
420.999
421.094
421.188
421.283
421.377
421.471
421.565
421.659
421.753
421.847
421.941
422.035
422.128
422.222
422.316
422.409
422.503
422.596
422.689
422.782
422.876
422.968
423.062
423.155
423.248
423.34
423.433
423.526
423.619
423.711
423.804
423.896
423.989
424.081
424.173
424.265
424.357
424.449
424.541
424.633
424.725
424.817
424.909
425
425.092
425.183
425.275
425.366
425.458
425.549
425.64
425.731
425.822
425.913
426.004
426.095
426.186
426.277
426.367
426.458
426.548
426.639
426.729
426.82
426.91
427
427.09
427.18
427.27
427.36
427.45
427.54
427.63
427.719
427.809
427.898
427.988
428.077
428.167
428.256
428.345
428.434
428.523
428.612
428.701
428.79
428.879
428.968
429.057
429.145
429.234
429.322
429.411
429.499
429.587
429.676
429.764
429.852
429.94
430.028
430.116
430.204
430.292
430.379
430.467
430.554
430.642
430.729
430.817
430.904
430.991
431.079
431.166
431.253
431.34
431.427
431.514
431.601
431.687
431.774
431.861
431.947
432.034
432.12
432.206
432.293
432.379
432.465
432.551
432.637
432.723
432.809
432.895
432.981
433.066
433.152
433.238
433.323
433.409
433.494
433.579
433.665
433.75
433.835
433.92
434.005
434.09
434.175
434.26
434.345
434.429
434.514
434.598
434.683
434.767
434.852
434.936
435.02
435.104
435.189
435.273
435.357
435.441
435.524
435.608
435.692
435.776
435.859
435.943
436.026
436.11
436.193
436.276
436.36
436.443
436.526
436.609
436.692
436.775
436.858
436.94
437.023
437.106
437.188
437.271
437.353
437.436
437.518
437.6
437.682
437.765
437.847
437.929
438.011
438.093
438.174
438.256
438.338
438.419
438.501
438.583
438.664
438.745
438.827
438.908