/*--------------------------------*- C++ -*----------------------------------*\
  =========                 |
  \\      /  F ield         | OpenFOAM: The Open Source CFD Toolbox
   \\    /   O peration     | Website:  https://openfoam.org
    \\  /    A nd           | Version:  9
     \\/     M anipulation  |
\*---------------------------------------------------------------------------*/
FoamFile
{
    format      ascii;
    class       volScalarField;
    location    "0.04";
    object      rho;
}
// * * * * * * * * * * * * * * * * * * * * * * * * * * * * * * * * * * * * * //

dimensions      [1 -3 0 0 0 0 0];

internalField   nonuniform List<scalar> 
1000
(
0.224093
0.224055
0.223991
0.22393
0.223874
0.223818
0.223762
0.223706
0.223649
0.223592
0.223535
0.22348
0.223424
0.223369
0.223312
0.223255
0.223198
0.223142
0.223088
0.223034
0.22298
0.222925
0.222868
0.222811
0.222754
0.222697
0.222642
0.222589
0.222538
0.222487
0.222436
0.222384
0.222331
0.222275
0.222218
0.222159
0.2221
0.222042
0.221985
0.221931
0.22188
0.221833
0.221789
0.221749
0.221711
0.221676
0.221642
0.221609
0.221576
0.221544
0.221512
0.221482
0.221453
0.221429
0.221403
0.221382
0.221357
0.221335
0.221313
0.221288
0.221268
0.221244
0.221221
0.2212
0.221176
0.221155
0.221132
0.221109
0.221088
0.221065
0.221042
0.221021
0.220998
0.220976
0.220954
0.220932
0.22091
0.220888
0.220866
0.220844
0.220823
0.220801
0.220779
0.220758
0.220736
0.220714
0.220693
0.220671
0.22065
0.220629
0.220607
0.220586
0.220565
0.220544
0.220523
0.220502
0.220481
0.22046
0.220439
0.220418
0.220398
0.220377
0.220357
0.220336
0.220316
0.220295
0.220275
0.220255
0.220235
0.220215
0.220195
0.220175
0.220155
0.220135
0.220116
0.220096
0.220077
0.220057
0.220038
0.220019
0.219999
0.21998
0.219961
0.219942
0.219924
0.219905
0.219886
0.219868
0.219849
0.219831
0.219813
0.219794
0.219776
0.219758
0.219741
0.219723
0.219705
0.219688
0.21967
0.219653
0.219636
0.219619
0.219602
0.219585
0.219568
0.219552
0.219535
0.219519
0.219503
0.219487
0.219471
0.219455
0.21944
0.219424
0.219409
0.219394
0.219379
0.219364
0.219349
0.219335
0.21932
0.219306
0.219292
0.219278
0.219264
0.219251
0.219237
0.219224
0.219211
0.219199
0.219186
0.219174
0.219162
0.21915
0.219138
0.219126
0.219115
0.219104
0.219093
0.219083
0.219072
0.219062
0.219052
0.219043
0.219033
0.219024
0.219015
0.219007
0.218998
0.21899
0.218983
0.218975
0.218968
0.218961
0.218955
0.218949
0.218943
0.218937
0.218932
0.218927
0.218923
0.218918
0.218915
0.218911
0.218908
0.218905
0.218903
0.218901
0.218899
0.218898
0.218898
0.218897
0.218897
0.218898
0.218898
0.2189
0.218902
0.218904
0.218907
0.218911
0.218915
0.21892
0.218926
0.218931
0.218938
0.218945
0.218953
0.218961
0.21897
0.218979
0.218989
0.219
0.219011
0.219023
0.219036
0.219049
0.219063
0.219078
0.219094
0.21911
0.219127
0.219145
0.219163
0.219183
0.219203
0.219224
0.219246
0.219269
0.219293
0.219317
0.219343
0.219369
0.219397
0.219425
0.219454
0.219485
0.219516
0.219548
0.219582
0.219616
0.219651
0.219688
0.219725
0.219764
0.219804
0.219845
0.219887
0.21993
0.219974
0.22002
0.220066
0.220114
0.220163
0.220213
0.220265
0.220317
0.220371
0.220426
0.220483
0.22054
0.220599
0.220659
0.220721
0.220783
0.220847
0.220912
0.220979
0.221046
0.221115
0.221185
0.221256
0.221329
0.221403
0.221478
0.221554
0.221631
0.22171
0.221789
0.22187
0.221952
0.222035
0.222119
0.222205
0.222291
0.222378
0.222467
0.222556
0.222646
0.222738
0.22283
0.222923
0.223017
0.223112
0.223208
0.223305
0.223402
0.223501
0.2236
0.223699
0.2238
0.223901
0.224003
0.224105
0.224208
0.224312
0.224416
0.224521
0.224626
0.224732
0.224838
0.224945
0.225052
0.225159
0.225267
0.225375
0.225484
0.225593
0.225702
0.225812
0.225922
0.226033
0.226143
0.226254
0.226365
0.226476
0.226588
0.2267
0.226811
0.226924
0.227036
0.227149
0.227261
0.227374
0.227487
0.2276
0.227713
0.227827
0.227941
0.228054
0.228168
0.228282
0.228396
0.228511
0.228625
0.228739
0.228854
0.228969
0.229083
0.229198
0.229313
0.229428
0.229543
0.229659
0.229774
0.229889
0.230005
0.230121
0.230236
0.230352
0.230468
0.230584
0.2307
0.230816
0.230932
0.231049
0.231165
0.231282
0.231398
0.231515
0.231631
0.231748
0.231865
0.231982
0.232099
0.232216
0.232333
0.232451
0.232568
0.232686
0.232803
0.232921
0.233038
0.233157
0.233274
0.233392
0.23351
0.233629
0.233746
0.233865
0.233983
0.234102
0.23422
0.234339
0.234457
0.234576
0.234695
0.234814
0.234932
0.235052
0.235171
0.235291
0.235409
0.235529
0.235648
0.235768
0.235887
0.236008
0.236127
0.236247
0.236367
0.236487
0.236607
0.236728
0.236847
0.236968
0.237088
0.237209
0.237329
0.23745
0.23757
0.237692
0.237812
0.237934
0.238054
0.238176
0.238297
0.238419
0.238539
0.238662
0.238782
0.238905
0.239026
0.239148
0.239269
0.239392
0.239513
0.239636
0.239758
0.239881
0.240002
0.240126
0.240247
0.240371
0.240493
0.240616
0.240738
0.240862
0.240984
0.241108
0.24123
0.241354
0.241477
0.241601
0.241724
0.241848
0.241971
0.242096
0.242219
0.242343
0.242467
0.242591
0.242715
0.24284
0.242963
0.243089
0.243212
0.243338
0.243462
0.243587
0.243711
0.243837
0.243961
0.244087
0.244211
0.244337
0.244462
0.244588
0.244713
0.244839
0.244964
0.24509
0.245215
0.245342
0.245467
0.245594
0.245719
0.245846
0.245972
0.246099
0.246225
0.246352
0.246478
0.246605
0.246731
0.246859
0.246985
0.247113
0.247239
0.247367
0.247494
0.247622
0.247749
0.247877
0.248004
0.248133
0.248259
0.248388
0.248515
0.248644
0.248771
0.248901
0.249028
0.249157
0.249285
0.249414
0.249542
0.249672
0.2498
0.24993
0.250057
0.250188
0.250316
0.250446
0.250574
0.250705
0.250833
0.250964
0.251092
0.251223
0.251352
0.251483
0.251612
0.251743
0.251872
0.252003
0.252133
0.252264
0.252394
0.252525
0.252655
0.252787
0.252917
0.253048
0.253178
0.253311
0.253441
0.253573
0.253703
0.253836
0.253966
0.254099
0.25423
0.254363
0.254493
0.254627
0.254757
0.254891
0.255021
0.255156
0.255286
0.255421
0.25555
0.255686
0.255815
0.255952
0.256081
0.256219
0.256346
0.256486
0.256612
0.256753
0.256878
0.257021
0.257144
0.257289
0.25741
0.257558
0.257677
0.257827
0.257944
0.258096
0.258212
0.258365
0.258481
0.258634
0.25875
0.258903
0.25902
0.259173
0.259289
0.259443
0.25956
0.259713
0.25983
0.259984
0.260101
0.260255
0.260372
0.260526
0.260644
0.260798
0.260916
0.26107
0.261188
0.261343
0.261461
0.261616
0.261734
0.261889
0.262007
0.262163
0.262281
0.262436
0.262555
0.262711
0.26283
0.262985
0.263104
0.26326
0.263379
0.263536
0.263655
0.263811
0.263931
0.264087
0.264207
0.264364
0.264484
0.264641
0.26476
0.264918
0.265038
0.265195
0.265315
0.265473
0.265593
0.265751
0.265872
0.26603
0.26615
0.266308
0.266429
0.266588
0.266709
0.266867
0.266988
0.267147
0.267268
0.267427
0.267549
0.267708
0.26783
0.267989
0.268111
0.268271
0.268392
0.268552
0.268674
0.268834
0.268957
0.269117
0.269239
0.2694
0.269522
0.269683
0.269805
0.269966
0.270089
0.27025
0.270373
0.270535
0.270658
0.270819
0.270942
0.271104
0.271228
0.27139
0.271513
0.271675
0.271799
0.271961
0.272085
0.272248
0.272372
0.272535
0.272659
0.272822
0.272947
0.27311
0.273234
0.273398
0.273523
0.273686
0.273811
0.273975
0.2741
0.274264
0.274389
0.274554
0.274679
0.274844
0.274969
0.275134
0.27526
0.275424
0.27555
0.275715
0.275841
0.276007
0.276133
0.276298
0.276425
0.27659
0.276717
0.276883
0.277009
0.277175
0.277302
0.277468
0.277596
0.277761
0.277891
0.278053
0.278187
0.278346
0.278484
0.278638
0.278781
0.278932
0.279077
0.279227
0.279374
0.279524
0.27967
0.279821
0.279966
0.28012
0.280263
0.280419
0.280561
0.280718
0.28086
0.281019
0.281159
0.281321
0.281459
0.281624
0.28176
0.281928
0.282062
0.282233
0.282366
0.282539
0.282671
0.282846
0.282979
0.283154
0.283288
0.283464
0.283599
0.283777
0.283912
0.284091
0.284228
0.284407
0.284545
0.284726
0.284865
0.285048
0.285188
0.285373
0.285514
0.2857
0.285843
0.286031
0.286175
0.286364
0.28651
0.286702
0.286849
0.287042
0.287191
0.287387
0.287537
0.287734
0.287886
0.288086
0.288239
0.28844
0.288595
0.288798
0.288954
0.289159
0.289316
0.289523
0.289682
0.28989
0.290049
0.290259
0.290419
0.29063
0.290791
0.291002
0.291164
0.291376
0.291538
0.29175
0.291912
0.292125
0.292287
0.2925
0.292662
0.292874
0.293036
0.293248
0.293409
0.29362
0.29378
0.29399
0.29415
0.294359
0.294518
0.294726
0.294884
0.295091
0.295248
0.295453
0.295609
0.295813
0.295968
0.29617
0.296324
0.296525
0.296678
0.296878
0.297029
0.297228
0.297379
0.297576
0.297726
0.297922
0.298071
0.298266
0.298414
0.298608
0.298755
0.298948
0.299095
0.299287
0.299434
0.299625
0.299771
0.299962
0.300107
0.300297
0.300442
0.300632
0.300777
0.300966
0.30111
0.301299
0.301444
0.301632
0.301776
0.301965
0.302109
0.302297
0.302441
0.302629
0.302772
0.30296
0.303104
0.303292
0.303435
0.303623
0.303766
0.303954
0.304098
0.304285
0.304429
0.304617
0.30476
0.304949
0.305092
0.305281
0.305425
0.305614
0.305758
0.305947
0.306092
0.306283
0.306428
0.30662
0.306766
0.306959
0.307107
0.307302
0.307452
0.307649
0.307801
0.308001
0.308156
0.30836
0.308517
0.308726
0.308888
0.309102
0.309268
0.309488
0.309659
0.309886
0.310062
0.310297
0.310479
0.310722
0.31091
0.311161
0.311356
0.311615
0.311816
0.312083
0.312289
0.312563
0.312775
0.313055
0.313271
0.313557
0.313777
0.314065
0.314289
0.314579
0.314804
0.315094
0.31532
0.31561
0.315835
0.316123
0.316347
0.316633
0.316854
0.317137
0.317356
0.317635
0.317851
0.318126
0.318338
0.31861
0.318819
0.319086
0.319292
0.319556
0.319758
0.320018
0.320217
0.320474
0.32067
0.320924
0.321118
0.321368
0.321559
0.321807
0.321996
0.322241
0.322427
0.32267
0.322854
0.323094
0.323277
0.323514
0.323695
0.323931
0.32411
0.324343
0.32452
0.324751
0.324927
0.325157
0.325322
0.325566
0.32568
)
;

boundaryField
{
    sides
    {
        type            calculated;
        value           nonuniform List<scalar> 2(0.32568 0.224093);
    }
    empty
    {
        type            empty;
    }
}


// ************************************************************************* //
