/*--------------------------------*- C++ -*----------------------------------*\
  =========                 |
  \\      /  F ield         | OpenFOAM: The Open Source CFD Toolbox
   \\    /   O peration     | Website:  https://openfoam.org
    \\  /    A nd           | Version:  9
     \\/     M anipulation  |
\*---------------------------------------------------------------------------*/
FoamFile
{
    format      ascii;
    class       volScalarField;
    location    "0.04";
    object      T;
}
// * * * * * * * * * * * * * * * * * * * * * * * * * * * * * * * * * * * * * //

dimensions      [0 0 0 1 0 0 0];

internalField   nonuniform List<scalar> 
1000
(
189.821
189.829
189.844
189.862
189.88
189.899
189.917
189.935
189.953
189.972
189.99
190.008
190.026
190.044
190.062
190.081
190.101
190.119
190.136
190.153
190.17
190.187
190.206
190.226
190.246
190.265
190.283
190.3
190.315
190.329
190.344
190.359
190.376
190.395
190.416
190.437
190.459
190.481
190.501
190.519
190.534
190.546
190.555
190.562
190.566
190.568
190.569
190.569
190.569
190.569
190.568
190.566
190.563
190.556
190.551
190.541
190.534
190.526
190.517
190.51
190.501
190.494
190.486
190.477
190.47
190.461
190.453
190.446
190.437
190.43
190.422
190.414
190.406
190.398
190.39
190.383
190.375
190.367
190.36
190.352
190.344
190.337
190.329
190.321
190.314
190.306
190.298
190.291
190.284
190.276
190.268
190.261
190.254
190.246
190.239
190.231
190.224
190.217
190.209
190.202
190.195
190.188
190.18
190.173
190.166
190.159
190.152
190.144
190.137
190.13
190.123
190.116
190.109
190.102
190.095
190.088
190.082
190.075
190.068
190.061
190.054
190.048
190.041
190.034
190.028
190.021
190.014
190.008
190.001
189.995
189.988
189.982
189.976
189.969
189.963
189.957
189.95
189.944
189.938
189.932
189.926
189.92
189.914
189.908
189.902
189.896
189.89
189.885
189.879
189.873
189.868
189.862
189.856
189.851
189.846
189.84
189.835
189.83
189.824
189.819
189.814
189.809
189.804
189.799
189.794
189.789
189.785
189.78
189.775
189.771
189.766
189.762
189.758
189.753
189.749
189.745
189.741
189.737
189.733
189.73
189.726
189.722
189.719
189.715
189.712
189.709
189.705
189.702
189.699
189.696
189.694
189.691
189.688
189.686
189.684
189.681
189.679
189.677
189.675
189.673
189.672
189.67
189.669
189.668
189.666
189.665
189.664
189.664
189.663
189.663
189.662
189.662
189.662
189.662
189.662
189.662
189.663
189.664
189.665
189.666
189.667
189.669
189.671
189.673
189.675
189.677
189.68
189.683
189.686
189.689
189.692
189.696
189.7
189.704
189.708
189.713
189.718
189.723
189.728
189.734
189.739
189.746
189.752
189.759
189.766
189.773
189.78
189.788
189.796
189.805
189.814
189.823
189.832
189.842
189.852
189.863
189.873
189.885
189.896
189.908
189.92
189.933
189.946
189.959
189.973
189.987
190.002
190.016
190.032
190.047
190.064
190.08
190.097
190.114
190.132
190.15
190.169
190.188
190.208
190.227
190.248
190.268
190.29
190.311
190.333
190.356
190.379
190.402
190.426
190.45
190.475
190.5
190.525
190.551
190.577
190.604
190.631
190.658
190.686
190.714
190.743
190.772
190.801
190.831
190.861
190.891
190.922
190.953
190.985
191.016
191.048
191.081
191.113
191.146
191.179
191.213
191.247
191.281
191.315
191.349
191.384
191.419
191.454
191.489
191.525
191.56
191.596
191.632
191.668
191.705
191.741
191.778
191.814
191.851
191.888
191.925
191.962
192
192.037
192.075
192.112
192.15
192.187
192.225
192.263
192.301
192.339
192.377
192.415
192.454
192.492
192.53
192.568
192.607
192.645
192.684
192.722
192.761
192.799
192.838
192.876
192.915
192.954
192.992
193.031
193.07
193.109
193.148
193.186
193.225
193.264
193.303
193.342
193.381
193.42
193.459
193.498
193.537
193.576
193.615
193.654
193.693
193.732
193.771
193.81
193.849
193.889
193.928
193.967
194.006
194.045
194.085
194.124
194.163
194.202
194.242
194.281
194.321
194.36
194.399
194.438
194.478
194.517
194.557
194.596
194.636
194.675
194.715
194.754
194.794
194.833
194.873
194.912
194.952
194.992
195.032
195.071
195.111
195.15
195.19
195.23
195.27
195.309
195.349
195.388
195.429
195.468
195.508
195.548
195.588
195.627
195.668
195.707
195.748
195.787
195.827
195.867
195.907
195.947
195.987
196.027
196.067
196.107
196.147
196.187
196.228
196.267
196.308
196.347
196.388
196.428
196.468
196.508
196.549
196.588
196.629
196.669
196.71
196.749
196.79
196.83
196.871
196.911
196.951
196.991
197.032
197.072
197.113
197.153
197.194
197.234
197.275
197.315
197.356
197.396
197.437
197.477
197.518
197.558
197.599
197.639
197.68
197.72
197.762
197.802
197.843
197.883
197.924
197.964
198.006
198.046
198.087
198.127
198.169
198.209
198.251
198.291
198.332
198.372
198.414
198.454
198.496
198.536
198.578
198.618
198.66
198.7
198.742
198.782
198.824
198.864
198.906
198.946
198.988
199.028
199.07
199.111
199.153
199.193
199.235
199.275
199.317
199.358
199.4
199.44
199.482
199.523
199.565
199.606
199.648
199.688
199.73
199.771
199.813
199.854
199.896
199.937
199.979
200.02
200.062
200.103
200.145
200.186
200.228
200.269
200.311
200.352
200.395
200.435
200.478
200.519
200.561
200.602
200.645
200.685
200.728
200.769
200.811
200.852
200.895
200.936
200.979
201.02
201.062
201.103
201.146
201.187
201.23
201.271
201.314
201.355
201.398
201.439
201.482
201.523
201.566
201.607
201.65
201.691
201.735
201.775
201.819
201.859
201.904
201.943
201.989
202.027
202.073
202.111
202.159
202.195
202.244
202.279
202.329
202.362
202.415
202.446
202.5
202.53
202.586
202.614
202.671
202.699
202.756
202.784
202.841
202.869
202.926
202.954
203.011
203.039
203.096
203.125
203.181
203.21
203.267
203.295
203.352
203.38
203.437
203.466
203.523
203.551
203.608
203.637
203.694
203.722
203.78
203.808
203.865
203.894
203.951
203.98
204.037
204.065
204.123
204.151
204.209
204.237
204.295
204.323
204.381
204.409
204.467
204.495
204.553
204.582
204.639
204.668
204.725
204.754
204.812
204.841
204.898
204.927
204.985
205.014
205.071
205.1
205.158
205.187
205.245
205.273
205.331
205.36
205.418
205.447
205.505
205.534
205.592
205.621
205.679
205.708
205.766
205.795
205.853
205.882
205.94
205.969
206.027
206.056
206.115
206.144
206.202
206.231
206.289
206.318
206.377
206.406
206.464
206.493
206.552
206.581
206.639
206.669
206.727
206.756
206.815
206.844
206.903
206.932
206.991
207.02
207.079
207.108
207.167
207.196
207.255
207.284
207.343
207.372
207.431
207.461
207.519
207.549
207.608
207.637
207.696
207.726
207.785
207.814
207.873
207.903
207.962
207.991
208.05
208.08
208.139
208.169
208.228
208.257
208.317
208.346
208.405
208.435
208.494
208.524
208.583
208.613
208.672
208.703
208.76
208.793
208.848
208.884
208.936
208.975
209.024
209.065
209.112
209.156
209.202
209.245
209.292
209.334
209.382
209.423
209.473
209.513
209.563
209.603
209.654
209.692
209.746
209.782
209.837
209.872
209.929
209.962
210.021
210.053
210.114
210.144
210.206
210.237
210.298
210.329
210.391
210.422
210.485
210.516
210.578
210.61
210.673
210.705
210.768
210.8
210.864
210.896
210.961
210.993
211.058
211.091
211.157
211.19
211.256
211.289
211.356
211.39
211.457
211.491
211.559
211.594
211.662
211.697
211.766
211.801
211.871
211.907
211.977
212.013
212.084
212.12
212.191
212.228
212.3
212.336
212.409
212.445
212.518
212.555
212.628
212.665
212.738
212.775
212.848
212.885
212.959
212.995
213.069
213.106
213.179
213.216
213.289
213.325
213.398
213.435
213.507
213.543
213.616
213.652
213.723
213.759
213.83
213.866
213.936
213.972
214.042
214.077
214.146
214.181
214.25
214.285
214.353
214.387
214.455
214.489
214.557
214.591
214.658
214.691
214.758
214.791
214.857
214.89
214.956
214.989
215.055
215.087
215.153
215.185
215.25
215.283
215.347
215.38
215.444
215.476
215.541
215.573
215.637
215.669
215.733
215.765
215.829
215.861
215.924
215.956
216.02
216.052
216.115
216.147
216.21
216.242
216.305
216.337
216.4
216.432
216.495
216.527
216.59
216.622
216.685
216.717
216.78
216.811
216.875
216.906
216.97
217.002
217.065
217.097
217.161
217.193
217.257
217.29
217.355
217.387
217.453
217.486
217.552
217.586
217.654
217.688
217.757
217.792
217.862
217.898
217.971
218.008
218.082
218.12
218.197
218.237
218.316
218.357
218.439
218.481
218.565
218.609
218.696
218.74
218.83
218.876
218.968
219.014
219.108
219.155
219.25
219.298
219.393
219.442
219.537
219.587
219.682
219.731
219.825
219.875
219.968
220.017
220.109
220.158
220.249
220.296
220.386
220.433
220.522
220.567
220.655
220.7
220.786
220.83
220.915
220.959
221.043
221.085
221.168
221.21
221.292
221.333
221.414
221.454
221.534
221.574
221.653
221.693
221.771
221.81
221.887
221.925
222.002
222.04
222.116
222.153
222.228
222.265
222.34
222.376
222.455
222.48
222.587
)
;

boundaryField
{
    sides
    {
        type            zeroGradient;
    }
    empty
    {
        type            empty;
    }
}


// ************************************************************************* //
