/*--------------------------------*- C++ -*----------------------------------*\
  =========                 |
  \\      /  F ield         | OpenFOAM: The Open Source CFD Toolbox
   \\    /   O peration     | Website:  https://openfoam.org
    \\  /    A nd           | Version:  9
     \\/     M anipulation  |
\*---------------------------------------------------------------------------*/
FoamFile
{
    format      ascii;
    class       volScalarField;
    location    "0.001";
    object      ddt0(rho,K);
}
// * * * * * * * * * * * * * * * * * * * * * * * * * * * * * * * * * * * * * //

dimensions      [1 -1 -3 0 0 0 0];

internalField   nonuniform List<scalar> 
1000
(
-2.34549e-23
-9.10268e-22
-4.01245e-22
5.78703e-22
-1.57381e-22
-1.13192e-21
1.07956e-23
9.93283e-22
-7.8137e-22
-5.79992e-21
-4.36783e-21
4.38481e-22
2.66959e-21
5.8504e-21
9.71284e-21
1.09018e-20
-1.23892e-21
-3.08298e-21
-3.02862e-21
-1.64035e-21
-4.58752e-23
1.02914e-22
1.83304e-22
2.56342e-22
2.41232e-21
6.68585e-23
-4.64381e-21
-1.07264e-21
-1.83389e-21
4.72193e-22
1.49247e-22
8.1412e-25
5.58975e-23
1.24778e-21
2.20292e-21
2.16786e-21
4.54273e-21
3.14631e-21
1.24376e-21
-5.75257e-22
2.51134e-22
-4.85401e-21
-3.61455e-21
8.46565e-22
5.15291e-21
3.39579e-21
8.59788e-22
8.92411e-23
-9.19353e-22
-1.57604e-21
3.74221e-21
3.67832e-21
4.37622e-22
4.12174e-22
2.68558e-23
-5.42796e-22
-3.32549e-23
-5.16173e-22
1.1625e-22
-3.22446e-22
-1.23311e-21
-1.03259e-21
-1.0697e-21
3.15336e-22
7.07598e-22
2.07303e-21
-4.17196e-21
-1.72097e-21
3.28944e-22
3.50743e-21
4.4633e-21
3.97211e-21
2.68205e-21
-3.68519e-23
-5.19302e-23
-8.34133e-22
-5.0597e-22
4.02664e-21
4.31686e-21
-4.42338e-22
1.31915e-21
1.15924e-21
1.1923e-21
-1.24336e-21
-5.39964e-22
-5.66456e-22
5.8816e-22
-3.71513e-22
1.42512e-21
-1.41285e-21
-1.23292e-21
3.03756e-21
5.39689e-21
3.54811e-21
4.24176e-22
-9.37245e-22
-9.13817e-22
1.45499e-22
-2.82248e-22
2.55882e-23
5.15895e-22
4.21619e-24
-3.79213e-23
-5.7104e-22
-3.34409e-22
1.93798e-21
1.41239e-21
-7.60592e-22
-3.84733e-23
1.98578e-21
-1.33649e-21
-6.42599e-22
-3.00832e-22
6.07796e-22
3.73153e-23
3.04882e-21
9.87964e-22
-1.66218e-21
-1.30816e-23
-8.75481e-26
-3.35412e-22
-4.81843e-24
1.44717e-22
-2.0172e-21
-8.82439e-22
-3.97956e-22
-1.45813e-21
-1.03036e-21
4.73095e-22
-4.98162e-21
-6.98197e-21
7.2499e-23
6.36549e-21
4.1298e-22
3.08701e-21
9.83867e-22
2.7817e-22
9.29451e-22
7.19147e-22
4.03368e-21
5.48863e-21
-9.31822e-22
-2.76436e-21
-1.00343e-22
-9.39237e-22
-2.53566e-21
1.33832e-21
4.22777e-23
-2.4091e-22
2.10685e-21
-1.26266e-21
6.31228e-22
-5.27039e-22
-1.74578e-22
1.40242e-22
3.11075e-22
-1.81928e-21
-8.3352e-22
3.39845e-23
-1.45582e-21
3.3226e-21
2.83146e-21
6.37731e-22
-6.77599e-22
9.33933e-22
6.31031e-21
6.18098e-21
-2.57362e-21
-1.53758e-22
-3.71363e-21
-2.28849e-21
3.76054e-21
8.97268e-22
5.37448e-22
-1.4149e-23
6.88746e-24
1.68072e-22
2.89757e-22
6.85521e-22
6.84652e-22
-8.44508e-23
-7.4788e-22
3.90906e-23
-3.09802e-23
4.91471e-22
-1.59187e-21
-9.65852e-22
-7.02258e-23
4.2149e-22
1.26249e-22
-8.49544e-23
-2.03129e-22
5.52505e-22
-2.21635e-23
-1.03401e-21
-1.64545e-21
-2.30816e-21
2.13404e-22
1.4669e-22
1.36603e-23
-4.03778e-22
-4.09103e-22
2.91332e-22
-4.59766e-22
-1.68098e-22
-3.00422e-24
6.35564e-23
1.72318e-22
-3.13123e-22
-7.80801e-22
-3.54362e-21
3.09511e-21
4.77269e-21
1.13493e-23
-4.4374e-22
2.01947e-21
-5.84173e-22
-1.64522e-23
1.1959e-21
8.08571e-21
8.58954e-21
4.37423e-23
6.66049e-21
8.56013e-21
3.94557e-21
4.23527e-22
-1.52567e-21
-1.56346e-21
-2.06313e-21
2.63431e-21
2.23959e-21
1.72767e-23
-2.61276e-22
3.13824e-22
1.2066e-21
2.64326e-21
4.81738e-21
1.11945e-21
-8.14718e-21
-5.03324e-21
1.63722e-21
1.78223e-21
-1.45913e-21
2.84066e-21
5.49359e-21
2.35111e-21
-4.05934e-21
-1.93375e-21
4.15499e-23
-2.80654e-22
2.14097e-22
8.42456e-22
-6.27494e-22
-8.73484e-23
-6.15141e-22
-1.52286e-21
-4.67677e-22
-3.73534e-22
3.15326e-21
4.48789e-21
1.85114e-21
-2.73e-25
1.13483e-23
-1.49821e-23
-3.46323e-21
-1.25938e-21
-5.41744e-22
-1.2677e-21
3.56937e-21
2.4545e-21
4.13402e-22
3.03724e-23
1.10516e-21
1.05478e-22
1.60141e-22
2.06179e-21
1.29734e-21
2.08611e-21
5.14628e-21
-2.02461e-21
1.00285e-21
1.11703e-20
8.48206e-21
1.17209e-21
-2.80113e-22
2.36807e-21
4.79312e-21
2.66397e-21
2.27248e-22
-4.21531e-23
1.76556e-22
5.98519e-21
-7.76415e-22
-1.60852e-22
1.39957e-22
-8.6194e-22
-1.70028e-22
1.36941e-21
1.42827e-21
-1.50548e-21
-6.8753e-22
4.68217e-22
-1.53818e-21
-3.07884e-21
-2.14601e-21
-1.33286e-22
-6.84758e-22
1.12913e-22
1.73178e-21
7.77513e-22
-2.41884e-22
1.94935e-23
6.51507e-21
8.04008e-21
6.73059e-22
2.83125e-21
-2.9863e-21
-2.56086e-21
6.383e-21
5.22279e-21
-7.28306e-22
-1.24535e-22
-3.24771e-22
1.95516e-22
-1.14204e-22
-4.14934e-22
-3.38236e-23
-3.8714e-21
-1.70318e-21
1.36338e-21
-8.13877e-22
-9.66897e-22
2.11529e-22
-6.04715e-22
5.30838e-23
-4.43905e-23
3.55636e-22
-2.19637e-21
1.19041e-21
2.30466e-21
4.5074e-23
-3.44202e-22
-2.66811e-21
2.53414e-21
4.89313e-21
-2.35831e-21
-5.41546e-21
-1.17569e-21
2.93129e-21
-7.97199e-22
2.48873e-21
2.21993e-21
1.83936e-22
7.00867e-22
-9.24058e-22
-1.0555e-21
-4.3708e-21
-9.14434e-21
-8.7395e-21
-1.05585e-23
3.64102e-22
3.66191e-21
9.97844e-22
2.14455e-21
2.62265e-21
7.96945e-22
-2.8294e-21
-4.73128e-21
-3.03056e-21
-7.2501e-22
1.49662e-21
3.70477e-21
-4.31921e-23
-5.30788e-22
-9.15353e-22
2.08898e-21
4.58468e-21
9.31065e-21
1.02959e-20
5.62282e-21
7.06923e-22
-1.59644e-21
-4.4203e-21
-3.3155e-21
-1.07882e-21
-6.11908e-22
-1.0499e-21
2.42751e-21
2.90152e-21
-3.51984e-22
-1.0465e-22
3.36967e-21
7.55263e-21
3.31561e-21
-7.31253e-23
1.30793e-21
8.43871e-21
3.20449e-21
4.95195e-22
-9.61699e-22
2.27602e-21
5.44008e-21
5.77986e-21
1.36313e-21
-1.54837e-21
6.20161e-23
-5.64727e-21
-3.55348e-21
1.24514e-21
1.47284e-21
-2.85809e-22
-3.08741e-23
6.20578e-22
-2.0222e-23
-5.05257e-22
8.14787e-23
8.47368e-22
8.20803e-22
-1.32888e-22
-8.45428e-22
-1.93171e-21
-1.501e-21
3.74312e-21
2.7782e-21
-2.34692e-22
-1.24499e-21
4.98692e-22
-6.47028e-23
-1.07167e-22
7.65643e-22
-7.82273e-21
-1.02785e-20
1.31566e-19
2.43496e-18
3.63307e-17
5.25138e-16
7.28644e-15
9.66395e-14
1.22821e-12
1.49474e-11
1.74004e-10
1.93486e-09
2.0519e-08
2.07174e-07
1.98782e-06
1.80886e-05
0.000155759
0.00126607
0.0096881
0.0695785
0.467387
2.92512
16.9794
90.9382
446.67
1998.17
8077.82
29248.8
93940.9
265011
650723
1.38044e+06
2.5158e+06
3.93888e+06
5.39097e+06
6.68758e+06
7.8075e+06
8.79031e+06
9.65691e+06
1.04086e+07
1.10431e+07
1.15612e+07
1.19657e+07
1.22609e+07
1.24514e+07
1.25419e+07
1.25379e+07
1.24454e+07
1.22692e+07
1.20222e+07
1.16861e+07
1.13488e+07
1.0809e+07
1.04835e+07
9.82442e+06
9.15939e+06
9.01803e+06
7.95175e+06
7.18387e+06
7.268e+06
6.44177e+06
4.97343e+06
4.66151e+06
5.04792e+06
4.24865e+06
2.44643e+06
1.64571e+06
2.42835e+06
3.0258e+06
1.77744e+06
-298258
-979436
458291
723319
2.13006e+06
944433
-1.88008e+06
-923352
-672262
101976
1.0569e+06
964167
-109653
64738.5
-195344
-140963
921141
1.46006e+06
-725882
618543
562249
-967589
-361275
-108811
3.68663e+06
1.25592e+07
5.20323e+07
4.46471e+07
3.32443e+07
1.81943e+07
1.18975e+07
1.01841e+07
3.95374e+06
-322789
2.58908e+06
2.17215e+06
-501532
-113999
1.14242e+06
606721
2.08467e+06
731552
-677089
6.00178e+06
5705.33
4.36824e+06
8.98469e+06
-3.31822e+06
1.65721e+07
9.68855e+06
-892061
6.26785e+07
-1.16211e+07
2.45641e+08
2.51338e+08
2.23724e+07
643666
14253.2
260.464
4.57616
0.0800805
0.0014017
2.45245e-05
4.28547e-07
7.4771e-09
1.30274e-10
2.26721e-12
3.94133e-14
6.84437e-16
1.18393e-17
2.27433e-19
5.86398e-21
3.05726e-22
7.62159e-23
4.03929e-23
-3.22406e-23
-3.68062e-23
-9.68341e-23
1.21151e-22
5.20265e-23
-3.02527e-22
-1.42442e-23
4.43018e-22
-2.22973e-24
4.42072e-24
9.80257e-23
2.86711e-23
2.41987e-23
9.5667e-24
-7.81147e-24
-1.04215e-22
-1.4528e-22
1.47407e-23
3.60187e-22
-1.04978e-23
6.8646e-23
2.86461e-22
5.66745e-23
-1.39631e-22
-3.90934e-23
1.01922e-23
3.88019e-23
-2.4858e-22
-2.54384e-23
5.51312e-25
-2.31527e-23
8.86308e-25
5.00366e-24
1.10259e-22
5.98472e-24
4.56606e-23
1.90328e-24
-1.93183e-23
6.75366e-23
-6.33001e-23
-1.24347e-22
-6.5672e-23
-1.4921e-24
-1.07608e-22
1.02211e-23
2.35633e-22
-1.07828e-22
-7.25469e-23
7.44076e-24
7.56809e-23
6.59011e-22
1.21057e-22
-1.71386e-22
-8.4918e-23
-5.22123e-24
4.93385e-24
2.1803e-23
-2.41879e-23
-2.3305e-22
-4.99016e-24
6.82601e-24
2.66423e-23
-1.33864e-24
-7.77558e-24
1.89764e-22
7.45021e-23
1.0345e-22
-2.36753e-22
-3.64072e-22
-1.66599e-23
3.16426e-22
1.00362e-23
2.60251e-25
-1.77437e-23
4.35064e-23
1.06867e-22
1.49052e-22
-2.03407e-22
1.51979e-22
-1.0191e-23
-1.79481e-22
-2.62638e-22
1.96088e-22
5.51437e-23
-3.12331e-23
1.2365e-23
6.03984e-24
-4.61529e-24
9.8967e-23
6.36733e-23
1.96396e-22
1.36817e-24
-7.05846e-23
-1.80895e-23
1.53747e-22
-2.73701e-23
-1.4495e-22
1.22181e-22
6.31171e-23
2.94721e-22
1.51242e-23
5.07022e-23
-1.53142e-22
4.30148e-23
2.04991e-22
-9.00287e-23
-3.81319e-23
5.12347e-24
-2.3694e-24
3.58433e-23
-4.46006e-23
-4.5543e-23
7.83927e-23
1.40368e-22
6.9688e-24
9.81821e-23
-3.32949e-23
-3.35872e-23
-2.68894e-23
5.35588e-23
-2.71837e-22
-9.96949e-23
9.98614e-23
-2.39702e-23
4.47423e-23
1.24265e-22
2.20165e-23
1.09652e-22
9.44592e-22
1.54277e-22
-1.57679e-23
-2.95933e-24
-3.26399e-24
-4.92271e-22
-2.29758e-22
3.29546e-24
-2.07995e-22
-1.80502e-22
2.52013e-23
3.4528e-23
-1.31943e-22
1.13384e-22
1.15314e-22
2.43382e-22
6.10212e-23
3.82855e-23
-3.48837e-22
-8.50252e-23
-1.12637e-24
7.94894e-23
-1.34583e-22
-2.99118e-22
-2.24385e-23
-6.14439e-23
8.66503e-26
5.12804e-24
1.85219e-22
4.9656e-22
-1.00106e-22
-3.1488e-22
5.83646e-23
2.5714e-23
-1.08823e-22
-4.33613e-23
-2.20269e-23
-5.73561e-22
2.80184e-22
-1.67573e-23
-3.39373e-23
-5.50647e-23
-3.38583e-22
-4.05773e-23
7.59938e-23
-1.71683e-22
-2.71821e-24
5.01917e-23
-6.62607e-23
-6.39295e-23
-2.70152e-23
1.38101e-22
3.96616e-22
1.05573e-22
1.30849e-22
-2.21693e-22
-3.15698e-22
-4.30201e-23
1.43345e-22
6.45801e-23
1.86017e-22
2.84087e-22
3.04842e-22
1.07452e-22
1.31256e-22
-2.47344e-24
-3.18686e-23
-7.68957e-23
7.63515e-23
1.33455e-22
3.72534e-22
-9.66778e-23
5.07625e-22
3.4033e-22
3.44771e-22
-1.05553e-22
-7.3091e-22
5.46935e-23
1.37496e-22
-1.63111e-22
-4.03346e-23
-8.1416e-24
-7.20315e-25
-5.30285e-23
-1.95421e-24
-3.12077e-22
1.43465e-22
4.56303e-23
1.89144e-22
-1.172e-22
-2.52944e-22
-1.24761e-22
1.2672e-24
-1.9116e-23
3.32149e-23
1.15284e-22
-2.04757e-23
1.62343e-23
2.95373e-23
7.27747e-23
-1.03945e-22
-3.36337e-24
4.36867e-22
3.18696e-22
1.90341e-22
-2.45165e-23
2.53998e-23
-7.11051e-25
-7.84629e-22
-1.51068e-21
-7.63839e-22
-2.72779e-24
2.91236e-22
-2.13794e-24
1.40339e-22
2.39484e-22
3.90944e-22
1.05569e-22
1.34836e-22
1.12638e-25
1.01627e-22
2.3192e-22
2.43913e-22
-5.74025e-23
1.14416e-22
-8.35903e-23
-3.08748e-22
-2.40232e-22
-7.57513e-23
7.18181e-23
2.85657e-22
3.75303e-22
1.24743e-22
1.46824e-22
2.48411e-22
3.70319e-22
5.24169e-22
4.47338e-22
8.79231e-23
3.37041e-23
7.48459e-23
2.51187e-22
2.4725e-22
-3.64785e-22
8.5938e-23
-1.67426e-22
-5.91812e-22
-1.53251e-22
-7.35302e-23
1.0541e-22
-6.55329e-23
-7.30483e-23
1.4795e-23
4.29762e-24
-3.89303e-22
-4.81501e-22
3.08833e-23
-8.98025e-23
-2.38555e-22
8.55977e-23
8.16467e-23
-2.35044e-22
-5.91017e-23
6.04412e-23
2.92888e-23
3.84785e-24
-2.29914e-23
2.90053e-22
4.08968e-22
-2.41555e-23
4.85937e-23
5.6034e-24
3.92651e-22
4.96726e-24
-1.76183e-22
-1.84118e-22
7.51132e-24
1.47746e-22
6.80451e-22
5.08774e-22
-1.04934e-22
-3.90981e-27
-1.27506e-22
6.12288e-23
-1.23927e-23
-4.95052e-23
-2.82499e-23
3.27762e-23
1.07674e-22
-4.33887e-23
7.5488e-23
-2.49402e-22
5.1897e-22
3.08092e-22
-9.34866e-23
-6.28329e-23
-1.20793e-23
3.76107e-23
-5.73032e-24
-1.74645e-25
3.06289e-23
1.74017e-24
-6.04324e-23
-8.62013e-25
-4.90526e-23
1.0616e-23
1.85678e-24
4.95678e-23
7.36033e-23
-5.19872e-23
-1.37338e-23
1.06732e-22
-4.81006e-23
-1.52301e-22
4.887e-23
-1.76274e-25
5.63387e-24
-8.76119e-23
-2.8463e-23
2.35026e-24
6.13529e-24
7.92005e-24
-2.163e-24
2.60573e-22
8.81716e-23
6.14726e-23
9.57147e-23
-1.18983e-23
-4.47215e-23
6.40429e-23
-3.94282e-23
3.61391e-23
-2.46572e-23
4.14719e-23
-1.93033e-24
1.51914e-23
-9.53373e-25
4.5739e-24
7.33707e-23
8.2094e-25
8.1624e-24
-1.59619e-23
-3.82812e-23
-3.83546e-23
-2.86564e-23
-2.1077e-24
-7.01792e-24
-5.35431e-23
3.94799e-25
6.16475e-23
-6.35529e-23
-3.21109e-23
-1.66687e-22
-3.73852e-23
-4.08322e-24
-7.29877e-24
7.36037e-23
-1.54819e-24
-6.49695e-24
-6.87456e-24
-4.36405e-24
1.15457e-23
5.41881e-24
-3.73379e-25
9.4087e-25
-2.98631e-24
1.8441e-22
5.01802e-22
5.48382e-23
-1.60836e-22
2.80771e-22
-5.15876e-24
-3.21287e-22
-1.2753e-22
-1.84585e-24
2.15541e-23
1.17015e-22
5.43106e-23
-7.3583e-23
6.20787e-23
1.03081e-22
8.29708e-24
5.78193e-24
-2.33739e-23
1.11271e-22
1.09343e-23
5.61772e-23
-7.1855e-24
6.48821e-24
2.40334e-22
3.52135e-22
3.8301e-22
6.7006e-22
9.43278e-23
-5.45301e-22
-6.0747e-22
-1.22936e-22
)
;

boundaryField
{
    sides
    {
        type            calculated;
        value           nonuniform List<scalar> 2(-1.22936e-22 -2.34549e-23);
    }
    empty
    {
        type            empty;
    }
}


// ************************************************************************* //
