/*--------------------------------*- C++ -*----------------------------------*\
  =========                 |
  \\      /  F ield         | OpenFOAM: The Open Source CFD Toolbox
   \\    /   O peration     | Website:  https://openfoam.org
    \\  /    A nd           | Version:  9
     \\/     M anipulation  |
\*---------------------------------------------------------------------------*/
FoamFile
{
    format      ascii;
    class       volVectorField;
    location    "0.001";
    object      ddt0(rho,U);
}
// * * * * * * * * * * * * * * * * * * * * * * * * * * * * * * * * * * * * * //

dimensions      [1 -2 -2 0 0 0 0];

internalField   nonuniform List<vector> 
1000
(
(1.45519e-09 0 0)
(2.91038e-09 0 0)
(1.45519e-09 0 0)
(4.36557e-09 0 0)
(-1.45519e-09 0 0)
(-4.36557e-09 0 0)
(1.34155e-23 0 0)
(2.91038e-09 0 0)
(-1.45519e-09 0 0)
(-1.16415e-08 0 0)
(-8.73115e-09 0 0)
(1.45519e-09 0 0)
(8.73115e-09 0 0)
(1.01863e-08 0 0)
(1.16415e-08 0 0)
(1.01863e-08 0 0)
(-1.45519e-09 0 0)
(-4.36557e-09 0 0)
(-5.82077e-09 0 0)
(-8.73115e-09 0 0)
(-1.45519e-09 0 0)
(4.36557e-09 0 0)
(-1.45519e-09 0 0)
(1.45519e-09 0 0)
(5.82077e-09 0 0)
(-2.89513e-23 0 0)
(-7.27596e-09 0 0)
(-2.91038e-09 0 0)
(-5.82077e-09 0 0)
(-7.27596e-09 0 0)
(1.45519e-09 0 0)
(1.45519e-09 0 0)
(1.45519e-09 0 0)
(4.36557e-09 0 0)
(4.36557e-09 0 0)
(2.91038e-09 0 0)
(7.27596e-09 0 0)
(1.30967e-08 0 0)
(5.82077e-09 0 0)
(-2.91038e-09 0 0)
(-1.45519e-09 0 0)
(8.73115e-09 0 0)
(7.27596e-09 0 0)
(-1.45519e-09 0 0)
(-1.16415e-08 0 0)
(-8.73115e-09 0 0)
(-1.01863e-08 0 0)
(-5.82077e-09 0 0)
(-2.91038e-09 0 0)
(-1.45519e-09 0 0)
(7.27596e-09 0 0)
(8.73115e-09 0 0)
(1.45519e-09 0 0)
(1.45519e-09 0 0)
(1.45519e-09 0 0)
(-2.91038e-09 0 0)
(-1.86116e-24 0 0)
(2.91038e-09 0 0)
(2.91038e-09 0 0)
(-1.45519e-09 0 0)
(-2.91038e-09 0 0)
(-4.36557e-09 0 0)
(-8.73115e-09 0 0)
(1.45519e-09 0 0)
(7.27596e-09 0 0)
(1.01863e-08 0 0)
(1.30967e-08 0 0)
(4.36557e-09 0 0)
(-1.45519e-09 0 0)
(-1.01863e-08 0 0)
(-1.01863e-08 0 0)
(-4.36557e-09 0 0)
(-4.36557e-09 0 0)
(-1.80904e-24 0 0)
(-5.99534e-25 0 0)
(-5.82077e-09 0 0)
(-1.45519e-09 0 0)
(1.16415e-08 0 0)
(1.30967e-08 0 0)
(5.82077e-09 0 0)
(-2.91038e-09 0 0)
(-5.82077e-09 0 0)
(-7.27596e-09 0 0)
(-1.01863e-08 0 0)
(-7.27596e-09 0 0)
(-2.91038e-09 0 0)
(1.45519e-09 0 0)
(1.45519e-09 0 0)
(-4.36557e-09 0 0)
(2.91038e-09 0 0)
(8.73115e-09 0 0)
(8.73115e-09 0 0)
(1.01863e-08 0 0)
(7.27596e-09 0 0)
(1.45519e-09 0 0)
(-5.82077e-09 0 0)
(-7.27596e-09 0 0)
(-4.36557e-09 0 0)
(-4.36557e-09 0 0)
(-2.92383e-25 0 0)
(2.91038e-09 0 0)
(4.36557e-09 0 0)
(4.51904e-24 0 0)
(-4.36557e-09 0 0)
(-1.45519e-09 0 0)
(1.01863e-08 0 0)
(1.01863e-08 0 0)
(5.82077e-09 0 0)
(1.30281e-23 0 0)
(-5.82077e-09 0 0)
(-8.73115e-09 0 0)
(-4.36557e-09 0 0)
(-4.36557e-09 0 0)
(-1.45519e-09 0 0)
(-2.04727e-23 0 0)
(-5.82077e-09 0 0)
(-1.45519e-09 0 0)
(4.36557e-09 0 0)
(-8.27181e-25 0 0)
(-1.45519e-09 0 0)
(2.91038e-09 0 0)
(-1.44757e-24 0 0)
(-1.45519e-09 0 0)
(4.36557e-09 0 0)
(7.27596e-09 0 0)
(8.73115e-09 0 0)
(1.45519e-08 0 0)
(1.01863e-08 0 0)
(-7.27596e-09 0 0)
(-1.16415e-08 0 0)
(-8.73115e-09 0 0)
(-3.39144e-23 0 0)
(8.73115e-09 0 0)
(1.45519e-09 0 0)
(-8.73115e-09 0 0)
(-4.36557e-09 0 0)
(5.82077e-09 0 0)
(7.27596e-09 0 0)
(-1.45519e-09 0 0)
(-5.82077e-09 0 0)
(-5.82077e-09 0 0)
(1.45519e-09 0 0)
(4.36557e-09 0 0)
(1.45519e-09 0 0)
(-4.36557e-09 0 0)
(-2.91038e-09 0 0)
(2.91038e-09 0 0)
(-1.45519e-09 0 0)
(5.82077e-09 0 0)
(5.82077e-09 0 0)
(-4.36557e-09 0 0)
(-5.82077e-09 0 0)
(-7.27596e-09 0 0)
(-5.82077e-09 0 0)
(1.45519e-09 0 0)
(4.36557e-09 0 0)
(-5.82077e-09 0 0)
(-1.01863e-08 0 0)
(-1.45519e-09 0 0)
(-4.36557e-09 0 0)
(5.82077e-09 0 0)
(1.16415e-08 0 0)
(1.01863e-08 0 0)
(1.45519e-09 0 0)
(-1.45519e-09 0 0)
(-5.82077e-09 0 0)
(-7.27596e-09 0 0)
(4.36557e-09 0 0)
(-1.45519e-09 0 0)
(-1.16415e-08 0 0)
(-4.36557e-09 0 0)
(5.82077e-09 0 0)
(5.82077e-09 0 0)
(2.91038e-09 0 0)
(3.92911e-24 0 0)
(-1.09601e-23 0 0)
(-1.45519e-09 0 0)
(1.45519e-09 0 0)
(4.36557e-09 0 0)
(2.91038e-09 0 0)
(-1.78851e-24 0 0)
(-2.91038e-09 0 0)
(-2.91038e-09 0 0)
(1.3767e-24 0 0)
(2.91038e-09 0 0)
(-8.73115e-09 0 0)
(-4.36557e-09 0 0)
(5.82077e-09 0 0)
(2.91038e-09 0 0)
(1.45519e-09 0 0)
(4.36557e-09 0 0)
(-1.45519e-09 0 0)
(1.45519e-09 0 0)
(2.77106e-23 0 0)
(-1.45519e-09 0 0)
(-2.91038e-09 0 0)
(-8.73115e-09 0 0)
(-5.82077e-09 0 0)
(-2.91038e-09 0 0)
(-1.65436e-24 0 0)
(2.91038e-09 0 0)
(4.36557e-09 0 0)
(1.01863e-08 0 0)
(1.16415e-08 0 0)
(5.82077e-09 0 0)
(-3.08249e-23 0 0)
(-2.48154e-23 0 0)
(3.14329e-23 0 0)
(1.48893e-23 0 0)
(-4.36557e-09 0 0)
(-4.36557e-09 0 0)
(2.91038e-09 0 0)
(4.36557e-09 0 0)
(7.81564e-23 0 0)
(-4.36557e-09 0 0)
(-5.82077e-09 0 0)
(1.45519e-09 0 0)
(-2.06795e-24 0 0)
(2.91038e-09 0 0)
(1.60071e-08 0 0)
(1.45519e-08 0 0)
(2.06795e-24 0 0)
(-1.16415e-08 0 0)
(-1.89175e-08 0 0)
(-1.16415e-08 0 0)
(-2.91038e-09 0 0)
(5.82077e-09 0 0)
(1.01863e-08 0 0)
(4.36557e-09 0 0)
(-8.73115e-09 0 0)
(-1.01863e-08 0 0)
(-1.34411e-24 0 0)
(1.45519e-09 0 0)
(1.45519e-09 0 0)
(-5.82077e-09 0 0)
(-8.73115e-09 0 0)
(-8.73115e-09 0 0)
(-2.91038e-09 0 0)
(1.16415e-08 0 0)
(1.89175e-08 0 0)
(1.89175e-08 0 0)
(4.36557e-09 0 0)
(-4.36557e-09 0 0)
(4.36557e-09 0 0)
(7.27596e-09 0 0)
(2.91038e-09 0 0)
(-5.82077e-09 0 0)
(-4.36557e-09 0 0)
(-1.7164e-23 0 0)
(-4.36557e-09 0 0)
(-1.45519e-09 0 0)
(-1.45519e-09 0 0)
(1.45519e-09 0 0)
(1.45519e-09 0 0)
(-2.91038e-09 0 0)
(-2.91038e-09 0 0)
(-1.45519e-09 0 0)
(-1.45519e-09 0 0)
(-5.82077e-09 0 0)
(-1.16415e-08 0 0)
(-2.91038e-09 0 0)
(5.68745e-24 0 0)
(1.07533e-23 0 0)
(-1.06238e-23 0 0)
(5.82077e-09 0 0)
(5.82077e-09 0 0)
(5.82077e-09 0 0)
(7.27596e-09 0 0)
(-7.27596e-09 0 0)
(-8.73115e-09 0 0)
(-4.36557e-09 0 0)
(-1.45519e-09 0 0)
(-5.82077e-09 0 0)
(-5.82077e-09 0 0)
(-1.24077e-23 0 0)
(7.27596e-09 0 0)
(7.27596e-09 0 0)
(1.01863e-08 0 0)
(1.60071e-08 0 0)
(1.01863e-08 0 0)
(-2.91038e-09 0 0)
(-1.60071e-08 0 0)
(-1.74623e-08 0 0)
(-5.82077e-09 0 0)
(-1.45519e-09 0 0)
(4.36557e-09 0 0)
(7.27596e-09 0 0)
(7.27596e-09 0 0)
(8.73115e-09 0 0)
(5.82077e-09 0 0)
(-5.82077e-09 0 0)
(-1.16415e-08 0 0)
(2.91038e-09 0 0)
(1.45519e-09 0 0)
(-7.27596e-09 0 0)
(-7.27596e-09 0 0)
(-1.45519e-09 0 0)
(5.82077e-09 0 0)
(8.73115e-09 0 0)
(1.01863e-08 0 0)
(5.82077e-09 0 0)
(2.91038e-09 0 0)
(-1.01863e-08 0 0)
(-1.60071e-08 0 0)
(-7.27596e-09 0 0)
(-8.4786e-24 0 0)
(1.45519e-09 0 0)
(1.30433e-23 0 0)
(-5.82077e-09 0 0)
(-7.27596e-09 0 0)
(-5.82077e-09 0 0)
(-2.97785e-23 0 0)
(1.01863e-08 0 0)
(7.27596e-09 0 0)
(1.45519e-09 0 0)
(5.82077e-09 0 0)
(7.27596e-09 0 0)
(4.36557e-09 0 0)
(-8.73115e-09 0 0)
(-7.27596e-09 0 0)
(4.36557e-09 0 0)
(1.45519e-09 0 0)
(-2.91038e-09 0 0)
(-2.91038e-09 0 0)
(-4.36557e-09 0 0)
(2.91038e-09 0 0)
(2.91038e-09 0 0)
(8.73115e-09 0 0)
(2.18279e-08 0 0)
(1.01863e-08 0 0)
(-1.45519e-08 0 0)
(-2.18279e-08 0 0)
(-5.82077e-09 0 0)
(2.91038e-09 0 0)
(-2.06795e-25 0 0)
(2.91038e-09 0 0)
(1.45519e-09 0 0)
(-7.27596e-09 0 0)
(-1.16415e-08 0 0)
(-5.82077e-09 0 0)
(2.12999e-23 0 0)
(2.91038e-09 0 0)
(4.36557e-09 0 0)
(-2.91038e-09 0 0)
(-4.36557e-09 0 0)
(2.91038e-09 0 0)
(8.73115e-09 0 0)
(2.91038e-09 0 0)
(-7.27596e-09 0 0)
(-2.91038e-09 0 0)
(4.36557e-09 0 0)
(4.36557e-09 0 0)
(-4.36557e-09 0 0)
(-2.91038e-09 0 0)
(1.45519e-09 0 0)
(1.45519e-09 0 0)
(4.36557e-09 0 0)
(8.73115e-09 0 0)
(1.01863e-08 0 0)
(4.9424e-23 0 0)
(-1.45519e-09 0 0)
(-5.82077e-09 0 0)
(-1.01863e-08 0 0)
(-1.16415e-08 0 0)
(-1.16415e-08 0 0)
(-5.82077e-09 0 0)
(4.36557e-09 0 0)
(7.27596e-09 0 0)
(7.27596e-09 0 0)
(2.91038e-09 0 0)
(-7.27596e-09 0 0)
(-1.45519e-08 0 0)
(-1.45519e-09 0 0)
(5.82077e-09 0 0)
(5.82077e-09 0 0)
(1.01863e-08 0 0)
(7.27596e-09 0 0)
(8.73115e-09 0 0)
(1.30967e-08 0 0)
(7.27596e-09 0 0)
(1.45519e-09 0 0)
(-2.91038e-09 0 0)
(-8.73115e-09 0 0)
(-8.73115e-09 0 0)
(-2.91038e-09 0 0)
(-1.45519e-09 0 0)
(-1.45519e-09 0 0)
(2.91038e-09 0 0)
(7.27596e-09 0 0)
(4.36557e-09 0 0)
(1.45519e-09 0 0)
(-7.27596e-09 0 0)
(-1.60071e-08 0 0)
(-1.16415e-08 0 0)
(-2.91038e-09 0 0)
(8.73115e-09 0 0)
(1.16415e-08 0 0)
(5.82077e-09 0 0)
(1.45519e-09 0 0)
(-1.45519e-09 0 0)
(2.91038e-09 0 0)
(5.82077e-09 0 0)
(7.27596e-09 0 0)
(1.45519e-09 0 0)
(-1.45519e-09 0 0)
(-4.09454e-23 0 0)
(-7.27596e-09 0 0)
(-5.82077e-09 0 0)
(-1.16415e-08 0 0)
(-1.16415e-08 0 0)
(-4.36557e-09 0 0)
(-4.75629e-24 0 0)
(-2.91038e-09 0 0)
(1.45519e-09 0 0)
(1.45519e-09 0 0)
(-1.15805e-23 0 0)
(8.73115e-09 0 0)
(5.82077e-09 0 0)
(1.45519e-09 0 0)
(4.36557e-09 0 0)
(5.82077e-09 0 0)
(2.91038e-09 0 0)
(-5.82077e-09 0 0)
(-7.27596e-09 0 0)
(-1.01863e-08 0 0)
(-7.27596e-09 0 0)
(-5.82077e-09 0 0)
(3.67958e-24 0 0)
(1.45519e-09 0 0)
(-2.91038e-09 0 0)
(1.16415e-08 0 0)
(4.07454e-08 0 0)
(1.10595e-07 0 0)
(4.08909e-07 0 0)
(1.55269e-06 0 0)
(5.81203e-06 0 0)
(2.13447e-05 0 0)
(7.67686e-05 0 0)
(0.000270267 0 0)
(0.000930803 0 0)
(0.00313411 0 0)
(0.0103088 0 0)
(0.0330955 0 0)
(0.10361 0 0)
(0.315987 0 0)
(0.937791 0 0)
(2.70513 0 0)
(7.57421 0 0)
(20.5546 0 0)
(53.9727 0 0)
(136.868 0 0)
(334.451 0 0)
(785.509 0 0)
(1767.83 0 0)
(3798.82 0 0)
(7761.79 0 0)
(15006.6 0 0)
(27297.1 0 0)
(46413.7 0 0)
(73267.1 0 0)
(106667 0 0)
(142381 0 0)
(173374 0 0)
(192499 0 0)
(197645 0 0)
(192995 0 0)
(184113 0 0)
(174135 0 0)
(164033 0 0)
(153981 0 0)
(144031 0 0)
(134245 0 0)
(124686 0 0)
(115404 0 0)
(106435 0 0)
(97802.5 0 0)
(89525.7 0 0)
(81625.8 0 0)
(74090.2 0 0)
(67030.3 0 0)
(60078.9 0 0)
(54363.7 0 0)
(47174.8 0 0)
(43502.8 0 0)
(37117.5 0 0)
(30904.5 0 0)
(31535.7 0 0)
(22927.4 0 0)
(17647.1 0 0)
(21439 0 0)
(16915.7 0 0)
(6652.38 0 0)
(7171.57 0 0)
(13901.8 0 0)
(10451.5 0 0)
(-1076.39 0 0)
(-4165.16 0 0)
(5032.41 0 0)
(12088.3 0 0)
(5327.14 0 0)
(-7222.32 0 0)
(-10315.1 0 0)
(1271.7 0 0)
(5130.81 0 0)
(13560.4 0 0)
(5395.78 0 0)
(-10676.5 0 0)
(-4788.16 0 0)
(-3190.18 0 0)
(1964.27 0 0)
(7025.28 0 0)
(6233.63 0 0)
(-575.191 0 0)
(587.04 0 0)
(-1288.34 0 0)
(-663.536 0 0)
(5540.56 0 0)
(9397.46 0 0)
(-3601.06 0 0)
(4322.76 0 0)
(3137.96 0 0)
(-5274.95 0 0)
(-259.666 0 0)
(1533.1 0 0)
(31837.3 0 0)
(90587.6 0 0)
(349103 0 0)
(296062 0 0)
(221912 0 0)
(126987 0 0)
(84230.5 0 0)
(65056.5 0 0)
(26629.6 0 0)
(2286.71 0 0)
(15875.5 0 0)
(10767.2 0 0)
(-2680.1 0 0)
(-194.18 0 0)
(5735.87 0 0)
(1868.13 0 0)
(9595.09 0 0)
(1982.48 0 0)
(-6673.65 0 0)
(29346.9 0 0)
(-6143.88 0 0)
(21112.6 0 0)
(41935.2 0 0)
(-25440.7 0 0)
(83795.8 0 0)
(39992.7 0 0)
(-24292.3 0 0)
(327079 0 0)
(-164292 0 0)
(1.25701e+06 0 0)
(1.92253e+06 0 0)
(591763 0 0)
(97430.5 0 0)
(14784.9 0 0)
(2010.62 0 0)
(266.586 0 0)
(35.2508 0 0)
(4.6635 0 0)
(0.617049 0 0)
(0.0816047 0 0)
(0.0107838 0 0)
(0.00142395 0 0)
(0.000187903 0 0)
(2.47835e-05 0 0)
(3.26763e-06 0 0)
(4.30191e-07 0 0)
(5.63887e-08 0 0)
(7.27596e-09 0 0)
(7.27596e-10 0 0)
(1.81899e-10 0 0)
(3.63798e-10 0 0)
(-5.45697e-10 0 0)
(-3.63798e-10 0 0)
(-3.63798e-10 0 0)
(3.63798e-10 0 0)
(-3.63798e-10 0 0)
(-1.45519e-09 0 0)
(1.09139e-09 0 0)
(1.27329e-09 0 0)
(3.63798e-10 0 0)
(-1.56189e-24 0 0)
(-1.81899e-10 0 0)
(-5.45697e-10 0 0)
(-1.81899e-10 0 0)
(-6.46235e-25 0 0)
(8.3752e-25 0 0)
(1.09139e-09 0 0)
(7.27596e-10 0 0)
(-3.63798e-10 0 0)
(-1.09139e-09 0 0)
(2.71419e-24 0 0)
(5.45697e-10 0 0)
(5.45697e-10 0 0)
(-9.09495e-10 0 0)
(-7.27596e-10 0 0)
(-1.81899e-10 0 0)
(1.24077e-24 0 0)
(9.09495e-10 0 0)
(9.09495e-10 0 0)
(-3.63798e-10 0 0)
(-3.63798e-10 0 0)
(-3.63798e-10 0 0)
(-7.27596e-10 0 0)
(1.81899e-10 0 0)
(5.45697e-10 0 0)
(1.08567e-24 0 0)
(-1.81899e-10 0 0)
(5.16988e-25 0 0)
(5.45697e-10 0 0)
(3.63798e-10 0 0)
(-7.27596e-10 0 0)
(-7.27596e-10 0 0)
(-3.63798e-10 0 0)
(-5.16988e-26 0 0)
(7.27596e-10 0 0)
(-1.81899e-10 0 0)
(-5.45697e-10 0 0)
(3.63798e-10 0 0)
(7.27596e-10 0 0)
(7.27596e-10 0 0)
(-3.63798e-10 0 0)
(-1.63709e-09 0 0)
(-1.81899e-10 0 0)
(1.09139e-09 0 0)
(7.27596e-10 0 0)
(-3.97008e-26 0 0)
(1.81899e-10 0 0)
(1.81899e-10 0 0)
(-1.81899e-10 0 0)
(-5.45697e-10 0 0)
(9.07314e-25 0 0)
(1.81899e-10 0 0)
(1.81899e-10 0 0)
(9.5262e-25 0 0)
(-5.37391e-25 0 0)
(-7.27596e-10 0 0)
(-1.27329e-09 0 0)
(-3.63798e-10 0 0)
(9.09495e-10 0 0)
(1.09139e-09 0 0)
(1.81899e-10 0 0)
(-9.09495e-10 0 0)
(1.81899e-10 0 0)
(4.65289e-26 0 0)
(-3.63798e-10 0 0)
(1.09139e-09 0 0)
(5.45697e-10 0 0)
(-5.45697e-10 0 0)
(-1.27329e-09 0 0)
(-7.27596e-10 0 0)
(-4.65289e-25 0 0)
(3.63798e-10 0 0)
(1.09139e-09 0 0)
(7.27596e-10 0 0)
(3.63798e-10 0 0)
(-1.81899e-10 0 0)
(-5.45697e-10 0 0)
(-1.81899e-10 0 0)
(2.58494e-25 0 0)
(1.81899e-10 0 0)
(-1.09139e-09 0 0)
(-1.09139e-09 0 0)
(-3.63798e-10 0 0)
(3.63798e-10 0 0)
(7.27596e-10 0 0)
(9.09495e-10 0 0)
(-1.81899e-10 0 0)
(-7.27596e-10 0 0)
(5.45697e-10 0 0)
(7.27596e-10 0 0)
(-9.09495e-10 0 0)
(-1.81899e-10 0 0)
(-3.63798e-10 0 0)
(-5.45697e-10 0 0)
(3.63798e-10 0 0)
(7.27596e-10 0 0)
(5.45697e-10 0 0)
(-1.81899e-10 0 0)
(9.82277e-25 0 0)
(-1.81899e-10 0 0)
(-3.63798e-10 0 0)
(-1.81899e-10 0 0)
(3.63798e-10 0 0)
(-1.81899e-10 0 0)
(-5.45697e-10 0 0)
(8.35622e-25 0 0)
(-1.81899e-10 0 0)
(1.81899e-10 0 0)
(1.81899e-10 0 0)
(-1.81899e-10 0 0)
(1.81899e-10 0 0)
(1.09139e-09 0 0)
(1.81899e-10 0 0)
(-9.09495e-10 0 0)
(-9.09495e-10 0 0)
(3.63798e-10 0 0)
(3.63798e-10 0 0)
(-1.10601e-24 0 0)
(1.45519e-09 0 0)
(2.18279e-09 0 0)
(3.63798e-10 0 0)
(-1.81899e-10 0 0)
(-1.81899e-10 0 0)
(-1.09139e-09 0 0)
(-1.09139e-09 0 0)
(-7.27596e-10 0 0)
(-3.63798e-10 0 0)
(7.27596e-10 0 0)
(1.09139e-09 0 0)
(3.63798e-10 0 0)
(3.63798e-10 0 0)
(-5.45697e-10 0 0)
(-1.09139e-09 0 0)
(3.63798e-10 0 0)
(1.09139e-09 0 0)
(3.63798e-10 0 0)
(-7.27596e-10 0 0)
(-1.45519e-09 0 0)
(-7.27596e-10 0 0)
(-6.20385e-25 0 0)
(5.45697e-10 0 0)
(7.27596e-10 0 0)
(5.45697e-10 0 0)
(1.81899e-10 0 0)
(-3.63798e-10 0 0)
(2.17135e-24 0 0)
(1.24077e-24 0 0)
(3.63798e-10 0 0)
(1.09139e-09 0 0)
(-1.81899e-10 0 0)
(-7.27596e-10 0 0)
(3.63798e-10 0 0)
(9.09495e-10 0 0)
(9.09495e-10 0 0)
(7.27596e-10 0 0)
(-1.81899e-10 0 0)
(-1.45519e-09 0 0)
(-1.45519e-09 0 0)
(-7.27596e-10 0 0)
(-5.45697e-10 0 0)
(3.63798e-10 0 0)
(7.27596e-10 0 0)
(1.81899e-10 0 0)
(-5.45697e-10 0 0)
(-1.27329e-09 0 0)
(7.75482e-25 0 0)
(3.63798e-10 0 0)
(3.63798e-10 0 0)
(1.09139e-09 0 0)
(5.45697e-10 0 0)
(7.27596e-10 0 0)
(9.09495e-10 0 0)
(1.81899e-10 0 0)
(1.81899e-10 0 0)
(-3.63798e-10 0 0)
(-5.45697e-10 0 0)
(-1.81899e-10 0 0)
(3.63798e-10 0 0)
(1.81899e-10 0 0)
(5.45697e-10 0 0)
(5.45697e-10 0 0)
(3.63798e-10 0 0)
(1.81899e-10 0 0)
(3.63798e-10 0 0)
(3.00283e-24 0 0)
(-1.81899e-10 0 0)
(-3.63798e-10 0 0)
(-9.09495e-10 0 0)
(-9.09495e-10 0 0)
(-1.27329e-09 0 0)
(7.27596e-10 0 0)
(1.09139e-09 0 0)
(7.27596e-10 0 0)
(7.27596e-10 0 0)
(-1.81899e-10 0 0)
(-1.09139e-09 0 0)
(1.81899e-10 0 0)
(5.45697e-10 0 0)
(-5.45697e-10 0 0)
(-7.27596e-10 0 0)
(1.00491e-24 0 0)
(3.63798e-10 0 0)
(-1.81899e-10 0 0)
(-4.37632e-25 0 0)
(-9.09495e-10 0 0)
(-7.27596e-10 0 0)
(-1.81899e-10 0 0)
(-5.45697e-10 0 0)
(9.09495e-10 0 0)
(9.09495e-10 0 0)
(5.45697e-10 0 0)
(0 0 0)
(-1.81899e-10 0 0)
(1.81899e-10 0 0)
(5.45697e-10 0 0)
(1.09139e-09 0 0)
(-2.56381e-24 0 0)
(-5.45697e-10 0 0)
(-3.63798e-10 0 0)
(1.81899e-10 0 0)
(2.58494e-24 0 0)
(-7.27596e-10 0 0)
(-7.27596e-10 0 0)
(-9.09495e-10 0 0)
(-1.09139e-09 0 0)
(-5.45697e-10 0 0)
(-5.2384e-24 0 0)
(9.09495e-10 0 0)
(1.81899e-09 0 0)
(1.09139e-09 0 0)
(-2.32645e-24 0 0)
(-3.63798e-10 0 0)
(-5.47591e-24 0 0)
(-1.81899e-10 0 0)
(-7.27596e-10 0 0)
(-9.09495e-10 0 0)
(-9.09495e-10 0 0)
(-3.63798e-10 0 0)
(4.3944e-25 0 0)
(3.63798e-10 0 0)
(7.27596e-10 0 0)
(5.45697e-10 0 0)
(3.63798e-10 0 0)
(-3.63798e-10 0 0)
(1.81899e-10 0 0)
(5.45697e-10 0 0)
(5.45697e-10 0 0)
(3.63798e-10 0 0)
(-1.81899e-10 0 0)
(-1.09139e-09 0 0)
(-1.09139e-09 0 0)
(-1.81899e-10 0 0)
(-1.81899e-10 0 0)
(-3.63798e-10 0 0)
(-3.63798e-10 0 0)
(-5.45697e-10 0 0)
(-5.45697e-10 0 0)
(-1.81899e-10 0 0)
(-3.63798e-10 0 0)
(3.63798e-10 0 0)
(1.27329e-09 0 0)
(5.45697e-10 0 0)
(-1.09139e-09 0 0)
(-5.45697e-10 0 0)
(9.09495e-10 0 0)
(1.27329e-09 0 0)
(9.09495e-10 0 0)
(1.81899e-10 0 0)
(-1.27329e-09 0 0)
(-7.27596e-10 0 0)
(-3.63798e-10 0 0)
(-1.81899e-10 0 0)
(-2.11278e-25 0 0)
(-7.27596e-10 0 0)
(-9.09495e-10 0 0)
(-7.27596e-10 0 0)
(1.81899e-10 0 0)
(3.63798e-10 0 0)
(-3.63798e-10 0 0)
(-3.63798e-10 0 0)
(7.27596e-10 0 0)
(3.63798e-10 0 0)
(-1.81899e-10 0 0)
(-1.81899e-10 0 0)
(6.72084e-25 0 0)
(5.45697e-10 0 0)
(1.09139e-09 0 0)
(9.09495e-10 0 0)
(1.81899e-10 0 0)
(1.81899e-10 0 0)
(1.81899e-10 0 0)
(7.27596e-10 0 0)
(2.68834e-24 0 0)
(-9.09495e-10 0 0)
(-5.45697e-10 0 0)
(-1.86495e-24 0 0)
(1.81899e-10 0 0)
(9.09495e-10 0 0)
(5.45697e-10 0 0)
(-1.81899e-10 0 0)
(-1.21492e-24 0 0)
(-9.09495e-10 0 0)
(-1.81899e-10 0 0)
(-9.17224e-25 0 0)
(1.81899e-10 0 0)
(5.45697e-10 0 0)
(-5.45697e-10 0 0)
(-5.45697e-10 0 0)
(1.81899e-10 0 0)
(1.81899e-10 0 0)
(-5.45697e-10 0 0)
(7.27596e-10 0 0)
(7.27596e-10 0 0)
(-3.63798e-10 0 0)
(-3.63798e-10 0 0)
(-1.81899e-10 0 0)
(-1.81899e-10 0 0)
(-1.81899e-10 0 0)
(-2.55909e-25 0 0)
(1.81899e-10 0 0)
(5.16988e-26 0 0)
(3.63798e-10 0 0)
(-7.04855e-25 0 0)
(1.81899e-10 0 0)
(0 0 0)
(-6.12309e-25 0 0)
(-1.81899e-10 0 0)
(-1.81899e-10 0 0)
(3.63798e-10 0 0)
(1.81899e-10 0 0)
(-5.45697e-10 0 0)
(3.63798e-10 0 0)
(7.27596e-10 0 0)
(3.63798e-10 0 0)
(3.25702e-25 0 0)
(-1.06212e-24 0 0)
(-7.27596e-10 0 0)
(-9.09495e-10 0 0)
(-1.81899e-10 0 0)
(1.81899e-10 0 0)
(1.81899e-10 0 0)
(-2.25225e-25 0 0)
(5.45697e-10 0 0)
(7.27596e-10 0 0)
(-5.45697e-10 0 0)
(-5.45697e-10 0 0)
(3.63798e-10 0 0)
(3.63798e-10 0 0)
(-3.63798e-10 0 0)
(-9.09495e-10 0 0)
(-3.63798e-10 0 0)
(1.81899e-10 0 0)
(1.81899e-10 0 0)
(2.58494e-26 0 0)
(1.81899e-10 0 0)
(-1.81899e-10 0 0)
(-3.63798e-10 0 0)
(3.63798e-10 0 0)
(6.61434e-25 0 0)
(-1.81899e-10 0 0)
(5.45697e-10 0 0)
(-1.81899e-10 0 0)
(-5.45697e-10 0 0)
(3.63798e-10 0 0)
(1.16322e-25 0 0)
(-5.16988e-26 0 0)
(3.63798e-10 0 0)
(1.39587e-24 0 0)
(-1.81899e-10 0 0)
(7.27596e-10 0 0)
(3.63798e-10 0 0)
(-5.45697e-10 0 0)
(-7.27596e-10 0 0)
(-1.81899e-10 0 0)
(-5.45697e-10 0 0)
(-3.63798e-10 0 0)
(7.27596e-10 0 0)
(9.09495e-10 0 0)
(3.63798e-10 0 0)
(-3.61892e-25 0 0)
(-3.63798e-10 0 0)
(-1.81899e-10 0 0)
(1.81899e-10 0 0)
(-5.45697e-10 0 0)
(-1.81899e-10 0 0)
(1.45519e-09 0 0)
(1.09139e-09 0 0)
(1.81899e-10 0 0)
(-1.09139e-09 0 0)
(-2.00089e-09 0 0)
(-5.45697e-10 0 0)
(7.27596e-10 0 0)
(3.63798e-10 0 0)
(2.58494e-25 0 0)
(-1.81899e-10 0 0)
(-3.63798e-10 0 0)
(-1.81899e-10 0 0)
(5.45697e-10 0 0)
(3.63798e-10 0 0)
(5.45697e-10 0 0)
(-5.68687e-25 0 0)
(-5.45697e-10 0 0)
(1.81899e-10 0 0)
(3.63798e-10 0 0)
(1.81899e-10 0 0)
(-3.63798e-10 0 0)
(-1.81899e-10 0 0)
(5.45697e-10 0 0)
(1.27329e-09 0 0)
(9.09495e-10 0 0)
(5.45697e-10 0 0)
(9.09495e-10 0 0)
(1.81899e-10 0 0)
(-1.09139e-09 0 0)
(-7.27596e-10 0 0)
(-1.81899e-10 0 0)
)
;

boundaryField
{
    sides
    {
        type            calculated;
        value           nonuniform List<vector> 2((-1.81899e-10 0 0) (1.45519e-09 0 0));
    }
    empty
    {
        type            empty;
    }
}


// ************************************************************************* //
