/*--------------------------------*- C++ -*----------------------------------*\
  =========                 |
  \\      /  F ield         | OpenFOAM: The Open Source CFD Toolbox
   \\    /   O peration     | Website:  https://openfoam.org
    \\  /    A nd           | Version:  9
     \\/     M anipulation  |
\*---------------------------------------------------------------------------*/
FoamFile
{
    format      ascii;
    class       surfaceScalarField;
    location    "0.001";
    object      ddtCorrDdt0(phi);
}
// * * * * * * * * * * * * * * * * * * * * * * * * * * * * * * * * * * * * * //

dimensions      [1 0 -2 0 0 0 0];

internalField   nonuniform List<scalar> 
999
(
1.23189e-08
-3.00365e-09
1.28919e-08
4.32768e-09
-2.0817e-08
3.28737e-08
-1.1274e-09
1.67608e-08
-2.40346e-08
-5.86591e-08
4.82891e-09
2.5983e-08
6.03243e-08
3.95539e-08
4.06666e-08
2.69559e-08
-3.89935e-08
-3.93641e-09
-4.44529e-08
-1.73263e-08
1.85579e-08
-1.31337e-08
-1.16144e-08
2.05627e-08
2.3923e-08
-3.97056e-08
1.21718e-08
-1.45897e-08
-5.25791e-08
6.44801e-10
9.0047e-09
2.5153e-08
2.96205e-08
-3.07368e-09
3.00842e-08
6.49154e-09
3.54382e-08
1.76097e-08
-1.01554e-08
-5.63911e-08
3.84241e-08
1.8415e-08
4.26813e-08
-4.45048e-08
-4.001e-08
-3.18744e-08
-2.41112e-08
-1.14442e-08
-1.52604e-08
-4.59106e-09
5.40397e-08
1.88021e-08
-1.59008e-08
1.64903e-08
-5.38697e-09
-2.91597e-08
1.3186e-08
2.12586e-08
-1.12257e-08
-1.57259e-09
-5.2776e-09
-2.60569e-08
-3.87216e-08
2.08024e-08
3.62785e-08
1.41885e-08
3.6101e-08
8.99155e-09
-2.19238e-08
-5.55116e-08
-1.19204e-08
-1.1945e-08
-2.85354e-08
1.95052e-08
-3.10929e-09
-3.69982e-08
4.09293e-08
4.59894e-08
3.99385e-08
-3.9731e-09
-3.16532e-09
-3.81203e-08
-2.15781e-08
-5.54216e-08
-2.09187e-09
1.97921e-09
-8.33075e-09
2.60393e-08
-2.75177e-08
4.47647e-08
3.00835e-08
3.12159e-08
4.65822e-08
3.40161e-08
-2.337e-08
4.52304e-08
-2.76398e-08
-2.95944e-08
-2.35001e-08
1.43117e-09
4.99231e-09
1.70311e-08
-1.43115e-08
-1.132e-08
1.68361e-08
4.9206e-08
1.63323e-08
4.56218e-09
1.05279e-08
-2.92618e-08
-2.39913e-08
-4.00905e-08
1.84429e-09
7.47037e-09
-1.98626e-08
-2.14607e-08
1.79134e-08
1.27959e-08
-1.62183e-08
1.0191e-08
1.55157e-08
-2.47442e-08
3.10903e-08
1.60392e-08
4.51028e-08
4.02114e-08
6.26288e-08
1.374e-08
-4.9683e-08
-4.13139e-08
-2.27541e-08
8.90679e-09
4.45802e-08
-2.85645e-08
-1.68303e-08
3.0308e-09
5.77069e-08
7.83498e-09
-2.79685e-08
-2.75854e-08
-1.62733e-09
4.87931e-09
2.04647e-08
-1.81488e-08
-2.13083e-08
-3.06451e-08
1.70189e-08
1.00725e-08
2.66826e-08
-5.93339e-09
-2.97043e-08
-8.52926e-09
3.16199e-08
-1.31184e-08
1.51274e-08
6.76044e-09
-5.31417e-08
-2.11962e-08
1.22824e-09
-3.32104e-08
5.43614e-08
2.59312e-08
4.14055e-08
-2.20608e-08
1.56263e-08
-6.1242e-08
2.76427e-08
-8.40734e-09
-2.38043e-08
-4.96347e-08
1.52238e-08
6.38059e-09
2.90799e-08
1.27612e-09
-1.3772e-08
-1.25176e-08
-5.08546e-10
1.10824e-08
3.17894e-08
1.53344e-08
2.9275e-09
-1.87473e-08
-1.44373e-08
1.22078e-08
-3.0452e-09
4.54543e-08
-9.57619e-09
4.33341e-08
6.17482e-09
6.78294e-09
2.43745e-08
-2.54144e-08
2.72862e-08
-2e-08
-1.78524e-08
-1.95884e-08
-3.45164e-08
-3.56772e-08
-1.47549e-08
3.14769e-08
1.07476e-08
-4.03218e-08
7.34935e-08
-2.37524e-08
2.28554e-08
-5.39715e-09
-1.00797e-08
1.13541e-08
-4.13483e-09
-3.3551e-08
-2.35305e-10
-3.58496e-09
2.08997e-08
-1.02024e-08
-6.53484e-08
5.35205e-09
2.75634e-08
-7.86328e-09
5.37391e-08
8.34549e-08
1.7705e-08
-1.87208e-08
-7.67904e-08
-5.94299e-08
-2.0429e-08
-6.66825e-09
4.68449e-09
2.37324e-08
8.05707e-09
-4.32646e-08
-1.39027e-08
-6.58577e-09
1.23369e-08
-1.2103e-08
-1.89997e-08
-4.1874e-08
-2.5651e-08
5.363e-09
8.52582e-08
8.80732e-08
5.35049e-08
-2.31609e-08
-6.8473e-09
3.46069e-08
-1.38178e-08
2.54144e-08
-4.18987e-08
-1.09991e-08
-1.92763e-08
1.29717e-09
-1.15304e-08
1.83484e-09
2.82929e-08
-1.62001e-08
-1.69396e-08
-2.12789e-09
-2.7814e-08
7.28705e-09
-6.1047e-08
-1.64163e-08
-1.1296e-08
-1.89469e-09
-3.80776e-09
1.36352e-09
3.85284e-08
9.22455e-09
3.3433e-08
4.13078e-09
-3.81891e-08
-2.98457e-08
-4.10827e-08
-1.45222e-08
-1.23649e-08
-2.54393e-08
1.79205e-08
1.9723e-08
3.63658e-08
3.83137e-08
2.78767e-08
1.82928e-08
-5.29912e-08
-5.97292e-08
-3.30726e-08
-1.33089e-08
5.36782e-09
1.69927e-08
3.86587e-08
3.5066e-08
4.66155e-08
-6.51065e-09
-2.95861e-08
-8.5747e-09
1.72725e-08
-3.6259e-08
-2.51232e-08
-3.57778e-08
1.40904e-08
1.09981e-08
5.18424e-08
4.39286e-08
-2.10508e-08
1.1767e-08
-8.88379e-08
-3.50561e-08
-3.10013e-09
-3.4356e-09
-6.93274e-09
-2.15085e-08
-6.87513e-08
1.04473e-09
-2.13847e-08
1.87581e-08
5.9144e-08
-1.78327e-08
3.86004e-08
4.20852e-08
5.75519e-08
-1.98045e-08
-3.66295e-08
-5.1725e-09
6.08857e-08
-3.1176e-08
2.99838e-09
-3.26486e-08
-9.48839e-11
-7.19121e-09
9.13237e-09
7.52518e-08
2.93402e-08
-1.90961e-08
-1.00855e-07
-1.40311e-08
1.83892e-08
-2.1061e-09
9.44355e-09
9.75809e-09
-3.60703e-08
-4.62293e-08
-3.10669e-08
6.29748e-09
-1.94468e-08
1.05545e-08
1.47828e-08
-2.163e-08
6.23681e-09
1.37936e-08
3.36931e-08
2.74548e-10
-2.19324e-08
-5.50504e-09
2.4108e-08
-1.93182e-09
-3.34099e-08
1.13415e-08
1.23688e-09
1.39053e-08
9.16798e-09
5.4879e-08
1.57727e-08
-1.69463e-08
-8.8681e-09
-1.03545e-08
-7.2675e-08
-3.56596e-08
-7.13991e-08
1.492e-08
3.55844e-08
4.14148e-08
1.78848e-08
-2.51998e-08
-7.20527e-08
-4.71428e-08
-1.62494e-08
3.25762e-08
2.38619e-08
4.81508e-08
1.79768e-08
3.80984e-08
4.4076e-08
6.33125e-09
-4.39975e-09
-1.80324e-08
-5.19604e-08
-4.70698e-09
-6.84603e-09
-4.86066e-09
-2.42389e-08
3.10592e-08
1.74068e-08
-3.20008e-09
-3.64458e-09
-4.78517e-08
-4.99727e-08
-5.08715e-08
2.75445e-08
3.36514e-08
1.40609e-08
9.37092e-09
3.00139e-08
-2.64073e-09
1.439e-08
2.89869e-08
2.12311e-08
-1.78719e-08
1.69756e-08
-3.21807e-08
-3.61529e-08
-3.42592e-08
-7.07807e-08
-2.66794e-08
-6.99199e-09
-2.0172e-08
-2.94809e-09
1.69753e-08
-9.0201e-09
1.04138e-08
4.27067e-08
2.12441e-08
5.06238e-09
1.36931e-08
2.15489e-08
-2.65427e-09
-1.1424e-08
-3.9308e-08
-3.57827e-08
-2.79292e-08
-3.94339e-08
4.39434e-08
-1.93536e-08
1.497e-08
8.96656e-08
3.3041e-07
7.82237e-07
3.09366e-06
1.17202e-05
4.34722e-05
0.000158061
0.000562598
0.00195986
0.00667701
0.0222315
0.0722802
0.229275
0.708874
2.13407
6.24858
17.7724
49.0336
131.024
338.487
843.706
2024.31
4662.38
10274.8
21583.1
43022.4
80978.5
143048
235607
359427
504737
648974
759758
807414
798740
763034
720499
677617
635256
593474
552503
512635
474086
436999
401459
367500
335169
304443
275493
247757
222769
197335
175853
156434
130965
120658
105131
77024.7
74691.1
73700.4
44187.5
24638.7
39645.7
46632.5
16687.5
-12455.4
49.7837
32873.8
34635.4
-5602.81
-36252.4
-17541.2
13528
31306.6
49107.3
-19476.6
-29040
-13212.9
-6098.51
21152.4
31371.6
8547.4
3827.74
8931.12
-10031.2
12842.3
57342.5
-10392.7
1117.28
42868.1
-28522.9
-3876.05
18632.3
101319
105172
1.02658e+06
1.25074e+06
1.05162e+06
691900
388234
338611
209614
-37662.9
32051.5
90737.7
14142.8
-43421.4
30317.1
-2718.48
16359.6
32875.7
-93172.7
48962.7
67201.6
-192906
391155
-23798.2
-355493
923544
-843257
725545
726280
-5.92343e+06
1.46975e+07
4.59778e+06
1.10024e+06
164258
21749
2857.34
376.959
49.8611
6.59964
0.873205
0.11544
0.0152481
0.00201249
0.000265525
3.49924e-05
4.61635e-06
6.00371e-07
7.63205e-08
7.97849e-09
5.2643e-10
1.31536e-09
-2.48733e-10
-1.90316e-09
6.27224e-10
-2.36332e-09
-2.79443e-09
-5.42498e-09
-2.77481e-09
7.83295e-09
3.51372e-09
-1.18759e-10
-1.50753e-09
1.23038e-10
-2.49918e-09
-1.63716e-09
-1.36501e-09
1.95242e-09
3.00825e-09
-1.05619e-09
-4.25298e-09
-2.10696e-09
2.44875e-09
2.51121e-09
5.44051e-10
-9.6478e-10
2.67595e-09
-4.36041e-09
5.74104e-09
5.58637e-09
3.20234e-09
-3.12368e-09
7.41156e-11
-3.70973e-09
-3.86486e-09
1.1975e-09
-9.35012e-10
5.05725e-12
-5.03694e-10
3.92116e-10
1.17495e-09
-6.90398e-10
-6.17282e-09
-3.21202e-09
-2.19932e-09
3.27937e-09
2.28958e-09
-3.39329e-09
7.55259e-10
1.50635e-09
-3.8754e-09
2.53458e-09
-6.47736e-09
-2.34287e-09
5.052e-09
3.33148e-09
8.07555e-10
-7.147e-10
1.39923e-10
1.7211e-09
-3.06821e-09
-3.11614e-10
1.8996e-10
1.39648e-10
1.3398e-09
3.00752e-10
5.3633e-10
-5.45372e-09
-5.74735e-09
2.98279e-09
5.81802e-09
8.96906e-10
-5.23717e-10
-1.31026e-09
1.55236e-10
-7.35022e-10
3.20324e-09
3.22526e-09
-3.45451e-09
-8.15769e-09
-6.02795e-09
8.1257e-10
-1.46439e-09
4.11821e-09
2.22336e-09
2.90991e-09
9.2019e-10
-5.01254e-10
-2.75306e-09
1.21173e-09
6.38244e-10
-2.60351e-09
-2.91937e-09
-3.54401e-09
-7.20343e-10
2.42388e-09
3.25085e-09
1.3259e-09
-2.36719e-09
9.02318e-10
1.83952e-09
1.13345e-09
-4.06029e-09
2.41981e-09
-5.51266e-09
-1.6375e-09
3.38076e-09
5.48612e-10
1.01979e-10
6.63278e-10
-1.68975e-09
3.22479e-09
-1.81919e-09
-2.35821e-09
1.63982e-09
-2.16064e-10
-4.13798e-09
-8.01106e-10
-4.50086e-10
-2.04653e-10
5.40762e-10
-2.20202e-09
4.88034e-09
3.72868e-09
4.36239e-10
-6.38769e-09
-1.21293e-09
3.81223e-09
2.69517e-10
1.05028e-08
1.09555e-08
4.483e-09
-2.09201e-09
-3.51847e-09
-2.27597e-09
-5.38832e-09
-6.31837e-09
-4.30015e-10
-4.62514e-10
6.07323e-09
3.72552e-09
-1.52651e-09
8.95852e-10
-8.94682e-09
-4.42526e-10
2.10809e-09
3.51714e-09
-1.02969e-09
-5.43129e-09
-6.16684e-09
-1.74902e-09
6.22392e-10
-4.19104e-10
3.27949e-09
3.18952e-09
2.9226e-09
-1.01798e-10
1.32928e-11
3.1435e-09
2.26699e-09
4.62347e-09
-4.85132e-09
-2.76953e-10
3.2674e-09
-9.59273e-10
6.7217e-09
2.83291e-09
-1.6621e-09
-9.53994e-09
-5.7183e-09
-7.85644e-09
2.70542e-09
3.26045e-09
1.34731e-09
-2.8715e-12
-4.4459e-09
-5.66502e-09
2.82738e-09
1.55185e-09
1.29438e-09
4.12198e-09
1.34645e-09
5.16637e-09
6.26026e-10
-1.25923e-09
1.74168e-09
-3.01296e-09
-1.37019e-09
2.92088e-09
3.19993e-09
-1.29802e-09
5.09166e-09
1.21052e-10
1.14149e-09
5.94188e-10
-1.59232e-10
-1.31638e-09
7.68924e-10
-5.21279e-09
-3.70918e-09
-3.38138e-09
-2.15658e-09
6.15901e-09
2.19568e-09
2.74078e-09
4.13748e-09
-5.6553e-09
-3.3061e-09
4.42996e-09
-2.28949e-09
-4.80389e-10
-3.99001e-09
2.53389e-09
4.58625e-11
1.18541e-10
-5.3787e-10
1.55443e-09
-5.41685e-10
-1.48796e-09
5.50296e-11
4.99846e-09
4.22724e-09
1.98544e-09
4.27798e-09
6.85511e-10
-3.65175e-09
7.36683e-09
1.92359e-09
9.81403e-11
-2.22998e-09
-3.46766e-09
1.69143e-09
7.00709e-10
-6.98872e-09
1.11107e-09
-6.16538e-09
-3.37873e-09
-3.16644e-09
2.8801e-09
8.66324e-09
5.88532e-09
1.73514e-09
-8.50152e-10
-5.04026e-10
-1.02441e-09
-2.60396e-09
-5.36591e-10
-4.41139e-09
-3.00543e-09
-3.99758e-11
-1.22045e-10
2.3349e-09
-3.58016e-10
3.72962e-09
-1.04914e-09
-1.74074e-09
3.53203e-09
1.85109e-09
2.22066e-09
1.78706e-10
-5.03035e-09
-3.092e-09
-1.25268e-09
-1.16582e-09
-3.6963e-10
-3.3165e-09
-1.31128e-09
-1.72137e-09
-9.54448e-10
-3.02491e-10
2.44683e-09
2.8239e-09
7.29733e-09
-3.97748e-09
6.31959e-10
2.89394e-09
-5.47421e-11
4.86301e-09
1.4961e-09
-1.038e-09
1.40398e-09
-2.10893e-09
2.3052e-10
1.02955e-11
-2.53982e-09
-5.84225e-09
-1.28277e-09
-2.5412e-09
2.33248e-09
1.99264e-09
-4.68474e-09
3.817e-09
4.19704e-09
-1.1546e-09
2.24507e-10
4.1839e-10
1.10084e-09
3.97523e-09
4.54017e-09
2.25011e-09
-9.74954e-10
1.9567e-09
-2.79058e-10
2.69894e-09
-1.4916e-09
-2.95973e-09
-1.72784e-09
-4.15923e-10
1.12397e-09
7.41091e-09
-3.70049e-09
1.45653e-09
-1.1949e-09
-4.66397e-09
-2.18984e-09
3.12197e-10
3.52742e-09
-1.79204e-09
-3.31812e-09
3.17447e-10
1.86519e-09
-3.07152e-09
1.01306e-09
2.30107e-09
-6.92836e-11
-2.11299e-10
-1.98256e-09
-2.2324e-09
-2.06709e-09
-5.14713e-10
-2.9554e-10
3.73288e-10
7.06261e-10
-9.27954e-10
-2.06803e-10
9.70495e-10
-1.96243e-09
1.69851e-09
-1.41763e-09
3.36855e-10
4.50158e-09
5.42717e-10
-9.46656e-10
4.08155e-09
3.18064e-09
-2.15765e-10
3.99171e-10
-5.74377e-10
-3.98571e-09
-2.52946e-09
-1.81195e-09
-8.02201e-10
2.03734e-10
1.73683e-09
4.82377e-10
6.62781e-10
-4.01465e-09
3.02512e-10
7.59546e-10
1.4092e-09
-2.56602e-09
-2.60661e-11
1.42249e-11
8.03016e-10
-8.07265e-10
1.68592e-09
1.11286e-10
-2.88993e-10
-9.26171e-10
2.06486e-09
-2.44383e-09
7.78553e-11
1.54423e-09
-1.44405e-09
3.64552e-10
-1.15883e-11
-3.02967e-10
-2.2676e-09
7.79662e-10
1.41418e-09
-1.20486e-09
-5.72519e-09
-3.21271e-09
-3.68246e-09
-1.94475e-09
-2.58808e-09
-1.59e-09
8.42604e-10
-1.83932e-09
3.65187e-09
1.36667e-09
-2.23497e-09
-2.43364e-09
-8.02549e-10
-1.21807e-09
-3.58297e-09
3.31978e-09
7.73269e-09
2.71574e-09
-1.2722e-09
-7.88379e-09
-8.79979e-09
9.86922e-10
2.06364e-09
2.09517e-09
-3.09706e-10
4.87595e-10
-1.38128e-09
1.77358e-09
2.62975e-09
3.13049e-10
2.55721e-09
-2.68267e-09
-1.57469e-09
-6.61628e-10
3.19476e-10
4.87042e-10
-1.68488e-09
1.41783e-10
4.29397e-09
5.14624e-09
7.25244e-10
4.22273e-09
2.0169e-09
-1.51589e-09
-4.79305e-09
-8.43608e-10
)
;

boundaryField
{
    sides
    {
        type            calculated;
        value           nonuniform List<scalar> 2(9.23585e-10 2.61491e-09);
    }
    empty
    {
        type            empty;
        value           nonuniform List<scalar> 0();
    }
}


// ************************************************************************* //
