/*--------------------------------*- C++ -*----------------------------------*\
  =========                 |
  \\      /  F ield         | OpenFOAM: The Open Source CFD Toolbox
   \\    /   O peration     | Website:  https://openfoam.org
    \\  /    A nd           | Version:  9
     \\/     M anipulation  |
\*---------------------------------------------------------------------------*/
FoamFile
{
    format      ascii;
    class       volScalarField;
    location    "0.001";
    object      mag(U);
}
// * * * * * * * * * * * * * * * * * * * * * * * * * * * * * * * * * * * * * //

dimensions      [0 1 -1 0 0 0 0];

internalField   nonuniform List<scalar> 
1000
(
8.60584e-28
2.76391e-13
2.32629e-13
1.75815e-13
1.23608e-13
1.80422e-13
2.92514e-13
3.57773e-13
5.75047e-13
3.99231e-13
4.13051e-13
4.23799e-13
4.03838e-13
6.96352e-13
9.28981e-13
1.15393e-12
8.02302e-13
6.62571e-13
4.57581e-13
5.60459e-14
7.98463e-14
9.52013e-14
1.2284e-13
2.41842e-13
4.82916e-13
7.57772e-13
5.59692e-13
3.26295e-13
2.31094e-13
1.10556e-13
5.83492e-14
1.53551e-14
4.52974e-14
3.22456e-13
5.40498e-13
8.09979e-13
6.94816e-13
3.67754e-13
2.78694e-13
1.96545e-13
2.119e-13
4.49903e-13
4.06909e-13
6.28022e-13
5.42033e-13
4.61419e-13
1.78119e-13
3.60844e-14
2.76391e-13
9.68136e-13
5.25911e-13
5.27446e-13
3.21688e-13
2.99424e-13
5.14394e-14
1.52015e-13
1.30518e-13
1.3666e-13
6.5259e-14
2.11132e-13
4.00767e-13
1.44337e-13
4.22264e-14
2.04222e-13
1.55086e-13
3.01727e-13
1.64299e-13
3.4165e-13
2.20345e-13
4.69865e-13
5.34356e-13
9.78117e-13
6.34931e-13
4.15354e-13
2.99424e-14
6.29557e-14
4.43761e-13
4.62187e-13
4.8522e-13
6.14202e-15
4.96736e-13
2.41842e-13
2.71784e-13
1.15163e-14
1.30518e-14
1.88867e-13
3.71592e-13
2.47984e-13
3.64683e-13
4.28406e-13
5.52782e-14
4.0998e-13
6.21112e-13
5.26678e-13
2.69481e-13
1.08253e-13
4.22264e-14
3.68521e-14
4.99039e-14
6.90977e-15
2.119e-13
4.52974e-14
2.32629e-13
6.37235e-14
1.75048e-13
2.95585e-13
2.43378e-13
7.90785e-14
3.13243e-13
3.86947e-13
6.29557e-14
5.52782e-14
6.14202e-15
3.8618e-13
2.70249e-13
5.85028e-13
6.92513e-13
3.11708e-13
8.82916e-14
7.67753e-16
8.6756e-14
1.38963e-13
1.6737e-13
3.99999e-13
3.37811e-14
3.83876e-14
2.53358e-14
2.45681e-14
1.03647e-13
3.25527e-13
6.75622e-13
9.68136e-13
8.03837e-13
2.99424e-13
4.09212e-13
2.34165e-13
8.82916e-14
1.91938e-13
5.10556e-13
7.38578e-13
1.00038e-12
7.64682e-13
5.67369e-13
5.83492e-14
1.8119e-13
7.56236e-13
4.52206e-13
3.45489e-14
8.44528e-15
4.0998e-13
2.16506e-13
1.61228e-13
5.37427e-15
2.38003e-14
1.97312e-13
8.90593e-14
2.61036e-13
9.98078e-15
2.91746e-14
3.20921e-13
5.9117e-13
3.15546e-13
1.99616e-13
4.59884e-13
5.90402e-13
1.1094e-12
9.1209e-13
5.89634e-13
6.37235e-14
1.94241e-13
4.58348e-13
6.71784e-13
2.05758e-13
2.34165e-13
9.52013e-14
2.25719e-13
6.44912e-14
2.33397e-13
1.75815e-13
2.70249e-13
1.75048e-13
2.18042e-13
3.76199e-14
1.24376e-13
1.9808e-13
9.21303e-14
1.58925e-13
6.75622e-14
1.46641e-13
9.52013e-14
4.52974e-14
1.30518e-13
3.93857e-13
4.66794e-13
6.26486e-13
5.24375e-13
1.95009e-13
9.59691e-14
9.59691e-14
1.38195e-13
1.01343e-13
6.44912e-14
1.04414e-13
9.75046e-14
1.61228e-14
2.47216e-13
4.66794e-13
7.2783e-13
3.05566e-13
1.2284e-13
7.78501e-13
9.61994e-13
1.14472e-12
5.61227e-13
6.44912e-14
3.42418e-13
2.17274e-13
4.37619e-14
4.23799e-13
6.22647e-13
6.80229e-13
6.14202e-15
6.2188e-13
6.24183e-13
4.69865e-13
1.39731e-13
1.95777e-13
9.98078e-14
4.06909e-13
3.66218e-13
3.30901e-13
7.67753e-15
1.6046e-13
2.48752e-13
2.71784e-13
4.10748e-13
6.2188e-13
4.60652e-13
5.50479e-13
3.76199e-14
2.51823e-13
4.1689e-13
3.3474e-13
6.93281e-13
8.03837e-13
8.17657e-13
6.84068e-13
3.8618e-13
5.67369e-13
6.14202e-15
9.52013e-14
5.90402e-13
4.36084e-13
7.29365e-14
1.7428e-13
4.79845e-13
3.4856e-13
2.39539e-13
4.96736e-13
5.12859e-13
5.83492e-13
2.41074e-13
3.50095e-13
4.08444e-13
5.1593e-13
1.65835e-13
7.21687e-14
1.07485e-13
5.48175e-13
3.59308e-13
9.67368e-14
2.07293e-14
2.41074e-13
6.75622e-14
3.28598e-13
3.43953e-13
2.4261e-13
3.38579e-13
4.62187e-13
1.28982e-13
3.43953e-13
8.56044e-13
6.30325e-13
2.64107e-13
1.59693e-13
5.98847e-13
6.57964e-13
4.61419e-13
1.19002e-13
4.45297e-14
1.03647e-13
6.43377e-13
2.47216e-13
5.83492e-14
1.12092e-13
6.44912e-14
9.44336e-14
2.63339e-13
2.4261e-13
2.61036e-14
3.37811e-14
1.61228e-13
1.84261e-14
9.21303e-15
2.09596e-13
3.70825e-13
3.3474e-13
2.48752e-13
3.80805e-13
1.54318e-13
8.44528e-15
5.3973e-13
7.39346e-13
1.12399e-12
5.38962e-13
5.3282e-13
3.02495e-13
5.75047e-13
7.74662e-13
7.66985e-13
1.30518e-13
7.21687e-14
9.36658e-14
1.18234e-13
2.99424e-14
8.75238e-14
1.61228e-14
3.47792e-13
1.35892e-13
2.44145e-13
8.3685e-14
1.66602e-13
1.03647e-13
1.45105e-13
7.21687e-14
3.83876e-14
2.18042e-13
1.94241e-13
2.21881e-13
4.24567e-13
3.06333e-13
1.81957e-13
5.61227e-13
8.38386e-13
1.1309e-12
7.64682e-13
5.45104e-13
3.70825e-13
4.53742e-13
2.32629e-13
5.5355e-13
5.48175e-13
7.4472e-14
3.06333e-13
6.48751e-13
7.14778e-13
9.46639e-13
9.37426e-13
7.40881e-13
8.02302e-13
3.51631e-13
7.16313e-13
1.85028e-13
3.09404e-13
3.53166e-13
2.21113e-13
6.11131e-13
5.36659e-13
3.70057e-13
2.25719e-13
2.28023e-13
3.97696e-13
1.38195e-14
5.06717e-14
5.45104e-14
3.17082e-13
6.57964e-13
1.1094e-12
9.36658e-13
8.41457e-13
5.10556e-13
5.0902e-13
4.21496e-13
2.74088e-13
3.05566e-13
4.09212e-13
8.31476e-13
8.23799e-13
4.89826e-13
1.53551e-15
4.99039e-14
5.55853e-13
6.15738e-13
3.89251e-13
7.67753e-16
2.4261e-13
8.11515e-13
5.8426e-13
4.23799e-13
5.9117e-13
8.02302e-13
9.71207e-13
8.92129e-13
9.6353e-13
9.99614e-13
8.45296e-13
6.74855e-13
5.66601e-13
1.98848e-13
2.28023e-13
2.76391e-14
1.02111e-13
2.34165e-13
2.99424e-14
3.33972e-13
1.75048e-13
1.61228e-13
1.9808e-13
1.09021e-13
1.52015e-13
2.83301e-13
5.16698e-13
6.63338e-13
4.1689e-13
1.1286e-13
6.90977e-14
1.55086e-13
4.29941e-14
1.45873e-14
3.14011e-13
4.90594e-13
3.53166e-13
2.93358e-12
1.25174e-11
4.8201e-11
1.8245e-10
6.76369e-10
2.45241e-09
8.70661e-09
3.02558e-08
1.02855e-07
3.41838e-07
1.10985e-06
3.51721e-06
1.08702e-05
3.27316e-05
9.59238e-05
0.000273284
0.000755921
0.00202722
0.00526258
0.0132007
0.0319311
0.074311
0.165953
0.354618
0.722814
1.40068
2.5718
4.46063
7.29093
11.2148
16.2298
22.1353
28.6114
35.3824
42.3015
49.3172
56.4146
63.5853
70.8212
78.1143
85.4573
92.8433
100.266
107.72
115.197
122.694
130.202
137.715
145.229
152.729
160.226
167.679
175.126
182.514
189.858
197.162
204.373
211.495
218.54
225.454
232.208
238.809
245.225
251.393
257.275
262.852
268.077
272.871
277.176
281.004
284.262
286.963
289.146
290.593
291.628
292.456
292.912
293.154
293.232
293.188
293.122
293.069
293.012
292.946
292.897
292.811
292.708
292.657
292.578
292.514
292.541
292.692
292.894
293.531
293.75
292.887
292.121
291.789
291.885
292.082
291.902
291.831
292.043
291.981
291.783
291.766
291.71
291.522
291.349
291.017
290.746
290.59
289.979
289.623
289.242
287.932
286.857
284.837
282.648
281.275
273.447
263.926
218.78
102.034
21.912
3.52869
0.495441
0.0660026
0.00872668
0.0011538
0.000152597
2.01784e-05
2.66688e-06
3.52238e-07
4.64934e-08
6.13316e-09
8.08649e-10
1.06484e-10
1.44176e-11
2.15508e-12
5.7428e-13
3.94625e-13
1.16699e-13
2.84069e-14
5.06717e-14
2.61804e-13
3.7927e-13
1.46641e-13
9.28982e-14
7.44721e-14
4.33013e-13
4.45297e-14
1.02111e-13
5.9117e-13
7.29366e-14
1.38963e-13
1.88867e-13
2.69482e-13
1.99616e-14
1.14395e-13
8.13819e-14
3.95393e-13
1.75048e-13
1.75816e-13
5.68906e-13
1.24376e-13
1.51247e-13
1.88867e-13
1.15931e-13
1.41267e-13
1.95009e-13
5.75815e-14
4.45297e-14
2.84069e-14
5.22073e-14
5.9117e-14
2.41075e-13
1.24376e-13
2.26487e-13
6.44913e-14
6.90978e-15
1.90403e-13
4.22265e-14
7.83109e-14
1.52015e-13
1.45873e-14
8.59884e-14
5.83493e-14
4.38387e-13
2.54894e-13
4.22265e-14
6.67946e-14
2.78695e-13
5.20537e-13
5.25144e-13
8.59884e-14
7.14011e-14
3.60844e-14
3.68522e-14
1.16699e-13
1.60461e-13
4.07677e-13
3.93858e-13
7.29366e-14
1.61228e-13
1.52783e-13
6.60268e-14
3.29366e-13
1.33589e-13
3.06334e-13
1.80422e-13
2.54126e-13
5.83493e-14
4.39155e-13
2.91746e-14
4.3762e-14
1.38196e-14
1.33589e-13
2.4952e-13
3.22457e-13
3.37812e-14
2.4952e-13
2.54894e-13
4.94433e-13
1.4357e-13
3.07101e-13
2.34165e-13
1.6737e-13
7.37044e-14
6.90978e-15
1.7428e-13
5.10556e-13
1.77351e-13
2.357e-13
2.99424e-14
1.59693e-13
4.52975e-14
2.34933e-13
1.31286e-13
1.15163e-13
2.48752e-13
1.39731e-13
3.95393e-13
5.06717e-14
1.68138e-13
2.53359e-13
2.04222e-13
3.52399e-13
1.08253e-13
1.96545e-13
1.31286e-13
2.14971e-14
1.02879e-13
2.10365e-13
1.22841e-13
4.23032e-13
3.14779e-13
6.27255e-13
4.88291e-13
1.38196e-13
1.81958e-13
1.73512e-13
2.62572e-13
1.42802e-13
4.36084e-13
1.91938e-13
6.06525e-14
1.61996e-13
3.64683e-13
2.91746e-13
2.21881e-13
5.95009e-13
3.64683e-13
9.52015e-14
1.7428e-13
8.98272e-14
3.2476e-13
2.38771e-13
2.99424e-14
2.01919e-13
7.06333e-14
1.02879e-13
1.09789e-13
2.03455e-13
1.91938e-13
3.43954e-13
3.00959e-13
2.0499e-13
1.04415e-13
1.35892e-13
4.9904e-14
1.96545e-13
1.75816e-13
1.08253e-13
5.15931e-13
9.44337e-14
1.89635e-13
3.12476e-13
2.04222e-13
5.78119e-13
5.56621e-13
4.87524e-13
3.85412e-13
1.68138e-13
1.12092e-13
2.76391e-14
1.53551e-15
1.01343e-13
2.59501e-13
3.02495e-13
2.30326e-14
6.14203e-15
1.2975e-13
4.06909e-13
1.68138e-13
1.83493e-13
1.91938e-14
2.26487e-13
1.83493e-13
1.45873e-13
1.68906e-14
9.21304e-15
2.64107e-13
4.97504e-13
6.85604e-13
7.15546e-13
5.59692e-13
5.24376e-13
2.77159e-13
4.238e-13
3.65451e-13
3.80806e-13
5.69673e-13
8.53742e-13
5.61996e-13
4.1689e-13
4.29942e-13
1.81958e-13
1.7428e-13
1.77351e-13
2.34933e-13
3.51631e-13
7.14011e-14
5.71209e-13
4.82149e-13
5.33589e-13
5.46641e-13
5.8119e-13
3.57773e-13
2.93282e-13
2.54126e-13
9.21304e-15
4.3071e-13
3.68522e-14
2.77159e-13
2.11132e-13
2.38004e-13
2.5643e-13
2.40307e-13
4.03071e-13
5.6046e-14
1.80422e-13
1.58925e-13
2.22649e-14
9.44337e-14
1.60461e-13
2.27255e-13
8.98272e-14
3.07101e-13
1.03647e-13
2.41842e-13
6.26487e-13
6.34165e-13
6.13435e-13
4.89827e-13
3.23992e-13
9.82725e-14
1.18234e-13
2.84837e-13
7.70057e-13
6.74088e-13
6.31861e-13
5.32053e-13
7.81573e-13
4.59884e-13
7.14779e-13
4.24568e-13
5.12092e-13
2.14203e-13
3.50096e-13
2.11132e-13
2.77927e-13
3.64683e-13
4.59884e-13
1.08253e-13
3.35508e-13
4.14587e-13
5.09788e-13
3.63148e-13
1.881e-13
4.03071e-13
3.67754e-13
4.31478e-13
7.16314e-13
6.93282e-13
7.14779e-13
1.02879e-12
9.70441e-13
8.55278e-13
4.95969e-13
1.45873e-13
2.33397e-13
2.8714e-13
4.59117e-13
2.16507e-13
1.75816e-13
9.90402e-14
3.54702e-13
1.00576e-13
3.64683e-13
1.62764e-13
2.07294e-14
1.44338e-13
5.83493e-14
6.20345e-13
4.49904e-13
4.42226e-13
8.13819e-14
4.88291e-13
5.6046e-13
2.77927e-13
2.62572e-13
2.54126e-13
1.45873e-13
2.84837e-13
1.23608e-13
8.75239e-14
2.38004e-14
3.43954e-13
5.1286e-13
1.45873e-13
2.77927e-13
6.60268e-14
5.77351e-13
2.62572e-13
1.22073e-13
3.20921e-13
5.32053e-13
8.60652e-13
8.18425e-13
9.63531e-13
5.61228e-13
3.50096e-13
7.14011e-14
2.91746e-13
4.3762e-14
2.84069e-13
2.07294e-14
7.37044e-14
2.19578e-13
2.54894e-13
4.36852e-13
4.07677e-13
7.52399e-13
4.6833e-13
2.24952e-13
1.97313e-13
4.29942e-14
1.97313e-13
3.68522e-14
7.98464e-14
2.04222e-13
7.98464e-14
1.30518e-13
6.90978e-15
2.76391e-13
7.67754e-15
3.76199e-14
2.62572e-13
4.23032e-13
1.01343e-13
7.29366e-14
2.48752e-13
1.01343e-13
1.44338e-13
1.39731e-13
1.60461e-13
2.84069e-13
4.91362e-14
5.2975e-14
2.14971e-14
5.14395e-14
6.60268e-14
1.45873e-13
4.89059e-13
1.83493e-13
1.38963e-13
2.27255e-13
6.90978e-15
9.3666e-14
2.19578e-13
7.67754e-16
1.68906e-13
1.52783e-13
2.62572e-13
1.81958e-13
9.52015e-14
2.30347e-28
5.9117e-14
2.48752e-13
1.60461e-13
7.98464e-14
1.53551e-14
1.8119e-13
2.07294e-14
5.75815e-14
9.52015e-14
3.26112e-29
1.24376e-13
2.76391e-13
3.27831e-13
2.84069e-14
8.67562e-14
2.39539e-13
7.67754e-16
7.67754e-15
5.98848e-14
2.12668e-13
5.2975e-14
6.67946e-14
1.53551e-14
9.52015e-14
5.14395e-14
5.14395e-14
2.55591e-28
5.9117e-14
5.06717e-14
2.57965e-13
5.42034e-13
2.55662e-13
4.91362e-14
3.1094e-13
2.99424e-14
3.99232e-13
3.27831e-13
1.97313e-13
1.46641e-13
3.28599e-13
2.98656e-13
8.59884e-14
1.97313e-13
2.19578e-13
1.52783e-13
1.45873e-14
1.31286e-13
3.20921e-13
7.29366e-14
1.75048e-13
3.68522e-14
5.14395e-14
3.01727e-13
4.69098e-13
7.30134e-13
7.81573e-13
4.96737e-13
4.29174e-13
7.56237e-13
6.63339e-13
)
;

boundaryField
{
    sides
    {
        type            calculated;
        value           nonuniform List<scalar> 2(6.63339e-13 8.60584e-28);
    }
    empty
    {
        type            empty;
    }
}


// ************************************************************************* //
