/*--------------------------------*- C++ -*----------------------------------*\
  =========                 |
  \\      /  F ield         | OpenFOAM: The Open Source CFD Toolbox
   \\    /   O peration     | Website:  https://openfoam.org
    \\  /    A nd           | Version:  9
     \\/     M anipulation  |
\*---------------------------------------------------------------------------*/
FoamFile
{
    format      ascii;
    class       surfaceScalarField;
    location    "0.001";
    object      phi;
}
// * * * * * * * * * * * * * * * * * * * * * * * * * * * * * * * * * * * * * //

dimensions      [1 0 -1 0 0 0 0];

internalField   nonuniform List<scalar> 
999
(
-4.83169e-13
-1.0516e-12
-1.7053e-13
7.95808e-13
4.26326e-13
1.02318e-12
1.56319e-12
2.10321e-12
1.7053e-12
1.62004e-12
1.62004e-12
1.56319e-12
2.50111e-12
3.49587e-12
4.17799e-12
3.80851e-12
2.75691e-12
2.33058e-12
1.10845e-12
2.55795e-13
4.26326e-13
-5.68434e-14
1.42109e-13
1.36424e-12
2.95586e-12
2.44427e-12
1.62004e-12
1.50635e-12
1.98952e-13
-8.52651e-14
2.27374e-13
1.13687e-13
9.09495e-13
1.67688e-12
2.92744e-12
2.47269e-12
2.6148e-12
1.19371e-12
1.25056e-12
-2.84217e-13
-8.81073e-13
-1.7053e-12
-1.59162e-12
-2.75691e-12
-2.01794e-12
-1.19371e-12
-4.83169e-13
6.25278e-13
2.55795e-12
3.06954e-12
2.55795e-12
1.59162e-12
1.16529e-12
7.67386e-13
5.11591e-13
-8.52651e-14
-3.97904e-13
0
4.54747e-13
1.16529e-12
1.08002e-12
3.69482e-13
3.41061e-13
1.10845e-12
7.10543e-13
3.97904e-13
-1.22213e-12
-1.02318e-12
-1.42109e-12
-2.44427e-12
-3.06954e-12
-3.46745e-12
-2.30216e-12
-4.26326e-13
1.42109e-13
6.25278e-13
2.18847e-12
2.01794e-12
9.9476e-13
-1.3074e-12
-1.36424e-12
-1.33582e-12
-5.11591e-13
-1.42109e-13
3.97904e-13
1.02318e-12
2.27374e-13
-1.25056e-12
-2.10321e-12
-5.68434e-13
6.25278e-13
1.98952e-12
2.52953e-12
1.62004e-12
8.2423e-13
3.97904e-13
2.84217e-14
1.13687e-13
-2.84217e-14
6.25278e-13
4.26326e-13
8.2423e-13
5.40012e-13
3.41061e-13
8.52651e-13
1.44951e-12
2.84217e-13
-7.67386e-13
-1.50635e-12
-6.25278e-13
1.98952e-13
1.42109e-13
-7.38964e-13
-1.13687e-12
-1.98952e-12
-2.44427e-12
-1.9611e-12
-7.38964e-13
-3.41061e-13
-1.98952e-13
-2.55795e-13
-9.9476e-13
-1.02318e-12
-1.0516e-12
8.52651e-14
1.42109e-13
1.42109e-13
-1.13687e-13
1.98952e-13
1.87583e-12
3.21165e-12
3.75167e-12
2.72848e-12
-3.97904e-13
-1.33582e-12
-4.83169e-13
8.81073e-13
-7.38964e-13
-2.359e-12
-4.00746e-12
-3.43903e-12
-2.6148e-12
-8.81073e-13
2.27374e-13
1.67688e-12
2.6148e-12
9.9476e-13
-1.98952e-13
1.27898e-12
9.9476e-13
8.52651e-14
-1.7053e-13
-1.42109e-13
4.54747e-13
7.67386e-13
9.37916e-13
3.12639e-13
-5.68434e-14
7.10543e-13
1.33582e-12
2.27374e-12
9.9476e-13
-3.69482e-13
-2.24532e-12
-3.2685e-12
-4.29168e-12
-3.06954e-12
-9.09495e-13
2.84217e-13
1.02318e-12
2.41585e-12
1.98952e-12
9.37916e-13
5.11591e-13
8.52651e-13
2.55795e-13
4.26326e-13
7.95808e-13
1.10845e-12
9.9476e-13
5.96856e-13
4.83169e-13
1.42109e-13
7.95808e-13
9.09495e-13
3.41061e-13
7.67386e-13
5.40012e-13
5.68434e-13
2.27374e-13
5.68434e-13
6.25278e-13
2.04636e-12
2.01794e-12
2.55795e-12
1.19371e-12
8.52651e-14
-3.69482e-13
-5.96856e-13
-3.41061e-13
-5.96856e-13
-1.13687e-13
4.26326e-13
1.42109e-13
-6.53699e-13
-1.56319e-12
-2.50111e-12
-1.93268e-12
-3.69482e-13
1.39266e-12
3.6664e-12
4.5759e-12
3.38218e-12
1.33582e-12
-9.37916e-13
-1.08002e-12
-1.98952e-13
6.53699e-13
2.38742e-12
3.06954e-12
1.56319e-12
-1.44951e-12
-2.87059e-12
-2.27374e-12
-1.0516e-12
-9.09495e-13
-4.83169e-13
-7.67386e-13
-1.62004e-12
-1.84741e-12
-5.40012e-13
-3.97904e-13
2.84217e-13
-2.84217e-14
-1.42109e-12
-1.9611e-12
-2.52953e-12
-1.98952e-12
-1.02318e-12
4.54747e-13
1.62004e-12
1.25056e-12
1.73372e-12
3.12639e-12
3.58114e-12
2.72848e-12
1.84741e-12
2.24532e-12
9.66338e-13
-1.7053e-13
-1.62004e-12
-1.79057e-12
-1.02318e-12
1.42109e-13
1.02318e-12
2.01794e-12
1.08002e-12
-3.97904e-13
-2.64322e-12
-2.30216e-12
-1.47793e-12
-1.36424e-12
-1.36424e-12
-2.16005e-12
-1.19371e-12
-5.96856e-13
-1.98952e-13
-1.27898e-12
-2.27374e-12
-9.09495e-13
-2.27374e-13
-3.97904e-13
-7.10543e-13
3.97904e-13
1.64846e-12
1.13687e-12
1.25056e-12
1.39266e-12
8.52651e-13
-1.27898e-12
-2.359e-12
-3.46745e-12
-1.79057e-12
-5.68434e-14
1.47793e-12
2.81375e-12
2.359e-12
1.3074e-12
3.41061e-13
-8.52651e-14
-1.93268e-12
-2.07478e-12
-3.41061e-13
-5.96856e-13
-8.52651e-14
1.98952e-13
9.09495e-13
1.02318e-12
4.26326e-13
-1.42109e-13
1.13687e-13
6.82121e-13
-1.42109e-13
5.11591e-13
-2.84217e-13
-1.62004e-12
-1.0516e-12
-1.56319e-12
-1.08002e-12
-3.12639e-13
1.13687e-12
2.55795e-12
4.29168e-12
2.98428e-12
2.47269e-12
4.26326e-13
-1.39266e-12
-2.84217e-12
-3.55271e-12
-1.81899e-12
-2.84217e-14
-8.52651e-14
5.68434e-14
-4.54747e-13
-2.84217e-13
-1.98952e-13
-9.09495e-13
-3.12639e-13
9.66338e-13
3.97904e-13
-7.38964e-13
-5.68434e-13
-2.84217e-13
-5.68434e-13
-8.52651e-14
8.2423e-13
6.25278e-13
2.84217e-14
-1.3074e-12
-1.56319e-12
-9.66338e-13
-1.39266e-12
-2.6148e-12
-4.43379e-12
-3.95062e-12
-2.50111e-12
-1.36424e-12
-2.04636e-12
-5.11591e-13
1.67688e-12
2.30216e-12
9.66338e-13
-9.66338e-13
-2.01794e-12
-2.84217e-12
-3.12639e-12
-4.17799e-12
-3.04112e-12
-3.15481e-12
-2.33058e-12
-1.87583e-12
-1.90425e-12
-1.19371e-12
-1.10845e-12
-1.64846e-12
-1.36424e-12
-2.52953e-12
-1.79057e-12
-9.9476e-13
-7.67386e-13
-1.53477e-12
-9.37916e-13
2.84217e-14
-4.26326e-13
5.96856e-13
2.24532e-12
3.06954e-12
4.60432e-12
3.52429e-12
2.50111e-12
2.04636e-12
1.98952e-12
1.08002e-12
1.36424e-12
1.33582e-12
2.27374e-12
3.41061e-12
3.0127e-12
1.10845e-12
-5.68434e-14
-1.02318e-12
-2.70006e-12
-2.13163e-12
-9.9476e-13
6.53699e-13
2.21689e-12
3.2685e-12
1.62004e-12
1.98952e-12
2.84217e-12
3.80851e-12
3.80851e-12
3.69482e-12
4.03588e-12
3.58114e-12
3.32534e-12
2.10321e-12
1.13687e-12
-1.10845e-12
-3.97904e-13
3.97904e-13
-3.97904e-13
-4.83169e-13
-5.11591e-13
-4.54747e-13
5.96856e-13
8.81073e-13
1.42109e-13
-5.96856e-13
-9.9476e-13
-1.27898e-12
-2.6148e-12
-2.38742e-12
-9.66338e-13
-2.55795e-13
-2.84217e-14
-6.82121e-13
2.84217e-14
-7.95808e-13
-2.18847e-12
-6.53699e-13
5.54223e-12
2.38742e-11
9.55538e-11
3.65077e-10
1.36845e-09
5.01598e-09
1.80025e-08
6.32558e-08
2.17503e-07
7.31426e-07
2.40381e-06
7.71466e-06
2.41574e-05
7.37397e-05
0.000219197
0.000633836
0.00178076
0.00485446
0.0128215
0.0327553
0.0807874
0.191953
0.438294
0.95904
2.0047
3.98967
7.53152
13.4356
22.574
35.6336
52.7847
73.3892
95.9954
119.11
141.886
164.032
185.481
206.208
226.191
245.411
263.856
281.519
298.398
314.495
329.813
344.358
358.134
371.159
383.41
395
405.681
415.987
425.188
433.85
442.397
449.14
456.04
462.952
467.925
472.3
477.592
482.203
484.748
486.735
489.873
493.249
494.863
494.696
494.679
496.141
498.201
498.641
498.062
496.587
495.407
496.334
496.964
497.252
497.076
496.248
495.367
495.141
495.194
495.222
495.414
495.112
493.756
493.469
493.454
492.859
493.132
493.214
493.325
488.846
482.149
440.669
398.595
366.438
344.925
332.119
323.333
317.52
316.288
315.163
313.742
313.431
313.825
313.369
313.268
312.932
312.05
313.129
312.467
311.304
313.465
309.795
309.526
312.581
301.907
308.566
299.3
277.13
320.802
122.755
30.4049
5.0019
0.672167
0.0883451
0.0116461
0.00153882
0.000203524
2.69211e-05
3.55935e-06
4.70267e-07
6.20882e-08
8.1925e-09
1.08034e-09
1.42379e-10
1.88116e-11
2.59703e-12
4.47642e-13
1.74083e-13
1.74083e-13
3.19744e-14
1.06581e-14
1.13687e-13
1.10134e-13
1.06581e-13
-3.19744e-14
4.26326e-14
1.63425e-13
1.13687e-13
-3.55271e-14
-1.77636e-13
-1.45661e-13
-7.10543e-14
2.13163e-14
8.52651e-14
6.03961e-14
-1.06581e-14
-7.4607e-14
-1.42109e-13
-1.77636e-13
1.42109e-14
2.02505e-13
1.45661e-13
-7.10543e-15
9.9476e-14
6.39488e-14
7.4607e-14
7.10543e-15
-5.68434e-14
-3.55271e-15
1.06581e-14
-1.06581e-14
-7.10543e-15
1.06581e-13
8.52651e-14
-3.19744e-14
-7.10543e-14
-3.90799e-14
6.39488e-14
6.03961e-14
0
8.52651e-14
2.4869e-14
0
-1.42109e-14
-1.59872e-13
-1.77636e-13
-8.17124e-14
-7.10543e-15
-3.55271e-14
-2.0961e-13
-3.33955e-13
-1.03029e-13
-2.13163e-14
-4.26326e-14
-1.06581e-14
4.9738e-14
9.9476e-14
1.03029e-13
1.88294e-13
1.27898e-13
5.32907e-14
9.9476e-14
1.77636e-14
-7.10543e-14
-1.45661e-13
-1.38556e-13
-8.88178e-14
-7.81597e-14
-7.81597e-14
-1.20792e-13
-1.49214e-13
5.32907e-14
-1.06581e-14
6.03961e-14
9.59233e-14
-1.77636e-14
-1.03029e-13
-7.81597e-14
-1.06581e-13
-1.88294e-13
-1.59872e-13
3.55271e-14
1.45661e-13
1.10134e-13
3.55271e-14
-3.55271e-14
6.39488e-14
1.52767e-13
1.3145e-13
-1.35003e-13
-4.9738e-14
-7.10543e-14
-2.13163e-14
6.75016e-14
1.24345e-13
4.26326e-14
1.03029e-13
1.27898e-13
-7.10543e-14
-1.66978e-13
-3.19744e-14
0
1.59872e-13
1.06581e-13
9.9476e-14
-3.55271e-15
1.1724e-13
4.26326e-14
-7.10543e-15
3.55271e-14
1.06581e-14
-8.52651e-14
-2.30926e-13
-2.13163e-13
-2.80664e-13
-1.77636e-13
-7.4607e-14
1.42109e-14
6.39488e-14
4.26326e-14
-1.38556e-13
-1.56319e-13
-9.9476e-14
4.9738e-14
1.52767e-13
1.74083e-13
1.27898e-13
2.73559e-13
2.59348e-13
8.17124e-14
-1.06581e-14
-8.17124e-14
4.61853e-14
1.56319e-13
5.68434e-14
-8.52651e-14
-3.55271e-14
1.42109e-14
2.84217e-14
1.38556e-13
-2.4869e-14
4.61853e-14
1.88294e-13
1.35003e-13
2.84217e-14
-7.10543e-15
2.84217e-14
9.59233e-14
6.75016e-14
2.13163e-14
-2.02505e-13
-1.13687e-13
2.4869e-14
1.38556e-13
1.45661e-13
1.74083e-13
3.30402e-13
2.84217e-13
1.81188e-13
1.49214e-13
8.88178e-14
3.55271e-15
7.10543e-15
2.84217e-14
8.17124e-14
-2.4869e-14
-7.81597e-14
-7.10543e-15
-4.26326e-14
-8.88178e-14
-1.59872e-13
-8.52651e-14
-4.26326e-14
3.55271e-14
1.56319e-13
-7.10543e-15
-4.26326e-14
1.77636e-14
5.32907e-14
2.55795e-13
2.91323e-13
3.58824e-13
3.16192e-13
2.70006e-13
2.27374e-13
1.38556e-13
2.41585e-13
1.42109e-13
2.91323e-13
3.51719e-13
3.30402e-13
2.38032e-13
2.4869e-13
1.1724e-13
1.13687e-13
-1.06581e-14
-9.23706e-14
-1.63425e-13
-1.45661e-13
1.81188e-13
2.4869e-13
2.70006e-13
3.33955e-13
2.38032e-13
1.91847e-13
2.30926e-13
1.10134e-13
6.75016e-14
6.75016e-14
1.52767e-13
6.75016e-14
1.20792e-13
1.63425e-13
-2.4869e-14
-7.4607e-14
-2.13163e-13
-1.24345e-13
-2.13163e-14
-1.20792e-13
-3.19744e-14
0
1.06581e-13
4.9738e-14
1.3145e-13
8.52651e-14
8.52651e-14
-1.27898e-13
-1.84741e-13
-3.48166e-13
-2.94875e-13
-3.30402e-13
-1.45661e-13
-1.52767e-13
-4.26326e-14
-1.24345e-13
-2.62901e-13
-3.97904e-13
-2.70006e-13
-3.09086e-13
-3.55271e-13
-3.01981e-13
-2.73559e-13
-2.55795e-13
-2.73559e-13
-1.52767e-13
-1.77636e-13
-9.9476e-14
1.06581e-14
1.84741e-13
2.13163e-13
1.10134e-13
-1.3145e-13
-2.0961e-13
-2.06057e-13
-2.38032e-13
-1.13687e-13
-1.38556e-13
-1.91847e-13
-2.20268e-13
-2.94875e-13
-3.16192e-13
-3.69482e-13
-4.12115e-13
-5.08038e-13
-4.68958e-13
-3.51719e-13
-1.49214e-13
1.06581e-14
1.42109e-13
2.41585e-13
1.63425e-13
-3.55271e-15
-6.03961e-14
-1.03029e-13
-1.24345e-13
-9.59233e-14
-1.1724e-13
-6.03961e-14
8.52651e-14
3.55271e-15
1.88294e-13
2.41585e-13
2.52243e-13
7.10543e-14
-1.42109e-13
-2.66454e-13
-1.81188e-13
-1.81188e-13
-1.38556e-13
-7.10543e-14
-1.24345e-13
-1.10134e-13
-7.10543e-14
-2.13163e-14
1.06581e-13
2.41585e-13
9.59233e-14
2.13163e-14
1.06581e-13
1.45661e-13
2.80664e-13
6.75016e-14
1.10134e-13
1.88294e-13
3.8014e-13
3.94351e-13
5.00933e-13
3.48166e-13
2.70006e-13
1.3145e-13
-9.23706e-14
-6.03961e-14
-1.24345e-13
-6.03961e-14
-7.10543e-15
-1.1724e-13
-1.10134e-13
5.32907e-14
2.34479e-13
2.27374e-13
4.08562e-13
1.1724e-13
1.42109e-13
3.55271e-14
-3.19744e-14
-8.52651e-14
7.10543e-15
6.75016e-14
3.55271e-14
-6.03961e-14
-2.4869e-14
-9.59233e-14
-5.68434e-14
-2.4869e-14
-7.81597e-14
-1.7053e-13
-1.59872e-13
-7.10543e-15
-1.03029e-13
-1.1724e-13
-3.90799e-14
1.06581e-14
6.39488e-14
1.1724e-13
1.06581e-13
-1.77636e-14
-3.55271e-15
-3.55271e-15
3.90799e-14
-3.19744e-14
7.81597e-14
2.02505e-13
2.13163e-14
-1.3145e-13
-4.26326e-14
-1.42109e-14
-8.52651e-14
-5.32907e-14
-3.90799e-14
-8.17124e-14
3.90799e-14
1.27898e-13
5.32907e-14
4.9738e-14
-3.19744e-14
6.03961e-14
1.35003e-13
1.06581e-14
-2.13163e-14
7.10543e-14
2.84217e-14
7.10543e-15
0
2.13163e-14
-4.61853e-14
-9.59233e-14
-1.59872e-13
-1.27898e-13
-1.06581e-14
1.42109e-14
8.88178e-14
-7.10543e-15
-3.55271e-15
-1.03029e-13
-3.90799e-14
4.61853e-14
1.06581e-14
3.90799e-14
0
-1.77636e-14
-2.84217e-14
-3.55271e-15
-2.13163e-14
8.88178e-14
2.4869e-13
1.98952e-13
8.88178e-14
-7.4607e-14
-1.35003e-13
-6.39488e-14
-1.49214e-13
-1.7053e-13
-7.10543e-14
-1.49214e-13
-1.38556e-13
-1.10134e-13
3.19744e-14
1.03029e-13
1.13687e-13
3.55271e-14
-4.26326e-14
6.03961e-14
8.17124e-14
-1.42109e-14
-6.03961e-14
2.4869e-14
8.52651e-14
2.34479e-13
2.91323e-13
3.62377e-13
3.69482e-13
1.98952e-13
2.45137e-13
3.87246e-13
)
;

boundaryField
{
    sides
    {
        type            calculated;
        value           nonuniform List<scalar> 2(3.34694e-13 3.43399e-27);
    }
    empty
    {
        type            empty;
        value           nonuniform List<scalar> 0();
    }
}


// ************************************************************************* //
