/*--------------------------------*- C++ -*----------------------------------*\
  =========                 |
  \\      /  F ield         | OpenFOAM: The Open Source CFD Toolbox
   \\    /   O peration     | Website:  https://openfoam.org
    \\  /    A nd           | Version:  9
     \\/     M anipulation  |
\*---------------------------------------------------------------------------*/
FoamFile
{
    format      ascii;
    class       volVectorField;
    location    "0.001";
    object      U_0;
}
// * * * * * * * * * * * * * * * * * * * * * * * * * * * * * * * * * * * * * //

dimensions      [0 1 -1 0 0 0 0];

internalField   nonuniform List<vector> 
1000
(
(-6.90977e-15 0 0)
(-3.05566e-13 0 0)
(-2.62571e-13 0 0)
(1.39731e-13 0 0)
(1.38195e-13 0 0)
(2.31861e-13 0 0)
(2.84836e-13 0 0)
(3.43953e-13 0 0)
(5.97312e-13 0 0)
(4.92897e-13 0 0)
(5.08252e-13 0 0)
(4.01535e-13 0 0)
(3.08637e-13 0 0)
(5.78885e-13 0 0)
(8.27637e-13 0 0)
(1.07485e-12 0 0)
(8.09211e-13 0 0)
(7.06332e-13 0 0)
(5.1593e-13 0 0)
(1.4357e-13 0 0)
(9.44336e-14 0 0)
(5.14394e-14 0 0)
(-1.23608e-13 0 0)
(2.19577e-13 0 0)
(4.24567e-13 0 0)
(7.73127e-13 0 0)
(6.32628e-13 0 0)
(3.70825e-13 0 0)
(3.04798e-13 0 0)
(-5.29749e-14 0 0)
(4.37619e-14 0 0)
(7.67753e-16 0 0)
(1.53551e-14 0 0)
(2.63339e-13 0 0)
(5.04413e-13 0 0)
(7.88482e-13 0 0)
(6.2188e-13 0 0)
(2.44145e-13 0 0)
(2.20345e-13 0 0)
(2.25719e-13 0 0)
(-1.97312e-13 0 0)
(-5.37427e-13 0 0)
(-4.72168e-13 0 0)
(-6.13434e-13 0 0)
(-4.4069e-13 0 0)
(-3.81573e-13 0 0)
(-8.3685e-14 0 0)
(-7.67753e-16 0 0)
(3.13243e-13 0 0)
(1.01343e-12 0 0)
(4.76007e-13 0 0)
(4.39922e-13 0 0)
(2.91746e-13 0 0)
(2.84836e-13 0 0)
(3.68521e-14 0 0)
(1.8119e-13 0 0)
(-1.38195e-13 0 0)
(-1.8119e-13 0 0)
(5.14394e-14 0 0)
(2.25719e-13 0 0)
(4.22264e-13 0 0)
(1.95777e-13 0 0)
(1.14395e-13 0 0)
(1.97312e-13 0 0)
(8.98271e-14 0 0)
(1.99616e-13 0 0)
(-2.95585e-13 0 0)
(-3.85412e-13 0 0)
(-1.90403e-13 0 0)
(-3.60076e-13 0 0)
(-4.476e-13 0 0)
(-9.57388e-13 0 0)
(-5.9117e-13 0 0)
(-4.15354e-13 0 0)
(1.45873e-14 0 0)
(1.44337e-13 0 0)
(4.73703e-13 0 0)
(3.45489e-13 0 0)
(3.46256e-13 0 0)
(-5.68137e-14 0 0)
(-4.75239e-13 0 0)
(-1.83493e-13 0 0)
(-1.9117e-13 0 0)
(1.13627e-13 0 0)
(7.83108e-14 0 0)
(2.18042e-13 0 0)
(3.7236e-13 0 0)
(-2.54894e-13 0 0)
(-3.43953e-13 0 0)
(-4.72936e-13 0 0)
(-1.58157e-13 0 0)
(3.30134e-13 0 0)
(5.49711e-13 0 0)
(4.61419e-13 0 0)
(2.70249e-13 0 0)
(1.58925e-13 0 0)
(9.98078e-14 0 0)
(-7.67753e-16 0 0)
(9.36658e-14 0 0)
(-6.90977e-15 0 0)
(1.82725e-13 0 0)
(1.53551e-15 0 0)
(2.40307e-13 0 0)
(1.15163e-13 0 0)
(1.81957e-13 0 0)
(1.78119e-13 0 0)
(1.33589e-13 0 0)
(-1.2975e-13 0 0)
(-3.13243e-13 0 0)
(-3.43953e-13 0 0)
(1.5048e-13 0 0)
(1.37428e-13 0 0)
(4.99039e-14 0 0)
(-3.86947e-13 0 0)
(-2.62571e-13 0 0)
(-5.34356e-13 0 0)
(-6.85603e-13 0 0)
(-3.63147e-13 0 0)
(-8.0614e-14 0 0)
(2.14971e-14 0 0)
(-1.15931e-13 0 0)
(-1.31286e-13 0 0)
(-1.6046e-13 0 0)
(-4.51439e-13 0 0)
(-1.14395e-13 0 0)
(-4.91362e-14 0 0)
(-1.05182e-13 0 0)
(-8.52205e-14 0 0)
(-4.60652e-14 0 0)
(4.34548e-13 0 0)
(7.78501e-13 0 0)
(9.98846e-13 0 0)
(7.31668e-13 0 0)
(2.92514e-13 0 0)
(-3.44721e-13 0 0)
(-2.05758e-13 0 0)
(4.52974e-14 0 0)
(1.11324e-13 0 0)
(-5.03646e-13 0 0)
(-6.72551e-13 0 0)
(-9.57388e-13 0 0)
(-7.86946e-13 0 0)
(-6.11131e-13 0 0)
(-7.29365e-14 0 0)
(2.24952e-13 0 0)
(8.16121e-13 0 0)
(4.38387e-13 0 0)
(-5.83492e-14 0 0)
(-4.99039e-14 0 0)
(3.59308e-13 0 0)
(2.75623e-13 0 0)
(-1.10556e-13 0 0)
(7.06332e-14 0 0)
(3.45489e-14 0 0)
(1.82725e-13 0 0)
(4.52974e-14 0 0)
(3.11708e-13 0 0)
(9.21303e-14 0 0)
(-1.45873e-14 0 0)
(3.49327e-13 0 0)
(5.48175e-13 0 0)
(2.21881e-13 0 0)
(9.75046e-14 0 0)
(-4.59116e-13 0 0)
(-5.9117e-13 0 0)
(-1.07409e-12 0 0)
(-8.62186e-13 0 0)
(-6.25718e-13 0 0)
(1.01343e-13 0 0)
(3.03262e-13 0 0)
(5.0211e-13 0 0)
(6.28789e-13 0 0)
(1.55086e-13 0 0)
(1.97312e-13 0 0)
(9.52013e-14 0 0)
(2.25719e-13 0 0)
(-7.29365e-14 0 0)
(2.1881e-13 0 0)
(1.39731e-13 0 0)
(2.48752e-13 0 0)
(1.75048e-13 0 0)
(2.47216e-13 0 0)
(-8.44528e-15 0 0)
(1.24376e-13 0 0)
(1.68906e-13 0 0)
(1.79654e-13 0 0)
(2.10364e-13 0 0)
(1.53551e-15 0 0)
(1.17466e-13 0 0)
(8.0614e-14 0 0)
(-6.14202e-15 0 0)
(1.52783e-13 0 0)
(3.86947e-13 0 0)
(4.59116e-13 0 0)
(6.48751e-13 0 0)
(5.5355e-13 0 0)
(2.82533e-13 0 0)
(-4.52974e-14 0 0)
(-5.9117e-14 0 0)
(-1.38195e-13 0 0)
(-1.30518e-13 0 0)
(-1.08253e-13 0 0)
(9.98078e-15 0 0)
(-1.91938e-14 0 0)
(-4.22264e-14 0 0)
(-2.62571e-13 0 0)
(-4.66794e-13 0 0)
(-7.50862e-13 0 0)
(-3.28598e-13 0 0)
(1.7428e-13 0 0)
(8.29941e-13 0 0)
(9.6353e-13 0 0)
(1.13167e-12 0 0)
(5.68905e-13 0 0)
(1.08253e-13 0 0)
(-3.22456e-13 0 0)
(-2.54894e-13 0 0)
(4.37619e-14 0 0)
(3.86947e-13 0 0)
(4.92897e-13 0 0)
(5.72743e-13 0 0)
(-2.14971e-14 0 0)
(-5.28214e-13 0 0)
(-4.49903e-13 0 0)
(-3.45489e-13 0 0)
(-1.02879e-13 0 0)
(-2.46449e-13 0 0)
(-1.94241e-13 0 0)
(-4.66026e-13 0 0)
(-2.94049e-13 0 0)
(-2.2879e-13 0 0)
(7.67753e-15 0 0)
(-1.6737e-13 0 0)
(2.26487e-13 0 0)
(-2.05758e-13 0 0)
(-3.23224e-13 0 0)
(-5.42033e-13 0 0)
(-4.31477e-13 0 0)
(-6.82532e-13 0 0)
(-2.50287e-13 0 0)
(8.52205e-14 0 0)
(3.73128e-13 0 0)
(3.78502e-13 0 0)
(6.64874e-13 0 0)
(7.38578e-13 0 0)
(7.88482e-13 0 0)
(7.34739e-13 0 0)
(4.22264e-13 0 0)
(5.90402e-13 0 0)
(4.99039e-14 0 0)
(-8.0614e-14 0 0)
(-5.9117e-13 0 0)
(-4.66026e-13 0 0)
(-8.75238e-14 0 0)
(2.03454e-13 0 0)
(5.16698e-13 0 0)
(3.8618e-13 0 0)
(2.69481e-13 0 0)
(-4.53742e-13 0 0)
(-4.11515e-13 0 0)
(-5.61995e-13 0 0)
(-2.33397e-13 0 0)
(-3.50095e-13 0 0)
(-4.08444e-13 0 0)
(-5.81957e-13 0 0)
(-2.31861e-13 0 0)
(-1.15163e-13 0 0)
(-1.72744e-13 0 0)
(-4.90594e-13 0 0)
(-2.79462e-13 0 0)
(-4.52974e-14 0 0)
(4.29941e-14 0 0)
(-1.9808e-13 0 0)
(-9.21303e-15 0 0)
(3.28598e-13 0 0)
(2.86372e-13 0 0)
(1.69673e-13 0 0)
(2.36468e-13 0 0)
(3.24759e-13 0 0)
(-2.23416e-13 0 0)
(-3.14779e-13 0 0)
(-7.26294e-13 0 0)
(-4.85987e-13 0 0)
(-2.05758e-13 0 0)
(1.81957e-13 0 0)
(5.7044e-13 0 0)
(5.92705e-13 0 0)
(3.88483e-13 0 0)
(3.14779e-14 0 0)
(1.53551e-15 0 0)
(-4.52974e-14 0 0)
(-5.49711e-13 0 0)
(-2.76391e-13 0 0)
(-6.5259e-14 0 0)
(-2.38003e-14 0 0)
(1.22073e-13 0 0)
(1.01343e-13 0 0)
(2.20345e-13 0 0)
(1.62764e-13 0 0)
(-1.35892e-13 0 0)
(-1.15163e-13 0 0)
(1.39731e-13 0 0)
(1.28215e-13 0 0)
(1.85028e-13 0 0)
(2.9021e-13 0 0)
(-3.93857e-13 0 0)
(-3.64683e-13 0 0)
(-2.33397e-13 0 0)
(-3.22456e-13 0 0)
(-9.67368e-14 0 0)
(4.99039e-14 0 0)
(5.3973e-13 0 0)
(6.44912e-13 0 0)
(1.06641e-12 0 0)
(5.3973e-13 0 0)
(4.97504e-13 0 0)
(-3.98464e-13 0 0)
(-6.26486e-13 0 0)
(-7.02494e-13 0 0)
(-7.09403e-13 0 0)
(-1.66602e-13 0 0)
(-8.6756e-14 0 0)
(1.30518e-13 0 0)
(-8.13818e-14 0 0)
(6.14202e-15 0 0)
(-1.01343e-13 0 0)
(-2.07293e-14 0 0)
(-4.42993e-13 0 0)
(-6.75622e-14 0 0)
(1.34357e-13 0 0)
(5.45104e-14 0 0)
(5.22072e-14 0 0)
(-4.52974e-14 0 0)
(-1.7428e-13 0 0)
(-8.75238e-14 0 0)
(-6.14202e-15 0 0)
(2.26487e-13 0 0)
(2.9021e-13 0 0)
(-1.1286e-13 0 0)
(-3.73896e-13 0 0)
(-3.06333e-13 0 0)
(-1.88099e-13 0 0)
(-5.97312e-13 0 0)
(-8.32244e-13 0 0)
(-1.10249e-12 0 0)
(-7.93856e-13 0 0)
(-6.24951e-13 0 0)
(-4.15354e-13 0 0)
(-4.03838e-13 0 0)
(2.77159e-13 0 0)
(5.40498e-13 0 0)
(5.12091e-13 0 0)
(-3.07101e-14 0 0)
(-2.84836e-13 0 0)
(-6.63338e-13 0 0)
(-7.21687e-13 0 0)
(-1.00576e-12 0 0)
(-1.0403e-12 0 0)
(-8.42992e-13 0 0)
(-8.02302e-13 0 0)
(-3.14011e-13 0 0)
(-6.57964e-13 0 0)
(-8.29173e-14 0 0)
(-2.00383e-13 0 0)
(-2.36468e-13 0 0)
(-1.47409e-13 0 0)
(-6.62571e-13 0 0)
(-6.24951e-13 0 0)
(-4.35316e-13 0 0)
(-2.54894e-13 0 0)
(-1.55086e-13 0 0)
(-2.51823e-13 0 0)
(2.84068e-14 0 0)
(-1.01343e-13 0 0)
(-1.4357e-13 0 0)
(1.99616e-13 0 0)
(5.92705e-13 0 0)
(1.04491e-12 0 0)
(8.1305e-13 0 0)
(7.6852e-13 0 0)
(4.95968e-13 0 0)
(5.38195e-13 0 0)
(5.0902e-13 0 0)
(3.76967e-13 0 0)
(3.3474e-13 0 0)
(4.00767e-13 0 0)
(8.46063e-13 0 0)
(8.17657e-13 0 0)
(4.24567e-13 0 0)
(-4.99039e-14 0 0)
(-7.98463e-14 0 0)
(-4.90594e-13 0 0)
(-4.70632e-13 0 0)
(-2.72552e-13 0 0)
(2.07293e-14 0 0)
(1.62764e-13 0 0)
(7.10171e-13 0 0)
(5.41266e-13 0 0)
(4.01535e-13 0 0)
(5.98079e-13 0 0)
(7.88482e-13 0 0)
(9.12858e-13 0 0)
(8.11515e-13 0 0)
(9.41265e-13 0 0)
(1.00652e-12 0 0)
(8.60651e-13 0 0)
(7.70824e-13 0 0)
(6.32628e-13 0 0)
(-9.75046e-14 0 0)
(-1.26679e-13 0 0)
(7.1401e-14 0 0)
(1.02111e-13 0 0)
(-2.0499e-13 0 0)
(7.67753e-15 0 0)
(-3.63915e-13 0 0)
(1.75048e-13 0 0)
(1.04414e-13 0 0)
(1.39731e-13 0 0)
(-1.23608e-13 0 0)
(-1.95777e-13 0 0)
(-3.33972e-13 0 0)
(-5.5355e-13 0 0)
(-6.43377e-13 0 0)
(-3.59308e-13 0 0)
(4.60652e-15 0 0)
(1.72744e-13 0 0)
(-8.90593e-14 0 0)
(-5.06717e-14 0 0)
(-2.14971e-14 0 0)
(-2.92514e-13 0 0)
(-6.53357e-13 0 0)
(-1.93474e-13 0 0)
(1.35662e-12 0 0)
(6.60651e-12 0 0)
(2.58571e-11 0 0)
(9.94508e-11 0 0)
(3.74296e-10 0 0)
(1.37551e-09 0 0)
(4.94876e-09 0 0)
(1.74286e-08 0 0)
(6.00538e-08 0 0)
(2.02339e-07 0 0)
(6.66138e-07 0 0)
(2.14116e-06 0 0)
(6.71363e-06 0 0)
(2.05154e-05 0 0)
(6.10345e-05 0 0)
(0.000176585 0 0)
(0.000496231 0 0)
(0.0013526 0 0)
(0.00357069 0 0)
(0.00911351 0 0)
(0.0224455 0 0)
(0.0532264 0 0)
(0.121225 0 0)
(0.264429 0 0)
(0.55075 0 0)
(1.0917 0 0)
(2.05247 0 0)
(3.64807 0 0)
(6.11338 0 0)
(9.64136 0 0)
(14.2992 0 0)
(19.958 0 0)
(26.3198 0 0)
(33.0695 0 0)
(40.009 0 0)
(47.0583 0 0)
(54.1944 0 0)
(61.4081 0 0)
(68.691 0 0)
(76.0347 0 0)
(83.4314 0 0)
(90.8738 0 0)
(98.3555 0 0)
(105.87 0 0)
(113.411 0 0)
(120.972 0 0)
(128.547 0 0)
(136.128 0 0)
(143.711 0 0)
(151.283 0 0)
(158.851 0 0)
(166.377 0 0)
(173.899 0 0)
(181.36 0 0)
(188.778 0 0)
(196.158 0 0)
(203.441 0 0)
(210.64 0 0)
(217.761 0 0)
(224.747 0 0)
(231.575 0 0)
(238.252 0 0)
(244.74 0 0)
(250.974 0 0)
(256.923 0 0)
(262.568 0 0)
(267.852 0 0)
(272.702 0 0)
(277.058 0 0)
(280.931 0 0)
(284.217 0 0)
(286.964 0 0)
(289.128 0 0)
(290.559 0 0)
(291.671 0 0)
(292.498 0 0)
(292.943 0 0)
(293.187 0 0)
(293.234 0 0)
(293.178 0 0)
(293.121 0 0)
(293.074 0 0)
(293.012 0 0)
(292.954 0 0)
(292.891 0 0)
(292.789 0 0)
(292.726 0 0)
(292.675 0 0)
(292.559 0 0)
(292.531 0 0)
(292.593 0 0)
(292.759 0 0)
(293.013 0 0)
(293.683 0 0)
(293.658 0 0)
(292.613 0 0)
(291.946 0 0)
(291.8 0 0)
(292.017 0 0)
(291.988 0 0)
(291.808 0 0)
(291.952 0 0)
(292.051 0 0)
(291.82 0 0)
(291.742 0 0)
(291.789 0 0)
(291.658 0 0)
(291.459 0 0)
(291.239 0 0)
(290.894 0 0)
(290.723 0 0)
(290.276 0 0)
(289.665 0 0)
(289.326 0 0)
(288.417 0 0)
(287.515 0 0)
(285.941 0 0)
(283.446 0 0)
(282.269 0 0)
(277.792 0 0)
(270.328 0 0)
(247.056 0 0)
(159.962 0 0)
(47.273 0 0)
(8.23808 0 0)
(1.22038 0 0)
(0.16472 0 0)
(0.0218334 0 0)
(0.00288863 0 0)
(0.00038216 0 0)
(5.05421e-05 0 0)
(6.67991e-06 0 0)
(8.8219e-07 0 0)
(1.16429e-07 0 0)
(1.53579e-08 0 0)
(2.02458e-09 0 0)
(2.66725e-10 0 0)
(3.5071e-11 0 0)
(5.02034e-12 0 0)
(9.34356e-13 0 0)
(4.39155e-13 0 0)
(3.80038e-13 0 0)
(9.52015e-14 0 0)
(6.44913e-14 0 0)
(7.98464e-14 0 0)
(2.90979e-13 0 0)
(3.57773e-13 0 0)
(-1.17466e-13 0 0)
(1.86564e-13 0 0)
(2.30326e-15 0 0)
(3.38579e-13 0 0)
(7.67754e-15 0 0)
(-1.02111e-13 0 0)
(-5.76583e-13 0 0)
(-4.45297e-14 0 0)
(-1.24376e-13 0 0)
(2.04222e-13 0 0)
(2.77159e-13 0 0)
(-9.9808e-14 0 0)
(-1.881e-13 0 0)
(-4.45297e-14 0 0)
(-3.23224e-13 0 0)
(-1.82725e-13 0 0)
(1.39731e-13 0 0)
(5.48176e-13 0 0)
(-7.44721e-14 0 0)
(2.09597e-13 0 0)
(2.11132e-13 0 0)
(1.31286e-13 0 0)
(5.2975e-14 0 0)
(-2.67946e-13 0 0)
(8.67562e-14 0 0)
(-1.53551e-14 0 0)
(5.75815e-14 0 0)
(-1.53551e-15 0 0)
(3.68522e-14 0 0)
(2.12668e-13 0 0)
(1.24376e-13 0 0)
(-2.19578e-13 0 0)
(-7.98464e-14 0 0)
(-4.29942e-14 0 0)
(1.68906e-13 0 0)
(9.28982e-14 0 0)
(1.44338e-13 0 0)
(1.88867e-13 0 0)
(-1.45873e-14 0 0)
(-1.44338e-13 0 0)
(-5.14395e-14 0 0)
(-4.0998e-13 0 0)
(-2.68714e-13 0 0)
(-9.28982e-14 0 0)
(1.61228e-14 0 0)
(-2.41842e-13 0 0)
(-4.04606e-13 0 0)
(-5.18234e-13 0 0)
(-1.58157e-13 0 0)
(-1.2975e-13 0 0)
(-4.3762e-14 0 0)
(2.22649e-14 0 0)
(1.09789e-13 0 0)
(1.6737e-13 0 0)
(4.43762e-13 0 0)
(4.01535e-13 0 0)
(5.83493e-14 0 0)
(1.46641e-13 0 0)
(1.52783e-13 0 0)
(-5.83493e-14 0 0)
(-2.78695e-13 0 0)
(-3.91554e-14 0 0)
(-2.84837e-13 0 0)
(-2.61036e-13 0 0)
(-3.18618e-13 0 0)
(-6.52591e-14 0 0)
(-3.73896e-13 0 0)
(2.22649e-14 0 0)
(4.3762e-14 0 0)
(4.29942e-14 0 0)
(4.60652e-14 0 0)
(1.9808e-13 0 0)
(-2.78695e-13 0 0)
(1.4357e-13 0 0)
(-1.91171e-13 0 0)
(-2.62572e-13 0 0)
(-5.38963e-13 0 0)
(-2.31094e-13 0 0)
(2.64107e-13 0 0)
(2.0499e-13 0 0)
(1.81958e-13 0 0)
(-3.76199e-14 0 0)
(-1.72129e-27 0 0)
(1.81958e-13 0 0)
(5.03646e-13 0 0)
(-8.98272e-14 0 0)
(-1.48176e-13 0 0)
(-7.67754e-16 0 0)
(-1.88867e-13 0 0)
(-2.07294e-14 0 0)
(1.69674e-13 0 0)
(1.45873e-13 0 0)
(1.73512e-13 0 0)
(2.12668e-13 0 0)
(8.90594e-14 0 0)
(-3.37812e-13 0 0)
(-4.3762e-14 0 0)
(-1.38963e-13 0 0)
(3.04798e-13 0 0)
(1.90403e-13 0 0)
(2.78695e-13 0 0)
(-1.59693e-13 0 0)
(2.1881e-13 0 0)
(1.31286e-13 0 0)
(3.60844e-14 0 0)
(-7.37044e-14 0 0)
(2.40307e-13 0 0)
(-1.52015e-13 0 0)
(-4.238e-13 0 0)
(-2.71017e-13 0 0)
(-6.27255e-13 0 0)
(-4.89059e-13 0 0)
(-1.52783e-13 0 0)
(-1.96545e-13 0 0)
(2.03455e-13 0 0)
(2.55662e-13 0 0)
(-2.38004e-13 0 0)
(-4.73704e-13 0 0)
(-1.11324e-13 0 0)
(1.99616e-14 0 0)
(1.25144e-13 0 0)
(3.50863e-13 0 0)
(2.91746e-13 0 0)
(9.75047e-14 0 0)
(4.35316e-13 0 0)
(3.43186e-13 0 0)
(9.44337e-14 0 0)
(-1.75048e-13 0 0)
(-2.30326e-15 0 0)
(4.27639e-13 0 0)
(3.12476e-13 0 0)
(-8.44529e-15 0 0)
(-2.67946e-13 0 0)
(-1.65835e-13 0 0)
(7.37044e-14 0 0)
(8.82917e-14 0 0)
(2.47217e-13 0 0)
(-1.12092e-13 0 0)
(3.14779e-13 0 0)
(2.21113e-13 0 0)
(1.75816e-13 0 0)
(-3.83877e-14 0 0)
(2.44913e-13 0 0)
(1.00576e-13 0 0)
(2.119e-13 0 0)
(1.39731e-13 0 0)
(-1.66603e-13 0 0)
(-5.75048e-13 0 0)
(-1.09021e-13 0 0)
(2.11132e-13 0 0)
(3.27831e-13 0 0)
(2.04222e-13 0 0)
(5.33589e-13 0 0)
(4.69098e-13 0 0)
(5.09788e-13 0 0)
(4.43762e-13 0 0)
(1.38963e-13 0 0)
(3.14779e-14 0 0)
(-1.00576e-13 0 0)
(-5.68138e-14 0 0)
(1.23608e-13 0 0)
(3.83877e-13 0 0)
(-1.85796e-13 0 0)
(3.53167e-14 0 0)
(4.9904e-14 0 0)
(-1.7428e-13 0 0)
(-4.72936e-13 0 0)
(-1.6737e-13 0 0)
(-1.39731e-13 0 0)
(1.21305e-13 0 0)
(2.26487e-13 0 0)
(1.54319e-13 0 0)
(-1.75048e-13 0 0)
(-7.06333e-14 0 0)
(-4.22265e-14 0 0)
(1.9808e-13 0 0)
(4.32245e-13 0 0)
(6.86372e-13 0 0)
(6.93282e-13 0 0)
(6.04222e-13 0 0)
(5.6046e-13 0 0)
(2.84069e-13 0 0)
(3.94625e-13 0 0)
(3.43186e-13 0 0)
(3.29366e-13 0 0)
(5.33589e-13 0 0)
(8.39923e-13 0 0)
(5.39731e-13 0 0)
(3.87716e-13 0 0)
(4.29942e-13 0 0)
(1.96545e-13 0 0)
(2.03455e-13 0 0)
(-9.6737e-14 0 0)
(-1.61996e-13 0 0)
(-2.72553e-13 0 0)
(-1.2975e-13 0 0)
(4.83685e-13 0 0)
(4.31478e-13 0 0)
(4.82917e-13 0 0)
(5.68906e-13 0 0)
(6.68714e-13 0 0)
(3.43186e-13 0 0)
(2.41842e-13 0 0)
(2.97888e-13 0 0)
(4.91362e-14 0 0)
(4.3071e-13 0 0)
(7.67754e-15 0 0)
(2.84069e-13 0 0)
(2.1881e-13 0 0)
(3.26295e-13 0 0)
(-2.05758e-13 0 0)
(-2.33397e-13 0 0)
(-3.51631e-13 0 0)
(-1.28983e-13 0 0)
(-2.61036e-13 0 0)
(-2.10365e-13 0 0)
(-1.45873e-14 0 0)
(1.09021e-13 0 0)
(1.61228e-13 0 0)
(1.83493e-13 0 0)
(2.30326e-15 0 0)
(2.91746e-13 0 0)
(-5.98848e-14 0 0)
(-2.0499e-13 0 0)
(-6.41074e-13 0 0)
(-6.41842e-13 0 0)
(-5.70441e-13 0 0)
(-4.39155e-13 0 0)
(-2.28023e-13 0 0)
(4.60652e-15 0 0)
(-5.9117e-14 0 0)
(-2.84837e-13 0 0)
(-8.66026e-13 0 0)
(-8.27639e-13 0 0)
(-7.19385e-13 0 0)
(-5.39731e-13 0 0)
(-7.52399e-13 0 0)
(-4.52207e-13 0 0)
(-7.00191e-13 0 0)
(-3.73896e-13 0 0)
(-4.39155e-13 0 0)
(-1.33589e-13 0 0)
(-3.28599e-13 0 0)
(-2.26487e-13 0 0)
(2.5643e-13 0 0)
(3.37044e-13 0 0)
(4.238e-13 0 0)
(-1.45105e-13 0 0)
(-3.21689e-13 0 0)
(-4.36852e-13 0 0)
(-5.5355e-13 0 0)
(-4.14587e-13 0 0)
(-2.24952e-13 0 0)
(-3.57773e-13 0 0)
(-2.72553e-13 0 0)
(-3.59309e-13 0 0)
(-6.86372e-13 0 0)
(-6.78694e-13 0 0)
(-7.00959e-13 0 0)
(-9.99615e-13 0 0)
(-9.42034e-13 0 0)
(-8.03838e-13 0 0)
(-4.89059e-13 0 0)
(-1.24376e-13 0 0)
(2.119e-13 0 0)
(1.92706e-13 0 0)
(4.38387e-13 0 0)
(3.11708e-13 0 0)
(-1.47409e-13 0 0)
(-1.87332e-13 0 0)
(-4.56813e-13 0 0)
(-1.73512e-13 0 0)
(-3.71593e-13 0 0)
(-6.83301e-14 0 0)
(7.90786e-14 0 0)
(1.8119e-13 0 0)
(-5.14395e-14 0 0)
(6.20345e-13 0 0)
(5.23608e-13 0 0)
(5.2284e-13 0 0)
(-2.30326e-14 0 0)
(-5.10556e-13 0 0)
(-5.97312e-13 0 0)
(-2.48752e-13 0 0)
(-2.41075e-13 0 0)
(-3.04798e-13 0 0)
(-1.6737e-13 0 0)
(-2.70249e-13 0 0)
(-1.16699e-13 0 0)
(-9.52015e-14 0 0)
(-2.76391e-14 0 0)
(2.71785e-13 0 0)
(4.39923e-13 0 0)
(-1.60461e-13 0 0)
(2.6334e-13 0 0)
(5.14395e-14 0 0)
(5.19002e-13 0 0)
(2.62572e-13 0 0)
(1.95009e-13 0 0)
(3.49328e-13 0 0)
(5.32053e-13 0 0)
(8.53742e-13 0 0)
(7.60844e-13 0 0)
(9.27447e-13 0 0)
(5.68138e-13 0 0)
(3.57773e-13 0 0)
(1.28983e-13 0 0)
(-2.84837e-13 0 0)
(-4.3762e-14 0 0)
(-2.90979e-13 0 0)
(-6.44913e-14 0 0)
(-4.52975e-14 0 0)
(-1.83493e-13 0 0)
(-2.61804e-13 0 0)
(4.3762e-13 0 0)
(4.51439e-13 0 0)
(6.94049e-13 0 0)
(4.17658e-13 0 0)
(2.54126e-13 0 0)
(2.11132e-13 0 0)
(6.52591e-14 0 0)
(-1.90403e-13 0 0)
(-1.45873e-14 0 0)
(8.75239e-14 0 0)
(1.89635e-13 0 0)
(-8.75239e-14 0 0)
(-1.59693e-13 0 0)
(-1.45873e-14 0 0)
(-2.90979e-13 0 0)
(-7.44316e-28 0 0)
(-2.22649e-14 0 0)
(-2.55662e-13 0 0)
(-4.16123e-13 0 0)
(-1.30518e-13 0 0)
(-7.98464e-14 0 0)
(-2.0499e-13 0 0)
(-1.30518e-13 0 0)
(-2.10365e-13 0 0)
(1.10557e-13 0 0)
(1.60461e-13 0 0)
(2.84069e-13 0 0)
(1.15163e-13 0 0)
(1.99616e-14 0 0)
(-1.45873e-14 0 0)
(3.68522e-14 0 0)
(5.14395e-14 0 0)
(-1.53551e-13 0 0)
(4.60652e-13 0 0)
(1.32821e-13 0 0)
(-1.10557e-13 0 0)
(-1.83493e-13 0 0)
(-2.84069e-14 0 0)
(-1.22841e-13 0 0)
(-1.90403e-13 0 0)
(4.91362e-14 0 0)
(-1.39731e-13 0 0)
(-1.59693e-13 0 0)
(2.55662e-13 0 0)
(1.81958e-13 0 0)
(8.06141e-14 0 0)
(1.45873e-14 0 0)
(-2.99424e-14 0 0)
(2.119e-13 0 0)
(1.68138e-13 0 0)
(-8.06141e-14 0 0)
(-2.84069e-14 0 0)
(2.11132e-13 0 0)
(6.44913e-14 0 0)
(-7.90786e-14 0 0)
(8.75239e-14 0 0)
(3.84952e-29 0 0)
(-1.38196e-13 0 0)
(-2.91746e-13 0 0)
(-3.28599e-13 0 0)
(-7.14011e-14 0 0)
(-1.15931e-13 0 0)
(2.83301e-13 0 0)
(4.9904e-14 0 0)
(6.90978e-15 0 0)
(-8.44529e-15 0 0)
(-1.83493e-13 0 0)
(-5.37428e-15 0 0)
(9.21304e-15 0 0)
(-2.14971e-14 0 0)
(8.75239e-14 0 0)
(-2.22649e-14 0 0)
(-3.68522e-14 0 0)
(-1.45873e-14 0 0)
(-1.53551e-14 0 0)
(6.52591e-14 0 0)
(1.41267e-13 0 0)
(4.5451e-13 0 0)
(2.41075e-13 0 0)
(1.3666e-13 0 0)
(-1.42802e-13 0 0)
(6.14203e-15 0 0)
(-4.72936e-13 0 0)
(-3.49328e-13 0 0)
(-1.89635e-13 0 0)
(-1.24376e-13 0 0)
(-3.07101e-13 0 0)
(-2.99424e-13 0 0)
(-1.2975e-13 0 0)
(1.75816e-13 0 0)
(1.83493e-13 0 0)
(1.52783e-13 0 0)
(1.38196e-14 0 0)
(-1.38196e-13 0 0)
(2.99424e-13 0 0)
(6.60268e-14 0 0)
(-1.53551e-13 0 0)
(3.60844e-14 0 0)
(1.53551e-14 0 0)
(2.07294e-13 0 0)
(3.88483e-13 0 0)
(6.86372e-13 0 0)
(7.23992e-13 0 0)
(4.74472e-13 0 0)
(5.01343e-13 0 0)
(8.29942e-13 0 0)
(6.77927e-13 0 0)
)
;

boundaryField
{
    sides
    {
        type            zeroGradient;
    }
    empty
    {
        type            empty;
    }
}


// ************************************************************************* //
