/*--------------------------------*- C++ -*----------------------------------*\
  =========                 |
  \\      /  F ield         | OpenFOAM: The Open Source CFD Toolbox
   \\    /   O peration     | Website:  https://openfoam.org
    \\  /    A nd           | Version:  9
     \\/     M anipulation  |
\*---------------------------------------------------------------------------*/
FoamFile
{
    format      ascii;
    class       volScalarField;
    location    "0.029";
    object      T;
}
// * * * * * * * * * * * * * * * * * * * * * * * * * * * * * * * * * * * * * //

dimensions      [0 0 0 1 0 0 0];

internalField   nonuniform List<scalar> 
10000
(
219.306
219.308
219.313
219.317
219.321
219.325
219.329
219.333
219.338
219.342
219.346
219.35
219.354
219.357
219.361
219.365
219.37
219.374
219.379
219.383
219.387
219.39
219.392
219.394
219.395
219.396
219.397
219.397
219.397
219.397
219.397
219.397
219.397
219.397
219.397
219.396
219.396
219.396
219.396
219.395
219.395
219.395
219.395
219.395
219.394
219.394
219.394
219.394
219.394
219.393
219.393
219.393
219.393
219.392
219.392
219.392
219.392
219.392
219.391
219.391
219.391
219.391
219.391
219.39
219.39
219.39
219.39
219.39
219.389
219.389
219.389
219.389
219.389
219.388
219.388
219.388
219.388
219.388
219.388
219.387
219.387
219.387
219.387
219.387
219.386
219.386
219.386
219.386
219.386
219.385
219.385
219.385
219.385
219.385
219.384
219.384
219.384
219.384
219.384
219.383
219.383
219.383
219.383
219.383
219.382
219.382
219.382
219.382
219.381
219.381
219.381
219.381
219.38
219.38
219.38
219.38
219.38
219.379
219.379
219.379
219.379
219.378
219.378
219.378
219.378
219.377
219.377
219.377
219.377
219.376
219.376
219.376
219.376
219.375
219.375
219.375
219.375
219.374
219.374
219.374
219.374
219.373
219.373
219.373
219.373
219.372
219.372
219.372
219.372
219.371
219.371
219.371
219.371
219.371
219.37
219.37
219.37
219.37
219.37
219.369
219.369
219.369
219.369
219.368
219.368
219.368
219.368
219.368
219.367
219.367
219.367
219.367
219.367
219.366
219.366
219.366
219.366
219.366
219.365
219.365
219.365
219.365
219.365
219.364
219.364
219.364
219.364
219.364
219.363
219.363
219.363
219.363
219.363
219.362
219.362
219.362
219.362
219.361
219.361
219.361
219.361
219.36
219.36
219.36
219.36
219.359
219.359
219.359
219.359
219.358
219.358
219.358
219.357
219.357
219.357
219.357
219.356
219.356
219.356
219.355
219.355
219.355
219.355
219.354
219.354
219.354
219.353
219.353
219.353
219.353
219.352
219.352
219.352
219.351
219.351
219.351
219.351
219.35
219.35
219.35
219.35
219.349
219.349
219.349
219.349
219.348
219.348
219.348
219.348
219.347
219.347
219.347
219.347
219.347
219.346
219.346
219.346
219.346
219.346
219.345
219.345
219.345
219.345
219.344
219.344
219.344
219.344
219.344
219.343
219.343
219.343
219.343
219.343
219.342
219.342
219.342
219.342
219.342
219.341
219.341
219.341
219.341
219.341
219.34
219.34
219.34
219.34
219.339
219.339
219.339
219.339
219.338
219.338
219.338
219.337
219.337
219.337
219.337
219.336
219.336
219.336
219.335
219.335
219.335
219.334
219.334
219.334
219.333
219.333
219.333
219.332
219.332
219.332
219.331
219.331
219.331
219.33
219.33
219.33
219.329
219.329
219.329
219.328
219.328
219.328
219.327
219.327
219.327
219.327
219.326
219.326
219.326
219.325
219.325
219.325
219.325
219.324
219.324
219.324
219.324
219.323
219.323
219.323
219.323
219.322
219.322
219.322
219.322
219.322
219.321
219.321
219.321
219.321
219.321
219.32
219.32
219.32
219.32
219.32
219.319
219.319
219.319
219.319
219.319
219.318
219.318
219.318
219.318
219.317
219.317
219.317
219.317
219.317
219.316
219.316
219.316
219.316
219.315
219.315
219.315
219.314
219.314
219.314
219.314
219.313
219.313
219.313
219.312
219.312
219.312
219.311
219.311
219.311
219.31
219.31
219.31
219.309
219.309
219.308
219.308
219.308
219.307
219.307
219.307
219.306
219.306
219.305
219.305
219.305
219.304
219.304
219.303
219.303
219.303
219.302
219.302
219.302
219.301
219.301
219.301
219.3
219.3
219.3
219.299
219.299
219.299
219.298
219.298
219.298
219.298
219.297
219.297
219.297
219.297
219.296
219.296
219.296
219.296
219.295
219.295
219.295
219.295
219.295
219.294
219.294
219.294
219.294
219.294
219.293
219.293
219.293
219.293
219.293
219.292
219.292
219.292
219.292
219.292
219.291
219.291
219.291
219.291
219.291
219.29
219.29
219.29
219.29
219.289
219.289
219.289
219.288
219.288
219.288
219.288
219.287
219.287
219.287
219.286
219.286
219.285
219.285
219.285
219.284
219.284
219.284
219.283
219.283
219.282
219.282
219.281
219.281
219.281
219.28
219.28
219.279
219.279
219.278
219.278
219.278
219.277
219.277
219.276
219.276
219.275
219.275
219.275
219.274
219.274
219.273
219.273
219.273
219.272
219.272
219.272
219.271
219.271
219.27
219.27
219.27
219.27
219.269
219.269
219.269
219.268
219.268
219.268
219.268
219.267
219.267
219.267
219.267
219.266
219.266
219.266
219.266
219.266
219.265
219.265
219.265
219.265
219.265
219.265
219.264
219.264
219.264
219.264
219.264
219.263
219.263
219.263
219.263
219.263
219.262
219.262
219.262
219.262
219.261
219.261
219.261
219.261
219.26
219.26
219.26
219.259
219.259
219.259
219.258
219.258
219.258
219.257
219.257
219.256
219.256
219.256
219.255
219.255
219.254
219.254
219.253
219.253
219.252
219.252
219.251
219.251
219.251
219.25
219.25
219.249
219.249
219.248
219.248
219.247
219.247
219.246
219.246
219.245
219.245
219.244
219.244
219.243
219.243
219.242
219.242
219.242
219.241
219.241
219.24
219.24
219.24
219.239
219.239
219.239
219.238
219.238
219.238
219.237
219.237
219.237
219.236
219.236
219.236
219.236
219.235
219.235
219.235
219.235
219.235
219.234
219.234
219.234
219.234
219.234
219.233
219.233
219.233
219.233
219.233
219.232
219.232
219.232
219.232
219.232
219.231
219.231
219.231
219.231
219.231
219.23
219.23
219.23
219.23
219.229
219.229
219.229
219.228
219.228
219.228
219.227
219.227
219.227
219.226
219.226
219.226
219.225
219.225
219.224
219.224
219.223
219.223
219.222
219.222
219.221
219.221
219.22
219.22
219.219
219.219
219.218
219.218
219.217
219.217
219.216
219.216
219.215
219.214
219.214
219.213
219.213
219.212
219.212
219.211
219.211
219.21
219.21
219.209
219.209
219.208
219.208
219.207
219.207
219.207
219.206
219.206
219.205
219.205
219.205
219.204
219.204
219.203
219.203
219.203
219.203
219.202
219.202
219.202
219.201
219.201
219.201
219.201
219.2
219.2
219.2
219.2
219.199
219.199
219.199
219.199
219.199
219.198
219.198
219.198
219.198
219.198
219.197
219.197
219.197
219.197
219.197
219.196
219.196
219.196
219.196
219.196
219.195
219.195
219.195
219.194
219.194
219.194
219.194
219.193
219.193
219.193
219.192
219.192
219.192
219.191
219.191
219.19
219.19
219.189
219.189
219.188
219.188
219.188
219.187
219.186
219.186
219.185
219.185
219.184
219.184
219.183
219.183
219.182
219.181
219.181
219.18
219.18
219.179
219.179
219.178
219.177
219.177
219.176
219.176
219.175
219.175
219.174
219.173
219.173
219.172
219.172
219.171
219.171
219.17
219.17
219.169
219.169
219.168
219.168
219.167
219.167
219.167
219.166
219.166
219.165
219.165
219.165
219.164
219.164
219.164
219.163
219.163
219.163
219.163
219.162
219.162
219.162
219.162
219.161
219.161
219.161
219.161
219.16
219.16
219.16
219.16
219.16
219.159
219.159
219.159
219.159
219.159
219.158
219.158
219.158
219.158
219.158
219.157
219.157
219.157
219.157
219.156
219.156
219.156
219.156
219.155
219.155
219.155
219.154
219.154
219.154
219.153
219.153
219.152
219.152
219.151
219.151
219.15
219.15
219.149
219.149
219.148
219.148
219.147
219.147
219.146
219.146
219.145
219.144
219.144
219.143
219.142
219.142
219.141
219.14
219.14
219.139
219.138
219.138
219.137
219.136
219.136
219.135
219.135
219.134
219.133
219.133
219.132
219.131
219.131
219.13
219.13
219.129
219.128
219.128
219.127
219.127
219.126
219.126
219.125
219.125
219.124
219.124
219.123
219.123
219.123
219.122
219.122
219.121
219.121
219.121
219.12
219.12
219.12
219.12
219.119
219.119
219.119
219.118
219.118
219.118
219.118
219.117
219.117
219.117
219.117
219.117
219.116
219.116
219.116
219.116
219.116
219.115
219.115
219.115
219.115
219.114
219.114
219.114
219.114
219.113
219.113
219.113
219.113
219.112
219.112
219.111
219.111
219.111
219.11
219.11
219.109
219.109
219.109
219.108
219.108
219.107
219.106
219.106
219.105
219.105
219.104
219.103
219.103
219.102
219.101
219.101
219.1
219.099
219.099
219.098
219.097
219.096
219.096
219.095
219.094
219.093
219.092
219.092
219.091
219.09
219.089
219.089
219.088
219.087
219.086
219.085
219.085
219.084
219.083
219.083
219.082
219.081
219.08
219.08
219.079
219.078
219.078
219.077
219.077
219.076
219.076
219.075
219.074
219.074
219.073
219.073
219.072
219.072
219.072
219.071
219.071
219.07
219.07
219.07
219.069
219.069
219.069
219.068
219.068
219.068
219.068
219.067
219.067
219.067
219.067
219.067
219.066
219.066
219.066
219.066
219.066
219.065
219.065
219.065
219.065
219.065
219.064
219.064
219.064
219.064
219.064
219.063
219.063
219.063
219.063
219.062
219.062
219.062
219.062
219.061
219.061
219.061
219.06
219.06
219.059
219.059
219.059
219.058
219.058
219.057
219.057
219.056
219.056
219.055
219.054
219.054
219.053
219.053
219.052
219.051
219.051
219.05
219.049
219.049
219.048
219.047
219.046
219.046
219.045
219.044
219.044
219.043
219.042
219.041
219.041
219.04
219.039
219.039
219.038
219.037
219.037
219.036
219.036
219.035
219.034
219.034
219.033
219.033
219.032
219.032
219.031
219.031
219.03
219.03
219.029
219.029
219.029
219.028
219.028
219.028
219.027
219.027
219.027
219.026
219.026
219.026
219.026
219.026
219.025
219.025
219.025
219.025
219.025
219.025
219.025
219.025
219.025
219.025
219.025
219.025
219.025
219.025
219.025
219.025
219.025
219.025
219.025
219.025
219.025
219.025
219.025
219.025
219.025
219.025
219.025
219.024
219.024
219.024
219.024
219.024
219.024
219.024
219.024
219.024
219.024
219.023
219.023
219.023
219.023
219.023
219.022
219.022
219.022
219.021
219.021
219.021
219.02
219.02
219.019
219.019
219.018
219.018
219.017
219.017
219.016
219.016
219.015
219.015
219.014
219.013
219.013
219.012
219.012
219.011
219.01
219.01
219.009
219.008
219.008
219.007
219.007
219.006
219.005
219.005
219.004
219.004
219.003
219.003
219.002
219.001
219.001
219
219
218.999
218.999
218.999
218.998
218.998
218.997
218.997
218.997
218.996
218.996
218.995
218.995
218.995
218.995
218.994
218.994
218.994
218.994
218.993
218.993
218.993
218.993
218.993
218.993
218.993
218.993
218.992
218.992
218.992
218.992
218.992
218.992
218.992
218.992
218.992
218.992
218.992
218.992
218.992
218.992
218.992
218.992
218.992
218.992
218.992
218.991
218.991
218.991
218.991
218.991
218.991
218.991
218.99
218.99
218.99
218.99
218.99
218.989
218.989
218.989
218.988
218.988
218.987
218.987
218.987
218.986
218.985
218.985
218.984
218.984
218.983
218.982
218.982
218.981
218.98
218.98
218.979
218.978
218.977
218.977
218.976
218.975
218.974
218.973
218.972
218.971
218.971
218.97
218.969
218.968
218.967
218.966
218.965
218.964
218.963
218.962
218.962
218.961
218.96
218.959
218.958
218.957
218.957
218.956
218.955
218.954
218.953
218.953
218.952
218.951
218.951
218.95
218.949
218.949
218.948
218.948
218.947
218.946
218.946
218.946
218.945
218.945
218.944
218.944
218.944
218.943
218.943
218.943
218.942
218.942
218.942
218.942
218.942
218.941
218.941
218.941
218.941
218.941
218.941
218.941
218.941
218.941
218.941
218.941
218.941
218.941
218.941
218.941
218.941
218.941
218.941
218.941
218.941
218.941
218.941
218.941
218.941
218.941
218.94
218.94
218.94
218.94
218.94
218.94
218.94
218.94
218.939
218.939
218.939
218.939
218.938
218.938
218.938
218.937
218.937
218.936
218.936
218.935
218.935
218.934
218.934
218.933
218.932
218.932
218.931
218.93
218.929
218.929
218.928
218.927
218.926
218.925
218.924
218.923
218.923
218.922
218.921
218.92
218.919
218.918
218.917
218.916
218.915
218.914
218.913
218.912
218.911
218.91
218.909
218.908
218.907
218.906
218.905
218.904
218.903
218.902
218.901
218.901
218.9
218.899
218.898
218.897
218.897
218.896
218.895
218.894
218.894
218.893
218.892
218.892
218.891
218.891
218.89
218.89
218.889
218.889
218.888
218.888
218.888
218.887
218.887
218.887
218.886
218.886
218.886
218.886
218.885
218.885
218.885
218.885
218.885
218.885
218.885
218.885
218.885
218.884
218.884
218.884
218.884
218.884
218.884
218.884
218.884
218.884
218.884
218.884
218.884
218.884
218.884
218.884
218.884
218.884
218.884
218.884
218.884
218.884
218.884
218.884
218.883
218.883
218.883
218.883
218.882
218.882
218.882
218.881
218.881
218.881
218.88
218.88
218.879
218.879
218.878
218.877
218.877
218.876
218.875
218.875
218.874
218.873
218.872
218.871
218.87
218.87
218.869
218.868
218.867
218.866
218.865
218.864
218.863
218.862
218.861
218.86
218.859
218.858
218.857
218.855
218.854
218.853
218.852
218.851
218.85
218.849
218.848
218.847
218.846
218.845
218.844
218.843
218.842
218.841
218.84
218.839
218.838
218.838
218.837
218.836
218.835
218.834
218.834
218.833
218.832
218.832
218.831
218.83
218.83
218.829
218.829
218.828
218.828
218.827
218.827
218.826
218.826
218.826
218.825
218.825
218.825
218.825
218.824
218.824
218.824
218.824
218.824
218.824
218.823
218.823
218.823
218.823
218.823
218.823
218.823
218.823
218.823
218.823
218.823
218.823
218.823
218.823
218.823
218.823
218.823
218.823
218.823
218.823
218.823
218.823
218.823
218.823
218.823
218.823
218.823
218.823
218.823
218.822
218.822
218.822
218.822
218.821
218.821
218.821
218.82
218.82
218.819
218.819
218.818
218.818
218.817
218.816
218.816
218.815
218.814
218.814
218.813
218.812
218.811
218.81
218.809
218.808
218.807
218.806
218.805
218.804
218.803
218.802
218.801
218.8
218.799
218.798
218.797
218.796
218.794
218.793
218.792
218.791
218.79
218.789
218.787
218.786
218.785
218.784
218.783
218.782
218.781
218.78
218.779
218.778
218.776
218.775
218.774
218.773
218.773
218.772
218.771
218.77
218.769
218.768
218.767
218.766
218.766
218.765
218.764
218.764
218.763
218.762
218.762
218.761
218.761
218.76
218.76
218.759
218.759
218.758
218.758
218.758
218.757
218.757
218.757
218.757
218.756
218.756
218.756
218.756
218.756
218.756
218.756
218.756
218.756
218.756
218.755
218.755
218.755
218.755
218.756
218.756
218.756
218.756
218.756
218.756
218.756
218.756
218.756
218.756
218.756
218.756
218.756
218.756
218.756
218.755
218.755
218.755
218.755
218.755
218.755
218.755
218.754
218.754
218.754
218.754
218.753
218.753
218.752
218.752
218.751
218.751
218.75
218.75
218.749
218.748
218.747
218.747
218.746
218.745
218.744
218.743
218.742
218.741
218.74
218.739
218.738
218.737
218.736
218.735
218.733
218.732
218.731
218.73
218.729
218.727
218.726
218.725
218.723
218.722
218.721
218.719
218.718
218.717
218.715
218.714
218.713
218.711
218.71
218.709
218.707
218.706
218.705
218.704
218.702
218.701
218.7
218.699
218.697
218.696
218.695
218.694
218.693
218.692
218.691
218.69
218.689
218.688
218.687
218.686
218.685
218.684
218.683
218.683
218.682
218.681
218.68
218.68
218.679
218.679
218.678
218.677
218.677
218.676
218.676
218.676
218.675
218.675
218.674
218.674
218.674
218.674
218.673
218.673
218.673
218.673
218.672
218.672
218.672
218.672
218.672
218.672
218.672
218.671
218.671
218.671
218.671
218.671
218.671
218.671
218.671
218.671
218.67
218.67
218.67
218.67
218.67
218.67
218.67
218.669
218.669
218.669
218.669
218.668
218.668
218.668
218.667
218.667
218.667
218.666
218.666
218.665
218.665
218.664
218.663
218.663
218.662
218.661
218.66
218.659
218.658
218.658
218.657
218.656
218.655
218.653
218.652
218.651
218.65
218.649
218.648
218.646
218.645
218.644
218.642
218.641
218.64
218.638
218.637
218.636
218.634
218.633
218.631
218.63
218.628
218.627
218.625
218.624
218.622
218.621
218.619
218.618
218.616
218.615
218.614
218.612
218.611
218.609
218.608
218.607
218.605
218.604
218.603
218.601
218.6
218.599
218.598
218.596
218.595
218.594
218.593
218.592
218.591
218.59
218.589
218.588
218.587
218.586
218.585
218.585
218.584
218.583
218.582
218.582
218.581
218.581
218.58
218.579
218.579
218.579
218.578
218.578
218.577
218.577
218.577
218.577
218.577
218.576
218.576
218.576
218.576
218.576
218.576
218.576
218.576
218.576
218.576
218.576
218.576
218.576
218.576
218.576
218.576
218.576
218.576
218.576
218.576
218.576
218.577
218.577
218.577
218.577
218.577
218.577
218.577
218.577
218.577
218.577
218.577
218.577
218.577
218.577
218.577
218.577
218.577
218.577
218.577
218.577
218.576
218.576
218.576
218.576
218.575
218.575
218.574
218.574
218.573
218.573
218.572
218.571
218.571
218.57
218.569
218.568
218.567
218.566
218.565
218.564
218.563
218.562
218.561
218.56
218.559
218.558
218.556
218.555
218.554
218.552
218.551
218.55
218.548
218.547
218.545
218.544
218.543
218.541
218.54
218.538
218.537
218.535
218.534
218.532
218.53
218.529
218.527
218.526
218.524
218.523
218.521
218.52
218.519
218.517
218.516
218.514
218.513
218.512
218.51
218.509
218.508
218.506
218.505
218.504
218.503
218.502
218.501
218.5
218.499
218.498
218.497
218.496
218.495
218.494
218.493
218.493
218.492
218.491
218.491
218.49
218.49
218.489
218.489
218.488
218.488
218.488
218.488
218.487
218.487
218.487
218.487
218.487
218.487
218.487
218.487
218.487
218.487
218.487
218.487
218.487
218.487
218.487
218.487
218.487
218.487
218.487
218.488
218.488
218.488
218.488
218.488
218.488
218.489
218.489
218.489
218.489
218.489
218.49
218.49
218.49
218.49
218.49
218.49
218.49
218.49
218.491
218.491
218.491
218.491
218.491
218.491
218.491
218.491
218.49
218.49
218.49
218.49
218.49
218.489
218.489
218.488
218.488
218.487
218.487
218.486
218.485
218.485
218.484
218.483
218.482
218.481
218.48
218.479
218.477
218.476
218.475
218.474
218.472
218.471
218.469
218.468
218.466
218.465
218.463
218.461
218.46
218.458
218.457
218.455
218.453
218.451
218.45
218.448
218.446
218.445
218.443
218.441
218.439
218.438
218.436
218.435
218.433
218.431
218.43
218.428
218.427
218.425
218.424
218.423
218.421
218.42
218.419
218.418
218.416
218.415
218.414
218.413
218.412
218.411
218.41
218.41
218.409
218.408
218.407
218.407
218.406
218.406
218.405
218.405
218.404
218.404
218.403
218.403
218.403
218.403
218.403
218.402
218.402
218.402
218.402
218.402
218.402
218.402
218.402
218.402
218.402
218.402
218.402
218.402
218.402
218.402
218.403
218.403
218.403
218.403
218.403
218.403
218.403
218.403
218.403
218.403
218.404
218.404
218.404
218.404
218.404
218.404
218.404
218.404
218.404
218.404
218.404
218.403
218.403
218.403
218.403
218.403
218.402
218.402
218.401
218.401
218.4
218.399
218.399
218.398
218.397
218.396
218.395
218.394
218.393
218.392
218.391
218.389
218.388
218.387
218.385
218.384
218.382
218.381
218.379
218.378
218.376
218.375
218.373
218.371
218.37
218.368
218.367
218.365
218.363
218.362
218.36
218.359
218.357
218.356
218.354
218.353
218.352
218.35
218.349
218.348
218.346
218.345
218.344
218.343
218.342
218.341
218.34
218.339
218.338
218.337
218.336
218.335
218.334
218.334
218.333
218.332
218.332
218.331
218.331
218.33
218.33
218.33
218.329
218.329
218.329
218.328
218.328
218.328
218.328
218.328
218.328
218.328
218.328
218.328
218.328
218.328
218.328
218.328
218.328
218.328
218.328
218.328
218.328
218.328
218.328
218.328
218.328
218.328
218.328
218.328
218.328
218.328
218.328
218.328
218.328
218.328
218.328
218.328
218.328
218.328
218.328
218.327
218.327
218.327
218.326
218.326
218.325
218.325
218.324
218.323
218.322
218.322
218.321
218.32
218.319
218.318
218.316
218.315
218.314
218.313
218.311
218.31
218.309
218.307
218.306
218.304
218.303
218.301
218.3
218.298
218.296
218.295
218.293
218.291
218.29
218.288
218.286
218.285
218.283
218.281
218.28
218.278
218.276
218.275
218.273
218.272
218.27
218.269
218.267
218.266
218.264
218.263
218.261
218.26
218.259
218.258
218.256
218.255
218.254
218.253
218.252
218.251
218.25
218.249
218.249
218.248
218.247
218.246
218.246
218.245
218.245
218.244
218.244
218.243
218.243
218.243
218.242
218.242
218.242
218.242
218.242
218.242
218.242
218.242
218.242
218.242
218.242
218.242
218.242
218.242
218.242
218.242
218.242
218.242
218.242
218.242
218.242
218.243
218.243
218.243
218.243
218.243
218.243
218.243
218.244
218.244
218.244
218.244
218.244
218.244
218.244
218.244
218.244
218.244
218.244
218.244
218.244
218.244
218.244
218.244
218.244
218.244
218.243
218.243
218.243
218.242
218.241
218.241
218.24
218.239
218.239
218.238
218.237
218.236
218.234
218.233
218.232
218.231
218.229
218.228
218.227
218.225
218.224
218.222
218.221
218.219
218.217
218.216
218.214
218.212
218.211
218.209
218.207
218.205
218.204
218.202
218.2
218.198
218.196
218.195
218.193
218.191
218.189
218.187
218.186
218.184
218.182
218.18
218.178
218.177
218.175
218.173
218.172
218.17
218.169
218.167
218.165
218.164
218.163
218.161
218.16
218.159
218.157
218.156
218.155
218.154
218.153
218.152
218.151
218.15
218.15
218.149
218.148
218.148
218.147
218.147
218.146
218.146
218.145
218.145
218.145
218.145
218.144
218.144
218.144
218.144
218.144
218.144
218.144
218.144
218.144
218.144
218.144
218.144
218.144
218.144
218.144
218.144
218.145
218.145
218.145
218.145
218.145
218.145
218.146
218.146
218.146
218.146
218.146
218.146
218.147
218.147
218.147
218.147
218.147
218.147
218.147
218.147
218.147
218.147
218.147
218.147
218.147
218.147
218.147
218.147
218.147
218.146
218.146
218.145
218.145
218.144
218.143
218.142
218.141
218.14
218.139
218.138
218.137
218.135
218.134
218.132
218.131
218.129
218.127
218.126
218.124
218.122
218.12
218.119
218.117
218.115
218.114
218.112
218.111
218.109
218.107
218.106
218.105
218.103
218.102
218.101
218.099
218.098
218.097
218.096
218.095
218.093
218.092
218.091
218.09
218.089
218.088
218.088
218.087
218.086
218.085
218.084
218.083
218.082
218.081
218.08
218.079
218.079
218.078
218.077
218.076
218.075
218.074
218.073
218.072
218.071
218.07
218.069
218.068
218.067
218.065
218.064
218.063
218.062
218.061
218.06
218.059
218.058
218.057
218.056
218.055
218.054
218.053
218.052
218.051
218.05
218.049
218.048
218.048
218.047
218.046
218.045
218.045
218.044
218.044
218.043
218.043
218.042
218.042
218.041
218.041
218.041
218.04
218.04
218.04
218.04
218.039
218.039
218.039
218.039
218.039
218.039
218.039
218.039
218.039
218.039
218.039
218.039
218.039
218.039
218.039
218.039
218.039
218.039
218.039
218.039
218.039
218.039
218.039
218.039
218.039
218.039
218.039
218.039
218.039
218.039
218.039
218.039
218.038
218.038
218.038
218.037
218.036
218.036
218.035
218.034
218.032
218.031
218.03
218.028
218.027
218.025
218.023
218.021
218.019
218.017
218.015
218.013
218.011
218.008
218.006
218.004
218.002
217.999
217.997
217.995
217.993
217.991
217.989
217.987
217.985
217.983
217.981
217.979
217.978
217.976
217.974
217.973
217.972
217.97
217.969
217.968
217.966
217.965
217.964
217.963
217.962
217.961
217.96
217.96
217.959
217.958
217.958
217.957
217.957
217.956
217.956
217.955
217.955
217.955
217.955
217.954
217.954
217.954
217.954
217.954
217.954
217.954
217.954
217.953
217.953
217.953
217.953
217.953
217.953
217.953
217.953
217.952
217.952
217.952
217.951
217.951
217.95
217.95
217.949
217.948
217.948
217.947
217.946
217.945
217.944
217.942
217.941
217.94
217.939
217.938
217.937
217.935
217.934
217.933
217.932
217.931
217.93
217.929
217.928
217.927
217.926
217.925
217.924
217.923
217.922
217.922
217.921
217.92
217.92
217.919
217.918
217.918
217.917
217.917
217.916
217.916
217.916
217.915
217.915
217.915
217.915
217.914
217.914
217.914
217.914
217.914
217.914
217.914
217.914
217.914
217.914
217.913
217.913
217.913
217.913
217.913
217.913
217.913
217.912
217.912
217.912
217.911
217.911
217.91
217.909
217.908
217.907
217.906
217.905
217.904
217.902
217.901
217.899
217.897
217.896
217.894
217.892
217.89
217.888
217.886
217.884
217.883
217.881
217.879
217.877
217.875
217.874
217.872
217.87
217.869
217.867
217.866
217.865
217.863
217.862
217.861
217.859
217.858
217.857
217.856
217.855
217.854
217.854
217.853
217.852
217.851
217.851
217.85
217.849
217.849
217.848
217.848
217.848
217.847
217.847
217.847
217.847
217.846
217.846
217.846
217.846
217.846
217.846
217.846
217.846
217.845
217.845
217.845
217.845
217.845
217.844
217.844
217.844
217.843
217.843
217.842
217.841
217.84
217.839
217.838
217.837
217.836
217.834
217.833
217.831
217.829
217.828
217.826
217.824
217.823
217.821
217.819
217.818
217.816
217.815
217.813
217.812
217.811
217.809
217.808
217.807
217.806
217.804
217.803
217.802
217.801
217.8
217.8
217.799
217.798
217.797
217.796
217.796
217.795
217.794
217.794
217.793
217.793
217.792
217.791
217.791
217.79
217.79
217.789
217.789
217.788
217.787
217.787
217.786
217.786
217.785
217.785
217.784
217.784
217.783
217.783
217.783
217.782
217.782
217.781
217.781
217.781
217.78
217.78
217.78
217.779
217.779
217.779
217.778
217.778
217.778
217.777
217.777
217.776
217.776
217.775
217.774
217.774
217.773
217.772
217.771
217.77
217.769
217.768
217.766
217.765
217.764
217.763
217.761
217.76
217.759
217.757
217.756
217.755
217.754
217.753
217.751
217.75
217.749
217.748
217.747
217.746
217.745
217.744
217.743
217.742
217.741
217.74
217.739
217.738
217.737
217.736
217.735
217.734
217.733
217.732
217.731
217.73
217.729
217.727
217.726
217.725
217.724
217.723
217.722
217.721
217.72
217.719
217.718
217.717
217.716
217.715
217.714
217.713
217.713
217.712
217.711
217.71
217.709
217.709
217.708
217.707
217.707
217.706
217.706
217.705
217.705
217.704
217.704
217.703
217.703
217.703
217.702
217.702
217.702
217.701
217.701
217.701
217.7
217.7
217.7
217.699
217.699
217.698
217.698
217.697
217.697
217.696
217.695
217.694
217.693
217.692
217.691
217.69
217.688
217.687
217.686
217.684
217.683
217.682
217.68
217.679
217.677
217.676
217.675
217.673
217.672
217.67
217.669
217.668
217.667
217.665
217.664
217.663
217.662
217.66
217.659
217.658
217.657
217.656
217.655
217.654
217.653
217.652
217.651
217.65
217.649
217.649
217.648
217.647
217.646
217.646
217.645
217.644
217.644
217.643
217.643
217.642
217.642
217.641
217.641
217.641
217.64
217.64
217.64
217.639
217.639
217.639
217.639
217.639
217.638
217.638
217.638
217.638
217.638
217.637
217.637
217.637
217.637
217.637
217.637
217.636
217.636
217.636
217.635
217.635
217.634
217.634
217.633
217.633
217.632
217.631
217.63
217.629
217.628
217.627
217.626
217.625
217.624
217.622
217.621
217.62
217.618
217.617
217.615
217.613
217.612
217.61
217.609
217.607
217.606
217.604
217.603
217.601
217.6
217.599
217.598
217.597
217.595
217.594
217.593
217.592
217.591
217.591
217.59
217.589
217.588
217.587
217.586
217.586
217.585
217.584
217.583
217.582
217.581
217.58
217.579
217.578
217.577
217.576
217.574
217.573
217.571
217.57
217.568
217.566
217.565
217.563
217.561
217.559
217.558
217.556
217.554
217.553
217.551
217.55
217.548
217.547
217.546
217.545
217.543
217.542
217.541
217.54
217.539
217.539
217.538
217.537
217.536
217.536
217.535
217.535
217.534
217.534
217.533
217.533
217.533
217.533
217.532
217.532
217.532
217.532
217.532
217.531
217.531
217.531
217.531
217.531
217.531
217.53
217.53
217.53
217.53
217.529
217.529
217.528
217.528
217.527
217.526
217.526
217.525
217.524
217.523
217.522
217.521
217.52
217.519
217.518
217.516
217.515
217.514
217.512
217.511
217.509
217.508
217.506
217.505
217.503
217.502
217.5
217.499
217.497
217.496
217.494
217.493
217.491
217.49
217.488
217.487
217.486
217.485
217.484
217.482
217.481
217.48
217.479
217.479
217.478
217.477
217.476
217.476
217.475
217.475
217.474
217.474
217.473
217.473
217.472
217.472
217.472
217.472
217.471
217.471
217.471
217.47
217.47
217.469
217.469
217.468
217.468
217.467
217.466
217.465
217.464
217.463
217.462
217.46
217.459
217.457
217.455
217.453
217.451
217.449
217.447
217.445
217.443
217.441
217.439
217.437
217.435
217.433
217.432
217.43
217.429
217.428
217.426
217.425
217.425
217.424
217.423
217.422
217.422
217.421
217.421
217.42
217.42
217.42
217.419
217.419
217.419
217.419
217.418
217.418
217.418
217.417
217.417
217.417
217.416
217.415
217.414
217.413
217.412
217.411
217.41
217.408
217.406
217.404
217.402
217.4
217.398
217.396
217.394
217.392
217.39
217.388
217.386
217.385
217.383
217.382
217.38
217.379
217.377
217.376
217.375
217.374
217.373
217.372
217.371
217.37
217.369
217.368
217.368
217.367
217.366
217.365
217.365
217.364
217.364
217.363
217.362
217.362
217.361
217.361
217.36
217.359
217.359
217.358
217.357
217.357
217.356
217.355
217.354
217.353
217.352
217.351
217.35
217.349
217.347
217.346
217.345
217.343
217.342
217.341
217.339
217.338
217.337
217.336
217.334
217.333
217.332
217.331
217.33
217.328
217.327
217.326
217.325
217.324
217.323
217.322
217.321
217.32
217.319
217.318
217.317
217.316
217.315
217.314
217.313
217.312
217.311
217.31
217.309
217.308
217.306
217.305
217.304
217.302
217.301
217.3
217.298
217.297
217.296
217.295
217.294
217.293
217.292
217.29
217.289
217.288
217.287
217.286
217.285
217.284
217.283
217.282
217.281
217.28
217.279
217.278
217.277
217.275
217.274
217.273
217.272
217.271
217.27
217.269
217.268
217.267
217.266
217.265
217.265
217.264
217.263
217.262
217.262
217.261
217.261
217.26
217.259
217.259
217.258
217.258
217.257
217.257
217.256
217.255
217.255
217.254
217.253
217.253
217.252
217.251
217.25
217.249
217.248
217.246
217.245
217.244
217.242
217.241
217.239
217.238
217.237
217.236
217.234
217.233
217.232
217.231
217.23
217.229
217.229
217.228
217.227
217.226
217.226
217.225
217.225
217.224
217.224
217.223
217.223
217.222
217.222
217.221
217.221
217.22
217.219
217.219
217.218
217.217
217.216
217.215
217.213
217.212
217.211
217.209
217.208
217.206
217.204
217.202
217.2
217.199
217.197
217.195
217.194
217.193
217.191
217.19
217.189
217.188
217.188
217.187
217.187
217.186
217.186
217.185
217.185
217.185
217.185
217.184
217.184
217.184
217.184
217.183
217.183
217.183
217.183
217.182
217.182
217.181
217.181
217.18
217.179
217.178
217.177
217.176
217.175
217.174
217.172
217.171
217.169
217.167
217.165
217.164
217.162
217.16
217.158
217.156
217.154
217.152
217.15
217.149
217.147
217.146
217.145
217.144
217.143
217.142
217.141
217.141
217.14
217.14
217.14
217.139
217.139
217.139
217.139
217.139
217.139
217.139
217.14
217.14
217.14
217.141
217.141
217.142
217.142
217.142
217.143
217.143
217.143
217.143
217.143
217.143
217.142
217.142
217.141
217.14
217.139
217.138
217.137