/*--------------------------------*- C++ -*----------------------------------*\
  =========                 |
  \\      /  F ield         | OpenFOAM: The Open Source CFD Toolbox
   \\    /   O peration     | Website:  https://openfoam.org
    \\  /    A nd           | Version:  9
     \\/     M anipulation  |
\*---------------------------------------------------------------------------*/
FoamFile
{
    format      ascii;
    class       volScalarField;
    location    "0.028";
    object      p;
}
// * * * * * * * * * * * * * * * * * * * * * * * * * * * * * * * * * * * * * //

dimensions      [1 -1 -2 0 0 0 0];

internalField   nonuniform List<scalar> 
1000
(
22593.2
22589.3
22584.7
22580.7
22576.9
22573.2
22569.4
22565.6
22561.8
22557.9
22554.1
22550.3
22546.5
22542.7
22538.9
22535
22531.2
22527.4
22523.6
22519.8
22515.9
22512.1
22508.3
22504.4
22500.6
22496.8
22492.9
22489.1
22485.3
22481.4
22477.6
22473.7
22469.9
22466
22462.2
22458.3
22454.4
22450.6
22446.7
22442.9
22439
22435.1
22431.3
22427.4
22423.5
22419.6
22415.8
22411.9
22408
22404.1
22400.2
22396.3
22392.4
22388.5
22384.6
22380.7
22376.8
22372.9
22369
22365.1
22361.2
22357.3
22353.4
22349.5
22345.5
22341.6
22337.7
22333.8
22329.8
22325.9
22322
22318.1
22314.1
22310.2
22306.2
22302.3
22298.3
22294.4
22290.5
22286.5
22282.5
22278.6
22274.6
22270.7
22266.7
22262.7
22258.8
22254.8
22250.8
22246.9
22242.9
22238.9
22234.9
22230.9
22227
22223
22219
22215
22211
22207
22203
22199
22195
22191
22187
22182.9
22178.9
22174.9
22170.9
22166.9
22162.8
22158.8
22154.8
22150.8
22146.7
22142.7
22138.7
22134.6
22130.6
22126.5
22122.5
22118.4
22114.4
22110.3
22106.3
22102.2
22098.1
22094.1
22090
22085.9
22081.9
22077.8
22073.7
22069.6
22065.6
22061.5
22057.4
22053.3
22049.2
22045.1
22041
22036.9
22032.8
22028.7
22024.6
22020.5
22016.4
22012.3
22008.2
22004.1
22000
21995.9
21991.7
21987.6
21983.5
21979.4
21975.2
21971.1
21967
21962.8
21958.7
21954.6
21950.4
21946.3
21942.1
21938
21933.8
21929.7
21925.5
21921.4
21917.2
21913
21908.9
21904.7
21900.5
21896.4
21892.2
21888
21883.9
21879.7
21875.5
21871.3
21867.2
21863
21858.8
21854.6
21850.4
21846.2
21842
21837.8
21833.6
21829.4
21825.3
21821.1
21816.9
21812.6
21808.4
21804.2
21800
21795.8
21791.6
21787.4
21783.2
21779
21774.8
21770.5
21766.3
21762.1
21757.9
21753.7
21749.5
21745.2
21741
21736.8
21732.6
21728.3
21724.1
21719.9
21715.7
21711.4
21707.2
21703
21698.7
21694.5
21690.3
21686
21681.8
21677.6
21673.3
21669.1
21664.9
21660.6
21656.4
21652.2
21647.9
21643.7
21639.5
21635.2
21631
21626.8
21622.5
21618.3
21614.1
21609.9
21605.6
21601.4
21597.2
21592.9
21588.7
21584.5
21580.3
21576.1
21571.8
21567.6
21563.4
21559.2
21555
21550.8
21546.6
21542.3
21538.1
21533.9
21529.7
21525.5
21521.3
21517.1
21513
21508.8
21504.6
21500.4
21496.2
21492
21487.9
21483.7
21479.5
21475.4
21471.2
21467.1
21462.9
21458.8
21454.7
21450.5
21446.4
21442.3
21438.2
21434
21429.9
21425.8
21421.7
21417.7
21413.6
21409.5
21405.4
21401.4
21397.3
21393.3
21389.3
21385.2
21381.2
21377.2
21373.2
21369.2
21365.2
21361.2
21357.3
21353.3
21349.4
21345.5
21341.5
21337.6
21333.7
21329.9
21326
21322.1
21318.3
21314.5
21310.6
21306.8
21303.1
21299.3
21295.5
21291.8
21288.1
21284.4
21280.7
21277
21273.4
21269.8
21266.1
21262.6
21259
21255.5
21251.9
21248.4
21245
21241.5
21238.1
21234.7
21231.3
21228
21224.7
21221.4
21218.1
21214.9
21211.7
21208.5
21205.4
21202.3
21199.3
21196.2
21193.3
21190.3
21187.4
21184.5
21181.7
21178.9
21176.2
21173.5
21170.9
21168.3
21165.7
21163.2
21160.8
21158.4
21156.1
21153.8
21151.6
21149.4
21147.3
21145.3
21143.3
21141.5
21139.6
21137.9
21136.2
21134.6
21133.1
21131.7
21130.3
21129
21127.9
21126.8
21125.8
21124.9
21124.1
21123.5
21122.9
21122.4
21122.1
21121.8
21121.7
21121.7
21121.8
21121.9
21122.1
21122.6
21123.2
21123.9
21124.9
21125.9
21127.2
21128.6
21130.1
21131.8
21133.7
21135.8
21138.1
21140.5
21143.1
21145.9
21148.9
21152.2
21155.6
21159.2
21163.1
21167.2
21171.5
21176
21180.8
21185.8
21191.1
21196.6
21202.4
21208.5
21214.8
21221.4
21228.2
21235.4
21242.8
21250.5
21258.5
21266.9
21275.5
21284.4
21293.6
21303.1
21313
21323.1
21333.6
21344.4
21355.5
21366.9
21378.7
21390.8
21403.2
21415.9
21428.9
21442.2
21455.9
21469.9
21484.2
21498.8
21513.6
21528.8
21544.3
21560.1
21576.2
21592.5
21609.2
21626
21643.2
21660.6
21678.3
21696.2
21714.3
21732.7
21751.2
21770
21789
21808.2
21827.6
21847.2
21866.9
21886.9
21906.9
21927.2
21947.5
21968
21988.7
22009.4
22030.3
22051.3
22072.4
22093.6
22114.9
22136.3
22157.8
22179.3
22200.9
22222.6
22244.4
22266.2
22288.1
22310.1
22332.1
22354.2
22376.3
22398.4
22420.6
22442.9
22465.1
22487.5
22509.8
22532.2
22554.6
22577.1
22599.6
22622.1
22644.7
22667.3
22689.9
22712.5
22735.2
22757.9
22780.6
22803.4
22826.2
22849
22871.8
22894.7
22917.6
22940.5
22963.4
22986.4
23009.4
23032.4
23055.4
23078.5
23101.6
23124.7
23147.8
23171
23194.2
23217.4
23240.6
23263.9
23287.1
23310.4
23333.8
23357.1
23380.5
23403.9
23427.4
23450.8
23474.3
23497.8
23521.3
23544.9
23568.4
23592
23615.7
23639.3
23663
23686.7
23710.4
23734.1
23757.9
23781.7
23805.5
23829.3
23853.2
23877.1
23901
23924.9
23948.9
23972.8
23996.8
24020.9
24044.9
24069
24093.1
24117.2
24141.3
24165.5
24189.7
24213.9
24238.1
24262.4
24286.6
24310.9
24335.3
24359.6
24384
24408.4
24432.8
24457.2
24481.7
24506.2
24530.7
24555.2
24579.7
24604.3
24628.9
24653.5
24678.2
24702.8
24727.5
24752.2
24776.9
24801.7
24826.5
24851.3
24876.1
24900.9
24925.8
24950.6
24975.5
25000.5
25025.4
25050.4
25075.4
25100.4
25125.4
25150.5
25175.5
25200.6
25225.7
25250.9
25276
25301.2
25326.4
25351.6
25376.8
25402.1
25427.4
25452.7
25478
25503.3
25528.7
25554.1
25579.5
25604.9
25630.3
25655.8
25681.2
25706.7
25732.2
25757.8
25783.3
25808.9
25834.4
25860
25885.7
25911.3
25937
25962.6
25988.3
26014
26039.7
26065.5
26091.2
26117
26142.8
26168.6
26194.4
26220.2
26246.1
26272
26297.8
26323.7
26349.6
26375.6
26401.5
26427.4
26453.4
26479.4
26505.4
26531.4
26557.4
26583.4
26609.4
26635.5
26661.5
26687.6
26713.7
26739.8
26765.9
26792
26818.1
26844.2
26870.4
26896.5
26922.6
26948.8
26975
27001.1
27027.3
27053.5
27079.6
27105.8
27132
27158.2
27184.4
27210.6
27236.8
27263
27289.2
27315.4
27341.6
27367.8
27394
27420.2
27446.4
27472.6
27498.7
27524.9
27551.1
27577.2
27603.4
27629.5
27655.6
27681.8
27707.9
27734
27760
27786.1
27812.2
27838.2
27864.2
27890.2
27916.2
27942.1
27968.1
27994
28019.9
28045.7
28071.6
28097.4
28123.1
28148.9
28174.6
28200.2
28225.9
28251.5
28277
28302.6
28328
28353.5
28378.8
28404.2
28429.5
28454.7
28479.9
28505
28530.1
28555.1
28580
28604.9
28629.7
28654.4
28679.1
28703.7
28728.2
28752.6
28777
28801.2
28825.4
28849.5
28873.5
28897.4
28921.2
28944.9
28968.5
28992
29015.4
29038.7
29061.8
29084.8
29107.7
29130.5
29153.2
29175.7
29198
29220.3
29242.4
29264.3
29286.1
29307.7
29329.2
29350.5
29371.7
29392.6
29413.4
29434
29454.5
29474.7
29494.8
29514.7
29534.3
29553.8
29573.1
29592.1
29611
29629.6
29648
29666.2
29684.2
29701.9
29719.4
29736.7
29753.7
29770.5
29787.1
29803.4
29819.4
29835.2
29850.7
29866
29881
29895.8
29910.3
29924.5
29938.5
29952.1
29965.6
29978.7
29991.6
30004.2
30016.5
30028.5
30040.3
30051.8
30063
30074
30084.6
30095
30105.2
30115
30124.6
30133.9
30143
30151.8
30160.3
30168.6
30176.6
30184.4
30191.9
30199.2
30206.2
30213
30219.5
30225.8
30231.9
30237.8
30243.4
30248.9
30254.1
30259.1
30263.9
30268.6
30273
30277.3
30281.3
30285.3
30289
30292.7
30296.1
30299.5
30302.7
30305.8
30308.7
30311.6
30314.3
30317.1
30319.6
30322.2
30324.7
30327.1
30329.5
30331.9
30334.2
30336.6
30338.9
30341.4
30343.8
30346.2
30348.8
30351.4
30354
30356.8
30359.7
30362.7
30365.8
30369
30372.4
30375.9
30379.6
30383.5
30387.5
30391.7
30396.1
30400.6
30405.4
30410.3
30415.3
30420.5
30425.9
30431.4
30437.1
30442.8
30448.7
30454.6
30460.7
30466.8
30472.9
30479
30485.2
30491.3
30497.4
30503.4
30509.4
30515.2
30521
30526.7
30532.1
30537.5
30542.6
30547.7
30552.4
30557
30561.5
30565.6
30569.7
30573.5
30577
30580.4
30583.6
30586.6
30589.5
30592
30594.4
30596.7
30598.8
30600.8
30602.6
30604.3
30605.9
30607.3
30608.7
30609.9
30611.1
30612.2
30613.2
30614.2
30615.1
30616
30616.8
30617.6
30618.3
30619
30619.7
30620.4
30621
30621.6
30622.2
30622.8
30623.3
30623.8
30624.3
30624.8
30625.3
30625.7
30626.1
30626.6
30626.9
30627.3
30627.6
30627.9
30628.2
30628.4
30628.7
30628.9
30629.1
30629.2
30629.4
30629.5
30629.6
30629.7
30629.8
30629.9
30629.9
30630
30630
30630.1
30630.1
30630.1
30630.1
30630.1
30630.1
30630.1
30630.1
30630.1
30630.1
30630.1
30630.1
30630.1
30630.1
30630.1
30630.1
30630.1
)
;

boundaryField
{
    sides
    {
        type            zeroGradient;
    }
    empty
    {
        type            empty;
    }
}


// ************************************************************************* //
