/*--------------------------------*- C++ -*----------------------------------*\
  =========                 |
  \\      /  F ield         | OpenFOAM: The Open Source CFD Toolbox
   \\    /   O peration     | Website:  https://openfoam.org
    \\  /    A nd           | Version:  9
     \\/     M anipulation  |
\*---------------------------------------------------------------------------*/
FoamFile
{
    format      ascii;
    class       volVectorField;
    location    "0.029";
    object      U;
}
// * * * * * * * * * * * * * * * * * * * * * * * * * * * * * * * * * * * * * //

dimensions      [0 1 -1 0 0 0 0];

internalField   nonuniform List<vector> 
1000
(
(13.5284 0 0)
(14.0451 0 0)
(14.683 0 0)
(15.0798 0 0)
(15.4849 0 0)
(15.9153 0 0)
(16.3595 0 0)
(16.8027 0 0)
(17.2389 0 0)
(17.6763 0 0)
(18.1148 0 0)
(18.5537 0 0)
(18.9924 0 0)
(19.4312 0 0)
(19.8701 0 0)
(20.3092 0 0)
(20.7483 0 0)
(21.1874 0 0)
(21.6264 0 0)
(22.0654 0 0)
(22.5043 0 0)
(22.9433 0 0)
(23.3822 0 0)
(23.8212 0 0)
(24.2602 0 0)
(24.6992 0 0)
(25.1382 0 0)
(25.5773 0 0)
(26.0164 0 0)
(26.4555 0 0)
(26.8947 0 0)
(27.3339 0 0)
(27.7732 0 0)
(28.2124 0 0)
(28.6517 0 0)
(29.091 0 0)
(29.5304 0 0)
(29.9698 0 0)
(30.4092 0 0)
(30.8487 0 0)
(31.2882 0 0)
(31.7277 0 0)
(32.1673 0 0)
(32.6069 0 0)
(33.0465 0 0)
(33.4861 0 0)
(33.9258 0 0)
(34.3655 0 0)
(34.8052 0 0)
(35.245 0 0)
(35.6848 0 0)
(36.1246 0 0)
(36.5645 0 0)
(37.0044 0 0)
(37.4443 0 0)
(37.8842 0 0)
(38.3242 0 0)
(38.7642 0 0)
(39.2043 0 0)
(39.6444 0 0)
(40.0845 0 0)
(40.5246 0 0)
(40.9648 0 0)
(41.4049 0 0)
(41.8452 0 0)
(42.2854 0 0)
(42.7257 0 0)
(43.1661 0 0)
(43.6064 0 0)
(44.0468 0 0)
(44.4872 0 0)
(44.9277 0 0)
(45.3682 0 0)
(45.8087 0 0)
(46.2493 0 0)
(46.6898 0 0)
(47.1305 0 0)
(47.5711 0 0)
(48.0118 0 0)
(48.4525 0 0)
(48.8932 0 0)
(49.334 0 0)
(49.7748 0 0)
(50.2156 0 0)
(50.6565 0 0)
(51.0973 0 0)
(51.5382 0 0)
(51.9792 0 0)
(52.4201 0 0)
(52.8611 0 0)
(53.3022 0 0)
(53.7432 0 0)
(54.1844 0 0)
(54.6255 0 0)
(55.0667 0 0)
(55.5079 0 0)
(55.9491 0 0)
(56.3904 0 0)
(56.8316 0 0)
(57.273 0 0)
(57.7142 0 0)
(58.1556 0 0)
(58.5969 0 0)
(59.0382 0 0)
(59.4797 0 0)
(59.9211 0 0)
(60.3626 0 0)
(60.8041 0 0)
(61.2456 0 0)
(61.6873 0 0)
(62.1288 0 0)
(62.5705 0 0)
(63.0124 0 0)
(63.4541 0 0)
(63.8959 0 0)
(64.3379 0 0)
(64.7797 0 0)
(65.2217 0 0)
(65.6637 0 0)
(66.1056 0 0)
(66.5478 0 0)
(66.9898 0 0)
(67.4318 0 0)
(67.8741 0 0)
(68.3162 0 0)
(68.7582 0 0)
(69.2006 0 0)
(69.6428 0 0)
(70.0849 0 0)
(70.5274 0 0)
(70.9697 0 0)
(71.4119 0 0)
(71.8545 0 0)
(72.2971 0 0)
(72.7393 0 0)
(73.1819 0 0)
(73.6247 0 0)
(74.0671 0 0)
(74.5097 0 0)
(74.9527 0 0)
(75.3952 0 0)
(75.8378 0 0)
(76.281 0 0)
(76.7237 0 0)
(77.1664 0 0)
(77.6096 0 0)
(78.0527 0 0)
(78.4955 0 0)
(78.9386 0 0)
(79.382 0 0)
(79.8249 0 0)
(80.2681 0 0)
(80.7117 0 0)
(81.1548 0 0)
(81.598 0 0)
(82.0416 0 0)
(82.4851 0 0)
(82.9284 0 0)
(83.3719 0 0)
(83.8159 0 0)
(84.2592 0 0)
(84.7026 0 0)
(85.1466 0 0)
(85.5906 0 0)
(86.034 0 0)
(86.4778 0 0)
(86.9221 0 0)
(87.3658 0 0)
(87.8094 0 0)
(88.2536 0 0)
(88.6981 0 0)
(89.1417 0 0)
(89.5855 0 0)
(90.0299 0 0)
(90.4744 0 0)
(90.9182 0 0)
(91.3623 0 0)
(91.8069 0 0)
(92.2512 0 0)
(92.6953 0 0)
(93.1397 0 0)
(93.5845 0 0)
(94.0287 0 0)
(94.4729 0 0)
(94.9177 0 0)
(95.3627 0 0)
(95.8068 0 0)
(96.2512 0 0)
(96.6963 0 0)
(97.1413 0 0)
(97.5854 0 0)
(98.0299 0 0)
(98.4752 0 0)
(98.9204 0 0)
(99.3646 0 0)
(99.8092 0 0)
(100.255 0 0)
(100.7 0 0)
(101.144 0 0)
(101.589 0 0)
(102.034 0 0)
(102.48 0 0)
(102.924 0 0)
(103.369 0 0)
(103.815 0 0)
(104.26 0 0)
(104.705 0 0)
(105.15 0 0)
(105.595 0 0)
(106.041 0 0)
(106.486 0 0)
(106.931 0 0)
(107.376 0 0)
(107.822 0 0)
(108.267 0 0)
(108.712 0 0)
(109.157 0 0)
(109.603 0 0)
(110.049 0 0)
(110.494 0 0)
(110.939 0 0)
(111.385 0 0)
(111.831 0 0)
(112.276 0 0)
(112.721 0 0)
(113.167 0 0)
(113.613 0 0)
(114.058 0 0)
(114.503 0 0)
(114.949 0 0)
(115.395 0 0)
(115.84 0 0)
(116.286 0 0)
(116.731 0 0)
(117.177 0 0)
(117.623 0 0)
(118.068 0 0)
(118.513 0 0)
(118.959 0 0)
(119.405 0 0)
(119.851 0 0)
(120.296 0 0)
(120.742 0 0)
(121.187 0 0)
(121.633 0 0)
(122.079 0 0)
(122.524 0 0)
(122.97 0 0)
(123.416 0 0)
(123.861 0 0)
(124.307 0 0)
(124.752 0 0)
(125.198 0 0)
(125.644 0 0)
(126.089 0 0)
(126.535 0 0)
(126.98 0 0)
(127.426 0 0)
(127.872 0 0)
(128.317 0 0)
(128.762 0 0)
(129.208 0 0)
(129.653 0 0)
(130.099 0 0)
(130.544 0 0)
(130.989 0 0)
(131.435 0 0)
(131.88 0 0)
(132.326 0 0)
(132.771 0 0)
(133.216 0 0)
(133.661 0 0)
(134.106 0 0)
(134.552 0 0)
(134.997 0 0)
(135.442 0 0)
(135.887 0 0)
(136.332 0 0)
(136.777 0 0)
(137.221 0 0)
(137.666 0 0)
(138.111 0 0)
(138.556 0 0)
(139.001 0 0)
(139.445 0 0)
(139.89 0 0)
(140.334 0 0)
(140.779 0 0)
(141.223 0 0)
(141.668 0 0)
(142.112 0 0)
(142.556 0 0)
(143 0 0)
(143.444 0 0)
(143.888 0 0)
(144.332 0 0)
(144.776 0 0)
(145.22 0 0)
(145.663 0 0)
(146.106 0 0)
(146.55 0 0)
(146.993 0 0)
(147.437 0 0)
(147.88 0 0)
(148.323 0 0)
(148.765 0 0)
(149.208 0 0)
(149.651 0 0)
(150.094 0 0)
(150.537 0 0)
(150.98 0 0)
(151.421 0 0)
(151.861 0 0)
(152.302 0 0)
(152.745 0 0)
(153.188 0 0)
(153.631 0 0)
(154.073 0 0)
(154.513 0 0)
(154.951 0 0)
(155.389 0 0)
(155.828 0 0)
(156.269 0 0)
(156.714 0 0)
(157.158 0 0)
(157.6 0 0)
(158.038 0 0)
(158.473 0 0)
(158.906 0 0)
(159.339 0 0)
(159.774 0 0)
(160.215 0 0)
(160.66 0 0)
(161.106 0 0)
(161.551 0 0)
(161.991 0 0)
(162.427 0 0)
(162.857 0 0)
(163.284 0 0)
(163.708 0 0)
(164.133 0 0)
(164.562 0 0)
(164.997 0 0)
(165.439 0 0)
(165.886 0 0)
(166.335 0 0)
(166.783 0 0)
(167.227 0 0)
(167.666 0 0)
(168.101 0 0)
(168.531 0 0)
(168.956 0 0)
(169.376 0 0)
(169.792 0 0)
(170.204 0 0)
(170.612 0 0)
(171.019 0 0)
(171.424 0 0)
(171.829 0 0)
(172.234 0 0)
(172.639 0 0)
(173.044 0 0)
(173.448 0 0)
(173.853 0 0)
(174.256 0 0)
(174.659 0 0)
(175.057 0 0)
(175.451 0 0)
(175.834 0 0)
(176.204 0 0)
(176.566 0 0)
(176.914 0 0)
(177.258 0 0)
(177.596 0 0)
(177.929 0 0)
(178.26 0 0)
(178.591 0 0)
(178.921 0 0)
(179.251 0 0)
(179.582 0 0)
(179.916 0 0)
(180.255 0 0)
(180.597 0 0)
(180.943 0 0)
(181.292 0 0)
(181.645 0 0)
(182.001 0 0)
(182.36 0 0)
(182.723 0 0)
(183.088 0 0)
(183.455 0 0)
(183.825 0 0)
(184.196 0 0)
(184.569 0 0)
(184.944 0 0)
(185.319 0 0)
(185.696 0 0)
(186.073 0 0)
(186.451 0 0)
(186.83 0 0)
(187.209 0 0)
(187.588 0 0)
(187.968 0 0)
(188.347 0 0)
(188.727 0 0)
(189.108 0 0)
(189.489 0 0)
(189.87 0 0)
(190.251 0 0)
(190.633 0 0)
(191.014 0 0)
(191.395 0 0)
(191.776 0 0)
(192.156 0 0)
(192.539 0 0)
(192.924 0 0)
(193.314 0 0)
(193.708 0 0)
(194.107 0 0)
(194.508 0 0)
(194.909 0 0)
(195.3 0 0)
(195.687 0 0)
(196.046 0 0)
(196.39 0 0)
(196.71 0 0)
(197.014 0 0)
(197.306 0 0)
(197.581 0 0)
(197.852 0 0)
(198.117 0 0)
(198.383 0 0)
(198.65 0 0)
(198.921 0 0)
(199.195 0 0)
(199.472 0 0)
(199.752 0 0)
(200.034 0 0)
(200.323 0 0)
(200.62 0 0)
(200.926 0 0)
(201.238 0 0)
(201.557 0 0)
(201.88 0 0)
(202.208 0 0)
(202.54 0 0)
(202.874 0 0)
(203.213 0 0)
(203.556 0 0)
(203.906 0 0)
(204.27 0 0)
(204.648 0 0)
(205.033 0 0)
(205.42 0 0)
(205.772 0 0)
(206.119 0 0)
(206.38 0 0)
(206.573 0 0)
(206.74 0 0)
(206.868 0 0)
(206.997 0 0)
(207.139 0 0)
(207.299 0 0)
(207.481 0 0)
(207.685 0 0)
(207.916 0 0)
(208.176 0 0)
(208.463 0 0)
(208.779 0 0)
(209.121 0 0)
(209.486 0 0)
(209.863 0 0)
(210.246 0 0)
(210.624 0 0)
(210.983 0 0)
(211.301 0 0)
(211.578 0 0)
(211.78 0 0)
(211.934 0 0)
(212.055 0 0)
(212.113 0 0)
(212.147 0 0)
(212.187 0 0)
(212.258 0 0)
(212.391 0 0)
(212.579 0 0)
(212.788 0 0)
(212.994 0 0)
(213.168 0 0)
(213.328 0 0)
(213.476 0 0)
(213.626 0 0)
(213.787 0 0)
(213.966 0 0)
(214.164 0 0)
(214.381 0 0)
(214.616 0 0)
(214.871 0 0)
(215.147 0 0)
(215.441 0 0)
(215.753 0 0)
(216.081 0 0)
(216.429 0 0)
(216.793 0 0)
(217.153 0 0)
(217.481 0 0)
(217.737 0 0)
(217.96 0 0)
(218.112 0 0)
(218.266 0 0)
(218.359 0 0)
(218.458 0 0)
(218.528 0 0)
(218.592 0 0)
(218.689 0 0)
(218.857 0 0)
(219.107 0 0)
(219.427 0 0)
(219.788 0 0)
(220.155 0 0)
(220.497 0 0)
(220.795 0 0)
(220.992 0 0)
(221.199 0 0)
(221.3 0 0)
(221.39 0 0)
(221.425 0 0)
(221.454 0 0)
(221.518 0 0)
(221.657 0 0)
(221.877 0 0)
(222.162 0 0)
(222.494 0 0)
(222.847 0 0)
(223.21 0 0)
(223.476 0 0)
(223.741 0 0)
(223.87 0 0)
(223.947 0 0)
(223.948 0 0)
(223.966 0 0)
(224.026 0 0)
(224.155 0 0)
(224.342 0 0)
(224.583 0 0)
(224.882 0 0)
(225.226 0 0)
(225.584 0 0)
(225.919 0 0)
(226.182 0 0)
(226.371 0 0)
(226.394 0 0)
(226.371 0 0)
(226.333 0 0)
(226.347 0 0)
(226.399 0 0)
(226.508 0 0)
(226.67 0 0)
(226.88 0 0)
(227.126 0 0)
(227.403 0 0)
(227.713 0 0)
(228.053 0 0)
(228.419 0 0)
(228.809 0 0)
(229.137 0 0)
(229.369 0 0)
(229.323 0 0)
(229.22 0 0)
(229.22 0 0)
(229.33 0 0)
(229.565 0 0)
(229.895 0 0)
(230.296 0 0)
(230.748 0 0)
(231.233 0 0)
(231.733 0 0)
(232.238 0 0)
(232.649 0 0)
(233.152 0 0)
(233.175 0 0)
(232.979 0 0)
(232.579 0 0)
(232.462 0 0)
(232.613 0 0)
(232.92 0 0)
(233.325 0 0)
(233.787 0 0)
(234.285 0 0)
(234.813 0 0)
(235.492 0 0)
(235.788 0 0)
(235.646 0 0)
(235.196 0 0)
(234.804 0 0)
(234.848 0 0)
(235.03 0 0)
(235.35 0 0)
(235.817 0 0)
(236.427 0 0)
(237.162 0 0)
(237.945 0 0)
(238.458 0 0)
(238.615 0 0)
(238.645 0 0)
(238.699 0 0)
(238.814 0 0)
(239.033 0 0)
(239.392 0 0)
(239.606 0 0)
(239.746 0 0)
(239.91 0 0)
(239.993 0 0)
(240.035 0 0)
(240.11 0 0)
(240.449 0 0)
(241.171 0 0)
(241.621 0 0)
(241.611 0 0)
(241.46 0 0)
(241.4 0 0)
(241.521 0 0)
(241.789 0 0)
(242.407 0 0)
(243.387 0 0)
(244.219 0 0)
(244.32 0 0)
(244.128 0 0)
(243.61 0 0)
(242.986 0 0)
(243.025 0 0)
(243.226 0 0)
(243.716 0 0)
(244.426 0 0)
(244.819 0 0)
(245.084 0 0)
(245.392 0 0)
(245.855 0 0)
(246.46 0 0)
(246.845 0 0)
(246.838 0 0)
(246.737 0 0)
(246.616 0 0)
(246.57 0 0)
(246.684 0 0)
(247.008 0 0)
(247.275 0 0)
(247.485 0 0)
(247.769 0 0)
(248.158 0 0)
(248.254 0 0)
(248.16 0 0)
(248.234 0 0)
(248.483 0 0)
(248.761 0 0)
(249.114 0 0)
(249.485 0 0)
(249.733 0 0)
(249.887 0 0)
(249.995 0 0)
(250.119 0 0)
(250.382 0 0)
(251.013 0 0)
(251.458 0 0)
(251.478 0 0)
(251.492 0 0)
(251.627 0 0)
(251.878 0 0)
(252.202 0 0)
(252.486 0 0)
(252.629 0 0)
(252.695 0 0)
(252.778 0 0)
(253.077 0 0)
(253.624 0 0)
(254.148 0 0)
(254.183 0 0)
(254.192 0 0)
(254.326 0 0)
(254.491 0 0)
(254.678 0 0)
(255.047 0 0)
(255.545 0 0)
(255.726 0 0)
(255.763 0 0)
(255.841 0 0)
(256.008 0 0)
(256.314 0 0)
(256.761 0 0)
(257.024 0 0)
(257.14 0 0)
(257.23 0 0)
(257.404 0 0)
(257.707 0 0)
(258.277 0 0)
(258.745 0 0)
(258.85 0 0)
(258.878 0 0)
(258.957 0 0)
(259.089 0 0)
(259.272 0 0)
(259.668 0 0)
(260.208 0 0)
(260.351 0 0)
(260.347 0 0)
(260.408 0 0)
(260.549 0 0)
(260.891 0 0)
(261.222 0 0)
(261.298 0 0)
(261.299 0 0)
(261.336 0 0)
(261.562 0 0)
(261.988 0 0)
(262.494 0 0)
(262.793 0 0)
(262.794 0 0)
(262.919 0 0)
(263.138 0 0)
(263.269 0 0)
(263.423 0 0)
(263.679 0 0)
(264.157 0 0)
(264.499 0 0)
(264.591 0 0)
(264.625 0 0)
(264.573 0 0)
(264.613 0 0)
(264.843 0 0)
(265.296 0 0)
(265.678 0 0)
(265.903 0 0)
(266.04 0 0)
(266.022 0 0)
(266.011 0 0)
(266.052 0 0)
(266.201 0 0)
(266.508 0 0)
(266.86 0 0)
(267.071 0 0)
(266.946 0 0)
(266.971 0 0)
(267.282 0 0)
(267.522 0 0)
(267.624 0 0)
(267.739 0 0)
(267.806 0 0)
(267.938 0 0)
(268.166 0 0)
(268.306 0 0)
(268.381 0 0)
(268.483 0 0)
(268.692 0 0)
(268.924 0 0)
(269.012 0 0)
(269.067 0 0)
(269.157 0 0)
(269.319 0 0)
(269.604 0 0)
(269.797 0 0)
(269.855 0 0)
(269.943 0 0)
(269.956 0 0)
(269.889 0 0)
(269.848 0 0)
(270.049 0 0)
(270.397 0 0)
(270.483 0 0)
(270.453 0 0)
(270.431 0 0)
(270.575 0 0)
(270.775 0 0)
(270.824 0 0)
(270.851 0 0)
(270.844 0 0)
(270.777 0 0)
(270.772 0 0)
(270.943 0 0)
(271.107 0 0)
(271.136 0 0)
(271.122 0 0)
(271.049 0 0)
(270.971 0 0)
(271.068 0 0)
(271.25 0 0)
(271.291 0 0)
(271.258 0 0)
(271.147 0 0)
(271.154 0 0)
(271.373 0 0)
(271.538 0 0)
(271.575 0 0)
(271.566 0 0)
(271.513 0 0)
(271.415 0 0)
(271.284 0 0)
(271.322 0 0)
(271.534 0 0)
(271.628 0 0)
(271.592 0 0)
(271.502 0 0)
(271.36 0 0)
(271.27 0 0)
(271.397 0 0)
(271.574 0 0)
(271.571 0 0)
(271.483 0 0)
(271.322 0 0)
(271.26 0 0)
(271.407 0 0)
(271.525 0 0)
(271.479 0 0)
(271.352 0 0)
(271.168 0 0)
(271.151 0 0)
(271.316 0 0)
(271.381 0 0)
(271.296 0 0)
(271.146 0 0)
(270.945 0 0)
(270.887 0 0)
(271.046 0 0)
(271.127 0 0)
(271.029 0 0)
(270.854 0 0)
(270.624 0 0)
(270.491 0 0)
(270.601 0 0)
(270.706 0 0)
(270.61 0 0)
(270.415 0 0)
(270.155 0 0)
(270.037 0 0)
(270.149 0 0)
(270.198 0 0)
(270.065 0 0)
(269.869 0 0)
(269.642 0 0)
(269.43 0 0)
(269.462 0 0)
(269.607 0 0)
(269.553 0 0)
(269.364 0 0)
(269.132 0 0)
(268.868 0 0)
(268.812 0 0)
(268.934 0 0)
(268.919 0 0)
(268.747 0 0)
(268.53 0 0)
(268.275 0 0)
(268.126 0 0)
(268.228 0 0)
(268.328 0 0)
(268.224 0 0)
(267.997 0 0)
(267.704 0 0)
(267.607 0 0)
(267.707 0 0)
(267.701 0 0)
(267.504 0 0)
(267.296 0 0)
(267.317 0 0)
(267.394 0 0)
(267.298 0 0)
(267.059 0 0)
(266.908 0 0)
(266.99 0 0)
(267.067 0 0)
(266.961 0 0)
(266.746 0 0)
(266.663 0 0)
(266.773 0 0)
(266.818 0 0)
(266.694 0 0)
(266.533 0 0)
(266.568 0 0)
(266.69 0 0)
(266.652 0 0)
(266.483 0 0)
(266.378 0 0)
(266.468 0 0)
(266.534 0 0)
(266.417 0 0)
(266.173 0 0)
(266.012 0 0)
(266.054 0 0)
(266.065 0 0)
(265.894 0 0)
(265.541 0 0)
(265.143 0 0)
(265.011 0 0)
(264.971 0 0)
(264.81 0 0)
(264.594 0 0)
(264.321 0 0)
(263.891 0 0)
(263.573 0 0)
(263.607 0 0)
(263.699 0 0)
(263.64 0 0)
(263.513 0 0)
(263.143 0 0)
(262.537 0 0)
(262.341 0 0)
(262.583 0 0)
(262.77 0 0)
(262.659 0 0)
(262.093 0 0)
(261.374 0 0)
(261.27 0 0)
(261.554 0 0)
(261.703 0 0)
(261.624 0 0)
(261.146 0 0)
(260.387 0 0)
(260.078 0 0)
(260.242 0 0)
(260.46 0 0)
(260.358 0 0)
(259.926 0 0)
(259.467 0 0)
(259.336 0 0)
(259.361 0 0)
(259.321 0 0)
(259.153 0 0)
(259.004 0 0)
(258.95 0 0)
(258.861 0 0)
(258.74 0 0)
(258.789 0 0)
(258.898 0 0)
(258.802 0 0)
(258.538 0 0)
(258.458 0 0)
(258.586 0 0)
(258.595 0 0)
(258.355 0 0)
(258.146 0 0)
(258.184 0 0)
(258.255 0 0)
(258.163 0 0)
(257.98 0 0)
(257.932 0 0)
(257.974 0 0)
(257.905 0 0)
(257.805 0 0)
(257.943 0 0)
(258.08 0 0)
(257.814 0 0)
(257.466 0 0)
(257.616 0 0)
(257.981 0 0)
(257.885 0 0)
(257.36 0 0)
(257.145 0 0)
(257.526 0 0)
(257.948 0 0)
(257.764 0 0)
(257.102 0 0)
(256.737 0 0)
(257.041 0 0)
(257.562 0 0)
(257.555 0 0)
(257.023 0 0)
(256.573 0 0)
(256.786 0 0)
(257.274 0 0)
(257.295 0 0)
(256.815 0 0)
(256.441 0 0)
(256.676 0 0)
(257.109 0 0)
(257.045 0 0)
(256.568 0 0)
(256.344 0 0)
(256.64 0 0)
(256.943 0 0)
(256.718 0 0)
(256.292 0 0)
(256.35 0 0)
(256.746 0 0)
(256.784 0 0)
(256.348 0 0)
(256.103 0 0)
(256.446 0 0)
(256.888 0 0)
(256.681 0 0)
(256.077 0 0)
(256.013 0 0)
(256.491 0 0)
(256.784 0 0)
(256.526 0 0)
(256.117 0 0)
(256.029 0 0)
(256.383 0 0)
(256.805 0 0)
(256.545 0 0)
(255.876 0 0)
(256.089 0 0)
)
;

boundaryField
{
    sides
    {
        type            zeroGradient;
    }
    empty
    {
        type            empty;
    }
}


// ************************************************************************* //
