/*--------------------------------*- C++ -*----------------------------------*\
  =========                 |
  \\      /  F ield         | OpenFOAM: The Open Source CFD Toolbox
   \\    /   O peration     | Website:  https://openfoam.org
    \\  /    A nd           | Version:  9
     \\/     M anipulation  |
\*---------------------------------------------------------------------------*/
FoamFile
{
    format      ascii;
    class       surfaceScalarField;
    location    "0.004";
    object      phi;
}
// * * * * * * * * * * * * * * * * * * * * * * * * * * * * * * * * * * * * * //

dimensions      [1 0 -1 0 0 0 0];

internalField   nonuniform List<scalar> 
9999
(
-1.84173e-11
-1.92415e-11
-2.01794e-11
-2.16289e-11
-2.22542e-11
-2.20552e-11
-2.16005e-11
-2.21121e-11
-2.11173e-11
-1.86162e-11
-1.63993e-11
-1.72236e-11
-1.88152e-11
-1.90994e-11
-2.01226e-11
-2.01794e-11
-1.9071e-11
-1.90994e-11
-1.92415e-11
-1.62856e-11
-1.45235e-11
-1.27045e-11
-1.04308e-11
-8.29914e-12
-6.79279e-12
-5.68434e-12
-3.78009e-12
-3.58114e-12
-2.01794e-12
-2.13163e-12
-9.66338e-13
-9.66338e-13
-5.68434e-14
3.97904e-13
1.7053e-12
3.41061e-12
4.0643e-12
4.63274e-12
6.53699e-12
7.04858e-12
8.55493e-12
7.75913e-12
5.22959e-12
4.0643e-12
2.87059e-12
1.36424e-12
-3.97904e-13
-3.06954e-12
-6.45173e-12
-9.57812e-12
-1.02887e-11
-1.09424e-11
-1.00897e-11
-1.17382e-11
-1.44951e-11
-1.69678e-11
-2.02363e-11
-2.15721e-11
-2.41869e-11
-2.70575e-11
-2.97575e-11
-3.02691e-11
-3.03544e-11
-3.41061e-11
-3.26281e-11
-3.08944e-11
-3.10081e-11
-3.06386e-11
-2.92459e-11
-2.89901e-11
-2.83649e-11
-2.44711e-11
-2.42153e-11
-2.15437e-11
-1.92983e-11
-1.74509e-11
-1.82183e-11
-1.58025e-11
-1.59162e-11
-1.39266e-11
-1.02318e-11
-7.04858e-12
-4.46221e-12
-2.81375e-12
-7.95808e-13
-2.55795e-13
1.98952e-13
9.37916e-13
-1.08002e-12
-2.04636e-12
-4.88853e-12
-8.44125e-12
-9.15179e-12
-1.2534e-11
-1.4353e-11
-1.38698e-11
-1.40972e-11
-1.3614e-11
-1.3813e-11
-1.29887e-11
-1.08002e-11
-9.35074e-12
-6.6791e-12
-7.27596e-12
-7.9865e-12
-6.16751e-12
-6.42331e-12
-5.34328e-12
-3.24007e-12
-1.27898e-12
-2.47269e-12
-2.47269e-12
-4.14957e-12
-4.74643e-12
-3.29692e-12
-2.50111e-12
-2.70006e-12
-1.98952e-12
-1.7053e-12
-3.35376e-12
-2.67164e-12
-3.86535e-12
-6.87805e-12
-1.04592e-11
-1.40403e-11
-1.50067e-11
-1.68257e-11
-1.83036e-11
-1.87299e-11
-1.83888e-11
-1.65699e-11
-1.50067e-11
-1.39835e-11
-1.11982e-11
-9.12337e-12
-7.24754e-12
-5.6275e-12
-5.91172e-12
-3.89377e-12
-4.0643e-12
-5.85487e-12
-6.11067e-12
-7.30438e-12
-6.53699e-12
-7.41807e-12
-9.54969e-12
-1.03455e-11
-9.63496e-12
-8.896e-12
-8.896e-12
-8.92442e-12
-9.74865e-12
-8.32756e-12
-8.46967e-12
-1.08002e-11
-1.25908e-11
-1.27898e-11
-1.44667e-11
-1.44098e-11
-1.26761e-11
-1.22498e-11
-1.20508e-11
-1.1255e-11
-9.80549e-12
-8.81073e-12
-6.11067e-12
-4.12115e-12
-1.84741e-12
-2.27374e-13
-5.96856e-13
-1.93268e-12
-3.0127e-12
-4.26326e-12
-5.14433e-12
-7.92966e-12
-1.03739e-11
-1.1795e-11
-1.44098e-11
-1.7792e-11
-2.16005e-11
-2.50964e-11
-2.60343e-11
-2.68869e-11
-2.61764e-11
-2.6489e-11
-2.87628e-11
-2.93312e-11
-2.74269e-11
-2.51816e-11
-2.35332e-11
-2.06057e-11
-1.73088e-11
-1.31877e-11
-8.3844e-12
-7.10543e-12
-4.37694e-12
-3.63798e-12
-2.16005e-12
-7.10543e-13
-1.44951e-12
-3.18323e-12
-5.42855e-12
-8.18545e-12
-1.15108e-11
-1.46088e-11
-1.60867e-11
-1.89857e-11
-2.16005e-11
-2.39879e-11
-2.70575e-11
-3.22871e-11
-3.7204e-11
-3.98757e-11
-3.95346e-11
-3.95346e-11
-3.9563e-11
-3.66924e-11
-3.63798e-11
-3.39924e-11
-3.27702e-11
-3.16049e-11
-3.11218e-11
-2.88196e-11
-2.61196e-11
-2.50679e-11
-2.3789e-11
-2.12879e-11
-1.68541e-11
-1.51203e-11
-1.1795e-11
-1.07434e-11
-9.72022e-12
-6.73595e-12
-6.11067e-12
-3.49587e-12
-3.63798e-12
-2.55795e-12
-4.12115e-12
-5.51381e-12
-3.15481e-12
-2.21689e-12
-3.49587e-12
-5.54223e-12
-7.53175e-12
-1.00897e-11
-1.30171e-11
-1.53477e-11
-1.71951e-11
-1.94973e-11
-2.36753e-11
-2.7768e-11
-3.13776e-11
-3.43618e-11
-3.54134e-11
-3.51577e-11
-3.35092e-11
-3.09228e-11
-3.14913e-11
-2.90186e-11
-2.65459e-11
-2.16858e-11
-1.47793e-11
-8.83915e-12
-3.9222e-12
8.52651e-14
3.04112e-12
5.40012e-12
6.48015e-12
7.41807e-12
9.00968e-12
1.1994e-11
1.35287e-11
1.24203e-11
1.21076e-11
1.09139e-11
9.97602e-12
6.53699e-12
6.19593e-12
4.12115e-12
2.18847e-12
1.39266e-12
1.44951e-12
1.36424e-12
7.95808e-13
4.26326e-13
-1.42109e-12
-3.18323e-12
-4.03588e-12
-3.80851e-12
-4.12115e-12
-3.83693e-12
-5.79803e-12
-7.10543e-12
-7.16227e-12
-8.92442e-12
-1.00044e-11
-1.10845e-11
-1.15676e-11
-1.39551e-11
-1.73657e-11
-2.01794e-11
-2.07194e-11
-2.33626e-11
-2.33342e-11
-2.53806e-11
-2.75406e-11
-3.0127e-11
-3.03544e-11
-2.88765e-11
-2.60627e-11
-2.62332e-11
-2.72848e-11
-2.67164e-11
-2.62901e-11
-2.71427e-11
-2.65743e-11
-2.64322e-11
-2.92175e-11
-2.96438e-11
-3.02123e-11
-3.34524e-11
-3.43903e-11
-3.47598e-11
-3.35376e-11
-3.44471e-11
-3.5044e-11
-3.58114e-11
-3.35376e-11
-3.08376e-11
-3.02691e-11
-2.75406e-11
-2.36184e-11
-2.24816e-11
-2.305e-11
-2.24247e-11
-2.11458e-11
-2.05205e-11
-2.0691e-11
-2.02363e-11
-2.10321e-11
-2.21974e-11
-2.02931e-11
-1.82752e-11
-1.73372e-11
-1.67404e-11
-1.45519e-11
-8.83915e-12
-6.65068e-12
-4.80327e-12
-3.2685e-12
-1.27898e-12
9.9476e-13
4.29168e-12
7.24754e-12
7.64544e-12
8.98126e-12
1.02034e-11
7.38964e-12
6.08225e-12
6.33804e-12
4.37694e-12
4.03588e-12
3.41061e-12
3.75167e-12
2.78533e-12
8.52651e-13
-3.04112e-12
-5.74119e-12
-8.2423e-12
-1.17666e-11
-1.27898e-11
-1.32445e-11
-1.48361e-11
-1.56604e-11
-1.4893e-11
-1.47224e-11
-1.32729e-11
-1.20792e-11
-1.37277e-11
-1.18519e-11
-1.20224e-11
-1.04023e-11
-1.04876e-11
-8.07177e-12
-7.04858e-12
-6.76437e-12
-6.16751e-12
-5.68434e-12
-3.69482e-12
-1.98952e-12
-2.84217e-14
1.79057e-12
5.45697e-12
7.92966e-12
7.50333e-12
8.07177e-12
7.07701e-12
6.73595e-12
8.81073e-12
8.86757e-12
8.32756e-12
6.59384e-12
6.30962e-12
4.51905e-12
4.37694e-12
9.9476e-13
-3.6664e-12
-6.36646e-12
-5.40012e-12
-6.96332e-12
-8.92442e-12
-1.1795e-11
-1.31308e-11
-1.3813e-11
-1.51488e-11
-1.65414e-11
-1.82467e-11
-2.143e-11
-2.17995e-11
-2.45279e-11
-2.60627e-11
-2.53806e-11
-2.68017e-11
-2.67448e-11
-2.65743e-11
-2.93312e-11
-2.96154e-11
-2.95586e-11
-2.91323e-11
-2.77396e-11
-2.62901e-11
-2.33626e-11
-2.43574e-11
-2.305e-11
-2.40732e-11
-2.00941e-11
-1.89289e-11
-2.00941e-11
-2.03499e-11
-2.05205e-11
-1.93268e-11
-1.75078e-11
-1.67972e-11
-1.31593e-11
-1.1994e-11
-9.12337e-12
-4.60432e-12
-4.43379e-12
-5.88329e-12
-8.18545e-12
-9.66338e-12
-1.06297e-11
-1.22213e-11
-1.23919e-11
-1.49498e-11
-1.8531e-11
-2.06057e-11
-2.15721e-11
-2.53522e-11
-2.92744e-11
-3.08091e-11
-3.0866e-11
-3.10081e-11
-3.37934e-11
-3.40208e-11
-3.38787e-11
-3.33102e-11
-3.36797e-11
-3.10934e-11
-3.28555e-11
-3.19176e-11
-3.32534e-11
-3.43903e-11
-3.07239e-11
-2.93312e-11
-2.74269e-11
-2.8308e-11
-2.82796e-11
-2.75406e-11
-2.87912e-11
-2.92175e-11
-3.18039e-11
-3.00986e-11
-3.20597e-11
-3.22586e-11
-3.37366e-11
-3.32534e-11
-3.41913e-11
-3.30829e-11
-3.19176e-11
-3.10365e-11
-2.87343e-11
-2.80522e-11
-2.69722e-11
-2.68585e-11
-2.48122e-11
-2.62901e-11
-2.50964e-11
-2.32774e-11
-2.39879e-11
-2.54943e-11
-2.5608e-11
-2.66311e-11
-2.82796e-11
-2.91323e-11
-2.91891e-11
-2.89617e-11
-3.13207e-11
-3.28271e-11
-3.25997e-11
-3.17755e-11
-3.15197e-11
-3.26565e-11
-3.55271e-11
-3.62945e-11
-3.68345e-11
-3.85398e-11
-3.70335e-11
-3.85683e-11
-3.81988e-11
-3.67493e-11
-3.62377e-11
-3.47029e-11
-3.25713e-11
-3.10934e-11
-3.0127e-11
-2.97575e-11
-2.71143e-11
-2.67448e-11
-2.33911e-11
-2.09468e-11
-1.69109e-11
-1.64277e-11
-1.40403e-11
-1.2534e-11
-1.09424e-11
-1.04023e-11
-1.21929e-11
-1.21076e-11
-1.40119e-11
-1.47509e-11
-1.45519e-11
-1.44951e-11
-1.63425e-11
-1.74509e-11
-1.9611e-11
-2.28226e-11
-2.25384e-11
-2.58922e-11
-2.70575e-11
-2.8848e-11
-2.80238e-11
-2.99849e-11
-3.32534e-11
-3.23439e-11
-3.18323e-11
-2.68869e-11
-2.75122e-11
-2.64038e-11
-2.63185e-11
-2.33626e-11
-2.21405e-11
-2.20837e-11
-2.20268e-11
-2.22826e-11
-2.30784e-11
-2.29647e-11
-2.48974e-11
-2.34763e-11
-2.31353e-11
-2.02931e-11
-2.21689e-11
-2.31353e-11
-2.40163e-11
-2.6489e-11
-2.62048e-11
-2.67448e-11
-2.49258e-11
-2.63185e-11
-2.91891e-11
-3.05818e-11
-3.44755e-11
-3.60103e-11
-3.84546e-11
-3.83125e-11
-3.92504e-11
-4.05578e-11
-4.13536e-11
-3.87672e-11
-3.80567e-11
-3.70335e-11
-3.50155e-11
-3.30829e-11
-2.95586e-11
-2.62332e-11
-2.13731e-11
-1.73372e-11
-1.29035e-11
-9.06653e-12
-3.86535e-12
-2.359e-12
-6.82121e-13
6.53699e-13
9.09495e-13
1.84741e-12
3.0127e-12
3.24007e-12
3.89377e-12
2.84217e-12
2.18847e-12
-7.10543e-13
-2.21689e-12
-3.6664e-12
-7.38964e-12
-8.32756e-12
-1.06013e-11
-1.26192e-11
-1.31308e-11
-1.31593e-11
-1.7252e-11
-2.04921e-11
-2.05205e-11
-2.251e-11
-2.39311e-11
-2.64606e-11
-3.00986e-11
-3.0127e-11
-3.15765e-11
-3.10934e-11
-3.1946e-11
-3.41345e-11
-3.42482e-11
-3.23439e-11
-3.18323e-11
-3.27987e-11
-3.18039e-11
-3.20028e-11
-3.51577e-11
-3.43903e-11
-3.81704e-11
-3.49303e-11
-3.32534e-11
-2.85354e-11
-2.58922e-11
-2.86491e-11
-2.81659e-11
-2.73701e-11
-2.76543e-11
-2.54659e-11
-2.8848e-11
-2.91323e-11
-2.9786e-11
-3.04681e-11
-3.40208e-11
-3.22302e-11
-3.14628e-11
-3.19744e-11
-3.1207e-11
-2.8848e-11
-2.60343e-11
-2.50679e-11
-1.97815e-11
-1.83036e-11
-1.67972e-11
-1.63993e-11
-1.92415e-11
-1.98952e-11
-1.76499e-11
-1.64846e-11
-1.83604e-11
-1.90141e-11
-2.23395e-11
-2.52101e-11
-2.71712e-11
-2.89901e-11
-3.0866e-11
-3.23439e-11
-3.40492e-11
-3.29976e-11
-3.40492e-11
-3.14628e-11
-3.16618e-11
-3.00702e-11
-2.85922e-11
-2.73417e-11
-2.73701e-11
-2.7228e-11
-2.77396e-11
-2.60911e-11
-2.44995e-11
-2.4869e-11
-2.28511e-11
-2.32774e-11
-2.11742e-11
-1.78773e-11
-1.62004e-11
-1.37277e-11
-1.33298e-11
-1.16245e-11
-1.21645e-11
-1.45803e-11
-1.56035e-11
-1.79909e-11
-1.81331e-11
-1.95541e-11
-1.98099e-11
-2.11742e-11
-2.21689e-11
-2.29079e-11
-2.49258e-11
-2.68585e-11
-2.56648e-11
-2.64322e-11
-2.58922e-11
-2.44142e-11
-2.251e-11
-1.83604e-11
-1.69109e-11
-1.39835e-11
-1.22782e-11
-1.11129e-11
-1.11982e-11
-8.78231e-12
-7.3328e-12
-6.39488e-12
-5.65592e-12
-6.65068e-12
-6.84963e-12
-6.33804e-12
-8.78231e-12
-1.08571e-11
-1.29319e-11
-1.21361e-11
-1.32161e-11
-1.12834e-11
-1.02887e-11
-8.52651e-12
-8.52651e-12
-8.3844e-12
-9.20863e-12
-1.00613e-11
-1.08287e-11
-8.18545e-12
-9.57812e-12
-1.24487e-11
-1.5433e-11
-1.57172e-11
-1.66835e-11
-1.62004e-11
-1.55183e-11
-1.56888e-11
-1.73657e-11
-1.68541e-11
-1.79625e-11
-2.02363e-11
-2.10605e-11
-2.18279e-11
-2.62332e-11
-2.77396e-11
-2.74269e-11
-2.51248e-11
-2.70575e-11
-2.5949e-11
-2.44427e-11
-2.60627e-11
-2.58638e-11
-2.71996e-11
-2.87912e-11
-3.12355e-11
-3.29976e-11
-3.38503e-11
-3.17755e-11
-3.23155e-11
-3.27987e-11
-3.24576e-11
-3.56692e-11
-3.73745e-11
-3.73745e-11
-3.64366e-11
-3.72893e-11
-3.39639e-11
-3.30544e-11
-3.37081e-11
-3.33102e-11
-3.11218e-11
-2.96154e-11
-3.08944e-11
-3.09228e-11
-3.10934e-11
-2.98712e-11
-2.93596e-11
-2.64606e-11
-2.76259e-11
-2.61764e-11
-2.41016e-11
-2.17995e-11
-2.46132e-11
-2.82796e-11
-3.02123e-11
-2.87628e-11
-2.9786e-11
-3.05818e-11
-3.45608e-11
-3.56408e-11
-3.78293e-11
-3.94778e-11
-4.31442e-11
-4.4821e-11
-4.35136e-11
-4.33431e-11
-4.13536e-11
-3.89662e-11
-3.4504e-11
-3.18039e-11
-2.7029e-11
-2.68869e-11
-2.4329e-11
-2.39311e-11
-2.03215e-11
-2.03784e-11
-1.85878e-11
-1.60867e-11
-1.4353e-11
-1.2534e-11
-1.0516e-11
-1.07434e-11
-1.08287e-11
-1.08855e-11
-1.08855e-11
-1.31308e-11
-1.51488e-11
-1.90141e-11
-2.20552e-11
-2.63185e-11
-2.78249e-11
-2.81659e-11
-2.8308e-11
-2.83649e-11
-2.82796e-11
-2.79101e-11
-2.99849e-11
-2.84217e-11
-2.60343e-11
-2.24532e-11
-1.96962e-11
-1.68257e-11
-1.25056e-11
-8.92442e-12
-4.80327e-12
-1.59162e-12
3.69482e-13
3.12639e-13
4.54747e-13
9.37916e-13
1.22213e-12
3.35376e-12
3.58114e-12
3.32534e-12
4.29168e-12
4.14957e-12
2.16005e-12
-1.44951e-12
-3.97904e-12
-6.42331e-12
-6.42331e-12
-5.00222e-12
-4.20641e-12
-4.20641e-12
-4.12115e-12
-5.54223e-12
-4.77485e-12
-4.68958e-12
-3.38218e-12
-3.80851e-12
-2.67164e-12
-2.89901e-12
-4.03588e-12
-6.11067e-12
-6.59384e-12
-7.10543e-12
-6.62226e-12
-8.32756e-12
-7.13385e-12
-8.04334e-12
-8.86757e-12
-8.18545e-12
-7.02016e-12
-5.99698e-12
-7.7307e-12
-9.09495e-12
-1.1994e-11
-1.42109e-11
-1.97531e-11
-2.31353e-11
-2.68301e-11
-2.64606e-11
-3.04965e-11
-3.58114e-11
-4.10694e-11
-4.10978e-11
-4.07567e-11
-4.08704e-11
-3.52429e-11
-3.29692e-11
-3.16049e-11
-3.00417e-11
-2.73417e-11
-2.63753e-11
-2.63185e-11
-2.81659e-11
-2.63469e-11
-2.60343e-11
-2.63469e-11
-2.39595e-11
-2.18563e-11
-2.23395e-11
-2.04352e-11
-2.00373e-11
-1.87867e-11
-2.11458e-11
-2.11173e-11
-2.27089e-11
-2.1231e-11
-2.37321e-11
-2.31068e-11
-2.60911e-11
-2.55227e-11
-2.54374e-11
-2.71143e-11
-2.62901e-11
-2.78533e-11
-2.84217e-11
-2.82512e-11
-2.81375e-11
-2.80522e-11
-2.74269e-11
-3.16902e-11
-3.14344e-11
-3.20028e-11
-2.94449e-11
-2.81659e-11
-2.39879e-11
-2.08615e-11
-1.77067e-11
-1.42393e-11
-1.42109e-11
-1.44951e-11
-1.31593e-11
-1.43814e-11
-1.53761e-11
-1.62288e-11
-1.70246e-11
-1.88152e-11
-1.98952e-11
-1.79341e-11
-1.56035e-11
-1.59162e-11
-1.73657e-11
-1.6712e-11
-1.75362e-11
-1.7593e-11
-1.85594e-11
-1.90994e-11
-1.64562e-11
-1.68825e-11
-1.68825e-11
-1.85594e-11
-1.67688e-11
-1.49214e-11
-1.3614e-11
-1.23634e-11
-1.0715e-11
-8.6402e-12
-5.68434e-12
-4.00746e-12
-3.89377e-12
-3.72324e-12
-4.26326e-12
-5.40012e-12
-6.9349e-12
-9.63496e-12
-1.08002e-11
-1.25624e-11
-1.40687e-11
-1.66551e-11
-2.00657e-11
-1.87015e-11
-1.92983e-11
-2.06342e-11
-2.13731e-11
-2.07194e-11
-2.18279e-11
-1.98668e-11
-1.92131e-11
-1.79625e-11
-1.83888e-11
-2.10605e-11
-1.89857e-11
-1.87015e-11
-1.85594e-11
-1.67972e-11
-2.03215e-11
-2.15152e-11
-2.02078e-11
-2.11173e-11
-2.01794e-11
-2.13447e-11
-2.02931e-11
-2.00657e-11
-1.98952e-11
-2.13163e-11
-2.467e-11
-2.78817e-11
-3.05249e-11
-2.99849e-11
-3.22018e-11
-3.48734e-11
-3.24576e-11
-3.10365e-11
-3.23439e-11
-3.2145e-11
-3.25429e-11
-3.24576e-11
-3.29123e-11
-3.26565e-11
-3.45324e-11
-3.61524e-11
-3.78577e-11
-3.67493e-11
-3.6664e-11
-3.52998e-11
-3.56408e-11
-3.56124e-11
-3.40776e-11
-3.1946e-11
-3.00986e-11
-2.83649e-11
-2.50395e-11
-2.38174e-11
-2.41869e-11
-2.46985e-11
-2.45564e-11
-2.39027e-11
-2.71996e-11
-2.89049e-11
-3.22018e-11
-3.25144e-11
-3.52429e-11
-3.89093e-11
-4.10978e-11
-4.34284e-11
-4.48495e-11
-4.61569e-11
-4.49063e-11
-4.59863e-11
-4.57874e-11
-4.68958e-11
-4.53895e-11
-4.59863e-11
-4.40536e-11
-4.37979e-11
-4.12399e-11
-4.28315e-11
-4.44231e-11
-4.51337e-11
-4.23768e-11
-4.14104e-11
-3.70619e-11
-3.16049e-11
-2.66596e-11
-2.28511e-11
-2.05205e-11
-2.20552e-11
-2.00089e-11
-1.91562e-11
-2.24816e-11
-2.413e-11
-2.23679e-11
-2.16005e-11
-2.00657e-11
-1.98952e-11
-2.10605e-11
-2.02931e-11
-2.04068e-11
-2.20837e-11
-2.38742e-11
-2.52669e-11
-2.66027e-11
-2.75122e-11
-2.93312e-11
-3.0326e-11
-3.04965e-11
-3.34524e-11
-3.41629e-11
-3.31681e-11
-3.36229e-11
-3.47313e-11
-3.74598e-11
-3.91367e-11
-3.7744e-11
-3.6124e-11
-3.8483e-11
-4.06999e-11
-3.9222e-11
-4.12399e-11
-4.26894e-11
-4.49916e-11
-4.28031e-11
-4.58158e-11
-4.47642e-11
-4.24336e-11
-4.06999e-11
-3.90799e-11
-3.71472e-11
-3.75167e-11
-3.68345e-11
-3.55271e-11
-3.54987e-11
-3.59535e-11
-3.64935e-11
-3.89093e-11
-3.86535e-11
-3.81135e-11
-3.91651e-11
-3.85683e-11
-3.84262e-11
-3.73461e-11
-3.9762e-11
-4.28315e-11
-4.16094e-11
-4.45368e-11
-4.64979e-11
-4.99938e-11
-5.12728e-11
-4.89706e-11
-4.80043e-11
-4.65832e-11
-4.71232e-11
-4.64695e-11
-4.55884e-11
-4.60432e-11
-4.56737e-11
-4.23199e-11
-4.10694e-11
-3.81704e-11
-3.88809e-11
-3.78009e-11
-3.79998e-11
-3.75735e-11
-3.7403e-11
-3.43903e-11
-3.26281e-11
-3.22018e-11
-3.20881e-11
-3.15765e-11
-2.91607e-11
-3.0866e-11
-3.22871e-11
-3.07523e-11
-3.36797e-11
-3.5044e-11
-3.64082e-11
-3.62945e-11
-3.72324e-11
-3.78861e-11
-3.57829e-11
-3.76588e-11
-3.54987e-11
-3.46176e-11
-3.37081e-11
-3.53566e-11
-3.51292e-11
-3.6863e-11
-4.01315e-11
-4.01315e-11
-4.10978e-11
-4.20073e-11
-4.14673e-11
-4.17799e-11
-4.30873e-11
-4.2121e-11
-4.49063e-11
-4.47642e-11
-4.62137e-11
-4.9539e-11
-5.08749e-11
-4.86864e-11
-4.59579e-11
-4.22915e-11
-4.2121e-11
-4.04157e-11
-3.75451e-11
-3.72609e-11
-3.63514e-11
-3.81704e-11
-3.95914e-11
-3.92788e-11
-3.8284e-11
-3.7744e-11
-3.4845e-11
-3.4504e-11
-3.75167e-11
-3.87956e-11
-4.03304e-11
-4.11546e-11
-4.17799e-11
-4.10409e-11
-4.20641e-11
-4.31442e-11
-3.97051e-11
-3.83693e-11
-3.89093e-11
-3.81988e-11
-3.44471e-11
-3.09228e-11
-3.05533e-11
-3.05818e-11
-2.89333e-11
-2.65459e-11
-2.68585e-11
-2.51816e-11
-2.13731e-11
-2.06057e-11
-1.77351e-11
-1.33582e-11
-1.35003e-11
-1.20224e-11
-1.10845e-11
-1.11413e-11
-1.02318e-11
-1.17097e-11
-1.37845e-11
-1.57456e-11
-2.02363e-11
-2.05205e-11
-2.05205e-11
-1.90141e-11
-1.82467e-11
-1.61151e-11
-1.58877e-11
-1.6712e-11
-1.7593e-11
-1.88436e-11
-1.9611e-11
-1.95826e-11
-1.89004e-11
-1.85025e-11
-1.93836e-11
-1.94689e-11
-2.02078e-11
-1.89857e-11
-1.95541e-11
-2.2311e-11
-2.305e-11
-2.47837e-11
-2.5409e-11
-2.53522e-11
-2.43858e-11
-2.49543e-11
-2.19984e-11
-2.03784e-11
-2.04352e-11
-1.98099e-11
-1.95257e-11
-1.98099e-11
-1.83036e-11
-2.08047e-11
-2.04636e-11
-1.91562e-11
-1.80762e-11
-2.07763e-11
-2.24532e-11
-2.35616e-11
-2.49258e-11
-2.63469e-11
-2.87059e-11
-2.76543e-11
-2.66596e-11
-2.64038e-11
-2.71427e-11
-2.47269e-11
-2.31921e-11
-2.33058e-11
-2.26805e-11
-2.467e-11
-2.55227e-11
-2.99849e-11
-3.23723e-11
-3.37081e-11
-3.32534e-11
-3.47882e-11
-3.58398e-11
-3.49587e-11
-3.63514e-11
-3.75167e-11
-3.79998e-11
-4.04725e-11
-4.40821e-11
-4.43947e-11
-4.70379e-11
-4.60716e-11
-4.32578e-11
-4.49631e-11
-4.3002e-11
-4.23483e-11
-4.37126e-11
-4.448e-11
-4.08136e-11
-3.87388e-11
-3.58114e-11
-3.33671e-11
-3.09797e-11
-3.24292e-11
-3.1946e-11
-3.32818e-11
-3.02691e-11
-2.74838e-11
-2.50679e-11
-2.467e-11
-2.50395e-11
-2.91891e-11
-2.87059e-11
-2.97291e-11
-2.91323e-11
-2.87059e-11
-2.73985e-11
-2.55227e-11
-2.73417e-11
-2.87343e-11
-3.14913e-11
-3.31681e-11
-3.22302e-11
-3.47882e-11
-3.66072e-11
-3.70903e-11
-3.56408e-11
-3.78577e-11
-3.87104e-11
-3.79146e-11
-3.48734e-11
-3.63229e-11
-3.30829e-11
-3.1207e-11
-2.96438e-11
-2.80806e-11
-2.68301e-11
-2.70575e-11
-2.63469e-11
-2.75122e-11
-2.7228e-11
-2.87912e-11
-2.91323e-11
-2.95586e-11
-3.25144e-11
-3.17755e-11
-3.04112e-11
-3.18039e-11
-3.01554e-11
-3.14344e-11
-3.30544e-11
-3.41345e-11
-3.54419e-11
-3.40208e-11
-3.23155e-11
-3.16049e-11
-3.2685e-11
-3.1946e-11
-3.63798e-11
-3.51577e-11
-3.54987e-11
-3.3765e-11
-3.23723e-11
-3.73461e-11
-3.81419e-11
-3.67777e-11
-4.02167e-11
-4.10978e-11
-4.1382e-11
-4.28031e-11
-4.32863e-11
-4.38547e-11
-4.50484e-11
-4.50768e-11
-4.29168e-11
-4.19789e-11
-3.91083e-11
-3.45892e-11
-3.69198e-11
-3.50724e-11
-3.39639e-11
-3.04112e-11
-2.64606e-11
-2.4869e-11
-2.15152e-11
-1.90994e-11
-1.85594e-11
-1.4353e-11
-1.19371e-11
-1.06013e-11
-1.00897e-11
-1.09139e-11
-1.14824e-11
-1.49214e-11
-1.51488e-11
-1.57456e-11
-1.74794e-11
-1.93836e-11
-2.01226e-11
-2.21405e-11
-2.4869e-11
-2.63469e-11
-2.9388e-11
-3.2685e-11
-3.30544e-11
-3.3566e-11
-3.74598e-11
-3.48166e-11
-3.53566e-11
-3.59819e-11
-3.53282e-11
-3.62945e-11
-3.52145e-11
-3.64082e-11
-3.73745e-11
-3.51292e-11
-3.83693e-11
-3.97904e-11
-3.68345e-11
-3.52713e-11
-3.6124e-11
-3.72893e-11
-3.85114e-11
-3.82272e-11
-4.06146e-11
-4.34568e-11
-4.38547e-11
-4.12115e-11
-4.13536e-11
-4.30305e-11
-4.14673e-11
-4.36273e-11
-4.06715e-11
-3.85114e-11
-3.72324e-11
-3.54419e-11
-3.3026e-11
-3.01839e-11
-2.96438e-11
-2.85922e-11
-2.69438e-11
-2.53806e-11
-2.49827e-11
-2.35332e-11
-2.25384e-11
-2.25384e-11
-2.23395e-11
-2.16005e-11
-2.14584e-11
-2.10605e-11
-2.305e-11
-2.251e-11
-2.01226e-11
-1.81615e-11
-1.61151e-11
-1.66267e-11
-1.79625e-11
-1.68825e-11
-1.56035e-11
-1.4154e-11
-1.44667e-11
-1.28466e-11
-1.46088e-11
-1.37277e-11
-1.33582e-11
-1.10845e-11
-1.11129e-11
-1.27898e-11
-1.35287e-11
-1.41824e-11
-1.76499e-11
-2.10036e-11
-2.36184e-11
-2.71427e-11
-2.77112e-11
-2.9047e-11
-2.77112e-11
-2.75691e-11
-2.9587e-11
-3.00986e-11
-3.3026e-11
-3.34808e-11
-3.40776e-11
-3.51008e-11
-3.44187e-11
-3.75167e-11
-3.85114e-11
-4.2462e-11
-4.50768e-11
-4.65548e-11
-4.74927e-11
-4.85159e-11
-4.88001e-11
-4.89138e-11
-4.83453e-11
-4.73221e-11
-4.6299e-11
-4.56453e-11
-4.41958e-11
-4.53042e-11
-4.20073e-11
-4.00462e-11
-3.67208e-11
-3.52145e-11
-3.02407e-11
-2.94449e-11
-2.75975e-11
-2.53237e-11
-2.30216e-11
-2.10036e-11
-1.63709e-11
-1.23634e-11
-1.12266e-11
-7.5886e-12
-4.88853e-12
-2.70006e-12
-3.21165e-12
-4.00746e-12
-3.75167e-12
-3.38218e-12
-3.95062e-12
-6.70752e-12
-8.44125e-12
-8.04334e-12
-1.01466e-11
-1.29603e-11
-1.65699e-11
-2.143e-11
-2.305e-11
-2.63469e-11
-3.14344e-11
-3.38787e-11
-3.63229e-11
-3.83125e-11
-4.31442e-11
-4.35989e-11
-4.43947e-11
-4.37694e-11
-4.1922e-11
-3.67493e-11
-3.61524e-11
-3.52998e-11
-3.19744e-11
-2.71143e-11
-2.50111e-11
-1.90425e-11
-1.51772e-11
-1.22498e-11
-1.09708e-11
-1.03171e-11
-7.84439e-12
-7.27596e-12
-5.94014e-12
-7.02016e-12
-7.5886e-12
-9.66338e-12
-9.23706e-12
-1.08002e-11
-1.17382e-11
-1.29319e-11
-1.50919e-11
-1.73088e-11
-1.87583e-11
-2.12879e-11
-2.18563e-11
-2.63753e-11
-3.11502e-11
-3.57261e-11
-3.94209e-11
-4.33715e-11
-4.30589e-11
-4.56453e-11
-4.37979e-11
-4.26041e-11
-3.91935e-11
-3.49303e-11
-3.21734e-11
-3.10934e-11
-3.06386e-11
-3.05818e-11
-2.92175e-11
-2.75975e-11
-2.62332e-11
-2.29932e-11
-2.02647e-11
-1.8332e-11
-1.52625e-11
-1.6513e-11
-1.62572e-11
-1.67688e-11
-1.83036e-11
-1.85878e-11
-2.17995e-11
-2.36753e-11
-2.76827e-11
-2.59774e-11
-2.95017e-11
-2.92459e-11
-3.03828e-11
-2.89333e-11
-2.81375e-11
-2.90186e-11
-2.88765e-11
-3.04681e-11
-2.98144e-11
-3.04681e-11
-3.47882e-11
-3.58114e-11
-3.73177e-11
-3.89377e-11
-3.95346e-11
-3.62945e-11
-3.71756e-11
-3.80282e-11
-3.79998e-11
-4.01599e-11
-4.41673e-11
-4.31157e-11
-4.56168e-11
-4.53895e-11
-4.34e-11
-4.45084e-11
-4.36557e-11
-4.1382e-11
-4.22915e-11
-4.22631e-11
-4.51053e-11
-4.49631e-11
-4.03872e-11
-3.90514e-11
-3.45324e-11
-3.27418e-11
-3.02975e-11
-3.11218e-11
-2.9047e-11
-2.68869e-11
-2.54659e-11
-2.47269e-11
-2.20268e-11
-2.17426e-11
-2.11742e-11
-2.12879e-11
-1.90425e-11
-1.76215e-11
-1.56035e-11
-1.50351e-11
-1.32161e-11
-1.28182e-11
-1.29035e-11
-1.55183e-11
-1.82467e-11
-1.98952e-11
-2.11173e-11
-2.26237e-11
-2.44995e-11
-2.56932e-11
-2.60059e-11
-2.5608e-11
-2.46985e-11
-2.44711e-11
-2.40732e-11
-2.11742e-11
-1.79909e-11
-1.68541e-11
-1.68257e-11
-1.6513e-11
-1.32161e-11
-1.04023e-11
-6.2812e-12
-4.34852e-12
-3.09797e-12
-2.70006e-12
-4.66116e-12
-7.30438e-12
-8.61178e-12
-1.08855e-11
-1.12266e-11
-1.13403e-11
-1.15392e-11
-1.31593e-11
-1.19371e-11
-1.31308e-11
-1.18234e-11
-1.27613e-11
-1.26477e-11
-1.10276e-11
-1.06866e-11
-9.26548e-12
-9.2939e-12
-1.08002e-11
-9.72022e-12
-1.04592e-11
-1.25908e-11
-1.28182e-11
-1.79057e-11
-2.15152e-11
-2.43006e-11
-2.73985e-11
-2.99565e-11
-3.28839e-11
-3.5044e-11
-3.79146e-11
-3.84546e-11
-3.9762e-11
-3.86535e-11
-3.65503e-11
-3.42197e-11
-3.32818e-11
-3.49587e-11
-3.42766e-11
-3.25144e-11
-3.11786e-11
-3.08091e-11
-2.66027e-11
-2.57216e-11
-2.42153e-11
-2.38742e-11
-2.18847e-11
-2.02363e-11
-1.97531e-11
-1.95826e-11
-1.98384e-11
-1.99236e-11
-1.88152e-11
-1.84457e-11
-2.02931e-11
-2.17142e-11
-2.197e-11
-2.21405e-11
-2.14584e-11
-2.17995e-11
-2.27089e-11
-2.41869e-11
-2.28226e-11
-2.20837e-11
-2.32774e-11
-2.49543e-11
-2.3249e-11
-2.25668e-11
-2.36753e-11
-2.27942e-11
-2.27658e-11
-2.42153e-11
-2.68301e-11
-2.66596e-11
-2.75691e-11
-2.77396e-11
-2.71712e-11
-2.69438e-11
-3.08091e-11
-3.11218e-11
-3.00986e-11
-3.08376e-11
-3.15765e-11
-3.25713e-11
-3.00417e-11
-3.29976e-11
-3.2145e-11
-3.36229e-11
-3.24007e-11
-3.13491e-11
-3.13491e-11
-3.07523e-11
-2.8848e-11
-2.60343e-11
-2.29932e-11
-2.20552e-11
-2.26237e-11
-2.07763e-11
-2.0151e-11
-2.18563e-11
-2.26237e-11
-2.413e-11
-2.55511e-11
-2.61764e-11
-2.69154e-11
-2.20268e-11
-1.9071e-11
-2.21121e-11
-2.16858e-11
-2.12026e-11
-2.39027e-11
-2.18563e-11
-2.13731e-11
-2.02078e-11
-2.02931e-11
-1.72236e-11
-1.51203e-11
-1.5234e-11
-1.13687e-11
-9.89075e-12
-6.73595e-12
-3.80851e-12
-2.75691e-12
-1.81899e-12
-2.50111e-12
-2.89901e-12
-3.75167e-12
-3.60956e-12
-5.74119e-12
-7.67386e-12
-9.6918e-12
-1.02318e-11
-1.15961e-11
-1.2875e-11
-1.41256e-11
-1.78488e-11
-1.93836e-11
-2.02931e-11
-1.88436e-11
-1.66267e-11
-1.30171e-11
-1.45235e-11
-1.35572e-11
-1.31877e-11
-1.22782e-11
-1.1795e-11
-9.35074e-12
-7.27596e-12
-5.99698e-12
-7.10543e-12
-7.78755e-12
-7.9865e-12
-6.96332e-12
-5.40012e-12
-3.78009e-12
-4.43379e-12
-5.42855e-12
-5.59908e-12
-7.70228e-12
-8.75389e-12
-1.06581e-11
-1.40972e-11
-1.73657e-11
-1.90425e-11
-2.20552e-11
-2.49543e-11
-2.64606e-11
-2.60059e-11
-2.47837e-11
-2.61764e-11
-2.61764e-11
-2.68301e-11
-2.45279e-11
-2.57501e-11
-2.58069e-11
-2.67164e-11
-2.71143e-11
-2.57501e-11
-2.48974e-11
-2.66027e-11
-2.79385e-11
-2.57785e-11
-2.48122e-11
-2.77396e-11
-2.7967e-11
-2.88765e-11
-2.71427e-11
-2.74838e-11
-2.82228e-11
-2.9587e-11
-2.95586e-11
-2.71712e-11
-2.68585e-11
-2.42153e-11
-2.359e-11
-2.34763e-11
-2.70006e-11
-2.75122e-11
-2.86491e-11
-2.76543e-11
-2.63469e-11
-2.76543e-11
-2.58638e-11
-2.31353e-11
-2.29932e-11
-2.32774e-11
-2.14015e-11
-2.38458e-11
-2.14015e-11
-2.39311e-11
-2.0691e-11
-1.80762e-11
-2.0691e-11
-2.25384e-11
-2.24247e-11
-2.05773e-11
-1.76215e-11
-1.66835e-11
-1.48077e-11
-1.5774e-11
-1.81331e-11
-2.08047e-11
-2.21405e-11
-2.43858e-11
-2.41869e-11
-2.67733e-11
-2.56648e-11
-2.75406e-11
-2.97007e-11
-2.89333e-11
-2.99281e-11
-3.36513e-11
-3.33955e-11
-3.40776e-11
-3.05533e-11
-3.0667e-11
-2.99281e-11
-2.77112e-11
-2.51816e-11
-2.40448e-11
-2.29932e-11
-2.25384e-11
-2.01226e-11
-1.9412e-11
-1.87015e-11
-2.02647e-11
-1.90994e-11
-1.77636e-11
-1.81331e-11
-1.66835e-11
-1.37277e-11
-1.42677e-11
-1.40403e-11
-1.25908e-11
-1.24771e-11
-1.37845e-11
-1.29603e-11
-1.29603e-11
-1.69393e-11
-1.85878e-11
-2.02931e-11
-1.89857e-11
-1.87299e-11
-1.64562e-11
-1.48361e-11
-1.5234e-11
-1.31024e-11
-1.21361e-11
-1.22213e-11
-1.14255e-11
-1.24487e-11
-1.14824e-11
-1.1255e-11
-9.63496e-12
-1.01181e-11
-1.0715e-11
-1.31024e-11
-1.60298e-11
-1.88436e-11
-1.92699e-11
-2.02363e-11
-2.24532e-11
-2.36469e-11
-2.42153e-11
-2.28511e-11
-1.94404e-11
-1.76783e-11
-1.53761e-11
-1.48361e-11
-1.40119e-11
-9.6918e-12
-7.02016e-12
-6.25278e-12
-5.05906e-12
-3.86535e-12
-2.07478e-12
-1.22213e-12
-1.9611e-12
-2.10321e-12
-1.93268e-12
-3.04112e-12
-4.49063e-12
-5.6275e-12
-8.07177e-12
-8.78231e-12
-1.06866e-11
-1.35856e-11
-1.40972e-11
-1.47224e-11
-1.42109e-11
-1.39551e-11
-1.13403e-11
-9.43601e-12
-8.49809e-12
-7.84439e-12
-8.2423e-12
-7.90124e-12
-5.85487e-12
-6.30962e-12
-6.2812e-12
-6.6791e-12
-6.9349e-12
-6.0254e-12
-6.39488e-12
-8.58336e-12
-1.14255e-11
-1.45519e-11
-1.87299e-11
-2.04352e-11
-2.02078e-11
-1.90425e-11
-1.93836e-11
-1.88152e-11
-1.93268e-11
-1.74794e-11
-1.74225e-11
-1.64846e-11
-1.89857e-11
-2.15437e-11
-2.05773e-11
-2.07478e-11
-2.14015e-11
-2.25384e-11
-2.05489e-11
-1.60298e-11
-1.61151e-11
-1.83036e-11
-1.39835e-11
-1.31024e-11
-9.91918e-12
-8.18545e-12
-5.79803e-12
-1.08002e-12
3.97904e-13
2.07478e-12
3.52429e-12
3.63798e-12
3.38218e-12
1.79057e-12
-1.13687e-12
-5.34328e-12
-9.20863e-12
-1.28466e-11
-1.79341e-11
-2.02647e-11
-2.12879e-11
-2.41016e-11
-2.43006e-11
-2.68585e-11
-2.55227e-11
-2.43858e-11
-2.35616e-11
-2.29363e-11
-1.97531e-11
-1.9952e-11
-1.84173e-11
-1.6513e-11
-1.78204e-11
-1.58593e-11
-1.53193e-11
-1.34435e-11
-1.42961e-11
-1.6172e-11
-1.73941e-11
-1.54898e-11
-1.27045e-11
-1.15392e-11
-1.02034e-11
-8.6402e-12
-8.35598e-12
-7.47491e-12
-5.3717e-12
-3.63798e-12
-4.718e-12
-3.63798e-12
-3.18323e-12
-2.33058e-12
-1.64846e-12
-3.97904e-13
-5.11591e-13
3.12639e-13
7.38964e-13
4.26326e-13
2.27374e-13
1.10845e-12
6.25278e-13
-4.83169e-13
-1.64846e-12
-3.89377e-12
-5.08749e-12
-5.68434e-12
-6.59384e-12
-8.44125e-12
-1.03171e-11
-1.25056e-11
-1.4353e-11
-1.64277e-11
-1.57456e-11
-1.48077e-11
-1.65983e-11
-1.66835e-11
-1.73088e-11
-1.67404e-11
-1.67404e-11
-1.36424e-11
-1.32161e-11
-1.07434e-11
-1.14539e-11
-1.06297e-11
-1.02602e-11
-1.1255e-11
-1.06013e-11
-7.90124e-12
-8.32756e-12
-9.00968e-12
-9.0381e-12
-8.21387e-12
-7.67386e-12
-5.96856e-12
-4.49063e-12
-4.63274e-12
-3.2685e-12
-3.72324e-12
-4.49063e-12
-5.91172e-12
-7.21911e-12
-8.58336e-12
-8.66862e-12
-8.3844e-12
-8.52651e-12
-8.04334e-12
-8.04334e-12
-7.61702e-12
-7.21911e-12
-7.61702e-12
-6.82121e-12
-7.70228e-12
-8.35598e-12
-8.46967e-12
-5.28644e-12
-5.11591e-12
-5.05906e-12
-3.72324e-12
-1.27898e-12
1.13687e-13
1.33582e-12
1.47793e-12
2.64322e-12
2.50111e-12
2.16005e-12
1.62004e-12
2.16005e-12
2.01794e-12
4.26326e-13
-6.53699e-13
-1.84741e-12
-1.90425e-12
-2.78533e-12
-3.15481e-12
-3.04112e-12
-2.47269e-12
-4.68958e-12
-4.46221e-12
-4.80327e-12
-3.32534e-12
-3.86535e-12
-4.00746e-12
-3.29692e-12
-2.47269e-12
-2.01794e-12
-1.36424e-12
-2.84217e-12
-4.20641e-12
-7.27596e-12
-1.02318e-11
-1.17382e-11
-1.2875e-11
-1.32445e-11
-1.31877e-11
-1.41256e-11
-1.57456e-11
-1.49498e-11
-1.46656e-11
-1.47224e-11
-1.49498e-11
-1.32729e-11
-1.26192e-11
-1.14255e-11
-1.13403e-11
-1.0175e-11
-9.46443e-12
-8.27072e-12
-9.12337e-12
-8.66862e-12
-1.0715e-11
-9.74865e-12
-1.07718e-11
-9.91918e-12
-9.46443e-12
-1.01466e-11
-1.16245e-11
-1.09424e-11
-1.04876e-11
-8.69704e-12
-8.29914e-12
-8.61178e-12
-9.54969e-12
-1.04592e-11
-1.22213e-11
-1.52909e-11
-1.61435e-11
-1.70246e-11
-2.04921e-11
-2.11173e-11
-2.44711e-11
-2.29079e-11
-2.197e-11
-2.19416e-11
-2.16005e-11
-2.04636e-11
-1.7053e-11
-1.49782e-11
-1.2534e-11
-1.07434e-11
-8.29914e-12
-6.42331e-12
-3.12639e-12
-1.87583e-12
-3.49587e-12
-4.74643e-12
-4.34852e-12
-5.08749e-12
-6.56541e-12
-7.53175e-12
-8.86757e-12
-1.15676e-11
-1.09139e-11
-1.33582e-11
-1.48646e-11
-1.66267e-11
-1.67688e-11
-1.67972e-11
-1.62288e-11
-1.69678e-11
-1.73372e-11
-1.56319e-11
-1.33298e-11
-1.54614e-11
-1.39266e-11
-1.58309e-11
-1.39835e-11
-1.53477e-11
-1.58593e-11
-1.93836e-11
-1.92699e-11
-2.11173e-11
-2.11458e-11
-1.94973e-11
-1.83604e-11
-2.14584e-11
-2.15721e-11
-2.24247e-11
-2.31637e-11
-2.34763e-11
-2.32205e-11
-2.09468e-11
-1.84457e-11
-1.55467e-11
-1.51772e-11
-1.27898e-11
-1.04308e-11
-9.74865e-12
-8.896e-12
-7.30438e-12
-6.9349e-12
-7.10543e-12
-4.17799e-12
-2.04636e-12
-9.09495e-13
-4.26326e-13
8.52651e-13
1.7053e-12