/*--------------------------------*- C++ -*----------------------------------*\
  =========                 |
  \\      /  F ield         | OpenFOAM: The Open Source CFD Toolbox
   \\    /   O peration     | Website:  https://openfoam.org
    \\  /    A nd           | Version:  9
     \\/     M anipulation  |
\*---------------------------------------------------------------------------*/
FoamFile
{
    format      ascii;
    class       volScalarField;
    location    "0.012";
    object      ddt0(rho);
}
// * * * * * * * * * * * * * * * * * * * * * * * * * * * * * * * * * * * * * //

dimensions      [1 -3 -1 0 0 0 0];

internalField   nonuniform List<scalar> 
1000
(
-1.12526e-06
-1.80113e-06
-3.01128e-06
-5.13779e-06
-8.78362e-06
-1.49661e-05
-2.53676e-05
-4.27456e-05
-7.15859e-05
-0.000119129
-0.000196972
-0.00032355
-0.000527926
-0.000855553
-0.00137691
-0.00220034
-0.00349089
-0.00549766
-0.00859296
-0.0133278
-0.0205087
-0.0313042
-0.0473866
-0.0711212
-0.10581
-0.156001
-0.227862
-0.329634
-0.472132
-0.66929
-0.93868
-1.30196
-1.78513
-2.41844
-3.23584
-4.27381
-5.56934
-7.15719
-9.06624
-11.3154
-13.9096
-16.8355
-20.06
-23.5289
-27.1694
-30.8941
-34.6083
-38.2173
-41.6341
-44.7864
-47.6204
-50.1024
-52.2209
-53.9887
-55.4355
-56.5998
-57.5227
-58.2438
-58.7989
-59.2187
-59.5291
-59.7509
-59.9015
-59.9944
-60.0408
-60.0493
-60.0271
-59.9797
-59.9119
-59.8273
-59.7289
-59.6192
-59.5001
-59.3734
-59.2402
-59.1019
-58.9591
-58.8127
-58.6632
-58.5112
-58.357
-58.2009
-58.0432
-57.8842
-57.7238
-57.5623
-57.3998
-57.2363
-57.0718
-56.9065
-56.7403
-56.5732
-56.4053
-56.2365
-56.0668
-55.8963
-55.7249
-55.5527
-55.3796
-55.2056
-55.0307
-54.8549
-54.6782
-54.5007
-54.3223
-54.1431
-53.963
-53.7821
-53.6003
-53.4178
-53.2346
-53.0506
-52.8658
-52.6804
-52.4943
-52.3076
-52.1203
-51.9325
-51.744
-51.5551
-51.3657
-51.1759
-50.9856
-50.795
-50.604
-50.4127
-50.2211
-50.0293
-49.8372
-49.6449
-49.4524
-49.2598
-49.0671
-48.8742
-48.6813
-48.4883
-48.2952
-48.1022
-47.9091
-47.7161
-47.5231
-47.3302
-47.1373
-46.9445
-46.7519
-46.5593
-46.3669
-46.1746
-45.9825
-45.7906
-45.5988
-45.4072
-45.2158
-45.0246
-44.8337
-44.6429
-44.4524
-44.2622
-44.0721
-43.8824
-43.6929
-43.5036
-43.3147
-43.126
-42.9376
-42.7495
-42.5617
-42.3742
-42.187
-42.0002
-41.8136
-41.6273
-41.4414
-41.2558
-41.0705
-40.8856
-40.701
-40.5167
-40.3328
-40.1492
-39.966
-39.7831
-39.6006
-39.4184
-39.2365
-39.0551
-38.874
-38.6932
-38.5128
-38.3328
-38.1532
-37.9739
-37.795
-37.6164
-37.4383
-37.2605
-37.0831
-36.906
-36.7293
-36.5531
-36.3772
-36.2016
-36.0265
-35.8517
-35.6774
-35.5034
-35.3298
-35.1565
-34.9837
-34.8113
-34.6392
-34.4675
-34.2962
-34.1253
-33.9548
-33.7847
-33.615
-33.4457
-33.2767
-33.1082
-32.94
-32.7722
-32.6048
-32.4379
-32.2713
-32.1051
-31.9392
-31.7738
-31.6088
-31.4442
-31.2799
-31.1161
-30.9526
-30.7896
-30.6269
-30.4646
-30.3027
-30.1413
-29.9802
-29.8195
-29.6591
-29.4992
-29.3397
-29.1806
-29.0218
-28.8635
-28.7055
-28.5479
-28.3907
-28.234
-28.0776
-27.9216
-27.7659
-27.6107
-27.4559
-27.3014
-27.1474
-26.9937
-26.8404
-26.6875
-26.535
-26.3829
-26.2311
-26.0798
-25.9288
-25.7782
-25.628
-25.4782
-25.3288
-25.1798
-25.0311
-24.8828
-24.735
-24.5875
-24.4403
-24.2936
-24.1472
-24.0012
-23.8557
-23.7103
-23.5658
-23.4207
-23.2778
-23.1317
-22.9929
-22.8417
-22.7138
-22.5463
-22.4465
-22.2377
-22.2005
-21.9063
-21.9823
-21.5532
-21.7765
-21.2158
-21.518
-20.9861
-21.1
-20.9449
-20.5171
-21.0111
-19.9299
-20.9283
-19.7064
-20.3227
-20.02
-19.3584
-20.3167
-18.893
-19.738
-19.3823
-18.5732
-19.7302
-18.3319
-18.7505
-19.1245
-17.6959
-18.8754
-18.269
-17.4436
-18.7163
-17.4805
-17.3279
-18.3453
-16.8591
-17.1761
-17.9111
-16.3522
-16.9457
-17.4784
-15.9265
-16.6183
-17.0934
-15.5573
-16.1918
-16.7654
-15.2395
-15.6742
-16.4623
-15.0066
-15.0777
-16.1324
-14.8861
-14.4555
-15.6842
-14.8908
-13.9001
-15.0452
-14.9477
-13.5581
-14.2098
-14.8819
-13.5397
-13.3244
-14.4757
-13.7834
-12.6991
-13.6283
-13.9749
-12.6102
-12.5824
-13.6637
-12.982
-11.8986
-12.7002
-13.2243
-11.9893
-11.5993
-12.6781
-12.4991
-11.2248
-11.4711
-12.4188
-11.725
-10.6803
-11.3218
-12.0025
-11.0225
-10.2559
-11.0871
-11.5193
-10.4283
-9.86621
-10.7569
-11.0403
-9.93261
-9.46308
-10.3427
-10.5995
-9.5211
-9.02838
-9.86095
-10.1917
-9.1889
-8.57798
-9.30899
-9.79367
-8.93677
-8.14801
-8.68677
-9.35998
-8.75594
-7.79319
-8.01714
-8.82854
-8.60512
-7.57402
-7.36401
-8.15238
-8.39304
-7.5091
-6.84761
-7.34807
-7.98531
-7.53399
-6.58943
-6.54431
-7.29583
-7.45487
-6.61414
-5.9759
-6.39267
-7.03198
-6.7396
-5.83417
-5.56625
-6.18965
-6.59757
-6.0208
-5.19662
-5.21768
-5.89993
-6.08342
-5.35859
-4.6523
-4.86488
-5.5344
-5.54196
-4.76383
-4.18564
-4.4656
-5.07431
-5.03994
-4.27295
-3.71094
-3.99656
-4.59422
-4.57192
-3.84676
-3.24662
-3.45419
-4.0963
-4.16408
-3.42085
-2.78785
-2.97456
-3.52601
-3.63237
-3.13654
-2.50236
-2.33907
-2.80843
-3.25305
-2.92355
-2.10159
-1.7691
-2.21256
-2.7192
-2.58674
-1.89725
-1.35762
-1.52564
-2.0803
-2.22004
-1.74591
-1.13515
-0.91703
-1.28868
-1.78581
-1.66203
-0.971381
-0.493183
-0.638816
-1.13367
-1.40109
-1.03905
-0.334592
-0.045768
-0.461227
-1.03765
-1.03385
-0.368218
0.211417
0.0616518
-0.508742
-0.780463
-0.52581
0.0114516
0.377305
0.153431
-0.434351
-0.671192
-0.202075
0.257957
0.475523
0.141999
-0.442483
-0.419881
-0.029794
0.132867
0.270887
0.314075
-0.124029
-0.230131
-0.0785957
0.00356923
0.120642
0.106481
0.061636
0.0172275
-0.0434585
-0.0608732
0.0176916
0.140393
-0.026104
0.177387
0.0101626
-0.133519
0.0747742
0.221984
-0.0655138
-0.200372
0.0079855
0.182406
0.161969
-0.135731
-0.0178444
0.00546554
-0.00934067
-0.0753615
-0.111379
-0.0944064
0.0376344
0.335732
0.112937
-0.188638
0.229175
0.28607
-0.365752
-0.0572213
0.315415
0.0470172
-0.265407
0.0425429
0.244382
-0.0526493
-0.150042
0.160886
0.202595
-0.229006
-0.0760109
0.2343
0.195925
-0.249801
-0.0578536
0.19471
0.0647425
-0.172939
0.0240107
0.156364
-0.0135877
-0.0981794
0.0692649
0.129785
-0.099044
-0.013532
0.126511
0.0379329
-0.0908202
0.0305379
0.104561
0.00850687
-0.0569933
0.0307869
0.0879121
-0.00254149
-0.0248453
0.0513108
0.0813606
-0.0324614
-0.00983568
0.061829
0.0678165
-0.0294373
0.00158881
0.0647869
0.0480155
-0.0290916
0.00751389
0.0675655
0.0353506
-0.0220427
0.025343
0.0728816
0.0208937
-0.0167902
0.0404415
0.0653191
0.0117817
-0.00230306
0.0436838
0.0558974
-0.0152355
0.0228442
0.0654137
0.0116117
-0.00252695
0.0461063
0.0594078
-0.0194372
0.0297875
0.0724447
0.00962284
-0.00802519
0.0539915
0.0722187
-0.0297904
0.00837597
0.093423
0.0146755
-0.00995979
0.0496574
0.0718387
-0.0252294
0.0155466
0.0757271
0.0122691
-0.00365303
0.0513183
0.0752915
-0.0180835
0.0255789
0.104297
0.0130316
-0.0153364
0.0720227
0.0960802
-0.0239104
-0.00129519
0.128808
0.0318512
-0.0422981
0.0615547
0.0899251
0.00691431
-0.0164714
0.0723537
0.0722922
-0.0228582
0.031754
0.116726
0.0264952
-0.00982766
0.0963072
0.123794
-0.0493677
0.00130719
0.163932
0.0482522
-0.0572876
0.0720493
0.108431
0.00897241
-0.0154056
0.0695966
0.080761
-0.0143742
0.0643062
0.094518
0.0449459
0.0244902
0.137827
0.042834
0.0136452
0.0774028
0.0805168
0.0123377
0.0637573
0.074615
0.0333248
0.0314009
0.0868137
0.0504532
0.0241275
0.0727813
0.0865
0.0641534
0.0672542
0.0990986
0.0936441
0.0489015
0.0703972
0.0748885
0.0444126
0.0658622
0.0776148
0.0255151
0.0542195
0.080784
0.0574271
0.0767827
0.105993
0.0639595
0.0474838
0.124389
0.101836
0.0846354
0.1304
0.0693313
0.0392522
0.0775006
0.12204
0.102754
0.1321
0.135105
0.0823896
0.0560984
0.076812
0.0957516
0.0786222
0.0884685
0.102251
0.084392
0.11661
0.17176
0.160041
0.136292
0.126039
0.105323
0.068947
0.110054
0.17526
0.175015
0.162955
0.149519
0.10863
0.0462018
0.071566
0.119198
0.164801
0.204969
0.230735
0.199619
0.147231
0.118241
0.104066
0.1045
0.157106
0.234882
0.269051
0.299977
0.318604
0.264171
0.175173
0.114958
0.0890547
0.0516674
0.0611894
0.261114
0.427404
0.417126
0.365676
0.219667
0.143894
0.0868199
0.0763813
0.150296
0.333567
0.489806
0.518001
0.562722
0.508514
0.328325
0.193027
0.128469
0.129229
0.207563
0.522404
0.658734
0.679424
0.556032
0.45164
0.344169
0.168991
0.0812411
0.146115
0.202836
0.678072
0.952979
1.08042
1.16185
1.07589
0.947523
0.805966
0.531778
0.32471
0.23202
0.185373
0.225084
0.307453
1.45783
2.06242
2.15005
2.03849
1.82666
1.51842
1.1007
0.772776
0.469576
0.285213
0.296489
0.332316
0.704703
1.94951
4.97686
5.35095
5.37175
5.23763
4.85468
4.07603
3.48492
2.77464
1.88789
1.30738
0.910412
0.306736
0.0534224
0.916176
0.386061
5.41569
11.6857
58.5408
166.796
519.737
527.001
481.638
440.717
390.614
340.259
291.79
247.227
207.325
172.553
141.404
114.733
93.0473
74.6574
58.5664
45.2793
35.2879
27.8934
21.4328
15.6868
11.1554
8.35694
6.57436
4.81872
3.16009
1.92058
1.3384
0.988072
0.70353
0.342649
0.147419
0.268046
0.202622
0.00523468
-0.0807073
-0.0295084
0.0028674
-0.0795793
-0.199072
-0.272031
-0.313595
-0.282484
-0.210866
-0.222877
-0.276424
-0.239756
-0.157734
-0.144046
-0.160031
-0.0924985
-0.0137223
-0.0197083
-0.0276678
-0.0174442
0.00394069
0.00794371
-0.000391725
0.0467034
0.0620031
0.0648804
0.0307545
0.031213
0.0299149
0.00637673
0.000408633
0.00485533
-0.00180683
-0.0380212
-0.108409
-0.0926628
-0.0573159
-0.0739455
-0.0583511
-0.00842829
-0.0119827
-0.0107935
0.00761293
0.00348137
0.0180223
0.0336443
0.0507296
0.055616
-0.00493732
0.000824957
0.0152737
0.00471996
-0.00980121
-0.0256094
-0.0579472
-0.0439094
-0.045158
-0.0364712
0.0151098
0.0404446
-0.0321139
0.0113166
0.0476847
0.0663289
0.090939
0.0652592
0.114298
0.468703
0.493472
-0.453013
0.246338
1.38882
0.416278
-0.530503
1.52058
1.28887
0.38116
1.06021
1.61911
2.05271
1.99643
2.3885
2.91151
2.98092
3.18201
3.2789
3.23755
3.53492
3.41689
2.97492
3.01955
2.73138
2.00619
1.88314
1.83339
1.33836
1.12654
1.03166
0.577697
0.30835
0.328063
0.185158
0.0214073
0.0617134
0.12988
0.144999
0.194425
0.265013
0.285109
0.204944
0.111909
0.0627778
-0.0177734
-0.0460324
-0.0621237
-0.0921254
-0.12776
-0.149743
-0.14279
-0.123432
-0.103815
-0.0462015
)
;

boundaryField
{
    sides
    {
        type            calculated;
        value           nonuniform List<scalar> 2(-0.0462015 -1.12526e-06);
    }
    empty
    {
        type            empty;
    }
}


// ************************************************************************* //
