/*--------------------------------*- C++ -*----------------------------------*\
  =========                 |
  \\      /  F ield         | OpenFOAM: The Open Source CFD Toolbox
   \\    /   O peration     | Website:  https://openfoam.org
    \\  /    A nd           | Version:  9
     \\/     M anipulation  |
\*---------------------------------------------------------------------------*/
FoamFile
{
    format      ascii;
    class       volScalarField;
    location    "0.012";
    object      ddt0(rho,K);
}
// * * * * * * * * * * * * * * * * * * * * * * * * * * * * * * * * * * * * * //

dimensions      [1 -1 -3 0 0 0 0];

internalField   nonuniform List<scalar> 
1000
(
2.25253e-12
1.78208e-11
5.7333e-11
1.76984e-10
5.30456e-10
1.56369e-09
4.54776e-09
1.30617e-08
3.70531e-08
1.0381e-07
2.87193e-07
7.84407e-07
2.11471e-06
5.62606e-06
1.47672e-05
3.82316e-05
9.76033e-05
0.000245642
0.000609267
0.00148883
0.00358321
0.00849053
0.0198002
0.045426
0.102483
0.227255
0.495084
1.05905
2.22325
4.5775
9.23764
18.2596
35.3272
66.8477
123.619
223.235
393.337
675.702
1130.85
1842.54
2921.03
4503.61
6750.95
9838.03
13939.7
19212
25772.4
33682.8
42938.4
53466
65130.4
77749.6
91118.3
105036
119325
133840
148468
163127
177758
192322
206790
221148
235383
249492
263470
277316
291032
304618
318077
331409
344618
357705
370674
383525
396260
408883
421393
433793
446084
458267
470342
482311
494173
505929
517580
529124
540563
551895
563120
574239
585250
596152
606946
617631
628205
638669
649021
659261
669388
679401
689301
699085
708754
718308
727745
737066
746269
755355
764324
773175
781909
790524
799021
807401
815663
823808
831835
839744
847537
855214
862774
870219
877548
884762
891862
898848
905721
912481
919129
925665
932090
938405
944610
950706
956693
962572
968345
974010
979570
985024
990374
995620
1.00076e+06
1.0058e+06
1.01074e+06
1.01558e+06
1.02031e+06
1.02495e+06
1.02949e+06
1.03393e+06
1.03827e+06
1.04251e+06
1.04666e+06
1.05071e+06
1.05466e+06
1.05852e+06
1.06229e+06
1.06596e+06
1.06954e+06
1.07303e+06
1.07643e+06
1.07973e+06
1.08295e+06
1.08607e+06
1.08911e+06
1.09206e+06
1.09492e+06
1.09769e+06
1.10038e+06
1.10298e+06
1.10549e+06
1.10793e+06
1.11027e+06
1.11254e+06
1.11472e+06
1.11681e+06
1.11883e+06
1.12077e+06
1.12262e+06
1.1244e+06
1.12609e+06
1.12771e+06
1.12925e+06
1.13071e+06
1.13209e+06
1.1334e+06
1.13463e+06
1.13579e+06
1.13687e+06
1.13788e+06
1.13882e+06
1.13968e+06
1.14047e+06
1.14119e+06
1.14183e+06
1.14241e+06
1.14291e+06
1.14335e+06
1.14372e+06
1.14402e+06
1.14425e+06
1.14441e+06
1.14451e+06
1.14454e+06
1.1445e+06
1.1444e+06
1.14424e+06
1.14401e+06
1.14372e+06
1.14336e+06
1.14294e+06
1.14246e+06
1.14192e+06
1.14132e+06
1.14066e+06
1.13993e+06
1.13915e+06
1.13831e+06
1.13741e+06
1.13646e+06
1.13544e+06
1.13437e+06
1.13324e+06
1.13206e+06
1.13082e+06
1.12953e+06
1.12818e+06
1.12678e+06
1.12533e+06
1.12382e+06
1.12226e+06
1.12065e+06
1.11899e+06
1.11727e+06
1.11551e+06
1.11369e+06
1.11183e+06
1.10992e+06
1.10796e+06
1.10595e+06
1.10389e+06
1.10179e+06
1.09964e+06
1.09744e+06
1.0952e+06
1.09291e+06
1.09058e+06
1.08821e+06
1.08579e+06
1.08332e+06
1.08082e+06
1.07827e+06
1.07568e+06
1.07304e+06
1.07037e+06
1.06766e+06
1.0649e+06
1.06211e+06
1.05927e+06
1.0564e+06
1.05349e+06
1.05054e+06
1.04755e+06
1.04453e+06
1.04146e+06
1.03837e+06
1.03523e+06
1.03206e+06
1.02886e+06
1.02562e+06
1.02234e+06
1.01903e+06
1.01569e+06
1.01232e+06
1.00891e+06
1.00547e+06
1.002e+06
998493
994957
991393
987793
984175
980503
976849
973076
969443
965475
962019
957619
954695
949371
947620
940620
940805
931564
933737
923136
925061
916836
913389
913208
900109
910063
888344
900990
884951
883579
887413
866007
882202
861959
861408
867816
842386
859036
845239
832551
849888
822967
826846
834144
805279
820305
815947
791115
810895
798033
777905
799500
781408
764714
786687
766435
750513
772718
753236
735162
757767
741899
719253
741034
732192
703732
721851
723211
690630
699866
713067
681591
676391
698505
677018
655188
676903
674020
641236
649142
665698
637271
621991
645428
638399
605963
614203
631762
605288
585338
607011
608595
574985
571673
594954
581156
550100
559585
577856
553976
529049
546165
557932
528756
509784
530340
537201
505920
490578
512215
516925
485354
470508
492009
497629
466776
449681
469723
478952
450412
428703
445189
459891
436415
408901
418527
438817
424269
392204
390835
413766
412147
380253
364859
383910
396317
372832
344926
350968
372677
366126
334184
320985
339920
352533
330989
302021
303470
325253
326123
297303
275495
286743
306543
297799
266399
251910
268736
285136
269681
238111
229617
248916
261344
243280
213293
206272
225789
238084
219555
189447
181981
200548
214689
198822
166554
155699
175501
191346
176105
146807
134428
145270
161640
159870
133420
107794
112507
136782
141913
116292
88031.1
85241
104915
118787
104234
74003.2
60564.8
72213
89664.7
91249.6
68724.8
41056.8
39075.2
60749.9
73902.5
61356.6
34393.5
17032.8
26185.9
49974.7
56637.5
33954.7
4683.64
67.3066
23666
43966.8
33721.4
5911.15
-9020.83
-1362.04
18609.3
31504.4
19734.6
-7494.98
-19685.4
-389.027
15581
26400.3
12524.2
-19070.2
-18098
792.265
4488.16
11536.4
21136.9
-3469.49
-14064.2
-5722.33
-2737.34
3403.43
3696.93
2852.84
1591.73
-2364.49
-5370.25
-1976.9
4932.93
-2665.35
11017.5
3418.84
-9971.06
3184.11
16377
-3790.66
-18808.2
-3618.45
15176.2
16755.4
-5292.71
-5737.34
-3182.51
-4736.7
-11944.3
-17636.8
-15796.5
-268.03
26709.7
13735.5
-10903.9
14376
21224
-21705
-11455.1
21694.4
8401.67
-21410
-2670.93
18647.2
-1476.41
-13606
9496.5
16610
-13851.5
-10247.9
16173.1
16046
-15388.4
-9580.93
12288.3
7234.51
-13223.5
-2979.02
11384.6
647.47
-8758.53
3268.22
9458.34
-5554.27
-3308.79
8829.29
4351.5
-7452.72
-865.324
7832.04
1720.48
-5537.72
680.194
6427.9
-34.1594
-3251.3
2873.31
5972.58
-2064.28
-2607.73
3548.07
4911.18
-2030.99
-1496.52
3910.1
3362.68
-2538.7
-799.075
4359.28
2731.53
-2004.42
623.106
4996.81
1886.39
-2017.15
1593.94
4639.78
810.365
-1297.92
2324.69
3490.02
-1405.35
197.019
3922.63
583.834
-1379.71
2437.59
3596.86
-1695.91
541.735
4483.04
332.118
-1962.49
3066.56
4547.93
-2315.82
-877.525
5539.88
1320.56
-2111.99
2355.42
4482.61
-1951.82
-362.402
4611.73
897.575
-1586.54
2670.55
4477.3
-1653.5
204.91
6192.48
985.646
-2835.39
3764.64
6472
-2170.27
-1785.9
7514.18
2832.78
-4128.22
2041.78
6523.59
265.884
-2690.64
3999.75
4799.48
-1977.33
332.064
7070.18
1374.66
-2807.79
5510.73
8029.74
-4046.09
-2199.59
9777.64
4093.37
-5340
2119.68
7814.53
552.85
-2841.3
3801.93
5330.21
-1648.3
1971.88
5624.7
1783.03
-210.1
7198.2
2621.05
-944.44
3535.98
4679.65
-79.1662
2430.84
4038.82
975.141
687.381
4529.61
2825.2
245.238
2961.78
4584.26
2607.67
2222.27
4562.89
4562.85
1712.47
2817.06
3664.82
1589.44
2827.99
4098.78
751.571
2068.6
4030.41
2285.94
3078.25
5284.47
2840.08
1368.07
5986.32
4576.06
2718.88
6140.93
3595.75
1278.14
3628.45
5809.92
3936.5
5226.86
6404.08
3912.4
2037.59
3512.78
4742.24
3299.89
3745.81
4778.07
3547.84
4788.88
7904.61
7128.1
5397.32
5729.21
5207.33
2845.13
4473.68
8016.16
7671.22
6481.2
6648.04
5241.63
1790.74
2897.45
5473.19
7172.68
8691.38
10070.3
8647.18
6032.76
5108.59
4836.46
4410.36
6688.81
10370.3
11329.8
12483.4
14106.1
11741.5
7068.84
4800.98
4307.41
2441.38
1593.33
10646.5
18880.7
18452
16336.5
9377.26
6289.97
4329.23
3236.4
5975.67
14793.3
21912.6
21592.9
23806.7
22805.1
13967.4
7804.26
6168.47
5728.27
7992.93
21884.1
29096.8
30174.2
23397
19061.7
15803.9
7797.21
2721.77
5957.25
8367.89
29008.3
41552.3
46596.1
50328.2
45906.9
40070.4
35393.1
23053.4
12670.9
10596.1
8800.28
9228.91
9863.2
61090.6
91634.5
93664
87434
78368.6
65529.3
47124
32792.7
20784.7
12545.7
11724
14024.4
22743.2
77481.1
219035
233775
229982
225712
209649
169794
147448
121950
74874.4
52627.7
41488.7
5023.15
-22498.1
-20627.3
-75481
38768.2
286876
1.68686e+06
6.5139e+06
2.31808e+07
2.3665e+07
2.08445e+07
1.87063e+07
1.66063e+07
1.44904e+07
1.24185e+07
1.05033e+07
8.80438e+06
7.34828e+06
6.01927e+06
4.86083e+06
3.96137e+06
3.21061e+06
2.49974e+06
1.88999e+06
1.47241e+06
1.20836e+06
959924
681334
445113
331833
293043
234526
144385
68168.9
42086.3
40806.5
35494.9
14127.8
3046.69
17101.2
19472.6
1722.33
-9262.62
-4227.19
2220.02
575.491
-6753.34
-13684.1
-18564.6
-15477
-7696.41
-7600.19
-13561.5
-12637.8
-6189.16
-5222.4
-8181.7
-4153.99
2908.79
2749.09
-392.535
-1222.75
138.684
415.157
-487.208
1090.76
2217.05
2921.51
945.247
902.938
1636.8
350.439
-211.158
337.34
583.993
-979.344
-4795.41
-4027.63
-1889.72
-3607.98
-3650.36
12.2258
79.7991
-539.185
841.397
540.042
513.446
906.608
2739.79
3585.61
-801.764
-1024.5
927.143
539.098
-741.678
-1913.08
-3487.34
-2580.19
-3309.29
-3611.66
277.153
2500.96
-3353.46
-2347.26
1005.52
1111.11
-3941.81
-15476.2
-16354
16456.2
18216.9
-68852.8
-47846.1
57393.3
-18343.4
-132336
24270.3
32111.5
-125988
-159843
-146830
-154169
-189650
-206001
-210774
-228323
-237791
-247025
-253850
-238059
-229643
-223773
-190793
-170321
-168691
-141518
-109169
-94856
-72961.9
-52965.5
-53925.3
-51585.8
-39322.7
-33788.9
-28601.9
-15015.4
-964.279
9004.67
18085.3
24557.3
25217.8
20546.2
14078.2
8931.34
2619.75
-1409.43
-4151.47
-6767.19
-8679.29
-9581.12
-8834.08
-8221.8
-7283.74
-3850.48
)
;

boundaryField
{
    sides
    {
        type            calculated;
        value           nonuniform List<scalar> 2(-3850.48 2.25253e-12);
    }
    empty
    {
        type            empty;
    }
}


// ************************************************************************* //
