/*--------------------------------*- C++ -*----------------------------------*\
  =========                 |
  \\      /  F ield         | OpenFOAM: The Open Source CFD Toolbox
   \\    /   O peration     | Website:  https://openfoam.org
    \\  /    A nd           | Version:  9
     \\/     M anipulation  |
\*---------------------------------------------------------------------------*/
FoamFile
{
    format      ascii;
    class       volScalarField;
    location    "0.012";
    object      mag(U);
}
// * * * * * * * * * * * * * * * * * * * * * * * * * * * * * * * * * * * * * //

dimensions      [0 1 -1 0 0 0 0];

internalField   nonuniform List<scalar> 
1000
(
1.27992e-08
3.60492e-08
6.48108e-08
1.14172e-07
1.98224e-07
3.41358e-07
5.83972e-07
9.92887e-07
1.67792e-06
2.81831e-06
4.7046e-06
7.80424e-06
1.28639e-05
2.10669e-05
3.42743e-05
5.53893e-05
8.89042e-05
0.00014171
0.000224287
0.00035243
0.000549719
0.000851021
0.00130737
0.0019927
0.00301292
0.00451802
0.00671793
0.00990263
0.0144674
0.0209435
0.0300338
0.0426533
0.0599724
0.0834598
0.11492
0.156523
0.210808
0.280671
0.369309
0.480132
0.616626
0.782185
0.979916
1.21243
1.48167
1.78873
2.13381
2.51616
2.93416
3.38547
3.86714
4.37587
4.90819
5.46071
6.03028
6.61407
7.20968
7.81506
8.42852
9.04868
9.67442
10.3048
10.9392
11.5768
12.2174
12.8604
13.5055
14.1525
14.8012
15.4513
16.1029
16.7556
17.4094
18.0643
18.7202
19.377
20.0347
20.6932
21.3525
22.0126
22.6734
23.3349
23.9971
24.6601
25.3237
25.9879
26.6529
27.3184
27.9846
28.6514
29.3187
29.9867
30.6553
31.3244
31.9941
32.6643
33.335
34.0063
34.6781
35.3504
36.0232
36.6964
37.3701
38.0443
38.7189
39.3939
40.0694
40.7452
41.4215
42.0981
42.775
43.4524
44.1301
44.8081
45.4864
46.165
46.844
47.5232
48.2027
48.8825
49.5626
50.2429
50.9234
51.6042
52.2852
52.9664
53.6479
54.3295
55.0114
55.6934
56.3756
57.058
57.7406
58.4233
59.1062
59.7893
60.4725
61.1558
61.8393
62.523
63.2067
63.8906
64.5746
65.2588
65.943
66.6274
67.3118
67.9964
68.6811
69.3659
70.0508
70.7357
71.4208
72.1059
72.7912
73.4765
74.1619
74.8473
75.5329
76.2185
76.9042
77.59
78.2758
78.9617
79.6477
80.3337
81.0198
81.7059
82.3921
83.0783
83.7647
84.451
85.1374
85.8239
86.5104
87.1969
87.8835
88.5701
89.2568
89.9435
90.6303
91.3171
92.0039
92.6908
93.3777
94.0646
94.7516
95.4386
96.1256
96.8127
97.4998
98.1869
98.8741
99.5612
100.248
100.936
101.623
102.31
102.997
103.685
104.372
105.059
105.747
106.434
107.122
107.809
108.496
109.184
109.871
110.559
111.246
111.934
112.621
113.309
113.996
114.684
115.371
116.059
116.746
117.434
118.122
118.809
119.497
120.184
120.872
121.559
122.247
122.935
123.622
124.31
124.997
125.685
126.373
127.06
127.748
128.435
129.123
129.81
130.498
131.186
131.873
132.561
133.248
133.936
134.623
135.311
135.998
136.686
137.373
138.061
138.748
139.436
140.123
140.81
141.498
142.185
142.873
143.56
144.247
144.935
145.622
146.309
146.997
147.684
148.371
149.058
149.745
150.433
151.12
151.807
152.494
153.181
153.868
154.555
155.242
155.929
156.616
157.303
157.99
158.677
159.364
160.051
160.737
161.424
162.111
162.797
163.484
164.171
164.857
165.544
166.23
166.917
167.603
168.29
168.976
169.662
170.349
171.035
171.721
172.407
173.093
173.779
174.465
175.151
175.837
176.523
177.208
177.894
178.58
179.265
179.951
180.636
181.322
182.007
182.692
183.378
184.063
184.748
185.433
186.118
186.803
187.488
188.173
188.857
189.542
190.227
190.911
191.596
192.28
192.964
193.648
194.332
195.016
195.7
196.384
197.068
197.751
198.435
199.118
199.802
200.485
201.168
201.851
202.534
203.217
203.899
204.582
205.264
205.946
206.629
207.311
207.993
208.674
209.356
210.037
210.719
211.4
212.081
212.762
213.442
214.123
214.803
215.483
216.163
216.843
217.523
218.202
218.881
219.56
220.239
220.918
221.596
222.274
222.952
223.63
224.307
224.985
225.661
226.338
227.014
227.691
228.366
229.042
229.717
230.392
231.066
231.741
232.415
233.088
233.761
234.434
235.106
235.778
236.45
237.121
237.792
238.462
239.132
239.801
240.47
241.138
241.806
242.473
243.139
243.805
244.471
245.136
245.8
246.463
247.126
247.788
248.449
249.109
249.769
250.428
251.086
251.743
252.399
253.054
253.708
254.361
255.013
255.663
256.313
256.961
257.608
258.254
258.898
259.541
260.182
260.822
261.46
262.096
262.73
263.363
263.993
264.622
265.248
265.872
266.494
267.113
267.73
268.344
268.956
269.564
270.169
270.771
271.37
271.965
272.556
273.144
273.727
274.307
274.881
275.451
276.017
276.577
277.131
277.68
278.224
278.761
279.291
279.815
280.332
280.841
281.343
281.837
282.323
282.799
283.267
283.726
284.174
284.613
285.04
285.457
285.863
286.258
286.64
287.01
287.367
287.712
288.044
288.362
288.666
288.957
289.234
289.497
289.746
289.981
290.202
290.409
290.602
290.782
290.949
291.103
291.244
291.373
291.491
291.597
291.693
291.779
291.855
291.923
291.982
292.034
292.079
292.117
292.148
292.177
292.2
292.218
292.234
292.246
292.254
292.262
292.268
292.272
292.275
292.277
292.277
292.277
292.276
292.276
292.275
292.275
292.274
292.273
292.271
292.269
292.268
292.267
292.264
292.262
292.262
292.26
292.258
292.255
292.252
292.251
292.249
292.248
292.247
292.247
292.247
292.246
292.242
292.239
292.238
292.235
292.232
292.231
292.231
292.228
292.226
292.225
292.224
292.222
292.22
292.22
292.218
292.216
292.215
292.215
292.213
292.211
292.211
292.21
292.209
292.208
292.207
292.207
292.206
292.205
292.205
292.204
292.203
292.203
292.202
292.202
292.201
292.201
292.2
292.2
292.199
292.199
292.199
292.198
292.198
292.198
292.197
292.197
292.197
292.197
292.196
292.196
292.196
292.196
292.196
292.195
292.195
292.195
292.195
292.194
292.194
292.194
292.194
292.194
292.194
292.194
292.193
292.193
292.193
292.193
292.193
292.193
292.193
292.193
292.193
292.193
292.193
292.193
292.193
292.193
292.193
292.193
292.193
292.193
292.193
292.193
292.193
292.193
292.193
292.193
292.193
292.193
292.193
292.193
292.193
292.193
292.193
292.193
292.193
292.193
292.193
292.193
292.193
292.193
292.193
292.193
292.193
292.193
292.193
292.193
292.193
292.193
292.193
292.193
292.193
292.193
292.193
292.193
292.193
292.193
292.193
292.193
292.193
292.193
292.193
292.193
292.193
292.193
292.193
292.193
292.193
292.193
292.193
292.193
292.193
292.193
292.193
292.193
292.193
292.193
292.193
292.193
292.193
292.193
292.193
292.193
292.193
292.193
292.193
292.193
292.193
292.193
292.193
292.193
292.193
292.193
292.193
292.193
292.193
292.193
292.193
292.193
292.193
292.193
292.193
292.193
292.193
292.193
292.193
292.193
292.193
292.193
292.193
292.193
292.193
292.193
292.193
292.193
292.193
292.193
292.193
292.193
292.193
292.193
292.193
292.193
292.193
292.193
292.193
292.193
292.193
292.192
292.192
292.192
292.192
292.192
292.192
292.192
292.192
292.192
292.192
292.192
292.192
292.192
292.192
292.192
292.192
292.192
292.192
292.192
292.192
292.192
292.192
292.192
292.192
292.192
292.192
292.191
292.191
292.191
292.191
292.191
292.191
292.191
292.191
292.191
292.191
292.191
292.191
292.19
292.19
292.19
292.19
292.19
292.19
292.19
292.19
292.189
292.189
292.189
292.189
292.189
292.189
292.189
292.189
292.189
292.189
292.189
292.189
292.189
292.189
292.189
292.189
292.189
292.19
292.19
292.19
292.19
292.19
292.19
292.19
292.19
292.19
292.19
292.19
292.19
292.19
292.191
292.191
292.191
292.191
292.19
292.191
292.191
292.191
292.191
292.191
292.191
292.191
292.191
292.192
292.194
292.195
292.193
292.192
292.192
292.192
292.191
292.192
292.192
292.191
292.192
292.194
292.197
292.202
292.209
292.227
292.253
292.319
292.396
292.631
292.735
292.411
292.118
292.049
292.073
292.096
292.113
292.128
292.144
292.157
292.166
292.172
292.18
292.185
292.183
292.183
292.189
292.196
292.195
292.187
292.184
292.188
292.192
292.191
292.186
292.184
292.185
292.188
292.188
292.187
292.187
292.188
292.187
292.185
292.185
292.186
292.186
292.186
292.185
292.185
292.186
292.187
292.188
292.188
292.188
292.188
292.188
292.189
292.189
292.189
292.189
292.189
292.188
292.188
292.188
292.188
292.188
292.188
292.188
292.188
292.188
292.187
292.187
292.187
292.187
292.187
292.186
292.186
292.186
292.185
292.185
292.185
292.185
292.185
292.185
292.184
292.184
292.184
292.184
292.183
292.183
292.183
292.183
292.183
292.183
292.183
292.182
292.182
292.182
292.182
292.181
292.181
292.181
292.18
292.178
292.176
292.173
292.17
292.164
292.158
292.153
292.147
292.134
292.112
292.092
292.068
292.024
291.963
291.892
291.783
291.635
291.473
291.286
291.061
290.795
290.49
290.149
289.773
289.37
288.945
288.507
288.066
287.63
287.209
286.81
286.439
286.104
285.807
285.551
285.334
285.155
285.01
284.896
284.81
284.746
284.701
284.67
284.649
284.635
284.625
284.618
284.612
284.607
284.604
284.601
284.599
284.598
284.597
284.597
284.598
284.598
284.599
284.6
284.6
284.601
284.602
)
;

boundaryField
{
    sides
    {
        type            calculated;
        value           nonuniform List<scalar> 2(284.602 1.27992e-08);
    }
    empty
    {
        type            empty;
    }
}


// ************************************************************************* //
