/*--------------------------------*- C++ -*----------------------------------*\
  =========                 |
  \\      /  F ield         | OpenFOAM: The Open Source CFD Toolbox
   \\    /   O peration     | Website:  https://openfoam.org
    \\  /    A nd           | Version:  9
     \\/     M anipulation  |
\*---------------------------------------------------------------------------*/
FoamFile
{
    format      ascii;
    class       volScalarField;
    location    "0.012";
    object      rho;
}
// * * * * * * * * * * * * * * * * * * * * * * * * * * * * * * * * * * * * * //

dimensions      [1 -3 0 0 0 0 0];

internalField   nonuniform List<scalar> 
1000
(
0.997574
0.997574
0.997574
0.997574
0.997574
0.997574
0.997574
0.997574
0.997574
0.997574
0.997574
0.997574
0.997574
0.997574
0.997574
0.997574
0.997574
0.997574
0.997574
0.997573
0.997573
0.997572
0.997571
0.997569
0.997566
0.997562
0.997557
0.997548
0.997536
0.997519
0.997495
0.997462
0.997416
0.997354
0.997271
0.997161
0.997017
0.996832
0.996597
0.996303
0.995941
0.995502
0.994977
0.99436
0.993645
0.99283
0.991915
0.990901
0.989794
0.988599
0.987325
0.985981
0.984577
0.98312
0.981621
0.980087
0.978523
0.976936
0.97533
0.973709
0.972076
0.970433
0.968781
0.967124
0.965461
0.963795
0.962125
0.960453
0.958779
0.957104
0.955427
0.95375
0.952072
0.950394
0.948716
0.947038
0.945361
0.943683
0.942006
0.94033
0.938654
0.936979
0.935304
0.93363
0.931957
0.930284
0.928612
0.926942
0.925272
0.923602
0.921934
0.920267
0.918601
0.916936
0.915271
0.913608
0.911946
0.910286
0.908626
0.906967
0.90531
0.903654
0.901999
0.900346
0.898694
0.897043
0.895394
0.893746
0.8921
0.890455
0.888811
0.88717
0.885529
0.883891
0.882254
0.880619
0.878985
0.877353
0.875723
0.874095
0.872468
0.870843
0.869221
0.867599
0.86598
0.864363
0.862748
0.861134
0.859523
0.857913
0.856305
0.8547
0.853096
0.851495
0.849895
0.848297
0.846702
0.845108
0.843517
0.841928
0.84034
0.838755
0.837172
0.835591
0.834012
0.832436
0.830861
0.829289
0.827719
0.82615
0.824584
0.823021
0.821459
0.819899
0.818342
0.816787
0.815234
0.813683
0.812135
0.810588
0.809044
0.807502
0.805962
0.804425
0.802889
0.801356
0.799825
0.798296
0.79677
0.795245
0.793723
0.792203
0.790685
0.78917
0.787657
0.786145
0.784637
0.78313
0.781626
0.780123
0.778623
0.777126
0.77563
0.774137
0.772646
0.771157
0.76967
0.768186
0.766704
0.765224
0.763746
0.76227
0.760797
0.759326
0.757857
0.75639
0.754926
0.753464
0.752004
0.750546
0.749091
0.747637
0.746186
0.744737
0.74329
0.741846
0.740404
0.738964
0.737526
0.73609
0.734657
0.733226
0.731797
0.73037
0.728945
0.727523
0.726103
0.724685
0.723269
0.721855
0.720444
0.719035
0.717628
0.716223
0.71482
0.71342
0.712022
0.710626
0.709232
0.70784
0.706451
0.705063
0.703678
0.702295
0.700914
0.699536
0.698159
0.696785
0.695413
0.694043
0.692676
0.69131
0.689947
0.688585
0.687226
0.685869
0.684515
0.683162
0.681812
0.680463
0.679117
0.677773
0.676432
0.675092
0.673754
0.672419
0.671086
0.669755
0.668426
0.667099
0.665774
0.664452
0.663131
0.661813
0.660497
0.659183
0.657871
0.656562
0.655254
0.653948
0.652645
0.651344
0.650045
0.648748
0.647453
0.64616
0.644869
0.643581
0.642295
0.64101
0.639728
0.638448
0.63717
0.635894
0.63462
0.633349
0.632078
0.630813
0.629543
0.628288
0.627013
0.625776
0.624486
0.62328
0.621958
0.6208
0.619432
0.61833
0.616923
0.61585
0.614451
0.61334
0.612027
0.610806
0.609627
0.608292
0.607193
0.605855
0.604688
0.603485
0.60218
0.601078
0.59977
0.598582
0.597425
0.596112
0.595
0.593764
0.592509
0.591409
0.590128
0.588939
0.587814
0.586528
0.585382
0.584233
0.582957
0.581835
0.580671
0.579408
0.578301
0.577131
0.575882
0.574778
0.573616
0.572373
0.57127
0.570122
0.568885
0.567774
0.56665
0.565419
0.564293
0.563195
0.561978
0.560829
0.559751
0.558563
0.557387
0.556315
0.55517
0.553975
0.552886
0.551789
0.550599
0.549472
0.548409
0.547256
0.546091
0.545024
0.543929
0.542756
0.541649
0.540595
0.539462
0.538311
0.537249
0.536179
0.53503
0.533917
0.532876
0.531784
0.530641
0.529564
0.528527
0.527423
0.526296
0.525245
0.524207
0.523099
0.521991
0.520956
0.519918
0.518814
0.517723
0.516699
0.515665
0.51457
0.51349
0.512475
0.511449
0.510365
0.509294
0.508284
0.507271
0.506201
0.505135
0.504128
0.50313
0.502079
0.501017
0.500008
0.499025
0.497998
0.496942
0.495929
0.494956
0.493956
0.492915
0.491894
0.490924
0.489952
0.488934
0.487911
0.486933
0.485982
0.484999
0.483984
0.482995
0.482049
0.481101
0.480114
0.479119
0.478164
0.477239
0.476291
0.475312
0.474344
0.473419
0.472507
0.471566
0.470603
0.469663
0.468764
0.467867
0.466938
0.465996
0.465086
0.464211
0.463331
0.462422
0.461507
0.460623
0.459772
0.458917
0.458034
0.457147
0.456292
0.455469
0.454645
0.453796
0.45294
0.452115
0.451327
0.450541
0.44973
0.448913
0.448127
0.447374
0.446629
0.445874
0.445108
0.444357
0.443645
0.44296
0.442266
0.441555
0.440856
0.440198
0.439571
0.438948
0.438313
0.437679
0.437079
0.43652
0.435977
0.435431
0.434883
0.434351
0.433861
0.433409
0.432964
0.43251
0.432067
0.431657
0.431288
0.430947
0.430606
0.43026
0.429932
0.429647
0.429403
0.429171
0.428929
0.428689
0.428483
0.428317
0.428172
0.42803
0.427883
0.42774
0.427626
0.42755
0.427486
0.427411
0.427332
0.427259
0.427213
0.427192
0.42717
0.427141
0.427112
0.427083
0.427063
0.427059
0.427057
0.427053
0.427047
0.42704
0.427037
0.427036
0.427037
0.427039
0.427042
0.427043
0.427041
0.427042
0.427042
0.427043
0.427047
0.427048
0.427047
0.427049
0.427054
0.427057
0.427057
0.427056
0.427059
0.427062
0.427064
0.427066
0.42707
0.427075
0.427079
0.427081
0.427079
0.427079
0.427083
0.427083
0.427081
0.427087
0.42709
0.427088
0.427089
0.427094
0.427095
0.427094
0.427095
0.4271
0.427099
0.427097
0.427101
0.427103
0.427102
0.4271
0.427104
0.427106
0.427105
0.427104
0.427107
0.427108
0.427106
0.427107
0.427109
0.427108
0.427107
0.427108
0.427109
0.427108
0.427107
0.427109
0.427109
0.427107
0.427107
0.427108
0.427108
0.427107
0.427106
0.427107
0.427106
0.427105
0.427105
0.427105
0.427104
0.427103
0.427103
0.427103
0.427102
0.427101
0.427101
0.427101
0.4271
0.427099
0.427099
0.427099
0.427097
0.427096
0.427096
0.427095
0.427094
0.427094
0.427093
0.427092
0.427091
0.427091
0.42709
0.427089
0.427088
0.427087
0.427086
0.427085
0.427085
0.427084
0.427082
0.427081
0.427081
0.42708
0.427078
0.427078
0.427077
0.427075
0.427074
0.427074
0.427073
0.427071
0.427071
0.42707
0.427068
0.427068
0.427067
0.427066
0.427064
0.427063
0.427062
0.42706
0.427059
0.427058
0.427057
0.427054
0.427054
0.427053
0.427051
0.427049
0.427049
0.427048
0.427046
0.427045
0.427044
0.427043
0.427041
0.42704
0.427039
0.427037
0.427035
0.427034
0.427032
0.427029
0.427028
0.427028
0.427025
0.427023
0.427023
0.427021
0.427019
0.427018
0.427017
0.427016
0.427014
0.427013
0.427011
0.427008
0.427006
0.427005
0.427002
0.427
0.426998
0.426996
0.426994
0.426993
0.426991
0.426989
0.426987
0.426985
0.426983
0.426982
0.42698
0.426978
0.426975
0.426973
0.42697
0.426967
0.426964
0.426962
0.42696
0.426957
0.426955
0.426953
0.426951
0.42695
0.426948
0.426945
0.426943
0.42694
0.426937
0.426935
0.426933
0.426929
0.426925
0.426922
0.426918
0.426916
0.426915
0.426912
0.426908
0.426904
0.426899
0.426896
0.426893
0.426891
0.426888
0.426885
0.426882
0.426879
0.426876
0.426873
0.426869
0.426863
0.426858
0.426853
0.426849
0.426846
0.426843
0.426839
0.426833
0.426827
0.426821
0.426817
0.426814
0.426812
0.42681
0.426806
0.426799
0.426792
0.426784
0.426778
0.426773
0.426769
0.426766
0.426762
0.426757
0.426748
0.426739
0.426728
0.426718
0.426709
0.426704
0.4267
0.426698
0.426697
0.426694
0.426683
0.426668
0.426654
0.426643
0.426636
0.426632
0.42663
0.426628
0.426621
0.426609
0.426592
0.426573
0.426553
0.426537
0.426527
0.426522
0.426518
0.426514
0.426504
0.426485
0.426462
0.426439
0.426419
0.426405
0.426395
0.42639
0.426387
0.426382
0.426373
0.426347
0.426313
0.426274
0.426235
0.426198
0.426166
0.426141
0.426124
0.426114
0.426107
0.426102
0.426093
0.426076
0.42602
0.425948
0.425874
0.425804
0.425743
0.425694
0.425658
0.425635
0.425621
0.425612
0.425603
0.425589
0.425564
0.425467
0.425296
0.425108
0.424925
0.424747
0.424586
0.424446
0.424337
0.42425
0.424187
0.424147
0.424115
0.424102
0.4241
0.424101
0.424039
0.423894
0.423001
0.420922
0.412091
0.394154
0.376418
0.360116
0.345359
0.332342
0.321049
0.311389
0.303224
0.296397
0.290739
0.286106
0.282352
0.279327
0.276912
0.275012
0.273535
0.272392
0.271508
0.27083
0.270328
0.269962
0.269693
0.269492
0.269347
0.269248
0.269183
0.26914
0.26911
0.269091
0.269079
0.269074
0.269069
0.269065
0.269064
0.269065
0.269065
0.269066
0.269071
0.269078
0.269087
0.269096
0.269105
0.269113
0.269121
0.269129
0.269136
0.269142
0.269147
0.269151
0.269154
0.269156
0.269157
0.269157
0.269158
0.269158
0.269158
0.269157
0.269155
0.269153
0.269152
0.26915
0.26915
0.269149
0.269149
0.269149
0.269149
0.26915
0.269152
0.269156
0.269159
0.269162
0.269164
0.269166
0.269166
0.269167
0.269167
0.269167
0.269167
0.269166
0.269165
0.269164
0.269163
0.269163
0.269163
0.269162
0.269163
0.269163
0.269164
0.269167
0.269168
0.26917
0.269172
0.269173
0.269173
0.269175
0.269177
0.269179
0.269181
0.269183
0.269188
0.269194
0.269199
0.269203
0.269225
0.269253
0.269266
0.269296
0.269358
0.269412
0.269489
0.269599
0.269735
0.269877
0.27005
0.270266
0.270489
0.270734
0.27101
0.271291
0.271591
0.271896
0.272178
0.272468
0.272751
0.272994
0.27323
0.273455
0.273632
0.273782
0.273918
0.274018
0.274095
0.274167
0.274218
0.27425
0.274278
0.2743
0.274311
0.274317
0.274321
0.274319
0.274313
0.274308
0.274304
0.274302
0.274301
0.274303
0.274304
0.274306
0.274308
0.274312
0.274317
0.274321
0.274325
0.274328
)
;

boundaryField
{
    sides
    {
        type            calculated;
        value           nonuniform List<scalar> 2(0.274328 0.997574);
    }
    empty
    {
        type            empty;
    }
}


// ************************************************************************* //
