/*--------------------------------*- C++ -*----------------------------------*\
  =========                 |
  \\      /  F ield         | OpenFOAM: The Open Source CFD Toolbox
   \\    /   O peration     | Website:  https://openfoam.org
    \\  /    A nd           | Version:  9
     \\/     M anipulation  |
\*---------------------------------------------------------------------------*/
FoamFile
{
    format      ascii;
    class       volScalarField;
    location    "0.033";
    object      ddt0(p);
}
// * * * * * * * * * * * * * * * * * * * * * * * * * * * * * * * * * * * * * //

dimensions      [1 -1 -3 0 0 0 0];

internalField   nonuniform List<scalar> 
100
(
-951744
-947738
-940279
-936964
-932742
-927904
-923152
-918324
-913901
-909518
-904790
-900548
-896306
-891295
-886966
-883026
-878047
-872731
-868610
-864890
-859971
-854206
-849002
-844986
-839505
-832021
-825825
-819540
-812229
-805770
-800795
-790039
-787547
-780139
-777432
-770934
-771794
-767245
-775358
-758343
-765006
-700683
-691798
-860229
-734782
-736855
-746853
-746234
-719631
-674690
-611449
-491256
-208283
-48060.9
-2.55376e+06
-849722
-762140
-742693
-730923
-721301
-715189
-712341
-709547
-701581
-694218
-671754
-645518
-595710
-479702
-211439
511306
-315283
-4.4037e+06
-1.01394e+06
-924019
-939925
-963542
-986877
-1.0072e+06
-1.02529e+06
-1.03837e+06
-1.04898e+06
-1.05985e+06
-1.06902e+06
-1.07767e+06
-1.08975e+06
-1.09843e+06
-1.10394e+06
-1.11251e+06
-1.1176e+06
-1.11951e+06
-1.12319e+06
-1.1237e+06
-1.12297e+06
-1.11689e+06
-1.10217e+06
-1.07819e+06
-1.01412e+06
-959936
-896576
)
;

boundaryField
{
    sides
    {
        type            calculated;
        value           nonuniform List<scalar> 2(-896576 -951744);
    }
    empty
    {
        type            empty;
    }
}


// ************************************************************************* //
