/*--------------------------------*- C++ -*----------------------------------*\
  =========                 |
  \\      /  F ield         | OpenFOAM: The Open Source CFD Toolbox
   \\    /   O peration     | Website:  https://openfoam.org
    \\  /    A nd           | Version:  9
     \\/     M anipulation  |
\*---------------------------------------------------------------------------*/
FoamFile
{
    format      ascii;
    class       volScalarField;
    location    "0.033";
    object      ddt0(rho,K);
}
// * * * * * * * * * * * * * * * * * * * * * * * * * * * * * * * * * * * * * //

dimensions      [1 -1 -3 0 0 0 0];

internalField   nonuniform List<scalar> 
100
(
-1371.67
-5682.94
-10140.3
-13211.7
-17333.5
-22058.5
-27196.1
-32677.3
-38444.6
-44932.2
-51669
-58381.8
-66075.8
-74041.8
-81541.8
-89929.1
-99440.8
-108513
-117068
-126783
-137976
-149002
-158899
-168885
-180595
-193580
-206894
-219018
-230843
-243708
-258329
-272369
-288794
-301499
-314988
-327562
-340045
-353396
-369120
-382644
-400395
-399513
-418210
-479937
-479966
-501954
-527434
-543849
-543353
-531552
-516018
-479568
-370243
-432274
-1.1467e+06
-755011
-672323
-666204
-667761
-668770
-672353
-683340
-699384
-713158
-722441
-721134
-717096
-704994
-664505
-543566
-220386
-855866
-2.28083e+06
-1.13222e+06
-993558
-1.01631e+06
-1.05169e+06
-1.08515e+06
-1.11478e+06
-1.1388e+06
-1.16297e+06
-1.18567e+06
-1.2047e+06
-1.22696e+06
-1.24623e+06
-1.26138e+06
-1.28064e+06
-1.29821e+06
-1.31008e+06
-1.32521e+06
-1.33847e+06
-1.34931e+06
-1.35075e+06
-1.3591e+06
-1.35315e+06
-1.34806e+06
-1.34445e+06
-1.33711e+06
-1.32792e+06
-1.28076e+06
)
;

boundaryField
{
    sides
    {
        type            calculated;
        value           nonuniform List<scalar> 2(-1.28076e+06 -1371.67);
    }
    empty
    {
        type            empty;
    }
}


// ************************************************************************* //
