/*--------------------------------*- C++ -*----------------------------------*\
  =========                 |
  \\      /  F ield         | OpenFOAM: The Open Source CFD Toolbox
   \\    /   O peration     | Website:  https://openfoam.org
    \\  /    A nd           | Version:  9
     \\/     M anipulation  |
\*---------------------------------------------------------------------------*/
FoamFile
{
    format      ascii;
    class       volScalarField;
    location    "0.033";
    object      ddt0(rho,e);
}
// * * * * * * * * * * * * * * * * * * * * * * * * * * * * * * * * * * * * * //

dimensions      [1 -1 -3 0 0 0 0];

internalField   nonuniform List<scalar> 
100
(
779443
776933
770950
769704
761846
750768
740190
739199
733805
734800
757926
756773
755348
777653
773277
749175
758451
783174
769221
734208
735999
770317
779688
745748
709781
709651
752415
771491
737615
695028
680634
678765
742807
723967
695875
669363
667198
683215
700672
689232
685613
611895
605581
753979
649193
661025
664736
641469
598524
551307
506537
428020
192202
198040
1.94871e+06
682076
647930
653189
634886
582605
521362
501001
536865
585285
601640
545734
448241
360637
291300
151840
-363070
760017
2.69051e+06
653457
584530
639927
692427
714842
713582
670585
659759
673096
663121
694920
719930
687273
689711
713032
675550
673652
700452
710522
655125
686019
654018
648732
585639
623325
570706
526829
)
;

boundaryField
{
    sides
    {
        type            calculated;
        value           nonuniform List<scalar> 2(526829 779443);
    }
    empty
    {
        type            empty;
    }
}


// ************************************************************************* //
