/*--------------------------------*- C++ -*----------------------------------*\
  =========                 |
  \\      /  F ield         | OpenFOAM: The Open Source CFD Toolbox
   \\    /   O peration     | Website:  https://openfoam.org
    \\  /    A nd           | Version:  9
     \\/     M anipulation  |
\*---------------------------------------------------------------------------*/
FoamFile
{
    format      ascii;
    class       volVectorField;
    location    "0.033";
    object      ddt0(rho,U);
}
// * * * * * * * * * * * * * * * * * * * * * * * * * * * * * * * * * * * * * //

dimensions      [1 -2 -2 0 0 0 0];

internalField   nonuniform List<vector> 
100
(
(-271.216 0 0)
(-373.244 0 0)
(-467.817 0 0)
(-527.281 0 0)
(-598.103 0 0)
(-672.058 0 0)
(-746.187 0 0)
(-820.462 0 0)
(-892.81 0 0)
(-970.241 0 0)
(-1048.37 0 0)
(-1118.46 0 0)
(-1195.54 0 0)
(-1274.17 0 0)
(-1339.88 0 0)
(-1408.2 0 0)
(-1488.66 0 0)
(-1563.22 0 0)
(-1623.45 0 0)
(-1687.61 0 0)
(-1767.38 0 0)
(-1847.75 0 0)
(-1911.11 0 0)
(-1964.64 0 0)
(-2027.93 0 0)
(-2104.28 0 0)
(-2190 0 0)
(-2259.1 0 0)
(-2311.32 0 0)
(-2366.92 0 0)
(-2439.57 0 0)
(-2505.1 0 0)
(-2605.94 0 0)
(-2656.36 0 0)
(-2710.78 0 0)
(-2755.31 0 0)
(-2808.8 0 0)
(-2867.44 0 0)
(-2948.06 0 0)
(-2988.38 0 0)
(-3070.88 0 0)
(-2973.46 0 0)
(-3047.79 0 0)
(-3539.8 0 0)
(-3390.68 0 0)
(-3492.44 0 0)
(-3614.98 0 0)
(-3670.71 0 0)
(-3609.72 0 0)
(-3474.28 0 0)
(-3306.57 0 0)
(-2975.87 0 0)
(-2094.61 0 0)
(-2254.5 0 0)
(-8460.39 0 0)
(-4634.01 0 0)
(-4122.28 0 0)
(-4057.03 0 0)
(-4028.2 0 0)
(-3987.42 0 0)
(-3959.02 0 0)
(-3982.62 0 0)
(-4049.62 0 0)
(-4105.93 0 0)
(-4130.59 0 0)
(-4066.93 0 0)
(-3972.18 0 0)
(-3822.99 0 0)
(-3493.06 0 0)
(-2640.59 0 0)
(-333.017 0 0)
(-4302.87 0 0)
(-15111.8 0 0)
(-6074.88 0 0)
(-5347.8 0 0)
(-5461.11 0 0)
(-5633.27 0 0)
(-5784.02 0 0)
(-5905.17 0 0)
(-5983.05 0 0)
(-6068.61 0 0)
(-6154.85 0 0)
(-6216.43 0 0)
(-6306.12 0 0)
(-6380.13 0 0)
(-6416.83 0 0)
(-6480.45 0 0)
(-6542.47 0 0)
(-6559.33 0 0)
(-6600 0 0)
(-6642.14 0 0)
(-6669.66 0 0)
(-6629.17 0 0)
(-6651.38 0 0)
(-6586.12 0 0)
(-6526.64 0 0)
(-6436.83 0 0)
(-6335.42 0 0)
(-6201.46 0 0)
(-5913.52 0 0)
)
;

boundaryField
{
    sides
    {
        type            calculated;
        value           nonuniform List<vector> 2((-5913.52 0 0) (-271.216 0 0));
    }
    empty
    {
        type            empty;
    }
}


// ************************************************************************* //
