/*--------------------------------*- C++ -*----------------------------------*\
  =========                 |
  \\      /  F ield         | OpenFOAM: The Open Source CFD Toolbox
   \\    /   O peration     | Website:  https://openfoam.org
    \\  /    A nd           | Version:  9
     \\/     M anipulation  |
\*---------------------------------------------------------------------------*/
FoamFile
{
    format      ascii;
    class       volVectorField;
    location    "0.033";
    object      U_0;
}
// * * * * * * * * * * * * * * * * * * * * * * * * * * * * * * * * * * * * * //

dimensions      [0 1 -1 0 0 0 0];

internalField   nonuniform List<vector> 
100
(
(45.8754 0 0)
(49.1855 0 0)
(53.5989 0 0)
(57.0829 0 0)
(60.2778 0 0)
(63.5283 0 0)
(66.804 0 0)
(70.0878 0 0)
(73.36 0 0)
(76.6429 0 0)
(79.9394 0 0)
(83.2092 0 0)
(86.4804 0 0)
(89.7677 0 0)
(93.022 0 0)
(96.2609 0 0)
(99.5275 0 0)
(102.792 0 0)
(106.013 0 0)
(109.222 0 0)
(112.457 0 0)
(115.696 0 0)
(118.895 0 0)
(122.055 0 0)
(125.213 0 0)
(128.379 0 0)
(131.532 0 0)
(134.637 0 0)
(137.686 0 0)
(140.704 0 0)
(143.71 0 0)
(146.684 0 0)
(149.611 0 0)
(152.484 0 0)
(155.312 0 0)
(158.126 0 0)
(160.941 0 0)
(163.758 0 0)
(166.571 0 0)
(169.368 0 0)
(172.13 0 0)
(174.813 0 0)
(177.345 0 0)
(179.717 0 0)
(182.001 0 0)
(184.243 0 0)
(186.448 0 0)
(188.626 0 0)
(190.784 0 0)
(192.92 0 0)
(195.053 0 0)
(197.188 0 0)
(199.266 0 0)
(201.268 0 0)
(203.378 0 0)
(205.526 0 0)
(207.508 0 0)
(209.373 0 0)
(211.156 0 0)
(212.87 0 0)
(214.53 0 0)
(216.156 0 0)
(217.759 0 0)
(219.328 0 0)
(220.865 0 0)
(222.367 0 0)
(223.838 0 0)
(225.308 0 0)
(226.773 0 0)
(228.192 0 0)
(229.503 0 0)
(230.862 0 0)
(232.587 0 0)
(234.382 0 0)
(235.969 0 0)
(237.53 0 0)
(239.098 0 0)
(240.675 0 0)
(242.261 0 0)
(243.852 0 0)
(245.453 0 0)
(247.056 0 0)
(248.651 0 0)
(250.249 0 0)
(251.842 0 0)
(253.43 0 0)
(255.032 0 0)
(256.642 0 0)
(258.248 0 0)
(259.864 0 0)
(261.49 0 0)
(263.115 0 0)
(264.742 0 0)
(266.391 0 0)
(268.054 0 0)
(269.726 0 0)
(271.364 0 0)
(272.856 0 0)
(274.012 0 0)
(275.92 0 0)
)
;

boundaryField
{
    sides
    {
        type            zeroGradient;
    }
    empty
    {
        type            empty;
    }
}


// ************************************************************************* //
