/*--------------------------------*- C++ -*----------------------------------*\
  =========                 |
  \\      /  F ield         | OpenFOAM: The Open Source CFD Toolbox
   \\    /   O peration     | Website:  https://openfoam.org
    \\  /    A nd           | Version:  9
     \\/     M anipulation  |
\*---------------------------------------------------------------------------*/
FoamFile
{
    format      ascii;
    class       volScalarField;
    location    "0.027";
    object      mag(U);
}
// * * * * * * * * * * * * * * * * * * * * * * * * * * * * * * * * * * * * * //

dimensions      [0 1 -1 0 0 0 0];

internalField   nonuniform List<scalar> 
1000
(
11.4279
12.0273
12.6297
13.1272
13.5926
14.0657
14.5478
15.0319
15.515
15.9977
16.4804
16.9633
17.4462
17.9291
18.4119
18.8948
19.3776
19.8606
20.3436
20.8267
21.3098
21.7929
22.276
22.7593
23.2425
23.7258
24.2092
24.6927
25.1762
25.6597
26.1433
26.627
27.1107
27.5945
28.0783
28.5622
29.0461
29.5301
30.0142
30.4983
30.9824
31.4666
31.9509
32.4352
32.9196
33.404
33.8885
34.3731
34.8577
35.3423
35.827
36.3118
36.7966
37.2814
37.7663
38.2513
38.7363
39.2214
39.7065
40.1917
40.6769
41.1622
41.6475
42.1329
42.6183
43.1038
43.5894
44.075
44.5606
45.0463
45.532
46.0178
46.5037
46.9896
47.4755
47.9615
48.4475
48.9336
49.4198
49.906
50.3922
50.8785
51.3649
51.8513
52.3377
52.8242
53.3108
53.7973
54.284
54.7707
55.2574
55.7442
56.231
56.7179
57.2049
57.6919
58.1789
58.666
59.1531
59.6403
60.1275
60.6148
61.1021
61.5894
62.0768
62.5643
63.0518
63.5394
64.027
64.5146
65.0023
65.4901
65.9778
66.4657
66.9536
67.4415
67.9294
68.4175
68.9055
69.3936
69.8818
70.37
70.8582
71.3465
71.8348
72.3232
72.8116
73.3001
73.7886
74.2771
74.7657
75.2544
75.7431
76.2318
76.7205
77.2094
77.6982
78.1871
78.676
79.165
79.654
80.1431
80.6322
81.1214
81.6106
82.0998
82.5891
83.0784
83.5677
84.0571
84.5466
85.036
85.5255
86.0151
86.5047
86.9943
87.484
87.9737
88.4635
88.9533
89.4431
89.933
90.4229
90.9128
91.4028
91.8928
92.3829
92.8729
93.3631
93.8532
94.3434
94.8337
95.324
95.8143
96.3046
96.795
97.2854
97.7759
98.2664
98.7569
99.2474
99.738
100.229
100.719
101.21
101.701
102.191
102.682
103.173
103.664
104.155
104.646
105.137
105.628
106.119
106.61
107.101
107.592
108.083
108.574
109.065
109.557
110.048
110.539
111.03
111.522
112.013
112.504
112.996
113.487
113.979
114.47
114.962
115.453
115.945
116.436
116.928
117.419
117.911
118.403
118.894
119.386
119.878
120.369
120.861
121.353
121.845
122.336
122.828
123.32
123.812
124.304
124.796
125.287
125.779
126.271
126.763
127.255
127.747
128.239
128.731
129.223
129.715
130.207
130.699
131.191
131.683
132.175
132.667
133.159
133.651
134.143
134.635
135.127
135.619
136.111
136.603
137.095
137.587
138.079
138.571
139.062
139.554
140.046
140.538
141.03
141.522
142.014
142.506
142.998
143.489
143.981
144.473
144.965
145.456
145.948
146.44
146.931
147.423
147.915
148.406
148.898
149.389
149.881
150.372
150.863
151.355
151.846
152.337
152.828
153.319
153.811
154.302
154.793
155.283
155.774
156.265
156.756
157.246
157.737
158.228
158.718
159.208
159.699
160.189
160.679
161.169
161.659
162.149
162.639
163.128
163.618
164.107
164.597
165.086
165.575
166.064
166.553
167.042
167.53
168.019
168.507
168.995
169.483
169.971
170.459
170.947
171.434
171.921
172.409
172.896
173.382
173.869
174.355
174.841
175.327
175.813
176.299
176.784
177.269
177.754
178.238
178.723
179.207
179.691
180.174
180.658
181.141
181.623
182.106
182.588
183.069
183.551
184.032
184.513
184.993
185.473
185.953
186.432
186.911
187.389
187.867
188.344
188.821
189.298
189.774
190.25
190.725
191.199
191.673
192.147
192.62
193.092
193.564
194.035
194.505
194.975
195.444
195.912
196.38
196.847
197.313
197.778
198.243
198.706
199.169
199.631
200.092
200.552
201.011
201.469
201.926
202.382
202.837
203.291
203.743
204.194
204.644
205.093
205.54
205.986
206.431
206.875
207.318
207.76
208.199
208.637
209.073
209.507
209.94
210.37
210.799
211.226
211.651
212.074
212.496
212.915
213.332
213.747
214.159
214.57
214.978
215.384
215.787
216.188
216.586
216.982
217.375
217.765
218.153
218.538
218.92
219.299
219.675
220.049
220.419
220.786
221.15
221.511
221.868
222.223
222.574
222.922
223.266
223.608
223.945
224.28
224.611
224.939
225.263
225.584
225.902
226.216
226.527
226.835
227.139
227.44
227.738
228.032
228.324
228.612
228.897
229.18
229.459
229.736
230.01
230.281
230.549
230.815
231.079
231.34
231.598
231.855
232.109
232.362
232.612
232.861
233.108
233.353
233.596
233.838
234.079
234.318
234.556
234.793
235.029
235.264
235.498
235.73
235.963
236.194
236.424
236.654
236.884
237.113
237.341
237.569
237.796
238.023
238.25
238.477
238.703
238.929
239.155
239.38
239.606
239.831
240.056
240.281
240.506
240.731
240.956
241.181
241.405
241.63
241.855
242.079
242.304
242.528
242.753
242.977
243.202
243.426
243.651
243.875
244.1
244.324
244.549
244.773
244.998
245.223
245.447
245.672
245.896
246.121
246.345
246.57
246.795
247.019
247.244
247.468
247.693
247.918
248.142
248.367
248.591
248.816
249.041
249.265
249.49
249.715
249.939
250.164
250.389
250.613
250.838
251.063
251.287
251.512
251.736
251.961
252.186
252.41
252.635
252.859
253.084
253.309
253.533
253.758
253.982
254.207
254.431
254.656
254.88
255.105
255.329
255.553
255.778
256.002
256.226
256.451
256.675
256.899
257.123
257.348
257.572
257.796
258.02
258.244
258.468
258.692
258.916
259.14
259.363
259.587
259.811
260.035
260.258
260.482
260.705
260.929
261.152
261.375
261.599
261.822
262.045
262.268
262.491
262.714
262.937
263.159
263.382
263.605
263.827
264.049
264.272
264.494
264.716
264.938
265.16
265.381
265.603
265.824
266.046
266.267
266.488
266.709
266.93
267.151
267.371
267.592
267.812
268.032
268.252
268.472
268.691
268.911
269.13
269.349
269.568
269.787
270.005
270.224
270.442
270.66
270.877
271.095
271.312
271.529
271.745
271.962
272.178
272.394
272.61
272.825
273.04
273.255
273.469
273.683
273.897
274.111
274.324
274.537
274.749
274.961
275.173
275.384
275.595
275.806
276.016
276.226
276.435
276.644
276.852
277.06
277.267
277.474
277.68
277.886
278.091
278.296
278.5
278.703
278.906
279.108
279.31
279.511
279.711
279.911
280.11
280.308
280.505
280.702
280.898
281.093
281.287
281.481
281.673
281.865
282.056
282.245
282.434
282.622
282.809
282.995
283.18
283.363
283.546
283.727
283.908
284.087
284.265
284.442
284.617
284.792
284.964
285.136
285.306
285.475
285.643
285.808
285.973
286.136
286.297
286.457
286.616
286.772
286.927
287.081
287.232
287.382
287.531
287.677
287.822
287.964
288.105
288.244
288.382
288.517
288.65
288.781
288.911
289.038
289.163
289.286
289.407
289.526
289.643
289.758
289.87
289.981
290.089
290.195
290.299
290.401
290.5
290.598
290.693
290.786
290.877
290.965
291.051
291.136
291.218
291.297
291.375
291.451
291.524
291.595
291.664
291.731
291.796
291.859
291.92
291.979
292.036
292.091
292.144
292.195
292.245
292.292
292.338
292.382
292.424
292.465
292.504
292.541
292.577
292.611
292.644
292.676
292.705
292.734
292.761
292.787
292.812
292.835
292.858
292.879
292.899
292.918
292.936
292.954
292.97
292.985
293
293.013
293.026
293.038
293.05
293.06
293.07
293.08
293.089
293.097
293.105
293.112
293.119
293.125
293.131
293.137
293.142
293.146
293.151
293.155
293.159
293.162
293.166
293.169
293.172
293.174
293.177
293.179
293.181
293.183
293.184
293.186
293.187
293.189
293.19
293.191
293.192
293.193
293.194
293.195
293.195
293.196
293.196
293.197
293.198
293.198
293.198
293.199
293.199
293.199
293.199
293.199
293.198
293.198
293.197
293.196
293.195
293.194
293.193
293.191
293.189
293.187
293.184
293.181
293.178
293.174
293.17
293.165
293.159
293.153
293.146
293.138
293.129
293.119
293.109
293.097
293.084
293.07
293.054
293.038
293.019
293
292.979
292.956
292.932
292.906
292.879
292.849
292.819
292.786
292.753
292.717
292.68
292.642
292.602
292.562
292.52
292.477
292.433
292.388
292.343
292.298
292.252
292.206
292.16
292.114
292.069
292.024
291.98
291.936
291.894
291.852
291.812
291.773
291.735
291.699
291.665
291.631
291.6
291.57
291.542
291.515
291.49
291.467
291.445
291.424
291.406
291.388
291.371
291.356
291.342
291.329
291.317
291.306
291.296
291.287
291.278
291.27
291.262
291.255
291.248
291.242
291.236
291.23
291.224
291.219
291.214
291.209
291.204
291.199
291.195
291.191
291.186
291.182
291.178
291.174
291.171
291.167
291.164
291.161
291.158
291.155
291.152
291.15
291.147
291.145
291.143
291.142
291.14
291.139
291.137
291.136
291.135
291.135
291.134
291.133
291.133
291.133
291.132
291.132
291.132
291.132
291.132
291.132
291.132
291.132
291.132
291.132
291.132
291.132
291.132
291.132
291.132
291.132
291.132
)
;

boundaryField
{
    sides
    {
        type            calculated;
        value           nonuniform List<scalar> 2(291.132 11.4279);
    }
    empty
    {
        type            empty;
    }
}


// ************************************************************************* //
