/*--------------------------------*- C++ -*----------------------------------*\
  =========                 |
  \\      /  F ield         | OpenFOAM: The Open Source CFD Toolbox
   \\    /   O peration     | Website:  https://openfoam.org
    \\  /    A nd           | Version:  9
     \\/     M anipulation  |
\*---------------------------------------------------------------------------*/
FoamFile
{
    format      ascii;
    class       volScalarField;
    location    "0.027";
    object      rho;
}
// * * * * * * * * * * * * * * * * * * * * * * * * * * * * * * * * * * * * * //

dimensions      [1 -3 0 0 0 0 0];

internalField   nonuniform List<scalar> 
1000
(
0.362581
0.362487
0.362353
0.362221
0.362101
0.361988
0.361871
0.361745
0.361612
0.361478
0.361352
0.361241
0.361147
0.361067
0.360999
0.360936
0.360875
0.360816
0.36076
0.360714
0.360671
0.360629
0.360586
0.360543
0.360499
0.360455
0.360412
0.360368
0.360324
0.36028
0.360236
0.360192
0.360148
0.360104
0.360059
0.360015
0.359971
0.359927
0.359882
0.359838
0.359794
0.359749
0.359705
0.35966
0.359616
0.359571
0.359527
0.359482
0.359437
0.359393
0.359348
0.359303
0.359259
0.359214
0.359169
0.359124
0.359079
0.359034
0.358989
0.358944
0.358899
0.358854
0.358809
0.358764
0.358718
0.358673
0.358628
0.358583
0.358537
0.358492
0.358446
0.358401
0.358356
0.35831
0.358264
0.358219
0.358173
0.358127
0.358082
0.358036
0.35799
0.357944
0.357898
0.357853
0.357807
0.357761
0.357715
0.357668
0.357622
0.357576
0.35753
0.357484
0.357437
0.357392
0.357344
0.3573
0.357251
0.357208
0.357157
0.357116
0.357063
0.357023
0.35697
0.356929
0.356876
0.356836
0.356783
0.356742
0.356689
0.356648
0.356595
0.356554
0.356502
0.356459
0.35641
0.356362
0.356317
0.356267
0.356223
0.356174
0.356126
0.35608
0.356031
0.355985
0.355937
0.355889
0.355843
0.355794
0.355746
0.355699
0.355651
0.355603
0.355556
0.355507
0.35546
0.355412
0.355364
0.355316
0.355268
0.35522
0.355172
0.355124
0.355075
0.355027
0.354979
0.35493
0.354882
0.354834
0.354785
0.354737
0.354688
0.35464
0.354591
0.354542
0.354494
0.354445
0.354396
0.354348
0.354299
0.35425
0.354201
0.354152
0.354103
0.354054
0.354005
0.353956
0.353907
0.353858
0.353808
0.353759
0.35371
0.353661
0.353611
0.353562
0.353512
0.353463
0.353414
0.353364
0.353314
0.353265
0.353215
0.353166
0.353116
0.353066
0.353016
0.352967
0.352917
0.352867
0.352817
0.352767
0.352717
0.352667
0.352617
0.352567
0.352517
0.352467
0.352417
0.352366
0.352316
0.352266
0.352216
0.352165
0.352115
0.352064
0.352014
0.351964
0.351913
0.351863
0.351812
0.351761
0.351711
0.35166
0.35161
0.351559
0.351508
0.351457
0.351407
0.351356
0.351305
0.351254
0.351203
0.351152
0.351102
0.351051
0.351
0.350949
0.350898
0.350847
0.350796
0.350744
0.350693
0.350642
0.350591
0.35054
0.350489
0.350438
0.350386
0.350335
0.350284
0.350233
0.350181
0.35013
0.350079
0.350027
0.349976
0.349925
0.349873
0.349822
0.349771
0.349719
0.349668
0.349616
0.349565
0.349513
0.349462
0.349411
0.349359
0.349308
0.349256
0.349205
0.349153
0.349102
0.34905
0.348999
0.348947
0.348896
0.348845
0.348793
0.348742
0.34869
0.348639
0.348587
0.348536
0.348485
0.348433
0.348382
0.348331
0.348279
0.348228
0.348177
0.348126
0.348074
0.348023
0.347972
0.347921
0.34787
0.347819
0.347768
0.347717
0.347666
0.347615
0.347564
0.347513
0.347462
0.347412
0.347361
0.34731
0.34726
0.347209
0.347159
0.347108
0.347058
0.347008
0.346958
0.346907
0.346857
0.346807
0.346757
0.346708
0.346658
0.346608
0.346559
0.346509
0.34646
0.346411
0.346362
0.346313
0.346264
0.346215
0.346167
0.346118
0.34607
0.346021
0.345973
0.345925
0.345878
0.34583
0.345782
0.345735
0.345688
0.345641
0.345594
0.345548
0.345501
0.345455
0.345409
0.345363
0.345318
0.345273
0.345227
0.345183
0.345138
0.345094
0.34505
0.345006
0.344962
0.344919
0.344876
0.344834
0.344791
0.344749
0.344708
0.344666
0.344625
0.344585
0.344545
0.344505
0.344466
0.344427
0.344388
0.34435
0.344313
0.344275
0.344239
0.344203
0.344167
0.344132
0.344097
0.344063
0.34403
0.343997
0.343965
0.343933
0.343903
0.343872
0.343843
0.343814
0.343786
0.343759
0.343732
0.343707
0.343682
0.343658
0.343635
0.343613
0.343592
0.343571
0.343552
0.343534
0.343517
0.343501
0.343486
0.343473
0.34346
0.343449
0.34344
0.343431
0.343424
0.343419
0.343415
0.343412
0.343411
0.343411
0.343412
0.343414
0.343418
0.343424
0.343433
0.343443
0.343456
0.34347
0.343487
0.343505
0.343526
0.343549
0.343574
0.343601
0.343631
0.343663
0.343698
0.343735
0.343775
0.343817
0.343863
0.343911
0.343961
0.344015
0.344072
0.344132
0.344195
0.344261
0.34433
0.344403
0.344479
0.344558
0.344641
0.344727
0.344817
0.344911
0.345008
0.345109
0.345214
0.345322
0.345435
0.345551
0.345671
0.345794
0.345922
0.346054
0.34619
0.346329
0.346473
0.34662
0.346772
0.346927
0.347086
0.347249
0.347416
0.347587
0.347761
0.347939
0.348121
0.348306
0.348495
0.348687
0.348883
0.349081
0.349283
0.349489
0.349697
0.349908
0.350122
0.350338
0.350558
0.35078
0.351004
0.351231
0.35146
0.351691
0.351924
0.352159
0.352396
0.352635
0.352876
0.353118
0.353361
0.353607
0.353853
0.354101
0.354349
0.354599
0.35485
0.355102
0.355355
0.355609
0.355864
0.356119
0.356375
0.356632
0.356889
0.357147
0.357406
0.357664
0.357924
0.358184
0.358444
0.358705
0.358966
0.359227
0.359489
0.359751
0.360014
0.360276
0.360539
0.360803
0.361066
0.36133
0.361594
0.361858
0.362123
0.362387
0.362652
0.362917
0.363183
0.363448
0.363714
0.36398
0.364246
0.364512
0.364779
0.365045
0.365312
0.365579
0.365847
0.366114
0.366382
0.366649
0.366917
0.367186
0.367454
0.367722
0.367991
0.36826
0.368529
0.368798
0.369068
0.369337
0.369607
0.369877
0.370147
0.370417
0.370687
0.370958
0.371229
0.3715
0.371771
0.372042
0.372313
0.372585
0.372856
0.373129
0.3734
0.373673
0.373945
0.374218
0.37449
0.374763
0.375036
0.375309
0.375582
0.375856
0.376129
0.376403
0.376676
0.37695
0.377224
0.377499
0.377773
0.378047
0.378322
0.378597
0.378871
0.379146
0.379422
0.379697
0.379972
0.380248
0.380523
0.380799
0.381075
0.381351
0.381627
0.381903
0.382179
0.382455
0.382732
0.383009
0.383285
0.383562
0.383839
0.384116
0.384393
0.38467
0.384947
0.385224
0.385502
0.385779
0.386057
0.386334
0.386612
0.38689
0.387167
0.387445
0.387723
0.388001
0.388279
0.388557
0.388835
0.389113
0.389391
0.389669
0.389947
0.390226
0.390504
0.390782
0.39106
0.391338
0.391616
0.391895
0.392172
0.392451
0.392728
0.393007
0.393284
0.393563
0.39384
0.394119
0.394396
0.394674
0.394951
0.395229
0.395506
0.395784
0.39606
0.396338
0.396614
0.396892
0.397167
0.397445
0.39772
0.397997
0.398272
0.398549
0.398824
0.3991
0.399374
0.39965
0.399924
0.400199
0.400473
0.400747
0.40102
0.401294
0.401566
0.40184
0.402111
0.402384
0.402655
0.402927
0.403197
0.403468
0.403737
0.404008
0.404276
0.404545
0.404812
0.405081
0.405347
0.405614
0.405879
0.406146
0.406409
0.406674
0.406937
0.4072
0.407462
0.407724
0.407983
0.408244
0.408502
0.408761
0.409018
0.409275
0.40953
0.409785
0.410038
0.410291
0.410542
0.410794
0.411042
0.411292
0.411538
0.411785
0.412029
0.412274
0.412515
0.412757
0.412996
0.413235
0.413471
0.413708
0.413941
0.414175
0.414405
0.414635
0.414862
0.415089
0.415312
0.415536
0.415756
0.415976
0.416192
0.416408
0.416621
0.416833
0.417041
0.417249
0.417454
0.417658
0.417857
0.418057
0.418252
0.418447
0.418638
0.418828
0.419014
0.4192
0.419381
0.419561
0.419737
0.419912
0.420083
0.420253
0.420418
0.420583
0.420743
0.420902
0.421057
0.42121
0.421359
0.421507
0.42165
0.421792
0.42193
0.422066
0.422198
0.422328
0.422454
0.422579
0.422699
0.422818
0.422932
0.423045
0.423153
0.423261
0.423363
0.423465
0.423561
0.423657
0.423748
0.423839
0.423924
0.424009
0.424089
0.424169
0.424244
0.424318
0.424388
0.424457
0.424522
0.424586
0.424646
0.424706
0.424761
0.424816
0.424867
0.424917
0.424964
0.425011
0.425053
0.425096
0.425134
0.425173
0.425208
0.425244
0.425275
0.425308
0.425336
0.425366
0.425391
0.425417
0.42544
0.425464
0.425484
0.425505
0.425523
0.425542
0.425558
0.425575
0.425589
0.425604
0.425616
0.42563
0.42564
0.425652
0.425661
0.425671
0.425679
0.425688
0.425695
0.425703
0.425708
0.425716
0.42572
0.425727
0.42573
0.425736
0.425739
0.425744
0.425746
0.42575
0.425752
0.425756
0.425758
0.425761
0.425762
0.425765
0.425766
0.425768
0.425769
0.425771
0.425771
0.425773
0.425773
0.425774
0.425775
0.425776
0.425776
0.425777
0.425777
0.425778
0.425777
0.425778
0.425778
0.425779
0.425779
0.42578
0.42578
0.425781
0.425781
0.425783
0.425783
0.425786
0.425786
0.425789
0.42579
0.425794
0.425796
0.425801
0.425804
0.42581
0.425814
0.425822
0.425827
0.425838
0.425843
0.425857
0.425864
0.425881
0.425889
0.42591
0.42592
0.425945
0.425958
0.425987
0.426002
0.426037
0.426054
0.426095
0.426114
0.426161
0.426183
0.426236
0.426261
0.426319
0.426347
0.426411
0.426442
0.426511
0.426544
0.426619
0.426653
0.426732
0.426768
0.42685
0.426887
0.426972
0.427009
0.427095
0.427132
0.427218
0.427255
0.427339
0.427375
0.427457
0.427492
0.427569
0.427604
0.427676
0.427707
0.427775
0.427805
0.427866
0.427893
0.427949
0.427973
0.428023
0.428044
0.428088
0.428106
0.428144
0.428161
0.428194
0.428207
0.428236
0.428247
0.428272
0.428281
0.428302
0.42831
0.428328
0.428335
0.42835
0.428356
0.428369
0.428374
0.428386
0.42839
0.428401
0.428405
0.428414
0.428418
0.428427
0.42843
0.428438
0.428441
0.428449
0.428452
0.42846
0.428462
0.428469
0.428471
0.428478
0.428479
0.428485
0.428487
0.428492
0.428493
0.428498
0.428498
0.428502
0.428503
0.428506
0.428506
0.428509
0.428508
0.42851
0.42851
0.428511
0.428511
0.428512
0.428511
0.428511
0.42851
0.428511
0.428509
0.428509
0.428508
0.428508
0.428507
0.428507
0.428505
0.428505
0.428504
0.428504
0.428502
0.428502
0.428501
0.428501
0.428499
)
;

boundaryField
{
    sides
    {
        type            calculated;
        value           nonuniform List<scalar> 2(0.428499 0.362581);
    }
    empty
    {
        type            empty;
    }
}


// ************************************************************************* //
