/*--------------------------------*- C++ -*----------------------------------*\
  =========                 |
  \\      /  F ield         | OpenFOAM: The Open Source CFD Toolbox
   \\    /   O peration     | Website:  https://openfoam.org
    \\  /    A nd           | Version:  9
     \\/     M anipulation  |
\*---------------------------------------------------------------------------*/
FoamFile
{
    format      ascii;
    class       volVectorField;
    location    "0.036";
    object      ddt0(rho,U);
}
// * * * * * * * * * * * * * * * * * * * * * * * * * * * * * * * * * * * * * //

dimensions      [1 -2 -2 0 0 0 0];

internalField   nonuniform List<vector> 
10000
(
(-8.75316 0 0)
(-9.50419 0 0)
(-10.2217 0 0)
(-10.8074 0 0)
(-11.3623 0 0)
(-11.9316 0 0)
(-12.5116 0 0)
(-13.0924 0 0)
(-13.6711 0 0)
(-14.2489 0 0)
(-14.8272 0 0)
(-15.4062 0 0)
(-15.985 0 0)
(-16.5634 0 0)
(-17.1415 0 0)
(-17.7198 0 0)
(-18.2983 0 0)
(-18.8765 0 0)
(-19.4544 0 0)
(-20.0324 0 0)
(-20.6111 0 0)
(-21.1905 0 0)
(-21.7697 0 0)
(-22.3478 0 0)
(-22.9252 0 0)
(-23.5029 0 0)
(-24.0818 0 0)
(-24.6617 0 0)
(-25.2414 0 0)
(-25.8198 0 0)
(-26.3967 0 0)
(-26.9734 0 0)
(-27.5512 0 0)
(-28.1302 0 0)
(-28.7095 0 0)
(-29.2876 0 0)
(-29.8641 0 0)
(-30.4399 0 0)
(-31.0165 0 0)
(-31.5951 0 0)
(-32.1752 0 0)
(-32.7552 0 0)
(-33.3333 0 0)
(-33.9088 0 0)
(-34.4829 0 0)
(-35.0578 0 0)
(-35.6356 0 0)
(-36.2164 0 0)
(-36.7984 0 0)
(-37.3791 0 0)
(-37.9566 0 0)
(-38.5312 0 0)
(-39.1047 0 0)
(-39.6798 0 0)
(-40.2581 0 0)
(-40.8396 0 0)
(-41.4224 0 0)
(-42.0038 0 0)
(-42.5816 0 0)
(-43.1555 0 0)
(-43.7268 0 0)
(-44.298 0 0)
(-44.8717 0 0)
(-45.4495 0 0)
(-46.0317 0 0)
(-46.6164 0 0)
(-47.2004 0 0)
(-47.7808 0 0)
(-48.3558 0 0)
(-48.9261 0 0)
(-49.4941 0 0)
(-50.063 0 0)
(-50.6356 0 0)
(-51.2136 0 0)
(-51.7972 0 0)
(-52.3846 0 0)
(-52.9727 0 0)
(-53.5582 0 0)
(-54.1385 0 0)
(-54.7124 0 0)
(-55.2804 0 0)
(-55.8451 0 0)
(-56.4102 0 0)
(-56.9794 0 0)
(-57.5545 0 0)
(-58.1358 0 0)
(-58.722 0 0)
(-59.3111 0 0)
(-59.9008 0 0)
(-60.4885 0 0)
(-61.0711 0 0)
(-61.6471 0 0)
(-62.2166 0 0)
(-62.7812 0 0)
(-63.3428 0 0)
(-63.9039 0 0)
(-64.4673 0 0)
(-65.0358 0 0)
(-65.6106 0 0)
(-66.1924 0 0)
(-66.7813 0 0)
(-67.3756 0 0)
(-67.9722 0 0)
(-68.568 0 0)
(-69.1601 0 0)
(-69.7469 0 0)
(-70.3283 0 0)
(-70.9045 0 0)
(-71.4745 0 0)
(-72.0377 0 0)
(-72.596 0 0)
(-73.152 0 0)
(-73.7074 0 0)
(-74.263 0 0)
(-74.8209 0 0)
(-75.3835 0 0)
(-75.9512 0 0)
(-76.5242 0 0)
(-77.1039 0 0)
(-77.6899 0 0)
(-78.2811 0 0)
(-78.8777 0 0)
(-79.4789 0 0)
(-80.0844 0 0)
(-80.6948 0 0)
(-81.3093 0 0)
(-81.9249 0 0)
(-82.538 0 0)
(-83.1479 0 0)
(-83.758 0 0)
(-84.3677 0 0)
(-84.9724 0 0)
(-85.5727 0 0)
(-86.1707 0 0)
(-86.7637 0 0)
(-87.3519 0 0)
(-87.9373 0 0)
(-88.5188 0 0)
(-89.0982 0 0)
(-89.6777 0 0)
(-90.2588 0 0)
(-90.8425 0 0)
(-91.4329 0 0)
(-92.0518 0 0)
(-92.6444 0 0)
(-93.2251 0 0)
(-93.8056 0 0)
(-94.3859 0 0)
(-94.9644 0 0)
(-95.5445 0 0)
(-96.1226 0 0)
(-96.7016 0 0)
(-97.2818 0 0)
(-97.8597 0 0)
(-98.4389 0 0)
(-99.0198 0 0)
(-99.5987 0 0)
(-100.176 0 0)
(-100.756 0 0)
(-101.338 0 0)
(-101.918 0 0)
(-102.495 0 0)
(-103.071 0 0)
(-103.649 0 0)
(-104.228 0 0)
(-104.808 0 0)
(-105.387 0 0)
(-105.967 0 0)
(-106.547 0 0)
(-107.126 0 0)
(-107.705 0 0)
(-108.284 0 0)
(-108.864 0 0)
(-109.443 0 0)
(-110.021 0 0)
(-110.6 0 0)
(-111.18 0 0)
(-111.759 0 0)
(-112.338 0 0)
(-112.916 0 0)
(-113.495 0 0)
(-114.076 0 0)
(-114.656 0 0)
(-115.236 0 0)
(-115.814 0 0)
(-116.392 0 0)
(-116.97 0 0)
(-117.549 0 0)
(-118.128 0 0)
(-118.707 0 0)
(-119.287 0 0)
(-119.866 0 0)
(-120.445 0 0)
(-121.025 0 0)
(-121.604 0 0)
(-122.183 0 0)
(-122.762 0 0)
(-123.341 0 0)
(-123.92 0 0)
(-124.5 0 0)
(-125.079 0 0)
(-125.657 0 0)
(-126.236 0 0)
(-126.815 0 0)
(-127.394 0 0)
(-127.974 0 0)
(-128.553 0 0)
(-129.132 0 0)
(-129.711 0 0)
(-130.289 0 0)
(-130.867 0 0)
(-131.446 0 0)
(-132.025 0 0)
(-132.604 0 0)
(-133.183 0 0)
(-133.763 0 0)
(-134.342 0 0)
(-134.922 0 0)
(-135.501 0 0)
(-136.08 0 0)
(-136.659 0 0)
(-137.238 0 0)
(-137.817 0 0)
(-138.396 0 0)
(-138.975 0 0)
(-139.553 0 0)
(-140.132 0 0)
(-140.711 0 0)
(-141.29 0 0)
(-141.87 0 0)
(-142.449 0 0)
(-143.028 0 0)
(-143.606 0 0)
(-144.184 0 0)
(-144.762 0 0)
(-145.341 0 0)
(-145.919 0 0)
(-146.498 0 0)
(-147.077 0 0)
(-147.657 0 0)
(-148.236 0 0)
(-148.815 0 0)
(-149.395 0 0)
(-149.974 0 0)
(-150.553 0 0)
(-151.132 0 0)
(-151.711 0 0)
(-152.29 0 0)
(-152.869 0 0)
(-153.447 0 0)
(-154.026 0 0)
(-154.605 0 0)
(-155.184 0 0)
(-155.763 0 0)
(-156.342 0 0)
(-156.921 0 0)
(-157.5 0 0)
(-158.078 0 0)
(-158.656 0 0)
(-159.234 0 0)
(-159.812 0 0)
(-160.391 0 0)
(-160.969 0 0)
(-161.548 0 0)
(-162.127 0 0)
(-162.707 0 0)
(-163.286 0 0)
(-163.865 0 0)
(-164.444 0 0)
(-165.024 0 0)
(-165.603 0 0)
(-166.182 0 0)
(-166.761 0 0)
(-167.339 0 0)
(-167.918 0 0)
(-168.497 0 0)
(-169.076 0 0)
(-169.655 0 0)
(-170.234 0 0)
(-170.812 0 0)
(-171.391 0 0)
(-171.97 0 0)
(-172.548 0 0)
(-173.126 0 0)
(-173.704 0 0)
(-174.282 0 0)
(-174.861 0 0)
(-175.439 0 0)
(-176.018 0 0)
(-176.596 0 0)
(-177.175 0 0)
(-177.754 0 0)
(-178.333 0 0)
(-178.912 0 0)
(-179.491 0 0)
(-180.07 0 0)
(-180.649 0 0)
(-181.228 0 0)
(-181.807 0 0)
(-182.386 0 0)
(-182.965 0 0)
(-183.544 0 0)
(-184.122 0 0)
(-184.701 0 0)
(-185.28 0 0)
(-185.859 0 0)
(-186.437 0 0)
(-187.015 0 0)
(-187.593 0 0)
(-188.172 0 0)
(-188.75 0 0)
(-189.328 0 0)
(-189.906 0 0)
(-190.485 0 0)
(-191.063 0 0)
(-191.642 0 0)
(-192.22 0 0)
(-192.799 0 0)
(-193.378 0 0)
(-193.957 0 0)
(-194.535 0 0)
(-195.114 0 0)
(-195.693 0 0)
(-196.272 0 0)
(-196.85 0 0)
(-197.429 0 0)
(-198.008 0 0)
(-198.587 0 0)
(-199.166 0 0)
(-199.745 0 0)
(-200.323 0 0)
(-200.902 0 0)
(-201.48 0 0)
(-202.058 0 0)
(-202.636 0 0)
(-203.215 0 0)
(-203.793 0 0)
(-204.371 0 0)
(-204.949 0 0)
(-205.528 0 0)
(-206.106 0 0)
(-206.685 0 0)
(-207.263 0 0)
(-207.842 0 0)
(-208.42 0 0)
(-208.999 0 0)
(-209.577 0 0)
(-210.156 0 0)
(-210.734 0 0)
(-211.313 0 0)
(-211.891 0 0)
(-212.47 0 0)
(-213.049 0 0)
(-213.628 0 0)
(-214.207 0 0)
(-214.785 0 0)
(-215.364 0 0)
(-215.942 0 0)
(-216.52 0 0)
(-217.098 0 0)
(-217.677 0 0)
(-218.255 0 0)
(-218.833 0 0)
(-219.411 0 0)
(-219.989 0 0)
(-220.568 0 0)
(-221.146 0 0)
(-221.725 0 0)
(-222.303 0 0)
(-222.881 0 0)
(-223.46 0 0)
(-224.038 0 0)
(-224.616 0 0)
(-225.195 0 0)
(-225.773 0 0)
(-226.351 0 0)
(-226.93 0 0)
(-227.509 0 0)
(-228.087 0 0)
(-228.666 0 0)
(-229.244 0 0)
(-229.823 0 0)
(-230.401 0 0)
(-230.979 0 0)
(-231.558 0 0)
(-232.136 0 0)
(-232.714 0 0)
(-233.292 0 0)
(-233.87 0 0)
(-234.448 0 0)
(-235.027 0 0)
(-235.605 0 0)
(-236.183 0 0)
(-236.762 0 0)
(-237.34 0 0)
(-237.918 0 0)
(-238.496 0 0)
(-239.075 0 0)
(-239.653 0 0)
(-240.231 0 0)
(-240.809 0 0)
(-241.388 0 0)
(-241.966 0 0)
(-242.544 0 0)
(-243.123 0 0)
(-243.701 0 0)
(-244.279 0 0)
(-244.857 0 0)
(-245.435 0 0)
(-246.014 0 0)
(-246.592 0 0)
(-247.17 0 0)
(-247.748 0 0)
(-248.326 0 0)
(-248.904 0 0)
(-249.482 0 0)
(-250.061 0 0)
(-250.639 0 0)
(-251.217 0 0)
(-251.795 0 0)
(-252.374 0 0)
(-252.952 0 0)
(-253.53 0 0)
(-254.108 0 0)
(-254.686 0 0)
(-255.264 0 0)
(-255.843 0 0)
(-256.421 0 0)
(-256.999 0 0)
(-257.577 0 0)
(-258.155 0 0)
(-258.733 0 0)
(-259.312 0 0)
(-259.89 0 0)
(-260.467 0 0)
(-261.045 0 0)
(-261.623 0 0)
(-262.201 0 0)
(-262.779 0 0)
(-263.357 0 0)
(-263.935 0 0)
(-264.513 0 0)
(-265.091 0 0)
(-265.669 0 0)
(-266.248 0 0)
(-266.826 0 0)
(-267.404 0 0)
(-267.982 0 0)
(-268.56 0 0)
(-269.139 0 0)
(-269.717 0 0)
(-270.295 0 0)
(-270.873 0 0)
(-271.451 0 0)
(-272.029 0 0)
(-272.607 0 0)
(-273.185 0 0)
(-273.763 0 0)
(-274.341 0 0)
(-274.919 0 0)
(-275.497 0 0)
(-276.075 0 0)
(-276.652 0 0)
(-277.23 0 0)
(-277.808 0 0)
(-278.385 0 0)
(-278.963 0 0)
(-279.541 0 0)
(-280.119 0 0)
(-280.697 0 0)
(-281.275 0 0)
(-281.853 0 0)
(-282.431 0 0)
(-283.009 0 0)
(-283.588 0 0)
(-284.166 0 0)
(-284.744 0 0)
(-285.322 0 0)
(-285.9 0 0)
(-286.478 0 0)
(-287.056 0 0)
(-287.634 0 0)
(-288.212 0 0)
(-288.79 0 0)
(-289.367 0 0)
(-289.945 0 0)
(-290.523 0 0)
(-291.101 0 0)
(-291.678 0 0)
(-292.256 0 0)
(-292.834 0 0)
(-293.411 0 0)
(-293.989 0 0)
(-294.566 0 0)
(-295.144 0 0)
(-295.722 0 0)
(-296.299 0 0)
(-296.877 0 0)
(-297.455 0 0)
(-298.033 0 0)
(-298.611 0 0)
(-299.189 0 0)
(-299.767 0 0)
(-300.345 0 0)
(-300.923 0 0)
(-301.501 0 0)
(-302.079 0 0)
(-302.657 0 0)
(-303.235 0 0)
(-303.813 0 0)
(-304.391 0 0)
(-304.968 0 0)
(-305.546 0 0)
(-306.124 0 0)
(-306.701 0 0)
(-307.279 0 0)
(-307.856 0 0)
(-308.434 0 0)
(-309.011 0 0)
(-309.589 0 0)
(-310.166 0 0)
(-310.744 0 0)
(-311.321 0 0)
(-311.899 0 0)
(-312.476 0 0)
(-313.054 0 0)
(-313.632 0 0)
(-314.21 0 0)
(-314.788 0 0)
(-315.365 0 0)
(-315.943 0 0)
(-316.521 0 0)
(-317.099 0 0)
(-317.677 0 0)
(-318.255 0 0)
(-318.833 0 0)
(-319.41 0 0)
(-319.988 0 0)
(-320.566 0 0)
(-321.143 0 0)
(-321.721 0 0)
(-322.298 0 0)
(-322.876 0 0)
(-323.453 0 0)
(-324.031 0 0)
(-324.608 0 0)
(-325.186 0 0)
(-325.763 0 0)
(-326.34 0 0)
(-326.918 0 0)
(-327.495 0 0)
(-328.072 0 0)
(-328.65 0 0)
(-329.227 0 0)
(-329.805 0 0)
(-330.383 0 0)
(-330.96 0 0)
(-331.538 0 0)
(-332.116 0 0)
(-332.693 0 0)
(-333.271 0 0)
(-333.849 0 0)
(-334.427 0 0)
(-335.004 0 0)
(-335.582 0 0)
(-336.159 0 0)
(-336.737 0 0)
(-337.314 0 0)
(-337.892 0 0)
(-338.469 0 0)
(-339.047 0 0)
(-339.624 0 0)
(-340.201 0 0)
(-340.779 0 0)
(-341.356 0 0)
(-341.933 0 0)
(-342.511 0 0)
(-343.088 0 0)
(-343.665 0 0)
(-344.242 0 0)
(-344.819 0 0)
(-345.397 0 0)
(-345.974 0 0)
(-346.552 0 0)
(-347.129 0 0)
(-347.707 0 0)
(-348.284 0 0)
(-348.862 0 0)
(-349.439 0 0)
(-350.017 0 0)
(-350.594 0 0)
(-351.172 0 0)
(-351.749 0 0)
(-352.326 0 0)
(-352.904 0 0)
(-353.481 0 0)
(-354.059 0 0)
(-354.636 0 0)
(-355.213 0 0)
(-355.791 0 0)
(-356.368 0 0)
(-356.945 0 0)
(-357.523 0 0)
(-358.1 0 0)
(-358.677 0 0)
(-359.254 0 0)
(-359.831 0 0)
(-360.408 0 0)
(-360.985 0 0)
(-361.562 0 0)
(-362.14 0 0)
(-362.717 0 0)
(-363.294 0 0)
(-363.872 0 0)
(-364.449 0 0)
(-365.027 0 0)
(-365.604 0 0)
(-366.181 0 0)
(-366.758 0 0)
(-367.336 0 0)
(-367.913 0 0)
(-368.49 0 0)
(-369.067 0 0)
(-369.644 0 0)
(-370.221 0 0)
(-370.799 0 0)
(-371.376 0 0)
(-371.953 0 0)
(-372.531 0 0)
(-373.108 0 0)
(-373.685 0 0)
(-374.262 0 0)
(-374.839 0 0)
(-375.416 0 0)
(-375.993 0 0)
(-376.57 0 0)
(-377.147 0 0)
(-377.724 0 0)
(-378.301 0 0)
(-378.878 0 0)
(-379.456 0 0)
(-380.033 0 0)
(-380.61 0 0)
(-381.188 0 0)
(-381.765 0 0)
(-382.342 0 0)
(-382.919 0 0)
(-383.496 0 0)
(-384.073 0 0)
(-384.65 0 0)
(-385.226 0 0)
(-385.803 0 0)
(-386.38 0 0)
(-386.957 0 0)
(-387.535 0 0)
(-388.112 0 0)
(-388.689 0 0)
(-389.266 0 0)
(-389.844 0 0)
(-390.42 0 0)
(-390.998 0 0)
(-391.574 0 0)
(-392.152 0 0)
(-392.727 0 0)
(-393.306 0 0)
(-393.88 0 0)
(-394.461 0 0)
(-395.033 0 0)
(-395.616 0 0)
(-396.186 0 0)
(-396.772 0 0)
(-397.339 0 0)
(-397.928 0 0)
(-398.491 0 0)
(-399.083 0 0)
(-399.644 0 0)
(-400.237 0 0)
(-400.798 0 0)
(-401.389 0 0)
(-401.954 0 0)
(-402.538 0 0)
(-403.113 0 0)
(-403.689 0 0)
(-404.267 0 0)
(-404.844 0 0)
(-405.419 0 0)
(-405.996 0 0)
(-406.575 0 0)
(-407.151 0 0)
(-407.728 0 0)
(-408.304 0 0)
(-408.882 0 0)
(-409.459 0 0)
(-410.036 0 0)
(-410.61 0 0)
(-411.195 0 0)
(-411.758 0 0)
(-412.356 0 0)
(-412.903 0 0)
(-413.517 0 0)
(-414.049 0 0)
(-414.675 0 0)
(-415.202 0 0)
(-415.826 0 0)
(-416.362 0 0)
(-416.968 0 0)
(-417.533 0 0)
(-418.102 0 0)
(-418.706 0 0)
(-419.237 0 0)
(-419.875 0 0)
(-420.381 0 0)
(-421.027 0 0)
(-421.544 0 0)
(-422.163 0 0)
(-422.724 0 0)
(-423.286 0 0)
(-423.907 0 0)
(-424.415 0 0)
(-425.074 0 0)
(-425.568 0 0)
(-426.213 0 0)
(-426.751 0 0)
(-427.329 0 0)
(-427.94 0 0)
(-428.451 0 0)
(-429.117 0 0)
(-429.6 0 0)
(-430.254 0 0)
(-430.786 0 0)
(-431.362 0 0)
(-431.986 0 0)
(-432.477 0 0)
(-433.159 0 0)
(-433.64 0 0)
(-434.281 0 0)
(-434.839 0 0)
(-435.381 0 0)
(-436.038 0 0)
(-436.508 0 0)
(-437.189 0 0)
(-437.691 0 0)
(-438.289 0 0)
(-438.903 0 0)
(-439.391 0 0)
(-440.083 0 0)
(-440.552 0 0)
(-441.196 0 0)
(-441.769 0 0)
(-442.284 0 0)
(-442.969 0 0)
(-443.422 0 0)
(-444.096 0 0)
(-444.635 0 0)
(-445.176 0 0)
(-445.852 0 0)
(-446.3 0 0)
(-446.99 0 0)
(-447.506 0 0)
(-448.066 0 0)
(-448.733 0 0)
(-449.18 0 0)
(-449.88 0 0)
(-450.384 0 0)
(-450.953 0 0)
(-451.615 0 0)
(-452.056 0 0)
(-452.764 0 0)
(-453.265 0 0)
(-453.83 0 0)
(-454.501 0 0)
(-454.935 0 0)
(-455.643 0 0)
(-456.152 0 0)
(-456.702 0 0)
(-457.392 0 0)
(-457.818 0 0)
(-458.518 0 0)
(-459.05 0 0)
(-459.567 0 0)
(-460.28 0 0)
(-460.705 0 0)
(-461.382 0 0)
(-461.955 0 0)
(-462.435 0 0)
(-463.165 0 0)
(-463.599 0 0)
(-464.241 0 0)
(-464.86 0 0)
(-465.306 0 0)
(-466.04 0 0)
(-466.504 0 0)
(-467.097 0 0)
(-467.757 0 0)
(-468.184 0 0)
(-468.907 0 0)
(-469.413 0 0)
(-469.952 0 0)
(-470.652 0 0)
(-471.075 0 0)
(-471.761 0 0)
(-472.325 0 0)
(-472.804 0 0)
(-473.537 0 0)
(-473.979 0 0)
(-474.602 0 0)
(-475.246 0 0)
(-475.673 0 0)
(-476.399 0 0)
(-476.903 0 0)
(-477.435 0 0)
(-478.151 0 0)
(-478.566 0 0)
(-479.234 0 0)
(-479.84 0 0)
(-480.281 0 0)
(-481.024 0 0)
(-481.498 0 0)
(-482.052 0 0)
(-482.765 0 0)
(-483.169 0 0)
(-483.851 0 0)
(-484.45 0 0)
(-484.884 0 0)
(-485.637 0 0)
(-486.111 0 0)
(-486.653 0 0)
(-487.381 0 0)
(-487.779 0 0)
(-488.447 0 0)
(-489.077 0 0)
(-489.485 0 0)
(-490.236 0 0)
(-490.742 0 0)
(-491.234 0 0)
(-491.995 0 0)
(-492.405 0 0)
(-493.018 0 0)
(-493.714 0 0)
(-494.093 0 0)
(-494.812 0 0)
(-495.398 0 0)
(-495.814 0 0)
(-496.592 0 0)
(-497.063 0 0)
(-497.573 0 0)
(-498.345 0 0)
(-498.731 0 0)
(-499.357 0 0)
(-500.061 0 0)
(-500.418 0 0)
(-501.149 0 0)
(-501.746 0 0)
(-502.137 0 0)
(-502.931 0 0)
(-503.413 0 0)
(-503.888 0 0)
(-504.688 0 0)
(-505.079 0 0)
(-505.665 0 0)
(-506.415 0 0)
(-506.76 0 0)
(-507.452 0 0)
(-508.112 0 0)
(-508.467 0 0)
(-509.235 0 0)
(-509.792 0 0)
(-510.2 0 0)
(-511.003 0 0)
(-511.466 0 0)
(-511.955 0 0)
(-512.75 0 0)
(-513.143 0 0)
(-513.725 0 0)
(-514.475 0 0)
(-514.832 0 0)
(-515.5 0 0)
(-516.181 0 0)
(-516.538 0 0)
(-517.275 0 0)
(-517.874 0 0)
(-518.262 0 0)
(-519.041 0 0)
(-519.56 0 0)
(-520 0 0)
(-520.795 0 0)
(-521.245 0 0)
(-521.751 0 0)
(-522.536 0 0)
(-522.934 0 0)
(-523.509 0 0)
(-524.265 0 0)
(-524.631 0 0)
(-525.269 0 0)
(-525.984 0 0)
(-526.336 0 0)
(-527.029 0 0)
(-527.695 0 0)
(-528.048 0 0)
(-528.786 0 0)
(-529.403 0 0)
(-529.768 0 0)
(-530.54 0 0)
(-531.108 0 0)
(-531.493 0 0)
(-532.289 0 0)
(-532.813 0 0)
(-533.223 0 0)
(-534.034 0 0)
(-534.517 0 0)
(-534.958 0 0)
(-535.774 0 0)
(-536.223 0 0)
(-536.695 0 0)
(-537.511 0 0)
(-537.93 0 0)
(-538.434 0 0)
(-539.244 0 0)
(-539.638 0 0)
(-540.173 0 0)
(-540.975 0 0)
(-541.349 0 0)
(-541.912 0 0)
(-542.704 0 0)
(-543.062 0 0)
(-543.65 0 0)
(-544.432 0 0)
(-544.777 0 0)
(-545.387 0 0)
(-546.158 0 0)
(-546.493 0 0)
(-547.123 0 0)
(-547.885 0 0)
(-548.212 0 0)
(-548.857 0 0)
(-549.612 0 0)
(-549.932 0 0)
(-550.589 0 0)
(-551.34 0 0)
(-551.653 0 0)
(-552.317 0 0)
(-553.068 0 0)
(-553.376 0 0)
(-554.043 0 0)
(-554.798 0 0)
(-555.101 0 0)
(-555.766 0 0)
(-556.528 0 0)
(-556.828 0 0)
(-557.486 0 0)
(-558.259 0 0)
(-558.557 0 0)
(-559.204 0 0)
(-559.989 0 0)
(-560.289 0 0)
(-560.92 0 0)
(-561.719 0 0)
(-562.023 0 0)
(-562.634 0 0)
(-563.449 0 0)
(-563.76 0 0)
(-564.346 0 0)
(-565.176 0 0)
(-565.5 0 0)
(-566.056 0 0)
(-566.901 0 0)
(-567.244 0 0)
(-567.766 0 0)
(-568.623 0 0)
(-568.991 0 0)
(-569.476 0 0)
(-570.342 0 0)
(-570.74 0 0)
(-571.187 0 0)
(-572.056 0 0)
(-572.491 0 0)
(-572.901 0 0)
(-573.765 0 0)
(-574.244 0 0)
(-574.619 0 0)
(-575.471 0 0)
(-575.996 0 0)
(-576.341 0 0)
(-577.172 0 0)
(-577.747 0 0)
(-578.069 0 0)
(-578.868 0 0)
(-579.498 0 0)
(-579.802 0 0)
(-580.561 0 0)
(-581.245 0 0)
(-581.543 0 0)
(-582.251 0 0)
(-582.987 0 0)
(-583.29 0 0)
(-583.941 0 0)
(-584.722 0 0)
(-585.044 0 0)
(-585.631 0 0)
(-586.45 0 0)
(-586.804 0 0)
(-587.323 0 0)
(-588.166 0 0)
(-588.57 0 0)
(-589.022 0 0)
(-589.871 0 0)
(-590.34 0 0)
(-590.729 0 0)
(-591.565 0 0)
(-592.11 0 0)
(-592.448 0 0)
(-593.248 0 0)
(-593.877 0 0)
(-594.181 0 0)
(-594.923 0 0)
(-595.635 0 0)
(-595.93 0 0)
(-596.594 0 0)
(-597.379 0 0)
(-597.696 0 0)
(-598.266 0 0)
(-599.105 0 0)
(-599.476 0 0)
(-599.947 0 0)
(-600.809 0 0)
(-601.264 0 0)
(-601.644 0 0)
(-602.491 0 0)
(-603.052 0 0)
(-603.364 0 0)
(-604.155 0 0)
(-604.83 0 0)
(-605.11 0 0)
(-605.809 0 0)
(-606.586 0 0)
(-606.882 0 0)
(-607.464 0 0)
(-608.312 0 0)
(-608.676 0 0)
(-609.135 0 0)
(-610.006 0 0)
(-610.478 0 0)
(-610.832 0 0)
(-611.671 0 0)
(-612.275 0 0)
(-612.563 0 0)
(-613.317 0 0)
(-614.05 0 0)
(-614.33 0 0)
(-614.96 0 0)
(-615.79 0 0)
(-616.126 0 0)
(-616.618 0 0)
(-617.489 0 0)
(-617.936 0 0)
(-618.307 0 0)
(-619.151 0 0)
(-619.742 0 0)
(-620.037 0 0)
(-620.789 0 0)
(-621.522 0 0)
(-621.809 0 0)
(-622.425 0 0)
(-623.26 0 0)
(-623.612 0 0)
(-624.082 0 0)
(-624.949 0 0)
(-625.427 0 0)
(-625.779 0 0)
(-626.599 0 0)
(-627.23 0 0)
(-627.523 0 0)
(-628.228 0 0)
(-628.998 0 0)
(-629.311 0 0)
(-629.865 0 0)
(-630.716 0 0)
(-631.126 0 0)
(-631.534 0 0)
(-632.383 0 0)
(-632.942 0 0)
(-633.256 0 0)
(-634.014 0 0)
(-634.731 0 0)
(-635.031 0 0)
(-635.639 0 0)
(-636.468 0 0)
(-636.846 0 0)
(-637.29 0 0)
(-638.147 0 0)
(-638.671 0 0)
(-638.997 0 0)
(-639.778 0 0)
(-640.471 0 0)
(-640.767 0 0)
(-641.394 0 0)
(-642.216 0 0)
(-642.586 0 0)
(-643.036 0 0)
(-643.894 0 0)
(-644.419 0 0)
(-644.74 0 0)
(-645.518 0 0)
(-646.221 0 0)
(-646.517 0 0)
(-647.127 0 0)
(-647.959 0 0)
(-648.347 0 0)
(-648.771 0 0)
(-649.622 0 0)
(-650.184 0 0)
(-650.489 0 0)
(-651.233 0 0)
(-651.977 0 0)
(-652.286 0 0)
(-652.843 0 0)
(-653.691 0 0)
(-654.13 0 0)
(-654.506 0 0)
(-655.328 0 0)
(-655.961 0 0)
(-656.255 0 0)
(-656.929 0 0)
(-657.726 0 0)
(-658.079 0 0)
(-658.554 0 0)
(-659.401 0 0)
(-659.928 0 0)
(-660.255 0 0)
(-661.011 0 0)
(-661.734 0 0)
(-662.045 0 0)
(-662.615 0 0)
(-663.452 0 0)
(-663.891 0 0)
(-664.277 0 0)
(-665.083 0 0)
(-665.725 0 0)
(-666.031 0 0)
(-666.678 0 0)
(-667.483 0 0)
(-667.864 0 0)
(-668.31 0 0)
(-669.141 0 0)
(-669.711 0 0)
(-670.033 0 0)
(-670.737 0 0)
(-671.499 0 0)
(-671.848 0 0)
(-672.347 0 0)
(-673.184 0 0)
(-673.702 0 0)
(-674.044 0 0)
(-674.787 0 0)
(-675.51 0 0)
(-675.845 0 0)
(-676.386 0 0)
(-677.215 0 0)
(-677.699 0 0)
(-678.063 0 0)
(-678.828 0 0)
(-679.518 0 0)
(-679.85 0 0)
(-680.421 0 0)
(-681.238 0 0)
(-681.702 0 0)
(-682.085 0 0)
(-682.858 0 0)
(-683.529 0 0)
(-683.861 0 0)
(-684.451 0 0)
(-685.256 0 0)
(-685.711 0 0)
(-686.108 0 0)
(-686.881 0 0)
(-687.542 0 0)
(-687.877 0 0)
(-688.474 0 0)
(-689.274 0 0)
(-689.726 0 0)
(-690.129 0 0)
(-690.898 0 0)
(-691.56 0 0)
(-691.899 0 0)
(-692.487 0 0)
(-693.289 0 0)
(-693.751 0 0)
(-694.146 0 0)
(-694.906 0 0)
(-695.582 0 0)
(-695.927 0 0)
(-696.494 0 0)
(-697.3 0 0)
(-697.784 0 0)
(-698.164 0 0)
(-698.905 0 0)
(-699.606 0 0)
(-699.963 0 0)
(-700.495 0 0)
(-701.303 0 0)
(-701.826 0 0)
(-702.187 0 0)
(-702.895 0 0)
(-703.627 0 0)
(-704.009 0 0)
(-704.498 0 0)
(-705.294 0 0)
(-705.868 0 0)
(-706.22 0 0)
(-706.879 0 0)
(-707.639 0 0)
(-708.06 0 0)
(-708.506 0 0)
(-709.277 0 0)
(-709.907 0 0)
(-710.264 0 0)
(-710.862 0 0)
(-711.641 0 0)
(-712.116 0 0)
(-712.524 0 0)
(-713.254 0 0)
(-713.937 0 0)
(-714.316 0 0)
(-714.851 0 0)
(-715.631 0 0)
(-716.17 0 0)
(-716.552 0 0)
(-717.227 0 0)
(-717.955 0 0)
(-718.376 0 0)
(-718.847 0 0)
(-719.61 0 0)
(-720.219 0 0)
(-720.594 0 0)
(-721.199 0 0)
(-721.959 0 0)
(-722.441 0 0)
(-722.858 0 0)
(-723.576 0 0)
(-724.258 0 0)
(-724.652 0 0)
(-725.177 0 0)
(-725.944 0 0)
(-726.506 0 0)
(-726.889 0 0)
(-727.534 0 0)
(-728.276 0 0)
(-728.725 0 0)
(-729.17 0 0)
(-729.906 0 0)
(-730.56 0 0)
(-730.947 0 0)
(-731.495 0 0)
(-732.264 0 0)
(-732.804 0 0)
(-733.194 0 0)
(-733.853 0 0)
(-734.584 0 0)
(-735.029 0 0)
(-735.48 0 0)
(-736.217 0 0)
(-736.866 0 0)
(-737.256 0 0)
(-737.806 0 0)
(-738.566 0 0)
(-739.115 0 0)
(-739.508 0 0)
(-740.155 0 0)
(-740.888 0 0)
(-741.346 0 0)
(-741.793 0 0)
(-742.511 0 0)
(-743.173 0 0)
(-743.581 0 0)
(-744.109 0 0)
(-744.858 0 0)
(-745.431 0 0)
(-745.833 0 0)
(-746.449 0 0)
(-747.18 0 0)
(-747.673 0 0)
(-748.11 0 0)
(-748.798 0 0)
(-749.475 0 0)
(-749.912 0 0)
(-750.416 0 0)
(-751.141 0 0)
(-751.746 0 0)
(-752.162 0 0)
(-752.743 0 0)
(-753.469 0 0)
(-753.998 0 0)
(-754.431 0 0)
(-755.081 0 0)
(-755.775 0 0)
(-756.243 0 0)
(-756.722 0 0)
(-757.421 0 0)
(-758.059 0 0)
(-758.493 0 0)
(-759.032 0 0)
(-759.753 0 0)
(-760.327 0 0)
(-760.753 0 0)
(-761.358 0 0)
(-762.071 0 0)
(-762.584 0 0)
(-763.028 0 0)
(-763.689 0 0)
(-764.374 0 0)
(-764.836 0 0)
(-765.321 0 0)
(-766.021 0 0)
(-766.66 0 0)
(-767.093 0 0)
(-767.627 0 0)
(-768.347 0 0)
(-768.932 0 0)
(-769.359 0 0)
(-769.944 0 0)
(-770.661 0 0)
(-771.198 0 0)
(-771.634 0 0)
(-772.267 0 0)
(-772.964 0 0)
(-773.459 0 0)
(-773.922 0 0)
(-774.59 0 0)
(-775.256 0 0)
(-775.72 0 0)
(-776.221 0 0)
(-776.91 0 0)
(-777.536 0 0)
(-777.987 0 0)
(-778.528 0 0)
(-779.225 0 0)
(-779.809 0 0)
(-780.261 0 0)
(-780.841 0 0)
(-781.532 0 0)
(-782.079 0 0)
(-782.541 0 0)
(-783.158 0 0)
(-783.831 0 0)
(-784.346 0 0)
(-784.83 0 0)
(-785.475 0 0)
(-786.124 0 0)
(-786.613 0 0)
(-787.126 0 0)
(-787.79 0 0)
(-788.409 0 0)
(-788.884 0 0)
(-789.426 0 0)
(-790.102 0 0)
(-790.69 0 0)
(-791.158 0 0)
(-791.73 0 0)
(-792.409 0 0)
(-792.969 0 0)
(-793.436 0 0)
(-794.036 0 0)
(-794.711 0 0)
(-795.246 0 0)
(-795.719 0 0)
(-796.341 0 0)
(-797.009 0 0)
(-797.522 0 0)
(-798.007 0 0)
(-798.647 0 0)
(-799.301 0 0)
(-799.799 0 0)
(-800.298 0 0)
(-800.953 0 0)
(-801.59 0 0)
(-802.078 0 0)
(-802.593 0 0)
(-803.255 0 0)
(-803.877 0 0)
(-804.357 0 0)
(-804.891 0 0)
(-805.557 0 0)
(-806.161 0 0)
(-806.64 0 0)
(-807.19 0 0)
(-807.857 0 0)
(-808.443 0 0)
(-808.923 0 0)
(-809.49 0 0)
(-810.154 0 0)
(-810.725 0 0)
(-811.208 0 0)
(-811.791 0 0)
(-812.45 0 0)
(-813.006 0 0)
(-813.495 0 0)
(-814.091 0 0)
(-814.745 0 0)
(-815.287 0 0)
(-815.783 0 0)
(-816.391 0 0)
(-817.037 0 0)
(-817.569 0 0)
(-818.071 0 0)
(-818.69 0 0)
(-819.329 0 0)
(-819.852 0 0)
(-820.36 0 0)
(-820.987 0 0)
(-821.621 0 0)
(-822.135 0 0)
(-822.65 0 0)
(-823.283 0 0)
(-823.912 0 0)
(-824.42 0 0)
(-824.94 0 0)
(-825.579 0 0)
(-826.202 0 0)
(-826.706 0 0)
(-827.23 0 0)
(-827.873 0 0)
(-828.492 0 0)
(-828.993 0 0)
(-829.521 0 0)
(-830.165 0 0)
(-830.782 0 0)
(-831.282 0 0)
(-831.812 0 0)
(-832.456 0 0)
(-833.071 0 0)
(-833.572 0 0)
(-834.103 0 0)
(-834.747 0 0)
(-835.359 0 0)
(-835.862 0 0)
(-836.395 0 0)
(-837.035 0 0)
(-837.647 0 0)
(-838.152 0 0)
(-838.687 0 0)
(-839.324 0 0)
(-839.933 0 0)
(-840.442 0 0)
(-840.979 0 0)
(-841.614 0 0)
(-842.219 0 0)
(-842.732 0 0)
(-843.272 0 0)
(-843.903 0 0)
(-844.507 0 0)
(-845.021 0 0)
(-845.564 0 0)
(-846.193 0 0)
(-846.795 0 0)
(-847.31 0 0)
(-847.854 0 0)
(-848.483 0 0)
(-849.083 0 0)
(-849.6 0 0)
(-850.144 0 0)
(-850.772 0 0)
(-851.373 0 0)
(-851.89 0 0)
(-852.433 0 0)
(-853.06 0 0)
(-853.663 0 0)
(-854.181 0 0)
(-854.721 0 0)
(-855.347 0 0)
(-855.953 0 0)
(-856.473 0 0)
(-857.009 0 0)
(-857.633 0 0)
(-858.243 0 0)
(-858.765 0 0)
(-859.297 0 0)
(-859.917 0 0)
(-860.532 0 0)
(-861.059 0 0)
(-861.587 0 0)
(-862.2 0 0)
(-862.82 0 0)
(-863.353 0 0)
(-863.877 0 0)
(-864.484 0 0)
(-865.106 0 0)
(-865.648 0 0)
(-866.168 0 0)
(-866.767 0 0)
(-867.391 0 0)
(-867.941 0 0)
(-868.461 0 0)
(-869.052 0 0)
(-869.676 0 0)
(-870.232 0 0)
(-870.754 0 0)
(-871.338 0 0)
(-871.96 0 0)
(-872.523 0 0)
(-873.046 0 0)
(-873.625 0 0)
(-874.245 0 0)
(-874.813 0 0)
(-875.338 0 0)
(-875.912 0 0)
(-876.531 0 0)
(-877.103 0 0)
(-877.628 0 0)
(-878.197 0 0)
(-878.817 0 0)
(-879.396 0 0)
(-879.919 0 0)
(-880.481 0 0)
(-881.101 0 0)
(-881.688 0 0)
(-882.213 0 0)
(-882.765 0 0)
(-883.383 0 0)
(-883.979 0 0)
(-884.508 0 0)
(-885.05 0 0)
(-885.663 0 0)
(-886.269 0 0)
(-886.804 0 0)
(-887.338 0 0)
(-887.941 0 0)
(-888.556 0 0)
(-889.101 0 0)
(-889.629 0 0)
(-890.22 0 0)
(-890.839 0 0)
(-891.398 0 0)
(-891.922 0 0)
(-892.501 0 0)
(-893.119 0 0)
(-893.691 0 0)
(-894.217 0 0)
(-894.785 0 0)
(-895.4 0 0)
(-895.981 0 0)
(-896.512 0 0)
(-897.071 0 0)
(-897.681 0 0)
(-898.269 0 0)
(-898.806 0 0)
(-899.358 0 0)
(-899.961 0 0)
(-900.557 0 0)
(-901.1 0 0)
(-901.645 0 0)
(-902.243 0 0)
(-902.844 0 0)
(-903.394 0 0)
(-903.933 0 0)
(-904.524 0 0)
(-905.129 0 0)
(-905.688 0 0)
(-906.223 0 0)
(-906.804 0 0)
(-907.413 0 0)
(-907.981 0 0)
(-908.515 0 0)
(-909.085 0 0)
(-909.695 0 0)
(-910.274 0 0)
(-910.809 0 0)
(-911.367 0 0)
(-911.974 0 0)
(-912.565 0 0)
(-913.104 0 0)
(-913.652 0 0)
(-914.252 0 0)
(-914.852 0 0)
(-915.401 0 0)
(-915.94 0 0)
(-916.529 0 0)
(-917.135 0 0)
(-917.697 0 0)
(-918.232 0 0)
(-918.808 0 0)
(-919.416 0 0)
(-919.99 0 0)
(-920.526 0 0)
(-921.09 0 0)
(-921.695 0 0)
(-922.28 0 0)
(-922.822 0 0)
(-923.375 0 0)
(-923.972 0 0)
(-924.567 0 0)
(-925.117 0 0)
(-925.663 0 0)
(-926.25 0 0)
(-926.85 0 0)
(-927.411 0 0)
(-927.954 0 0)
(-928.531 0 0)
(-929.132 0 0)
(-929.703 0 0)
(-930.245 0 0)
(-930.813 0 0)
(-931.413 0 0)
(-931.993 0 0)
(-932.538 0 0)
(-933.096 0 0)
(-933.692 0 0)
(-934.282 0 0)
(-934.832 0 0)
(-935.381 0 0)
(-935.97 0 0)
(-936.568 0 0)
(-937.127 0 0)
(-937.67 0 0)
(-938.247 0 0)
(-938.85 0 0)
(-939.421 0 0)
(-939.962 0 0)
(-940.526 0 0)
(-941.127 0 0)
(-941.713 0 0)
(-942.258 0 0)
(-942.809 0 0)
(-943.402 0 0)
(-943.999 0 0)
(-944.556 0 0)
(-945.099 0 0)
(-945.678 0 0)
(-946.278 0 0)
(-946.85 0 0)
(-947.393 0 0)
(-947.958 0 0)
(-948.555 0 0)
(-949.139 0 0)
(-949.689 0 0)
(-950.244 0 0)
(-950.832 0 0)
(-951.422 0 0)
(-951.982 0 0)
(-952.533 0 0)
(-953.111 0 0)
(-953.704 0 0)
(-954.273 0 0)
(-954.823 0 0)
(-955.393 0 0)
(-955.985 0 0)
(-956.562 0 0)
(-957.113 0 0)
(-957.676 0 0)
(-958.265 0 0)
(-958.85 0 0)
(-959.405 0 0)
(-959.959 0 0)
(-960.544 0 0)
(-961.136 0 0)
(-961.699 0 0)
(-962.246 0 0)
(-962.82 0 0)
(-963.417 0 0)
(-963.993 0 0)
(-964.54 0 0)
(-965.099 0 0)
(-965.692 0 0)
(-966.282 0 0)
(-966.838 0 0)
(-967.385 0 0)
(-967.965 0 0)
(-968.562 0 0)
(-969.134 0 0)
(-969.679 0 0)
(-970.243 0 0)
(-970.836 0 0)
(-971.422 0 0)
(-971.977 0 0)
(-972.529 0 0)
(-973.111 0 0)
(-973.702 0 0)
(-974.269 0 0)
(-974.821 0 0)
(-975.391 0 0)
(-975.98 0 0)
(-976.556 0 0)
(-977.113 0 0)
(-977.676 0 0)
(-978.26 0 0)
(-978.841 0 0)
(-979.402 0 0)
(-979.961 0 0)
(-980.541 0 0)
(-981.126 0 0)
(-981.691 0 0)
(-982.246 0 0)
(-982.82 0 0)
(-983.409 0 0)
(-983.983 0 0)
(-984.535 0 0)
(-985.099 0 0)
(-985.687 0 0)
(-986.273 0 0)
(-986.831 0 0)
(-987.382 0 0)
(-987.96 0 0)
(-988.554 0 0)
(-989.127 0 0)
(-989.675 0 0)
(-990.237 0 0)
(-990.827 0 0)
(-991.414 0 0)
(-991.973 0 0)
(-992.524 0 0)
(-993.1 0 0)
(-993.692 0 0)
(-994.266 0 0)
(-994.819 0 0)
(-995.381 0 0)
(-995.967 0 0)
(-996.551 0 0)
(-997.113 0 0)
(-997.669 0 0)
(-998.245 0 0)
(-998.83 0 0)
(-999.401 0 0)
(-999.96 0 0)
(-1000.53 0 0)
(-1001.11 0 0)
(-1001.69 0 0)
(-1002.25 0 0)
(-1002.81 0 0)
(-1003.39 0 0)
(-1003.97 0 0)
(-1004.54 0 0)
(-1005.1 0 0)
(-1005.67 0 0)
(-1006.26 0 0)
(-1006.83 0 0)
(-1007.38 0 0)
(-1007.95 0 0)
(-1008.53 0 0)
(-1009.12 0 0)
(-1009.68 0 0)
(-1010.23 0 0)
(-1010.81 0 0)
(-1011.4 0 0)
(-1011.97 0 0)
(-1012.52 0 0)
(-1013.09 0 0)
(-1013.67 0 0)
(-1014.26 0 0)
(-1014.82 0 0)
(-1015.37 0 0)
(-1015.94 0 0)
(-1016.53 0 0)
(-1017.11 0 0)
(-1017.67 0 0)
(-1018.23 0 0)
(-1018.81 0 0)
(-1019.39 0 0)
(-1019.96 0 0)
(-1020.52 0 0)
(-1021.09 0 0)
(-1021.67 0 0)
(-1022.25 0 0)
(-1022.81 0 0)
(-1023.37 0 0)
(-1023.95 0 0)
(-1024.53 0 0)
(-1025.1 0 0)
(-1025.66 0 0)
(-1026.23 0 0)
(-1026.81 0 0)
(-1027.38 0 0)
(-1027.94 0 0)
(-1028.51 0 0)
(-1029.09 0 0)
(-1029.67 0 0)
(-1030.23 0 0)
(-1030.79 0 0)
(-1031.37 0 0)
(-1031.95 0 0)
(-1032.52 0 0)
(-1033.08 0 0)
(-1033.65 0 0)
(-1034.23 0 0)
(-1034.81 0 0)
(-1035.38 0 0)
(-1035.93 0 0)
(-1036.5 0 0)
(-1037.09 0 0)
(-1037.67 0 0)
(-1038.23 0 0)
(-1038.79 0 0)
(-1039.36 0 0)
(-1039.95 0 0)
(-1040.52 0 0)
(-1041.08 0 0)
(-1041.64 0 0)
(-1042.22 0 0)
(-1042.8 0 0)
(-1043.37 0 0)
(-1043.93 0 0)
(-1044.5 0 0)
(-1045.08 0 0)
(-1045.66 0 0)
(-1046.22 0 0)
(-1046.78 0 0)
(-1047.36 0 0)
(-1047.94 0 0)
(-1048.51 0 0)
(-1049.07 0 0)
(-1049.64 0 0)
(-1050.22 0 0)
(-1050.79 0 0)
(-1051.36 0 0)
(-1051.92 0 0)
(-1052.5 0 0)
(-1053.08 0 0)
(-1053.64 0 0)
(-1054.21 0 0)
(-1054.78 0 0)
(-1055.36 0 0)
(-1055.93 0 0)
(-1056.5 0 0)
(-1057.06 0 0)
(-1057.64 0 0)
(-1058.22 0 0)
(-1058.79 0 0)
(-1059.35 0 0)
(-1059.91 0 0)
(-1060.49 0 0)
(-1061.07 0 0)
(-1061.64 0 0)
(-1062.2 0 0)
(-1062.77 0 0)
(-1063.35 0 0)
(-1063.93 0 0)
(-1064.49 0 0)
(-1065.05 0 0)
(-1065.63 0 0)
(-1066.21 0 0)
(-1066.78 0 0)
(-1067.34 0 0)
(-1067.91 0 0)
(-1068.49 0 0)
(-1069.06 0 0)
(-1069.63 0 0)
(-1070.2 0 0)
(-1070.77 0 0)
(-1071.35 0 0)
(-1071.92 0 0)
(-1072.48 0 0)
(-1073.05 0 0)
(-1073.63 0 0)
(-1074.2 0 0)
(-1074.77 0 0)
(-1075.33 0 0)
(-1075.9 0 0)
(-1076.48 0 0)
(-1077.06 0 0)
(-1077.62 0 0)
(-1078.19 0 0)
(-1078.76 0 0)
(-1079.34 0 0)
(-1079.91 0 0)
(-1080.47 0 0)
(-1081.04 0 0)
(-1081.62 0 0)
(-1082.2 0 0)
(-1082.77 0 0)
(-1083.33 0 0)
(-1083.9 0 0)
(-1084.47 0 0)
(-1085.05 0 0)
(-1085.62 0 0)
(-1086.18 0 0)
(-1086.75 0 0)
(-1087.33 0 0)
(-1087.9 0 0)
(-1088.47 0 0)
(-1089.04 0 0)
(-1089.61 0 0)
(-1090.19 0 0)
(-1090.76 0 0)
(-1091.32 0 0)
(-1091.89 0 0)
(-1092.47 0 0)
(-1093.04 0 0)
(-1093.61 0 0)
(-1094.18 0 0)
(-1094.75 0 0)
(-1095.33 0 0)
(-1095.9 0 0)
(-1096.46 0 0)
(-1097.03 0 0)
(-1097.61 0 0)
(-1098.18 0 0)
(-1098.75 0 0)
(-1099.32 0 0)
(-1099.88 0 0)
(-1100.46 0 0)
(-1101.04 0 0)
(-1101.61 0 0)
(-1102.17 0 0)
(-1102.74 0 0)
(-1103.32 0 0)
(-1103.89 0 0)
(-1104.46 0 0)
(-1105.02 0 0)
(-1105.6 0 0)
(-1106.17 0 0)
(-1106.75 0 0)
(-1107.31 0 0)
(-1107.88 0 0)
(-1108.45 0 0)
(-1109.03 0 0)
(-1109.6 0 0)
(-1110.17 0 0)
(-1110.74 0 0)
(-1111.31 0 0)
(-1111.88 0 0)
(-1112.45 0 0)
(-1113.02 0 0)
(-1113.59 0 0)
(-1114.17 0 0)
(-1114.74 0 0)
(-1115.31 0 0)
(-1115.88 0 0)
(-1116.45 0 0)
(-1117.03 0 0)
(-1117.6 0 0)
(-1118.16 0 0)
(-1118.73 0 0)
(-1119.31 0 0)
(-1119.88 0 0)
(-1120.45 0 0)
(-1121.02 0 0)
(-1121.58 0 0)
(-1122.16 0 0)
(-1122.74 0 0)
(-1123.31 0 0)
(-1123.87 0 0)
(-1124.44 0 0)
(-1125.02 0 0)
(-1125.59 0 0)
(-1126.16 0 0)
(-1126.73 0 0)
(-1127.3 0 0)
(-1127.87 0 0)
(-1128.45 0 0)
(-1129.02 0 0)
(-1129.58 0 0)
(-1130.16 0 0)
(-1130.73 0 0)
(-1131.3 0 0)
(-1131.87 0 0)
(-1132.44 0 0)
(-1133.01 0 0)
(-1133.59 0 0)
(-1134.16 0 0)
(-1134.72 0 0)
(-1135.3 0 0)
(-1135.87 0 0)
(-1136.44 0 0)
(-1137.01 0 0)
(-1137.58 0 0)
(-1138.15 0 0)
(-1138.73 0 0)
(-1139.3 0 0)
(-1139.87 0 0)
(-1140.43 0 0)