/*--------------------------------*- C++ -*----------------------------------*\
  =========                 |
  \\      /  F ield         | OpenFOAM: The Open Source CFD Toolbox
   \\    /   O peration     | Website:  https://openfoam.org
    \\  /    A nd           | Version:  9
     \\/     M anipulation  |
\*---------------------------------------------------------------------------*/
FoamFile
{
    format      ascii;
    class       volScalarField;
    location    "0.036";
    object      ddt0(p);
}
// * * * * * * * * * * * * * * * * * * * * * * * * * * * * * * * * * * * * * //

dimensions      [1 -1 -3 0 0 0 0];

internalField   nonuniform List<scalar> 
10000
(
-672921
-672914
-672908
-672902
-672897
-672891
-672885
-672880
-672875
-672869
-672864
-672859
-672853
-672848
-672842
-672837
-672831
-672826
-672820
-672815
-672810
-672805
-672799
-672794
-672789
-672783
-672778
-672772
-672766
-672761
-672755
-672749
-672744
-672738
-672733
-672728
-672722
-672717
-672711
-672706
-672700
-672695
-672689
-672683
-672678
-672673
-672667
-672662
-672657
-672651
-672646
-672640
-672634
-672629
-672623
-672617
-672612
-672606
-672601
-672595
-672589
-672584
-672578
-672573
-672567
-672562
-672556
-672550
-672545
-672539
-672534
-672528
-672523
-672518
-672512
-672507
-672501
-672495
-672489
-672483
-672478
-672472
-672467
-672461
-672455
-672450
-672444
-672438
-672433
-672427
-672421
-672416
-672410
-672405
-672399
-672393
-672388
-672382
-672377
-672371
-672366
-672360
-672353
-672348
-672342
-672337
-672331
-672326
-672320
-672314
-672308
-672303
-672297
-672291
-672286
-672280
-672274
-672268
-672263
-672257
-672251
-672246
-672240
-672235
-672229
-672222
-672216
-672210
-672205
-672200
-672194
-672188
-672183
-672177
-672171
-672166
-672159
-672154
-672148
-672142
-672136
-672130
-672125
-672119
-672113
-672107
-672101
-672096
-672089
-672084
-672078
-672072
-672067
-672060
-672055
-672050
-672044
-672037
-672032
-672027
-672021
-672015
-672008
-672002
-671996
-671990
-671984
-671979
-671973
-671967
-671961
-671955
-671950
-671944
-671938
-671932
-671926
-671920
-671914
-671908
-671902
-671897
-671891
-671885
-671879
-671873
-671867
-671861
-671855
-671849
-671843
-671837
-671831
-671825
-671820
-671814
-671808
-671802
-671796
-671790
-671784
-671778
-671772
-671766
-671760
-671754
-671748
-671742
-671736
-671730
-671724
-671718
-671712
-671706
-671700
-671694
-671688
-671682
-671676
-671670
-671664
-671658
-671652
-671646
-671640
-671634
-671628
-671622
-671616
-671610
-671604
-671598
-671592
-671585
-671579
-671573
-671567
-671561
-671555
-671549
-671543
-671537
-671531
-671525
-671519
-671513
-671507
-671501
-671495
-671488
-671482
-671476
-671470
-671464
-671458
-671452
-671446
-671440
-671433
-671427
-671421
-671414
-671408
-671402
-671396
-671390
-671384
-671378
-671372
-671366
-671360
-671354
-671348
-671341
-671335
-671329
-671323
-671317
-671311
-671305
-671298
-671292
-671286
-671279
-671273
-671267
-671260
-671254
-671248
-671242
-671235
-671229
-671223
-671217
-671211
-671205
-671199
-671192
-671186
-671180
-671174
-671168
-671161
-671155
-671149
-671143
-671136
-671130
-671124
-671117
-671111
-671105
-671098
-671092
-671086
-671079
-671073
-671067
-671060
-671054
-671048
-671042
-671035
-671029
-671023
-671017
-671010
-671004
-670998
-670992
-670985
-670979
-670973
-670966
-670960
-670953
-670947
-670940
-670934
-670928
-670921
-670915
-670909
-670902
-670896
-670889
-670883
-670877
-670870
-670864
-670858
-670851
-670845
-670839
-670832
-670826
-670820
-670813
-670807
-670800
-670794
-670787
-670781
-670774
-670768
-670761
-670755
-670749
-670742
-670736
-670729
-670723
-670716
-670710
-670703
-670697
-670691
-670684
-670678
-670671
-670665
-670658
-670652
-670646
-670639
-670632
-670626
-670619
-670613
-670606
-670600
-670593
-670587
-670580
-670574
-670567
-670561
-670554
-670548
-670541
-670535
-670528
-670522
-670515
-670509
-670502
-670495
-670489
-670482
-670476
-670469
-670463
-670456
-670449
-670443
-670436
-670430
-670423
-670417
-670410
-670403
-670397
-670390
-670384
-670377
-670370
-670364
-670357
-670351
-670344
-670337
-670331
-670324
-670318
-670311
-670304
-670297
-670291
-670284
-670277
-670271
-670264
-670258
-670251
-670244
-670238
-670231
-670224
-670218
-670211
-670204
-670198
-670191
-670184
-670178
-670171
-670164
-670158
-670151
-670144
-670137
-670131
-670124
-670117
-670110
-670104
-670097
-670090
-670083
-670077
-670070
-670063
-670057
-670050
-670043
-670036
-670030
-670023
-670016
-670010
-670003
-669996
-669989
-669983
-669976
-669969
-669962
-669955
-669948
-669942
-669935
-669928
-669921
-669914
-669907
-669900
-669894
-669887
-669880
-669873
-669866
-669860
-669853
-669846
-669839
-669833
-669826
-669819
-669812
-669805
-669799
-669792
-669785
-669778
-669771
-669764
-669757
-669750
-669743
-669736
-669729
-669722
-669715
-669709
-669702
-669695
-669688
-669681
-669674
-669667
-669660
-669653
-669647
-669640
-669633
-669626
-669619
-669612
-669605
-669598
-669591
-669584
-669577
-669570
-669563
-669556
-669549
-669542
-669535
-669528
-669521
-669514
-669507
-669500
-669493
-669486
-669479
-669472
-669465
-669458
-669451
-669445
-669438
-669431
-669424
-669417
-669410
-669403
-669396
-669389
-669382
-669374
-669367
-669360
-669353
-669346
-669339
-669332
-669325
-669318
-669311
-669304
-669297
-669289
-669282
-669275
-669268
-669261
-669254
-669247
-669240
-669233
-669226
-669219
-669212
-669205
-669198
-669190
-669183
-669176
-669169
-669162
-669155
-669147
-669140
-669133
-669126
-669119
-669112
-669105
-669097
-669090
-669083
-669076
-669069
-669061
-669054
-669047
-669040
-669033
-669026
-669019
-669011
-669004
-668997
-668990
-668983
-668975
-668968
-668961
-668954
-668946
-668939
-668932
-668925
-668918
-668910
-668903
-668896
-668889
-668881
-668874
-668867
-668859
-668852
-668845
-668838
-668830
-668823
-668816
-668809
-668801
-668794
-668787
-668780
-668772
-668765
-668757
-668750
-668743
-668736
-668728
-668721
-668714
-668706
-668699
-668692
-668685
-668677
-668670
-668662
-668655
-668648
-668640
-668633
-668626
-668618
-668611
-668604
-668596
-668589
-668582
-668574
-668567
-668559
-668552
-668544
-668537
-668530
-668522
-668515
-668508
-668500
-668493
-668485
-668478
-668471
-668463
-668456
-668448
-668441
-668433
-668426
-668418
-668411
-668404
-668396
-668389
-668381
-668374
-668366
-668359
-668351
-668344
-668336
-668329
-668321
-668314
-668306
-668299
-668292
-668283
-668275
-668270
-668261
-668255
-668247
-668239
-668231
-668224
-668217
-668209
-668201
-668194
-668186
-668178
-668171
-668164
-668156
-668149
-668141
-668133
-668126
-668117
-668110
-668103
-668095
-668088
-668080
-668072
-668065
-668057
-668049
-668043
-668035
-668027
-668019
-668012
-668005
-667996
-667990
-667982
-667973
-667966
-667958
-667951
-667943
-667936
-667928
-667920
-667912
-667905
-667897
-667889
-667882
-667874
-667866
-667859
-667851
-667844
-667837
-667827
-667821
-667813
-667805
-667798
-667790
-667782
-667775
-667767
-667758
-667752
-667743
-667736
-667728
-667720
-667714
-667705
-667697
-667690
-667682
-667673
-667665
-667658
-667651
-667643
-667635
-667627
-667619
-667611
-667604
-667596
-667588
-667580
-667573
-667565
-667557
-667549
-667542
-667534
-667526
-667518
-667510
-667502
-667495
-667487
-667479
-667471
-667463
-667456
-667448
-667440
-667432
-667424
-667416
-667408
-667400
-667392
-667385
-667377
-667369
-667361
-667353
-667345
-667337
-667330
-667322
-667314
-667306
-667298
-667290
-667282
-667274
-667266
-667258
-667250
-667242
-667234
-667227
-667219
-667211
-667203
-667195
-667187
-667179
-667171
-667163
-667155
-667147
-667139
-667131
-667123
-667115
-667107
-667099
-667091
-667083
-667075
-667067
-667059
-667051
-667043
-667035
-667027
-667019
-667011
-667003
-666995
-666987
-666979
-666971
-666963
-666955
-666947
-666939
-666931
-666923
-666915
-666907
-666898
-666890
-666882
-666874
-666866
-666858
-666850
-666842
-666834
-666826
-666818
-666810
-666801
-666793
-666785
-666777
-666769
-666761
-666753
-666745
-666736
-666728
-666720
-666712
-666704
-666696
-666688
-666679
-666671
-666663
-666655
-666647
-666639
-666630
-666622
-666614
-666606
-666598
-666589
-666581
-666573
-666565
-666556
-666548
-666540
-666532
-666524
-666515
-666507
-666499
-666491
-666482
-666474
-666466
-666458
-666450
-666441
-666433
-666425
-666417
-666408
-666400
-666392
-666383
-666375
-666367
-666359
-666350
-666342
-666334
-666325
-666317
-666309
-666300
-666292
-666284
-666275
-666267
-666259
-666250
-666242
-666234
-666225
-666217
-666209
-666200
-666192
-666184
-666175
-666167
-666159
-666150
-666142
-666134
-666125
-666117
-666108
-666100
-666092
-666083
-666075
-666066
-666058
-666049
-666041
-666033
-666024
-666016
-666007
-665999
-665990
-665982
-665973
-665965
-665957
-665948
-665940
-665931
-665923
-665914
-665906
-665897
-665889
-665881
-665872
-665863
-665855
-665847
-665838
-665830
-665821
-665813
-665804
-665796
-665787
-665778
-665770
-665761
-665753
-665744
-665736
-665727
-665719
-665710
-665701
-665693
-665684
-665676
-665667
-665659
-665650
-665641
-665633
-665624
-665616
-665607
-665599
-665590
-665581
-665573
-665564
-665556
-665547
-665538
-665530
-665521
-665513
-665504
-665495
-665487
-665478
-665469
-665461
-665452
-665443
-665435
-665426
-665417
-665408
-665400
-665391
-665382
-665374
-665365
-665356
-665348
-665339
-665330
-665322
-665313
-665304
-665295
-665287
-665278
-665269
-665261
-665252
-665243
-665234
-665226
-665217
-665208
-665199
-665191
-665182
-665173
-665164
-665155
-665147
-665138
-665129
-665120
-665111
-665103
-665094
-665085
-665076
-665067
-665059
-665050
-665041
-665032
-665023
-665014
-665006
-664997
-664988
-664979
-664970
-664962
-664953
-664944
-664935
-664926
-664917
-664908
-664899
-664890
-664882
-664873
-664864
-664855
-664846
-664837
-664828
-664819
-664810
-664801
-664792
-664783
-664775
-664766
-664757
-664748
-664739
-664730
-664721
-664712
-664703
-664694
-664685
-664676
-664667
-664658
-664649
-664640
-664631
-664622
-664613
-664604
-664595
-664586
-664577
-664568
-664559
-664550
-664541
-664532
-664523
-664514
-664505
-664496
-664487
-664478
-664469
-664460
-664450
-664441
-664432
-664423
-664414
-664405
-664396
-664387
-664378
-664369
-664360
-664350
-664341
-664332
-664323
-664314
-664305
-664296
-664287
-664278
-664268
-664259
-664250
-664241
-664232
-664223
-664213
-664204
-664195
-664186
-664177
-664168
-664158
-664149
-664140
-664131
-664122
-664112
-664103
-664094
-664085
-664076
-664066
-664057
-664048
-664039
-664029
-664020
-664011
-664002
-663992
-663983
-663974
-663965
-663955
-663946
-663937
-663927
-663918
-663909
-663900
-663890
-663881
-663872
-663862
-663853
-663844
-663834
-663825
-663816
-663806
-663797
-663788
-663778
-663769
-663760
-663750
-663741
-663732
-663722
-663713
-663704
-663694
-663685
-663675
-663666
-663657
-663647
-663638
-663628
-663619
-663610
-663600
-663591
-663581
-663572
-663562
-663553
-663544
-663534
-663525
-663515
-663506
-663496
-663487
-663477
-663468
-663458
-663449
-663439
-663430
-663420
-663411
-663401
-663392
-663382
-663373
-663363
-663354
-663344
-663335
-663325
-663316
-663306
-663297
-663287
-663278
-663268
-663258
-663249
-663239
-663230
-663220
-663211
-663201
-663191
-663182
-663172
-663163
-663153
-663143
-663134
-663124
-663114
-663105
-663095
-663086
-663076
-663066
-663057
-663047
-663037
-663028
-663018
-663008
-662999
-662989
-662979
-662970
-662960
-662950
-662941
-662931
-662921
-662911
-662902
-662892
-662882
-662873
-662863
-662853
-662843
-662834
-662824
-662814
-662804
-662795
-662785
-662775
-662765
-662755
-662746
-662736
-662726
-662716
-662706
-662697
-662687
-662677
-662667
-662657
-662648
-662638
-662628
-662618
-662608
-662598
-662589
-662579
-662569
-662559
-662549
-662539
-662530
-662520
-662510
-662500
-662490
-662480
-662470
-662460
-662450
-662440
-662431
-662421
-662411
-662401
-662391
-662381
-662371
-662361
-662351
-662341
-662331
-662321
-662311
-662301
-662291
-662281
-662271
-662261
-662251
-662241
-662231
-662221
-662211
-662201
-662191
-662181
-662171
-662161
-662151
-662141
-662131
-662121
-662111
-662101
-662091
-662081
-662071
-662060
-662050
-662040
-662030
-662020
-662010
-662000
-661990
-661980
-661969
-661959
-661949
-661939
-661929
-661919
-661909
-661899
-661888
-661878
-661868
-661858
-661848
-661838
-661827
-661817
-661807
-661797
-661787
-661776
-661766
-661756
-661746
-661736
-661725
-661715
-661705
-661695
-661684
-661674
-661664
-661654
-661643
-661633
-661623
-661612
-661602
-661592
-661582
-661571
-661561
-661551
-661540
-661530
-661520
-661509
-661499
-661489
-661478
-661468
-661458
-661447
-661437
-661427
-661416
-661406
-661396
-661385
-661375
-661364
-661354
-661344
-661333
-661323
-661312
-661302
-661291
-661281
-661271
-661260
-661250
-661239
-661229
-661218
-661208
-661197
-661187
-661176
-661166
-661155
-661145
-661134
-661124
-661113
-661103
-661092
-661082
-661071
-661061
-661050
-661040
-661029
-661019
-661008
-660998
-660987
-660976
-660966
-660955
-660945
-660934
-660924
-660913
-660902
-660892
-660881
-660870
-660860
-660849
-660839
-660828
-660817
-660807
-660796
-660785
-660775
-660764
-660753
-660743
-660732
-660721
-660711
-660700
-660689
-660678
-660668
-660657
-660646
-660635
-660625
-660614
-660603
-660592
-660582
-660571
-660560
-660549
-660539
-660528
-660517
-660506
-660495
-660485
-660474
-660463
-660452
-660441
-660431
-660420
-660409
-660398
-660387
-660376
-660365
-660355
-660344
-660333
-660322
-660311
-660300
-660289
-660278
-660267
-660257
-660246
-660235
-660224
-660213
-660202
-660191
-660180
-660169
-660158
-660147
-660136
-660125
-660114
-660103
-660092
-660081
-660070
-660059
-660048
-660037
-660026
-660015
-660004
-659993
-659982
-659971
-659960
-659949
-659938
-659927
-659915
-659904
-659893
-659882
-659871
-659860
-659849
-659838
-659826
-659815
-659804
-659793
-659782
-659771
-659760
-659748
-659737
-659726
-659715
-659704
-659692
-659681
-659670
-659659
-659648
-659636
-659625
-659614
-659603
-659591
-659580
-659569
-659558
-659546
-659535
-659524
-659513
-659501
-659490
-659479
-659467
-659456
-659445
-659433
-659422
-659411
-659399
-659388
-659377
-659365
-659354
-659342
-659331
-659320
-659308
-659297
-659285
-659274
-659263
-659251
-659240
-659228
-659217
-659205
-659194
-659182
-659171
-659159
-659148
-659136
-659125
-659113
-659102
-659090
-659079
-659067
-659056
-659044
-659033
-659021
-659010
-658998
-658987
-658975
-658963
-658952
-658940
-658929
-658917
-658905
-658894
-658882
-658870
-658859
-658847
-658835
-658824
-658812
-658800
-658789
-658777
-658765
-658754
-658742
-658730
-658719
-658707
-658695
-658683
-658672
-658660
-658648
-658636
-658625
-658613
-658601
-658589
-658577
-658566
-658554
-658542
-658530
-658518
-658507
-658495
-658483
-658471
-658459
-658447
-658435
-658423
-658412
-658400
-658388
-658376
-658364
-658352
-658340
-658328
-658316
-658304
-658292
-658280
-658268
-658256
-658244
-658232
-658220
-658208
-658196
-658184
-658172
-658160
-658148
-658136
-658124
-658112
-658100
-658088
-658076
-658064
-658052
-658039
-658027
-658015
-658003
-657991
-657979
-657967
-657954
-657942
-657930
-657918
-657906
-657894
-657881
-657869
-657857
-657845
-657832
-657820
-657808
-657796
-657783
-657771
-657759
-657747
-657734
-657722
-657710
-657697
-657685
-657673
-657660
-657648
-657636
-657623
-657611
-657599
-657586
-657574
-657561
-657549
-657537
-657524
-657512
-657499
-657487
-657474
-657462
-657449
-657437
-657424
-657412
-657399
-657387
-657374
-657362
-657349
-657337
-657324
-657312
-657299
-657287
-657274
-657261
-657249
-657236
-657224
-657211
-657198
-657186
-657173
-657160
-657148
-657135
-657122
-657110
-657097
-657084
-657072
-657059
-657046
-657033
-657021
-657008
-656995
-656982
-656969
-656957
-656944
-656931
-656918
-656905
-656893
-656880
-656867
-656854
-656841
-656828
-656815
-656802
-656790
-656777
-656764
-656751
-656738
-656725
-656712
-656699
-656686
-656673
-656660
-656647
-656634
-656621
-656608
-656595
-656582
-656569
-656556
-656543
-656530
-656516
-656503
-656490
-656477
-656464
-656451
-656438
-656425
-656411
-656398
-656385
-656372
-656359
-656345
-656332
-656319
-656306
-656292
-656279
-656266
-656253
-656239
-656226
-656213
-656199
-656186
-656173
-656159
-656146
-656133
-656119
-656106
-656092
-656079
-656066
-656052
-656039
-656025
-656012
-655998
-655985
-655971
-655958
-655944
-655931
-655917
-655904
-655890
-655877
-655863
-655849
-655836
-655822
-655809
-655795
-655781
-655768
-655754
-655740
-655727
-655713
-655699
-655686
-655672
-655658
-655644
-655631
-655617
-655603
-655589
-655576
-655562
-655548
-655534
-655520
-655506
-655493
-655479
-655465
-655451
-655437
-655423
-655409
-655395
-655381
-655367
-655353
-655339
-655325
-655311
-655297
-655283
-655269
-655255
-655241
-655227
-655213
-655199
-655185
-655171
-655156
-655142
-655128
-655114
-655100
-655085
-655071
-655057
-655043
-655029
-655014
-655000
-654986
-654971
-654957
-654943
-654928
-654914
-654900
-654885
-654871
-654857
-654842
-654828
-654813
-654799
-654784
-654770
-654755
-654741
-654726
-654712
-654697
-654683
-654668
-654654
-654639
-654625
-654610
-654595
-654581
-654566
-654551
-654537
-654522
-654507
-654493
-654478
-654463
-654448
-654434
-654419
-654404
-654389
-654374
-654359
-654345
-654330
-654315
-654300
-654285
-654270
-654255
-654240
-654225
-654210
-654195
-654180
-654165
-654150
-654135
-654120
-654105
-654090
-654075
-654060
-654044
-654029
-654014
-653999
-653984
-653969
-653953
-653938
-653923
-653908
-653892
-653877
-653862
-653846
-653831
-653816
-653800
-653785
-653769
-653754
-653738
-653723
-653708
-653692
-653677
-653661
-653645
-653630
-653614
-653599
-653583
-653568
-653552
-653536
-653521
-653505
-653489
-653473
-653458
-653442
-653426
-653410
-653395
-653379
-653363
-653347
-653331
-653315
-653299
-653283
-653268
-653252
-653236
-653220
-653204
-653188
-653172
-653155
-653139
-653123
-653107
-653091
-653075
-653059
-653043
-653026
-653010
-652994
-652978
-652961
-652945
-652929
-652912
-652896
-652880
-652863
-652847
-652830
-652814
-652798
-652781
-652765
-652748
-652731
-652715
-652698
-652682
-652665
-652648
-652632
-652615
-652598
-652582
-652565
-652548
-652531
-652515
-652498
-652481
-652464
-652447
-652430
-652413
-652397
-652380
-652363
-652346
-652329
-652312
-652294
-652277
-652260
-652243
-652226
-652209
-652192
-652174
-652157
-652140
-652123
-652105
-652088
-652071
-652053
-652036
-652018
-652001
-651984
-651966
-651949
-651931
-651913
-651896
-651878
-651861
-651843
-651825
-651808
-651790
-651772
-651754
-651737
-651719
-651701
-651683
-651665
-651647
-651629
-651612
-651594
-651576
-651558
-651539
-651521
-651503
-651485
-651467
-651449
-651431
-651412
-651394
-651376
-651358
-651339
-651321
-651303
-651284
-651266
-651247
-651229
-651210
-651192
-651173
-651155
-651136
-651117
-651099
-651080
-651061
-651042
-651024
-651005
-650986
-650967
-650948
-650929
-650910
-650891
-650872
-650853
-650834
-650815
-650796
-650777
-650758
-650739
-650719
-650700
-650681
-650661
-650642
-650623
-650603
-650584
-650564
-650545
-650525
-650506
-650486
-650466
-650447
-650427
-650407
-650388
-650368
-650348
-650328
-650308
-650288
-650268
-650248
-650228
-650208
-650188
-650168
-650148
-650128
-650108
-650087
-650067
-650047
-650026
-650006
-649986
-649965
-649945
-649924
-649904
-649883
-649862
-649842
-649821
-649800
-649780
-649759
-649738
-649717
-649696
-649675
-649654
-649633
-649612
-649591
-649570
-649549
-649528
-649506
-649485
-649464
-649442
-649421
-649399
-649378
-649356
-649335
-649313
-649292
-649270
-649248
-649227
-649205
-649183
-649161
-649139
-649117
-649095
-649073
-649051
-649029
-649007
-648985
-648962
-648940
-648918
-648895
-648873
-648850
-648828
-648805
-648783
-648760
-648737
-648715
-648692
-648669
-648646
-648623
-648600
-648577
-648554
-648531
-648508
-648485
-648462
-648438
-648415
-648392
-648368
-648345
-648321
-648298
-648274
-648250
-648227
-648203
-648179
-648155
-648131
-648107
-648083
-648059
-648035
-648011
-647987
-647963
-647938
-647914
-647889
-647865
-647840
-647816
-647791
-647767
-647742
-647717
-647692
-647667
-647642
-647617
-647592
-647567
-647542
-647517
-647491
-647466
-647441
-647415
-647390
-647364
-647338
-647313
-647287
-647261
-647235
-647209
-647183
-647157
-647131
-647105
-647079
-647052
-647026
-647000
-646973
-646946
-646920
-646893
-646866
-646840
-646813
-646786
-646759
-646732
-646705
-646677
-646650
-646623
-646595
-646568
-646540
-646513
-646485
-646457
-646429
-646402
-646374
-646346
-646318
-646289
-646261
-646233
-646204
-646176
-646147
-646119
-646090
-646061
-646033
-646004
-645975
-645946
-645916
-645887
-645858
-645829
-645799
-645770
-645740
-645710
-645681
-645651
-645621
-645591
-645561
-645531
-645500
-645470
-645440
-645409
-645379
-645348
-645317
-645286
-645256
-645225
-645193
-645162
-645131
-645100
-645068
-645037
-645005
-644973
-644942
-644910
-644878
-644846
-644814
-644781
-644749
-644716
-644684
-644651
-644619
-644586
-644553
-644520
-644487
-644453
-644420
-644387
-644353
-644320
-644286
-644252
-644218
-644184
-644150
-644116
-644081
-644047
-644013
-643978
-643943
-643908
-643873
-643838
-643803
-643768
-643732
-643697
-643661
-643625
-643590
-643554
-643517
-643481
-643445
-643408
-643372
-643335
-643298
-643262
-643225
-643187
-643150
-643113
-643075
-643038
-643000
-642962
-642924
-642886
-642847
-642809
-642771
-642732
-642693
-642654
-642615
-642576
-642537
-642497
-642458
-642418
-642378
-642338
-642298
-642258
-642217
-642177
-642136
-642095
-642054
-642013
-641972
-641930
-641889
-641847
-641805
-641763
-641721
-641679
-641636
-641594
-641551
-641508
-641465
-641422
-641378
-641335
-641291
-641247
-641203
-641159
-641115
-641070
-641025
-640981
-640935
-640890
-640845
-640799
-640754
-640708
-640662
-640616
-640569
-640523
-640476
-640429
-640382
-640334
-640287
-640239
-640191
-640143
-640095
-640047
-639998
-639949
-639900
-639851
-639802
-639752
-639702
-639652
-639602
-639552
-639501
-639450
-639399
-639348
-639297
-639245
-639193
-639141
-639089
-639037
-638984
-638931
-638878
-638825
-638771
-638717
-638663
-638609
-638555
-638500
-638445
-638390
-638334
-638279
-638223
-638167
-638110
-638054
-637997
-637940
-637883
-637825
-637767
-637709
-637651
-637592
-637534
-637474
-637415
-637356
-637296
-637236
-637175
-637114
-637054
-636992
-636931
-636869
-636807
-636745
-636682
-636619
-636556
-636493
-636429
-636365
-636301
-636236
-636171
-636106
-636040
-635974
-635908
-635842
-635775
-635708
-635641
-635573
-635505
-635437
-635368
-635299
-635230
-635160
-635090
-635020
-634949
-634878
-634807
-634736
-634664
-634591
-634519
-634445
-634372
-634298
-634224
-634150
-634075
-634000
-633924
-633848
-633772
-633695
-633618
-633541
-633463
-633385
-633306
-633227
-633148
-633068
-632987
-632907
-632826
-632744
-632663
-632580
-632498
-632414
-632331
-632247
-632163
-632078
-631992
-631907
-631820
-631734
-631647
-631559
-631471
-631383
-631294
-631205
-631115
-631024
-630934
-630842
-630751
-630658
-630566
-630472
-630379
-630284
-630189
-630094
-629998
-629902
-629805
-629708
-629610
-629512
-629413
-629313
-629213
-629113
-629011
-628910
-628807
-628705
-628601
-628497
-628393
-628287
-628182
-628075
-627968
-627861
-627753
-627644
-627534
-627424
-627314
-627203
-627091
-626978
-626865
-626751
-626636
-626521
-626405
-626289
-626172
-626054
-625935
-625816
-625696
-625575
-625454
-625332
-625209
-625085
-624961
-624836
-624710
-624583
-624456
-624327
-624198
-624068
-623938
-623806
-623674
-623541
-623407
-623272
-623136
-623000
-622862
-622724
-622584
-622444
-622303
-622160
-622017
-621873
-621727
-621581
-621433
-621284
-621145
-621148
-621121
-620956
-620786
-620689
-620388
-620270
-620051
-619909
-619725
-619574
-619403
-619247
-619083
-618924
-618760
-618599
-618436
-618271
-618106
-617940
-617773
-617606
-617437
-617267
-617096
-616924
-616751
-616577
-616402
-616225
-616048
-615869
-615689
-615509
-615327
-615144
-614960
-614774
-614588
-614400
-614211
-614021
-613829
-613637
-613443
-613248
-613052
-612855
-612656
-612456
-612255
-612052
-611849
-611643
-611437
-611229
-611021
-610810
-610599
-610386
-610172
-609956
-609739
-609521
-609301
-609079
-608857
-608633
-608407
-608181
-607952
-607723
-607491
-607259
-607025
-606789
-606552
-606313
-606073
-605831
-605588
-605343
-605097
-604849
-604600
-604349
-604096
-603842
-603586
-603328
-603069
-602808
-602546
-602282
-602016
-601749
-601480
-601209
-600936
-600662
-600386
-600108
-599829
-599548
-599264
-598980
-598693
-598405
-598114
-597822
-597528
-597233
-596935
-596636
-596334
-596031
-595726
-595419
-595110
-594799
-594486
-594171
-593854
-593536
-593215
-592892
-592568
-592241
-591912
-591582
-591249
-590914
-590577
-590238
-589897
-589554
-589209
-588862
-588512
-588161
-587807
-587451
-587094
-586733
-586371
-586007
-585640
-585272
-584901
-584527
-584152
-583775
-583395
-583013
-582629
-582242
-581853
-581462
-581069
-580674
-580276
-579876
-579473
-579069
-578662
-578253
-577841
-577427
-577011
-576593
-576172
-575749
-575323
-574895
-574465
-574033
-573598
-573161
-572721
-572280
-571835
-571389
-570940
-570489
-570035
-569580
-569121
-568661
-568198
-567732
-567265
-566795
-566323
-565848
-565371
-564892
-564411
-563927
-563441
-562952
-562462
-561969
-561473
-560976
-560476
-559974
-559469
-558963
-558454
-557943
-557430
-556915
-556397
-555878
-555356
-554832
-554306
-553778
-553247
-552715
-552180
-551644
-551105
-550565
-550022
-549478
-548932
-548383
-547833
-547281
-546727
-546171
-545614
-545054
-544493
-543930
-543366
-542800
-542232
-541662
-541091
-540518
-539944
-539368
-538791
-538212
-537632
-537051
-536468
-535884
-535299
-534712
-534124
-533535
-532945
-532354
-531762
-531169
-530575
-529980
-529384
-528787
-528190
-527591
-526993
-526393
-525793
-525192
-524591
-523989
-523387
-522785
-522182
-521579
-520976
-520373
-519769
-519166
-518562
-517959
-517356
-516753
-516150
-515547
-514945
-514343
-513742
-513141
-512540
-511941
-511342
-510744
-510146
-509550
-508954
-508359
-507766
-507173
-506582
-505992
-505403
-504816
-504230
-503645
-503062
-502481
-501901
-501323
-500747
-500172
-499600
-499029
-498461
-497895
-497330
-496768
-496209
-495651
-495096
-494544
-493994
-493446
-492902
-492359
-491820
-491284
-490750
-490219
-489691
-489167
-488645
-488126
-487611
-487099
-486590
-486085
-485583
-485084
-484589
-484097
-483609
-483125
-482644
-482167
-481694
-481225
-480759
-480297
-479840
-479386
-478936
-478491
-478049
-477612
-477178
-476749
-476324
-475904
-475487
-475075
-474668
-474264
-473865
-473471
-473080
-472695
-472313
-471936
-471564
-471196
-470833
-470474
-470120
-469770
-469425
-469084
-468748
-468417
-468090
-467768
-467450
-467137
-466829
-466525
-466226
-465931
-465641
-465356
-465075
-464798
-464526
-464259
-463996
-463738
-463484
-463235
-462990
-462749
-462513
-462282
-462055
-461832
-461613
-461399
-461189
-460984
-460782
-460585
-460392
-460203
-460019
-459838
-459662
-459489
-459321
-459156
-458996
-458839
-458686
-458537
-458392
-458251
-458113
-457979
-457849
-457722
-457599
-457479
-457363
-457251
-457142
-457036
-456933
-456834
-456738
-456646
-456556
-456470
-456387
-456307
-456229
-456155
-456084
-456016
-455950
-455887
-455828
-455770
-455716
-455664
-455615
-455568
-455524
-455482
-455443
-455406
-455372
-455340
-455310
-455282
-455257
-455234
-455213
-455194
-455177
-455162
-455149
-455138
-455128
-455121
-455116
-455112
-455110
-455110
-455112
-455115
-455120
-455126
-455134
-455143
-455154
-455167
-455181
-455196
-455213
-455231
-455250
-455270
-455292
-455315
-455339
-455365
-455391
-455419
-455448
-455477
-455508
-455540
-455573
-455607
-455641
-455677
-455713
-455751
-455789
-455828
-455868
-455909
-455950
-455992
-456035
-456078
-456123
-456168
-456213
-456259
-456306
-456353
-456401
-456450
-456499
-456549
-456599
-456649
-456701
-456752
-456804
-456857
-456910
-456963
-457017
-457071
-457126
-457181
-457236
-457291
-457347
-457404
-457460
-457517
-457575
-457632
-457690
-457748
-457806
-457865
-457924
-457983
-458042
-458102
-458162
-458222
-458282
-458342
-458403
-458464
-458525
-458586
-458647
-458708
-458770
-458832
-458894
-458956
-459018
-459080
-459142
-459205
-459268
-459330
-459393
-459456
-459519
-459582
-459646
-459709
-459772
-459836
-459899
-459963
-460027
-460091
-460155
-460219
-460283
-460347
-460411
-460475
-460539
-460604
-460668
-460732
-460797
-460861
-460926
-460991
-461055
-461120
-461185
-461249
-461314
-461379
-461444
-461509
-461574
-461639
-461704
-461769
-461834
-461899
-461964
-462029
-462094
-462159
-462224
-462290
-462355
-462420
-462485
-462551
-462616
-462681
-462747
-462812
-462877
-462943
-463008
-463073
-463139
-463204
-463270
-463335
-463401
-463466
-463532
-463597
-463663
-463728
-463794
-463859
-463925
-463990
-464056
-464122
-464187
-464253
-464319
-464384
-464450
-464515
-464581
-464647
-464712
-464778
-464844
-464910
-464975
-465041
-465107
-465172
-465238
-465304
-465370
-465435
-465501
-465567
-465633
-465699
-465764
-465830
-465896
-465962
-466028
-466094
-466159
-466225
-466291
-466357
-466423
-466489
-466555
-466621
-466686
-466752
-466818
-466884
-466950
-467016
-467082
-467148
-467214
-467280
-467346
-467412
-467478
-467544
-467610
-467676
-467742
-467808
-467874
-467940
-468006
-468072
-468138
-468204
-468270
-468337
-468403
-468469
-468535
-468601
-468667
-468733
-468799
-468866
-468932
-468998
-469064
-469130
-469196
-469263
-469329
-469395
-469461
-469527
-469594
-469660
-469726
-469792
-469859
-469925
-469991
-470057
-470124
-470190
-470256
-470322
-470389
-470455
-470521
-470588
-470654
-470720
-470787
-470853
-470919
-470986
-471052
-471119
-471185
-471251
-471318
-471384
-471450
-471517
-471583
-471650
-471716
-471783
-471849
-471915
-471982
-472048
-472115
-472181
-472248
-472314
-472381
-472447
-472514
-472580
-472647
-472713
-472780
-472846
-472913
-472980
-473046
-473113
-473179
-473246
-473312
-473379
-473446
-473512
-473579