/*--------------------------------*- C++ -*----------------------------------*\
  =========                 |
  \\      /  F ield         | OpenFOAM: The Open Source CFD Toolbox
   \\    /   O peration     | Website:  https://openfoam.org
    \\  /    A nd           | Version:  9
     \\/     M anipulation  |
\*---------------------------------------------------------------------------*/
FoamFile
{
    format      ascii;
    class       surfaceScalarField;
    location    "0.036";
    object      ddtCorrDdt0(phi);
}
// * * * * * * * * * * * * * * * * * * * * * * * * * * * * * * * * * * * * * //

dimensions      [1 0 -2 0 0 0 0];

internalField   nonuniform List<scalar> 
9999
(
-37.3216
-39.6377
-41.9544
-44.2715
-46.5886
-48.9053
-51.2205
-53.5334
-55.8447
-58.1571
-60.4721
-62.7884
-65.1032
-67.4159
-69.7282
-72.0416
-74.3552
-76.6676
-78.9792
-81.2921
-83.608
-85.9254
-88.2409
-90.5524
-92.8618
-95.1738
-97.4909
-99.811
-102.129
-104.44
-106.746
-109.054
-111.366
-113.683
-115.999
-118.31
-120.615
-122.918
-125.227
-127.543
-129.864
-132.182
-134.491
-136.791
-139.087
-141.39
-143.705
-146.031
-148.359
-150.678
-152.983
-155.279
-157.574
-159.878
-162.196
-164.525
-166.855
-169.176
-171.482
-173.773
-176.057
-178.344
-180.644
-182.961
-185.294
-187.634
-189.967
-192.281
-194.573
-196.85
-199.122
-201.401
-203.698
-206.018
-208.36
-210.712
-213.063
-215.399
-217.712
-219.998
-222.263
-224.519
-226.784
-229.069
-231.379
-233.711
-236.061
-238.419
-240.777
-243.123
-245.444
-247.737
-250.008
-252.261
-254.505
-256.751
-259.011
-261.293
-263.602
-265.94
-268.305
-270.688
-273.075
-275.454
-277.813
-280.151
-282.471
-284.769
-287.038
-289.282
-291.51
-293.733
-295.955
-298.178
-300.416
-302.675
-304.952
-307.253
-309.583
-311.934
-314.306
-316.7
-319.11
-321.539
-323.99
-326.453
-328.913
-331.357
-333.792
-336.239
-338.673
-341.079
-343.478
-345.868
-348.226
-350.577
-352.914
-355.232
-357.553
-359.868
-362.2
-364.541
-366.955
-369.39
-371.743
-374.058
-376.388
-378.698
-381.018
-383.339
-385.644
-387.971
-390.285
-392.594
-394.918
-397.241
-399.55
-401.861
-404.19
-406.515
-408.826
-411.132
-413.439
-415.751
-418.071
-420.391
-422.709
-425.027
-427.348
-429.663
-431.977
-434.297
-436.615
-438.928
-441.242
-443.561
-445.879
-448.195
-450.508
-452.822
-455.142
-457.465
-459.786
-462.101
-464.414
-466.726
-469.038
-471.352
-473.67
-475.989
-478.307
-480.623
-482.941
-485.259
-487.576
-489.891
-492.206
-494.522
-496.841
-499.158
-501.472
-503.786
-506.1
-508.417
-510.735
-513.054
-515.371
-517.686
-519.999
-522.312
-524.626
-526.941
-529.258
-531.574
-533.892
-536.211
-538.529
-540.846
-543.161
-545.477
-547.793
-550.11
-552.426
-554.742
-557.056
-559.371
-561.686
-564.003
-566.321
-568.638
-570.954
-573.268
-575.58
-577.893
-580.206
-582.52
-584.834
-587.15
-589.468
-591.786
-594.104
-596.421
-598.737
-601.054
-603.371
-605.688
-608.004
-610.318
-612.633
-614.947
-617.262
-619.578
-621.895
-624.212
-626.528
-628.843
-631.157
-633.469
-635.781
-638.093
-640.406
-642.721
-645.036
-647.352
-649.668
-651.985
-654.302
-656.619
-658.936
-661.253
-663.57
-665.885
-668.2
-670.515
-672.83
-675.145
-677.461
-679.777
-682.093
-684.408
-686.722
-689.036
-691.348
-693.661
-695.973
-698.286
-700.6
-702.914
-705.228
-707.543
-709.858
-712.174
-714.491
-716.807
-719.123
-721.439
-723.755
-726.07
-728.385
-730.701
-733.017
-735.332
-737.648
-739.963
-742.278
-744.592
-746.905
-749.218
-751.53
-753.843
-756.156
-758.469
-760.783
-763.096
-765.41
-767.725
-770.039
-772.354
-774.67
-776.985
-779.299
-781.614
-783.929
-786.244
-788.56
-790.876
-793.192
-795.507
-797.823
-800.137
-802.451
-804.764
-807.077
-809.39
-811.702
-814.015
-816.328
-818.641
-820.954
-823.268
-825.582
-827.896
-830.21
-832.524
-834.838
-837.152
-839.466
-841.78
-844.094
-846.409
-848.724
-851.039
-853.354
-855.67
-857.984
-860.299
-862.612
-864.925
-867.238
-869.551
-871.863
-874.175
-876.488
-878.801
-881.114
-883.428
-885.742
-888.056
-890.369
-892.683
-894.996
-897.309
-899.623
-901.936
-904.249
-906.563
-908.877
-911.192
-913.506
-915.82
-918.134
-920.448
-922.761
-925.074
-927.387
-929.699
-932.012
-934.324
-936.637
-938.95
-941.263
-943.576
-945.89
-948.203
-950.516
-952.83
-955.143
-957.455
-959.768
-962.081
-964.394
-966.707
-969.021
-971.334
-973.647
-975.96
-978.273
-980.586
-982.899
-985.211
-987.523
-989.836
-992.148
-994.461
-996.773
-999.086
-1001.4
-1003.71
-1006.03
-1008.34
-1010.65
-1012.96
-1015.28
-1017.59
-1019.9
-1022.21
-1024.53
-1026.84
-1029.15
-1031.47
-1033.78
-1036.09
-1038.4
-1040.71
-1043.03
-1045.34
-1047.65
-1049.96
-1052.27
-1054.58
-1056.9
-1059.21
-1061.52
-1063.83
-1066.15
-1068.46
-1070.77
-1073.09
-1075.4
-1077.71
-1080.02
-1082.34
-1084.65
-1086.96
-1089.27
-1091.58
-1093.9
-1096.21
-1098.52
-1100.83
-1103.14
-1105.45
-1107.76
-1110.08
-1112.39
-1114.7
-1117.01
-1119.32
-1121.63
-1123.94
-1126.26
-1128.57
-1130.88
-1133.19
-1135.51
-1137.82
-1140.13
-1142.44
-1144.76
-1147.07
-1149.38
-1151.69
-1154
-1156.31
-1158.63
-1160.94
-1163.25
-1165.56
-1167.87
-1170.18
-1172.49
-1174.8
-1177.11
-1179.42
-1181.73
-1184.04
-1186.35
-1188.67
-1190.98
-1193.29
-1195.6
-1197.91
-1200.23
-1202.54
-1204.85
-1207.16
-1209.47
-1211.78
-1214.1
-1216.41
-1218.72
-1221.03
-1223.34
-1225.65
-1227.96
-1230.27
-1232.58
-1234.89
-1237.2
-1239.51
-1241.82
-1244.13
-1246.44
-1248.75
-1251.06
-1253.37
-1255.68
-1257.99
-1260.31
-1262.62
-1264.93
-1267.24
-1269.55
-1271.86
-1274.17
-1276.49
-1278.8
-1281.11
-1283.42
-1285.73
-1288.04
-1290.35
-1292.66
-1294.97
-1297.28
-1299.59
-1301.9
-1304.21
-1306.52
-1308.83
-1311.14
-1313.44
-1315.75
-1318.06
-1320.38
-1322.69
-1325
-1327.31
-1329.62
-1331.93
-1334.24
-1336.55
-1338.86
-1341.17
-1343.48
-1345.79
-1348.1
-1350.41
-1352.72
-1355.03
-1357.34
-1359.65
-1361.96
-1364.27
-1366.58
-1368.89
-1371.2
-1373.51
-1375.81
-1378.12
-1380.43
-1382.74
-1385.05
-1387.36
-1389.67
-1391.98
-1394.29
-1396.6
-1398.91
-1401.22
-1403.53
-1405.84
-1408.15
-1410.46
-1412.77
-1415.08
-1417.39
-1419.7
-1422.01
-1424.32
-1426.63
-1428.94
-1431.24
-1433.55
-1435.86
-1438.17
-1440.48
-1442.79
-1445.1
-1447.4
-1449.71
-1452.02
-1454.33
-1456.64
-1458.95
-1461.26
-1463.57
-1465.88
-1468.19
-1470.5
-1472.81
-1475.11
-1477.42
-1479.73
-1482.04
-1484.35
-1486.66
-1488.97
-1491.28
-1493.59
-1495.89
-1498.2
-1500.51
-1502.82
-1505.13
-1507.43
-1509.74
-1512.05
-1514.36
-1516.67
-1518.98
-1521.29
-1523.6
-1525.91
-1528.21
-1530.52
-1532.83
-1535.14
-1537.44
-1539.75
-1542.06
-1544.37
-1546.68
-1548.98
-1551.29
-1553.6
-1555.91
-1558.22
-1560.53
-1562.84
-1565.14
-1567.45
-1569.76
-1572.07
-1574.37
-1576.68
-1578.99
-1581.3
-1583.6
-1585.92
-1588.22
-1590.54
-1592.84
-1595.15
-1597.45
-1599.76
-1602.07
-1604.37
-1606.69
-1608.98
-1611.3
-1613.61
-1615.91
-1618.22
-1620.52
-1622.83
-1625.14
-1627.45
-1629.76
-1632.06
-1634.37
-1636.68
-1638.99
-1641.29
-1643.61
-1645.91
-1648.23
-1650.52
-1652.84
-1655.13
-1657.45
-1659.76
-1662.06
-1664.38
-1666.66
-1669
-1671.27
-1673.62
-1675.88
-1678.23
-1680.51
-1682.81
-1685.14
-1687.42
-1689.77
-1692.02
-1694.39
-1696.64
-1698.98
-1701.29
-1703.56
-1705.93
-1708.17
-1710.53
-1712.79
-1715.14
-1717.43
-1719.71
-1722.09
-1724.29
-1726.71
-1728.92
-1731.27
-1733.6
-1735.84
-1738.24
-1740.44
-1742.83
-1745.09
-1747.39
-1749.76
-1751.96
-1754.38
-1756.59
-1758.95
-1761.27
-1763.5
-1765.93
-1768.11
-1770.5
-1772.78
-1775.03
-1777.46
-1779.62
-1782.05
-1784.31
-1786.58
-1788.99
-1791.15
-1793.59
-1795.83
-1798.12
-1800.53
-1802.67
-1805.14
-1807.34
-1809.64
-1812.06
-1814.19
-1816.66
-1818.87
-1821.15
-1823.59
-1825.71
-1828.18
-1830.42
-1832.67
-1835.13
-1837.24
-1839.69
-1841.97
-1844.18
-1846.66
-1848.8
-1851.19
-1853.54
-1855.68
-1858.2
-1860.34
-1862.68
-1865.09
-1867.2
-1869.7
-1871.89
-1874.17
-1876.64
-1878.73
-1881.2
-1883.46
-1885.68
-1888.17
-1890.26
-1892.68
-1895.03
-1897.16
-1899.7
-1901.84
-1904.14
-1906.6
-1908.68
-1911.17
-1913.44
-1915.6
-1918.15
-1920.24
-1922.61
-1925.04
-1927.1
-1929.63
-1931.87
-1934.04
-1936.6
-1938.67
-1941.04
-1943.5
-1945.53
-1948.07
-1950.32
-1952.45
-1955.05
-1957.12
-1959.44
-1961.96
-1963.95
-1966.46
-1968.8
-1970.85
-1973.46
-1975.62
-1977.81
-1980.42
-1982.42
-1984.81
-1987.31
-1989.27
-1991.83
-1994.15
-1996.17
-1998.84
-2000.96
-2003.13
-2005.79
-2007.77
-2010.13
-2012.69
-2014.6
-2017.15
-2019.54
-2021.49
-2024.16
-2026.35
-2028.43
-2031.13
-2033.16
-2035.4
-2038.06
-2039.99
-2042.4
-2044.94
-2046.84
-2049.41
-2051.79
-2053.74
-2056.4
-2058.62
-2060.67
-2063.36
-2065.44
-2067.62
-2070.3
-2072.27
-2074.6
-2077.2
-2079.12
-2081.59
-2084.08
-2085.99
-2088.57
-2090.94
-2092.89
-2095.55
-2097.79
-2099.8
-2102.51
-2104.64
-2106.73
-2109.45
-2111.49
-2113.67
-2116.38
-2118.34
-2120.61
-2123.3
-2125.2
-2127.56
-2130.2
-2132.07
-2134.51
-2137.1
-2138.95
-2141.46
-2144
-2145.84
-2148.41
-2150.88
-2152.73
-2155.35
-2157.77
-2159.62
-2162.29
-2164.65
-2166.52
-2169.23
-2171.53
-2173.42
-2176.16
-2178.42
-2180.33
-2183.09
-2185.31
-2187.23
-2190.02
-2192.2
-2194.14
-2196.94
-2199.09
-2201.04
-2203.86
-2205.99
-2207.94
-2210.77
-2212.89
-2214.84
-2217.68
-2219.8
-2221.73
-2224.59
-2226.71
-2228.63
-2231.49
-2233.63
-2235.52
-2238.39
-2240.56
-2242.42
-2245.28
-2247.49
-2249.31
-2252.16
-2254.42
-2256.21
-2259.04
-2261.36
-2263.11
-2265.91
-2268.29
-2270.02
-2272.78
-2275.23
-2276.93
-2279.63
-2282.17
-2283.86
-2286.48
-2289.1
-2290.79
-2293.33
-2296.02
-2297.73
-2300.18
-2302.93
-2304.68
-2307.02
-2309.84
-2311.63
-2313.87
-2316.73
-2318.6
-2320.73
-2323.61
-2325.58
-2327.59
-2330.48
-2332.56
-2334.46
-2337.32
-2339.53
-2341.35
-2344.16
-2346.51
-2348.26
-2350.98
-2353.48
-2355.19
-2357.78
-2360.42
-2362.14
-2364.59
-2367.35
-2369.12
-2371.39
-2374.25
-2376.12
-2378.21
-2381.12
-2383.13
-2385.05
-2387.95
-2390.15
-2391.92
-2394.74
-2397.16
-2398.85
-2401.51
-2404.15
-2405.82
-2408.27
-2411.09
-2412.83
-2415.03
-2417.97
-2419.88
-2421.84
-2424.79
-2426.94
-2428.69
-2431.55
-2433.98
-2435.62
-2438.28
-2440.97
-2442.62
-2445
-2447.89
-2449.68
-2451.76
-2454.73
-2456.76
-2458.58
-2461.5
-2463.83
-2465.49
-2468.21
-2470.85
-2472.49
-2474.91
-2477.79
-2479.56
-2481.65
-2484.62
-2486.66
-2488.47
-2491.37
-2493.75
-2495.39
-2498.06
-2500.75
-2502.41
-2504.75
-2507.66
-2509.51
-2511.5
-2514.45
-2516.62
-2518.35
-2521.16
-2523.69
-2525.32
-2527.83
-2530.65
-2532.4
-2534.54
-2537.49
-2539.53
-2541.34
-2544.21
-2546.63
-2548.27
-2550.87
-2553.64
-2555.34
-2557.55
-2560.5
-2562.48
-2564.32
-2567.22
-2569.61
-2571.24
-2573.86
-2576.63
-2578.32
-2580.51
-2583.48
-2585.48
-2587.29
-2590.17
-2592.61
-2594.24
-2596.78
-2599.61
-2601.35
-2603.44
-2606.42
-2608.53
-2610.26
-2613.07
-2615.64
-2617.27
-2619.67
-2622.58
-2624.44
-2626.37
-2629.31
-2631.61
-2633.27
-2635.91
-2638.66
-2640.37
-2642.53
-2645.49
-2647.56
-2649.32
-2652.13
-2654.69
-2656.34
-2658.72
-2661.62
-2663.52
-2665.42
-2668.32
-2670.69
-2672.35
-2674.9
-2677.71
-2679.49
-2681.54
-2684.47
-2686.7
-2688.39
-2691.06
-2693.77
-2695.49
-2697.66
-2700.59
-2702.71
-2704.46
-2707.2
-2709.83
-2711.52
-2713.78
-2716.69
-2718.74
-2720.54
-2723.32
-2725.88
-2727.58
-2729.88
-2732.77
-2734.78
-2736.62
-2739.41
-2741.94
-2743.64
-2745.98
-2748.85
-2750.84
-2752.7
-2755.49
-2758
-2759.71
-2762.05
-2764.91
-2766.92
-2768.77
-2771.55
-2774.08
-2775.8
-2778.1
-2780.98
-2783.02
-2784.84
-2787.59
-2790.17
-2791.9
-2794.14
-2797.02
-2799.14
-2800.92
-2803.59
-2806.26
-2808.03
-2810.16
-2813.04
-2815.27
-2817.01
-2819.58
-2822.33
-2824.18
-2826.2
-2829.04
-2831.4
-2833.13
-2835.56
-2838.37
-2840.34
-2842.25
-2845.01
-2847.52
-2849.28
-2851.55
-2854.38
-2856.51
-2858.33
-2860.96
-2863.6
-2865.45
-2867.56
-2870.36
-2872.66
-2874.45
-2876.91
-2879.66
-2881.63
-2883.58
-2886.31
-2888.8
-2890.6
-2892.87
-2895.67
-2897.82
-2899.66
-2902.24
-2904.9
-2906.79
-2908.85
-2911.62
-2914
-2915.79
-2918.15
-2920.93
-2923.01
-2924.88
-2927.52
-2930.14
-2932
-2934.09
-2936.87
-2939.23
-2941.02
-2943.39
-2946.17
-2948.25
-2950.12
-2952.74
-2955.36
-2957.25
-2959.32
-2962.08
-2964.47
-2966.28
-2968.61
-2971.37
-2973.51
-2975.38
-2977.93
-2980.58
-2982.53
-2984.56
-2987.26
-2989.71
-2991.57
-2993.82
-2996.55
-2998.78
-3000.66
-3003.11
-3005.77
-3007.82
-3009.81
-3012.42
-3014.93
-3016.86
-3019.02
-3021.71
-3024.04
-3025.93
-3028.28
-3030.96
-3033.11
-3035.05
-3037.57
-3040.16
-3042.16
-3044.22
-3046.86
-3049.31
-3051.23
-3053.43
-3056.13
-3058.42
-3060.32
-3062.68
-3065.36
-3067.51
-3069.44
-3071.95
-3074.56
-3076.58
-3078.6
-3081.21
-3083.72
-3085.66
-3087.8
-3090.46
-3092.85
-3094.76
-3097.02
-3099.69
-3101.95
-3103.88
-3106.26
-3108.89
-3111.05
-3113.03
-3115.51
-3118.07
-3120.14
-3122.2
-3124.75
-3127.22
-3129.24
-3131.4
-3133.98
-3136.35
-3138.35
-3140.61
-3143.2
-3145.47
-3147.48
-3149.83
-3152.4
-3154.59
-3156.62
-3159.05
-3161.59
-3163.7
-3165.77
-3168.28
-3170.76
-3172.81
-3174.94
-3177.49
-3179.91
-3181.93
-3184.12
-3186.7
-3189.06
-3191.06
-3193.31
-3195.9
-3198.2
-3200.19
-3202.5
-3205.09
-3207.34
-3209.34
-3211.7
-3214.27
-3216.47
-3218.5
-3220.89
-3223.44
-3225.6
-3227.66
-3230.09
-3232.6
-3234.73
-3236.83
-3239.29
-3241.76
-3243.87
-3246
-3248.48
-3250.91
-3253
-3255.17
-3257.67
-3260.06
-3262.14
-3264.35
-3266.86
-3269.21
-3271.28
-3273.52
-3276.04
-3278.36
-3280.42
-3282.69
-3285.22
-3287.51
-3289.57
-3291.87
-3294.39
-3296.66
-3298.72
-3301.04
-3303.56
-3305.82
-3307.87
-3310.21
-3312.73
-3314.97
-3317.03
-3319.37
-3321.89
-3324.13
-3326.19
-3328.54
-3331.05
-3333.29
-3335.35
-3337.7
-3340.21
-3342.44
-3344.51
-3346.86
-3349.36
-3351.6
-3353.68
-3356.02
-3358.52
-3360.75
-3362.84
-3365.19
-3367.67
-3369.9
-3372.01
-3374.35
-3376.82
-3379.06
-3381.17
-3383.51
-3385.98
-3388.21
-3390.33
-3392.67
-3395.13
-3397.37
-3399.49
-3401.83
-3404.29
-3406.53
-3408.65
-3410.99
-3413.45
-3415.69
-3417.8
-3420.14
-3422.6
-3424.85
-3426.96
-3429.28
-3431.75
-3434.02
-3436.13
-3438.43
-3440.9
-3443.18
-3445.29
-3447.57
-3450.04
-3452.35
-3454.46
-3456.72
-3459.18
-3461.51
-3463.63
-3465.87
-3468.32
-3470.66
-3472.8
-3475.03
-3477.45
-3479.82
-3481.97
-3484.18
-3486.6
-3488.97
-3491.14
-3493.34
-3495.74
-3498.12
-3500.3
-3502.5
-3504.89
-3507.27
-3509.46
-3511.65
-3514.03
-3516.43
-3518.63
-3520.8
-3523.16
-3525.58
-3527.8
-3529.96
-3532.3
-3534.72
-3536.97
-3539.12
-3541.43
-3543.86
-3546.15
-3548.29
-3550.56
-3552.99
-3555.31
-3557.46
-3559.7
-3562.12
-3564.47
-3566.64
-3568.85
-3571.24
-3573.62
-3575.82
-3578
-3580.37
-3582.76
-3584.99
-3587.17
-3589.5
-3591.9
-3594.15
-3596.33
-3598.64
-3601.04
-3603.31
-3605.49
-3607.78
-3610.17
-3612.48
-3614.65
-3616.91
-3619.31
-3621.63
-3623.82
-3626.05
-3628.43
-3630.79
-3632.99
-3635.2
-3637.56
-3639.94
-3642.17
-3644.35
-3646.68
-3649.08
-3651.34
-3653.51
-3655.81
-3658.21
-3660.51
-3662.68
-3664.94
-3667.33
-3669.66
-3671.86
-3674.08
-3676.45
-3678.81
-3681.03
-3683.23
-3685.57
-3687.95
-3690.2
-3692.39
-3694.69
-3697.08
-3699.37
-3701.56
-3703.83
-3706.2
-3708.52
-3710.73
-3712.97
-3715.33
-3717.67
-3719.9
-3722.12
-3724.45
-3726.81
-3729.06
-3731.27
-3733.58
-3735.95
-3738.23
-3740.43
-3742.7
-3745.08
-3747.39
-3749.59
-3751.83
-3754.19
-3756.54
-3758.77
-3760.98
-3763.31
-3765.68
-3767.94
-3770.14
-3772.42
-3774.8
-3777.11
-3779.31
-3781.55
-3783.91
-3786.26
-3788.49
-3790.7
-3793.02
-3795.39
-3797.66
-3799.87
-3802.15
-3804.51
-3806.81
-3809.03
-3811.29
-3813.63
-3815.95
-3818.19
-3820.43
-3822.76
-3825.09
-3827.35
-3829.58
-3831.88
-3834.23
-3836.51
-3838.73
-3841.01
-3843.36
-3845.67
-3847.89
-3850.13
-3852.47
-3854.82
-3857.07
-3859.28
-3861.58
-3863.95
-3866.24
-3868.45
-3870.7
-3873.05
-3875.39
-3877.63
-3879.84
-3882.16
-3884.52
-3886.8
-3889.01
-3891.28
-3893.63
-3895.94
-3898.18
-3900.43
-3902.74
-3905.07
-3907.34
-3909.58
-3911.87
-3914.2
-3916.49
-3918.73
-3921.01
-3923.33
-3925.64
-3927.88
-3930.13
-3932.46
-3934.79
-3937.04
-3939.27
-3941.57
-3943.92
-3946.21
-3948.43
-3950.69
-3953.03
-3955.36
-3957.6
-3959.83
-3962.13
-3964.48
-3966.78
-3969
-3971.25
-3973.59
-3975.92
-3978.17
-3980.4
-3982.7
-3985.03
-3987.33
-3989.56
-3991.83
-3994.15
-3996.46
-3998.72
-4000.97
-4003.27
-4005.59
-4007.87
-4010.12
-4012.4
-4014.72
-4017.01
-4019.26
-4021.53
-4023.85
-4026.16
-4028.42
-4030.66
-4032.96
-4035.3
-4037.58
-4039.81
-4042.08
-4044.41
-4046.73
-4048.99
-4051.22
-4053.51
-4055.86
-4058.15
-4060.39
-4062.63
-4064.95
-4067.29
-4069.56
-4071.79
-4074.07
-4076.4
-4078.71
-4080.96
-4083.21
-4085.51
-4087.83
-4090.11
-4092.36
-4094.64
-4096.95
-4099.25
-4101.51
-4103.78
-4106.08
-4108.38
-4110.65
-4112.91
-4115.2
-4117.52
-4119.8
-4122.05
-4124.32
-4126.64
-4128.95
-4131.21
-4133.46
-4135.75
-4138.08
-4140.37
-4142.62
-4144.87
-4147.18
-4149.51
-4151.79
-4154.02
-4156.29
-4158.62
-4160.93
-4163.19
-4165.44
-4167.73
-4170.05
-4172.34
-4174.6
-4176.86
-4179.16
-4181.47
-4183.75
-4186.01
-4188.29
-4190.6
-4192.89
-4195.15
-4197.42
-4199.72
-4202.02
-4204.29
-4206.56
-4208.85
-4211.16
-4213.45
-4215.7
-4217.97
-4220.28
-4222.59
-4224.86
-4227.11
-4229.39
-4231.71
-4234.01
-4236.27
-4238.52
-4240.81
-4243.13
-4245.43
-4247.68
-4249.94
-4252.24
-4254.56
-4256.84
-4259.09
-4261.37
-4263.67
-4265.97
-4268.25
-4270.51
-4272.8
-4275.1
-4277.39
-4279.65
-4281.93
-4284.23
-4286.52
-4288.8
-4291.06
-4293.35
-4295.66
-4297.94
-4300.2
-4302.47
-4304.78
-4307.09
-4309.36
-4311.61
-4313.89
-4316.2
-4318.51
-4320.78
-4323.03
-4325.31
-4327.63
-4329.93
-4332.19
-4334.45
-4336.74
-4339.05
-4341.34
-4343.6
-4345.87
-4348.17
-4350.47
-4352.75
-4355.02
-4357.3
-4359.6
-4361.89
-4364.16
-4366.43
-4368.73
-4371.02
-4373.3
-4375.57
-4377.85
-4380.15
-4382.45
-4384.72
-4386.98
-4389.27
-4391.58
-4393.87
-4396.14
-4398.4
-4400.69
-4403
-4405.29
-4407.55
-4409.82
-4412.11
-4414.42
-4416.71
-4418.97
-4421.24
-4423.54
-4425.84
-4428.12
-4430.39
-4432.67
-4434.97
-4437.26
-4439.54
-4441.81
-4444.1
-4446.39
-4448.68
-4450.95
-4453.23
-4455.52
-4457.82
-4460.1
-4462.36
-4464.65
-4466.95
-4469.24
-4471.52
-4473.78
-4476.07
-4478.38
-4480.67
-4482.94
-4485.2
-4487.49
-4489.8
-4492.09
-4494.36
-4496.63
-4498.92
-4501.22
-4503.51
-4505.78
-4508.05
-4510.34
-4512.64
-4514.93
-4517.2
-4519.48
-4521.77
-4524.06
-4526.34
-4528.62
-4530.9
-4533.2
-4535.49
-4537.76
-4540.04
-4542.33
-4544.63
-4546.91
-4549.18
-4551.46
-4553.76
-4556.05
-4558.33
-4560.6
-4562.88
-4565.18
-4567.48
-4569.76
-4572.03
-4574.31
-4576.61
-4578.91
-4581.19
-4583.45
-4585.74
-4588.03
-4590.33
-4592.61
-4594.88
-4597.16
-4599.46
-4601.75
-4604.03
-4606.31
-4608.6
-4610.89
-4613.18
-4615.46
-4617.74
-4620.03
-4622.32
-4624.6
-4626.88
-4629.16
-4631.46
-4633.75
-4636.03
-4638.31
-4640.59
-4642.89
-4645.18
-4647.46
-4649.73
-4652.02
-4654.32
-4656.61
-4658.89
-4661.16
-4663.45
-4665.75
-4668.04
-4670.32
-4672.6
-4674.88
-4677.18
-4679.47
-4681.75
-4684.03
-4686.31
-4688.61
-4690.9
-4693.18
-4695.46
-4697.75
-4700.04
-4702.33
-4704.61
-4706.89
-4709.18
-4711.48
-4713.76
-4716.04
-4718.33
-4720.62
-4722.91
-4725.2
-4727.48
-4729.76
-4732.05
-4734.35
-4736.64
-4738.91
-4741.19
-4743.49
-4745.79
-4748.07
-4750.35
-4752.63
-4754.93
-4757.22
-4759.51
-4761.79
-4764.07
-4766.36
-4768.66
-4770.95
-4773.23
-4775.51
-4777.8
-4780.1
-4782.39
-4784.67
-4786.95
-4789.25
-4791.54
-4793.82
-4796.11
-4798.4
-4800.69
-4802.98
-4805.26
-4807.55
-4809.84
-4812.13
-4814.43
-4816.71
-4818.99
-4821.28
-4823.58
-4825.87
-4828.16
-4830.43
-4832.72
-4835.02
-4837.32
-4839.6
-4841.88
-4844.17
-4846.46
-4848.76
-4851.05
-4853.33
-4855.62
-4857.91
-4860.2
-4862.5
-4864.78
-4867.07
-4869.36
-4871.65
-4873.94
-4876.23
-4878.52
-4880.82
-4883.11
-4885.39
-4887.68
-4889.97
-4892.27
-4894.56
-4896.85
-4899.13
-4901.42
-4903.72
-4906.02
-4908.31
-4910.59
-4912.87
-4915.17
-4917.47
-4919.76
-4922.05
-4924.33
-4926.63
-4928.93
-4931.22
-4933.51
-4935.79
-4938.09
-4940.38
-4942.68
-4944.97
-4947.26
-4949.55
-4951.84
-4954.13
-4956.42
-4958.72
-4961.02
-4963.31
-4965.6
-4967.89
-4970.18
-4972.48
-4974.78
-4977.07
-4979.35
-4981.64
-4983.94
-4986.24
-4988.54
-4990.83
-4993.11
-4995.41
-4997.71
-5000.01
-5002.3
-5004.59
-5006.88
-5009.17
-5011.47
-5013.77
-5016.06
-5018.35
-5020.65
-5022.94
-5025.24
-5027.53
-5029.83
-5032.13
-5034.42
-5036.71
-5039
-5041.3
-5043.61
-5045.9
-5048.19
-5050.48
-5052.78
-5055.08
-5057.39
-5059.68
-5061.97
-5064.26
-5066.56
-5068.86
-5071.17
-5073.46
-5075.75
-5078.04
-5080.34
-5082.65
-5084.95
-5087.24
-5089.54
-5091.83
-5094.13
-5096.43
-5098.73
-5101.03
-5103.33
-5105.62
-5107.92
-5110.22
-5112.52
-5114.82
-5117.12
-5119.41
-5121.71
-5124.01
-5126.32
-5128.62
-5130.92
-5133.21
-5135.5
-5137.81
-5140.12
-5142.42
-5144.72
-5147.01
-5149.31
-5151.61
-5153.92
-5156.22
-5158.52
-5160.82
-5163.12
-5165.42
-5167.72
-5170.03
-5172.33
-5174.63
-5176.93
-5179.23
-5181.53
-5183.84
-5186.15
-5188.45
-5190.75
-5193.05
-5195.35
-5197.66
-5199.97
-5202.27
-5204.57
-5206.87
-5209.17
-5211.48
-5213.79
-5216.1
-5218.39
-5220.7
-5223
-5225.31
-5227.62
-5229.92
-5232.23
-5234.53
-5236.84
-5239.14
-5241.45
-5243.76
-5246.07
-5248.37
-5250.67
-5252.98
-5255.29
-5257.6
-5259.91
-5262.22
-5264.52
-5266.82
-5269.14
-5271.45
-5273.76
-5276.06
-5278.37
-5280.67
-5282.99
-5285.3
-5287.61
-5289.92
-5292.22
-5294.53
-5296.85
-5299.16
-5301.47
-5303.78
-5306.09
-5308.4
-5310.71
-5313.02
-5315.34
-5317.65
-5319.96
-5322.27
-5324.58
-5326.89
-5329.21
-5331.53
-5333.84
-5336.15
-5338.46
-5340.77
-5343.09
-5345.41
-5347.72
-5350.03
-5352.34
-5354.66
-5356.98
-5359.3
-5361.61
-5363.93
-5366.24
-5368.55
-5370.87
-5373.19
-5375.51
-5377.83
-5380.14
-5382.46
-5384.77
-5387.09
-5389.41
-5391.73
-5394.05
-5396.37
-5398.68
-5401
-5403.32
-5405.65
-5407.97
-5410.29
-5412.6
-5414.92
-5417.25
-5419.57
-5421.89
-5424.21
-5426.53
-5428.85
-5431.18
-5433.5
-5435.83
-5438.15
-5440.47
-5442.79
-5445.12
-5447.44
-5449.77
-5452.09
-5454.42
-5456.74
-5459.06
-5461.39
-5463.72
-5466.04
-5468.37
-5470.7
-5473.02
-5475.35
-5477.68
-5480.01
-5482.34
-5484.67
-5486.99
-5489.32
-5491.65
-5493.98
-5496.31
-5498.64
-5500.97
-5503.3
-5505.63
-5507.96
-5510.29
-5512.62
-5514.96
-5517.29
-5519.62
-5521.96
-5524.29
-5526.62
-5528.96
-5531.29
-5533.63
-5535.96
-5538.29
-5540.63
-5542.97
-5545.3
-5547.64
-5549.98
-5552.31
-5554.65
-5556.99
-5559.33
-5561.67
-5564
-5566.34
-5568.68
-5571.02
-5573.36
-5575.7
-5578.04
-5580.39
-5582.73
-5585.07
-5587.41
-5589.75
-5592.1
-5594.44
-5596.78
-5599.13
-5601.47
-5603.81
-5606.16
-5608.51
-5610.86
-5613.2
-5615.54
-5617.89
-5620.24
-5622.59
-5624.94
-5627.29
-5629.63
-5631.98
-5634.33
-5636.68
-5639.03
-5641.39
-5643.74
-5646.09
-5648.44
-5650.79
-5653.15
-5655.5
-5657.86
-5660.21
-5662.57
-5664.92
-5667.27
-5669.63
-5671.99
-5674.35
-5676.7
-5679.06
-5681.42
-5683.78
-5686.14
-5688.5
-5690.86
-5693.22
-5695.58
-5697.94
-5700.3
-5702.66
-5705.03
-5707.39
-5709.76
-5712.12
-5714.48
-5716.85
-5719.21
-5721.58
-5723.95
-5726.32
-5728.68
-5731.05
-5733.42
-5735.79
-5738.16
-5740.53
-5742.9
-5745.27
-5747.64
-5750.01
-5752.39
-5754.76
-5757.14
-5759.51
-5761.89
-5764.26
-5766.64
-5769.01
-5771.39
-5773.77
-5776.15
-5778.53
-5780.91
-5783.29
-5785.67
-5788.05
-5790.44
-5792.82
-5795.2
-5797.58
-5799.96
-5802.35
-5804.74
-5807.13
-5809.51
-5811.9
-5814.29
-5816.67
-5819.06
-5821.45
-5823.85
-5826.24
-5828.63
-5831.02
-5833.41
-5835.8
-5838.2
-5840.6
-5843
-5845.39
-5847.79
-5850.18
-5852.58
-5854.98
-5857.38
-5859.79
-5862.18
-5864.58
-5866.98
-5869.39
-5871.79
-5874.2
-5876.61
-5879.01
-5881.42
-5883.82
-5886.23
-5888.64
-5891.05
-5893.47
-5895.88
-5898.29
-5900.7
-5903.11
-5905.53
-5907.95
-5910.37
-5912.78
-5915.2
-5917.61
-5920.03
-5922.45
-5924.88
-5927.3
-5929.72
-5932.14
-5934.57
-5936.99
-5939.42
-5941.85
-5944.28
-5946.7
-5949.13
-5951.56
-5953.99
-5956.42
-5958.86
-5961.29
-5963.73
-5966.16
-5968.6
-5971.03
-5973.47
-5975.91
-5978.36
-5980.8
-5983.24
-5985.68
-5988.12
-5990.57
-5993.02
-5995.47
-5997.91
-6000.36
-6002.81
-6005.26
-6007.71
-6010.17
-6012.62
-6015.08
-6017.53
-6019.99
-6022.44
-6024.9
-6027.36
-6029.83
-6032.29
-6034.76
-6037.22
-6039.68
-6042.15
-6044.62
-6047.09
-6049.56
-6052.03
-6054.5
-6056.97
-6059.45
-6061.92
-6064.4
-6066.88
-6069.36
-6071.84
-6074.32
-6076.8
-6079.29
-6081.78
-6084.26
-6086.75
-6089.24
-6091.73
-6094.22
-6096.71
-6099.21
-6101.7
-6104.2
-6106.7
-6109.2
-6111.69
-6114.2
-6116.7
-6119.21
-6121.72
-6124.22
-6126.73
-6129.24
-6131.75
-6134.26
-6136.78
-6139.3
-6141.81
-6144.33
-6146.85
-6149.37
-6151.89
-6154.42
-6156.94
-6159.47
-6162
-6164.53
-6167.06
-6169.59
-6172.13
-6174.67
-6177.21
-6179.75
-6182.28
-6184.83
-6187.37
-6189.92
-6192.47
-6195.02
-6197.57
-6200.12
-6202.67
-6205.23
-6207.78
-6210.34
-6212.91
-6215.47
-6218.03
-6220.6
-6223.16
-6225.73
-6228.31
-6230.88
-6233.46
-6236.03
-6238.61
-6241.19
-6243.77
-6246.35
-6248.94
-6251.53
-6254.12
-6256.71
-6259.3
-6261.9
-6264.5
-6267.1
-6269.7
-6272.3
-6274.91
-6277.51
-6280.12
-6282.73
-6285.35
-6287.97
-6290.58
-6293.2
-6295.82
-6298.45
-6301.07
-6303.7
-6306.33
-6308.97
-6311.6
-6314.24
-6316.88
-6319.52
-6322.16
-6324.81
-6327.46
-6330.11
-6332.76
-6335.42
-6338.07
-6340.73
-6343.4
-6346.06
-6348.73
-6351.4
-6354.07
-6356.75
-6359.42
-6362.1
-6364.78
-6367.47
-6370.16
-6372.85
-6375.54
-6378.23
-6380.93
-6383.63
-6386.34
-6389.04
-6391.75
-6394.46
-6397.17
-6399.89
-6402.61
-6405.33
-6408.06
-6410.79
-6413.52
-6416.25
-6418.99
-6421.73
-6424.47
-6427.22
-6429.96
-6432.72
-6435.47
-6438.23
-6440.99
-6443.75
-6446.52
-6449.29
-6452.06
-6454.84
-6457.62
-6460.4
-6463.18
-6465.97
-6468.77
-6471.56
-6474.36
-6477.16
-6479.97
-6482.78
-6485.59
-6488.41
-6491.23
-6494.05
-6496.88
-6499.71
-6502.54
-6505.38
-6508.22
-6511.07
-6513.92
-6516.77
-6519.62
-6522.48
-6525.34
-6528.21
-6531.08
-6533.96
-6536.84
-6539.72
-6542.61
-6545.5
-6548.39
-6551.29
-6554.2
-6557.11
-6560.02
-6562.94
-6565.85
-6568.78
-6571.71
-6574.64
-6577.58
-6580.52
-6583.47
-6586.42
-6589.37
-6592.33
-6595.29
-6598.26
-6601.24
-6604.21
-6607.2
-6610.19
-6613.18
-6616.17
-6619.17
-6622.18
-6625.19
-6628.21
-6631.23
-6634.26
-6637.29
-6640.33
-6643.37
-6646.41
-6649.47
-6652.53
-6655.59
-6658.66
-6661.73
-6664.81
-6667.89
-6670.98
-6674.08
-6677.18
-6680.29
-6683.4
-6686.52
-6689.64
-6692.77
-6695.91
-6699.05
-6702.2
-6705.36
-6708.52
-6711.68
-6714.85
-6718.03
-6721.22
-6724.41
-6727.61
-6730.82
-6734.03
-6737.25
-6740.47
-6743.71
-6746.95
-6750.2
-6753.45
-6756.71
-6759.98
-6763.26
-6766.54
-6769.84
-6773.14
-6776.45
-6779.77
-6783.09
-6786.43
-6789.77
-6793.12
-6796.48
-6799.91
-6802.22
-6806.1
-6806.92
-6809.36
-6814.78
-6818.03
-6822
-6825.57
-6829.13
-6832.68
-6836.16
-6839.68
-6843.11
-6846.61
-6850.07
-6853.56
-6857.02
-6860.52
-6864
-6867.49
-6870.98
-6874.5
-6878.02
-6881.55
-6885.09
-6888.63
-6892.19
-6895.75
-6899.32
-6902.9
-6906.49
-6910.08
-6913.69
-6917.3
-6920.93
-6924.56
-6928.21
-6931.87
-6935.53
-6939.2
-6942.89
-6946.58
-6950.28
-6953.99
-6957.71
-6961.44
-6965.19
-6968.94
-6972.7
-6976.48
-6980.26
-6984.05
-6987.86
-6991.67
-6995.49
-6999.33
-7003.17
-7007.03
-7010.9
-7014.78
-7018.67
-7022.57
-7026.49
-7030.41
-7034.34
-7038.29
-7042.24
-7046.21
-7050.19
-7054.19
-7058.19
-7062.21
-7066.23
-7070.27
-7074.33
-7078.39
-7082.47
-7086.56
-7090.66
-7094.77
-7098.89
-7103.03
-7107.18
-7111.34
-7115.52
-7119.71
-7123.92
-7128.13
-7132.36
-7136.6
-7140.85
-7145.12
-7149.4
-7153.7
-7158.01
-7162.34
-7166.67
-7171.02
-7175.38
-7179.76
-7184.16
-7188.57
-7192.99
-7197.42
-7201.87
-7206.33
-7210.81
-7215.3
-7219.81
-7224.34
-7228.88
-7233.43
-7238
-7242.59
-7247.18
-7251.8
-7256.42
-7261.07
-7265.73
-7270.41
-7275.1
-7279.81
-7284.53
-7289.27
-7294.02
-7298.8
-7303.59
-7308.39
-7313.22
-7318.05
-7322.91
-7327.77
-7332.66
-7337.56
-7342.48
-7347.42
-7352.38
-7357.35
-7362.34
-7367.35
-7372.37
-7377.41
-7382.46
-7387.54
-7392.63
-7397.75
-7402.87
-7408.02
-7413.18
-7418.36
-7423.56
-7428.78
-7434.01
-7439.27
-7444.54
-7449.83
-7455.14
-7460.46
-7465.8
-7471.17
-7476.55
-7481.95
-7487.37
-7492.8
-7498.26
-7503.73
-7509.22
-7514.74
-7520.27
-7525.82
-7531.39
-7536.97
-7542.58
-7548.2
-7553.84
-7559.5
-7565.18
-7570.88
-7576.6
-7582.34
-7588.1
-7593.87
-7599.67
-7605.48
-7611.31
-7617.16
-7623.04
-7628.93
-7634.84
-7640.76
-7646.7
-7652.67
-7658.65
-7664.65
-7670.67
-7676.72
-7682.78
-7688.85
-7694.95
-7701.06
-7707.19
-7713.35
-7719.52
-7725.71
-7731.91
-7738.14
-7744.38
-7750.64
-7756.92
-7763.21
-7769.52
-7775.86
-7782.21
-7788.58
-7794.96
-7801.36
-7807.78
-7814.22
-7820.67
-7827.14
-7833.62
-7840.13
-7846.65
-7853.18
-7859.73
-7866.3
-7872.88
-7879.47
-7886.09
-7892.72
-7899.36
-7906.02
-7912.69
-7919.38
-7926.08
-7932.8
-7939.53
-7946.27
-7953.03
-7959.8
-7966.58
-7973.37
-7980.18
-7986.99
-7993.82
-8000.67
-8007.52
-8014.39
-8021.26
-8028.15
-8035.04
-8041.95
-8048.86
-8055.79
-8062.72
-8069.67
-8076.62
-8083.58
-8090.54
-8097.52
-8104.5
-8111.48
-8118.48
-8125.47
-8132.48
-8139.49
-8146.51
-8153.53
-8160.55
-8167.57
-8174.6
-8181.64
-8188.67
-8195.71
-8202.75
-8209.79
-8216.83
-8223.87
-8230.91
-8237.94
-8244.98
-8252.02
-8259.06
-8266.09
-8273.12
-8280.15
-8287.17
-8294.19
-8301.2
-8308.21
-8315.21
-8322.21
-8329.2
-8336.18
-8343.16
-8350.12
-8357.08
-8364.03
-8370.97
-8377.9
-8384.82
-8391.73
-8398.62
-8405.51
-8412.38
-8419.23
-8426.08
-8432.91
-8439.72
-8446.53
-8453.31
-8460.08
-8466.83
-8473.57
-8480.28
-8486.98
-8493.67
-8500.33
-8506.97
-8513.59
-8520.19
-8526.77
-8533.33
-8539.86
-8546.38
-8552.87
-8559.34
-8565.78
-8572.2
-8578.59
-8584.96
-8591.31
-8597.62
-8603.92
-8610.18
-8616.42
-8622.63
-8628.81
-8634.96
-8641.08
-8647.17
-8653.24
-8659.27
-8665.27
-8671.24
-8677.18
-8683.09
-8688.97
-8694.81
-8700.63
-8706.4
-8712.15
-8717.86
-8723.54
-8729.19
-8734.8
-8740.38
-8745.92
-8751.42
-8756.89
-8762.33
-8767.73
-8773.1
-8778.42
-8783.71
-8788.97
-8794.19
-8799.37
-8804.51
-8809.62
-8814.69
-8819.72
-8824.72
-8829.68
-8834.6
-8839.48
-8844.33
-8849.14
-8853.91
-8858.64
-8863.34
-8867.99
-8872.61
-8877.2
-8881.74
-8886.25
-8890.71
-8895.15
-8899.54
-8903.9
-8908.22
-8912.5
-8916.74
-8920.95
-8925.12
-8929.25
-8933.35
-8937.41
-8941.43
-8945.42
-8949.37
-8953.28
-8957.16
-8961
-8964.81
-8968.58
-8972.32
-8976.03
-8979.7
-8983.33
-8986.93
-8990.5
-8994.03
-8997.53
-9001
-9004.43
-9007.83
-9011.2
-9014.54
-9017.85
-9021.12
-9024.37
-9027.58