/*--------------------------------*- C++ -*----------------------------------*\
  =========                 |
  \\      /  F ield         | OpenFOAM: The Open Source CFD Toolbox
   \\    /   O peration     | Website:  https://openfoam.org
    \\  /    A nd           | Version:  9
     \\/     M anipulation  |
\*---------------------------------------------------------------------------*/
FoamFile
{
    format      ascii;
    class       volScalarField;
    location    "0.036";
    object      mag(U);
}
// * * * * * * * * * * * * * * * * * * * * * * * * * * * * * * * * * * * * * //

dimensions      [0 1 -1 0 0 0 0];

internalField   nonuniform List<scalar> 
10000
(
6.75398
6.79455
6.84094
6.87882
6.91283
6.94701
6.98201
7.0173
7.05253
7.0877
7.12284
7.15799
7.19314
7.2283
7.26345
7.29861
7.33377
7.36892
7.40408
7.43923
7.47439
7.50955
7.54471
7.57986
7.61502
7.65018
7.68534
7.72049
7.75565
7.79081
7.82597
7.86113
7.89629
7.93145
7.96661
8.00177
8.03692
8.07208
8.10724
8.1424
8.17757
8.21273
8.24789
8.28305
8.31821
8.35337
8.38853
8.42369
8.45886
8.49402
8.52918
8.56434
8.5995
8.63467
8.66983
8.70499
8.74016
8.77532
8.81049
8.84565
8.88081
8.91598
8.95114
8.98631
9.02147
9.05664
9.0918
9.12697
9.16213
9.1973
9.23246
9.26763
9.3028
9.33796
9.37313
9.4083
9.44347
9.47863
9.5138
9.54897
9.58413
9.6193
9.65447
9.68964
9.72481
9.75998
9.79515
9.83032
9.86549
9.90066
9.93583
9.97099
10.0062
10.0413
10.0765
10.1117
10.1468
10.182
10.2172
10.2524
10.2875
10.3227
10.3579
10.393
10.4282
10.4634
10.4986
10.5337
10.5689
10.6041
10.6393
10.6744
10.7096
10.7448
10.7799
10.8151
10.8503
10.8855
10.9206
10.9558
10.991
11.0262
11.0614
11.0965
11.1317
11.1669
11.2021
11.2372
11.2724
11.3076
11.3428
11.378
11.4131
11.4483
11.4835
11.5187
11.5538
11.589
11.6242
11.6594
11.6946
11.7297
11.7649
11.8001
11.8353
11.8705
11.9056
11.9408
11.976
12.0112
12.0464
12.0815
12.1167
12.1519
12.1871
12.2223
12.2574
12.2926
12.3278
12.363
12.3982
12.4334
12.4685
12.5037
12.5389
12.5741
12.6093
12.6445
12.6796
12.7148
12.75
12.7852
12.8204
12.8556
12.8907
12.9259
12.9611
12.9963
13.0315
13.0667
13.1019
13.137
13.1722
13.2074
13.2426
13.2778
13.313
13.3482
13.3833
13.4185
13.4537
13.4889
13.5241
13.5593
13.5945
13.6297
13.6649
13.7
13.7352
13.7704
13.8056
13.8408
13.876
13.9112
13.9464
13.9816
14.0168
14.0519
14.0871
14.1223
14.1575
14.1927
14.2279
14.2631
14.2983
14.3335
14.3687
14.4039
14.4391
14.4742
14.5094
14.5446
14.5798
14.615
14.6502
14.6854
14.7206
14.7558
14.791
14.8262
14.8614
14.8966
14.9318
14.967
15.0022
15.0374
15.0726
15.1077
15.1429
15.1781
15.2133
15.2485
15.2837
15.3189
15.3541
15.3893
15.4245
15.4597
15.4949
15.5301
15.5653
15.6005
15.6357
15.6709
15.7061
15.7413
15.7765
15.8117
15.8469
15.8821
15.9173
15.9525
15.9877
16.0229
16.0581
16.0933
16.1285
16.1637
16.1989
16.2341
16.2693
16.3045
16.3397
16.3749
16.4101
16.4453
16.4805
16.5157
16.5509
16.5861
16.6214
16.6566
16.6918
16.727
16.7622
16.7974
16.8326
16.8678
16.903
16.9382
16.9734
17.0086
17.0438
17.079
17.1142
17.1494
17.1846
17.2198
17.255
17.2903
17.3255
17.3607
17.3959
17.4311
17.4663
17.5015
17.5367
17.5719
17.6071
17.6423
17.6775
17.7128
17.748
17.7832
17.8184
17.8536
17.8888
17.924
17.9592
17.9944
18.0296
18.0649
18.1001
18.1353
18.1705
18.2057
18.2409
18.2761
18.3113
18.3465
18.3818
18.417
18.4522
18.4874
18.5226
18.5578
18.593
18.6283
18.6635
18.6987
18.7339
18.7691
18.8043
18.8395
18.8748
18.91
18.9452
18.9804
19.0156
19.0508
19.086
19.1213
19.1565
19.1917
19.2269
19.2621
19.2973
19.3326
19.3678
19.403
19.4382
19.4734
19.5087
19.5439
19.5791
19.6143
19.6495
19.6847
19.72
19.7552
19.7904
19.8256
19.8608
19.8961
19.9313
19.9665
20.0017
20.0369
20.0722
20.1074
20.1426
20.1778
20.213
20.2483
20.2835
20.3187
20.3539
20.3892
20.4244
20.4596
20.4948
20.53
20.5653
20.6005
20.6357
20.6709
20.7062
20.7414
20.7766
20.8118
20.8471
20.8823
20.9175
20.9527
20.988
21.0232
21.0584
21.0936
21.1289
21.1641
21.1993
21.2345
21.2698
21.305
21.3402
21.3755
21.4107
21.4459
21.4811
21.5164
21.5516
21.5868
21.622
21.6573
21.6925
21.7277
21.763
21.7982
21.8334
21.8686
21.9039
21.9391
21.9743
22.0096
22.0448
22.08
22.1153
22.1505
22.1857
22.221
22.2562
22.2914
22.3266
22.3619
22.3971
22.4323
22.4676
22.5028
22.538
22.5733
22.6085
22.6437
22.679
22.7142
22.7494
22.7847
22.8199
22.8551
22.8904
22.9256
22.9608
22.9961
23.0313
23.0666
23.1018
23.137
23.1723
23.2075
23.2427
23.278
23.3132
23.3484
23.3837
23.4189
23.4541
23.4894
23.5246
23.5599
23.5951
23.6303
23.6656
23.7008
23.7361
23.7713
23.8065
23.8418
23.877
23.9122
23.9475
23.9827
24.018
24.0532
24.0884
24.1237
24.1589
24.1942
24.2294
24.2646
24.2999
24.3351
24.3704
24.4056
24.4409
24.4761
24.5113
24.5466
24.5818
24.6171
24.6523
24.6875
24.7228
24.758
24.7933
24.8285
24.8638
24.899
24.9343
24.9695
25.0047
25.04
25.0752
25.1105
25.1457
25.181
25.2162
25.2515
25.2867
25.3219
25.3572
25.3924
25.4277
25.4629
25.4982
25.5334
25.5687
25.6039
25.6392
25.6744
25.7097
25.7449
25.7802
25.8154
25.8507
25.8859
25.9212
25.9564
25.9917
26.0269
26.0621
26.0974
26.1326
26.1679
26.2031
26.2384
26.2736
26.3089
26.3441
26.3794
26.4147
26.4499
26.4852
26.5204
26.5557
26.5909
26.6262
26.6614
26.6967
26.7319
26.7672
26.8024
26.8377
26.8729
26.9082
26.9434
26.9787
27.0139
27.0492
27.0844
27.1197
27.155
27.1902
27.2255
27.2607
27.296
27.3312
27.3665
27.4017
27.437
27.4723
27.5075
27.5428
27.578
27.6133
27.6485
27.6838
27.719
27.7543
27.7896
27.8248
27.8601
27.8953
27.9306
27.9659
28.0011
28.0364
28.0716
28.1069
28.1421
28.1774
28.2127
28.2479
28.2832
28.3184
28.3537
28.389
28.4242
28.4595
28.4947
28.53
28.5653
28.6005
28.6358
28.671
28.7063
28.7416
28.7768
28.8121
28.8474
28.8826
28.9179
28.9531
28.9884
29.0237
29.0589
29.0942
29.1295
29.1647
29.2
29.2352
29.2705
29.3058
29.341
29.3763
29.4116
29.4468
29.4821
29.5174
29.5526
29.5879
29.6232
29.6584
29.6937
29.729
29.7642
29.7995
29.8348
29.87
29.9053
29.9406
29.9758
30.0111
30.0464
30.0816
30.1169
30.1522
30.1874
30.2227
30.258
30.2932
30.3285
30.3638
30.399
30.4343
30.4696
30.5049
30.5401
30.5754
30.6107
30.6459
30.6812
30.7165
30.7517
30.787
30.8223
30.8576
30.8928
30.9281
30.9634
30.9986
31.0339
31.0692
31.1045
31.1397
31.175
31.2103
31.2455
31.2808
31.3161
31.3514
31.3866
31.4219
31.4572
31.4925
31.5277
31.563
31.5983
31.6336
31.6688
31.7041
31.7394
31.7747
31.8099
31.8452
31.8805
31.9158
31.951
31.9863
32.0216
32.0569
32.0921
32.1274
32.1627
32.198
32.2332
32.2685
32.3038
32.3391
32.3744
32.4096
32.4449
32.4802
32.5155
32.5507
32.586
32.6213
32.6566
32.6919
32.7271
32.7624
32.7977
32.833
32.8683
32.9035
32.9388
32.9741
33.0094
33.0447
33.0799
33.1152
33.1505
33.1858
33.2211
33.2564
33.2916
33.3269
33.3622
33.3975
33.4328
33.468
33.5033
33.5386
33.5739
33.6092
33.6445
33.6797
33.715
33.7503
33.7856
33.8209
33.8562
33.8914
33.9267
33.962
33.9973
34.0326
34.0679
34.1032
34.1384
34.1737
34.209
34.2443
34.2796
34.3149
34.3502
34.3854
34.4207
34.456
34.4913
34.5266
34.5619
34.5972
34.6325
34.6677
34.703
34.7383
34.7736
34.8089
34.8442
34.8795
34.9148
34.95
34.9853
35.0206
35.0559
35.0912
35.1265
35.1618
35.1971
35.2324
35.2677
35.3029
35.3382
35.3735
35.4088
35.4441
35.4794
35.5147
35.55
35.5853
35.6206
35.6559
35.6911
35.7264
35.7617
35.797
35.8323
35.8676
35.9029
35.9382
35.9735
36.0088
36.0441
36.0794
36.1147
36.15
36.1853
36.2205
36.2558
36.2911
36.3264
36.3617
36.397
36.4323
36.4676
36.5029
36.5382
36.5735
36.6088
36.6441
36.6794
36.7147
36.75
36.7853
36.8206
36.8559
36.8912
36.9265
36.9618
36.9971
37.0324
37.0676
37.1029
37.1382
37.1735
37.2088
37.2441
37.2794
37.3147
37.35
37.3853
37.4206
37.4559
37.4912
37.5265
37.5618
37.5971
37.6324
37.6677
37.703
37.7383
37.7736
37.8089
37.8442
37.8795
37.9148
37.9501
37.9854
38.0207
38.056
38.0913
38.1266
38.162
38.1973
38.2326
38.2679
38.3032
38.3385
38.3738
38.4091
38.4444
38.4797
38.515
38.5503
38.5856
38.6209
38.6562
38.6915
38.7268
38.7621
38.7974
38.8327
38.868
38.9033
38.9386
38.9739
39.0092
39.0446
39.0799
39.1152
39.1505
39.1858
39.2211
39.2564
39.2917
39.327
39.3623
39.3976
39.4329
39.4682
39.5035
39.5389
39.5742
39.6095
39.6448
39.6801
39.7154
39.7507
39.786
39.8213
39.8566
39.8919
39.9272
39.9626
39.9979
40.0332
40.0685
40.1038
40.1391
40.1744
40.2097
40.245
40.2803
40.3157
40.351
40.3863
40.4216
40.4569
40.4922
40.5275
40.5628
40.5981
40.6335
40.6688
40.7041
40.7394
40.7747
40.81
40.8453
40.8807
40.916
40.9513
40.9866
41.0219
41.0572
41.0925
41.1278
41.1632
41.1985
41.2338
41.2691
41.3044
41.3397
41.375
41.4104
41.4457
41.481
41.5163
41.5516
41.5869
41.6223
41.6576
41.6929
41.7282
41.7635
41.7988
41.8342
41.8695
41.9048
41.9401
41.9754
42.0107
42.0461
42.0814
42.1167
42.152
42.1873
42.2227
42.258
42.2933
42.3286
42.3639
42.3992
42.4346
42.4699
42.5052
42.5405
42.5758
42.6112
42.6465
42.6818
42.7171
42.7524
42.7878
42.8231
42.8584
42.8937
42.929
42.9644
42.9997
43.035
43.0703
43.1057
43.141
43.1763
43.2116
43.2469
43.2823
43.3176
43.3529
43.3882
43.4236
43.4589
43.4942
43.5295
43.5648
43.6002
43.6355
43.6708
43.7061
43.7415
43.7768
43.8121
43.8474
43.8828
43.9181
43.9534
43.9887
44.0241
44.0594
44.0947
44.13
44.1654
44.2007
44.236
44.2713
44.3067
44.342
44.3773
44.4126
44.448
44.4833
44.5186
44.554
44.5893
44.6246
44.6599
44.6953
44.7306
44.7659
44.8013
44.8366
44.8719
44.9072
44.9426
44.9779
45.0132
45.0486
45.0839
45.1192
45.1545
45.1899
45.2252
45.2605
45.2959
45.3312
45.3665
45.4018
45.4372
45.4725
45.5078
45.5432
45.5785
45.6138
45.6492
45.6845
45.7198
45.7552
45.7905
45.8258
45.8612
45.8965
45.9318
45.9671
46.0025
46.0378
46.0731
46.1085
46.1438
46.1791
46.2145
46.2498
46.2851
46.3205
46.3558
46.3911
46.4265
46.4618
46.4971
46.5325
46.5678
46.6031
46.6385
46.6738
46.7092
46.7445
46.7798
46.8152
46.8505
46.8858
46.9212
46.9565
46.9918
47.0272
47.0625
47.0978
47.1332
47.1685
47.2039
47.2392
47.2745
47.3099
47.3452
47.3805
47.4159
47.4512
47.4866
47.5219
47.5572
47.5926
47.6279
47.6632
47.6986
47.7339
47.7693
47.8046
47.8399
47.8753
47.9106
47.946
47.9813
48.0166
48.052
48.0873
48.1226
48.158
48.1933
48.2287
48.264
48.2994
48.3347
48.37
48.4054
48.4407
48.4761
48.5114
48.5467
48.5821
48.6174
48.6528
48.6881
48.7234
48.7588
48.7941
48.8295
48.8648
48.9002
48.9355
48.9708
49.0062
49.0415
49.0769
49.1122
49.1476
49.1829
49.2182
49.2536
49.2889
49.3243
49.3596
49.395
49.4303
49.4657
49.501
49.5363
49.5717
49.607
49.6424
49.6777
49.7131
49.7484
49.7838
49.8191
49.8544
49.8898
49.9251
49.9605
49.9958
50.0312
50.0665
50.1019
50.1372
50.1726
50.2079
50.2433
50.2786
50.3139
50.3493
50.3846
50.42
50.4553
50.4907
50.526
50.5614
50.5967
50.6321
50.6674
50.7028
50.7381
50.7735
50.8088
50.8442
50.8795
50.9149
50.9502
50.9856
51.0209
51.0563
51.0916
51.127
51.1623
51.1977
51.233
51.2684
51.3037
51.3391
51.3744
51.4098
51.4451
51.4805
51.5158
51.5512
51.5865
51.6219
51.6572
51.6926
51.7279
51.7633
51.7986
51.834
51.8693
51.9047
51.94
51.9754
52.0107
52.0461
52.0814
52.1168
52.1521
52.1875
52.2229
52.2582
52.2936
52.3289
52.3643
52.3996
52.435
52.4703
52.5057
52.541
52.5764
52.6117
52.6471
52.6825
52.7178
52.7532
52.7885
52.8239
52.8592
52.8946
52.9299
52.9653
53.0006
53.036
53.0714
53.1067
53.1421
53.1774
53.2128
53.2481
53.2835
53.3189
53.3542
53.3896
53.4249
53.4603
53.4956
53.531
53.5663
53.6017
53.6371
53.6724
53.7078
53.7431
53.7785
53.8139
53.8492
53.8846
53.9199
53.9553
53.9906
54.026
54.0614
54.0967
54.1321
54.1674
54.2028
54.2382
54.2735
54.3089
54.3442
54.3796
54.4149
54.4503
54.4857
54.521
54.5564
54.5917
54.6271
54.6625
54.6978
54.7332
54.7685
54.8039
54.8393
54.8746
54.91
54.9454
54.9807
55.0161
55.0514
55.0868
55.1222
55.1575
55.1929
55.2282
55.2636
55.299
55.3343
55.3697
55.4051
55.4404
55.4758
55.5111
55.5465
55.5819
55.6172
55.6526
55.688
55.7233
55.7587
55.794
55.8294
55.8648
55.9001
55.9355
55.9709
56.0062
56.0416
56.077
56.1123
56.1477
56.183
56.2184
56.2538
56.2891
56.3245
56.3599
56.3952
56.4306
56.466
56.5013
56.5367
56.5721
56.6074
56.6428
56.6782
56.7135
56.7489
56.7843
56.8196
56.855
56.8903
56.9257
56.9611
56.9964
57.0318
57.0672
57.1025
57.1379
57.1733
57.2086
57.244
57.2794
57.3147
57.3501
57.3855
57.4208
57.4562
57.4916
57.527
57.5623
57.5977
57.6331
57.6684
57.7038
57.7392
57.7745
57.8099
57.8453
57.8806
57.916
57.9514
57.9867
58.0221
58.0575
58.0928
58.1282
58.1636
58.199
58.2343
58.2697
58.3051
58.3404
58.3758
58.4112
58.4465
58.4819
58.5173
58.5526
58.588
58.6234
58.6588
58.6941
58.7295
58.7649
58.8002
58.8356
58.871
58.9064
58.9417
58.9771
59.0125
59.0478
59.0832
59.1186
59.154
59.1893
59.2247
59.2601
59.2954
59.3308
59.3662
59.4016
59.4369
59.4723
59.5077
59.543
59.5784
59.6138
59.6492
59.6845
59.7199
59.7553
59.7906
59.826
59.8614
59.8968
59.9321
59.9675
60.0029
60.0383
60.0736
60.109
60.1444
60.1798
60.2151
60.2505
60.2859
60.3212
60.3566
60.392
60.4274
60.4627
60.4981
60.5335
60.5689
60.6042
60.6396
60.675
60.7104
60.7457
60.7811
60.8165
60.8519
60.8872
60.9226
60.958
60.9934
61.0287
61.0641
61.0995
61.1349
61.1702
61.2056
61.241
61.2764
61.3117
61.3471
61.3825
61.4179
61.4532
61.4886
61.524
61.5594
61.5947
61.6301
61.6655
61.7009
61.7363
61.7716
61.807
61.8424
61.8778
61.9131
61.9485
61.9839
62.0193
62.0546
62.09
62.1254
62.1608
62.1962
62.2315
62.2669
62.3023
62.3377
62.373
62.4084
62.4438
62.4792
62.5146
62.5499
62.5853
62.6207
62.6561
62.6914
62.7268
62.7622
62.7976
62.833
62.8683
62.9037
62.9391
62.9745
63.0098
63.0452
63.0806
63.116
63.1514
63.1867
63.2221
63.2575
63.2929
63.3283
63.3636
63.399
63.4344
63.4698
63.5052
63.5405
63.5759
63.6113
63.6467
63.682
63.7174
63.7528
63.7882
63.8236
63.8589
63.8943
63.9297
63.9651
64.0005
64.0358
64.0712
64.1066
64.142
64.1774
64.2127
64.2481
64.2835
64.3189
64.3543
64.3896
64.425
64.4604
64.4958
64.5312
64.5665
64.6019
64.6373
64.6727
64.7081
64.7435
64.7788
64.8142
64.8496
64.885
64.9204
64.9557
64.9911
65.0265
65.0619
65.0973
65.1326
65.168
65.2034
65.2388
65.2742
65.3096
65.3449
65.3803
65.4157
65.4511
65.4865
65.5218
65.5572
65.5926
65.628
65.6634
65.6988
65.7341
65.7695
65.8049
65.8403
65.8757
65.911
65.9464
65.9818
66.0172
66.0526
66.088
66.1233
66.1587
66.1941
66.2295
66.2649
66.3002
66.3356
66.371
66.4064
66.4418
66.4772
66.5125
66.5479
66.5833
66.6187
66.6541
66.6895
66.7248
66.7602
66.7956
66.831
66.8664
66.9018
66.9371
66.9725
67.0079
67.0433
67.0787
67.114
67.1494
67.1848
67.2202
67.2556
67.291
67.3263
67.3617
67.3971
67.4325
67.4679
67.5033
67.5386
67.574
67.6094
67.6448
67.6802
67.7156
67.7509
67.7863
67.8217
67.8571
67.8925
67.9279
67.9632
67.9986
68.034
68.0694
68.1048
68.1402
68.1755
68.2109
68.2463
68.2817
68.3171
68.3525
68.3878
68.4232
68.4586
68.494
68.5294
68.5648
68.6001
68.6355
68.6709
68.7063
68.7417
68.7771
68.8124
68.8478
68.8832
68.9186
68.954
68.9894
69.0247
69.0601
69.0955
69.1309
69.1663
69.2017
69.237
69.2724
69.3078
69.3432
69.3786
69.414
69.4494
69.4847
69.5201
69.5555
69.5909
69.6263
69.6617
69.697
69.7324
69.7678
69.8032
69.8386
69.874
69.9093
69.9447
69.9801
70.0155
70.0509
70.0863
70.1216
70.157
70.1924
70.2278
70.2632
70.2986
70.3339
70.3693
70.4047
70.4401
70.4755
70.5109
70.5462
70.5816
70.617
70.6524
70.6878
70.7232
70.7585
70.7939
70.8293
70.8647
70.9001
70.9354
70.9708
71.0062
71.0416
71.077
71.1124
71.1477
71.1831
71.2185
71.2539
71.2893
71.3247
71.36
71.3954
71.4308
71.4662
71.5016
71.537
71.5723
71.6077
71.6431
71.6785
71.7139
71.7493
71.7846
71.82
71.8554
71.8908
71.9262
71.9615
71.9969
72.0323
72.0677
72.1031
72.1385
72.1738
72.2092
72.2446
72.28
72.3154
72.3507
72.3861
72.4215
72.4569
72.4923
72.5277
72.563
72.5984
72.6338
72.6692
72.7046
72.7399
72.7753
72.8107
72.8461
72.8815
72.9168
72.9522
72.9876
73.023
73.0584
73.0938
73.1291
73.1645
73.1999
73.2353
73.2707
73.306
73.3414
73.3768
73.4122
73.4476
73.4829
73.5183
73.5537
73.5891
73.6245
73.6598
73.6952
73.7306
73.766
73.8014
73.8367
73.8721
73.9075
73.9429
73.9783
74.0136
74.049
74.0844
74.1198
74.1552
74.1905
74.2259
74.2613
74.2967
74.332
74.3674
74.4028
74.4382
74.4736
74.5089
74.5443
74.5797
74.6151
74.6505
74.6858
74.7212
74.7566
74.792
74.8273
74.8627
74.8981
74.9335
74.9688
75.0042
75.0396
75.075
75.1104
75.1457
75.1811
75.2165
75.2519
75.2872
75.3226
75.358
75.3934
75.4287
75.4641
75.4995
75.5349
75.5702
75.6056
75.641
75.6764
75.7118
75.7471
75.7825
75.8179
75.8533
75.8886
75.924
75.9594
75.9948
76.0301
76.0655
76.1009
76.1362
76.1716
76.207
76.2424
76.2777
76.3131
76.3485
76.3839
76.4192
76.4546
76.49
76.5254
76.5607
76.5961
76.6315
76.6668
76.7022
76.7376
76.773
76.8083
76.8437
76.8791
76.9145
76.9498
76.9852
77.0206
77.0559
77.0913
77.1267
77.1621
77.1974
77.2328
77.2682
77.3035
77.3389
77.3743
77.4096
77.445
77.4804
77.5158
77.5511
77.5865
77.6219
77.6572
77.6926
77.728
77.7633
77.7987
77.8341
77.8694
77.9048
77.9402
77.9755
78.0109
78.0463
78.0816
78.117
78.1524
78.1877
78.2231
78.2585
78.2938
78.3292
78.3646
78.3999
78.4353
78.4707
78.506
78.5414
78.5768
78.6121
78.6475
78.6829
78.7182
78.7536
78.789
78.8243
78.8597
78.895
78.9304
78.9658
79.0011
79.0365
79.0719
79.1072
79.1426
79.178
79.2133
79.2487
79.284
79.3194
79.3548
79.3901
79.4255
79.4608
79.4962
79.5316
79.5669
79.6023
79.6376
79.673
79.7084
79.7437
79.7791
79.8144
79.8498
79.8852
79.9205
79.9559
79.9912
80.0266
80.0619
80.0973
80.1327
80.168
80.2034
80.2387
80.2741
80.3094
80.3448
80.3802
80.4155
80.4509
80.4862
80.5216
80.5569
80.5923
80.6276
80.663
80.6983
80.7337
80.7691
80.8044
80.8398
80.8751
80.9105
80.9458
80.9812
81.0165
81.0519
81.0872
81.1226
81.1579
81.1933
81.2286
81.264
81.2993
81.3347
81.37
81.4054
81.4407
81.4761
81.5114
81.5468
81.5821
81.6175
81.6528
81.6882
81.7235
81.7588
81.7942
81.8295
81.8649
81.9002
81.9356
81.9709
82.0063
82.0416
82.077
82.1123
82.1476
82.183
82.2183
82.2537
82.289
82.3244
82.3597
82.395
82.4304
82.4657
82.5011
82.5364
82.5717
82.6071
82.6424
82.6778
82.7131
82.7484
82.7838
82.8191
82.8545
82.8898
82.9251
82.9605
82.9958
83.0311
83.0665
83.1018
83.1371
83.1725
83.2078
83.2432
83.2785
83.3138
83.3492
83.3845
83.4198
83.4552
83.4905
83.5258
83.5611
83.5965
83.6318
83.6671
83.7025
83.7378
83.7731
83.8085
83.8438
83.8791
83.9144
83.9498
83.9851
84.0204
84.0558
84.0911
84.1264
84.1617
84.1971
84.2324
84.2677
84.303
84.3384
84.3737
84.409
84.4443
84.4796
84.515
84.5503
84.5856
84.6209
84.6563
84.6916
84.7269
84.7622
84.7975
84.8329
84.8682
84.9035
84.9388
84.9741
85.0094
85.0448
85.0801
85.1154
85.1507
85.186
85.2213
85.2566
85.292
85.3273
85.3626
85.3979
85.4332
85.4685
85.5038
85.5391
85.5744
85.6098
85.6451
85.6804
85.7157
85.751
85.7863
85.8216
85.8569
85.8922
85.9275
85.9628
85.9981
86.0334
86.0687
86.104
86.1394
86.1747
86.21
86.2453
86.2806
86.3159
86.3512
86.3865
86.4218
86.4571
86.4924
86.5277
86.563
86.5982
86.6335
86.6688
86.7041
86.7394
86.7747
86.81
86.8453
86.8806
86.9159
86.9512
86.9865
87.0218
87.0571
87.0923
87.1276
87.1629
87.1982
87.2335
87.2688
87.3041
87.3394
87.3746
87.4099
87.4452
87.4805
87.5158
87.5511
87.5864
87.6216
87.6569
87.6922
87.7275
87.7628
87.798
87.8333
87.8686
87.9039
87.9391
87.9744
88.0097
88.045
88.0802
88.1155
88.1508
88.1861
88.2213
88.2566
88.2919
88.3271
88.3624
88.3977
88.433
88.4682
88.5035
88.5388
88.574
88.6093
88.6445
88.6798
88.7151
88.7503
88.7856
88.8209
88.8561
88.8914
88.9266
88.9619
88.9972
89.0324
89.0677
89.1029
89.1382
89.1734
89.2087
89.2439
89.2792
89.3144
89.3497
89.3849
89.4202
89.4554
89.4907
89.5259
89.5612
89.5964
89.6317
89.6669
89.7022
89.7374
89.7727
89.8079
89.8431
89.8784
89.9136
89.9489
89.9841
90.0193
90.0546
90.0898
90.125
90.1603
90.1955
90.2307
90.266
90.3012
90.3364
90.3717
90.4069
90.4421
90.4773
90.5126
90.5478
90.583
90.6182
90.6535
90.6887
90.7239
90.7591
90.7944
90.8296
90.8648
90.9
90.9352
90.9704
91.0057
91.0409
91.0761
91.1113
91.1465
91.1817
91.2169
91.2521
91.2873
91.3225
91.3577
91.393
91.4282
91.4634
91.4986
91.5338
91.569
91.6042
91.6394
91.6746
91.7098
91.745
91.7801
91.8153
91.8505
91.8857
91.9209
91.9561
91.9913
92.0265
92.0617
92.0969
92.132
92.1672
92.2024
92.2376
92.2728
92.308
92.3431
92.3783
92.4135
92.4487
92.4838
92.519
92.5542
92.5894
92.6245
92.6597
92.6949
92.73
92.7652
92.8004
92.8355
92.8707
92.9058
92.941
92.9762
93.0113
93.0465
93.0816
93.1168
93.1519
93.1871
93.2223
93.2574
93.2926
93.3277
93.3628
93.398
93.4331
93.4683
93.5034
93.5386
93.5737
93.6088
93.644
93.6791
93.7143
93.7494
93.7845
93.8196
93.8548
93.8899
93.925
93.9602
93.9953
94.0304
94.0655
94.1007
94.1358
94.1709
94.206
94.2411
94.2762
94.3114
94.3465
94.3816
94.4167
94.4518
94.4869
94.522
94.5571
94.5922
94.6273
94.6624
94.6975
94.7326
94.7677
94.8028
94.8379
94.873
94.9081
94.9432
94.9782
95.0133
95.0484
95.0835
95.1186
95.1536
95.1887
95.2238
95.2589
95.2939
95.329
95.3641
95.3992
95.4342
95.4693
95.5044
95.5394
95.5745
95.6095
95.6446
95.6796
95.7147
95.7498
95.7848
95.8199
95.8549
95.8899
95.925
95.96
95.9951
96.0301
96.0652
96.1002
96.1352
96.1703
96.2053
96.2403
96.2753
96.3104
96.3454
96.3804
96.4154
96.4504
96.4855
96.5205
96.5555
96.5905
96.6255
96.6605
96.6955
96.7305
96.7655
96.8005
96.8355
96.8705
96.9055
96.9405
96.9755
97.0105
97.0455
97.0805
97.1154
97.1504
97.1854
97.2204
97.2554
97.2903
97.3253
97.3603
97.3952
97.4302
97.4652
97.5001
97.5351
97.57
97.605
97.6399
97.6749
97.7098
97.7448
97.7797
97.8147
97.8496
97.8845
97.9195
97.9544
97.9893
98.0243
98.0592
98.0941
98.129
98.1639
98.1989
98.2338
98.2687
98.3036
98.3385
98.3734
98.4083
98.4432
98.4781
98.513
98.5479
98.5828
98.6177
98.6525
98.6874
98.7223
98.7572
98.7921
98.8269
98.8618
98.8967
98.9315
98.9664
99.0012
99.0361
99.071
99.1058
99.1407
99.1755
99.2103
99.2452
99.28
99.3149
99.3497
99.3845
99.4193
99.4542
99.489
99.5238
99.5586
99.5934
99.6282
99.6631
99.6979
99.7327
99.7675
99.8023
99.837
99.8718
99.9066
99.9414
99.9762
100.011
100.046
100.081
100.115
100.15
100.185
100.22
100.254
100.289
100.324
100.359
100.393
100.428
100.463
100.498
100.532
100.567
100.602
100.636
100.671
100.706
100.741
100.775
100.81
100.845
100.879
100.914
100.949
100.983
101.018
101.053
101.087
101.122
101.157
101.191
101.226
101.261
101.295
101.33
101.365
101.399
101.434
101.469
101.503
101.538
101.572
101.607
101.642
101.676
101.711
101.746
101.78
101.815
101.849
101.884
101.918
101.953
101.988
102.022
102.057
102.091
102.126
102.16
102.195
102.229
102.264
102.299
102.333
102.368
102.402
102.437
102.471
102.506
102.54
102.575
102.609
102.644
102.678
102.713
102.747
102.782
102.816
102.85
102.885
102.919
102.954
102.988
103.023
103.057
103.092
103.126
103.16
103.195
103.229
103.264
103.298
103.332
103.367
103.401
103.435
103.47
103.504
103.539
103.573
103.607
103.642
103.676
103.71
103.745
103.779
103.813
103.848
103.882
103.916
103.95
103.985
104.019
104.053
104.087
104.122
104.156
104.19
104.224
104.259
104.293
104.327
104.361
104.396
104.43
104.464
104.498
104.532
104.567
104.601
104.635
104.669
104.703
104.737
104.771
104.806
104.84
104.874
104.908
104.942
104.976
105.01
105.044
105.078
105.112
105.146
105.18
105.215
105.249
105.283
105.317
105.351
105.385
105.419
105.453
105.487
105.521
105.555
105.588
105.622
105.656
105.69
105.724
105.758
105.792
105.826
105.86
105.894
105.928
105.961
105.995
106.029
106.063
106.097
106.131
106.165
106.198
106.232
106.266
106.3
106.333
106.367
106.401
106.435
106.468
106.502
106.536
106.57
106.603
106.637
106.671
106.704
106.738
106.772
106.805
106.839
106.872
106.906
106.94
106.973
107.007
107.04
107.074
107.108
107.141
107.175
107.208
107.242
107.275
107.309
107.342
107.375
107.409
107.442
107.476
107.509
107.543
107.576
107.609
107.643
107.676
107.709
107.743
107.776
107.809
107.843
107.876
107.909
107.942
107.976
108.009
108.042
108.075
108.109
108.142
108.175
108.208
108.241
108.274
108.307
108.341
108.374
108.407
108.44
108.473
108.506
108.539
108.572
108.605
108.638
108.671
108.704
108.737
108.77
108.802
108.835
108.868
108.901
108.934
108.967
109
109.032
109.065
109.098
109.131
109.163
109.196
109.229
109.261
109.294
109.327
109.359
109.392
109.425
109.457
109.49
109.522
109.555
109.587
109.62
109.652
109.685
109.717
109.75
109.782
109.814
109.847
109.879
109.911
109.944
109.976
110.008
110.041
110.073
110.105
110.137
110.169
110.202
110.234
110.266
110.298
110.33
110.362
110.394
110.426
110.458
110.49
110.522
110.554
110.586
110.618
110.649
110.681
110.713
110.745
110.777
110.808
110.84
110.872
110.904
110.935
110.967
110.998
111.03
111.062
111.093
111.125
111.156
111.188
111.219
111.25
111.282
111.313
111.344
111.376
111.407
111.438
111.47
111.501
111.532
111.563
111.594
111.625
111.656
111.687
111.718
111.749
111.78
111.811
111.842
111.873
111.904
111.935
111.966
111.996
112.027
112.058
112.088
112.119
112.15
112.18
112.211
112.241
112.272
112.302
112.333
112.363
112.393
112.424
112.454
112.484
112.514
112.545
112.575
112.605
112.635
112.665
112.695
112.725
112.755
112.785
112.815
112.845
112.875
112.904
112.934
112.964
112.993
113.023
113.053
113.082
113.112
113.141
113.171
113.2
113.23
113.259
113.288
113.317
113.347
113.376
113.405
113.434
113.463
113.492
113.521
113.55
113.579
113.608
113.637
113.665
113.694
113.723
113.752
113.78
113.809
113.837
113.866
113.894
113.923
113.951
113.979
114.007
114.036
114.064
114.092
114.12
114.148
114.176
114.204
114.232
114.26
114.288
114.315
114.343
114.371
114.398
114.426
114.453
114.481
114.508
114.536
114.563
114.59
114.618
114.645
114.672
114.699
114.726
114.753
114.78
114.807
114.834
114.86
114.887
114.914
114.94
114.967
114.993
115.02
115.046
115.073
115.099
115.125
115.151
115.178
115.204
115.23
115.256
115.282
115.307
115.333
115.359
115.385
115.41
115.436
115.462
115.487
115.512
115.538
115.563
115.588
115.614
115.639
115.664
115.689
115.714
115.739
115.764
115.788
115.813
115.838
115.863
115.887
115.912
115.936
115.96
115.985
116.009
116.033
116.058
116.082
116.106
116.13
116.154
116.178
116.201
116.225
116.249
116.272
116.296
116.32
116.343
116.366
116.39
116.413
116.436
116.46
116.483
116.506
116.529
116.552
116.575
116.597
116.62
116.643
116.665
116.688
116.711
116.733
116.755
116.778
116.8
116.822
116.845
116.867
116.889
116.911
116.933
116.955
116.977
116.998
117.02
117.042
117.063
117.085
117.106
117.128
117.149
117.171
117.192
117.213
117.234
117.255
117.276
117.298
117.318
117.339
117.36
117.381
117.402
117.422
117.443
117.464
117.484
117.505
117.525
117.546
117.566
117.586
117.606
117.627
117.647
117.667
117.687
117.707
117.727
117.747
117.767
117.786
117.806
117.826
117.846
117.865
117.885
117.904
117.924
117.943
117.963
117.982
118.001
118.021
118.04
118.059
118.078
118.097
118.116
118.135
118.154
118.173
118.192
118.211
118.23
118.249
118.268
118.286
118.305
118.324
118.342
118.361
118.379
118.398
118.416
118.435
118.453
118.472
118.49
118.508
118.526
118.545
118.563
118.581
118.599
118.617
118.636
118.654
118.672
118.69
118.708
118.726
118.744
118.761
118.779
118.797
118.815
118.833
118.851
118.868
118.886
118.904
118.921
118.939
118.957
118.974
118.992
119.01
119.027
119.045
119.062
119.08
119.097
119.115
119.132
119.15
119.167
119.184
119.202
119.219
119.236
119.254
119.271
119.288
119.306
119.323
119.34
119.357
119.375
119.392
119.409
119.426
119.443
119.461
119.478
119.495
119.512
119.529
119.546
119.563
119.58
119.597
119.614
119.631
119.648
119.666
119.683
119.7
119.717
119.734
119.751
119.767
119.784
119.801
119.818
119.835
119.852
119.869
119.886
119.903
119.92
119.937
119.954
119.971
119.987
120.004
120.021
120.038
120.055
120.072
120.089
120.105
120.122
120.139
120.156
120.173
120.19
120.206
120.223
120.24
120.257
120.274
120.29
120.307
120.324
120.341
120.358
120.374
120.391
120.408
120.425
120.442
120.458
120.475
120.492
120.509
120.525
120.542
120.559
120.576
120.592
120.609
120.626
120.643
120.659
120.676
120.693
120.71
120.726
120.743
120.76
120.777
120.793
120.81
120.827
120.843
120.86
120.877
120.894
120.91
120.927
120.944
120.961
120.977
120.994
121.011
121.028
121.044
121.061
121.078
121.094
121.111
121.128
121.145
121.161
121.178
121.195
121.211
121.228
121.245
121.262
121.278
121.295
121.312
121.328
121.345
121.362
121.379
121.395
121.412
121.429
121.446
121.462
121.479
121.496
121.512
121.529
121.546
121.563
121.579
121.596
121.613
121.629
121.646
121.663
121.68
121.696
121.713
121.73
121.746
121.763
121.78
121.797
121.813
121.83
121.847
121.864
121.88
121.897
121.914
121.93
121.947
121.964
121.981
121.997
122.014
122.031
122.048
122.064
122.081
122.098
122.114
122.131
122.148
122.165
122.181
122.198
122.215
122.232
122.248
122.265
122.282
122.298
122.315
122.332
122.349
122.365
122.382
122.399
122.416
122.432
122.449
122.466
122.482
122.499
122.516
122.533
122.549
122.566
122.583
122.6
122.616
122.633
122.65
122.667
122.683
122.7
122.717
122.734
122.75
122.767
122.784
122.801
122.817
122.834
122.851
122.867
122.884
122.901
122.918
122.934
122.951
122.968
122.985
123.001
123.018
123.035
123.052
123.068
123.085
123.102
123.119
123.135
123.152
123.169
123.186
123.202
123.219
123.236
123.253
123.269
123.286
123.303
123.32
123.336
123.353
123.37
123.387
123.403
123.42
123.437
123.454
123.47
123.487
123.504
123.521
123.537
123.554
123.571
123.588
123.604
123.621
123.638
123.655
123.672
123.688
123.705
123.722
123.739
123.755
123.772
123.789
123.806
123.822
123.839
123.856
123.873
123.889
123.906
123.923
123.94
123.956
123.973
123.99
124.007
124.024
124.04
124.057
124.074
124.091
124.107
124.124
124.141
124.158
124.174
124.191
124.208
124.225
124.242
124.258
124.275
124.292
124.309
124.325
124.342
124.359
124.376
124.392
124.409
124.426
124.443
124.46
124.476
124.493
124.51
124.527
124.543
124.56
124.577
124.594
124.611
124.627
124.644
124.661
124.678
124.694
124.711
124.728
124.745
124.762
124.778
124.795
124.812
124.829
124.845
124.862
124.879
124.896
124.913
124.929
124.946
124.963
124.98
124.997
125.013
125.03
125.047
125.064
125.08
125.097
125.114
125.131
125.148
125.164
125.181
125.198
125.215
125.232
125.248
125.265
125.282
125.299
125.316
125.332
125.349
125.366
125.383
125.399
125.416
125.433
125.45
125.467
125.483
125.5
125.517
125.534
125.551
125.567
125.584
125.601
125.618
125.635
125.651
125.668
125.685
125.702
125.719
125.735
125.752
125.769
125.786
125.803
125.819
125.836
125.853
125.87
125.887
125.903
125.92
125.937
125.954
125.971
125.987
126.004
126.021
126.038
126.055
126.072
126.088
126.105
126.122
126.139