/*--------------------------------*- C++ -*----------------------------------*\
  =========                 |
  \\      /  F ield         | OpenFOAM: The Open Source CFD Toolbox
   \\    /   O peration     | Website:  https://openfoam.org
    \\  /    A nd           | Version:  9
     \\/     M anipulation  |
\*---------------------------------------------------------------------------*/
FoamFile
{
    format      ascii;
    class       surfaceScalarField;
    location    "0.036";
    object      phi;
}
// * * * * * * * * * * * * * * * * * * * * * * * * * * * * * * * * * * * * * //

dimensions      [1 0 -1 0 0 0 0];

internalField   nonuniform List<scalar> 
9999
(
6.56117
6.595
6.62883
6.66266
6.69649
6.73031
6.76414
6.79796
6.83178
6.8656
6.89942
6.93324
6.96706
7.00088
7.03469
7.06851
7.10232
7.13613
7.16994
7.20375
7.23756
7.27136
7.30517
7.33898
7.37278
7.40658
7.44038
7.47418
7.50798
7.54178
7.57557
7.60936
7.64316
7.67695
7.71074
7.74453
7.77832
7.81211
7.84589
7.87968
7.91346
7.94724
7.98103
8.01481
8.04859
8.08236
8.11614
8.14991
8.18368
8.21746
8.25124
8.28501
8.31878
8.35254
8.3863
8.42007
8.45383
8.4876
8.52137
8.55513
8.58889
8.62265
8.6564
8.69015
8.72391
8.75766
8.79142
8.82518
8.85894
8.89269
8.92644
8.96018
8.99392
9.02766
9.0614
9.09514
9.12889
9.16264
9.19639
9.23013
9.26387
9.29761
9.33134
9.36507
9.39879
9.43251
9.46624
9.49997
9.5337
9.56744
9.60118
9.63492
9.66866
9.70239
9.73611
9.76983
9.80354
9.83725
9.87095
9.90465
9.93836
9.97207
10.0058
10.0395
10.0732
10.107
10.1407
10.1744
10.2082
10.2419
10.2756
10.3093
10.343
10.3767
10.4104
10.4441
10.4778
10.5114
10.5451
10.5788
10.6124
10.6461
10.6798
10.7135
10.7472
10.781
10.8147
10.8485
10.8822
10.916
10.9498
10.9836
11.0174
11.0512
11.085
11.1188
11.1526
11.1864
11.2202
11.254
11.2879
11.3217
11.3555
11.3893
11.4232
11.457
11.4909
11.5247
11.5585
11.5924
11.6262
11.6601
11.6939
11.7277
11.7616
11.7954
11.8293
11.8631
11.8969
11.9308
11.9646
11.9984
12.0323
12.0661
12.0999
12.1338
12.1676
12.2015
12.2353
12.2691
12.303
12.3368
12.3706
12.4045
12.4383
12.4721
12.506
12.5398
12.5736
12.6075
12.6413
12.6751
12.709
12.7428
12.7766
12.8104
12.8443
12.8781
12.9119
12.9458
12.9796
13.0134
13.0473
13.0811
13.1149
13.1487
13.1826
13.2164
13.2502
13.2841
13.3179
13.3517
13.3855
13.4194
13.4532
13.487
13.5209
13.5547
13.5885
13.6223
13.6562
13.69
13.7238
13.7576
13.7915
13.8253
13.8591
13.8929
13.9268
13.9606
13.9944
14.0282
14.062
14.0959
14.1297
14.1635
14.1973
14.2312
14.265
14.2988
14.3326
14.3664
14.4003
14.4341
14.4679
14.5017
14.5355
14.5694
14.6032
14.637
14.6708
14.7046
14.7385
14.7723
14.8061
14.8399
14.8737
14.9075
14.9414
14.9752
15.009
15.0428
15.0766
15.1104
15.1443
15.1781
15.2119
15.2457
15.2795
15.3133
15.3472
15.381
15.4148
15.4486
15.4824
15.5162
15.55
15.5838
15.6177
15.6515
15.6853
15.7191
15.7529
15.7867
15.8205
15.8543
15.8881
15.922
15.9558
15.9896
16.0234
16.0572
16.091
16.1248
16.1586
16.1924
16.2262
16.2601
16.2939
16.3277
16.3615
16.3953
16.4291
16.4629
16.4967
16.5305
16.5643
16.5981
16.6319
16.6657
16.6995
16.7333
16.7671
16.8009
16.8348
16.8686
16.9024
16.9362
16.97
17.0038
17.0376
17.0714
17.1052
17.139
17.1728
17.2066
17.2404
17.2742
17.308
17.3418
17.3756
17.4094
17.4432
17.477
17.5108
17.5446
17.5784
17.6122
17.646
17.6798
17.7136
17.7474
17.7812
17.815
17.8488
17.8826
17.9164
17.9501
17.9839
18.0177
18.0515
18.0853
18.1191
18.1529
18.1867
18.2205
18.2543
18.2881
18.3219
18.3557
18.3895
18.4233
18.4571
18.4909
18.5246
18.5584
18.5922
18.626
18.6598
18.6936
18.7274
18.7612
18.795
18.8288
18.8626
18.8963
18.9301
18.9639
18.9977
19.0315
19.0653
19.0991
19.1329
19.1666
19.2004
19.2342
19.268
19.3018
19.3356
19.3694
19.4032
19.4369
19.4707
19.5045
19.5383
19.5721
19.6059
19.6396
19.6734
19.7072
19.741
19.7748
19.8086
19.8423
19.8761
19.9099
19.9437
19.9775
20.0113
20.045
20.0788
20.1126
20.1464
20.1802
20.2139
20.2477
20.2815
20.3153
20.3491
20.3828
20.4166
20.4504
20.4842
20.5179
20.5517
20.5855
20.6193
20.653
20.6868
20.7206
20.7544
20.7881
20.8219
20.8557
20.8895
20.9232
20.957
20.9908
21.0246
21.0583
21.0921
21.1259
21.1597
21.1934
21.2272
21.261
21.2948
21.3285
21.3623
21.3961
21.4298
21.4636
21.4974
21.5311
21.5649
21.5987
21.6325
21.6662
21.7
21.7338
21.7675
21.8013
21.8351
21.8688
21.9026
21.9364
21.9701
22.0039
22.0377
22.0714
22.1052
22.139
22.1727
22.2065
22.2403
22.274
22.3078
22.3415
22.3753
22.4091
22.4428
22.4766
22.5104
22.5441
22.5779
22.6116
22.6454
22.6792
22.7129
22.7467
22.7804
22.8142
22.848
22.8817
22.9155
22.9492
22.983
23.0168
23.0505
23.0843
23.118
23.1518
23.1855
23.2193
23.2531
23.2868
23.3206
23.3543
23.3881
23.4218
23.4556
23.4894
23.5231
23.5569
23.5906
23.6244
23.6581
23.6919
23.7256
23.7594
23.7931
23.8269
23.8606
23.8944
23.9281
23.9619
23.9956
24.0294
24.0631
24.0969
24.1306
24.1644
24.1981
24.2319
24.2656
24.2994
24.3331
24.3669
24.4006
24.4344
24.4681
24.5019
24.5356
24.5694
24.6031
24.6369
24.6706
24.7043
24.7381
24.7718
24.8056
24.8393
24.8731
24.9068
24.9406
24.9743
25.008
25.0418
25.0755
25.1093
25.143
25.1768
25.2105
25.2442
25.278
25.3117
25.3455
25.3792
25.4129
25.4467
25.4804
25.5142
25.5479
25.5816
25.6154
25.6491
25.6828
25.7166
25.7503
25.7841
25.8178
25.8515
25.8853
25.919
25.9527
25.9865
26.0202
26.0539
26.0877
26.1214
26.1551
26.1889
26.2226
26.2563
26.2901
26.3238
26.3575
26.3913
26.425
26.4587
26.4925
26.5262
26.5599
26.5936
26.6274
26.6611
26.6948
26.7286
26.7623
26.796
26.8297
26.8635
26.8972
26.9309
26.9647
26.9984
27.0321
27.0658
27.0996
27.1333
27.167
27.2007
27.2345
27.2682
27.3019
27.3356
27.3694
27.4031
27.4368
27.4705
27.5042
27.538
27.5717
27.6054
27.6391
27.6729
27.7066
27.7403
27.774
27.8077
27.8415
27.8752
27.9089
27.9426
27.9763
28.0101
28.0438
28.0775
28.1112
28.1449
28.1786
28.2124
28.2461
28.2798
28.3135
28.3472
28.3809
28.4146
28.4484
28.4821
28.5158
28.5495
28.5832
28.6169
28.6506
28.6844
28.7181
28.7518
28.7855
28.8192
28.8529
28.8866
28.9203
28.954
28.9878
29.0215
29.0552
29.0889
29.1226
29.1563
29.19
29.2237
29.2574
29.2911
29.3248
29.3585
29.3923
29.426
29.4597
29.4934
29.5271
29.5608
29.5945
29.6282
29.6619
29.6956
29.7293
29.763
29.7967
29.8304
29.8641
29.8978
29.9315
29.9652
29.9989
30.0326
30.0663
30.1
30.1337
30.1674
30.2011
30.2348
30.2685
30.3022
30.3359
30.3696
30.4033
30.437
30.4707
30.5044
30.5381
30.5718
30.6055
30.6392
30.6729
30.7066
30.7403
30.774
30.8077
30.8414
30.875
30.9087
30.9424
30.9761
31.0098
31.0435
31.0772
31.1109
31.1446
31.1783
31.212
31.2457
31.2793
31.313
31.3467
31.3804
31.4141
31.4478
31.4815
31.5152
31.5489
31.5825
31.6162
31.6499
31.6836
31.7173
31.751
31.7847
31.8184
31.852
31.8857
31.9194
31.9531
31.9868
32.0205
32.0541
32.0878
32.1215
32.1552
32.1889
32.2226
32.2562
32.2899
32.3236
32.3573
32.391
32.4246
32.4583
32.492
32.5257
32.5594
32.593
32.6267
32.6604
32.6941
32.7277
32.7614
32.7951
32.8288
32.8624
32.8961
32.9298
32.9635
32.9972
33.0308
33.0645
33.0982
33.1318
33.1655
33.1992
33.2329
33.2665
33.3002
33.3339
33.3675
33.4012
33.4349
33.4686
33.5022
33.5359
33.5696
33.6032
33.6369
33.6706
33.7042
33.7379
33.7716
33.8052
33.8389
33.8726
33.9062
33.9399
33.9736
34.0073
34.0409
34.0746
34.1082
34.1419
34.1756
34.2092
34.2429
34.2766
34.3102
34.3439
34.3776
34.4112
34.4449
34.4785
34.5122
34.5459
34.5795
34.6132
34.6468
34.6805
34.7142
34.7478
34.7815
34.8151
34.8488
34.8824
34.9161
34.9498
34.9834
35.0171
35.0507
35.0844
35.118
35.1517
35.1853
35.219
35.2527
35.2863
35.32
35.3536
35.3873
35.4209
35.4546
35.4882
35.5219
35.5555
35.5892
35.6228
35.6565
35.6901
35.7238
35.7574
35.7911
35.8247
35.8584
35.892
35.9257
35.9593
35.993
36.0266
36.0603
36.0939
36.1276
36.1612
36.1948
36.2285
36.2621
36.2958
36.3294
36.3631
36.3967
36.4304
36.464
36.4976
36.5313
36.5649
36.5986
36.6322
36.6658
36.6995
36.7331
36.7668
36.8004
36.8341
36.8677
36.9013
36.935
36.9686
37.0022
37.0359
37.0695
37.1031
37.1368
37.1704
37.2041
37.2377
37.2713
37.305
37.3386
37.3722
37.4059
37.4395
37.4731
37.5068
37.5404
37.574
37.6077
37.6413
37.6749
37.7086
37.7422
37.7758
37.8094
37.8431
37.8767
37.9103
37.944
37.9776
38.0112
38.0448
38.0785
38.1121
38.1457
38.1793
38.213
38.2466
38.2802
38.3139
38.3475
38.3811
38.4147
38.4483
38.482
38.5156
38.5492
38.5828
38.6165
38.6501
38.6837
38.7173
38.7509
38.7846
38.8182
38.8518
38.8854
38.919
38.9527
38.9863
39.0199
39.0535
39.0871
39.1208
39.1544
39.188
39.2216
39.2552
39.2888
39.3224
39.3561
39.3897
39.4233
39.4569
39.4905
39.5241
39.5577
39.5913
39.625
39.6586
39.6922
39.7258
39.7594
39.793
39.8266
39.8602
39.8938
39.9274
39.9611
39.9947
40.0283
40.0619
40.0955
40.1291
40.1627
40.1963
40.2299
40.2635
40.2971
40.3307
40.3643
40.3979
40.4315
40.4652
40.4988
40.5323
40.566
40.5996
40.6332
40.6668
40.7004
40.734
40.7676
40.8012
40.8348
40.8684
40.902
40.9356
40.9692
41.0028
41.0364
41.0699
41.1036
41.1372
41.1707
41.2043
41.2379
41.2715
41.3051
41.3387
41.3723
41.4059
41.4395
41.4731
41.5067
41.5403
41.5739
41.6075
41.6411
41.6747
41.7082
41.7418
41.7754
41.809
41.8426
41.8762
41.9098
41.9434
41.977
42.0105
42.0441
42.0777
42.1113
42.1449
42.1785
42.2121
42.2456
42.2792
42.3128
42.3464
42.38
42.4136
42.4472
42.4807
42.5143
42.5479
42.5815
42.6151
42.6487
42.6822
42.7158
42.7494
42.783
42.8165
42.8501
42.8837
42.9173
42.9509
42.9844
43.018
43.0516
43.0852
43.1187
43.1523
43.1859
43.2195
43.253
43.2866
43.3202
43.3538
43.3873
43.4209
43.4545
43.4881
43.5216
43.5552
43.5888
43.6223
43.6559
43.6895
43.7231
43.7566
43.7902
43.8238
43.8573
43.8909
43.9245
43.958
43.9916
44.0252
44.0587
44.0923
44.1259
44.1594
44.193
44.2266
44.2601
44.2937
44.3273
44.3608
44.3944
44.4279
44.4615
44.4951
44.5286
44.5622
44.5957
44.6293
44.6629
44.6964
44.73
44.7636
44.7971
44.8307
44.8642
44.8978
44.9313
44.9649
44.9985
45.032
45.0656
45.0991
45.1327
45.1662
45.1998
45.2333
45.2669
45.3004
45.334
45.3676
45.4011
45.4346
45.4682
45.5018
45.5353
45.5689
45.6024
45.6359
45.6695
45.7031
45.7366
45.7701
45.8037
45.8372
45.8708
45.9043
45.9379
45.9714
46.005
46.0385
46.0721
46.1056
46.1391
46.1727
46.2062
46.2398
46.2733
46.3069
46.3404
46.3739
46.4075
46.441
46.4746
46.5081
46.5417
46.5752
46.6087
46.6423
46.6758
46.7093
46.7429
46.7764
46.8099
46.8435
46.877
46.9106
46.9441
46.9776
47.0112
47.0447
47.0782
47.1118
47.1453
47.1788
47.2124
47.2459
47.2794
47.3129
47.3465
47.38
47.4135
47.4471
47.4806
47.5141
47.5476
47.5812
47.6147
47.6482
47.6818
47.7153
47.7488
47.7823
47.8159
47.8494
47.8829
47.9164
47.95
47.9835
48.017
48.0505
48.0841
48.1176
48.1511
48.1846
48.2181
48.2517
48.2852
48.3187
48.3522
48.3857
48.4193
48.4528
48.4863
48.5198
48.5533
48.5869
48.6204
48.6539
48.6874
48.7209
48.7544
48.7879
48.8215
48.855
48.8885
48.922
48.9555
48.989
49.0225
49.056
49.0896
49.1231
49.1566
49.1901
49.2236
49.2571
49.2906
49.3241
49.3576
49.3911
49.4246
49.4581
49.4916
49.5252
49.5587
49.5922
49.6257
49.6592
49.6927
49.7262
49.7597
49.7932
49.8267
49.8602
49.8937
49.9272
49.9607
49.9942
50.0277
50.0612
50.0947
50.1282
50.1617
50.1952
50.2287
50.2622
50.2957
50.3292
50.3627
50.3962
50.4297
50.4632
50.4967
50.5302
50.5637
50.5971
50.6306
50.6641
50.6976
50.7311
50.7646
50.7981
50.8316
50.8651
50.8986
50.9321
50.9655
50.999
51.0325
51.066
51.0995
51.133
51.1665
51.2
51.2334
51.2669
51.3004
51.3339
51.3674
51.4009
51.4344
51.4678
51.5013
51.5348
51.5683
51.6018
51.6352
51.6687
51.7022
51.7357
51.7692
51.8026
51.8361
51.8696
51.9031
51.9366
51.97
52.0035
52.037
52.0705
52.1039
52.1374
52.1709
52.2044
52.2378
52.2713
52.3048
52.3383
52.3717
52.4052
52.4387
52.4721
52.5056
52.5391
52.5726
52.606
52.6395
52.673
52.7064
52.7399
52.7734
52.8068
52.8403
52.8738
52.9072
52.9407
52.9742
53.0076
53.0411
53.0746
53.108
53.1415
53.1749
53.2084
53.2419
53.2753
53.3088
53.3423
53.3757
53.4092
53.4426
53.4761
53.5096
53.543
53.5765
53.6099
53.6434
53.6768
53.7103
53.7437
53.7772
53.8107
53.8441
53.8776
53.911
53.9445
53.9779
54.0114
54.0448
54.0783
54.1117
54.1452
54.1786
54.2121
54.2455
54.279
54.3124
54.3459
54.3793
54.4128
54.4462
54.4797
54.5131
54.5466
54.58
54.6134
54.6469
54.6803
54.7138
54.7472
54.7807
54.8141
54.8476
54.881
54.9144
54.9479
54.9813
55.0148
55.0482
55.0816
55.1151
55.1485
55.182
55.2154
55.2488
55.2823
55.3157
55.3491
55.3826
55.416
55.4494
55.4829
55.5163
55.5497
55.5832
55.6166
55.65
55.6835
55.7169
55.7503
55.7838
55.8172
55.8506
55.8841
55.9175
55.9509
55.9843
56.0178
56.0512
56.0846
56.118
56.1515
56.1849
56.2183
56.2517
56.2852
56.3186
56.352
56.3854
56.4189
56.4523
56.4857
56.5191
56.5525
56.586
56.6194
56.6528
56.6862
56.7196
56.7531
56.7865
56.8199
56.8533
56.8867
56.9201
56.9536
56.987
57.0204
57.0538
57.0872
57.1206
57.154
57.1874
57.2209
57.2543
57.2877
57.3211
57.3545
57.3879
57.4213
57.4547
57.4881
57.5215
57.555
57.5884
57.6218
57.6552
57.6886
57.722
57.7554
57.7888
57.8222
57.8556
57.889
57.9224
57.9558
57.9892
58.0226
58.056
58.0894
58.1228
58.1562
58.1896
58.223
58.2564
58.2898
58.3232
58.3566
58.39
58.4234
58.4568
58.4902
58.5236
58.557
58.5904
58.6238
58.6572
58.6905
58.7239
58.7573
58.7907
58.8241
58.8575
58.8909
58.9243
58.9577
58.9911
59.0244
59.0578
59.0912
59.1246
59.158
59.1914
59.2248
59.2581
59.2915
59.3249
59.3583
59.3917
59.4251
59.4585
59.4918
59.5252
59.5586
59.592
59.6254
59.6587
59.6921
59.7255
59.7589
59.7922
59.8256
59.859
59.8924
59.9258
59.9591
59.9925
60.0259
60.0593
60.0926
60.126
60.1594
60.1927
60.2261
60.2595
60.2929
60.3262
60.3596
60.393
60.4263
60.4597
60.4931
60.5264
60.5598
60.5932
60.6265
60.6599
60.6933
60.7266
60.76
60.7934
60.8267
60.8601
60.8935
60.9268
60.9602
60.9935
61.0269
61.0603
61.0936
61.127
61.1603
61.1937
61.2271
61.2604
61.2938
61.3271
61.3605
61.3938
61.4272
61.4606
61.4939
61.5273
61.5606
61.594
61.6273
61.6607
61.694
61.7274
61.7607
61.7941
61.8274
61.8608
61.8941
61.9275
61.9608
61.9942
62.0275
62.0609
62.0942
62.1275
62.1609
62.1942
62.2276
62.2609
62.2943
62.3276
62.361
62.3943
62.4276
62.461
62.4943
62.5277
62.561
62.5943
62.6277
62.661
62.6943
62.7277
62.761
62.7944
62.8277
62.861
62.8944
62.9277
62.961
62.9944
63.0277
63.061
63.0944
63.1277
63.161
63.1943
63.2277
63.261
63.2943
63.3277
63.361
63.3943
63.4276
63.461
63.4943
63.5276
63.5609
63.5943
63.6276
63.6609
63.6942
63.7276
63.7609
63.7942
63.8275
63.8608
63.8942
63.9275
63.9608
63.9941
64.0274
64.0608
64.0941
64.1274
64.1607
64.194
64.2273
64.2607
64.294
64.3273
64.3606
64.3939
64.4272
64.4605
64.4938
64.5272
64.5605
64.5938
64.6271
64.6604
64.6937
64.727
64.7603
64.7936
64.8269
64.8602
64.8935
64.9268
64.9601
64.9935
65.0268
65.0601
65.0934
65.1267
65.16
65.1933
65.2266
65.2599
65.2932
65.3265
65.3598
65.3931
65.4264
65.4597
65.4929
65.5262
65.5595
65.5928
65.6261
65.6594
65.6927
65.726
65.7593
65.7926
65.8259
65.8592
65.8925
65.9258
65.959
65.9923
66.0256
66.0589
66.0922
66.1255
66.1588
66.1921
66.2253
66.2586
66.2919
66.3252
66.3585
66.3918
66.425
66.4583
66.4916
66.5249
66.5582
66.5914
66.6247
66.658
66.6913
66.7246
66.7578
66.7911
66.8244
66.8577
66.8909
66.9242
66.9575
66.9908
67.024
67.0573
67.0906
67.1238
67.1571
67.1904
67.2237
67.2569
67.2902
67.3235
67.3567
67.39
67.4233
67.4565
67.4898
67.5231
67.5563
67.5896
67.6228
67.6561
67.6894
67.7226
67.7559
67.7892
67.8224
67.8557
67.8889
67.9222
67.9555
67.9887
68.022
68.0552
68.0885
68.1217
68.155
68.1882
68.2215
68.2548
68.288
68.3213
68.3545
68.3878
68.421
68.4543
68.4875
68.5208
68.554
68.5873
68.6205
68.6537
68.687
68.7202
68.7535
68.7867
68.82
68.8532
68.8865
68.9197
68.9529
68.9862
69.0194
69.0527
69.0859
69.1192
69.1524
69.1856
69.2189
69.2521
69.2853
69.3186
69.3518
69.385
69.4183
69.4515
69.4847
69.518
69.5512
69.5844
69.6177
69.6509
69.6841
69.7174
69.7506
69.7838
69.8171
69.8503
69.8835
69.9167
69.95
69.9832
70.0164
70.0496
70.0829
70.1161
70.1493
70.1825
70.2157
70.249
70.2822
70.3154
70.3486
70.3818
70.4151
70.4483
70.4815
70.5147
70.5479
70.5811
70.6144
70.6476
70.6808
70.714
70.7472
70.7804
70.8136
70.8468
70.8801
70.9133
70.9465
70.9797
71.0129
71.0461
71.0793
71.1125
71.1457
71.1789
71.2121
71.2453
71.2785
71.3117
71.3449
71.3781
71.4113
71.4445
71.4777
71.5109
71.5441
71.5773
71.6105
71.6437
71.6769
71.7101
71.7433
71.7765
71.8097
71.8429
71.8761
71.9093
71.9425
71.9757
72.0089
72.042
72.0752
72.1084
72.1416
72.1748
72.208
72.2412
72.2744
72.3075
72.3407
72.3739
72.4071
72.4403
72.4735
72.5066
72.5398
72.573
72.6062
72.6394
72.6725
72.7057
72.7389
72.7721
72.8052
72.8384
72.8716
72.9048
72.9379
72.9711
73.0043
73.0375
73.0706
73.1038
73.137
73.1701
73.2033
73.2365
73.2697
73.3028
73.336
73.3692
73.4023
73.4355
73.4687
73.5018
73.535
73.5681
73.6013
73.6345
73.6676
73.7008
73.7339
73.7671
73.8003
73.8334
73.8666
73.8997
73.9329
73.966
73.9992
74.0324
74.0655
74.0987
74.1318
74.165
74.1981
74.2313
74.2644
74.2976
74.3307
74.3639
74.397
74.4302
74.4633
74.4964
74.5296
74.5627
74.5959
74.629
74.6622
74.6953
74.7284
74.7616
74.7947
74.8279
74.861
74.8941
74.9273
74.9604
74.9936
75.0267
75.0598
75.093
75.1261
75.1592
75.1924
75.2255
75.2586
75.2917
75.3249
75.358
75.3911
75.4243
75.4574
75.4905
75.5236
75.5568
75.5899
75.623
75.6561
75.6893
75.7224
75.7555
75.7886
75.8217
75.8549
75.888
75.9211
75.9542
75.9873
76.0205
76.0536
76.0867
76.1198
76.1529
76.186
76.2191
76.2522
76.2854
76.3185
76.3516
76.3847
76.4178
76.4509
76.484
76.5171
76.5502
76.5833
76.6164
76.6495
76.6826
76.7157
76.7488
76.7819
76.815
76.8481
76.8812
76.9143
76.9474
76.9805
77.0136
77.0467
77.0798
77.1129
77.146
77.1791
77.2122
77.2453
77.2784
77.3115
77.3445
77.3776
77.4107
77.4438
77.4769
77.51
77.5431
77.5762
77.6092
77.6423
77.6754
77.7085
77.7416
77.7746
77.8077
77.8408
77.8739
77.907
77.94
77.9731
78.0062
78.0393
78.0723
78.1054
78.1385
78.1716
78.2046
78.2377
78.2708
78.3038
78.3369
78.37
78.403
78.4361
78.4692
78.5022
78.5353
78.5684
78.6014
78.6345
78.6676
78.7006
78.7337
78.7667
78.7998
78.8329
78.8659
78.899
78.932
78.9651
78.9981
79.0312
79.0642
79.0973
79.1303
79.1634
79.1964
79.2295
79.2625
79.2956
79.3286
79.3617
79.3947
79.4278
79.4608
79.4939
79.5269
79.5599
79.593
79.626
79.6591
79.6921
79.7251
79.7582
79.7912
79.8242
79.8573
79.8903
79.9234
79.9564
79.9894
80.0224
80.0555
80.0885
80.1215
80.1546
80.1876
80.2206
80.2536
80.2867
80.3197
80.3527
80.3857
80.4188
80.4518
80.4848
80.5178
80.5508
80.5839
80.6169
80.6499
80.6829
80.7159
80.7489
80.782
80.815
80.848
80.881
80.914
80.947
80.98
81.013
81.046
81.079
81.112
81.1451
81.1781
81.2111
81.2441
81.2771
81.3101
81.3431
81.3761
81.4091
81.4421
81.4751
81.5081
81.5411
81.574
81.607
81.64
81.673
81.706
81.739
81.772
81.805
81.838
81.871
81.9039
81.9369
81.9699
82.0029
82.0359
82.0689
82.1018
82.1348
82.1678
82.2008
82.2338
82.2667
82.2997
82.3327
82.3657
82.3986
82.4316
82.4646
82.4976
82.5305
82.5635
82.5965
82.6294
82.6624
82.6954
82.7283
82.7613
82.7943
82.8272
82.8602
82.8932
82.9261
82.9591
82.992
83.025
83.0579
83.0909
83.1239
83.1568
83.1898
83.2227
83.2557
83.2886
83.3216
83.3545
83.3875
83.4204
83.4534
83.4863
83.5193
83.5522
83.5851
83.6181
83.651
83.684
83.7169
83.7498
83.7828
83.8157
83.8486
83.8816
83.9145
83.9474
83.9804
84.0133
84.0462
84.0792
84.1121
84.145
84.178
84.2109
84.2438
84.2767
84.3096
84.3426
84.3755
84.4084
84.4413
84.4742
84.5072
84.5401
84.573
84.6059
84.6388
84.6717
84.7047
84.7376
84.7705
84.8034
84.8363
84.8692
84.9021
84.935
84.9679
85.0008
85.0337
85.0666
85.0995
85.1324
85.1653
85.1982
85.2311
85.264
85.2969
85.3298
85.3627
85.3956
85.4285
85.4613
85.4942
85.5271
85.56
85.5929
85.6258
85.6587
85.6915
85.7244
85.7573
85.7902
85.8231
85.8559
85.8888
85.9217
85.9546
85.9874
86.0203
86.0532
86.0861
86.1189
86.1518
86.1847
86.2175
86.2504
86.2833
86.3161
86.349
86.3818
86.4147
86.4476
86.4804
86.5133
86.5461
86.579
86.6118
86.6447
86.6775
86.7104
86.7432
86.7761
86.8089
86.8418
86.8746
86.9075
86.9403
86.9731
87.006
87.0388
87.0717
87.1045
87.1373
87.1702
87.203
87.2358
87.2687
87.3015
87.3343
87.3672
87.4
87.4328
87.4656
87.4985
87.5313
87.5641
87.5969
87.6297
87.6626
87.6954
87.7282
87.761
87.7938
87.8266
87.8594
87.8922
87.9251
87.9579
87.9907
88.0235
88.0563
88.0891
88.1219
88.1547
88.1875
88.2203
88.2531
88.2859
88.3187
88.3515
88.3843
88.417
88.4498
88.4826
88.5154
88.5482
88.581
88.6138
88.6465
88.6793
88.7121
88.7449
88.7777
88.8104
88.8432
88.876
88.9088
88.9415
88.9743
89.0071
89.0398
89.0726
89.1054
89.1381
89.1709
89.2036
89.2364
89.2692
89.3019
89.3347
89.3674
89.4002
89.4329
89.4657
89.4984
89.5312
89.5639
89.5967
89.6294
89.6622
89.6949
89.7276
89.7604
89.7931
89.8258
89.8586
89.8913
89.924
89.9568
89.9895
90.0222
90.055
90.0877
90.1204
90.1531
90.1858
90.2186
90.2513
90.284
90.3167
90.3494
90.3821
90.4148
90.4476
90.4803
90.513
90.5457
90.5784
90.6111
90.6438
90.6765
90.7092
90.7419
90.7746
90.8073
90.8399
90.8726
90.9053
90.938
90.9707
91.0034
91.0361
91.0687
91.1014
91.1341
91.1668
91.1995
91.2321
91.2648
91.2975
91.3301
91.3628
91.3955
91.4281
91.4608
91.4935
91.5261
91.5588
91.5914
91.6241
91.6567
91.6894
91.722
91.7547
91.7873
91.82
91.8526
91.8853
91.9179
91.9505
91.9832
92.0158
92.0484
92.0811
92.1137
92.1463
92.179
92.2116
92.2442
92.2768
92.3094
92.3421
92.3747
92.4073
92.4399
92.4725
92.5051
92.5377
92.5703
92.6029
92.6355
92.6681
92.7007
92.7333
92.7659
92.7985
92.8311
92.8637
92.8963
92.9289
92.9615
92.994
93.0266
93.0592
93.0918
93.1244
93.1569
93.1895
93.2221
93.2546
93.2872
93.3198
93.3523
93.3849
93.4174
93.45
93.4826
93.5151
93.5477
93.5802
93.6128
93.6453
93.6778
93.7104
93.7429
93.7755
93.808
93.8405
93.8731
93.9056
93.9381
93.9706
94.0031
94.0357
94.0682
94.1007
94.1332
94.1657
94.1982
94.2307
94.2632
94.2958
94.3283
94.3608
94.3932
94.4257
94.4582
94.4907
94.5232
94.5557
94.5882
94.6207
94.6531
94.6856
94.7181
94.7506
94.783
94.8155
94.848
94.8804
94.9129
94.9454
94.9778
95.0103
95.0427
95.0752
95.1076
95.1401
95.1725
95.2049
95.2374
95.2698
95.3022
95.3347
95.3671
95.3995
95.432
95.4644
95.4968
95.5292
95.5616
95.594
95.6264
95.6588
95.6912
95.7236
95.756
95.7884
95.8208
95.8532
95.8856
95.918
95.9504
95.9828
96.0151
96.0475
96.0799
96.1123
96.1446
96.177
96.2093
96.2417
96.2741
96.3064
96.3388
96.3711
96.4035
96.4358
96.4681
96.5005
96.5328
96.5651
96.5975
96.6298
96.6621
96.6944
96.7267
96.7591
96.7914
96.8237
96.856
96.8883
96.9206
96.9529
96.9852
97.0175
97.0497
97.082
97.1143
97.1466
97.1789
97.2111
97.2434
97.2757
97.3079
97.3402
97.3724
97.4047
97.4369
97.4692
97.5014
97.5337
97.5659
97.5981
97.6304
97.6626
97.6948
97.727
97.7592
97.7914
97.8237
97.8559
97.8881
97.9203
97.9525
97.9846
98.0168
98.049
98.0812
98.1134
98.1455
98.1777
98.2099
98.242
98.2742
98.3064
98.3385
98.3707
98.4028
98.4349
98.4671
98.4992
98.5313
98.5635
98.5956
98.6277
98.6598
98.6919
98.724
98.7561
98.7882
98.8203
98.8524
98.8845
98.9166
98.9487
98.9807
99.0128
99.0449
99.0769
99.109
99.1411
99.1731
99.2051
99.2372
99.2692
99.3013
99.3333
99.3653
99.3973
99.4293
99.4613
99.4934
99.5254
99.5573
99.5893
99.6213
99.6533
99.6853
99.7173
99.7492
99.7812
99.8132
99.8451
99.8771
99.909
99.9409
99.9729
100.005
100.037
100.069
100.101
100.132
100.164
100.196
100.228
100.26
100.292
100.324
100.356
100.388
100.419
100.451
100.483
100.515
100.547
100.579
100.611
100.642
100.674
100.706
100.738
100.77
100.801
100.833
100.865
100.897
100.929
100.96
100.992
101.024
101.056
101.087
101.119
101.151
101.183
101.214
101.246
101.278
101.309
101.341
101.373
101.405
101.436
101.468
101.5
101.531
101.563
101.595
101.626
101.658
101.689
101.721
101.753
101.784
101.816
101.847
101.879
101.911
101.942
101.974
102.005
102.037
102.068
102.1
102.132
102.163
102.195
102.226
102.258
102.289
102.321
102.352
102.384
102.415
102.446
102.478
102.509
102.541
102.572
102.604
102.635
102.667
102.698
102.729
102.761
102.792
102.823
102.855
102.886
102.917
102.949
102.98
103.011
103.043
103.074
103.105
103.137
103.168
103.199
103.23
103.262
103.293
103.324
103.355
103.387
103.418
103.449
103.48
103.511
103.542
103.574
103.605
103.636
103.667
103.698
103.729
103.76
103.791
103.823
103.854
103.885
103.916
103.947
103.978
104.009
104.04
104.071
104.102
104.133
104.164
104.195
104.226
104.257
104.287
104.318
104.349
104.38
104.411
104.442
104.473
104.504
104.534
104.565
104.596
104.627
104.658
104.688
104.719
104.75
104.781
104.811
104.842
104.873
104.903
104.934
104.965
104.995
105.026
105.057
105.087
105.118
105.148
105.179
105.21
105.24
105.271
105.301
105.332
105.362
105.393
105.423
105.453
105.484
105.514
105.545
105.575
105.605
105.636
105.666
105.697
105.727
105.757
105.787
105.818
105.848
105.878
105.908
105.939
105.969
105.999
106.029
106.059
106.089
106.12
106.15
106.18
106.21
106.24
106.27
106.3
106.33
106.36
106.39
106.42
106.45
106.48
106.51
106.539
106.569
106.599
106.629
106.659
106.689
106.718
106.748
106.778
106.807
106.837
106.867
106.897
106.926
106.956
106.985
107.015
107.045
107.074
107.104
107.133
107.163
107.192
107.221
107.251
107.28
107.31
107.339
107.368
107.398
107.427
107.456
107.486
107.515
107.544
107.573
107.602
107.632
107.661
107.69
107.719
107.748
107.777
107.806
107.835
107.864
107.893
107.922
107.951
107.98
108.008
108.037
108.066
108.095
108.124
108.152
108.181
108.21
108.238
108.267
108.296
108.324
108.353
108.381
108.41
108.438
108.467
108.495
108.524
108.552
108.581
108.609
108.637
108.665
108.694
108.722
108.75
108.778
108.807
108.835
108.863
108.891
108.919
108.947
108.975
109.003
109.031
109.059
109.087
109.114
109.142
109.17
109.198
109.226
109.253
109.281
109.309
109.336
109.364
109.391
109.419
109.447
109.474
109.501
109.529
109.556
109.584
109.611
109.638
109.666
109.693
109.72
109.747
109.774
109.802
109.829
109.856
109.883
109.91
109.937
109.964
109.991
110.018
110.044
110.071
110.098
110.125
110.152
110.178
110.205
110.232
110.258
110.285
110.311
110.338
110.364
110.391
110.417
110.444
110.47
110.496
110.523
110.549
110.575
110.601
110.628
110.654
110.68
110.706
110.732
110.758
110.784
110.81
110.836
110.862
110.888
110.914
110.939
110.965
110.991
111.017
111.042
111.068
111.094
111.119
111.145
111.17
111.196
111.221
111.247
111.272
111.298
111.323
111.348
111.374
111.399
111.424
111.449
111.475
111.5
111.525
111.55
111.575
111.6
111.625
111.65
111.675
111.7
111.725
111.75
111.775
111.799
111.824
111.849
111.874
111.898
111.923
111.948
111.972
111.997
112.022
112.046
112.071
112.095
112.12
112.144
112.169
112.193
112.217
112.242
112.266
112.29
112.315
112.339
112.363
112.387
112.411
112.436
112.46
112.484
112.508
112.532
112.556
112.58
112.604
112.628
112.652
112.676
112.7
112.724
112.748
112.772
112.796
112.819
112.843
112.867
112.891
112.915
112.938
112.962
112.986
113.009
113.033
113.057
113.08
113.104
113.128
113.151
113.175
113.198
113.222
113.245
113.269
113.292
113.316
113.339
113.363
113.386
113.41
113.433
113.456
113.48
113.503
113.527
113.55
113.573
113.597
113.62
113.643
113.666
113.69
113.713
113.736
113.759
113.783
113.806
113.829
113.852
113.876
113.899
113.922
113.945
113.968
113.991
114.015
114.038
114.061
114.084
114.107
114.13
114.153
114.176
114.2
114.223
114.246
114.269
114.292
114.315
114.338
114.361
114.384
114.407
114.43
114.453
114.476
114.499
114.522
114.545
114.568
114.591
114.614
114.637
114.66
114.683
114.706
114.729
114.752
114.775
114.798
114.821
114.844
114.867
114.89
114.913
114.936
114.959
114.982
115.005
115.028
115.051
115.074
115.097
115.12
115.143
115.166
115.188
115.211
115.234
115.257
115.28
115.303
115.326
115.349
115.372
115.395
115.418
115.441
115.464
115.487
115.51
115.533
115.556
115.579
115.602
115.624
115.647
115.67
115.693
115.716
115.739
115.762
115.785
115.808
115.831
115.854
115.877
115.9
115.923
115.946
115.969
115.992
116.015
116.038
116.061
116.084
116.107
116.13
116.153
116.176
116.199
116.222
116.245
116.268
116.291
116.314
116.337
116.359
116.382
116.405
116.428
116.451
116.475
116.498
116.521
116.544
116.567
116.59
116.613
116.636
116.659
116.682
116.705
116.728
116.751
116.774
116.797
116.82
116.843
116.866
116.889
116.912
116.935
116.958
116.981
117.004
117.027
117.05
117.073
117.096
117.12
117.143
117.166
117.189
117.212
117.235
117.258
117.281
117.304
117.327
117.35
117.373
117.397
117.42
117.443
117.466
117.489
117.512
117.535
117.558
117.581
117.605
117.628
117.651
117.674
117.697
117.72
117.743
117.767
117.79
117.813
117.836
117.859
117.882
117.905
117.929
117.952
117.975
117.998
118.021
118.044
118.068
118.091
118.114
118.137
118.16
118.184
118.207
118.23
118.253
118.276
118.3
118.323
118.346
118.369
118.392
118.416
118.439
118.462
118.485
118.509
118.532
118.555
118.578
118.602
118.625
118.648
118.671
118.694
118.718
118.741
118.764
118.788
118.811
118.834
118.857
118.881
118.904
118.927
118.95
118.974
118.997
119.02
119.044
119.067
119.09
119.113
119.137
119.16
119.183
119.207
119.23
119.253
119.277
119.3
119.323
119.347
119.37
119.393
119.417
119.44
119.463
119.487
119.51
119.533
119.557
119.58
119.603
119.627
119.65
119.674
119.697
119.72
119.744
119.767
119.79
119.814
119.837
119.861
119.884
119.907
119.931
119.954
119.978
120.001
120.024
120.048
120.071
120.095
120.118
120.141
120.165
120.188
120.212
120.235
120.259
120.282
120.305
120.329
120.352
120.376
120.399
120.423
120.446
120.47
120.493
120.517
120.54
120.563
120.587
120.61
120.634
120.657
120.681
120.704
120.728
120.751
120.775
120.798
120.822
120.845
120.869
120.892
120.916
120.939
120.963
120.986
121.01
121.033
121.057
121.081
121.104
121.128
121.151
121.175
121.198
121.222
121.245
121.269
121.292
121.316
121.34
121.363
121.387
121.41
121.434
121.457
121.481
121.505
121.528
121.552
121.575
121.599
121.622
121.646
121.67
121.693
121.717
121.741
121.764
121.788
121.811
121.835
121.859
121.882
121.906
121.929
121.953
121.977
122
122.024
122.048
122.071
122.095
122.119
122.142
122.166
122.19
122.213
122.237
122.261
122.284
122.308
122.332
122.355
122.379
122.403
122.426
122.45
122.474
122.497
122.521
122.545
122.569
122.592
122.616
122.64
122.663
122.687
122.711
122.735
122.758
122.782
122.806
122.829
122.853
122.877
122.901
122.924
122.948
122.972
122.996
123.019
123.043
123.067
123.091
123.115
123.138
123.162
123.186
123.21
123.233
123.257
123.281
123.305
123.329
123.352
123.376
123.4
123.424
123.448
123.471
123.495
123.519
123.543
123.567
123.591
123.614
123.638
123.662
123.686
123.71
123.734
123.757
123.781
123.805
123.829
123.853