/*--------------------------------*- C++ -*----------------------------------*\
  =========                 |
  \\      /  F ield         | OpenFOAM: The Open Source CFD Toolbox
   \\    /   O peration     | Website:  https://openfoam.org
    \\  /    A nd           | Version:  9
     \\/     M anipulation  |
\*---------------------------------------------------------------------------*/
FoamFile
{
    format      ascii;
    class       surfaceScalarField;
    location    "0.036";
    object      phi_0;
}
// * * * * * * * * * * * * * * * * * * * * * * * * * * * * * * * * * * * * * //

dimensions      [1 0 -1 0 0 0 0];

internalField   nonuniform List<scalar> 
9999
(
6.5612
6.59504
6.62887
6.6627
6.69653
6.73036
6.76419
6.79801
6.83184
6.86566
6.89949
6.93331
6.96713
7.00095
7.03476
7.06858
7.10239
7.13621
7.17002
7.20383
7.23764
7.27145
7.30526
7.33907
7.37287
7.40667
7.44048
7.47428
7.50808
7.54188
7.57568
7.60947
7.64327
7.67706
7.71086
7.74465
7.77844
7.81223
7.84602
7.8798
7.91359
7.94737
7.98116
8.01494
8.04872
8.0825
8.11628
8.15006
8.18383
8.21761
8.25139
8.28516
8.31893
8.3527
8.38647
8.42023
8.454
8.48777
8.52154
8.55531
8.58907
8.62283
8.65658
8.69034
8.72409
8.75785
8.79161
8.82537
8.85913
8.89289
8.92664
8.96038
8.99412
9.02786
9.06161
9.09535
9.1291
9.16285
9.1966
9.23035
9.2641
9.29783
9.33157
9.36529
9.39902
9.43275
9.46648
9.50021
9.53395
9.56769
9.60143
9.63517
9.66891
9.70264
9.73637
9.77009
9.8038
9.83751
9.87121
9.90492
9.93863
9.97234
10.0061
10.0398
10.0735
10.1073
10.141
10.1747
10.2085
10.2422
10.2759
10.3096
10.3433
10.377
10.4107
10.4444
10.4781
10.5117
10.5454
10.5791
10.6128
10.6464
10.6801
10.7138
10.7476
10.7813
10.815
10.8488
10.8825
10.9163
10.9501
10.9839
11.0177
11.0515
11.0853
11.1191
11.153
11.1868
11.2206
11.2544
11.2882
11.322
11.3559
11.3897
11.4236
11.4574
11.4912
11.5251
11.5589
11.5928
11.6266
11.6604
11.6943
11.7281
11.762
11.7958
11.8297
11.8635
11.8973
11.9312
11.965
11.9988
12.0327
12.0665
12.1004
12.1342
12.168
12.2019
12.2357
12.2696
12.3034
12.3372
12.3711
12.4049
12.4387
12.4726
12.5064
12.5402
12.5741
12.6079
12.6417
12.6756
12.7094
12.7432
12.7771
12.8109
12.8447
12.8786
12.9124
12.9462
12.9801
13.0139
13.0477
13.0816
13.1154
13.1492
13.1831
13.2169
13.2507
13.2846
13.3184
13.3522
13.3861
13.4199
13.4537
13.4875
13.5214
13.5552
13.589
13.6229
13.6567
13.6905
13.7243
13.7582
13.792
13.8258
13.8596
13.8935
13.9273
13.9611
13.9949
14.0288
14.0626
14.0964
14.1303
14.1641
14.1979
14.2317
14.2655
14.2994
14.3332
14.367
14.4008
14.4347
14.4685
14.5023
14.5361
14.57
14.6038
14.6376
14.6714
14.7052
14.7391
14.7729
14.8067
14.8405
14.8743
14.9082
14.942
14.9758
15.0096
15.0434
15.0773
15.1111
15.1449
15.1787
15.2125
15.2463
15.2802
15.314
15.3478
15.3816
15.4154
15.4492
15.4831
15.5169
15.5507
15.5845
15.6183
15.6521
15.6859
15.7198
15.7536
15.7874
15.8212
15.855
15.8888
15.9226
15.9565
15.9903
16.0241
16.0579
16.0917
16.1255
16.1593
16.1931
16.2269
16.2608
16.2946
16.3284
16.3622
16.396
16.4298
16.4636
16.4974
16.5312
16.565
16.5988
16.6327
16.6665
16.7003
16.7341
16.7679
16.8017
16.8355
16.8693
16.9031
16.9369
16.9707
17.0045
17.0383
17.0721
17.1059
17.1397
17.1735
17.2073
17.2412
17.275
17.3088
17.3426
17.3764
17.4102
17.444
17.4778
17.5116
17.5454
17.5792
17.613
17.6468
17.6806
17.7144
17.7482
17.782
17.8158
17.8496
17.8834
17.9172
17.951
17.9848
18.0186
18.0524
18.0862
18.12
18.1538
18.1876
18.2213
18.2551
18.2889
18.3227
18.3565
18.3903
18.4241
18.4579
18.4917
18.5255
18.5593
18.5931
18.6269
18.6607
18.6945
18.7283
18.7621
18.7959
18.8296
18.8634
18.8972
18.931
18.9648
18.9986
19.0324
19.0662
19.1
19.1338
19.1676
19.2013
19.2351
19.2689
19.3027
19.3365
19.3703
19.4041
19.4379
19.4716
19.5054
19.5392
19.573
19.6068
19.6406
19.6744
19.7082
19.7419
19.7757
19.8095
19.8433
19.8771
19.9109
19.9446
19.9784
20.0122
20.046
20.0798
20.1136
20.1473
20.1811
20.2149
20.2487
20.2825
20.3163
20.35
20.3838
20.4176
20.4514
20.4852
20.5189
20.5527
20.5865
20.6203
20.6541
20.6878
20.7216
20.7554
20.7892
20.8229
20.8567
20.8905
20.9243
20.958
20.9918
21.0256
21.0594
21.0932
21.1269
21.1607
21.1945
21.2283
21.262
21.2958
21.3296
21.3633
21.3971
21.4309
21.4647
21.4984
21.5322
21.566
21.5998
21.6335
21.6673
21.7011
21.7348
21.7686
21.8024
21.8361
21.8699
21.9037
21.9375
21.9712
22.005
22.0388
22.0725
22.1063
22.1401
22.1738
22.2076
22.2414
22.2751
22.3089
22.3427
22.3764
22.4102
22.444
22.4777
22.5115
22.5453
22.579
22.6128
22.6465
22.6803
22.7141
22.7478
22.7816
22.8154
22.8491
22.8829
22.9166
22.9504
22.9842
23.0179
23.0517
23.0854
23.1192
23.153
23.1867
23.2205
23.2542
23.288
23.3218
23.3555
23.3893
23.423
23.4568
23.4905
23.5243
23.5581
23.5918
23.6256
23.6593
23.6931
23.7268
23.7606
23.7944
23.8281
23.8619
23.8956
23.9294
23.9631
23.9969
24.0306
24.0644
24.0981
24.1319
24.1656
24.1994
24.2331
24.2669
24.3006
24.3344
24.3681
24.4019
24.4356
24.4694
24.5031
24.5369
24.5706
24.6044
24.6381
24.6719
24.7056
24.7394
24.7731
24.8069
24.8406
24.8744
24.9081
24.9419
24.9756
25.0093
25.0431
25.0768
25.1106
25.1443
25.1781
25.2118
25.2456
25.2793
25.313
25.3468
25.3805
25.4143
25.448
25.4817
25.5155
25.5492
25.583
25.6167
25.6504
25.6842
25.7179
25.7517
25.7854
25.8191
25.8529
25.8866
25.9204
25.9541
25.9878
26.0216
26.0553
26.089
26.1228
26.1565
26.1902
26.224
26.2577
26.2915
26.3252
26.3589
26.3927
26.4264
26.4601
26.4939
26.5276
26.5613
26.5951
26.6288
26.6625
26.6962
26.73
26.7637
26.7974
26.8312
26.8649
26.8986
26.9324
26.9661
26.9998
27.0335
27.0673
27.101
27.1347
27.1685
27.2022
27.2359
27.2696
27.3034
27.3371
27.3708
27.4045
27.4383
27.472
27.5057
27.5394
27.5732
27.6069
27.6406
27.6743
27.7081
27.7418
27.7755
27.8092
27.843
27.8767
27.9104
27.9441
27.9778
28.0116
28.0453
28.079
28.1127
28.1464
28.1802
28.2139
28.2476
28.2813
28.315
28.3487
28.3825
28.4162
28.4499
28.4836
28.5173
28.551
28.5848
28.6185
28.6522
28.6859
28.7196
28.7533
28.7871
28.8208
28.8545
28.8882
28.9219
28.9556
28.9893
29.023
29.0568
29.0905
29.1242
29.1579
29.1916
29.2253
29.259
29.2927
29.3264
29.3601
29.3939
29.4276
29.4613
29.495
29.5287
29.5624
29.5961
29.6298
29.6635
29.6972
29.7309
29.7646
29.7983
29.832
29.8657
29.8995
29.9332
29.9669
30.0006
30.0343
30.068
30.1017
30.1354
30.1691
30.2028
30.2365
30.2702
30.3039
30.3376
30.3713
30.405
30.4387
30.4724
30.5061
30.5398
30.5735
30.6072
30.6409
30.6746
30.7083
30.742
30.7757
30.8094
30.8431
30.8768
30.9104
30.9441
30.9778
31.0115
31.0452
31.0789
31.1126
31.1463
31.18
31.2137
31.2474
31.2811
31.3148
31.3485
31.3822
31.4158
31.4495
31.4832
31.5169
31.5506
31.5843
31.618
31.6517
31.6854
31.7191
31.7527
31.7864
31.8201
31.8538
31.8875
31.9212
31.9549
31.9886
32.0222
32.0559
32.0896
32.1233
32.157
32.1907
32.2244
32.258
32.2917
32.3254
32.3591
32.3928
32.4264
32.4601
32.4938
32.5275
32.5612
32.5948
32.6285
32.6622
32.6959
32.7296
32.7632
32.7969
32.8306
32.8643
32.898
32.9316
32.9653
32.999
33.0327
33.0664
33.1
33.1337
33.1674
33.201
33.2347
33.2684
33.3021
33.3358
33.3694
33.4031
33.4368
33.4704
33.5041
33.5378
33.5715
33.6051
33.6388
33.6725
33.7061
33.7398
33.7735
33.8072
33.8408
33.8745
33.9082
33.9418
33.9755
34.0092
34.0428
34.0765
34.1102
34.1438
34.1775
34.2112
34.2448
34.2785
34.3122
34.3458
34.3795
34.4132
34.4468
34.4805
34.5141
34.5478
34.5815
34.6151
34.6488
34.6825
34.7161
34.7498
34.7834
34.8171
34.8508
34.8844
34.9181
34.9518
34.9854
35.0191
35.0527
35.0864
35.12
35.1537
35.1873
35.221
35.2547
35.2883
35.322
35.3556
35.3893
35.4229
35.4566
35.4903
35.5239
35.5576
35.5912
35.6249
35.6585
35.6922
35.7258
35.7595
35.7931
35.8268
35.8604
35.8941
35.9277
35.9614
35.995
36.0287
36.0623
36.096
36.1296
36.1633
36.1969
36.2306
36.2642
36.2978
36.3315
36.3652
36.3988
36.4324
36.4661
36.4997
36.5334
36.567
36.6007
36.6343
36.6679
36.7016
36.7352
36.7689
36.8025
36.8362
36.8698
36.9034
36.9371
36.9707
37.0044
37.038
37.0716
37.1053
37.1389
37.1725
37.2062
37.2398
37.2735
37.3071
37.3407
37.3744
37.408
37.4417
37.4753
37.5089
37.5426
37.5762
37.6098
37.6435
37.6771
37.7107
37.7444
37.778
37.8116
37.8453
37.8789
37.9125
37.9461
37.9798
38.0134
38.047
38.0807
38.1143
38.1479
38.1815
38.2152
38.2488
38.2824
38.3161
38.3497
38.3833
38.4169
38.4506
38.4842
38.5178
38.5514
38.5851
38.6187
38.6523
38.6859
38.7196
38.7532
38.7868
38.8204
38.854
38.8877
38.9213
38.9549
38.9885
39.0222
39.0558
39.0894
39.123
39.1566
39.1902
39.2239
39.2575
39.2911
39.3247
39.3583
39.3919
39.4256
39.4592
39.4928
39.5264
39.56
39.5936
39.6273
39.6609
39.6945
39.7281
39.7617
39.7953
39.8289
39.8626
39.8962
39.9298
39.9634
39.997
40.0306
40.0642
40.0978
40.1314
40.1651
40.1987
40.2323
40.2659
40.2995
40.3331
40.3667
40.4003
40.4339
40.4675
40.5011
40.5347
40.5683
40.6019
40.6355
40.6691
40.7027
40.7363
40.7699
40.8036
40.8371
40.8707
40.9044
40.938
40.9715
41.0052
41.0388
41.0723
41.106
41.1396
41.1731
41.2068
41.2404
41.2739
41.3075
41.3412
41.3747
41.4083
41.4419
41.4755
41.5091
41.5427
41.5763
41.6099
41.6435
41.6771
41.7107
41.7443
41.7779
41.8115
41.845
41.8787
41.9122
41.9458
41.9794
42.013
42.0466
42.0802
42.1138
42.1474
42.181
42.2146
42.2481
42.2817
42.3153
42.3489
42.3825
42.4161
42.4497
42.4832
42.5168
42.5504
42.584
42.6176
42.6512
42.6847
42.7183
42.7519
42.7855
42.8191
42.8527
42.8862
42.9198
42.9534
42.987
43.0205
43.0541
43.0877
43.1213
43.1549
43.1884
43.222
43.2556
43.2892
43.3228
43.3563
43.3899
43.4235
43.457
43.4906
43.5242
43.5578
43.5913
43.6249
43.6585
43.6921
43.7256
43.7592
43.7928
43.8263
43.8599
43.8935
43.9271
43.9606
43.9942
44.0278
44.0613
44.0949
44.1285
44.162
44.1956
44.2292
44.2627
44.2963
44.3299
44.3634
44.397
44.4306
44.4641
44.4977
44.5313
44.5648
44.5984
44.6319
44.6655
44.6991
44.7326
44.7662
44.7998
44.8333
44.8669
44.9005
44.934
44.9676
45.0011
45.0347
45.0682
45.1018
45.1354
45.1689
45.2025
45.236
45.2696
45.3031
45.3367
45.3702
45.4038
45.4373
45.4709
45.5045
45.538
45.5716
45.6051
45.6387
45.6722
45.7058
45.7393
45.7729
45.8064
45.84
45.8735
45.9071
45.9406
45.9742
46.0077
46.0413
46.0748
46.1083
46.1419
46.1754
46.209
46.2425
46.2761
46.3096
46.3432
46.3767
46.4103
46.4438
46.4773
46.5109
46.5444
46.578
46.6115
46.6451
46.6786
46.7121
46.7457
46.7792
46.8127
46.8463
46.8798
46.9134
46.9469
46.9804
47.014
47.0475
47.081
47.1146
47.1481
47.1816
47.2152
47.2487
47.2822
47.3158
47.3493
47.3828
47.4164
47.4499
47.4834
47.517
47.5505
47.584
47.6176
47.6511
47.6846
47.7182
47.7517
47.7852
47.8187
47.8523
47.8858
47.9193
47.9528
47.9864
48.0199
48.0534
48.0869
48.1205
48.154
48.1875
48.221
48.2546
48.2881
48.3216
48.3551
48.3886
48.4222
48.4557
48.4892
48.5227
48.5562
48.5898
48.6233
48.6568
48.6903
48.7238
48.7573
48.7909
48.8244
48.8579
48.8914
48.9249
48.9585
48.992
49.0255
49.059
49.0925
49.126
49.1595
49.193
49.2265
49.2601
49.2936
49.3271
49.3606
49.3941
49.4276
49.4611
49.4946
49.5281
49.5617
49.5952
49.6287
49.6622
49.6957
49.7292
49.7627
49.7962
49.8297
49.8632
49.8967
49.9302
49.9637
49.9972
50.0307
50.0642
50.0977
50.1312
50.1647
50.1982
50.2317
50.2652
50.2987
50.3322
50.3657
50.3992
50.4327
50.4662
50.4997
50.5332
50.5667
50.6002
50.6337
50.6672
50.7007
50.7342
50.7677
50.8012
50.8347
50.8681
50.9016
50.9351
50.9686
51.0021
51.0356
51.0691
51.1026
51.1361
51.1696
51.2031
51.2365
51.27
51.3035
51.337
51.3705
51.404
51.4375
51.4709
51.5044
51.5379
51.5714
51.6049
51.6384
51.6719
51.7053
51.7388
51.7723
51.8058
51.8393
51.8727
51.9062
51.9397
51.9732
52.0067
52.0401
52.0736
52.1071
52.1406
52.174
52.2075
52.241
52.2745
52.308
52.3414
52.3749
52.4084
52.4419
52.4753
52.5088
52.5423
52.5757
52.6092
52.6427
52.6762
52.7096
52.7431
52.7766
52.81
52.8435
52.877
52.9104
52.9439
52.9774
53.0108
53.0443
53.0778
53.1112
53.1447
53.1782
53.2116
53.2451
53.2786
53.312
53.3455
53.379
53.4124
53.4459
53.4793
53.5128
53.5463
53.5797
53.6132
53.6466
53.6801
53.7136
53.747
53.7805
53.8139
53.8474
53.8808
53.9143
53.9478
53.9812
54.0147
54.0481
54.0816
54.115
54.1485
54.1819
54.2154
54.2488
54.2823
54.3157
54.3492
54.3826
54.4161
54.4495
54.483
54.5164
54.5499
54.5833
54.6168
54.6502
54.6837
54.7171
54.7506
54.784
54.8175
54.8509
54.8843
54.9178
54.9512
54.9847
55.0181
55.0516
55.085
55.1184
55.1519
55.1853
55.2188
55.2522
55.2856
55.3191
55.3525
55.386
55.4194
55.4528
55.4863
55.5197
55.5531
55.5866
55.62
55.6534
55.6869
55.7203
55.7537
55.7872
55.8206
55.854
55.8875
55.9209
55.9543
55.9878
56.0212
56.0546
56.088
56.1215
56.1549
56.1883
56.2218
56.2552
56.2886
56.322
56.3555
56.3889
56.4223
56.4557
56.4892
56.5226
56.556
56.5894
56.6228
56.6563
56.6897
56.7231
56.7565
56.7899
56.8234
56.8568
56.8902
56.9236
56.957
56.9905
57.0239
57.0573
57.0907
57.1241
57.1575
57.191
57.2244
57.2578
57.2912
57.3246
57.358
57.3914
57.4248
57.4583
57.4917
57.5251
57.5585
57.5919
57.6253
57.6587
57.6921
57.7255
57.7589
57.7923
57.8257
57.8592
57.8926
57.926
57.9594
57.9928
58.0262
58.0596
58.093
58.1264
58.1598
58.1932
58.2266
58.26
58.2934
58.3268
58.3602
58.3936
58.427
58.4604
58.4938
58.5272
58.5606
58.594
58.6274
58.6608
58.6942
58.7275
58.7609
58.7943
58.8277
58.8611
58.8945
58.9279
58.9613
58.9947
59.0281
59.0615
59.0949
59.1282
59.1616
59.195
59.2284
59.2618
59.2952
59.3286
59.362
59.3953
59.4287
59.4621
59.4955
59.5289
59.5623
59.5956
59.629
59.6624
59.6958
59.7292
59.7626
59.7959
59.8293
59.8627
59.8961
59.9294
59.9628
59.9962
60.0296
60.063
60.0963
60.1297
60.1631
60.1965
60.2298
60.2632
60.2966
60.3299
60.3633
60.3967
60.4301
60.4634
60.4968
60.5302
60.5635
60.5969
60.6303
60.6637
60.697
60.7304
60.7638
60.7971
60.8305
60.8638
60.8972
60.9306
60.9639
60.9973
61.0307
61.064
61.0974
61.1308
61.1641
61.1975
61.2308
61.2642
61.2976
61.3309
61.3643
61.3976
61.431
61.4643
61.4977
61.5311
61.5644
61.5978
61.6311
61.6645
61.6978
61.7312
61.7645
61.7979
61.8312
61.8646
61.8979
61.9313
61.9646
61.998
62.0313
62.0647
62.098
62.1314
62.1647
62.1981
62.2314
62.2648
62.2981
62.3315
62.3648
62.3982
62.4315
62.4648
62.4982
62.5315
62.5649
62.5982
62.6315
62.6649
62.6982
62.7316
62.7649
62.7982
62.8316
62.8649
62.8983
62.9316
62.9649
62.9983
63.0316
63.0649
63.0983
63.1316
63.1649
63.1983
63.2316
63.2649
63.2983
63.3316
63.3649
63.3982
63.4316
63.4649
63.4982
63.5316
63.5649
63.5982
63.6315
63.6649
63.6982
63.7315
63.7648
63.7982
63.8315
63.8648
63.8981
63.9315
63.9648
63.9981
64.0314
64.0647
64.0981
64.1314
64.1647
64.198
64.2313
64.2646
64.298
64.3313
64.3646
64.3979
64.4312
64.4645
64.4978
64.5312
64.5645
64.5978
64.6311
64.6644
64.6977
64.731
64.7643
64.7976
64.831
64.8643
64.8976
64.9309
64.9642
64.9975
65.0308
65.0641
65.0974
65.1307
65.164
65.1973
65.2306
65.2639
65.2972
65.3305
65.3638
65.3971
65.4304
65.4637
65.497
65.5303
65.5636
65.5969
65.6302
65.6635
65.6968
65.7301
65.7634
65.7967
65.83
65.8633
65.8966
65.9299
65.9631
65.9964
66.0297
66.063
66.0963
66.1296
66.1629
66.1962
66.2295
66.2627
66.296
66.3293
66.3626
66.3959
66.4292
66.4625
66.4957
66.529
66.5623
66.5956
66.6289
66.6622
66.6954
66.7287
66.762
66.7953
66.8285
66.8618
66.8951
66.9284
66.9617
66.9949
67.0282
67.0615
67.0948
67.128
67.1613
67.1946
67.2278
67.2611
67.2944
67.3277
67.3609
67.3942
67.4275
67.4607
67.494
67.5273
67.5605
67.5938
67.6271
67.6603
67.6936
67.7269
67.7601
67.7934
67.8267
67.8599
67.8932
67.9264
67.9597
67.993
68.0262
68.0595
68.0927
68.126
68.1592
68.1925
68.2258
68.259
68.2923
68.3255
68.3588
68.392
68.4253
68.4585
68.4918
68.525
68.5583
68.5915
68.6248
68.658
68.6913
68.7245
68.7578
68.791
68.8243
68.8575
68.8908
68.924
68.9573
68.9905
69.0237
69.057
69.0902
69.1235
69.1567
69.19
69.2232
69.2564
69.2897
69.3229
69.3561
69.3894
69.4226
69.4559
69.4891
69.5223
69.5556
69.5888
69.622
69.6553
69.6885
69.7217
69.755
69.7882
69.8214
69.8547
69.8879
69.9211
69.9543
69.9876
70.0208
70.054
70.0872
70.1205
70.1537
70.1869
70.2201
70.2534
70.2866
70.3198
70.353
70.3863
70.4195
70.4527
70.4859
70.5191
70.5523
70.5856
70.6188
70.652
70.6852
70.7184
70.7516
70.7849
70.8181
70.8513
70.8845
70.9177
70.9509
70.9841
71.0173
71.0505
71.0838
71.117
71.1502
71.1834
71.2166
71.2498
71.283
71.3162
71.3494
71.3826
71.4158
71.449
71.4822
71.5154
71.5486
71.5818
71.615
71.6482
71.6814
71.7146
71.7478
71.781
71.8142
71.8474
71.8806
71.9138
71.947
71.9802
72.0134
72.0466
72.0798
72.1129
72.1461
72.1793
72.2125
72.2457
72.2789
72.3121
72.3453
72.3785
72.4116
72.4448
72.478
72.5112
72.5444
72.5776
72.6107
72.6439
72.6771
72.7103
72.7435
72.7766
72.8098
72.843
72.8762
72.9094
72.9425
72.9757
73.0089
73.0421
73.0752
73.1084
73.1416
73.1748
73.2079
73.2411
73.2743
73.3074
73.3406
73.3738
73.4069
73.4401
73.4733
73.5064
73.5396
73.5728
73.6059
73.6391
73.6723
73.7054
73.7386
73.7717
73.8049
73.8381
73.8712
73.9044
73.9375
73.9707
74.0039
74.037
74.0702
74.1033
74.1365
74.1696
74.2028
74.2359
74.2691
74.3022
74.3354
74.3685
74.4017
74.4348
74.468
74.5011
74.5343
74.5674
74.6006
74.6337
74.6669
74.7
74.7332
74.7663
74.7994
74.8326
74.8657
74.8989
74.932
74.9651
74.9983
75.0314
75.0646
75.0977
75.1308
75.164
75.1971
75.2302
75.2634
75.2965
75.3296
75.3628
75.3959
75.429
75.4621
75.4953
75.5284
75.5615
75.5947
75.6278
75.6609
75.694
75.7272
75.7603
75.7934
75.8265
75.8597
75.8928
75.9259
75.959
75.9921
76.0252
76.0584
76.0915
76.1246
76.1577
76.1908
76.2239
76.2571
76.2902
76.3233
76.3564
76.3895
76.4226
76.4557
76.4888
76.5219
76.5551
76.5882
76.6213
76.6544
76.6875
76.7206
76.7537
76.7868
76.8199
76.853
76.8861
76.9192
76.9523
76.9854
77.0185
77.0516
77.0847
77.1178
77.1509
77.184
77.2171
77.2502
77.2833
77.3163
77.3494
77.3825
77.4156
77.4487
77.4818
77.5149
77.548
77.5811
77.6141
77.6472
77.6803
77.7134
77.7465
77.7796
77.8127
77.8457
77.8788
77.9119
77.945
77.9781
78.0111
78.0442
78.0773
78.1104
78.1434
78.1765
78.2096
78.2427
78.2757
78.3088
78.3419
78.3749
78.408
78.4411
78.4741
78.5072
78.5403
78.5733
78.6064
78.6395
78.6725
78.7056
78.7387
78.7717
78.8048
78.8378
78.8709
78.904
78.937
78.9701
79.0031
79.0362
79.0692
79.1023
79.1354
79.1684
79.2015
79.2345
79.2676
79.3006
79.3337
79.3667
79.3998
79.4328
79.4658
79.4989
79.5319
79.565
79.598
79.6311
79.6641
79.6972
79.7302
79.7632
79.7963
79.8293
79.8623
79.8954
79.9284
79.9615
79.9945
80.0275
80.0606
80.0936
80.1266
80.1596
80.1927
80.2257
80.2587
80.2918
80.3248
80.3578
80.3908
80.4239
80.4569
80.4899
80.5229
80.556
80.589
80.622
80.655
80.688
80.7211
80.7541
80.7871
80.8201
80.8531
80.8861
80.9191
80.9522
80.9852
81.0182
81.0512
81.0842
81.1172
81.1502
81.1832
81.2162
81.2492
81.2822
81.3152
81.3482
81.3812
81.4142
81.4472
81.4802
81.5132
81.5462
81.5792
81.6122
81.6452
81.6782
81.7112
81.7442
81.7772
81.8102
81.8432
81.8762
81.9092
81.9421
81.9751
82.0081
82.0411
82.0741
82.1071
82.1401
82.173
82.206
82.239
82.272
82.305
82.3379
82.3709
82.4039
82.4369
82.4698
82.5028
82.5358
82.5688
82.6017
82.6347
82.6677
82.7006
82.7336
82.7666
82.7995
82.8325
82.8655
82.8984
82.9314
82.9644
82.9973
83.0303
83.0632
83.0962
83.1291
83.1621
83.1951
83.228
83.261
83.2939
83.3269
83.3598
83.3928
83.4257
83.4587
83.4916
83.5246
83.5575
83.5905
83.6234
83.6563
83.6893
83.7222
83.7552
83.7881
83.8211
83.854
83.8869
83.9199
83.9528
83.9857
84.0187
84.0516
84.0845
84.1175
84.1504
84.1833
84.2162
84.2492
84.2821
84.315
84.3479
84.3809
84.4138
84.4467
84.4796
84.5126
84.5455
84.5784
84.6113
84.6442
84.6771
84.7101
84.743
84.7759
84.8088
84.8417
84.8746
84.9075
84.9404
84.9733
85.0062
85.0391
85.072
85.1049
85.1378
85.1707
85.2036
85.2365
85.2694
85.3023
85.3352
85.3681
85.401
85.4339
85.4668
85.4997
85.5326
85.5655
85.5984
85.6312
85.6641
85.697
85.7299
85.7628
85.7957
85.8285
85.8614
85.8943
85.9272
85.9601
85.9929
86.0258
86.0587
86.0916
86.1244
86.1573
86.1902
86.223
86.2559
86.2888
86.3216
86.3545
86.3874
86.4202
86.4531
86.4859
86.5188
86.5517
86.5845
86.6174
86.6502
86.6831
86.7159
86.7488
86.7816
86.8145
86.8473
86.8802
86.913
86.9459
86.9787
87.0116
87.0444
87.0772
87.1101
87.1429
87.1757
87.2086
87.2414
87.2743
87.3071
87.3399
87.3727
87.4056
87.4384
87.4712
87.5041
87.5369
87.5697
87.6025
87.6353
87.6682
87.701
87.7338
87.7666
87.7994
87.8323
87.8651
87.8979
87.9307
87.9635
87.9963
88.0291
88.0619
88.0947
88.1275
88.1603
88.1931
88.2259
88.2587
88.2915
88.3243
88.3571
88.3899
88.4227
88.4555
88.4883
88.5211
88.5539
88.5867
88.6194
88.6522
88.685
88.7178
88.7506
88.7833
88.8161
88.8489
88.8817
88.9145
88.9472
88.98
89.0128
89.0455
89.0783
89.1111
89.1438
89.1766
89.2094
89.2421
89.2749
89.3076
89.3404
89.3732
89.4059
89.4387
89.4714
89.5042
89.5369
89.5697
89.6024
89.6352
89.6679
89.7007
89.7334
89.7661
89.7989
89.8316
89.8643
89.8971
89.9298
89.9626
89.9953
90.028
90.0607
90.0935
90.1262
90.1589
90.1916
90.2244
90.2571
90.2898
90.3225
90.3552
90.3879
90.4207
90.4534
90.4861
90.5188
90.5515
90.5842
90.6169
90.6496
90.6823
90.715
90.7477
90.7804
90.8131
90.8458
90.8785
90.9112
90.9439
90.9765
91.0092
91.0419
91.0746
91.1073
91.14
91.1726
91.2053
91.238
91.2707
91.3033
91.336
91.3687
91.4014
91.434
91.4667
91.4993
91.532
91.5647
91.5973
91.63
91.6626
91.6953
91.7279
91.7606
91.7932
91.8259
91.8585
91.8912
91.9238
91.9565
91.9891
92.0217
92.0544
92.087
92.1196
92.1523
92.1849
92.2175
92.2501
92.2828
92.3154
92.348
92.3806
92.4133
92.4459
92.4785
92.5111
92.5437
92.5763
92.6089
92.6415
92.6741
92.7067
92.7393
92.7719
92.8045
92.8371
92.8697
92.9023
92.9349
92.9675
93.0001
93.0326
93.0652
93.0978
93.1304
93.1629
93.1955
93.2281
93.2607
93.2932
93.3258
93.3584
93.3909
93.4235
93.456
93.4886
93.5212
93.5537
93.5863
93.6188
93.6513
93.6839
93.7164
93.749
93.7815
93.8141
93.8466
93.8791
93.9116
93.9442
93.9767
94.0092
94.0418
94.0743
94.1068
94.1393
94.1718
94.2043
94.2368
94.2693
94.3019
94.3344
94.3669
94.3994
94.4319
94.4643
94.4968
94.5293
94.5618
94.5943
94.6268
94.6593
94.6918
94.7242
94.7567
94.7892
94.8216
94.8541
94.8866
94.919
94.9515
94.984
95.0164
95.0489
95.0813
95.1138
95.1462
95.1787
95.2111
95.2436
95.276
95.3084
95.3409
95.3733
95.4057
95.4381
95.4706
95.503
95.5354
95.5678
95.6002
95.6326
95.6651
95.6975
95.7299
95.7623
95.7947
95.8271
95.8594
95.8918
95.9242
95.9566
95.989
96.0214
96.0537
96.0861
96.1185
96.1509
96.1832
96.2156
96.248
96.2803
96.3127
96.345
96.3774
96.4097
96.4421
96.4744
96.5067
96.5391
96.5714
96.6037
96.6361
96.6684
96.7007
96.733
96.7653
96.7977
96.83
96.8623
96.8946
96.9269
96.9592
96.9915
97.0238
97.0561
97.0883
97.1206
97.1529
97.1852
97.2175
97.2497
97.282
97.3143
97.3465
97.3788
97.411
97.4433
97.4755
97.5078
97.54
97.5723
97.6045
97.6367
97.6689
97.7012
97.7334
97.7656
97.7978
97.83
97.8622
97.8945
97.9267
97.9588
97.991
98.0232
98.0554
98.0876
98.1198
98.152
98.1841
98.2163
98.2485
98.2806
98.3128
98.3449
98.3771
98.4092
98.4414
98.4735
98.5057
98.5378
98.5699
98.602
98.6342
98.6663
98.6984
98.7305
98.7626
98.7947
98.8268
98.8589
98.891
98.9231
98.9551
98.9872
99.0193
99.0514
99.0834
99.1155
99.1475
99.1796
99.2116
99.2437
99.2757
99.3078
99.3398
99.3718
99.4038
99.4359
99.4679
99.4999
99.5319
99.5639
99.5959
99.6279
99.6599
99.6918
99.7238
99.7558
99.7877
99.8197
99.8517
99.8836
99.9156
99.9475
99.9795
100.011
100.043
100.075
100.107
100.139
100.171
100.203
100.235
100.267
100.299
100.33
100.362
100.394
100.426
100.458
100.49
100.522
100.553
100.585
100.617
100.649
100.681
100.713
100.744
100.776
100.808
100.84
100.872
100.903
100.935
100.967
100.999
101.031
101.062
101.094
101.126
101.158
101.189
101.221
101.253
101.284
101.316
101.348
101.38
101.411
101.443
101.475
101.506
101.538
101.57
101.601
101.633
101.665
101.696
101.728
101.759
101.791
101.823
101.854
101.886
101.917
101.949
101.981
102.012
102.044
102.075
102.107
102.138
102.17
102.201
102.233
102.264
102.296
102.327
102.359
102.39
102.422
102.453
102.485
102.516
102.548
102.579
102.611
102.642
102.673
102.705
102.736
102.768
102.799
102.83
102.862
102.893
102.924
102.956
102.987
103.018
103.05
103.081
103.112
103.144
103.175
103.206
103.237
103.269
103.3
103.331
103.362
103.393
103.425
103.456
103.487
103.518
103.549
103.581
103.612
103.643
103.674
103.705
103.736
103.767
103.798
103.83
103.861
103.892
103.923
103.954
103.985
104.016
104.047
104.078
104.109
104.14
104.171
104.202
104.233
104.264
104.294
104.325
104.356
104.387
104.418
104.449
104.48
104.511
104.541
104.572
104.603
104.634
104.665
104.695
104.726
104.757
104.788
104.818
104.849
104.88
104.911
104.941
104.972
105.002
105.033
105.064
105.094
105.125
105.156
105.186
105.217
105.247
105.278
105.308
105.339
105.369
105.4
105.43
105.461
105.491
105.522
105.552
105.582
105.613
105.643
105.673
105.704
105.734
105.764
105.795
105.825
105.855
105.885
105.916
105.946
105.976
106.006
106.036
106.067
106.097
106.127
106.157
106.187
106.217
106.247
106.277
106.307
106.337
106.367
106.397
106.427
106.457
106.487
106.517
106.547
106.577
106.606
106.636
106.666
106.696
106.726
106.755
106.785
106.815
106.845
106.874
106.904
106.934
106.963
106.993
107.022
107.052
107.082
107.111
107.141
107.17
107.2
107.229
107.258
107.288
107.317
107.347
107.376
107.405
107.435
107.464
107.493
107.522
107.552
107.581
107.61
107.639
107.668
107.697
107.726
107.755
107.785
107.814
107.843
107.872
107.901
107.929
107.958
107.987
108.016
108.045
108.074
108.103
108.131
108.16
108.189
108.217
108.246
108.275
108.303
108.332
108.361
108.389
108.418
108.446
108.475
108.503
108.532
108.56
108.588
108.617
108.645
108.673
108.702
108.73
108.758
108.786
108.814
108.842
108.871
108.899
108.927
108.955
108.983
109.011
109.039
109.067
109.094
109.122
109.15
109.178
109.206
109.233
109.261
109.289
109.317
109.344
109.372
109.399
109.427
109.454
109.482
109.509
109.537
109.564
109.592
109.619
109.646
109.674
109.701
109.728
109.755
109.782
109.81
109.837
109.864
109.891
109.918
109.945
109.972
109.999
110.026
110.053
110.079
110.106
110.133
110.16
110.186
110.213
110.24
110.266
110.293
110.32
110.346
110.373
110.399
110.425
110.452
110.478
110.505
110.531
110.557
110.583
110.61
110.636
110.662
110.688
110.714
110.74
110.766
110.792
110.818
110.844
110.87
110.896
110.922
110.948
110.974
110.999
111.025
111.051
111.076
111.102
111.128
111.153
111.179
111.204
111.23
111.255
111.281
111.306
111.331
111.357
111.382
111.407
111.433
111.458
111.483
111.508
111.533
111.558
111.584
111.609
111.634
111.659
111.684
111.709
111.733
111.758
111.783
111.808
111.833
111.858
111.882
111.907
111.932
111.956
111.981
112.006
112.03
112.055
112.079
112.104
112.128
112.153
112.177
112.202
112.226
112.25
112.275
112.299
112.323
112.348
112.372
112.396
112.42
112.444
112.469
112.493
112.517
112.541
112.565
112.589
112.613
112.637
112.661
112.685
112.709
112.733
112.757
112.781
112.804
112.828
112.852
112.876
112.9
112.923
112.947
112.971
112.995
113.018
113.042
113.066
113.089
113.113
113.136
113.16
113.184
113.207
113.231
113.254
113.278
113.301
113.325
113.348
113.372
113.395
113.419
113.442
113.465
113.489
113.512
113.535
113.559
113.582
113.605
113.629
113.652
113.675
113.699
113.722
113.745
113.768
113.792
113.815
113.838
113.861
113.885
113.908
113.931
113.954
113.977
114
114.024
114.047
114.07
114.093
114.116
114.139
114.162
114.185
114.209
114.232
114.255
114.278
114.301
114.324
114.347
114.37
114.393
114.416
114.439
114.462
114.485
114.508
114.531
114.554
114.577
114.6
114.623
114.646
114.669
114.692
114.715
114.738
114.761
114.784
114.807
114.83
114.853
114.876
114.899
114.922
114.945
114.968
114.991
115.014
115.037
115.06
115.083
115.106
115.129
115.152
115.175
115.198
115.221
115.244
115.266
115.289
115.312
115.335
115.358
115.381
115.404
115.427
115.45
115.473
115.496
115.519
115.542
115.565
115.588
115.611
115.634
115.657
115.68
115.703
115.725
115.748
115.771
115.794
115.817
115.84
115.863
115.886
115.909
115.932
115.955
115.978
116.001
116.024
116.047
116.07
116.093
116.116
116.139
116.162
116.185
116.208
116.231
116.254
116.277
116.3
116.323
116.346
116.369
116.392
116.415
116.438
116.461
116.484
116.507
116.53
116.553
116.576
116.599
116.622
116.645
116.668
116.691
116.714
116.737
116.76
116.783
116.806
116.829
116.852
116.875
116.898
116.921
116.944
116.967
116.99
117.014
117.037
117.06
117.083
117.106
117.129
117.152
117.175
117.198
117.221
117.244
117.267
117.29
117.314
117.337
117.36
117.383
117.406
117.429
117.452
117.475
117.498
117.521
117.545
117.568
117.591
117.614
117.637
117.66
117.683
117.706
117.73
117.753
117.776
117.799
117.822
117.845
117.869
117.892
117.915
117.938
117.961
117.984
118.008
118.031
118.054
118.077
118.1
118.123
118.147
118.17
118.193
118.216
118.239
118.263
118.286
118.309
118.332
118.355
118.379
118.402
118.425
118.448
118.472
118.495
118.518
118.541
118.564
118.588
118.611
118.634
118.657
118.681
118.704
118.727
118.75
118.774
118.797
118.82
118.843
118.867
118.89
118.913
118.937
118.96
118.983
119.006
119.03
119.053
119.076
119.1
119.123
119.146
119.17
119.193
119.216
119.239
119.263
119.286
119.309
119.333
119.356
119.379
119.403
119.426
119.449
119.473
119.496
119.519
119.543
119.566
119.59
119.613
119.636
119.66
119.683
119.706
119.73
119.753
119.776
119.8
119.823
119.847
119.87
119.893
119.917
119.94
119.964
119.987
120.01
120.034
120.057
120.081
120.104
120.127
120.151
120.174
120.198
120.221
120.245
120.268
120.292
120.315
120.338
120.362
120.385
120.409
120.432
120.456
120.479
120.503
120.526
120.55
120.573
120.596
120.62
120.643
120.667
120.69
120.714
120.737
120.761
120.784
120.808
120.831
120.855
120.878
120.902
120.925
120.949
120.972
120.996
121.019
121.043
121.067
121.09
121.114
121.137
121.161
121.184
121.208
121.231
121.255
121.278
121.302
121.326
121.349
121.373
121.396
121.42
121.443
121.467
121.491
121.514
121.538
121.561
121.585
121.609
121.632
121.656
121.679
121.703
121.727
121.75
121.774
121.797
121.821
121.845
121.868
121.892
121.915
121.939
121.963
121.986
122.01
122.034
122.057
122.081
122.105
122.128
122.152
122.176
122.199
122.223
122.247
122.27
122.294
122.318
122.341
122.365
122.389
122.412
122.436
122.46
122.483
122.507
122.531
122.555
122.578
122.602
122.626
122.649
122.673
122.697
122.721
122.744
122.768
122.792
122.815
122.839
122.863
122.887
122.91
122.934
122.958
122.982
123.005
123.029
123.053
123.077
123.1
123.124
123.148
123.172
123.196
123.219
123.243
123.267
123.291
123.315
123.338
123.362
123.386
123.41
123.434
123.457
123.481
123.505
123.529
123.553
123.576
123.6
123.624
123.648
123.672
123.696