/*--------------------------------*- C++ -*----------------------------------*\
  =========                 |
  \\      /  F ield         | OpenFOAM: The Open Source CFD Toolbox
   \\    /   O peration     | Website:  https://openfoam.org
    \\  /    A nd           | Version:  9
     \\/     M anipulation  |
\*---------------------------------------------------------------------------*/
FoamFile
{
    format      ascii;
    class       volScalarField;
    location    "0.036";
    object      rho_0;
}
// * * * * * * * * * * * * * * * * * * * * * * * * * * * * * * * * * * * * * //

dimensions      [1 -3 0 0 0 0 0];

internalField   nonuniform List<scalar> 
10000
(
0.241623
0.241619
0.241614
0.241608
0.241603
0.241598
0.241593
0.241588
0.241582
0.241577
0.241572
0.241567
0.241562
0.241556
0.241551
0.241546
0.241541
0.241536
0.24153
0.241525
0.24152
0.241515
0.24151
0.241504
0.241499
0.241494
0.241489
0.241484
0.241479
0.241473
0.241468
0.241463
0.241458
0.241453
0.241448
0.241442
0.241437
0.241432
0.241427
0.241422
0.241417
0.241411
0.241406
0.241401
0.241396
0.241391
0.241386
0.241381
0.241375
0.24137
0.241365
0.24136
0.241355
0.24135
0.241345
0.24134
0.241335
0.241329
0.241324
0.24132
0.241314
0.241309
0.241304
0.241299
0.241294
0.241289
0.241284
0.241279
0.241274
0.241269
0.241264
0.241259
0.241253
0.241248
0.241243
0.241238
0.241233
0.241228
0.241223
0.241218
0.241214
0.241209
0.241203
0.241198
0.241193
0.241188
0.241182
0.241177
0.241173
0.241168
0.241163
0.241158
0.241154
0.241149
0.241144
0.241139
0.241134
0.241129
0.241123
0.241118
0.241113
0.241108
0.241103
0.241098
0.241093
0.241089
0.241085
0.24108
0.241076
0.241072
0.241067
0.241062
0.241057
0.241052
0.241047
0.241042
0.241036
0.241031
0.241025
0.24102
0.241014
0.241009
0.241004
0.240999
0.240995
0.240991
0.240987
0.240983
0.24098
0.240977
0.240974
0.240971
0.240969
0.240966
0.240964
0.240962
0.24096
0.240958
0.240957
0.240955
0.240953
0.240951
0.240949
0.240947
0.240946
0.240945
0.240943
0.240942
0.240941
0.240939
0.240938
0.240937
0.240935
0.240934
0.240933
0.240931
0.24093
0.240929
0.240927
0.240926
0.240925
0.240923
0.240922
0.24092
0.240919
0.240918
0.240916
0.240915
0.240914
0.240912
0.240911
0.24091
0.240908
0.240907
0.240906
0.240904
0.240903
0.240901
0.2409
0.240899
0.240897
0.240896
0.240895
0.240893
0.240892
0.240891
0.240889
0.240888
0.240886
0.240885
0.240884
0.240882
0.240881
0.24088
0.240878
0.240877
0.240876
0.240874
0.240873
0.240871
0.24087
0.240869
0.240867
0.240866
0.240865
0.240863
0.240862
0.240861
0.240859
0.240858
0.240856
0.240855
0.240854
0.240852
0.240851
0.24085
0.240848
0.240847
0.240846
0.240844
0.240843
0.240841
0.24084
0.240839
0.240837
0.240836
0.240835
0.240833
0.240832
0.24083
0.240829
0.240828
0.240826
0.240825
0.240824
0.240822
0.240821
0.240819
0.240818
0.240817
0.240815
0.240814
0.240813
0.240811
0.24081
0.240808
0.240807
0.240806
0.240804
0.240803
0.240802
0.2408
0.240799
0.240797
0.240796
0.240795
0.240793
0.240792
0.240791
0.240789
0.240788
0.240786
0.240785
0.240784
0.240782
0.240781
0.24078
0.240778
0.240777
0.240775
0.240774
0.240773
0.240771
0.24077
0.240769
0.240767
0.240766
0.240764
0.240763
0.240762
0.24076
0.240759
0.240757
0.240756
0.240755
0.240753
0.240752
0.240751
0.240749
0.240748
0.240746
0.240745
0.240744
0.240742
0.240741
0.240739
0.240738
0.240737
0.240735
0.240734
0.240733
0.240731
0.24073
0.240728
0.240727
0.240726
0.240724
0.240723
0.240721
0.24072
0.240719
0.240717
0.240716
0.240715
0.240713
0.240712
0.24071
0.240709
0.240708
0.240706
0.240705
0.240703
0.240702
0.240701
0.240699
0.240698
0.240696
0.240695
0.240694
0.240692
0.240691
0.240689
0.240688
0.240687
0.240685
0.240684
0.240683
0.240681
0.24068
0.240678
0.240677
0.240676
0.240674
0.240673
0.240671
0.24067
0.240669
0.240667
0.240666
0.240664
0.240663
0.240662
0.24066
0.240659
0.240657
0.240656
0.240655
0.240653
0.240652
0.24065
0.240649
0.240648
0.240646
0.240645
0.240643
0.240642
0.240641
0.240639
0.240638
0.240636
0.240635
0.240634
0.240632
0.240631
0.240629
0.240628
0.240627
0.240625
0.240624
0.240622
0.240621
0.24062
0.240618
0.240617
0.240615
0.240614
0.240613
0.240611
0.24061
0.240608
0.240607
0.240606
0.240604
0.240603
0.240601
0.2406
0.240599
0.240597
0.240596
0.240594
0.240593
0.240592
0.24059
0.240589
0.240587
0.240586
0.240584
0.240583
0.240582
0.24058
0.240579
0.240577
0.240576
0.240575
0.240573
0.240572
0.24057
0.240569
0.240568
0.240566
0.240565
0.240563
0.240562
0.240561
0.240559
0.240558
0.240556
0.240555
0.240553
0.240552
0.240551
0.240549
0.240548
0.240546
0.240545
0.240544
0.240542
0.240541
0.240539
0.240538
0.240536
0.240535
0.240534
0.240532
0.240531
0.240529
0.240528
0.240527
0.240525
0.240524
0.240522
0.240521
0.240519
0.240518
0.240517
0.240515
0.240514
0.240512
0.240511
0.24051
0.240508
0.240507
0.240505
0.240504
0.240502
0.240501
0.2405
0.240498
0.240497
0.240495
0.240494
0.240493
0.240491
0.24049
0.240488
0.240487
0.240485
0.240484
0.240483
0.240481
0.24048
0.240478
0.240477
0.240475
0.240474
0.240473
0.240471
0.24047
0.240468
0.240467
0.240465
0.240464
0.240463
0.240461
0.24046
0.240458
0.240457
0.240455
0.240454
0.240453
0.240451
0.24045
0.240448
0.240447
0.240445
0.240444
0.240443
0.240441
0.24044
0.240438
0.240437
0.240435
0.240434
0.240433
0.240431
0.24043
0.240428
0.240427
0.240425
0.240424
0.240423
0.240421
0.24042
0.240418
0.240417
0.240415
0.240414
0.240413
0.240411
0.24041
0.240408
0.240407
0.240405
0.240404
0.240403
0.240401
0.2404
0.240398
0.240397
0.240395
0.240394
0.240392
0.240391
0.24039
0.240388
0.240387
0.240385
0.240384
0.240382
0.240381
0.24038
0.240378
0.240377
0.240375
0.240374
0.240372
0.240371
0.240369
0.240368
0.240367
0.240365
0.240364
0.240362
0.240361
0.240359
0.240358
0.240357
0.240355
0.240354
0.240352
0.240351
0.240349
0.240348
0.240346
0.240345
0.240344
0.240342
0.240341
0.240339
0.240338
0.240336
0.240335
0.240333
0.240332
0.240331
0.240329
0.240328
0.240326
0.240325
0.240323
0.240322
0.24032
0.240319
0.240318
0.240316
0.240315
0.240313
0.240312
0.24031
0.240309
0.240307
0.240306
0.240304
0.240303
0.240302
0.2403
0.240299
0.240297
0.240296
0.240294
0.240293
0.240291
0.24029
0.240289
0.240287
0.240286
0.240284
0.240283
0.240281
0.24028
0.240278
0.240277
0.240275
0.240274
0.240273
0.240271
0.24027
0.240268
0.240267
0.240265
0.240264
0.240262
0.240261
0.240259
0.240258
0.240257
0.240255
0.240254
0.240252
0.240251
0.240249
0.240248
0.240246
0.240245
0.240243
0.240242
0.240241
0.240239
0.240238
0.240236
0.240235
0.240233
0.240232
0.24023
0.240229
0.240227
0.240226
0.240224
0.240223
0.240222
0.24022
0.240219
0.240217
0.240216
0.240214
0.240213
0.240211
0.24021
0.240208
0.240207
0.240205
0.240204
0.240202
0.240201
0.2402
0.240198
0.240197
0.240195
0.240194
0.240192
0.240191
0.240189
0.240188
0.240186
0.240185
0.240184
0.240182
0.240181
0.240179
0.240178
0.240176
0.240175
0.240173
0.240172
0.24017
0.240169
0.240167
0.240166
0.240164
0.240163
0.240161
0.24016
0.240159
0.240157
0.240156
0.240154
0.240153
0.240151
0.24015
0.240148
0.240147
0.240145
0.240144
0.240142
0.240141
0.240139
0.240138
0.240136
0.240135
0.240133
0.240132
0.24013
0.240129
0.240127
0.240126
0.240125
0.240123
0.240122
0.24012
0.240119
0.240117
0.240116
0.240114
0.240113
0.240111
0.24011
0.240108
0.240107
0.240105
0.240104
0.240102
0.240101
0.240099
0.240098
0.240097
0.240095
0.240094
0.240092
0.240091
0.240089
0.240088
0.240086
0.240085
0.240083
0.240082
0.24008
0.240079
0.240077
0.240076
0.240074
0.240073
0.240071
0.24007
0.240069
0.240067
0.240065
0.240064
0.240062
0.240061
0.240059
0.240058
0.240057
0.240055
0.240054
0.240052
0.240051
0.240049
0.240048
0.240046
0.240045
0.240043
0.240042
0.24004
0.240039
0.240037
0.240036
0.240034
0.240033
0.240031
0.24003
0.240028
0.240027
0.240025
0.240024
0.240022
0.240021
0.240019
0.240018
0.240016
0.240015
0.240013
0.240012
0.24001
0.240009
0.240007
0.240006
0.240004
0.240003
0.240001
0.24
0.239998
0.239997
0.239996
0.239994
0.239993
0.239991
0.239989
0.239988
0.239986
0.239985
0.239984
0.239982
0.239981
0.239979
0.239977
0.239976
0.239974
0.239973
0.239972
0.23997
0.239969
0.239967
0.239965
0.239964
0.239962
0.239961
0.23996
0.239958
0.239957
0.239955
0.239953
0.239952
0.239951
0.239949
0.239948
0.239946
0.239945
0.239943
0.239941
0.23994
0.239939
0.239937
0.239936
0.239934
0.239932
0.239931
0.239929
0.239928
0.239927
0.239925
0.239924
0.239922
0.23992
0.239919
0.239918
0.239916
0.239915
0.239913
0.239911
0.23991
0.239908
0.239907
0.239906
0.239904
0.239902
0.239901
0.239899
0.239898
0.239896
0.239895
0.239893
0.239892
0.23989
0.239889
0.239887
0.239886
0.239884
0.239883
0.239881
0.23988
0.239878
0.239877
0.239875
0.239874
0.239872
0.239871
0.239869
0.239868
0.239866
0.239865
0.239863
0.239862
0.23986
0.239859
0.239857
0.239856
0.239854
0.239853
0.239851
0.23985
0.239848
0.239846
0.239845
0.239843
0.239842
0.239841
0.239839
0.239837
0.239836
0.239834
0.239833
0.239831
0.23983
0.239828
0.239827
0.239825
0.239824
0.239822
0.239821
0.239819
0.239818
0.239816
0.239815
0.239813
0.239812
0.23981
0.239809
0.239807
0.239806
0.239804
0.239802
0.239801
0.2398
0.239798
0.239796
0.239795
0.239793
0.239792
0.23979
0.239789
0.239787
0.239786
0.239784
0.239783
0.239781
0.23978
0.239778
0.239777
0.239775
0.239774
0.239772
0.23977
0.239769
0.239768
0.239766
0.239764
0.239763
0.239761
0.23976
0.239758
0.239757
0.239755
0.239754
0.239752
0.239751
0.239749
0.239748
0.239746
0.239745
0.239743
0.239741
0.23974
0.239738
0.239737
0.239736
0.239734
0.239732
0.239731
0.239729
0.239728
0.239726
0.239725
0.239723
0.239722
0.23972
0.239718
0.239717
0.239716
0.239714
0.239712
0.239711
0.239709
0.239708
0.239706
0.239705
0.239703
0.239702
0.2397
0.239699
0.239697
0.239696
0.239694
0.239693
0.239691
0.239689
0.239688
0.239686
0.239685
0.239683
0.239682
0.23968
0.239679
0.239677
0.239676
0.239674
0.239673
0.239671
0.239669
0.239668
0.239666
0.239665
0.239663
0.239662
0.23966
0.239659
0.239657
0.239655
0.239654
0.239653
0.239651
0.239649
0.239648
0.239646
0.239645
0.239643
0.239642
0.23964
0.239639
0.239637
0.239635
0.239634
0.239633
0.239631
0.239629
0.239628
0.239626
0.239625
0.239623
0.239622
0.23962
0.239619
0.239617
0.239615
0.239614
0.239612
0.239611
0.239609
0.239608
0.239606
0.239605
0.239603
0.239602
0.2396
0.239598
0.239597
0.239595
0.239594
0.239592
0.239591
0.239589
0.239588
0.239586
0.239584
0.239583
0.239581
0.23958
0.239578
0.239577
0.239575
0.239574
0.239572
0.239571
0.239569
0.239567
0.239566
0.239564
0.239563
0.239561
0.23956
0.239558
0.239557
0.239555
0.239553
0.239552
0.23955
0.239549
0.239547
0.239546
0.239544
0.239542
0.239541
0.239539
0.239538
0.239536
0.239535
0.239533
0.239532
0.23953
0.239529
0.239527
0.239525
0.239524
0.239522
0.239521
0.239519
0.239518
0.239516
0.239515
0.239513
0.239511
0.23951
0.239508
0.239507
0.239505
0.239504
0.239502
0.2395
0.239499
0.239497
0.239496
0.239494
0.239493
0.239491
0.239489
0.239488
0.239486
0.239485
0.239483
0.239482
0.23948
0.239479
0.239477
0.239475
0.239474
0.239472
0.239471
0.239469
0.239468
0.239466
0.239465
0.239463
0.239461
0.23946
0.239458
0.239457
0.239455
0.239454
0.239452
0.23945
0.239449
0.239447
0.239446
0.239444
0.239443
0.239441
0.239439
0.239438
0.239436
0.239435
0.239433
0.239432
0.23943
0.239428
0.239427
0.239425
0.239424
0.239422
0.239421
0.239419
0.239417
0.239416
0.239414
0.239413
0.239411
0.23941
0.239408
0.239406
0.239405
0.239403
0.239402
0.2394
0.239399
0.239397
0.239395
0.239394
0.239392
0.239391
0.239389
0.239388
0.239386
0.239384
0.239383
0.239381
0.23938
0.239378
0.239377
0.239375
0.239373
0.239372
0.23937
0.239369
0.239367
0.239365
0.239364
0.239362
0.239361
0.239359
0.239357
0.239356
0.239354
0.239353
0.239351
0.23935
0.239348
0.239346
0.239345
0.239343
0.239342
0.23934
0.239339
0.239337
0.239335
0.239334
0.239332
0.239331
0.239329
0.239327
0.239326
0.239324
0.239323
0.239321
0.23932
0.239318
0.239316
0.239315
0.239313
0.239312
0.23931
0.239309
0.239307
0.239305
0.239304
0.239302
0.239301
0.239299
0.239297
0.239296
0.239294
0.239293
0.239291
0.239289
0.239288
0.239286
0.239285
0.239283
0.239281
0.23928
0.239278
0.239277
0.239275
0.239274
0.239272
0.23927
0.239269
0.239267
0.239266
0.239264
0.239262
0.239261
0.239259
0.239258
0.239256
0.239254
0.239253
0.239251
0.23925
0.239248
0.239246
0.239245
0.239243
0.239242
0.23924
0.239239
0.239237
0.239235
0.239234
0.239232
0.239231
0.239229
0.239227
0.239226
0.239224
0.239223
0.239221
0.239219
0.239218
0.239216
0.239215
0.239213
0.239211
0.23921
0.239208
0.239207
0.239205
0.239203
0.239202
0.2392
0.239199
0.239197
0.239195
0.239194
0.239192
0.239191
0.239189
0.239187
0.239186
0.239184
0.239183
0.239181
0.239179
0.239178
0.239176
0.239175
0.239173
0.239171
0.23917
0.239168
0.239167
0.239165
0.239163
0.239162
0.23916
0.239159
0.239157
0.239155
0.239154
0.239152
0.23915
0.239149
0.239147
0.239146
0.239144
0.239142
0.239141
0.239139
0.239138
0.239136
0.239134
0.239133
0.239131
0.23913
0.239128
0.239126
0.239125
0.239123
0.239122
0.23912
0.239118
0.239117
0.239115
0.239114
0.239112
0.23911
0.239109
0.239107
0.239105
0.239104
0.239102
0.239101
0.239099
0.239097
0.239096
0.239094
0.239093
0.239091
0.239089
0.239088
0.239086
0.239085
0.239083
0.239081
0.23908
0.239078
0.239076
0.239075
0.239073
0.239072
0.23907
0.239068
0.239067
0.239065
0.239064
0.239062
0.23906
0.239059
0.239057
0.239055
0.239054
0.239052
0.239051
0.239049
0.239047
0.239046
0.239044
0.239043
0.239041
0.239039
0.239038
0.239036
0.239034
0.239033
0.239031
0.23903
0.239028
0.239026
0.239025
0.239023
0.239021
0.23902
0.239018
0.239017
0.239015
0.239013
0.239012
0.23901
0.239009
0.239007
0.239005
0.239004
0.239002
0.239
0.238999
0.238997
0.238996
0.238994
0.238992
0.238991
0.238989
0.238987
0.238986
0.238984
0.238983
0.238981
0.238979
0.238978
0.238976
0.238974
0.238973
0.238971
0.23897
0.238968
0.238966
0.238965
0.238963
0.238961
0.23896
0.238958
0.238957
0.238955
0.238953
0.238952
0.23895
0.238948
0.238947
0.238945
0.238943
0.238942
0.23894
0.238939
0.238937
0.238935
0.238934
0.238932
0.23893
0.238929
0.238927
0.238926
0.238924
0.238922
0.238921
0.238919
0.238917
0.238916
0.238914
0.238912
0.238911
0.238909
0.238908
0.238906
0.238904
0.238903
0.238901
0.238899
0.238898
0.238896
0.238895
0.238893
0.238891
0.23889
0.238888
0.238886
0.238885
0.238883
0.238881
0.23888
0.238878
0.238877
0.238875
0.238873
0.238872
0.23887
0.238868
0.238867
0.238865
0.238863
0.238862
0.23886
0.238859
0.238857
0.238855
0.238854
0.238852
0.23885
0.238849
0.238847
0.238845
0.238844
0.238842
0.238841
0.238839
0.238837
0.238836
0.238834
0.238832
0.238831
0.238829
0.238827
0.238826
0.238824
0.238822
0.238821
0.238819
0.238818
0.238816
0.238814
0.238813
0.238811
0.238809
0.238808
0.238806
0.238804
0.238803
0.238801
0.238799
0.238798
0.238796
0.238795
0.238793
0.238791
0.23879
0.238788
0.238786
0.238785
0.238783
0.238781
0.23878
0.238778
0.238776
0.238775
0.238773
0.238772
0.23877
0.238768
0.238767
0.238765
0.238763
0.238762
0.23876
0.238758
0.238757
0.238755
0.238753
0.238752
0.23875
0.238748
0.238747
0.238745
0.238743
0.238742
0.23874
0.238739
0.238737
0.238735
0.238734
0.238732
0.23873
0.238729
0.238727
0.238725
0.238724
0.238722
0.23872
0.238719
0.238717
0.238715
0.238714
0.238712
0.23871
0.238709
0.238707
0.238705
0.238704
0.238702
0.238701
0.238699
0.238697
0.238696
0.238694
0.238692
0.238691
0.238689
0.238687
0.238686
0.238684
0.238682
0.238681
0.238679
0.238677
0.238676
0.238674
0.238672
0.238671
0.238669
0.238667
0.238666
0.238664
0.238662
0.238661
0.238659
0.238657
0.238656
0.238654
0.238653
0.238651
0.238649
0.238648
0.238646
0.238644
0.238643
0.238641
0.238639
0.238638
0.238636
0.238634
0.238633
0.238631
0.238629
0.238628
0.238626
0.238624
0.238623
0.238621
0.238619
0.238618
0.238616
0.238614
0.238613
0.238611
0.238609
0.238608
0.238606
0.238604
0.238603
0.238601
0.238599
0.238598
0.238596
0.238594
0.238593
0.238591
0.238589
0.238588
0.238586
0.238584
0.238583
0.238581
0.238579
0.238578
0.238576
0.238574
0.238573
0.238571
0.238569
0.238568
0.238566
0.238564
0.238563
0.238561
0.238559
0.238558
0.238556
0.238554
0.238553
0.238551
0.238549
0.238548
0.238546
0.238544
0.238543
0.238541
0.238539
0.238538
0.238536
0.238534
0.238533
0.238531
0.238529
0.238528
0.238526
0.238524
0.238523
0.238521
0.238519
0.238518
0.238516
0.238514
0.238513
0.238511
0.238509
0.238508
0.238506
0.238504
0.238503
0.238501
0.238499
0.238498
0.238496
0.238494
0.238493
0.238491
0.238489
0.238488
0.238486
0.238484
0.238483
0.238481
0.238479
0.238478
0.238476
0.238474
0.238473
0.238471
0.238469
0.238468
0.238466
0.238464
0.238463
0.238461
0.238459
0.238458
0.238456
0.238454
0.238453
0.238451
0.238449
0.238448
0.238446
0.238444
0.238443
0.238441
0.238439
0.238437
0.238436
0.238434
0.238432
0.238431
0.238429
0.238427
0.238426
0.238424
0.238422
0.238421
0.238419
0.238417
0.238416
0.238414
0.238412
0.238411
0.238409
0.238407
0.238406
0.238404
0.238402
0.238401
0.238399
0.238397
0.238396
0.238394
0.238392
0.238391
0.238389
0.238387
0.238386
0.238384
0.238382
0.23838
0.238379
0.238377
0.238375
0.238374
0.238372
0.23837
0.238369
0.238367
0.238365
0.238364
0.238362
0.23836
0.238359
0.238357
0.238355
0.238354
0.238352
0.23835
0.238349
0.238347
0.238345
0.238344
0.238342
0.23834
0.238338
0.238337
0.238335
0.238333
0.238332
0.23833
0.238328
0.238327
0.238325
0.238323
0.238322
0.23832
0.238318
0.238317
0.238315
0.238313
0.238312
0.23831
0.238308
0.238307
0.238305
0.238303
0.238301
0.2383
0.238298
0.238296
0.238295
0.238293
0.238291
0.23829
0.238288
0.238286
0.238285
0.238283
0.238281
0.23828
0.238278
0.238276
0.238275
0.238273
0.238271
0.238269
0.238268
0.238266
0.238264
0.238263
0.238261
0.238259
0.238258
0.238256
0.238254
0.238253
0.238251
0.238249
0.238248
0.238246
0.238244
0.238243
0.238241
0.238239
0.238237
0.238236
0.238234
0.238232
0.238231
0.238229
0.238227
0.238226
0.238224
0.238222
0.238221
0.238219
0.238217
0.238216
0.238214
0.238212
0.23821
0.238209
0.238207
0.238205
0.238204
0.238202
0.2382
0.238199
0.238197
0.238195
0.238194
0.238192
0.23819
0.238189
0.238187
0.238185
0.238183
0.238182
0.23818
0.238178
0.238177
0.238175
0.238173
0.238172
0.23817
0.238168
0.238167
0.238165
0.238163
0.238162
0.23816
0.238158
0.238156
0.238155
0.238153
0.238151
0.23815
0.238148
0.238146
0.238145
0.238143
0.238141
0.23814
0.238138
0.238136
0.238134
0.238133
0.238131
0.238129
0.238128
0.238126
0.238124
0.238123
0.238121
0.238119
0.238118
0.238116
0.238114
0.238113
0.238111
0.238109
0.238107
0.238106
0.238104
0.238102
0.238101
0.238099
0.238097
0.238096
0.238094
0.238092
0.238091
0.238089
0.238087
0.238085
0.238084
0.238082
0.23808
0.238079
0.238077
0.238075
0.238074
0.238072
0.23807
0.238069
0.238067
0.238065
0.238064
0.238062
0.23806
0.238058
0.238057
0.238055
0.238053
0.238052
0.23805
0.238048
0.238047
0.238045
0.238043
0.238042
0.23804
0.238038
0.238036
0.238035
0.238033
0.238031
0.23803
0.238028
0.238026
0.238025
0.238023
0.238021
0.23802
0.238018
0.238016
0.238015
0.238013
0.238011
0.238009
0.238008
0.238006
0.238004
0.238003
0.238001
0.237999
0.237998
0.237996
0.237994
0.237993
0.237991
0.237989
0.237987
0.237986
0.237984
0.237982
0.237981
0.237979
0.237977
0.237976
0.237974
0.237972
0.237971
0.237969
0.237967
0.237966
0.237964
0.237962
0.23796
0.237959
0.237957
0.237955
0.237954
0.237952
0.23795
0.237949
0.237947
0.237945
0.237944
0.237942
0.23794
0.237938
0.237937
0.237935
0.237933
0.237932
0.23793
0.237928
0.237927
0.237925
0.237923
0.237922
0.23792
0.237918
0.237917
0.237915
0.237913
0.237911
0.23791
0.237908
0.237906
0.237905
0.237903
0.237901
0.2379
0.237898
0.237896
0.237895
0.237893
0.237891
0.23789
0.237888
0.237886
0.237884
0.237883
0.237881
0.237879
0.237878
0.237876
0.237874
0.237873
0.237871
0.237869
0.237868
0.237866
0.237864
0.237863
0.237861
0.237859
0.237858
0.237856
0.237854
0.237852
0.237851
0.237849
0.237847
0.237846
0.237844
0.237842
0.237841
0.237839
0.237837
0.237836
0.237834
0.237832
0.237831
0.237829
0.237827
0.237826
0.237824
0.237822
0.23782
0.237819
0.237817
0.237815
0.237814
0.237812
0.23781
0.237809
0.237807
0.237805
0.237804
0.237802
0.2378
0.237799
0.237797
0.237795
0.237794
0.237792
0.23779
0.237789
0.237787
0.237785
0.237784
0.237782
0.23778
0.237778
0.237777
0.237775
0.237773
0.237772
0.23777
0.237768
0.237767
0.237765
0.237763
0.237762
0.23776
0.237758
0.237757
0.237755
0.237753
0.237752
0.23775
0.237748
0.237747
0.237745
0.237743
0.237742
0.23774
0.237738
0.237737
0.237735
0.237733
0.237732
0.23773
0.237728
0.237727
0.237725
0.237723
0.237721
0.23772
0.237718
0.237716
0.237715
0.237713
0.237711
0.23771
0.237708
0.237706
0.237705
0.237703
0.237701
0.2377
0.237698
0.237696
0.237695
0.237693
0.237691
0.23769
0.237688
0.237686
0.237685
0.237683
0.237681
0.23768
0.237678
0.237676
0.237675
0.237673
0.237671
0.23767
0.237668
0.237666
0.237665
0.237663
0.237661
0.23766
0.237658
0.237656
0.237655
0.237653
0.237651
0.23765
0.237648
0.237646
0.237645
0.237643
0.237641
0.23764
0.237638
0.237636
0.237635
0.237633
0.237631
0.23763
0.237628
0.237627
0.237625
0.237623
0.237622
0.23762
0.237618
0.237617
0.237615
0.237613
0.237612
0.23761
0.237608
0.237607
0.237605
0.237603
0.237602
0.2376
0.237598
0.237597
0.237595
0.237593
0.237592
0.23759
0.237588
0.237587
0.237585
0.237584
0.237582
0.23758
0.237579
0.237577
0.237575
0.237574
0.237572
0.23757
0.237569
0.237567
0.237565
0.237564
0.237562
0.23756
0.237559
0.237557
0.237556
0.237554
0.237552
0.237551
0.237549
0.237547
0.237546
0.237544
0.237542
0.237541
0.237539
0.237537
0.237536
0.237534
0.237533
0.237531
0.237529
0.237528
0.237526
0.237524
0.237523
0.237521
0.237519
0.237518
0.237516
0.237515
0.237513
0.237511
0.23751
0.237508
0.237506
0.237505
0.237503
0.237502
0.2375
0.237498
0.237497
0.237495
0.237493
0.237492
0.23749
0.237489
0.237487
0.237485
0.237484
0.237482
0.23748
0.237479
0.237477
0.237476
0.237474
0.237472
0.237471
0.237469
0.237467
0.237466
0.237464
0.237463
0.237461
0.237459
0.237458
0.237456
0.237455
0.237453
0.237451
0.23745
0.237448
0.237446
0.237445
0.237443
0.237442
0.23744
0.237438
0.237437
0.237435
0.237434
0.237432
0.23743
0.237429
0.237427
0.237426
0.237424
0.237422
0.237421
0.237419
0.237418
0.237416
0.237414
0.237413
0.237411
0.23741
0.237408
0.237406
0.237405
0.237403
0.237402
0.2374
0.237398
0.237397
0.237395
0.237394
0.237392
0.23739
0.237389
0.237387
0.237386
0.237384
0.237383
0.237381
0.237379
0.237378
0.237376
0.237375
0.237373
0.237371
0.23737
0.237368
0.237367
0.237365
0.237364
0.237362
0.23736
0.237359
0.237357
0.237356
0.237354
0.237353
0.237351
0.237349
0.237348
0.237346
0.237345
0.237343
0.237342
0.23734
0.237338
0.237337
0.237335
0.237334
0.237332
0.237331
0.237329
0.237328
0.237326
0.237324
0.237323
0.237321
0.23732
0.237318
0.237317
0.237315
0.237314
0.237312
0.23731
0.237309
0.237307
0.237306
0.237304
0.237303
0.237301
0.2373
0.237298
0.237297
0.237295
0.237294
0.237292
0.23729
0.237289
0.237287
0.237286
0.237284
0.237283
0.237281
0.23728
0.237278
0.237277
0.237275
0.237274
0.237272
0.237271
0.237269
0.237268
0.237266
0.237265
0.237263
0.237262
0.23726
0.237258
0.237257
0.237255
0.237254
0.237252
0.237251
0.237249
0.237248
0.237246
0.237245
0.237243
0.237242
0.23724
0.237239
0.237237
0.237236
0.237234
0.237233
0.237231
0.23723
0.237228
0.237227
0.237226
0.237224
0.237223
0.237221
0.23722
0.237218
0.237217
0.237215
0.237214
0.237212
0.237211
0.237209
0.237208
0.237206
0.237205
0.237203
0.237202
0.2372
0.237199
0.237198
0.237196
0.237195
0.237193
0.237192
0.23719
0.237189
0.237187
0.237186
0.237184
0.237183
0.237182
0.23718
0.237179
0.237177
0.237176
0.237174
0.237173
0.237172
0.23717
0.237169
0.237167
0.237166
0.237164
0.237163
0.237162
0.23716
0.237159
0.237157
0.237156
0.237154
0.237153
0.237152
0.23715
0.237149
0.237147
0.237146
0.237145
0.237143
0.237142
0.23714
0.237139
0.237138
0.237136
0.237135
0.237133
0.237132
0.237131
0.237129
0.237128
0.237127
0.237125
0.237124
0.237122
0.237121
0.23712
0.237118
0.237117
0.237116
0.237114
0.237113
0.237111
0.23711
0.237109
0.237107
0.237106
0.237105
0.237103
0.237102
0.237101
0.237099
0.237098
0.237097
0.237095
0.237094
0.237093
0.237091
0.23709
0.237089
0.237087
0.237086
0.237085
0.237083
0.237082
0.237081
0.23708
0.237078
0.237077
0.237076
0.237074
0.237073
0.237072
0.23707
0.237069
0.237068
0.237067
0.237065
0.237064
0.237063
0.237061
0.23706
0.237059
0.237058
0.237056
0.237055
0.237054
0.237053
0.237051
0.23705
0.237049
0.237048
0.237046
0.237045
0.237044
0.237043
0.237041
0.23704
0.237039
0.237038
0.237037
0.237035
0.237034
0.237033
0.237032
0.23703
0.237029
0.237028
0.237027
0.237026
0.237024
0.237023
0.237022
0.237021
0.23702
0.237019
0.237017
0.237016
0.237015
0.237014
0.237013
0.237012
0.23701
0.237009
0.237008
0.237007
0.237006
0.237005
0.237004
0.237002
0.237001
0.237
0.236999
0.236998
0.236997
0.236996
0.236995
0.236993
0.236992
0.236991
0.23699
0.236989
0.236988
0.236987
0.236986
0.236985
0.236984
0.236983
0.236981
0.23698
0.236979
0.236978
0.236977
0.236976
0.236975
0.236974
0.236973
0.236972
0.236971
0.23697
0.236969
0.236968
0.236967
0.236966
0.236965
0.236964
0.236963
0.236962
0.236961
0.23696
0.236959
0.236958
0.236957
0.236956
0.236955
0.236954
0.236953
0.236952
0.236951
0.23695
0.236949
0.236948
0.236947
0.236947
0.236946
0.236945
0.236944
0.236943
0.236942
0.236941
0.23694
0.236939
0.236938
0.236938
0.236937
0.236936
0.236935
0.236934
0.236933
0.236932
0.236932
0.236931
0.23693
0.236929
0.236928
0.236927
0.236927
0.236926
0.236925
0.236924
0.236923
0.236923
0.236922
0.236921
0.23692
0.236919
0.236919
0.236918
0.236917
0.236916
0.236916
0.236915
0.236914
0.236914
0.236913
0.236912
0.236911
0.236911
0.23691
0.236909
0.236909
0.236908
0.236907
0.236907
0.236906
0.236905
0.236905
0.236904
0.236903
0.236903
0.236902
0.236902
0.236901
0.2369
0.2369
0.236899
0.236899
0.236898
0.236898
0.236897
0.236896
0.236896
0.236895
0.236895
0.236894
0.236894
0.236893
0.236893
0.236892
0.236892
0.236891
0.236891
0.23689
0.23689
0.236889
0.236889
0.236889
0.236888
0.236888
0.236887
0.236887
0.236887
0.236886
0.236886
0.236885
0.236885
0.236885
0.236884
0.236884
0.236884
0.236883
0.236883
0.236883
0.236882
0.236882
0.236882
0.236882
0.236881
0.236881
0.236881
0.236881
0.23688
0.23688
0.23688
0.23688
0.23688
0.23688
0.236879
0.236879
0.236879
0.236879
0.236879
0.236879
0.236879
0.236878
0.236878
0.236878
0.236878
0.236878
0.236878
0.236878
0.236878
0.236878
0.236878
0.236878
0.236878
0.236878
0.236878
0.236878
0.236878
0.236878
0.236878
0.236878
0.236878
0.236879
0.236879
0.236879
0.236879
0.236879
0.236879
0.23688
0.23688
0.23688
0.23688
0.23688
0.236881
0.236881
0.236881
0.236881
0.236882
0.236882
0.236882
0.236883
0.236883
0.236883
0.236884
0.236884
0.236884
0.236885
0.236885
0.236886
0.236886
0.236887
0.236887
0.236888
0.236888
0.236889
0.236889
0.23689
0.23689
0.236891
0.236891
0.236892
0.236893
0.236893
0.236894
0.236895
0.236895
0.236896
0.236897
0.236897
0.236898
0.236899
0.2369
0.236901
0.236901
0.236902
0.236903
0.236904
0.236905
0.236906
0.236907
0.236907
0.236908
0.236909
0.23691
0.236911
0.236912
0.236913
0.236914
0.236915
0.236917
0.236918
0.236919
0.23692
0.236921
0.236922
0.236923
0.236925
0.236926
0.236927
0.236928
0.23693
0.236931
0.236932
0.236934
0.236935
0.236936
0.236938
0.236939
0.236941
0.236942
0.236944
0.236945
0.236947
0.236948
0.23695
0.236951
0.236953
0.236955
0.236956
0.236958
0.23696
0.236961
0.236963
0.236965
0.236967
0.236969
0.23697
0.236972
0.236974
0.236976
0.236978
0.23698
0.236982
0.236984
0.236986
0.236988
0.23699
0.236992
0.236994
0.236997
0.236999
0.237001
0.237003
0.237005
0.237008
0.23701
0.237012
0.237015
0.237017
0.23702
0.237022
0.237024
0.237027
0.237029
0.237032
0.237035
0.237037
0.23704
0.237043
0.237045
0.237048
0.237051
0.237054
0.237056
0.237059
0.237062
0.237065
0.237068
0.237071
0.237074
0.237077
0.23708
0.237083
0.237086
0.237089
0.237092
0.237096
0.237099
0.237102
0.237106
0.237109
0.237112
0.237116
0.237119
0.237123
0.237126
0.23713
0.237133
0.237137
0.23714
0.237144
0.237148
0.237152
0.237155
0.237159
0.237163
0.237167
0.237171
0.237175
0.237179
0.237183
0.237187
0.237191
0.237195
0.237199
0.237204
0.237208
0.237212
0.237217
0.237221
0.237225
0.23723
0.237234
0.237239
0.237244
0.237248
0.237253
0.237257
0.237262
0.237267
0.237272
0.237277
0.237282
0.237287
0.237292
0.237297
0.237302
0.237307
0.237312
0.237317
0.237322
0.237328
0.237333
0.237338
0.237344
0.237349
0.237355
0.23736
0.237366
0.237371
0.237377
0.237383
0.237388
0.237394
0.2374
0.237406
0.237412
0.237418
0.237424
0.23743
0.237436
0.237442
0.237449
0.237455
0.237461
0.237468
0.237474
0.23748
0.237487
0.237493
0.2375
0.237507
0.237513
0.23752
0.237527
0.237534
0.237541
0.237548
0.237555
0.237562
0.237569
0.237576
0.237583
0.23759
0.237597
0.237605
0.237612
0.23762
0.237627
0.237635
0.237642
0.23765
0.237657
0.237665
0.237673
0.237681
0.237689
0.237696
0.237704
0.237712
0.23772
0.237729
0.237737
0.237745
0.237753
0.237762
0.23777
0.237778
0.237787
0.237795
0.237804
0.237813
0.237821
0.23783
0.237839
0.237847
0.237856
0.237865
0.237874
0.237883
0.237892
0.237901
0.237911
0.23792
0.237929
0.237938
0.237948
0.237957
0.237967
0.237976
0.237986
0.237995
0.238005
0.238015
0.238024
0.238034
0.238044
0.238054
0.238064
0.238074
0.238084
0.238094
0.238104
0.238114
0.238125
0.238135
0.238145
0.238156
0.238166
0.238176
0.238187
0.238198
0.238208
0.238219
0.238229
0.23824
0.238251
0.238262
0.238273
0.238284
0.238295
0.238306
0.238317
0.238328
0.238339
0.23835
0.238361
0.238372
0.238384
0.238395
0.238406
0.238418
0.238429
0.238441
0.238452
0.238464
0.238476
0.238487
0.238499
0.238511
0.238522
0.238534
0.238546
0.238558
0.23857
0.238582
0.238594
0.238606
0.238618
0.23863
0.238642
0.238654
0.238667
0.238679
0.238691
0.238703
0.238716
0.238728
0.23874
0.238753
0.238765
0.238778
0.23879
0.238803
0.238815
0.238828
0.238841
0.238853
0.238866
0.238879
0.238892
0.238904
0.238917
0.23893
0.238943
0.238956
0.238969
0.238982
0.238995
0.239008
0.239021
0.239034
0.239047
0.23906
0.239073
0.239086
0.239099
0.239112
0.239126
0.239139
0.239152
0.239165
0.239179
0.239192
0.239205
0.239218
0.239232
0.239245
0.239259
0.239272
0.239285
0.239299
0.239312