/*--------------------------------*- C++ -*----------------------------------*\
  =========                 |
  \\      /  F ield         | OpenFOAM: The Open Source CFD Toolbox
   \\    /   O peration     | Website:  https://openfoam.org
    \\  /    A nd           | Version:  9
     \\/     M anipulation  |
\*---------------------------------------------------------------------------*/
FoamFile
{
    format      ascii;
    class       volVectorField;
    location    "0.031";
    object      U;
}
// * * * * * * * * * * * * * * * * * * * * * * * * * * * * * * * * * * * * * //

dimensions      [0 1 -1 0 0 0 0];

internalField   nonuniform List<vector> 
1000
(
(183.194 0 0)
(183.615 0 0)
(183.86 0 0)
(184.127 0 0)
(184.388 0 0)
(184.651 0 0)
(184.914 0 0)
(185.176 0 0)
(185.44 0 0)
(185.703 0 0)
(185.967 0 0)
(186.23 0 0)
(186.494 0 0)
(186.758 0 0)
(187.022 0 0)
(187.285 0 0)
(187.548 0 0)
(187.811 0 0)
(188.074 0 0)
(188.336 0 0)
(188.599 0 0)
(188.861 0 0)
(189.124 0 0)
(189.386 0 0)
(189.649 0 0)
(189.912 0 0)
(190.175 0 0)
(190.438 0 0)
(190.701 0 0)
(190.964 0 0)
(191.228 0 0)
(191.491 0 0)
(191.754 0 0)
(192.017 0 0)
(192.28 0 0)
(192.542 0 0)
(192.805 0 0)
(193.068 0 0)
(193.331 0 0)
(193.593 0 0)
(193.856 0 0)
(194.118 0 0)
(194.381 0 0)
(194.644 0 0)
(194.906 0 0)
(195.169 0 0)
(195.432 0 0)
(195.694 0 0)
(195.957 0 0)
(196.22 0 0)
(196.482 0 0)
(196.745 0 0)
(197.007 0 0)
(197.27 0 0)
(197.532 0 0)
(197.795 0 0)
(198.058 0 0)
(198.32 0 0)
(198.583 0 0)
(198.845 0 0)
(199.108 0 0)
(199.37 0 0)
(199.633 0 0)
(199.895 0 0)
(200.158 0 0)
(200.421 0 0)
(200.684 0 0)
(200.946 0 0)
(201.208 0 0)
(201.47 0 0)
(201.732 0 0)
(201.993 0 0)
(202.255 0 0)
(202.516 0 0)
(202.778 0 0)
(203.04 0 0)
(203.302 0 0)
(203.564 0 0)
(203.827 0 0)
(204.089 0 0)
(204.351 0 0)
(204.613 0 0)
(204.875 0 0)
(205.137 0 0)
(205.399 0 0)
(205.66 0 0)
(205.922 0 0)
(206.185 0 0)
(206.449 0 0)
(206.714 0 0)
(206.976 0 0)
(207.235 0 0)
(207.493 0 0)
(207.754 0 0)
(208.019 0 0)
(208.289 0 0)
(208.557 0 0)
(208.817 0 0)
(209.072 0 0)
(209.327 0 0)
(209.587 0 0)
(209.855 0 0)
(210.126 0 0)
(210.392 0 0)
(210.652 0 0)
(210.908 0 0)
(211.166 0 0)
(211.428 0 0)
(211.694 0 0)
(211.96 0 0)
(212.223 0 0)
(212.484 0 0)
(212.744 0 0)
(213.006 0 0)
(213.269 0 0)
(213.533 0 0)
(213.796 0 0)
(214.058 0 0)
(214.32 0 0)
(214.582 0 0)
(214.844 0 0)
(215.107 0 0)
(215.369 0 0)
(215.631 0 0)
(215.894 0 0)
(216.156 0 0)
(216.418 0 0)
(216.681 0 0)
(216.943 0 0)
(217.206 0 0)
(217.468 0 0)
(217.73 0 0)
(217.993 0 0)
(218.255 0 0)
(218.517 0 0)
(218.78 0 0)
(219.042 0 0)
(219.305 0 0)
(219.567 0 0)
(219.829 0 0)
(220.092 0 0)
(220.354 0 0)
(220.617 0 0)
(220.879 0 0)
(221.141 0 0)
(221.404 0 0)
(221.666 0 0)
(221.928 0 0)
(222.191 0 0)
(222.453 0 0)
(222.715 0 0)
(222.978 0 0)
(223.24 0 0)
(223.502 0 0)
(223.765 0 0)
(224.027 0 0)
(224.289 0 0)
(224.551 0 0)
(224.814 0 0)
(225.076 0 0)
(225.338 0 0)
(225.601 0 0)
(225.863 0 0)
(226.125 0 0)
(226.387 0 0)
(226.65 0 0)
(226.912 0 0)
(227.174 0 0)
(227.436 0 0)
(227.699 0 0)
(227.961 0 0)
(228.223 0 0)
(228.485 0 0)
(228.748 0 0)
(229.01 0 0)
(229.272 0 0)
(229.534 0 0)
(229.796 0 0)
(230.059 0 0)
(230.321 0 0)
(230.583 0 0)
(230.845 0 0)
(231.108 0 0)
(231.37 0 0)
(231.632 0 0)
(231.894 0 0)
(232.157 0 0)
(232.419 0 0)
(232.681 0 0)
(232.943 0 0)
(233.205 0 0)
(233.468 0 0)
(233.73 0 0)
(233.992 0 0)
(234.254 0 0)
(234.516 0 0)
(234.779 0 0)
(235.041 0 0)
(235.303 0 0)
(235.565 0 0)
(235.827 0 0)
(236.089 0 0)
(236.352 0 0)
(236.614 0 0)
(236.876 0 0)
(237.138 0 0)
(237.4 0 0)
(237.662 0 0)
(237.924 0 0)
(238.186 0 0)
(238.448 0 0)
(238.711 0 0)
(238.973 0 0)
(239.235 0 0)
(239.497 0 0)
(239.759 0 0)
(240.021 0 0)
(240.283 0 0)
(240.545 0 0)
(240.807 0 0)
(241.069 0 0)
(241.331 0 0)
(241.593 0 0)
(241.855 0 0)
(242.117 0 0)
(242.38 0 0)
(242.642 0 0)
(242.904 0 0)
(243.166 0 0)
(243.428 0 0)
(243.69 0 0)
(243.952 0 0)
(244.214 0 0)
(244.476 0 0)
(244.738 0 0)
(245 0 0)
(245.262 0 0)
(245.524 0 0)
(245.786 0 0)
(246.048 0 0)
(246.31 0 0)
(246.572 0 0)
(246.834 0 0)
(247.096 0 0)
(247.358 0 0)
(247.62 0 0)
(247.882 0 0)
(248.144 0 0)
(248.406 0 0)
(248.668 0 0)
(248.93 0 0)
(249.192 0 0)
(249.454 0 0)
(249.716 0 0)
(249.978 0 0)
(250.24 0 0)
(250.501 0 0)
(250.763 0 0)
(251.025 0 0)
(251.287 0 0)
(251.549 0 0)
(251.811 0 0)
(252.073 0 0)
(252.335 0 0)
(252.598 0 0)
(252.86 0 0)
(253.123 0 0)
(253.385 0 0)
(253.647 0 0)
(253.91 0 0)
(254.172 0 0)
(254.434 0 0)
(254.695 0 0)
(254.957 0 0)
(255.219 0 0)
(255.48 0 0)
(255.742 0 0)
(256.004 0 0)
(256.265 0 0)
(256.527 0 0)
(256.788 0 0)
(257.05 0 0)
(257.312 0 0)
(257.574 0 0)
(257.836 0 0)
(258.098 0 0)
(258.359 0 0)
(258.621 0 0)
(258.883 0 0)
(259.145 0 0)
(259.407 0 0)
(259.669 0 0)
(259.93 0 0)
(260.192 0 0)
(260.454 0 0)
(260.715 0 0)
(260.978 0 0)
(261.24 0 0)
(261.502 0 0)
(261.763 0 0)
(262.024 0 0)
(262.286 0 0)
(262.548 0 0)
(262.811 0 0)
(263.073 0 0)
(263.334 0 0)
(263.595 0 0)
(263.856 0 0)
(264.118 0 0)
(264.381 0 0)
(264.644 0 0)
(264.906 0 0)
(265.167 0 0)
(265.427 0 0)
(265.688 0 0)
(265.951 0 0)
(266.215 0 0)
(266.479 0 0)
(266.741 0 0)
(267 0 0)
(267.259 0 0)
(267.519 0 0)
(267.782 0 0)
(268.048 0 0)
(268.314 0 0)
(268.575 0 0)
(268.833 0 0)
(269.089 0 0)
(269.347 0 0)
(269.611 0 0)
(269.885 0 0)
(270.152 0 0)
(270.409 0 0)
(270.662 0 0)
(270.916 0 0)
(271.174 0 0)
(271.445 0 0)
(271.724 0 0)
(271.985 0 0)
(272.237 0 0)
(272.489 0 0)
(272.742 0 0)
(273.003 0 0)
(273.285 0 0)
(273.558 0 0)
(273.813 0 0)
(274.064 0 0)
(274.316 0 0)
(274.57 0 0)
(274.84 0 0)
(275.125 0 0)
(275.386 0 0)
(275.639 0 0)
(275.89 0 0)
(276.143 0 0)
(276.401 0 0)
(276.678 0 0)
(276.953 0 0)
(277.21 0 0)
(277.463 0 0)
(277.717 0 0)
(277.974 0 0)
(278.238 0 0)
(278.506 0 0)
(278.769 0 0)
(279.036 0 0)
(279.306 0 0)
(279.565 0 0)
(279.819 0 0)
(280.073 0 0)
(280.329 0 0)
(280.596 0 0)
(280.876 0 0)
(281.136 0 0)
(281.389 0 0)
(281.642 0 0)
(281.896 0 0)
(282.16 0 0)
(282.442 0 0)
(282.705 0 0)
(282.959 0 0)
(283.212 0 0)
(283.465 0 0)
(283.723 0 0)
(284.001 0 0)
(284.273 0 0)
(284.529 0 0)
(284.782 0 0)
(285.036 0 0)
(285.291 0 0)
(285.557 0 0)
(285.837 0 0)
(286.098 0 0)
(286.352 0 0)
(286.607 0 0)
(286.863 0 0)
(287.127 0 0)
(287.405 0 0)
(287.666 0 0)
(287.921 0 0)
(288.175 0 0)
(288.43 0 0)
(288.686 0 0)
(288.952 0 0)
(289.228 0 0)
(289.487 0 0)
(289.743 0 0)
(289.996 0 0)
(290.248 0 0)
(290.503 0 0)
(290.761 0 0)
(291.031 0 0)
(291.3 0 0)
(291.556 0 0)
(291.809 0 0)
(292.058 0 0)
(292.303 0 0)
(292.553 0 0)
(292.804 0 0)
(293.06 0 0)
(293.339 0 0)
(293.606 0 0)
(293.851 0 0)
(294.091 0 0)
(294.323 0 0)
(294.541 0 0)
(294.758 0 0)
(294.98 0 0)
(295.197 0 0)
(295.411 0 0)
(295.623 0 0)
(295.819 0 0)
(296.002 0 0)
(296.17 0 0)
(296.314 0 0)
(296.447 0 0)
(296.57 0 0)
(296.676 0 0)
(296.763 0 0)
(296.832 0 0)
(296.883 0 0)
(296.916 0 0)
(296.926 0 0)
(296.928 0 0)
(296.934 0 0)
(296.935 0 0)
(296.932 0 0)
(296.926 0 0)
(296.914 0 0)
(296.894 0 0)
(296.858 0 0)
(296.799 0 0)
(296.75 0 0)
(296.719 0 0)
(296.692 0 0)
(296.667 0 0)
(296.642 0 0)
(296.618 0 0)
(296.592 0 0)
(296.567 0 0)
(296.539 0 0)
(296.498 0 0)
(296.438 0 0)
(296.397 0 0)
(296.362 0 0)
(296.327 0 0)
(296.295 0 0)
(296.268 0 0)
(296.238 0 0)
(296.194 0 0)
(296.171 0 0)
(296.167 0 0)
(296.172 0 0)
(296.195 0 0)
(296.237 0 0)
(296.288 0 0)
(296.333 0 0)
(296.372 0 0)
(296.398 0 0)
(296.395 0 0)
(296.391 0 0)
(296.398 0 0)
(296.405 0 0)
(296.409 0 0)
(296.412 0 0)
(296.409 0 0)
(296.387 0 0)
(296.369 0 0)
(296.364 0 0)
(296.359 0 0)
(296.352 0 0)
(296.342 0 0)
(296.326 0 0)
(296.294 0 0)
(296.263 0 0)
(296.245 0 0)
(296.23 0 0)
(296.213 0 0)
(296.192 0 0)
(296.165 0 0)
(296.121 0 0)
(296.08 0 0)
(296.057 0 0)
(296.039 0 0)
(296.025 0 0)
(296.014 0 0)
(296.001 0 0)
(295.975 0 0)
(295.962 0 0)
(295.974 0 0)
(295.997 0 0)
(296.023 0 0)
(296.046 0 0)
(296.062 0 0)
(296.057 0 0)
(296.058 0 0)
(296.069 0 0)
(296.08 0 0)
(296.088 0 0)
(296.093 0 0)
(296.091 0 0)
(296.07 0 0)
(296.055 0 0)
(296.053 0 0)
(296.052 0 0)
(296.05 0 0)
(296.046 0 0)
(296.037 0 0)
(296.01 0 0)
(295.985 0 0)
(295.972 0 0)
(295.961 0 0)
(295.95 0 0)
(295.938 0 0)
(295.921 0 0)
(295.889 0 0)
(295.855 0 0)
(295.834 0 0)
(295.817 0 0)
(295.8 0 0)
(295.785 0 0)
(295.768 0 0)
(295.739 0 0)
(295.714 0 0)
(295.708 0 0)
(295.708 0 0)
(295.715 0 0)
(295.731 0 0)
(295.748 0 0)
(295.749 0 0)
(295.755 0 0)
(295.77 0 0)
(295.782 0 0)
(295.79 0 0)
(295.796 0 0)
(295.793 0 0)
(295.776 0 0)
(295.771 0 0)
(295.773 0 0)
(295.774 0 0)
(295.774 0 0)
(295.77 0 0)
(295.751 0 0)
(295.731 0 0)
(295.724 0 0)
(295.72 0 0)
(295.714 0 0)
(295.705 0 0)
(295.69 0 0)
(295.657 0 0)
(295.634 0 0)
(295.621 0 0)
(295.61 0 0)
(295.599 0 0)
(295.587 0 0)
(295.569 0 0)
(295.539 0 0)
(295.502 0 0)
(295.482 0 0)
(295.468 0 0)
(295.455 0 0)
(295.433 0 0)
(295.405 0 0)
(295.4 0 0)
(295.407 0 0)
(295.423 0 0)
(295.443 0 0)
(295.465 0 0)
(295.484 0 0)
(295.499 0 0)
(295.509 0 0)
(295.516 0 0)
(295.513 0 0)
(295.487 0 0)
(295.471 0 0)
(295.471 0 0)
(295.473 0 0)
(295.475 0 0)
(295.474 0 0)
(295.466 0 0)
(295.441 0 0)
(295.428 0 0)
(295.423 0 0)
(295.418 0 0)
(295.413 0 0)
(295.405 0 0)
(295.387 0 0)
(295.357 0 0)
(295.341 0 0)
(295.329 0 0)
(295.317 0 0)
(295.303 0 0)
(295.278 0 0)
(295.245 0 0)
(295.228 0 0)
(295.216 0 0)
(295.205 0 0)
(295.197 0 0)
(295.191 0 0)
(295.187 0 0)
(295.183 0 0)
(295.169 0 0)
(295.126 0 0)
(295.115 0 0)
(295.127 0 0)
(295.142 0 0)
(295.156 0 0)
(295.169 0 0)
(295.18 0 0)
(295.189 0 0)
(295.196 0 0)
(295.201 0 0)
(295.203 0 0)
(295.206 0 0)
(295.208 0 0)
(295.21 0 0)
(295.209 0 0)
(295.195 0 0)
(295.143 0 0)
(295.109 0 0)
(295.101 0 0)
(295.096 0 0)
(295.092 0 0)
(295.088 0 0)
(295.083 0 0)
(295.078 0 0)
(295.071 0 0)
(295.063 0 0)
(295.053 0 0)
(295.038 0 0)
(295.001 0 0)
(294.954 0 0)
(294.936 0 0)
(294.925 0 0)
(294.917 0 0)
(294.911 0 0)
(294.906 0 0)
(294.904 0 0)
(294.905 0 0)
(294.909 0 0)
(294.917 0 0)
(294.919 0 0)
(294.896 0 0)
(294.875 0 0)
(294.879 0 0)
(294.887 0 0)
(294.895 0 0)
(294.901 0 0)
(294.906 0 0)
(294.909 0 0)
(294.911 0 0)
(294.912 0 0)
(294.912 0 0)
(294.911 0 0)
(294.903 0 0)
(294.867 0 0)
(294.837 0 0)
(294.83 0 0)
(294.826 0 0)
(294.822 0 0)
(294.817 0 0)
(294.813 0 0)
(294.808 0 0)
(294.801 0 0)
(294.785 0 0)
(294.756 0 0)
(294.741 0 0)
(294.731 0 0)
(294.721 0 0)
(294.711 0 0)
(294.696 0 0)
(294.669 0 0)
(294.651 0 0)
(294.644 0 0)
(294.64 0 0)
(294.638 0 0)
(294.637 0 0)
(294.631 0 0)
(294.618 0 0)
(294.622 0 0)
(294.63 0 0)
(294.636 0 0)
(294.641 0 0)
(294.642 0 0)
(294.629 0 0)
(294.615 0 0)
(294.615 0 0)
(294.617 0 0)
(294.618 0 0)
(294.617 0 0)
(294.611 0 0)
(294.588 0 0)
(294.569 0 0)
(294.566 0 0)
(294.566 0 0)
(294.565 0 0)
(294.562 0 0)
(294.559 0 0)
(294.554 0 0)
(294.548 0 0)
(294.538 0 0)
(294.506 0 0)
(294.437 0 0)
(294.413 0 0)
(294.404 0 0)
(294.395 0 0)
(294.388 0 0)
(294.381 0 0)
(294.375 0 0)
(294.371 0 0)
(294.368 0 0)
(294.364 0 0)
(294.354 0 0)
(294.321 0 0)
(294.301 0 0)
(294.304 0 0)
(294.312 0 0)
(294.322 0 0)
(294.33 0 0)
(294.336 0 0)
(294.34 0 0)
(294.338 0 0)
(294.322 0 0)
(294.299 0 0)
(294.297 0 0)
(294.3 0 0)
(294.302 0 0)
(294.303 0 0)
(294.303 0 0)
(294.302 0 0)
(294.301 0 0)
(294.298 0 0)
(294.283 0 0)
(294.268 0 0)
(294.263 0 0)
(294.26 0 0)
(294.255 0 0)
(294.25 0 0)
(294.246 0 0)
(294.242 0 0)
(294.238 0 0)
(294.228 0 0)
(294.193 0 0)
(294.137 0 0)
(294.118 0 0)
(294.11 0 0)
(294.105 0 0)
(294.103 0 0)
(294.102 0 0)
(294.101 0 0)
(294.101 0 0)
(294.097 0 0)
(294.074 0 0)
(294.058 0 0)
(294.061 0 0)
(294.069 0 0)
(294.076 0 0)
(294.081 0 0)
(294.084 0 0)
(294.086 0 0)
(294.085 0 0)
(294.076 0 0)
(294.044 0 0)
(294.032 0 0)
(294.032 0 0)
(294.033 0 0)
(294.034 0 0)
(294.033 0 0)
(294.032 0 0)
(294.03 0 0)
(294.029 0 0)
(294.028 0 0)
(294.026 0 0)
(294.021 0 0)
(294.005 0 0)
(293.951 0 0)
(293.915 0 0)
(293.906 0 0)
(293.902 0 0)
(293.9 0 0)
(293.897 0 0)
(293.893 0 0)
(293.888 0 0)
(293.882 0 0)
(293.879 0 0)
(293.877 0 0)
(293.876 0 0)
(293.878 0 0)
(293.879 0 0)
(293.872 0 0)
(293.831 0 0)
(293.798 0 0)
(293.797 0 0)
(293.801 0 0)
(293.807 0 0)
(293.812 0 0)
(293.815 0 0)
(293.818 0 0)
(293.823 0 0)
(293.84 0 0)
(293.85 0 0)
(293.853 0 0)
(293.855 0 0)
(293.856 0 0)
(293.853 0 0)
(293.835 0 0)
(293.809 0 0)
(293.802 0 0)
(293.799 0 0)
(293.798 0 0)
(293.797 0 0)
(293.796 0 0)
(293.794 0 0)
(293.789 0 0)
(293.779 0 0)
(293.753 0 0)
(293.734 0 0)
(293.729 0 0)
(293.726 0 0)
(293.724 0 0)
(293.721 0 0)
(293.718 0 0)
(293.715 0 0)
(293.713 0 0)
(293.711 0 0)
(293.704 0 0)
(293.673 0 0)
(293.655 0 0)
(293.655 0 0)
(293.657 0 0)
(293.659 0 0)
(293.661 0 0)
(293.665 0 0)
(293.668 0 0)
(293.668 0 0)
(293.655 0 0)
(293.637 0 0)
(293.633 0 0)
(293.632 0 0)
(293.632 0 0)
(293.633 0 0)
(293.634 0 0)
(293.635 0 0)
(293.634 0 0)
(293.628 0 0)
(293.616 0 0)
(293.61 0 0)
(293.608 0 0)
(293.607 0 0)
(293.607 0 0)
(293.606 0 0)
(293.605 0 0)
(293.601 0 0)
(293.596 0 0)
(293.587 0 0)
(293.564 0 0)
(293.513 0 0)
(293.495 0 0)
(293.492 0 0)
(293.49 0 0)
(293.488 0 0)
(293.489 0 0)
(293.493 0 0)
(293.497 0 0)
(293.503 0 0)
(293.507 0 0)
(293.501 0 0)
(293.473 0 0)
(293.414 0 0)
(293.213 0 0)
(292.416 0 0)
(290.089 0 0)
(287.758 0 0)
(286.762 0 0)
(286.363 0 0)
(286.219 0 0)
(286.172 0 0)
(286.169 0 0)
(286.151 0 0)
(286.096 0 0)
(286.07 0 0)
(286.055 0 0)
(286.051 0 0)
(286.057 0 0)
(286.061 0 0)
(286.07 0 0)
(286.074 0 0)
(286.074 0 0)
(286.066 0 0)
(286.033 0 0)
(285.999 0 0)
(285.986 0 0)
(285.985 0 0)
(285.992 0 0)
(286.009 0 0)
(286.071 0 0)
(286.141 0 0)
(286.153 0 0)
(286.155 0 0)
(286.154 0 0)
(286.144 0 0)
(286.102 0 0)
(286.035 0 0)
(286.019 0 0)
(286.019 0 0)
(286.023 0 0)
(286.035 0 0)
(286.046 0 0)
(286.048 0 0)
(286.049 0 0)
(286.038 0 0)
(285.998 0 0)
(285.982 0 0)
(285.982 0 0)
(285.986 0 0)
(285.992 0 0)
(286.013 0 0)
(286.066 0 0)
(286.098 0 0)
(286.109 0 0)
(286.11 0 0)
(286.109 0 0)
(286.1 0 0)
(286.059 0 0)
(286.015 0 0)
(286.003 0 0)
(285.988 0 0)
(285.948 0 0)
(285.831 0 0)
(285.462 0 0)
(284.261 0 0)
(282.447 0 0)
(281.224 0 0)
(280.627 0 0)
(280.365 0 0)
(280.267 0 0)
(280.211 0 0)
(280.121 0 0)
(279.974 0 0)
(279.92 0 0)
(279.911 0 0)
(279.911 0 0)
(279.922 0 0)
(279.958 0 0)
(280.052 0 0)
(280.132 0 0)
(280.15 0 0)
(280.148 0 0)
(280.145 0 0)
(280.129 0 0)
(280.059 0 0)
(279.969 0 0)
(279.951 0 0)
(279.947 0 0)
(279.949 0 0)
(279.965 0 0)
(280.026 0 0)
(280.061 0 0)
(280.067 0 0)
(280.067 0 0)
(280.063 0 0)
(280.045 0 0)
(280.005 0 0)
(279.994 0 0)
(279.993 0 0)
(279.994 0 0)
(280.002 0 0)
(280.025 0 0)
(280.034 0 0)
(280.035 0 0)
(280.034 0 0)
(280.031 0 0)
(280.018 0 0)
(280.012 0 0)
(280.012 0 0)
(280.013 0 0)
(280.016 0 0)
(280.022 0 0)
(280.024 0 0)
(280.024 0 0)
)
;

boundaryField
{
    sides
    {
        type            zeroGradient;
    }
    empty
    {
        type            empty;
    }
}


// ************************************************************************* //
