/*--------------------------------*- C++ -*----------------------------------*\
  =========                 |
  \\      /  F ield         | OpenFOAM: The Open Source CFD Toolbox
   \\    /   O peration     | Website:  https://openfoam.org
    \\  /    A nd           | Version:  9
     \\/     M anipulation  |
\*---------------------------------------------------------------------------*/
FoamFile
{
    format      ascii;
    class       volVectorField;
    location    "0.037";
    object      U;
}
// * * * * * * * * * * * * * * * * * * * * * * * * * * * * * * * * * * * * * //

dimensions      [0 1 -1 0 0 0 0];

internalField   nonuniform List<vector> 
1000
(
(16.2089 0 0)
(16.5707 0 0)
(17.0027 0 0)
(17.3572 0 0)
(17.673 0 0)
(17.9888 0 0)
(18.3121 0 0)
(18.6384 0 0)
(18.9644 0 0)
(19.2898 0 0)
(19.615 0 0)
(19.9402 0 0)
(20.2656 0 0)
(20.5909 0 0)
(20.9163 0 0)
(21.2417 0 0)
(21.5671 0 0)
(21.8926 0 0)
(22.2181 0 0)
(22.5437 0 0)
(22.8692 0 0)
(23.1948 0 0)
(23.5203 0 0)
(23.8459 0 0)
(24.1715 0 0)
(24.4971 0 0)
(24.8227 0 0)
(25.1484 0 0)
(25.4741 0 0)
(25.7999 0 0)
(26.1257 0 0)
(26.4515 0 0)
(26.7774 0 0)
(27.1033 0 0)
(27.4291 0 0)
(27.755 0 0)
(28.0809 0 0)
(28.4068 0 0)
(28.7327 0 0)
(29.0587 0 0)
(29.3846 0 0)
(29.7106 0 0)
(30.0366 0 0)
(30.3626 0 0)
(30.6887 0 0)
(31.0147 0 0)
(31.3408 0 0)
(31.6668 0 0)
(31.9929 0 0)
(32.319 0 0)
(32.6451 0 0)
(32.9713 0 0)
(33.2974 0 0)
(33.6236 0 0)
(33.9498 0 0)
(34.276 0 0)
(34.6022 0 0)
(34.9284 0 0)
(35.2546 0 0)
(35.5809 0 0)
(35.9071 0 0)
(36.2334 0 0)
(36.5597 0 0)
(36.886 0 0)
(37.2123 0 0)
(37.5386 0 0)
(37.865 0 0)
(38.1913 0 0)
(38.5177 0 0)
(38.844 0 0)
(39.1704 0 0)
(39.4968 0 0)
(39.8232 0 0)
(40.1496 0 0)
(40.476 0 0)
(40.8024 0 0)
(41.1289 0 0)
(41.4553 0 0)
(41.7817 0 0)
(42.1082 0 0)
(42.4346 0 0)
(42.7611 0 0)
(43.0876 0 0)
(43.414 0 0)
(43.7405 0 0)
(44.067 0 0)
(44.3935 0 0)
(44.72 0 0)
(45.0464 0 0)
(45.3729 0 0)
(45.6994 0 0)
(46.0259 0 0)
(46.3524 0 0)
(46.6789 0 0)
(47.0054 0 0)
(47.3319 0 0)
(47.6584 0 0)
(47.9849 0 0)
(48.3114 0 0)
(48.6379 0 0)
(48.9643 0 0)
(49.2908 0 0)
(49.6173 0 0)
(49.9438 0 0)
(50.2702 0 0)
(50.5967 0 0)
(50.9232 0 0)
(51.2496 0 0)
(51.576 0 0)
(51.9025 0 0)
(52.2289 0 0)
(52.5553 0 0)
(52.8817 0 0)
(53.2081 0 0)
(53.5345 0 0)
(53.8609 0 0)
(54.1872 0 0)
(54.5136 0 0)
(54.8399 0 0)
(55.1662 0 0)
(55.4925 0 0)
(55.8188 0 0)
(56.1451 0 0)
(56.4713 0 0)
(56.7976 0 0)
(57.1238 0 0)
(57.45 0 0)
(57.7762 0 0)
(58.1023 0 0)
(58.4284 0 0)
(58.7545 0 0)
(59.0806 0 0)
(59.4067 0 0)
(59.7327 0 0)
(60.0587 0 0)
(60.3847 0 0)
(60.7107 0 0)
(61.0366 0 0)
(61.3625 0 0)
(61.6884 0 0)
(62.0142 0 0)
(62.34 0 0)
(62.6658 0 0)
(62.9915 0 0)
(63.3172 0 0)
(63.6428 0 0)
(63.9685 0 0)
(64.294 0 0)
(64.6196 0 0)
(64.9451 0 0)
(65.2705 0 0)
(65.5959 0 0)
(65.9213 0 0)
(66.2466 0 0)
(66.5719 0 0)
(66.8971 0 0)
(67.2223 0 0)
(67.5474 0 0)
(67.8725 0 0)
(68.1975 0 0)
(68.5225 0 0)
(68.8474 0 0)
(69.1722 0 0)
(69.497 0 0)
(69.8217 0 0)
(70.1464 0 0)
(70.471 0 0)
(70.7955 0 0)
(71.12 0 0)
(71.4443 0 0)
(71.7687 0 0)
(72.0929 0 0)
(72.4171 0 0)
(72.7412 0 0)
(73.0652 0 0)
(73.3891 0 0)
(73.713 0 0)
(74.0367 0 0)
(74.3604 0 0)
(74.684 0 0)
(75.0075 0 0)
(75.3309 0 0)
(75.6542 0 0)
(75.9774 0 0)
(76.3006 0 0)
(76.6236 0 0)
(76.9465 0 0)
(77.2693 0 0)
(77.592 0 0)
(77.9146 0 0)
(78.237 0 0)
(78.5594 0 0)
(78.8816 0 0)
(79.2038 0 0)
(79.5257 0 0)
(79.8476 0 0)
(80.1693 0 0)
(80.4909 0 0)
(80.8124 0 0)
(81.1337 0 0)
(81.4549 0 0)
(81.7759 0 0)
(82.0968 0 0)
(82.4175 0 0)
(82.7381 0 0)
(83.0585 0 0)
(83.3788 0 0)
(83.6988 0 0)
(84.0187 0 0)
(84.3385 0 0)
(84.658 0 0)
(84.9774 0 0)
(85.2966 0 0)
(85.6156 0 0)
(85.9344 0 0)
(86.253 0 0)
(86.5714 0 0)
(86.8895 0 0)
(87.2075 0 0)
(87.5253 0 0)
(87.8428 0 0)
(88.1601 0 0)
(88.4771 0 0)
(88.794 0 0)
(89.1105 0 0)
(89.4268 0 0)
(89.7429 0 0)
(90.0587 0 0)
(90.3742 0 0)
(90.6895 0 0)
(91.0045 0 0)
(91.3192 0 0)
(91.6335 0 0)
(91.9476 0 0)
(92.2614 0 0)
(92.5749 0 0)
(92.888 0 0)
(93.2008 0 0)
(93.5133 0 0)
(93.8254 0 0)
(94.1372 0 0)
(94.4486 0 0)
(94.7596 0 0)
(95.0703 0 0)
(95.3805 0 0)
(95.6904 0 0)
(95.9999 0 0)
(96.309 0 0)
(96.6176 0 0)
(96.9258 0 0)
(97.2336 0 0)
(97.5409 0 0)
(97.8478 0 0)
(98.1542 0 0)
(98.4602 0 0)
(98.7656 0 0)
(99.0706 0 0)
(99.375 0 0)
(99.679 0 0)
(99.9824 0 0)
(100.285 0 0)
(100.588 0 0)
(100.889 0 0)
(101.191 0 0)
(101.491 0 0)
(101.792 0 0)
(102.092 0 0)
(102.391 0 0)
(102.69 0 0)
(102.987 0 0)
(103.284 0 0)
(103.58 0 0)
(103.875 0 0)
(104.169 0 0)
(104.463 0 0)
(104.756 0 0)
(105.048 0 0)
(105.339 0 0)
(105.629 0 0)
(105.919 0 0)
(106.208 0 0)
(106.496 0 0)
(106.783 0 0)
(107.069 0 0)
(107.354 0 0)
(107.639 0 0)
(107.922 0 0)
(108.204 0 0)
(108.486 0 0)
(108.766 0 0)
(109.045 0 0)
(109.324 0 0)
(109.601 0 0)
(109.877 0 0)
(110.152 0 0)
(110.426 0 0)
(110.698 0 0)
(110.97 0 0)
(111.24 0 0)
(111.509 0 0)
(111.777 0 0)
(112.043 0 0)
(112.308 0 0)
(112.572 0 0)
(112.834 0 0)
(113.096 0 0)
(113.355 0 0)
(113.614 0 0)
(113.87 0 0)
(114.126 0 0)
(114.38 0 0)
(114.632 0 0)
(114.883 0 0)
(115.133 0 0)
(115.381 0 0)
(115.627 0 0)
(115.872 0 0)
(116.115 0 0)
(116.356 0 0)
(116.596 0 0)
(116.835 0 0)
(117.071 0 0)
(117.306 0 0)
(117.539 0 0)
(117.771 0 0)
(118.001 0 0)
(118.229 0 0)
(118.455 0 0)
(118.68 0 0)
(118.903 0 0)
(119.124 0 0)
(119.343 0 0)
(119.561 0 0)
(119.777 0 0)
(119.991 0 0)
(120.204 0 0)
(120.415 0 0)
(120.624 0 0)
(120.831 0 0)
(121.037 0 0)
(121.241 0 0)
(121.443 0 0)
(121.644 0 0)
(121.843 0 0)
(122.04 0 0)
(122.236 0 0)
(122.43 0 0)
(122.623 0 0)
(122.814 0 0)
(123.003 0 0)
(123.191 0 0)
(123.378 0 0)
(123.563 0 0)
(123.747 0 0)
(123.93 0 0)
(124.111 0 0)
(124.291 0 0)
(124.469 0 0)
(124.646 0 0)
(124.823 0 0)
(124.998 0 0)
(125.172 0 0)
(125.344 0 0)
(125.516 0 0)
(125.687 0 0)
(125.857 0 0)
(126.026 0 0)
(126.194 0 0)
(126.361 0 0)
(126.527 0 0)
(126.693 0 0)
(126.858 0 0)
(127.022 0 0)
(127.185 0 0)
(127.348 0 0)
(127.51 0 0)
(127.672 0 0)
(127.833 0 0)
(127.994 0 0)
(128.154 0 0)
(128.314 0 0)
(128.473 0 0)
(128.632 0 0)
(128.79 0 0)
(128.949 0 0)
(129.107 0 0)
(129.264 0 0)
(129.421 0 0)
(129.579 0 0)
(129.735 0 0)
(129.892 0 0)
(130.048 0 0)
(130.205 0 0)
(130.361 0 0)
(130.517 0 0)
(130.673 0 0)
(130.828 0 0)
(130.984 0 0)
(131.139 0 0)
(131.295 0 0)
(131.45 0 0)
(131.605 0 0)
(131.761 0 0)
(131.916 0 0)
(132.071 0 0)
(132.226 0 0)
(132.381 0 0)
(132.536 0 0)
(132.691 0 0)
(132.846 0 0)
(133.001 0 0)
(133.156 0 0)
(133.312 0 0)
(133.467 0 0)
(133.622 0 0)
(133.777 0 0)
(133.932 0 0)
(134.087 0 0)
(134.242 0 0)
(134.397 0 0)
(134.552 0 0)
(134.708 0 0)
(134.863 0 0)
(135.018 0 0)
(135.173 0 0)
(135.329 0 0)
(135.484 0 0)
(135.639 0 0)
(135.795 0 0)
(135.95 0 0)
(136.106 0 0)
(136.261 0 0)
(136.417 0 0)
(136.572 0 0)
(136.728 0 0)
(136.884 0 0)
(137.039 0 0)
(137.195 0 0)
(137.351 0 0)
(137.507 0 0)
(137.663 0 0)
(137.819 0 0)
(137.974 0 0)
(138.13 0 0)
(138.286 0 0)
(138.443 0 0)
(138.599 0 0)
(138.755 0 0)
(138.911 0 0)
(139.067 0 0)
(139.223 0 0)
(139.38 0 0)
(139.536 0 0)
(139.692 0 0)
(139.849 0 0)
(140.005 0 0)
(140.162 0 0)
(140.318 0 0)
(140.475 0 0)
(140.631 0 0)
(140.788 0 0)
(140.945 0 0)
(141.101 0 0)
(141.258 0 0)
(141.415 0 0)
(141.572 0 0)
(141.729 0 0)
(141.886 0 0)
(142.043 0 0)
(142.2 0 0)
(142.357 0 0)
(142.514 0 0)
(142.671 0 0)
(142.828 0 0)
(142.985 0 0)
(143.143 0 0)
(143.3 0 0)
(143.457 0 0)
(143.615 0 0)
(143.772 0 0)
(143.93 0 0)
(144.087 0 0)
(144.245 0 0)
(144.402 0 0)
(144.56 0 0)
(144.718 0 0)
(144.875 0 0)
(145.033 0 0)
(145.191 0 0)
(145.349 0 0)
(145.507 0 0)
(145.665 0 0)
(145.823 0 0)
(145.981 0 0)
(146.139 0 0)
(146.297 0 0)
(146.455 0 0)
(146.613 0 0)
(146.772 0 0)
(146.93 0 0)
(147.088 0 0)
(147.247 0 0)
(147.405 0 0)
(147.563 0 0)
(147.722 0 0)
(147.88 0 0)
(148.039 0 0)
(148.198 0 0)
(148.356 0 0)
(148.515 0 0)
(148.674 0 0)
(148.832 0 0)
(148.991 0 0)
(149.15 0 0)
(149.309 0 0)
(149.468 0 0)
(149.627 0 0)
(149.786 0 0)
(149.945 0 0)
(150.104 0 0)
(150.263 0 0)
(150.422 0 0)
(150.582 0 0)
(150.741 0 0)
(150.9 0 0)
(151.059 0 0)
(151.219 0 0)
(151.378 0 0)
(151.538 0 0)
(151.697 0 0)
(151.857 0 0)
(152.016 0 0)
(152.176 0 0)
(152.336 0 0)
(152.495 0 0)
(152.655 0 0)
(152.815 0 0)
(152.975 0 0)
(153.135 0 0)
(153.295 0 0)
(153.454 0 0)
(153.614 0 0)
(153.775 0 0)
(153.935 0 0)
(154.095 0 0)
(154.255 0 0)
(154.415 0 0)
(154.575 0 0)
(154.736 0 0)
(154.896 0 0)
(155.056 0 0)
(155.217 0 0)
(155.377 0 0)
(155.537 0 0)
(155.698 0 0)
(155.859 0 0)
(156.019 0 0)
(156.18 0 0)
(156.34 0 0)
(156.501 0 0)
(156.662 0 0)
(156.823 0 0)
(156.983 0 0)
(157.144 0 0)
(157.305 0 0)
(157.466 0 0)
(157.627 0 0)
(157.788 0 0)
(157.949 0 0)
(158.11 0 0)
(158.272 0 0)
(158.433 0 0)
(158.594 0 0)
(158.755 0 0)
(158.916 0 0)
(159.078 0 0)
(159.239 0 0)
(159.401 0 0)
(159.562 0 0)
(159.724 0 0)
(159.885 0 0)
(160.047 0 0)
(160.208 0 0)
(160.37 0 0)
(160.532 0 0)
(160.693 0 0)
(160.855 0 0)
(161.017 0 0)
(161.179 0 0)
(161.341 0 0)
(161.503 0 0)
(161.665 0 0)
(161.827 0 0)
(161.989 0 0)
(162.151 0 0)
(162.313 0 0)
(162.475 0 0)
(162.637 0 0)
(162.8 0 0)
(162.962 0 0)
(163.124 0 0)
(163.287 0 0)
(163.449 0 0)
(163.611 0 0)
(163.774 0 0)
(163.936 0 0)
(164.099 0 0)
(164.262 0 0)
(164.424 0 0)
(164.587 0 0)
(164.75 0 0)
(164.912 0 0)
(165.075 0 0)
(165.238 0 0)
(165.401 0 0)
(165.564 0 0)
(165.727 0 0)
(165.89 0 0)
(166.053 0 0)
(166.216 0 0)
(166.379 0 0)
(166.542 0 0)
(166.705 0 0)
(166.868 0 0)
(167.032 0 0)
(167.195 0 0)
(167.358 0 0)
(167.522 0 0)
(167.685 0 0)
(167.849 0 0)
(168.012 0 0)
(168.176 0 0)
(168.339 0 0)
(168.503 0 0)
(168.666 0 0)
(168.83 0 0)
(168.994 0 0)
(169.158 0 0)
(169.321 0 0)
(169.485 0 0)
(169.649 0 0)
(169.813 0 0)
(169.977 0 0)
(170.141 0 0)
(170.305 0 0)
(170.469 0 0)
(170.633 0 0)
(170.797 0 0)
(170.962 0 0)
(171.126 0 0)
(171.29 0 0)
(171.454 0 0)
(171.619 0 0)
(171.783 0 0)
(171.948 0 0)
(172.112 0 0)
(172.277 0 0)
(172.441 0 0)
(172.606 0 0)
(172.77 0 0)
(172.935 0 0)
(173.1 0 0)
(173.264 0 0)
(173.429 0 0)
(173.594 0 0)
(173.759 0 0)
(173.924 0 0)
(174.088 0 0)
(174.253 0 0)
(174.418 0 0)
(174.583 0 0)
(174.749 0 0)
(174.914 0 0)
(175.079 0 0)
(175.244 0 0)
(175.409 0 0)
(175.574 0 0)
(175.74 0 0)
(175.905 0 0)
(176.07 0 0)
(176.236 0 0)
(176.401 0 0)
(176.567 0 0)
(176.732 0 0)
(176.898 0 0)
(177.063 0 0)
(177.229 0 0)
(177.395 0 0)
(177.56 0 0)
(177.726 0 0)
(177.892 0 0)
(178.058 0 0)
(178.224 0 0)
(178.39 0 0)
(178.556 0 0)
(178.721 0 0)
(178.887 0 0)
(179.054 0 0)
(179.22 0 0)
(179.386 0 0)
(179.552 0 0)
(179.718 0 0)
(179.884 0 0)
(180.051 0 0)
(180.217 0 0)
(180.383 0 0)
(180.55 0 0)
(180.716 0 0)
(180.882 0 0)
(181.049 0 0)
(181.215 0 0)
(181.382 0 0)
(181.549 0 0)
(181.715 0 0)
(181.882 0 0)
(182.049 0 0)
(182.215 0 0)
(182.382 0 0)
(182.549 0 0)
(182.716 0 0)
(182.883 0 0)
(183.05 0 0)
(183.217 0 0)
(183.384 0 0)
(183.551 0 0)
(183.718 0 0)
(183.885 0 0)
(184.052 0 0)
(184.219 0 0)
(184.386 0 0)
(184.554 0 0)
(184.721 0 0)
(184.888 0 0)
(185.056 0 0)
(185.223 0 0)
(185.39 0 0)
(185.558 0 0)
(185.725 0 0)
(185.893 0 0)
(186.06 0 0)
(186.228 0 0)
(186.395 0 0)
(186.563 0 0)
(186.731 0 0)
(186.898 0 0)
(187.066 0 0)
(187.234 0 0)
(187.402 0 0)
(187.569 0 0)
(187.737 0 0)
(187.905 0 0)
(188.073 0 0)
(188.241 0 0)
(188.409 0 0)
(188.577 0 0)
(188.745 0 0)
(188.913 0 0)
(189.081 0 0)
(189.249 0 0)
(189.417 0 0)
(189.586 0 0)
(189.754 0 0)
(189.922 0 0)
(190.091 0 0)
(190.259 0 0)
(190.428 0 0)
(190.596 0 0)
(190.765 0 0)
(190.933 0 0)
(191.102 0 0)
(191.271 0 0)
(191.439 0 0)
(191.608 0 0)
(191.777 0 0)
(191.946 0 0)
(192.114 0 0)
(192.283 0 0)
(192.452 0 0)
(192.621 0 0)
(192.79 0 0)
(192.959 0 0)
(193.128 0 0)
(193.297 0 0)
(193.466 0 0)
(193.635 0 0)
(193.804 0 0)
(193.973 0 0)
(194.141 0 0)
(194.31 0 0)
(194.479 0 0)
(194.648 0 0)
(194.817 0 0)
(194.986 0 0)
(195.154 0 0)
(195.323 0 0)
(195.491 0 0)
(195.66 0 0)
(195.828 0 0)
(195.996 0 0)
(196.165 0 0)
(196.333 0 0)
(196.5 0 0)
(196.668 0 0)
(196.835 0 0)
(197.003 0 0)
(197.17 0 0)
(197.336 0 0)
(197.503 0 0)
(197.669 0 0)
(197.835 0 0)
(198.001 0 0)
(198.166 0 0)
(198.331 0 0)
(198.495 0 0)
(198.659 0 0)
(198.823 0 0)
(198.986 0 0)
(199.148 0 0)
(199.31 0 0)
(199.472 0 0)
(199.633 0 0)
(199.793 0 0)
(199.952 0 0)
(200.111 0 0)
(200.27 0 0)
(200.427 0 0)
(200.584 0 0)
(200.74 0 0)
(200.895 0 0)
(201.05 0 0)
(201.204 0 0)
(201.357 0 0)
(201.509 0 0)
(201.66 0 0)
(201.81 0 0)
(201.96 0 0)
(202.108 0 0)
(202.256 0 0)
(202.403 0 0)
(202.55 0 0)
(202.695 0 0)
(202.84 0 0)
(202.984 0 0)
(203.127 0 0)
(203.269 0 0)
(203.411 0 0)
(203.552 0 0)
(203.693 0 0)
(203.833 0 0)
(203.972 0 0)
(204.111 0 0)
(204.25 0 0)
(204.389 0 0)
(204.527 0 0)
(204.665 0 0)
(204.803 0 0)
(204.941 0 0)
(205.078 0 0)
(205.216 0 0)
(205.354 0 0)
(205.493 0 0)
(205.631 0 0)
(205.77 0 0)
(205.909 0 0)
(206.048 0 0)
(206.188 0 0)
(206.329 0 0)
(206.47 0 0)
(206.612 0 0)
(206.754 0 0)
(206.898 0 0)
(207.042 0 0)
(207.186 0 0)
(207.332 0 0)
(207.478 0 0)
(207.625 0 0)
(207.773 0 0)
(207.922 0 0)
(208.072 0 0)
(208.223 0 0)
(208.374 0 0)
(208.527 0 0)
(208.68 0 0)
(208.834 0 0)
(208.989 0 0)
(209.145 0 0)
(209.301 0 0)
(209.459 0 0)
(209.617 0 0)
(209.776 0 0)
(209.935 0 0)
(210.095 0 0)
(210.256 0 0)
(210.418 0 0)
(210.58 0 0)
(210.743 0 0)
(210.906 0 0)
(211.07 0 0)
(211.235 0 0)
(211.4 0 0)
(211.565 0 0)
(211.731 0 0)
(211.897 0 0)
(212.064 0 0)
(212.231 0 0)
(212.398 0 0)
(212.566 0 0)
(212.734 0 0)
(212.902 0 0)
(213.071 0 0)
(213.239 0 0)
(213.409 0 0)
(213.578 0 0)
(213.747 0 0)
(213.917 0 0)
(214.087 0 0)
(214.258 0 0)
(214.428 0 0)
(214.599 0 0)
(214.77 0 0)
(214.941 0 0)
(215.112 0 0)
(215.283 0 0)
(215.455 0 0)
(215.627 0 0)
(215.799 0 0)
(215.971 0 0)
(216.143 0 0)
(216.315 0 0)
(216.488 0 0)
(216.661 0 0)
(216.833 0 0)
(217.006 0 0)
(217.179 0 0)
(217.352 0 0)
(217.525 0 0)
(217.698 0 0)
(217.871 0 0)
(218.044 0 0)
(218.217 0 0)
(218.389 0 0)
(218.561 0 0)
(218.733 0 0)
(218.905 0 0)
(219.076 0 0)
(219.247 0 0)
(219.416 0 0)
(219.585 0 0)
(219.753 0 0)
(219.92 0 0)
(220.085 0 0)
(220.248 0 0)
(220.41 0 0)
(220.569 0 0)
(220.727 0 0)
(220.881 0 0)
(221.033 0 0)
(221.182 0 0)
(221.327 0 0)
(221.469 0 0)
(221.607 0 0)
(221.741 0 0)
(221.872 0 0)
(221.998 0 0)
(222.119 0 0)
(222.237 0 0)
(222.35 0 0)
(222.46 0 0)
(222.565 0 0)
(222.667 0 0)
(222.765 0 0)
(222.86 0 0)
(222.953 0 0)
(223.043 0 0)
(223.131 0 0)
(223.218 0 0)
(223.304 0 0)
(223.389 0 0)
(223.474 0 0)
(223.559 0 0)
(223.645 0 0)
(223.732 0 0)
(223.82 0 0)
(223.91 0 0)
(224.002 0 0)
(224.095 0 0)
(224.19 0 0)
(224.288 0 0)
(224.388 0 0)
(224.49 0 0)
(224.594 0 0)
(224.701 0 0)
(224.81 0 0)
(224.921 0 0)
(225.034 0 0)
(225.149 0 0)
(225.267 0 0)
(225.387 0 0)
(225.513 0 0)
(225.796 0 0)
)
;

boundaryField
{
    sides
    {
        type            zeroGradient;
    }
    empty
    {
        type            empty;
    }
}


// ************************************************************************* //
