/*--------------------------------*- C++ -*----------------------------------*\
  =========                 |
  \\      /  F ield         | OpenFOAM: The Open Source CFD Toolbox
   \\    /   O peration     | Website:  https://openfoam.org
    \\  /    A nd           | Version:  9
     \\/     M anipulation  |
\*---------------------------------------------------------------------------*/
FoamFile
{
    format      ascii;
    class       surfaceScalarField;
    location    "0.043";
    object      phi;
}
// * * * * * * * * * * * * * * * * * * * * * * * * * * * * * * * * * * * * * //

dimensions      [1 0 -1 0 0 0 0];

internalField   nonuniform List<scalar> 
999
(
15.3561
15.5721
15.7879
16.0037
16.2193
16.4349
16.6503
16.8657
17.0809
17.2961
17.5112
17.7262
17.941
18.1558
18.3704
18.5849
18.7994
19.0139
19.2282
19.4424
19.6564
19.8703
20.0841
20.2979
20.5116
20.7253
20.9389
21.1524
21.3656
21.5786
21.7915
22.0043
22.217
22.4298
22.6426
22.8554
23.0682
23.2809
23.4934
23.7057
23.9178
24.1295
24.3409
24.5522
24.7633
24.9743
25.1853
25.3964
25.6076
25.8191
26.0309
26.2428
26.455
26.6673
26.8798
27.0923
27.3047
27.5172
27.7296
27.942
28.1543
28.3666
28.5793
28.7923
29.0052
29.218
29.4309
29.6436
29.8563
30.0689
30.2814
30.4938
30.7062
30.9185
31.1306
31.3427
31.5547
31.7666
31.9784
32.1902
32.4018
32.6133
32.8247
33.036
33.2472
33.4584
33.6694
33.8803
34.0911
34.3018
34.5124
34.7228
34.9332
35.1435
35.3536
35.5636
35.7735
35.9833
36.193
36.4025
36.6119
36.8212
37.0303
37.2394
37.4483
37.657
37.8656
38.0741
38.2824
38.4906
38.6987
38.9066
39.1143
39.3219
39.5294
39.7367
39.9438
40.1508
40.3576
40.5642
40.7707
40.977
41.1831
41.3891
41.5948
41.8004
42.0058
42.2111
42.4161
42.6209
42.8256
43.03
43.2343
43.4383
43.6422
43.8458
44.0492
44.2524
44.4554
44.6582
44.8607
45.063
45.2651
45.4669
45.6685
45.8699
46.071
46.2718
46.4724
46.6727
46.8728
47.0725
47.272
47.4712
47.6701
47.8687
48.0672
48.2654
48.4632
48.6606
48.8575
49.0541
49.2504
49.4463
49.6418
49.837
50.0318
50.2263
50.4205
50.6143
50.8076
51.0007
51.1933
51.3855
51.5773
51.7688
51.9598
52.1503
52.3405
52.5302
52.7194
52.9082
53.0966
53.2845
53.4719
53.6588
53.8452
54.0311
54.2165
54.4015
54.5859
54.7697
54.953
55.1358
55.3181
55.4998
55.6809
55.8614
56.0414
56.2208
56.3996
56.5778
56.7554
56.9324
57.1088
57.2845
57.4597
57.6341
57.808
57.9812
58.1537
58.3256
58.4969
58.6674
58.8374
59.0066
59.1751
59.343
59.5102
59.6767
59.8426
60.0077
60.1722
60.3359
60.499
60.6614
60.8231
60.9842
61.1445
61.3042
61.4632
61.6215
61.7792
61.9362
62.0925
62.2482
62.4033
62.5577
62.7115
62.8647
63.0173
63.1692
63.3206
63.4714
63.6216
63.7713
63.9205
64.0691
64.2172
64.3647
64.5118
64.6585
64.8046
64.9503
65.0956
65.2405
65.385
65.529
65.6727
65.8161
65.9591
66.1018
66.2442
66.3863
66.5282
66.6698
66.8111
66.9522
67.0931
67.2338
67.3743
67.5147
67.6549
67.795
67.9349
68.0748
68.2145
68.3542
68.4938
68.6333
68.7728
68.9122
69.0516
69.191
69.3304
69.4698
69.6092
69.7486
69.888
70.0275
70.1671
70.3066
70.4463
70.586
70.7258
70.8656
71.0056
71.1456
71.2857
71.4259
71.5662
71.7066
71.8472
71.9878
72.1285
72.2694
72.4104
72.5515
72.6928
72.8341
72.9756
73.1173
73.259
73.4009
73.543
73.6852
73.8275
73.97
74.1126
74.2553
74.3982
74.5413
74.6844
74.8278
74.9713
75.1149
75.2587
75.4026
75.5467
75.691
75.8354
75.9799
76.1246
76.2694
76.4144
76.5596
76.7049
76.8504
76.996
77.1418
77.2877
77.4338
77.58
77.7264
77.873
78.0197
78.1666
78.3136
78.4608
78.6081
78.7556
78.9033
79.0511
79.199
79.3472
79.4955
79.6439
79.7925
79.9413
80.0902
80.2393
80.3886
80.538
80.6875
80.8372
80.9871
81.1372
81.2874
81.4378
81.5883
81.739
81.8899
82.0409
82.192
82.3434
82.4949
82.6466
82.7984
82.9504
83.1025
83.2549
83.4073
83.56
83.7128
83.8658
84.0189
84.1722
84.3257
84.4793
84.6331
84.7871
84.9412
85.0955
85.2499
85.4045
85.5593
85.7143
85.8694
86.0247
86.1801
86.3357
86.4915
86.6475
86.8036
86.9599
87.1163
87.2729
87.4297
87.5866
87.7438
87.901
88.0585
88.2161
88.3739
88.5318
88.69
88.8483
89.0067
89.1653
89.3241
89.4831
89.6422
89.8015
89.961
90.1206
90.2804
90.4404
90.6006
90.7609
90.9214
91.082
91.2429
91.4039
91.565
91.7264
91.8879
92.0496
92.2114
92.3734
92.5356
92.698
92.8605
93.0232
93.1861
93.3492
93.5124
93.6758
93.8394
94.0031
94.167
94.3311
94.4954
94.6598
94.8244
94.9892
95.1542
95.3193
95.4846
95.6501
95.8157
95.9816
96.1476
96.3137
96.4801
96.6466
96.8133
96.9802
97.1472
97.3145
97.4819
97.6494
97.8172
97.9851
98.1532
98.3215
98.49
98.6586
98.8274
98.9964
99.1656
99.3349
99.5044
99.6741
99.844
100.014
100.184
100.355
100.525
100.696
100.867
101.038
101.209
101.381
101.553
101.724
101.896
102.069
102.241
102.414
102.586
102.759
102.932
103.106
103.279
103.453
103.627
103.801
103.975
104.149
104.324
104.499
104.673
104.849
105.024
105.199
105.375
105.551
105.727
105.903
106.079
106.256
106.433
106.61
106.787
106.964
107.142
107.319
107.497
107.675
107.853
108.032
108.21
108.389
108.568
108.747
108.927
109.106
109.286
109.466
109.646
109.826
110.007
110.187
110.368
110.549
110.73
110.912
111.093
111.275
111.457
111.639
111.821
112.004
112.187
112.369
112.553
112.736
112.919
113.103
113.287
113.471
113.655
113.84
114.024
114.209
114.394
114.579
114.764
114.95
115.136
115.322
115.508
115.694
115.881
116.067
116.254
116.441
116.629
116.816
117.004
117.192
117.38
117.568
117.756
117.945
118.134
118.323
118.512
118.702
118.891
119.081
119.271
119.461
119.652
119.842
120.033
120.224
120.415
120.607
120.798
120.99
121.182
121.374
121.566
121.759
121.952
122.145
122.338
122.531
122.725
122.918
123.112
123.306
123.501
123.695
123.89
124.085
124.28
124.475
124.671
124.867
125.062
125.259
125.455
125.651
125.848
126.045
126.242
126.439
126.637
126.835
127.033
127.231
127.429
127.628
127.826
128.025
128.224
128.424
128.623
128.823
129.023
129.223
129.423
129.624
129.825
130.026
130.227
130.428
130.63
130.832
131.034
131.236
131.438
131.641
131.843
132.046
132.25
132.453
132.657
132.86
133.064
133.269
133.473
133.678
133.883
134.088
134.293
134.498
134.704
134.91
135.116
135.322
135.529
135.736
135.942
136.15
136.357
136.564
136.772
136.98
137.188
137.397
137.605
137.814
138.023
138.232
138.442
138.652
138.861
139.071
139.282
139.492
139.703
139.914
140.125
140.337
140.548
140.76
140.971
141.184
141.396
141.609
141.821
142.035
142.248
142.461
142.675
142.888
143.103
143.317
143.531
143.745
143.96
144.175
144.39
144.605
144.821
145.036
145.252
145.468
145.684
145.9
146.117
146.333
146.55
146.766
146.983
147.2
147.417
147.634
147.852
148.069
148.286
148.504
148.722
148.939
149.157
149.374
149.592
149.81
150.028
150.245
150.463
150.681
150.898
151.116
151.334
151.551
151.769
151.986
152.203
152.421
152.638
152.855
153.072
153.289
153.505
153.722
153.938
154.155
154.371
154.587
154.803
155.019
155.235
155.45
155.666
155.881
156.097
156.312
156.527
156.742
156.958
157.173
157.388
157.603
157.818
158.033
158.248
158.464
158.679
158.895
159.11
159.326
159.542
159.759
159.975
160.192
160.409
160.627
160.844
161.063
161.281
161.5
161.719
161.939
162.159
162.38
162.601
162.823
163.045
163.268
163.491
163.715
163.94
164.165
164.39
164.616
164.843
165.07
165.298
165.527
165.756
165.986
166.216
166.447
166.678
166.91
167.142
167.375
167.609
167.843
168.078
168.313
168.549
168.785
169.021
169.259
169.496
169.734
169.973
170.212
170.451
170.691
170.931
171.172
171.413
171.655
171.897
172.139
172.381
172.624
172.868
173.112
173.356
173.6
173.845
174.09
174.335
174.581
174.827
175.074
175.321
175.568
175.815
176.063
176.311
176.559
176.807
177.056
177.305
177.555
177.804
178.054
178.304
178.555
178.805
179.056
179.307
179.558
179.809
180.06
180.312
180.563
180.814
181.066
181.317
181.568
181.82
182.07
182.321
182.572
182.822
183.071
183.321
183.569
183.817
184.065
184.312
184.558
184.803
185.048
185.291
185.534
185.775
186.016
186.255
186.494
186.731
186.967
187.203
187.437
187.67
187.902
188.133
188.363
188.593
188.822
189.05
189.277
189.504
189.731
189.958
190.184
190.411
190.637
190.864
191.092
191.319
191.547
191.776
192.006
192.236
192.467
192.699
192.933
193.167
193.402
193.638
193.876
194.114
194.354
194.595
194.837
195.08
195.324
195.569
195.815
196.063
196.311
196.561
196.811
197.063
197.316
197.569
197.824
198.079
198.336
198.593
198.851
199.11
199.37
199.63
199.892
200.154
200.417
200.681
200.946
201.211
201.478
201.745
202.012
202.281
202.55
202.82
203.09
203.362
203.634
203.906
204.179
204.453
204.728
205.003
205.279
205.556
205.833
206.111
206.389
206.668
206.948
207.228
207.509
207.79
208.072
208.355
208.638
208.922
209.206
209.491
209.777
210.063
210.349
210.637
210.924
211.212
211.501
211.791
212.08
)
;

boundaryField
{
    sides
    {
        type            calculated;
        value           nonuniform List<scalar> 2(212.371 -15.1401);
    }
    empty
    {
        type            empty;
        value           nonuniform List<scalar> 0();
    }
}


// ************************************************************************* //
