/*--------------------------------*- C++ -*----------------------------------*\
  =========                 |
  \\      /  F ield         | OpenFOAM: The Open Source CFD Toolbox
   \\    /   O peration     | Website:  https://openfoam.org
    \\  /    A nd           | Version:  9
     \\/     M anipulation  |
\*---------------------------------------------------------------------------*/
FoamFile
{
    format      ascii;
    class       volVectorField;
    location    "0.043";
    object      U;
}
// * * * * * * * * * * * * * * * * * * * * * * * * * * * * * * * * * * * * * //

dimensions      [0 1 -1 0 0 0 0];

internalField   nonuniform List<vector> 
1000
(
(18.3485 0 0)
(18.6337 0 0)
(18.9931 0 0)
(19.2888 0 0)
(19.5483 0 0)
(19.806 0 0)
(20.0702 0 0)
(20.3372 0 0)
(20.6041 0 0)
(20.8704 0 0)
(21.1365 0 0)
(21.4026 0 0)
(21.6688 0 0)
(21.935 0 0)
(22.2012 0 0)
(22.4674 0 0)
(22.7336 0 0)
(22.9997 0 0)
(23.2659 0 0)
(23.532 0 0)
(23.7982 0 0)
(24.0643 0 0)
(24.3304 0 0)
(24.5966 0 0)
(24.8627 0 0)
(25.1288 0 0)
(25.3948 0 0)
(25.6609 0 0)
(25.9269 0 0)
(26.1929 0 0)
(26.459 0 0)
(26.7249 0 0)
(26.9909 0 0)
(27.2569 0 0)
(27.5228 0 0)
(27.7887 0 0)
(28.0546 0 0)
(28.3205 0 0)
(28.5863 0 0)
(28.852 0 0)
(29.1178 0 0)
(29.3835 0 0)
(29.6492 0 0)
(29.9149 0 0)
(30.1805 0 0)
(30.4461 0 0)
(30.7117 0 0)
(30.9772 0 0)
(31.2427 0 0)
(31.5082 0 0)
(31.7736 0 0)
(32.039 0 0)
(32.3043 0 0)
(32.5696 0 0)
(32.8348 0 0)
(33.1 0 0)
(33.3651 0 0)
(33.6302 0 0)
(33.8952 0 0)
(34.1602 0 0)
(34.4251 0 0)
(34.6899 0 0)
(34.9546 0 0)
(35.2194 0 0)
(35.4841 0 0)
(35.7487 0 0)
(36.0132 0 0)
(36.2776 0 0)
(36.542 0 0)
(36.8063 0 0)
(37.0705 0 0)
(37.3347 0 0)
(37.5987 0 0)
(37.8627 0 0)
(38.1266 0 0)
(38.3904 0 0)
(38.6542 0 0)
(38.9178 0 0)
(39.1814 0 0)
(39.4448 0 0)
(39.7082 0 0)
(39.9715 0 0)
(40.2346 0 0)
(40.4977 0 0)
(40.7607 0 0)
(41.0235 0 0)
(41.2863 0 0)
(41.5489 0 0)
(41.8114 0 0)
(42.0738 0 0)
(42.3361 0 0)
(42.5982 0 0)
(42.8603 0 0)
(43.1222 0 0)
(43.3839 0 0)
(43.6456 0 0)
(43.9071 0 0)
(44.1684 0 0)
(44.4296 0 0)
(44.6907 0 0)
(44.9516 0 0)
(45.2123 0 0)
(45.4729 0 0)
(45.7334 0 0)
(45.9936 0 0)
(46.2538 0 0)
(46.5137 0 0)
(46.7734 0 0)
(47.033 0 0)
(47.2924 0 0)
(47.5516 0 0)
(47.8106 0 0)
(48.0694 0 0)
(48.3281 0 0)
(48.5865 0 0)
(48.8447 0 0)
(49.1027 0 0)
(49.3605 0 0)
(49.618 0 0)
(49.8754 0 0)
(50.1325 0 0)
(50.3893 0 0)
(50.6459 0 0)
(50.9023 0 0)
(51.1585 0 0)
(51.4143 0 0)
(51.6699 0 0)
(51.9253 0 0)
(52.1804 0 0)
(52.4352 0 0)
(52.6897 0 0)
(52.944 0 0)
(53.1979 0 0)
(53.4516 0 0)
(53.7049 0 0)
(53.958 0 0)
(54.2107 0 0)
(54.4631 0 0)
(54.7152 0 0)
(54.9669 0 0)
(55.2183 0 0)
(55.4694 0 0)
(55.7201 0 0)
(55.9704 0 0)
(56.2204 0 0)
(56.4699 0 0)
(56.7191 0 0)
(56.9679 0 0)
(57.2163 0 0)
(57.4643 0 0)
(57.7119 0 0)
(57.959 0 0)
(58.2057 0 0)
(58.4519 0 0)
(58.6977 0 0)
(58.943 0 0)
(59.188 0 0)
(59.4327 0 0)
(59.6768 0 0)
(59.9201 0 0)
(60.1628 0 0)
(60.4048 0 0)
(60.6463 0 0)
(60.8872 0 0)
(61.1275 0 0)
(61.3672 0 0)
(61.6064 0 0)
(61.845 0 0)
(62.0829 0 0)
(62.3203 0 0)
(62.557 0 0)
(62.7931 0 0)
(63.0286 0 0)
(63.2634 0 0)
(63.4975 0 0)
(63.7309 0 0)
(63.9636 0 0)
(64.1956 0 0)
(64.4268 0 0)
(64.6573 0 0)
(64.8871 0 0)
(65.116 0 0)
(65.3442 0 0)
(65.5715 0 0)
(65.798 0 0)
(66.0237 0 0)
(66.2485 0 0)
(66.4725 0 0)
(66.6956 0 0)
(66.9178 0 0)
(67.1391 0 0)
(67.3594 0 0)
(67.5788 0 0)
(67.7973 0 0)
(68.0147 0 0)
(68.2312 0 0)
(68.4467 0 0)
(68.6612 0 0)
(68.8746 0 0)
(69.0871 0 0)
(69.2984 0 0)
(69.5087 0 0)
(69.7178 0 0)
(69.9259 0 0)
(70.1329 0 0)
(70.3387 0 0)
(70.5434 0 0)
(70.7469 0 0)
(70.9493 0 0)
(71.1505 0 0)
(71.3505 0 0)
(71.5493 0 0)
(71.7469 0 0)
(71.9432 0 0)
(72.1383 0 0)
(72.3322 0 0)
(72.5248 0 0)
(72.7162 0 0)
(72.9063 0 0)
(73.0951 0 0)
(73.2826 0 0)
(73.4688 0 0)
(73.6538 0 0)
(73.8374 0 0)
(74.0198 0 0)
(74.2008 0 0)
(74.3806 0 0)
(74.559 0 0)
(74.7361 0 0)
(74.912 0 0)
(75.0865 0 0)
(75.2597 0 0)
(75.4317 0 0)
(75.6023 0 0)
(75.7717 0 0)
(75.9398 0 0)
(76.1067 0 0)
(76.2723 0 0)
(76.4366 0 0)
(76.5997 0 0)
(76.7616 0 0)
(76.9223 0 0)
(77.0818 0 0)
(77.2401 0 0)
(77.3973 0 0)
(77.5533 0 0)
(77.7082 0 0)
(77.862 0 0)
(78.0148 0 0)
(78.1664 0 0)
(78.3171 0 0)
(78.4667 0 0)
(78.6153 0 0)
(78.7629 0 0)
(78.9096 0 0)
(79.0554 0 0)
(79.2003 0 0)
(79.3443 0 0)
(79.4874 0 0)
(79.6298 0 0)
(79.7713 0 0)
(79.9121 0 0)
(80.0522 0 0)
(80.1915 0 0)
(80.3301 0 0)
(80.4681 0 0)
(80.6055 0 0)
(80.7422 0 0)
(80.8783 0 0)
(81.0139 0 0)
(81.149 0 0)
(81.2836 0 0)
(81.4176 0 0)
(81.5512 0 0)
(81.6844 0 0)
(81.8172 0 0)
(81.9495 0 0)
(82.0815 0 0)
(82.2132 0 0)
(82.3445 0 0)
(82.4755 0 0)
(82.6062 0 0)
(82.7366 0 0)
(82.8668 0 0)
(82.9967 0 0)
(83.1264 0 0)
(83.256 0 0)
(83.3853 0 0)
(83.5144 0 0)
(83.6434 0 0)
(83.7722 0 0)
(83.9009 0 0)
(84.0295 0 0)
(84.1579 0 0)
(84.2862 0 0)
(84.4145 0 0)
(84.5426 0 0)
(84.6707 0 0)
(84.7987 0 0)
(84.9267 0 0)
(85.0546 0 0)
(85.1824 0 0)
(85.3102 0 0)
(85.438 0 0)
(85.5657 0 0)
(85.6934 0 0)
(85.8211 0 0)
(85.9488 0 0)
(86.0765 0 0)
(86.2042 0 0)
(86.3318 0 0)
(86.4595 0 0)
(86.5871 0 0)
(86.7148 0 0)
(86.8425 0 0)
(86.9702 0 0)
(87.0979 0 0)
(87.2256 0 0)
(87.3533 0 0)
(87.4811 0 0)
(87.6088 0 0)
(87.7366 0 0)
(87.8644 0 0)
(87.9923 0 0)
(88.1201 0 0)
(88.248 0 0)
(88.3759 0 0)
(88.5039 0 0)
(88.6319 0 0)
(88.7599 0 0)
(88.8879 0 0)
(89.0159 0 0)
(89.144 0 0)
(89.2721 0 0)
(89.4003 0 0)
(89.5285 0 0)
(89.6567 0 0)
(89.7849 0 0)
(89.9132 0 0)
(90.0415 0 0)
(90.1699 0 0)
(90.2982 0 0)
(90.4267 0 0)
(90.5551 0 0)
(90.6836 0 0)
(90.8121 0 0)
(90.9406 0 0)
(91.0692 0 0)
(91.1978 0 0)
(91.3265 0 0)
(91.4551 0 0)
(91.5839 0 0)
(91.7126 0 0)
(91.8414 0 0)
(91.9702 0 0)
(92.0991 0 0)
(92.228 0 0)
(92.3569 0 0)
(92.4859 0 0)
(92.6149 0 0)
(92.7439 0 0)
(92.873 0 0)
(93.0021 0 0)
(93.1312 0 0)
(93.2604 0 0)
(93.3896 0 0)
(93.5188 0 0)
(93.6481 0 0)
(93.7774 0 0)
(93.9068 0 0)
(94.0362 0 0)
(94.1656 0 0)
(94.2951 0 0)
(94.4246 0 0)
(94.5541 0 0)
(94.6837 0 0)
(94.8133 0 0)
(94.9429 0 0)
(95.0726 0 0)
(95.2023 0 0)
(95.332 0 0)
(95.4618 0 0)
(95.5917 0 0)
(95.7215 0 0)
(95.8514 0 0)
(95.9813 0 0)
(96.1113 0 0)
(96.2413 0 0)
(96.3714 0 0)
(96.5014 0 0)
(96.6316 0 0)
(96.7617 0 0)
(96.8919 0 0)
(97.0221 0 0)
(97.1524 0 0)
(97.2827 0 0)
(97.413 0 0)
(97.5434 0 0)
(97.6738 0 0)
(97.8042 0 0)
(97.9347 0 0)
(98.0652 0 0)
(98.1957 0 0)
(98.3263 0 0)
(98.4569 0 0)
(98.5876 0 0)
(98.7183 0 0)
(98.849 0 0)
(98.9798 0 0)
(99.1106 0 0)
(99.2414 0 0)
(99.3723 0 0)
(99.5032 0 0)
(99.6341 0 0)
(99.7651 0 0)
(99.8961 0 0)
(100.027 0 0)
(100.158 0 0)
(100.289 0 0)
(100.42 0 0)
(100.552 0 0)
(100.683 0 0)
(100.814 0 0)
(100.945 0 0)
(101.077 0 0)
(101.208 0 0)
(101.34 0 0)
(101.471 0 0)
(101.602 0 0)
(101.734 0 0)
(101.865 0 0)
(101.997 0 0)
(102.129 0 0)
(102.26 0 0)
(102.392 0 0)
(102.524 0 0)
(102.655 0 0)
(102.787 0 0)
(102.919 0 0)
(103.051 0 0)
(103.183 0 0)
(103.315 0 0)
(103.447 0 0)
(103.579 0 0)
(103.711 0 0)
(103.843 0 0)
(103.975 0 0)
(104.107 0 0)
(104.239 0 0)
(104.371 0 0)
(104.504 0 0)
(104.636 0 0)
(104.768 0 0)
(104.9 0 0)
(105.033 0 0)
(105.165 0 0)
(105.298 0 0)
(105.43 0 0)
(105.563 0 0)
(105.695 0 0)
(105.828 0 0)
(105.96 0 0)
(106.093 0 0)
(106.226 0 0)
(106.358 0 0)
(106.491 0 0)
(106.624 0 0)
(106.757 0 0)
(106.89 0 0)
(107.022 0 0)
(107.155 0 0)
(107.288 0 0)
(107.421 0 0)
(107.554 0 0)
(107.687 0 0)
(107.82 0 0)
(107.953 0 0)
(108.087 0 0)
(108.22 0 0)
(108.353 0 0)
(108.486 0 0)
(108.62 0 0)
(108.753 0 0)
(108.886 0 0)
(109.02 0 0)
(109.153 0 0)
(109.287 0 0)
(109.42 0 0)
(109.554 0 0)
(109.687 0 0)
(109.821 0 0)
(109.954 0 0)
(110.088 0 0)
(110.222 0 0)
(110.355 0 0)
(110.489 0 0)
(110.623 0 0)
(110.757 0 0)
(110.891 0 0)
(111.024 0 0)
(111.158 0 0)
(111.292 0 0)
(111.426 0 0)
(111.56 0 0)
(111.694 0 0)
(111.829 0 0)
(111.963 0 0)
(112.097 0 0)
(112.231 0 0)
(112.365 0 0)
(112.5 0 0)
(112.634 0 0)
(112.768 0 0)
(112.902 0 0)
(113.037 0 0)
(113.171 0 0)
(113.306 0 0)
(113.44 0 0)
(113.575 0 0)
(113.709 0 0)
(113.844 0 0)
(113.979 0 0)
(114.113 0 0)
(114.248 0 0)
(114.383 0 0)
(114.517 0 0)
(114.652 0 0)
(114.787 0 0)
(114.922 0 0)
(115.057 0 0)
(115.192 0 0)
(115.327 0 0)
(115.462 0 0)
(115.597 0 0)
(115.732 0 0)
(115.867 0 0)
(116.002 0 0)
(116.137 0 0)
(116.272 0 0)
(116.407 0 0)
(116.543 0 0)
(116.678 0 0)
(116.813 0 0)
(116.949 0 0)
(117.084 0 0)
(117.219 0 0)
(117.355 0 0)
(117.49 0 0)
(117.626 0 0)
(117.761 0 0)
(117.897 0 0)
(118.033 0 0)
(118.168 0 0)
(118.304 0 0)
(118.44 0 0)
(118.575 0 0)
(118.711 0 0)
(118.847 0 0)
(118.983 0 0)
(119.119 0 0)
(119.255 0 0)
(119.391 0 0)
(119.527 0 0)
(119.663 0 0)
(119.799 0 0)
(119.935 0 0)
(120.071 0 0)
(120.207 0 0)
(120.343 0 0)
(120.479 0 0)
(120.616 0 0)
(120.752 0 0)
(120.888 0 0)
(121.024 0 0)
(121.161 0 0)
(121.297 0 0)
(121.434 0 0)
(121.57 0 0)
(121.707 0 0)
(121.843 0 0)
(121.98 0 0)
(122.116 0 0)
(122.253 0 0)
(122.389 0 0)
(122.526 0 0)
(122.663 0 0)
(122.8 0 0)
(122.936 0 0)
(123.073 0 0)
(123.21 0 0)
(123.347 0 0)
(123.484 0 0)
(123.621 0 0)
(123.758 0 0)
(123.895 0 0)
(124.032 0 0)
(124.169 0 0)
(124.306 0 0)
(124.443 0 0)
(124.58 0 0)
(124.717 0 0)
(124.855 0 0)
(124.992 0 0)
(125.129 0 0)
(125.267 0 0)
(125.404 0 0)
(125.541 0 0)
(125.679 0 0)
(125.816 0 0)
(125.954 0 0)
(126.091 0 0)
(126.229 0 0)
(126.366 0 0)
(126.504 0 0)
(126.642 0 0)
(126.779 0 0)
(126.917 0 0)
(127.055 0 0)
(127.192 0 0)
(127.33 0 0)
(127.468 0 0)
(127.606 0 0)
(127.744 0 0)
(127.882 0 0)
(128.02 0 0)
(128.158 0 0)
(128.296 0 0)
(128.434 0 0)
(128.572 0 0)
(128.71 0 0)
(128.848 0 0)
(128.986 0 0)
(129.124 0 0)
(129.263 0 0)
(129.401 0 0)
(129.539 0 0)
(129.678 0 0)
(129.816 0 0)
(129.954 0 0)
(130.093 0 0)
(130.231 0 0)
(130.37 0 0)
(130.508 0 0)
(130.647 0 0)
(130.785 0 0)
(130.924 0 0)
(131.063 0 0)
(131.201 0 0)
(131.34 0 0)
(131.479 0 0)
(131.617 0 0)
(131.756 0 0)
(131.895 0 0)
(132.034 0 0)
(132.173 0 0)
(132.312 0 0)
(132.45 0 0)
(132.589 0 0)
(132.728 0 0)
(132.867 0 0)
(133.006 0 0)
(133.145 0 0)
(133.285 0 0)
(133.424 0 0)
(133.563 0 0)
(133.702 0 0)
(133.841 0 0)
(133.98 0 0)
(134.12 0 0)
(134.259 0 0)
(134.398 0 0)
(134.538 0 0)
(134.677 0 0)
(134.816 0 0)
(134.956 0 0)
(135.095 0 0)
(135.235 0 0)
(135.374 0 0)
(135.514 0 0)
(135.653 0 0)
(135.793 0 0)
(135.933 0 0)
(136.072 0 0)
(136.212 0 0)
(136.352 0 0)
(136.492 0 0)
(136.631 0 0)
(136.771 0 0)
(136.911 0 0)
(137.051 0 0)
(137.191 0 0)
(137.331 0 0)
(137.471 0 0)
(137.611 0 0)
(137.751 0 0)
(137.891 0 0)
(138.031 0 0)
(138.171 0 0)
(138.312 0 0)
(138.452 0 0)
(138.592 0 0)
(138.732 0 0)
(138.872 0 0)
(139.013 0 0)
(139.153 0 0)
(139.293 0 0)
(139.433 0 0)
(139.574 0 0)
(139.714 0 0)
(139.854 0 0)
(139.994 0 0)
(140.135 0 0)
(140.275 0 0)
(140.415 0 0)
(140.555 0 0)
(140.695 0 0)
(140.835 0 0)
(140.975 0 0)
(141.115 0 0)
(141.255 0 0)
(141.394 0 0)
(141.534 0 0)
(141.674 0 0)
(141.813 0 0)
(141.952 0 0)
(142.091 0 0)
(142.23 0 0)
(142.369 0 0)
(142.508 0 0)
(142.647 0 0)
(142.785 0 0)
(142.923 0 0)
(143.061 0 0)
(143.199 0 0)
(143.336 0 0)
(143.473 0 0)
(143.61 0 0)
(143.747 0 0)
(143.883 0 0)
(144.019 0 0)
(144.154 0 0)
(144.289 0 0)
(144.424 0 0)
(144.559 0 0)
(144.692 0 0)
(144.826 0 0)
(144.959 0 0)
(145.091 0 0)
(145.223 0 0)
(145.355 0 0)
(145.486 0 0)
(145.616 0 0)
(145.746 0 0)
(145.875 0 0)
(146.004 0 0)
(146.132 0 0)
(146.259 0 0)
(146.386 0 0)
(146.512 0 0)
(146.637 0 0)
(146.762 0 0)
(146.886 0 0)
(147.01 0 0)
(147.132 0 0)
(147.254 0 0)
(147.376 0 0)
(147.497 0 0)
(147.617 0 0)
(147.736 0 0)
(147.855 0 0)
(147.974 0 0)
(148.091 0 0)
(148.208 0 0)
(148.325 0 0)
(148.441 0 0)
(148.557 0 0)
(148.672 0 0)
(148.787 0 0)
(148.901 0 0)
(149.015 0 0)
(149.129 0 0)
(149.242 0 0)
(149.356 0 0)
(149.469 0 0)
(149.582 0 0)
(149.695 0 0)
(149.807 0 0)
(149.92 0 0)
(150.033 0 0)
(150.146 0 0)
(150.259 0 0)
(150.372 0 0)
(150.486 0 0)
(150.6 0 0)
(150.714 0 0)
(150.828 0 0)
(150.943 0 0)
(151.058 0 0)
(151.174 0 0)
(151.29 0 0)
(151.407 0 0)
(151.524 0 0)
(151.642 0 0)
(151.76 0 0)
(151.879 0 0)
(151.999 0 0)
(152.119 0 0)
(152.24 0 0)
(152.362 0 0)
(152.484 0 0)
(152.607 0 0)
(152.731 0 0)
(152.855 0 0)
(152.981 0 0)
(153.106 0 0)
(153.233 0 0)
(153.36 0 0)
(153.488 0 0)
(153.616 0 0)
(153.746 0 0)
(153.875 0 0)
(154.006 0 0)
(154.137 0 0)
(154.268 0 0)
(154.401 0 0)
(154.533 0 0)
(154.667 0 0)
(154.801 0 0)
(154.935 0 0)
(155.07 0 0)
(155.205 0 0)
(155.341 0 0)
(155.477 0 0)
(155.614 0 0)
(155.751 0 0)
(155.888 0 0)
(156.026 0 0)
(156.164 0 0)
(156.302 0 0)
(156.441 0 0)
(156.58 0 0)
(156.72 0 0)
(156.859 0 0)
(156.999 0 0)
(157.14 0 0)
(157.28 0 0)
(157.421 0 0)
(157.562 0 0)
(157.703 0 0)
(157.844 0 0)
(157.986 0 0)
(158.128 0 0)
(158.27 0 0)
(158.412 0 0)
(158.554 0 0)
(158.696 0 0)
(158.839 0 0)
(158.982 0 0)
(159.125 0 0)
(159.268 0 0)
(159.411 0 0)
(159.554 0 0)
(159.697 0 0)
(159.84 0 0)
(159.984 0 0)
(160.127 0 0)
(160.27 0 0)
(160.414 0 0)
(160.557 0 0)
(160.7 0 0)
(160.843 0 0)
(160.986 0 0)
(161.129 0 0)
(161.271 0 0)
(161.413 0 0)
(161.554 0 0)
(161.696 0 0)
(161.836 0 0)
(161.976 0 0)
(162.115 0 0)
(162.254 0 0)
(162.392 0 0)
(162.528 0 0)
(162.664 0 0)
(162.798 0 0)
(162.931 0 0)
(163.063 0 0)
(163.193 0 0)
(163.321 0 0)
(163.447 0 0)
(163.572 0 0)
(163.694 0 0)
(163.815 0 0)
(163.933 0 0)
(164.048 0 0)
(164.162 0 0)
(164.272 0 0)
(164.38 0 0)
(164.486 0 0)
(164.588 0 0)
(164.688 0 0)
(164.785 0 0)
(164.88 0 0)
(164.972 0 0)
(165.061 0 0)
(165.147 0 0)
(165.232 0 0)
(165.314 0 0)
(165.394 0 0)
(165.471 0 0)
(165.548 0 0)
(165.622 0 0)
(165.695 0 0)
(165.767 0 0)
(165.838 0 0)
(165.909 0 0)
(165.978 0 0)
(166.048 0 0)
(166.118 0 0)
(166.188 0 0)
(166.258 0 0)
(166.329 0 0)
(166.4 0 0)
(166.473 0 0)
(166.546 0 0)
(166.621 0 0)
(166.697 0 0)
(166.775 0 0)
(166.854 0 0)
(166.935 0 0)
(167.017 0 0)
(167.101 0 0)
(167.187 0 0)
(167.275 0 0)
(167.364 0 0)
(167.455 0 0)
(167.547 0 0)
(167.642 0 0)
(167.738 0 0)
(167.835 0 0)
(167.934 0 0)
(168.035 0 0)
(168.137 0 0)
(168.241 0 0)
(168.346 0 0)
(168.453 0 0)
(168.561 0 0)
(168.67 0 0)
(168.781 0 0)
(168.893 0 0)
(169.006 0 0)
(169.12 0 0)
(169.236 0 0)
(169.352 0 0)
(169.47 0 0)
(169.589 0 0)
(169.709 0 0)
(169.83 0 0)
(169.952 0 0)
(170.075 0 0)
(170.199 0 0)
(170.324 0 0)
(170.45 0 0)
(170.576 0 0)
(170.704 0 0)
(170.833 0 0)
(170.962 0 0)
(171.092 0 0)
(171.224 0 0)
(171.356 0 0)
(171.488 0 0)
(171.622 0 0)
(171.756 0 0)
(171.891 0 0)
(172.027 0 0)
(172.164 0 0)
(172.301 0 0)
(172.439 0 0)
(172.578 0 0)
(172.718 0 0)
(172.858 0 0)
(172.999 0 0)
(173.141 0 0)
(173.283 0 0)
(173.426 0 0)
(173.569 0 0)
(173.714 0 0)
(173.858 0 0)
(174.004 0 0)
(174.15 0 0)
(174.297 0 0)
(174.444 0 0)
(174.592 0 0)
(174.74 0 0)
(174.889 0 0)
(175.039 0 0)
(175.19 0 0)
(175.341 0 0)
(175.496 0 0)
(175.776 0 0)
)
;

boundaryField
{
    sides
    {
        type            zeroGradient;
    }
    empty
    {
        type            empty;
    }
}


// ************************************************************************* //
