/*--------------------------------*- C++ -*----------------------------------*\
  =========                 |
  \\      /  F ield         | OpenFOAM: The Open Source CFD Toolbox
   \\    /   O peration     | Website:  https://openfoam.org
    \\  /    A nd           | Version:  9
     \\/     M anipulation  |
\*---------------------------------------------------------------------------*/
FoamFile
{
    format      ascii;
    class       volScalarField;
    location    "0.04";
    object      ddt0(p);
}
// * * * * * * * * * * * * * * * * * * * * * * * * * * * * * * * * * * * * * //

dimensions      [1 -1 -3 0 0 0 0];

internalField   nonuniform List<scalar> 
10000
(
-493044
-493040
-493035
-493031
-493027
-493023
-493020
-493016
-493012
-493008
-493004
-493000
-492996
-492991
-492987
-492983
-492978
-492974
-492970
-492966
-492962
-492958
-492954
-492950
-492946
-492942
-492938
-492934
-492930
-492926
-492922
-492918
-492914
-492910
-492906
-492901
-492897
-492893
-492888
-492884
-492880
-492876
-492872
-492868
-492864
-492859
-492855
-492851
-492847
-492843
-492839
-492835
-492831
-492827
-492823
-492819
-492815
-492810
-492806
-492801
-492797
-492793
-492789
-492785
-492781
-492777
-492772
-492768
-492764
-492760
-492756
-492752
-492748
-492744
-492739
-492735
-492731
-492727
-492723
-492718
-492714
-492709
-492705
-492701
-492697
-492693
-492689
-492684
-492680
-492676
-492672
-492667
-492663
-492659
-492655
-492651
-492647
-492643
-492638
-492634
-492629
-492625
-492621
-492617
-492612
-492608
-492604
-492600
-492595
-492591
-492587
-492583
-492578
-492574
-492570
-492566
-492562
-492557
-492553
-492549
-492544
-492540
-492535
-492531
-492527
-492523
-492519
-492514
-492510
-492505
-492501
-492497
-492493
-492488
-492484
-492480
-492476
-492471
-492467
-492463
-492458
-492453
-492449
-492444
-492440
-492436
-492432
-492428
-492423
-492419
-492415
-492410
-492406
-492402
-492398
-492393
-492389
-492385
-492381
-492376
-492371
-492366
-492361
-492357
-492353
-492349
-492345
-492340
-492336
-492332
-492327
-492323
-492319
-492314
-492310
-492306
-492301
-492297
-492293
-492289
-492284
-492279
-492273
-492269
-492266
-492261
-492256
-492252
-492247
-492243
-492239
-492235
-492230
-492226
-492222
-492217
-492212
-492209
-492203
-492199
-492195
-492190
-492185
-492182
-492178
-492172
-492167
-492162
-492158
-492153
-492149
-492145
-492140
-492136
-492132
-492127
-492123
-492119
-492114
-492109
-492105
-492101
-492096
-492092
-492087
-492082
-492077
-492073
-492068
-492063
-492059
-492055
-492050
-492046
-492041
-492037
-492032
-492028
-492023
-492019
-492014
-492010
-492006
-492001
-491997
-491992
-491987
-491982
-491977
-491973
-491968
-491964
-491959
-491954
-491950
-491946
-491941
-491936
-491932
-491927
-491923
-491918
-491914
-491909
-491905
-491900
-491895
-491890
-491886
-491881
-491876
-491872
-491867
-491862
-491858
-491853
-491849
-491844
-491839
-491835
-491830
-491825
-491821
-491816
-491812
-491807
-491802
-491798
-491793
-491788
-491783
-491779
-491774
-491769
-491765
-491760
-491756
-491751
-491746
-491742
-491737
-491732
-491728
-491723
-491718
-491713
-491709
-491704
-491699
-491694
-491689
-491685
-491680
-491675
-491671
-491666
-491662
-491657
-491652
-491647
-491643
-491638
-491633
-491629
-491624
-491619
-491614
-491609
-491605
-491600
-491595
-491590
-491585
-491580
-491576
-491571
-491566
-491562
-491557
-491552
-491547
-491543
-491538
-491533
-491529
-491524
-491519
-491514
-491509
-491504
-491499
-491494
-491490
-491485
-491480
-491475
-491470
-491465
-491461
-491456
-491451
-491446
-491442
-491437
-491432
-491427
-491423
-491418
-491413
-491408
-491403
-491398
-491393
-491388
-491383
-491378
-491373
-491368
-491364
-491359
-491354
-491349
-491344
-491339
-491335
-491330
-491325
-491320
-491315
-491310
-491306
-491301
-491296
-491291
-491286
-491281
-491276
-491271
-491266
-491261
-491256
-491251
-491246
-491241
-491236
-491231
-491226
-491222
-491217
-491212
-491207
-491202
-491197
-491192
-491187
-491182
-491177
-491172
-491167
-491162
-491157
-491152
-491147
-491142
-491137
-491132
-491127
-491122
-491117
-491112
-491107
-491102
-491097
-491092
-491087
-491082
-491077
-491072
-491067
-491062
-491057
-491052
-491047
-491042
-491037
-491032
-491027
-491022
-491017
-491012
-491007
-491002
-490997
-490992
-490987
-490982
-490976
-490971
-490966
-490961
-490956
-490951
-490946
-490941
-490936
-490931
-490926
-490920
-490915
-490910
-490905
-490900
-490895
-490890
-490885
-490880
-490875
-490869
-490864
-490859
-490854
-490849
-490844
-490838
-490833
-490828
-490823
-490818
-490813
-490808
-490803
-490798
-490792
-490787
-490782
-490777
-490772
-490767
-490762
-490756
-490751
-490746
-490741
-490735
-490730
-490725
-490720
-490715
-490709
-490704
-490699
-490694
-490689
-490683
-490678
-490673
-490668
-490663
-490658
-490652
-490647
-490642
-490637
-490631
-490626
-490621
-490616
-490610
-490605
-490600
-490594
-490589
-490584
-490578
-490573
-490568
-490563
-490558
-490552
-490547
-490542
-490537
-490532
-490526
-490521
-490516
-490510
-490505
-490499
-490494
-490489
-490483
-490478
-490473
-490467
-490462
-490457
-490451
-490446
-490441
-490436
-490430
-490425
-490420
-490414
-490409
-490403
-490398
-490393
-490388
-490382
-490377
-490371
-490366
-490361
-490355
-490350
-490344
-490339
-490333
-490328
-490323
-490317
-490312
-490307
-490301
-490296
-490291
-490285
-490279
-490274
-490269
-490263
-490258
-490252
-490247
-490242
-490236
-490231
-490225
-490220
-490214
-490209
-490203
-490198
-490192
-490187
-490181
-490176
-490171
-490165
-490159
-490154
-490148
-490143
-490138
-490132
-490127
-490121
-490115
-490110
-490105
-490099
-490093
-490088
-490083
-490077
-490072
-490066
-490060
-490055
-490050
-490044
-490038
-490033
-490027
-490022
-490016
-490010
-490005
-489999
-489993
-489988
-489982
-489977
-489972
-489966
-489960
-489955
-489949
-489944
-489938
-489932
-489927
-489921
-489916
-489910
-489905
-489899
-489892
-489888
-489881
-489876
-489870
-489865
-489859
-489853
-489848
-489842
-489836
-489831
-489825
-489819
-489814
-489808
-489803
-489797
-489791
-489786
-489780
-489774
-489768
-489763
-489757
-489751
-489746
-489740
-489734
-489728
-489722
-489717
-489712
-489705
-489700
-489694
-489689
-489682
-489678
-489671
-489664
-489661
-489655
-489648
-489643
-489637
-489631
-489625
-489619
-489614
-489608
-489602
-489596
-489590
-489584
-489579
-489573
-489567
-489561
-489556
-489550
-489544
-489538
-489532
-489527
-489521
-489515
-489509
-489503
-489497
-489492
-489486
-489480
-489474
-489468
-489462
-489456
-489450
-489444
-489439
-489433
-489427
-489421
-489415
-489409
-489403
-489397
-489392
-489386
-489380
-489374
-489368
-489362
-489356
-489350
-489344
-489338
-489332
-489326
-489320
-489315
-489309
-489303
-489297
-489291
-489285
-489279
-489273
-489267
-489261
-489255
-489249
-489243
-489237
-489231
-489225
-489219
-489213
-489207
-489201
-489195
-489189
-489183
-489177
-489171
-489165
-489159
-489153
-489146
-489140
-489134
-489128
-489122
-489116
-489110
-489104
-489098
-489092
-489086
-489080
-489074
-489068
-489062
-489055
-489049
-489043
-489037
-489031
-489025
-489019
-489013
-489007
-489000
-488994
-488988
-488982
-488976
-488970
-488963
-488957
-488951
-488945
-488939
-488933
-488926
-488920
-488914
-488908
-488902
-488895
-488889
-488883
-488877
-488871
-488864
-488858
-488852
-488846
-488840
-488833
-488827
-488821
-488815
-488808
-488802
-488796
-488790
-488783
-488777
-488771
-488764
-488758
-488752
-488745
-488739
-488733
-488727
-488720
-488714
-488708
-488701
-488695
-488689
-488682
-488676
-488670
-488663
-488657
-488651
-488644
-488638
-488632
-488625
-488619
-488612
-488606
-488600
-488593
-488587
-488581
-488574
-488568
-488561
-488555
-488548
-488542
-488536
-488529
-488523
-488516
-488510
-488504
-488497
-488491
-488484
-488478
-488471
-488465
-488458
-488452
-488445
-488439
-488432
-488426
-488419
-488413
-488406
-488400
-488393
-488387
-488380
-488374
-488367
-488361
-488354
-488348
-488341
-488334
-488328
-488321
-488315
-488308
-488302
-488295
-488288
-488282
-488275
-488269
-488262
-488255
-488249
-488242
-488235
-488229
-488222
-488216
-488209
-488202
-488196
-488189
-488182
-488176
-488169
-488162
-488156
-488149
-488142
-488136
-488129
-488122
-488116
-488109
-488102
-488095
-488089
-488082
-488075
-488068
-488062
-488055
-488048
-488041
-488035
-488028
-488021
-488014
-488008
-488001
-487994
-487987
-487980
-487974
-487967
-487960
-487953
-487946
-487939
-487933
-487926
-487919
-487912
-487905
-487898
-487892
-487885
-487878
-487871
-487864
-487857
-487850
-487843
-487837
-487830
-487823
-487816
-487809
-487802
-487795
-487788
-487781
-487774
-487767
-487760
-487753
-487746
-487739
-487732
-487725
-487718
-487711
-487704
-487697
-487690
-487683
-487676
-487669
-487662
-487655
-487648
-487641
-487634
-487627
-487620
-487613
-487606
-487599
-487592
-487585
-487577
-487570
-487563
-487556
-487549
-487542
-487535
-487528
-487521
-487513
-487506
-487499
-487492
-487485
-487478
-487470
-487463
-487456
-487449
-487442
-487434
-487427
-487420
-487413
-487405
-487398
-487391
-487384
-487376
-487369
-487362
-487355
-487347
-487340
-487333
-487326
-487318
-487311
-487304
-487296
-487289
-487282
-487274
-487267
-487260
-487252
-487245
-487238
-487230
-487223
-487215
-487208
-487201
-487193
-487186
-487178
-487171
-487164
-487156
-487149
-487141
-487134
-487126
-487119
-487112
-487104
-487097
-487089
-487082
-487074
-487067
-487059
-487052
-487044
-487037
-487029
-487021
-487014
-487006
-486999
-486991
-486984
-486976
-486968
-486961
-486953
-486946
-486938
-486930
-486923
-486915
-486908
-486900
-486892
-486885
-486877
-486869
-486862
-486854
-486846
-486839
-486831
-486823
-486815
-486808
-486800
-486792
-486784
-486777
-486769
-486761
-486753
-486746
-486738
-486730
-486722
-486714
-486707
-486699
-486691
-486683
-486675
-486667
-486660
-486652
-486644
-486636
-486628
-486620
-486612
-486604
-486596
-486588
-486581
-486573
-486565
-486557
-486549
-486541
-486533
-486525
-486517
-486509
-486501
-486493
-486485
-486477
-486469
-486461
-486453
-486445
-486437
-486429
-486420
-486412
-486404
-486396
-486388
-486380
-486372
-486364
-486356
-486347
-486339
-486331
-486323
-486315
-486306
-486298
-486290
-486282
-486274
-486265
-486257
-486249
-486241
-486232
-486224
-486216
-486208
-486199
-486191
-486183
-486174
-486166
-486158
-486149
-486141
-486133
-486124
-486116
-486108
-486099
-486091
-486082
-486074
-486066
-486057
-486049
-486040
-486032
-486023
-486015
-486006
-485998
-485989
-485981
-485972
-485964
-485955
-485947
-485938
-485929
-485921
-485912
-485904
-485895
-485886
-485878
-485869
-485861
-485852
-485843
-485835
-485826
-485817
-485809
-485800
-485791
-485782
-485774
-485765
-485756
-485747
-485739
-485730
-485721
-485712
-485703
-485695
-485686
-485677
-485668
-485659
-485650
-485642
-485633
-485624
-485615
-485606
-485597
-485588
-485579
-485570
-485561
-485552
-485543
-485534
-485525
-485516
-485507
-485498
-485489
-485480
-485471
-485462
-485453
-485444
-485435
-485425
-485416
-485407
-485398
-485389
-485380
-485371
-485361
-485352
-485343
-485334
-485324
-485315
-485306
-485297
-485287
-485278
-485269
-485259
-485250
-485241
-485231
-485222
-485213
-485203
-485194
-485184
-485175
-485166
-485156
-485147
-485137
-485128
-485118
-485109
-485099
-485090
-485080
-485071
-485061
-485052
-485042
-485032
-485023
-485013
-485004
-484994
-484984
-484975
-484965
-484955
-484945
-484936
-484926
-484916
-484907
-484897
-484887
-484877
-484867
-484858
-484848
-484838
-484828
-484818
-484808
-484798
-484789
-484779
-484769
-484759
-484749
-484739
-484729
-484719
-484709
-484699
-484689
-484679
-484669
-484659
-484648
-484638
-484628
-484618
-484608
-484598
-484588
-484577
-484567
-484557
-484547
-484537
-484526
-484516
-484506
-484495
-484485
-484475
-484464
-484454
-484444
-484433
-484423
-484413
-484402
-484392
-484381
-484371
-484360
-484350
-484339
-484329
-484318
-484308
-484297
-484286
-484276
-484265
-484255
-484244
-484233
-484222
-484212
-484201
-484190
-484180
-484169
-484158
-484147
-484136
-484126
-484115
-484104
-484093
-484082
-484071
-484060
-484049
-484038
-484027
-484016
-484005
-483994
-483983
-483972
-483961
-483950
-483939
-483928
-483917
-483906
-483894
-483883
-483872
-483861
-483849
-483838
-483827
-483816
-483804
-483793
-483782
-483770
-483759
-483747
-483736
-483725
-483713
-483702
-483690
-483679
-483667
-483656
-483644
-483632
-483621
-483609
-483597
-483586
-483574
-483562
-483551
-483539
-483527
-483515
-483504
-483492
-483480
-483468
-483456
-483444
-483432
-483420
-483408
-483397
-483385
-483372
-483360
-483348
-483336
-483324
-483312
-483300
-483288
-483276
-483263
-483251
-483239
-483227
-483214
-483202
-483190
-483177
-483165
-483152
-483140
-483128
-483115
-483103
-483090
-483078
-483065
-483052
-483040
-483027
-483015
-483002
-482989
-482977
-482964
-482951
-482938
-482925
-482913
-482900
-482887
-482874
-482861
-482848
-482835
-482822
-482809
-482796
-482783
-482770
-482757
-482744
-482730
-482717
-482704
-482691
-482678
-482664
-482651
-482638
-482624
-482611
-482597
-482584
-482570
-482557
-482543
-482530
-482516
-482503
-482489
-482475
-482462
-482448
-482434
-482421
-482407
-482393
-482379
-482365
-482351
-482337
-482323
-482309
-482295
-482281
-482267
-482253
-482239
-482225
-482211
-482196
-482182
-482168
-482154
-482139
-482125
-482111
-482096
-482082
-482067
-482053
-482038
-482024
-482009
-481994
-481980
-481965
-481950
-481936
-481921
-481906
-481891
-481876
-481861
-481846
-481831
-481816
-481801
-481786
-481771
-481756
-481741
-481726
-481710
-481695
-481680
-481664
-481649
-481634
-481618
-481603
-481587
-481572
-481556
-481540
-481525
-481509
-481493
-481478
-481462
-481446
-481430
-481414
-481398
-481382
-481366
-481350
-481334
-481318
-481302
-481286
-481269
-481253
-481237
-481220
-481204
-481188
-481171
-481155
-481138
-481122
-481105
-481088
-481072
-481055
-481038
-481021
-481004
-480987
-480971
-480954
-480937
-480919
-480902
-480885
-480868
-480851
-480834
-480816
-480799
-480781
-480764
-480747
-480729
-480711
-480694
-480676
-480658
-480641
-480623
-480605
-480587
-480569
-480551
-480533
-480515
-480497
-480479
-480461
-480442
-480424
-480406
-480387
-480369
-480350
-480332
-480313
-480295
-480276
-480257
-480238
-480220
-480201
-480182
-480163
-480144
-480125
-480106
-480086
-480067
-480048
-480028
-480009
-479990
-479970
-479951
-479931
-479911
-479892
-479872
-479852
-479832
-479812
-479792
-479772
-479752
-479732
-479712
-479692
-479671
-479651
-479630
-479610
-479589
-479569
-479548
-479527
-479507
-479486
-479465
-479444
-479423
-479402
-479381
-479359
-479338
-479317
-479295
-479274
-479252
-479231
-479209
-479188
-479166
-479144
-479122
-479100
-479078
-479056
-479034
-479012
-478989
-478967
-478945
-478922
-478900
-478877
-478854
-478831
-478809
-478786
-478763
-478740
-478717
-478693
-478670
-478647
-478623
-478600
-478576
-478553
-478529
-478505
-478482
-478458
-478434
-478410
-478386
-478361
-478337
-478313
-478288
-478264
-478239
-478214
-478190
-478165
-478140
-478115
-478090
-478065
-478040
-478014
-477989
-477963
-477938
-477912
-477886
-477861
-477835
-477809
-477783
-477756
-477730
-477704
-477677
-477651
-477624
-477598
-477571
-477544
-477517
-477490
-477463
-477436
-477408
-477381
-477353
-477326
-477298
-477270
-477242
-477214
-477186
-477158
-477130
-477101
-477073
-477044
-477016
-476987
-476958
-476929
-476900
-476871
-476842
-476812
-476783
-476753
-476723
-476694
-476664
-476634
-476604
-476573
-476543
-476513
-476482
-476451
-476421
-476390
-476359
-476327
-476296
-476265
-476233
-476202
-476170
-476138
-476106
-476074
-476042
-476010
-475977
-475945
-475912
-475879
-475847
-475814
-475780
-475747
-475714
-475680
-475647
-475613
-475579
-475545
-475511
-475476
-475442
-475407
-475373
-475338
-475303
-475268
-475232
-475197
-475162
-475126
-475090
-475054
-475018
-474982
-474945
-474909
-474872
-474836
-474799
-474761
-474724
-474687
-474649
-474612
-474574
-474536
-474498
-474459
-474421
-474382
-474343
-474305
-474265
-474226
-474187
-474147
-474108
-474068
-474028
-473987
-473947
-473906
-473866
-473825
-473784
-473742
-473701
-473659
-473618
-473576
-473534
-473491
-473449
-473406
-473363
-473320
-473277
-473234
-473190
-473146
-473102
-473058
-473014
-472969
-472925
-472880
-472835
-472789
-472744
-472698
-472652
-472606
-472560
-472514
-472467
-472420
-472373
-472325
-472278
-472230
-472182
-472134
-472086
-472037
-471988
-471939
-471890
-471840
-471791
-471741
-471691
-471640
-471590
-471539
-471488
-471436
-471385
-471333
-471281
-471229
-471176
-471124
-471071
-471017
-470964
-470910
-470856
-470802
-470748
-470693
-470638
-470583
-470527
-470471
-470415
-470359
-470302
-470246
-470188
-470131
-470073
-470015
-469957
-469899
-469840
-469781
-469722
-469662
-469602
-469542
-469481
-469421
-469360
-469298
-469236
-469174
-469112
-469050
-468987
-468924
-468860
-468796
-468732
-468668
-468603
-468538
-468472
-468406
-468340
-468274
-468207
-468140
-468073
-468005
-467937
-467868
-467799
-467730
-467661
-467591
-467521
-467450
-467379
-467308
-467236
-467164
-467092
-467019
-466946
-466872
-466798
-466724
-466649
-466574
-466498
-466423
-466346
-466270
-466192
-466115
-466037
-465959
-465880
-465801
-465721
-465641
-465560
-465480
-465398
-465316
-465234
-465151
-465068
-464985
-464900
-464816
-464731
-464645
-464559
-464473
-464386
-464299
-464211
-464122
-464033
-463944
-463854
-463763
-463672
-463581
-463488
-463396
-463303
-463209
-463115
-463020
-462924
-462828
-462732
-462635
-462537
-462439
-462340
-462241
-462142
-462041
-461941
-461840
-461738
-461631
-461624
-461556
-461559
-461464
-461339
-461168
-461063
-460922
-460806
-460686
-460567
-460453
-460338
-460225
-460111
-459998
-459885
-459771
-459658
-459544
-459429
-459315
-459200
-459084
-458968
-458851
-458734
-458616
-458497
-458377
-458257
-458136
-458014
-457892
-457769
-457645
-457520
-457395
-457269
-457143
-457015
-456887
-456758
-456628
-456497
-456366
-456234
-456101
-455967
-455833
-455698
-455562
-455425
-455287
-455148
-455009
-454869
-454728
-454586
-454444
-454300
-454156
-454011
-453865
-453718
-453570
-453421
-453272
-453121
-452970
-452818
-452665
-452511
-452356
-452200
-452043
-451886
-451727
-451567
-451407
-451245
-451083
-450919
-450755
-450590
-450423
-450256
-450088
-449918
-449748
-449576
-449404
-449231
-449056
-448881
-448704
-448526
-448348
-448168
-447987
-447805
-447622
-447438
-447253
-447066
-446879
-446690
-446501
-446310
-446118
-445925
-445730
-445535
-445338
-445140
-444941
-444741
-444540
-444337
-444133
-443928
-443722
-443514
-443306
-443096
-442884
-442672
-442458
-442243
-442027
-441809
-441590
-441369
-441148
-440925
-440701
-440475
-440248
-440020
-439790
-439559
-439327
-439093
-438858
-438621
-438383
-438143
-437902
-437660
-437416
-437171
-436925
-436677
-436427
-436176
-435923
-435669
-435414
-435157
-434898
-434638
-434377
-434114
-433849
-433583
-433315
-433046
-432775
-432502
-432228
-431953
-431675
-431397
-431116
-430834
-430550
-430265
-429978
-429689
-429399
-429107
-428814
-428518
-428221
-427923
-427622
-427320
-427017
-426711
-426404
-426095
-425785
-425472
-425158
-424843
-424525
-424206
-423885
-423562
-423237
-422911
-422583
-422253
-421921
-421588
-421253
-420915
-420577
-420236
-419893
-419549
-419203
-418855
-418505
-418154
-417800
-417445
-417088
-416729
-416369
-416006
-415642
-415275
-414907
-414538
-414166
-413792
-413417
-413039
-412660
-412279
-411897
-411512
-411126
-410737
-410347
-409955
-409562
-409166
-408769
-408369
-407968
-407566
-407161
-406754
-406346
-405936
-405524
-405111
-404695
-404278
-403859
-403438
-403016
-402592
-402166
-401738
-401309
-400878
-400445
-400010
-399574
-399136
-398697
-398256
-397813
-397368
-396922
-396475
-396026
-395575
-395123
-394669
-394213
-393757
-393298
-392838
-392377
-391914
-391450
-390984
-390517
-390049
-389579
-389108
-388636
-388162
-387687
-387211
-386734
-386255
-385776
-385295
-384813
-384329
-383845
-383360
-382874
-382386
-381898
-381409
-380919
-380428
-379936
-379443
-378950
-378455
-377960
-377464
-376968
-376471
-375973
-375475
-374976
-374477
-373977
-373477
-372976
-372475
-371974
-371473
-370971
-370469
-369966
-369464
-368962
-368459
-367956
-367454
-366951
-366449
-365947
-365445
-364943
-364441
-363940
-363439
-362938
-362438
-361939
-361439
-360941
-360443
-359946
-359449
-358953
-358458
-357964
-357471
-356978
-356487
-355997
-355507
-355019
-354532
-354046
-353562
-353078
-352597
-352116
-351637
-351159
-350683
-350209
-349736
-349264
-348795
-348327
-347861
-347397
-346935
-346474
-346016
-345559
-345105
-344653
-344203
-343755
-343309
-342866
-342425
-341986
-341550
-341116
-340685
-340256
-339830
-339406
-338985
-338567
-338151
-337738
-337328
-336921
-336516
-336115
-335716
-335320
-334928
-334538
-334151
-333768
-333387
-333010
-332636
-332264
-331897
-331532
-331171
-330812
-330458
-330106
-329758
-329413
-329072
-328734
-328399
-328068
-327740
-327416
-327095
-326778
-326464
-326154
-325847
-325544
-325244
-324948
-324655
-324366
-324081
-323799
-323521
-323246
-322975
-322707
-322443
-322183
-321926
-321673
-321423
-321177
-320934
-320695
-320460
-320228
-319999
-319774
-319553
-319335
-319121
-318910
-318702
-318498
-318298
-318100
-317907
-317716
-317529
-317345
-317165
-316988
-316814
-316644
-316477
-316313
-316152
-315994
-315840
-315689
-315540
-315395
-315253
-315114
-314978
-314845
-314715
-314588
-314464
-314343
-314224
-314109
-313996
-313886
-313779
-313674
-313572
-313473
-313376
-313282
-313191
-313102
-313015
-312931
-312850
-312771
-312694
-312620
-312548
-312478
-312411
-312345
-312282
-312221
-312163
-312106
-312051
-311999
-311948
-311900
-311853
-311809
-311766
-311725
-311686
-311649
-311613
-311580
-311548
-311517
-311489
-311462
-311436
-311412
-311390
-311369
-311350
-311332
-311316
-311301
-311287
-311275
-311264
-311255
-311247
-311239
-311234
-311229
-311226
-311224
-311222
-311223
-311224
-311226
-311229
-311233
-311239
-311245
-311252
-311260
-311269
-311279
-311290
-311302
-311315
-311328
-311342
-311357
-311373
-311389
-311407
-311424
-311443
-311462
-311482
-311503
-311524
-311546
-311569
-311592
-311615
-311640
-311664
-311690
-311715
-311742
-311768
-311796
-311823
-311851
-311880
-311909
-311938
-311968
-311999
-312029
-312060
-312092
-312123
-312155
-312188
-312221
-312254
-312287
-312321
-312355
-312389
-312423
-312458
-312493
-312528
-312564
-312599
-312635
-312672
-312708
-312745
-312781
-312818
-312856
-312893
-312931
-312968
-313006
-313044
-313083
-313121
-313159
-313198
-313237
-313276
-313315
-313354
-313393
-313433
-313472
-313512
-313552
-313592
-313631
-313672
-313712
-313752
-313792
-313833
-313873
-313914
-313954
-313995
-314036
-314077
-314117
-314158
-314199
-314241
-314282
-314323
-314364
-314405
-314447
-314488
-314530
-314571
-314613
-314654
-314696
-314738
-314779
-314821
-314863
-314904
-314946
-314988
-315030
-315072
-315114
-315156
-315198
-315240
-315282
-315324
-315366
-315408
-315450
-315492
-315535
-315577
-315619
-315661
-315703
-315746
-315788
-315830
-315872
-315915
-315957
-315999
-316042
-316084
-316126
-316169
-316211
-316254
-316296
-316338
-316381
-316423
-316466
-316508
-316551
-316593
-316636
-316678
-316721
-316763
-316806
-316848
-316891
-316933
-316976
-317018
-317061
-317103
-317146
-317189
-317231
-317274
-317316
-317359
-317402
-317444
-317487
-317529
-317572
-317615
-317657
-317700
-317742
-317785
-317828
-317870
-317913
-317956
-317998
-318041
-318084
-318126
-318169
-318212
-318255
-318297
-318340
-318383
-318425
-318468
-318511
-318554
-318596
-318639
-318682
-318724
-318767
-318810
-318853
-318896
-318938
-318981
-319024
-319067
-319109
-319152
-319195
-319238
-319281
-319323
-319366
-319409
-319452
-319495
-319537
-319580
-319623
-319666
-319709
-319752
-319794
-319837
-319880
-319923
-319966
-320009
-320052
-320095
-320137
-320180
-320223
-320266
-320309
-320352
-320395
-320438
-320481
-320524
-320567
-320609
-320652
-320695
-320738
-320781
-320824
-320867
-320910
-320953
-320996
-321039
-321082
-321125
-321168
-321211
-321254
-321297
-321340
-321383
-321426
-321469
-321512
-321555
-321598
-321641
-321684
-321727
-321770
-321813
-321856
-321899
-321942
-321985
-322029
-322072
-322115
-322158
-322201
-322244
-322287
-322330
-322373
-322416
-322459
-322503
-322546
-322589
-322632
-322675
-322718
-322761
-322805
-322848
-322891
-322934
-322977
-323020
-323063
-323107
-323150
-323193
-323236
-323279
-323323
-323366
-323409
-323452
-323495
-323539
-323582
-323625
-323668
-323711
-323755
-323798
-323841
-323884
-323928
-323971
-324014
-324057
-324101
-324144
-324187
-324230
-324274
-324317
-324360
-324404
-324447
-324490
-324533
-324577
-324620
-324663
-324707
-324750
-324793
-324837
-324880
-324923
-324967
-325010
-325053
-325097
-325140
-325183
-325227
-325270
-325313
-325357
-325400
-325443
-325487
-325530
-325574
-325617
-325660
-325704
-325747
-325791
-325834
-325877
-325921
-325964
-326008
-326051
-326095
-326138
-326181
-326225
-326268
-326312
-326355
-326399
-326442
-326486
-326529
-326573
-326616
-326660
-326703
-326747
-326790
-326834
-326877
-326921
-326964
-327008
-327051
-327095
-327138
-327182
-327225
-327269
-327312
-327356
-327399
-327443
-327487
-327530
-327574
-327617
-327661
-327704
-327748
-327792
-327835
-327879
-327923
-327966
-328010
-328053
-328097
-328141
-328184
-328228
-328272
-328315
-328359
-328403
-328446
-328490
-328534
-328577
-328621
-328665
-328708
-328752
-328796
-328840
-328883
-328927
-328971
-329015
-329058
-329102
-329146
-329190
-329233
-329277
-329321
-329365
-329409
-329452
-329496
-329540
-329584
-329628
-329671
-329715
-329759
-329803
-329847
-329891
-329935
-329979
-330022
-330066
-330110
-330154
-330198
-330242
-330286
-330330
-330374
-330418
-330462
-330506
-330550
-330593
-330637
-330681
-330725
-330769
-330813
-330857
-330901
-330945
-330990
-331034
-331078
-331122
-331166
-331210
-331254
-331298
-331342
-331386
-331430
-331474
-331518
-331563
-331607
-331651
-331695
-331739
-331783
-331827
-331872
-331916
-331960
-332004
-332048
-332093
-332137
-332181
-332225
-332269
-332314
-332358
-332402
-332446
-332491
-332535
-332579
-332624
-332668
-332712
-332756
-332801
-332845
-332889
-332934
-332978
-333023
-333067
-333111
-333156
-333200
-333244
-333289
-333333
-333378
-333422
-333467
-333511
-333555
-333600
-333644
-333689
-333733
-333778
-333822
-333867
-333911
-333956
-334000
-334045
-334089
-334134
-334178
-334223
-334268
-334312
-334357
-334401
-334446
-334491
-334535
-334580
-334624
-334669
-334714
-334758
-334803
-334848
-334892
-334937
-334982
-335026
-335071
-335116
-335160
-335205
-335250
-335295
-335339
-335384
-335429
-335474
-335518
-335563
-335608
-335653
-335698
-335742
-335787
-335832
-335877
-335922
-335966
-336011
-336056
-336101
-336146
-336191
-336236
-336280
-336325
-336370
-336415
-336460
-336505
-336550
-336595
-336640
-336685
-336730
-336775
-336820
-336865
-336910
-336955
-337000
-337044
-337089
-337135
-337180
-337225
-337270
-337315
-337360
-337405
-337450
-337495
-337540
-337585
-337630
-337675
-337720
-337765
-337810
-337855
-337901
-337946
-337991
-338036
-338081
-338126
-338171
-338216
-338262
-338307
-338352
-338397
-338442
-338488
-338533
-338578
-338623
-338668
-338714
-338759
-338804
-338849
-338894
-338940
-338985
-339030
-339075
-339121
-339166
-339211
-339257
-339302
-339347
-339392
-339438
-339483
-339528
-339574
-339619
-339664
-339710
-339755
-339800
-339846
-339891
-339936
-339982
-340027
-340072
-340118
-340163
-340209
-340254
-340299
-340345
-340390
-340436
-340481
-340526
-340572
-340617
-340663
-340708
-340754
-340799
-340844
-340890
-340935
-340981
-341026
-341072
-341117
-341163
-341208
-341254
-341299
-341345
-341390
-341436
-341481
-341527
-341572
-341618
-341663
-341709
-341754
-341800
-341845
-341891
-341936
-341982
-342028
-342073
-342119
-342164
-342210
-342255
-342301
-342346
-342392
-342438
-342483
-342529
-342574
-342620
-342666
-342711
-342757
-342802
-342848
-342894
-342939
-342985
-343031
-343076
-343122
-343167
-343213
-343259
-343304
-343350
-343396
-343441
-343487
-343533
-343578
-343624
-343670
-343715
-343761
-343807
-343852
-343898
-343944
-343989
-344035
-344081
-344127
-344172
-344218
-344264
-344309
-344355
-344401
-344447
-344492
-344538
-344584
-344629
-344675
-344721
-344767
-344812
-344858
-344904
-344950
-344995
-345041
-345087
-345133
-345178
-345224
-345270
-345316
-345362
-345407
-345453
-345499
-345545
-345590
-345636
-345682
-345728
-345774
-345819
-345865
-345911
-345957
-346003
-346049
-346094
-346140
-346186
-346232
-346278
-346324
-346369
-346415
-346461
-346507
-346553
-346599
-346644
-346690
-346736
-346782
-346828
-346874
-346920
-346966
-347011
-347057
-347103
-347149
-347195
-347241
-347287
-347333
-347379
-347424
-347470
-347516
-347562
-347608
-347654
-347700
-347746
-347792
-347838
-347884
-347930
-347976
-348022
-348068
-348114
-348160
-348206
-348251
-348297
-348343
-348389
-348435
-348481
-348527
-348573
-348619
-348665
-348711
-348757
-348804
-348850
-348896
-348942
-348988
-349034
-349080
-349126
-349172
-349218
-349264
-349310
-349356
-349402
-349448
-349494
-349540
-349587
-349633
-349679
-349725
-349771
-349817
-349863
-349909
-349956
-350002
-350048
-350094
-350140
-350186
-350233
-350279
-350325
-350371
-350417
-350463
-350510
-350556
-350602
-350648
-350695
-350741
-350787
-350833
-350879
-350926
-350972
-351018
-351065
-351111
-351157
-351203
-351250
-351296
-351342
-351389
-351435
-351481
-351528
-351574
-351620
-351667
-351713
-351759
-351806
-351852
-351898
-351945
-351991
-352038
-352084
-352130
-352177
-352223
-352270
-352316
-352363
-352409
-352455
-352502
-352548
-352595
-352641
-352688
-352734
-352781
-352827
-352874
-352920
-352967
-353013
-353060
-353107
-353153
-353200
-353246
-353293
-353339
-353386
-353433
-353479
-353526
-353572
-353619
-353666
-353712
-353759
-353806
-353852
-353899
-353946
-353992
-354039
-354086
-354132