/*--------------------------------*- C++ -*----------------------------------*\
  =========                 |
  \\      /  F ield         | OpenFOAM: The Open Source CFD Toolbox
   \\    /   O peration     | Website:  https://openfoam.org
    \\  /    A nd           | Version:  9
     \\/     M anipulation  |
\*---------------------------------------------------------------------------*/
FoamFile
{
    format      ascii;
    class       volVectorField;
    location    "0.04";
    object      ddt0(rho,U);
}
// * * * * * * * * * * * * * * * * * * * * * * * * * * * * * * * * * * * * * //

dimensions      [1 -2 -2 0 0 0 0];

internalField   nonuniform List<vector> 
10000
(
(-11.3646 0 0)
(-11.8581 0 0)
(-12.3659 0 0)
(-12.7788 0 0)
(-13.1614 0 0)
(-13.5514 0 0)
(-13.9496 0 0)
(-14.3495 0 0)
(-14.7483 0 0)
(-15.1465 0 0)
(-15.5445 0 0)
(-15.9425 0 0)
(-16.3406 0 0)
(-16.7388 0 0)
(-17.1373 0 0)
(-17.5357 0 0)
(-17.9339 0 0)
(-18.3321 0 0)
(-18.7302 0 0)
(-19.1282 0 0)
(-19.5258 0 0)
(-19.9229 0 0)
(-20.3201 0 0)
(-20.7177 0 0)
(-21.1158 0 0)
(-21.5141 0 0)
(-21.912 0 0)
(-22.3096 0 0)
(-22.7073 0 0)
(-23.1054 0 0)
(-23.5038 0 0)
(-23.902 0 0)
(-24.2997 0 0)
(-24.6969 0 0)
(-25.0945 0 0)
(-25.4927 0 0)
(-25.8916 0 0)
(-26.2901 0 0)
(-26.6878 0 0)
(-27.0847 0 0)
(-27.4814 0 0)
(-27.8787 0 0)
(-28.2767 0 0)
(-28.6748 0 0)
(-29.0722 0 0)
(-29.4687 0 0)
(-29.8648 0 0)
(-30.2616 0 0)
(-30.6595 0 0)
(-31.0583 0 0)
(-31.457 0 0)
(-31.8547 0 0)
(-32.2512 0 0)
(-32.6471 0 0)
(-33.0437 0 0)
(-33.4419 0 0)
(-33.8414 0 0)
(-34.2413 0 0)
(-34.64 0 0)
(-35.0368 0 0)
(-35.432 0 0)
(-35.8269 0 0)
(-36.223 0 0)
(-36.621 0 0)
(-37.0204 0 0)
(-37.4198 0 0)
(-37.8177 0 0)
(-38.2134 0 0)
(-38.6074 0 0)
(-39.0012 0 0)
(-39.3966 0 0)
(-39.7946 0 0)
(-40.1947 0 0)
(-40.5955 0 0)
(-40.995 0 0)
(-41.3922 0 0)
(-41.7871 0 0)
(-42.1809 0 0)
(-42.5753 0 0)
(-42.9718 0 0)
(-43.371 0 0)
(-43.772 0 0)
(-44.1733 0 0)
(-44.573 0 0)
(-44.9699 0 0)
(-45.3638 0 0)
(-45.7557 0 0)
(-46.1474 0 0)
(-46.5406 0 0)
(-46.9368 0 0)
(-47.3363 0 0)
(-47.7383 0 0)
(-48.1407 0 0)
(-48.5415 0 0)
(-48.939 0 0)
(-49.3328 0 0)
(-49.724 0 0)
(-50.1146 0 0)
(-50.5067 0 0)
(-50.902 0 0)
(-51.3012 0 0)
(-51.7037 0 0)
(-52.1079 0 0)
(-52.5118 0 0)
(-52.9132 0 0)
(-53.3111 0 0)
(-53.7051 0 0)
(-54.0955 0 0)
(-54.4838 0 0)
(-54.8717 0 0)
(-55.2617 0 0)
(-55.6555 0 0)
(-56.0539 0 0)
(-56.4564 0 0)
(-56.8616 0 0)
(-57.2673 0 0)
(-57.6718 0 0)
(-58.0733 0 0)
(-58.4708 0 0)
(-58.864 0 0)
(-59.2536 0 0)
(-59.6409 0 0)
(-60.0273 0 0)
(-60.4148 0 0)
(-60.8054 0 0)
(-61.2007 0 0)
(-61.6013 0 0)
(-62.0065 0 0)
(-62.4146 0 0)
(-62.8234 0 0)
(-63.2309 0 0)
(-63.6358 0 0)
(-64.0367 0 0)
(-64.4323 0 0)
(-64.8226 0 0)
(-65.2085 0 0)
(-65.5915 0 0)
(-65.9735 0 0)
(-66.3562 0 0)
(-66.742 0 0)
(-67.1324 0 0)
(-67.5277 0 0)
(-67.9277 0 0)
(-68.3317 0 0)
(-68.7392 0 0)
(-69.1495 0 0)
(-69.5621 0 0)
(-69.9755 0 0)
(-70.3869 0 0)
(-70.7949 0 0)
(-71.1989 0 0)
(-71.5987 0 0)
(-71.9936 0 0)
(-72.3832 0 0)
(-72.7682 0 0)
(-73.1495 0 0)
(-73.528 0 0)
(-73.9044 0 0)
(-74.2807 0 0)
(-74.6588 0 0)
(-75.0398 0 0)
(-75.4246 0 0)
(-75.813 0 0)
(-76.204 0 0)
(-76.5983 0 0)
(-76.9979 0 0)
(-77.4038 0 0)
(-77.8146 0 0)
(-78.2286 0 0)
(-78.646 0 0)
(-79.0677 0 0)
(-79.4921 0 0)
(-79.9176 0 0)
(-80.3451 0 0)
(-80.7737 0 0)
(-81.2017 0 0)
(-81.6293 0 0)
(-82.0554 0 0)
(-82.479 0 0)
(-82.9012 0 0)
(-83.3229 0 0)
(-83.7439 0 0)
(-84.1603 0 0)
(-84.5688 0 0)
(-84.9738 0 0)
(-85.3787 0 0)
(-85.7799 0 0)
(-86.178 0 0)
(-86.5771 0 0)
(-86.9763 0 0)
(-87.3772 0 0)
(-87.7807 0 0)
(-88.1944 0 0)
(-88.6359 0 0)
(-89.0453 0 0)
(-89.4459 0 0)
(-89.8462 0 0)
(-90.248 0 0)
(-90.646 0 0)
(-91.0456 0 0)
(-91.4459 0 0)
(-91.8427 0 0)
(-92.2403 0 0)
(-92.6414 0 0)
(-93.0412 0 0)
(-93.4362 0 0)
(-93.831 0 0)
(-94.228 0 0)
(-94.6263 0 0)
(-95.0258 0 0)
(-95.4256 0 0)
(-95.8243 0 0)
(-96.2228 0 0)
(-96.6223 0 0)
(-97.0211 0 0)
(-97.419 0 0)
(-97.8177 0 0)
(-98.2174 0 0)
(-98.6162 0 0)
(-99.0137 0 0)
(-99.4117 0 0)
(-99.8108 0 0)
(-100.211 0 0)
(-100.61 0 0)
(-101.008 0 0)
(-101.404 0 0)
(-101.801 0 0)
(-102.198 0 0)
(-102.596 0 0)
(-102.995 0 0)
(-103.394 0 0)
(-103.793 0 0)
(-104.192 0 0)
(-104.59 0 0)
(-104.989 0 0)
(-105.387 0 0)
(-105.787 0 0)
(-106.185 0 0)
(-106.583 0 0)
(-106.982 0 0)
(-107.38 0 0)
(-107.78 0 0)
(-108.179 0 0)
(-108.578 0 0)
(-108.976 0 0)
(-109.373 0 0)
(-109.771 0 0)
(-110.168 0 0)
(-110.566 0 0)
(-110.964 0 0)
(-111.363 0 0)
(-111.762 0 0)
(-112.16 0 0)
(-112.559 0 0)
(-112.957 0 0)
(-113.356 0 0)
(-113.755 0 0)
(-114.153 0 0)
(-114.551 0 0)
(-114.949 0 0)
(-115.348 0 0)
(-115.747 0 0)
(-116.146 0 0)
(-116.545 0 0)
(-116.944 0 0)
(-117.342 0 0)
(-117.739 0 0)
(-118.137 0 0)
(-118.535 0 0)
(-118.933 0 0)
(-119.331 0 0)
(-119.73 0 0)
(-120.128 0 0)
(-120.527 0 0)
(-120.926 0 0)
(-121.324 0 0)
(-121.723 0 0)
(-122.121 0 0)
(-122.519 0 0)
(-122.917 0 0)
(-123.315 0 0)
(-123.714 0 0)
(-124.113 0 0)
(-124.512 0 0)
(-124.91 0 0)
(-125.309 0 0)
(-125.707 0 0)
(-126.104 0 0)
(-126.502 0 0)
(-126.9 0 0)
(-127.299 0 0)
(-127.697 0 0)
(-128.095 0 0)
(-128.494 0 0)
(-128.893 0 0)
(-129.291 0 0)
(-129.69 0 0)
(-130.088 0 0)
(-130.487 0 0)
(-130.885 0 0)
(-131.283 0 0)
(-131.682 0 0)
(-132.08 0 0)
(-132.479 0 0)
(-132.877 0 0)
(-133.275 0 0)
(-133.673 0 0)
(-134.071 0 0)
(-134.469 0 0)
(-134.867 0 0)
(-135.265 0 0)
(-135.663 0 0)
(-136.061 0 0)
(-136.46 0 0)
(-136.859 0 0)
(-137.257 0 0)
(-137.656 0 0)
(-138.055 0 0)
(-138.453 0 0)
(-138.851 0 0)
(-139.25 0 0)
(-139.648 0 0)
(-140.047 0 0)
(-140.445 0 0)
(-140.844 0 0)
(-141.242 0 0)
(-141.64 0 0)
(-142.038 0 0)
(-142.436 0 0)
(-142.833 0 0)
(-143.231 0 0)
(-143.629 0 0)
(-144.027 0 0)
(-144.425 0 0)
(-144.824 0 0)
(-145.223 0 0)
(-145.621 0 0)
(-146.02 0 0)
(-146.418 0 0)
(-146.817 0 0)
(-147.215 0 0)
(-147.614 0 0)
(-148.012 0 0)
(-148.411 0 0)
(-148.81 0 0)
(-149.208 0 0)
(-149.606 0 0)
(-150.004 0 0)
(-150.402 0 0)
(-150.8 0 0)
(-151.198 0 0)
(-151.595 0 0)
(-151.993 0 0)
(-152.391 0 0)
(-152.789 0 0)
(-153.188 0 0)
(-153.586 0 0)
(-153.984 0 0)
(-154.383 0 0)
(-154.781 0 0)
(-155.18 0 0)
(-155.578 0 0)
(-155.977 0 0)
(-156.375 0 0)
(-156.774 0 0)
(-157.173 0 0)
(-157.571 0 0)
(-157.969 0 0)
(-158.368 0 0)
(-158.766 0 0)
(-159.164 0 0)
(-159.562 0 0)
(-159.959 0 0)
(-160.357 0 0)
(-160.755 0 0)
(-161.153 0 0)
(-161.551 0 0)
(-161.949 0 0)
(-162.347 0 0)
(-162.746 0 0)
(-163.144 0 0)
(-163.542 0 0)
(-163.94 0 0)
(-164.339 0 0)
(-164.738 0 0)
(-165.136 0 0)
(-165.535 0 0)
(-165.933 0 0)
(-166.332 0 0)
(-166.73 0 0)
(-167.128 0 0)
(-167.526 0 0)
(-167.924 0 0)
(-168.322 0 0)
(-168.72 0 0)
(-169.118 0 0)
(-169.516 0 0)
(-169.914 0 0)
(-170.312 0 0)
(-170.71 0 0)
(-171.108 0 0)
(-171.506 0 0)
(-171.904 0 0)
(-172.303 0 0)
(-172.701 0 0)
(-173.099 0 0)
(-173.498 0 0)
(-173.896 0 0)
(-174.295 0 0)
(-174.693 0 0)
(-175.092 0 0)
(-175.49 0 0)
(-175.888 0 0)
(-176.286 0 0)
(-176.684 0 0)
(-177.082 0 0)
(-177.48 0 0)
(-177.878 0 0)
(-178.276 0 0)
(-178.674 0 0)
(-179.072 0 0)
(-179.47 0 0)
(-179.869 0 0)
(-180.267 0 0)
(-180.665 0 0)
(-181.063 0 0)
(-181.461 0 0)
(-181.86 0 0)
(-182.258 0 0)
(-182.656 0 0)
(-183.055 0 0)
(-183.453 0 0)
(-183.851 0 0)
(-184.249 0 0)
(-184.647 0 0)
(-185.045 0 0)
(-185.443 0 0)
(-185.841 0 0)
(-186.239 0 0)
(-186.637 0 0)
(-187.036 0 0)
(-187.434 0 0)
(-187.832 0 0)
(-188.23 0 0)
(-188.628 0 0)
(-189.027 0 0)
(-189.425 0 0)
(-189.823 0 0)
(-190.221 0 0)
(-190.619 0 0)
(-191.017 0 0)
(-191.416 0 0)
(-191.814 0 0)
(-192.212 0 0)
(-192.61 0 0)
(-193.008 0 0)
(-193.406 0 0)
(-193.804 0 0)
(-194.202 0 0)
(-194.6 0 0)
(-194.998 0 0)
(-195.396 0 0)
(-195.795 0 0)
(-196.193 0 0)
(-196.591 0 0)
(-196.989 0 0)
(-197.387 0 0)
(-197.785 0 0)
(-198.184 0 0)
(-198.582 0 0)
(-198.98 0 0)
(-199.378 0 0)
(-199.776 0 0)
(-200.175 0 0)
(-200.573 0 0)
(-200.971 0 0)
(-201.369 0 0)
(-201.767 0 0)
(-202.165 0 0)
(-202.563 0 0)
(-202.961 0 0)
(-203.359 0 0)
(-203.757 0 0)
(-204.155 0 0)
(-204.553 0 0)
(-204.951 0 0)
(-205.349 0 0)
(-205.747 0 0)
(-206.145 0 0)
(-206.543 0 0)
(-206.942 0 0)
(-207.34 0 0)
(-207.738 0 0)
(-208.137 0 0)
(-208.535 0 0)
(-208.933 0 0)
(-209.332 0 0)
(-209.73 0 0)
(-210.128 0 0)
(-210.526 0 0)
(-210.923 0 0)
(-211.321 0 0)
(-211.719 0 0)
(-212.117 0 0)
(-212.514 0 0)
(-212.912 0 0)
(-213.31 0 0)
(-213.708 0 0)
(-214.106 0 0)
(-214.505 0 0)
(-214.903 0 0)
(-215.301 0 0)
(-215.7 0 0)
(-216.098 0 0)
(-216.496 0 0)
(-216.895 0 0)
(-217.293 0 0)
(-217.691 0 0)
(-218.089 0 0)
(-218.487 0 0)
(-218.885 0 0)
(-219.283 0 0)
(-219.681 0 0)
(-220.079 0 0)
(-220.477 0 0)
(-220.875 0 0)
(-221.272 0 0)
(-221.67 0 0)
(-222.068 0 0)
(-222.466 0 0)
(-222.864 0 0)
(-223.262 0 0)
(-223.661 0 0)
(-224.059 0 0)
(-224.457 0 0)
(-224.855 0 0)
(-225.253 0 0)
(-225.651 0 0)
(-226.05 0 0)
(-226.448 0 0)
(-226.846 0 0)
(-227.244 0 0)
(-227.642 0 0)
(-228.041 0 0)
(-228.439 0 0)
(-228.837 0 0)
(-229.235 0 0)
(-229.633 0 0)
(-230.031 0 0)
(-230.428 0 0)
(-230.827 0 0)
(-231.224 0 0)
(-231.622 0 0)
(-232.019 0 0)
(-232.419 0 0)
(-232.814 0 0)
(-233.215 0 0)
(-233.61 0 0)
(-234.012 0 0)
(-234.405 0 0)
(-234.81 0 0)
(-235.201 0 0)
(-235.607 0 0)
(-235.996 0 0)
(-236.404 0 0)
(-236.793 0 0)
(-237.2 0 0)
(-237.59 0 0)
(-237.995 0 0)
(-238.389 0 0)
(-238.786 0 0)
(-239.186 0 0)
(-239.583 0 0)
(-239.981 0 0)
(-240.379 0 0)
(-240.777 0 0)
(-241.175 0 0)
(-241.573 0 0)
(-241.971 0 0)
(-242.369 0 0)
(-242.766 0 0)
(-243.166 0 0)
(-243.561 0 0)
(-243.965 0 0)
(-244.354 0 0)
(-244.766 0 0)
(-245.145 0 0)
(-245.566 0 0)
(-245.938 0 0)
(-246.364 0 0)
(-246.735 0 0)
(-247.158 0 0)
(-247.536 0 0)
(-247.945 0 0)
(-248.342 0 0)
(-248.731 0 0)
(-249.149 0 0)
(-249.516 0 0)
(-249.952 0 0)
(-250.31 0 0)
(-250.745 0 0)
(-251.115 0 0)
(-251.527 0 0)
(-251.928 0 0)
(-252.306 0 0)
(-252.738 0 0)
(-253.093 0 0)
(-253.537 0 0)
(-253.894 0 0)
(-254.32 0 0)
(-254.711 0 0)
(-255.093 0 0)
(-255.527 0 0)
(-255.875 0 0)
(-256.326 0 0)
(-256.68 0 0)
(-257.103 0 0)
(-257.502 0 0)
(-257.873 0 0)
(-258.319 0 0)
(-258.659 0 0)
(-259.11 0 0)
(-259.476 0 0)
(-259.876 0 0)
(-260.3 0 0)
(-260.651 0 0)
(-261.109 0 0)
(-261.451 0 0)
(-261.883 0 0)
(-262.279 0 0)
(-262.644 0 0)
(-263.1 0 0)
(-263.433 0 0)
(-263.884 0 0)
(-264.259 0 0)
(-264.641 0 0)
(-265.089 0 0)
(-265.418 0 0)
(-265.88 0 0)
(-266.241 0 0)
(-266.636 0 0)
(-267.076 0 0)
(-267.406 0 0)
(-267.876 0 0)
(-268.228 0 0)
(-268.628 0 0)
(-269.068 0 0)
(-269.395 0 0)
(-269.867 0 0)
(-270.218 0 0)
(-270.617 0 0)
(-271.063 0 0)
(-271.383 0 0)
(-271.857 0 0)
(-272.213 0 0)
(-272.6 0 0)
(-273.057 0 0)
(-273.374 0 0)
(-273.841 0 0)
(-274.212 0 0)
(-274.582 0 0)
(-275.052 0 0)
(-275.365 0 0)
(-275.819 0 0)
(-276.214 0 0)
(-276.56 0 0)
(-277.043 0 0)
(-277.363 0 0)
(-277.795 0 0)
(-278.222 0 0)
(-278.542 0 0)
(-279.029 0 0)
(-279.371 0 0)
(-279.764 0 0)
(-280.228 0 0)
(-280.533 0 0)
(-281.004 0 0)
(-281.388 0 0)
(-281.733 0 0)
(-282.223 0 0)
(-282.538 0 0)
(-282.965 0 0)
(-283.404 0 0)
(-283.711 0 0)
(-284.2 0 0)
(-284.557 0 0)
(-284.922 0 0)
(-285.409 0 0)
(-285.712 0 0)
(-286.159 0 0)
(-286.583 0 0)
(-286.89 0 0)
(-287.39 0 0)
(-287.736 0 0)
(-288.109 0 0)
(-288.595 0 0)
(-288.892 0 0)
(-289.349 0 0)
(-289.765 0 0)
(-290.076 0 0)
(-290.577 0 0)
(-290.922 0 0)
(-291.297 0 0)
(-291.778 0 0)
(-292.081 0 0)
(-292.528 0 0)
(-292.951 0 0)
(-293.263 0 0)
(-293.755 0 0)
(-294.111 0 0)
(-294.474 0 0)
(-294.963 0 0)
(-295.271 0 0)
(-295.698 0 0)
(-296.146 0 0)
(-296.447 0 0)
(-296.926 0 0)
(-297.313 0 0)
(-297.645 0 0)
(-298.143 0 0)
(-298.474 0 0)
(-298.86 0 0)
(-299.343 0 0)
(-299.642 0 0)
(-300.085 0 0)
(-300.524 0 0)
(-300.824 0 0)
(-301.31 0 0)
(-301.693 0 0)
(-302.02 0 0)
(-302.523 0 0)
(-302.858 0 0)
(-303.23 0 0)
(-303.726 0 0)
(-304.026 0 0)
(-304.45 0 0)
(-304.914 0 0)
(-305.202 0 0)
(-305.67 0 0)
(-306.092 0 0)
(-306.389 0 0)
(-306.887 0 0)
(-307.264 0 0)
(-307.587 0 0)
(-308.099 0 0)
(-308.435 0 0)
(-308.794 0 0)
(-309.303 0 0)
(-309.606 0 0)
(-310.006 0 0)
(-310.499 0 0)
(-310.782 0 0)
(-311.221 0 0)
(-311.688 0 0)
(-311.962 0 0)
(-312.436 0 0)
(-312.87 0 0)
(-313.148 0 0)
(-313.652 0 0)
(-314.049 0 0)
(-314.34 0 0)
(-314.864 0 0)
(-315.224 0 0)
(-315.537 0 0)
(-316.071 0 0)
(-316.399 0 0)
(-316.74 0 0)
(-317.275 0 0)
(-317.575 0 0)
(-317.946 0 0)
(-318.474 0 0)
(-318.753 0 0)
(-319.154 0 0)
(-319.669 0 0)
(-319.934 0 0)
(-320.363 0 0)
(-320.861 0 0)
(-321.117 0 0)
(-321.57 0 0)
(-322.05 0 0)
(-322.303 0 0)
(-322.777 0 0)
(-323.239 0 0)
(-323.492 0 0)
(-323.983 0 0)
(-324.427 0 0)
(-324.683 0 0)
(-325.187 0 0)
(-325.614 0 0)
(-325.875 0 0)
(-326.389 0 0)
(-326.802 0 0)
(-327.069 0 0)
(-327.59 0 0)
(-327.99 0 0)
(-328.264 0 0)
(-328.789 0 0)
(-329.179 0 0)
(-329.46 0 0)
(-329.987 0 0)
(-330.369 0 0)
(-330.656 0 0)
(-331.182 0 0)
(-331.56 0 0)
(-331.852 0 0)
(-332.378 0 0)
(-332.753 0 0)
(-333.047 0 0)
(-333.572 0 0)
(-333.947 0 0)
(-334.242 0 0)
(-334.766 0 0)
(-335.143 0 0)
(-335.437 0 0)
(-335.958 0 0)
(-336.339 0 0)
(-336.631 0 0)
(-337.15 0 0)
(-337.537 0 0)
(-337.825 0 0)
(-338.342 0 0)
(-338.736 0 0)
(-339.018 0 0)
(-339.532 0 0)
(-339.937 0 0)
(-340.211 0 0)
(-340.719 0 0)
(-341.139 0 0)
(-341.405 0 0)
(-341.905 0 0)
(-342.342 0 0)
(-342.601 0 0)
(-343.089 0 0)
(-343.546 0 0)
(-343.8 0 0)
(-344.271 0 0)
(-344.749 0 0)
(-345.001 0 0)
(-345.45 0 0)
(-345.95 0 0)
(-346.205 0 0)
(-346.628 0 0)
(-347.149 0 0)
(-347.414 0 0)
(-347.806 0 0)
(-348.344 0 0)
(-348.625 0 0)
(-348.985 0 0)
(-349.534 0 0)
(-349.84 0 0)
(-350.167 0 0)
(-350.719 0 0)
(-351.056 0 0)
(-351.352 0 0)
(-351.899 0 0)
(-352.273 0 0)
(-352.542 0 0)
(-353.074 0 0)
(-353.489 0 0)
(-353.739 0 0)
(-354.245 0 0)
(-354.702 0 0)
(-354.944 0 0)
(-355.413 0 0)
(-355.91 0 0)
(-356.155 0 0)
(-356.581 0 0)
(-357.11 0 0)
(-357.374 0 0)
(-357.75 0 0)
(-358.302 0 0)
(-358.597 0 0)
(-358.924 0 0)
(-359.484 0 0)
(-359.824 0 0)
(-360.105 0 0)
(-360.656 0 0)
(-361.051 0 0)
(-361.297 0 0)
(-361.819 0 0)
(-362.274 0 0)
(-362.503 0 0)
(-362.976 0 0)
(-363.487 0 0)
(-363.724 0 0)
(-364.132 0 0)
(-364.685 0 0)
(-364.955 0 0)
(-365.295 0 0)
(-365.867 0 0)
(-366.194 0 0)
(-366.471 0 0)
(-367.033 0 0)
(-367.432 0 0)
(-367.664 0 0)
(-368.185 0 0)
(-368.66 0 0)
(-368.879 0 0)
(-369.331 0 0)
(-369.87 0 0)
(-370.112 0 0)
(-370.482 0 0)
(-371.057 0 0)
(-371.357 0 0)
(-371.649 0 0)
(-372.221 0 0)
(-372.603 0 0)
(-372.84 0 0)
(-373.368 0 0)
(-373.837 0 0)
(-374.057 0 0)
(-374.508 0 0)
(-375.048 0 0)
(-375.296 0 0)
(-375.657 0 0)
(-376.232 0 0)
(-376.547 0 0)
(-376.826 0 0)
(-377.389 0 0)
(-377.794 0 0)
(-378.024 0 0)
(-378.529 0 0)
(-379.023 0 0)
(-379.253 0 0)
(-379.668 0 0)
(-380.222 0 0)
(-380.502 0 0)
(-380.823 0 0)
(-381.39 0 0)
(-381.756 0 0)
(-382.007 0 0)
(-382.533 0 0)
(-382.996 0 0)
(-383.226 0 0)
(-383.668 0 0)
(-384.207 0 0)
(-384.471 0 0)
(-384.816 0 0)
(-385.382 0 0)
(-385.727 0 0)
(-385.994 0 0)
(-386.527 0 0)
(-386.972 0 0)
(-387.209 0 0)
(-387.66 0 0)
(-388.188 0 0)
(-388.455 0 0)
(-388.803 0 0)
(-389.365 0 0)
(-389.715 0 0)
(-389.978 0 0)
(-390.508 0 0)
(-390.962 0 0)
(-391.195 0 0)
(-391.639 0 0)
(-392.174 0 0)
(-392.448 0 0)
(-392.783 0 0)
(-393.342 0 0)
(-393.712 0 0)
(-393.966 0 0)
(-394.476 0 0)
(-394.957 0 0)
(-395.196 0 0)
(-395.602 0 0)
(-396.159 0 0)
(-396.458 0 0)
(-396.754 0 0)
(-397.31 0 0)
(-397.723 0 0)
(-397.957 0 0)
(-398.431 0 0)
(-398.953 0 0)
(-399.21 0 0)
(-399.56 0 0)
(-400.128 0 0)
(-400.485 0 0)
(-400.734 0 0)
(-401.256 0 0)
(-401.739 0 0)
(-401.969 0 0)
(-402.373 0 0)
(-402.937 0 0)
(-403.245 0 0)
(-403.525 0 0)
(-404.074 0 0)
(-404.516 0 0)
(-404.74 0 0)
(-405.184 0 0)
(-405.736 0 0)
(-406.011 0 0)
(-406.319 0 0)
(-406.887 0 0)
(-407.292 0 0)
(-407.519 0 0)
(-407.994 0 0)
(-408.528 0 0)
(-408.786 0 0)
(-409.116 0 0)
(-409.69 0 0)
(-410.073 0 0)
(-410.303 0 0)
(-410.799 0 0)
(-411.318 0 0)
(-411.565 0 0)
(-411.914 0 0)
(-412.487 0 0)
(-412.856 0 0)
(-413.094 0 0)
(-413.597 0 0)
(-414.109 0 0)
(-414.351 0 0)
(-414.709 0 0)
(-415.282 0 0)
(-415.643 0 0)
(-415.886 0 0)
(-416.39 0 0)
(-416.899 0 0)
(-417.144 0 0)
(-417.5 0 0)
(-418.072 0 0)
(-418.436 0 0)
(-418.678 0 0)
(-419.18 0 0)
(-419.689 0 0)
(-419.94 0 0)
(-420.291 0 0)
(-420.858 0 0)
(-421.234 0 0)
(-421.474 0 0)
(-421.963 0 0)
(-422.482 0 0)
(-422.742 0 0)
(-423.079 0 0)
(-423.641 0 0)
(-424.036 0 0)
(-424.274 0 0)
(-424.742 0 0)
(-425.274 0 0)
(-425.55 0 0)
(-425.866 0 0)
(-426.421 0 0)
(-426.84 0 0)
(-427.076 0 0)
(-427.518 0 0)
(-428.063 0 0)
(-428.363 0 0)
(-428.654 0 0)
(-429.194 0 0)
(-429.646 0 0)
(-429.884 0 0)
(-430.291 0 0)
(-430.847 0 0)
(-431.18 0 0)
(-431.446 0 0)
(-431.96 0 0)
(-432.451 0 0)
(-432.701 0 0)
(-433.063 0 0)
(-433.625 0 0)
(-434.002 0 0)
(-434.247 0 0)
(-434.721 0 0)
(-435.249 0 0)
(-435.528 0 0)
(-435.84 0 0)
(-436.39 0 0)
(-436.824 0 0)
(-437.061 0 0)
(-437.48 0 0)
(-438.034 0 0)
(-438.363 0 0)
(-438.629 0 0)
(-439.143 0 0)
(-439.637 0 0)
(-439.89 0 0)
(-440.242 0 0)
(-440.801 0 0)
(-441.198 0 0)
(-441.438 0 0)
(-441.889 0 0)
(-442.432 0 0)
(-442.734 0 0)
(-443.021 0 0)
(-443.551 0 0)
(-444.022 0 0)
(-444.271 0 0)
(-444.642 0 0)
(-445.201 0 0)
(-445.581 0 0)
(-445.827 0 0)
(-446.291 0 0)
(-446.824 0 0)
(-447.121 0 0)
(-447.416 0 0)
(-447.946 0 0)
(-448.413 0 0)
(-448.663 0 0)
(-449.037 0 0)
(-449.592 0 0)
(-449.973 0 0)
(-450.223 0 0)
(-450.681 0 0)
(-451.213 0 0)
(-451.519 0 0)
(-451.811 0 0)
(-452.332 0 0)
(-452.806 0 0)
(-453.065 0 0)
(-453.427 0 0)
(-453.975 0 0)
(-454.375 0 0)
(-454.626 0 0)
(-455.062 0 0)
(-455.601 0 0)
(-455.929 0 0)
(-456.209 0 0)
(-456.708 0 0)
(-457.203 0 0)
(-457.48 0 0)
(-457.813 0 0)
(-458.351 0 0)
(-458.783 0 0)
(-459.039 0 0)
(-459.439 0 0)
(-459.981 0 0)
(-460.349 0 0)
(-460.612 0 0)
(-461.075 0 0)
(-461.596 0 0)
(-461.906 0 0)
(-462.205 0 0)
(-462.714 0 0)
(-463.192 0 0)
(-463.465 0 0)
(-463.814 0 0)
(-464.35 0 0)
(-464.772 0 0)
(-465.032 0 0)
(-465.437 0 0)
(-465.975 0 0)
(-466.342 0 0)
(-466.611 0 0)
(-467.069 0 0)
(-467.587 0 0)
(-467.907 0 0)
(-468.205 0 0)
(-468.703 0 0)
(-469.186 0 0)
(-469.472 0 0)
(-469.81 0 0)
(-470.334 0 0)
(-470.773 0 0)
(-471.043 0 0)
(-471.427 0 0)
(-471.959 0 0)
(-472.352 0 0)
(-472.621 0 0)
(-473.051 0 0)
(-473.575 0 0)
(-473.925 0 0)
(-474.209 0 0)
(-474.678 0 0)
(-475.182 0 0)
(-475.496 0 0)
(-475.807 0 0)
(-476.306 0 0)
(-476.78 0 0)
(-477.07 0 0)
(-477.412 0 0)
(-477.931 0 0)
(-478.371 0 0)
(-478.647 0 0)
(-479.025 0 0)
(-479.551 0 0)
(-479.957 0 0)
(-480.23 0 0)
(-480.641 0 0)
(-481.168 0 0)
(-481.539 0 0)
(-481.818 0 0)
(-482.261 0 0)
(-482.777 0 0)
(-483.121 0 0)
(-483.412 0 0)
(-483.882 0 0)
(-484.382 0 0)
(-484.702 0 0)
(-485.012 0 0)
(-485.501 0 0)
(-485.983 0 0)
(-486.285 0 0)
(-486.616 0 0)
(-487.12 0 0)
(-487.579 0 0)
(-487.871 0 0)
(-488.223 0 0)
(-488.736 0 0)
(-489.173 0 0)
(-489.458 0 0)
(-489.834 0 0)
(-490.35 0 0)
(-490.765 0 0)
(-491.049 0 0)
(-491.446 0 0)
(-491.961 0 0)
(-492.355 0 0)
(-492.643 0 0)
(-493.059 0 0)
(-493.57 0 0)
(-493.947 0 0)
(-494.239 0 0)
(-494.672 0 0)
(-495.177 0 0)
(-495.538 0 0)
(-495.838 0 0)
(-496.285 0 0)
(-496.782 0 0)
(-497.129 0 0)
(-497.439 0 0)
(-497.898 0 0)
(-498.386 0 0)
(-498.723 0 0)
(-499.04 0 0)
(-499.511 0 0)
(-499.989 0 0)
(-500.317 0 0)
(-500.644 0 0)
(-501.121 0 0)
(-501.592 0 0)
(-501.912 0 0)
(-502.248 0 0)
(-502.731 0 0)
(-503.194 0 0)
(-503.51 0 0)
(-503.852 0 0)
(-504.341 0 0)
(-504.796 0 0)
(-505.108 0 0)
(-505.458 0 0)
(-505.949 0 0)
(-506.399 0 0)
(-506.708 0 0)
(-507.063 0 0)
(-507.556 0 0)
(-508.001 0 0)
(-508.31 0 0)
(-508.668 0 0)
(-509.163 0 0)
(-509.605 0 0)
(-509.912 0 0)
(-510.274 0 0)
(-510.768 0 0)
(-511.209 0 0)
(-511.516 0 0)
(-511.879 0 0)
(-512.372 0 0)
(-512.812 0 0)
(-513.122 0 0)
(-513.484 0 0)
(-513.976 0 0)
(-514.417 0 0)
(-514.728 0 0)
(-515.09 0 0)
(-515.58 0 0)
(-516.022 0 0)
(-516.336 0 0)
(-516.696 0 0)
(-517.183 0 0)
(-517.626 0 0)
(-517.945 0 0)
(-518.302 0 0)
(-518.785 0 0)
(-519.232 0 0)
(-519.554 0 0)
(-519.91 0 0)
(-520.387 0 0)
(-520.837 0 0)
(-521.164 0 0)
(-521.517 0 0)
(-521.99 0 0)
(-522.441 0 0)
(-522.775 0 0)
(-523.125 0 0)
(-523.593 0 0)
(-524.047 0 0)
(-524.385 0 0)
(-524.733 0 0)
(-525.195 0 0)
(-525.652 0 0)
(-525.997 0 0)
(-526.341 0 0)
(-526.798 0 0)
(-527.258 0 0)
(-527.609 0 0)
(-527.95 0 0)
(-528.401 0 0)
(-528.864 0 0)
(-529.221 0 0)
(-529.56 0 0)
(-530.003 0 0)
(-530.471 0 0)
(-530.835 0 0)
(-531.17 0 0)
(-531.606 0 0)
(-532.077 0 0)
(-532.449 0 0)
(-532.781 0 0)
(-533.208 0 0)
(-533.682 0 0)
(-534.064 0 0)
(-534.393 0 0)
(-534.809 0 0)
(-535.287 0 0)
(-535.68 0 0)
(-536.007 0 0)
(-536.411 0 0)
(-536.889 0 0)
(-537.296 0 0)
(-537.624 0 0)
(-538.014 0 0)
(-538.49 0 0)
(-538.911 0 0)
(-539.243 0 0)
(-539.619 0 0)
(-540.09 0 0)
(-540.525 0 0)
(-540.864 0 0)
(-541.227 0 0)
(-541.689 0 0)
(-542.137 0 0)
(-542.486 0 0)
(-542.838 0 0)
(-543.287 0 0)
(-543.745 0 0)
(-544.109 0 0)
(-544.452 0 0)
(-544.887 0 0)
(-545.351 0 0)
(-545.73 0 0)
(-546.07 0 0)
(-546.488 0 0)
(-546.955 0 0)
(-547.349 0 0)
(-547.69 0 0)
(-548.093 0 0)
(-548.557 0 0)
(-548.967 0 0)
(-549.311 0 0)
(-549.701 0 0)
(-550.159 0 0)
(-550.582 0 0)
(-550.933 0 0)
(-551.311 0 0)
(-551.762 0 0)
(-552.196 0 0)
(-552.556 0 0)
(-552.924 0 0)
(-553.366 0 0)
(-553.808 0 0)
(-554.178 0 0)
(-554.539 0 0)
(-554.97 0 0)
(-555.419 0 0)
(-555.801 0 0)
(-556.155 0 0)
(-556.574 0 0)
(-557.029 0 0)
(-557.424 0 0)
(-557.775 0 0)
(-558.18 0 0)
(-558.636 0 0)
(-559.046 0 0)
(-559.398 0 0)
(-559.787 0 0)
(-560.24 0 0)
(-560.666 0 0)
(-561.024 0 0)
(-561.397 0 0)
(-561.843 0 0)
(-562.284 0 0)
(-562.652 0 0)
(-563.013 0 0)
(-563.444 0 0)
(-563.897 0 0)
(-564.282 0 0)
(-564.634 0 0)
(-565.047 0 0)
(-565.505 0 0)
(-565.91 0 0)
(-566.261 0 0)
(-566.654 0 0)
(-567.108 0 0)
(-567.533 0 0)
(-567.892 0 0)
(-568.267 0 0)
(-568.71 0 0)
(-569.151 0 0)
(-569.524 0 0)
(-569.887 0 0)
(-570.313 0 0)
(-570.763 0 0)
(-571.155 0 0)
(-571.513 0 0)
(-571.92 0 0)
(-572.371 0 0)
(-572.781 0 0)
(-573.142 0 0)
(-573.533 0 0)
(-573.977 0 0)
(-574.403 0 0)
(-574.773 0 0)
(-575.15 0 0)
(-575.584 0 0)
(-576.022 0 0)
(-576.404 0 0)
(-576.772 0 0)
(-577.192 0 0)
(-577.637 0 0)
(-578.034 0 0)
(-578.399 0 0)
(-578.803 0 0)
(-579.248 0 0)
(-579.662 0 0)
(-580.029 0 0)
(-580.417 0 0)
(-580.857 0 0)
(-581.287 0 0)
(-581.663 0 0)
(-582.037 0 0)
(-582.465 0 0)
(-582.907 0 0)
(-583.298 0 0)
(-583.663 0 0)
(-584.074 0 0)
(-584.521 0 0)
(-584.931 0 0)
(-585.296 0 0)
(-585.687 0 0)
(-586.13 0 0)
(-586.559 0 0)
(-586.933 0 0)
(-587.308 0 0)
(-587.737 0 0)
(-588.18 0 0)
(-588.572 0 0)
(-588.937 0 0)
(-589.347 0 0)
(-589.794 0 0)
(-590.207 0 0)
(-590.574 0 0)
(-590.963 0 0)
(-591.403 0 0)
(-591.836 0 0)
(-592.215 0 0)
(-592.588 0 0)
(-593.012 0 0)
(-593.456 0 0)
(-593.855 0 0)
(-594.222 0 0)
(-594.625 0 0)
(-595.069 0 0)
(-595.489 0 0)
(-595.863 0 0)
(-596.247 0 0)
(-596.68 0 0)
(-597.115 0 0)
(-597.505 0 0)
(-597.878 0 0)
(-598.293 0 0)
(-598.734 0 0)
(-599.143 0 0)
(-599.516 0 0)
(-599.913 0 0)
(-600.349 0 0)
(-600.775 0 0)
(-601.158 0 0)
(-601.541 0 0)
(-601.964 0 0)
(-602.4 0 0)
(-602.798 0 0)
(-603.175 0 0)
(-603.583 0 0)
(-604.02 0 0)
(-604.435 0 0)
(-604.815 0 0)
(-605.208 0 0)
(-605.639 0 0)
(-606.067 0 0)
(-606.458 0 0)
(-606.84 0 0)
(-607.258 0 0)
(-607.694 0 0)
(-608.1 0 0)
(-608.478 0 0)
(-608.879 0 0)
(-609.315 0 0)
(-609.738 0 0)
(-610.123 0 0)
(-610.509 0 0)
(-610.933 0 0)
(-611.369 0 0)
(-611.769 0 0)
(-612.147 0 0)
(-612.554 0 0)
(-612.992 0 0)
(-613.411 0 0)
(-613.794 0 0)
(-614.183 0 0)
(-614.61 0 0)
(-615.045 0 0)
(-615.443 0 0)
(-615.822 0 0)
(-616.232 0 0)
(-616.67 0 0)
(-617.088 0 0)
(-617.471 0 0)
(-617.862 0 0)
(-618.291 0 0)
(-618.724 0 0)
(-619.121 0 0)
(-619.503 0 0)
(-619.914 0 0)
(-620.351 0 0)
(-620.768 0 0)
(-621.153 0 0)
(-621.547 0 0)
(-621.975 0 0)
(-622.405 0 0)
(-622.804 0 0)
(-623.189 0 0)
(-623.601 0 0)
(-624.036 0 0)
(-624.451 0 0)
(-624.839 0 0)
(-625.236 0 0)
(-625.663 0 0)
(-626.091 0 0)
(-626.49 0 0)
(-626.879 0 0)
(-627.292 0 0)
(-627.725 0 0)
(-628.139 0 0)
(-628.529 0 0)
(-628.928 0 0)
(-629.356 0 0)
(-629.783 0 0)
(-630.182 0 0)
(-630.572 0 0)
(-630.987 0 0)
(-631.42 0 0)
(-631.834 0 0)
(-632.223 0 0)
(-632.623 0 0)
(-633.052 0 0)
(-633.48 0 0)
(-633.88 0 0)
(-634.269 0 0)
(-634.684 0 0)
(-635.119 0 0)
(-635.535 0 0)
(-635.925 0 0)
(-636.322 0 0)
(-636.75 0 0)
(-637.182 0 0)
(-637.585 0 0)
(-637.973 0 0)
(-638.384 0 0)
(-638.819 0 0)
(-639.241 0 0)
(-639.634 0 0)
(-640.028 0 0)
(-640.451 0 0)
(-640.886 0 0)
(-641.296 0 0)
(-641.685 0 0)
(-642.091 0 0)
(-642.522 0 0)
(-642.949 0 0)
(-643.348 0 0)
(-643.742 0 0)
(-644.16 0 0)
(-644.593 0 0)
(-645.009 0 0)
(-645.403 0 0)
(-645.806 0 0)
(-646.233 0 0)
(-646.661 0 0)
(-647.066 0 0)
(-647.462 0 0)
(-647.876 0 0)
(-648.307 0 0)
(-648.726 0 0)
(-649.124 0 0)
(-649.526 0 0)
(-649.95 0 0)
(-650.379 0 0)
(-650.788 0 0)
(-651.185 0 0)
(-651.597 0 0)
(-652.027 0 0)
(-652.449 0 0)
(-652.85 0 0)
(-653.251 0 0)
(-653.673 0 0)
(-654.104 0 0)
(-654.517 0 0)
(-654.915 0 0)
(-655.323 0 0)
(-655.753 0 0)
(-656.18 0 0)
(-656.585 0 0)
(-656.983 0 0)
(-657.4 0 0)
(-657.833 0 0)
(-658.254 0 0)
(-658.653 0 0)
(-659.056 0 0)
(-659.482 0 0)
(-659.914 0 0)
(-660.326 0 0)
(-660.724 0 0)
(-661.135 0 0)
(-661.566 0 0)
(-661.993 0 0)
(-662.399 0 0)
(-662.799 0 0)
(-663.218 0 0)
(-663.651 0 0)
(-664.072 0 0)
(-664.474 0 0)
(-664.879 0 0)
(-665.305 0 0)
(-665.736 0 0)
(-666.15 0 0)
(-666.551 0 0)
(-666.963 0 0)
(-667.394 0 0)
(-667.821 0 0)
(-668.23 0 0)
(-668.633 0 0)
(-669.052 0 0)
(-669.484 0 0)
(-669.906 0 0)
(-670.311 0 0)
(-670.719 0 0)
(-671.144 0 0)
(-671.575 0 0)
(-671.991 0 0)
(-672.395 0 0)
(-672.809 0 0)
(-673.239 0 0)
(-673.666 0 0)
(-674.077 0 0)
(-674.484 0 0)
(-674.904 0 0)
(-675.335 0 0)
(-675.758 0 0)
(-676.166 0 0)
(-676.576 0 0)
(-677.001 0 0)
(-677.433 0 0)
(-677.851 0 0)
(-678.257 0 0)
(-678.672 0 0)
(-679.102 0 0)
(-679.532 0 0)
(-679.945 0 0)
(-680.352 0 0)
(-680.772 0 0)
(-681.205 0 0)
(-681.631 0 0)
(-682.041 0 0)
(-682.45 0 0)
(-682.875 0 0)
(-683.31 0 0)
(-683.732 0 0)
(-684.14 0 0)
(-684.553 0 0)
(-684.982 0 0)
(-685.416 0 0)
(-685.835 0 0)
(-686.242 0 0)
(-686.659 0 0)
(-687.091 0 0)
(-687.523 0 0)
(-687.939 0 0)
(-688.348 0 0)
(-688.769 0 0)
(-689.203 0 0)
(-689.632 0 0)
(-690.047 0 0)
(-690.458 0 0)
(-690.883 0 0)
(-691.317 0 0)
(-691.743 0 0)
(-692.157 0 0)
(-692.572 0 0)
(-693 0 0)
(-693.433 0 0)
(-693.856 0 0)
(-694.27 0 0)
(-694.689 0 0)
(-695.12 0 0)
(-695.551 0 0)
(-695.971 0 0)
(-696.386 0 0)
(-696.81 0 0)
(-697.243 0 0)
(-697.672 0 0)
(-698.09 0 0)
(-698.506 0 0)
(-698.934 0 0)
(-699.369 0 0)
(-699.795 0 0)
(-700.211 0 0)
(-700.63 0 0)
(-701.062 0 0)
(-701.497 0 0)
(-701.921 0 0)
(-702.337 0 0)
(-702.758 0 0)
(-703.193 0 0)
(-703.628 0 0)
(-704.051 0 0)
(-704.466 0 0)
(-704.89 0 0)
(-705.326 0 0)
(-705.762 0 0)
(-706.183 0 0)
(-706.599 0 0)
(-707.025 0 0)
(-707.463 0 0)
(-707.898 0 0)
(-708.319 0 0)
(-708.736 0 0)
(-709.164 0 0)
(-709.603 0 0)
(-710.037 0 0)
(-710.458 0 0)
(-710.877 0 0)
(-711.307 0 0)
(-711.746 0 0)
(-712.179 0 0)
(-712.601 0 0)
(-713.023 0 0)
(-713.455 0 0)
(-713.893 0 0)
(-714.324 0 0)
(-714.747 0 0)
(-715.172 0 0)
(-715.606 0 0)
(-716.043 0 0)
(-716.473 0 0)
(-716.897 0 0)
(-717.326 0 0)
(-717.762 0 0)
(-718.198 0 0)
(-718.626 0 0)
(-719.051 0 0)
(-719.483 0 0)
(-719.921 0 0)
(-720.356 0 0)
(-720.783 0 0)
(-721.209 0 0)
(-721.643 0 0)
(-722.084 0 0)
(-722.519 0 0)
(-722.945 0 0)
(-723.371 0 0)
(-723.808 0 0)
(-724.25 0 0)
(-724.686 0 0)
(-725.112 0 0)
(-725.538 0 0)
(-725.976 0 0)
(-726.42 0 0)
(-726.857 0 0)
(-727.283 0 0)
(-727.71 0 0)
(-728.149 0 0)
(-728.594 0 0)
(-729.032 0 0)
(-729.459 0 0)
(-729.888 0 0)
(-730.327 0 0)
(-730.772 0 0)
(-731.211 0 0)
(-731.64 0 0)
(-732.07 0 0)
(-732.51 0 0)
(-732.954 0 0)
(-733.394 0 0)
(-733.825 0 0)
(-734.258 0 0)
(-734.698 0 0)
(-735.142 0 0)
(-735.581 0 0)
(-736.014 0 0)
(-736.45 0 0)
(-736.891 0 0)
(-737.335 0 0)
(-737.773 0 0)
(-738.208 0 0)
(-738.646 0 0)
(-739.09 0 0)
(-739.533 0 0)
(-739.971 0 0)
(-740.406 0 0)
(-740.847 0 0)
(-741.293 0 0)
(-741.737 0 0)
(-742.174 0 0)
(-742.61 0 0)
(-743.053 0 0)
(-743.501 0 0)
(-743.947 0 0)
(-744.384 0 0)
(-744.82 0 0)
(-745.263 0 0)
(-745.714 0 0)
(-746.161 0 0)
(-746.6 0 0)
(-747.036 0 0)
(-747.479 0 0)
(-747.931 0 0)
(-748.381 0 0)
(-748.821 0 0)
(-749.258 0 0)
(-749.702 0 0)
(-750.154 0 0)
(-750.605 0 0)
(-751.048 0 0)
(-751.487 0 0)
(-751.931 0 0)
(-752.383 0 0)
(-752.835 0 0)
(-753.281 0 0)
(-753.721 0 0)
(-754.166 0 0)
(-754.618 0 0)
(-755.071 0 0)
(-755.518 0 0)
(-755.962 0 0)
(-756.409 0 0)
(-756.861 0 0)
(-757.313 0 0)
(-757.762 0 0)
(-758.208 0 0)
(-758.657 0 0)
(-759.11 0 0)
(-759.563 0 0)
(-760.012 0 0)
(-760.46 0 0)
(-760.912 0 0)
(-761.367 0 0)
(-761.82 0 0)
(-762.269 0 0)
(-762.718 0 0)
(-763.172 0 0)
(-763.63 0 0)
(-764.084 0 0)
(-764.534 0 0)
(-764.983 0 0)
(-765.438 0 0)
(-765.899 0 0)
(-766.356 0 0)
(-766.806 0 0)
(-767.256 0 0)
(-767.712 0 0)
(-768.174 0 0)
(-768.634 0 0)
(-769.087 0 0)
(-769.537 0 0)
(-769.993 0 0)
(-770.456 0 0)
(-770.919 0 0)
(-771.374 0 0)
(-771.826 0 0)
(-772.282 0 0)
(-772.745 0 0)
(-773.21 0 0)
(-773.669 0 0)
(-774.124 0 0)
(-774.58 0 0)
(-775.043 0 0)
(-775.509 0 0)
(-775.971 0 0)
(-776.428 0 0)
(-776.887 0 0)
(-777.35 0 0)
(-777.816 0 0)
(-778.28 0 0)
(-778.74 0 0)
(-779.201 0 0)
(-779.666 0 0)
(-780.133 0 0)
(-780.598 0 0)
(-781.06 0 0)
(-781.524 0 0)
(-781.991 0 0)
(-782.459 0 0)
(-782.925 0 0)
(-783.388 0 0)
(-783.854 0 0)
(-784.324 0 0)
(-784.794 0 0)
(-785.261 0 0)
(-785.726 0 0)
(-786.193 0 0)
(-786.665 0 0)
(-787.138 0 0)
(-787.608 0 0)
(-788.074 0 0)
(-788.541 0 0)
(-789.014 0 0)
(-789.49 0 0)
(-789.964 0 0)
(-790.431 0 0)
(-790.9 0 0)
(-791.373 0 0)
(-791.852 0 0)
(-792.328 0 0)
(-792.799 0 0)
(-793.269 0 0)
(-793.743 0 0)
(-794.222 0 0)
(-794.702 0 0)
(-795.177 0 0)
(-795.649 0 0)
(-796.124 0 0)
(-796.604 0 0)
(-797.085 0 0)
(-797.564 0 0)
(-798.039 0 0)
(-798.516 0 0)
(-798.997 0 0)
(-799.48 0 0)
(-799.961 0 0)
(-800.439 0 0)
(-800.919 0 0)
(-801.401 0 0)
(-801.886 0 0)
(-802.368 0 0)
(-802.85 0 0)
(-803.332 0 0)
(-803.817 0 0)
(-804.304 0 0)
(-804.788 0 0)
(-805.271 0 0)
(-805.756 0 0)
(-806.244 0 0)
(-806.734 0 0)
(-807.221 0 0)
(-807.706 0 0)
(-808.191 0 0)
(-808.682 0 0)
(-809.175 0 0)
(-809.666 0 0)
(-810.153 0 0)
(-810.64 0 0)
(-811.132 0 0)
(-811.627 0 0)
(-812.122 0 0)
(-812.613 0 0)
(-813.102 0 0)
(-813.595 0 0)
(-814.092 0 0)
(-814.59 0 0)
(-815.086 0 0)