/*--------------------------------*- C++ -*----------------------------------*\
  =========                 |
  \\      /  F ield         | OpenFOAM: The Open Source CFD Toolbox
   \\    /   O peration     | Website:  https://openfoam.org
    \\  /    A nd           | Version:  9
     \\/     M anipulation  |
\*---------------------------------------------------------------------------*/
FoamFile
{
    format      ascii;
    class       volScalarField;
    location    "0.04";
    object      ddt0(rho,e);
}
// * * * * * * * * * * * * * * * * * * * * * * * * * * * * * * * * * * * * * //

dimensions      [1 -1 -3 0 0 0 0];

internalField   nonuniform List<scalar> 
10000
(
728741
728706
728650
728593
728538
728484
728428
728370
728314
728262
728209
728150
728090
728035
727986
727932
727871
727809
727755
727709
727660
727598
727531
727474
727431
727389
727332
727261
727194
727144
727110
727070
727009
726930
726858
726811
726784
726752
726692
726607
726523
726468
726446
726430
726390
726310
726210
726126
726084
726079
726074
726034
725945
725831
725734
725687
725689
725705
725689
725613
725490
725361
725275
725255
725285
725319
725304
725218
725075
724923
724818
724790
724831
724895
724925
724877
724746
724567
724399
724298
724289
724358
724453
724512
724487
724363
724167
723955
723792
723724
723761
723873
724004
724088
724076
723952
723738
723487
723265
723128
723108
723198
723360
723531
723649
723664
723555
723337
723054
722766
722536
722411
722414
722535
722736
722962
723151
723250
723226
723072
722809
722479
722139
721845
721647
721573
721632
721807
722062
722350
722615
722810
722895
722852
722679
722393
722029
721629
721240
720909
720670
720551
720562
720698
720943
721266
721632
722001
722335
722600
722770
722825
722757
722570
722274
721888
721435
720944
720444
719964
719531
719168
718894
718724
718667
718725
718896
719177
719558
720030
720578
721188
721847
722538
723246
723957
724657
725329
725963
726543
727058
727498
727859
728140
728341
728465
728528
728545
728545
728559
728603
728727
729104
730027
730224
730294
730340
730374
730392
730404
730410
730410
730407
730404
730400
730392
730385
730378
730372
730367
730363
730358
730353
730350
730346
730342
730339
730336
730333
730330
730327
730324
730322
730320
730317
730314
730311
730308
730305
730303
730301
730299
730296
730294
730292
730289
730287
730285
730282
730280
730278
730276
730274
730272
730269
730266
730263
730260
730258
730255
730253
730251
730248
730246
730244
730241
730239
730236
730234
730231
730229
730227
730225
730223
730220
730218
730215
730212
730209
730207
730204
730202
730199
730197
730195
730192
730190
730187
730185
730182
730180
730177
730175
730173
730170
730167
730165
730162
730159
730157
730154
730151
730149
730147
730144
730142
730139
730137
730134
730132
730129
730126
730124
730121
730119
730116
730113
730111
730108
730105
730103
730100
730097
730095
730092
730090
730087
730085
730082
730080
730077
730074
730072
730069
730067
730064
730061
730058
730056
730053
730050
730047
730044
730042
730039
730036
730034
730031
730029
730026
730023
730021
730018
730016
730013
730011
730008
730005
730002
729999
729996
729993
729990
729988
729985
729982
729979
729977
729974
729971
729969
729966
729963
729961
729958
729955
729953
729950
729947
729944
729941
729938
729935
729932
729929
729927
729924
729921
729918
729915
729912
729910
729907
729904
729902
729899
729896
729893
729891
729888
729885
729882
729879
729876
729873
729870
729867
729864
729861
729858
729855
729852
729850
729847
729844
729841
729838
729835
729832
729830
729827
729824
729821
729818
729815
729812
729809
729806
729803
729800
729797
729794
729791
729788
729785
729782
729779
729776
729773
729770
729767
729764
729761
729758
729755
729752
729749
729746
729743
729740
729737
729734
729731
729728
729725
729722
729719
729716
729713
729710
729707
729704
729701
729698
729695
729691
729688
729685
729682
729679
729676
729672
729669
729666
729663
729660
729657
729654
729651
729648
729645
729642
729639
729636
729632
729629
729626
729623
729619
729616
729613
729610
729606
729603
729600
729597
729594
729591
729587
729584
729581
729578
729575
729572
729569
729565
729562
729559
729556
729552
729549
729546
729542
729539
729536
729532
729529
729526
729523
729519
729516
729513
729509
729506
729503
729500
729497
729493
729490
729487
729484
729480
729477
729474
729470
729467
729463
729460
729456
729453
729449
729446
729443
729439
729436
729433
729430
729426
729423
729420
729417
729413
729410
729406
729403
729399
729397
729391
729391
729383
729385
729373
729381
729363
729379
729350
729379
729335
729382
729318
729386
729300
729391
729283
729391
729273
729381
729277
729352
729305
729300
729324
729306
729297
729302
729296
729289
729287
729284
729284
729272
729285
729246
729310
729197
729352
729138
729394
729091
729410
729085
729372
729140
729271
729252
729132
729374
729014
729441
728984
729397
729077
729234
729259
729032
729420
728913
729441
728974
729275
729194
729012
729417
728852
729445
728943
729221
729227
728914
729452
728803
729388
729007
729060
729344
728780
729461
728838
729207
729195
728822
729461
728732
729311
729058
728881
729426
728671
729370
728956
728919
729390
728631
729394
728897
728921
729375
728594
729389
728882
728878
729387
728557
729355
728912
728792
729419
728534
729280
728991
728673
729450
728547
729150
729115
728543
729448
728621
728959
729268
728440
729372
728784
728714
729403
728425
729177
729032
728472
729438
728562
728860
729296
728340
729283
728863
728503
729437
728436
728918
729223
728290
729304
728776
728503
729403
728380
728929
729152
728277
729274
728728
728492
729351
728371
728866
729142
728251
729193
728772
728395
729321
728418
728704
729209
728224
729032
728920
728244
729249
728576
728442
729285
728295
728733
729144
728151
729016
728882
728166
729210
728580
728316
729275
728310
728549
729209
728124
728801
729041
728044
729020
728812
728067
729176
728563
728171
729255
728329
728330
729257
728131
728518
729190
727983
728716
729065
727892
728904
728898
727859
729063
728707
727882
729182
728508
727951
729256
728318
728051
729287
728150
728166
729280
728009
728286
729243
727896
728402
729186
727807
728508
729117
727742
728601
729041
727697
728678
728961
727669
728740
728883
727653
728787
728811
727646
728817
728748
727646
728831
728695
727650
728832
728652
727652
728825
728621
727651
728810
728603
727644
728786
728596
727634
728756
728601
727619
728718
728617
727599
728673
728646
727576
728616
728689
727555
728541
728743
727543
728447
728804
727545
728335
728866
727567
728204
728924
727613
728056
728968
727689
727895
728989
727799
727734
728974
727939
727584
728918
728102
727457
728817
728280
727363
728671
728462
727316
728480
728633
727325
728253
728775
727397
728004
728869
727532
727752
728900
727723
727517
728856
727960
727323
728728
728225
727197
728511
728489
727168
728217
728711
727255
727876
728847
727460
727533
728859
727762
727245
728727
728118
727068
728454
728464
727045
728072
728729
727200
727644
728840
727514
727261
728754
727925
727012
728471
728337
726965
728044
728644
727139
727569
728758
727496
727165
728637
727946
726937
728297
728364
726953
727821
728625
727217
727340
728637
727652
726996
728383
728123
726899
727933
728472
727080
727425
728575
727479
727025
728387
727958
726870
727959
728344
727016
727432
728486
727416
726994
728314
727921
726816
727872
728322
726979
727327
728437
727424
726902
728192
727962
726787
727670
728341
727049
727095
728362
727573
726739
727986
728102
726785
727374
728354
727226
726828
728168
727836
726642
727609
728275
726937
726966
728267
727556
726606
727783
728132
726750
727087
728296
727325
726593
727913
727972
726620
727198
728257
727158
726605
727964
727846
726529
727266
728206
727023
726624
727967
727739
726483
727275
728155
726940
726611
727949
727659
726451
727252
728093
726910
726572
727892
727628
726421
727192
728038
726905
726524
727799
727631
726410
727082
727997
726934
726455
727685
727651
726425
726935
727944
727009
726369
727539
727692
726462
726769
727862
727120
726295
727346
727746
726532
726581
727751
727260
726254
727099
727785
726668
726381
727581
727422
726271
726813
727766
726876
726213
727322
727581
726378
726508
727647
727131
726142
726973
727673
726598
726237
727402
727383
726212
726577
727623
726914
726080
727025
727550
726444
726229
727383
727242
726116
726575
727540
726796
726036
726969
727454
726369
726178
727294
727158
726079
726484
727435
726764
725977
726843
727376
726367
726083
727138
727143
726073
726325
727309
726797
725936
726633
727310
726438
725954
726925
727157
726128
726117
727124
726898
725926
726357
727211
726578
725856
726618
727164
726273
725901
726851
727005
726021
726047
727003
726776
725851
726246
727068
726505
725783
726456
727037
726241
725798
726653
726919
726014
725890
726797
726746
725835
726031
726882
726533
725728
726188
726904
726310
725681
726351
726858
726101
725689
726494
726767
725911
725746
726602
726638
725760
725827
726679
726482
725648
725927
726710
726322
725571
726033
726706
726158
725533
726128
726672
726003
725523
726215
726606
725868
725533
726284
726523
725744
725566
726332
726427
725641
725603
726366
726320
725558
725646
726380
726215
725486
725693
726376
726109
725433
725732
726364
726004
725390
725768
726338
725909
725352
725799
726305
725819
725323
725817
726271
725736
725298
725830
726228
725665
725273
725836
726185
725598
725252
725830
726144
725538
725228
725819
726100
725490
725200
725799
726060
725446
725176
725769
726021
725410
725148
725735
725978
725382
725118
725695
725940
725355
725090
725646
725903
725336
725059
725595
725861
725323
725029
725539
725819
725309
725005
725478
725776
725298
724978
725420
725729
725289
724950
725359
725686
725278
724926
725295
725641
725270
724899
725232
725592
725264
724873
725166
725546
725256
724849
725096
725499
725253
724824
725025
725446
725255
724802
724948
725390
725258
724791
724867
725325
725264
724786
724787
725245
725269
724793
724711
725155
725263
724815
724643
725055
725247
724844
724591
724944
725216
724877
724556
724832
725162
724911
724538
724725
725091
724936
724540
724625
725005
724946
724555
724544
724907
724941
724572
724480
724806
724918
724593
724427
724708
724881
724611
724387
724610
724837
724624
724356
724512
724781
724639
724334
724417
724712
724652
724327
724323
724628
724657
724337
724237
724527
724651
724362
724170
724407
724623
724401
724128
724280
724562
724442
724118
724160
724467
724467
724142
724060
724347
724461
724185
723996
724213
724420
724228
723970
724085
724342
724257
723972
723980
724237
724262
723992
723899
724123
724237
724020
723845
724006
724186
724044
723817
723893
724113
724058
723811
723793
724016
724058
723823
723711
723900
724034
723851
723657
723776
723975
723882
723637
723655
723882
723897
723653
723556
723759
723881
723690
723498
723619
723821
723728
723484
723490
723715
723745
723508
723397
723578
723718
723552
723349
723437
723638
723587
723351
723318
723518
723583
723385
723243
723379
723530
723419
723218
723250
723433
723428
723229
723155
723309
723399
723251
723102
723182
723329
723266
723084
723074
723226
723256
723089
722993
723108
723212
723104
722945
722988
723133
723111
722934
722882
723021
723091
722950
722811
722888
723027
722970
722791
722765
722915
722964
722808
722684
722775
722906
722833
722658
722646
722794
722830
722673
722562
722654
722772
722696
722532
722527
722661
722689
722540
722442
722528
722629
722555
722406
722406
722524
722542
722406
722320
722399
722484
722411
722277
722281
722387
722394
722265
722191
722269
722342
722265
722138
722148
722252
722252
722122
722048
722129
722206
722127
721993
721996
722108
722120
721988
721897
721969
722063
722001
721858
721835
721944
721983
721865
721753
721797
721900
721871
721734
721680
721766
721826
721740
721622
721631
721723
721722
721607
721537
721593
721656
721597
721487
721475
721550
721562
721465
721389
721426
721489
721446
721340
721313
721379
721404
721318
721232
721253
721321
721298
721190
721141
721199
721246
721176
721071
721067
721141
721150
721049
720968
721002
721070
721037
720926
720881
720940
720983
720913
720811
720805
720872
720879
720785
720709
720736
720794
720762
720661
720618
720666
720702
720638
720545
720536
720591
720595
720511
720440
720458
720506
720477
720386
720344
720381
720409
720351
720267
720255
720300
720301
720222
720155
720169
720212
720184
720095
720050
720083
720113
720059
719972
719951
719995
720005
719931
719853
719854
719902
719889
719803
719739
719759
719801
719767
719676
719629
719661
719691
719640
719553
719523
719560
719573
719510
719432
719420
719454
719448
719378
719315
719317
719343
719317
719246
719200
719213
719226
719183
719114
719086
719106
719104
719047
718982
718972
718995
718977
718909
718852
718857
718879
718847
718770
718722
718739
718758
718715
718632
718593
718617
718632
718579
718496
718464
718490
718499
718441
718361
718336
718360
718362
718300
718227
718206
718226
718218
718156
718093
718077
718090
718070
718010
717957
717947
717951
717919
717860
717819
717815
717810
717767
717707
717677
717680
717667
717613
717552
717531
717540
717522
717459
717396
717381
717395
717375
717306
717239
717227
717243
717224
717152
717084
717070
717086
717067
716996
716929
716912
716923
716903
716838
716774
716754
716758
716734
716674
716617
716595
716590
716560
716505
716456
716437
716422
716384
716330
716289
716274
716254
716208
716150
716117
716107
716085
716031
715968
715938
715933
715914
715854
715786
715753
715752
715737
715677
715604
715566
715565
715553
715496
715422
715378
715373
715362
715311
715237
715189
715178
715165
715119
715050
715000
714980
714964
714920
714857
714808
714783
714759
714714
714657
714613
714585
714554
714504
714450
714410
714384
714348
714292
714235
714199
714178
714142
714080
714017
713980
713963
713931
713868
713797
713756
713740
713714
713653
713578
713528
713509
713488
713433
713358
713300
713273
713253
713205
713134
713071
713036
713011
712968
712902
712839
712798
712767
712723
712661
712602
712558
712521
712473
712412
712356
712313
712273
712220
712157
712101
712060
712022
711966
711898
711837
711798
711764
711710
711637
711569
711527
711495
711447
711374
711300
711249
711217
711175
711106
711029
710968
710931
710892
710830
710753
710686
710641
710599
710542
710470
710401
710348
710301
710245
710176
710109
710053
710001
709942
709872
709806
709750
709698
709634
709561
709492
709437
709386
709323
709246
709171
709113
709064
709005
708928
708846
708781
708731
708677
708603
708518
708443
708388
708336
708268
708184
708102
708039
707984
707920
707840
707757
707686
707625
707561
707484
707402
707327
707261
707193
707116
707035
706960
706891
706820
706739
706656
706580
706512
706441
706358
706268
706187
706118
706051
705970
705876
705786
705712
705646
705570
705477
705380
705296
705227
705155
705068
704969
704876
704797
704724
704642
704546
704450
704363
704283
704201
704108
704012
703921
703836
703748
703655
703559
703467
703379
703289
703191
703091
702997
702909
702819
702719
702613
702513
702422
702335
702237
702128
702018
701921
701832
701738
701631
701516
701409
701314
701221
701118
701004
700889
700784
700687
700585
700474
700357
700246
700141
700036
699925
699809
699694
699584
699475
699360
699242
699124
699011
698900
698782
698659
698537
698421
698308
698189
698063
697934
697811
697696
697578
697451
697318
697187
697064
696946
696820
696685
696547
696416
696292
696167
696032
695891
695752
695620
695491
695357
695215
695070
694930
694795
694659
694515
694367
694222
694080
693939
693793
693642
693492
693345
693200
693050
692896
692742
692590
692432
692420
692332
692315
692164
692006
691734
691585
691371
691190
691011
690836
690671
690496
690320
690145
689976
689813
689646
689472
689295
689120
688952
688784
688611
688432
688252
688076
687902
687725
687544
687360
687176
686995
686813
686627
686439
686250
686062
685875
685684
685489
685294
685100
684907
684712
684511
684308
684107
683909
683710
683505
683296
683086
682879
682674
682467
682253
682035
681819
681606
681394
681178
680955
680730
680507
680287
680066
679840
679609
679377
679148
678919
678688
678452
678214
677976
677739
677500
677259
677013
676768
676523
676278
676029
675776
675523
675270
675017
674762
674502
674239
673977
673717
673455
673189
672919
672646
672376
672107
671835
671558
671277
670995
670716
670437
670155
669866
669574
669283
668994
668704
668411
668112
667810
667509
667209
666907
666602
666293
665981
665670
665357
665043
664725
664406
664085
663763
663438
663110
662780
662449
662118
661785
661448
661106
660763
660421
660079
659734
659384
659028
658673
658318
657965
657607
657244
656875
656507
656139
655772
655401
655025
654644
654263
653882
653500
653114
652725
652332
651938
651542
651145
650744
650341
649936
649529
649119
648705
648289
647872
647454
647034
646609
646179
645748
645315
644883
644449
644010
643564
643116
642669
642222
641773
641318
640858
640395
639931
639468
639003
638533
638058
637579
637100
636620
636138
635652
635162
634668
634173
633676
633176
632673
632168
631660
631149
630634
630116
629596
629074
628552
628025
627494
626958
626419
625881
625343
624801
624253
623700
623144
622588
622032
621474
620910
620340
619767
619194
618620
618044
617464
616879
616290
615699
615107
614513
613916
613316
612712
612104
611495
610882
610267
609650
609032
608410
607782
607152
606519
605885
605251
604614
603972
603324
602673
602023
601372
600720
600063
599400
598734
598066
597399
596730
596059
595382
594701
594018
593334
592650
591963
591273
590580
589883
589184
588484
587781
587078
586372
585663
584951
584237
583519
582802
582084
581364
580642
579914
579184
578453
577722
576992
576259
575523
574781
574038
573296
572555
571813
571067
570318
569566
568814
568062
567311
566558
565802
565044
564285
563524
562764
562004
561243
560481
559717
558951
558185
557417
556651
555886
555120
554353
553582
552812
552041
551273
550506
549738
548968
548196
547425
546655
545889
545122
544354
543585
542815
542047
541281
540517
539754
538990
538225
537462
536699
535939
535181
534424
533668
532912
532158
531404
530652
529903
529157
528413
527669
526926
526183
525444
524709
523977
523247
522518
521789
521062
520339
519621
518906
518194
517482
516771
516064
515361
514663
513968
513275
512585
511897
511212
510532
509856
509184
508516
507851
507188
506528
505873
505222
504578
503937
503299
502664
502031
501404
500783
500168
499557
498948
498342
497741
497145
496556
495972
495392
494815
494242
493674
493112
492555
492003
491456
490914
490377
489844
489316
488792
488275
487765
487259
486757
486259
485766
485280
484800
484325
483854
483388
482929
482475
482023
481578
481141
480710
480282
479857
479438
479026
478619
478218
477823
477432
477046
476664
476288
475918
475554
475195
474841
474491
474147
473808
473474
473145
472822
472504
472191
471883
471578
471279
470986
470697
470415
470136
469862
469592
469326
469067
468813
468563
468318
468076
467839
467605
467378
467155
466937
466723
466512
466306
466104
465906
465713
465524
465339
465158
464981
464808
464638
464471
464309
464152
463999
463848
463701
463557
463416
463280
463147
463019
462892
462769
462649
462532
462419
462309
462202
462098
461997
461898
461803
461711
461621
461534
461450
461368
461289
461213
461139
461068
460999
460932
460869
460807
460748
460690
460635
460582
460532
460483
460437
460392
460349
460308
460269
460233
460198
460165
460133
460103
460075
460048
460024
460000
459979
459959
459940
459923
459907
459892
459878
459866
459856
459848
459840
459832
459826
459821
459818
459816
459815
459815
459816
459818
459820
459823
459829
459834
459841
459849
459857
459866
459875
459885
459896
459909
459923
459936
459951
459964
459979
459995
460012
460030
460049
460067
460086
460104
460124
460145
460166
460189
460210
460233
460255
460278
460301
460325
460351
460375
460402
460427
460451
460477
460503
460530
460558
460587
460615
460642
460669
460697
460725
460755
460785
460816
460845
460874
460903
460933
460964
460995
461027
461058
461089
461119
461150
461181
461214
461246
461279
461311
461343
461375
461407
461439
461472
461506
461539
461573
461605
461637
461670
461703
461738
461772
461806
461840
461872
461905
461939
461973
462009
462042
462077
462111
462144
462178
462212
462247
462282
462317
462352
462386
462419
462453
462487
462523
462558
462594
462629
462663
462696
462730
462766
462801
462837
462872
462907
462941
462975
463009
463045
463080
463117
463151
463186
463221
463254
463289
463325
463361
463397
463432
463466
463501
463535
463569
463606
463641
463677
463713
463746
463782
463815
463851
463887
463923
463958
463993
464028
464062
464097
464131
464168
464204
464239
464275
464308
464344
464378
464413
464449
464485
464521
464555
464590
464624
464659
464694
464730
464767
464802
464836
464871
464906
464940
464976
465012
465048
465083
465117
465152
465187
465222
465258
465293
465329
465364
465399
465433
465468
465504
465538
465575
465610
465646
465680
465714
465749
465784
465820
465855
465892
465926
465962
465995
466030
466065
466101
466138
466171
466208
466241
466277
466311
466346
466383
466417
466454
466488
466523
466557
466592
466628
466663
466699
466734
466770
466803
466838
466873
466908
466945
466979
467016
467050
467085
467119
467154
467189
467225
467261
467296
467331
467365
467400
467435
467470
467506
467541
467577
467612
467647
467681
467716
467752
467787
467822
467857
467893
467927
467962
467997
468032
468067
468103
468138
468173
468208
468243
468278
468313
468348
468383
468419
468454
468488
468523
468558
468594
468629
468665
468699
468734
468769
468804
468839
468874
468909
468945
468980
469015
469049
469084
469119
469154
469190
469225
469261
469295
469330
469364
469399
469435
469470
469506
469540
469576
469610
469645
469680
469715
469750
469786
469820
469856
469891
469925
469960
469995
470030
470065
470101
470135
470171
470205
470241
470275
470310
470346
470381
470416
470450
470486
470520
470556
470591
470626
470660
470695
470730
470765
470801
470835
470870
470905
470941
470975
471010
471045
471079
471115
471150
471185
471220
471255
471290
471324
471360
471394
471430
471465
471500
471535
471569
471604
471639
471674
471709
471745
471779
471814
471849
471884
471918
471953
471988
472023
472059
472094
472129
472163
472198
472233
472267
472303
472338
472373
472408
472443
472477
472512
472547
472582
472617
472653
472688
472723
472757
472792
472826
472861
472896
472932
472967
473001
473037
473070
473105
473140
473176
473211
473246
473281
473316
473351
473385
473420
473454
473490
473525
473560
473595
473630
473664
473699
473734
473769
473805
473840
473875
473909
473944
473979
474014
474049
474083
474119
474154
474189
474224
474258
474293
474328
474363
474399
474433
474469
474503
474538
474573
474607
474643
474678
474713
474748
474783
474818
474852
474888
474923
474958
474993
475028
475063
475098
475133
475168
475202
475237
475273
475308
475343
475378
475413
475448
475482
475518
475553
475588
475623
475658
475693
475728
475763
475798
475833
475868
475904
475938
475974
476008
476044
476078
476114
476149
476184
476219
476254
476289
476324
476359
476394
476429
476465
476500
476535
476570
476605
476640
476675
476710
476746
476780
476816
476851
476886
476921
476956
476992
477026
477062
477097
477132
477167
477202
477238
477273
477309
477343
477379
477413
477449
477483
477519
477554
477590
477625
477660
477696
477730
477766
477800
477837
477871
477907
477942
477977
478012
478047
478083
478118
478154
478189
478225
478259
478294
478329
478365
478400
478435
478471
478507
478542
478577
478612
478647
478682
478718
478753
478789
478824
478860
478894
478930
478965
479000
479036
479071
479107
479142
479178
479212
479248
479282
479319
479353
479390
479425
479461
479496
479531
479566
479601
479637
479672
479708
479743
479780
479814
479850
479884
479920
479955
479991
480027
480062
480098
480133
480169
480203
480238
480273
480309
480345
480381
480417
480452
480487
480522
480557
480592
480628
480664
480700
480736
480771
480806
480841
480876
480911
480947
480983
481019
481055
481090
481125
481160
481195
481230
481266
481302
481338
481374
481409
481444
481479
481513
481549
481585
481621
481657
481693
481728
481763
481798
481833
481869
481904
481940
481976
482012
482047
482082
482117
482152
482188
482223
482259
482295
482330
482366
482401
482436
482471
482507
482542
482578
482614
482650
482685
482720
482755
482790
482826
482861
482898
482933
482969
483004
483039
483074
483109
483145
483180
483217
483252
483288
483323
483358
483393
483428
483463
483499
483535
483571
483607
483642
483677
483712
483747
483782
483818
483854
483890
483925
483961
483996
484031
484066
484100
484136
484172
484208
484244
484279
484314
484349
484384
484419
484455
484490
484526
484562
484597
484633
484667
484703
484737
484773
484808
484844
484880
484915
484951
484985
485021
485056
485091
485127
485162
485198
485233
485268
485303
485338
485373
485409
485444
485480
485515
485551
485586
485621
485656
485691
485726
485762
485797
485832
485868
485904
485939
485973
486008
486043
486078
486115
486150
486185
486221
486255
486291
486325
486360
486395
486431
486466
486502
486537
486572
486607
486642
486677
486712
486747
486783
486819
486854
486889
486924
486958
486994
487028
487064
487099
487134
487170
487205
487240
487275
487310
487344
487380
487415
487450
487486
487521
487556
487591
487626
487660
487695
487731
487766
487801
487837
487871
487906
487941
487976
488011
488046
488081
488116
488152
488187
488222
488257
488291
488327
488361
488396
488432
488467
488502
488537
488572
488606
488642
488676
488712
488747
488782
488817
488852
488887
488921
488957
488991
489026
489061
489096
489132
489166
489202
489236
489271
489306
489341
489376
489411
489446
489481
489516
489551
489586
489621
489656
489691
489726
489761
489796
489831
489865
489901
489935
489971
490005
490040
490075
490110
490145
490180
490215
490250
490285
490320
490355
490390
490425
490459
490495
490529
490564
490599
490634
490669
490704
490739
490774
490809
490844
490879
490914
490948
490984
491018
491054
491088
491124
491158
491193
491228
491263
491298
491333
491369
491403
491438
491473
491508
491543
491578
491612
491648
491682
491718
491752
491788
491823
491857
491893
491927
491963
491997
492033
492067
492103
492137
492172
492207
492243
492278
492313
492348
492382
492417
492452
492488
492522
492558
492592
492628
492663
492698
492733
492767
492803
492837
492872
492907
492943
492978
493013
493048
493083
493118
493153
493188
493223
493258
493293
493329
493364
493399
493434
493468
493503
493538
493573
493609
493644
493679
493714
493750
493784
493820
493854
493889
493924
493959
493995
494030
494066
494101
494136
494171
494205
494240
494275
494311
494346
494381
494417
494452
494487
494522
494557
494592
494627
494662
494698
494733
494769
494804
494839
494874
494909
494943
494978
495013
495049
495085
495120
495156
495191
495226
495260
495296
495330
495366
495401
495437
495472
495508
495543
495577
495613
495647
495683
495717
495754
495789
495825
495860
495895
495931
495964
496000
496034
496071
496105
496142
496177
496212
496248
496282
496318
496352
496388
496422
496459
496493
496530
496565
496600
496636
496670
496706
496739
496776
496810
496847
496882
496918
496954
496988
497024
497058
497094
497128
497164
497199
497235
497271
497306
497342
497377
497412
497446
497482
497517
497552
497588
497624
497660
497695
497730
497765
497800
497835
497870
497906
497941
497977
498013
498048
498084
498119
498154
498189
498224
498259
498295
498331
498366
498402
498437
498472
498508
498542
498578
498613
498648
498684
498720
498756
498791
498827
498861
498897
498932
498967
499002
499038
499074
499109
499145
499180
499216
499250
499286
499321
499356
499392
499427
499463
499498
499535
499569
499605
499640
499675
499710
499746
499782
499817
499853
499888
499924
499958
499994
500029
500064
500100
500135
500171
500206
500242
500277
500313
500348
500383
500419
500454
500489
500525
500561
500596
500632
500667
500702
500737
500773
500808
500844
500879
500915
500950
500986
501022
501057
501092
501127
501162
501198
501233
501269
501304
501340
501375
501411
501446
501481
501517
501552
501587
501623
501658
501694
501730
501765
501800
501836
501871
501906
501941
501977
502012
502048
502083
502119
502154
502190
502225
502260
502296
502331
502366
502401
502437
502473
502508
502544
502579
502614
502649
502685
502720
502755
502791
502826
502862
502897
502933
502968
503003
503039
503074
503109
503145
503180
503215
503251
503286
503322
503357
503392
503428
503463
503498
503533
503569
503604
503640
503675
503711
503746
503781
503816
503852
503887
503922
503957
503993
504028
504064
504099
504135
504170
504205
504240
504275
504310
504346
504381
504416
504452
504487
504523
504558
504593
504628
504663
504699
504734
504769
504804
504840
504875
504911
504946
504981
505016
505051
505086
505122
505157
505192
505228
505263
505298
505334
505369
505404
505439
505474
505509
505544
505580
505615
505650
505686
505721
505756
505791
505826
505861
505896
505931
505967
506002
506038
506073
506108
506143
506179
506213
506249
506283
506319
506354
506389
506424
506459
506495
506530
506565
506600
506635
506670
506705
506740
506776
506811
506846
506881
506917
506952
506987
507022
507057
507092
507127
507162
507197
507233
507268
507304
507338
507374
507408
507444
507478
507514
507548
507584
507619
507654
507690
507725
507760
507794
507830
507864
507899
507934
507970
508005
508040
508076
508110
508146
508180
508215
508250
508285
508320
508356
508391
508426
508461
508497
508532
508567
508602
508636
508671
508706
508742
508776
508812
508847
508882
508918
508953
508988
509022
509057
509092
509127
509162
509198
509233
509268
509303
509338
509374
509408
509443
509478
509513
509548
509583
509618
509654
509689
509724
509759
509794
509829
509864
509899
509934
509969
510004
510039
510074
510110
510145
510180
510215
510250
510285
510320
510355
510390
510425
510460
510495
510531
510565
510601
510636
510671
510706
510741
510776
510811
510846
510881
510916
510951
510987
511021
511057
511092
511127
511162
511197
511232
511267
511302
511337
511372
511407
511442
511477
511513
511548
511583
511618
511653
511688