/*--------------------------------*- C++ -*----------------------------------*\
  =========                 |
  \\      /  F ield         | OpenFOAM: The Open Source CFD Toolbox
   \\    /   O peration     | Website:  https://openfoam.org
    \\  /    A nd           | Version:  9
     \\/     M anipulation  |
\*---------------------------------------------------------------------------*/
FoamFile
{
    format      ascii;
    class       volVectorField;
    location    "0.04";
    object      U;
}
// * * * * * * * * * * * * * * * * * * * * * * * * * * * * * * * * * * * * * //

dimensions      [0 1 -1 0 0 0 0];

internalField   nonuniform List<vector> 
10000
(
(7.5086 0 0)
(7.54332 0 0)
(7.58478 0 0)
(7.61867 0 0)
(7.64873 0 0)
(7.67879 0 0)
(7.7096 0 0)
(7.7407 0 0)
(7.77177 0 0)
(7.80277 0 0)
(7.83375 0 0)
(7.86473 0 0)
(7.89572 0 0)
(7.92672 0 0)
(7.95771 0 0)
(7.9887 0 0)
(8.01969 0 0)
(8.05068 0 0)
(8.08167 0 0)
(8.11266 0 0)
(8.14366 0 0)
(8.17465 0 0)
(8.20564 0 0)
(8.23663 0 0)
(8.26762 0 0)
(8.29862 0 0)
(8.32961 0 0)
(8.3606 0 0)
(8.39159 0 0)
(8.42259 0 0)
(8.45358 0 0)
(8.48457 0 0)
(8.51557 0 0)
(8.54656 0 0)
(8.57756 0 0)
(8.60855 0 0)
(8.63954 0 0)
(8.67054 0 0)
(8.70153 0 0)
(8.73253 0 0)
(8.76352 0 0)
(8.79452 0 0)
(8.82551 0 0)
(8.85651 0 0)
(8.8875 0 0)
(8.9185 0 0)
(8.94949 0 0)
(8.98049 0 0)
(9.01149 0 0)
(9.04248 0 0)
(9.07348 0 0)
(9.10448 0 0)
(9.13547 0 0)
(9.16647 0 0)
(9.19747 0 0)
(9.22846 0 0)
(9.25946 0 0)
(9.29046 0 0)
(9.32146 0 0)
(9.35245 0 0)
(9.38345 0 0)
(9.41445 0 0)
(9.44545 0 0)
(9.47645 0 0)
(9.50744 0 0)
(9.53844 0 0)
(9.56944 0 0)
(9.60044 0 0)
(9.63144 0 0)
(9.66244 0 0)
(9.69344 0 0)
(9.72444 0 0)
(9.75544 0 0)
(9.78644 0 0)
(9.81744 0 0)
(9.84844 0 0)
(9.87944 0 0)
(9.91044 0 0)
(9.94144 0 0)
(9.97244 0 0)
(10.0034 0 0)
(10.0344 0 0)
(10.0654 0 0)
(10.0964 0 0)
(10.1274 0 0)
(10.1584 0 0)
(10.1894 0 0)
(10.2204 0 0)
(10.2514 0 0)
(10.2825 0 0)
(10.3135 0 0)
(10.3445 0 0)
(10.3755 0 0)
(10.4065 0 0)
(10.4375 0 0)
(10.4685 0 0)
(10.4995 0 0)
(10.5305 0 0)
(10.5615 0 0)
(10.5925 0 0)
(10.6235 0 0)
(10.6545 0 0)
(10.6855 0 0)
(10.7165 0 0)
(10.7475 0 0)
(10.7785 0 0)
(10.8095 0 0)
(10.8405 0 0)
(10.8715 0 0)
(10.9025 0 0)
(10.9335 0 0)
(10.9645 0 0)
(10.9955 0 0)
(11.0265 0 0)
(11.0576 0 0)
(11.0886 0 0)
(11.1196 0 0)
(11.1506 0 0)
(11.1816 0 0)
(11.2126 0 0)
(11.2436 0 0)
(11.2746 0 0)
(11.3056 0 0)
(11.3366 0 0)
(11.3676 0 0)
(11.3986 0 0)
(11.4296 0 0)
(11.4606 0 0)
(11.4916 0 0)
(11.5227 0 0)
(11.5537 0 0)
(11.5847 0 0)
(11.6157 0 0)
(11.6467 0 0)
(11.6777 0 0)
(11.7087 0 0)
(11.7397 0 0)
(11.7707 0 0)
(11.8017 0 0)
(11.8327 0 0)
(11.8637 0 0)
(11.8948 0 0)
(11.9258 0 0)
(11.9568 0 0)
(11.9878 0 0)
(12.0188 0 0)
(12.0498 0 0)
(12.0808 0 0)
(12.1118 0 0)
(12.1428 0 0)
(12.1739 0 0)
(12.2049 0 0)
(12.2359 0 0)
(12.2669 0 0)
(12.2979 0 0)
(12.3289 0 0)
(12.3599 0 0)
(12.3909 0 0)
(12.4219 0 0)
(12.453 0 0)
(12.484 0 0)
(12.515 0 0)
(12.546 0 0)
(12.577 0 0)
(12.608 0 0)
(12.639 0 0)
(12.67 0 0)
(12.7011 0 0)
(12.7321 0 0)
(12.7631 0 0)
(12.7941 0 0)
(12.8251 0 0)
(12.8561 0 0)
(12.8871 0 0)
(12.9182 0 0)
(12.9492 0 0)
(12.9802 0 0)
(13.0112 0 0)
(13.0422 0 0)
(13.0732 0 0)
(13.1043 0 0)
(13.1353 0 0)
(13.1663 0 0)
(13.1973 0 0)
(13.2283 0 0)
(13.2593 0 0)
(13.2903 0 0)
(13.3214 0 0)
(13.3524 0 0)
(13.3834 0 0)
(13.4144 0 0)
(13.4454 0 0)
(13.4764 0 0)
(13.5075 0 0)
(13.5385 0 0)
(13.5695 0 0)
(13.6005 0 0)
(13.6315 0 0)
(13.6626 0 0)
(13.6936 0 0)
(13.7246 0 0)
(13.7556 0 0)
(13.7866 0 0)
(13.8176 0 0)
(13.8487 0 0)
(13.8797 0 0)
(13.9107 0 0)
(13.9417 0 0)
(13.9727 0 0)
(14.0038 0 0)
(14.0348 0 0)
(14.0658 0 0)
(14.0968 0 0)
(14.1278 0 0)
(14.1589 0 0)
(14.1899 0 0)
(14.2209 0 0)
(14.2519 0 0)
(14.2829 0 0)
(14.314 0 0)
(14.345 0 0)
(14.376 0 0)
(14.407 0 0)
(14.438 0 0)
(14.4691 0 0)
(14.5001 0 0)
(14.5311 0 0)
(14.5621 0 0)
(14.5931 0 0)
(14.6242 0 0)
(14.6552 0 0)
(14.6862 0 0)
(14.7172 0 0)
(14.7482 0 0)
(14.7793 0 0)
(14.8103 0 0)
(14.8413 0 0)
(14.8723 0 0)
(14.9034 0 0)
(14.9344 0 0)
(14.9654 0 0)
(14.9964 0 0)
(15.0275 0 0)
(15.0585 0 0)
(15.0895 0 0)
(15.1205 0 0)
(15.1516 0 0)
(15.1826 0 0)
(15.2136 0 0)
(15.2446 0 0)
(15.2756 0 0)
(15.3067 0 0)
(15.3377 0 0)
(15.3687 0 0)
(15.3997 0 0)
(15.4308 0 0)
(15.4618 0 0)
(15.4928 0 0)
(15.5238 0 0)
(15.5549 0 0)
(15.5859 0 0)
(15.6169 0 0)
(15.648 0 0)
(15.679 0 0)
(15.71 0 0)
(15.741 0 0)
(15.7721 0 0)
(15.8031 0 0)
(15.8341 0 0)
(15.8651 0 0)
(15.8962 0 0)
(15.9272 0 0)
(15.9582 0 0)
(15.9892 0 0)
(16.0203 0 0)
(16.0513 0 0)
(16.0823 0 0)
(16.1134 0 0)
(16.1444 0 0)
(16.1754 0 0)
(16.2064 0 0)
(16.2375 0 0)
(16.2685 0 0)
(16.2995 0 0)
(16.3306 0 0)
(16.3616 0 0)
(16.3926 0 0)
(16.4236 0 0)
(16.4547 0 0)
(16.4857 0 0)
(16.5167 0 0)
(16.5478 0 0)
(16.5788 0 0)
(16.6098 0 0)
(16.6409 0 0)
(16.6719 0 0)
(16.7029 0 0)
(16.7339 0 0)
(16.765 0 0)
(16.796 0 0)
(16.827 0 0)
(16.8581 0 0)
(16.8891 0 0)
(16.9201 0 0)
(16.9512 0 0)
(16.9822 0 0)
(17.0132 0 0)
(17.0443 0 0)
(17.0753 0 0)
(17.1063 0 0)
(17.1374 0 0)
(17.1684 0 0)
(17.1994 0 0)
(17.2305 0 0)
(17.2615 0 0)
(17.2925 0 0)
(17.3236 0 0)
(17.3546 0 0)
(17.3856 0 0)
(17.4167 0 0)
(17.4477 0 0)
(17.4787 0 0)
(17.5098 0 0)
(17.5408 0 0)
(17.5718 0 0)
(17.6029 0 0)
(17.6339 0 0)
(17.6649 0 0)
(17.696 0 0)
(17.727 0 0)
(17.758 0 0)
(17.7891 0 0)
(17.8201 0 0)
(17.8511 0 0)
(17.8822 0 0)
(17.9132 0 0)
(17.9442 0 0)
(17.9753 0 0)
(18.0063 0 0)
(18.0373 0 0)
(18.0684 0 0)
(18.0994 0 0)
(18.1305 0 0)
(18.1615 0 0)
(18.1925 0 0)
(18.2236 0 0)
(18.2546 0 0)
(18.2856 0 0)
(18.3167 0 0)
(18.3477 0 0)
(18.3787 0 0)
(18.4098 0 0)
(18.4408 0 0)
(18.4719 0 0)
(18.5029 0 0)
(18.5339 0 0)
(18.565 0 0)
(18.596 0 0)
(18.627 0 0)
(18.6581 0 0)
(18.6891 0 0)
(18.7202 0 0)
(18.7512 0 0)
(18.7822 0 0)
(18.8133 0 0)
(18.8443 0 0)
(18.8754 0 0)
(18.9064 0 0)
(18.9374 0 0)
(18.9685 0 0)
(18.9995 0 0)
(19.0306 0 0)
(19.0616 0 0)
(19.0926 0 0)
(19.1237 0 0)
(19.1547 0 0)
(19.1858 0 0)
(19.2168 0 0)
(19.2478 0 0)
(19.2789 0 0)
(19.3099 0 0)
(19.341 0 0)
(19.372 0 0)
(19.403 0 0)
(19.4341 0 0)
(19.4651 0 0)
(19.4962 0 0)
(19.5272 0 0)
(19.5583 0 0)
(19.5893 0 0)
(19.6203 0 0)
(19.6514 0 0)
(19.6824 0 0)
(19.7135 0 0)
(19.7445 0 0)
(19.7755 0 0)
(19.8066 0 0)
(19.8376 0 0)
(19.8687 0 0)
(19.8997 0 0)
(19.9308 0 0)
(19.9618 0 0)
(19.9928 0 0)
(20.0239 0 0)
(20.0549 0 0)
(20.086 0 0)
(20.117 0 0)
(20.1481 0 0)
(20.1791 0 0)
(20.2102 0 0)
(20.2412 0 0)
(20.2722 0 0)
(20.3033 0 0)
(20.3343 0 0)
(20.3654 0 0)
(20.3964 0 0)
(20.4275 0 0)
(20.4585 0 0)
(20.4896 0 0)
(20.5206 0 0)
(20.5516 0 0)
(20.5827 0 0)
(20.6137 0 0)
(20.6448 0 0)
(20.6758 0 0)
(20.7069 0 0)
(20.7379 0 0)
(20.769 0 0)
(20.8 0 0)
(20.8311 0 0)
(20.8621 0 0)
(20.8932 0 0)
(20.9242 0 0)
(20.9553 0 0)
(20.9863 0 0)
(21.0173 0 0)
(21.0484 0 0)
(21.0794 0 0)
(21.1105 0 0)
(21.1415 0 0)
(21.1726 0 0)
(21.2036 0 0)
(21.2347 0 0)
(21.2657 0 0)
(21.2968 0 0)
(21.3278 0 0)
(21.3589 0 0)
(21.3899 0 0)
(21.421 0 0)
(21.452 0 0)
(21.4831 0 0)
(21.5141 0 0)
(21.5452 0 0)
(21.5762 0 0)
(21.6073 0 0)
(21.6383 0 0)
(21.6694 0 0)
(21.7004 0 0)
(21.7315 0 0)
(21.7625 0 0)
(21.7936 0 0)
(21.8246 0 0)
(21.8557 0 0)
(21.8867 0 0)
(21.9178 0 0)
(21.9488 0 0)
(21.9799 0 0)
(22.0109 0 0)
(22.042 0 0)
(22.073 0 0)
(22.1041 0 0)
(22.1351 0 0)
(22.1662 0 0)
(22.1972 0 0)
(22.2283 0 0)
(22.2593 0 0)
(22.2904 0 0)
(22.3214 0 0)
(22.3525 0 0)
(22.3835 0 0)
(22.4146 0 0)
(22.4456 0 0)
(22.4767 0 0)
(22.5077 0 0)
(22.5388 0 0)
(22.5698 0 0)
(22.6009 0 0)
(22.632 0 0)
(22.663 0 0)
(22.6941 0 0)
(22.7251 0 0)
(22.7562 0 0)
(22.7872 0 0)
(22.8183 0 0)
(22.8493 0 0)
(22.8804 0 0)
(22.9114 0 0)
(22.9425 0 0)
(22.9735 0 0)
(23.0046 0 0)
(23.0357 0 0)
(23.0667 0 0)
(23.0978 0 0)
(23.1288 0 0)
(23.1599 0 0)
(23.1909 0 0)
(23.222 0 0)
(23.253 0 0)
(23.2841 0 0)
(23.3151 0 0)
(23.3462 0 0)
(23.3773 0 0)
(23.4083 0 0)
(23.4394 0 0)
(23.4704 0 0)
(23.5015 0 0)
(23.5325 0 0)
(23.5636 0 0)
(23.5946 0 0)
(23.6257 0 0)
(23.6568 0 0)
(23.6878 0 0)
(23.7189 0 0)
(23.7499 0 0)
(23.781 0 0)
(23.812 0 0)
(23.8431 0 0)
(23.8742 0 0)
(23.9052 0 0)
(23.9363 0 0)
(23.9673 0 0)
(23.9984 0 0)
(24.0294 0 0)
(24.0605 0 0)
(24.0916 0 0)
(24.1226 0 0)
(24.1537 0 0)
(24.1847 0 0)
(24.2158 0 0)
(24.2468 0 0)
(24.2779 0 0)
(24.309 0 0)
(24.34 0 0)
(24.3711 0 0)
(24.4021 0 0)
(24.4332 0 0)
(24.4643 0 0)
(24.4953 0 0)
(24.5264 0 0)
(24.5574 0 0)
(24.5885 0 0)
(24.6196 0 0)
(24.6506 0 0)
(24.6817 0 0)
(24.7127 0 0)
(24.7438 0 0)
(24.7749 0 0)
(24.8059 0 0)
(24.837 0 0)
(24.868 0 0)
(24.8991 0 0)
(24.9302 0 0)
(24.9612 0 0)
(24.9923 0 0)
(25.0233 0 0)
(25.0544 0 0)
(25.0855 0 0)
(25.1165 0 0)
(25.1476 0 0)
(25.1786 0 0)
(25.2097 0 0)
(25.2408 0 0)
(25.2718 0 0)
(25.3029 0 0)
(25.334 0 0)
(25.365 0 0)
(25.3961 0 0)
(25.4271 0 0)
(25.4582 0 0)
(25.4893 0 0)
(25.5203 0 0)
(25.5514 0 0)
(25.5824 0 0)
(25.6135 0 0)
(25.6446 0 0)
(25.6756 0 0)
(25.7067 0 0)
(25.7378 0 0)
(25.7688 0 0)
(25.7999 0 0)
(25.8309 0 0)
(25.862 0 0)
(25.8931 0 0)
(25.9241 0 0)
(25.9552 0 0)
(25.9863 0 0)
(26.0173 0 0)
(26.0484 0 0)
(26.0795 0 0)
(26.1105 0 0)
(26.1416 0 0)
(26.1727 0 0)
(26.2037 0 0)
(26.2348 0 0)
(26.2658 0 0)
(26.2969 0 0)
(26.328 0 0)
(26.359 0 0)
(26.3901 0 0)
(26.4212 0 0)
(26.4522 0 0)
(26.4833 0 0)
(26.5144 0 0)
(26.5454 0 0)
(26.5765 0 0)
(26.6076 0 0)
(26.6386 0 0)
(26.6697 0 0)
(26.7008 0 0)
(26.7318 0 0)
(26.7629 0 0)
(26.794 0 0)
(26.825 0 0)
(26.8561 0 0)
(26.8872 0 0)
(26.9182 0 0)
(26.9493 0 0)
(26.9804 0 0)
(27.0114 0 0)
(27.0425 0 0)
(27.0736 0 0)
(27.1046 0 0)
(27.1357 0 0)
(27.1668 0 0)
(27.1978 0 0)
(27.2289 0 0)
(27.26 0 0)
(27.291 0 0)
(27.3221 0 0)
(27.3532 0 0)
(27.3842 0 0)
(27.4153 0 0)
(27.4464 0 0)
(27.4774 0 0)
(27.5085 0 0)
(27.5396 0 0)
(27.5706 0 0)
(27.6017 0 0)
(27.6328 0 0)
(27.6638 0 0)
(27.6949 0 0)
(27.726 0 0)
(27.757 0 0)
(27.7881 0 0)
(27.8192 0 0)
(27.8502 0 0)
(27.8813 0 0)
(27.9124 0 0)
(27.9435 0 0)
(27.9745 0 0)
(28.0056 0 0)
(28.0367 0 0)
(28.0677 0 0)
(28.0988 0 0)
(28.1299 0 0)
(28.1609 0 0)
(28.192 0 0)
(28.2231 0 0)
(28.2542 0 0)
(28.2852 0 0)
(28.3163 0 0)
(28.3474 0 0)
(28.3784 0 0)
(28.4095 0 0)
(28.4406 0 0)
(28.4716 0 0)
(28.5027 0 0)
(28.5338 0 0)
(28.5649 0 0)
(28.5959 0 0)
(28.627 0 0)
(28.6581 0 0)
(28.6891 0 0)
(28.7202 0 0)
(28.7513 0 0)
(28.7824 0 0)
(28.8134 0 0)
(28.8445 0 0)
(28.8756 0 0)
(28.9066 0 0)
(28.9377 0 0)
(28.9688 0 0)
(28.9999 0 0)
(29.0309 0 0)
(29.062 0 0)
(29.0931 0 0)
(29.1241 0 0)
(29.1552 0 0)
(29.1863 0 0)
(29.2174 0 0)
(29.2484 0 0)
(29.2795 0 0)
(29.3106 0 0)
(29.3416 0 0)
(29.3727 0 0)
(29.4038 0 0)
(29.4349 0 0)
(29.4659 0 0)
(29.497 0 0)
(29.5281 0 0)
(29.5592 0 0)
(29.5902 0 0)
(29.6213 0 0)
(29.6524 0 0)
(29.6835 0 0)
(29.7145 0 0)
(29.7456 0 0)
(29.7767 0 0)
(29.8077 0 0)
(29.8388 0 0)
(29.8699 0 0)
(29.901 0 0)
(29.932 0 0)
(29.9631 0 0)
(29.9942 0 0)
(30.0253 0 0)
(30.0563 0 0)
(30.0874 0 0)
(30.1185 0 0)
(30.1496 0 0)
(30.1806 0 0)
(30.2117 0 0)
(30.2428 0 0)
(30.2739 0 0)
(30.3049 0 0)
(30.336 0 0)
(30.3671 0 0)
(30.3982 0 0)
(30.4292 0 0)
(30.4603 0 0)
(30.4914 0 0)
(30.5225 0 0)
(30.5535 0 0)
(30.5846 0 0)
(30.6157 0 0)
(30.6468 0 0)
(30.6778 0 0)
(30.7089 0 0)
(30.74 0 0)
(30.7711 0 0)
(30.8021 0 0)
(30.8332 0 0)
(30.8643 0 0)
(30.8954 0 0)
(30.9264 0 0)
(30.9575 0 0)
(30.9886 0 0)
(31.0197 0 0)
(31.0508 0 0)
(31.0818 0 0)
(31.1129 0 0)
(31.144 0 0)
(31.1751 0 0)
(31.2061 0 0)
(31.2372 0 0)
(31.2683 0 0)
(31.2994 0 0)
(31.3304 0 0)
(31.3615 0 0)
(31.3926 0 0)
(31.4237 0 0)
(31.4548 0 0)
(31.4858 0 0)
(31.5169 0 0)
(31.548 0 0)
(31.5791 0 0)
(31.6101 0 0)
(31.6412 0 0)
(31.6723 0 0)
(31.7034 0 0)
(31.7344 0 0)
(31.7655 0 0)
(31.7966 0 0)
(31.8277 0 0)
(31.8588 0 0)
(31.8898 0 0)
(31.9209 0 0)
(31.952 0 0)
(31.9831 0 0)
(32.0142 0 0)
(32.0452 0 0)
(32.0763 0 0)
(32.1074 0 0)
(32.1385 0 0)
(32.1695 0 0)
(32.2006 0 0)
(32.2317 0 0)
(32.2628 0 0)
(32.2939 0 0)
(32.3249 0 0)
(32.356 0 0)
(32.3871 0 0)
(32.4182 0 0)
(32.4493 0 0)
(32.4803 0 0)
(32.5114 0 0)
(32.5425 0 0)
(32.5736 0 0)
(32.6047 0 0)
(32.6357 0 0)
(32.6668 0 0)
(32.6979 0 0)
(32.729 0 0)
(32.76 0 0)
(32.7911 0 0)
(32.8222 0 0)
(32.8533 0 0)
(32.8844 0 0)
(32.9154 0 0)
(32.9465 0 0)
(32.9776 0 0)
(33.0087 0 0)
(33.0398 0 0)
(33.0708 0 0)
(33.1019 0 0)
(33.133 0 0)
(33.1641 0 0)
(33.1952 0 0)
(33.2262 0 0)
(33.2573 0 0)
(33.2884 0 0)
(33.3195 0 0)
(33.3506 0 0)
(33.3817 0 0)
(33.4127 0 0)
(33.4438 0 0)
(33.4749 0 0)
(33.506 0 0)
(33.5371 0 0)
(33.5681 0 0)
(33.5992 0 0)
(33.6303 0 0)
(33.6614 0 0)
(33.6925 0 0)
(33.7235 0 0)
(33.7546 0 0)
(33.7857 0 0)
(33.8168 0 0)
(33.8479 0 0)
(33.8789 0 0)
(33.91 0 0)
(33.9411 0 0)
(33.9722 0 0)
(34.0033 0 0)
(34.0344 0 0)
(34.0654 0 0)
(34.0965 0 0)
(34.1276 0 0)
(34.1587 0 0)
(34.1898 0 0)
(34.2208 0 0)
(34.2519 0 0)
(34.283 0 0)
(34.3141 0 0)
(34.3452 0 0)
(34.3763 0 0)
(34.4073 0 0)
(34.4384 0 0)
(34.4695 0 0)
(34.5006 0 0)
(34.5317 0 0)
(34.5627 0 0)
(34.5938 0 0)
(34.6249 0 0)
(34.656 0 0)
(34.6871 0 0)
(34.7182 0 0)
(34.7492 0 0)
(34.7803 0 0)
(34.8114 0 0)
(34.8425 0 0)
(34.8736 0 0)
(34.9047 0 0)
(34.9357 0 0)
(34.9668 0 0)
(34.9979 0 0)
(35.029 0 0)
(35.0601 0 0)
(35.0911 0 0)
(35.1222 0 0)
(35.1533 0 0)
(35.1844 0 0)
(35.2155 0 0)
(35.2466 0 0)
(35.2776 0 0)
(35.3087 0 0)
(35.3398 0 0)
(35.3709 0 0)
(35.402 0 0)
(35.4331 0 0)
(35.4641 0 0)
(35.4952 0 0)
(35.5263 0 0)
(35.5574 0 0)
(35.5885 0 0)
(35.6196 0 0)
(35.6506 0 0)
(35.6817 0 0)
(35.7128 0 0)
(35.7439 0 0)
(35.775 0 0)
(35.8061 0 0)
(35.8371 0 0)
(35.8682 0 0)
(35.8993 0 0)
(35.9304 0 0)
(35.9615 0 0)
(35.9926 0 0)
(36.0236 0 0)
(36.0547 0 0)
(36.0858 0 0)
(36.1169 0 0)
(36.148 0 0)
(36.1791 0 0)
(36.2102 0 0)
(36.2412 0 0)
(36.2723 0 0)
(36.3034 0 0)
(36.3345 0 0)
(36.3656 0 0)
(36.3967 0 0)
(36.4277 0 0)
(36.4588 0 0)
(36.4899 0 0)
(36.521 0 0)
(36.5521 0 0)
(36.5832 0 0)
(36.6142 0 0)
(36.6453 0 0)
(36.6764 0 0)
(36.7075 0 0)
(36.7386 0 0)
(36.7697 0 0)
(36.8007 0 0)
(36.8318 0 0)
(36.8629 0 0)
(36.894 0 0)
(36.9251 0 0)
(36.9562 0 0)
(36.9873 0 0)
(37.0183 0 0)
(37.0494 0 0)
(37.0805 0 0)
(37.1116 0 0)
(37.1427 0 0)
(37.1738 0 0)
(37.2048 0 0)
(37.2359 0 0)
(37.267 0 0)
(37.2981 0 0)
(37.3292 0 0)
(37.3603 0 0)
(37.3914 0 0)
(37.4224 0 0)
(37.4535 0 0)
(37.4846 0 0)
(37.5157 0 0)
(37.5468 0 0)
(37.5779 0 0)
(37.6089 0 0)
(37.64 0 0)
(37.6711 0 0)
(37.7022 0 0)
(37.7333 0 0)
(37.7644 0 0)
(37.7955 0 0)
(37.8265 0 0)
(37.8576 0 0)
(37.8887 0 0)
(37.9198 0 0)
(37.9509 0 0)
(37.982 0 0)
(38.013 0 0)
(38.0441 0 0)
(38.0752 0 0)
(38.1063 0 0)
(38.1374 0 0)
(38.1685 0 0)
(38.1996 0 0)
(38.2306 0 0)
(38.2617 0 0)
(38.2928 0 0)
(38.3239 0 0)
(38.355 0 0)
(38.3861 0 0)
(38.4171 0 0)
(38.4482 0 0)
(38.4793 0 0)
(38.5104 0 0)
(38.5415 0 0)
(38.5726 0 0)
(38.6037 0 0)
(38.6347 0 0)
(38.6658 0 0)
(38.6969 0 0)
(38.728 0 0)
(38.7591 0 0)
(38.7902 0 0)
(38.8212 0 0)
(38.8523 0 0)
(38.8834 0 0)
(38.9145 0 0)
(38.9456 0 0)
(38.9767 0 0)
(39.0078 0 0)
(39.0388 0 0)
(39.0699 0 0)
(39.101 0 0)
(39.1321 0 0)
(39.1632 0 0)
(39.1943 0 0)
(39.2253 0 0)
(39.2564 0 0)
(39.2875 0 0)
(39.3186 0 0)
(39.3497 0 0)
(39.3808 0 0)
(39.4119 0 0)
(39.4429 0 0)
(39.474 0 0)
(39.5051 0 0)
(39.5362 0 0)
(39.5673 0 0)
(39.5984 0 0)
(39.6294 0 0)
(39.6605 0 0)
(39.6916 0 0)
(39.7227 0 0)
(39.7538 0 0)
(39.7849 0 0)
(39.8159 0 0)
(39.847 0 0)
(39.8781 0 0)
(39.9092 0 0)
(39.9403 0 0)
(39.9714 0 0)
(40.0025 0 0)
(40.0335 0 0)
(40.0646 0 0)
(40.0957 0 0)
(40.1268 0 0)
(40.1579 0 0)
(40.189 0 0)
(40.22 0 0)
(40.2511 0 0)
(40.2822 0 0)
(40.3133 0 0)
(40.3444 0 0)
(40.3755 0 0)
(40.4065 0 0)
(40.4376 0 0)
(40.4687 0 0)
(40.4998 0 0)
(40.5309 0 0)
(40.562 0 0)
(40.5931 0 0)
(40.6241 0 0)
(40.6552 0 0)
(40.6863 0 0)
(40.7174 0 0)
(40.7485 0 0)
(40.7796 0 0)
(40.8106 0 0)
(40.8417 0 0)
(40.8728 0 0)
(40.9039 0 0)
(40.935 0 0)
(40.9661 0 0)
(40.9971 0 0)
(41.0282 0 0)
(41.0593 0 0)
(41.0904 0 0)
(41.1215 0 0)
(41.1526 0 0)
(41.1836 0 0)
(41.2147 0 0)
(41.2458 0 0)
(41.2769 0 0)
(41.308 0 0)
(41.3391 0 0)
(41.3701 0 0)
(41.4012 0 0)
(41.4323 0 0)
(41.4634 0 0)
(41.4945 0 0)
(41.5255 0 0)
(41.5566 0 0)
(41.5877 0 0)
(41.6188 0 0)
(41.6499 0 0)
(41.681 0 0)
(41.712 0 0)
(41.7431 0 0)
(41.7742 0 0)
(41.8053 0 0)
(41.8364 0 0)
(41.8675 0 0)
(41.8985 0 0)
(41.9296 0 0)
(41.9607 0 0)
(41.9918 0 0)
(42.0229 0 0)
(42.054 0 0)
(42.085 0 0)
(42.1161 0 0)
(42.1472 0 0)
(42.1783 0 0)
(42.2094 0 0)
(42.2404 0 0)
(42.2715 0 0)
(42.3026 0 0)
(42.3337 0 0)
(42.3648 0 0)
(42.3958 0 0)
(42.4269 0 0)
(42.458 0 0)
(42.4891 0 0)
(42.5202 0 0)
(42.5513 0 0)
(42.5823 0 0)
(42.6134 0 0)
(42.6445 0 0)
(42.6756 0 0)
(42.7067 0 0)
(42.7377 0 0)
(42.7688 0 0)
(42.7999 0 0)
(42.831 0 0)
(42.8621 0 0)
(42.8931 0 0)
(42.9242 0 0)
(42.9553 0 0)
(42.9864 0 0)
(43.0175 0 0)
(43.0485 0 0)
(43.0796 0 0)
(43.1107 0 0)
(43.1418 0 0)
(43.1729 0 0)
(43.2039 0 0)
(43.235 0 0)
(43.2661 0 0)
(43.2972 0 0)
(43.3283 0 0)
(43.3593 0 0)
(43.3904 0 0)
(43.4215 0 0)
(43.4526 0 0)
(43.4837 0 0)
(43.5147 0 0)
(43.5458 0 0)
(43.5769 0 0)
(43.608 0 0)
(43.6391 0 0)
(43.6701 0 0)
(43.7012 0 0)
(43.7323 0 0)
(43.7634 0 0)
(43.7945 0 0)
(43.8255 0 0)
(43.8566 0 0)
(43.8877 0 0)
(43.9188 0 0)
(43.9498 0 0)
(43.9809 0 0)
(44.012 0 0)
(44.0431 0 0)
(44.0742 0 0)
(44.1052 0 0)
(44.1363 0 0)
(44.1674 0 0)
(44.1985 0 0)
(44.2295 0 0)
(44.2606 0 0)
(44.2917 0 0)
(44.3228 0 0)
(44.3539 0 0)
(44.3849 0 0)
(44.416 0 0)
(44.4471 0 0)
(44.4782 0 0)
(44.5092 0 0)
(44.5403 0 0)
(44.5714 0 0)
(44.6025 0 0)
(44.6335 0 0)
(44.6646 0 0)
(44.6957 0 0)
(44.7268 0 0)
(44.7578 0 0)
(44.7889 0 0)
(44.82 0 0)
(44.8511 0 0)
(44.8821 0 0)
(44.9132 0 0)
(44.9443 0 0)
(44.9754 0 0)
(45.0064 0 0)
(45.0375 0 0)
(45.0686 0 0)
(45.0997 0 0)
(45.1307 0 0)
(45.1618 0 0)
(45.1929 0 0)
(45.224 0 0)
(45.255 0 0)
(45.2861 0 0)
(45.3172 0 0)
(45.3483 0 0)
(45.3793 0 0)
(45.4104 0 0)
(45.4415 0 0)
(45.4726 0 0)
(45.5036 0 0)
(45.5347 0 0)
(45.5658 0 0)
(45.5969 0 0)
(45.6279 0 0)
(45.659 0 0)
(45.6901 0 0)
(45.7211 0 0)
(45.7522 0 0)
(45.7833 0 0)
(45.8144 0 0)
(45.8454 0 0)
(45.8765 0 0)
(45.9076 0 0)
(45.9386 0 0)
(45.9697 0 0)
(46.0008 0 0)
(46.0319 0 0)
(46.0629 0 0)
(46.094 0 0)
(46.1251 0 0)
(46.1561 0 0)
(46.1872 0 0)
(46.2183 0 0)
(46.2494 0 0)
(46.2804 0 0)
(46.3115 0 0)
(46.3426 0 0)
(46.3736 0 0)
(46.4047 0 0)
(46.4358 0 0)
(46.4668 0 0)
(46.4979 0 0)
(46.529 0 0)
(46.5601 0 0)
(46.5911 0 0)
(46.6222 0 0)
(46.6533 0 0)
(46.6843 0 0)
(46.7154 0 0)
(46.7465 0 0)
(46.7775 0 0)
(46.8086 0 0)
(46.8397 0 0)
(46.8707 0 0)
(46.9018 0 0)
(46.9329 0 0)
(46.9639 0 0)
(46.995 0 0)
(47.0261 0 0)
(47.0571 0 0)
(47.0882 0 0)
(47.1193 0 0)
(47.1503 0 0)
(47.1814 0 0)
(47.2125 0 0)
(47.2435 0 0)
(47.2746 0 0)
(47.3057 0 0)
(47.3367 0 0)
(47.3678 0 0)
(47.3989 0 0)
(47.4299 0 0)
(47.461 0 0)
(47.4921 0 0)
(47.5231 0 0)
(47.5542 0 0)
(47.5853 0 0)
(47.6163 0 0)
(47.6474 0 0)
(47.6784 0 0)
(47.7095 0 0)
(47.7406 0 0)
(47.7716 0 0)
(47.8027 0 0)
(47.8338 0 0)
(47.8648 0 0)
(47.8959 0 0)
(47.9269 0 0)
(47.958 0 0)
(47.9891 0 0)
(48.0201 0 0)
(48.0512 0 0)
(48.0823 0 0)
(48.1133 0 0)
(48.1444 0 0)
(48.1754 0 0)
(48.2065 0 0)
(48.2376 0 0)
(48.2686 0 0)
(48.2997 0 0)
(48.3307 0 0)
(48.3618 0 0)
(48.3929 0 0)
(48.4239 0 0)
(48.455 0 0)
(48.486 0 0)
(48.5171 0 0)
(48.5482 0 0)
(48.5792 0 0)
(48.6103 0 0)
(48.6413 0 0)
(48.6724 0 0)
(48.7034 0 0)
(48.7345 0 0)
(48.7656 0 0)
(48.7966 0 0)
(48.8277 0 0)
(48.8587 0 0)
(48.8898 0 0)
(48.9208 0 0)
(48.9519 0 0)
(48.983 0 0)
(49.014 0 0)
(49.0451 0 0)
(49.0761 0 0)
(49.1072 0 0)
(49.1382 0 0)
(49.1693 0 0)
(49.2003 0 0)
(49.2314 0 0)
(49.2624 0 0)
(49.2935 0 0)
(49.3246 0 0)
(49.3556 0 0)
(49.3867 0 0)
(49.4177 0 0)
(49.4488 0 0)
(49.4798 0 0)
(49.5109 0 0)
(49.5419 0 0)
(49.573 0 0)
(49.604 0 0)
(49.6351 0 0)
(49.6661 0 0)
(49.6972 0 0)
(49.7282 0 0)
(49.7593 0 0)
(49.7903 0 0)
(49.8214 0 0)
(49.8524 0 0)
(49.8835 0 0)
(49.9145 0 0)
(49.9456 0 0)
(49.9766 0 0)
(50.0077 0 0)
(50.0387 0 0)
(50.0698 0 0)
(50.1008 0 0)
(50.1319 0 0)
(50.1629 0 0)
(50.194 0 0)
(50.225 0 0)
(50.2561 0 0)
(50.2871 0 0)
(50.3182 0 0)
(50.3492 0 0)
(50.3802 0 0)
(50.4113 0 0)
(50.4423 0 0)
(50.4734 0 0)
(50.5044 0 0)
(50.5355 0 0)
(50.5665 0 0)
(50.5976 0 0)
(50.6286 0 0)
(50.6596 0 0)
(50.6907 0 0)
(50.7217 0 0)
(50.7528 0 0)
(50.7838 0 0)
(50.8149 0 0)
(50.8459 0 0)
(50.8769 0 0)
(50.908 0 0)
(50.939 0 0)
(50.9701 0 0)
(51.0011 0 0)
(51.0321 0 0)
(51.0632 0 0)
(51.0942 0 0)
(51.1253 0 0)
(51.1563 0 0)
(51.1873 0 0)
(51.2184 0 0)
(51.2494 0 0)
(51.2805 0 0)
(51.3115 0 0)
(51.3425 0 0)
(51.3736 0 0)
(51.4046 0 0)
(51.4356 0 0)
(51.4667 0 0)
(51.4977 0 0)
(51.5287 0 0)
(51.5598 0 0)
(51.5908 0 0)
(51.6218 0 0)
(51.6529 0 0)
(51.6839 0 0)
(51.7149 0 0)
(51.746 0 0)
(51.777 0 0)
(51.808 0 0)
(51.8391 0 0)
(51.8701 0 0)
(51.9011 0 0)
(51.9322 0 0)
(51.9632 0 0)
(51.9942 0 0)
(52.0253 0 0)
(52.0563 0 0)
(52.0873 0 0)
(52.1184 0 0)
(52.1494 0 0)
(52.1804 0 0)
(52.2114 0 0)
(52.2425 0 0)
(52.2735 0 0)
(52.3045 0 0)
(52.3356 0 0)
(52.3666 0 0)
(52.3976 0 0)
(52.4286 0 0)
(52.4597 0 0)
(52.4907 0 0)
(52.5217 0 0)
(52.5527 0 0)
(52.5838 0 0)
(52.6148 0 0)
(52.6458 0 0)
(52.6768 0 0)
(52.7079 0 0)
(52.7389 0 0)
(52.7699 0 0)
(52.8009 0 0)
(52.8319 0 0)
(52.863 0 0)
(52.894 0 0)
(52.925 0 0)
(52.956 0 0)
(52.987 0 0)
(53.0181 0 0)
(53.0491 0 0)
(53.0801 0 0)
(53.1111 0 0)
(53.1421 0 0)
(53.1732 0 0)
(53.2042 0 0)
(53.2352 0 0)
(53.2662 0 0)
(53.2972 0 0)
(53.3282 0 0)
(53.3593 0 0)
(53.3903 0 0)
(53.4213 0 0)
(53.4523 0 0)
(53.4833 0 0)
(53.5143 0 0)
(53.5453 0 0)
(53.5763 0 0)
(53.6074 0 0)
(53.6384 0 0)
(53.6694 0 0)
(53.7004 0 0)
(53.7314 0 0)
(53.7624 0 0)
(53.7934 0 0)
(53.8244 0 0)
(53.8554 0 0)
(53.8865 0 0)
(53.9175 0 0)
(53.9485 0 0)
(53.9795 0 0)
(54.0105 0 0)
(54.0415 0 0)
(54.0725 0 0)
(54.1035 0 0)
(54.1345 0 0)
(54.1655 0 0)
(54.1965 0 0)
(54.2275 0 0)
(54.2585 0 0)
(54.2895 0 0)
(54.3205 0 0)
(54.3515 0 0)
(54.3825 0 0)
(54.4135 0 0)
(54.4445 0 0)
(54.4755 0 0)
(54.5065 0 0)
(54.5375 0 0)
(54.5685 0 0)
(54.5995 0 0)
(54.6305 0 0)
(54.6615 0 0)
(54.6925 0 0)
(54.7235 0 0)
(54.7545 0 0)
(54.7855 0 0)
(54.8165 0 0)
(54.8475 0 0)
(54.8785 0 0)
(54.9095 0 0)
(54.9405 0 0)
(54.9715 0 0)
(55.0025 0 0)
(55.0335 0 0)
(55.0644 0 0)
(55.0954 0 0)
(55.1264 0 0)
(55.1574 0 0)
(55.1884 0 0)
(55.2194 0 0)
(55.2504 0 0)
(55.2814 0 0)
(55.3124 0 0)
(55.3433 0 0)
(55.3743 0 0)
(55.4053 0 0)
(55.4363 0 0)
(55.4673 0 0)
(55.4983 0 0)
(55.5293 0 0)
(55.5602 0 0)
(55.5912 0 0)
(55.6222 0 0)
(55.6532 0 0)
(55.6842 0 0)
(55.7151 0 0)
(55.7461 0 0)
(55.7771 0 0)
(55.8081 0 0)
(55.8391 0 0)
(55.87 0 0)
(55.901 0 0)
(55.932 0 0)
(55.963 0 0)
(55.9939 0 0)
(56.0249 0 0)
(56.0559 0 0)
(56.0869 0 0)
(56.1178 0 0)
(56.1488 0 0)
(56.1798 0 0)
(56.2108 0 0)
(56.2417 0 0)
(56.2727 0 0)
(56.3037 0 0)
(56.3346 0 0)
(56.3656 0 0)
(56.3966 0 0)
(56.4275 0 0)
(56.4585 0 0)
(56.4895 0 0)
(56.5204 0 0)
(56.5514 0 0)
(56.5824 0 0)
(56.6133 0 0)
(56.6443 0 0)
(56.6753 0 0)
(56.7062 0 0)
(56.7372 0 0)
(56.7681 0 0)
(56.7991 0 0)
(56.8301 0 0)
(56.861 0 0)
(56.892 0 0)
(56.9229 0 0)
(56.9539 0 0)
(56.9849 0 0)
(57.0158 0 0)
(57.0468 0 0)
(57.0777 0 0)
(57.1087 0 0)
(57.1396 0 0)
(57.1706 0 0)
(57.2015 0 0)
(57.2325 0 0)
(57.2634 0 0)
(57.2944 0 0)
(57.3253 0 0)
(57.3563 0 0)
(57.3872 0 0)
(57.4182 0 0)
(57.4491 0 0)
(57.4801 0 0)
(57.511 0 0)
(57.542 0 0)
(57.5729 0 0)
(57.6038 0 0)
(57.6348 0 0)
(57.6657 0 0)
(57.6967 0 0)
(57.7276 0 0)
(57.7586 0 0)
(57.7895 0 0)
(57.8204 0 0)
(57.8514 0 0)
(57.8823 0 0)
(57.9132 0 0)
(57.9442 0 0)
(57.9751 0 0)
(58.006 0 0)
(58.037 0 0)
(58.0679 0 0)
(58.0988 0 0)
(58.1298 0 0)
(58.1607 0 0)
(58.1916 0 0)
(58.2226 0 0)
(58.2535 0 0)
(58.2844 0 0)
(58.3153 0 0)
(58.3463 0 0)
(58.3772 0 0)
(58.4081 0 0)
(58.439 0 0)
(58.47 0 0)
(58.5009 0 0)
(58.5318 0 0)
(58.5627 0 0)
(58.5936 0 0)
(58.6246 0 0)
(58.6555 0 0)
(58.6864 0 0)
(58.7173 0 0)
(58.7482 0 0)
(58.7791 0 0)
(58.8101 0 0)
(58.841 0 0)
(58.8719 0 0)
(58.9028 0 0)
(58.9337 0 0)
(58.9646 0 0)
(58.9955 0 0)
(59.0264 0 0)
(59.0573 0 0)
(59.0882 0 0)
(59.1191 0 0)
(59.15 0 0)
(59.1809 0 0)
(59.2119 0 0)
(59.2428 0 0)
(59.2737 0 0)
(59.3046 0 0)
(59.3355 0 0)
(59.3664 0 0)
(59.3972 0 0)
(59.4281 0 0)
(59.459 0 0)
(59.4899 0 0)
(59.5208 0 0)
(59.5517 0 0)
(59.5826 0 0)
(59.6135 0 0)
(59.6444 0 0)
(59.6753 0 0)
(59.7062 0 0)
(59.7371 0 0)
(59.7679 0 0)
(59.7988 0 0)
(59.8297 0 0)
(59.8606 0 0)
(59.8915 0 0)
(59.9224 0 0)
(59.9532 0 0)
(59.9841 0 0)
(60.015 0 0)
(60.0459 0 0)
(60.0768 0 0)
(60.1076 0 0)
(60.1385 0 0)
(60.1694 0 0)
(60.2003 0 0)
(60.2311 0 0)
(60.262 0 0)
(60.2929 0 0)
(60.3237 0 0)
(60.3546 0 0)
(60.3855 0 0)
(60.4163 0 0)
(60.4472 0 0)
(60.4781 0 0)
(60.5089 0 0)
(60.5398 0 0)
(60.5706 0 0)
(60.6015 0 0)
(60.6324 0 0)
(60.6632 0 0)
(60.6941 0 0)
(60.7249 0 0)
(60.7558 0 0)
(60.7866 0 0)
(60.8175 0 0)
(60.8483 0 0)
(60.8792 0 0)
(60.91 0 0)
(60.9409 0 0)
(60.9717 0 0)
(61.0026 0 0)
(61.0334 0 0)
(61.0643 0 0)
(61.0951 0 0)
(61.1259 0 0)
(61.1568 0 0)
(61.1876 0 0)
(61.2185 0 0)
(61.2493 0 0)
(61.2801 0 0)
(61.311 0 0)
(61.3418 0 0)
(61.3726 0 0)
(61.4035 0 0)
(61.4343 0 0)
(61.4651 0 0)
(61.4959 0 0)
(61.5268 0 0)
(61.5576 0 0)
(61.5884 0 0)
(61.6192 0 0)
(61.6501 0 0)
(61.6809 0 0)
(61.7117 0 0)
(61.7425 0 0)
(61.7733 0 0)
(61.8041 0 0)
(61.835 0 0)
(61.8658 0 0)
(61.8966 0 0)
(61.9274 0 0)
(61.9582 0 0)
(61.989 0 0)
(62.0198 0 0)
(62.0506 0 0)
(62.0814 0 0)
(62.1122 0 0)
(62.143 0 0)
(62.1738 0 0)
(62.2046 0 0)
(62.2354 0 0)
(62.2662 0 0)
(62.297 0 0)
(62.3278 0 0)
(62.3586 0 0)
(62.3894 0 0)
(62.4201 0 0)
(62.4509 0 0)
(62.4817 0 0)
(62.5125 0 0)
(62.5433 0 0)
(62.5741 0 0)
(62.6048 0 0)
(62.6356 0 0)
(62.6664 0 0)
(62.6972 0 0)
(62.7279 0 0)
(62.7587 0 0)
(62.7895 0 0)
(62.8203 0 0)
(62.851 0 0)
(62.8818 0 0)
(62.9126 0 0)
(62.9433 0 0)
(62.9741 0 0)
(63.0048 0 0)
(63.0356 0 0)
(63.0664 0 0)
(63.0971 0 0)
(63.1279 0 0)
(63.1586 0 0)
(63.1894 0 0)
(63.2201 0 0)
(63.2509 0 0)
(63.2816 0 0)
(63.3124 0 0)
(63.3431 0 0)
(63.3738 0 0)
(63.4046 0 0)
(63.4353 0 0)
(63.4661 0 0)
(63.4968 0 0)
(63.5275 0 0)
(63.5583 0 0)
(63.589 0 0)
(63.6197 0 0)
(63.6504 0 0)
(63.6812 0 0)
(63.7119 0 0)
(63.7426 0 0)
(63.7733 0 0)
(63.8041 0 0)
(63.8348 0 0)
(63.8655 0 0)
(63.8962 0 0)
(63.9269 0 0)
(63.9576 0 0)
(63.9883 0 0)
(64.019 0 0)
(64.0497 0 0)
(64.0804 0 0)
(64.1111 0 0)
(64.1418 0 0)
(64.1725 0 0)
(64.2032 0 0)
(64.2339 0 0)
(64.2646 0 0)
(64.2953 0 0)
(64.326 0 0)
(64.3567 0 0)
(64.3874 0 0)
(64.4181 0 0)
(64.4487 0 0)
(64.4794 0 0)
(64.5101 0 0)
(64.5408 0 0)
(64.5714 0 0)
(64.6021 0 0)
(64.6328 0 0)
(64.6635 0 0)
(64.6941 0 0)
(64.7248 0 0)
(64.7554 0 0)
(64.7861 0 0)
(64.8168 0 0)
(64.8474 0 0)
(64.8781 0 0)
(64.9087 0 0)
(64.9394 0 0)
(64.97 0 0)
(65.0007 0 0)
(65.0313 0 0)
(65.062 0 0)
(65.0926 0 0)
(65.1232 0 0)
(65.1539 0 0)
(65.1845 0 0)
(65.2151 0 0)
(65.2458 0 0)
(65.2764 0 0)
(65.307 0 0)
(65.3376 0 0)
(65.3683 0 0)
(65.3989 0 0)
(65.4295 0 0)
(65.4601 0 0)
(65.4907 0 0)
(65.5213 0 0)
(65.5519 0 0)
(65.5825 0 0)
(65.6131 0 0)
(65.6437 0 0)
(65.6743 0 0)
(65.7049 0 0)
(65.7355 0 0)
(65.7661 0 0)
(65.7967 0 0)
(65.8273 0 0)
(65.8579 0 0)
(65.8885 0 0)
(65.919 0 0)
(65.9496 0 0)
(65.9802 0 0)
(66.0108 0 0)
(66.0413 0 0)
(66.0719 0 0)
(66.1025 0 0)
(66.133 0 0)
(66.1636 0 0)
(66.1941 0 0)
(66.2247 0 0)
(66.2552 0 0)
(66.2858 0 0)
(66.3163 0 0)
(66.3469 0 0)
(66.3774 0 0)
(66.408 0 0)
(66.4385 0 0)
(66.469 0 0)
(66.4996 0 0)
(66.5301 0 0)
(66.5606 0 0)
(66.5912 0 0)
(66.6217 0 0)
(66.6522 0 0)
(66.6827 0 0)
(66.7132 0 0)
(66.7437 0 0)
(66.7742 0 0)
(66.8047 0 0)
(66.8353 0 0)
(66.8658 0 0)
(66.8962 0 0)
(66.9267 0 0)
(66.9572 0 0)
(66.9877 0 0)
(67.0182 0 0)
(67.0487 0 0)
(67.0792 0 0)
(67.1096 0 0)
(67.1401 0 0)
(67.1706 0 0)
(67.2011 0 0)
(67.2315 0 0)
(67.262 0 0)
(67.2924 0 0)
(67.3229 0 0)
(67.3534 0 0)
(67.3838 0 0)
(67.4143 0 0)
(67.4447 0 0)
(67.4751 0 0)
(67.5056 0 0)
(67.536 0 0)
(67.5664 0 0)
(67.5969 0 0)
(67.6273 0 0)
(67.6577 0 0)
(67.6881 0 0)
(67.7186 0 0)
(67.749 0 0)
(67.7794 0 0)
(67.8098 0 0)
(67.8402 0 0)
(67.8706 0 0)
(67.901 0 0)
(67.9314 0 0)
(67.9618 0 0)
(67.9922 0 0)
(68.0225 0 0)
(68.0529 0 0)
(68.0833 0 0)
(68.1137 0 0)
(68.144 0 0)
(68.1744 0 0)
(68.2048 0 0)
(68.2351 0 0)
(68.2655 0 0)
(68.2958 0 0)
(68.3262 0 0)
(68.3565 0 0)
(68.3869 0 0)
(68.4172 0 0)
(68.4475 0 0)
(68.4779 0 0)
(68.5082 0 0)
(68.5385 0 0)
(68.5688 0 0)
(68.5992 0 0)
(68.6295 0 0)
(68.6598 0 0)
(68.6901 0 0)
(68.7204 0 0)
(68.7507 0 0)
(68.781 0 0)
(68.8113 0 0)
(68.8415 0 0)
(68.8718 0 0)
(68.9021 0 0)
(68.9324 0 0)
(68.9626 0 0)
(68.9929 0 0)
(69.0232 0 0)
(69.0534 0 0)
(69.0837 0 0)
(69.1139 0 0)
(69.1442 0 0)
(69.1744 0 0)
(69.2047 0 0)
(69.2349 0 0)
(69.2651 0 0)
(69.2953 0 0)
(69.3256 0 0)
(69.3558 0 0)
(69.386 0 0)
(69.4162 0 0)
(69.4464 0 0)
(69.4766 0 0)
(69.5068 0 0)
(69.537 0 0)
(69.5672 0 0)
(69.5974 0 0)
(69.6275 0 0)
(69.6577 0 0)
(69.6879 0 0)
(69.718 0 0)
(69.7482 0 0)
(69.7783 0 0)
(69.8085 0 0)
(69.8386 0 0)
(69.8688 0 0)
(69.8989 0 0)
(69.929 0 0)
(69.9592 0 0)
(69.9893 0 0)
(70.0194 0 0)
(70.0495 0 0)
(70.0796 0 0)
(70.1097 0 0)
(70.1398 0 0)
(70.1699 0 0)
(70.2 0 0)
(70.2301 0 0)
(70.2601 0 0)
(70.2902 0 0)
(70.3203 0 0)
(70.3503 0 0)
(70.3804 0 0)
(70.4105 0 0)
(70.4405 0 0)
(70.4705 0 0)
(70.5006 0 0)
(70.5306 0 0)
(70.5606 0 0)
(70.5906 0 0)
(70.6207 0 0)
(70.6507 0 0)
(70.6807 0 0)
(70.7107 0 0)
(70.7407 0 0)
(70.7706 0 0)
(70.8006 0 0)
(70.8306 0 0)
(70.8606 0 0)
(70.8905 0 0)
(70.9205 0 0)
(70.9504 0 0)
(70.9804 0 0)
(71.0103 0 0)
(71.0403 0 0)
(71.0702 0 0)
(71.1001 0 0)
(71.13 0 0)
(71.1599 0 0)
(71.1898 0 0)
(71.2197 0 0)
(71.2496 0 0)
(71.2795 0 0)
(71.3094 0 0)
(71.3393 0 0)
(71.3692 0 0)
(71.399 0 0)
(71.4289 0 0)
(71.4587 0 0)
(71.4886 0 0)
(71.5184 0 0)
(71.5482 0 0)
(71.578 0 0)
(71.6079 0 0)
(71.6377 0 0)
(71.6675 0 0)
(71.6973 0 0)
(71.7271 0 0)
(71.7569 0 0)
(71.7866 0 0)
(71.8164 0 0)
(71.8462 0 0)
(71.8759 0 0)
(71.9057 0 0)
(71.9354 0 0)
(71.9651 0 0)
(71.9949 0 0)
(72.0246 0 0)
(72.0543 0 0)
(72.084 0 0)
(72.1137 0 0)
(72.1434 0 0)
(72.1731 0 0)
(72.2028 0 0)
(72.2324 0 0)
(72.2621 0 0)
(72.2918 0 0)
(72.3214 0 0)
(72.351 0 0)
(72.3807 0 0)
(72.4103 0 0)
(72.4399 0 0)
(72.4695 0 0)
(72.4991 0 0)
(72.5287 0 0)
(72.5583 0 0)
(72.5879 0 0)
(72.6175 0 0)
(72.647 0 0)
(72.6766 0 0)
(72.7061 0 0)
(72.7357 0 0)