/*--------------------------------*- C++ -*----------------------------------*\
  =========                 |
  \\      /  F ield         | OpenFOAM: The Open Source CFD Toolbox
   \\    /   O peration     | Website:  https://openfoam.org
    \\  /    A nd           | Version:  9
     \\/     M anipulation  |
\*---------------------------------------------------------------------------*/
FoamFile
{
    format      ascii;
    class       volScalarField;
    location    "0.047";
    object      mag(U);
}
// * * * * * * * * * * * * * * * * * * * * * * * * * * * * * * * * * * * * * //

dimensions      [0 1 -1 0 0 0 0];

internalField   nonuniform List<scalar> 
10000
(
230.485
230.513
230.529
230.547
230.564
230.582
230.6
230.617
230.635
230.652
230.67
230.687
230.705
230.723
230.74
230.758
230.775
230.793
230.81
230.828
230.845
230.863
230.881
230.898
230.916
230.933
230.951
230.968
230.986
231.003
231.021
231.038
231.056
231.074
231.091
231.109
231.126
231.144
231.161
231.179
231.197
231.214
231.232
231.249
231.267
231.285
231.302
231.32
231.337
231.355
231.372
231.39
231.407
231.425
231.443
231.46
231.478
231.495
231.513
231.53
231.548
231.565
231.583
231.6
231.618
231.635
231.653
231.671
231.688
231.706
231.723
231.741
231.758
231.776
231.794
231.811
231.829
231.846
231.864
231.881
231.899
231.916
231.934
231.951
231.969
231.986
232.004
232.022
232.039
232.057
232.074
232.092
232.109
232.127
232.145
232.162
232.18
232.197
232.215
232.232
232.25
232.267
232.285
232.302
232.32
232.337
232.355
232.372
232.39
232.407
232.425
232.443
232.46
232.478
232.495
232.512
232.53
232.547
232.565
232.583
232.601
232.619
232.635
232.652
232.67
232.688
232.707
232.725
232.742
232.758
232.775
232.792
232.81
232.83
232.848
232.864
232.881
232.898
232.916
232.935
232.954
232.97
232.986
233.002
233.019
233.039
233.06
233.078
233.094
233.11
233.125
233.142
233.161
233.181
233.2
233.217
233.232
233.248
233.265
233.284
233.304
233.322
233.339
233.355
233.372
233.389
233.406
233.424
233.444
233.463
233.481
233.497
233.513
233.529
233.547
233.569
233.588
233.604
233.619
233.634
233.65
233.666
233.686
233.71
233.729
233.744
233.759
233.774
233.789
233.806
233.826
233.851
233.871
233.886
233.901
233.916
233.931
233.947
233.966
233.99
234.011
234.027
234.041
234.056
234.071
234.087
234.104
234.128
234.151
234.167
234.182
234.197
234.212
234.227
234.244
234.266
234.29
234.307
234.322
234.337
234.353
234.369
234.39
234.412
234.429
234.444
234.46
234.475
234.494
234.517
234.537
234.553
234.568
234.582
234.598
234.614
234.634
234.659
234.677
234.692
234.707
234.722
234.737
234.752
234.768
234.789
234.817
234.838
234.853
234.868
234.882
234.897
234.913
234.93
234.953
234.977
234.994
235.009
235.023
235.038
235.053
235.069
235.088
235.112
235.132
235.148
235.163
235.178
235.195
235.214
235.235
235.253
235.269
235.286
235.306
235.327
235.343
235.358
235.373
235.389
235.405
235.424
235.448
235.467
235.482
235.497
235.512
235.527
235.544
235.567
235.589
235.606
235.62
235.635
235.65
235.666
235.686
235.71
235.729
235.744
235.759
235.774
235.79
235.808
235.829
235.85
235.867
235.883
235.901
235.922
235.942
235.958
235.973
235.988
236.002
236.018
236.035
236.057
236.081
236.097
236.112
236.127
236.142
236.157
236.172
236.19
236.216
236.24
236.257
236.272
236.286
236.302
236.318
236.339
236.362
236.38
236.395
236.41
236.425
236.44
236.458
236.482
236.502
236.517
236.532
236.547
236.562
236.577
236.592
236.607
236.627
236.657
236.685
236.702
236.717
236.731
236.746
236.761
236.776
236.791
236.81
236.834
236.854
236.87
236.884
236.899
236.914
236.93
236.95
236.974
236.993
237.008
237.023
237.038
237.053
237.069
237.09
237.114
237.133
237.148
237.163
237.178
237.193
237.208
237.223
237.239
237.261
237.292
237.317
237.333
237.348
237.362
237.377
237.392
237.407
237.422
237.437
237.453
237.476
237.505
237.527
237.542
237.556
237.571
237.585
237.601
237.616
237.636
237.659
237.678
237.693
237.708
237.723
237.738
237.754
237.774
237.799
237.818
237.833
237.848
237.863
237.878
237.893
237.911
237.934
237.958
237.975
237.99
238.005
238.02
238.035
238.051
238.072
238.098
238.119
238.134
238.149
238.163
238.178
238.193
238.208
238.224
238.242
238.269
238.3
238.318
238.333
238.347
238.362
238.377
238.392
238.407
238.422
238.44
238.462
238.485
238.502
238.517
238.532
238.547
238.563
238.582
238.605
238.624
238.64
238.655
238.67
238.685
238.703
238.726
238.747
238.763
238.778
238.793
238.807
238.822
238.837
238.853
238.872
238.901
238.932
238.95
238.965
238.979
238.992
239.007
239.022
239.038
239.056
239.078
239.099
239.116
239.131
239.147
239.164
239.186
239.207
239.223
239.238
239.253
239.268
239.283
239.299
239.32
239.345
239.363
239.378
239.393
239.408
239.423
239.439
239.458
239.483
239.504
239.519
239.534
239.549
239.565
239.58
239.598
239.621
239.644
239.661
239.676
239.691
239.706
239.721
239.74
239.763
239.784
239.799
239.814
239.829
239.844
239.86
239.877
239.899
239.925
239.944
239.959
239.974
239.989
240.004
240.02
240.039
240.063
240.084
240.1
240.115
240.13
240.145
240.161
240.179
240.201
240.22
240.236
240.251
240.266
240.281
240.296
240.311
240.328
240.352
240.387
240.411
240.427
240.441
240.453
240.466
240.48
240.495
240.511
240.53
240.554
240.574
240.589
240.604
240.619
240.635
240.65
240.667
240.69
240.712
240.728
240.743
240.758
240.773
240.788
240.803
240.818
240.836
240.862
240.897
240.92
240.935
240.948
240.959
240.972
240.987
241.003
241.019
241.039
241.064
241.084
241.099
241.114
241.129
241.145
241.16
241.179
241.202
241.223
241.239
241.254
241.269
241.284
241.3
241.319
241.342
241.362
241.377
241.393
241.408
241.425
241.444
241.465
241.482
241.497
241.512
241.527
241.542
241.557
241.573
241.593
241.624
241.655
241.672
241.687
241.7
241.713
241.727
241.742
241.758
241.776
241.798
241.818
241.834
241.849
241.864
241.88
241.896
241.916
241.94
241.959
241.974
241.989
242.004
242.02
242.036
242.056
242.083
242.104
242.12
242.135
242.15
242.165
242.18
242.196
242.214
242.238
242.258
242.273
242.288
242.304
242.319
242.335
242.353
242.376
242.397
242.413
242.428
242.444
242.461
242.481
242.504
242.521
242.537
242.552
242.567
242.583
242.599
242.621
242.645
242.663
242.678
242.693
242.708
242.724
242.74
242.759
242.781
242.799
242.815
242.83
242.845
242.859
242.874
242.89
242.905
242.922
242.946
242.982
243.01
243.026
243.04
243.051
243.059
243.072
243.087
243.102
243.117
243.133
243.153
243.184
243.217
243.235
243.25
243.263
243.276
243.29
243.305
243.321
243.338
243.358
243.378
243.395
243.41
243.425
243.44
243.456
243.476
243.502
243.523
243.538
243.553
243.569
243.584
243.6
243.617
243.64
243.665
243.682
243.697
243.712
243.727
243.743
243.758
243.773
243.79
243.809
243.83
243.851
243.872
243.893
243.91
243.925
243.94
243.955
243.971
243.986
244.001
244.018
244.04
244.064
244.082
244.097
244.112
244.127
244.142
244.158
244.175
244.199
244.226
244.245
244.26
244.275
244.29
244.305
244.321
244.337
244.356
244.38
244.4
244.416
244.431
244.446
244.462
244.477
244.494
244.514
244.538
244.556
244.572
244.587
244.602
244.618
244.634
244.654
244.677
244.695
244.71
244.725
244.741
244.756
244.774
244.798
244.821
244.838
244.853
244.869
244.884
244.9
244.917
244.939
244.96
244.976
244.991
245.006
245.022
245.038
245.058
245.08
245.097
245.113
245.128
245.143
245.158
245.174
245.191
245.215
245.242
245.261
245.277
245.292
245.307
245.322
245.338
245.356
245.379
245.4
245.416
245.432
245.447
245.462
245.477
245.493
245.511
245.534
245.557
245.574
245.589
245.604
245.62
245.635
245.651
245.67
245.695
245.716
245.732
245.747
245.762
245.778
245.793
245.81
245.83
245.853
245.87
245.886
245.901
245.917
245.933
245.951
245.973
245.992
246.008
246.023
246.039
246.054
246.071
246.092
246.116
246.134
246.15
246.165
246.18
246.196
246.212
246.232
246.257
246.278
246.294
246.309
246.325
246.34
246.355
246.372
246.391
246.414
246.434
246.449
246.465
246.48
246.495
246.511
246.527
246.544
246.565
246.586
246.605
246.624
246.644
246.664
246.68
246.696
246.711
246.726
246.742
246.757
246.775
246.796
246.818
246.835
246.851
246.866
246.882
246.899
246.919
246.941
246.959
246.974
246.989
247.005
247.02
247.037
247.057
247.078
247.094
247.11
247.125
247.14
247.156
247.171
247.189
247.214
247.249
247.272
247.287
247.301
247.314
247.327
247.342
247.357
247.373
247.39
247.41
247.428
247.444
247.459
247.474
247.49
247.505
247.52
247.536
247.555
247.584
247.62
247.642
247.657
247.671
247.682
247.693
247.708
247.723
247.739
247.755
247.777
247.802
247.82
247.836
247.851
247.867
247.882
247.898
247.917
247.939
247.958
247.973
247.989
248.004
248.019
248.035
248.05
248.067
248.088
248.118
248.141
248.158
248.173
248.188
248.203
248.219
248.237
248.258
248.278
248.294
248.31
248.325
248.34
248.356
248.373
248.393
248.415
248.432
248.448
248.463
248.479
248.494
248.511
248.533
248.557
248.574
248.59
248.605
248.62
248.636
248.652
248.671
248.694
248.715
248.731
248.747
248.762
248.777
248.793
248.809
248.83
248.854
248.873
248.889
248.904
248.919
248.935
248.95
248.965
248.981
248.996
249.012
249.028
249.047
249.077
249.109
249.127
249.143
249.157
249.172
249.188
249.203
249.219
249.236
249.256
249.273
249.289
249.304
249.319
249.334
249.349
249.365
249.38
249.396
249.414
249.441
249.48
249.505
249.521
249.535
249.547
249.556
249.57
249.585
249.6
249.616
249.631
249.647
249.665
249.689
249.717
249.736
249.752
249.767
249.781
249.795
249.81
249.825
249.841
249.856
249.872
249.887
249.904
249.922
249.953
249.991
250.014
250.03
250.044
250.056
250.066
250.081
250.096
250.112
250.127
250.144
250.162
250.178
250.193
250.209
250.224
250.24
250.256
250.273
250.298
250.336
250.365
250.381
250.396
250.409
250.418
250.431
250.447
250.462
250.478
250.493
250.51
250.529
250.55
250.568
250.586
250.604
250.624
250.645
250.662
250.678
250.693
250.709
250.724
250.74
250.755
250.773
250.795
250.821
250.839
250.854
250.87
250.885
250.901
250.916
250.933
250.952
250.972
250.989
251.004
251.02
251.035
251.051
251.066
251.082
251.099
251.122
251.158
251.187
251.204
251.219
251.232
251.242
251.256
251.271
251.287
251.302
251.319
251.339
251.359
251.376
251.391
251.407
251.423
251.439
251.459
251.484
251.506
251.523
251.538
251.553
251.568
251.584
251.599
251.615
251.63
251.646
251.661
251.677
251.693
251.709
251.73
251.763
251.801
251.823
251.838
251.853
251.865
251.874
251.887
251.903
251.918
251.934
251.95
251.969
251.99
252.007
252.023
252.039
252.055
252.071
252.09
252.115
252.135
252.152
252.167
252.183
252.198
252.214
252.23
252.249
252.274
252.297
252.313
252.329
252.344
252.358
252.372
252.388
252.403
252.419
252.435
252.452
252.477
252.51
252.532
252.548
252.563
252.576
252.589
252.604
252.62
252.635
252.652
252.67
252.694
252.714
252.73
252.746
252.762
252.777
252.793
252.811
252.833
252.854
252.87
252.886
252.901
252.916
252.932
252.947
252.963
252.979
252.995
253.018
253.05
253.075
253.091
253.106
253.121
253.134
253.148
253.164
253.179
253.195
253.213
253.232
253.25
253.266
253.282
253.297
253.313
253.329
253.345
253.363
253.39
253.427
253.45
253.466
253.481
253.493
253.502
253.514
253.529
253.545
253.56
253.577
253.595
253.621
253.649
253.667
253.683
253.698
253.713
253.727
253.743
253.758
253.774
253.791
253.81
253.834
253.854
253.87
253.885
253.901
253.917
253.933
253.951
253.974
253.994
254.01
254.026
254.042
254.057
254.073
254.088
254.104
254.12
254.14
254.168
254.195
254.213
254.228
254.243
254.257
254.272
254.287
254.303
254.319
254.336
254.356
254.378
254.396
254.412
254.428
254.443
254.459
254.476
254.496
254.519
254.537
254.553
254.568
254.584
254.6
254.615
254.631
254.648
254.667
254.693
254.714
254.731
254.747
254.762
254.778
254.793
254.809
254.825
254.84
254.856
254.872
254.889
254.911
254.946
254.975
254.992
255.008
255.022
255.033
255.045
255.06
255.076
255.092
255.107
255.124
255.142
255.162
255.18
255.196
255.213
255.23
255.25
255.276
255.298
255.314
255.33
255.346
255.361
255.376
255.392
255.408
255.424
255.441
255.458
255.474
255.489
255.505
255.521
255.536
255.553
255.57
255.597
255.636
255.664
255.68
255.695
255.709
255.718
255.729
255.743
255.759
255.775
255.79
255.806
255.822
255.838
255.855
255.877
255.908
255.932
255.948
255.964
255.979
255.994
256.009
256.025
256.041
256.057
256.074
256.095
256.116
256.134
256.149
256.165
256.181
256.197
256.213
256.23
256.251
256.273
256.29
256.306
256.323
256.339
256.358
256.378
256.395
256.411
256.427
256.442
256.458
256.474
256.489
256.505
256.522
256.543
256.571
256.596
256.612
256.628
256.643
256.658
256.673
256.689
256.704
256.72
256.738
256.759
256.782
256.8
256.816
256.832
256.847
256.862
256.877
256.892
256.908
256.924
256.94
256.96
256.992
257.027
257.047
257.062
257.077
257.089
257.1
257.115
257.131
257.146
257.162
257.18
257.199
257.216
257.232
257.248
257.264
257.279
257.295
257.311
257.327
257.343
257.364
257.395
257.427
257.445
257.461
257.476
257.489
257.502
257.518
257.533
257.549
257.566
257.584
257.605
257.623
257.639
257.655
257.671
257.687
257.703
257.723
257.746
257.766
257.782
257.798
257.813
257.829
257.845
257.862
257.881
257.905
257.924
257.94
257.956
257.972
257.988
258.004
258.02
258.038
258.056
258.072
258.088
258.104
258.12
258.135
258.151
258.167
258.184
258.203
258.232
258.268
258.289
258.305
258.32
258.333
258.34
258.35
258.365
258.381
258.397
258.413
258.431
258.458
258.495
258.518
258.534
258.549
258.562
258.571
258.583
258.598
258.614
258.63
258.646
258.665
258.693
258.72
258.738
258.753
258.769
258.783
258.797
258.813
258.829
258.844
258.861
258.878
258.897
258.915
258.931
258.947
258.963
258.978
258.994
259.011
259.032
259.063
259.095
259.113
259.129
259.144
259.156
259.165
259.178
259.193
259.209
259.225
259.24
259.256
259.272
259.288
259.304
259.32
259.337
259.361
259.399
259.432
259.451
259.466
259.481
259.493
259.501
259.515
259.53
259.546
259.562
259.578
259.594
259.611
259.63
259.651
259.668
259.685
259.702
259.722
259.748
259.774
259.792
259.808
259.824
259.839
259.853
259.867
259.883
259.899
259.915
259.931
259.948
259.967
259.988
260.006
260.023
260.039
260.055
260.073
260.092
260.112
260.129
260.145
260.161
260.177
260.194
260.214
260.237
260.255
260.271
260.287
260.303
260.318
260.334
260.349
260.365
260.381
260.396
260.412
260.428
260.444
260.461
260.481
260.512
260.551
260.574
260.59
260.606
260.619
260.629
260.641
260.656
260.672
260.688
260.704
260.72
260.737
260.758
260.779
260.796
260.813
260.829
260.846
260.864
260.885
260.903
260.919
260.935
260.951
260.967
260.983
260.999
261.017
261.034
261.051
261.067
261.083
261.098
261.114
261.13
261.146
261.163
261.181
261.209
261.245
261.268
261.284
261.299
261.313
261.322
261.331
261.346
261.361
261.377
261.394
261.411
261.437
261.475
261.503
261.52
261.536
261.55
261.562
261.569
261.582
261.597
261.613
261.629
261.645
261.661
261.677
261.693
261.709
261.725
261.742
261.765
261.8
261.834
261.853
261.868
261.884
261.896
261.904
261.915
261.93
261.946
261.962
261.978
261.994
262.011
262.032
262.061
262.085
262.102
262.118
262.133
262.148
262.163
262.179
262.195
262.211
262.227
262.243
262.259
262.278
262.299
262.319
262.336
262.354
262.373
262.395
262.415
262.431
262.447
262.463
262.479
262.495
262.51
262.525
262.541
262.557
262.573
262.589
262.605
262.622
262.642
262.67
262.696
262.713
262.729
262.745
262.761
262.776
262.792
262.808
262.824
262.841
262.861
262.886
262.908
262.925
262.941
262.957
262.973
262.989
263.005
263.021
263.037
263.054
263.072
263.09
263.106
263.122
263.138
263.154
263.17
263.187
263.206
263.232
263.257
263.274
263.29
263.306
263.321
263.335
263.346
263.361
263.376
263.392
263.408
263.424
263.441
263.46
263.489
263.529
263.554
263.571
263.586
263.601
263.611
263.618
263.631
263.646
263.662
263.678
263.694
263.711
263.729
263.754
263.779
263.798
263.814
263.83
263.845
263.861
263.877
263.893
263.909
263.926
263.943
263.966
263.993
264.013
264.029
264.045
264.061
264.076
264.092
264.108
264.124
264.14
264.158
264.178
264.2
264.218
264.234
264.25
264.266
264.282
264.298
264.313
264.329
264.345
264.361
264.377
264.393
264.409
264.425
264.441
264.458
264.479
264.512
264.55
264.572
264.588
264.604
264.618
264.629
264.636
264.648
264.664
264.68
264.696
264.712
264.728
264.744
264.76
264.776
264.792
264.808
264.825
264.843
264.871
264.908
264.932
264.949
264.965
264.979
264.99
265
265.015
265.03
265.046
265.063
265.08
265.102
265.135
265.161
265.178
265.194
265.21
265.223
265.232
265.245
265.261
265.277
265.293
265.31
265.328
265.35
265.373
265.39
265.406
265.422
265.438
265.453
265.468
265.483
265.499
265.515
265.531
265.548
265.565
265.587
265.621
265.652
265.671
265.687
265.702
265.717
265.727
265.738
265.753
265.769
265.785
265.801
265.817
265.833
265.849
265.865
265.881
265.897
265.914
265.931
265.951
265.983
266.021
266.044
266.06
266.076
266.091
266.103
266.112
266.126
266.142
266.158
266.174
266.19
266.207
266.225
266.242
266.259
266.275
266.291
266.307
266.323
266.34
266.358
266.383
266.413
266.433
266.449
266.465
266.481
266.496
266.511
266.526
266.542
266.559
266.575
266.592
266.611
266.633
266.651
266.668
266.684
266.7
266.717
266.734
266.751
266.767
266.783
266.799
266.815
266.831
266.847
266.864
266.881
266.901
266.932
266.966
266.986
267.002
267.018
267.032
267.044
267.053
267.068
267.083
267.099
267.115
267.131
267.148
267.164
267.18
267.196
267.212
267.228
267.245
267.263
267.287
267.322
267.349
267.366
267.382
267.397
267.411
267.422
267.436
267.452
267.468
267.484
267.501
267.521
267.549
267.574
267.591
267.607
267.623
267.638
267.65
267.661
267.677
267.693
267.709
267.726
267.743
267.766
267.797
267.819
267.836
267.852
267.868
267.883
267.897
267.911
267.927
267.943
267.96
267.976
267.992
268.01
268.03
268.055
268.074
268.091
268.107
268.123
268.139
268.155
268.171
268.187
268.203
268.219
268.235
268.252
268.269
268.289
268.314
268.335
268.352
268.368
268.384
268.4
268.415
268.431
268.447
268.463
268.479
268.495
268.513
268.534
268.567
268.595
268.613
268.629
268.645
268.66
268.672
268.683
268.698
268.714
268.73
268.747
268.763
268.78
268.797
268.82
268.846
268.865
268.882
268.898
268.915
268.931
268.947
268.962
268.975
268.99
269.005
269.022
269.038
269.054
269.07
269.086
269.103
269.12
269.139
269.166
269.206
269.235
269.252
269.269
269.284
269.299
269.308
269.312
269.323
269.339
269.355
269.371
269.387
269.403
269.42
269.436
269.452
269.469
269.487
269.509
269.544
269.583
269.604
269.62
269.636
269.652
269.664
269.67
269.677
269.691
269.706
269.723
269.739
269.755
269.772
269.789
269.808
269.836
269.871
269.893
269.909
269.925
269.941
269.955
269.966
269.976
269.991
270.008
270.024
270.04
270.057
270.074
270.093
270.118
270.142
270.159
270.175
270.192
270.208
270.223
270.238
270.253
270.269
270.285
270.301
270.318
270.335
270.357
270.389
270.417
270.435
270.451
270.467
270.483
270.495
270.508
270.523
270.539
270.556
270.572
270.589
270.609
270.629
270.645
270.662
270.678
270.694
270.71
270.724
270.739
270.756
270.772
270.788
270.805
270.824
270.85
270.889
270.916
270.933
270.949
270.965
270.979
270.988
270.994
271.007
271.023
271.039
271.056
271.072
271.089
271.109
271.135
271.162
271.181
271.197
271.213
271.229
271.245
271.26
271.274
271.287
271.303
271.319
271.336
271.352
271.368
271.385
271.402
271.419
271.442
271.476
271.503
271.521
271.537
271.553
271.569
271.585
271.598
271.607
271.62
271.636
271.652
271.668
271.685
271.702
271.719
271.742
271.774
271.799
271.816
271.832
271.848
271.864
271.878
271.89
271.904
271.92
271.936
271.953
271.97
271.987
272.008
272.034
272.056
272.072
272.089
272.105
272.121
272.137
272.152
272.167
272.183
272.2
272.216
272.233
272.251
272.273
272.295
272.312
272.328
272.345
272.36
272.376
272.391
272.405
272.421
272.437
272.454
272.47
272.488
272.508
272.539
272.574
272.595
272.611
272.627
272.643
272.656
272.665
272.676
272.691
272.707
272.724
272.74
272.758
272.779
272.805
272.825
272.842
272.858
272.874
272.89
272.905
272.918
272.932
272.948
272.964
272.981
272.997
273.015
273.037
273.068
273.096
273.114
273.13
273.147
273.163
273.178
273.191
273.205
273.221
273.237
273.253
273.27
273.286
273.303
273.321
273.338
273.355
273.371
273.388
273.405
273.424
273.45
273.476
273.495
273.512
273.528
273.544
273.56
273.574
273.589
273.604
273.62
273.637
273.653
273.67
273.69
273.711
273.73
273.746
273.763
273.779
273.795
273.811
273.826
273.843
273.859
273.875
273.892
273.91
273.933
273.966
273.99
274.008
274.024
274.04
274.056
274.069
274.08
274.094
274.111
274.127
274.144
274.161
274.179
274.202
274.222
274.238
274.255
274.271
274.287
274.303
274.318
274.335
274.351
274.368
274.385
274.403
274.428
274.46
274.483
274.499
274.516
274.532
274.547
274.559
274.569
274.583
274.599
274.616
274.632
274.649
274.667
274.69
274.717
274.736
274.753
274.77
274.786
274.802
274.817
274.832
274.848
274.865
274.881
274.898
274.915
274.935
274.96
274.981
274.997
275.014
275.03
275.046
275.062
275.077
275.093
275.109
275.125
275.142
275.159
275.177
275.197
275.22
275.239
275.255
275.272
275.288
275.304
275.319
275.332
275.346
275.362
275.379
275.395
275.412
275.43
275.451
275.485
275.522
275.543
275.56
275.576
275.592
275.606
275.615
275.619
275.63
275.645
275.662
275.678
275.695
275.712
275.729
275.748
275.775
275.808
275.83
275.847
275.863
275.879
275.895
275.911
275.925
275.94
275.957
275.973
275.99
276.007
276.024
276.043
276.06
276.077
276.094
276.11
276.126
276.142
276.156
276.171
276.187
276.203
276.22
276.236
276.253
276.27
276.289
276.315
276.353
276.38
276.398
276.414
276.43
276.446
276.46
276.471
276.484
276.499
276.516
276.532
276.549
276.566
276.583
276.6
276.617
276.633
276.65
276.665
276.679
276.695
276.711
276.727
276.743
276.76
276.777
276.797
276.828
276.867
276.892
276.909
276.926
276.942
276.958
276.971
276.978
276.981
276.995
277.011
277.027
277.043
277.06
277.077
277.093
277.11
277.128
277.147
277.174
277.211
277.236
277.254
277.271
277.288
277.303
277.317
277.326
277.338
277.354
277.37
277.386
277.403
277.42
277.441
277.462
277.48
277.497
277.514
277.53
277.545
277.561
277.577
277.594
277.61
277.628
277.647
277.674
277.704
277.723
277.74
277.757
277.774
277.789
277.803
277.812
277.823
277.839
277.855
277.871
277.888
277.906
277.926
277.953
277.979
277.997
278.014
278.031
278.048
278.064
278.079
278.092
278.104
278.12
278.136
278.152
278.169
278.186
278.203
278.22
278.236
278.254
278.273
278.298
278.326
278.346
278.363
278.379
278.396
278.412
278.427
278.442
278.458
278.474
278.491
278.508
278.525
278.547
278.573
278.595
278.612
278.629
278.645
278.661
278.676
278.688
278.7
278.715
278.732
278.748
278.765
278.783
278.804
278.833
278.859
278.877
278.894
278.91
278.927
278.942
278.956
278.964
278.974
278.989
279.005
279.021
279.038
279.055
279.072
279.089
279.106
279.127
279.159
279.199
279.223
279.24
279.256
279.273
279.288
279.302
279.309
279.313
279.327
279.343
279.359
279.376
279.393
279.41
279.431
279.46
279.488
279.506
279.523
279.539
279.556
279.572
279.586
279.594
279.602
279.617
279.633
279.65
279.666
279.683
279.7
279.719
279.747
279.786
279.812
279.83
279.847
279.863
279.879
279.894
279.904
279.918
279.934
279.95
279.967
279.983
280.001
280.021
280.042
280.059
280.076
280.093
280.109
280.125
280.141
280.157
280.174
280.191
280.208
280.225
280.245
280.268
280.289
280.306
280.323
280.339
280.356
280.372
280.388
280.405
280.421
280.438
280.455
280.472
280.49
280.508
280.525
280.541
280.558
280.574
280.591
280.609
280.627
280.649
280.672
280.69
280.708
280.724
280.741
280.757
280.772
280.787
280.803
280.818
280.835
280.852
280.869
280.888
280.91
280.93
280.949
280.966
280.983
280.999
281.015
281.03
281.046
281.062
281.078
281.095
281.113
281.132
281.159
281.186
281.205
281.222
281.239
281.256
281.272
281.286
281.297
281.312
281.328
281.345
281.362
281.379
281.398
281.422
281.448
281.466
281.483
281.5
281.516
281.533
281.548
281.563
281.579
281.596
281.612
281.629
281.646
281.664
281.681
281.697
281.714
281.731
281.746
281.758
281.773
281.789
281.806
281.822
281.839
281.856
281.876
281.904
281.943
281.969
281.987
282.005
282.021
282.038
282.052
282.062
282.069
282.083
282.099
282.115
282.132
282.149
282.167
282.188
282.213
282.233
282.25
282.267
282.284
282.3
282.316
282.33
282.345
282.361
282.378
282.395
282.412
282.43
282.452
282.475
282.494
282.511
282.528
282.544
282.561
282.576
282.59
282.606
282.623
282.639
282.656
282.673
282.691
282.711
282.73
282.748
282.764
282.781
282.798
282.815
282.834
282.856
282.884
282.905
282.922
282.939
282.955
282.972
282.987
283
283.013
283.029
283.045
283.062
283.079
283.097
283.117
283.143
283.164
283.182
283.199
283.216
283.232
283.248
283.262
283.275
283.291
283.307
283.324
283.341
283.358
283.377
283.399
283.42
283.438
283.455
283.472
283.488
283.505
283.52
283.535
283.552
283.568
283.585
283.602
283.619
283.638
283.662
283.684
283.702
283.719
283.736
283.753
283.769
283.785
283.799
283.814
283.83
283.847
283.864
283.88
283.897
283.915
283.936
283.964
283.989
284.007
284.024
284.04
284.057
284.073
284.089
284.103
284.118
284.134
284.151
284.168
284.185
284.202
284.22
284.238
284.255
284.272
284.288
284.305
284.321
284.337
284.354
284.37
284.387
284.404
284.423
284.447
284.473
284.493
284.51
284.527
284.544
284.561
284.577
284.593
284.609
284.626
284.642
284.659
284.677
284.698
284.72
284.738
284.755
284.772
284.789
284.806
284.821
284.835
284.851
284.868
284.885
284.902
284.919
284.937
284.958
284.982
285
285.017
285.034
285.051
285.067
285.083
285.099
285.112
285.122
285.138
285.154
285.171
285.188
285.205
285.222
285.239
285.256
285.274
285.294
285.321
285.359
285.386
285.405
285.422
285.439
285.456
285.472
285.485
285.492
285.493
285.504
285.52
285.536
285.552
285.569
285.587
285.604
285.622
285.64
285.662
285.694
285.729
285.752
285.77
285.787
285.804
285.82
285.835
285.845
285.852
285.865
285.88
285.896
285.913
285.931
285.949
285.969
285.994
286.017
286.035
286.052
286.069
286.085
286.101
286.115
286.126
286.138
286.154
286.17
286.187
286.205
286.222
286.242
286.27
286.302
286.323
286.341
286.358
286.374
286.391
286.407
286.421
286.429
286.434
286.447
286.463
286.479
286.496
286.514
286.531
286.548
286.566
286.584
286.608
286.645
286.678
286.697
286.714
286.731
286.748
286.763
286.778
286.788
286.8
286.816
286.832
286.849
286.866
286.884
286.904
286.924
286.941
286.958
286.975
286.992
287.008
287.022
287.038
287.055
287.072
287.089
287.107
287.127
287.151
287.175
287.194
287.211
287.227
287.244
287.26
287.276
287.289
287.297
287.306
287.321
287.338
287.355
287.372
287.389
287.407
287.424
287.443
287.469
287.509
287.539
287.557
287.574
287.592
287.608
287.624
287.639
287.649
287.656
287.671
287.687
287.704
287.721
287.738
287.756
287.776
287.793
287.81
287.827
287.844
287.86
287.876
287.894
287.911
287.929
287.948
287.974
288.002
288.022
288.039
288.056
288.072
288.089
288.105
288.118
288.126
288.131
288.145
288.161
288.177
288.194
288.211
288.228
288.246
288.264
288.283
288.306
288.341
288.382
288.403
288.419
288.436
288.452
288.468
288.483
288.496
288.503
288.511
288.527
288.544
288.561
288.578
288.597
288.615
288.632
288.649
288.666
288.682
288.699
288.716
288.733
288.752
288.775
288.803
288.823
288.841
288.858
288.875
288.892
288.907
288.919
288.93
288.946
288.962
288.979
288.996
289.013
289.032
289.055
289.08
289.099
289.117
289.135
289.152
289.168
289.184
289.196
289.207
289.222
289.238
289.255
289.272
289.289
289.308
289.329
289.359
289.385
289.403
289.42
289.437
289.454
289.471
289.486
289.499
289.51
289.526
289.542
289.559
289.576
289.593
289.611
289.629
289.648
289.665
289.682
289.7
289.717
289.736
289.758
289.781
289.8
289.817
289.835
289.852
289.868
289.884
289.899
289.916
289.932
289.949
289.966
289.983
290.002
290.023
290.042
290.059
290.076
290.093
290.11
290.126
290.14
290.153
290.169
290.186
290.203
290.22
290.238
290.256
290.278
290.304
290.324
290.341
290.359
290.376
290.392
290.408
290.422
290.432
290.443
290.459
290.476
290.493
290.51
290.527
290.546
290.57
290.603
290.633
290.653
290.671
290.688
290.704
290.721
290.736
290.748
290.756
290.769
290.786
290.803
290.82
290.838
290.856
290.876
290.899
290.92
290.937
290.954
290.971
290.987
291.002
291.015
291.027
291.043
291.059
291.076
291.094
291.111
291.131
291.156
291.182
291.202
291.22
291.238
291.256
291.272
291.285
291.299
291.315
291.331
291.347
291.364
291.383
291.402
291.419
291.437
291.454
291.471
291.486
291.502
291.519
291.536
291.553
291.57
291.59
291.615
291.641
291.66
291.678
291.695
291.712
291.729
291.743
291.752
291.765
291.781
291.797
291.814
291.831
291.849
291.869
291.894
291.918
291.937
291.954
291.972
291.989
292.005
292.019
292.031
292.046
292.062
292.079
292.096
292.113
292.133
292.153
292.171
292.189
292.207
292.224
292.241
292.256
292.268
292.284
292.3
292.317
292.334
292.351
292.37
292.394
292.423
292.443
292.461
292.479
292.496
292.513
292.528
292.542
292.559
292.576
292.593
292.611
292.629
292.649
292.674
292.694
292.711
292.729
292.746
292.762
292.778
292.791
292.8
292.814
292.831
292.848
292.865
292.882
292.9
292.922
292.947
292.968
292.987
293.006
293.024
293.041
293.057
293.069
293.082
293.098
293.113
293.128
293.145
293.163
293.184
293.204
293.224
293.243
293.262
293.28
293.297
293.312
293.325
293.34
293.355
293.372
293.389
293.407
293.425
293.446
293.473
293.499
293.519
293.536
293.552
293.569
293.584
293.598
293.608
293.618
293.635
293.653
293.67
293.689
293.707
293.727
293.753
293.777
293.794
293.811
293.827
293.843
293.859
293.87
293.877
293.891
293.908
293.926
293.944
293.962
293.981
294.005
294.039
294.063
294.082
294.1
294.118
294.135
294.15
294.162
294.167
294.176
294.191
294.206
294.222
294.239
294.257
294.277
294.302
294.332
294.357
294.377
294.396
294.414
294.432
294.447
294.461
294.471
294.474
294.48
294.493
294.509
294.527
294.545
294.564
294.583
294.602
294.625
294.661
294.707
294.729
294.746
294.762
294.778
294.792
294.805
294.809
294.805
294.816
294.833
294.849
294.867
294.884
294.902
294.923
294.952
294.985
295.01
295.031
295.052
295.07
295.087
295.103
295.118
295.134
295.145
295.157
295.166
295.169
295.18
295.196
295.215
295.234
295.253
295.272
295.289
295.306
295.322
295.338
295.353
295.371
295.391
295.417
295.454
295.494
295.52
295.543
295.563
295.58
295.593
295.595
295.584
295.589
295.601
295.616