/*--------------------------------*- C++ -*----------------------------------*\
  =========                 |
  \\      /  F ield         | OpenFOAM: The Open Source CFD Toolbox
   \\    /   O peration     | Website:  https://openfoam.org
    \\  /    A nd           | Version:  9
     \\/     M anipulation  |
\*---------------------------------------------------------------------------*/
FoamFile
{
    format      ascii;
    class       volScalarField;
    location    "0.015";
    object      mag(U);
}
// * * * * * * * * * * * * * * * * * * * * * * * * * * * * * * * * * * * * * //

dimensions      [0 1 -1 0 0 0 0];

internalField   nonuniform List<scalar> 
10000
(
34.3459
34.3573
34.3627
34.3672
34.3708
34.3741
34.377
34.3788
34.3792
34.3787
34.3801
34.3831
34.3849
34.3853
34.3847
34.3859
34.4033
34.4636
34.6512
35.127
35.6382
35.9424
36.1142
36.2074
36.2594
36.2949
36.3187
36.3346
36.3478
36.3609
36.3737
36.3853
36.396
36.4062
36.4158
36.4252
36.435
36.4448
36.4533
36.4595
36.4646
36.4712
36.4801
36.4882
36.4927
36.4938
36.4948
36.4988
36.5022
36.5015
36.4979
36.4925
36.4899
36.489
36.4893
36.4919
36.495
36.502
36.5193
36.5717
36.726
37.161
37.7458
38.1269
38.3432
38.4645
38.5386
38.5853
38.6147
38.6386
38.6635
38.6817
38.6889
38.6895
38.693
38.7062
38.7209
38.7289
38.7275
38.7192
38.7093
38.7066
38.7091
38.7157
38.7238
38.7243
38.7228
38.7209
38.7232
38.7338
38.7665
38.862
39.1305
39.5244
39.7873
39.9346
40.0168
40.0707
40.1022
40.1159
40.1251
40.1399
40.1598
40.1759
40.1832
40.1835
40.1837
40.1879
40.1977
40.2051
40.2063
40.2004
40.1896
40.1866
40.1878
40.1934
40.2003
40.2018
40.2032
40.2058
40.2149
40.2487
40.3567
40.6707
41.1692
41.5255
41.7254
41.834
41.896
41.9343
41.957
41.9691
41.9784
41.9907
42.0018
42.0083
42.008
42.0062
42.0119
42.0235
42.0333
42.035
42.0285
42.0126
42.0072
42.0069
42.0162
42.0276
42.0473
42.0846
42.2059
42.5333
42.9204
43.163
43.3095
43.3988
43.4495
43.4752
43.4855
43.4912
43.4997
43.5146
43.5299
43.5415
43.5483
43.5529
43.5567
43.5598
43.5626
43.5675
43.5716
43.5718
43.5672
43.5639
43.5638
43.5696
43.58
43.6008
43.6626
43.8467
44.2481
44.6051
44.8203
44.9431
45.0073
45.0388
45.0556
45.0721
45.096
45.1168
45.1288
45.1291
45.1266
45.1381
45.1599
45.1779
45.182
45.1724
45.1407
45.1103
45.1047
45.1049
45.1211
45.1602
45.188
45.2383
45.3556
45.6701
45.9923
46.1836
46.2983
46.3753
46.428
46.4597
46.473
46.4732
46.4694
46.4672
46.4722
46.4796
46.4836
46.4821
46.4816
46.4872
46.5091
46.5739
46.7608
47.0279
47.2098
47.3135
47.3795
47.4217
47.4396
47.445
47.4506
47.4681
47.4866
47.4971
47.4935
47.4803
47.4766
47.4751
47.4869
47.4983
47.5172
47.5471
47.6509
47.9031
48.2119
48.417
48.5505
48.6275
48.6509
48.6413
48.6224
48.6128
48.6287
48.6624
48.721
48.7614
48.7729
48.766
48.7355
48.6938
48.6822
48.6812
48.6994
48.7371
48.7788
48.863
49.0927
49.4344
49.6621
49.7922
49.8741
49.9352
49.982
50.0079
50.0127
50.0116
50.014
50.0297
50.0467
50.0559
50.0543
50.0574
50.0614
50.0609
50.0533
50.0457
50.0474
50.0605
50.102
50.2024
50.468
50.7997
51.0103
51.1381
51.2231
51.2675
51.2792
51.2829
51.2956
51.3246
51.3507
51.3632
51.3574
51.3463
51.3493
51.3584
51.3686
51.3656
51.3547
51.3463
51.3562
51.3953
51.5239
51.8075
52.1096
52.2807
52.3656
52.42
52.4756
52.5235
52.554
52.555
52.5459
52.5403
52.551
52.5681
52.5743
52.564
52.5503
52.5451
52.5655
52.6028
52.6937
52.8725
53.1328
53.2867
53.3682
53.4228
53.4966
53.5697
53.6198
53.6338
53.6188
53.5781
53.55
53.5523
53.5648
53.6074
53.652
53.6583
53.6574
53.6608
53.6736
53.8056
54.0956
54.3686
54.5577
54.6954
54.7691
54.7935
54.7811
54.7574
54.7465
54.7623
54.7975
54.8548
54.8833
54.8922
54.8809
54.8494
54.8326
54.8299
54.8355
54.8592
54.8706
54.8771
54.8893
54.9407
55.1316
55.5019
55.8156
56.0048
56.1041
56.1599
56.2009
56.2244
56.2357
56.2445
56.2662
56.2955
56.317
56.3229
56.3133
56.3007
56.3038
56.3183
56.3457
56.3566
56.3484
56.3276
56.3027
56.3025
56.3321
56.4022
56.5994
56.9682
57.2871
57.4562
57.5373
57.5846
57.6365
57.692
57.7323
57.7439
57.7336
57.7196
57.7239
57.7455
57.7847
57.8063
57.8109
57.7953
57.7668
57.7619
57.7611
57.7794
57.805
57.8091
57.8285
57.8549
57.9735
58.2746
58.6196
58.8543
59.0117
59.1001
59.1287
59.1221
59.109
59.1092
59.1341
59.1831
59.2328
59.2509
59.2495
59.2253
59.1964
59.1931
59.2012
59.2206
59.2354
59.2356
59.2327
59.2348
59.2527
59.315
59.5179
59.8668
60.1364
60.2994
60.4094
60.4806
60.5128
60.5219
60.5293
60.551
60.5762
60.5924
60.5921
60.5864
60.5868
60.5998
60.6181
60.6277
60.6239
60.6158
60.6093
60.6123
60.6273
60.6405
60.6826
60.7563
61.0016
61.3293
61.568
61.7246
61.8535
61.9472
61.999
61.9939
61.9641
61.9296
61.9237
61.9438
61.9879
62.0683
62.1067
62.1177
62.1072
62.0615
62.011
62.0028
62.0103
62.034
62.0894
62.1149
62.1133
62.1083
62.1033
62.1204
62.2501
62.5963
63.0129
63.3078
63.4964
63.5954
63.6242
63.6177
63.6063
63.6068
63.6314
63.6782
63.7258
63.7455
63.7464
63.7279
63.7076
63.7067
63.7196
63.7458
63.7655
63.7702
63.763
63.7523
63.7485
63.7529
63.7607
63.7784
63.8125
63.9315
64.2456
64.6225
64.8848
65.0463
65.1352
65.1746
65.1965
65.223
65.2569
65.2808
65.2844
65.2744
65.2551
65.2499
65.2631
65.2923
65.3508
65.3826
65.3899
65.3794
65.3351
65.2782
65.2663
65.2635
65.2837
65.3617
65.436
65.56
65.7945
66.1463
66.3713
66.4711
66.5313
66.5893
66.6741
66.7525
66.8301
66.855
66.8549
66.8238
66.7575
66.7236
66.7227
66.7373
66.7757
66.8542
66.8946
66.899
66.8906
66.86
66.8125
66.8142
66.8782
67.0571
67.4144
67.7256
67.9258
68.0301
68.0627
68.0602
68.0432
68.0311
68.0345
68.0561
68.0965
68.1342
68.1475
68.1466
68.139
68.134
68.1299
68.127
68.1297
68.1426
68.1791
68.2738
68.5092
68.8219
69.0284
69.1573
69.2366
69.2669
69.2829
69.3083
69.3292
69.3374
69.3391
69.3485
69.3682
69.3846
69.3875
69.3855
69.3924
69.4038
69.4096
69.4065
69.4048
69.4092
69.4164
69.4247
69.4396
69.482
69.607
69.9317
70.3386
70.6079
70.7526
70.847
70.9094
70.9347
70.9454
70.9651
70.9867
70.9997
71.0022
71.0041
71.0185
71.0383
71.0509
71.0511
71.0495
71.0575
71.0681
71.0721
71.0682
71.0671
71.0726
71.0821
71.0968
71.125
71.2039
71.4273
71.8032
72.0978
72.2747
72.3623
72.4049
72.4497
72.4824
72.4956
72.4966
72.5004
72.5201
72.5415
72.5519
72.5506
72.5486
72.5571
72.5737
72.5861
72.5886
72.5833
72.5801
72.5831
72.5919
72.6019
72.6152
72.6469
72.741
73.0075
73.3827
73.6479
73.8102
73.8817
73.9087
73.9435
73.9727
73.9846
73.9844
73.9907
74.0016
74.0063
74.0061
74.0122
74.0302
74.0755
74.1769
74.3017
74.3749
74.4281
74.4672
74.4822
74.4851
74.4974
74.5143
74.5226
74.5217
74.5233
74.5336
74.5597
74.6249
74.7974
75.101
75.3449
75.5106
75.5921
75.616
75.6424
75.6732
75.6898
75.6853
75.6811
75.6951
75.731
75.8043
75.908
75.9775
76.0247
76.0727
76.1003
76.1035
76.1013
76.1149
76.135
76.1446
76.143
76.1454
76.1607
76.1978
76.2737
76.464
76.7556
76.9722
77.1243
77.2045
77.232
77.2588
77.2982
77.3286
77.3319
77.3243
77.3282
77.3432
77.3542
77.3573
77.3656
77.3933
77.4704
77.6458
77.8407
77.9502
78.0232
78.0814
78.1048
78.106
78.1119
78.1341
78.154
78.1587
78.1579
78.1691
78.2051
78.2923
78.4693
78.6321
78.721
78.7997
78.8397
78.8453
78.8481
78.868
78.9042
78.9612
79.0732
79.2045
79.3106
79.3881
79.4179
79.4223
79.4418
79.4694
79.4814
79.48
79.4854
79.5141
79.5942
79.7576
79.9276
80.0214
80.0954
80.1587
80.1888
80.1901
80.1886
80.2095
80.2402
80.257
80.2541
80.257
80.2725
80.2917
80.3143
80.361
80.4987
80.7573
80.988
81.1252
81.1882
81.2448
81.2872
81.3051
81.3085
81.3227
81.3469
81.361
81.3565
81.3528
81.3639
81.392
81.4469
81.5717
81.7413
81.8516
81.9426
81.9975
82.0116
82.0084
82.0198
82.0441
82.0728
82.108
82.1936
82.3594
82.5203
82.6413
82.6917
82.7026
82.7247
82.7601
82.7815
82.782
82.7868
82.81
82.8697
82.9967
83.1458
83.2345
83.3121
83.3661
83.385
83.3886
83.4072
83.4333
83.46
83.5011
83.5712
83.6529
83.7416
83.8179
83.8771
83.9375
84.0101
84.0933
84.1599
84.1912
84.2063
84.2345
84.2824
84.3387
84.3905
84.4489
84.5195
84.6075
84.6952
84.7572
84.7952
84.8329
84.8877
84.9444
84.9854
85.0153
85.0527
85.1136
85.1907
85.2604
85.3109
85.3571
85.4135
85.4782
85.5367
85.5842
85.6323
85.6964
85.7689
85.8294
85.8689
85.9042
85.949
86.009
86.0748
86.1367
86.1965
86.2603
86.3239
86.3771
86.4187
86.4583
86.505
86.562
86.624
86.6856
86.7479
86.8116
86.8708
86.9198
86.9629
87.0101
87.069
87.1317
87.1843
87.2259
87.2687
87.3345
87.4182
87.4895
87.5247
87.5513
87.593
87.6771
87.7627
87.8021
87.8204
87.8444
87.9253
88.0324
88.1078
88.1259
88.1391
88.1715
88.2667
88.3714
88.4293
88.4441
88.4599
88.5159
88.6174
88.7046
88.7305
88.7445
88.7739
88.8661
88.974
89.0401
89.0548
89.0682
89.1063
89.2078
89.3148
89.3704
89.3797
89.3892
89.4202
89.517
89.6385
89.7304
89.7555
89.7576
89.7705
89.8102
89.9125
90.02
90.0783
90.0929
90.1087
90.1605
90.2698
90.3746
90.4211
90.4347
90.4515
90.5093
90.6001
90.6687
90.6889
90.7039
90.7478
90.859
90.9889
91.0796
91.1
91.081
91.0653
91.0801
91.1485
91.2807
91.4494
91.5577
91.5991
91.5931
91.5629
91.5661
91.5907
91.6751
91.8119
91.9319
91.9988
92.0109
92.0161
92.0355
92.1021
92.2145
92.3114
92.3426
92.3511
92.367
92.4246
92.5417
92.6522
92.7069
92.7108
92.7081
92.726
92.802
92.9379
93.0659
93.1401
93.1484
93.1198
93.108
93.1265
93.2064
93.3501
93.5246
93.6311
93.668
93.6551
93.6018
93.5868
93.6043
93.6717
93.8032
93.9977
94.1276
94.1944
94.2012
94.1658
94.1262
94.1334
94.1555
94.2194
94.3459
94.5357
94.6707
94.7439
94.7553
94.7349
94.7224
94.7402
94.7788
94.8812
95.001
95.0872
95.1115
95.1252
95.1512
95.2359
95.3434
95.4122
95.4287
95.4429
95.4756
95.5712
95.6824
95.7533
95.7729
95.7904
95.8357
95.9214
95.999
96.0283
96.0479
96.0913
96.1987
96.3118
96.3775
96.3875
96.3856
96.4015
96.4514
96.5638
96.6821
96.7558
96.7745
96.7891
96.8221
96.9169
97.0223
97.0772
97.0867
97.0951
97.1221
97.2121
97.3411
97.446
97.4853
97.4882
97.4909
97.5124
97.5806
97.698
97.8029
97.8468
97.8598
97.8765
97.9275
98.0288
98.1226
98.1541
98.1692
98.1947
98.2827
98.4115
98.5164
98.553
98.5425
98.5107
98.5176
98.5587
98.6696
98.8516
99.0113
99.0978
99.1169
99.0865
99.0171
99.0017
99.0204
99.0809
99.2082
99.4153
99.5807
99.6685
99.6894
99.6621
99.5914
99.5702
99.5878
99.6404
99.7599
99.9546
100.118
100.206
100.227
100.2
100.133
100.117
100.136
100.194
100.319
100.524
100.693
100.783
100.807
100.784
100.716
100.69
100.708
100.743
100.847
101.015
101.197
101.299
101.333
101.322
101.276
101.268
101.289
101.362
101.498
101.658
101.76
101.792
101.781
101.749
101.756
101.791
101.895
102.06
102.199
102.276
102.288
102.258
102.226
102.239
102.284
102.396
102.571
102.705
102.775
102.785
102.754
102.73
102.745
102.794
102.908
103.07
103.186
103.238
103.242
103.227
103.238
103.275
103.378
103.519
103.627
103.667
103.666
103.65
103.663
103.708
103.819
103.965
104.07
104.107
104.105
104.093
104.108
104.161
104.279
104.437
104.547
104.59
104.588
104.554
104.546
104.567
104.61
104.717
104.885
105.024
105.101
105.117
105.099
105.087
105.105
105.148
105.256
105.397
105.503
105.545
105.558
105.574
105.62
105.718
105.815
105.847
105.838
105.81
105.82
105.852
105.953
106.123
106.329
106.442
106.488
106.485
106.432
106.39
106.403
106.433
106.524
106.676
106.824
106.91
106.932
106.928
106.933
106.96
107.047
107.188
107.308
107.368
107.371
107.334
107.318
107.337
107.403
107.533
107.718
107.837
107.89
107.892
107.851
107.825
107.842
107.881
107.986
108.153
108.301
108.385
108.409
108.407
108.404
108.423
108.449
108.477
108.509
108.577
108.699
108.876
109.005
109.073
109.084
109.053
109.013
109.023
109.054
109.149
109.306
109.461
109.55
109.574
109.562
109.542
109.558
109.595
109.695
109.831
109.936
109.975
109.979
109.979
110.001
110.067
110.193
110.316
110.385
110.396
110.378
110.38
110.406
110.495
110.646
110.803
110.893
110.918
110.9
110.857
110.858
110.882
110.951
111.08
111.235
111.336
111.371
111.383
111.399
111.437
111.528
111.625
111.663
111.657
111.629
111.639
111.683
111.796
111.993
112.202
112.309
112.347
112.339
112.265
112.198
112.205
112.231
112.311
112.456
112.665
112.792
112.852
112.859
112.817
112.761
112.765
112.789
112.857
112.989
113.201
113.362
113.447
113.473
113.463
113.421
113.408
113.427
113.454
113.483
113.534
113.647
113.832
114.02
114.12
114.154
114.144
114.063
113.98
113.979
114.003
114.066
114.196
114.424
114.646
114.754
114.794
114.789
114.713
114.618
114.611
114.634
114.697
114.828
115.056
115.266
115.369
115.405
115.395
115.312
115.223
115.221
115.244
115.311
115.445
115.673
115.864
115.96
115.99
115.976
115.902
115.854
115.869
115.901
115.994
116.155
116.355
116.469
116.513
116.513
116.458
116.406
116.416
116.444
116.524
116.67
116.886
117.02
117.085
117.097
117.066
117.024
117.033
117.059
117.129
117.26
117.404
117.493
117.519
117.513
117.509
117.531
117.592
117.718
117.87
117.967
117.999
117.989
117.952
117.957
117.985
118.072
118.224
118.399
118.5
118.534
118.527
118.484
118.476
118.499
118.559
118.682
118.847
118.957
119.001
119.004
118.981
118.989
119.016
119.097
119.239
119.388
119.476
119.502
119.497
119.485
119.504
119.533
119.6
119.71
119.806
119.844
119.868
119.922
120.034
120.145
120.199
120.21
120.208
120.228
120.263
120.353
120.465
120.536
120.561
120.584
120.636
120.744
120.851
120.897
120.903
120.896
120.915
120.972
121.095
121.284
121.41
121.469
121.476
121.425
121.348
121.345
121.37
121.434
121.563
121.772
121.923
122
122.02
122.001
121.966
121.977
122.006
122.083
122.22
122.358
122.437
122.459
122.449
122.444
122.467
122.524
122.645
122.795
122.894
122.927
122.923
122.903
122.918
122.955
123.053
123.209
123.34
123.406
123.419
123.395
123.378
123.398
123.448
123.561
123.734
123.86
123.921
123.931
123.9
123.876
123.896
123.937
124.041
124.203
124.33
124.393
124.404
124.38
124.369
124.391
124.45
124.572
124.756
124.88
124.936
124.943
124.899
124.851
124.864
124.897
124.991
125.156
125.366
125.482
125.529
125.532
125.472
125.397
125.398
125.424
125.493
125.627
125.85
126.015
126.097
126.12
126.098
126.018
125.983
126.003
126.037
126.133
126.298
126.538
126.674
126.739
126.754
126.722
126.636
126.605
126.624
126.654
126.703
126.814
126.998
127.173
127.267
127.299
127.296
127.271
127.281
127.309
127.384
127.52
127.661
127.741
127.763
127.744
127.704
127.714
127.743
127.826
127.973
128.155
128.262
128.302
128.305
128.274
128.271
128.296
128.347
128.46
128.604
128.703
128.738
128.741
128.737
128.758
128.806
128.917
129.068
129.176
129.217
129.219
129.189
129.194
129.221
129.299
129.441
129.615
129.719
129.756
129.752
129.695
129.663
129.683
129.722
129.824
130
130.204
130.312
130.354
130.358
130.311
130.27
130.285
130.314
130.38
130.507
130.672
130.78
130.822
130.834
130.837
130.86
130.901
130.984
131.074
131.113
131.125
131.132
131.156
131.223
131.354
131.535
131.65
131.695
131.699
131.649
131.611
131.629
131.665
131.763
131.934
132.141
132.252
132.295
132.298
132.24
132.173
132.178
132.206
132.274
132.406
132.617
132.763
132.835
132.854
132.83
132.777
132.779
132.806
132.872
133.003
133.208
133.344
133.409
133.425
133.39
133.315
133.305
133.33
133.38
133.493
133.686
133.859
133.947
133.976
133.967
133.912
133.896
133.92
133.962
134.065
134.237
134.4
134.487
134.516
134.509
134.47
134.47
134.498
134.539
134.64
134.784
134.899
134.95
134.969
134.982
135.009
135.064
135.174
135.287
135.343
135.36
135.36
135.38
135.414
135.5
135.625
135.725
135.763
135.774
135.786
135.814
135.879
136.005
136.136
136.211
136.233
136.222
136.211
136.234
136.272
136.365
136.517
136.651
136.722
136.748
136.766
136.794
136.832
136.878
136.917
136.948
136.977
137.008
137.064
137.181
137.342
137.454
137.5
137.508
137.481
137.481
137.508
137.575
137.706
137.892
138.01
138.059
138.065
138.004
137.899
137.882
137.907
137.959
138.075
138.288
138.572
138.711
138.775
138.792
138.756
138.631
138.549
138.557
138.586
138.643
138.765
138.984
139.239
139.36
139.413
139.427
139.387
139.29
139.26
139.282
139.313
139.377
139.502
139.7
139.842
139.913
139.936
139.933
139.931
139.957
139.992
140.064
140.155
140.212
140.239
140.262
140.292
140.369
140.512
140.691
140.796
140.835
140.834
140.766
140.697
140.705
140.735
140.804
140.94
141.18
141.374
141.467
141.5
141.495
141.419
141.325
141.321
141.35
141.387
141.478
141.636
141.857
141.984
142.042
142.06
142.046
142.032
142.054
142.086
142.146
142.253
142.354
142.395
142.413
142.432
142.464
142.543
142.683
142.817
142.889
142.911
142.897
142.876
142.896
142.928
143.007
143.146
143.289
143.37
143.398
143.404
143.416
143.445
143.504
143.62
143.742
143.808
143.826
143.803
143.773
143.792
143.829
143.924
144.092
144.302
144.416
144.462
144.472
144.424
144.353
144.354
144.383
144.43
144.536
144.716
144.885
144.972
145.003
145.003
144.979
144.991
145.021
145.084
145.208
145.356
145.446
145.478
145.47
145.409
145.383
145.407
145.446
145.545
145.721
145.98
146.122
146.188
146.208
146.18
146.079
146.026
146.043
146.075
146.14
146.269
146.488
146.657
146.739
146.768
146.759
146.695
146.666
146.689
146.724
146.808
146.96
147.159
147.275
147.322
147.334
147.295
147.251
147.266
147.298
147.37
147.507
147.705
147.828
147.881
147.895
147.851
147.762
147.75
147.777
147.824
147.933
148.128
148.384
148.512
148.568
148.584
148.546
148.428
148.372
148.389
148.421
148.488
148.618
148.854
149.064
149.164
149.202
149.207
149.153
149.087
149.093
149.124
149.173
149.282
149.467
149.633
149.717
149.748
149.742
149.688
149.669
149.695
149.732
149.823
149.982
150.171
150.275
150.316
150.323
150.278
150.234
150.25
150.282
150.339
150.454
150.637
150.77
150.835
150.858
150.856
150.857
150.886
150.924
151.01
151.133
151.227
151.264
151.271
151.262
151.284
151.319
151.403
151.551
151.698
151.777
151.806
151.805
151.789
151.808
151.841
151.908
152.034
152.173
152.254
152.284
152.285
152.278
152.303
152.339
152.421
152.563
152.702
152.776
152.803
152.805
152.807
152.835
152.873
152.948
153.042
153.097
153.12
153.122
153.137
153.169
153.24
153.377
153.585
153.716
153.776
153.797
153.774
153.72
153.722
153.753
153.796
153.895
154.059
154.21
154.287
154.316
154.313
154.284
154.295
154.326
154.377
154.485
154.638
154.748
154.794
154.811
154.806
154.826
154.86
154.939
155.084
155.257
155.354
155.391
155.392
155.32
155.216
155.207
155.236
155.274
155.362
155.519
155.78
155.948
156.028
156.058
156.056
156.012
156.001
156.029
156.066
156.145
156.286
156.425
156.499
156.525
156.509
156.434
156.409
156.435
156.474
156.566
156.734
157.005
157.166
157.241
157.269
157.26
157.175
157.096
157.103
157.136
157.174
157.261
157.414
157.628
157.751
157.806
157.828
157.816
157.796
157.816
157.851
157.896
157.994
158.113
158.188
158.217
158.229
158.25
158.284
158.36
158.502
158.672
158.77
158.807
158.812
158.759
158.711
158.727
158.761
158.818
158.934
159.138
159.319
159.408
159.444
159.452
159.41
159.367
159.381
159.414
159.449
159.486
159.528
159.619
159.776
159.993
160.116
160.171
160.192
160.17
160.104
160.096
160.125
160.162
160.242
160.387
160.582
160.698
160.746
160.764
160.732
160.677
160.684
160.717
160.763
160.867
161.047
161.225
161.316
161.352
161.358
161.316
161.29
161.314
161.348
161.406
161.522
161.687
161.8
161.849
161.868
161.864
161.877
161.91
161.959
162.066
162.212
162.315
162.357
162.369
162.345
162.344
162.375
162.419
162.519
162.686
162.83
162.902
162.929
162.918
162.86
162.849
162.878
162.918
163.008
163.17
163.414
163.553
163.617
163.643
163.631
163.548
163.484
163.496
163.529
163.566
163.606
163.689
163.835
164.064
164.21
164.279
164.307
164.305
164.261
164.252
164.281
164.317
164.372
164.483
164.625
164.719
164.757
164.774
164.785
164.816
164.859
164.954
165.1
165.217
165.268
165.286
165.254
165.197
165.205
165.238
165.29
165.4
165.597
165.803
165.903
165.945
165.959
165.926
165.884
165.899
165.934
165.978
166.073
166.223
166.346
166.404
166.427
166.416
166.402
166.429
166.466
166.548
166.698
166.896
167.007
167.054
167.069
167.026
166.922
166.898
166.926
166.963
167.04
167.183
167.438
167.626
167.712
167.747
167.753
167.694
167.614
167.616
167.65
167.689
167.774
167.926
168.147
168.274
168.332
168.356
168.341
168.285
168.281
168.313
168.351
168.428
168.567
168.73
168.822
168.86
168.87
168.839
168.83
168.861
168.901
168.991
169.153
169.355
169.463
169.508
169.523
169.478
169.366
169.337
169.364
169.401
169.476
169.618
169.893
170.166
170.283
170.334
170.355
170.327
170.184
170.01
169.984
170.009
170.046
170.085
170.16
170.297
170.558
170.847
170.972
171.029
171.055
171.041
170.948
170.871
170.881
170.916
170.955
171.034
171.177
171.399
171.535
171.598
171.625
171.617
171.557
171.541
171.57
171.607
171.671
171.794
171.987
172.117
172.178
172.205
172.196
172.156
172.162
172.197
172.237
172.322
172.471
172.634
172.723
172.761
172.773
172.747
172.743
172.774
172.812
172.876
172.997
173.141
173.227
173.264
173.276
173.269
173.289
173.325
173.378
173.486
173.65
173.773
173.829
173.855
173.85
173.82
173.833
173.867
173.905
173.947
174.024
174.164
174.386
174.53
174.598
174.629
174.63
174.569
174.506
174.517
174.552
174.589
174.627
174.667
174.716
174.818
174.994
175.21
175.322
175.371
175.396
175.381
175.333
175.338
175.372
175.41
175.476
175.6
175.762
175.863
175.907
175.928
175.918
175.923
175.956
175.995
176.065
176.19
176.313
176.377
176.406
176.409
176.41
176.441
176.48
176.554
176.689
176.835
176.915
176.95
176.958
176.932
176.94
176.975
177.018
177.109
177.268
177.428
177.511
177.547
177.555
177.518
177.502
177.531
177.568
177.629
177.747
177.916
178.029
178.078
178.102
178.084
178.049
178.067
178.104
178.151
178.251
178.425
178.592
178.675
178.712
178.724
178.697
178.69
178.722
178.76
178.823
178.944
179.099
179.194
179.235
179.252
179.228
179.215
179.245
179.283
179.351
179.479
179.67
179.791
179.846
179.872
179.858
179.803
179.802
179.835
179.874
179.944
180.075
180.275
180.404
180.464
180.494
180.493
180.464
180.475
180.51
180.55
180.612
180.722
180.833
180.888
180.915
180.913
180.915
180.947
180.987
181.065
181.209
181.399
181.507
181.555
181.579
181.568
181.55
181.576
181.614
181.662
181.759
181.903
182.012
182.061
182.084
182.069
182.043
182.066
182.103
182.153
182.255
182.43
182.587
182.664
182.7
182.713
182.691
182.692
182.725
182.765
182.816
182.918
183.055
183.151
183.195
183.223
183.249
183.286
183.331
183.421
183.54
183.615
183.65
183.657
183.622
183.619
183.652
183.691
183.752
183.868
184.043
184.167
184.224
184.257
184.283
184.319
184.361
184.418
184.483
184.529
184.565
184.589
184.61
184.647
184.688
184.765
184.902
185.042
185.115
185.15
185.162
185.159
185.184
185.223
185.274
185.378
185.52
185.619
185.663
185.683
185.666
185.656
185.687
185.726
185.793
185.92
186.125
186.261
186.324
186.355
186.355
186.292
186.254
186.277
186.316
186.358
186.433
186.568
186.727
186.816
186.857
186.879
186.883
186.906
186.944
186.992
187.087
187.231
187.344
187.396
187.422
187.412
187.386
187.407
187.445
187.495
187.597
187.772
187.932
188.01
188.047
188.057
188.014
187.979
188.002
188.041
188.089
188.187
188.362
188.55
188.643
188.686
188.706
188.678
188.626
188.638
188.675
188.717
188.798
188.944
189.139
189.248
189.297
189.322
189.299
189.203
189.163
189.189
189.228
189.279
189.383
189.574
189.842
189.975
190.036
190.068
190.069
190.002
189.944
189.962
190
190.042
190.118
190.257
190.454
190.57
190.622
190.65
190.638
190.558
190.522
190.549
190.588
190.637
190.735
190.913
191.141
191.257
191.309
191.338
191.332
191.27
191.252
191.282
191.323
191.372
191.469
191.635
191.79
191.867
191.904
191.917
191.883
191.862
191.89
191.93
191.984
192.09
192.28
192.458
192.543
192.583
192.599
192.559
192.466
192.455
192.488
192.528
192.584
192.692
192.893
193.135
193.251
193.304
193.336
193.336
193.286
193.266
193.295
193.334
193.376
193.422
193.49
193.574
193.633
193.674
193.714
193.758
193.836
193.972
194.104
194.171
194.206
194.216
194.197
194.211
194.249
194.292
194.372
194.515
194.682
194.771
194.813
194.832
194.8
194.736
194.743
194.781
194.822
194.895
195.03
195.271
195.45
195.531
195.571
195.591
195.559
195.472
195.458
195.49
195.531
195.573
195.634
195.746
195.903
196.008
196.056
196.089
196.111
196.145
196.185
196.241
196.346
196.48
196.562
196.602
196.619
196.595
196.586
196.619
196.659
196.717
196.827
197.009
197.148
197.213
197.248
197.258
197.22
197.208
197.24
197.281
197.331
197.427
197.593
197.747
197.823
197.861
197.879
197.85
197.823
197.849
197.889
197.932
198.007
198.142
198.33
198.441
198.493
198.525
198.532
198.509
198.522
198.559
198.6
198.641
198.683
198.727
198.79
198.904
199.08
199.203
199.259
199.292
199.294
199.229
199.18
199.202
199.242
199.286
199.368
199.518
199.776
199.943
200.018
200.057
200.074
200.036
199.948
199.939
199.973
200.015
200.062
200.152
200.311
200.498
200.595
200.641
200.669
200.663
200.633
200.652
200.691
200.734
200.8
200.921
201.082
201.179
201.226
201.253
201.243
201.208
201.225
201.264
201.307
201.376
201.503
201.698
201.824
201.883
201.918
201.929
201.902
201.906
201.941
201.983
202.029
202.11
202.242
202.361
202.42
202.456
202.474
202.485
202.52
202.562
202.61
202.698
202.817
202.896
202.937
202.961
202.964
202.987
203.027
203.07
203.137
203.258
203.413
203.505
203.55
203.582
203.589
203.597
203.63
203.672
203.714
203.756
203.8
203.849
203.938
204.092
204.25
204.331
204.373
204.396
204.372
204.31
204.315
204.352
204.395
204.449
204.551
204.729
204.891
204.969
205.011
205.035
205.022
205.01
205.041
205.082
205.127
205.201
205.33
205.471
205.545
205.586
205.608
205.6
205.611
205.649
205.692
205.75
205.858
206.018
206.128
206.18
206.214
206.218
206.19
206.202
206.241
206.284
206.336
206.434
206.588
206.71
206.768
206.805
206.823
206.825
206.853
206.895
206.938
206.997
207.1
207.211
207.269
207.308
207.34
207.378
207.42
207.475
207.569
207.672
207.726
207.761
207.769
207.758
207.783
207.824
207.87
207.948
208.09
208.272
208.372
208.421
208.455
208.465
208.464
208.495
208.536
208.58
208.627
208.683
208.736
208.781
208.824
208.867
208.911
208.971
209.078
209.222
209.314
209.361
209.395
209.422
209.459
209.502
209.553
209.617
209.675
209.719
209.756
209.778
209.789
209.824
209.866
209.917
210.01
210.176
210.35
210.436
210.481
210.512
210.514
210.502
210.528
210.569
210.612
210.656
210.701
210.748
210.799
210.854
210.911
210.982
211.092
211.246
211.356
211.409
211.447
211.463
211.441
211.439
211.474
211.517
211.562
211.632
211.756
211.903
211.986
212.03
212.061
212.072
212.091
212.131
212.174
212.221
212.292
212.39
212.462
212.506
212.548
212.591
212.638
212.715
212.833
212.924
212.969
212.999
212.991
212.952
212.966
213.006
213.05
213.108
213.215
213.404
213.569
213.648
213.691
213.722
213.727
213.732
213.767
213.809
213.854
213.901
213.958
214.014
214.062
214.107
214.152
214.2
214.277
214.4
214.508
214.562
214.6
214.62
214.632
214.668
214.711
214.758
214.836
214.961
215.071
215.126
215.163
215.18
215.184
215.216
215.259
215.305
215.375
215.498
215.624
215.691
215.731
215.756
215.761
215.789
215.831
215.877
215.949
216.08
216.257
216.36
216.409
216.445
216.45
216.391
216.34
216.362
216.403
216.447
216.491
216.535
216.58
216.63
216.716
216.868
217.097
217.227
217.288
217.328
217.35
217.323
217.268
217.282
217.322
217.366
217.415
217.5
217.65
217.825
217.916
217.963
217.997
218.004
217.991
218.017
218.059
218.104
218.161
218.263
218.397
218.478
218.523
218.551
218.537
218.475
218.477
218.515
218.56
218.614
218.714
218.901
219.138
219.251
219.305
219.343
219.357
219.311
219.252
219.27
219.31
219.355
219.408
219.504
219.676
219.859
219.947
219.994
220.027
220.026
219.958
219.919
219.946
219.989
220.034
220.089
220.188
220.368
220.567
220.663
220.712
220.75
220.768
220.753
220.763
220.802
220.846
220.89
220.935
220.979
221.024
221.068
221.114
221.167
221.258
221.405
221.53
221.591
221.633
221.66
221.665
221.689
221.731
221.776
221.83
221.929
222.089
222.218
222.281
222.322
222.344
222.314
222.226
222.216
222.25
222.294
222.339
222.385
222.436
222.521
222.674
222.898
223.023
223.082
223.123
223.148
223.13
223.098
223.122
223.165
223.21
223.263
223.356
223.519
223.677
223.755
223.799
223.831
223.83
223.794
223.807
223.847
223.893
223.942
224.022
224.162
224.31
224.386
224.431
224.463
224.46
224.419
224.43
224.47
224.515
224.562
224.63
224.751
224.937
225.059
225.118
225.162
225.197
225.218
225.24
225.277
225.318
225.358
225.393
225.424
225.464
225.509
225.554
225.601
225.662
225.767
225.929
226.044
226.1
226.141
226.165
226.155
226.159
226.196
226.241
226.288
226.348
226.452
226.591
226.678
226.725
226.763
226.788
226.817
226.861
226.907
226.96
227.042
227.136
227.192
227.235
227.264
227.271
227.297
227.34
227.386
227.449
227.562
227.757
227.902
227.97
228.013
228.042
228.028
227.932
227.883
227.909
227.952
227.997
228.043
228.094
228.175
228.321
228.571
228.733
228.806
228.851
228.885
228.887
228.821
228.78
228.808
228.852
228.898
228.949
229.033
229.184
229.371
229.468
229.518
229.558
229.578
229.555
229.546
229.58
229.625
229.671
229.721
229.798
229.923
230.036
230.094
230.137
230.171
230.204
230.248
230.294
230.346
230.428
230.527
230.587
230.63
230.659
230.649
230.634
230.666
230.711
230.759
230.83
230.957
231.176
231.324
231.392
231.436
231.467
231.459
231.387
231.368
231.403
231.448
231.495
231.554
231.658
231.842
232.001
232.076
232.122
232.158
232.169
232.153
232.176
232.219
232.265
232.315
232.393
232.527
232.663
232.733
232.778
232.811
232.809
232.741
232.714
232.745
232.789
232.835
232.882
232.931
232.996
233.109
233.319
233.519
233.608
233.658
233.699
233.723
233.703
233.678
233.707
233.751
233.797
233.845
233.898
233.986
234.109
234.194
234.242
234.284
234.318
234.358
234.404
234.451
234.51
234.592
234.667
234.717
234.761
234.795
234.819
234.858
234.904
234.952
235.017
235.131
235.279
235.364
235.413
235.452
235.47
235.456
235.474
235.516
235.562
235.611
235.676
235.787
235.92
235.995
236.042
236.081
236.102
236.123
236.164
236.211
236.259
236.319
236.417
236.521
236.578
236.622
236.656
236.678
236.714
236.76
236.808
236.865
236.962
237.092
237.173
237.221
237.261
237.279
237.274
237.302
237.346
237.393
237.444
237.523
237.652
237.767
237.827
237.871
237.904
237.913
237.932
237.974
238.021
238.069
238.137
238.252
238.391
238.467
238.515
238.554
238.571
238.561
238.584
238.627
238.674
238.722
238.782
238.881
239.011
239.091
239.14
239.184
239.226
239.273
239.321
239.376
239.468
239.587
239.66
239.707
239.744
239.751
239.689
239.642
239.668
239.712
239.759
239.807
239.859
239.941
240.085
240.33
240.482
240.553
240.6
240.64
240.661