/*--------------------------------*- C++ -*----------------------------------*\
  =========                 |
  \\      /  F ield         | OpenFOAM: The Open Source CFD Toolbox
   \\    /   O peration     | Website:  https://openfoam.org
    \\  /    A nd           | Version:  9
     \\/     M anipulation  |
\*---------------------------------------------------------------------------*/
FoamFile
{
    format      ascii;
    class       volScalarField;
    location    "0.015";
    object      T;
}
// * * * * * * * * * * * * * * * * * * * * * * * * * * * * * * * * * * * * * //

dimensions      [0 0 0 1 0 0 0];

internalField   nonuniform List<scalar> 
10000
(
335.885
335.88
335.878
335.876
335.875
335.874
335.873
335.872
335.87
335.869
335.869
335.869
335.869
335.868
335.865
335.861
335.852
335.828
335.759
335.585
335.397
335.285
335.224
335.189
335.168
335.156
335.147
335.14
335.134
335.129
335.124
335.119
335.114
335.109
335.105
335.101
335.097
335.094
335.091
335.088
335.084
335.082
335.08
335.079
335.077
335.075
335.072
335.072
335.071
335.069
335.067
335.065
335.064
335.064
335.064
335.065
335.065
335.063
335.057
335.037
334.98
334.821
334.607
334.468
334.391
334.346
334.32
334.302
334.288
334.279
334.274
334.271
334.266
334.26
334.255
334.255
334.257
334.257
334.253
334.248
334.243
334.241
334.241
334.243
334.246
334.247
334.246
334.244
334.243
334.239
334.228
334.193
334.095
333.951
333.854
333.8
333.77
333.755
333.745
333.735
333.727
333.723
333.721
333.719
333.714
333.708
333.704
333.701
333.701
333.702
333.7
333.697
333.692
333.69
333.691
333.693
333.696
333.697
333.696
333.694
333.69
333.676
333.636
333.522
333.341
333.212
333.14
333.099
333.076
333.063
333.055
333.049
333.044
333.042
333.041
333.038
333.034
333.031
333.03
333.032
333.034
333.033
333.03
333.025
333.023
333.024
333.025
333.026
333.021
333.006
332.956
332.829
332.682
332.594
332.549
332.526
332.512
332.501
332.491
332.482
332.477
332.474
332.473
332.471
332.468
332.465
332.462
332.46
332.459
332.458
332.459
332.458
332.457
332.457
332.458
332.458
332.456
332.448
332.424
332.353
332.205
332.076
332.003
331.963
331.939
331.922
331.91
331.903
331.901
331.9
331.894
331.886
331.88
331.878
331.881
331.885
331.883
331.878
331.866
331.855
331.854
331.856
331.861
331.87
331.869
331.854
331.808
331.684
331.553
331.473
331.431
331.413
331.405
331.401
331.396
331.39
331.384
331.38
331.38
331.382
331.383
331.384
331.382
331.379
331.371
331.349
331.282
331.184
331.115
331.076
331.056
331.047
331.037
331.027
331.022
331.02
331.023
331.022
331.018
331.012
331.011
331.013
331.018
331.02
331.014
330.999
330.953
330.854
330.741
330.673
330.644
330.629
330.607
330.587
330.566
330.554
330.549
330.554
330.569
330.579
330.579
330.574
330.563
330.55
330.547
330.549
330.553
330.558
330.553
330.525
330.437
330.302
330.206
330.153
330.126
330.116
330.113
330.108
330.098
330.088
330.081
330.078
330.079
330.077
330.073
330.071
330.074
330.075
330.076
330.074
330.073
330.07
330.059
330.024
329.926
329.802
329.72
329.677
329.657
329.645
329.63
329.618
329.611
329.611
329.614
329.61
329.603
329.595
329.593
329.597
329.603
329.606
329.605
329.599
329.592
329.58
329.54
329.444
329.337
329.266
329.221
329.196
329.189
329.189
329.186
329.176
329.164
329.157
329.155
329.16
329.161
329.162
329.161
329.163
329.162
329.158
329.131
329.063
328.954
328.872
328.822
328.799
328.793
328.799
328.805
328.797
328.783
328.762
328.748
328.744
328.749
328.768
328.788
328.793
328.789
328.767
328.733
328.664
328.55
328.456
328.414
328.402
328.395
328.375
328.355
328.333
328.32
328.314
328.319
328.332
328.337
328.333
328.325
328.31
328.303
328.304
328.31
328.321
328.326
328.323
328.312
328.285
328.21
328.076
327.967
327.905
327.867
327.845
327.833
327.823
327.813
327.805
327.802
327.804
327.805
327.799
327.79
327.78
327.776
327.778
327.786
327.79
327.792
327.79
327.781
327.778
327.769
327.753
327.695
327.572
327.457
327.382
327.334
327.308
327.299
327.299
327.3
327.29
327.278
327.266
327.26
327.261
327.269
327.272
327.268
327.259
327.247
327.245
327.249
327.259
327.27
327.271
327.26
327.236
327.177
327.058
326.934
326.865
326.835
326.818
326.794
326.773
326.753
326.743
326.742
326.752
326.764
326.764
326.757
326.744
326.729
326.724
326.725
326.734
326.742
326.745
326.744
326.74
326.73
326.705
326.629
326.5
326.399
326.341
326.311
326.295
326.28
326.265
326.257
326.253
326.255
326.253
326.247
326.239
326.234
326.233
326.237
326.237
326.234
326.231
326.234
326.239
326.245
326.242
326.221
326.178
326.065
325.927
325.836
325.791
325.778
325.778
325.766
325.748
325.726
325.703
325.695
325.692
325.702
325.724
325.733
325.73
325.721
325.701
325.678
325.673
325.673
325.681
325.703
325.714
325.717
325.711
325.687
325.658
325.597
325.47
325.33
325.25
325.211
325.187
325.159
325.136
325.115
325.104
325.103
325.111
325.122
325.121
325.114
325.102
325.089
325.084
325.083
325.088
325.093
325.092
325.088
325.084
325.085
325.087
325.089
325.083
325.068
325.019
324.902
324.766
324.679
324.63
324.6
324.575
324.558
324.55
324.552
324.552
324.546
324.535
324.521
324.514
324.511
324.516
324.532
324.541
324.539
324.532
324.515
324.494
324.49
324.493
324.499
324.511
324.514
324.484
324.399
324.258
324.141
324.063
324.02
324.002
324.001
324.016
324.035
324.035
324.027
324.009
323.979
323.961
323.956
323.957
323.967
323.993
324.006
324.007
324.004
323.991
323.962
323.945
323.915
323.854
323.741
323.659
323.619
323.596
323.57
323.548
323.529
323.515
323.509
323.508
323.517
323.525
323.525
323.521
323.515
323.512
323.509
323.505
323.502
323.498
323.489
323.46
323.378
323.265
323.185
323.142
323.121
323.101
323.09
323.086
323.084
323.078
323.071
323.067
323.067
323.066
323.061
323.056
323.054
323.055
323.054
323.051
323.049
323.049
323.049
323.048
323.041
323.024
322.979
322.864
322.72
322.623
322.563
322.533
322.519
322.506
322.496
322.491
322.49
322.485
322.478
322.472
322.469
322.471
322.468
322.463
322.459
322.457
322.459
322.457
322.455
322.453
322.453
322.453
322.449
322.438
322.406
322.324
322.19
322.088
322.03
321.992
321.968
321.96
321.958
321.95
321.942
321.935
321.933
321.935
321.931
321.924
321.919
321.916
321.918
321.919
321.916
321.913
321.91
321.91
321.911
321.91
321.905
321.89
321.852
321.755
321.624
321.534
321.487
321.452
321.43
321.422
321.421
321.416
321.41
321.406
321.406
321.405
321.402
321.398
321.394
321.383
321.349
321.302
321.266
321.248
321.243
321.234
321.228
321.225
321.227
321.225
321.222
321.218
321.213
321.206
321.183
321.119
321.006
320.917
320.873
320.847
320.825
320.814
320.814
320.81
320.803
320.796
320.791
320.785
320.766
320.73
320.695
320.676
320.672
320.665
320.655
320.646
320.642
320.645
320.643
320.639
320.635
320.632
320.624
320.6
320.529
320.417
320.332
320.29
320.265
320.244
320.232
320.233
320.231
320.223
320.213
320.208
320.209
320.209
320.205
320.199
320.19
320.167
320.109
320.041
319.989
319.963
319.955
319.944
319.933
319.925
319.926
319.928
319.924
319.919
319.913
319.903
319.877
319.814
319.749
319.708
319.694
319.685
319.674
319.666
319.663
319.657
319.638
319.593
319.538
319.506
319.493
319.476
319.463
319.456
319.458
319.454
319.446
319.437
319.426
319.405
319.355
319.296
319.25
319.227
319.221
319.208
319.193
319.181
319.175
319.179
319.176
319.17
319.166
319.167
319.167
319.159
319.137
319.081
318.985
318.91
318.863
318.831
318.817
318.811
318.801
318.792
318.786
318.787
318.785
318.78
318.775
318.771
318.767
318.752
318.706
318.639
318.59
318.571
318.564
318.551
318.54
318.535
318.536
318.531
318.516
318.478
318.413
318.36
318.334
318.31
318.291
318.28
318.283
318.28
318.273
318.266
318.257
318.241
318.2
318.143
318.099
318.08
318.073
318.061
318.051
318.046
318.045
318.036
318.014
317.981
317.951
317.933
317.914
317.888
317.856
317.826
317.806
317.791
317.772
317.755
317.743
317.739
317.729
317.706
317.674
317.641
317.616
317.599
317.578
317.553
317.533
317.52
317.511
317.494
317.472
317.451
317.433
317.42
317.402
317.377
317.351
317.329
317.312
317.292
317.27
317.249
317.233
317.221
317.203
317.178
317.152
317.129
317.111
317.095
317.077
317.059
317.042
317.026
317.005
316.98
316.955
316.933
316.914
316.897
316.88
316.864
316.848
316.83
316.808
316.785
316.763
316.745
316.728
316.708
316.684
316.661
316.645
316.637
316.623
316.595
316.567
316.543
316.534
316.526
316.499
316.467
316.44
316.425
316.429
316.413
316.38
316.347
316.321
316.313
316.315
316.293
316.259
316.229
316.208
316.208
316.197
316.166
316.133
316.107
316.097
316.101
316.08
316.046
316.014
315.989
315.984
315.986
315.962
315.927
315.892
315.866
315.857
315.866
315.856
315.825
315.786
315.754
315.73
315.725
315.728
315.705
315.671
315.641
315.618
315.618
315.618
315.592
315.557
315.528
315.506
315.502
315.484
315.452
315.42
315.396
315.393
315.406
315.395
315.362
315.316
315.271
315.242
315.222
315.23
315.252
315.252
315.224
315.183
315.133
315.095
315.069
315.055
315.064
315.072
315.051
315.017
314.979
314.951
314.931
314.935
314.928
314.898
314.861
314.832
314.81
314.812
314.815
314.79
314.753
314.713
314.684
314.667
314.675
314.687
314.668
314.632
314.583
314.54
314.512
314.495
314.507
314.532
314.53
314.5
314.458
314.399
314.355
314.326
314.306
314.314
314.342
314.354
314.333
314.296
314.245
314.191
314.155
314.127
314.107
314.112
314.139
314.153
314.134
314.099
314.052
314.009
313.978
313.954
313.947
313.955
313.943
313.912
313.878
313.851
313.838
313.841
313.822
313.788
313.755
313.73
313.721
313.726
313.707
313.675
313.644
313.619
313.612
313.599
313.569
313.539
313.515
313.512
313.517
313.496
313.461
313.421
313.391
313.368
313.366
313.374
313.356
313.324
313.291
313.265
313.257
313.258
313.234
313.199
313.163
313.137
313.125
313.134
313.132
313.104
313.066
313.028
313
312.981
312.985
312.984
312.957
312.923
312.893
312.869
312.868
312.86
312.831
312.797
312.77
312.758
312.767
312.765
312.735
312.693
312.642
312.608
312.584
312.581
312.605
312.628
312.615
312.581
312.532
312.468
312.424
312.396
312.374
312.38
312.412
312.437
312.425
312.392
312.344
312.279
312.233
312.204
312.181
312.182
312.211
312.235
312.223
312.19
312.142
312.079
312.034
312.006
311.984
311.988
312.02
312.046
312.035
312.003
311.956
311.892
311.845
311.814
311.789
311.782
311.802
311.831
311.826
311.796
311.754
311.698
311.657
311.63
311.612
311.62
311.641
311.636
311.606
311.563
311.513
311.478
311.453
311.447
311.465
311.481
311.464
311.429
311.379
311.329
311.297
311.273
311.272
311.293
311.307
311.287
311.252
311.202
311.154
311.124
311.1
311.1
311.119
311.124
311.098
311.061
311.017
310.984
310.959
310.952
310.965
310.965
310.936
310.898
310.853
310.821
310.797
310.795
310.81
310.807
310.779
310.739
310.696
310.666
310.643
310.644
310.663
310.663
310.635
310.596
310.544
310.503
310.474
310.45
310.446
310.465
310.481
310.463
310.43
310.385
310.341
310.311
310.287
310.283
310.297
310.295
310.268
310.233
310.203
310.179
310.176
310.169
310.139
310.097
310.048
310.014
309.989
309.98
310.002
310.037
310.039
310.012
309.973
309.915
309.861
309.828
309.803
309.791
309.805
309.824
309.811
309.779
309.738
309.702
309.676
309.664
309.674
309.682
309.658
309.621
309.569
309.525
309.497
309.477
309.484
309.51
309.516
309.491
309.454
309.4
309.352
309.321
309.297
309.292
309.311
309.33
309.316
309.285
309.245
309.205
309.173
309.143
309.115
309.09
309.071
309.075
309.098
309.109
309.089
309.054
309.004
308.951
308.917
308.892
308.882
308.898
308.919
308.907
308.876
308.833
308.787
308.756
308.731
308.724
308.736
308.733
308.705
308.668
308.63
308.602
308.583
308.588
308.597
308.577
308.543
308.498
308.46
308.434
308.422
308.436
308.457
308.446
308.414
308.37
308.315
308.278
308.251
308.232
308.238
308.258
308.253
308.224
308.189
308.158
308.133
308.126
308.121
308.092
308.052
308.004
307.971
307.947
307.945
307.975
308.013
308.011
307.982
307.941
307.876
307.814
307.778
307.752
307.737
307.75
307.784
307.793
307.77
307.734
307.681
307.622
307.586
307.559
307.54
307.547
307.582
307.605
307.592
307.56
307.519
307.465
307.421
307.39
307.361
307.334
307.312
307.31
307.337
307.368
307.362
307.332
307.29
307.223
307.155
307.117
307.09
307.07
307.076
307.116
307.158
307.157
307.129
307.089
307.023
306.951
306.911
306.884
306.863
306.87
306.91
306.949
306.945
306.915
306.874
306.806
306.736
306.697
306.67
306.651
306.659
306.699
306.732
306.723
306.693
306.65
306.585
306.53
306.497
306.473
306.462
306.48
306.513
306.515
306.488
306.45
306.391
306.334
306.3
306.275
306.259
306.272
306.308
306.321
306.3
306.266
306.216
306.162
306.127
306.101
306.083
306.089
306.106
306.095
306.064
306.024
305.983
305.956
305.935
305.939
305.958
305.951
305.921
305.88
305.828
305.792
305.766
305.753
305.767
305.794
305.788
305.759
305.719
305.664
305.624
305.597
305.576
305.579
305.6
305.601
305.574
305.537
305.49
305.455
305.429
305.414
305.425
305.443
305.431
305.4
305.36
305.317
305.286
305.26
305.242
305.244
305.238
305.211
305.183
305.162
305.162
305.164
305.14
305.106
305.067
305.036
305.012
305.002
305.006
304.988
304.958
304.93
304.908
304.908
304.907
304.881
304.845
304.804
304.775
304.754
304.758
304.785
304.794
304.771
304.735
304.679
304.613
304.574
304.548
304.528
304.534
304.567
304.586
304.57
304.538
304.493
304.442
304.408
304.382
304.367
304.375
304.39
304.374
304.343
304.301
304.261
304.233
304.212
304.214
304.232
304.225
304.196
304.157
304.111
304.079
304.055
304.047
304.063
304.074
304.054
304.02
303.973
303.928
303.9
303.877
303.876
303.898
303.907
303.885
303.85
303.801
303.754
303.724
303.701
303.696
303.713
303.723
303.701
303.668
303.62
303.578
303.551
303.529
303.533
303.559
303.566
303.543
303.507
303.453
303.398
303.365
303.34
303.33
303.349
303.386
303.388
303.362
303.325
303.266
303.201
303.163
303.137
303.119
303.127
303.165
303.189
303.174
303.143
303.098
303.03
302.98
302.949
302.925
302.915
302.936
302.98
302.993
302.972
302.938
302.889
302.82
302.771
302.74
302.713
302.691
302.689
302.714
302.741
302.732
302.703
302.664
302.616
302.582
302.557
302.54
302.548
302.564
302.548
302.517
302.472
302.42
302.385
302.36
302.346
302.359
302.386
302.384
302.357
302.32
302.27
302.231
302.204
302.182
302.181
302.196
302.19
302.162
302.125
302.085
302.056
302.034
302.031
302.049
302.047
302.02
301.983
301.934
301.897
301.872
301.856
301.867
301.893
301.889
301.861
301.822
301.763
301.714
301.684
301.66
301.653
301.676
301.712
301.711
301.684
301.647
301.592
301.54
301.507
301.482
301.463
301.468
301.49
301.488
301.462
301.428
301.391
301.362
301.338
301.329
301.321
301.294
301.26
301.224
301.198
301.179
301.186
301.212
301.214
301.188
301.152
301.096
301.044
301.014
300.99
300.981
301.002
301.039
301.038
301.012
300.975
300.916
300.854
300.819
300.794
300.775
300.782
300.816
300.833
300.815
300.783
300.737
300.679
300.643
300.617
300.598
300.605
300.637
300.65
300.629
300.596
300.546
300.481
300.44
300.413
300.391
300.39
300.418
300.444
300.432
300.403
300.362
300.304
300.261
300.232
300.209
300.203
300.224
300.247
300.235
300.205
300.165
300.113
300.075
300.048
300.025
300.018
300.032
300.034
300.011
299.979
299.945
299.919
299.898
299.898
299.9
299.877
299.845
299.807
299.776
299.752
299.74
299.748
299.742
299.715
299.681
299.647
299.621
299.603
299.607
299.618
299.601
299.571
299.528
299.486
299.457
299.434
299.425
299.439
299.451
299.433
299.404
299.371
299.343
299.318
299.296
299.27
299.243
299.215
299.189
299.169
299.169
299.19
299.19
299.164
299.129
299.081
299.044
299.018
298.999
299.006
299.034
299.037
299.012
298.976
298.917
298.842
298.799
298.772
298.75
298.75
298.786
298.846
298.859
298.838
298.805
298.756
298.674
298.607
298.572
298.547
298.526
298.528
298.566
298.617
298.622
298.599
298.565
298.514
298.441
298.393
298.363
298.338
298.319
298.324
298.353
298.368
298.35
298.32
298.28
298.242
298.213
298.189
298.173
298.168
298.147
298.118
298.088
298.064
298.048
298.059
298.086
298.082
298.055
298.017
297.955
297.893
297.858
297.833
297.816
297.824
297.868
297.901
297.891
297.863
297.824
297.759
297.688
297.65
297.622
297.599
297.588
297.605
297.644
297.651
297.629
297.598
297.555
297.511
297.482
297.457
297.438
297.438
297.433
297.407
297.375
297.344
297.32
297.306
297.315
297.327
297.31
297.279
297.236
297.19
297.16
297.136
297.121
297.131
297.146
297.132
297.103
297.067
297.033
297.008
296.988
296.989
296.996
296.976
296.945
296.898
296.85
296.82
296.796
296.786
296.806
296.844
296.844
296.819
296.784
296.73
296.667
296.63
296.603
296.582
296.577
296.601
296.625
296.613
296.585
296.547
296.5
296.467
296.442
296.423
296.426
296.443
296.433
296.404
296.364
296.304
296.258
296.229
296.206
296.198
296.221
296.272
296.286
296.267
296.235
296.188
296.115
296.058
296.027
296.002
295.984
295.99
296.026
296.05
296.037
296.007
295.967
295.906
295.859
295.829
295.806
295.792
295.807
295.84
295.841
295.816
295.783
295.731
295.678
295.646
295.621
295.604
295.613
295.645
295.65
295.627
295.593
295.541
295.471
295.43
295.403
295.381
295.377
295.407
295.458
295.466
295.443
295.411
295.36
295.281
295.224
295.192
295.168
295.15
295.156
295.198
295.237
295.23
295.203
295.168
295.111
295.05
295.015
294.989
294.968
294.965
294.99
295.013
295
294.972
294.932
294.875
294.831
294.803
294.78
294.769
294.786
294.816
294.812
294.786
294.751
294.697
294.644
294.612
294.587
294.567
294.568
294.593
294.603
294.584
294.554
294.515
294.478
294.451
294.428
294.416
294.424
294.415
294.388
294.353
294.312
294.283
294.259
294.247
294.259
294.275
294.261
294.232
294.194
294.15
294.12
294.096
294.078
294.082
294.096
294.082
294.054
294.017
293.976
293.948
293.925
293.911
293.922
293.935
293.919
293.89
293.853
293.816
293.788
293.765
293.751
293.747
293.725
293.695
293.658
293.626
293.601
293.584
293.593
293.627
293.637
293.616
293.585
293.54
293.482
293.446
293.42
293.398
293.391
293.409
293.427
293.412
293.383
293.344
293.296
293.263
293.237
293.216
293.213
293.231
293.23
293.205
293.173
293.134
293.103
293.08
293.065
293.076
293.102
293.094
293.068
293.03
292.968
292.894
292.854
292.827
292.804
292.792
292.809
292.859
292.883
292.869
292.841
292.803
292.749
292.708
292.68
292.658
292.644
292.654
292.667
292.65
292.621
292.578
292.514
292.468
292.44
292.418
292.407
292.428
292.482
292.503
292.487
292.458
292.418
292.351
292.285
292.251
292.225
292.202
292.19
292.205
292.242
292.247
292.225
292.195
292.153
292.108
292.078
292.053
292.031
292.025
292.031
292.015
291.987
291.953
291.923
291.899
291.884
291.894
291.918
291.911
291.885
291.849
291.793
291.738
291.707
291.682
291.663
291.663
291.695
291.723
291.712
291.685
291.65
291.598
291.545
291.513
291.486
291.461
291.436
291.415
291.404
291.42
291.458
291.463
291.441
291.41
291.366
291.305
291.264
291.237
291.215
291.2
291.212
291.243
291.244
291.221
291.189
291.14
291.083
291.049
291.023
291.002
290.997
291.02
291.047
291.037
291.011
290.975
290.923
290.876
290.847
290.823
290.804
290.804
290.825
290.825
290.802
290.771
290.731
290.698
290.673
290.653
290.649
290.664
290.659
290.634
290.601
290.555
290.517
290.491
290.47
290.463
290.482
290.497
290.48
290.451
290.41
290.352
290.31
290.284
290.262
290.251
290.269
290.314
290.326
290.307
290.278
290.236
290.17
290.11
290.077
290.051
290.026
290.004
289.991
290.004
290.044
290.059
290.041
290.013
289.975
289.921
289.881
289.853
289.83
289.81
289.808
289.822
289.814
289.788
289.756
289.723
289.697
289.675
289.666
289.681
289.683
289.66
289.628
289.58
289.522
289.488
289.463
289.443
289.44
289.47
289.505
289.5
289.475
289.442
289.393
289.341
289.309
289.284
289.263
289.254
289.269
289.274
289.253
289.224
289.182
289.14
289.112
289.09
289.076
289.089
289.122
289.121
289.097
289.064
289.013
288.939
288.894
288.866
288.844
288.829
288.84
288.888
288.918
288.907
288.88
288.845
288.787
288.722
288.686
288.66
288.638
288.626
288.64
288.679
288.685
288.664
288.635
288.593
288.535
288.497
288.471
288.449
288.434
288.443
288.464
288.455
288.43
288.396
288.347
288.307
288.281
288.259
288.248
288.266
288.3
288.297
288.273
288.24
288.188
288.112
288.065
288.037
288.015
287.999
288.01
288.065
288.123
288.124
288.102
288.071
288.024
287.938
287.841
287.795
287.767
287.742
287.72
287.705
287.713
287.764
287.826
287.832
287.811
287.782
287.74
287.671
287.607
287.574
287.548
287.526
287.512
287.524
287.561
287.572
287.553
287.524
287.485
287.426
287.383
287.356
287.333
287.316
287.319
287.348
287.356
287.336
287.307
287.267
287.216
287.181
287.156
287.134
287.122
287.135
287.156
287.146
287.12
287.087
287.04
287.002
286.975
286.952
286.935
286.937
286.952
286.941
286.915
286.882
286.841
286.812
286.788
286.768
286.765
286.785
286.789
286.768
286.74
286.7
286.653
286.62
286.594
286.57
286.548
286.534
286.544
286.582
286.596
286.578
286.551
286.514
286.456
286.397
286.363
286.338
286.313
286.288
286.265
286.245
286.239
286.261
286.3
286.299
286.276
286.247
286.205
286.151
286.116
286.09
286.068
286.05
286.054
286.074
286.069
286.045
286.015
285.974
285.938
285.913
285.89
285.875
285.879
285.885
285.867
285.839
285.803
285.766
285.739
285.717
285.702
285.71
285.725
285.712
285.685
285.651
285.604
285.57
285.545
285.524
285.514
285.531
285.551
285.538
285.512
285.478
285.428
285.385
285.358
285.335
285.317
285.318
285.34
285.34
285.317
285.288
285.244
285.195
285.164
285.14
285.12
285.114
285.135
285.157
285.145
285.119
285.086
285.039
285
284.974
284.951
284.933
284.935
284.954
284.946
284.921
284.89
284.844
284.803
284.776
284.753
284.737
284.742
284.771
284.775
284.753
284.725
284.683
284.627
284.589
284.564
284.542
284.525
284.531
284.563
284.57
284.55
284.523
284.486
284.438
284.405
284.38
284.357
284.34
284.34
284.34
284.319
284.291
284.253
284.216
284.191
284.169
284.155
284.166
284.195
284.193
284.17
284.141
284.1
284.057
284.028
284.005
283.985
283.977
283.991
283.99
283.967
283.938
283.895
283.849
283.82
283.796
283.776
283.771
283.793
283.811
283.797
283.771
283.739
283.693
283.657
283.631
283.608
283.589
283.583
283.595
283.588
283.565
283.537
283.508
283.484
283.464
283.455
283.46
283.445
283.419
283.384
283.335
283.297
283.271
283.249
283.231
283.231
283.255
283.259
283.239
283.213
283.184
283.159
283.136
283.118
283.103
283.081
283.055
283.026
282.996
282.972
282.95
282.936
282.945
282.957
282.942
282.916
282.883
282.844
282.816
282.793
282.774
282.769
282.783
282.776
282.753
282.723
282.679
282.639
282.612
282.59
282.574
282.579
282.611
282.621
282.602
282.575
282.538
282.48
282.43
282.401
282.377
282.356
282.341
282.349
282.368
282.358
282.334
282.305
282.268
282.239
282.216
282.196
282.188
282.201
282.201
282.18
282.151
282.111
282.064
282.035
282.012
281.992
281.987
282.008
282.028
282.014
281.988
281.955
281.903
281.854
281.825
281.802
281.782
281.775
281.796
281.826
281.817
281.793
281.763
281.717
281.662
281.629
281.605
281.584
281.571
281.582
281.613
281.611
281.589
281.56
281.516
281.446
281.395
281.368
281.345
281.325
281.32
281.348
281.401
281.41
281.39
281.364
281.327
281.267
281.211
281.18
281.156
281.135
281.121
281.13
281.161
281.162
281.14
281.113
281.072
281.007
280.958
280.931
280.908
280.888
280.881
280.903
280.945
280.946
280.925
280.897
280.858
280.8
280.757
280.731
280.708
280.688
280.681
280.7
280.717
280.703
280.678
280.645
280.596
280.552
280.525
280.503
280.484
280.48
280.507
280.532
280.521
280.496
280.465
280.414
280.346
280.306
280.28
280.258
280.239
280.236
280.266
280.312
280.313
280.292
280.266
280.229
280.175
280.131
280.104
280.08
280.057
280.036
280.021
280.013
279.995
279.971
279.948
279.927
279.914
279.923
279.932
279.915
279.889
279.856
279.811
279.78
279.756
279.735
279.722
279.733
279.754
279.745
279.721
279.69
279.642
279.584
279.55
279.525
279.504
279.489
279.497
279.54
279.566
279.553
279.529
279.499
279.451
279.385
279.343
279.317
279.294
279.272
279.255
279.254
279.272
279.269
279.247
279.221
279.191
279.166
279.143
279.125
279.121
279.132
279.119
279.095
279.064
279.019
278.979
278.953
278.931
278.913
278.911
278.936
278.946
278.929
278.903
278.87
278.82
278.779
278.753
278.731
278.711
278.704
278.723
278.74
278.725
278.701
278.67
278.623
278.577
278.549
278.526
278.505
278.491
278.498
278.526
278.525
278.504
278.478
278.443
278.398
278.366
278.342
278.318
278.295
278.272
278.251
278.234
278.234
278.258
278.262
278.242
278.216
278.18
278.121
278.067
278.038
278.015
277.995
277.982
277.996
278.044
278.066
278.051
278.027
277.996
277.946
277.879
277.84
277.815
277.792
277.772
277.763
277.779
277.807
277.8
277.778
277.75
277.711
277.664
277.634
277.611
277.589
277.573
277.575
277.595
277.589
277.566
277.538
277.498
277.449
277.418
277.395
277.374
277.358
277.363
277.393
277.398
277.379
277.353
277.32
277.274
277.239
277.214
277.191
277.171
277.159
277.167
277.17
277.151
277.126
277.095
277.062
277.037
277.015
276.995
276.986
276.991
276.978
276.954
276.926
276.889
276.86
276.837
276.816
276.8
276.803
276.82
276.812
276.789
276.763
276.729
276.694
276.669
276.645
276.623
276.6
276.578
276.559
276.549
276.564
276.582
276.57
276.546
276.517
276.473
276.415
276.38
276.356
276.334
276.315
276.311
276.333
276.353
276.339
276.316
276.287
276.246
276.205
276.179
276.156
276.136
276.122
276.128
276.14
276.125
276.101
276.072
276.033
276
275.976
275.954
275.936
275.934
275.953
275.951
275.931
275.905
275.87
275.823
275.791
275.767
275.745
275.727
275.72
275.736
275.74
275.721
275.696
275.665
275.629
275.602
275.579
275.558
275.54
275.538
275.538
275.519
275.495
275.469
275.445
275.423
275.405
275.4
275.396
275.376
275.351
275.317
275.276
275.248
275.225
275.205
275.192
275.202
275.228
275.223
275.202
275.176
275.143
275.106
275.079
275.056
275.034
275.013
274.995
274.976
274.954
274.931
274.909
274.888
274.87
274.868
274.881
274.873
274.851
274.826
274.798
274.774
274.752
274.732
274.716
274.698
274.676
274.652
274.622
274.589
274.564
274.542
274.523
274.515
274.533
274.557
274.547
274.524
274.498
274.462
274.421
274.393
274.37
274.348
274.325
274.303
274.282
274.262
274.244
274.227
274.213
274.212
274.228
274.227
274.207
274.183
274.152
274.107
274.07
274.045
274.023
274.003
273.988
273.992
274.006
273.995
273.972
273.946
273.912
273.882
273.859
273.837
273.817
273.802
273.799
273.785
273.763
273.74
273.718
273.698
273.685
273.69
273.681
273.659
273.632
273.593
273.543
273.511
273.488
273.467
273.449
273.447
273.473
273.493
273.48
273.457
273.431
273.396
273.361
273.336
273.314
273.292
273.271
273.253
273.235
273.214
273.192
273.17
273.151
273.138
273.144
273.142
273.122
273.098
273.068
273.035
273.011
272.989
272.969
272.956
272.963
272.962
272.942
272.917
272.887
272.851
272.825
272.803
272.783
272.768
272.773
272.779
272.762
272.739
272.71
272.675
272.648
272.626
272.606
272.591
272.597
272.622
272.617
272.596
272.571
272.537
272.48
272.427
272.398
272.375
272.353
272.331
272.309
272.288
272.269
272.258
272.272
272.312
272.319
272.301
272.277
272.248
272.202
272.148
272.116
272.093
272.071
272.052
272.041
272.054
272.078
272.069
272.048
272.022
271.988
271.947
271.919
271.897
271.876
271.858
271.854
271.864
271.852
271.83
271.802
271.762
271.704
271.669
271.645
271.624
271.606
271.6
271.626
271.669
271.669
271.649
271.625
271.593
271.541
271.485
271.455
271.432
271.411
271.393
271.386
271.406
271.432
271.422
271.401
271.375
271.339
271.279
271.23
271.203
271.181
271.16
271.142
271.136
271.159
271.19
271.184
271.163
271.138
271.108
271.066
271.034
271.01
270.988
270.966
270.944
270.922
270.9
270.879
270.858
270.84
270.831
270.844
270.849
270.832
270.808
270.781
270.746
270.718
270.695
270.674
270.656
270.65
270.668
270.674
270.657
270.634
270.604
270.559
270.493
270.453
270.428
270.406
270.385
270.364
270.345
270.335
270.348
270.387
270.392
270.373
270.35
270.322
270.28
270.233
270.204
270.182
270.161
270.143
270.135
270.152
270.17
270.157
270.135
270.109
270.072
270.024
269.992
269.969
269.948
269.929
269.917
269.927
269.941
269.927
269.905
269.879
269.842
269.792
269.759
269.736
269.715
269.695
269.68
269.682
269.709
269.712
269.694
269.672
269.647
269.618
269.588
269.564
269.541
269.518
269.493
269.467
269.444
269.422
269.401
269.381
269.364
269.361
269.379
269.38
269.361
269.338
269.31
269.27
269.235
269.211
269.189
269.169
269.152
269.149
269.16
269.151
269.129
269.106
269.077
269.051
269.029
269.008
268.989
268.98
268.974
268.955
268.933
268.906
268.872
268.844
268.822
268.802
268.786
268.785
268.813
268.826
268.81
268.787
268.76
268.72
268.652
268.599
268.572
268.55
268.528
268.508
268.489
268.477
268.489
268.535
268.553
268.539
268.517
268.492
268.456
268.398
268.348
268.322
268.3
268.279
268.26
268.25
268.263
268.29
268.284
268.263
268.24
268.21
268.166
268.127
268.102
268.081
268.06
268.041
268.028
268.034
268.034
268.016
267.994
267.969
267.943
267.921
267.901
267.882
267.872
267.868
267.851
267.828
267.802
267.762
267.721
267.695
267.674
267.654
267.64
267.645
267.681
267.694
267.678
267.656
267.63
267.592
267.531
267.489
267.465
267.443
267.423
267.406
267.403
267.427
267.444
267.431
267.409
267.385
267.352
267.31
267.282
267.26
267.239
267.22
267.208
267.216
267.225
267.21
267.188
267.163
267.126
267.068
267.022
266.997
266.975
266.954
266.933
266.914
266.898
266.898
266.93
266.961
266.953
266.932
266.909
266.881
266.838
266.794
266.767
266.746
266.724
266.704
266.686
266.678
266.683
266.673
266.652
266.63
266.604
266.581
266.56
266.54
266.523
266.514
266.501
266.481
266.459
266.434
266.406
266.383
266.361
266.342
266.326
266.327
266.341
266.331
266.31
266.287
266.256
266.215
266.185
266.163
266.142
266.123
266.107
266.107
266.115
266.102
266.081
266.057
266.028
265.999
265.976
265.955
265.936
265.919
265.915
265.912
265.894
265.872
265.847
265.818
265.794
265.773
265.753
265.736
265.73
265.738
265.727
265.706
265.683
265.652
265.615
265.588
265.566
265.546
265.527
265.515
265.522
265.523
265.506
265.484
265.459
265.425
265.395
265.373
265.352
265.333
265.318
265.319
265.329
265.317
265.296
265.272
265.242
265.202
265.174
265.152
265.131
265.112
265.095
265.09
265.098
265.086
265.066
265.044
265.022
265.001
264.981
264.964
264.957
264.96
264.947
264.925
264.901
264.868
264.811
264.76
264.733
264.711
264.69
264.67
264.652
264.641
264.652
264.696
264.71
264.695
264.674
264.651
264.622
264.58
264.545
264.521
264.5