/*--------------------------------*- C++ -*----------------------------------*\
  =========                 |
  \\      /  F ield         | OpenFOAM: The Open Source CFD Toolbox
   \\    /   O peration     | Website:  https://openfoam.org
    \\  /    A nd           | Version:  9
     \\/     M anipulation  |
\*---------------------------------------------------------------------------*/
FoamFile
{
    format      ascii;
    class       volScalarField;
    location    "0.007";
    object      p;
}
// * * * * * * * * * * * * * * * * * * * * * * * * * * * * * * * * * * * * * //

dimensions      [1 -1 -2 0 0 0 0];

internalField   nonuniform List<scalar> 
100
(
100000
100000
100000
100000
100000
100000
100000
100000
100000
100000
100000
100000
100000
100000
100000
99999.8
99999.4
99998
99993.4
99978.8
99935.4
99812.5
99485.4
98666.8
96738.7
92878.2
87879.8
83318.5
79378.5
75832.6
72531.1
69403.4
66417.4
63556.1
60808.8
58167.6
55625.9
53178.6
50821.3
48550.3
46362.7
44256.1
42228.9
40280.5
38410
36626
34931.3
33345.9
31976.3
30911.7
30338.9
30253
30422.8
30355.3
30300.1
30274.1
30248.4
30234.8
30241.9
30274.2
30289.1
30274.7
30270.3
30261.5
30250.9
30244
30270.6
30310
30343.1
30394.8
30286.7
29918.8
30689.6
30883.6
30347.9
29926.4
29873.1
29874.2
29896
30016.3
30477.5
30828.3
30861.7
30811.6
30534.7
30100.9
29829.4
29285.8
25298.4
13563.7
10245.9
10017.2
10001.2
10000.1
10000
10000
10000
10000
10000
10000
)
;

boundaryField
{
    sides
    {
        type            zeroGradient;
    }
    empty
    {
        type            empty;
    }
}


// ************************************************************************* //
