/*--------------------------------*- C++ -*----------------------------------*\
  =========                 |
  \\      /  F ield         | OpenFOAM: The Open Source CFD Toolbox
   \\    /   O peration     | Website:  https://openfoam.org
    \\  /    A nd           | Version:  9
     \\/     M anipulation  |
\*---------------------------------------------------------------------------*/
FoamFile
{
    format      ascii;
    class       volScalarField;
    location    "0.03";
    object      T;
}
// * * * * * * * * * * * * * * * * * * * * * * * * * * * * * * * * * * * * * //

dimensions      [0 0 0 1 0 0 0];

internalField   nonuniform List<scalar> 
100
(
230.093
229.95
229.796
229.699
229.638
229.504
229.404
229.172
228.982
228.754
228.473
228.309
228.06
227.812
227.676
227.463
227.183
227.021
226.905
226.669
226.395
226.235
226.149
225.984
225.713
225.495
225.396
225.333
225.194
224.961
224.811
224.776
224.773
224.742
224.635
224.601
224.608
224.65
224.669
224.664
224.642
224.638
224.649
224.694
224.725
224.747
224.785
224.862
225.025
225.346
225.693
226.126
226.47
226.725
227.263
227.932
228.379
229.019
229.652
229.942
230.308
231.129
231.9
232.303
232.55
232.93
233.728
234.444
235.094
235.682
236.172
236.575
237.038
237.676
238.274
238.857
239.447
240.039
240.549
241.193
241.556
242.287
242.653
243.341
243.919
245.1
247.157
251.312
261.164
270.705
282.137
281.241
278.37
272.917
272.02
271.009
269.608
268.987
269.02
269.298
)
;

boundaryField
{
    sides
    {
        type            zeroGradient;
    }
    empty
    {
        type            empty;
    }
}


// ************************************************************************* //
