/*--------------------------------*- C++ -*----------------------------------*\
  =========                 |
  \\      /  F ield         | OpenFOAM: The Open Source CFD Toolbox
   \\    /   O peration     | Website:  https://openfoam.org
    \\  /    A nd           | Version:  9
     \\/     M anipulation  |
\*---------------------------------------------------------------------------*/
FoamFile
{
    format      ascii;
    class       volVectorField;
    location    "0.03";
    object      U;
}
// * * * * * * * * * * * * * * * * * * * * * * * * * * * * * * * * * * * * * //

dimensions      [0 1 -1 0 0 0 0];

internalField   nonuniform List<vector> 
100
(
(37.2336 0 0)
(41.473 0 0)
(47.2044 0 0)
(50.3653 0 0)
(54.238 0 0)
(58.1785 0 0)
(62.0226 0 0)
(65.9127 0 0)
(69.7538 0 0)
(73.6525 0 0)
(77.4924 0 0)
(81.3343 0 0)
(85.2332 0 0)
(89.0517 0 0)
(92.8837 0 0)
(96.7885 0 0)
(100.618 0 0)
(104.411 0 0)
(108.254 0 0)
(112.154 0 0)
(115.942 0 0)
(119.705 0 0)
(123.499 0 0)
(127.359 0 0)
(131.159 0 0)
(134.863 0 0)
(138.566 0 0)
(142.294 0 0)
(146.071 0 0)
(149.726 0 0)
(153.265 0 0)
(156.764 0 0)
(160.271 0 0)
(163.801 0 0)
(167.148 0 0)
(170.409 0 0)
(173.684 0 0)
(177.005 0 0)
(180.362 0 0)
(183.674 0 0)
(186.968 0 0)
(190.267 0 0)
(193.583 0 0)
(196.923 0 0)
(200.285 0 0)
(203.633 0 0)
(206.766 0 0)
(209.812 0 0)
(212.379 0 0)
(214.637 0 0)
(216.887 0 0)
(219.144 0 0)
(221.454 0 0)
(223.452 0 0)
(225.28 0 0)
(227.145 0 0)
(228.473 0 0)
(229.874 0 0)
(231.586 0 0)
(233.282 0 0)
(234.661 0 0)
(236.214 0 0)
(238.107 0 0)
(240.058 0 0)
(241.653 0 0)
(243.177 0 0)
(244.842 0 0)
(246.69 0 0)
(248.288 0 0)
(249.867 0 0)
(251.469 0 0)
(253.06 0 0)
(254.654 0 0)
(256.352 0 0)
(258.167 0 0)
(259.859 0 0)
(261.391 0 0)
(262.903 0 0)
(264.374 0 0)
(265.918 0 0)
(267.465 0 0)
(269.08 0 0)
(270.597 0 0)
(271.741 0 0)
(272.077 0 0)
(270.814 0 0)
(266.67 0 0)
(255.892 0 0)
(231.583 0 0)
(188.452 0 0)
(152.338 0 0)
(168.852 0 0)
(190.744 0 0)
(206.268 0 0)
(213.952 0 0)
(216.556 0 0)
(218.154 0 0)
(220.055 0 0)
(222.948 0 0)
(225.273 0 0)
)
;

boundaryField
{
    sides
    {
        type            zeroGradient;
    }
    empty
    {
        type            empty;
    }
}


// ************************************************************************* //
