/*--------------------------------*- C++ -*----------------------------------*\
  =========                 |
  \\      /  F ield         | OpenFOAM: The Open Source CFD Toolbox
   \\    /   O peration     | Website:  https://openfoam.org
    \\  /    A nd           | Version:  9
     \\/     M anipulation  |
\*---------------------------------------------------------------------------*/
FoamFile
{
    format      ascii;
    class       surfaceScalarField;
    location    "0.025";
    object      phi;
}
// * * * * * * * * * * * * * * * * * * * * * * * * * * * * * * * * * * * * * //

dimensions      [1 0 -1 0 0 0 0];

internalField   nonuniform List<scalar> 
99
(
65.7352
73.911
82.0563
90.1801
98.2828
106.363
114.411
122.41
130.377
138.3
146.178
154.024
161.823
169.6
177.314
185.001
192.673
200.254
207.794
215.363
222.86
230.233
237.617
245.041
252.356
259.523
266.692
273.942
281.082
288.047
294.966
301.994
308.957
315.723
322.357
329.041
335.822
342.454
348.826
354.936
360.903
367.061
373.15
379.2
385.052
391.129
397.237
403.396
409.035
414.101
421.494
427.394
433.055
438.55
443.535
447.788
453.038
457.808
462.592
466.839
471.178
475.27
478.647
481.636
484.594
487.479
490.02
491.914
493.248
494.172
494.811
495.272
495.618
495.889
496.11
496.052
495.621
494.925
493.817
491.249
486.377
498.721
499.085
499.143
499.186
499.315
499.275
498.796
497.584
494.553
488.798
477.037
453.823
460.766
464.276
464.112
467.382
470.313
473.018
)
;

boundaryField
{
    sides
    {
        type            calculated;
        value           nonuniform List<scalar> 2(474.978 -57.4411);
    }
    empty
    {
        type            empty;
        value           nonuniform List<scalar> 0();
    }
}


// ************************************************************************* //
