/*--------------------------------*- C++ -*----------------------------------*\
  =========                 |
  \\      /  F ield         | OpenFOAM: The Open Source CFD Toolbox
   \\    /   O peration     | Website:  https://openfoam.org
    \\  /    A nd           | Version:  9
     \\/     M anipulation  |
\*---------------------------------------------------------------------------*/
FoamFile
{
    format      ascii;
    class       volScalarField;
    location    "0.005";
    object      mag(U);
}
// * * * * * * * * * * * * * * * * * * * * * * * * * * * * * * * * * * * * * //

dimensions      [0 1 -1 0 0 0 0];

internalField   nonuniform List<scalar> 
100
(
4.78167e-13
5.15986e-13
5.37515e-13
4.8927e-13
3.4436e-13
2.48117e-13
2.31142e-13
1.47702e-13
5.30415e-14
3.2366e-14
1.09537e-13
1.12884e-12
8.51211e-12
5.54484e-11
3.44805e-10
2.06173e-09
1.18272e-08
6.5095e-08
3.43505e-07
1.73658e-06
8.40308e-06
3.88774e-05
0.000171762
0.000723576
0.00290128
0.0110485
0.0398525
0.135709
0.434495
1.30184
3.63639
9.47475
22.0878
40.2605
58.3912
75.0639
90.8539
106.227
121.408
136.501
151.567
166.642
181.753
196.911
212.106
227.343
242.57
257.317
271.725
284.208
292.013
294.188
292.141
292.834
293.655
293.638
293.626
293.626
293.6
293.47
293.557
293.81
294.036
294.354
294.6
286.783
289.834
297.041
301.027
300.605
294.037
289.152
288.439
288.421
289.991
290.949
287.212
242.668
65.9302
4.73191
0.316924
0.0207853
0.00135741
8.8306e-05
5.72729e-06
3.70791e-07
2.40011e-08
1.55607e-09
1.01042e-10
6.42215e-12
3.98306e-13
5.17564e-14
8.46958e-14
1.64601e-13
1.27061e-13
1.07116e-14
5.88715e-14
1.02241e-13
1.69924e-13
1.71267e-13
)
;

boundaryField
{
    sides
    {
        type            calculated;
        value           nonuniform List<scalar> 2(1.71267e-13 4.78167e-13);
    }
    empty
    {
        type            empty;
    }
}


// ************************************************************************* //
