/*--------------------------------*- C++ -*----------------------------------*\
  =========                 |
  \\      /  F ield         | OpenFOAM: The Open Source CFD Toolbox
   \\    /   O peration     | Website:  https://openfoam.org
    \\  /    A nd           | Version:  9
     \\/     M anipulation  |
\*---------------------------------------------------------------------------*/
FoamFile
{
    format      ascii;
    class       volScalarField;
    location    "0.005";
    object      p;
}
// * * * * * * * * * * * * * * * * * * * * * * * * * * * * * * * * * * * * * //

dimensions      [1 -1 -2 0 0 0 0];

internalField   nonuniform List<scalar> 
100
(
100000
100000
100000
100000
100000
100000
100000
100000
100000
100000
100000
100000
100000
100000
100000
100000
100000
100000
100000
100000
100000
100000
99999.9
99999.7
99998.9
99995.9
99985.1
99949.2
99837.5
99513.8
98646.5
96502.9
92002.5
85852.4
80083.9
75070.4
70570.9
66413.6
62515.8
58836.1
55349.7
52039.3
48893.3
45902.3
43059.3
40369.1
37839.9
35443.2
33356.7
31624.4
30482.2
30125.4
30413.7
30403.7
30352
30307.9
30260.6
30222.5
30205.4
30233.6
30264.3
30291.6
30323.7
30366.1
30404.2
29490.2
29874.8
30623.8
31060.4
31037.6
30338.9
29827
29762.2
29762.1
29930.4
30032.6
29666
25143
13032.7
10198.9
10013.3
10000.9
10000.1
10000
10000
10000
10000
10000
10000
10000
10000
10000
10000
10000
10000
10000
10000
10000
10000
10000
)
;

boundaryField
{
    sides
    {
        type            zeroGradient;
    }
    empty
    {
        type            empty;
    }
}


// ************************************************************************* //
