/*--------------------------------*- C++ -*----------------------------------*\
  =========                 |
  \\      /  F ield         | OpenFOAM: The Open Source CFD Toolbox
   \\    /   O peration     | Website:  https://openfoam.org
    \\  /    A nd           | Version:  9
     \\/     M anipulation  |
\*---------------------------------------------------------------------------*/
FoamFile
{
    format      ascii;
    class       surfaceScalarField;
    location    "0.039";
    object      phi;
}
// * * * * * * * * * * * * * * * * * * * * * * * * * * * * * * * * * * * * * //

dimensions      [1 0 -1 0 0 0 0];

internalField   nonuniform List<scalar> 
9999
(
2.42572
2.45218
2.47865
2.50513
2.53161
2.55811
2.58461
2.61113
2.63767
2.66423
2.6908
2.7174
2.74402
2.77066
2.79734
2.82404
2.85077
2.87754
2.90434
2.93117
2.95805
2.98496
3.01191
3.03891
3.06595
3.09304
3.12017
3.14734
3.17457
3.20184
3.22917
3.25655
3.28398
3.31147
3.33901
3.3666
3.39424
3.42194
3.4497
3.47751
3.50539
3.53332
3.56131
3.58936
3.61746
3.64562
3.67384
3.70211
3.73043
3.7588
3.78723
3.81571
3.84423
3.87282
3.90145
3.93013
3.95887
3.98766
4.0165
4.04538
4.07432
4.1033
4.13233
4.1614
4.1905
4.21965
4.24883
4.27804
4.30729
4.33656
4.36586
4.39518
4.42453
4.45389
4.48328
4.51267
4.54209
4.57151
4.60094
4.63038
4.65982
4.68926
4.7187
4.74814
4.77757
4.807
4.83641
4.86581
4.8952
4.92457
4.95393
4.98326
5.01257
5.04186
5.07111
5.10034
5.12954
5.1587
5.18783
5.21692
5.24597
5.27499
5.30396
5.33288
5.36176
5.39059
5.41938
5.44811
5.4768
5.50543
5.53401
5.56253
5.591
5.61941
5.64777
5.67606
5.7043
5.73248
5.7606
5.78866
5.81667
5.84461
5.87249
5.90031
5.92807
5.95577
5.98341
6.01099
6.03851
6.06598
6.09338
6.12073
6.14802
6.17526
6.20244
6.22957
6.25664
6.28366
6.31064
6.33756
6.36443
6.39126
6.41804
6.44478
6.47147
6.49813
6.52474
6.55132
6.57785
6.60436
6.63083
6.65726
6.68367
6.71005
6.7364
6.76273
6.78903
6.81532
6.84158
6.86783
6.89406
6.92027
6.94648
6.97267
6.99886
7.02504
7.05122
7.07739
7.10357
7.12974
7.15592
7.18211
7.2083
7.2345
7.26072
7.28694
7.31319
7.33945
7.36573
7.39203
7.41835
7.4447
7.47108
7.49748
7.52392
7.55039
7.57689
7.60343
7.63
7.65662
7.68327
7.70997
7.73671
7.7635
7.79034
7.81722
7.84416
7.87114
7.89818
7.92528
7.95242
7.97963
8.00689
8.03421
8.0616
8.08904
8.11654
8.14411
8.17174
8.19943
8.22719
8.25501
8.28289
8.31085
8.33886
8.36694
8.39509
8.42331
8.45159
8.47993
8.50834
8.53681
8.56535
8.59395
8.62261
8.65134
8.68013
8.70897
8.73788
8.76685
8.79587
8.82495
8.85408
8.88326
8.9125
8.94178
8.97112
9.0005
9.02992
9.05939
9.0889
9.11845
9.14803
9.17765
9.20731
9.23699
9.2667
9.29644
9.32621
9.35599
9.3858
9.41563
9.44547
9.47532
9.50519
9.53506
9.56494
9.59482
9.62471
9.65459
9.68448
9.71435
9.74422
9.77408
9.80393
9.83376
9.86358
9.89337
9.92315
9.9529
9.98263
10.0123
10.042
10.0716
10.1012
10.1308
10.1603
10.1898
10.2193
10.2487
10.278
10.3073
10.3366
10.3658
10.3949
10.4241
10.4531
10.4821
10.511
10.5399
10.5687
10.5975
10.6262
10.6548
10.6834
10.7119
10.7403
10.7687
10.797
10.8252
10.8534
10.8815
10.9096
10.9375
10.9654
10.9933
11.0211
11.0488
11.0764
11.104
11.1315
11.1589
11.1863
11.2137
11.2409
11.2681
11.2952
11.3223
11.3494
11.3763
11.4032
11.4301
11.4569
11.4836
11.5103
11.537
11.5636
11.5901
11.6167
11.6431
11.6696
11.6959
11.7223
11.7486
11.7749
11.8011
11.8273
11.8535
11.8797
11.9058
11.9319
11.958
11.9841
12.0101
12.0362
12.0622
12.0882
12.1142
12.1401
12.1661
12.1921
12.2181
12.244
12.27
12.296
12.3219
12.3479
12.3739
12.3999
12.4259
12.4519
12.478
12.504
12.5301
12.5562
12.5824
12.6085
12.6347
12.6609
12.6871
12.7134
12.7397
12.7661
12.7925
12.8189
12.8454
12.8719
12.8984
12.925
12.9517
12.9784
13.0051
13.0319
13.0588
13.0857
13.1126
13.1396
13.1667
13.1938
13.221
13.2482
13.2755
13.3029
13.3303
13.3578
13.3854
13.413
13.4406
13.4684
13.4961
13.524
13.5519
13.5799
13.6079
13.636
13.6641
13.6923
13.7206
13.7489
13.7773
13.8057
13.8342
13.8627
13.8912
13.9199
13.9485
13.9772
14.006
14.0348
14.0636
14.0925
14.1214
14.1504
14.1793
14.2083
14.2374
14.2665
14.2955
14.3247
14.3538
14.383
14.4121
14.4413
14.4705
14.4998
14.529
14.5583
14.5875
14.6168
14.6461
14.6753
14.7046
14.7339
14.7632
14.7925
14.8218
14.8511
14.8803
14.9096
14.9389
14.9682
14.9974
15.0267
15.0559
15.0852
15.1144
15.1436
15.1728
15.202
15.2312
15.2603
15.2895
15.3186
15.3477
15.3768
15.4059
15.4349
15.464
15.493
15.522
15.551
15.5799
15.6089
15.6378
15.6667
15.6955
15.7243
15.7532
15.7819
15.8107
15.8394
15.8681
15.8968
15.9254
15.954
15.9826
16.0112
16.0397
16.0682
16.0966
16.125
16.1534
16.1817
16.2101
16.2383
16.2666
16.2948
16.3229
16.351
16.3791
16.4072
16.4352
16.4631
16.491
16.5189
16.5468
16.5746
16.6023
16.63
16.6577
16.6853
16.7129
16.7404
16.7679
16.7954
16.8228
16.8502
16.8775
16.9048
16.932
16.9592
16.9864
17.0135
17.0406
17.0676
17.0946
17.1216
17.1485
17.1754
17.2022
17.229
17.2558
17.2825
17.3092
17.3359
17.3625
17.3892
17.4157
17.4423
17.4688
17.4953
17.5218
17.5483
17.5747
17.6011
17.6275
17.6539
17.6802
17.7066
17.7329
17.7592
17.7856
17.8119
17.8382
17.8645
17.8907
17.917
17.9433
17.9696
17.9959
18.0222
18.0485
18.0749
18.1012
18.1275
18.1539
18.1803
18.2067
18.2331
18.2595
18.286
18.3125
18.339
18.3656
18.3921
18.4188
18.4454
18.4721
18.4988
18.5256
18.5524
18.5793
18.6062
18.6331
18.6601
18.6872
18.7143
18.7414
18.7686
18.7959
18.8232
18.8506
18.8781
18.9056
18.9332
18.9608
18.9885
19.0162
19.0441
19.072
19.0999
19.1279
19.156
19.1842
19.2124
19.2407
19.269
19.2974
19.3259
19.3545
19.383
19.4117
19.4404
19.4692
19.498
19.5269
19.5558
19.5847
19.6137
19.6428
19.6719
19.701
19.7302
19.7594
19.7887
19.8179
19.8472
19.8766
19.9059
19.9353
19.9647
19.9941
20.0235
20.0529
20.0823
20.1117
20.1412
20.1706
20.2001
20.2295
20.2589
20.2883
20.3177
20.3471
20.3765
20.4059
20.4352
20.4645
20.4938
20.5231
20.5523
20.5816
20.6108
20.6399
20.669
20.6981
20.7272
20.7562
20.7852
20.8141
20.8431
20.8719
20.9008
20.9295
20.9583
20.987
21.0157
21.0443
21.0729
21.1014
21.1299
21.1583
21.1867
21.2151
21.2434
21.2716
21.2999
21.328
21.3562
21.3843
21.4123
21.4403
21.4683
21.4962
21.5241
21.552
21.5798
21.6075
21.6353
21.663
21.6907
21.7183
21.7459
21.7735
21.801
21.8285
21.856
21.8835
21.9109
21.9383
21.9657
21.9931
22.0204
22.0478
22.0751
22.1023
22.1296
22.1569
22.1841
22.2113
22.2385
22.2657
22.2929
22.3201
22.3473
22.3744
22.4016
22.4288
22.4559
22.483
22.5102
22.5373
22.5644
22.5915
22.6187
22.6458
22.6729
22.7
22.7271
22.7542
22.7813
22.8084
22.8355
22.8626
22.8897
22.9168
22.9439
22.971
22.9981
23.0252
23.0522
23.0793
23.1064
23.1334
23.1605
23.1875
23.2146
23.2416
23.2686
23.2957
23.3227
23.3497
23.3767
23.4037
23.4307
23.4577
23.4847
23.5117
23.5387
23.5656
23.5926
23.6196
23.6465
23.6735
23.7004
23.7274
23.7543
23.7813
23.8083
23.8352
23.8622
23.8891
23.9161
23.9431
23.97
23.997
24.024
24.051
24.078
24.105
24.1321
24.1591
24.1862
24.2132
24.2403
24.2674
24.2946
24.3217
24.3489
24.3761
24.4033
24.4306
24.4579
24.4852
24.5125
24.5399
24.5673
24.5948
24.6222
24.6498
24.6773
24.7049
24.7325
24.7602
24.7879
24.8157
24.8435
24.8713
24.8992
24.9271
24.9551
24.9831
25.0112
25.0393
25.0675
25.0957
25.1239
25.1522
25.1806
25.209
25.2374
25.2659
25.2944
25.3229
25.3515
25.3802
25.4089
25.4376
25.4663
25.4951
25.5239
25.5527
25.5816
25.6105
25.6394
25.6683
25.6972
25.7262
25.7551
25.7841
25.8131
25.8421
25.8711
25.9001
25.9291
25.9581
25.9871
26.0161
26.0451
26.074
26.103
26.1319
26.1608
26.1897
26.2185
26.2474
26.2762
26.305
26.3337
26.3624
26.3911
26.4198
26.4484
26.477
26.5055
26.534
26.5625
26.5909
26.6193
26.6476
26.6759
26.7041
26.7323
26.7605
26.7886
26.8167
26.8447
26.8727
26.9006
26.9285
26.9564
26.9842
27.0119
27.0397
27.0674
27.095
27.1226
27.1502
27.1777
27.2052
27.2327
27.2601
27.2875
27.3148
27.3422
27.3695
27.3968
27.424
27.4512
27.4785
27.5057
27.5328
27.56
27.5871
27.6143
27.6414
27.6685
27.6956
27.7227
27.7498
27.7769
27.804
27.8311
27.8582
27.8853
27.9124
27.9395
27.9666
27.9938
28.0209
28.0481
28.0752
28.1024
28.1296
28.1568
28.1841
28.2113
28.2386
28.2659
28.2932
28.3205
28.3479
28.3752
28.4026
28.43
28.4574
28.4849
28.5123
28.5398
28.5673
28.5948
28.6223
28.6498
28.6774
28.7049
28.7325
28.7601
28.7877
28.8153
28.8429
28.8705
28.8982
28.9258
28.9534
28.9811
29.0088
29.0364
29.0641
29.0918
29.1195
29.1471
29.1748
29.2025
29.2302
29.2579
29.2856
29.3133
29.341
29.3687
29.3964
29.4241
29.4518
29.4795
29.5072
29.535
29.5627
29.5904
29.6181
29.6458
29.6735
29.7012
29.729
29.7567
29.7844
29.8121
29.8399
29.8676
29.8953
29.9231
29.9508
29.9785
30.0063
30.034
30.0618
30.0895
30.1173
30.1451
30.1728
30.2006
30.2284
30.2561
30.2839
30.3117
30.3395
30.3673
30.3951
30.4229
30.4507
30.4785
30.5064
30.5342
30.562
30.5899
30.6177
30.6456
30.6734
30.7013
30.7292
30.757
30.7849
30.8128
30.8407
30.8686
30.8965
30.9245
30.9524
30.9803
31.0083
31.0362
31.0642
31.0922
31.1201
31.1481
31.1761
31.2041
31.2321
31.2601
31.2881
31.3161
31.3442
31.3722
31.4003
31.4283
31.4564
31.4844
31.5125
31.5405
31.5686
31.5967
31.6247
31.6528
31.6809
31.709
31.737
31.7651
31.7932
31.8212
31.8493
31.8773
31.9054
31.9334
31.9615
31.9895
32.0175
32.0455
32.0735
32.1015
32.1295
32.1574
32.1854
32.2133
32.2412
32.2691
32.297
32.3249
32.3528
32.3806
32.4084
32.4363
32.4641
32.4918
32.5196
32.5473
32.5751
32.6028
32.6305
32.6581
32.6858
32.7134
32.7411
32.7687
32.7963
32.8239
32.8514
32.879
32.9065
32.934
32.9615
32.989
33.0164
33.0439
33.0713
33.0988
33.1262
33.1536
33.181
33.2083
33.2357
33.2631
33.2904
33.3177
33.345
33.3724
33.3997
33.4269
33.4542
33.4815
33.5087
33.536
33.5632
33.5905
33.6177
33.6449
33.6721
33.6994
33.7266
33.7538
33.781
33.8082
33.8353
33.8625
33.8897
33.9169
33.9441
33.9713
33.9985
34.0257
34.0529
34.08
34.1072
34.1345
34.1617
34.1889
34.2161
34.2433
34.2706
34.2978
34.3251
34.3524
34.3797
34.407
34.4343
34.4616
34.489
34.5164
34.5438
34.5712
34.5986
34.6261
34.6535
34.681
34.7086
34.7361
34.7637
34.7913
34.8189
34.8466
34.8742
34.902
34.9297
34.9575
34.9853
35.0131
35.041
35.0689
35.0968
35.1247
35.1527
35.1807
35.2088
35.2368
35.2649
35.2931
35.3212
35.3494
35.3776
35.4059
35.4341
35.4624
35.4907
35.519
35.5474
35.5757
35.6041
35.6325
35.6609
35.6893
35.7177
35.7461
35.7746
35.803
35.8315
35.8599
35.8884
35.9168
35.9453
35.9737
36.0021
36.0305
36.0589
36.0873
36.1157
36.1441
36.1725
36.2008
36.2291
36.2574
36.2857
36.3139
36.3421
36.3704
36.3985
36.4267
36.4548
36.4829
36.5109
36.539
36.567
36.5949
36.6229
36.6508
36.6787
36.7065
36.7343
36.762
36.7898
36.8175
36.8451
36.8727
36.9003
36.9279
36.9554
36.9829
37.0103
37.0377
37.0651
37.0924
37.1197
37.147
37.1742
37.2015
37.2286
37.2558
37.2829
37.31
37.337
37.3641
37.3911
37.418
37.445
37.4719
37.4988
37.5257
37.5526
37.5795
37.6063
37.6331
37.6599
37.6867
37.7135
37.7403
37.7671
37.7939
37.8206
37.8474
37.8741
37.9009
37.9276
37.9544
37.9812
38.008
38.0347
38.0615
38.0883
38.1152
38.142
38.1688
38.1957
38.2226
38.2495
38.2764
38.3034
38.3304
38.3574
38.3844
38.4115
38.4386
38.4657
38.4928
38.52
38.5472
38.5745
38.6018
38.6291
38.6564
38.6838
38.7112
38.7387
38.7661
38.7937
38.8212
38.8488
38.8764
38.904
38.9317
38.9594
38.9871
39.0148
39.0426
39.0704
39.0982
39.1261
39.154
39.1819
39.2098
39.2377
39.2657
39.2936
39.3216
39.3496
39.3777
39.4057
39.4338
39.4618
39.4899
39.518
39.5461
39.5742
39.6024
39.6305
39.6587
39.6868
39.715
39.7432
39.7714
39.7996
39.8278
39.8561
39.8843
39.9126
39.9408
39.9691
39.9974
40.0257
40.054
40.0823
40.1107
40.139
40.1673
40.1957
40.2241
40.2525
40.2809
40.3093
40.3377
40.3661
40.3945
40.423
40.4514
40.4798
40.5083
40.5368
40.5652
40.5937
40.6222
40.6507
40.6791
40.7076
40.7361
40.7645
40.793
40.8215
40.8499
40.8783
40.9068
40.9352
40.9636
40.992
41.0203
41.0487
41.077
41.1053
41.1336
41.1618
41.19
41.2182
41.2464
41.2745
41.3027
41.3307
41.3588
41.3868
41.4148
41.4427
41.4706
41.4985
41.5263
41.5541
41.5818
41.6095
41.6372
41.6649
41.6925
41.72
41.7475
41.775
41.8025
41.8299
41.8573
41.8846
41.9119
41.9392
41.9664
41.9937
42.0208
42.048
42.0751
42.1022
42.1293
42.1564
42.1834
42.2104
42.2374
42.2644
42.2913
42.3183
42.3452
42.3721
42.399
42.4259
42.4528
42.4797
42.5066
42.5335
42.5604
42.5873
42.6142
42.6411
42.668
42.695
42.7219
42.7489
42.7758
42.8028
42.8298
42.8569
42.8839
42.911
42.9381
42.9652
42.9923
43.0195
43.0467
43.0739
43.1012
43.1284
43.1557
43.1831
43.2104
43.2378
43.2653
43.2927
43.3202
43.3477
43.3753
43.4028
43.4304
43.458
43.4857
43.5133
43.541
43.5688
43.5965
43.6242
43.652
43.6798
43.7076
43.7354
43.7633
43.7911
43.819
43.8469
43.8747
43.9026
43.9305
43.9584
43.9863
44.0142
44.0421
44.07
44.0979
44.1258
44.1537
44.1815
44.2094
44.2373
44.2652
44.2931
44.3209
44.3488
44.3766
44.4045
44.4323
44.4602
44.488
44.5158
44.5436
44.5714
44.5992
44.627
44.6548
44.6826
44.7104
44.7382
44.7659
44.7937
44.8215
44.8493
44.8771
44.9048
44.9326
44.9604
44.9882
45.016
45.0438
45.0716
45.0994
45.1272
45.1551
45.1829
45.2108
45.2386
45.2665
45.2944
45.3223
45.3502
45.3782
45.4061
45.4341
45.4621
45.4901
45.5181
45.5462
45.5742
45.6023
45.6304
45.6585
45.6866
45.7147
45.7429
45.771
45.7992
45.8273
45.8555
45.8837
45.9118
45.94
45.9682
45.9963
46.0245
46.0527
46.0808
46.1089
46.137
46.1651
46.1932
46.2213
46.2493
46.2773
46.3053
46.3333
46.3612
46.3891
46.417
46.4448
46.4727
46.5005
46.5282
46.556
46.5837
46.6113
46.639
46.6666
46.6942
46.7218
46.7493
46.7768
46.8043
46.8318
46.8593
46.8867
46.9141
46.9415
46.9689
46.9963
47.0237
47.0511
47.0784
47.1058
47.1331
47.1605
47.1878
47.2151
47.2425
47.2699
47.2972
47.3246
47.352
47.3794
47.4068
47.4342
47.4617
47.4891
47.5166
47.5441
47.5717
47.5992
47.6268
47.6544
47.682
47.7096
47.7373
47.7649
47.7926
47.8203
47.8481
47.8758
47.9036
47.9314
47.9592
47.987
48.0148
48.0426
48.0705
48.0983
48.1262
48.154
48.1819
48.2097
48.2376
48.2655
48.2933
48.3212
48.349
48.3769
48.4048
48.4326
48.4604
48.4883
48.5161
48.5439
48.5717
48.5995
48.6273
48.6551
48.6829
48.7107
48.7385
48.7663
48.794
48.8218
48.8495
48.8773
48.905
48.9328
48.9605
48.9883
49.016
49.0437
49.0715
49.0992
49.127
49.1547
49.1824
49.2102
49.2379
49.2657
49.2935
49.3212
49.349
49.3768
49.4045
49.4323
49.4601
49.4879
49.5158
49.5436
49.5714
49.5992
49.6271
49.6549
49.6828
49.7107
49.7386
49.7665
49.7944
49.8223
49.8502
49.8781
49.906
49.934
49.9619
49.9898
50.0178
50.0457
50.0737
50.1016
50.1296
50.1575
50.1855
50.2135
50.2414
50.2694
50.2973
50.3252
50.3532
50.3811
50.409
50.4369
50.4648
50.4927
50.5206
50.5485
50.5764
50.6043
50.6321
50.66
50.6878
50.7156
50.7434
50.7713
50.7991
50.8268
50.8546
50.8824
50.9102
50.9379
50.9656
50.9934
51.0211
51.0488
51.0765
51.1042
51.1319
51.1596
51.1873
51.2149
51.2426
51.2702
51.2979
51.3255
51.3532
51.3808
51.4084
51.436
51.4636
51.4912
51.5188
51.5464
51.574
51.6015
51.6291
51.6567
51.6842
51.7118
51.7393
51.7669
51.7944
51.822
51.8495
51.877
51.9045
51.9321
51.9596
51.9871
52.0146
52.0421
52.0696
52.0971
52.1246
52.152
52.1795
52.207
52.2345
52.2619
52.2894
52.3169
52.3443
52.3718
52.3992
52.4267
52.4541
52.4815
52.509
52.5364
52.5638
52.5912
52.6187
52.6461
52.6735
52.7009
52.7283
52.7557
52.7831
52.8105
52.8379
52.8653
52.8927
52.9202
52.9476
52.975
53.0024
53.0298
53.0572
53.0846
53.1121
53.1395
53.1669
53.1944
53.2218
53.2493
53.2768
53.3042
53.3317
53.3592
53.3867
53.4142
53.4417
53.4693
53.4968
53.5244
53.5519
53.5795
53.6071
53.6347
53.6623
53.6899
53.7175
53.7452
53.7728
53.8005
53.8282
53.8558
53.8835
53.9112
53.9389
53.9666
53.9943
54.0221
54.0498
54.0775
54.1052
54.1329
54.1606
54.1883
54.216
54.2437
54.2714
54.2991
54.3268
54.3545
54.3821
54.4098
54.4374
54.4651
54.4927
54.5203
54.5479
54.5755
54.6031
54.6307
54.6583
54.6858
54.7134
54.7409
54.7685
54.796
54.8235
54.8511
54.8786
54.9061
54.9336
54.9611
54.9886
55.0161
55.0436
55.0711
55.0986
55.1261
55.1536
55.1811
55.2086
55.2361
55.2636
55.2912
55.3187
55.3462
55.3737
55.4012
55.4287
55.4563
55.4838
55.5113
55.5388
55.5663
55.5938
55.6213
55.6488
55.6763
55.7038
55.7312
55.7587
55.7861
55.8135
55.841
55.8683
55.8957
55.9231
55.9504
55.9778
56.0051
56.0324
56.0596
56.0869
56.1141
56.1413
56.1685
56.1957
56.2229
56.2501
56.2772
56.3043
56.3314
56.3585
56.3856
56.4127
56.4398
56.4669
56.494
56.521
56.5481
56.5752
56.6023
56.6294
56.6564
56.6835
56.7106
56.7377
56.7649
56.792
56.8192
56.8463
56.8735
56.9007
56.928
56.9552
56.9825
57.0098
57.0371
57.0645
57.0918
57.1192
57.1467
57.1741
57.2016
57.2291
57.2566
57.2842
57.3118
57.3393
57.367
57.3946
57.4222
57.4499
57.4775
57.5052
57.5329
57.5606
57.5883
57.6159
57.6436
57.6713
57.6989
57.7266
57.7542
57.7819
57.8095
57.8371
57.8647
57.8922
57.9198
57.9473
57.9748
58.0023
58.0298
58.0572
58.0846
58.112
58.1394
58.1667
58.194
58.2213
58.2486
58.2758
58.303
58.3302
58.3574
58.3845
58.4116
58.4387
58.4658
58.4929
58.5199
58.5469
58.5739
58.6009
58.6279
58.6548
58.6818
58.7087
58.7356
58.7625
58.7894
58.8163
58.8432
58.87
58.8969
58.9238
58.9506
58.9775
59.0043
59.0311
59.058
59.0848
59.1117
59.1385
59.1653
59.1922
59.219
59.2458
59.2727
59.2995
59.3263
59.3532
59.3801
59.4069
59.4338
59.4606
59.4875
59.5144
59.5413
59.5682
59.5951
59.6221
59.649
59.676
59.7029
59.7299
59.7568
59.7838
59.8108
59.8378
59.8648
59.8918
59.9188
59.9458
59.9728
59.9998
60.0269
60.0539
60.0809
60.108
60.135
60.1621
60.1891
60.2162
60.2432
60.2703
60.2973
60.3244
60.3514
60.3785
60.4055
60.4326
60.4596
60.4867
60.5137
60.5408
60.5678
60.5948
60.6219
60.6489
60.6759
60.7029
60.73
60.757
60.784
60.811
60.838
60.8651
60.8921
60.9191
60.9461
60.9731
61.0001
61.0271
61.0541
61.0811
61.1081
61.1351
61.1621
61.1891
61.2161
61.2431
61.2701
61.2971
61.3242
61.3512
61.3782
61.4052
61.4322
61.4592
61.4862
61.5132
61.5402
61.5673
61.5943
61.6213
61.6483
61.6753
61.7023
61.7294
61.7564
61.7834
61.8104
61.8374
61.8644
61.8914
61.9185
61.9455
61.9725
61.9995
62.0265
62.0535
62.0805
62.1075
62.1345
62.1615
62.1885
62.2155
62.2425
62.2695
62.2965
62.3235
62.3505
62.3775
62.4045
62.4315
62.4585
62.4855
62.5125
62.5395
62.5665
62.5935
62.6205
62.6474
62.6744
62.7014
62.7284
62.7554
62.7824
62.8094
62.8363
62.8633
62.8903
62.9172
62.9442
62.9711
62.9981
63.025
63.0519
63.0789
63.1058
63.1327
63.1596
63.1864
63.2133
63.2402
63.267
63.2938
63.3207
63.3475
63.3743
63.4011
63.4279
63.4546
63.4814
63.5081
63.5349
63.5616
63.5883
63.615
63.6417
63.6684
63.695
63.7217
63.7484
63.775
63.8017
63.8283
63.8549
63.8815
63.9082
63.9348
63.9614
63.988
64.0146
64.0412
64.0678
64.0944
64.121
64.1476
64.1742
64.2008
64.2274
64.2541
64.2807
64.3073
64.334
64.3606
64.3873
64.4139
64.4406
64.4673
64.494
64.5207
64.5475
64.5742
64.601
64.6278
64.6546
64.6815
64.7083
64.7352
64.7621
64.789
64.8159
64.8428
64.8698
64.8967
64.9237
64.9507
64.9777
65.0046
65.0316
65.0586
65.0856
65.1126
65.1396
65.1665
65.1935
65.2204
65.2474
65.2743
65.3012
65.3281
65.355
65.3819
65.4087
65.4355
65.4623
65.4891
65.5159
65.5427
65.5694
65.5962
65.6229
65.6497
65.6764
65.7031
65.7298
65.7565
65.7832
65.8099
65.8366
65.8632
65.8899
65.9165
65.9431
65.9698
65.9964
66.023
66.0496
66.0762
66.1028
66.1294
66.156
66.1826
66.2092
66.2358
66.2624
66.289
66.3156
66.3422
66.3688
66.3954
66.422
66.4486
66.4752
66.5018
66.5284
66.555
66.5817
66.6083
66.6349
66.6615
66.6882
66.7148
66.7414
66.7681
66.7947
66.8214
66.848
66.8747
66.9013
66.9279
66.9546
66.9812
67.0079
67.0345
67.0611
67.0878
67.1144
67.141
67.1676
67.1942
67.2208
67.2474
67.274
67.3006
67.3272
67.3537
67.3803
67.4068
67.4334
67.4599
67.4864
67.5129
67.5394
67.5658
67.5923
67.6187
67.6451
67.6715
67.6979
67.7242
67.7506
67.7769
67.8032
67.8295
67.8558
67.882
67.9082
67.9344
67.9606
67.9868
68.0129
68.039
68.0651
68.0912
68.1173
68.1434
68.1694
68.1954
68.2214
68.2474
68.2734
68.2994
68.3253
68.3513
68.3772
68.4032
68.4291
68.455
68.481
68.5069
68.5328
68.5587
68.5847
68.6106
68.6365
68.6625
68.6884
68.7144
68.7404
68.7663
68.7923
68.8183
68.8443
68.8703
68.8963
68.9223
68.9483
68.9743
69.0003
69.0264
69.0524
69.0784
69.1044
69.1304
69.1563
69.1823
69.2083
69.2342
69.2602
69.2861
69.312
69.3379
69.3638
69.3896
69.4154
69.4413
69.4671
69.4928
69.5186
69.5443
69.5701
69.5958
69.6215
69.6471
69.6728
69.6984
69.7241
69.7497
69.7753
69.8009
69.8265
69.852
69.8776
69.9032
69.9287
69.9543
69.9798
70.0053
70.0309
70.0564
70.082
70.1075
70.133
70.1586
70.1841
70.2097
70.2352
70.2608
70.2863
70.3119
70.3374
70.363
70.3886
70.4141
70.4397
70.4653
70.4908
70.5164
70.5419
70.5674
70.593
70.6185
70.644
70.6695
70.695
70.7204
70.7459
70.7713
70.7967
70.8222
70.8475
70.8729
70.8983
70.9237
70.949
70.9743
70.9997
71.025
71.0503
71.0756
71.1009
71.1262
71.1515
71.1767
71.202
71.2273
71.2526
71.2779
71.3032
71.3285
71.3538
71.3791
71.4044
71.4297
71.4551
71.4804
71.5057
71.5311
71.5564
71.5818
71.6071
71.6325
71.6578
71.6832
71.7085
71.7338
71.7591
71.7843
71.8096
71.8348
71.86
71.8852
71.9103
71.9354
71.9605
71.9856
72.0107
72.0357
72.0607
72.0856
72.1106
72.1355
72.1604
72.1853
72.2101
72.235
72.2598
72.2846
72.3094
72.3342
72.359
72.3837
72.4085
72.4333
72.458
72.4828
72.5076
72.5323
72.5571
72.5819
72.6066
72.6314
72.6561
72.6809
72.7057
72.7304
72.7551
72.7799
72.8046
72.8293
72.8539
72.8786
72.9032
72.9278
72.9524
72.9769
73.0014
73.0258
73.0502
73.0746
73.0989
73.1232
73.1475
73.1716
73.1958
73.2199
73.244
73.268
73.292
73.3159
73.3399
73.3638
73.3876
73.4115
73.4353
73.4591
73.4829
73.5066
73.5304
73.5541
73.5778
73.6015
73.6252
73.6489
73.6725
73.6961
73.7197
73.7433
73.7668
73.7903
73.8137
73.837
73.8603
73.8835
73.9066
73.9297
73.9526
73.9754
73.9982
74.0208
74.0433
74.0657
74.0879
74.1101
74.1321
74.154
74.1758
74.1975
74.219
74.2404
74.2618
74.283
74.3042
74.3252
74.3462
74.3671
74.3879
74.4087
74.4294
74.4501
74.4707
74.4913
74.5118
74.5323
74.5528
74.5733
74.5938
74.6142
74.6346
74.655
74.6754
74.6958
74.7161
74.7364
74.7567
74.7769
74.7971
74.8173
74.8374
74.8575
74.8775
74.8975
74.9175
74.9373
74.9571
74.9769
74.9966
75.0163
75.0358
75.0554
75.0748
75.0943
75.1136
75.133
75.1522
75.1715
75.1906
75.2098
75.2289
75.248
75.267
75.2861
75.3051
75.3241
75.3431
75.3621
75.381
75.4
75.419
75.4379
75.4569
75.4759
75.4949
75.5139
75.5329
75.5519
75.571
75.59
75.6091
75.6282
75.6473
75.6665
75.6857
75.7048
75.7241
75.7433
75.7625
75.7818
75.8011
75.8204
75.8397
75.859
75.8783
75.8976
75.9169
75.9363
75.9556
75.9749
75.9942
76.0135
76.0328
76.0521
76.0714
76.0907
76.11
76.1292
76.1485
76.1677
76.187
76.2062
76.2254
76.2446
76.2638
76.2829
76.3021
76.3213
76.3404
76.3595
76.3786
76.3977
76.4168
76.4359
76.455
76.474
76.4931
76.5121
76.5311
76.5501
76.5691
76.5881
76.6071
76.6261
76.645
76.664
76.6829
76.7018
76.7207
76.7396
76.7585
76.7774
76.7963
76.8152
76.834
76.8529
76.8717
76.8905
76.9093
76.9281
76.9469
76.9657
76.9845
77.0032
77.022
77.0407
77.0595
77.0782
77.0969
77.1156
77.1343
77.153
77.1716
77.1903
77.2089
77.2276
77.2462
77.2648
77.2834
77.302
77.3206
77.3391
77.3577
77.3762
77.3948
77.4133
77.4318
77.4503
77.4688
77.4873
77.5058
77.5242
77.5427
77.5611
77.5795
77.598
77.6164
77.6348
77.6532
77.6716
77.6899
77.7083
77.7267
77.745
77.7634
77.7817
77.8001
77.8184
77.8367
77.855
77.8733
77.8916
77.9099
77.9282
77.9465
77.9648
77.9831
78.0013
78.0196
78.0379
78.0561
78.0744
78.0926
78.1109
78.1291
78.1473
78.1656
78.1838
78.202
78.2203
78.2385
78.2567
78.2749
78.2931
78.3113
78.3295
78.3477
78.3659
78.3841
78.4023
78.4205
78.4387
78.4569
78.4751
78.4933
78.5115
78.5297
78.5479
78.566
78.5842
78.6024
78.6206
78.6388
78.657
78.6751
78.6933
78.7115
78.7297
78.7479
78.7661
78.7843
78.8025
78.8206
78.8388
78.857
78.8752
78.8934
78.9116
78.9298
78.948
78.9662
78.9844
79.0026
79.0208
79.0389
79.0571
79.0753
79.0935
79.1117
79.1299
79.1481
79.1663
79.1845
79.2027
79.2209
79.2391
79.2573
79.2755
79.2937
79.3119
79.3301
79.3482
79.3664
79.3846
79.4028
79.421
79.4392
79.4574
79.4756
79.4938
79.512
79.5301
79.5483
79.5665
79.5847
79.6029
79.6211
79.6393
79.6575
79.6756
79.6938
79.712
79.7302
79.7484
79.7666
79.7848
79.803
79.8212
79.8394
79.8576
79.8758
79.8939
79.9121
79.9303
79.9485
79.9667
79.9849
80.0031
80.0213
80.0395
80.0577
80.0759
80.0941
80.1123
80.1305
80.1487
80.1669
80.1851
80.2034
80.2216
80.2398
80.258
80.2762
80.2944
80.3126
80.3309
80.3491
80.3673
80.3855
80.4038
80.422
80.4402
80.4585
80.4767
80.4949
80.5132
80.5314
80.5497
80.5679
80.5862
80.6044
80.6227
80.641
80.6593
80.6775
80.6958
80.7141
80.7324
80.7507
80.769
80.7873
80.8056
80.8239
80.8422
80.8605
80.8788
80.8972
80.9155
80.9338
80.9521
80.9705
80.9888
81.0072
81.0255
81.0439
81.0622
81.0806
81.099
81.1173
81.1357
81.1541
81.1725
81.1909
81.2092
81.2276
81.246
81.2644
81.2828
81.3012
81.3196
81.338
81.3565
81.3749
81.3933
81.4117
81.4301
81.4486
81.467
81.4854
81.5039
81.5223
81.5408
81.5592
81.5776
81.5961
81.6145
81.633
81.6515
81.6699
81.6884
81.7068
81.7253
81.7438
81.7622
81.7807
81.7992
81.8177
81.8361
81.8546
81.8731
81.8916
81.91
81.9285
81.947
81.9655
81.984
82.0025
82.0209
82.0394
82.0579
82.0764
82.0949
82.1134
82.1319
82.1504
82.1688
82.1873
82.2058
82.2243
82.2428
82.2613
82.2798
82.2983
82.3168
82.3353
82.3538
82.3723
82.3908
82.4093
82.4278
82.4463
82.4648
82.4834
82.5019
82.5204
82.5389
82.5574
82.5759
82.5944
82.613
82.6315
82.65
82.6685
82.687
82.7056
82.7241
82.7426
82.7612
82.7797
82.7982
82.8168
82.8353
82.8539
82.8724
82.891
82.9095
82.9281
82.9466
82.9652
82.9837
83.0023
83.0208
83.0394
83.058
83.0766
83.0951
83.1137
83.1323
83.1509
83.1694
83.188
83.2066
83.2252
83.2438
83.2624
83.281
83.2996
83.3182
83.3368
83.3555
83.3741
83.3927
83.4113
83.43
83.4486
83.4672
83.4859
83.5045
83.5231
83.5418
83.5604
83.5791
83.5977
83.6164
83.6351
83.6537
83.6724
83.6911
83.7097
83.7284
83.7471
83.7658
83.7845
83.8031
83.8218
83.8405
83.8592
83.8779
83.8966
83.9153
83.934
83.9527
83.9714
83.9901
84.0088
84.0275
84.0462
84.065
84.0837
84.1024
84.1211
84.1398
84.1585
84.1773
84.196
84.2147
84.2334
84.2521
84.2709
84.2896
84.3083
84.3271
84.3458
84.3645
84.3832
84.402
84.4207
84.4394
84.4582
84.4769
84.4956
84.5144
84.5331
84.5518
84.5706
84.5893
84.6081
84.6268
84.6455
84.6643
84.683
84.7018
84.7205
84.7392
84.758
84.7767
84.7955
84.8142
84.833
84.8517
84.8705
84.8892
84.908
84.9267
84.9455
84.9642
84.983
85.0018
85.0205
85.0393
85.0581
85.0768
85.0956
85.1144
85.1331
85.1519
85.1707
85.1894
85.2082
85.227
85.2458
85.2646
85.2834
85.3022
85.321
85.3397
85.3585
85.3773
85.3961
85.4149
85.4338
85.4526
85.4714
85.4902
85.509
85.5278
85.5467
85.5655
85.5843
85.6032
85.622
85.6408
85.6597
85.6785
85.6974
85.7162
85.7351
85.754
85.7728
85.7917
85.8106
85.8294
85.8483
85.8672
85.8861
85.905
85.9239
85.9428
85.9617
85.9806
85.9995
86.0184
86.0373
86.0562
86.0752
86.0941
86.113
86.132
86.1509
86.1698
86.1888
86.2077
86.2267
86.2456
86.2646
86.2835
86.3025
86.3215
86.3404
86.3594
86.3784
86.3974
86.4163
86.4353
86.4543
86.4733
86.4923
86.5113
86.5302
86.5492
86.5682
86.5872
86.6062
86.6252
86.6442
86.6633
86.6823
86.7013
86.7203
86.7393
86.7583
86.7773
86.7964
86.8154
86.8344
86.8534
86.8724
86.8915
86.9105
86.9295
86.9486
86.9676
86.9866
87.0057
87.0247
87.0437
87.0628
87.0818
87.1008
87.1199
87.1389
87.158
87.177
87.196
87.2151
87.2341
87.2532
87.2722
87.2913
87.3103
87.3294
87.3484
87.3675
87.3865
87.4056
87.4247
87.4437
87.4628
87.4818
87.5009
87.5199
87.539
87.5581
87.5771
87.5962
87.6153
87.6343
87.6534
87.6725
87.6916
87.7106
87.7297
87.7488
87.7679
87.7869
87.806
87.8251
87.8442
87.8633
87.8824
87.9015
87.9206
87.9397
87.9588
87.9779
87.997
88.0161
88.0352
88.0543
88.0734
88.0925
88.1116
88.1308
88.1499
88.169
88.1881
88.2073
88.2264
88.2455
88.2647
88.2838
88.303
88.3221
88.3413
88.3604
88.3796
88.3987
88.4179
88.4371
88.4562
88.4754
88.4946
88.5138
88.5329
88.5521
88.5713
88.5905
88.6097
88.6289
88.6481
88.6673
88.6865
88.7057
88.7249
88.7441
88.7633
88.7826
88.8018
88.821
88.8402
88.8595
88.8787
88.8979
88.9172
88.9364
88.9556
88.9749
88.9941
89.0134
89.0326
89.0519
89.0711
89.0904
89.1096
89.1289
89.1482
89.1674
89.1867
89.206
89.2252
89.2445
89.2638
89.2831
89.3023
89.3216
89.3409
89.3602
89.3795
89.3988
89.4181
89.4373
89.4566
89.4759
89.4952
89.5145
89.5338
89.5531
89.5724
89.5917
89.611
89.6303
89.6497
89.669
89.6883
89.7076
89.7269
89.7462
89.7655
89.7849
89.8042
89.8235
89.8428
89.8622
89.8815
89.9008
89.9201
89.9395
89.9588
89.9782
89.9975
90.0168
90.0362
90.0555
90.0749
90.0942
90.1136
90.1329
90.1523
90.1716
90.191
90.2104
90.2297
90.2491
90.2685
90.2878
90.3072
90.3266
90.346
90.3654
90.3847
90.4041
90.4235
90.4429
90.4623
90.4817
90.5011
90.5205
90.5399
90.5593
90.5787
90.5981
90.6175
90.637
90.6564
90.6758
90.6952
90.7146
90.7341
90.7535
90.7729
90.7924
90.8118
90.8313
90.8507
90.8702
90.8896
90.9091
90.9285
90.948
90.9675
90.9869
91.0064
91.0259
91.0453
91.0648
91.0843
91.1038
91.1233
91.1427
91.1622
91.1817
91.2012
91.2207
91.2402
91.2597
91.2792
91.2987
91.3182
91.3378
91.3573
91.3768
91.3963
91.4158
91.4354
91.4549
91.4744
91.4939
91.5135
91.533
91.5526
91.5721
91.5916
91.6112
91.6307
91.6503
91.6698
91.6894
91.7089
91.7285
91.7481
91.7676
91.7872
91.8067
91.8263
91.8459
91.8655
91.885
91.9046
91.9242
91.9438
91.9633
91.9829
92.0025
92.0221
92.0417
92.0613
92.0809
92.1005
92.1201
92.1397
92.1593
92.1789
92.1985
92.2181
92.2377
92.2573
92.2769
92.2965
92.3161
92.3357
92.3553
92.375
92.3946
92.4142
92.4338
92.4535
92.4731
92.4927
92.5124
92.532
92.5516
92.5713
92.5909
92.6105
92.6302
92.6498
92.6695
92.6891
92.7088
92.7285
92.7481
92.7678
92.7874
92.8071
92.8268
92.8464
92.8661
92.8858
92.9055
92.9251
92.9448
92.9645
92.9842
93.0039
93.0236
93.0433
93.0629
93.0826
93.1023
93.122
93.1417
93.1615
93.1812
93.2009
93.2206
93.2403
93.26
93.2797
93.2995
93.3192
93.3389
93.3586
93.3784
93.3981
93.4178
93.4376
93.4573
93.477
93.4968
93.5165
93.5363
93.556
93.5757
93.5955
93.6153
93.635
93.6548
93.6745
93.6943
93.714
93.7338
93.7536
93.7733
93.7931
93.8129
93.8326
93.8524
93.8722
93.892
93.9117
93.9315
93.9513
93.9711
93.9909
94.0107
94.0305
94.0502
94.07
94.0898
94.1096
94.1294
94.1492
94.169
94.1888
94.2086
94.2284
94.2482
94.268
94.2879
94.3077
94.3275
94.3473
94.3671
94.3869
94.4068
94.4266
94.4464
94.4662
94.4861
94.5059
94.5257
94.5455
94.5654
94.5852
94.6051
94.6249
94.6447
94.6646
94.6844
94.7043
94.7241
94.744
94.7638
94.7837
94.8036
94.8234
94.8433
94.8632
94.883
94.9029