/*--------------------------------*- C++ -*----------------------------------*\
  =========                 |
  \\      /  F ield         | OpenFOAM: The Open Source CFD Toolbox
   \\    /   O peration     | Website:  https://openfoam.org
    \\  /    A nd           | Version:  9
     \\/     M anipulation  |
\*---------------------------------------------------------------------------*/
FoamFile
{
    format      ascii;
    class       volScalarField;
    location    "0.018";
    object      rho;
}
// * * * * * * * * * * * * * * * * * * * * * * * * * * * * * * * * * * * * * //

dimensions      [1 -3 0 0 0 0 0];

internalField   nonuniform List<scalar> 
10000
(
0.622566
0.62255
0.622523
0.622497
0.622478
0.622467
0.62246
0.622456
0.622453
0.622451
0.622448
0.622447
0.622445
0.622442
0.62244
0.622438
0.622436
0.622434
0.622432
0.62243
0.622428
0.622426
0.622424
0.622422
0.62242
0.622417
0.622415
0.622413
0.622411
0.622409
0.622407
0.622405
0.622402
0.6224
0.622398
0.622396
0.622394
0.622392
0.622389
0.622387
0.622385
0.622383
0.622381
0.622378
0.622376
0.622374
0.622372
0.622369
0.622367
0.622365
0.622363
0.62236
0.622358
0.622356
0.622354
0.622351
0.622349
0.622347
0.622345
0.622342
0.62234
0.622338
0.622335
0.622333
0.622331
0.622328
0.622326
0.622324
0.622321
0.622319
0.622317
0.622314
0.622312
0.622309
0.622307
0.622305
0.622302
0.6223
0.622297
0.622295
0.622293
0.62229
0.622288
0.622285
0.622283
0.622281
0.622278
0.622276
0.622273
0.622271
0.622268
0.622266
0.622263
0.622261
0.622258
0.622256
0.622253
0.622251
0.622248
0.622246
0.622243
0.622241
0.622238
0.622236
0.622233
0.622231
0.622228
0.622225
0.622223
0.62222
0.622218
0.622215
0.622213
0.62221
0.622207
0.622205
0.622202
0.6222
0.622197
0.622194
0.622192
0.622189
0.622186
0.622184
0.622181
0.622179
0.622176
0.622173
0.622171
0.622168
0.622165
0.622162
0.62216
0.622157
0.622154
0.622152
0.622149
0.622146
0.622144
0.622141
0.622138
0.622135
0.622133
0.62213
0.622127
0.622124
0.622122
0.622119
0.622116
0.622113
0.62211
0.622108
0.622105
0.622102
0.622099
0.622096
0.622094
0.622091
0.622088
0.622085
0.622082
0.622079
0.622076
0.622074
0.622071
0.622068
0.622065
0.622062
0.622059
0.622056
0.622053
0.622051
0.622048
0.622045
0.622042
0.622039
0.622036
0.622033
0.62203
0.622027
0.622024
0.622021
0.622018
0.622015
0.622012
0.622009
0.622006
0.622003
0.622
0.621997
0.621994
0.621991
0.621988
0.621985
0.621982
0.621979
0.621976
0.621973
0.62197
0.621967
0.621964
0.621961
0.621958
0.621955
0.621952
0.621949
0.621946
0.621942
0.621939
0.621936
0.621933
0.62193
0.621927
0.621924
0.621921
0.621917
0.621914
0.621911
0.621908
0.621905
0.621902
0.621898
0.621895
0.621892
0.621889
0.621886
0.621883
0.621879
0.621876
0.621873
0.62187
0.621866
0.621863
0.62186
0.621857
0.621853
0.62185
0.621847
0.621844
0.62184
0.621837
0.621834
0.621831
0.621827
0.621824
0.621821
0.621817
0.621814
0.621811
0.621807
0.621804
0.621801
0.621797
0.621794
0.621791
0.621787
0.621784
0.621781
0.621777
0.621774
0.62177
0.621767
0.621764
0.62176
0.621757
0.621753
0.62175
0.621747
0.621743
0.62174
0.621736
0.621733
0.621729
0.621726
0.621722
0.621719
0.621715
0.621712
0.621709
0.621705
0.621702
0.621698
0.621695
0.621691
0.621688
0.621684
0.62168
0.621677
0.621673
0.62167
0.621666
0.621663
0.621659
0.621656
0.621652
0.621648
0.621645
0.621641
0.621638
0.621634
0.62163
0.621627
0.621623
0.62162
0.621616
0.621612
0.621609
0.621605
0.621601
0.621598
0.621594
0.62159
0.621587
0.621583
0.621579
0.621576
0.621572
0.621568
0.621565
0.621561
0.621557
0.621553
0.62155
0.621546
0.621542
0.621539
0.621535
0.621531
0.621527
0.621524
0.62152
0.621516
0.621512
0.621508
0.621505
0.621501
0.621497
0.621493
0.621489
0.621486
0.621482
0.621478
0.621474
0.62147
0.621466
0.621463
0.621459
0.621455
0.621451
0.621447
0.621443
0.621439
0.621435
0.621432
0.621428
0.621424
0.62142
0.621416
0.621412
0.621408
0.621404
0.6214
0.621396
0.621392
0.621388
0.621384
0.62138
0.621376
0.621372
0.621368
0.621364
0.62136
0.621356
0.621352
0.621348
0.621344
0.62134
0.621336
0.621332
0.621328
0.621324
0.62132
0.621316
0.621312
0.621308
0.621304
0.6213
0.621296
0.621292
0.621288
0.621283
0.621279
0.621275
0.621271
0.621267
0.621263
0.621259
0.621255
0.62125
0.621246
0.621242
0.621238
0.621234
0.62123
0.621225
0.621221
0.621217
0.621213
0.621209
0.621205
0.6212
0.621196
0.621192
0.621188
0.621183
0.621179
0.621175
0.621171
0.621166
0.621162
0.621158
0.621154
0.621149
0.621145
0.621141
0.621136
0.621132
0.621128
0.621124
0.621119
0.621115
0.621111
0.621106
0.621102
0.621098
0.621093
0.621089
0.621085
0.62108
0.621076
0.621071
0.621067
0.621063
0.621058
0.621054
0.621049
0.621045
0.621041
0.621036
0.621032
0.621027
0.621023
0.621018
0.621014
0.62101
0.621005
0.621001
0.620996
0.620992
0.620987
0.620983
0.620978
0.620974
0.620969
0.620965
0.62096
0.620956
0.620951
0.620947
0.620942
0.620937
0.620933
0.620928
0.620924
0.620919
0.620915
0.62091
0.620906
0.620901
0.620896
0.620892
0.620887
0.620883
0.620878
0.620873
0.620869
0.620864
0.620859
0.620855
0.62085
0.620845
0.620841
0.620836
0.620831
0.620827
0.620822
0.620817
0.620813
0.620808
0.620803
0.620799
0.620794
0.620789
0.620784
0.62078
0.620775
0.62077
0.620765
0.620761
0.620756
0.620751
0.620746
0.620742
0.620737
0.620732
0.620727
0.620722
0.620718
0.620713
0.620708
0.620703
0.620698
0.620693
0.620689
0.620684
0.620679
0.620674
0.620669
0.620664
0.620659
0.620655
0.62065
0.620645
0.62064
0.620635
0.62063
0.620625
0.62062
0.620615
0.62061
0.620605
0.620601
0.620596
0.620591
0.620586
0.620581
0.620576
0.620571
0.620566
0.620561
0.620556
0.620551
0.620546
0.620541
0.620536
0.620531
0.620526
0.620521
0.620516
0.620511
0.620506
0.620501
0.620495
0.62049
0.620485
0.62048
0.620475
0.62047
0.620465
0.62046
0.620455
0.62045
0.620445
0.620439
0.620434
0.620429
0.620424
0.620419
0.620414
0.620409
0.620403
0.620398
0.620393
0.620388
0.620383
0.620378
0.620372
0.620367
0.620362
0.620357
0.620352
0.620346
0.620341
0.620336
0.620331
0.620325
0.62032
0.620315
0.62031
0.620304
0.620299
0.620294
0.620288
0.620283
0.620278
0.620273
0.620267
0.620262
0.620257
0.620251
0.620246
0.620241
0.620235
0.62023
0.620225
0.620219
0.620214
0.620209
0.620203
0.620198
0.620192
0.620187
0.620182
0.620176
0.620171
0.620165
0.62016
0.620155
0.620149
0.620144
0.620138
0.620133
0.620127
0.620122
0.620116
0.620111
0.620105
0.6201
0.620094
0.620089
0.620083
0.620078
0.620072
0.620067
0.620061
0.620056
0.62005
0.620045
0.620039
0.620034
0.620028
0.620023
0.620017
0.620011
0.620006
0.62
0.619995
0.619989
0.619983
0.619978
0.619972
0.619967
0.619961
0.619955
0.61995
0.619944
0.619938
0.619933
0.619927
0.619921
0.619916
0.61991
0.619904
0.619899
0.619893
0.619887
0.619882
0.619876
0.61987
0.619865
0.619859
0.619853
0.619847
0.619842
0.619836
0.61983
0.619824
0.619819
0.619813
0.619807
0.619801
0.619795
0.61979
0.619784
0.619778
0.619772
0.619766
0.619761
0.619755
0.619749
0.619743
0.619737
0.619731
0.619725
0.61972
0.619714
0.619708
0.619702
0.619696
0.61969
0.619684
0.619678
0.619672
0.619667
0.619661
0.619655
0.619649
0.619643
0.619637
0.619631
0.619625
0.619619
0.619613
0.619607
0.619601
0.619595
0.619589
0.619583
0.619577
0.619571
0.619565
0.619559
0.619553
0.619547
0.619541
0.619535
0.619529
0.619523
0.619517
0.619511
0.619505
0.619499
0.619492
0.619486
0.61948
0.619474
0.619468
0.619462
0.619456
0.61945
0.619444
0.619437
0.619431
0.619425
0.619419
0.619413
0.619407
0.619401
0.619394
0.619388
0.619382
0.619376
0.61937
0.619363
0.619357
0.619351
0.619345
0.619339
0.619332
0.619326
0.61932
0.619314
0.619307
0.619301
0.619295
0.619289
0.619282
0.619276
0.61927
0.619263
0.619257
0.619251
0.619244
0.619238
0.619232
0.619225
0.619219
0.619213
0.619206
0.6192
0.619194
0.619187
0.619181
0.619175
0.619168
0.619162
0.619155
0.619149
0.619143
0.619136
0.61913
0.619123
0.619117
0.619111
0.619104
0.619098
0.619091
0.619085
0.619078
0.619072
0.619065
0.619059
0.619052
0.619046
0.619039
0.619033
0.619026
0.61902
0.619013
0.619007
0.619
0.618994
0.618987
0.618981
0.618974
0.618967
0.618961
0.618954
0.618948
0.618941
0.618935
0.618928
0.618921
0.618915
0.618908
0.618901
0.618895
0.618888
0.618882
0.618875
0.618868
0.618862
0.618855
0.618848
0.618842
0.618835
0.618828
0.618822
0.618815
0.618808
0.618801
0.618795
0.618788
0.618781
0.618775
0.618768
0.618761
0.618754
0.618748
0.618741
0.618734
0.618727
0.61872
0.618714
0.618707
0.6187
0.618693
0.618686
0.61868
0.618673
0.618666
0.618659
0.618652
0.618645
0.618639
0.618632
0.618625
0.618618
0.618611
0.618604
0.618597
0.618591
0.618584
0.618577
0.61857
0.618563
0.618556
0.618549
0.618542
0.618535
0.618528
0.618521
0.618514
0.618507
0.6185
0.618493
0.618486
0.618479
0.618472
0.618465
0.618458
0.618451
0.618444
0.618437
0.61843
0.618423
0.618416
0.618409
0.618402
0.618395
0.618388
0.618381
0.618374
0.618367
0.61836
0.618353
0.618346
0.618338
0.618331
0.618324
0.618317
0.61831
0.618303
0.618296
0.618289
0.618281
0.618274
0.618267
0.61826
0.618253
0.618246
0.618238
0.618231
0.618224
0.618217
0.61821
0.618202
0.618195
0.618188
0.618181
0.618173
0.618166
0.618159
0.618152
0.618144
0.618137
0.61813
0.618123
0.618115
0.618108
0.618101
0.618093
0.618086
0.618079
0.618071
0.618064
0.618057
0.618049
0.618042
0.618035
0.618027
0.61802
0.618013
0.618005
0.617998
0.61799
0.617983
0.617976
0.617968
0.617961
0.617953
0.617946
0.617939
0.617931
0.617924
0.617916
0.617909
0.617901
0.617894
0.617886
0.617879
0.617871
0.617864
0.617856
0.617849
0.617841
0.617834
0.617826
0.617819
0.617811
0.617804
0.617796
0.617789
0.617781
0.617774
0.617766
0.617758
0.617751
0.617743
0.617736
0.617728
0.61772
0.617713
0.617705
0.617698
0.61769
0.617682
0.617675
0.617667
0.617659
0.617652
0.617644
0.617636
0.617629
0.617621
0.617613
0.617606
0.617598
0.61759
0.617582
0.617575
0.617567
0.617559
0.617552
0.617544
0.617536
0.617528
0.617521
0.617513
0.617505
0.617497
0.617489
0.617482
0.617474
0.617466
0.617458
0.61745
0.617443
0.617435
0.617427
0.617419
0.617411
0.617403
0.617395
0.617388
0.61738
0.617372
0.617364
0.617356
0.617348
0.61734
0.617332
0.617324
0.617317
0.617309
0.617301
0.617293
0.617285
0.617277
0.617269
0.617261
0.617253
0.617245
0.617237
0.617229
0.617221
0.617213
0.617205
0.617197
0.617189
0.617181
0.617173
0.617165
0.617157
0.617149
0.617141
0.617133
0.617125
0.617116
0.617108
0.6171
0.617092
0.617084
0.617076
0.617068
0.61706
0.617052
0.617043
0.617035
0.617027
0.617019
0.617011
0.617003
0.616995
0.616986
0.616978
0.61697
0.616962
0.616954
0.616945
0.616937
0.616929
0.616921
0.616913
0.616904
0.616896
0.616888
0.61688
0.616871
0.616863
0.616855
0.616846
0.616838
0.61683
0.616822
0.616813
0.616805
0.616797
0.616788
0.61678
0.616772
0.616763
0.616755
0.616747
0.616738
0.61673
0.616721
0.616713
0.616705
0.616696
0.616688
0.61668
0.616671
0.616663
0.616654
0.616646
0.616637
0.616629
0.616621
0.616612
0.616604
0.616595
0.616587
0.616578
0.61657
0.616561
0.616553
0.616544
0.616536
0.616527
0.616519
0.61651
0.616502
0.616493
0.616484
0.616476
0.616467
0.616459
0.61645
0.616442
0.616433
0.616424
0.616416
0.616407
0.616399
0.61639
0.616381
0.616373
0.616364
0.616355
0.616347
0.616338
0.616329
0.616321
0.616312
0.616303
0.616295
0.616286
0.616277
0.616269
0.61626
0.616251
0.616242
0.616234
0.616225
0.616216
0.616207
0.616199
0.61619
0.616181
0.616172
0.616164
0.616155
0.616146
0.616137
0.616128
0.61612
0.616111
0.616102
0.616093
0.616084
0.616075
0.616067
0.616058
0.616049
0.61604
0.616031
0.616022
0.616013
0.616004
0.615995
0.615987
0.615978
0.615969
0.61596
0.615951
0.615942
0.615933
0.615924
0.615915
0.615906
0.615897
0.615888
0.615879
0.61587
0.615861
0.615852
0.615843
0.615834
0.615825
0.615816
0.615807
0.615798
0.615789
0.61578
0.615771
0.615762
0.615752
0.615743
0.615734
0.615725
0.615716
0.615707
0.615698
0.615689
0.61568
0.61567
0.615661
0.615652
0.615643
0.615634
0.615625
0.615615
0.615606
0.615597
0.615588
0.615579
0.615569
0.61556
0.615551
0.615542
0.615533
0.615523
0.615514
0.615505
0.615495
0.615486
0.615477
0.615468
0.615458
0.615449
0.61544
0.61543
0.615421
0.615412
0.615402
0.615393
0.615384
0.615374
0.615365
0.615356
0.615346
0.615337
0.615327
0.615318
0.615309
0.615299
0.61529
0.61528
0.615271
0.615262
0.615252
0.615243
0.615233
0.615224
0.615214
0.615205
0.615195
0.615186
0.615176
0.615167
0.615157
0.615148
0.615138
0.615129
0.615119
0.61511
0.6151
0.615091
0.615081
0.615071
0.615062
0.615052
0.615043
0.615033
0.615023
0.615014
0.615004
0.614995
0.614985
0.614975
0.614966
0.614956
0.614946
0.614937
0.614927
0.614917
0.614908
0.614898
0.614888
0.614879
0.614869
0.614859
0.614849
0.61484
0.61483
0.61482
0.61481
0.614801
0.614791
0.614781
0.614771
0.614762
0.614752
0.614742
0.614732
0.614722
0.614712
0.614703
0.614693
0.614683
0.614673
0.614663
0.614653
0.614643
0.614634
0.614624
0.614614
0.614604
0.614594
0.614584
0.614574
0.614564
0.614554
0.614544
0.614534
0.614524
0.614514
0.614504
0.614494
0.614485
0.614475
0.614465
0.614454
0.614444
0.614434
0.614424
0.614414
0.614404
0.614394
0.614384
0.614374
0.614364
0.614354
0.614344
0.614334
0.614324
0.614314
0.614303
0.614293
0.614283
0.614273
0.614263
0.614253
0.614243
0.614232
0.614222
0.614212
0.614202
0.614192
0.614181
0.614171
0.614161
0.614151
0.614141
0.61413
0.61412
0.61411
0.6141
0.614089
0.614079
0.614069
0.614058
0.614048
0.614038
0.614028
0.614017
0.614007
0.613997
0.613986
0.613976
0.613965
0.613955
0.613945
0.613934
0.613924
0.613914
0.613903
0.613893
0.613882
0.613872
0.613861
0.613851
0.613841
0.61383
0.61382
0.613809
0.613799
0.613788
0.613778
0.613767
0.613757
0.613746
0.613736
0.613725
0.613715
0.613704
0.613693
0.613683
0.613672
0.613662
0.613651
0.613641
0.61363
0.613619
0.613609
0.613598
0.613587
0.613577
0.613566
0.613556
0.613545
0.613534
0.613523
0.613513
0.613502
0.613491
0.613481
0.61347
0.613459
0.613448
0.613438
0.613427
0.613416
0.613405
0.613395
0.613384
0.613373
0.613362
0.613352
0.613341
0.61333
0.613319
0.613308
0.613297
0.613287
0.613276
0.613265
0.613254
0.613243
0.613232
0.613221
0.61321
0.613199
0.613188
0.613178
0.613167
0.613156
0.613145
0.613134
0.613123
0.613112
0.613101
0.61309
0.613079
0.613068
0.613057
0.613046
0.613035
0.613024
0.613012
0.613001
0.61299
0.612979
0.612968
0.612957
0.612946
0.612935
0.612924
0.612913
0.612901
0.61289
0.612879
0.612868
0.612857
0.612846
0.612834
0.612823
0.612812
0.612801
0.61279
0.612778
0.612767
0.612756
0.612745
0.612733
0.612722
0.612711
0.612699
0.612688
0.612677
0.612665
0.612654
0.612643
0.612631
0.61262
0.612609
0.612597
0.612586
0.612575
0.612563
0.612552
0.61254
0.612529
0.612517
0.612506
0.612495
0.612483
0.612472
0.61246
0.612449
0.612437
0.612426
0.612414
0.612403
0.612391
0.612379
0.612368
0.612356
0.612345
0.612333
0.612322
0.61231
0.612298
0.612287
0.612275
0.612263
0.612252
0.61224
0.612229
0.612217
0.612205
0.612193
0.612182
0.61217
0.612158
0.612147
0.612135
0.612123
0.612111
0.6121
0.612088
0.612076
0.612064
0.612052
0.612041
0.612029
0.612017
0.612005
0.611993
0.611981
0.611969
0.611958
0.611946
0.611934
0.611922
0.61191
0.611898
0.611886
0.611874
0.611862
0.61185
0.611838
0.611826
0.611814
0.611802
0.61179
0.611778
0.611766
0.611754
0.611742
0.61173
0.611718
0.611706
0.611693
0.611681
0.611669
0.611657
0.611645
0.611633
0.611621
0.611608
0.611596
0.611584
0.611572
0.611559
0.611547
0.611535
0.611523
0.61151
0.611498
0.611486
0.611474
0.611461
0.611449
0.611437
0.611424
0.611412
0.6114
0.611387
0.611375
0.611362
0.61135
0.611338
0.611325
0.611313
0.6113
0.611288
0.611275
0.611263
0.61125
0.611238
0.611225
0.611213
0.6112
0.611188
0.611175
0.611162
0.61115
0.611137
0.611125
0.611112
0.611099
0.611087
0.611074
0.611061
0.611049
0.611036
0.611023
0.61101
0.610998
0.610985
0.610972
0.610959
0.610947
0.610934
0.610921
0.610908
0.610895
0.610882
0.61087
0.610857
0.610844
0.610831
0.610818
0.610805
0.610792
0.610779
0.610766
0.610753
0.61074
0.610727
0.610714
0.610701
0.610688
0.610675
0.610662
0.610649
0.610636
0.610623
0.61061
0.610596
0.610583
0.61057
0.610557
0.610544
0.610531
0.610517
0.610504
0.610491
0.610478
0.610464
0.610451
0.610438
0.610424
0.610411
0.610398
0.610384
0.610371
0.610358
0.610344
0.610331
0.610317
0.610304
0.61029
0.610277
0.610263
0.61025
0.610236
0.610223
0.610209
0.610196
0.610182
0.610168
0.610155
0.610141
0.610128
0.610114
0.6101
0.610087
0.610073
0.610059
0.610045
0.610032
0.610018
0.610004
0.60999
0.609976
0.609963
0.609949
0.609935
0.609921
0.609907
0.609893
0.609879
0.609865
0.609851
0.609837
0.609823
0.609809
0.609795
0.609781
0.609767
0.609753
0.609739
0.609725
0.60971
0.609696
0.609682
0.609668
0.609654
0.609639
0.609625
0.609611
0.609596
0.609582
0.609568
0.609553
0.609539
0.609525
0.60951
0.609496
0.609481
0.609467
0.609452
0.609438
0.609423
0.609409
0.609394
0.60938
0.609365
0.60935
0.609336
0.609321
0.609306
0.609292
0.609277
0.609262
0.609247
0.609233
0.609218
0.609203
0.609188
0.609173
0.609158
0.609143
0.609128
0.609113
0.609098
0.609083
0.609068
0.609053
0.609038
0.609023
0.609008
0.608993
0.608977
0.608962
0.608947
0.608932
0.608916
0.608901
0.608886
0.60887
0.608855
0.60884
0.608824
0.608809
0.608793
0.608778
0.608762
0.608747
0.608731
0.608715
0.6087
0.608684
0.608668
0.608653
0.608637
0.608621
0.608605
0.60859
0.608574
0.608558
0.608542
0.608526
0.60851
0.608494
0.608478
0.608462
0.608446
0.60843
0.608414
0.608397
0.608381
0.608365
0.608349
0.608332
0.608316
0.6083
0.608283
0.608267
0.60825
0.608234
0.608217
0.608201
0.608184
0.608168
0.608151
0.608134
0.608118
0.608101
0.608084
0.608067
0.60805
0.608033
0.608016
0.608
0.607982
0.607965
0.607948
0.607931
0.607914
0.607897
0.60788
0.607863
0.607845
0.607828
0.60781
0.607793
0.607775
0.607758
0.60774
0.607723
0.607705
0.607688
0.607669
0.607653
0.607634
0.607617
0.607598
0.607582
0.607562
0.607546
0.607526
0.60751
0.607489
0.607473
0.607453
0.607437
0.607416
0.6074
0.607379
0.607363
0.607342
0.607326
0.607305
0.607289
0.607268
0.607252
0.60723
0.607214
0.607192
0.607176
0.607154
0.607138
0.607116
0.6071
0.607078
0.607061
0.607039
0.607022
0.607
0.606983
0.606961
0.606944
0.606922
0.606905
0.606882
0.606865
0.606842
0.606825
0.606802
0.606785
0.606762
0.606745
0.606722
0.606704
0.606681
0.606663
0.60664
0.606621
0.606599
0.60658
0.606557
0.606537
0.606516
0.606495
0.606473
0.606453
0.606431
0.60641
0.606388
0.606367
0.606345
0.606324
0.606302
0.60628
0.606258
0.606236
0.606214
0.606192
0.60617
0.606147
0.606125
0.606102
0.60608
0.606057
0.606034
0.606012
0.605989
0.605966
0.605943
0.605919
0.605896
0.605873
0.605849
0.605826
0.605802
0.605778
0.605754
0.60573
0.605706
0.605682
0.605658
0.605633
0.605609
0.605584
0.605559
0.605535
0.60551
0.605485
0.605459
0.605434
0.605409
0.605383
0.605358
0.605332
0.605306
0.60528
0.605254
0.605228
0.605201
0.605175
0.605148
0.605121
0.605095
0.605068
0.60504
0.605013
0.604986
0.604958
0.60493
0.604903
0.604875
0.604847
0.604818
0.60479
0.604761
0.604733
0.604704
0.604675
0.604646
0.604616
0.604587
0.604557
0.604528
0.604498
0.604468
0.604437
0.604407
0.604376
0.604346
0.604315
0.604284
0.604252
0.604221
0.604189
0.604157
0.604125
0.604093
0.604061
0.604028
0.603996
0.603963
0.60393
0.603896
0.603863
0.603829
0.603795
0.603761
0.603727
0.603692
0.603658
0.603623
0.603588
0.603552
0.603517
0.603481
0.603445
0.603409
0.603373
0.603336
0.603299
0.603262
0.603225
0.603187
0.60315
0.603112
0.603073
0.603035
0.602996
0.602957
0.602918
0.602879
0.602839
0.602799
0.602759
0.602719
0.602678
0.602637
0.602596
0.602555
0.602513
0.602471
0.602429
0.602386
0.602344
0.602301
0.602258
0.602214
0.60217
0.602126
0.602082
0.602037
0.601992
0.601947
0.601902
0.601856
0.60181
0.601764
0.601717
0.60167
0.601623
0.601576
0.601528
0.60148
0.601431
0.601383
0.601334
0.601285
0.601235
0.601185
0.601135
0.601085
0.601034
0.600983
0.600932
0.60088
0.600828
0.600776
0.600724
0.600671
0.600618
0.600564
0.600511
0.600457
0.600402
0.600348
0.600293
0.600237
0.600182
0.600126
0.60007
0.600013
0.599957
0.599899
0.599842
0.599784
0.599726
0.599668
0.599609
0.59955
0.599491
0.599432
0.599372
0.599312
0.599251
0.599191
0.59913
0.599068
0.599007
0.598945
0.598883
0.59882
0.598757
0.598694
0.598631
0.598567
0.598503
0.598439
0.598375
0.59831
0.598245
0.59818
0.598114
0.598048
0.597982
0.597916
0.597849
0.597782
0.597715
0.597648
0.59758
0.597512
0.597444
0.597375
0.597307
0.597238
0.597169
0.597099
0.59703
0.59696
0.59689
0.596819
0.596749
0.596678
0.596607
0.596536
0.596464
0.596393
0.596321
0.596249
0.596176
0.596104
0.596031
0.595958
0.595885
0.595812
0.595739
0.595665
0.595591
0.595517
0.595443
0.595369
0.595294
0.59522
0.595145
0.59507
0.594995
0.594919
0.594844
0.594768
0.594693
0.594617
0.594541
0.594465
0.594388
0.594312
0.594235
0.594159
0.594082
0.594005
0.593928
0.593851
0.593774
0.593696
0.593619
0.593541
0.593463
0.593386
0.593308
0.59323
0.593152
0.593074
0.592995
0.592917
0.592839
0.59276
0.592682
0.592603
0.592524
0.592445
0.592367
0.592288
0.592209
0.59213
0.59205
0.591971
0.591892
0.591813
0.591733
0.591654
0.591575
0.591495
0.591416
0.591336
0.591256
0.591177
0.591097
0.591017
0.590937
0.590858
0.590778
0.590698
0.590618
0.590538
0.590458
0.590378
0.590298
0.590218
0.590138
0.590058
0.589977
0.589897
0.589817
0.589737
0.589657
0.589576
0.589496
0.589416
0.589336
0.589255
0.589175
0.589095
0.589014
0.588934
0.588854
0.588773
0.588693
0.588613
0.588532
0.588452
0.588371
0.588291
0.588211
0.58813
0.58805
0.587969
0.587889
0.587808
0.587728
0.587648
0.587567
0.587487
0.587406
0.587326
0.587245
0.587165
0.587084
0.587004
0.586924
0.586843
0.586763
0.586682
0.586602
0.586521
0.586441
0.586361
0.58628
0.5862
0.586119
0.586039
0.585959
0.585878
0.585798
0.585717
0.585637
0.585557
0.585476
0.585396
0.585316
0.585235
0.585155
0.585075
0.584994
0.584914
0.584834
0.584753
0.584673
0.584593
0.584513
0.584432
0.584352
0.584272
0.584191
0.584111
0.584031
0.583951
0.583871
0.58379
0.58371
0.58363
0.58355
0.58347
0.583389
0.583309
0.583229
0.583149
0.583069
0.582989
0.582909
0.582828
0.582748
0.582668
0.582588
0.582508
0.582428
0.582348
0.582268
0.582188
0.582108
0.582028
0.581948
0.581868
0.581788
0.581708
0.581628
0.581548
0.581468
0.581388
0.581308
0.581228
0.581148
0.581068
0.580988
0.580908
0.580828
0.580748
0.580668
0.580589
0.580509
0.580429
0.580349
0.580269
0.580189
0.58011
0.58003
0.57995
0.57987
0.57979
0.579711
0.579631
0.579551
0.579471
0.579392
0.579312
0.579232
0.579152
0.579073
0.578993
0.578913
0.578834
0.578754
0.578674
0.578595
0.578515
0.578435
0.578356
0.578276
0.578196
0.578117
0.578037
0.577958
0.577878
0.577798
0.577719
0.577639
0.57756
0.57748
0.577401
0.577321
0.577242
0.577162
0.577083
0.577003
0.576924
0.576844
0.576765
0.576685
0.576606
0.576527
0.576447
0.576368
0.576288
0.576209
0.57613
0.57605
0.575971
0.575891
0.575812
0.575733
0.575653
0.575574
0.575495
0.575415
0.575336
0.575257
0.575178
0.575098
0.575019
0.57494
0.574861
0.574781
0.574702
0.574623
0.574544
0.574464
0.574385
0.574306
0.574227
0.574148
0.574069
0.573989
0.57391
0.573831
0.573752
0.573673
0.573594
0.573515
0.573436
0.573357
0.573278
0.573198
0.573119
0.57304
0.572961
0.572882
0.572803
0.572724
0.572645
0.572566
0.572487
0.572408
0.572329
0.57225
0.572171
0.572093
0.572014
0.571935
0.571856
0.571777
0.571698
0.571619
0.57154
0.571461
0.571382
0.571304
0.571225
0.571146
0.571067
0.570988
0.57091
0.570831
0.570752
0.570673
0.570594
0.570516
0.570437
0.570358
0.570279
0.570201
0.570122
0.570043
0.569965
0.569886
0.569807
0.569728
0.56965
0.569571
0.569493
0.569414
0.569335
0.569257
0.569178
0.569099
0.569021
0.568942
0.568864
0.568785
0.568707
0.568628
0.568549
0.568471
0.568392
0.568314
0.568235
0.568157
0.568078
0.568
0.567921
0.567843
0.567764
0.567686
0.567608
0.567529
0.567451
0.567372
0.567294
0.567215
0.567137
0.567059
0.56698
0.566902
0.566824
0.566745
0.566667
0.566589
0.56651
0.566432
0.566354
0.566275
0.566197
0.566119
0.566041
0.565962
0.565884
0.565806
0.565728
0.565649
0.565571
0.565493
0.565415
0.565337
0.565258
0.56518
0.565102
0.565024
0.564946
0.564868
0.56479
0.564711
0.564633
0.564555
0.564477
0.564399
0.564321
0.564243
0.564165
0.564087
0.564009
0.563931
0.563853
0.563775
0.563697
0.563619
0.563541
0.563463
0.563385
0.563307
0.563229
0.563151
0.563073
0.562995
0.562917
0.562839
0.562761
0.562683
0.562606
0.562528
0.56245
0.562372
0.562294
0.562216
0.562138
0.562061
0.561983
0.561905
0.561827
0.561749
0.561672
0.561594
0.561516
0.561438
0.561361
0.561283
0.561205
0.561127
0.56105
0.560972
0.560894
0.560817
0.560739
0.560661
0.560584
0.560506
0.560428
0.560351
0.560273
0.560196
0.560118
0.56004
0.559963
0.559885
0.559808
0.55973
0.559652
0.559575
0.559497
0.55942
0.559342
0.559265
0.559187
0.55911
0.559032
0.558955
0.558877
0.5588
0.558723
0.558645
0.558568
0.55849
0.558413
0.558335
0.558258
0.558181
0.558103
0.558026
0.557949
0.557871
0.557794
0.557716
0.557639
0.557562
0.557485
0.557407
0.55733
0.557253
0.557175
0.557098
0.557021
0.556944
0.556866
0.556789
0.556712
0.556635
0.556557
0.55648
0.556403
0.556326
0.556249
0.556172
0.556094
0.556017
0.55594
0.555863
0.555786
0.555709
0.555632
0.555555
0.555477
0.5554
0.555323
0.555246
0.555169
0.555092
0.555015
0.554938
0.554861
0.554784
0.554707
0.55463
0.554553
0.554476
0.554399
0.554322
0.554245
0.554168
0.554091
0.554014
0.553938
0.553861
0.553784
0.553707
0.55363
0.553553
0.553476
0.553399
0.553323
0.553246
0.553169
0.553092
0.553015
0.552938
0.552862
0.552785
0.552708
0.552631
0.552555
0.552478
0.552401
0.552324
0.552248
0.552171
0.552094
0.552018
0.551941
0.551864
0.551787
0.551711
0.551634
0.551558
0.551481
0.551404
0.551328
0.551251
0.551174
0.551098
0.551021
0.550945
0.550868
0.550792
0.550715
0.550638
0.550562
0.550485
0.550409
0.550332
0.550256
0.550179
0.550103
0.550026
0.54995
0.549873
0.549797
0.549721
0.549644
0.549568
0.549491
0.549415
0.549338
0.549262
0.549186
0.549109
0.549033
0.548957
0.54888
0.548804
0.548728
0.548651
0.548575
0.548499
0.548422
0.548346
0.54827
0.548194
0.548117
0.548041
0.547965
0.547889
0.547812
0.547736
0.54766
0.547584
0.547507
0.547431
0.547355
0.547279
0.547203
0.547127
0.547051
0.546974
0.546898
0.546822
0.546746
0.54667
0.546594
0.546518
0.546442
0.546366
0.54629
0.546214
0.546137
0.546061
0.545985
0.545909
0.545833
0.545757
0.545681
0.545605
0.545529
0.545454
0.545378
0.545302
0.545226
0.54515
0.545074
0.544998
0.544922
0.544846
0.54477
0.544694
0.544619
0.544543
0.544467
0.544391
0.544315
0.544239
0.544163
0.544088
0.544012
0.543936
0.54386
0.543785
0.543709
0.543633
0.543557
0.543482
0.543406
0.54333
0.543254
0.543179
0.543103
0.543027
0.542952
0.542876
0.5428
0.542725
0.542649
0.542573
0.542498
0.542422
0.542346
0.542271
0.542195
0.54212
0.542044
0.541969
0.541893
0.541817
0.541742
0.541666
0.541591
0.541515
0.54144
0.541364
0.541289
0.541213
0.541138
0.541062
0.540987
0.540911
0.540836
0.540761
0.540685
0.54061
0.540534
0.540459
0.540384
0.540308
0.540233
0.540157
0.540082
0.540007
0.539931
0.539856
0.539781
0.539705
0.53963
0.539555
0.53948
0.539404
0.539329
0.539254
0.539178
0.539103
0.539028
0.538953
0.538878
0.538802
0.538727
0.538652
0.538577
0.538502
0.538426
0.538351
0.538276
0.538201
0.538126
0.538051
0.537976
0.5379
0.537825
0.53775
0.537675
0.5376
0.537525
0.53745
0.537375
0.5373
0.537225
0.53715
0.537075
0.537
0.536925
0.53685
0.536775
0.5367
0.536625
0.53655
0.536475
0.5364
0.536325
0.53625
0.536175
0.5361
0.536025
0.535951
0.535876
0.535801
0.535726
0.535651
0.535576
0.535501
0.535427
0.535352
0.535277
0.535202
0.535127
0.535053
0.534978
0.534903
0.534828
0.534754
0.534679
0.534604
0.534529
0.534455
0.53438
0.534305
0.53423
0.534156
0.534081
0.534006
0.533932
0.533857
0.533782
0.533708
0.533633
0.533559
0.533484
0.533409
0.533335
0.53326
0.533186
0.533111
0.533037
0.532962
0.532887
0.532813
0.532738
0.532664
0.532589
0.532515
0.53244
0.532366
0.532291
0.532217
0.532142
0.532068
0.531994
0.531919
0.531845
0.53177
0.531696
0.531621
0.531547
0.531473
0.531398
0.531324
0.53125
0.531175
0.531101
0.531027
0.530952
0.530878
0.530804
0.530729
0.530655
0.530581
0.530507
0.530432
0.530358
0.530284
0.53021
0.530135
0.530061
0.529987
0.529913
0.529838
0.529764
0.52969
0.529616
0.529542
0.529468
0.529393
0.529319
0.529245
0.529171
0.529097
0.529023
0.528949
0.528875
0.528801
0.528727
0.528652
0.528578
0.528504
0.52843
0.528356
0.528282
0.528208
0.528134
0.52806
0.527986
0.527912
0.527838
0.527764
0.52769
0.527617
0.527543
0.527469
0.527395
0.527321
0.527247
0.527173
0.527099
0.527025
0.526951
0.526878
0.526804
0.52673
0.526656
0.526582
0.526508
0.526435
0.526361
0.526287
0.526213
0.526139
0.526066
0.525992
0.525918
0.525844
0.525771
0.525697
0.525623
0.52555
0.525476
0.525402
0.525328
0.525255
0.525181
0.525107
0.525034
0.52496
0.524887
0.524813
0.524739
0.524666
0.524592
0.524519
0.524445
0.524371
0.524298
0.524224
0.524151
0.524077
0.524004
0.52393
0.523857
0.523783
0.52371
0.523636
0.523563
0.523489
0.523416
0.523342
0.523269
0.523195
0.523122
0.523048
0.522975
0.522902
0.522828
0.522755
0.522682
0.522608
0.522535
0.522461
0.522388
0.522315
0.522241
0.522168
0.522095
0.522021
0.521948
0.521875
0.521802
0.521728
0.521655
0.521582
0.521509
0.521435
0.521362
0.521289
0.521216
0.521142
0.521069
0.520996
0.520923
0.52085
0.520777
0.520703
0.52063
0.520557
0.520484
0.520411
0.520338
0.520265
0.520192
0.520119
0.520045
0.519972
0.519899
0.519826
0.519753
0.51968
0.519607
0.519534
0.519461
0.519388
0.519315
0.519242
0.519169
0.519096
0.519023
0.51895
0.518877
0.518804
0.518731
0.518659
0.518586
0.518513
0.51844
0.518367
0.518294
0.518221
0.518148
0.518076
0.518003
0.51793
0.517857
0.517784
0.517711
0.517639
0.517566
0.517493
0.51742
0.517347
0.517275
0.517202
0.517129
0.517056
0.516984
0.516911
0.516838
0.516766
0.516693
0.51662
0.516548
0.516475
0.516402
0.51633
0.516257
0.516184
0.516112
0.516039
0.515966
0.515894
0.515821
0.515749
0.515676
0.515604
0.515531
0.515458
0.515386
0.515313
0.515241
0.515168
0.515096
0.515023
0.514951
0.514878
0.514806
0.514733
0.514661
0.514588
0.514516
0.514444
0.514371
0.514299
0.514226
0.514154
0.514082
0.514009
0.513937
0.513864
0.513792
0.51372
0.513647
0.513575
0.513503
0.51343
0.513358
0.513286
0.513214
0.513141
0.513069
0.512997
0.512924