/*--------------------------------*- C++ -*----------------------------------*\
  =========                 |
  \\      /  F ield         | OpenFOAM: The Open Source CFD Toolbox
   \\    /   O peration     | Website:  https://openfoam.org
    \\  /    A nd           | Version:  9
     \\/     M anipulation  |
\*---------------------------------------------------------------------------*/
FoamFile
{
    format      ascii;
    class       volScalarField;
    location    "0.018";
    object      T;
}
// * * * * * * * * * * * * * * * * * * * * * * * * * * * * * * * * * * * * * //

dimensions      [0 0 0 1 0 0 0];

internalField   nonuniform List<scalar> 
10000
(
288.339
288.345
288.356
288.367
288.374
288.378
288.38
288.38
288.38
288.38
288.38
288.38
288.379
288.379
288.378
288.378
288.378
288.377
288.377
288.376
288.376
288.376
288.375
288.375
288.375
288.374
288.374
288.373
288.373
288.373
288.372
288.372
288.371
288.371
288.37
288.37
288.37
288.369
288.369
288.368
288.368
288.368
288.367
288.367
288.366
288.366
288.366
288.365
288.365
288.364
288.364
288.363
288.363
288.363
288.362
288.362
288.361
288.361
288.36
288.36
288.36
288.359
288.359
288.358
288.358
288.357
288.357
288.357
288.356
288.356
288.355
288.355
288.354
288.354
288.353
288.353
288.353
288.352
288.352
288.351
288.351
288.35
288.35
288.349
288.349
288.349
288.348
288.348
288.347
288.347
288.346
288.346
288.345
288.345
288.344
288.344
288.343
288.343
288.343
288.342
288.342
288.341
288.341
288.34
288.34
288.339
288.339
288.338
288.338
288.337
288.337
288.336
288.336
288.335
288.335
288.334
288.334
288.333
288.333
288.332
288.332
288.331
288.331
288.33
288.33
288.329
288.329
288.328
288.328
288.327
288.327
288.326
288.326
288.325
288.325
288.324
288.324
288.323
288.323
288.322
288.322
288.321
288.321
288.32
288.32
288.319
288.319
288.318
288.318
288.317
288.317
288.316
288.316
288.315
288.315
288.314
288.314
288.313
288.313
288.312
288.312
288.311
288.31
288.31
288.309
288.309
288.308
288.308
288.307
288.307
288.306
288.306
288.305
288.305
288.304
288.303
288.303
288.302
288.302
288.301
288.301
288.3
288.3
288.299
288.298
288.298
288.297
288.297
288.296
288.296
288.295
288.295
288.294
288.293
288.293
288.292
288.292
288.291
288.291
288.29
288.289
288.289
288.288
288.288
288.287
288.287
288.286
288.285
288.285
288.284
288.284
288.283
288.283
288.282
288.281
288.281
288.28
288.28
288.279
288.278
288.278
288.277
288.277
288.276
288.275
288.275
288.274
288.274
288.273
288.272
288.272
288.271
288.271
288.27
288.269
288.269
288.268
288.268
288.267
288.266
288.266
288.265
288.265
288.264
288.263
288.263
288.262
288.261
288.261
288.26
288.26
288.259
288.258
288.258
288.257
288.256
288.256
288.255
288.255
288.254
288.253
288.253
288.252
288.251
288.251
288.25
288.25
288.249
288.248
288.248
288.247
288.246
288.246
288.245
288.244
288.244
288.243
288.242
288.242
288.241
288.241
288.24
288.239
288.239
288.238
288.237
288.237
288.236
288.235
288.235
288.234
288.233
288.233
288.232
288.231
288.231
288.23
288.229
288.229
288.228
288.227
288.227
288.226
288.225
288.225
288.224
288.223
288.223
288.222
288.221
288.22
288.22
288.219
288.218
288.218
288.217
288.216
288.216
288.215
288.214
288.214
288.213
288.212
288.212
288.211
288.21
288.209
288.209
288.208
288.207
288.207
288.206
288.205
288.204
288.204
288.203
288.202
288.202
288.201
288.2
288.2
288.199
288.198
288.197
288.197
288.196
288.195
288.195
288.194
288.193
288.192
288.192
288.191
288.19
288.189
288.189
288.188
288.187
288.187
288.186
288.185
288.184
288.184
288.183
288.182
288.181
288.181
288.18
288.179
288.178
288.178
288.177
288.176
288.175
288.175
288.174
288.173
288.172
288.172
288.171
288.17
288.169
288.169
288.168
288.167
288.166
288.166
288.165
288.164
288.163
288.163
288.162
288.161
288.16
288.16
288.159
288.158
288.157
288.156
288.156
288.155
288.154
288.153
288.153
288.152
288.151
288.15
288.149
288.149
288.148
288.147
288.146
288.145
288.145
288.144
288.143
288.142
288.142
288.141
288.14
288.139
288.138
288.138
288.137
288.136
288.135
288.134
288.134
288.133
288.132
288.131
288.13
288.13
288.129
288.128
288.127
288.126
288.125
288.125
288.124
288.123
288.122
288.121
288.121
288.12
288.119
288.118
288.117
288.116
288.116
288.115
288.114
288.113
288.112
288.112
288.111
288.11
288.109
288.108
288.107
288.107
288.106
288.105
288.104
288.103
288.102
288.101
288.101
288.1
288.099
288.098
288.097
288.096
288.096
288.095
288.094
288.093
288.092
288.091
288.09
288.09
288.089
288.088
288.087
288.086
288.085
288.084
288.084
288.083
288.082
288.081
288.08
288.079
288.078
288.077
288.077
288.076
288.075
288.074
288.073
288.072
288.071
288.07
288.07
288.069
288.068
288.067
288.066
288.065
288.064
288.063
288.062
288.062
288.061
288.06
288.059
288.058
288.057
288.056
288.055
288.054
288.054
288.053
288.052
288.051
288.05
288.049
288.048
288.047
288.046
288.045
288.044
288.044
288.043
288.042
288.041
288.04
288.039
288.038
288.037
288.036
288.035
288.034
288.033
288.033
288.032
288.031
288.03
288.029
288.028
288.027
288.026
288.025
288.024
288.023
288.022
288.021
288.02
288.019
288.019
288.018
288.017
288.016
288.015
288.014
288.013
288.012
288.011
288.01
288.009
288.008
288.007
288.006
288.005
288.004
288.003
288.002
288.001
288
288
287.999
287.998
287.997
287.996
287.995
287.994
287.993
287.992
287.991
287.99
287.989
287.988
287.987
287.986
287.985
287.984
287.983
287.982
287.981
287.98
287.979
287.978
287.977
287.976
287.975
287.974
287.973
287.972
287.971
287.97
287.969
287.968
287.967
287.966
287.965
287.964
287.963
287.962
287.961
287.96
287.959
287.958
287.957
287.956
287.955
287.954
287.953
287.952
287.951
287.95
287.949
287.948
287.947
287.946
287.945
287.944
287.943
287.942
287.941
287.94
287.939
287.938
287.937
287.936
287.935
287.934
287.933
287.932
287.931
287.93
287.929
287.928
287.927
287.925
287.924
287.923
287.922
287.921
287.92
287.919
287.918
287.917
287.916
287.915
287.914
287.913
287.912
287.911
287.91
287.909
287.908
287.907
287.906
287.904
287.903
287.902
287.901
287.9
287.899
287.898
287.897
287.896
287.895
287.894
287.893
287.892
287.891
287.89
287.888
287.887
287.886
287.885
287.884
287.883
287.882
287.881
287.88
287.879
287.878
287.877
287.875
287.874
287.873
287.872
287.871
287.87
287.869
287.868
287.867
287.866
287.865
287.863
287.862
287.861
287.86
287.859
287.858
287.857
287.856
287.855
287.853
287.852
287.851
287.85
287.849
287.848
287.847
287.846
287.845
287.843
287.842
287.841
287.84
287.839
287.838
287.837
287.836
287.834
287.833
287.832
287.831
287.83
287.829
287.828
287.826
287.825
287.824
287.823
287.822
287.821
287.82
287.818
287.817
287.816
287.815
287.814
287.813
287.812
287.81
287.809
287.808
287.807
287.806
287.805
287.804
287.802
287.801
287.8
287.799
287.798
287.797
287.795
287.794
287.793
287.792
287.791
287.79
287.788
287.787
287.786
287.785
287.784
287.782
287.781
287.78
287.779
287.778
287.777
287.775
287.774
287.773
287.772
287.771
287.769
287.768
287.767
287.766
287.765
287.764
287.762
287.761
287.76
287.759
287.758
287.756
287.755
287.754
287.753
287.751
287.75
287.749
287.748
287.747
287.745
287.744
287.743
287.742
287.741
287.739
287.738
287.737
287.736
287.735
287.733
287.732
287.731
287.73
287.728
287.727
287.726
287.725
287.723
287.722
287.721
287.72
287.719
287.717
287.716
287.715
287.714
287.712
287.711
287.71
287.709
287.707
287.706
287.705
287.704
287.702
287.701
287.7
287.699
287.697
287.696
287.695
287.694
287.692
287.691
287.69
287.689
287.687
287.686
287.685
287.684
287.682
287.681
287.68
287.678
287.677
287.676
287.675
287.673
287.672
287.671
287.67
287.668
287.667
287.666
287.664
287.663
287.662
287.661
287.659
287.658
287.657
287.655
287.654
287.653
287.651
287.65
287.649
287.648
287.646
287.645
287.644
287.642
287.641
287.64
287.639
287.637
287.636
287.635
287.633
287.632
287.631
287.629
287.628
287.627
287.625
287.624
287.623
287.621
287.62
287.619
287.617
287.616
287.615
287.614
287.612
287.611
287.61
287.608
287.607
287.606
287.604
287.603
287.602
287.6
287.599
287.598
287.596
287.595
287.593
287.592
287.591
287.589
287.588
287.587
287.585
287.584
287.583
287.581
287.58
287.579
287.577
287.576
287.575
287.573
287.572
287.571
287.569
287.568
287.566
287.565
287.564
287.562
287.561
287.56
287.558
287.557
287.555
287.554
287.553
287.551
287.55
287.549
287.547
287.546
287.544
287.543
287.542
287.54
287.539
287.537
287.536
287.535
287.533
287.532
287.531
287.529
287.528
287.526
287.525
287.524
287.522
287.521
287.519
287.518
287.517
287.515
287.514
287.512
287.511
287.509
287.508
287.507
287.505
287.504
287.502
287.501
287.5
287.498
287.497
287.495
287.494
287.492
287.491
287.49
287.488
287.487
287.485
287.484
287.482
287.481
287.48
287.478
287.477
287.475
287.474
287.472
287.471
287.47
287.468
287.467
287.465
287.464
287.462
287.461
287.459
287.458
287.456
287.455
287.454
287.452
287.451
287.449
287.448
287.446
287.445
287.443
287.442
287.44
287.439
287.437
287.436
287.435
287.433
287.432
287.43
287.429
287.427
287.426
287.424
287.423
287.421
287.42
287.418
287.417
287.415
287.414
287.412
287.411
287.409
287.408
287.406
287.405
287.403
287.402
287.4
287.399
287.397
287.396
287.394
287.393
287.391
287.39
287.388
287.387
287.385
287.384
287.382
287.381
287.379
287.378
287.376
287.375
287.373
287.372
287.37
287.369
287.367
287.366
287.364
287.363
287.361
287.36
287.358
287.357
287.355
287.353
287.352
287.35
287.349
287.347
287.346
287.344
287.343
287.341
287.34
287.338
287.337
287.335
287.333
287.332
287.33
287.329
287.327
287.326
287.324
287.323
287.321
287.319
287.318
287.316
287.315
287.313
287.312
287.31
287.309
287.307
287.305
287.304
287.302
287.301
287.299
287.298
287.296
287.294
287.293
287.291
287.29
287.288
287.286
287.285
287.283
287.282
287.28
287.279
287.277
287.275
287.274
287.272
287.271
287.269
287.267
287.266
287.264
287.263
287.261
287.259
287.258
287.256
287.255
287.253
287.251
287.25
287.248
287.246
287.245
287.243
287.242
287.24
287.238
287.237
287.235
287.234
287.232
287.23
287.229
287.227
287.225
287.224
287.222
287.221
287.219
287.217
287.216
287.214
287.212
287.211
287.209
287.207
287.206
287.204
287.202
287.201
287.199
287.198
287.196
287.194
287.193
287.191
287.189
287.188
287.186
287.184
287.183
287.181
287.179
287.178
287.176
287.174
287.173
287.171
287.169
287.168
287.166
287.164
287.163
287.161
287.159
287.158
287.156
287.154
287.153
287.151
287.149
287.147
287.146
287.144
287.142
287.141
287.139
287.137
287.136
287.134
287.132
287.131
287.129
287.127
287.125
287.124
287.122
287.12
287.119
287.117
287.115
287.114
287.112
287.11
287.108
287.107
287.105
287.103
287.101
287.1
287.098
287.096
287.095
287.093
287.091
287.089
287.088
287.086
287.084
287.082
287.081
287.079
287.077
287.076
287.074
287.072
287.07
287.069
287.067
287.065
287.063
287.062
287.06
287.058
287.056
287.055
287.053
287.051
287.049
287.048
287.046
287.044
287.042
287.041
287.039
287.037
287.035
287.033
287.032
287.03
287.028
287.026
287.025
287.023
287.021
287.019
287.017
287.016
287.014
287.012
287.01
287.009
287.007
287.005
287.003
287.001
287
286.998
286.996
286.994
286.992
286.991
286.989
286.987
286.985
286.983
286.982
286.98
286.978
286.976
286.974
286.973
286.971
286.969
286.967
286.965
286.963
286.962
286.96
286.958
286.956
286.954
286.953
286.951
286.949
286.947
286.945
286.943
286.942
286.94
286.938
286.936
286.934
286.932
286.931
286.929
286.927
286.925
286.923
286.921
286.919
286.918
286.916
286.914
286.912
286.91
286.908
286.906
286.905
286.903
286.901
286.899
286.897
286.895
286.893
286.892
286.89
286.888
286.886
286.884
286.882
286.88
286.878
286.876
286.875
286.873
286.871
286.869
286.867
286.865
286.863
286.861
286.859
286.858
286.856
286.854
286.852
286.85
286.848
286.846
286.844
286.842
286.84
286.839
286.837
286.835
286.833
286.831
286.829
286.827
286.825
286.823
286.821
286.819
286.817
286.816
286.814
286.812
286.81
286.808
286.806
286.804
286.802
286.8
286.798
286.796
286.794
286.792
286.79
286.788
286.786
286.785
286.783
286.781
286.779
286.777
286.775
286.773
286.771
286.769
286.767
286.765
286.763
286.761
286.759
286.757
286.755
286.753
286.751
286.749
286.747
286.745
286.743
286.741
286.739
286.737
286.735
286.733
286.731
286.729
286.727
286.725
286.723
286.721
286.719
286.717
286.715
286.713
286.711
286.709
286.707
286.705
286.703
286.701
286.699
286.697
286.695
286.693
286.691
286.689
286.687
286.685
286.683
286.681
286.679
286.677
286.675
286.673
286.671
286.669
286.667
286.665
286.663
286.661
286.659
286.657
286.655
286.653
286.651
286.649
286.647
286.645
286.642
286.64
286.638
286.636
286.634
286.632
286.63
286.628
286.626
286.624
286.622
286.62
286.618
286.616
286.614
286.611
286.609
286.607
286.605
286.603
286.601
286.599
286.597
286.595
286.593
286.591
286.589
286.586
286.584
286.582
286.58
286.578
286.576
286.574
286.572
286.57
286.567
286.565
286.563
286.561
286.559
286.557
286.555
286.553
286.551
286.548
286.546
286.544
286.542
286.54
286.538
286.536
286.533
286.531
286.529
286.527
286.525
286.523
286.521
286.518
286.516
286.514
286.512
286.51
286.508
286.506
286.503
286.501
286.499
286.497
286.495
286.493
286.49
286.488
286.486
286.484
286.482
286.479
286.477
286.475
286.473
286.471
286.469
286.466
286.464
286.462
286.46
286.458
286.455
286.453
286.451
286.449
286.447
286.444
286.442
286.44
286.438
286.435
286.433
286.431
286.429
286.427
286.424
286.422
286.42
286.418
286.415
286.413
286.411
286.409
286.406
286.404
286.402
286.4
286.397
286.395
286.393
286.391
286.388
286.386
286.384
286.382
286.379
286.377
286.375
286.373
286.37
286.368
286.366
286.364
286.361
286.359
286.357
286.354
286.352
286.35
286.348
286.345
286.343
286.341
286.338
286.336
286.334
286.331
286.329
286.327
286.324
286.322
286.32
286.318
286.315
286.313
286.311
286.308
286.306
286.304
286.301
286.299
286.297
286.294
286.292
286.29
286.287
286.285
286.282
286.28
286.278
286.275
286.273
286.271
286.268
286.266
286.264
286.261
286.259
286.256
286.254
286.252
286.249
286.247
286.245
286.242
286.24
286.237
286.235
286.233
286.23
286.228
286.225
286.223
286.221
286.218
286.216
286.213
286.211
286.208
286.206
286.204
286.201
286.199
286.196
286.194
286.191
286.189
286.187
286.184
286.182
286.179
286.177
286.174
286.172
286.169
286.167
286.164
286.162
286.159
286.157
286.155
286.152
286.15
286.147
286.145
286.142
286.14
286.137
286.135
286.132
286.13
286.127
286.125
286.122
286.12
286.117
286.114
286.112
286.109
286.107
286.104
286.102
286.099
286.097
286.094
286.092
286.089
286.087
286.084
286.081
286.079
286.076
286.074
286.071
286.069
286.066
286.063
286.061
286.058
286.056
286.053
286.05
286.048
286.045
286.043
286.04
286.037
286.035
286.032
286.03
286.027
286.024
286.022
286.019
286.016
286.014
286.011
286.009
286.006
286.003
286.001
285.998
285.995
285.993
285.99
285.987
285.985
285.982
285.979
285.976
285.974
285.971
285.968
285.966
285.963
285.96
285.958
285.955
285.952
285.949
285.947
285.944
285.941
285.938
285.936
285.933
285.93
285.927
285.925
285.922
285.919
285.916
285.914
285.911
285.908
285.905
285.902
285.9
285.897
285.894
285.891
285.888
285.886
285.883
285.88
285.877
285.874
285.871
285.869
285.866
285.863
285.86
285.857
285.854
285.851
285.849
285.846
285.843
285.84
285.837
285.834
285.831
285.828
285.825
285.822
285.82
285.817
285.814
285.811
285.808
285.805
285.802
285.799
285.796
285.793
285.79
285.787
285.784
285.781
285.778
285.775
285.772
285.769
285.766
285.763
285.76
285.757
285.754
285.751
285.748
285.745
285.742
285.739
285.736
285.732
285.729
285.726
285.723
285.72
285.717
285.714
285.711
285.708
285.704
285.701
285.698
285.695
285.692
285.689
285.686
285.682
285.679
285.676
285.673
285.67
285.666
285.663
285.66
285.657
285.653
285.65
285.647
285.644
285.64
285.637
285.634
285.63
285.627
285.624
285.621
285.617
285.614
285.61
285.607
285.603
285.601
285.597
285.594
285.59
285.587
285.583
285.581
285.576
285.574
285.569
285.567
285.562
285.56
285.555
285.553
285.548
285.546
285.541
285.539
285.534
285.532
285.527
285.525
285.52
285.518
285.513
285.51
285.505
285.503
285.498
285.496
285.491
285.488
285.484
285.481
285.476
285.474
285.469
285.466
285.461
285.459
285.454
285.451
285.446
285.444
285.438
285.436
285.431
285.428
285.423
285.42
285.415
285.412
285.408
285.404
285.4
285.396
285.392
285.388
285.384
285.38
285.376
285.372
285.368
285.364
285.36
285.356
285.352
285.348
285.343
285.339
285.335
285.331
285.327
285.322
285.318
285.314
285.31
285.305
285.301
285.297
285.292
285.288
285.284
285.279
285.275
285.27
285.266
285.261
285.257
285.252
285.248
285.243
285.239
285.234
285.23
285.225
285.22
285.216
285.211
285.206
285.201
285.197
285.192
285.187
285.182
285.177
285.173
285.168
285.163
285.158
285.153
285.148
285.143
285.138
285.133
285.128
285.123
285.118
285.112
285.107
285.102
285.097
285.091
285.086
285.081
285.076
285.07
285.065
285.059
285.054
285.048
285.043
285.037
285.032
285.026
285.021
285.015
285.009
285.003
284.998
284.992
284.986
284.98
284.974
284.968
284.962
284.956
284.95
284.944
284.938
284.932
284.926
284.92
284.914
284.907
284.901
284.895
284.888
284.882
284.875
284.869
284.862
284.856
284.849
284.843
284.836
284.829
284.822
284.816
284.809
284.802
284.795
284.788
284.781
284.774
284.767
284.76
284.752
284.745
284.738
284.731
284.723
284.716
284.708
284.701
284.693
284.686
284.678
284.67
284.662
284.655
284.647
284.639
284.631
284.623
284.615
284.607
284.599
284.59
284.582
284.574
284.566
284.557
284.549
284.54
284.532
284.523
284.514
284.505
284.497
284.488
284.479
284.47
284.461
284.452
284.443
284.434
284.424
284.415
284.406
284.396
284.387
284.377
284.368
284.358
284.349
284.339
284.329
284.319
284.309
284.299
284.289
284.279
284.269
284.259
284.248
284.238
284.228
284.217
284.207
284.196
284.186
284.175
284.164
284.153
284.143
284.132
284.121
284.11
284.099
284.087
284.076
284.065
284.054
284.042
284.031
284.019
284.008
283.996
283.984
283.973
283.961
283.949
283.937
283.925
283.913
283.901
283.889
283.877
283.865
283.852
283.84
283.828
283.815
283.803
283.79
283.778
283.765
283.752
283.74
283.727
283.714
283.701
283.688
283.675
283.662
283.649
283.636
283.623
283.609
283.596
283.583
283.569
283.556
283.543
283.529
283.516
283.502
283.488
283.475
283.461
283.447
283.433
283.42
283.406
283.392
283.378
283.364
283.35
283.336
283.322
283.308
283.293
283.279
283.265
283.251
283.237
283.222
283.208
283.193
283.179
283.165
283.15
283.136
283.121
283.107
283.092
283.077
283.063
283.048
283.033
283.019
283.004
282.989
282.974
282.96
282.945
282.93
282.915
282.9
282.885
282.871
282.856
282.841
282.826
282.811
282.796
282.781
282.766
282.751
282.735
282.72
282.705
282.69
282.675
282.66
282.645
282.63
282.614
282.599
282.584
282.569
282.554
282.538
282.523
282.508
282.493
282.477
282.462
282.447
282.432
282.416
282.401
282.386
282.37
282.355
282.34
282.324
282.309
282.294
282.278
282.263
282.247
282.232
282.217
282.201
282.186
282.17
282.155
282.14
282.124
282.109
282.093
282.078
282.062
282.047
282.032
282.016
282.001
281.985
281.97
281.954
281.939
281.923
281.908
281.893
281.877
281.862
281.846
281.831
281.815
281.8
281.784
281.769
281.753
281.738
281.722
281.707
281.691
281.676
281.66
281.645
281.63
281.614
281.599
281.583
281.568
281.552
281.537
281.521
281.506
281.49
281.475
281.459
281.444
281.428
281.413
281.397
281.382
281.366
281.351
281.335
281.32
281.304
281.289
281.273
281.258
281.242
281.227
281.211
281.196
281.18
281.165
281.149
281.134
281.118
281.103
281.087
281.072
281.056
281.041
281.025
281.01
280.994
280.979
280.964
280.948
280.933
280.917
280.902
280.886
280.871
280.855
280.84
280.824
280.809
280.793
280.778
280.762
280.747
280.731
280.716
280.7
280.685
280.669
280.654
280.638
280.623
280.607
280.592
280.576
280.561
280.546
280.53
280.515
280.499
280.484
280.468
280.453
280.437
280.422
280.406
280.391
280.375
280.36
280.344
280.329
280.313
280.298
280.282
280.267
280.252
280.236
280.221
280.205
280.19
280.174
280.159
280.143
280.128
280.112
280.097
280.081
280.066
280.05
280.035
280.02
280.004
279.989
279.973
279.958
279.942
279.927
279.911
279.896
279.88
279.865
279.849
279.834
279.819
279.803
279.788
279.772
279.757
279.741
279.726
279.71
279.695
279.679
279.664
279.649
279.633
279.618
279.602
279.587
279.571
279.556
279.54
279.525
279.51
279.494
279.479
279.463
279.448
279.432
279.417
279.401
279.386
279.371
279.355
279.34
279.324
279.309
279.293
279.278
279.262
279.247
279.232
279.216
279.201
279.185
279.17
279.154
279.139
279.123
279.108
279.093
279.077
279.062
279.046
279.031
279.015
279
278.985
278.969
278.954
278.938
278.923
278.907
278.892
278.877
278.861
278.846
278.83
278.815
278.799
278.784
278.769
278.753
278.738
278.722
278.707
278.691
278.676
278.661
278.645
278.63
278.614
278.599
278.583
278.568
278.553
278.537
278.522
278.506
278.491
278.476
278.46
278.445
278.429
278.414
278.398
278.383
278.368
278.352
278.337
278.321
278.306
278.291
278.275
278.26
278.244
278.229
278.213
278.198
278.183
278.167
278.152
278.136
278.121
278.106
278.09
278.075
278.059
278.044
278.029
278.013
277.998
277.982
277.967
277.952
277.936
277.921
277.905
277.89
277.875
277.859
277.844
277.828
277.813
277.798
277.782
277.767
277.751
277.736
277.721
277.705
277.69
277.674
277.659
277.644
277.628
277.613
277.597
277.582
277.567
277.551
277.536
277.52
277.505
277.49
277.474
277.459
277.443
277.428
277.413
277.397
277.382
277.367
277.351
277.336
277.32
277.305
277.29
277.274
277.259
277.243
277.228
277.213
277.197
277.182
277.167
277.151
277.136
277.12
277.105
277.09
277.074
277.059
277.043
277.028
277.013
276.997
276.982
276.967
276.951
276.936
276.92
276.905
276.89
276.874
276.859
276.844
276.828
276.813
276.797
276.782
276.767
276.751
276.736
276.721
276.705
276.69
276.675
276.659
276.644
276.628
276.613
276.598
276.582
276.567
276.552
276.536
276.521
276.506
276.49
276.475
276.459
276.444
276.429
276.413
276.398
276.383
276.367
276.352
276.337
276.321
276.306
276.29
276.275
276.26
276.244
276.229
276.214
276.198
276.183
276.168
276.152
276.137
276.122
276.106
276.091
276.076
276.06
276.045
276.029
276.014
275.999
275.983
275.968
275.953
275.937
275.922
275.907
275.891
275.876
275.861
275.845
275.83
275.815
275.799
275.784
275.769
275.753
275.738
275.723
275.707
275.692
275.677
275.661
275.646
275.631
275.615
275.6
275.585
275.569
275.554
275.539
275.523
275.508
275.493
275.477
275.462
275.447
275.431
275.416
275.401
275.385
275.37
275.355
275.339
275.324
275.309
275.293
275.278
275.263
275.247
275.232
275.217
275.201
275.186
275.171
275.155
275.14
275.125
275.109
275.094
275.079
275.063
275.048
275.033
275.017
275.002
274.987
274.971
274.956
274.941
274.926
274.91
274.895
274.88
274.864
274.849
274.834
274.818
274.803
274.788
274.772
274.757
274.742
274.726
274.711
274.696
274.681
274.665
274.65
274.635
274.619
274.604
274.589
274.573
274.558
274.543
274.527
274.512
274.497
274.482
274.466
274.451
274.436
274.42
274.405
274.39
274.374
274.359
274.344
274.328
274.313
274.298
274.283
274.267
274.252
274.237
274.221
274.206
274.191
274.176
274.16
274.145
274.13
274.114
274.099
274.084
274.068
274.053
274.038
274.023
274.007
273.992
273.977
273.961
273.946
273.931
273.916
273.9
273.885
273.87
273.854
273.839
273.824
273.809
273.793
273.778
273.763
273.747
273.732
273.717
273.702
273.686
273.671
273.656
273.64
273.625
273.61
273.595
273.579
273.564
273.549
273.533
273.518
273.503
273.488
273.472
273.457
273.442
273.427
273.411
273.396
273.381
273.365
273.35
273.335
273.32
273.304
273.289
273.274
273.259
273.243
273.228
273.213
273.198
273.182
273.167
273.152
273.136
273.121
273.106
273.091
273.075
273.06
273.045
273.03
273.014
272.999
272.984
272.969
272.953
272.938
272.923
272.908
272.892
272.877
272.862
272.846
272.831
272.816
272.801
272.785
272.77
272.755
272.74
272.724
272.709
272.694
272.679
272.663
272.648
272.633
272.618
272.602
272.587
272.572
272.557
272.541
272.526
272.511
272.496
272.48
272.465
272.45
272.435
272.419
272.404
272.389
272.374
272.359
272.343
272.328
272.313
272.298
272.282
272.267
272.252
272.237
272.221
272.206
272.191
272.176
272.16
272.145
272.13
272.115
272.099
272.084
272.069
272.054
272.039
272.023
272.008
271.993
271.978
271.962
271.947
271.932
271.917
271.901
271.886
271.871
271.856
271.841
271.825
271.81
271.795
271.78
271.764
271.749
271.734
271.719
271.704
271.688
271.673
271.658
271.643
271.627
271.612
271.597
271.582
271.567
271.551
271.536
271.521
271.506
271.49
271.475
271.46
271.445
271.43
271.414
271.399
271.384
271.369
271.353
271.338
271.323
271.308
271.293
271.277
271.262
271.247
271.232
271.217
271.201
271.186
271.171
271.156
271.141
271.125
271.11
271.095
271.08
271.065
271.049
271.034
271.019
271.004
270.989
270.973
270.958
270.943
270.928
270.913
270.897
270.882
270.867
270.852
270.837
270.821
270.806
270.791
270.776
270.761
270.745
270.73
270.715
270.7
270.685
270.669
270.654
270.639
270.624
270.609
270.593
270.578
270.563
270.548
270.533
270.517
270.502
270.487
270.472
270.457
270.442
270.426
270.411
270.396
270.381
270.366
270.35
270.335
270.32
270.305
270.29
270.275
270.259
270.244
270.229
270.214
270.199
270.183
270.168
270.153
270.138
270.123
270.108
270.092
270.077
270.062
270.047
270.032
270.017
270.001
269.986
269.971
269.956
269.941
269.925
269.91
269.895
269.88
269.865
269.85
269.834
269.819
269.804
269.789
269.774
269.759
269.743
269.728
269.713
269.698
269.683
269.668
269.652
269.637
269.622
269.607
269.592
269.577
269.562
269.546
269.531
269.516
269.501
269.486
269.471
269.455
269.44
269.425
269.41
269.395
269.38
269.364
269.349
269.334
269.319
269.304
269.289
269.274
269.258
269.243
269.228
269.213
269.198
269.183
269.168
269.152
269.137
269.122
269.107
269.092
269.077
269.062
269.046
269.031
269.016
269.001
268.986
268.971
268.956
268.94
268.925
268.91
268.895
268.88
268.865
268.85
268.834
268.819
268.804
268.789
268.774
268.759
268.744
268.728
268.713
268.698
268.683
268.668
268.653
268.638
268.623
268.607
268.592
268.577
268.562
268.547
268.532
268.517
268.501
268.486
268.471
268.456
268.441
268.426
268.411
268.396
268.38
268.365
268.35
268.335
268.32
268.305
268.29
268.275
268.26
268.244
268.229
268.214
268.199
268.184
268.169
268.154
268.139
268.123
268.108
268.093
268.078
268.063
268.048
268.033
268.018
268.003
267.987
267.972
267.957
267.942
267.927
267.912
267.897
267.882
267.867
267.851
267.836
267.821
267.806
267.791
267.776
267.761
267.746
267.731
267.715
267.7
267.685
267.67
267.655
267.64
267.625
267.61
267.595
267.58
267.564
267.549
267.534
267.519
267.504
267.489
267.474
267.459
267.444
267.429
267.414
267.398
267.383
267.368
267.353
267.338
267.323
267.308
267.293
267.278
267.263
267.248
267.232
267.217
267.202
267.187
267.172
267.157
267.142
267.127
267.112
267.097
267.082
267.066
267.051
267.036
267.021
267.006
266.991
266.976
266.961
266.946
266.931
266.916
266.901
266.886
266.87
266.855
266.84
266.825
266.81
266.795
266.78
266.765
266.75
266.735
266.72
266.705
266.69
266.674
266.659
266.644
266.629
266.614
266.599
266.584
266.569
266.554
266.539
266.524
266.509
266.494
266.479
266.464
266.448
266.433
266.418
266.403
266.388
266.373
266.358
266.343
266.328
266.313
266.298
266.283
266.268
266.253
266.238
266.223
266.208
266.192
266.177
266.162
266.147
266.132
266.117
266.102
266.087
266.072
266.057
266.042
266.027
266.012
265.997
265.982
265.967
265.952
265.937
265.922
265.906
265.891
265.876
265.861
265.846
265.831
265.816
265.801
265.786
265.771
265.756
265.741
265.726
265.711
265.696
265.681
265.666
265.651
265.636
265.621
265.606
265.591
265.576
265.561
265.545
265.53
265.515
265.5
265.485
265.47
265.455
265.44
265.425
265.41
265.395
265.38
265.365
265.35
265.335
265.32
265.305
265.29
265.275
265.26
265.245
265.23
265.215
265.2
265.185
265.17
265.155
265.14
265.125
265.11
265.095
265.08
265.065
265.05
265.035
265.02
265.005
264.99
264.974
264.959
264.944
264.929
264.914
264.899
264.884
264.869
264.854
264.839
264.824
264.809
264.794
264.779
264.764
264.749
264.734
264.719
264.704
264.689
264.674
264.659
264.644
264.629
264.614
264.599
264.584
264.569
264.554
264.539
264.524
264.509
264.494
264.479
264.464
264.449
264.434
264.419
264.404
264.389
264.374
264.359
264.344
264.329
264.314
264.299
264.284
264.269
264.254
264.239
264.224
264.209
264.194
264.179
264.164
264.149
264.134
264.119
264.104
264.089
264.074
264.059
264.044
264.029
264.014
263.999
263.984
263.969
263.954
263.939
263.924
263.91
263.895
263.88
263.865
263.85
263.835
263.82
263.805
263.79
263.775
263.76
263.745
263.73
263.715
263.7
263.685
263.67
263.655
263.64
263.625
263.61
263.595
263.58
263.565
263.55
263.535
263.52
263.505
263.49
263.475
263.46
263.445
263.43
263.415
263.4
263.385
263.37
263.356
263.341
263.326
263.311
263.296
263.281
263.266
263.251
263.236
263.221
263.206
263.191
263.176
263.161
263.146
263.131
263.116
263.101
263.086
263.071
263.056
263.041
263.026
263.011
262.997
262.982
262.967
262.952
262.937
262.922
262.907
262.892
262.877
262.862
262.847
262.832
262.817
262.802
262.787
262.772
262.757
262.742
262.727
262.713
262.698
262.683
262.668
262.653
262.638
262.623
262.608
262.593
262.578
262.563
262.548
262.533
262.518
262.503
262.488
262.474
262.459
262.444
262.429
262.414
262.399
262.384
262.369
262.354
262.339
262.324
262.309
262.294
262.279
262.265
262.25
262.235
262.22
262.205
262.19
262.175
262.16
262.145
262.13
262.115
262.1
262.085
262.071
262.056
262.041
262.026
262.011
261.996
261.981
261.966
261.951
261.936
261.921
261.906
261.892
261.877
261.862
261.847
261.832
261.817
261.802
261.787
261.772
261.757
261.742
261.728
261.713
261.698
261.683
261.668
261.653
261.638
261.623
261.608
261.593
261.579
261.564
261.549
261.534
261.519
261.504
261.489
261.474
261.459
261.444
261.43
261.415
261.4
261.385
261.37
261.355
261.34
261.325
261.31
261.295
261.281
261.266
261.251
261.236
261.221
261.206
261.191
261.176
261.161
261.147
261.132
261.117
261.102
261.087
261.072
261.057
261.042
261.028
261.013
260.998
260.983
260.968
260.953
260.938
260.923
260.908
260.894
260.879
260.864
260.849
260.834
260.819
260.804
260.789
260.775
260.76
260.745
260.73
260.715
260.7
260.685
260.671
260.656
260.641
260.626
260.611
260.596
260.581