/*--------------------------------*- C++ -*----------------------------------*\
  =========                 |
  \\      /  F ield         | OpenFOAM: The Open Source CFD Toolbox
   \\    /   O peration     | Website:  https://openfoam.org
    \\  /    A nd           | Version:  9
     \\/     M anipulation  |
\*---------------------------------------------------------------------------*/
FoamFile
{
    format      ascii;
    class       volVectorField;
    location    "0.018";
    object      U;
}
// * * * * * * * * * * * * * * * * * * * * * * * * * * * * * * * * * * * * * //

dimensions      [0 1 -1 0 0 0 0];

internalField   nonuniform List<vector> 
10000
(
(1.36459 0 0)
(1.50039 0 0)
(1.57567 0 0)
(1.65489 0 0)
(1.73943 0 0)
(1.82396 0 0)
(1.90754 0 0)
(1.99091 0 0)
(2.07445 0 0)
(2.15805 0 0)
(2.24163 0 0)
(2.32519 0 0)
(2.40875 0 0)
(2.49232 0 0)
(2.57588 0 0)
(2.65945 0 0)
(2.74301 0 0)
(2.82658 0 0)
(2.91014 0 0)
(2.99371 0 0)
(3.07728 0 0)
(3.16085 0 0)
(3.24442 0 0)
(3.32799 0 0)
(3.41155 0 0)
(3.49512 0 0)
(3.5787 0 0)
(3.66227 0 0)
(3.74584 0 0)
(3.82941 0 0)
(3.91298 0 0)
(3.99656 0 0)
(4.08013 0 0)
(4.1637 0 0)
(4.24728 0 0)
(4.33085 0 0)
(4.41443 0 0)
(4.498 0 0)
(4.58158 0 0)
(4.66516 0 0)
(4.74873 0 0)
(4.83231 0 0)
(4.91589 0 0)
(4.99947 0 0)
(5.08305 0 0)
(5.16663 0 0)
(5.25021 0 0)
(5.33379 0 0)
(5.41737 0 0)
(5.50096 0 0)
(5.58454 0 0)
(5.66812 0 0)
(5.7517 0 0)
(5.83529 0 0)
(5.91887 0 0)
(6.00246 0 0)
(6.08604 0 0)
(6.16963 0 0)
(6.25322 0 0)
(6.3368 0 0)
(6.42039 0 0)
(6.50398 0 0)
(6.58757 0 0)
(6.67116 0 0)
(6.75475 0 0)
(6.83834 0 0)
(6.92193 0 0)
(7.00552 0 0)
(7.08911 0 0)
(7.1727 0 0)
(7.2563 0 0)
(7.33989 0 0)
(7.42348 0 0)
(7.50708 0 0)
(7.59067 0 0)
(7.67427 0 0)
(7.75786 0 0)
(7.84146 0 0)
(7.92506 0 0)
(8.00865 0 0)
(8.09225 0 0)
(8.17585 0 0)
(8.25945 0 0)
(8.34305 0 0)
(8.42665 0 0)
(8.51025 0 0)
(8.59385 0 0)
(8.67745 0 0)
(8.76105 0 0)
(8.84465 0 0)
(8.92826 0 0)
(9.01186 0 0)
(9.09546 0 0)
(9.17907 0 0)
(9.26267 0 0)
(9.34628 0 0)
(9.42988 0 0)
(9.51349 0 0)
(9.5971 0 0)
(9.68071 0 0)
(9.76431 0 0)
(9.84792 0 0)
(9.93153 0 0)
(10.0151 0 0)
(10.0988 0 0)
(10.1824 0 0)
(10.266 0 0)
(10.3496 0 0)
(10.4332 0 0)
(10.5168 0 0)
(10.6004 0 0)
(10.684 0 0)
(10.7676 0 0)
(10.8513 0 0)
(10.9349 0 0)
(11.0185 0 0)
(11.1021 0 0)
(11.1857 0 0)
(11.2693 0 0)
(11.353 0 0)
(11.4366 0 0)
(11.5202 0 0)
(11.6038 0 0)
(11.6874 0 0)
(11.7711 0 0)
(11.8547 0 0)
(11.9383 0 0)
(12.0219 0 0)
(12.1055 0 0)
(12.1892 0 0)
(12.2728 0 0)
(12.3564 0 0)
(12.44 0 0)
(12.5237 0 0)
(12.6073 0 0)
(12.6909 0 0)
(12.7745 0 0)
(12.8582 0 0)
(12.9418 0 0)
(13.0254 0 0)
(13.109 0 0)
(13.1927 0 0)
(13.2763 0 0)
(13.3599 0 0)
(13.4436 0 0)
(13.5272 0 0)
(13.6108 0 0)
(13.6945 0 0)
(13.7781 0 0)
(13.8617 0 0)
(13.9454 0 0)
(14.029 0 0)
(14.1126 0 0)
(14.1963 0 0)
(14.2799 0 0)
(14.3635 0 0)
(14.4472 0 0)
(14.5308 0 0)
(14.6144 0 0)
(14.6981 0 0)
(14.7817 0 0)
(14.8654 0 0)
(14.949 0 0)
(15.0326 0 0)
(15.1163 0 0)
(15.1999 0 0)
(15.2836 0 0)
(15.3672 0 0)
(15.4508 0 0)
(15.5345 0 0)
(15.6181 0 0)
(15.7018 0 0)
(15.7854 0 0)
(15.8691 0 0)
(15.9527 0 0)
(16.0364 0 0)
(16.12 0 0)
(16.2036 0 0)
(16.2873 0 0)
(16.3709 0 0)
(16.4546 0 0)
(16.5382 0 0)
(16.6219 0 0)
(16.7055 0 0)
(16.7892 0 0)
(16.8728 0 0)
(16.9565 0 0)
(17.0401 0 0)
(17.1238 0 0)
(17.2074 0 0)
(17.2911 0 0)
(17.3748 0 0)
(17.4584 0 0)
(17.5421 0 0)
(17.6257 0 0)
(17.7094 0 0)
(17.793 0 0)
(17.8767 0 0)
(17.9603 0 0)
(18.044 0 0)
(18.1277 0 0)
(18.2113 0 0)
(18.295 0 0)
(18.3786 0 0)
(18.4623 0 0)
(18.546 0 0)
(18.6296 0 0)
(18.7133 0 0)
(18.7969 0 0)
(18.8806 0 0)
(18.9643 0 0)
(19.0479 0 0)
(19.1316 0 0)
(19.2153 0 0)
(19.2989 0 0)
(19.3826 0 0)
(19.4663 0 0)
(19.5499 0 0)
(19.6336 0 0)
(19.7173 0 0)
(19.8009 0 0)
(19.8846 0 0)
(19.9683 0 0)
(20.0519 0 0)
(20.1356 0 0)
(20.2193 0 0)
(20.303 0 0)
(20.3866 0 0)
(20.4703 0 0)
(20.554 0 0)
(20.6376 0 0)
(20.7213 0 0)
(20.805 0 0)
(20.8887 0 0)
(20.9723 0 0)
(21.056 0 0)
(21.1397 0 0)
(21.2234 0 0)
(21.307 0 0)
(21.3907 0 0)
(21.4744 0 0)
(21.5581 0 0)
(21.6418 0 0)
(21.7254 0 0)
(21.8091 0 0)
(21.8928 0 0)
(21.9765 0 0)
(22.0602 0 0)
(22.1438 0 0)
(22.2275 0 0)
(22.3112 0 0)
(22.3949 0 0)
(22.4786 0 0)
(22.5623 0 0)
(22.646 0 0)
(22.7296 0 0)
(22.8133 0 0)
(22.897 0 0)
(22.9807 0 0)
(23.0644 0 0)
(23.1481 0 0)
(23.2318 0 0)
(23.3155 0 0)
(23.3991 0 0)
(23.4828 0 0)
(23.5665 0 0)
(23.6502 0 0)
(23.7339 0 0)
(23.8176 0 0)
(23.9013 0 0)
(23.985 0 0)
(24.0687 0 0)
(24.1524 0 0)
(24.2361 0 0)
(24.3198 0 0)
(24.4035 0 0)
(24.4872 0 0)
(24.5708 0 0)
(24.6545 0 0)
(24.7382 0 0)
(24.8219 0 0)
(24.9056 0 0)
(24.9893 0 0)
(25.073 0 0)
(25.1567 0 0)
(25.2404 0 0)
(25.3241 0 0)
(25.4078 0 0)
(25.4915 0 0)
(25.5752 0 0)
(25.6589 0 0)
(25.7427 0 0)
(25.8264 0 0)
(25.9101 0 0)
(25.9938 0 0)
(26.0775 0 0)
(26.1612 0 0)
(26.2449 0 0)
(26.3286 0 0)
(26.4123 0 0)
(26.496 0 0)
(26.5797 0 0)
(26.6634 0 0)
(26.7471 0 0)
(26.8308 0 0)
(26.9146 0 0)
(26.9983 0 0)
(27.082 0 0)
(27.1657 0 0)
(27.2494 0 0)
(27.3331 0 0)
(27.4168 0 0)
(27.5005 0 0)
(27.5843 0 0)
(27.668 0 0)
(27.7517 0 0)
(27.8354 0 0)
(27.9191 0 0)
(28.0028 0 0)
(28.0866 0 0)
(28.1703 0 0)
(28.254 0 0)
(28.3377 0 0)
(28.4214 0 0)
(28.5051 0 0)
(28.5889 0 0)
(28.6726 0 0)
(28.7563 0 0)
(28.84 0 0)
(28.9238 0 0)
(29.0075 0 0)
(29.0912 0 0)
(29.1749 0 0)
(29.2586 0 0)
(29.3424 0 0)
(29.4261 0 0)
(29.5098 0 0)
(29.5935 0 0)
(29.6773 0 0)
(29.761 0 0)
(29.8447 0 0)
(29.9285 0 0)
(30.0122 0 0)
(30.0959 0 0)
(30.1796 0 0)
(30.2634 0 0)
(30.3471 0 0)
(30.4308 0 0)
(30.5146 0 0)
(30.5983 0 0)
(30.682 0 0)
(30.7658 0 0)
(30.8495 0 0)
(30.9332 0 0)
(31.017 0 0)
(31.1007 0 0)
(31.1844 0 0)
(31.2682 0 0)
(31.3519 0 0)
(31.4356 0 0)
(31.5194 0 0)
(31.6031 0 0)
(31.6869 0 0)
(31.7706 0 0)
(31.8543 0 0)
(31.9381 0 0)
(32.0218 0 0)
(32.1056 0 0)
(32.1893 0 0)
(32.273 0 0)
(32.3568 0 0)
(32.4405 0 0)
(32.5243 0 0)
(32.608 0 0)
(32.6918 0 0)
(32.7755 0 0)
(32.8593 0 0)
(32.943 0 0)
(33.0267 0 0)
(33.1105 0 0)
(33.1942 0 0)
(33.278 0 0)
(33.3617 0 0)
(33.4455 0 0)
(33.5292 0 0)
(33.613 0 0)
(33.6967 0 0)
(33.7805 0 0)
(33.8642 0 0)
(33.948 0 0)
(34.0317 0 0)
(34.1155 0 0)
(34.1992 0 0)
(34.283 0 0)
(34.3668 0 0)
(34.4505 0 0)
(34.5343 0 0)
(34.618 0 0)
(34.7018 0 0)
(34.7855 0 0)
(34.8693 0 0)
(34.953 0 0)
(35.0368 0 0)
(35.1206 0 0)
(35.2043 0 0)
(35.2881 0 0)
(35.3718 0 0)
(35.4556 0 0)
(35.5394 0 0)
(35.6231 0 0)
(35.7069 0 0)
(35.7906 0 0)
(35.8744 0 0)
(35.9582 0 0)
(36.0419 0 0)
(36.1257 0 0)
(36.2095 0 0)
(36.2932 0 0)
(36.377 0 0)
(36.4608 0 0)
(36.5445 0 0)
(36.6283 0 0)
(36.7121 0 0)
(36.7958 0 0)
(36.8796 0 0)
(36.9634 0 0)
(37.0471 0 0)
(37.1309 0 0)
(37.2147 0 0)
(37.2984 0 0)
(37.3822 0 0)
(37.466 0 0)
(37.5498 0 0)
(37.6335 0 0)
(37.7173 0 0)
(37.8011 0 0)
(37.8849 0 0)
(37.9686 0 0)
(38.0524 0 0)
(38.1362 0 0)
(38.22 0 0)
(38.3037 0 0)
(38.3875 0 0)
(38.4713 0 0)
(38.5551 0 0)
(38.6388 0 0)
(38.7226 0 0)
(38.8064 0 0)
(38.8902 0 0)
(38.974 0 0)
(39.0577 0 0)
(39.1415 0 0)
(39.2253 0 0)
(39.3091 0 0)
(39.3929 0 0)
(39.4767 0 0)
(39.5604 0 0)
(39.6442 0 0)
(39.728 0 0)
(39.8118 0 0)
(39.8956 0 0)
(39.9794 0 0)
(40.0632 0 0)
(40.1469 0 0)
(40.2307 0 0)
(40.3145 0 0)
(40.3983 0 0)
(40.4821 0 0)
(40.5659 0 0)
(40.6497 0 0)
(40.7335 0 0)
(40.8173 0 0)
(40.9011 0 0)
(40.9848 0 0)
(41.0686 0 0)
(41.1524 0 0)
(41.2362 0 0)
(41.32 0 0)
(41.4038 0 0)
(41.4876 0 0)
(41.5714 0 0)
(41.6552 0 0)
(41.739 0 0)
(41.8228 0 0)
(41.9066 0 0)
(41.9904 0 0)
(42.0742 0 0)
(42.158 0 0)
(42.2418 0 0)
(42.3256 0 0)
(42.4094 0 0)
(42.4932 0 0)
(42.577 0 0)
(42.6608 0 0)
(42.7446 0 0)
(42.8284 0 0)
(42.9122 0 0)
(42.996 0 0)
(43.0798 0 0)
(43.1636 0 0)
(43.2474 0 0)
(43.3312 0 0)
(43.415 0 0)
(43.4988 0 0)
(43.5826 0 0)
(43.6664 0 0)
(43.7503 0 0)
(43.8341 0 0)
(43.9179 0 0)
(44.0017 0 0)
(44.0855 0 0)
(44.1693 0 0)
(44.2531 0 0)
(44.3369 0 0)
(44.4207 0 0)
(44.5045 0 0)
(44.5884 0 0)
(44.6722 0 0)
(44.756 0 0)
(44.8398 0 0)
(44.9236 0 0)
(45.0074 0 0)
(45.0912 0 0)
(45.1751 0 0)
(45.2589 0 0)
(45.3427 0 0)
(45.4265 0 0)
(45.5103 0 0)
(45.5941 0 0)
(45.678 0 0)
(45.7618 0 0)
(45.8456 0 0)
(45.9294 0 0)
(46.0132 0 0)
(46.0971 0 0)
(46.1809 0 0)
(46.2647 0 0)
(46.3485 0 0)
(46.4324 0 0)
(46.5162 0 0)
(46.6 0 0)
(46.6838 0 0)
(46.7677 0 0)
(46.8515 0 0)
(46.9353 0 0)
(47.0191 0 0)
(47.103 0 0)
(47.1868 0 0)
(47.2706 0 0)
(47.3544 0 0)
(47.4383 0 0)
(47.5221 0 0)
(47.6059 0 0)
(47.6898 0 0)
(47.7736 0 0)
(47.8574 0 0)
(47.9413 0 0)
(48.0251 0 0)
(48.1089 0 0)
(48.1927 0 0)
(48.2766 0 0)
(48.3604 0 0)
(48.4442 0 0)
(48.5281 0 0)
(48.6119 0 0)
(48.6958 0 0)
(48.7796 0 0)
(48.8634 0 0)
(48.9473 0 0)
(49.0311 0 0)
(49.1149 0 0)
(49.1988 0 0)
(49.2826 0 0)
(49.3665 0 0)
(49.4503 0 0)
(49.5341 0 0)
(49.618 0 0)
(49.7018 0 0)
(49.7857 0 0)
(49.8695 0 0)
(49.9533 0 0)
(50.0372 0 0)
(50.121 0 0)
(50.2049 0 0)
(50.2887 0 0)
(50.3726 0 0)
(50.4564 0 0)
(50.5403 0 0)
(50.6241 0 0)
(50.708 0 0)
(50.7918 0 0)
(50.8756 0 0)
(50.9595 0 0)
(51.0433 0 0)
(51.1272 0 0)
(51.211 0 0)
(51.2949 0 0)
(51.3787 0 0)
(51.4626 0 0)
(51.5464 0 0)
(51.6303 0 0)
(51.7142 0 0)
(51.798 0 0)
(51.8819 0 0)
(51.9657 0 0)
(52.0496 0 0)
(52.1334 0 0)
(52.2173 0 0)
(52.3011 0 0)
(52.385 0 0)
(52.4688 0 0)
(52.5527 0 0)
(52.6366 0 0)
(52.7204 0 0)
(52.8043 0 0)
(52.8881 0 0)
(52.972 0 0)
(53.0559 0 0)
(53.1397 0 0)
(53.2236 0 0)
(53.3074 0 0)
(53.3913 0 0)
(53.4752 0 0)
(53.559 0 0)
(53.6429 0 0)
(53.7268 0 0)
(53.8106 0 0)
(53.8945 0 0)
(53.9783 0 0)
(54.0622 0 0)
(54.1461 0 0)
(54.2299 0 0)
(54.3138 0 0)
(54.3977 0 0)
(54.4815 0 0)
(54.5654 0 0)
(54.6493 0 0)
(54.7332 0 0)
(54.817 0 0)
(54.9009 0 0)
(54.9848 0 0)
(55.0686 0 0)
(55.1525 0 0)
(55.2364 0 0)
(55.3202 0 0)
(55.4041 0 0)
(55.488 0 0)
(55.5719 0 0)
(55.6557 0 0)
(55.7396 0 0)
(55.8235 0 0)
(55.9074 0 0)
(55.9912 0 0)
(56.0751 0 0)
(56.159 0 0)
(56.2429 0 0)
(56.3268 0 0)
(56.4106 0 0)
(56.4945 0 0)
(56.5784 0 0)
(56.6623 0 0)
(56.7462 0 0)
(56.83 0 0)
(56.9139 0 0)
(56.9978 0 0)
(57.0817 0 0)
(57.1656 0 0)
(57.2494 0 0)
(57.3333 0 0)
(57.4172 0 0)
(57.5011 0 0)
(57.585 0 0)
(57.6689 0 0)
(57.7527 0 0)
(57.8366 0 0)
(57.9205 0 0)
(58.0044 0 0)
(58.0883 0 0)
(58.1722 0 0)
(58.2561 0 0)
(58.34 0 0)
(58.4238 0 0)
(58.5077 0 0)
(58.5916 0 0)
(58.6755 0 0)
(58.7594 0 0)
(58.8433 0 0)
(58.9272 0 0)
(59.0111 0 0)
(59.095 0 0)
(59.1789 0 0)
(59.2628 0 0)
(59.3467 0 0)
(59.4306 0 0)
(59.5144 0 0)
(59.5983 0 0)
(59.6822 0 0)
(59.7661 0 0)
(59.85 0 0)
(59.9339 0 0)
(60.0178 0 0)
(60.1017 0 0)
(60.1856 0 0)
(60.2695 0 0)
(60.3534 0 0)
(60.4373 0 0)
(60.5212 0 0)
(60.6051 0 0)
(60.689 0 0)
(60.7729 0 0)
(60.8568 0 0)
(60.9407 0 0)
(61.0246 0 0)
(61.1085 0 0)
(61.1924 0 0)
(61.2763 0 0)
(61.3603 0 0)
(61.4442 0 0)
(61.5281 0 0)
(61.612 0 0)
(61.6959 0 0)
(61.7798 0 0)
(61.8637 0 0)
(61.9476 0 0)
(62.0315 0 0)
(62.1154 0 0)
(62.1993 0 0)
(62.2832 0 0)
(62.3671 0 0)
(62.4511 0 0)
(62.535 0 0)
(62.6189 0 0)
(62.7028 0 0)
(62.7867 0 0)
(62.8706 0 0)
(62.9545 0 0)
(63.0384 0 0)
(63.1224 0 0)
(63.2063 0 0)
(63.2902 0 0)
(63.3741 0 0)
(63.458 0 0)
(63.5419 0 0)
(63.6259 0 0)
(63.7098 0 0)
(63.7937 0 0)
(63.8776 0 0)
(63.9615 0 0)
(64.0454 0 0)
(64.1294 0 0)
(64.2133 0 0)
(64.2972 0 0)
(64.3811 0 0)
(64.465 0 0)
(64.549 0 0)
(64.6329 0 0)
(64.7168 0 0)
(64.8007 0 0)
(64.8847 0 0)
(64.9686 0 0)
(65.0525 0 0)
(65.1364 0 0)
(65.2204 0 0)
(65.3043 0 0)
(65.3882 0 0)
(65.4721 0 0)
(65.5561 0 0)
(65.64 0 0)
(65.7239 0 0)
(65.8078 0 0)
(65.8918 0 0)
(65.9757 0 0)
(66.0596 0 0)
(66.1436 0 0)
(66.2275 0 0)
(66.3114 0 0)
(66.3954 0 0)
(66.4793 0 0)
(66.5632 0 0)
(66.6471 0 0)
(66.7311 0 0)
(66.815 0 0)
(66.899 0 0)
(66.9829 0 0)
(67.0668 0 0)
(67.1508 0 0)
(67.2347 0 0)
(67.3186 0 0)
(67.4026 0 0)
(67.4865 0 0)
(67.5704 0 0)
(67.6544 0 0)
(67.7383 0 0)
(67.8223 0 0)
(67.9062 0 0)
(67.9901 0 0)
(68.0741 0 0)
(68.158 0 0)
(68.2419 0 0)
(68.3259 0 0)
(68.4098 0 0)
(68.4938 0 0)
(68.5777 0 0)
(68.6617 0 0)
(68.7456 0 0)
(68.8295 0 0)
(68.9135 0 0)
(68.9974 0 0)
(69.0814 0 0)
(69.1653 0 0)
(69.2493 0 0)
(69.3332 0 0)
(69.4172 0 0)
(69.5011 0 0)
(69.5851 0 0)
(69.669 0 0)
(69.753 0 0)
(69.8369 0 0)
(69.9209 0 0)
(70.0048 0 0)
(70.0888 0 0)
(70.1727 0 0)
(70.2567 0 0)
(70.3406 0 0)
(70.4246 0 0)
(70.5085 0 0)
(70.5925 0 0)
(70.6764 0 0)
(70.7604 0 0)
(70.8443 0 0)
(70.9283 0 0)
(71.0122 0 0)
(71.0962 0 0)
(71.1801 0 0)
(71.2641 0 0)
(71.348 0 0)
(71.432 0 0)
(71.516 0 0)
(71.5999 0 0)
(71.6839 0 0)
(71.7678 0 0)
(71.8518 0 0)
(71.9358 0 0)
(72.0197 0 0)
(72.1037 0 0)
(72.1876 0 0)
(72.2716 0 0)
(72.3556 0 0)
(72.4395 0 0)
(72.5235 0 0)
(72.6074 0 0)
(72.6914 0 0)
(72.7754 0 0)
(72.8593 0 0)
(72.9433 0 0)
(73.0273 0 0)
(73.1112 0 0)
(73.1952 0 0)
(73.2792 0 0)
(73.3631 0 0)
(73.4471 0 0)
(73.5311 0 0)
(73.615 0 0)
(73.699 0 0)
(73.783 0 0)
(73.8669 0 0)
(73.9509 0 0)
(74.0349 0 0)
(74.1188 0 0)
(74.2028 0 0)
(74.2868 0 0)
(74.3707 0 0)
(74.4547 0 0)
(74.5387 0 0)
(74.6227 0 0)
(74.7066 0 0)
(74.7906 0 0)
(74.8746 0 0)
(74.9586 0 0)
(75.0425 0 0)
(75.1265 0 0)
(75.2105 0 0)
(75.2945 0 0)
(75.3784 0 0)
(75.4624 0 0)
(75.5464 0 0)
(75.6304 0 0)
(75.7143 0 0)
(75.7983 0 0)
(75.8823 0 0)
(75.9663 0 0)
(76.0502 0 0)
(76.1342 0 0)
(76.2182 0 0)
(76.3022 0 0)
(76.3862 0 0)
(76.4702 0 0)
(76.5541 0 0)
(76.6381 0 0)
(76.7221 0 0)
(76.8061 0 0)
(76.8901 0 0)
(76.974 0 0)
(77.058 0 0)
(77.142 0 0)
(77.226 0 0)
(77.31 0 0)
(77.394 0 0)
(77.478 0 0)
(77.5619 0 0)
(77.6459 0 0)
(77.7299 0 0)
(77.8139 0 0)
(77.8979 0 0)
(77.9819 0 0)
(78.0659 0 0)
(78.1499 0 0)
(78.2338 0 0)
(78.3178 0 0)
(78.4018 0 0)
(78.4858 0 0)
(78.5698 0 0)
(78.6538 0 0)
(78.7378 0 0)
(78.8218 0 0)
(78.9058 0 0)
(78.9898 0 0)
(79.0738 0 0)
(79.1577 0 0)
(79.2417 0 0)
(79.3257 0 0)
(79.4097 0 0)
(79.4937 0 0)
(79.5777 0 0)
(79.6617 0 0)
(79.7457 0 0)
(79.8297 0 0)
(79.9137 0 0)
(79.9977 0 0)
(80.0817 0 0)
(80.1657 0 0)
(80.2497 0 0)
(80.3337 0 0)
(80.4177 0 0)
(80.5017 0 0)
(80.5857 0 0)
(80.6697 0 0)
(80.7537 0 0)
(80.8377 0 0)
(80.9217 0 0)
(81.0057 0 0)
(81.0897 0 0)
(81.1737 0 0)
(81.2577 0 0)
(81.3417 0 0)
(81.4257 0 0)
(81.5097 0 0)
(81.5937 0 0)
(81.6777 0 0)
(81.7617 0 0)
(81.8457 0 0)
(81.9297 0 0)
(82.0137 0 0)
(82.0977 0 0)
(82.1818 0 0)
(82.2658 0 0)
(82.3498 0 0)
(82.4338 0 0)
(82.5178 0 0)
(82.6018 0 0)
(82.6858 0 0)
(82.7698 0 0)
(82.8538 0 0)
(82.9378 0 0)
(83.0218 0 0)
(83.1059 0 0)
(83.1899 0 0)
(83.2739 0 0)
(83.3579 0 0)
(83.4419 0 0)
(83.5259 0 0)
(83.6099 0 0)
(83.6939 0 0)
(83.778 0 0)
(83.862 0 0)
(83.946 0 0)
(84.03 0 0)
(84.114 0 0)
(84.198 0 0)
(84.282 0 0)
(84.3661 0 0)
(84.4501 0 0)
(84.5341 0 0)
(84.6181 0 0)
(84.7021 0 0)
(84.7861 0 0)
(84.8702 0 0)
(84.9542 0 0)
(85.0382 0 0)
(85.1222 0 0)
(85.2062 0 0)
(85.2903 0 0)
(85.3743 0 0)
(85.4583 0 0)
(85.5423 0 0)
(85.6263 0 0)
(85.7104 0 0)
(85.7944 0 0)
(85.8784 0 0)
(85.9624 0 0)
(86.0465 0 0)
(86.1305 0 0)
(86.2145 0 0)
(86.2985 0 0)
(86.3825 0 0)
(86.4666 0 0)
(86.5506 0 0)
(86.6346 0 0)
(86.7187 0 0)
(86.8027 0 0)
(86.8867 0 0)
(86.9707 0 0)
(87.0548 0 0)
(87.1388 0 0)
(87.2228 0 0)
(87.3068 0 0)
(87.3909 0 0)
(87.4749 0 0)
(87.5589 0 0)
(87.643 0 0)
(87.727 0 0)
(87.811 0 0)
(87.895 0 0)
(87.9791 0 0)
(88.0631 0 0)
(88.1471 0 0)
(88.2312 0 0)
(88.3152 0 0)
(88.3992 0 0)
(88.4833 0 0)
(88.5673 0 0)
(88.6513 0 0)
(88.7354 0 0)
(88.8194 0 0)
(88.9034 0 0)
(88.9875 0 0)
(89.0715 0 0)
(89.1555 0 0)
(89.2396 0 0)
(89.3236 0 0)
(89.4076 0 0)
(89.4917 0 0)
(89.5757 0 0)
(89.6598 0 0)
(89.7438 0 0)
(89.8278 0 0)
(89.9119 0 0)
(89.9959 0 0)
(90.0799 0 0)
(90.164 0 0)
(90.248 0 0)
(90.3321 0 0)
(90.4161 0 0)
(90.5001 0 0)
(90.5842 0 0)
(90.6682 0 0)
(90.7523 0 0)
(90.8363 0 0)
(90.9203 0 0)
(91.0044 0 0)
(91.0884 0 0)
(91.1725 0 0)
(91.2565 0 0)
(91.3406 0 0)
(91.4246 0 0)
(91.5086 0 0)
(91.5927 0 0)
(91.6767 0 0)
(91.7608 0 0)
(91.8448 0 0)
(91.9289 0 0)
(92.0129 0 0)
(92.097 0 0)
(92.181 0 0)
(92.2651 0 0)
(92.3491 0 0)
(92.4331 0 0)
(92.5172 0 0)
(92.6012 0 0)
(92.6853 0 0)
(92.7693 0 0)
(92.8534 0 0)
(92.9374 0 0)
(93.0215 0 0)
(93.1055 0 0)
(93.1896 0 0)
(93.2736 0 0)
(93.3577 0 0)
(93.4417 0 0)
(93.5258 0 0)
(93.6098 0 0)
(93.6939 0 0)
(93.7779 0 0)
(93.862 0 0)
(93.946 0 0)
(94.0301 0 0)
(94.1141 0 0)
(94.1982 0 0)
(94.2823 0 0)
(94.3663 0 0)
(94.4504 0 0)
(94.5344 0 0)
(94.6185 0 0)
(94.7025 0 0)
(94.7866 0 0)
(94.8706 0 0)
(94.9547 0 0)
(95.0387 0 0)
(95.1228 0 0)
(95.2069 0 0)
(95.2909 0 0)
(95.375 0 0)
(95.459 0 0)
(95.5431 0 0)
(95.6271 0 0)
(95.7112 0 0)
(95.7953 0 0)
(95.8793 0 0)
(95.9634 0 0)
(96.0474 0 0)
(96.1315 0 0)
(96.2155 0 0)
(96.2996 0 0)
(96.3837 0 0)
(96.4677 0 0)
(96.5518 0 0)
(96.6358 0 0)
(96.7199 0 0)
(96.804 0 0)
(96.888 0 0)
(96.9721 0 0)
(97.0561 0 0)
(97.1402 0 0)
(97.2243 0 0)
(97.3083 0 0)
(97.3924 0 0)
(97.4765 0 0)
(97.5605 0 0)
(97.6446 0 0)
(97.7286 0 0)
(97.8127 0 0)
(97.8968 0 0)
(97.9808 0 0)
(98.0649 0 0)
(98.149 0 0)
(98.233 0 0)
(98.3171 0 0)
(98.4012 0 0)
(98.4852 0 0)
(98.5693 0 0)
(98.6534 0 0)
(98.7374 0 0)
(98.8215 0 0)
(98.9056 0 0)
(98.9896 0 0)
(99.0737 0 0)
(99.1578 0 0)
(99.2418 0 0)
(99.3259 0 0)
(99.41 0 0)
(99.494 0 0)
(99.5781 0 0)
(99.6622 0 0)
(99.7462 0 0)
(99.8303 0 0)
(99.9144 0 0)
(99.9984 0 0)
(100.083 0 0)
(100.167 0 0)
(100.251 0 0)
(100.335 0 0)
(100.419 0 0)
(100.503 0 0)
(100.587 0 0)
(100.671 0 0)
(100.755 0 0)
(100.839 0 0)
(100.923 0 0)
(101.007 0 0)
(101.091 0 0)
(101.175 0 0)
(101.259 0 0)
(101.344 0 0)
(101.428 0 0)
(101.512 0 0)
(101.596 0 0)
(101.68 0 0)
(101.764 0 0)
(101.848 0 0)
(101.932 0 0)
(102.016 0 0)
(102.1 0 0)
(102.184 0 0)
(102.268 0 0)
(102.352 0 0)
(102.437 0 0)
(102.521 0 0)
(102.605 0 0)
(102.689 0 0)
(102.773 0 0)
(102.857 0 0)
(102.941 0 0)
(103.025 0 0)
(103.109 0 0)
(103.193 0 0)
(103.277 0 0)
(103.361 0 0)
(103.445 0 0)
(103.529 0 0)
(103.614 0 0)
(103.698 0 0)
(103.782 0 0)
(103.866 0 0)
(103.95 0 0)
(104.034 0 0)
(104.118 0 0)
(104.202 0 0)
(104.286 0 0)
(104.37 0 0)
(104.454 0 0)
(104.538 0 0)
(104.623 0 0)
(104.707 0 0)
(104.791 0 0)
(104.875 0 0)
(104.959 0 0)
(105.043 0 0)
(105.127 0 0)
(105.211 0 0)
(105.295 0 0)
(105.379 0 0)
(105.463 0 0)
(105.547 0 0)
(105.631 0 0)
(105.716 0 0)
(105.8 0 0)
(105.884 0 0)
(105.968 0 0)
(106.052 0 0)
(106.136 0 0)
(106.22 0 0)
(106.304 0 0)
(106.388 0 0)
(106.472 0 0)
(106.556 0 0)
(106.64 0 0)
(106.724 0 0)
(106.809 0 0)
(106.893 0 0)
(106.977 0 0)
(107.061 0 0)
(107.145 0 0)
(107.229 0 0)
(107.313 0 0)
(107.397 0 0)
(107.481 0 0)
(107.565 0 0)
(107.649 0 0)
(107.733 0 0)
(107.818 0 0)
(107.902 0 0)
(107.986 0 0)
(108.07 0 0)
(108.154 0 0)
(108.238 0 0)
(108.322 0 0)
(108.406 0 0)
(108.49 0 0)
(108.574 0 0)
(108.658 0 0)
(108.742 0 0)
(108.827 0 0)
(108.911 0 0)
(108.995 0 0)
(109.079 0 0)
(109.163 0 0)
(109.247 0 0)
(109.331 0 0)
(109.415 0 0)
(109.499 0 0)
(109.583 0 0)
(109.667 0 0)
(109.751 0 0)
(109.836 0 0)
(109.92 0 0)
(110.004 0 0)
(110.088 0 0)
(110.172 0 0)
(110.256 0 0)
(110.34 0 0)
(110.424 0 0)
(110.508 0 0)
(110.592 0 0)
(110.676 0 0)
(110.76 0 0)
(110.845 0 0)
(110.929 0 0)
(111.013 0 0)
(111.097 0 0)
(111.181 0 0)
(111.265 0 0)
(111.349 0 0)
(111.433 0 0)
(111.517 0 0)
(111.601 0 0)
(111.685 0 0)
(111.769 0 0)
(111.853 0 0)
(111.938 0 0)
(112.022 0 0)
(112.106 0 0)
(112.19 0 0)
(112.274 0 0)
(112.358 0 0)
(112.442 0 0)
(112.526 0 0)
(112.61 0 0)
(112.694 0 0)
(112.778 0 0)
(112.862 0 0)
(112.947 0 0)
(113.031 0 0)
(113.115 0 0)
(113.199 0 0)
(113.283 0 0)
(113.367 0 0)
(113.451 0 0)
(113.535 0 0)
(113.619 0 0)
(113.703 0 0)
(113.787 0 0)
(113.871 0 0)
(113.956 0 0)
(114.04 0 0)
(114.124 0 0)
(114.208 0 0)
(114.292 0 0)
(114.376 0 0)
(114.46 0 0)
(114.544 0 0)
(114.628 0 0)
(114.712 0 0)
(114.796 0 0)
(114.88 0 0)
(114.964 0 0)
(115.049 0 0)
(115.133 0 0)
(115.217 0 0)
(115.301 0 0)
(115.385 0 0)
(115.469 0 0)
(115.553 0 0)
(115.637 0 0)
(115.721 0 0)
(115.805 0 0)
(115.889 0 0)
(115.973 0 0)
(116.057 0 0)
(116.142 0 0)
(116.226 0 0)
(116.31 0 0)
(116.394 0 0)
(116.478 0 0)
(116.562 0 0)
(116.646 0 0)
(116.73 0 0)
(116.814 0 0)
(116.898 0 0)
(116.982 0 0)
(117.066 0 0)
(117.15 0 0)
(117.235 0 0)
(117.319 0 0)
(117.403 0 0)
(117.487 0 0)
(117.571 0 0)
(117.655 0 0)
(117.739 0 0)
(117.823 0 0)
(117.907 0 0)
(117.991 0 0)
(118.075 0 0)
(118.159 0 0)
(118.243 0 0)
(118.327 0 0)
(118.412 0 0)
(118.496 0 0)
(118.58 0 0)
(118.664 0 0)
(118.748 0 0)
(118.832 0 0)
(118.916 0 0)
(119 0 0)
(119.084 0 0)
(119.168 0 0)
(119.252 0 0)
(119.336 0 0)
(119.42 0 0)
(119.504 0 0)
(119.589 0 0)
(119.673 0 0)
(119.757 0 0)
(119.841 0 0)
(119.925 0 0)
(120.009 0 0)
(120.093 0 0)
(120.177 0 0)
(120.261 0 0)
(120.345 0 0)
(120.429 0 0)
(120.513 0 0)
(120.597 0 0)
(120.681 0 0)
(120.765 0 0)
(120.849 0 0)
(120.934 0 0)
(121.018 0 0)
(121.102 0 0)
(121.186 0 0)
(121.27 0 0)
(121.354 0 0)
(121.438 0 0)
(121.522 0 0)
(121.606 0 0)
(121.69 0 0)
(121.774 0 0)
(121.858 0 0)
(121.942 0 0)
(122.026 0 0)
(122.11 0 0)
(122.194 0 0)
(122.278 0 0)
(122.363 0 0)
(122.447 0 0)
(122.531 0 0)
(122.615 0 0)
(122.699 0 0)
(122.783 0 0)
(122.867 0 0)
(122.951 0 0)
(123.035 0 0)
(123.119 0 0)
(123.203 0 0)
(123.287 0 0)
(123.371 0 0)
(123.455 0 0)
(123.539 0 0)
(123.623 0 0)
(123.707 0 0)
(123.791 0 0)
(123.875 0 0)
(123.959 0 0)
(124.044 0 0)
(124.128 0 0)
(124.212 0 0)
(124.296 0 0)
(124.38 0 0)
(124.464 0 0)
(124.548 0 0)
(124.632 0 0)
(124.716 0 0)
(124.8 0 0)
(124.884 0 0)
(124.968 0 0)
(125.052 0 0)
(125.136 0 0)
(125.22 0 0)
(125.304 0 0)
(125.388 0 0)
(125.472 0 0)
(125.556 0 0)
(125.64 0 0)
(125.724 0 0)
(125.808 0 0)
(125.892 0 0)
(125.976 0 0)
(126.06 0 0)
(126.144 0 0)
(126.228 0 0)
(126.313 0 0)
(126.397 0 0)
(126.481 0 0)
(126.565 0 0)
(126.649 0 0)
(126.733 0 0)
(126.817 0 0)
(126.901 0 0)
(126.985 0 0)
(127.069 0 0)
(127.153 0 0)
(127.237 0 0)
(127.321 0 0)
(127.405 0 0)
(127.489 0 0)
(127.573 0 0)
(127.657 0 0)
(127.741 0 0)
(127.825 0 0)
(127.909 0 0)
(127.993 0 0)
(128.077 0 0)
(128.161 0 0)
(128.245 0 0)
(128.329 0 0)
(128.413 0 0)
(128.497 0 0)
(128.581 0 0)
(128.665 0 0)
(128.749 0 0)
(128.833 0 0)
(128.917 0 0)
(129.001 0 0)
(129.085 0 0)
(129.169 0 0)
(129.253 0 0)
(129.337 0 0)
(129.421 0 0)
(129.505 0 0)
(129.589 0 0)
(129.673 0 0)
(129.757 0 0)
(129.841 0 0)
(129.925 0 0)
(130.009 0 0)
(130.093 0 0)
(130.177 0 0)
(130.261 0 0)
(130.345 0 0)
(130.429 0 0)
(130.513 0 0)
(130.597 0 0)
(130.681 0 0)
(130.765 0 0)
(130.849 0 0)
(130.933 0 0)
(131.017 0 0)
(131.101 0 0)
(131.185 0 0)
(131.269 0 0)
(131.353 0 0)
(131.437 0 0)
(131.521 0 0)
(131.605 0 0)
(131.689 0 0)
(131.773 0 0)
(131.856 0 0)
(131.94 0 0)
(132.024 0 0)
(132.108 0 0)
(132.192 0 0)
(132.276 0 0)
(132.36 0 0)
(132.444 0 0)
(132.528 0 0)
(132.612 0 0)
(132.696 0 0)
(132.78 0 0)
(132.864 0 0)
(132.948 0 0)
(133.032 0 0)
(133.116 0 0)
(133.2 0 0)
(133.284 0 0)
(133.368 0 0)
(133.452 0 0)
(133.536 0 0)
(133.62 0 0)
(133.703 0 0)
(133.787 0 0)
(133.871 0 0)
(133.955 0 0)
(134.039 0 0)
(134.123 0 0)
(134.207 0 0)
(134.291 0 0)
(134.375 0 0)
(134.459 0 0)
(134.543 0 0)
(134.627 0 0)
(134.711 0 0)
(134.795 0 0)
(134.878 0 0)
(134.962 0 0)
(135.046 0 0)
(135.13 0 0)
(135.214 0 0)
(135.298 0 0)
(135.382 0 0)
(135.466 0 0)
(135.55 0 0)
(135.634 0 0)
(135.718 0 0)
(135.801 0 0)
(135.885 0 0)
(135.969 0 0)
(136.053 0 0)
(136.137 0 0)
(136.221 0 0)
(136.305 0 0)
(136.389 0 0)
(136.473 0 0)
(136.556 0 0)
(136.64 0 0)
(136.724 0 0)
(136.808 0 0)
(136.892 0 0)
(136.976 0 0)
(137.06 0 0)
(137.144 0 0)
(137.227 0 0)
(137.311 0 0)
(137.395 0 0)
(137.479 0 0)
(137.563 0 0)
(137.647 0 0)
(137.731 0 0)
(137.815 0 0)
(137.898 0 0)
(137.982 0 0)
(138.066 0 0)
(138.15 0 0)
(138.234 0 0)
(138.318 0 0)
(138.401 0 0)
(138.485 0 0)
(138.569 0 0)
(138.653 0 0)
(138.737 0 0)
(138.821 0 0)
(138.904 0 0)
(138.988 0 0)
(139.072 0 0)
(139.156 0 0)
(139.24 0 0)
(139.324 0 0)
(139.407 0 0)
(139.491 0 0)
(139.575 0 0)
(139.659 0 0)
(139.743 0 0)
(139.826 0 0)
(139.91 0 0)
(139.994 0 0)
(140.078 0 0)
(140.162 0 0)
(140.245 0 0)
(140.329 0 0)
(140.413 0 0)
(140.497 0 0)
(140.581 0 0)
(140.664 0 0)
(140.748 0 0)
(140.832 0 0)
(140.916 0 0)
(140.999 0 0)
(141.083 0 0)
(141.167 0 0)
(141.251 0 0)
(141.334 0 0)
(141.418 0 0)
(141.502 0 0)
(141.586 0 0)
(141.669 0 0)
(141.753 0 0)
(141.837 0 0)
(141.921 0 0)
(142.004 0 0)
(142.088 0 0)
(142.172 0 0)
(142.256 0 0)
(142.339 0 0)
(142.423 0 0)
(142.507 0 0)
(142.59 0 0)
(142.674 0 0)
(142.758 0 0)
(142.842 0 0)
(142.925 0 0)
(143.009 0 0)
(143.093 0 0)
(143.176 0 0)
(143.26 0 0)
(143.344 0 0)
(143.427 0 0)
(143.511 0 0)
(143.595 0 0)
(143.678 0 0)
(143.762 0 0)
(143.846 0 0)
(143.929 0 0)
(144.013 0 0)
(144.097 0 0)
(144.18 0 0)
(144.264 0 0)
(144.348 0 0)
(144.431 0 0)
(144.515 0 0)
(144.599 0 0)
(144.682 0 0)
(144.766 0 0)
(144.849 0 0)
(144.933 0 0)
(145.017 0 0)
(145.1 0 0)
(145.184 0 0)
(145.268 0 0)
(145.351 0 0)
(145.435 0 0)
(145.518 0 0)
(145.602 0 0)
(145.685 0 0)
(145.769 0 0)
(145.853 0 0)
(145.936 0 0)
(146.02 0 0)
(146.103 0 0)
(146.187 0 0)
(146.27 0 0)
(146.354 0 0)
(146.438 0 0)
(146.521 0 0)
(146.605 0 0)
(146.688 0 0)
(146.772 0 0)
(146.855 0 0)
(146.939 0 0)
(147.022 0 0)
(147.106 0 0)
(147.189 0 0)
(147.273 0 0)
(147.356 0 0)
(147.44 0 0)
(147.523 0 0)
(147.607 0 0)
(147.69 0 0)
(147.774 0 0)
(147.857 0 0)
(147.941 0 0)
(148.024 0 0)
(148.107 0 0)
(148.191 0 0)
(148.274 0 0)
(148.358 0 0)
(148.441 0 0)
(148.525 0 0)
(148.608 0 0)
(148.691 0 0)
(148.775 0 0)
(148.858 0 0)
(148.942 0 0)
(149.025 0 0)
(149.108 0 0)
(149.192 0 0)
(149.275 0 0)
(149.359 0 0)
(149.442 0 0)
(149.525 0 0)
(149.609 0 0)
(149.692 0 0)
(149.775 0 0)
(149.859 0 0)
(149.942 0 0)
(150.025 0 0)
(150.109 0 0)
(150.192 0 0)
(150.275 0 0)
(150.359 0 0)
(150.442 0 0)
(150.525 0 0)
(150.608 0 0)
(150.692 0 0)
(150.775 0 0)
(150.858 0 0)
(150.941 0 0)
(151.025 0 0)
(151.108 0 0)
(151.191 0 0)
(151.274 0 0)
(151.358 0 0)
(151.441 0 0)
(151.524 0 0)
(151.607 0 0)
(151.69 0 0)
(151.774 0 0)
(151.857 0 0)
(151.94 0 0)
(152.023 0 0)
(152.106 0 0)
(152.189 0 0)
(152.273 0 0)
(152.356 0 0)
(152.439 0 0)
(152.522 0 0)
(152.605 0 0)
(152.688 0 0)
(152.771 0 0)
(152.854 0 0)
(152.937 0 0)
(153.02 0 0)
(153.104 0 0)
(153.187 0 0)
(153.27 0 0)
(153.353 0 0)
(153.436 0 0)
(153.519 0 0)
(153.602 0 0)
(153.685 0 0)
(153.768 0 0)
(153.851 0 0)
(153.934 0 0)
(154.017 0 0)
(154.1 0 0)
(154.182 0 0)
(154.265 0 0)
(154.348 0 0)
(154.431 0 0)
(154.514 0 0)
(154.597 0 0)
(154.68 0 0)
(154.763 0 0)
(154.846 0 0)
(154.929 0 0)
(155.011 0 0)
(155.094 0 0)
(155.177 0 0)
(155.26 0 0)
(155.343 0 0)
(155.426 0 0)
(155.508 0 0)
(155.591 0 0)
(155.674 0 0)
(155.757 0 0)
(155.839 0 0)
(155.922 0 0)
(156.005 0 0)
(156.088 0 0)
(156.17 0 0)
(156.253 0 0)
(156.336 0 0)
(156.418 0 0)
(156.501 0 0)
(156.584 0 0)
(156.666 0 0)
(156.749 0 0)
(156.831 0 0)
(156.914 0 0)
(156.997 0 0)
(157.079 0 0)
(157.162 0 0)
(157.244 0 0)
(157.327 0 0)
(157.409 0 0)
(157.492 0 0)
(157.574 0 0)
(157.657 0 0)
(157.739 0 0)
(157.822 0 0)
(157.904 0 0)
(157.987 0 0)
(158.069 0 0)
(158.151 0 0)
(158.234 0 0)
(158.316 0 0)
(158.398 0 0)
(158.481 0 0)
(158.563 0 0)
(158.645 0 0)
(158.728 0 0)
(158.81 0 0)
(158.892 0 0)
(158.975 0 0)
(159.057 0 0)
(159.139 0 0)
(159.221 0 0)
(159.303 0 0)
(159.386 0 0)
(159.468 0 0)
(159.55 0 0)
(159.632 0 0)
(159.714 0 0)
(159.796 0 0)
(159.878 0 0)
(159.96 0 0)
(160.042 0 0)
(160.124 0 0)
(160.206 0 0)
(160.288 0 0)
(160.37 0 0)
(160.452 0 0)
(160.534 0 0)
(160.616 0 0)
(160.698 0 0)
(160.78 0 0)
(160.862 0 0)
(160.944 0 0)
(161.025 0 0)
(161.107 0 0)
(161.189 0 0)
(161.271 0 0)
(161.352 0 0)
(161.434 0 0)
(161.516 0 0)
(161.598 0 0)
(161.679 0 0)
(161.761 0 0)
(161.842 0 0)
(161.924 0 0)
(162.006 0 0)
(162.087 0 0)
(162.169 0 0)
(162.25 0 0)
(162.332 0 0)
(162.413 0 0)
(162.494 0 0)
(162.576 0 0)
(162.657 0 0)
(162.739 0 0)
(162.82 0 0)
(162.901 0 0)
(162.983 0 0)
(163.064 0 0)
(163.145 0 0)
(163.226 0 0)
(163.307 0 0)
(163.389 0 0)
(163.47 0 0)
(163.551 0 0)
(163.632 0 0)
(163.713 0 0)
(163.794 0 0)
(163.875 0 0)
(163.956 0 0)
(164.037 0 0)
(164.118 0 0)
(164.199 0 0)
(164.28 0 0)
(164.36 0 0)
(164.441 0 0)
(164.522 0 0)
(164.603 0 0)
(164.683 0 0)
(164.764 0 0)
(164.845 0 0)
(164.925 0 0)
(165.006 0 0)
(165.086 0 0)
(165.167 0 0)
(165.247 0 0)
(165.328 0 0)
(165.408 0 0)
(165.489 0 0)
(165.569 0 0)
(165.649 0 0)
(165.729 0 0)
(165.81 0 0)
(165.89 0 0)
(165.97 0 0)
(166.05 0 0)
(166.13 0 0)
(166.21 0 0)
(166.29 0 0)
(166.37 0 0)
(166.45 0 0)
(166.53 0 0)
(166.61 0 0)
(166.69 0 0)
(166.77 0 0)
(166.849 0 0)
(166.929 0 0)
(167.009 0 0)
(167.088 0 0)
(167.168 0 0)
(167.247 0 0)
(167.327 0 0)
(167.406 0 0)
(167.486 0 0)
(167.565 0 0)
(167.644 0 0)
(167.724 0 0)
(167.803 0 0)
(167.882 0 0)
(167.961 0 0)
(168.04 0 0)
(168.119 0 0)
(168.198 0 0)
(168.277 0 0)
(168.356 0 0)
(168.435 0 0)
(168.513 0 0)
(168.592 0 0)
(168.671 0 0)
(168.749 0 0)
(168.828 0 0)
(168.907 0 0)
(168.985 0 0)
(169.063 0 0)
(169.142 0 0)
(169.22 0 0)
(169.298 0 0)
(169.376 0 0)
(169.454 0 0)
(169.532 0 0)
(169.61 0 0)
(169.688 0 0)
(169.766 0 0)
(169.844 0 0)
(169.922 0 0)
(169.999 0 0)
(170.077 0 0)
(170.155 0 0)
(170.232 0 0)
(170.309 0 0)
(170.387 0 0)
(170.464 0 0)
(170.541 0 0)
(170.618 0 0)
(170.695 0 0)
(170.772 0 0)
(170.849 0 0)
(170.926 0 0)
(171.003 0 0)
(171.08 0 0)
(171.156 0 0)
(171.233 0 0)
(171.309 0 0)
(171.386 0 0)
(171.462 0 0)
(171.538 0 0)
(171.614 0 0)
(171.69 0 0)
(171.766 0 0)
(171.842 0 0)
(171.918 0 0)
(171.994 0 0)
(172.07 0 0)
(172.145 0 0)
(172.221 0 0)
(172.296 0 0)
(172.371 0 0)
(172.447 0 0)
(172.522 0 0)
(172.597 0 0)
(172.672 0 0)
(172.747 0 0)
(172.821 0 0)
(172.896 0 0)
(172.971 0 0)
(173.045 0 0)
(173.12 0 0)
(173.194 0 0)
(173.268 0 0)
(173.342 0 0)
(173.416 0 0)
(173.49 0 0)
(173.564 0 0)
(173.637 0 0)
(173.711 0 0)
(173.784 0 0)
(173.858 0 0)
(173.931 0 0)
(174.004 0 0)
(174.077 0 0)
(174.15 0 0)
(174.223 0 0)
(174.296 0 0)
(174.368 0 0)
(174.441 0 0)
(174.513 0 0)
(174.585 0 0)
(174.657 0 0)
(174.729 0 0)
(174.801 0 0)
(174.873 0 0)
(174.944 0 0)
(175.016 0 0)
(175.087 0 0)
(175.159 0 0)
(175.23 0 0)
(175.301 0 0)
(175.371 0 0)
(175.442 0 0)
(175.513 0 0)
(175.583 0 0)
(175.654 0 0)
(175.724 0 0)
(175.794 0 0)
(175.864 0 0)
(175.933 0 0)
(176.003 0 0)
(176.073 0 0)
(176.142 0 0)
(176.211 0 0)
(176.28 0 0)
(176.349 0 0)
(176.418 0 0)
(176.487 0 0)
(176.555 0 0)
(176.623 0 0)
(176.692 0 0)
(176.76 0 0)
(176.828 0 0)
(176.895 0 0)