/*--------------------------------*- C++ -*----------------------------------*\
  =========                 |
  \\      /  F ield         | OpenFOAM: The Open Source CFD Toolbox
   \\    /   O peration     | Website:  https://openfoam.org
    \\  /    A nd           | Version:  9
     \\/     M anipulation  |
\*---------------------------------------------------------------------------*/
FoamFile
{
    format      ascii;
    class       volScalarField;
    location    "0.019";
    object      ddt0(rho,e);
}
// * * * * * * * * * * * * * * * * * * * * * * * * * * * * * * * * * * * * * //

dimensions      [1 -1 -3 0 0 0 0];

internalField   nonuniform List<scalar> 
1000
(
705018
694095
695907
711489
724960
730150
733196
742927
744758
744629
744777
745198
745743
746332
746935
747546
748160
748774
749389
750002
750615
751230
751843
752457
753073
753688
754303
754918
755534
756151
756768
757383
757999
758615
759232
759850
760468
761086
761704
762322
762941
763559
764178
764797
765416
766035
766655
767274
767894
768514
769134
769754
770375
770995
771615
772235
772855
773475
774095
774716
775336
775956
776576
777196
777817
778437
779057
779677
780298
780918
781538
782159
782779
783398
784018
784638
785257
785876
786495
787114
787732
788351
788969
789587
790204
790822
791439
792056
792672
793289
793905
794520
795135
795750
796364
796978
797592
798205
798817
799429
800040
800651
801261
801871
802480
803088
803696
804303
804910
805515
806120
806725
807328
807930
808532
809132
809732
810331
810928
811525
812120
812715
813308
813900
814490
815080
815668
816255
816840
817424
818006
818587
819166
819744
820320
820894
821466
822037
822606
823173
823738
824301
824862
825421
825977
826532
827084
827634
828182
828727
829270
829811
830349
830884
831418
831948
832477
832999
833528
834036
834577
835045
835646
835991
836805
836778
838226
837162
840246
836688
843291
835050
847032
833835
847703
839633
838554
846377
844214
842681
842289
846614
845741
845404
843608
854080
832101
869167
824407
863210
852204
826538
878870
830126
853188
856805
844696
866457
820091
878966
866992
807247
882469
854817
851594
864225
810878
897768
874168
810079
881869
836794
856692
908379
803735
846756
903324
813981
896529
868332
795509
903231
856203
812565
918713
834804
811102
919094
822090
819577
933713
815846
817478
940077
807342
810207
942576
802634
798622
944021
803345
781446
939347
807026
750611
931235
820239
714600
901988
840426
680142
843562
857882
659315
762182
856864
656862
665723
821542
670810
572173
741485
687753
505692
619802
682754
482737
481478
628385
498239
369934
514133
518818
324428
367311
494418
350139
248429
397920
398557
216840
259781
394059
274525
163044
301001
343759
176290
174664
327840
270650
126474
216102
326170
201735
119613
258149
302268
152103
138016
286830
269104
123522
165305
300554
236530
111342
191010
302907
210281
109052
209725
299664
192070
110308
221014
294619
181387
112070
224680
290328
177664
112195
221647
287546
180098
110594
212632
285502
188265
108607
197650
282597
201754
108612
177255
275925
219714
113866
152873
262175
239846
127194
128453
238588
256926
151087
109674
204270
264617
183972
104101
162879
255295
219829
117807
123844
224785
246409
151936
100930
176827
249458
197353
106725
125946
220951
234031
142976
95711.8
166997
238591
194164
105412
111991
200538
229318
152411
89724
137404
218025
205538
119187
89945.3
160068
220891
178635
96099.1
96913.3
177200
213994
151907
83370.3
106756
184189
201492
133362
76026.1
110733
186134
191197
117256
70008
113745
182905
179650
107928
65653.1
109871
176815
171869
101550
60873.9
102437
167236
166113
99898.6
55970.7
89600.4
154457
164463
102076
47176.6
74776.6
144822
158107
100513
50060.1
62906.9
117533
149680
116344
51332.9
37926.8
96286.1
146108
119590
53858.5
29765.5
70294.3
124734
125811
67418
21787.6
43990
99232.6
120650
85507.5
28622.7
15004.2
65037.7
114050
97985.5
38136.7
3404.98
30534.5
88131.3
104420
55498.9
2511.34
5607.94
52212.2
89007.8
75821.6
21350.9
-13512.6
13070.8
65105.9
79981.1
43291.5
-6589.44
-17046.6
23872.7
67769.7
64102.8
15896.4
-29352.5
-19193.1
40978.3
73793.6
34803.8
-22161.6
-33077.8
3135.64
46902.7
52761.7
10748.1
-33062.7
-31682.6
10890.9
50134
40797
-11112.5
-45239.1
-24182.5
24755.3
50261.3
23723.1
-30642.9
-49623.8
-12066.4
42528.1
41079.2
-730.867
-31353.1
-36380.6
-10878.3
35030.9
25331.5
-968.231
-12223.5
-19510.8
-12807.2
3294.2
12407.9
4320.99
-224.17
-7713.88
-8711.96
-3197.37
1666.9
1905.37
1097.03
-1656.69
-4130.52
-5037.64
-3705.26
502.837
4227.22
-1919.66
-3823.46
-7741.73
-4879.61
4221.71
3239.83
-530.643
-4653.88
-229.405
-2832.29
-4324.59
-5809.16
-539.443
-866.978
-1326.72
-1314.33
-9.23866
929.879
1727.59
1358.62
-2743.21
-9506.5
470.241
-2929.8
-2205.44
-6116.87
-8909.69
-445.336
585.009
1354.41
1557.04
1938.44
2304.67
834.292
-339.588
-5688.92
451.312
-2126.55
-6218.57
-6408.38
-1078.93
130.18
-6839.96
-2291.7
-356.404
-1418.09
-5627.02
1461.47
-1212.03
-3424.74
-2804.21
-467.118
95.0716
-3153.5
-2352.79
-1121.06
-802.232
-4232.41
-492.279
-1859.93
-2431.2
-3921.71
-16.5717
-1722.62
-2958.48
-2626.6
-1307.37
-1337.34
-2176.91
-2291.78
-2244.22
-1177.01
-2044.56
-1420
-2617.21
-1787.92
-2683.69
-709.221
-2270.67
-2522.83
-2734.4
-1638.88
-1861.78
-2458.55
-2714.3
-2422.89
-1720.36
-2681.3
-2455.26
-1767.54
-2496.95
-2857.96
-2172.82
-1545.43
-2217.88
-3261.96
-1963.8
-1471.68
-2172.31
-3136.2
-1421.84
-1335.4
-2154.15
-3139.92
-1869.85
-1659.2
-2388.62
-2884.12
-2896.73
-1942.61
-3046.27
-2638.97
-1684.62
-2360.18
-3227.48
-2532.78
-2719.04
-2685.69
-3940.78
-1704.36
-2341.4
-2174.98
-4558.34
-3254.59
-1892.62
-1222.03
-2114.44
-4018.77
-3966.44
-2311.29
-954.356
-2863.81
-4256.82
-1115.19
-2570.19
-2776.44
-5071.62
-1672.32
-2174.74
-2382.93
-3585.14
-3324.64
-3148.33
-2355.21
-3290.25
-5072.68
-3430.43
-2606.35
-621.914
-2375.72
-5178.8
-924.654
-3276.86
-2160.32
-2880.86
-3714.15
-3057.86
-1872.86
-1998.29
-6184.45
430.621
-1562.68
-3028.38
-6590.71
-4067.81
-2474.53
347.907
-3817.45
-5181.23
-5690.26
-493.348
-3625.36
-2542.13
-5191.92
-6752.14
-3540.95
-721.553
-3000.8
-6079.28
-7685.13
578.005
-2588.05
-466.247
-1684.06
-7246.82
-5966.73
207.58
-3184.93
-572.811
-2895.88
-7211.09
-6180.97
-2297.24
-1866.76
-3583.53
-7162.26
-5788.02
-3705.73
-5512.77
-5638.55
-5350.78
-3246.33
-2050.2
-1995.31
-3226.08
-4359.53
-5707.88
-8039.23
-5443.86
-2598.68
-2374.98
-842.764
-2365.62
-4846.17
-7539.63
-5844.63
-2975.25
-4040.58
-3091.96
-2923.61
-3454.76
-5344.84
-3753.69
-4816.63
-4846.03
-6127.11
-4415.8
-2708.12
-4704.49
-6420.18
-6925.07
-6571.1
-5232.8
-2888.2
-2168.81
-2995.91
-4540.92
-8856.39
-8485.75
-5881.35
-4224.41
-4577.17
-5115.32
-6091.8
-6869.54
-6592.66
-4755.74
-3157.89
-2178.27
-3161.79
-5398.55
-6105.84
-7916.39
-9421.16
-8299.16
-7003.35
-5871.94
-3169.51
-2120.04
-1705.97
-1667.51
-3161.81
-9367.04
-12033.7
-9996.39
-6168.16
-5713.84
-8229.93
-7594.91
-7592.18
-7094.68
-6602.71
-3606.4
-4669
-6631.94
-5627.5
-5621.32
-6878.65
-6942.37
-8342.95
-8353.92
-5785.08
-6304.51
-8007.19
-8147.66
-8750.41
-9154.32
-7751.57
-7091.9
-7479.66
-9549.81
-7507.3
-9530.62
-10470.1
-4232.75
-5504.77
-7655.24
-8995.48
-9694.37
-6401.02
-11182.2
-7681.29
-8134.8
-11630.1
-12371.4
-9441.45
-5149.22
-5260.27
-6653.78
-8407.79
-7708.44
-12093.9
-9973.55
-5763.36
-10804.1
-13876.6
-14703.6
-8496.06
-16979.5
-7916.77
-11764.6
-13742.4
-10227.4
-13884.7
-10613.8
-14380.9
-1565.73
1890.83
-17895.8
-3814.06
-9151.89
-11187.8
-37294.9
3648.61
-11938.9
-20939.1
-49526.6
9976.05
-4845.57
-42536.7
-26745.1
13486.4
-24914.7
-31985.3
19118.2
-87257.2
43514.8
60530.5
-158985
27703.9
28585
-105016
-35545.7
77887.9
-86576.3
-102798
71772.9
-15542.4
-252312
238959
15206.6
-373677
182294
213437
-448806
39841.9
232326
-140483
-401116
405674
185737
-838332
317254
208166
-284978
-428615
547298
163405
-1.05381e+06
528960
290298
-476369
-360616
796130
-175278
-882727
671251
583229
-1.06547e+06
-31604
608376
-344920
-727825
552848
505525
-912728
-181620
614297
22393.5
-1.21591e+06
816872
256859
-542521
-429032
479097
501959
-1.26861e+06
490408
391585
-419842
-427915
359669
394834
-887826
82768.5
452926
-139087
-578479
398370
279270
-562495
64438.6
234555
-124544
-259631
294557
40888.1
-296555
169838
111435
-257254
7999.8
74177.6
-64248.2
-196983
36302.7
-79448.6
-172060
-137996
-157738
-113811
-217106
760.476
-130538
-93794.2
-76117.8
-17024.5
-57446.6
-51614.6
6536.19
-44010.2
-54283.5
-63643.2
-49672.6
-100777
-149223
-97774.5
-142392
-151856
-213922
-121610
-139280
-179368
-118404
-78658.9
-119506
-162606
-94186.5
-142480
-215249
-125333
)
;

boundaryField
{
    sides
    {
        type            calculated;
        value           nonuniform List<scalar> 2(-125333 705018);
    }
    empty
    {
        type            empty;
    }
}


// ************************************************************************* //
