/*--------------------------------*- C++ -*----------------------------------*\
  =========                 |
  \\      /  F ield         | OpenFOAM: The Open Source CFD Toolbox
   \\    /   O peration     | Website:  https://openfoam.org
    \\  /    A nd           | Version:  9
     \\/     M anipulation  |
\*---------------------------------------------------------------------------*/
FoamFile
{
    format      ascii;
    class       volScalarField;
    location    "0.019";
    object      rho_0;
}
// * * * * * * * * * * * * * * * * * * * * * * * * * * * * * * * * * * * * * //

dimensions      [1 -3 0 0 0 0 0];

internalField   nonuniform List<scalar> 
1000
(
0.585719
0.585483
0.58518
0.584962
0.584814
0.584698
0.58459
0.584498
0.584423
0.584346
0.584267
0.584187
0.584107
0.584027
0.583946
0.583865
0.583783
0.583702
0.58362
0.583538
0.583456
0.583374
0.583291
0.583209
0.583126
0.583042
0.582959
0.582875
0.582791
0.582707
0.582623
0.582538
0.582453
0.582368
0.582283
0.582198
0.582112
0.582026
0.58194
0.581853
0.581767
0.58168
0.581592
0.581505
0.581417
0.58133
0.581241
0.581153
0.581064
0.580976
0.580886
0.580797
0.580708
0.580618
0.580528
0.580437
0.580347
0.580256
0.580165
0.580073
0.579982
0.57989
0.579798
0.579705
0.579613
0.57952
0.579427
0.579333
0.579239
0.579145
0.579051
0.578957
0.578862
0.578767
0.578672
0.578576
0.57848
0.578384
0.578288
0.578191
0.578094
0.577997
0.577899
0.577801
0.577703
0.577605
0.577506
0.577407
0.577308
0.577208
0.577109
0.577008
0.576908
0.576807
0.576706
0.576605
0.576503
0.576401
0.576299
0.576197
0.576094
0.575991
0.575887
0.575783
0.575679
0.575575
0.57547
0.575365
0.57526
0.575154
0.575048
0.574942
0.574835
0.574728
0.574621
0.574513
0.574405
0.574297
0.574189
0.57408
0.57397
0.573861
0.573751
0.57364
0.57353
0.573418
0.573307
0.573195
0.573083
0.572971
0.572858
0.572745
0.572631
0.572517
0.572403
0.572288
0.572173
0.572057
0.571941
0.571825
0.571708
0.571591
0.571474
0.571356
0.571238
0.571119
0.571
0.570881
0.570761
0.57064
0.57052
0.570399
0.570277
0.570155
0.570033
0.56991
0.569786
0.569663
0.569538
0.569414
0.569289
0.569163
0.569037
0.568911
0.568783
0.568656
0.568528
0.5684
0.56827
0.568142
0.568009
0.567884
0.567745
0.567624
0.567479
0.567363
0.567213
0.567097
0.566947
0.56683
0.566677
0.56656
0.566406
0.566288
0.566132
0.566012
0.56586
0.565728
0.565592
0.565439
0.565318
0.565159
0.565026
0.564889
0.564733
0.564604
0.564448
0.564313
0.564166
0.564009
0.563885
0.563723
0.563572
0.563439
0.563276
0.563141
0.562981
0.562822
0.562697
0.562527
0.562374
0.562231
0.562059
0.561923
0.56177
0.561591
0.561457
0.56129
0.561123
0.560987
0.560808
0.560642
0.560502
0.560317
0.560158
0.56001
0.559819
0.559659
0.559505
0.559309
0.559152
0.558993
0.558791
0.558632
0.558467
0.558257
0.558093
0.557923
0.557706
0.557533
0.55736
0.557132
0.556945
0.556766
0.556527
0.55632
0.556135
0.555882
0.555649
0.555449
0.555183
0.554915
0.554691
0.554413
0.554105
0.553843
0.553548
0.5532
0.552887
0.552568
0.552182
0.551806
0.55145
0.551031
0.55059
0.550181
0.549734
0.549234
0.54876
0.548281
0.54774
0.547196
0.546677
0.546111
0.545509
0.544936
0.544354
0.543719
0.543089
0.542485
0.541841
0.541168
0.540527
0.539886
0.5392
0.538517
0.537867
0.537192
0.536486
0.535807
0.535145
0.534447
0.533739
0.533067
0.532392
0.531681
0.530982
0.530313
0.529627
0.528915
0.528226
0.527559
0.526865
0.526156
0.525477
0.524809
0.524113
0.52341
0.522738
0.52207
0.521372
0.520676
0.52001
0.519342
0.518646
0.517956
0.517294
0.516627
0.515934
0.515249
0.51459
0.513926
0.513237
0.512555
0.511899
0.511238
0.510554
0.509875
0.509221
0.508565
0.507886
0.507209
0.506557
0.505906
0.505233
0.504557
0.503906
0.50326
0.502594
0.501921
0.501268
0.500628
0.499971
0.499301
0.498646
0.498009
0.497361
0.496697
0.49604
0.495403
0.494765
0.494109
0.493451
0.492812
0.492182
0.491536
0.49088
0.490238
0.489611
0.488978
0.488328
0.487682
0.487055
0.486432
0.485793
0.485147
0.484516
0.483898
0.483273
0.482633
0.481998
0.48138
0.480766
0.480138
0.479503
0.47888
0.478271
0.477658
0.477031
0.476404
0.475793
0.47519
0.474578
0.473955
0.473338
0.472737
0.472139
0.471529
0.470913
0.470306
0.469714
0.46912
0.468514
0.467906
0.46731
0.466725
0.466136
0.465537
0.464938
0.464351
0.463774
0.463192
0.4626
0.46201
0.461433
0.460865
0.460291
0.459709
0.459129
0.458561
0.458002
0.457438
0.456866
0.456297
0.45574
0.455192
0.454639
0.45408
0.453522
0.452976
0.452439
0.451901
0.451356
0.45081
0.450277
0.449755
0.449232
0.448702
0.448173
0.447654
0.447145
0.446641
0.446132
0.44562
0.445116
0.444626
0.444142
0.443655
0.443165
0.442681
0.44221
0.441748
0.441288
0.440823
0.440362
0.439914
0.439478
0.439046
0.438614
0.438181
0.437758
0.437351
0.436953
0.436555
0.436157
0.435766
0.43539
0.435028
0.43467
0.434313
0.43396
0.43362
0.433294
0.43298
0.43267
0.432361
0.43206
0.431776
0.431507
0.431245
0.430986
0.430732
0.43049
0.430265
0.430053
0.429847
0.429643
0.429446
0.429264
0.429099
0.428943
0.428789
0.428638
0.428499
0.428375
0.428263
0.428156
0.428051
0.42795
0.42786
0.427783
0.427716
0.42765
0.427584
0.427522
0.427472
0.427432
0.427397
0.42736
0.427322
0.427288
0.427266
0.427251
0.427235
0.427216
0.427198
0.427183
0.427176
0.427172
0.427166
0.42716
0.427154
0.427148
0.427146
0.427146
0.427145
0.427145
0.427144
0.427143
0.427143
0.427143
0.427144
0.427145
0.427145
0.427146
0.427147
0.427147
0.427147
0.427148
0.42715
0.427151
0.427152
0.427152
0.427153
0.427156
0.427157
0.427157
0.427157
0.427159
0.42716
0.427159
0.427159
0.427161
0.427163
0.427164
0.427166
0.427168
0.42717
0.427172
0.427172
0.427172
0.427171
0.427173
0.427174
0.427174
0.427173
0.427173
0.427175
0.427177
0.427179
0.427181
0.427183
0.427185
0.427186
0.427186
0.427185
0.427186
0.427186
0.427185
0.427185
0.427187
0.427187
0.427186
0.427186
0.427188
0.427188
0.427187
0.427188
0.427189
0.427188
0.427189
0.42719
0.42719
0.42719
0.42719
0.427191
0.427191
0.42719
0.42719
0.427191
0.427191
0.42719
0.427191
0.427191
0.42719
0.42719
0.427191
0.427191
0.42719
0.42719
0.42719
0.42719
0.42719
0.42719
0.42719
0.42719
0.427189
0.42719
0.427189
0.427189
0.427189
0.427189
0.427189
0.427188
0.427188
0.427188
0.427188
0.427187
0.427187
0.427187
0.427187
0.427186
0.427186
0.427186
0.427186
0.427185
0.427185
0.427185
0.427185
0.427184
0.427184
0.427184
0.427184
0.427183
0.427183
0.427183
0.427182
0.427182
0.427182
0.427182
0.427181
0.427181
0.427181
0.42718
0.42718
0.42718
0.427179
0.427179
0.427178
0.427178
0.427178
0.427178
0.427177
0.427176
0.427177
0.427176
0.427176
0.427175
0.427175
0.427175
0.427175
0.427174
0.427174
0.427174
0.427173
0.427172
0.427172
0.427172
0.427172
0.427171
0.427171
0.42717
0.42717
0.42717
0.427169
0.427169
0.427168
0.427169
0.427168
0.427168
0.427167
0.427167
0.427167
0.427167
0.427166
0.427165
0.427166
0.427166
0.427165
0.427164
0.427164
0.427165
0.427163
0.427162
0.427162
0.427162
0.427162
0.427161
0.42716
0.42716
0.42716
0.42716
0.42716
0.427158
0.427158
0.427158
0.427158
0.427158
0.427156
0.427155
0.427156
0.427157
0.427157
0.427156
0.427155
0.427154
0.427154
0.427155
0.427155
0.427154
0.427153
0.427152
0.427153
0.427153
0.427152
0.42715
0.42715
0.42715
0.427149
0.427148
0.427148
0.427147
0.427147
0.427147
0.427147
0.427146
0.427145
0.427145
0.427144
0.427144
0.427144
0.427144
0.427144
0.427143
0.427142
0.427142
0.427141
0.427141
0.427141
0.427141
0.42714
0.427139
0.427139
0.427139
0.427138
0.427138
0.427137
0.427137
0.427136
0.427136
0.427135
0.427134
0.427134
0.427134
0.427133
0.427133
0.427132
0.427131
0.42713
0.427129
0.427129
0.427128
0.427128
0.427127
0.427126
0.427125
0.427125
0.427124
0.427124
0.427123
0.427123
0.427122
0.427121
0.42712
0.427119
0.427118
0.427117
0.427117
0.427117
0.427117
0.427116
0.427116
0.427114
0.427113
0.427112
0.427111
0.42711
0.427109
0.427108
0.427108
0.427107
0.427106
0.427106
0.427105
0.427104
0.427103
0.427103
0.427102
0.427101
0.4271
0.427099
0.427098
0.427097
0.427096
0.427095
0.427094
0.427093
0.427093
0.427092
0.427091
0.42709
0.427089
0.427087
0.427087
0.427086
0.427086
0.427084
0.427083
0.427083
0.427082
0.42708
0.427079
0.427079
0.427077
0.427076
0.427075
0.427075
0.427074
0.427074
0.427073
0.427073
0.427071
0.427071
0.427071
0.42707
0.427068
0.427068
0.427068
0.427066
0.427067
0.427067
0.427066
0.427066
0.427068
0.427067
0.427068
0.427072
0.427074
0.427073
0.427077
0.427084
0.427084
0.427082
0.427089
0.427101
0.427101
0.427098
0.427119
0.427128
0.427124
0.427135
0.427163
0.42716
0.427174
0.427196
0.427193
0.427233
0.427257
0.427251
0.427296
0.427337
0.427332
0.427371
0.427432
0.427422
0.427462
0.427567
0.427561
0.42759
0.427693
0.42774
0.42772
0.42788
0.427961
0.427939
0.428031
0.428227
0.428201
0.428262
0.42847
0.428565
0.428499
0.428728
0.428941
0.428888
0.429006
0.429287
0.429391
0.429316
0.429669
0.429861
0.429806
0.429981
0.430378
0.430384
0.430343
0.430819
0.430976
0.430919
0.431108
0.431538
0.431466
0.431497
0.431989
0.432145
0.432052
0.432265
0.432697
0.432748
0.432621
0.433076
0.433331
0.433195
0.433345
0.433729
0.433824
0.433699
0.433979
0.434295
0.434188
0.434238
0.434561
0.434648
0.434583
0.434717
0.434987
0.43496
0.434918
0.435166
0.435236
0.435189
0.435268
0.435439
0.435409
0.435443
0.435561
0.435578
0.435552
0.435661
0.435696
0.435673
0.435705
0.435775
0.435755
0.435745
0.435788
0.435797
0.43576
0.435761
0.435784
0.435764
0.435734
0.435751
0.435753
0.435732
0.435732
0.435738
0.435729
0.435721
0.435725
0.435719
0.435704
0.435695
0.435688
0.435669
0.435641
0.435625
0.435614
0.435577
0.435553
0.435541
0.435515
0.435488
0.435477
0.435468
0.435442
0.435422
0.435418
0.435398
0.435358
)
;

boundaryField
{
    sides
    {
        type            calculated;
        value           nonuniform List<scalar> 2(0.435358 0.585719);
    }
    empty
    {
        type            empty;
    }
}


// ************************************************************************* //
