/*--------------------------------*- C++ -*----------------------------------*\
  =========                 |
  \\      /  F ield         | OpenFOAM: The Open Source CFD Toolbox
   \\    /   O peration     | Website:  https://openfoam.org
    \\  /    A nd           | Version:  9
     \\/     M anipulation  |
\*---------------------------------------------------------------------------*/
FoamFile
{
    format      ascii;
    class       volVectorField;
    location    "0.019";
    object      U;
}
// * * * * * * * * * * * * * * * * * * * * * * * * * * * * * * * * * * * * * //

dimensions      [0 1 -1 0 0 0 0];

internalField   nonuniform List<vector> 
1000
(
(7.51904 0 0)
(8.645 0 0)
(9.42153 0 0)
(10.1197 0 0)
(10.8544 0 0)
(11.6079 0 0)
(12.3586 0 0)
(13.1057 0 0)
(13.8523 0 0)
(14.5994 0 0)
(15.3469 0 0)
(16.0945 0 0)
(16.8422 0 0)
(17.59 0 0)
(18.3379 0 0)
(19.086 0 0)
(19.8342 0 0)
(20.5826 0 0)
(21.3311 0 0)
(22.0797 0 0)
(22.8284 0 0)
(23.5773 0 0)
(24.3263 0 0)
(25.0755 0 0)
(25.8248 0 0)
(26.5742 0 0)
(27.3238 0 0)
(28.0735 0 0)
(28.8234 0 0)
(29.5734 0 0)
(30.3235 0 0)
(31.0737 0 0)
(31.8241 0 0)
(32.5746 0 0)
(33.3253 0 0)
(34.0761 0 0)
(34.827 0 0)
(35.578 0 0)
(36.3292 0 0)
(37.0805 0 0)
(37.832 0 0)
(38.5836 0 0)
(39.3353 0 0)
(40.0871 0 0)
(40.8391 0 0)
(41.5912 0 0)
(42.3435 0 0)
(43.0958 0 0)
(43.8483 0 0)
(44.601 0 0)
(45.3537 0 0)
(46.1066 0 0)
(46.8596 0 0)
(47.6128 0 0)
(48.3661 0 0)
(49.1195 0 0)
(49.873 0 0)
(50.6266 0 0)
(51.3804 0 0)
(52.1343 0 0)
(52.8883 0 0)
(53.6425 0 0)
(54.3967 0 0)
(55.1511 0 0)
(55.9057 0 0)
(56.6603 0 0)
(57.4151 0 0)
(58.1699 0 0)
(58.9249 0 0)
(59.6801 0 0)
(60.4353 0 0)
(61.1907 0 0)
(61.9461 0 0)
(62.7017 0 0)
(63.4575 0 0)
(64.2133 0 0)
(64.9692 0 0)
(65.7253 0 0)
(66.4815 0 0)
(67.2378 0 0)
(67.9942 0 0)
(68.7507 0 0)
(69.5074 0 0)
(70.2641 0 0)
(71.021 0 0)
(71.7779 0 0)
(72.535 0 0)
(73.2922 0 0)
(74.0495 0 0)
(74.8069 0 0)
(75.5644 0 0)
(76.3221 0 0)
(77.0798 0 0)
(77.8376 0 0)
(78.5956 0 0)
(79.3536 0 0)
(80.1118 0 0)
(80.87 0 0)
(81.6284 0 0)
(82.3868 0 0)
(83.1454 0 0)
(83.904 0 0)
(84.6628 0 0)
(85.4217 0 0)
(86.1806 0 0)
(86.9396 0 0)
(87.6988 0 0)
(88.458 0 0)
(89.2174 0 0)
(89.9768 0 0)
(90.7363 0 0)
(91.4959 0 0)
(92.2556 0 0)
(93.0154 0 0)
(93.7752 0 0)
(94.5352 0 0)
(95.2953 0 0)
(96.0554 0 0)
(96.8156 0 0)
(97.5759 0 0)
(98.3363 0 0)
(99.0967 0 0)
(99.8573 0 0)
(100.618 0 0)
(101.379 0 0)
(102.139 0 0)
(102.9 0 0)
(103.661 0 0)
(104.422 0 0)
(105.183 0 0)
(105.944 0 0)
(106.705 0 0)
(107.467 0 0)
(108.228 0 0)
(108.989 0 0)
(109.751 0 0)
(110.512 0 0)
(111.274 0 0)
(112.036 0 0)
(112.797 0 0)
(113.559 0 0)
(114.321 0 0)
(115.083 0 0)
(115.845 0 0)
(116.606 0 0)
(117.368 0 0)
(118.131 0 0)
(118.893 0 0)
(119.655 0 0)
(120.417 0 0)
(121.179 0 0)
(121.941 0 0)
(122.703 0 0)
(123.466 0 0)
(124.228 0 0)
(124.99 0 0)
(125.753 0 0)
(126.515 0 0)
(127.278 0 0)
(128.04 0 0)
(128.802 0 0)
(129.565 0 0)
(130.327 0 0)
(131.09 0 0)
(131.852 0 0)
(132.615 0 0)
(133.377 0 0)
(134.14 0 0)
(134.903 0 0)
(135.665 0 0)
(136.428 0 0)
(137.19 0 0)
(137.953 0 0)
(138.715 0 0)
(139.478 0 0)
(140.24 0 0)
(141.002 0 0)
(141.764 0 0)
(142.527 0 0)
(143.289 0 0)
(144.051 0 0)
(144.813 0 0)
(145.576 0 0)
(146.338 0 0)
(147.1 0 0)
(147.862 0 0)
(148.625 0 0)
(149.387 0 0)
(150.149 0 0)
(150.911 0 0)
(151.673 0 0)
(152.435 0 0)
(153.196 0 0)
(153.958 0 0)
(154.72 0 0)
(155.482 0 0)
(156.243 0 0)
(157.005 0 0)
(157.766 0 0)
(158.528 0 0)
(159.289 0 0)
(160.05 0 0)
(160.811 0 0)
(161.572 0 0)
(162.333 0 0)
(163.094 0 0)
(163.855 0 0)
(164.616 0 0)
(165.376 0 0)
(166.136 0 0)
(166.897 0 0)
(167.657 0 0)
(168.416 0 0)
(169.176 0 0)
(169.936 0 0)
(170.696 0 0)
(171.455 0 0)
(172.214 0 0)
(172.973 0 0)
(173.732 0 0)
(174.49 0 0)
(175.248 0 0)
(176.006 0 0)
(176.764 0 0)
(177.522 0 0)
(178.278 0 0)
(179.035 0 0)
(179.791 0 0)
(180.547 0 0)
(181.302 0 0)
(182.057 0 0)
(182.812 0 0)
(183.565 0 0)
(184.318 0 0)
(185.07 0 0)
(185.821 0 0)
(186.571 0 0)
(187.321 0 0)
(188.069 0 0)
(188.816 0 0)
(189.563 0 0)
(190.306 0 0)
(191.048 0 0)
(191.789 0 0)
(192.527 0 0)
(193.263 0 0)
(193.996 0 0)
(194.726 0 0)
(195.453 0 0)
(196.176 0 0)
(196.895 0 0)
(197.61 0 0)
(198.32 0 0)
(199.024 0 0)
(199.723 0 0)
(200.415 0 0)
(201.101 0 0)
(201.78 0 0)
(202.451 0 0)
(203.114 0 0)
(203.769 0 0)
(204.415 0 0)
(205.051 0 0)
(205.679 0 0)
(206.296 0 0)
(206.904 0 0)
(207.501 0 0)
(208.089 0 0)
(208.666 0 0)
(209.234 0 0)
(209.791 0 0)
(210.339 0 0)
(210.878 0 0)
(211.407 0 0)
(211.927 0 0)
(212.44 0 0)
(212.944 0 0)
(213.441 0 0)
(213.93 0 0)
(214.414 0 0)
(214.891 0 0)
(215.363 0 0)
(215.83 0 0)
(216.293 0 0)
(216.751 0 0)
(217.206 0 0)
(217.658 0 0)
(218.106 0 0)
(218.553 0 0)
(218.997 0 0)
(219.439 0 0)
(219.879 0 0)
(220.318 0 0)
(220.756 0 0)
(221.193 0 0)
(221.629 0 0)
(222.064 0 0)
(222.498 0 0)
(222.932 0 0)
(223.365 0 0)
(223.798 0 0)
(224.231 0 0)
(224.663 0 0)
(225.095 0 0)
(225.527 0 0)
(225.959 0 0)
(226.39 0 0)
(226.822 0 0)
(227.253 0 0)
(227.684 0 0)
(228.115 0 0)
(228.546 0 0)
(228.977 0 0)
(229.407 0 0)
(229.838 0 0)
(230.268 0 0)
(230.699 0 0)
(231.129 0 0)
(231.559 0 0)
(231.989 0 0)
(232.419 0 0)
(232.849 0 0)
(233.279 0 0)
(233.708 0 0)
(234.138 0 0)
(234.567 0 0)
(234.997 0 0)
(235.426 0 0)
(235.855 0 0)
(236.284 0 0)
(236.713 0 0)
(237.142 0 0)
(237.57 0 0)
(237.999 0 0)
(238.427 0 0)
(238.856 0 0)
(239.284 0 0)
(239.712 0 0)
(240.139 0 0)
(240.567 0 0)
(240.995 0 0)
(241.422 0 0)
(241.849 0 0)
(242.277 0 0)
(242.704 0 0)
(243.13 0 0)
(243.557 0 0)
(243.983 0 0)
(244.41 0 0)
(244.836 0 0)
(245.262 0 0)
(245.687 0 0)
(246.113 0 0)
(246.538 0 0)
(246.963 0 0)
(247.388 0 0)
(247.813 0 0)
(248.238 0 0)
(248.662 0 0)
(249.086 0 0)
(249.51 0 0)
(249.933 0 0)
(250.357 0 0)
(250.78 0 0)
(251.202 0 0)
(251.625 0 0)
(252.047 0 0)
(252.469 0 0)
(252.891 0 0)
(253.312 0 0)
(253.733 0 0)
(254.154 0 0)
(254.575 0 0)
(254.995 0 0)
(255.415 0 0)
(255.834 0 0)
(256.253 0 0)
(256.672 0 0)
(257.09 0 0)
(257.508 0 0)
(257.926 0 0)
(258.343 0 0)
(258.76 0 0)
(259.176 0 0)
(259.592 0 0)
(260.007 0 0)
(260.422 0 0)
(260.836 0 0)
(261.25 0 0)
(261.663 0 0)
(262.076 0 0)
(262.488 0 0)
(262.9 0 0)
(263.311 0 0)
(263.722 0 0)
(264.131 0 0)
(264.54 0 0)
(264.949 0 0)
(265.357 0 0)
(265.764 0 0)
(266.17 0 0)
(266.576 0 0)
(266.98 0 0)
(267.384 0 0)
(267.787 0 0)
(268.189 0 0)
(268.591 0 0)
(268.991 0 0)
(269.39 0 0)
(269.789 0 0)
(270.186 0 0)
(270.582 0 0)
(270.977 0 0)
(271.371 0 0)
(271.764 0 0)
(272.155 0 0)
(272.545 0 0)
(272.934 0 0)
(273.322 0 0)
(273.708 0 0)
(274.092 0 0)
(274.475 0 0)
(274.857 0 0)
(275.236 0 0)
(275.614 0 0)
(275.99 0 0)
(276.365 0 0)
(276.737 0 0)
(277.108 0 0)
(277.476 0 0)
(277.842 0 0)
(278.206 0 0)
(278.568 0 0)
(278.927 0 0)
(279.284 0 0)
(279.638 0 0)
(279.989 0 0)
(280.338 0 0)
(280.684 0 0)
(281.027 0 0)
(281.366 0 0)
(281.703 0 0)
(282.036 0 0)
(282.366 0 0)
(282.692 0 0)
(283.015 0 0)
(283.334 0 0)
(283.648 0 0)
(283.959 0 0)
(284.265 0 0)
(284.568 0 0)
(284.865 0 0)
(285.158 0 0)
(285.446 0 0)
(285.73 0 0)
(286.008 0 0)
(286.281 0 0)
(286.549 0 0)
(286.811 0 0)
(287.067 0 0)
(287.318 0 0)
(287.563 0 0)
(287.802 0 0)
(288.034 0 0)
(288.26 0 0)
(288.48 0 0)
(288.694 0 0)
(288.9 0 0)
(289.1 0 0)
(289.294 0 0)
(289.48 0 0)
(289.659 0 0)
(289.832 0 0)
(289.997 0 0)
(290.156 0 0)
(290.308 0 0)
(290.452 0 0)
(290.59 0 0)
(290.72 0 0)
(290.844 0 0)
(290.961 0 0)
(291.072 0 0)
(291.176 0 0)
(291.273 0 0)
(291.364 0 0)
(291.449 0 0)
(291.529 0 0)
(291.602 0 0)
(291.67 0 0)
(291.733 0 0)
(291.791 0 0)
(291.843 0 0)
(291.892 0 0)
(291.935 0 0)
(291.975 0 0)
(292.011 0 0)
(292.043 0 0)
(292.072 0 0)
(292.097 0 0)
(292.12 0 0)
(292.14 0 0)
(292.157 0 0)
(292.173 0 0)
(292.186 0 0)
(292.197 0 0)
(292.207 0 0)
(292.214 0 0)
(292.221 0 0)
(292.227 0 0)
(292.231 0 0)
(292.235 0 0)
(292.238 0 0)
(292.24 0 0)
(292.241 0 0)
(292.242 0 0)
(292.243 0 0)
(292.244 0 0)
(292.244 0 0)
(292.244 0 0)
(292.244 0 0)
(292.243 0 0)
(292.243 0 0)
(292.242 0 0)
(292.242 0 0)
(292.241 0 0)
(292.24 0 0)
(292.24 0 0)
(292.239 0 0)
(292.238 0 0)
(292.237 0 0)
(292.236 0 0)
(292.236 0 0)
(292.235 0 0)
(292.234 0 0)
(292.234 0 0)
(292.234 0 0)
(292.233 0 0)
(292.231 0 0)
(292.23 0 0)
(292.229 0 0)
(292.228 0 0)
(292.226 0 0)
(292.225 0 0)
(292.224 0 0)
(292.223 0 0)
(292.223 0 0)
(292.222 0 0)
(292.222 0 0)
(292.222 0 0)
(292.221 0 0)
(292.22 0 0)
(292.219 0 0)
(292.217 0 0)
(292.216 0 0)
(292.215 0 0)
(292.214 0 0)
(292.212 0 0)
(292.211 0 0)
(292.211 0 0)
(292.211 0 0)
(292.211 0 0)
(292.212 0 0)
(292.212 0 0)
(292.212 0 0)
(292.211 0 0)
(292.21 0 0)
(292.209 0 0)
(292.208 0 0)
(292.207 0 0)
(292.206 0 0)
(292.205 0 0)
(292.205 0 0)
(292.204 0 0)
(292.204 0 0)
(292.203 0 0)
(292.203 0 0)
(292.202 0 0)
(292.202 0 0)
(292.202 0 0)
(292.202 0 0)
(292.201 0 0)
(292.201 0 0)
(292.201 0 0)
(292.2 0 0)
(292.2 0 0)
(292.2 0 0)
(292.2 0 0)
(292.199 0 0)
(292.199 0 0)
(292.199 0 0)
(292.198 0 0)
(292.198 0 0)
(292.198 0 0)
(292.198 0 0)
(292.198 0 0)
(292.197 0 0)
(292.197 0 0)
(292.197 0 0)
(292.197 0 0)
(292.197 0 0)
(292.197 0 0)
(292.197 0 0)
(292.197 0 0)
(292.196 0 0)
(292.196 0 0)
(292.196 0 0)
(292.196 0 0)
(292.196 0 0)
(292.196 0 0)
(292.196 0 0)
(292.196 0 0)
(292.196 0 0)
(292.196 0 0)
(292.196 0 0)
(292.196 0 0)
(292.196 0 0)
(292.196 0 0)
(292.196 0 0)
(292.196 0 0)
(292.196 0 0)
(292.196 0 0)
(292.196 0 0)
(292.196 0 0)
(292.196 0 0)
(292.196 0 0)
(292.196 0 0)
(292.196 0 0)
(292.196 0 0)
(292.196 0 0)
(292.196 0 0)
(292.196 0 0)
(292.196 0 0)
(292.196 0 0)
(292.196 0 0)
(292.196 0 0)
(292.196 0 0)
(292.196 0 0)
(292.196 0 0)
(292.196 0 0)
(292.196 0 0)
(292.196 0 0)
(292.196 0 0)
(292.196 0 0)
(292.196 0 0)
(292.196 0 0)
(292.196 0 0)
(292.196 0 0)
(292.196 0 0)
(292.196 0 0)
(292.196 0 0)
(292.196 0 0)
(292.196 0 0)
(292.196 0 0)
(292.196 0 0)
(292.196 0 0)
(292.196 0 0)
(292.196 0 0)
(292.196 0 0)
(292.196 0 0)
(292.196 0 0)
(292.196 0 0)
(292.196 0 0)
(292.196 0 0)
(292.196 0 0)
(292.196 0 0)
(292.196 0 0)
(292.196 0 0)
(292.196 0 0)
(292.196 0 0)
(292.196 0 0)
(292.196 0 0)
(292.196 0 0)
(292.196 0 0)
(292.196 0 0)
(292.196 0 0)
(292.196 0 0)
(292.196 0 0)
(292.196 0 0)
(292.196 0 0)
(292.196 0 0)
(292.196 0 0)
(292.196 0 0)
(292.196 0 0)
(292.196 0 0)
(292.196 0 0)
(292.196 0 0)
(292.196 0 0)
(292.196 0 0)
(292.196 0 0)
(292.196 0 0)
(292.196 0 0)
(292.196 0 0)
(292.196 0 0)
(292.196 0 0)
(292.196 0 0)
(292.196 0 0)
(292.196 0 0)
(292.196 0 0)
(292.196 0 0)
(292.195 0 0)
(292.195 0 0)
(292.195 0 0)
(292.196 0 0)
(292.196 0 0)
(292.195 0 0)
(292.195 0 0)
(292.196 0 0)
(292.196 0 0)
(292.196 0 0)
(292.196 0 0)
(292.195 0 0)
(292.196 0 0)
(292.196 0 0)
(292.196 0 0)
(292.196 0 0)
(292.196 0 0)
(292.196 0 0)
(292.196 0 0)
(292.196 0 0)
(292.197 0 0)
(292.196 0 0)
(292.196 0 0)
(292.196 0 0)
(292.196 0 0)
(292.196 0 0)
(292.196 0 0)
(292.195 0 0)
(292.195 0 0)
(292.195 0 0)
(292.195 0 0)
(292.195 0 0)
(292.195 0 0)
(292.195 0 0)
(292.195 0 0)
(292.195 0 0)
(292.195 0 0)
(292.195 0 0)
(292.195 0 0)
(292.195 0 0)
(292.195 0 0)
(292.195 0 0)
(292.195 0 0)
(292.195 0 0)
(292.195 0 0)
(292.195 0 0)
(292.195 0 0)
(292.195 0 0)
(292.195 0 0)
(292.195 0 0)
(292.195 0 0)
(292.195 0 0)
(292.195 0 0)
(292.195 0 0)
(292.195 0 0)
(292.195 0 0)
(292.195 0 0)
(292.195 0 0)
(292.195 0 0)
(292.195 0 0)
(292.195 0 0)
(292.195 0 0)
(292.195 0 0)
(292.195 0 0)
(292.195 0 0)
(292.195 0 0)
(292.195 0 0)
(292.195 0 0)
(292.195 0 0)
(292.195 0 0)
(292.195 0 0)
(292.195 0 0)
(292.195 0 0)
(292.195 0 0)
(292.195 0 0)
(292.195 0 0)
(292.195 0 0)
(292.195 0 0)
(292.195 0 0)
(292.195 0 0)
(292.195 0 0)
(292.195 0 0)
(292.195 0 0)
(292.195 0 0)
(292.195 0 0)
(292.195 0 0)
(292.195 0 0)
(292.195 0 0)
(292.195 0 0)
(292.195 0 0)
(292.195 0 0)
(292.195 0 0)
(292.195 0 0)
(292.195 0 0)
(292.195 0 0)
(292.195 0 0)
(292.195 0 0)
(292.195 0 0)
(292.195 0 0)
(292.195 0 0)
(292.195 0 0)
(292.195 0 0)
(292.195 0 0)
(292.195 0 0)
(292.195 0 0)
(292.195 0 0)
(292.195 0 0)
(292.195 0 0)
(292.195 0 0)
(292.195 0 0)
(292.196 0 0)
(292.196 0 0)
(292.196 0 0)
(292.196 0 0)
(292.196 0 0)
(292.196 0 0)
(292.196 0 0)
(292.196 0 0)
(292.196 0 0)
(292.196 0 0)
(292.196 0 0)
(292.196 0 0)
(292.196 0 0)
(292.196 0 0)
(292.196 0 0)
(292.196 0 0)
(292.196 0 0)
(292.196 0 0)
(292.195 0 0)
(292.195 0 0)
(292.196 0 0)
(292.195 0 0)
(292.195 0 0)
(292.195 0 0)
(292.195 0 0)
(292.195 0 0)
(292.195 0 0)
(292.195 0 0)
(292.195 0 0)
(292.194 0 0)
(292.194 0 0)
(292.194 0 0)
(292.194 0 0)
(292.193 0 0)
(292.193 0 0)
(292.193 0 0)
(292.193 0 0)
(292.192 0 0)
(292.192 0 0)
(292.191 0 0)
(292.19 0 0)
(292.19 0 0)
(292.189 0 0)
(292.187 0 0)
(292.186 0 0)
(292.186 0 0)
(292.184 0 0)
(292.182 0 0)
(292.181 0 0)
(292.178 0 0)
(292.174 0 0)
(292.172 0 0)
(292.171 0 0)
(292.166 0 0)
(292.161 0 0)
(292.158 0 0)
(292.155 0 0)
(292.148 0 0)
(292.141 0 0)
(292.138 0 0)
(292.132 0 0)
(292.121 0 0)
(292.116 0 0)
(292.111 0 0)
(292.099 0 0)
(292.089 0 0)
(292.075 0 0)
(292.059 0 0)
(292.049 0 0)
(292.031 0 0)
(292.008 0 0)
(291.994 0 0)
(291.976 0 0)
(291.947 0 0)
(291.929 0 0)
(291.907 0 0)
(291.865 0 0)
(291.838 0 0)
(291.814 0 0)
(291.769 0 0)
(291.732 0 0)
(291.707 0 0)
(291.651 0 0)
(291.592 0 0)
(291.566 0 0)
(291.516 0 0)
(291.436 0 0)
(291.389 0 0)
(291.343 0 0)
(291.251 0 0)
(291.178 0 0)
(291.135 0 0)
(291.042 0 0)
(290.933 0 0)
(290.886 0 0)
(290.812 0 0)
(290.681 0 0)
(290.599 0 0)
(290.551 0 0)
(290.421 0 0)
(290.288 0 0)
(290.238 0 0)
(290.135 0 0)
(289.963 0 0)
(289.872 0 0)
(289.814 0 0)
(289.638 0 0)
(289.485 0 0)
(289.425 0 0)
(289.297 0 0)
(289.104 0 0)
(289.002 0 0)
(288.915 0 0)
(288.715 0 0)
(288.571 0 0)
(288.521 0 0)
(288.388 0 0)
(288.186 0 0)
(288.093 0 0)
(288.045 0 0)
(287.866 0 0)
(287.702 0 0)
(287.663 0 0)
(287.56 0 0)
(287.377 0 0)
(287.282 0 0)
(287.242 0 0)
(287.111 0 0)
(286.96 0 0)
(286.915 0 0)
(286.856 0 0)
(286.712 0 0)
(286.62 0 0)
(286.591 0 0)
(286.509 0 0)
(286.391 0 0)
(286.346 0 0)
(286.328 0 0)
(286.235 0 0)
(286.158 0 0)
(286.137 0 0)
(286.09 0 0)
(286.016 0 0)
(285.981 0 0)
(285.953 0 0)
(285.893 0 0)
(285.857 0 0)
(285.839 0 0)
(285.793 0 0)
(285.75 0 0)
(285.734 0 0)
(285.708 0 0)
(285.672 0 0)
(285.654 0 0)
(285.643 0 0)
(285.616 0 0)
(285.596 0 0)
(285.59 0 0)
(285.578 0 0)
(285.557 0 0)
(285.548 0 0)
(285.546 0 0)
(285.534 0 0)
(285.522 0 0)
(285.52 0 0)
(285.516 0 0)
(285.508 0 0)
(285.505 0 0)
(285.503 0 0)
(285.498 0 0)
(285.495 0 0)
(285.496 0 0)
(285.495 0 0)
(285.493 0 0)
(285.495 0 0)
(285.498 0 0)
(285.498 0 0)
(285.496 0 0)
(285.5 0 0)
(285.503 0 0)
(285.502 0 0)
(285.505 0 0)
(285.509 0 0)
(285.51 0 0)
(285.512 0 0)
(285.517 0 0)
(285.521 0 0)
(285.52 0 0)
(285.523 0 0)
(285.529 0 0)
(285.531 0 0)
)
;

boundaryField
{
    sides
    {
        type            zeroGradient;
    }
    empty
    {
        type            empty;
    }
}


// ************************************************************************* //
