/*--------------------------------*- C++ -*----------------------------------*\
  =========                 |
  \\      /  F ield         | OpenFOAM: The Open Source CFD Toolbox
   \\    /   O peration     | Website:  https://openfoam.org
    \\  /    A nd           | Version:  9
     \\/     M anipulation  |
\*---------------------------------------------------------------------------*/
FoamFile
{
    format      ascii;
    class       volScalarField;
    location    "0.013";
    object      mag(U);
}
// * * * * * * * * * * * * * * * * * * * * * * * * * * * * * * * * * * * * * //

dimensions      [0 1 -1 0 0 0 0];

internalField   nonuniform List<scalar> 
1000
(
0.560957
1.24809
1.60955
2.04363
2.47502
2.90771
3.34228
3.77888
4.21769
4.65889
5.10265
5.54917
5.99861
6.45116
6.90698
7.36623
7.82906
8.29561
8.76601
9.24034
9.71871
10.2012
10.6878
11.1786
11.6736
12.1728
12.6762
13.1838
13.6954
14.2111
14.7307
15.2542
15.7815
16.3125
16.8471
17.3852
17.9267
18.4714
19.0193
19.5703
20.1242
20.6809
21.2404
21.8025
22.3672
22.9342
23.5036
24.0753
24.6491
25.225
25.803
26.3828
26.9645
27.548
28.1332
28.72
29.3085
29.8984
30.4899
31.0828
31.677
32.2726
32.8694
33.4675
34.0667
34.6671
35.2687
35.8712
36.4749
37.0795
37.685
38.2915
38.899
39.5072
40.1163
40.7263
41.337
41.9485
42.5607
43.1736
43.7873
44.4015
45.0165
45.632
46.2482
46.865
47.4823
48.1002
48.7186
49.3376
49.957
50.5769
51.1973
51.8182
52.4395
53.0613
53.6834
54.306
54.929
55.5523
56.1761
56.8002
57.4246
58.0494
58.6745
59.3
59.9258
60.5518
61.1782
61.8049
62.4318
63.059
63.6865
64.3143
64.9423
65.5706
66.1991
66.8278
67.4568
68.086
68.7154
69.345
69.9748
70.6048
71.2351
71.8655
72.4961
73.1269
73.7579
74.389
75.0203
75.6518
76.2835
76.9153
77.5472
78.1793
78.8116
79.444
80.0765
80.7092
81.342
81.975
82.6081
83.2413
83.8746
84.508
85.1416
85.7753
86.4091
87.043
87.677
88.3111
88.9453
89.5796
90.214
90.8485
91.4831
92.1178
92.7526
93.3875
94.0224
94.6575
95.2926
95.9278
96.5631
97.1984
97.8339
98.4694
99.1049
99.7406
100.376
101.012
101.648
102.284
102.92
103.556
104.192
104.828
105.464
106.1
106.737
107.373
108.01
108.646
109.283
109.919
110.556
111.192
111.829
112.466
113.103
113.739
114.376
115.013
115.65
116.287
116.924
117.561
118.198
118.835
119.472
120.11
120.747
121.384
122.021
122.659
123.296
123.933
124.571
125.208
125.846
126.483
127.12
127.758
128.395
129.033
129.67
130.308
130.946
131.583
132.221
132.858
133.496
134.134
134.771
135.409
136.047
136.684
137.322
137.96
138.598
139.235
139.873
140.511
141.148
141.786
142.424
143.062
143.699
144.337
144.975
145.613
146.251
146.888
147.526
148.164
148.802
149.439
150.077
150.715
151.353
151.99
152.628
153.266
153.904
154.541
155.179
155.817
156.454
157.092
157.73
158.367
159.005
159.643
160.28
160.918
161.555
162.193
162.83
163.468
164.106
164.743
165.38
166.018
166.655
167.293
167.93
168.568
169.205
169.842
170.48
171.117
171.754
172.391
173.028
173.666
174.303
174.94
175.577
176.214
176.851
177.488
178.125
178.762
179.399
180.035
180.672
181.309
181.946
182.582
183.219
183.855
184.492
185.128
185.765
186.401
187.038
187.674
188.31
188.946
189.583
190.219
190.855
191.491
192.127
192.762
193.398
194.034
194.67
195.305
195.941
196.576
197.212
197.847
198.482
199.117
199.753
200.388
201.023
201.657
202.292
202.927
203.562
204.196
204.831
205.465
206.099
206.733
207.367
208.001
208.635
209.269
209.903
210.536
211.17
211.803
212.436
213.069
213.702
214.335
214.967
215.6
216.232
216.865
217.497
218.129
218.761
219.392
220.024
220.655
221.286
221.917
222.548
223.179
223.809
224.44
225.07
225.699
226.329
226.959
227.588
228.217
228.846
229.474
230.103
230.731
231.358
231.986
232.613
233.24
233.867
234.493
235.119
235.745
236.371
236.996
237.62
238.245
238.869
239.493
240.116
240.739
241.361
241.983
242.605
243.226
243.847
244.467
245.087
245.706
246.324
246.942
247.56
248.177
248.793
249.409
250.024
250.638
251.252
251.865
252.477
253.088
253.699
254.308
254.917
255.525
256.132
256.738
257.343
257.946
258.549
259.151
259.751
260.35
260.948
261.545
262.14
262.733
263.325
263.916
264.505
265.092
265.677
266.261
266.842
267.422
267.999
268.574
269.147
269.717
270.285
270.85
271.413
271.973
272.529
273.082
273.633
274.179
274.722
275.262
275.797
276.328
276.855
277.378
277.896
278.409
278.917
279.419
279.916
280.407
280.892
281.371
281.844
282.309
282.767
283.218
283.661
284.097
284.524
284.942
285.352
285.752
286.143
286.524
286.895
287.256
287.606
287.946
288.274
288.591
288.897
289.191
289.473
289.743
290.001
290.247
290.481
290.703
290.913
291.11
291.296
291.471
291.634
291.786
291.927
292.057
292.177
292.288
292.389
292.481
292.565
292.641
292.709
292.771
292.826
292.875
292.918
292.956
292.99
293.019
293.045
293.067
293.087
293.103
293.118
293.13
293.14
293.149
293.156
293.163
293.168
293.172
293.176
293.179
293.181
293.184
293.185
293.187
293.188
293.189
293.19
293.191
293.191
293.192
293.192
293.192
293.193
293.193
293.193
293.194
293.194
293.194
293.194
293.195
293.195
293.195
293.195
293.196
293.196
293.196
293.196
293.196
293.197
293.197
293.197
293.197
293.197
293.198
293.198
293.198
293.198
293.198
293.199
293.199
293.199
293.199
293.199
293.199
293.2
293.2
293.2
293.2
293.2
293.2
293.2
293.2
293.2
293.2
293.201
293.201
293.201
293.201
293.201
293.201
293.201
293.201
293.201
293.201
293.201
293.201
293.2
293.2
293.2
293.2
293.2
293.2
293.2
293.2
293.2
293.2
293.2
293.2
293.199
293.199
293.199
293.199
293.199
293.199
293.199
293.199
293.199
293.199
293.199
293.199
293.199
293.199
293.199
293.199
293.199
293.199
293.199
293.199
293.199
293.199
293.199
293.199
293.199
293.199
293.199
293.199
293.199
293.199
293.199
293.199
293.2
293.2
293.2
293.2
293.2
293.2
293.2
293.2
293.2
293.2
293.2
293.2
293.2
293.2
293.2
293.2
293.2
293.2
293.2
293.2
293.2
293.2
293.2
293.2
293.2
293.2
293.2
293.2
293.2
293.2
293.2
293.2
293.2
293.2
293.2
293.2
293.2
293.2
293.2
293.2
293.2
293.2
293.2
293.2
293.2
293.2
293.2
293.2
293.2
293.2
293.2
293.2
293.201
293.201
293.201
293.201
293.201
293.201
293.201
293.201
293.201
293.201
293.201
293.201
293.201
293.201
293.201
293.201
293.201
293.201
293.201
293.201
293.201
293.201
293.201
293.201
293.201
293.201
293.201
293.201
293.201
293.201
293.201
293.201
293.201
293.201
293.201
293.201
293.201
293.201
293.201
293.201
293.201
293.201
293.201
293.201
293.201
293.201
293.201
293.201
293.201
293.201
293.201
293.201
293.201
293.201
293.201
293.201
293.201
293.201
293.201
293.201
293.201
293.201
293.201
293.201
293.201
293.201
293.201
293.201
293.201
293.201
293.201
293.201
293.201
293.201
293.201
293.201
293.201
293.201
293.201
293.201
293.201
293.201
293.201
293.201
293.201
293.201
293.201
293.201
293.201
293.201
293.201
293.201
293.201
293.201
293.201
293.201
293.201
293.201
293.201
293.201
293.201
293.201
293.201
293.201
293.201
293.201
293.201
293.201
293.201
293.201
293.201
293.201
293.201
293.201
293.201
293.201
293.201
293.201
293.201
293.201
293.201
293.201
293.201
293.201
293.201
293.201
293.201
293.201
293.201
293.201
293.201
293.201
293.201
293.201
293.201
293.201
293.201
293.201
293.201
293.201
293.201
293.201
293.201
293.201
293.201
293.201
293.201
293.201
293.201
293.201
293.201
293.201
293.201
293.201
293.201
293.201
293.201
293.201
293.201
293.201
293.201
293.201
293.201
293.201
293.201
293.201
293.201
293.201
293.201
293.201
293.201
293.201
293.201
293.201
293.2
293.2
293.2
293.199
293.199
293.198
293.197
293.196
293.194
293.193
293.191
293.189
293.188
293.186
293.184
293.182
293.181
293.18
293.179
293.179
293.179
293.179
293.18
293.181
293.182
293.183
293.185
293.187
293.188
293.19
293.191
293.193
293.194
293.195
293.196
293.197
293.198
293.198
293.199
293.199
293.2
293.2
293.2
293.2
293.2
293.2
293.2
293.2
293.2
293.2
293.2
293.2
293.2
293.2
293.2
293.2
293.2
293.2
293.2
293.2
293.2
293.2
293.2
293.2
293.2
293.2
293.2
293.2
293.2
293.2
293.2
293.199
293.199
293.198
293.196
293.194
293.191
293.186
293.18
293.172
293.162
293.148
293.131
293.11
293.084
293.052
293.015
292.97
292.919
292.86
292.793
292.719
292.638
292.55
292.456
292.357
292.254
292.149
292.043
291.938
291.835
291.736
291.641
291.553
291.471
291.397
291.33
291.272
291.221
291.178
291.141
291.111
291.087
291.068
291.052
291.041
291.032
291.026
291.021
291.018
291.016
291.014
291.013
291.013
291.012
291.012
291.012
291.012
291.012
291.012
291.012
291.012
291.012
291.012
291.012
291.012
291.012
291.012
291.012
291.012
)
;

boundaryField
{
    sides
    {
        type            calculated;
        value           nonuniform List<scalar> 2(291.012 0.560957);
    }
    empty
    {
        type            empty;
    }
}


// ************************************************************************* //
