/*--------------------------------*- C++ -*----------------------------------*\
  =========                 |
  \\      /  F ield         | OpenFOAM: The Open Source CFD Toolbox
   \\    /   O peration     | Website:  https://openfoam.org
    \\  /    A nd           | Version:  9
     \\/     M anipulation  |
\*---------------------------------------------------------------------------*/
FoamFile
{
    format      ascii;
    class       volScalarField;
    location    "0.013";
    object      T;
}
// * * * * * * * * * * * * * * * * * * * * * * * * * * * * * * * * * * * * * //

dimensions      [0 0 0 1 0 0 0];

internalField   nonuniform List<scalar> 
1000
(
346.701
346.674
346.641
346.599
346.548
346.488
346.42
346.343
346.257
346.164
346.064
345.956
345.841
345.719
345.592
345.458
345.319
345.174
345.025
344.871
344.713
344.55
344.384
344.214
344.042
343.865
343.687
343.505
343.321
343.135
342.946
342.756
342.563
342.369
342.174
341.976
341.778
341.577
341.376
341.174
340.97
340.765
340.559
340.352
340.145
339.936
339.727
339.517
339.306
339.094
338.882
338.669
338.455
338.241
338.026
337.811
337.595
337.379
337.162
336.945
336.727
336.509
336.29
336.071
335.852
335.633
335.413
335.193
334.972
334.751
334.53
334.309
334.087
333.865
333.643
333.421
333.198
332.976
332.753
332.529
332.306
332.083
331.859
331.635
331.411
331.187
330.963
330.739
330.514
330.29
330.065
329.84
329.615
329.39
329.165
328.94
328.715
328.49
328.265
328.039
327.814
327.588
327.363
327.137
326.911
326.686
326.46
326.234
326.008
325.782
325.557
325.331
325.105
324.879
324.653
324.427
324.201
323.975
323.749
323.523
323.297
323.071
322.845
322.62
322.394
322.168
321.942
321.716
321.49
321.264
321.038
320.812
320.587
320.361
320.135
319.909
319.684
319.458
319.232
319.007
318.781
318.555
318.33
318.104
317.879
317.654
317.428
317.203
316.977
316.752
316.527
316.302
316.077
315.852
315.626
315.401
315.176
314.952
314.727
314.502
314.277
314.052
313.828
313.603
313.379
313.154
312.93
312.705
312.481
312.257
312.032
311.808
311.584
311.36
311.136
310.912
310.688
310.464
310.24
310.017
309.793
309.57
309.346
309.123
308.899
308.676
308.453
308.229
308.006
307.783
307.56
307.337
307.114
306.891
306.669
306.446
306.223
306.001
305.778
305.556
305.334
305.111
304.889
304.667
304.445
304.223
304.001
303.779
303.558
303.336
303.114
302.893
302.671
302.45
302.228
302.007
301.786
301.565
301.344
301.123
300.902
300.681
300.46
300.24
300.019
299.799
299.578
299.358
299.138
298.917
298.697
298.477
298.257
298.037
297.818
297.598
297.378
297.159
296.939
296.72
296.501
296.281
296.062
295.843
295.624
295.405
295.186
294.967
294.749
294.53
294.312
294.093
293.875
293.657
293.438
293.22
293.002
292.784
292.567
292.349
292.131
291.913
291.696
291.478
291.261
291.044
290.827
290.609
290.394
290.174
289.962
289.738
289.531
289.301
289.103
288.863
288.677
288.422
288.253
287.983
287.827
287.548
287.395
287.12
286.957
286.699
286.514
286.281
286.071
285.86
285.636
285.431
285.208
284.998
284.783
284.566
284.355
284.137
283.925
283.71
283.495
283.282
283.068
282.854
282.641
282.427
282.213
282
281.786
281.573
281.36
281.147
280.934
280.721
280.509
280.296
280.084
279.871
279.659
279.446
279.234
279.022
278.81
278.599
278.387
278.175
277.964
277.752
277.541
277.33
277.119
276.908
276.697
276.486
276.276
276.065
275.855
275.644
275.434
275.224
275.014
274.804
274.594
274.385
274.175
273.966
273.757
273.548
273.339
273.13
272.921
272.712
272.504
272.295
272.087
271.879
271.671
271.463
271.255
271.048
270.84
270.633
270.426
270.218
270.012
269.805
269.598
269.392
269.185
268.979
268.773
268.567
268.361
268.156
267.95
267.745
267.54
267.335
267.13
266.926
266.721
266.517
266.313
266.109
265.905
265.702
265.498
265.295
265.092
264.89
264.687
264.485
264.283
264.081
263.879
263.678
263.476
263.275
263.075
262.874
262.674
262.474
262.274
262.075
261.876
261.677
261.478
261.28
261.082
260.884
260.687
260.49
260.293
260.097
259.901
259.705
259.51
259.315
259.121
258.927
258.733
258.54
258.347
258.155
257.963
257.772
257.581
257.391
257.202
257.013
256.824
256.637
256.45
256.263
256.077
255.892
255.708
255.525
255.342
255.16
254.979
254.799
254.62
254.442
254.265
254.089
253.914
253.741
253.568
253.397
253.227
253.059
252.892
252.726
252.562
252.4
252.239
252.081
251.924
251.768
251.615
251.464
251.315
251.169
251.024
250.882
250.743
250.606
250.472
250.34
250.212
250.086
249.964
249.844
249.728
249.615
249.506
249.4
249.297
249.199
249.103
249.012
248.924
248.84
248.76
248.684
248.612
248.543
248.478
248.417
248.36
248.306
248.256
248.21
248.167
248.127
248.09
248.057
248.026
247.998
247.972
247.95
247.929
247.911
247.894
247.88
247.867
247.855
247.845
247.837
247.829
247.823
247.817
247.813
247.809
247.805
247.803
247.8
247.798
247.797
247.796
247.794
247.794
247.793
247.793
247.792
247.792
247.792
247.792
247.792
247.792
247.792
247.792
247.792
247.793
247.793
247.793
247.793
247.794
247.794
247.794
247.794
247.795
247.795
247.795
247.795
247.796
247.796
247.796
247.797
247.797
247.797
247.797
247.798
247.798
247.798
247.799
247.799
247.799
247.8
247.8
247.8
247.801
247.801
247.801
247.802
247.802
247.802
247.803
247.803
247.803
247.804
247.804
247.804
247.805
247.805
247.806
247.806
247.806
247.807
247.807
247.808
247.808
247.808
247.809
247.809
247.81
247.81
247.811
247.811
247.812
247.812
247.813
247.813
247.814
247.814
247.815
247.815
247.816
247.816
247.817
247.817
247.818
247.818
247.819
247.819
247.82
247.82
247.821
247.821
247.822
247.822
247.823
247.824
247.824
247.825
247.825
247.826
247.826
247.827
247.827
247.828
247.829
247.829
247.83
247.83
247.831
247.831
247.832
247.833
247.833
247.834
247.834
247.835
247.836
247.836
247.837
247.838
247.838
247.839
247.84
247.84
247.841
247.842
247.842
247.843
247.844
247.844
247.845
247.846
247.846
247.847
247.848
247.849
247.849
247.85
247.851
247.852
247.852
247.853
247.854
247.855
247.856
247.856
247.857
247.858
247.859
247.86
247.86
247.861
247.862
247.863
247.864
247.865
247.866
247.867
247.867
247.868
247.869
247.87
247.871
247.872
247.873
247.874
247.875
247.876
247.877
247.878
247.879
247.88
247.881
247.882
247.883
247.884
247.885
247.887
247.888
247.889
247.89
247.891
247.892
247.893
247.895
247.896
247.897
247.898
247.9
247.901
247.902
247.903
247.905
247.906
247.907
247.909
247.91
247.911
247.913
247.914
247.916
247.917
247.919
247.92
247.921
247.923
247.925
247.926
247.928
247.929
247.931
247.933
247.934
247.936
247.938
247.939
247.941
247.943
247.945
247.946
247.948
247.95
247.952
247.954
247.956
247.958
247.96
247.962
247.964
247.966
247.968
247.971
247.973
247.975
247.977
247.98
247.982
247.984
247.987
247.989
247.992
247.994
247.997
247.999
248.002
248.005
248.008
248.01
248.013
248.016
248.019
248.022
248.025
248.028
248.032
248.035
248.038
248.041
248.045
248.048
248.052
248.056
248.059
248.063
248.067
248.071
248.075
248.079
248.083
248.087
248.092
248.096
248.101
248.106
248.11
248.115
248.12
248.125
248.131
248.136
248.141
248.147
248.153
248.159
248.165
248.171
248.178
248.184
248.191
248.198
248.205
248.212
248.22
248.228
248.236
248.244
248.253
248.262
248.271
248.28
248.29
248.3
248.31
248.321
248.332
248.344
248.356
248.369
248.382
248.395
248.409
248.424
248.439
248.455
248.472
248.49
248.508
248.528
248.548
248.57
248.593
248.618
248.644
248.672
248.7
248.731
248.762
248.794
248.828
248.863
248.9
248.941
248.988
249.044
249.115
249.208
249.33
249.493
249.708
249.991
250.359
250.829
251.422
252.159
253.062
254.153
255.454
256.987
258.77
260.822
263.158
265.791
268.728
271.974
275.528
279.386
283.537
287.964
292.645
297.553
302.656
307.915
313.289
318.734
324.203
329.649
335.024
340.283
345.385
350.29
354.966
359.387
363.53
367.381
370.931
374.179
377.126
379.781
382.154
384.261
386.117
387.743
389.156
390.378
391.427
392.322
393.082
393.723
394.262
394.711
395.084
395.392
395.645
395.852
396.021
396.158
396.269
396.358
396.43
396.487
396.533
396.569
396.598
396.621
396.639
396.654
396.665
396.674
396.681
396.687
396.692
396.696
396.699
396.702
396.704
396.706
396.708
396.71
396.713
396.715
396.719
396.723
396.727
396.733
396.741
396.75
396.761
396.774
396.79
396.808
396.829
396.853
396.88
396.91
396.943
396.979
397.017
397.056
397.097
397.139
397.182
397.224
397.265
397.304
397.342
397.377
397.409
397.438
397.464
397.487
397.507
397.524
397.538
397.55
397.56
397.567
397.573
397.578
397.581
397.584
397.586
397.587
397.588
397.589
397.589
397.589
397.59
397.59
397.59
397.59
397.59
397.59
397.59
397.59
397.59
397.591
397.591
397.591
397.591
397.591
397.591
397.591
)
;

boundaryField
{
    sides
    {
        type            zeroGradient;
    }
    empty
    {
        type            empty;
    }
}


// ************************************************************************* //
