/*--------------------------------*- C++ -*----------------------------------*\
  =========                 |
  \\      /  F ield         | OpenFOAM: The Open Source CFD Toolbox
   \\    /   O peration     | Website:  https://openfoam.org
    \\  /    A nd           | Version:  9
     \\/     M anipulation  |
\*---------------------------------------------------------------------------*/
FoamFile
{
    format      ascii;
    class       volVectorField;
    location    "0.013";
    object      U;
}
// * * * * * * * * * * * * * * * * * * * * * * * * * * * * * * * * * * * * * //

dimensions      [0 1 -1 0 0 0 0];

internalField   nonuniform List<vector> 
1000
(
(0.560957 0 0)
(1.24809 0 0)
(1.60955 0 0)
(2.04363 0 0)
(2.47502 0 0)
(2.90771 0 0)
(3.34228 0 0)
(3.77888 0 0)
(4.21769 0 0)
(4.65889 0 0)
(5.10265 0 0)
(5.54917 0 0)
(5.99861 0 0)
(6.45116 0 0)
(6.90698 0 0)
(7.36623 0 0)
(7.82906 0 0)
(8.29561 0 0)
(8.76601 0 0)
(9.24034 0 0)
(9.71871 0 0)
(10.2012 0 0)
(10.6878 0 0)
(11.1786 0 0)
(11.6736 0 0)
(12.1728 0 0)
(12.6762 0 0)
(13.1838 0 0)
(13.6954 0 0)
(14.2111 0 0)
(14.7307 0 0)
(15.2542 0 0)
(15.7815 0 0)
(16.3125 0 0)
(16.8471 0 0)
(17.3852 0 0)
(17.9267 0 0)
(18.4714 0 0)
(19.0193 0 0)
(19.5703 0 0)
(20.1242 0 0)
(20.6809 0 0)
(21.2404 0 0)
(21.8025 0 0)
(22.3672 0 0)
(22.9342 0 0)
(23.5036 0 0)
(24.0753 0 0)
(24.6491 0 0)
(25.225 0 0)
(25.803 0 0)
(26.3828 0 0)
(26.9645 0 0)
(27.548 0 0)
(28.1332 0 0)
(28.72 0 0)
(29.3085 0 0)
(29.8984 0 0)
(30.4899 0 0)
(31.0828 0 0)
(31.677 0 0)
(32.2726 0 0)
(32.8694 0 0)
(33.4675 0 0)
(34.0667 0 0)
(34.6671 0 0)
(35.2687 0 0)
(35.8712 0 0)
(36.4749 0 0)
(37.0795 0 0)
(37.685 0 0)
(38.2915 0 0)
(38.899 0 0)
(39.5072 0 0)
(40.1163 0 0)
(40.7263 0 0)
(41.337 0 0)
(41.9485 0 0)
(42.5607 0 0)
(43.1736 0 0)
(43.7873 0 0)
(44.4015 0 0)
(45.0165 0 0)
(45.632 0 0)
(46.2482 0 0)
(46.865 0 0)
(47.4823 0 0)
(48.1002 0 0)
(48.7186 0 0)
(49.3376 0 0)
(49.957 0 0)
(50.5769 0 0)
(51.1973 0 0)
(51.8182 0 0)
(52.4395 0 0)
(53.0613 0 0)
(53.6834 0 0)
(54.306 0 0)
(54.929 0 0)
(55.5523 0 0)
(56.1761 0 0)
(56.8002 0 0)
(57.4246 0 0)
(58.0494 0 0)
(58.6745 0 0)
(59.3 0 0)
(59.9258 0 0)
(60.5518 0 0)
(61.1782 0 0)
(61.8049 0 0)
(62.4318 0 0)
(63.059 0 0)
(63.6865 0 0)
(64.3143 0 0)
(64.9423 0 0)
(65.5706 0 0)
(66.1991 0 0)
(66.8278 0 0)
(67.4568 0 0)
(68.086 0 0)
(68.7154 0 0)
(69.345 0 0)
(69.9748 0 0)
(70.6048 0 0)
(71.2351 0 0)
(71.8655 0 0)
(72.4961 0 0)
(73.1269 0 0)
(73.7579 0 0)
(74.389 0 0)
(75.0203 0 0)
(75.6518 0 0)
(76.2835 0 0)
(76.9153 0 0)
(77.5472 0 0)
(78.1793 0 0)
(78.8116 0 0)
(79.444 0 0)
(80.0765 0 0)
(80.7092 0 0)
(81.342 0 0)
(81.975 0 0)
(82.6081 0 0)
(83.2413 0 0)
(83.8746 0 0)
(84.508 0 0)
(85.1416 0 0)
(85.7753 0 0)
(86.4091 0 0)
(87.043 0 0)
(87.677 0 0)
(88.3111 0 0)
(88.9453 0 0)
(89.5796 0 0)
(90.214 0 0)
(90.8485 0 0)
(91.4831 0 0)
(92.1178 0 0)
(92.7526 0 0)
(93.3875 0 0)
(94.0224 0 0)
(94.6575 0 0)
(95.2926 0 0)
(95.9278 0 0)
(96.5631 0 0)
(97.1984 0 0)
(97.8339 0 0)
(98.4694 0 0)
(99.1049 0 0)
(99.7406 0 0)
(100.376 0 0)
(101.012 0 0)
(101.648 0 0)
(102.284 0 0)
(102.92 0 0)
(103.556 0 0)
(104.192 0 0)
(104.828 0 0)
(105.464 0 0)
(106.1 0 0)
(106.737 0 0)
(107.373 0 0)
(108.01 0 0)
(108.646 0 0)
(109.283 0 0)
(109.919 0 0)
(110.556 0 0)
(111.192 0 0)
(111.829 0 0)
(112.466 0 0)
(113.103 0 0)
(113.739 0 0)
(114.376 0 0)
(115.013 0 0)
(115.65 0 0)
(116.287 0 0)
(116.924 0 0)
(117.561 0 0)
(118.198 0 0)
(118.835 0 0)
(119.472 0 0)
(120.11 0 0)
(120.747 0 0)
(121.384 0 0)
(122.021 0 0)
(122.659 0 0)
(123.296 0 0)
(123.933 0 0)
(124.571 0 0)
(125.208 0 0)
(125.846 0 0)
(126.483 0 0)
(127.12 0 0)
(127.758 0 0)
(128.395 0 0)
(129.033 0 0)
(129.67 0 0)
(130.308 0 0)
(130.946 0 0)
(131.583 0 0)
(132.221 0 0)
(132.858 0 0)
(133.496 0 0)
(134.134 0 0)
(134.771 0 0)
(135.409 0 0)
(136.047 0 0)
(136.684 0 0)
(137.322 0 0)
(137.96 0 0)
(138.598 0 0)
(139.235 0 0)
(139.873 0 0)
(140.511 0 0)
(141.148 0 0)
(141.786 0 0)
(142.424 0 0)
(143.062 0 0)
(143.699 0 0)
(144.337 0 0)
(144.975 0 0)
(145.613 0 0)
(146.251 0 0)
(146.888 0 0)
(147.526 0 0)
(148.164 0 0)
(148.802 0 0)
(149.439 0 0)
(150.077 0 0)
(150.715 0 0)
(151.353 0 0)
(151.99 0 0)
(152.628 0 0)
(153.266 0 0)
(153.904 0 0)
(154.541 0 0)
(155.179 0 0)
(155.817 0 0)
(156.454 0 0)
(157.092 0 0)
(157.73 0 0)
(158.367 0 0)
(159.005 0 0)
(159.643 0 0)
(160.28 0 0)
(160.918 0 0)
(161.555 0 0)
(162.193 0 0)
(162.83 0 0)
(163.468 0 0)
(164.106 0 0)
(164.743 0 0)
(165.38 0 0)
(166.018 0 0)
(166.655 0 0)
(167.293 0 0)
(167.93 0 0)
(168.568 0 0)
(169.205 0 0)
(169.842 0 0)
(170.48 0 0)
(171.117 0 0)
(171.754 0 0)
(172.391 0 0)
(173.028 0 0)
(173.666 0 0)
(174.303 0 0)
(174.94 0 0)
(175.577 0 0)
(176.214 0 0)
(176.851 0 0)
(177.488 0 0)
(178.125 0 0)
(178.762 0 0)
(179.399 0 0)
(180.035 0 0)
(180.672 0 0)
(181.309 0 0)
(181.946 0 0)
(182.582 0 0)
(183.219 0 0)
(183.855 0 0)
(184.492 0 0)
(185.128 0 0)
(185.765 0 0)
(186.401 0 0)
(187.038 0 0)
(187.674 0 0)
(188.31 0 0)
(188.946 0 0)
(189.583 0 0)
(190.219 0 0)
(190.855 0 0)
(191.491 0 0)
(192.127 0 0)
(192.762 0 0)
(193.398 0 0)
(194.034 0 0)
(194.67 0 0)
(195.305 0 0)
(195.941 0 0)
(196.576 0 0)
(197.212 0 0)
(197.847 0 0)
(198.482 0 0)
(199.117 0 0)
(199.753 0 0)
(200.388 0 0)
(201.023 0 0)
(201.657 0 0)
(202.292 0 0)
(202.927 0 0)
(203.562 0 0)
(204.196 0 0)
(204.831 0 0)
(205.465 0 0)
(206.099 0 0)
(206.733 0 0)
(207.367 0 0)
(208.001 0 0)
(208.635 0 0)
(209.269 0 0)
(209.903 0 0)
(210.536 0 0)
(211.17 0 0)
(211.803 0 0)
(212.436 0 0)
(213.069 0 0)
(213.702 0 0)
(214.335 0 0)
(214.967 0 0)
(215.6 0 0)
(216.232 0 0)
(216.865 0 0)
(217.497 0 0)
(218.129 0 0)
(218.761 0 0)
(219.392 0 0)
(220.024 0 0)
(220.655 0 0)
(221.286 0 0)
(221.917 0 0)
(222.548 0 0)
(223.179 0 0)
(223.809 0 0)
(224.44 0 0)
(225.07 0 0)
(225.699 0 0)
(226.329 0 0)
(226.959 0 0)
(227.588 0 0)
(228.217 0 0)
(228.846 0 0)
(229.474 0 0)
(230.103 0 0)
(230.731 0 0)
(231.358 0 0)
(231.986 0 0)
(232.613 0 0)
(233.24 0 0)
(233.867 0 0)
(234.493 0 0)
(235.119 0 0)
(235.745 0 0)
(236.371 0 0)
(236.996 0 0)
(237.62 0 0)
(238.245 0 0)
(238.869 0 0)
(239.493 0 0)
(240.116 0 0)
(240.739 0 0)
(241.361 0 0)
(241.983 0 0)
(242.605 0 0)
(243.226 0 0)
(243.847 0 0)
(244.467 0 0)
(245.087 0 0)
(245.706 0 0)
(246.324 0 0)
(246.942 0 0)
(247.56 0 0)
(248.177 0 0)
(248.793 0 0)
(249.409 0 0)
(250.024 0 0)
(250.638 0 0)
(251.252 0 0)
(251.865 0 0)
(252.477 0 0)
(253.088 0 0)
(253.699 0 0)
(254.308 0 0)
(254.917 0 0)
(255.525 0 0)
(256.132 0 0)
(256.738 0 0)
(257.343 0 0)
(257.946 0 0)
(258.549 0 0)
(259.151 0 0)
(259.751 0 0)
(260.35 0 0)
(260.948 0 0)
(261.545 0 0)
(262.14 0 0)
(262.733 0 0)
(263.325 0 0)
(263.916 0 0)
(264.505 0 0)
(265.092 0 0)
(265.677 0 0)
(266.261 0 0)
(266.842 0 0)
(267.422 0 0)
(267.999 0 0)
(268.574 0 0)
(269.147 0 0)
(269.717 0 0)
(270.285 0 0)
(270.85 0 0)
(271.413 0 0)
(271.973 0 0)
(272.529 0 0)
(273.082 0 0)
(273.633 0 0)
(274.179 0 0)
(274.722 0 0)
(275.262 0 0)
(275.797 0 0)
(276.328 0 0)
(276.855 0 0)
(277.378 0 0)
(277.896 0 0)
(278.409 0 0)
(278.917 0 0)
(279.419 0 0)
(279.916 0 0)
(280.407 0 0)
(280.892 0 0)
(281.371 0 0)
(281.844 0 0)
(282.309 0 0)
(282.767 0 0)
(283.218 0 0)
(283.661 0 0)
(284.097 0 0)
(284.524 0 0)
(284.942 0 0)
(285.352 0 0)
(285.752 0 0)
(286.143 0 0)
(286.524 0 0)
(286.895 0 0)
(287.256 0 0)
(287.606 0 0)
(287.946 0 0)
(288.274 0 0)
(288.591 0 0)
(288.897 0 0)
(289.191 0 0)
(289.473 0 0)
(289.743 0 0)
(290.001 0 0)
(290.247 0 0)
(290.481 0 0)
(290.703 0 0)
(290.913 0 0)
(291.11 0 0)
(291.296 0 0)
(291.471 0 0)
(291.634 0 0)
(291.786 0 0)
(291.927 0 0)
(292.057 0 0)
(292.177 0 0)
(292.288 0 0)
(292.389 0 0)
(292.481 0 0)
(292.565 0 0)
(292.641 0 0)
(292.709 0 0)
(292.771 0 0)
(292.826 0 0)
(292.875 0 0)
(292.918 0 0)
(292.956 0 0)
(292.99 0 0)
(293.019 0 0)
(293.045 0 0)
(293.067 0 0)
(293.087 0 0)
(293.103 0 0)
(293.118 0 0)
(293.13 0 0)
(293.14 0 0)
(293.149 0 0)
(293.156 0 0)
(293.163 0 0)
(293.168 0 0)
(293.172 0 0)
(293.176 0 0)
(293.179 0 0)
(293.181 0 0)
(293.184 0 0)
(293.185 0 0)
(293.187 0 0)
(293.188 0 0)
(293.189 0 0)
(293.19 0 0)
(293.191 0 0)
(293.191 0 0)
(293.192 0 0)
(293.192 0 0)
(293.192 0 0)
(293.193 0 0)
(293.193 0 0)
(293.193 0 0)
(293.194 0 0)
(293.194 0 0)
(293.194 0 0)
(293.194 0 0)
(293.195 0 0)
(293.195 0 0)
(293.195 0 0)
(293.195 0 0)
(293.196 0 0)
(293.196 0 0)
(293.196 0 0)
(293.196 0 0)
(293.196 0 0)
(293.197 0 0)
(293.197 0 0)
(293.197 0 0)
(293.197 0 0)
(293.197 0 0)
(293.198 0 0)
(293.198 0 0)
(293.198 0 0)
(293.198 0 0)
(293.198 0 0)
(293.199 0 0)
(293.199 0 0)
(293.199 0 0)
(293.199 0 0)
(293.199 0 0)
(293.199 0 0)
(293.2 0 0)
(293.2 0 0)
(293.2 0 0)
(293.2 0 0)
(293.2 0 0)
(293.2 0 0)
(293.2 0 0)
(293.2 0 0)
(293.2 0 0)
(293.2 0 0)
(293.201 0 0)
(293.201 0 0)
(293.201 0 0)
(293.201 0 0)
(293.201 0 0)
(293.201 0 0)
(293.201 0 0)
(293.201 0 0)
(293.201 0 0)
(293.201 0 0)
(293.201 0 0)
(293.201 0 0)
(293.2 0 0)
(293.2 0 0)
(293.2 0 0)
(293.2 0 0)
(293.2 0 0)
(293.2 0 0)
(293.2 0 0)
(293.2 0 0)
(293.2 0 0)
(293.2 0 0)
(293.2 0 0)
(293.2 0 0)
(293.199 0 0)
(293.199 0 0)
(293.199 0 0)
(293.199 0 0)
(293.199 0 0)
(293.199 0 0)
(293.199 0 0)
(293.199 0 0)
(293.199 0 0)
(293.199 0 0)
(293.199 0 0)
(293.199 0 0)
(293.199 0 0)
(293.199 0 0)
(293.199 0 0)
(293.199 0 0)
(293.199 0 0)
(293.199 0 0)
(293.199 0 0)
(293.199 0 0)
(293.199 0 0)
(293.199 0 0)
(293.199 0 0)
(293.199 0 0)
(293.199 0 0)
(293.199 0 0)
(293.199 0 0)
(293.199 0 0)
(293.199 0 0)
(293.199 0 0)
(293.199 0 0)
(293.199 0 0)
(293.2 0 0)
(293.2 0 0)
(293.2 0 0)
(293.2 0 0)
(293.2 0 0)
(293.2 0 0)
(293.2 0 0)
(293.2 0 0)
(293.2 0 0)
(293.2 0 0)
(293.2 0 0)
(293.2 0 0)
(293.2 0 0)
(293.2 0 0)
(293.2 0 0)
(293.2 0 0)
(293.2 0 0)
(293.2 0 0)
(293.2 0 0)
(293.2 0 0)
(293.2 0 0)
(293.2 0 0)
(293.2 0 0)
(293.2 0 0)
(293.2 0 0)
(293.2 0 0)
(293.2 0 0)
(293.2 0 0)
(293.2 0 0)
(293.2 0 0)
(293.2 0 0)
(293.2 0 0)
(293.2 0 0)
(293.2 0 0)
(293.2 0 0)
(293.2 0 0)
(293.2 0 0)
(293.2 0 0)
(293.2 0 0)
(293.2 0 0)
(293.2 0 0)
(293.2 0 0)
(293.2 0 0)
(293.2 0 0)
(293.2 0 0)
(293.2 0 0)
(293.2 0 0)
(293.2 0 0)
(293.2 0 0)
(293.2 0 0)
(293.2 0 0)
(293.2 0 0)
(293.201 0 0)
(293.201 0 0)
(293.201 0 0)
(293.201 0 0)
(293.201 0 0)
(293.201 0 0)
(293.201 0 0)
(293.201 0 0)
(293.201 0 0)
(293.201 0 0)
(293.201 0 0)
(293.201 0 0)
(293.201 0 0)
(293.201 0 0)
(293.201 0 0)
(293.201 0 0)
(293.201 0 0)
(293.201 0 0)
(293.201 0 0)
(293.201 0 0)
(293.201 0 0)
(293.201 0 0)
(293.201 0 0)
(293.201 0 0)
(293.201 0 0)
(293.201 0 0)
(293.201 0 0)
(293.201 0 0)
(293.201 0 0)
(293.201 0 0)
(293.201 0 0)
(293.201 0 0)
(293.201 0 0)
(293.201 0 0)
(293.201 0 0)
(293.201 0 0)
(293.201 0 0)
(293.201 0 0)
(293.201 0 0)
(293.201 0 0)
(293.201 0 0)
(293.201 0 0)
(293.201 0 0)
(293.201 0 0)
(293.201 0 0)
(293.201 0 0)
(293.201 0 0)
(293.201 0 0)
(293.201 0 0)
(293.201 0 0)
(293.201 0 0)
(293.201 0 0)
(293.201 0 0)
(293.201 0 0)
(293.201 0 0)
(293.201 0 0)
(293.201 0 0)
(293.201 0 0)
(293.201 0 0)
(293.201 0 0)
(293.201 0 0)
(293.201 0 0)
(293.201 0 0)
(293.201 0 0)
(293.201 0 0)
(293.201 0 0)
(293.201 0 0)
(293.201 0 0)
(293.201 0 0)
(293.201 0 0)
(293.201 0 0)
(293.201 0 0)
(293.201 0 0)
(293.201 0 0)
(293.201 0 0)
(293.201 0 0)
(293.201 0 0)
(293.201 0 0)
(293.201 0 0)
(293.201 0 0)
(293.201 0 0)
(293.201 0 0)
(293.201 0 0)
(293.201 0 0)
(293.201 0 0)
(293.201 0 0)
(293.201 0 0)
(293.201 0 0)
(293.201 0 0)
(293.201 0 0)
(293.201 0 0)
(293.201 0 0)
(293.201 0 0)
(293.201 0 0)
(293.201 0 0)
(293.201 0 0)
(293.201 0 0)
(293.201 0 0)
(293.201 0 0)
(293.201 0 0)
(293.201 0 0)
(293.201 0 0)
(293.201 0 0)
(293.201 0 0)
(293.201 0 0)
(293.201 0 0)
(293.201 0 0)
(293.201 0 0)
(293.201 0 0)
(293.201 0 0)
(293.201 0 0)
(293.201 0 0)
(293.201 0 0)
(293.201 0 0)
(293.201 0 0)
(293.201 0 0)
(293.201 0 0)
(293.201 0 0)
(293.201 0 0)
(293.201 0 0)
(293.201 0 0)
(293.201 0 0)
(293.201 0 0)
(293.201 0 0)
(293.201 0 0)
(293.201 0 0)
(293.201 0 0)
(293.201 0 0)
(293.201 0 0)
(293.201 0 0)
(293.201 0 0)
(293.201 0 0)
(293.201 0 0)
(293.201 0 0)
(293.201 0 0)
(293.201 0 0)
(293.201 0 0)
(293.201 0 0)
(293.201 0 0)
(293.201 0 0)
(293.201 0 0)
(293.201 0 0)
(293.201 0 0)
(293.201 0 0)
(293.201 0 0)
(293.201 0 0)
(293.201 0 0)
(293.201 0 0)
(293.201 0 0)
(293.201 0 0)
(293.201 0 0)
(293.201 0 0)
(293.201 0 0)
(293.201 0 0)
(293.201 0 0)
(293.201 0 0)
(293.201 0 0)
(293.201 0 0)
(293.201 0 0)
(293.201 0 0)
(293.201 0 0)
(293.201 0 0)
(293.201 0 0)
(293.201 0 0)
(293.201 0 0)
(293.201 0 0)
(293.201 0 0)
(293.201 0 0)
(293.201 0 0)
(293.201 0 0)
(293.201 0 0)
(293.201 0 0)
(293.201 0 0)
(293.201 0 0)
(293.2 0 0)
(293.2 0 0)
(293.2 0 0)
(293.199 0 0)
(293.199 0 0)
(293.198 0 0)
(293.197 0 0)
(293.196 0 0)
(293.194 0 0)
(293.193 0 0)
(293.191 0 0)
(293.189 0 0)
(293.188 0 0)
(293.186 0 0)
(293.184 0 0)
(293.182 0 0)
(293.181 0 0)
(293.18 0 0)
(293.179 0 0)
(293.179 0 0)
(293.179 0 0)
(293.179 0 0)
(293.18 0 0)
(293.181 0 0)
(293.182 0 0)
(293.183 0 0)
(293.185 0 0)
(293.187 0 0)
(293.188 0 0)
(293.19 0 0)
(293.191 0 0)
(293.193 0 0)
(293.194 0 0)
(293.195 0 0)
(293.196 0 0)
(293.197 0 0)
(293.198 0 0)
(293.198 0 0)
(293.199 0 0)
(293.199 0 0)
(293.2 0 0)
(293.2 0 0)
(293.2 0 0)
(293.2 0 0)
(293.2 0 0)
(293.2 0 0)
(293.2 0 0)
(293.2 0 0)
(293.2 0 0)
(293.2 0 0)
(293.2 0 0)
(293.2 0 0)
(293.2 0 0)
(293.2 0 0)
(293.2 0 0)
(293.2 0 0)
(293.2 0 0)
(293.2 0 0)
(293.2 0 0)
(293.2 0 0)
(293.2 0 0)
(293.2 0 0)
(293.2 0 0)
(293.2 0 0)
(293.2 0 0)
(293.2 0 0)
(293.2 0 0)
(293.2 0 0)
(293.2 0 0)
(293.2 0 0)
(293.2 0 0)
(293.199 0 0)
(293.199 0 0)
(293.198 0 0)
(293.196 0 0)
(293.194 0 0)
(293.191 0 0)
(293.186 0 0)
(293.18 0 0)
(293.172 0 0)
(293.162 0 0)
(293.148 0 0)
(293.131 0 0)
(293.11 0 0)
(293.084 0 0)
(293.052 0 0)
(293.015 0 0)
(292.97 0 0)
(292.919 0 0)
(292.86 0 0)
(292.793 0 0)
(292.719 0 0)
(292.638 0 0)
(292.55 0 0)
(292.456 0 0)
(292.357 0 0)
(292.254 0 0)
(292.149 0 0)
(292.043 0 0)
(291.938 0 0)
(291.835 0 0)
(291.736 0 0)
(291.641 0 0)
(291.553 0 0)
(291.471 0 0)
(291.397 0 0)
(291.33 0 0)
(291.272 0 0)
(291.221 0 0)
(291.178 0 0)
(291.141 0 0)
(291.111 0 0)
(291.087 0 0)
(291.068 0 0)
(291.052 0 0)
(291.041 0 0)
(291.032 0 0)
(291.026 0 0)
(291.021 0 0)
(291.018 0 0)
(291.016 0 0)
(291.014 0 0)
(291.013 0 0)
(291.013 0 0)
(291.012 0 0)
(291.012 0 0)
(291.012 0 0)
(291.012 0 0)
(291.012 0 0)
(291.012 0 0)
(291.012 0 0)
(291.012 0 0)
(291.012 0 0)
(291.012 0 0)
(291.012 0 0)
(291.012 0 0)
(291.012 0 0)
(291.012 0 0)
(291.012 0 0)
(291.012 0 0)
)
;

boundaryField
{
    sides
    {
        type            zeroGradient;
    }
    empty
    {
        type            empty;
    }
}


// ************************************************************************* //
