/*--------------------------------*- C++ -*----------------------------------*\
  =========                 |
  \\      /  F ield         | OpenFOAM: The Open Source CFD Toolbox
   \\    /   O peration     | Website:  https://openfoam.org
    \\  /    A nd           | Version:  9
     \\/     M anipulation  |
\*---------------------------------------------------------------------------*/
FoamFile
{
    format      ascii;
    class       volScalarField;
    location    "0.013";
    object      mag(U);
}
// * * * * * * * * * * * * * * * * * * * * * * * * * * * * * * * * * * * * * //

dimensions      [0 1 -1 0 0 0 0];

internalField   nonuniform List<scalar> 
10000
(
0.00125504
0.00414675
0.00547723
0.00730618
0.00908212
0.0108881
0.0127275
0.0146056
0.0165279
0.0184998
0.0205269
0.0226146
0.0247685
0.0269943
0.0292975
0.0316839
0.0341593
0.0367293
0.0394
0.0421771
0.0450667
0.0480746
0.0512071
0.0544702
0.0578701
0.0614129
0.065105
0.0689526
0.0729622
0.07714
0.0814926
0.0860263
0.0907478
0.0956634
0.10078
0.106104
0.111642
0.1174
0.123385
0.129605
0.136064
0.142771
0.149731
0.156951
0.164437
0.172197
0.180236
0.188561
0.197178
0.206093
0.215313
0.224843
0.234691
0.24486
0.255358
0.266191
0.277363
0.28888
0.300748
0.312971
0.325555
0.338505
0.351826
0.365522
0.379598
0.394057
0.408905
0.424145
0.439781
0.455817
0.472255
0.4891
0.506355
0.524022
0.542103
0.560603
0.579522
0.598863
0.618628
0.638819
0.659436
0.680483
0.701959
0.723866
0.746204
0.768974
0.792177
0.815813
0.839881
0.864382
0.889316
0.914681
0.940478
0.966705
0.993361
1.02045
1.04796
1.0759
1.10426
1.13304
1.16225
1.19187
1.22191
1.25237
1.28323
1.31451
1.34619
1.37828
1.41077
1.44365
1.47694
1.51061
1.54468
1.57913
1.61397
1.64918
1.68477
1.72074
1.75707
1.79377
1.83084
1.86826
1.90603
1.94416
1.98264
2.02146
2.06062
2.10012
2.13995
2.1801
2.22059
2.26139
2.30251
2.34395
2.38569
2.42774
2.47009
2.51274
2.55569
2.59892
2.64244
2.68625
2.73033
2.77469
2.81932
2.86422
2.90938
2.9548
3.00048
3.04641
3.09259
3.13902
3.18569
3.2326
3.27975
3.32712
3.37473
3.42256
3.47062
3.51889
3.56738
3.61608
3.66499
3.71411
3.76343
3.81295
3.86266
3.91258
3.96268
4.01297
4.06344
4.1141
4.16494
4.21595
4.26714
4.3185
4.37003
4.42173
4.47359
4.52561
4.57779
4.63012
4.68261
4.73525
4.78804
4.84098
4.89406
4.94729
5.00065
5.05415
5.10779
5.16156
5.21546
5.26949
5.32365
5.37794
5.43235
5.48688
5.54153
5.5963
5.65118
5.70618
5.76129
5.81651
5.87184
5.92728
5.98283
6.03847
6.09423
6.15008
6.20603
6.26208
6.31823
6.37447
6.4308
6.48723
6.54375
6.60035
6.65705
6.71383
6.7707
6.82765
6.88468
6.9418
6.99899
7.05627
7.11362
7.17105
7.22856
7.28614
7.34379
7.40152
7.45932
7.51719
7.57512
7.63313
7.6912
7.74934
7.80755
7.86581
7.92415
7.98254
8.041
8.09952
8.15809
8.21673
8.27543
8.33418
8.39299
8.45185
8.51077
8.56974
8.62877
8.68785
8.74698
8.80616
8.8654
8.92468
8.98401
9.0434
9.10282
9.1623
9.22182
9.28139
9.34101
9.40066
9.46037
9.52011
9.5799
9.63973
9.6996
9.75952
9.81947
9.87947
9.9395
9.99958
10.0597
10.1198
10.18
10.2403
10.3005
10.3608
10.4211
10.4815
10.5419
10.6023
10.6628
10.7233
10.7839
10.8444
10.905
10.9657
11.0263
11.087
11.1478
11.2085
11.2693
11.3301
11.391
11.4518
11.5127
11.5737
11.6346
11.6956
11.7566
11.8177
11.8787
11.9398
12.0009
12.0621
12.1232
12.1844
12.2457
12.3069
12.3682
12.4295
12.4908
12.5521
12.6135
12.6748
12.7362
12.7977
12.8591
12.9206
12.9821
13.0436
13.1051
13.1667
13.2283
13.2898
13.3515
13.4131
13.4747
13.5364
13.5981
13.6598
13.7215
13.7833
13.8451
13.9068
13.9686
14.0305
14.0923
14.1542
14.216
14.2779
14.3398
14.4017
14.4637
14.5256
14.5876
14.6496
14.7116
14.7736
14.8356
14.8977
14.9597
15.0218
15.0839
15.146
15.2081
15.2703
15.3324
15.3946
15.4568
15.5189
15.5812
15.6434
15.7056
15.7678
15.8301
15.8924
15.9547
16.017
16.0793
16.1416
16.2039
16.2663
16.3286
16.391
16.4534
16.5158
16.5782
16.6406
16.703
16.7654
16.8279
16.8903
16.9528
17.0153
17.0778
17.1403
17.2028
17.2653
17.3279
17.3904
17.453
17.5155
17.5781
17.6407
17.7033
17.7659
17.8285
17.8911
17.9538
18.0164
18.079
18.1417
18.2044
18.2671
18.3297
18.3924
18.4551
18.5179
18.5806
18.6433
18.706
18.7688
18.8315
18.8943
18.9571
19.0199
19.0827
19.1454
19.2082
19.2711
19.3339
19.3967
19.4595
19.5224
19.5852
19.6481
19.711
19.7738
19.8367
19.8996
19.9625
20.0254
20.0883
20.1512
20.2141
20.2771
20.34
20.4029
20.4659
20.5288
20.5918
20.6548
20.7177
20.7807
20.8437
20.9067
20.9697
21.0327
21.0957
21.1587
21.2217
21.2848
21.3478
21.4109
21.4739
21.537
21.6
21.6631
21.7261
21.7892
21.8523
21.9154
21.9785
22.0416
22.1047
22.1678
22.2309
22.294
22.3571
22.4203
22.4834
22.5466
22.6097
22.6728
22.736
22.7992
22.8623
22.9255
22.9887
23.0518
23.115
23.1782
23.2414
23.3046
23.3678
23.431
23.4942
23.5575
23.6207
23.6839
23.7471
23.8104
23.8736
23.9368
24.0001
24.0633
24.1266
24.1899
24.2531
24.3164
24.3797
24.4429
24.5062
24.5695
24.6328
24.6961
24.7594
24.8227
24.886
24.9493
25.0126
25.0759
25.1392
25.2026
25.2659
25.3292
25.3926
25.4559
25.5192
25.5826
25.6459
25.7093
25.7726
25.836
25.8994
25.9627
26.0261
26.0895
26.1529
26.2162
26.2796
26.343
26.4064
26.4698
26.5332
26.5966
26.66
26.7234
26.7868
26.8502
26.9136
26.9771
27.0405
27.1039
27.1673
27.2308
27.2942
27.3576
27.4211
27.4845
27.548
27.6114
27.6749
27.7383
27.8018
27.8653
27.9287
27.9922
28.0557
28.1191
28.1826
28.2461
28.3096
28.373
28.4365
28.5
28.5635
28.627
28.6905
28.754
28.8175
28.881
28.9445
29.008
29.0715
29.135
29.1986
29.2621
29.3256
29.3891
29.4527
29.5162
29.5797
29.6433
29.7068
29.7703
29.8339
29.8974
29.961
30.0245
30.0881
30.1516
30.2152
30.2787
30.3423
30.4058
30.4694
30.533
30.5965
30.6601
30.7237
30.7873
30.8508
30.9144
30.978
31.0416
31.1052
31.1688
31.2323
31.2959
31.3595
31.4231
31.4867
31.5503
31.6139
31.6775
31.7411
31.8047
31.8684
31.932
31.9956
32.0592
32.1228
32.1864
32.2501
32.3137
32.3773
32.4409
32.5046
32.5682
32.6318
32.6955
32.7591
32.8227
32.8864
32.95
33.0137
33.0773
33.141
33.2046
33.2683
33.3319
33.3956
33.4592
33.5229
33.5865
33.6502
33.7139
33.7775
33.8412
33.9049
33.9685
34.0322
34.0959
34.1595
34.2232
34.2869
34.3506
34.4142
34.4779
34.5416
34.6053
34.669
34.7327
34.7964
34.8601
34.9237
34.9874
35.0511
35.1148
35.1785
35.2422
35.3059
35.3696
35.4333
35.497
35.5608
35.6245
35.6882
35.7519
35.8156
35.8793
35.943
36.0067
36.0705
36.1342
36.1979
36.2616
36.3253
36.3891
36.4528
36.5165
36.5803
36.644
36.7077
36.7715
36.8352
36.8989
36.9627
37.0264
37.0901
37.1539
37.2176
37.2814
37.3451
37.4089
37.4726
37.5363
37.6001
37.6638
37.7276
37.7914
37.8551
37.9189
37.9826
38.0464
38.1101
38.1739
38.2377
38.3014
38.3652
38.4289
38.4927
38.5565
38.6203
38.684
38.7478
38.8116
38.8753
38.9391
39.0029
39.0667
39.1304
39.1942
39.258
39.3218
39.3856
39.4493
39.5131
39.5769
39.6407
39.7045
39.7683
39.8321
39.8958
39.9596
40.0234
40.0872
40.151
40.2148
40.2786
40.3424
40.4062
40.47
40.5338
40.5976
40.6614
40.7252
40.789
40.8528
40.9166
40.9804
41.0442
41.108
41.1719
41.2357
41.2995
41.3633
41.4271
41.4909
41.5547
41.6185
41.6824
41.7462
41.81
41.8738
41.9376
42.0015
42.0653
42.1291
42.1929
42.2568
42.3206
42.3844
42.4482
42.5121
42.5759
42.6397
42.7036
42.7674
42.8312
42.8951
42.9589
43.0227
43.0866
43.1504
43.2142
43.2781
43.3419
43.4058
43.4696
43.5334
43.5973
43.6611
43.725
43.7888
43.8527
43.9165
43.9804
44.0442
44.1081
44.1719
44.2358
44.2996
44.3635
44.4273
44.4912
44.555
44.6189
44.6827
44.7466
44.8104
44.8743
44.9382
45.002
45.0659
45.1297
45.1936
45.2575
45.3213
45.3852
45.449
45.5129
45.5768
45.6406
45.7045
45.7684
45.8322
45.8961
45.96
46.0239
46.0877
46.1516
46.2155
46.2793
46.3432
46.4071
46.471
46.5348
46.5987
46.6626
46.7265
46.7904
46.8542
46.9181
46.982
47.0459
47.1098
47.1736
47.2375
47.3014
47.3653
47.4292
47.4931
47.5569
47.6208
47.6847
47.7486
47.8125
47.8764
47.9403
48.0042
48.0681
48.132
48.1958
48.2597
48.3236
48.3875
48.4514
48.5153
48.5792
48.6431
48.707
48.7709
48.8348
48.8987
48.9626
49.0265
49.0904
49.1543
49.2182
49.2821
49.346
49.4099
49.4738
49.5377
49.6016
49.6655
49.7294
49.7933
49.8572
49.9212
49.9851
50.049
50.1129
50.1768
50.2407
50.3046
50.3685
50.4324
50.4963
50.5603
50.6242
50.6881
50.752
50.8159
50.8798
50.9437
51.0077
51.0716
51.1355
51.1994
51.2633
51.3272
51.3912
51.4551
51.519
51.5829
51.6468
51.7108
51.7747
51.8386
51.9025
51.9665
52.0304
52.0943
52.1582
52.2222
52.2861
52.35
52.4139
52.4779
52.5418
52.6057
52.6697
52.7336
52.7975
52.8614
52.9254
52.9893
53.0532
53.1172
53.1811
53.245
53.309
53.3729
53.4368
53.5008
53.5647
53.6286
53.6926
53.7565
53.8204
53.8844
53.9483
54.0123
54.0762
54.1401
54.2041
54.268
54.332
54.3959
54.4598
54.5238
54.5877
54.6517
54.7156
54.7795
54.8435
54.9074
54.9714
55.0353
55.0993
55.1632
55.2272
55.2911
55.355
55.419
55.4829
55.5469
55.6108
55.6748
55.7387
55.8027
55.8666
55.9306
55.9945
56.0585
56.1224
56.1864
56.2503
56.3143
56.3782
56.4422
56.5061
56.5701
56.6341
56.698
56.762
56.8259
56.8899
56.9538
57.0178
57.0817
57.1457
57.2097
57.2736
57.3376
57.4015
57.4655
57.5295
57.5934
57.6574
57.7213
57.7853
57.8493
57.9132
57.9772
58.0411
58.1051
58.1691
58.233
58.297
58.361
58.4249
58.4889
58.5528
58.6168
58.6808
58.7447
58.8087
58.8727
58.9366
59.0006
59.0646
59.1285
59.1925
59.2565
59.3204
59.3844
59.4484
59.5123
59.5763
59.6403
59.7043
59.7682
59.8322
59.8962
59.9601
60.0241
60.0881
60.1521
60.216
60.28
60.344
60.408
60.4719
60.5359
60.5999
60.6639
60.7278
60.7918
60.8558
60.9198
60.9837
61.0477
61.1117
61.1757
61.2396
61.3036
61.3676
61.4316
61.4955
61.5595
61.6235
61.6875
61.7515
61.8154
61.8794
61.9434
62.0074
62.0714
62.1354
62.1993
62.2633
62.3273
62.3913
62.4553
62.5192
62.5832
62.6472
62.7112
62.7752
62.8392
62.9031
62.9671
63.0311
63.0951
63.1591
63.2231
63.2871
63.351
63.415
63.479
63.543
63.607
63.671
63.735
63.799
63.8629
63.9269
63.9909
64.0549
64.1189
64.1829
64.2469
64.3109
64.3749
64.4389
64.5028
64.5668
64.6308
64.6948
64.7588
64.8228
64.8868
64.9508
65.0148
65.0788
65.1428
65.2068
65.2708
65.3347
65.3987
65.4627
65.5267
65.5907
65.6547
65.7187
65.7827
65.8467
65.9107
65.9747
66.0387
66.1027
66.1667
66.2307
66.2947
66.3587
66.4227
66.4867
66.5507
66.6147
66.6787
66.7427
66.8067
66.8707
66.9347
66.9987
67.0627
67.1267
67.1907
67.2547
67.3187
67.3827
67.4467
67.5107
67.5747
67.6387
67.7027
67.7667
67.8307
67.8947
67.9587
68.0227
68.0867
68.1507
68.2147
68.2787
68.3427
68.4067
68.4707
68.5347
68.5987
68.6627
68.7267
68.7908
68.8548
68.9188
68.9828
69.0468
69.1108
69.1748
69.2388
69.3028
69.3668
69.4308
69.4948
69.5588
69.6228
69.6869
69.7509
69.8149
69.8789
69.9429
70.0069
70.0709
70.1349
70.1989
70.2629
70.3269
70.391
70.455
70.519
70.583
70.647
70.711
70.775
70.839
70.903
70.9671
71.0311
71.0951
71.1591
71.2231
71.2871
71.3511
71.4151
71.4792
71.5432
71.6072
71.6712
71.7352
71.7992
71.8632
71.9273
71.9913
72.0553
72.1193
72.1833
72.2473
72.3113
72.3754
72.4394
72.5034
72.5674
72.6314
72.6954
72.7595
72.8235
72.8875
72.9515
73.0155
73.0795
73.1436
73.2076
73.2716
73.3356
73.3996
73.4637
73.5277
73.5917
73.6557
73.7197
73.7837
73.8478
73.9118
73.9758
74.0398
74.1038
74.1679
74.2319
74.2959
74.3599
74.4239
74.488
74.552
74.616
74.68
74.7441
74.8081
74.8721
74.9361
75.0001
75.0642
75.1282
75.1922
75.2562
75.3203
75.3843
75.4483
75.5123
75.5763
75.6404
75.7044
75.7684
75.8324
75.8965
75.9605
76.0245
76.0885
76.1526
76.2166
76.2806
76.3446
76.4087
76.4727
76.5367
76.6007
76.6648
76.7288
76.7928
76.8568
76.9209
76.9849
77.0489
77.1129
77.177
77.241
77.305
77.3691
77.4331
77.4971
77.5611
77.6252
77.6892
77.7532
77.8172
77.8813
77.9453
78.0093
78.0734
78.1374
78.2014
78.2654
78.3295
78.3935
78.4575
78.5216
78.5856
78.6496
78.7137
78.7777
78.8417
78.9057
78.9698
79.0338
79.0978
79.1619
79.2259
79.2899
79.354
79.418
79.482
79.5461
79.6101
79.6741
79.7381
79.8022
79.8662
79.9302
79.9943
80.0583
80.1223
80.1864
80.2504
80.3144
80.3785
80.4425
80.5065
80.5706
80.6346
80.6986
80.7627
80.8267
80.8907
80.9548
81.0188
81.0828
81.1469
81.2109
81.2749
81.339
81.403
81.467
81.5311
81.5951
81.6591
81.7232
81.7872
81.8513
81.9153
81.9793
82.0434
82.1074
82.1714
82.2355
82.2995
82.3635
82.4276
82.4916
82.5556
82.6197
82.6837
82.7478
82.8118
82.8758
82.9399
83.0039
83.0679
83.132
83.196
83.2601
83.3241
83.3881
83.4522
83.5162
83.5802
83.6443
83.7083
83.7724
83.8364
83.9004
83.9645
84.0285
84.0926
84.1566
84.2206
84.2847
84.3487
84.4127
84.4768
84.5408
84.6049
84.6689
84.7329
84.797
84.861
84.9251
84.9891
85.0531
85.1172
85.1812
85.2453
85.3093
85.3733
85.4374
85.5014
85.5655
85.6295
85.6936
85.7576
85.8216
85.8857
85.9497
86.0138
86.0778
86.1418
86.2059
86.2699
86.334
86.398
86.4621
86.5261
86.5901
86.6542
86.7182
86.7823
86.8463
86.9103
86.9744
87.0384
87.1025
87.1665
87.2306
87.2946
87.3586
87.4227
87.4867
87.5508
87.6148
87.6789
87.7429
87.807
87.871
87.935
87.9991
88.0631
88.1272
88.1912
88.2553
88.3193
88.3833
88.4474
88.5114
88.5755
88.6395
88.7036
88.7676
88.8317
88.8957
88.9598
89.0238
89.0878
89.1519
89.2159
89.28
89.344
89.4081
89.4721
89.5362
89.6002
89.6643
89.7283
89.7923
89.8564
89.9204
89.9845
90.0485
90.1126
90.1766
90.2407
90.3047
90.3688
90.4328
90.4969
90.5609
90.6249
90.689
90.753
90.8171
90.8811
90.9452
91.0092
91.0733
91.1373
91.2014
91.2654
91.3295
91.3935
91.4576
91.5216
91.5857
91.6497
91.7138
91.7778
91.8418
91.9059
91.9699
92.034
92.098
92.1621
92.2261
92.2902
92.3542
92.4183
92.4823
92.5464
92.6104
92.6745
92.7385
92.8026
92.8666
92.9307
92.9947
93.0588
93.1228
93.1869
93.2509
93.315
93.379
93.4431
93.5071
93.5712
93.6352
93.6993
93.7633
93.8274
93.8914
93.9555
94.0195
94.0836
94.1476
94.2117
94.2757
94.3398
94.4038
94.4679
94.5319
94.596
94.66
94.7241
94.7881
94.8522
94.9162
94.9803
95.0443
95.1084
95.1724
95.2365
95.3005
95.3646
95.4286
95.4927
95.5567
95.6208
95.6848
95.7489
95.8129
95.877
95.941
96.0051
96.0691
96.1332
96.1973
96.2613
96.3254
96.3894
96.4535
96.5175
96.5816
96.6456
96.7097
96.7737
96.8378
96.9018
96.9659
97.0299
97.094
97.158
97.2221
97.2861
97.3502
97.4142
97.4783
97.5424
97.6064
97.6705
97.7345
97.7986
97.8626
97.9267
97.9907
98.0548
98.1188
98.1829
98.2469
98.311
98.375
98.4391
98.5031
98.5672
98.6313
98.6953
98.7594
98.8234
98.8875
98.9515
99.0156
99.0796
99.1437
99.2077
99.2718
99.3358
99.3999
99.464
99.528
99.5921
99.6561
99.7202
99.7842
99.8483
99.9123
99.9764
100.04
100.104
100.169
100.233
100.297
100.361
100.425
100.489
100.553
100.617
100.681
100.745
100.809
100.873
100.937
101.001
101.065
101.129
101.193
101.257
101.322
101.386
101.45
101.514
101.578
101.642
101.706
101.77
101.834
101.898
101.962
102.026
102.09
102.154
102.218
102.282
102.346
102.41
102.475
102.539
102.603
102.667
102.731
102.795
102.859
102.923
102.987
103.051
103.115
103.179
103.243
103.307
103.371
103.435
103.499
103.563
103.628
103.692
103.756
103.82
103.884
103.948
104.012
104.076
104.14
104.204
104.268
104.332
104.396
104.46
104.524
104.588
104.652
104.716
104.781
104.845
104.909
104.973
105.037
105.101
105.165
105.229
105.293
105.357
105.421
105.485
105.549
105.613
105.677
105.741
105.805
105.87
105.934
105.998
106.062
106.126
106.19
106.254
106.318
106.382
106.446
106.51
106.574
106.638
106.702
106.766
106.83
106.894
106.958
107.023
107.087
107.151
107.215
107.279
107.343
107.407
107.471
107.535
107.599
107.663
107.727
107.791
107.855
107.919
107.983
108.047
108.112
108.176
108.24
108.304
108.368
108.432
108.496
108.56
108.624
108.688
108.752
108.816
108.88
108.944
109.008
109.072
109.136
109.2
109.265
109.329
109.393
109.457
109.521
109.585
109.649
109.713
109.777
109.841
109.905
109.969
110.033
110.097
110.161
110.225
110.289
110.354
110.418
110.482
110.546
110.61
110.674
110.738
110.802
110.866
110.93
110.994
111.058
111.122
111.186
111.25
111.314
111.378
111.443
111.507
111.571
111.635
111.699
111.763
111.827
111.891
111.955
112.019
112.083
112.147
112.211
112.275
112.339
112.403
112.467
112.532
112.596
112.66
112.724
112.788
112.852
112.916
112.98
113.044
113.108
113.172
113.236
113.3
113.364
113.428
113.492
113.556
113.62
113.685
113.749
113.813
113.877
113.941
114.005
114.069
114.133
114.197
114.261
114.325
114.389
114.453
114.517
114.581
114.645
114.709
114.774
114.838
114.902
114.966
115.03
115.094
115.158
115.222
115.286
115.35
115.414
115.478
115.542
115.606
115.67
115.734
115.798
115.863
115.927
115.991
116.055
116.119
116.183
116.247
116.311
116.375
116.439
116.503
116.567
116.631
116.695
116.759
116.823
116.887
116.951
117.016
117.08
117.144
117.208
117.272
117.336
117.4
117.464
117.528
117.592
117.656
117.72
117.784
117.848
117.912
117.976
118.04
118.105
118.169
118.233
118.297
118.361
118.425
118.489
118.553
118.617
118.681
118.745
118.809
118.873
118.937
119.001
119.065
119.129
119.193
119.258
119.322
119.386
119.45
119.514
119.578
119.642
119.706
119.77
119.834
119.898
119.962
120.026
120.09
120.154
120.218
120.282
120.347
120.411
120.475
120.539
120.603
120.667
120.731
120.795
120.859
120.923
120.987
121.051
121.115
121.179
121.243
121.307
121.371
121.435
121.5
121.564
121.628
121.692
121.756
121.82
121.884
121.948
122.012
122.076
122.14
122.204
122.268
122.332
122.396
122.46
122.524
122.588
122.653
122.717
122.781
122.845
122.909
122.973
123.037
123.101
123.165
123.229
123.293
123.357
123.421
123.485
123.549
123.613
123.677
123.741
123.806
123.87
123.934
123.998
124.062
124.126
124.19
124.254
124.318
124.382
124.446
124.51
124.574
124.638
124.702
124.766
124.83
124.894
124.958
125.023
125.087
125.151
125.215
125.279
125.343
125.407
125.471
125.535
125.599
125.663
125.727
125.791
125.855
125.919
125.983
126.047
126.111
126.176
126.24
126.304
126.368
126.432
126.496
126.56
126.624
126.688
126.752
126.816
126.88
126.944
127.008
127.072
127.136
127.2
127.264
127.328
127.393
127.457
127.521
127.585
127.649
127.713
127.777
127.841
127.905
127.969
128.033
128.097
128.161
128.225
128.289
128.353
128.417
128.481
128.545
128.61
128.674
128.738
128.802
128.866
128.93
128.994
129.058
129.122
129.186
129.25
129.314
129.378
129.442
129.506
129.57
129.634
129.698
129.762
129.827
129.891
129.955
130.019
130.083
130.147
130.211
130.275
130.339
130.403
130.467
130.531
130.595
130.659
130.723
130.787
130.851
130.915
130.979
131.043
131.108
131.172
131.236
131.3
131.364
131.428
131.492
131.556
131.62
131.684
131.748
131.812
131.876
131.94
132.004
132.068
132.132
132.196
132.26
132.324
132.389
132.453
132.517
132.581
132.645
132.709
132.773
132.837
132.901
132.965
133.029
133.093
133.157
133.221
133.285
133.349
133.413
133.477
133.541
133.605
133.67
133.734
133.798
133.862
133.926
133.99
134.054
134.118
134.182
134.246
134.31
134.374
134.438
134.502
134.566
134.63
134.694
134.758
134.822
134.886
134.951
135.015
135.079
135.143
135.207
135.271
135.335
135.399
135.463
135.527
135.591
135.655
135.719
135.783
135.847
135.911
135.975
136.039
136.103
136.167
136.231
136.296
136.36
136.424
136.488
136.552
136.616
136.68
136.744
136.808
136.872
136.936
137
137.064
137.128
137.192
137.256
137.32
137.384
137.448
137.512
137.576
137.641
137.705
137.769
137.833
137.897
137.961
138.025
138.089
138.153
138.217
138.281
138.345
138.409
138.473
138.537
138.601
138.665
138.729
138.793
138.857
138.921
138.985
139.05
139.114
139.178
139.242
139.306
139.37
139.434
139.498
139.562
139.626
139.69
139.754
139.818
139.882
139.946
140.01
140.074
140.138
140.202
140.266
140.33
140.394
140.459
140.523
140.587
140.651
140.715
140.779
140.843
140.907
140.971
141.035
141.099
141.163
141.227
141.291
141.355
141.419
141.483
141.547
141.611
141.675
141.739
141.803
141.867
141.932
141.996
142.06
142.124
142.188
142.252
142.316
142.38
142.444
142.508
142.572
142.636
142.7
142.764
142.828
142.892
142.956
143.02
143.084
143.148
143.212
143.276
143.34
143.405
143.469
143.533
143.597
143.661
143.725
143.789
143.853
143.917
143.981
144.045
144.109
144.173
144.237
144.301
144.365
144.429
144.493
144.557
144.621
144.685
144.749
144.813
144.877
144.942
145.006
145.07
145.134
145.198
145.262
145.326
145.39
145.454
145.518
145.582
145.646
145.71
145.774
145.838
145.902
145.966
146.03
146.094
146.158
146.222
146.286
146.35
146.414
146.478
146.543
146.607
146.671
146.735
146.799
146.863
146.927
146.991
147.055
147.119
147.183
147.247
147.311
147.375
147.439
147.503
147.567
147.631
147.695
147.759
147.823
147.887
147.951
148.015
148.079
148.143
148.208
148.272
148.336
148.4
148.464
148.528
148.592
148.656
148.72
148.784
148.848
148.912
148.976
149.04
149.104
149.168
149.232
149.296
149.36
149.424
149.488
149.552
149.616
149.68
149.744
149.808
149.873
149.937
150.001
150.065
150.129
150.193
150.257
150.321
150.385
150.449
150.513
150.577
150.641
150.705
150.769
150.833
150.897
150.961
151.025
151.089
151.153
151.217
151.281
151.345
151.409
151.473
151.537
151.601
151.666
151.73
151.794
151.858
151.921
151.985
152.048
152.112
152.174
152.237
152.299
152.361
152.422
152.483
152.545
152.608
152.673
152.738
152.805
152.872
152.938
153.004
153.069
153.134
153.197
153.26
153.321
153.381
153.439
153.496
153.551
153.604
153.655
153.706
153.758
153.811
153.869
153.932
153.999
154.071
154.144
154.218
154.291
154.362
154.432
154.5
154.567
154.632
154.695
154.756
154.815
154.871
154.926
154.978
155.029
155.078
155.127
155.175
155.225
155.278
155.334
155.396
155.461
155.531
155.603
155.677
155.752
155.826
155.899
155.972
156.043
156.113
156.181
156.249
156.315
156.379
156.443
156.505
156.565
156.624
156.682
156.738
156.794
156.848
156.902
156.955
157.008
157.062
157.117
157.175
157.235
157.298
157.364
157.433
157.504
157.575
157.648
157.72
157.792
157.863
157.934
158.004
158.073
158.142
158.209
158.276
158.342
158.408
158.472
158.535
158.598
158.659
158.72
158.78
158.84
158.898
158.956
159.013
159.07
159.127
159.183
159.24
159.297
159.356
159.415
159.477
159.541
159.606
159.674
159.743
159.813
159.883
159.954
160.025
160.095
160.165
160.235
160.304
160.373
160.441
160.509
160.576
160.643
160.709
160.774
160.839
160.904
160.967
161.03
161.093
161.155
161.217
161.277
161.338
161.398
161.457
161.516
161.575
161.633
161.691
161.749
161.807
161.865
161.924
161.985
162.046
162.109
162.173
162.239
162.306
162.375
162.444
162.514
162.584
162.654
162.724
162.794
162.863
162.932
163.001
163.07
163.138
163.206
163.273
163.341
163.408
163.474
163.54
163.606
163.671
163.736
163.801
163.865
163.929
163.992
164.055
164.118
164.18
164.241
164.303
164.364
164.424
164.485
164.545
164.604
164.664
164.723
164.782
164.842
164.901
164.961
165.021
165.082
165.145
165.208
165.273
165.34
165.407
165.476
165.545
165.614
165.684
165.754
165.824
165.894
165.964
166.033
166.103
166.172
166.241
166.31
166.379
166.448
166.517
166.585
166.654
166.722
166.79
166.858
166.926
166.994
167.062
167.13
167.197
167.265
167.332
167.399
167.467
167.534
167.601
167.667
167.734
167.801
167.868
167.934
168.001
168.067
168.133
168.199
168.265
168.331
168.397
168.463
168.529
168.594
168.66
168.725
168.79
168.855
168.92
168.985
169.05
169.114
169.179
169.243
169.307
169.371
169.435
169.498
169.562
169.625
169.688
169.752
169.814
169.877
169.94
170.003
170.066
170.13
170.193
170.257
170.322
170.386
170.451
170.515
170.58
170.644
170.708
170.772
170.836
170.899
170.963
171.026
171.089
171.151
171.214
171.276
171.337
171.398
171.459
171.52
171.58
171.64
171.7
171.76
171.82
171.881
171.942
172.005
172.069
172.134
172.199
172.265
172.331
172.397
172.463
172.528
172.593
172.657
172.722
172.786
172.85
172.913
172.976
173.038
173.101
173.162
173.224
173.285
173.345
173.405
173.465
173.525
173.585
173.646
173.707
173.77
173.833
173.898
173.963
174.03
174.096
174.162
174.228
174.294
174.36
174.425
174.49
174.554
174.619
174.683
174.746
174.81
174.872
174.935
174.997
175.059
175.12
175.181
175.242
175.302
175.363
175.424
175.486
175.549
175.613
175.678
175.743
175.81
175.876
175.942
176.009
176.075
176.14
176.206
176.271
176.336
176.4
176.464
176.528
176.592
176.654
176.717
176.779
176.841
176.902
176.963
177.024
177.084
177.145
177.206
177.268
177.331
177.396
177.461
177.527
177.594
177.661
177.727
177.794
177.86
177.926
177.992
178.058
178.123
178.187
178.252
178.316
178.379
178.442
178.504
178.566
178.628
178.689
178.749
178.81
178.87
178.93
178.991
179.052
179.115
179.179
179.244
179.31
179.377
179.445
179.512
179.579
179.646
179.713
179.779
179.845
179.911
179.976
180.041
180.105
180.169
180.232
180.295
180.357
180.418
180.479
180.54
180.6
180.66
180.719
180.779
180.839
180.901
180.964
181.028
181.093
181.16
181.228
181.296
181.364
181.431
181.499
181.566
181.633
181.699
181.765
181.831
181.896
181.96
182.024
182.087
182.15
182.212
182.273
182.334
182.394
182.453
182.513
182.572
182.631
182.691
182.752
182.814
182.878
182.943
183.01
183.078
183.146
183.214
183.283
183.351
183.418
183.486
183.553
183.619
183.685
183.75
183.815
183.88
183.943
184.006
184.068
184.13
184.191
184.251
184.311
184.37
184.429
184.488
184.547
184.607
184.668
184.731
184.795
184.86
184.927
184.995
185.064
185.132
185.201
185.269
185.337
185.405
185.472
185.538
185.605
185.67
185.735
185.8
185.863
185.926
185.989
186.05
186.111
186.172
186.231
186.291
186.35
186.408
186.467
186.527
186.588
186.649
186.713
186.778
186.844
186.912
186.98
187.049
187.118
187.186
187.254
187.322
187.39
187.457
187.524
187.59
187.655
187.72
187.784
187.848
187.911
187.973
188.034
188.095
188.155
188.214
188.274
188.333
188.391
188.45
188.51
188.571
188.633
188.697
188.762
188.828
188.896
188.964
189.033
189.102
189.171
189.239
189.307
189.374
189.442
189.508
189.574
189.64
189.705
189.769
189.833
189.896
189.958
190.02
190.081
190.141
190.201
190.26
190.319
190.378
190.437
190.496
190.556
190.618
190.681
190.746
190.812
190.879
190.947
191.016
191.085
191.153
191.222
191.29
191.358
191.425
191.492
191.559
191.625
191.69
191.755
191.819
191.882
191.945
192.007
192.068
192.129
192.189
192.249
192.308
192.367
192.426
192.485
192.544
192.605
192.667
192.73
192.795
192.862
192.929
192.997
193.066
193.135
193.204
193.272
193.34
193.408
193.476
193.543
193.609
193.675
193.74
193.805
193.869
193.933
193.995
194.057
194.118
194.179
194.239
194.299
194.358
194.417
194.475
194.535
194.594
194.655
194.716
194.78
194.844
194.91
194.978
195.046
195.115
195.183
195.252
195.321
195.389
195.457
195.525
195.592
195.659
195.725
195.791
195.856
195.92
195.984
196.046
196.109
196.17
196.231
196.291
196.351
196.41
196.469
196.527
196.586
196.645
196.705
196.766
196.829
196.893
196.958
197.025
197.093
197.161
197.23
197.299
197.368
197.437
197.505
197.573
197.641
197.708
197.774
197.84
197.906
197.971
198.035
198.098
198.161
198.223
198.284
198.345
198.405
198.464
198.523
198.581
198.64
198.699
198.758
198.818
198.879
198.941
199.005
199.07
199.137
199.205
199.274
199.343
199.412
199.481
199.55
199.618
199.687
199.754
199.822
199.889
199.955
200.021
200.086
200.15
200.214
200.277
200.339
200.4
200.46
200.52
200.58
200.638
200.697
200.755
200.813
200.872
200.931
200.992
201.054
201.117
201.182
201.248
201.315
201.384
201.453
201.522
201.591
201.661
201.73
201.798
201.866
201.934
202.002
202.069
202.135
202.2
202.265
202.329
202.393
202.455
202.517
202.578
202.638
202.698
202.757
202.815
202.873
202.931
202.989
203.048
203.107
203.167
203.229
203.293
203.358
203.424
203.492
203.56
203.629
203.699
203.769
203.838
203.907
203.976
204.045
204.113
204.18
204.247
204.314
204.379
204.444
204.509
204.572
204.635
204.696
204.757
204.817
204.877
204.936
204.994
205.052
205.109
205.167
205.225
205.284
205.344
205.406
205.468
205.533
205.599
205.666
205.734
205.804
205.873
205.943
206.013
206.082
206.152
206.221
206.289
206.357
206.425
206.492
206.558
206.623
206.688
206.752
206.815
206.877
206.939
206.999
207.059
207.118
207.176
207.234
207.291
207.349
207.406
207.464
207.523
207.583
207.644
207.708
207.772
207.838
207.906
207.974
208.044
208.114
208.184
208.254
208.324
208.393
208.463
208.532
208.6
208.668
208.735
208.801
208.867
208.932
208.996
209.059
209.121
209.183
209.243
209.303
209.361
209.42
209.477
209.534
209.591
209.648
209.706
209.764
209.823
209.884
209.946
210.01
210.076
210.143
210.211
210.28
210.35
210.42
210.491
210.561
210.631
210.701
210.771
210.84
210.908
210.976
211.043
211.11
211.175
211.24
211.304
211.367
211.429
211.49
211.55
211.609
211.668
211.726
211.783
211.84
211.896
211.953
212.01
212.067
212.126
212.187
212.248
212.312
212.377
212.444
212.512
212.581
212.651
212.721
212.792
212.863
212.934
213.004
213.074
213.144
213.213
213.281
213.349
213.416
213.483
213.548
213.613
213.676
213.739
213.8
213.861
213.921
213.979
214.037
214.095
214.151
214.208
214.264
214.32
214.377
214.434
214.493
214.553
214.615
214.678
214.743
214.81
214.878
214.947
215.017
215.088
215.159
215.23
215.301
215.372
215.443
215.513
215.582
215.651
215.719
215.787
215.854
215.92
215.984
216.048
216.111
216.173
216.234
216.294
216.353
216.411
216.468
216.524
216.58
216.636
216.692
216.748
216.805
216.862
216.921
216.981
217.043
217.107
217.173
217.24
217.308
217.378
217.448
217.519
217.591
217.663
217.734
217.805
217.876
217.947
218.017
218.087
218.155
218.223
218.291
218.357
218.422
218.486
218.55
218.612
218.673
218.733
218.791
218.849
218.906
218.963
219.019
219.074
219.129
219.184
219.24
219.296
219.354
219.413
219.474
219.536
219.6
219.666
219.733
219.802
219.872
219.943
220.014
220.086
220.158
220.23
220.302
220.373
220.444
220.515
220.584
220.654
220.722
220.789
220.856
220.921
220.986
221.049
221.111
221.172
221.232
221.291
221.349
221.406
221.462
221.517
221.573
221.627
221.682
221.738
221.794
221.851
221.909
221.969
222.031
222.094
222.159
222.225
222.294
222.363
222.434
222.505
222.578
222.65
222.722
222.795
222.867
222.938
223.01
223.08
223.15
223.22
223.288
223.355
223.422
223.487
223.552
223.615
223.677
223.738
223.797
223.856
223.913
223.97
224.026
224.081
224.135
224.189
224.243
224.298
224.353
224.409
224.466
224.525
224.586
224.648
224.712
224.777
224.845
224.913
224.984
225.055
225.127
225.2
225.273
225.346
225.419
225.492
225.564
225.636
225.708
225.778
225.848
225.917
225.985
226.053
226.118
226.183
226.247
226.309
226.37
226.43
226.489
226.546
226.603
226.658
226.713
226.767
226.821
226.874
226.927
226.981
227.036
227.092
227.149
227.207
227.267
227.329
227.393
227.459
227.526
227.595
227.665
227.737
227.809
227.882
227.956
228.03
228.103
228.177
228.25
228.323
228.395
228.466
228.537
228.607
228.676
228.744