/*--------------------------------*- C++ -*----------------------------------*\
  =========                 |
  \\      /  F ield         | OpenFOAM: The Open Source CFD Toolbox
   \\    /   O peration     | Website:  https://openfoam.org
    \\  /    A nd           | Version:  9
     \\/     M anipulation  |
\*---------------------------------------------------------------------------*/
FoamFile
{
    format      ascii;
    class       volScalarField;
    location    "0.013";
    object      rho;
}
// * * * * * * * * * * * * * * * * * * * * * * * * * * * * * * * * * * * * * //

dimensions      [1 -3 0 0 0 0 0];

internalField   nonuniform List<scalar> 
10000
(
0.997506
0.997506
0.997505
0.997504
0.997503
0.997501
0.997499
0.997497
0.997495
0.997492
0.997489
0.997485
0.997482
0.997478
0.997473
0.997469
0.997464
0.997458
0.997452
0.997446
0.99744
0.997433
0.997426
0.997418
0.99741
0.997401
0.997392
0.997382
0.997372
0.997362
0.997351
0.997339
0.997327
0.997315
0.997301
0.997288
0.997273
0.997258
0.997243
0.997226
0.997209
0.997192
0.997173
0.997154
0.997135
0.997114
0.997093
0.997071
0.997048
0.997025
0.997
0.996975
0.996949
0.996922
0.996894
0.996865
0.996836
0.996805
0.996774
0.996741
0.996708
0.996673
0.996638
0.996601
0.996564
0.996526
0.996486
0.996446
0.996404
0.996361
0.996318
0.996273
0.996227
0.99618
0.996132
0.996083
0.996033
0.995981
0.995929
0.995875
0.99582
0.995764
0.995707
0.995649
0.99559
0.995529
0.995467
0.995405
0.995341
0.995276
0.995209
0.995142
0.995073
0.995004
0.994933
0.994861
0.994788
0.994714
0.994638
0.994562
0.994484
0.994406
0.994326
0.994245
0.994163
0.99408
0.993996
0.993911
0.993825
0.993737
0.993649
0.99356
0.993469
0.993378
0.993285
0.993192
0.993098
0.993002
0.992906
0.992809
0.99271
0.992611
0.992511
0.99241
0.992308
0.992205
0.992101
0.991996
0.991891
0.991784
0.991677
0.991569
0.99146
0.99135
0.99124
0.991128
0.991016
0.990903
0.99079
0.990675
0.99056
0.990444
0.990327
0.99021
0.990092
0.989973
0.989854
0.989733
0.989613
0.989491
0.989369
0.989246
0.989123
0.988999
0.988874
0.988749
0.988623
0.988497
0.98837
0.988242
0.988114
0.987985
0.987856
0.987726
0.987596
0.987465
0.987334
0.987202
0.98707
0.986937
0.986804
0.986671
0.986536
0.986402
0.986267
0.986131
0.985995
0.985859
0.985722
0.985585
0.985448
0.98531
0.985171
0.985033
0.984893
0.984754
0.984614
0.984474
0.984333
0.984192
0.984051
0.98391
0.983768
0.983625
0.983483
0.98334
0.983197
0.983053
0.98291
0.982766
0.982621
0.982477
0.982332
0.982186
0.982041
0.981895
0.981749
0.981603
0.981456
0.98131
0.981163
0.981015
0.980868
0.98072
0.980572
0.980424
0.980276
0.980127
0.979978
0.979829
0.97968
0.979531
0.979381
0.979231
0.979081
0.978931
0.978781
0.97863
0.978479
0.978329
0.978177
0.978026
0.977875
0.977723
0.977571
0.977419
0.977267
0.977115
0.976963
0.97681
0.976657
0.976505
0.976352
0.976199
0.976045
0.975892
0.975738
0.975585
0.975431
0.975277
0.975123
0.974969
0.974815
0.97466
0.974506
0.974351
0.974196
0.974042
0.973887
0.973731
0.973576
0.973421
0.973266
0.97311
0.972955
0.972799
0.972643
0.972487
0.972331
0.972175
0.972019
0.971863
0.971707
0.97155
0.971394
0.971237
0.971081
0.970924
0.970767
0.97061
0.970453
0.970296
0.970139
0.969982
0.969825
0.969668
0.96951
0.969353
0.969195
0.969038
0.96888
0.968723
0.968565
0.968407
0.968249
0.968091
0.967933
0.967775
0.967617
0.967459
0.967301
0.967143
0.966984
0.966826
0.966668
0.966509
0.966351
0.966192
0.966033
0.965875
0.965716
0.965557
0.965399
0.96524
0.965081
0.964922
0.964763
0.964604
0.964445
0.964286
0.964127
0.963968
0.963809
0.96365
0.96349
0.963331
0.963172
0.963013
0.962853
0.962694
0.962534
0.962375
0.962216
0.962056
0.961897
0.961737
0.961577
0.961418
0.961258
0.961099
0.960939
0.960779
0.960619
0.96046
0.9603
0.96014
0.95998
0.95982
0.959661
0.959501
0.959341
0.959181
0.959021
0.958861
0.958701
0.958541
0.958381
0.958221
0.958061
0.957901
0.957741
0.957581
0.95742
0.95726
0.9571
0.95694
0.95678
0.95662
0.95646
0.956299
0.956139
0.955979
0.955819
0.955658
0.955498
0.955338
0.955178
0.955017
0.954857
0.954697
0.954536
0.954376
0.954216
0.954055
0.953895
0.953735
0.953574
0.953414
0.953253
0.953093
0.952933
0.952772
0.952612
0.952451
0.952291
0.952131
0.95197
0.95181
0.951649
0.951489
0.951328
0.951168
0.951008
0.950847
0.950687
0.950526
0.950366
0.950205
0.950045
0.949884
0.949724
0.949563
0.949403
0.949243
0.949082
0.948922
0.948761
0.948601
0.94844
0.94828
0.948119
0.947959
0.947798
0.947638
0.947478
0.947317
0.947157
0.946996
0.946836
0.946675
0.946515
0.946354
0.946194
0.946034
0.945873
0.945713
0.945552
0.945392
0.945231
0.945071
0.944911
0.94475
0.94459
0.944429
0.944269
0.944109
0.943948
0.943788
0.943628
0.943467
0.943307
0.943146
0.942986
0.942826
0.942665
0.942505
0.942345
0.942184
0.942024
0.941864
0.941704
0.941543
0.941383
0.941223
0.941063
0.940902
0.940742
0.940582
0.940422
0.940261
0.940101
0.939941
0.939781
0.93962
0.93946
0.9393
0.93914
0.93898
0.93882
0.93866
0.938499
0.938339
0.938179
0.938019
0.937859
0.937699
0.937539
0.937379
0.937219
0.937059
0.936899
0.936739
0.936579
0.936419
0.936259
0.936099
0.935939
0.935779
0.935619
0.935459
0.935299
0.935139
0.934979
0.934819
0.934659
0.934499
0.93434
0.93418
0.93402
0.93386
0.9337
0.93354
0.933381
0.933221
0.933061
0.932901
0.932742
0.932582
0.932422
0.932263
0.932103
0.931943
0.931783
0.931624
0.931464
0.931305
0.931145
0.930985
0.930826
0.930666
0.930507
0.930347
0.930188
0.930028
0.929868
0.929709
0.92955
0.92939
0.929231
0.929071
0.928912
0.928752
0.928593
0.928434
0.928274
0.928115
0.927955
0.927796
0.927637
0.927477
0.927318
0.927159
0.927
0.92684
0.926681
0.926522
0.926363
0.926204
0.926044
0.925885
0.925726
0.925567
0.925408
0.925249
0.92509
0.924931
0.924772
0.924612
0.924453
0.924294
0.924135
0.923976
0.923817
0.923659
0.9235
0.923341
0.923182
0.923023
0.922864
0.922705
0.922546
0.922387
0.922229
0.92207
0.921911
0.921752
0.921594
0.921435
0.921276
0.921117
0.920959
0.9208
0.920641
0.920483
0.920324
0.920166
0.920007
0.919848
0.91969
0.919531
0.919373
0.919214
0.919056
0.918897
0.918739
0.91858
0.918422
0.918264
0.918105
0.917947
0.917788
0.91763
0.917472
0.917313
0.917155
0.916997
0.916839
0.91668
0.916522
0.916364
0.916206
0.916048
0.915889
0.915731
0.915573
0.915415
0.915257
0.915099
0.914941
0.914783
0.914625
0.914467
0.914309
0.914151
0.913993
0.913835
0.913677
0.913519
0.913361
0.913203
0.913045
0.912888
0.91273
0.912572
0.912414
0.912256
0.912099
0.911941
0.911783
0.911626
0.911468
0.91131
0.911153
0.910995
0.910837
0.91068
0.910522
0.910365
0.910207
0.91005
0.909892
0.909735
0.909577
0.90942
0.909262
0.909105
0.908948
0.90879
0.908633
0.908475
0.908318
0.908161
0.908004
0.907846
0.907689
0.907532
0.907375
0.907217
0.90706
0.906903
0.906746
0.906589
0.906432
0.906275
0.906118
0.90596
0.905803
0.905646
0.905489
0.905332
0.905176
0.905019
0.904862
0.904705
0.904548
0.904391
0.904234
0.904077
0.903921
0.903764
0.903607
0.90345
0.903293
0.903137
0.90298
0.902823
0.902667
0.90251
0.902353
0.902197
0.90204
0.901884
0.901727
0.901571
0.901414
0.901258
0.901101
0.900945
0.900788
0.900632
0.900475
0.900319
0.900163
0.900006
0.89985
0.899694
0.899537
0.899381
0.899225
0.899069
0.898913
0.898756
0.8986
0.898444
0.898288
0.898132
0.897976
0.89782
0.897664
0.897507
0.897351
0.897195
0.897039
0.896884
0.896728
0.896572
0.896416
0.89626
0.896104
0.895948
0.895792
0.895637
0.895481
0.895325
0.895169
0.895013
0.894858
0.894702
0.894546
0.894391
0.894235
0.894079
0.893924
0.893768
0.893613
0.893457
0.893302
0.893146
0.892991
0.892835
0.89268
0.892524
0.892369
0.892214
0.892058
0.891903
0.891748
0.891592
0.891437
0.891282
0.891126
0.890971
0.890816
0.890661
0.890506
0.89035
0.890195
0.89004
0.889885
0.88973
0.889575
0.88942
0.889265
0.88911
0.888955
0.8888
0.888645
0.88849
0.888335
0.88818
0.888026
0.887871
0.887716
0.887561
0.887406
0.887252
0.887097
0.886942
0.886787
0.886633
0.886478
0.886323
0.886169
0.886014
0.88586
0.885705
0.88555
0.885396
0.885241
0.885087
0.884932
0.884778
0.884624
0.884469
0.884315
0.88416
0.884006
0.883852
0.883697
0.883543
0.883389
0.883235
0.88308
0.882926
0.882772
0.882618
0.882464
0.88231
0.882155
0.882001
0.881847
0.881693
0.881539
0.881385
0.881231
0.881077
0.880923
0.880769
0.880615
0.880461
0.880308
0.880154
0.88
0.879846
0.879692
0.879539
0.879385
0.879231
0.879077
0.878924
0.87877
0.878616
0.878463
0.878309
0.878155
0.878002
0.877848
0.877695
0.877541
0.877388
0.877234
0.877081
0.876927
0.876774
0.876621
0.876467
0.876314
0.876161
0.876007
0.875854
0.875701
0.875547
0.875394
0.875241
0.875088
0.874935
0.874781
0.874628
0.874475
0.874322
0.874169
0.874016
0.873863
0.87371
0.873557
0.873404
0.873251
0.873098
0.872945
0.872792
0.872639
0.872487
0.872334
0.872181
0.872028
0.871875
0.871723
0.87157
0.871417
0.871264
0.871112
0.870959
0.870807
0.870654
0.870501
0.870349
0.870196
0.870044
0.869891
0.869739
0.869586
0.869434
0.869281
0.869129
0.868977
0.868824
0.868672
0.868519
0.868367
0.868215
0.868063
0.86791
0.867758
0.867606
0.867454
0.867302
0.867149
0.866997
0.866845
0.866693
0.866541
0.866389
0.866237
0.866085
0.865933
0.865781
0.865629
0.865477
0.865325
0.865173
0.865021
0.86487
0.864718
0.864566
0.864414
0.864262
0.864111
0.863959
0.863807
0.863656
0.863504
0.863352
0.863201
0.863049
0.862897
0.862746
0.862594
0.862443
0.862291
0.86214
0.861988
0.861837
0.861686
0.861534
0.861383
0.861231
0.86108
0.860929
0.860777
0.860626
0.860475
0.860324
0.860172
0.860021
0.85987
0.859719
0.859568
0.859417
0.859266
0.859115
0.858963
0.858812
0.858661
0.85851
0.858359
0.858209
0.858058
0.857907
0.857756
0.857605
0.857454
0.857303
0.857152
0.857002
0.856851
0.8567
0.856549
0.856399
0.856248
0.856097
0.855947
0.855796
0.855645
0.855495
0.855344
0.855194
0.855043
0.854893
0.854742
0.854592
0.854441
0.854291
0.85414
0.85399
0.85384
0.853689
0.853539
0.853389
0.853238
0.853088
0.852938
0.852788
0.852638
0.852487
0.852337
0.852187
0.852037
0.851887
0.851737
0.851587
0.851437
0.851287
0.851137
0.850987
0.850837
0.850687
0.850537
0.850387
0.850237
0.850087
0.849937
0.849788
0.849638
0.849488
0.849338
0.849189
0.849039
0.848889
0.848739
0.84859
0.84844
0.848291
0.848141
0.847991
0.847842
0.847692
0.847543
0.847393
0.847244
0.847094
0.846945
0.846796
0.846646
0.846497
0.846347
0.846198
0.846049
0.8459
0.84575
0.845601
0.845452
0.845303
0.845153
0.845004
0.844855
0.844706
0.844557
0.844408
0.844259
0.84411
0.843961
0.843812
0.843663
0.843514
0.843365
0.843216
0.843067
0.842918
0.842769
0.84262
0.842472
0.842323
0.842174
0.842025
0.841877
0.841728
0.841579
0.841431
0.841282
0.841133
0.840985
0.840836
0.840687
0.840539
0.84039
0.840242
0.840093
0.839945
0.839796
0.839648
0.8395
0.839351
0.839203
0.839055
0.838906
0.838758
0.83861
0.838461
0.838313
0.838165
0.838017
0.837868
0.83772
0.837572
0.837424
0.837276
0.837128
0.83698
0.836832
0.836684
0.836536
0.836388
0.83624
0.836092
0.835944
0.835796
0.835648
0.8355
0.835352
0.835205
0.835057
0.834909
0.834761
0.834614
0.834466
0.834318
0.83417
0.834023
0.833875
0.833728
0.83358
0.833432
0.833285
0.833137
0.83299
0.832842
0.832695
0.832547
0.8324
0.832253
0.832105
0.831958
0.83181
0.831663
0.831516
0.831369
0.831221
0.831074
0.830927
0.83078
0.830632
0.830485
0.830338
0.830191
0.830044
0.829897
0.82975
0.829603
0.829456
0.829309
0.829162
0.829015
0.828868
0.828721
0.828574
0.828427
0.82828
0.828133
0.827987
0.82784
0.827693
0.827546
0.827399
0.827253
0.827106
0.826959
0.826813
0.826666
0.826519
0.826373
0.826226
0.82608
0.825933
0.825787
0.82564
0.825494
0.825347
0.825201
0.825054
0.824908
0.824762
0.824615
0.824469
0.824323
0.824176
0.82403
0.823884
0.823738
0.823591
0.823445
0.823299
0.823153
0.823007
0.822861
0.822715
0.822568
0.822422
0.822276
0.82213
0.821984
0.821838
0.821693
0.821547
0.821401
0.821255
0.821109
0.820963
0.820817
0.820671
0.820526
0.82038
0.820234
0.820088
0.819943
0.819797
0.819651
0.819506
0.81936
0.819215
0.819069
0.818923
0.818778
0.818632
0.818487
0.818341
0.818196
0.81805
0.817905
0.81776
0.817614
0.817469
0.817324
0.817178
0.817033
0.816888
0.816742
0.816597
0.816452
0.816307
0.816162
0.816016
0.815871
0.815726
0.815581
0.815436
0.815291
0.815146
0.815001
0.814856
0.814711
0.814566
0.814421
0.814276
0.814131
0.813986
0.813842
0.813697
0.813552
0.813407
0.813262
0.813118
0.812973
0.812828
0.812684
0.812539
0.812394
0.81225
0.812105
0.81196
0.811816
0.811671
0.811527
0.811382
0.811238
0.811093
0.810949
0.810804
0.81066
0.810516
0.810371
0.810227
0.810083
0.809938
0.809794
0.80965
0.809506
0.809361
0.809217
0.809073
0.808929
0.808785
0.808641
0.808496
0.808352
0.808208
0.808064
0.80792
0.807776
0.807632
0.807488
0.807344
0.8072
0.807057
0.806913
0.806769
0.806625
0.806481
0.806337
0.806194
0.80605
0.805906
0.805762
0.805619
0.805475
0.805331
0.805188
0.805044
0.804901
0.804757
0.804613
0.80447
0.804326
0.804183
0.804039
0.803896
0.803752
0.803609
0.803466
0.803322
0.803179
0.803036
0.802892
0.802749
0.802606
0.802462
0.802319
0.802176
0.802033
0.80189
0.801747
0.801603
0.80146
0.801317
0.801174
0.801031
0.800888
0.800745
0.800602
0.800459
0.800316
0.800173
0.80003
0.799887
0.799745
0.799602
0.799459
0.799316
0.799173
0.799031
0.798888
0.798745
0.798602
0.79846
0.798317
0.798174
0.798032
0.797889
0.797747
0.797604
0.797461
0.797319
0.797176
0.797034
0.796891
0.796749
0.796607
0.796464
0.796322
0.796179
0.796037
0.795895
0.795752
0.79561
0.795468
0.795326
0.795183
0.795041
0.794899
0.794757
0.794615
0.794473
0.79433
0.794188
0.794046
0.793904
0.793762
0.79362
0.793478
0.793336
0.793194
0.793052
0.792911
0.792769
0.792627
0.792485
0.792343
0.792201
0.79206
0.791918
0.791776
0.791634
0.791493
0.791351
0.791209
0.791068
0.790926
0.790784
0.790643
0.790501
0.79036
0.790218
0.790077
0.789935
0.789794
0.789652
0.789511
0.78937
0.789228
0.789087
0.788945
0.788804
0.788663
0.788522
0.78838
0.788239
0.788098
0.787957
0.787815
0.787674
0.787533
0.787392
0.787251
0.78711
0.786969
0.786828
0.786687
0.786546
0.786405
0.786264
0.786123
0.785982
0.785841
0.7857
0.785559
0.785418
0.785278
0.785137
0.784996
0.784855
0.784715
0.784574
0.784433
0.784292
0.784152
0.784011
0.783871
0.78373
0.783589
0.783449
0.783308
0.783168
0.783027
0.782887
0.782746
0.782606
0.782465
0.782325
0.782185
0.782044
0.781904
0.781764
0.781623
0.781483
0.781343
0.781203
0.781062
0.780922
0.780782
0.780642
0.780502
0.780362
0.780221
0.780081
0.779941
0.779801
0.779661
0.779521
0.779381
0.779241
0.779101
0.778961
0.778822
0.778682
0.778542
0.778402
0.778262
0.778122
0.777983
0.777843
0.777703
0.777563
0.777424
0.777284
0.777144
0.777005
0.776865
0.776725
0.776586
0.776446
0.776307
0.776167
0.776028
0.775888
0.775749
0.775609
0.77547
0.775331
0.775191
0.775052
0.774912
0.774773
0.774634
0.774495
0.774355
0.774216
0.774077
0.773938
0.773798
0.773659
0.77352
0.773381
0.773242
0.773103
0.772964
0.772825
0.772686
0.772547
0.772408
0.772269
0.77213
0.771991
0.771852
0.771713
0.771574
0.771435
0.771296
0.771158
0.771019
0.77088
0.770741
0.770603
0.770464
0.770325
0.770187
0.770048
0.769909
0.769771
0.769632
0.769494
0.769355
0.769216
0.769078
0.768939
0.768801
0.768663
0.768524
0.768386
0.768247
0.768109
0.767971
0.767832
0.767694
0.767556
0.767417
0.767279
0.767141
0.767003
0.766865
0.766726
0.766588
0.76645
0.766312
0.766174
0.766036
0.765898
0.76576
0.765622
0.765484
0.765346
0.765208
0.76507
0.764932
0.764794
0.764656
0.764518
0.76438
0.764243
0.764105
0.763967
0.763829
0.763692
0.763554
0.763416
0.763278
0.763141
0.763003
0.762866
0.762728
0.76259
0.762453
0.762315
0.762178
0.76204
0.761903
0.761765
0.761628
0.76149
0.761353
0.761216
0.761078
0.760941
0.760804
0.760666
0.760529
0.760392
0.760255
0.760117
0.75998
0.759843
0.759706
0.759569
0.759432
0.759294
0.759157
0.75902
0.758883
0.758746
0.758609
0.758472
0.758335
0.758198
0.758061
0.757924
0.757788
0.757651
0.757514
0.757377
0.75724
0.757103
0.756967
0.75683
0.756693
0.756556
0.75642
0.756283
0.756146
0.75601
0.755873
0.755737
0.7556
0.755463
0.755327
0.75519
0.755054
0.754917
0.754781
0.754645
0.754508
0.754372
0.754235
0.754099
0.753963
0.753826
0.75369
0.753554
0.753418
0.753281
0.753145
0.753009
0.752873
0.752737
0.7526
0.752464
0.752328
0.752192
0.752056
0.75192
0.751784
0.751648
0.751512
0.751376
0.75124
0.751104
0.750968
0.750832
0.750696
0.750561
0.750425
0.750289
0.750153
0.750017
0.749882
0.749746
0.74961
0.749475
0.749339
0.749203
0.749068
0.748932
0.748796
0.748661
0.748525
0.74839
0.748254
0.748119
0.747983
0.747848
0.747712
0.747577
0.747441
0.747306
0.747171
0.747035
0.7469
0.746765
0.74663
0.746494
0.746359
0.746224
0.746089
0.745953
0.745818
0.745683
0.745548
0.745413
0.745278
0.745143
0.745008
0.744873
0.744738
0.744603
0.744468
0.744333
0.744198
0.744063
0.743928
0.743793
0.743658
0.743523
0.743389
0.743254
0.743119
0.742984
0.74285
0.742715
0.74258
0.742446
0.742311
0.742176
0.742042
0.741907
0.741772
0.741638
0.741503
0.741369
0.741234
0.7411
0.740965
0.740831
0.740697
0.740562
0.740428
0.740293
0.740159
0.740025
0.73989
0.739756
0.739622
0.739488
0.739353
0.739219
0.739085
0.738951
0.738817
0.738683
0.738548
0.738414
0.73828
0.738146
0.738012
0.737878
0.737744
0.73761
0.737476
0.737342
0.737208
0.737074
0.736941
0.736807
0.736673
0.736539
0.736405
0.736271
0.736138
0.736004
0.73587
0.735737
0.735603
0.735469
0.735336
0.735202
0.735068
0.734935
0.734801
0.734668
0.734534
0.734401
0.734267
0.734134
0.734
0.733867
0.733733
0.7336
0.733467
0.733333
0.7332
0.733067
0.732933
0.7328
0.732667
0.732534
0.7324
0.732267
0.732134
0.732001
0.731868
0.731734
0.731601
0.731468
0.731335
0.731202
0.731069
0.730936
0.730803
0.73067
0.730537
0.730404
0.730271
0.730139
0.730006
0.729873
0.72974
0.729607
0.729474
0.729342
0.729209
0.729076
0.728943
0.728811
0.728678
0.728545
0.728413
0.72828
0.728148
0.728015
0.727882
0.72775
0.727617
0.727485
0.727352
0.72722
0.727087
0.726955
0.726823
0.72669
0.726558
0.726426
0.726293
0.726161
0.726029
0.725896
0.725764
0.725632
0.7255
0.725367
0.725235
0.725103
0.724971
0.724839
0.724707
0.724575
0.724443
0.724311
0.724179
0.724047
0.723915
0.723783
0.723651
0.723519
0.723387
0.723255
0.723123
0.722991
0.722859
0.722728
0.722596
0.722464
0.722332
0.722201
0.722069
0.721937
0.721805
0.721674
0.721542
0.721411
0.721279
0.721147
0.721016
0.720884
0.720753
0.720621
0.72049
0.720358
0.720227
0.720095
0.719964
0.719833
0.719701
0.71957
0.719439
0.719307
0.719176
0.719045
0.718914
0.718782
0.718651
0.71852
0.718389
0.718258
0.718126
0.717995
0.717864
0.717733
0.717602
0.717471
0.71734
0.717209
0.717078
0.716947
0.716816
0.716685
0.716554
0.716423
0.716293
0.716162
0.716031
0.7159
0.715769
0.715638
0.715508
0.715377
0.715246
0.715116
0.714985
0.714854
0.714724
0.714593
0.714462
0.714332
0.714201
0.714071
0.71394
0.71381
0.713679
0.713549
0.713418
0.713288
0.713157
0.713027
0.712897
0.712766
0.712636
0.712506
0.712375
0.712245
0.712115
0.711985
0.711854
0.711724
0.711594
0.711464
0.711334
0.711204
0.711074
0.710943
0.710813
0.710683
0.710553
0.710423
0.710293
0.710163
0.710033
0.709903
0.709774
0.709644
0.709514
0.709384
0.709254
0.709124
0.708994
0.708865
0.708735
0.708605
0.708475
0.708346
0.708216
0.708086
0.707957
0.707827
0.707698
0.707568
0.707438
0.707309
0.707179
0.70705
0.70692
0.706791
0.706661
0.706532
0.706402
0.706273
0.706144
0.706014
0.705885
0.705756
0.705626
0.705497
0.705368
0.705239
0.705109
0.70498
0.704851
0.704722
0.704593
0.704464
0.704334
0.704205
0.704076
0.703947
0.703818
0.703689
0.70356
0.703431
0.703302
0.703173
0.703044
0.702915
0.702787
0.702658
0.702529
0.7024
0.702271
0.702142
0.702014
0.701885
0.701756
0.701627
0.701499
0.70137
0.701241
0.701113
0.700984
0.700856
0.700727
0.700598
0.70047
0.700341
0.700213
0.700084
0.699956
0.699827
0.699699
0.699571
0.699442
0.699314
0.699185
0.699057
0.698929
0.6988
0.698672
0.698544
0.698416
0.698287
0.698159
0.698031
0.697903
0.697775
0.697647
0.697519
0.69739
0.697262
0.697134
0.697006
0.696878
0.69675
0.696622
0.696494
0.696366
0.696238
0.696111
0.695983
0.695855
0.695727
0.695599
0.695471
0.695344
0.695216
0.695088
0.69496
0.694833
0.694705
0.694577
0.69445
0.694322
0.694194
0.694067
0.693939
0.693812
0.693684
0.693556
0.693429
0.693301
0.693174
0.693047
0.692919
0.692792
0.692664
0.692537
0.69241
0.692282
0.692155
0.692028
0.6919
0.691773
0.691646
0.691519
0.691391
0.691264
0.691137
0.69101
0.690883
0.690756
0.690629
0.690502
0.690374
0.690247
0.69012
0.689993
0.689866
0.689739
0.689613
0.689486
0.689359
0.689232
0.689105
0.688978
0.688851
0.688724
0.688598
0.688471
0.688344
0.688217
0.688091
0.687964
0.687837
0.687711
0.687584
0.687457
0.687331
0.687204
0.687078
0.686951
0.686825
0.686698
0.686572
0.686445
0.686319
0.686192
0.686066
0.685939
0.685813
0.685687
0.68556
0.685434
0.685308
0.685181
0.685055
0.684929
0.684803
0.684676
0.68455
0.684424
0.684298
0.684172
0.684046
0.683919
0.683793
0.683667
0.683541
0.683415
0.683289
0.683163
0.683037
0.682911
0.682785
0.682659
0.682534
0.682408
0.682282
0.682156
0.68203
0.681904
0.681779
0.681653
0.681527
0.681401
0.681276
0.68115
0.681024
0.680899
0.680773
0.680647
0.680522
0.680396
0.680271
0.680145
0.68002
0.679894
0.679769
0.679643
0.679518
0.679392
0.679267
0.679141
0.679016
0.678891
0.678765
0.67864
0.678515
0.678389
0.678264
0.678139
0.678014
0.677889
0.677763
0.677638
0.677513
0.677388
0.677263
0.677138
0.677013
0.676888
0.676763
0.676637
0.676512
0.676388
0.676263
0.676138
0.676013
0.675888
0.675763
0.675638
0.675513
0.675388
0.675263
0.675139
0.675014
0.674889
0.674764
0.67464
0.674515
0.67439
0.674266
0.674141
0.674016
0.673892
0.673767
0.673643
0.673518
0.673393
0.673269
0.673144
0.67302
0.672895
0.672771
0.672647
0.672522
0.672398
0.672273
0.672149
0.672025
0.6719
0.671776
0.671652
0.671528
0.671403
0.671279
0.671155
0.671031
0.670907
0.670782
0.670658
0.670534
0.67041
0.670286
0.670162
0.670038
0.669914
0.66979
0.669666
0.669542
0.669418
0.669294
0.66917
0.669046
0.668922
0.668798
0.668675
0.668551
0.668427
0.668303
0.668179
0.668056
0.667932
0.667808
0.667685
0.667561
0.667437
0.667314
0.66719
0.667066
0.666943
0.666819
0.666696
0.666572
0.666449
0.666325
0.666202
0.666078
0.665955
0.665831
0.665708
0.665585
0.665461
0.665338
0.665215
0.665091
0.664968
0.664845
0.664722
0.664598
0.664475
0.664352
0.664229
0.664106
0.663982
0.663859
0.663736
0.663613
0.66349
0.663367
0.663244
0.663121
0.662998
0.662875
0.662752
0.662629
0.662506
0.662383
0.66226
0.662138
0.662015
0.661892
0.661769
0.661646
0.661524
0.661401
0.661278
0.661155
0.661033
0.66091
0.660787
0.660665
0.660542
0.660419
0.660297
0.660174
0.660052
0.659929
0.659807
0.659684
0.659562
0.659439
0.659317
0.659194
0.659072
0.65895
0.658827
0.658705
0.658582
0.65846
0.658338
0.658216
0.658093
0.657971
0.657849
0.657727
0.657604
0.657482
0.65736
0.657238
0.657116
0.656994
0.656872
0.65675
0.656628
0.656506
0.656384
0.656262
0.65614
0.656018
0.655896
0.655774
0.655652
0.65553
0.655409
0.655287
0.655165
0.655044
0.654922
0.6548
0.654679
0.654557
0.654435
0.654313
0.654191
0.654069
0.653947
0.653826
0.653704
0.653583
0.653462
0.653342
0.653222
0.653103
0.652984
0.652867
0.65275
0.652633
0.652517
0.6524
0.652282
0.65216
0.652035
0.651909
0.651782
0.651656
0.651531
0.651408
0.651286
0.651165
0.651047
0.650931
0.650817
0.650707
0.6506
0.650496
0.650396
0.650299
0.650203
0.650107
0.650007
0.6499
0.649782
0.649655
0.64952
0.64938
0.64924
0.649102
0.648968
0.648836
0.648706
0.648581
0.648458
0.648339
0.648224
0.648113
0.648006
0.647903
0.647804
0.647709
0.647616
0.647526
0.647435
0.647343
0.647245
0.64714
0.647025
0.646901
0.64677
0.646634
0.646493
0.646352
0.646212
0.646075
0.645939
0.645805
0.645674
0.645544
0.645418
0.645294
0.645172
0.645053
0.644937
0.644823
0.644712
0.644604
0.644498
0.644394
0.644292
0.644192
0.644092
0.643992
0.643892
0.643789
0.643682
0.643569
0.643451
0.643328
0.643199
0.643066
0.642931
0.642795
0.642659
0.642525
0.642391
0.642259
0.642128
0.641998
0.64187
0.641743
0.641618
0.641494
0.641373
0.641252
0.641134
0.641017
0.640902
0.640788
0.640676
0.640565
0.640456
0.640348
0.64024
0.640134
0.640029
0.639923
0.639818
0.639712
0.639603
0.639492
0.639377
0.639259
0.639136
0.639011
0.638882
0.638751
0.638619
0.638487
0.638355
0.638224
0.638094
0.637964
0.637835
0.637707
0.63758
0.637454
0.637329
0.637205
0.637082
0.63696
0.636839
0.63672
0.636601
0.636484
0.636367
0.636252
0.636138
0.636025
0.635913
0.635802
0.635691
0.635582
0.635473
0.635365
0.635257
0.635149
0.635042
0.634934
0.634825
0.634714
0.6346
0.634484
0.634365
0.634243
0.634118
0.633991
0.633862
0.633733
0.633602
0.633473
0.633343
0.633214
0.633086
0.632958
0.63283
0.632704
0.632577
0.632452
0.632327
0.632202
0.632079
0.631956
0.631834
0.631712
0.631591
0.631471
0.631352
0.631234
0.631116
0.630999
0.630883
0.630767
0.630653
0.630539
0.630426
0.630313
0.630201
0.63009
0.629979
0.629869
0.62976
0.62965
0.629542
0.629433
0.629324
0.629214
0.629103
0.62899
0.628876
0.628758
0.628639
0.628517
0.628393
0.628267
0.62814
0.628012
0.627883
0.627754
0.627626
0.627497
0.627369
0.627241
0.627114
0.626987
0.62686
0.626733
0.626606
0.62648
0.626354
0.626228
0.626102
0.625977
0.625852
0.625727
0.625602
0.625478
0.625353
0.625229
0.625105
0.624982
0.624858
0.624735
0.624612
0.624489
0.624367
0.624244
0.624122
0.624
0.623878
0.623756
0.623635
0.623514
0.623393
0.623271
0.623151
0.62303
0.62291
0.622789
0.62267
0.62255
0.622431
0.622311
0.622193
0.622073
0.621956
0.621835
0.62172
0.621599
0.621485
0.621364
0.621251
0.62113
0.621019
0.620898
0.620788
0.620666
0.620557
0.620436
0.620328
0.620206
0.6201
0.619976
0.619871
0.619746
0.61964
0.619514
0.619407
0.619279
0.619172
0.619045
0.618938
0.618811
0.618704
0.618578
0.618472
0.618347
0.61824
0.618118
0.618011
0.617891
0.617784
0.617666
0.617559
0.617444
0.617337
0.617224
0.617117
0.617006
0.6169
0.61679
0.616682
0.616572
0.616461
0.616347
0.616231
0.616114
0.615995
0.615875
0.615756
0.615637
0.615518
0.6154
0.615283
0.615166
0.615049
0.614933
0.614818
0.614704
0.61459
0.614477
0.614364
0.614253
0.614142
0.614032
0.613923
0.613814
0.613705
0.613597
0.613489
0.61338
0.61327
0.613158
0.613043
0.612927
0.612808
0.612689
0.612569
0.612449
0.61233
0.612212
0.612093
0.611976
0.611859
0.611742
0.611626
0.611511
0.611397
0.611283
0.61117
0.611058
0.610946
0.610835
0.610725
0.610615
0.610506
0.610397
0.610288
0.610178
0.610068
0.609955
0.60984
0.609724
0.609606
0.609486
0.609367
0.609248
0.609129
0.60901
0.608892
0.608775
0.608658
0.608542
0.608426
0.608311
0.608197
0.608083
0.60797
0.607859
0.607747
0.607637
0.607527
0.607418
0.607309
0.607201
0.607092
0.606983
0.606872
0.60676
0.606645
0.606528
0.60641
0.60629
0.606171
0.606051
0.605932
0.605813
0.605695
0.605578
0.605461
0.605345
0.605229
0.605114
0.605
0.604887
0.604775
0.604663
0.604553
0.604443
0.604334
0.604226
0.604119
0.604012
0.603904
0.603797
0.603687
0.603576
0.603463
0.603347
0.603228
0.603109
0.602989
0.602868
0.602749
0.602629
0.602511
0.602393
0.602275
0.602158
0.602043
0.601927
0.601813
0.6017
0.601587
0.601476
0.601366
0.601257
0.601149
0.601041
0.600935
0.600829
0.600723
0.600617
0.60051
0.600402
0.600291
0.600177
0.600061
0.599942
0.599822
0.599701
0.599581
0.599461
0.599341
0.599222
0.599104
0.598986
0.598869
0.598753
0.598638
0.598524
0.598411
0.5983
0.598189
0.598079
0.597971
0.597864
0.597757
0.597652
0.597547
0.597442
0.597338
0.597233
0.597125
0.597016
0.596904
0.596788
0.596671
0.596551
0.59643
0.596309
0.596189
0.596069
0.595949
0.595831
0.595713
0.595595
0.595479
0.595364
0.595249
0.595136
0.595024
0.594913
0.594804
0.594695
0.594588
0.594482
0.594377
0.594272
0.594169
0.594065
0.593961
0.593856
0.59375
0.59364
0.593528
0.593413
0.593295
0.593175
0.593055
0.592934
0.592813
0.592694
0.592574
0.592456
0.592338
0.592221
0.592104
0.591989
0.591875
0.591762
0.59165
0.59154
0.591431
0.591323
0.591216
0.59111
0.591006
0.590902
0.590799
0.590696
0.590593
0.590489
0.590383
0.590275
0.590165
0.590051
0.589935
0.589817
0.589697
0.589576
0.589456
0.589336
0.589217
0.589098
0.58898
0.588863
0.588746
0.588631
0.588516
0.588403
0.588291
0.58818
0.588071
0.587962
0.587855
0.587749
0.587644
0.58754
0.587437
0.587335
0.587232
0.58713
0.587026
0.586921
0.586813
0.586702
0.586589
0.586473
0.586355
0.586236
0.586116
0.585996
0.585876
0.585757
0.585639
0.585522
0.585405
0.585289
0.585174
0.58506
0.584947
0.584835
0.584724
0.584615
0.584507
0.5844
0.584294
0.58419
0.584086
0.583983
0.583881
0.583779
0.583677
0.583575
0.58347
0.583364
0.583255
0.583143
0.583028
0.582912
0.582794
0.582674
0.582555
0.582436
0.582317
0.582199
0.582081
0.581965
0.581849
0.581734
0.58162
0.581506
0.581394
0.581284
0.581174
0.581066
0.580959
0.580853
0.580748
0.580644
0.580541
0.580439
0.580338
0.580236
0.580135
0.580032
0.579928
0.579821
0.579712
0.5796
0.579486
0.579369
0.579251
0.579133
0.579014
0.578895
0.578777
0.57866
0.578543
0.578427
0.578311
0.578197
0.578083
0.57797
0.577859
0.577749
0.57764
0.577532
0.577425
0.57732
0.577216
0.577113
0.57701
0.576909
0.576808
0.576707
0.576606
0.576504
0.5764
0.576294
0.576186
0.576075
0.575962
0.575846
0.575729
0.575611
0.575492
0.575374
0.575256
0.575139
0.575023
0.574907
0.574792
0.574677
0.574564
0.574451
0.57434
0.57423
0.574121
0.574013
0.573907
0.573802
0.573698
0.573595
0.573493
0.573392
0.573291
0.573191
0.573091
0.57299
0.572888
0.572784
0.572678
0.572569
0.572457
0.572343
0.572227
0.57211
0.571992
0.571874
0.571756
0.571639
0.571523
0.571407
0.571291
0.571177
0.571063
0.57095
0.570839
0.570728
0.570619
0.570511
0.570404
0.570298
0.570194
0.570091
0.569989
0.569888
0.569788
0.569689
0.569589
0.56949
0.56939
0.569288
0.569185
0.569079
0.56897
0.568859
0.568746
0.56863
0.568514
0.568396
0.568278
0.568161
0.568044
0.567928
0.567812
0.567697
0.567582
0.567469
0.567356
0.567245
0.567135
0.567026
0.566918
0.566811
0.566706
0.566602
0.5665
0.566398
0.566298
0.566199
0.5661
0.566001
0.565903
0.565804
0.565704
0.565602
0.565498
0.565391
0.565282
0.56517
0.565056
0.56494
0.564823
0.564706
0.564588
0.564471
0.564355
0.564239
0.564124
0.564009
0.563895
0.563783
0.563671
0.56356
0.563451
0.563343
0.563236
0.56313
0.563026
0.562924
0.562822
0.562722
0.562623
0.562524
0.562427
0.562329
0.562232
0.562134
0.562034
0.561933
0.561829