/*--------------------------------*- C++ -*----------------------------------*\
  =========                 |
  \\      /  F ield         | OpenFOAM: The Open Source CFD Toolbox
   \\    /   O peration     | Website:  https://openfoam.org
    \\  /    A nd           | Version:  9
     \\/     M anipulation  |
\*---------------------------------------------------------------------------*/
FoamFile
{
    format      ascii;
    class       volScalarField;
    location    "0.045";
    object      p;
}
// * * * * * * * * * * * * * * * * * * * * * * * * * * * * * * * * * * * * * //

dimensions      [1 -1 -2 0 0 0 0];

internalField   nonuniform List<scalar> 
10000
(
43722.4
43717
43713.8
43710.2
43706.7
43703.2
43699.7
43696.2
43692.8
43689.3
43685.8
43682.3
43678.8
43675.3
43671.8
43668.3
43664.8
43661.3
43657.8
43654.4
43650.9
43647.4
43643.9
43640.4
43636.9
43633.4
43630
43626.5
43623
43619.5
43616
43612.5
43609
43605.5
43602
43598.5
43595.1
43591.6
43588.1
43584.6
43581.1
43577.6
43574.1
43570.7
43567.2
43563.7
43560.2
43556.7
43553.3
43549.8
43546.3
43542.8
43539.3
43535.9
43532.4
43528.9
43525.4
43521.9
43518.5
43515
43511.5
43508
43504.5
43501.1
43497.6
43494.1
43490.7
43487.2
43483.7
43480.2
43476.8
43473.3
43469.8
43466.3
43462.8
43459.4
43455.9
43452.4
43449
43445.5
43442
43438.5
43435
43431.6
43428.1
43424.6
43421.2
43417.7
43414.3
43410.8
43407.3
43403.8
43400.4
43396.9
43393.4
43389.9
43386.5
43383
43379.5
43376.1
43372.6
43369.1
43365.7
43362.2
43358.7
43355.3
43351.8
43348.3
43344.8
43341.3
43337.9
43334.5
43331
43327.5
43324
43320.5
43317
43313.6
43310.2
43306.7
43303.3
43299.8
43296.3
43292.8
43289.3
43285.9
43282.4
43279
43275.6
43272.1
43268.6
43265.1
43261.6
43258.2
43254.8
43251.5
43248
43244.4
43240.8
43237.2
43233.8
43230.5
43227.3
43223.9
43220.3
43216.7
43213.1
43209.6
43206.2
43202.9
43199.6
43196
43192.4
43188.9
43185.4
43182.1
43178.7
43175.3
43171.8
43168.3
43164.8
43161.5
43158.1
43154.5
43150.8
43147.3
43144.1
43141.4
43138.1
43134.3
43130.4
43126.5
43122.8
43119.3
43116.8
43114.2
43110.5
43106.6
43102.6
43098.7
43094.9
43091.5
43089
43086.4
43082.8
43078.9
43074.9
43071.1
43067.4
43064.2
43061.8
43058.8
43055
43051.1
43047.3
43043.6
43040.3
43037.9
43035
43031.2
43027.2
43023.3
43019.4
43015.9
43013.3
43010.9
43007.3
43003.3
42999.3
42995.3
42991.5
42988.1
42986
42983.3
42979.5
42975.5
42971.5
42967.6
42963.8
42960.7
42958.7
42955.7
42951.8
42947.8
42943.9
42940
42936.3
42933.7
42931.5
42927.9
42924
42920
42916.1
42912.4
42909.4
42907.2
42903.9
42900
42896.1
42892.2
42888.5
42885.2
42882.4
42879.2
42875.8
42872.7
42870.1
42866.7
42862.7
42858.8
42854.8
42850.8
42847
42843.7
42841.6
42839.1
42835.3
42831.3
42827.3
42823.3
42819.4
42815.7
42812.7
42811.3
42808.5
42804.6
42800.5
42796.5
42792.6
42788.8
42785.5
42783.6
42780.9
42777
42773
42769
42765.1
42761.3
42757.9
42755.5
42752.8
42749.1
42745.3
42741.7
42738.5
42736
42732.6
42728.7
42724.7
42720.8
42717
42713.6
42711.4
42708.7
42704.9
42700.9
42697
42693
42689.2
42685.7
42683.5
42681.3
42677.7
42673.7
42669.8
42665.8
42662
42658.7
42656.7
42654.3
42650.5
42646.5
42642.6
42638.6
42634.8
42631.4
42629.2
42626.6
42622.9
42618.9
42615
42611.1
42607.4
42604.6
42602.4
42599
42595
42591.1
42587.2
42583.5
42580.4
42578.3
42575
42571.1
42567.2
42563.3
42559.4
42555.9
42553.4
42551.2
42547.6
42543.6
42539.7
42535.7
42531.8
42528.2
42525.3
42524.1
42521.5
42517.6
42513.6
42509.5
42505.5
42501.6
42497.7
42493.8
42490.2
42487.4
42486.7
42484.9
42481.1
42477.1
42473.1
42469.1
42465.2
42461.3
42457.4
42453.7
42450.8
42448.8
42445.7
42441.8
42437.9
42434
42430.2
42426.8
42424.4
42421.6
42417.8
42413.8
42409.9
42406.1
42402.6
42400
42398
42394.5
42390.6
42386.6
42382.7
42379
42375.6
42373.6
42371.3
42367.6
42363.7
42359.7
42355.8
42351.9
42348.1
42344.8
42342.9
42340.4
42336.6
42332.7
42328.7
42324.8
42321
42317.5
42315
42313.2
42309.8
42305.9
42301.9
42298
42294.1
42290.4
42287.3
42285.4
42282.6
42278.7
42274.8
42270.8
42266.9
42263
42259.1
42255.4
42252
42249.9
42249.4
42246.6
42242.7
42238.8
42234.7
42230.8
42226.9
42223
42219.1
42215.2
42211.5
42208.2
42206.5
42205.3
42201.9
42198
42194
42190.1
42186.2
42182.5
42179.4
42177.2
42173.9
42170.1
42166.2
42162.3
42158.5
42155.2
42152.9
42150.1
42146.4
42142.5
42138.6
42134.7
42131
42127.8
42125.7
42122.8
42119
42115.1
42111.1
42107.2
42103.4
42099.8
42096.9
42096.1
42094
42090.3
42086.3
42082.2
42078.2
42074.4
42070.6
42067.3
42064.8
42061.7
42057.9
42054
42050.1
42046.2
42042.3
42038.5
42034.8
42031.9
42031.3
42030.5
42027
42023
42018.6
42014
42010
42006.2
42002.3
41998.7
41995.7
41993.9
41991.1
41987.3
41983.4
41979.5
41975.6
41971.8
41968.3
41965.7
41965.1
41962.8
41959
41955
41950.7
41946.6
41942.7
41938.8
41935.1
41931.8
41929.7
41927.4
41923.7
41919.9
41916
41912.1
41908.3
41904.8
41902.2
41900
41896.6
41892.8
41888.9
41885
41881.2
41877.6
41874.7
41872.8
41869.7
41865.9
41862
41858.2
41854.4
41850.9
41848.2
41845.6
41842
41838.1
41834.2
41830.4
41826.5
41822.9
41819.7
41818.6
41818.2
41815
41811.1
41806.7
41802
41797.8
41794
41790.2
41786.5
41783.5
41781.9
41779.3
41775.6
41771.7
41767.8
41764
41760.2
41756.7
41754.1
41752.2
41748.9
41745
41741.2
41737.3
41733.5
41729.8
41726.4
41724.1
41721.4
41717.7
41713.9
41709.9
41706
41702.1
41698.3
41694.5
41691.1
41688.8
41689.2
41687.6
41683.9
41679.8
41675.1
41670.1
41665.9
41662.1
41658.3
41654.5
41650.9
41647.9
41647.2
41647.1
41643.9
41640
41635.7
41631.1
41627.1
41623.3
41619.5
41616
41613.4
41610.9
41607.3
41603.4
41599.6
41595.7
41591.9
41588.1
41584.7
41582
41581.5
41579.5
41575.8
41571.8
41567.6
41563.5
41559.7
41555.9
41552.4
41549.5
41547.4
41544.1
41540.3
41536.5
41532.7
41528.9
41525.5
41522.9
41520.6
41517.2
41513.3
41509.5
41505.7
41502
41498.7
41496.4
41493.9
41490.3
41486.5
41482.7
41478.9
41475.2
41471.7
41469
41467.5
41464.4
41460.6
41456.8
41453
41449.2
41445.4
41442
41439.4
41436.9
41433.3
41429.5
41425.7
41421.9
41418.1
41414.5
41411.3
41409.5
41407.1
41403.4
41399.6
41395.8
41392
41388.3
41384.8
41382.2
41381.2
41378.5
41374.8
41370.9
41366.9
41363
41359.3
41355.6
41352.2
41349.8
41347.5
41343.9
41340.1
41336.3
41332.6
41328.9
41325.4
41322.8
41320.3
41316.7
41313
41309.3
41305.7
41302.4
41299.8
41296.6
41292.9
41289.1
41285.2
41281.4
41277.6
41273.9
41270.2
41267
41265.4
41265.8
41263.4
41259.6
41255.5
41250.9
41246.6
41242.8
41239
41235.4
41232.2
41230
41227.1
41223.4
41219.6
41215.8
41212.1
41208.5
41205.3
41203.1
41200.1
41196.3
41192.6
41188.8
41185
41181.5
41178.5
41177.5
41175.8
41172.3
41168.5
41164.3
41160
41156.2
41152.4
41148.7
41145.3
41142.9
41141.4
41138.3
41134.6
41130.8
41127
41123.2
41119.6
41116.3
41113.8
41110.6
41106.8
41103.1
41099.2
41095.4
41091.6
41087.9
41084.2
41080.9
41078.7
41079.1
41077.4
41073.8
41069.8
41065.4
41061.1
41057.2
41053.5
41049.9
41046.6
41044
41040.7
41037
41033.2
41029.4
41025.5
41021.8
41018
41014.3
41011
41008.6
41009.1
41007.9
41004.4
41000.4
40995.9
40990.7
40986.4
40982.5
40978.8
40975.1
40971.9
40969.8
40970.3
40968.5
40964.8
40960.8
40956.3
40951.9
40948
40944.3
40940.6
40937.3
40934.8
40932.2
40928.7
40924.9
40921.2
40917.5
40913.9
40910.6
40908.1
40905.1
40901.4
40897.7
40893.9
40890.2
40886.5
40882.8
40879.5
40877.3
40877.4
40875.3
40871.6
40867.6
40863.2
40859.1
40855.3
40851.5
40848
40844.8
40842.4
40839.4
40835.7
40831.9
40828.1
40824.3
40820.6
40816.8
40813.2
40809.8
40807.2
40807.4
40806.9
40803.6
40799.7
40795.5
40790.7
40786.6
40782.8
40779.1
40775.5
40772.1
40769.6
40767.4
40764
40760.2
40756.5
40752.8
40749
40745.3
40741.7
40738.2
40735.2
40733.1
40731.8
40728.8
40725.2
40721.5
40717.8
40714.1
40710.3
40706.6
40703
40699.5
40696.6
40694.7
40691.7
40688.1
40684.4
40680.6
40677
40673.5
40670.6
40668.2
40664.9
40661.2
40657.4
40653.7
40650
40646.3
40642.6
40639.2
40636.4
40636.1
40635.4
40632.1
40628.2
40624
40619.3
40615.3
40611.5
40607.9
40604.3
40601.2
40598.8
40595.6
40592
40588.2
40584.5
40580.7
40577
40573.3
40569.7
40566.4
40564.4
40565
40563.3
40559.7
40555.8
40551.2
40545.9
40541.6
40537.9
40534.2
40530.7
40527.6
40526.2
40526.7
40524.2
40520.5
40516.6
40512
40507.4
40503.5
40499.8
40496.1
40492.4
40488.8
40485.3
40482.4
40481.4
40480.1
40476.7
40473
40469
40465
40461.3
40457.6
40453.9
40450.4
40447.3
40445.4
40442.8
40439.3
40435.6
40431.9
40428.2
40424.6
40421.1
40418.3
40416.1
40412.8
40409.1
40405.4
40401.8
40398.2
40394.8
40392.1
40389.5
40386.1
40382.4
40378.8
40375.2
40371.9
40369.2
40366.4
40362.9
40359.2
40355.6
40351.9
40348.2
40344.7
40341.7
40340.4
40340.2
40337.3
40333.6
40329.6
40325.1
40321
40317.2
40313.6
40310.1
40306.9
40304.7
40302.3
40298.8
40295.2
40291.5
40287.8
40284.2
40280.8
40278
40275.9
40272.7
40269.1
40265.4
40261.8
40258.1
40254.6
40251.4
40248.6
40245.2
40241.6
40237.9
40234.3
40230.7
40227.2
40224.2
40223.3
40223.2
40220.2
40216.5
40212.5
40208.1
40204
40200.3
40196.6
40193
40189.6
40186.4
40183
40179.3
40175.7
40172
40168.4
40164.8
40161.5
40159.1
40159.4
40159
40155.7
40152
40147.9
40143.2
40139
40135.3
40131.7
40128.1
40124.6
40121.5
40118.8
40115.4
40111.8
40108.2
40104.8
40101.6
40099.7
40098
40094.8
40091.1
40087.4
40083.7
40080.1
40076.4
40072.9
40069.6
40067
40064.2
40060.7
40057
40053.4
40049.8
40046.3
40043.3
40041
40038.1
40034.5
40030.9
40027.2
40023.6
40019.9
40016.4
40013
40010.4
40010.2
40009.3
40005.9
40002.2
39998.2
39993.5
39989.4
39985.7
39982.1
39978.5
39974.9
39971.6
39969.1
39967.7
39964.8
39961.2
39957.5
39953.8
39950
39946.3
39942.7
39939.1
39935.5
39931.8
39928.3
39925
39922.5
39922.8
39922.6
39919.5
39915.7
39911.7
39907
39902.6
39898.8
39895.2
39891.6
39888
39884.5
39881.4
39878.8
39875.8
39872.4
39869.1
39866.1
39863.7
39860.8
39857.3
39853.7
39850
39846.4
39842.8
39839.3
39836.2
39833.8
39830.9
39827.4
39823.7
39820.1
39816.5
39813
39809.8
39807.6
39807.1
39804.7
39801.1
39797.4
39793.4
39789.1
39785.3
39781.7
39778.1
39774.4
39770.9
39767.3
39764.1
39761.8
39761.4
39759.3
39755.8
39752.1
39748.2
39744.3
39740.7
39737.1
39733.5
39730.1
39727.1
39725
39722.1
39718.6
39715
39711.4
39707.8
39704.4
39701.5
39699.3
39696.3
39692.7
39689.1
39685.5
39681.9
39678.3
39674.8
39671.4
39668.4
39666.8
39664.4
39661
39657.4
39653.7
39650
39646.4
39642.8
39639.2
39635.6
39632
39628.5
39625.2
39622.5
39622.3
39622.3
39619.4
39615.7
39611.9
39607.3
39602.7
39598.9
39595.3
39591.7
39588.1
39584.6
39581.2
39578.1
39576.4
39575
39571.9
39568.3
39564.7
39560.9
39557.2
39553.6
39550
39546.5
39542.9
39539.3
39535.8
39532.5
39529.7
39529.1
39528.1
39524.8
39521.2
39517.3
39513.2
39509.4
39505.8
39502.2
39498.8
39495.7
39493.4
39490.6
39487.1
39483.5
39479.9
39476.3
39472.7
39469.2
39465.6
39462.3
39459.5
39458.5
39457
39453.6
39450
39446.3
39442.5
39438.9
39435.4
39431.9
39428.5
39425.6
39423.1
39419.8
39416.3
39412.7
39409.2
39405.7
39402.4
39399.6
39396.6
39393.2
39389.6
39386.1
39382.5
39378.9
39375.5
39372.4
39370.4
39370.8
39369.1
39365.7
39362
39357.9
39353
39348.7
39345
39341.4
39337.9
39334.4
39331
39328.1
39326.8
39325.1
39321.8
39318.2
39314.6
39310.7
39306.8
39303.2
39299.6
39296.1
39292.6
39289.2
39286.3
39285.2
39285.4
39282.8
39279.2
39275.5
39271.2
39266.8
39263
39259.4
39255.9
39252.3
39248.8
39245.3
39241.9
39238.8
39237.1
39236
39233
39229.4
39225.9
39222.2
39218.7
39215.1
39211.6
39208.1
39204.7
39201.7
39199.6
39196.9
39193.5
39190
39186.5
39183.1
39180
39177.3
39174.2
39170.7
39167.1
39163.6
39160.1
39156.5
39153
39149.7
39146.7
39145.2
39143.5
39140.3
39136.7
39133.1
39129.2
39124.9
39121
39117.5
39113.9
39110.4
39106.9
39103.5
39100.5
39099
39100.4
39099.5
39096.3
39092.7
39088.7
39083.9
39078.8
39074.9
39071.4
39067.8
39064.3
39060.8
39057.3
39053.8
39050.3
39047.3
39045.5
39045.4
39043
39039.6
39035.9
39032.1
39028.3
39024.7
39021.2
39017.8
39014.5
39011.9
39009.7
39006.4
39002.9
38999.4
38995.9
38992.4
38988.9
38985.5
38982.4
38979.3
38975.9
38972.4
38968.9
38965.4
38961.9
38958.4
38954.9
38951.7
38949.1
38949
38949.2
38946.5
38942.9
38939.2
38934.8
38930.3
38926.6
38923.1
38919.6
38916.2
38913.1
38910.7
38907.9
38904.4
38900.9
38897.4
38893.9
38890.4
38886.9
38883.4
38880
38876.6
38873.4
38870.1
38866.8
38863.5
38860.7
38859.3
38860
38857.9
38854.4
38850.8
38846.8
38842
38837.9
38834.3
38830.8
38827.3
38823.8
38820.5
38817.3
38814.2
38810.8
38807.3
38803.9
38800.5
38797.4
38795.1
38795.3
38794.2
38790.9
38787.3
38783.5
38778.8
38774.1
38770.4
38766.9
38763.4
38760
38756.8
38754.5
38753.3
38750.7
38747.3
38743.8
38740.1
38736.2
38732.4
38728.9
38725.4
38722
38718.6
38715.8
38714.6
38714.8
38712.4
38708.9
38705.3
38701.2
38696.6
38692.6
38689.1
38685.6
38682.1
38678.6
38675.2
38671.7
38668.5
38665.8
38664.8
38662.9
38659.6
38656.1
38652.6
38649
38645.5
38642.1
38638.6
38635.1
38631.8
38628.7
38626.1
38622.9
38619.5
38616
38612.5
38609.1
38605.6
38602.2
38599.1
38596.8
38596.1
38593.8
38590.4
38586.9
38583.2
38579.1
38575.2
38571.7
38568.2
38564.8
38561.7
38559.5
38559.6
38558.4
38555.1
38551.6
38547.7
38543
38537.9
38534
38530.5
38527
38523.6
38520.2
38517
38514.7
38514.6
38513.4
38510.2
38506.7
38502.9
38498.7
38494.7
38491.1
38487.6
38484.2
38480.8
38477.5
38474.4
38471.2
38467.8
38464.3
38460.9
38457.5
38454.2
38451.4
38450.4
38451.3
38449.3
38445.9
38442.3
38438.4
38433.4
38428.5
38424.8
38421.3
38417.8
38414.4
38411
38407.6
38404.4
38401.9
38401.7
38400.5
38397.3
38393.8
38390.1
38385.9
38381.2
38377.4
38373.9
38370.5
38367
38363.6
38360.1
38356.7
38353.3
38350.2
38347.7
38347.6
38348.4
38345.9
38342.5
38338.9
38334.8
38329.7
38325.4
38321.9
38318.4
38315
38311.7
38308.8
38307.3
38305.6
38302.5
38299
38295.5
38291.9
38288.3
38284.7
38281.3
38277.9
38274.5
38271.1
38267.9
38265.2
38264
38261.7
38258.4
38255
38251.5
38248
38244.6
38241.1
38237.7
38234.4
38231.4
38229
38226.2
38222.8
38219.4
38216
38212.5
38209.1
38205.7
38202.3
38199
38196.1
38194.3
38192.9
38189.9
38186.5
38183
38179.5
38175.8
38172.3
38168.9
38165.4
38162
38158.6
38155.3
38152.1
38149.4
38148.1
38145.9
38142.6
38139.2
38135.7
38132
38128.1
38124.5
38121.1
38117.7
38114.3
38111
38108.2
38107
38107.5
38105.3
38101.9
38098.4
38094.5
38089.5
38084.7
38081
38077.6
38074.2
38070.8
38067.7
38065.1
38064.6
38063.7
38060.6
38057.1
38053.5
38049.5
38045.5
38042
38038.6
38035.3
38032
38029.1
38027
38024.2
38020.9
38017.5
38014.1
38010.6
38006.9
38003.3
37999.9
37996.5
37993.1
37989.7
37986.3
37982.9
37979.7
37976.8
37975.2
37976.6
37975.8
37972.7
37969.3
37965.6
37961.4
37956.2
37952.2
37948.7
37945.3
37941.9
37938.5
37935.1
37931.9
37929.1
37927.6
37926
37922.9
37919.5
37916.1
37912.6
37908.9
37905.4
37902
37898.6
37895.2
37891.9
37888.6
37885.7
37883.8
37882.3
37879.2
37875.9
37872.5
37869
37865.3
37861.8
37858.5
37855.1
37851.7
37848.5
37845.8
37843.7
37840.8
37837.4
37834.1
37830.7
37827.3
37823.9
37820.6
37817.3
37814.4
37812.6
37812.7
37810.6
37807.3
37803.8
37800.1
37795.6
37790.8
37787.1
37783.7
37780.3
37777
37773.8
37770.9
37769.6
37769.3
37766.6
37763.3
37759.8
37756.1
37752
37748.1
37744.7
37741.3
37737.9
37734.6
37731.2
37728
37725.1
37723.3
37721.4
37718.3
37714.9
37711.5
37708.1
37704.7
37701.4
37698
37694.7
37691.6
37689
37686.9
37683.9
37680.5
37677.2
37673.8
37670.5
37667.2
37664
37661.4
37658.9
37655.7
37652.3
37649
37645.6
37642.3
37638.9
37635.5
37632.2
37629
37626.2
37625
37624.8
37622.2
37618.9
37615.4
37611.7
37607.1
37602.9
37599.4
37596.1
37592.7
37589.5
37586.5
37584.6
37582.9
37579.9
37576.5
37573.1
37569.6
37565.8
37561.8
37558.3
37555
37551.6
37548.3
37545.2
37542.4
37541.5
37541.6
37539.1
37535.8
37532.3
37528.5
37523.9
37519.6
37516.1
37512.7
37509.4
37506.2
37503.4
37502
37501.9
37499.5
37496.2
37492.8
37489
37484.4
37480
37476.4
37473.1
37469.7
37466.4
37463.3
37460.8
37459.8
37457.9
37454.8
37451.4
37448
37444.5
37440.8
37437.4
37434.1
37430.8
37427.5
37424.2
37421.2
37418
37414.7
37411.4
37408.1
37404.8
37401.4
37398.1
37394.9
37392.1
37390.7
37391.8
37390.6
37387.5
37384.1
37380.6
37376.6
37371.4
37367
37363.4
37360.1
37356.8
37353.4
37350.1
37346.8
37343.5
37340.1
37336.8
37333.6
37330.6
37328.6
37329.2
37329.1
37326.3
37322.9
37319.5
37315.7
37310.9
37306.2
37302.7
37299.3
37296
37292.7
37289.4
37286.2
37283.2
37281.3
37280.3
37277.7
37274.4
37271.1
37267.7
37264
37260
37256.3
37252.9
37249.6
37246.3
37243
37239.7
37236.5
37233.7
37232.2
37232.3
37230.1
37226.8
37223.5
37220
37216
37211.6
37207.9
37204.6
37201.2
37197.9
37194.6
37191.3
37188
37184.7
37181.4
37178.1
37174.9
37171.9
37169.5
37169.5
37169.7
37167.1
37163.8
37160.4
37156.8
37152.4
37148.4
37145
37141.7
37138.4
37135.2
37132.1
37129.6
37127.4
37124.4
37121.1
37117.8
37114.5
37111.2
37108
37104.7
37101.4
37098.4
37095.6
37093
37090.1
37087
37084.1
37081.5
37078.7
37075.5
37072.2
37068.9
37065.6
37062.3
37059
37055.5
37052.1
37048.8
37045.5
37042.2
37038.9
37035.6
37032.4
37029.2
37026.4
37024.8
37025.7
37024.6
37021.5
37018.2
37014.7
37010.9
37006.3
37002.5
36999.1
36995.9
36992.6
36989.4
36986.2
36983.5
36980.8
36977.7
36974.4
36971.1
36967.9
36964.6
36961.3
36958
36954.8
36951.8
36949.6
36948.6
36946.4
36943.3
36940
36936.7
36933.4
36930.1
36926.8
36923.5
36920
36916.2
36912.7
36909.3
36906.1
36902.8
36899.5
36896.2
36893
36889.7
36886.6
36883.9
36882.7
36883.9
36882.6
36879.5
36876.2
36872.7
36868.9
36864.3
36860.4
36857.1
36853.8
36850.6
36847.3
36844.2
36841.4
36838.5
36835.3
36832.1
36828.8
36825.6
36822.3
36819.1
36815.8
36812.8
36810.1
36808.9
36807.2
36804.2
36801
36797.7
36794.3
36790.8
36787.3
36784
36780.7
36777.4
36774.2
36771
36767.8
36764.8
36762.6
36761.3
36758.7
36755.5
36752.3
36749
36745.6
36741.9
36738.2
36734.8
36731.6
36728.3
36725.1
36721.9
36718.8
36716.3
36715.4
36714.1
36711.2
36707.9
36704.6
36701.2
36697.7
36694.3
36691.1
36687.8
36684.6
36681.5
36678.6
36675.9
36672.7
36669.5
36666.3
36663
36659.8
36656.5
36653.3
36650.1
36647.2
36645.1
36643.9
36641.3
36638.1
36634.9
36631.6
36628.2
36624.9
36621.6
36618.4
36615.2
36612
36609.1
36606.9
36604.6
36601.5
36598.3
36595.1
36591.8
36588.6
36585.4
36582.1
36578.9
36575.7
36572.7
36569.8
36566.8
36563.7
36560.6
36557.5
36554.7
36552.8
36550.4
36547.3
36544
36540.8
36537.5
36534.1
36530.3
36526.5
36523.2
36520
36516.7
36513.5
36510.4
36507.7
36506.2
36507.2
36506
36503
36499.7
36496.4
36492.7
36488.1
36483.7
36480.2
36477
36473.7
36470.5
36467.4
36464.3
36461.8
36460.4
36458
36454.9
36451.7
36448.5
36445.2
36441.8
36438.1
36434.8
36431.6
36428.3
36425.1
36421.9
36418.8
36415.8
36413.4
36412.4
36410.5
36407.4
36404.2
36400.9
36397.6
36394.2
36391
36387.7
36384.5
36381.4
36378.3
36375.6
36373.1
36370
36366.8
36363.6
36360.4
36357.2
36353.9
36350.7
36347.5
36344.4
36341.3
36338.8
36337.7
36336.4
36333.5
36330.3
36327.1
36323.7
36320
36315.9
36312.4
36309.1
36305.9
36302.7
36299.5
36296.4
36293.6
36291.7
36290.7
36288.1
36284.9
36281.7
36278.5
36275.1
36271.4
36267.9
36264.7
36261.5
36258.3
36255.1
36252.1
36249.6
36247.5
36244.7
36241.5
36238.3
36235.1
36231.8
36228.4
36225
36221.7
36218.5
36215.4
36212.2
36209.2
36206.6
36205.5
36204.5
36201.7
36198.6
36195.3
36192
36188.4
36184.9
36181.6
36178.5
36175.3
36172.3
36169.6
36168.3
36166.7
36163.8
36160.6
36157.4
36154.1
36150.6
36146.7
36143.2
36140
36136.8
36133.6
36130.4
36127.2
36124.1
36121.2
36119.1
36117.7
36115.1
36112
36108.8
36105.6
36102.4
36099.2
36095.9
36092.7
36089.5
36086.3
36083.1
36080
36076.9
36074
36071.9
36069.6
36066.6
36063.4
36060.3
36057.1
36053.8
36050.4
36047.1
36044
36040.8
36037.7
36034.8
36032.4
36031.8
36030.4
36027.4
36024.2
36021
36017.6
36013.6
36009.3
36005.8
36002.6
35999.4
35996.3
35993.2
35990.4
35988.5
35987.5
35985
35981.9
35978.7
35975.5
35972.1
35968.3
35964.3
35960.9
35957.7
35954.6
35951.4
35948.3
35945.2
35942.4
35940.4
35940.4
35939
35936
35932.9
35929.7
35926.2
35922.2
35917.6
35914
35910.8
35907.6
35904.4
35901.3
35898.2
35895.1
35892.3
35890.5
35890.3
35888.3
35885.2
35882
35878.8
35875.4
35871.4
35866.6
35863
35859.7
35856.6
35853.4
35850.3
35847.1
35844
35840.9
35837.9
35835.5
35834.9
35836.1
35834.3
35831.2
35828
35824.8
35821.2
35816.5
35811
35807.2
35803.9
35800.8
35797.7
35794.5
35791.5
35788.7
35787
35786.9
35785.1
35782
35778.9
35775.7
35772.3
35768.6
35765.1
35761.9
35758.7
35755.6
35752.5
35749.3
35746.2
35743
35739.9
35736.7
35733.5
35730.2
35726.9
35723.7
35720.6
35717.5
35714.4
35711.4
35708.8
35707.7
35708.9
35707.7
35704.7
35701.6
35698.4
35694.9
35690.7
35685.4
35681.4
35678.1
35675
35671.8
35668.7
35665.7
35662.8
35660.6
35659.7
35657.5
35654.5
35651.4
35648.3
35645.1
35641.8
35638.1
35634.3
35631.1
35627.9
35624.8
35621.7
35618.6
35615.4
35612.3
35609.2
35606.1
35603
35600.1
35597.6
35596.9
35597.6
35595.6
35592.5
35589.4
35586.2
35582.8
35578.9
35574.4
35570.9
35567.7
35564.6
35561.5
35558.4
35555.2
35552.1
35549
35545.9
35542.8
35539.7
35536.6
35533.8
35531.7
35530.5
35528
35525
35521.9
35518.8
35515.6
35512.5
35509.3
35506
35502.7
35499.6
35496.5
35493.4
35490.3
35487.2
35484.1
35481.1
35478.3
35476.4
35475.2
35472.7
35469.6
35466.5
35463.4
35460.3
35457.2
35454.1
35450.9
35447.7
35444.2
35440.9
35437.8
35434.7
35431.6
35428.4
35425.3
35422.2
35419.1
35416.1
35413
35410.1
35407.8
35407.3
35406.5
35403.7
35400.7
35397.5
35394.4
35391.1
35387.3
35383.5
35380.2
35377
35373.9
35370.8
35367.7
35364.6
35361.5
35358.4
35355.3
35352.3
35349.2
35346.2
35343.6
35342.1
35341.5
35339
35335.9
35332.8
35329.7
35326.5
35322.9
35318.8
35315.2
35312
35308.9
35305.8
35302.8
35299.7
35296.7
35294
35292.1
35291.2
35288.8
35285.8
35282.7
35279.6
35276.4
35273.1
35269.8
35266.6
35263.6
35260.5
35257.4
35254.5
35251.8
35250
35247.7
35244.7
35241.6
35238.6
35235.5
35232.3
35229.1
35226
35222.9
35219.8
35216.7
35213.7
35210.8
35208.4
35206.1
35203.2
35200.2
35197.1
35194
35190.9
35187.7
35184.3
35180.7
35177.4
35174.3
35171.3
35168.2
35165.1
35162.1
35159.1
35156.3
35154.2
35154.2
35153.5
35150.8
35147.7
35144.6
35141.4
35137.8
35133.2
35129
35125.7
35122.6
35119.5
35116.5
35113.6
35111
35109.6
35108.6
35106
35103
35099.9
35096.8
35093.6
35090
35086.6
35083.4
35080.4
35077.3
35074.3
35071.4
35068.8
35066.8
35064.3
35061.3
35058.2
35055.2
35052.1
35049
35045.8
35042.3
35039
35035.9
35032.8
35029.8
35026.7
35023.6
35020.6
35017.8
35015.4
35014.5
35013.4
35010.6
35007.6
35004.5
35001.5
34998.3
34994.7
34990.6
34987.1
34984
34980.9
34977.9
34974.8
34971.8
34968.7
34965.7
34962.7
34959.8
34957.5
34956.7
34955.8
34953.1
34950.1
34947.1
34943.9
34940.6
34936.6
34932.4
34929.1
34926
34923
34920
34917
34914.3
34912.4
34911.9
34909.7
34906.8
34903.7
34900.7
34897.5
34894.1
34890.1
34886.5
34883.4
34880.4
34877.3
34874.3
34871.3
34868.4
34865.8
34864.2
34862.4
34859.6
34856.6
34853.6
34850.5
34847.4
34844.2
34840.6
34837.2
34834.1
34831.1
34828
34825
34822
34819.1
34816.5
34815.1
34813.8
34811.1
34808.1
34805.1
34802
34798.9
34795.5
34791.8
34788.5
34785.4
34782.4
34779.4
34776.4
34773.4
34770.7
34768.8
34766.8
34764
34761
34758
34754.9
34751.9
34748.7
34745.4
34742.2
34739.2
34736.2
34733.1
34730.1
34727.2
34724.4
34722.3
34721.2
34718.9
34716
34712.9
34709.9
34706.9
34703.9
34700.8
34697.7
34694.5
34691.1
34688
34684.9
34681.9
34678.9
34675.8
34672.8
34669.8
34666.8
34663.8
34660.8
34657.8
34655
34652.7
34651.8
34650.4
34647.6
34644.6
34641.6
34638.5
34635.5
34632.3
34628.8
34625.5
34622.4
34619.3
34616.3
34613.3
34610.3
34607.3
34604.3
34601.3
34598.3
34595.3
34592.4
34589.8
34588.1
34586.5
34583.8
34580.8
34577.8
34574.8
34571.8
34568.7
34565.4
34562.1
34559
34556
34553
34550
34547
34544.1
34541.5
34539.5
34537.3
34534.4
34531.4
34528.4
34525.4
34522.4
34519.4
34516.3
34512.9
34509.2
34505.9
34502.9
34499.9
34496.9
34493.9
34490.9
34487.9
34485
34482.2
34479.8
34478.9
34478.1
34475.5
34472.6
34469.6
34466.5
34463.3
34459.7
34456
34452.9
34449.9
34446.9
34443.9
34441.1
34438.7
34437.9
34437.2
34434.7
34431.7
34428.7
34425.7
34422.6
34419.1
34414.7
34410.6
34407.3
34404.3
34401.3
34398.3
34395.3
34392.4
34389.4
34386.4
34383.4
34380.4
34377.5
34374.7
34372.3
34371.4
34370
34367.3
34364.3
34361.3
34358.3
34355.3
34352.2
34348.9
34345.9
34342.9
34339.9
34336.9
34334
34331
34328.1
34325.1
34322.1
34319.1
34316.1
34313
34309.7
34306.6
34303.6
34300.7
34297.7
34294.7
34291.9
34289.3
34287.7
34286.4
34283.8
34280.9
34277.9
34274.9
34271.9
34268.8
34265.7
34262.7
34259.7
34256.7
34253.8
34251.1
34249.1
34247
34244.3
34241.3
34238.3
34235.3
34232.3
34228.9
34225.5
34222.4
34219.5
34216.5
34213.6
34210.8
34208.4
34206.9
34204.6
34201.7
34198.7
34195.8
34192.8
34189.6
34186.1
34181.9
34178.6
34175.5
34172.6
34169.6
34166.6
34163.7
34160.8
34157.9
34155.4
34154
34154.4
34152.7
34149.8
34146.9
34143.9
34140.8
34137.5
34133.3
34128.9
34125.6
34122.6
34119.6
34116.7
34113.8
34111.1
34109
34108.1
34106.1
34103.3
34100.3
34097.4
34094.4
34091.4
34088.2
34085
34082.1
34079.1
34076.2
34073.2
34070.3
34067.5
34064.7
34061.8
34058.8
34055.9
34052.9
34049.9
34046.8
34043.6
34040.6
34037.6
34034.6
34031.7
34028.8
34025.8
34023
34020.5
34019
34018
34015.5
34012.6
34009.6
34006.7
34003.7
34000.7
33997.5
33994.4
33991.4
33988.5
33985.5
33982.6
33979.8
33977.1
33974.4
33971.5
33968.6
33965.6
33962.7
33959.7
33956.7
33953.5
33950.4
33947.4
33944.5
33941.5
33938.6
33935.7
33932.9
33930.4
33928.8
33927.6
33925
33922.2
33919.2
33916.3
33913.3
33910.4
33907.3
33903.8
33900.3
33897.2
33894.2
33891.3
33888.4
33885.4
33882.5
33879.6
33876.7
33873.7
33870.9
33868.1
33865.8
33864.9
33863.4
33860.7
33857.8
33854.9
33851.9
33849
33845.9
33842.7
33839.7
33836.7
33833.8
33830.9
33827.9
33825.1
33822.3
33819.4
33816.5
33813.6
33810.7
33807.8
33804.8
33801.8
33798.6
33795.6
33792.7
33789.7
33786.8
33783.9
33781
33778.2
33775.7
33774.2
33773.3
33770.9
33768
33765.1
33762.2
33759.2
33756.1
33752.6
33749
33746
33743
33740.1
33737.2
33734.3
33731.6
33729.2
33727.1
33724.5
33721.6
33718.7
33715.8
33712.9
33709.9
33706.7
33702.9
33699.4
33696.3
33693.4
33690.5
33687.6
33684.7
33681.8
33678.9
33676.3
33674.1
33673.9
33673.9
33671.6
33668.7
33665.8
33662.9
33659.9
33656.6
33652.5
33648
33644.7
33641.8
33638.9
33636
33633.1
33630.2
33627.6
33625.7
33623.8
33621.1
33618.2
33615.3
33612.4
33609.5
33606.6
33603.7
33600.8
33597.9
33595
33592.1
33589.3
33586.7
33584.2
33581.4
33578.6
33575.7
33572.8
33569.9
33567
33564
33561.1
33558.2
33555.3
33552.4
33549.5
33546.7
33543.9
33541.5
33539.8
33537.4
33534.6
33531.7
33528.8
33525.9
33523
33520.1
33517.2
33514.3
33511.4
33508.6
33505.7
33503
33500.6
33498.1
33495.3
33492.4
33489.5
33486.6
33483.7
33480.8
33477.8
33474.7
33471.8
33468.9
33466
33463.1
33460.3
33457.4
33454.6
33452
33450
33447.8
33445
33442.1
33439.3
33436.4
33433.5
33430.6
33427.6
33424.7
33421.8
33419
33416.1
33413.3
33410.7
33408.7
33406.6
33403.8
33400.9
33398.1
33395.2
33392.3
33389.2
33386.1
33383.2
33380.3
33377.5
33374.6
33371.8
33369.1
33366.8
33364.5
33361.7
33358.8
33356
33353.1
33350.2
33347.2
33344.3
33341.4
33338.5
33335.7
33332.8
33330
33327.5
33325.5
33323.2
33320.5
33317.6
33314.7
33311.9
33309
33306.1
33303
33299.5
33295.9
33292.9
33290
33287.1
33284.3
33281.4
33278.6
33275.7
33272.9
33270.1
33267.5
33265.6
33265.5
33264.6
33262.1
33259.2
33256.4
33253.5
33250.6
33247.5
33243.8
33238.8
33234.6
33231.4
33228.5
33225.7
33222.8
33220
33217.1
33214.3
33211.4
33208.6
33205.8
33203.2
33201.2
33201.2
33201.1
33198.8
33196
33193.1
33190.3
33187.4
33184.5
33181.3
33177.4
33172.9
33169.5
33166.5
33163.6
33160.8
33157.9
33155.1
33152.2
33149.4
33146.5
33143.7
33140.8
33138
33135.1
33132.4
33129.8
33127.8
33125.9
33123.2
33120.4
33117.6
33114.7
33111.9
33109.1
33106.2
33103.4
33100.5
33097.7
33095
33092.5
33090.6
33088.3
33085.5
33082.7
33079.9
33077
33074.1
33071
33067.5
33064.3
33061.4
33058.6
33055.7
33052.9
33050.1
33047.6
33045.8
33044.4
33042
33039.2
33036.4
33033.6
33030.8
33027.9
33025.1
33022.2
33019.3
33016.3
33012.9
33008.8
33005.3
33002.3
32999.5
32996.7
32993.8
32991
32988.2
32985.3
32982.5
32979.7
32977.1
32974.8
32973.7
32974
32972.1
32969.4
32966.6
32963.8
32960.9
32957.9
32954.5
32950
32945.6
32942.5
32939.6
32936.7
32933.9
32931.1
32928.4
32925.8
32923.8
32922.3
32919.9
32917.2
32914.4
32911.6
32908.7
32905.9
32903.1
32900.3
32897.5
32894.7
32892
32889.6
32887.5
32884.8
32882.1
32879.2
32876.4
32873.6
32870.6
32867.5
32864.4
32861.5
32858.7
32855.9
32853.1
32850.3
32847.7
32845.5
32843.1
32840.4
32837.6
32834.8
32831.9
32829.1
32826
32822.6
32819.2
32816.3
32813.5
32810.6
32807.8
32805
32802.3
32799.8
32798
32796.7
32794.2
32791.5
32788.7
32785.9
32783.1
32780.2
32777.1
32774.2
32771.3
32768.5
32765.7
32762.9
32760.2
32757.8
32755.7
32753.1
32750.4
32747.6
32744.7
32741.9
32738.9
32735.6
32731.6
32728.2
32725.3
32722.5
32719.7
32716.9
32714.2
32711.5
32709.3
32708.5
32707.8
32705.4
32702.6
32699.8
32697
32694.2
32691.1
32687.6
32683.7
32680.6
32677.8
32675
32672.2
32669.4
32666.8
32664.6
32663.1
32660.9
32658.2
32655.4
32652.6
32649.8
32646.9
32643.9
32640.2
32636.2
32633.1
32630.3
32627.5
32624.7
32621.9
32619.1
32616.4
32613.7
32611.3
32609.9
32609.3
32607.1
32604.4
32601.7
32598.9
32596
32593.1
32589.9
32586
32582.4
32579.4
32576.6
32573.8
32571.1
32568.3
32565.8
32563.8
32562.3
32559.9
32557.1
32554.3
32551.6
32548.8
32545.9
32542.9
32539.6
32536.6
32533.7
32531
32528.2
32525.4
32522.6
32519.9
32517.1
32514.4
32511.6
32508.8
32506.1
32503.3
32500.5
32497.8
32495.1
32492.6
32491.1
32489.9
32487.5
32484.8
32482.1
32479.3
32476.5
32473.6
32470.3
32466.1
32462.5
32459.5
32456.7
32453.9
32451.1
32448.4
32445.9
32443.8
32442.7
32440.8
32438.2
32435.5
32432.7
32429.9
32427
32424.1
32420.8
32417.6
32414.8
32412
32409.3
32406.6
32403.9
32401.3
32399.1
32396.7
32393.9
32391.1
32388.4
32385.6
32382.7
32379.7
32376.1
32372.8
32369.9
32367.1
32364.4
32361.6
32358.9
32356.3
32353.9
32352.4
32351.2
32348.8
32346.1
32343.3
32340.6
32337.8
32335
32331.9
32328.3
32324
32320.7
32317.8
32315.1
32312.3
32309.5
32306.8
32304
32301.4
32298.9
32297.2
32296.7
32294.9
32292.3
32289.6
32286.9
32284.1
32281.3
32278.4
32275.2
32272
32269.1
32266.3
32263.6
32260.9
32258.2
32255.6
32253.5
32251.6
32249
32246.3
32243.5
32240.8
32238
32235.2
32232.1
32228.5
32225
32222.1
32219.3
32216.5
32213.8
32211
32208.3
32205.6
32203.1
32200.9
32199.2
32196.9
32194.3
32191.6
32188.8
32186.1
32183.3
32180.4
32177.4
32174
32170.7
32167.9
32165.2
32162.4