/*--------------------------------*- C++ -*----------------------------------*\
  =========                 |
  \\      /  F ield         | OpenFOAM: The Open Source CFD Toolbox
   \\    /   O peration     | Website:  https://openfoam.org
    \\  /    A nd           | Version:  9
     \\/     M anipulation  |
\*---------------------------------------------------------------------------*/
FoamFile
{
    format      ascii;
    class       volScalarField;
    location    "0.045";
    object      rho;
}
// * * * * * * * * * * * * * * * * * * * * * * * * * * * * * * * * * * * * * //

dimensions      [1 -3 0 0 0 0 0];

internalField   nonuniform List<scalar> 
10000
(
0.553616
0.553567
0.553538
0.553506
0.553474
0.553442
0.553411
0.553379
0.553348
0.553316
0.553285
0.553253
0.553221
0.55319
0.553158
0.553127
0.553095
0.553064
0.553032
0.553
0.552969
0.552937
0.552906
0.552874
0.552843
0.552811
0.55278
0.552748
0.552716
0.552685
0.552653
0.552622
0.55259
0.552558
0.552527
0.552495
0.552464
0.552432
0.552401
0.552369
0.552337
0.552306
0.552275
0.552243
0.552212
0.55218
0.552148
0.552117
0.552085
0.552054
0.552022
0.551991
0.551959
0.551928
0.551896
0.551865
0.551833
0.551802
0.55177
0.551739
0.551707
0.551676
0.551644
0.551613
0.551581
0.55155
0.551519
0.551487
0.551456
0.551424
0.551393
0.551361
0.55133
0.551298
0.551267
0.551235
0.551204
0.551172
0.551141
0.551109
0.551078
0.551046
0.551015
0.550983
0.550952
0.550921
0.550889
0.550858
0.550826
0.550795
0.550764
0.550732
0.550701
0.550669
0.550637
0.550606
0.550575
0.550543
0.550512
0.55048
0.550449
0.550417
0.550386
0.550355
0.550323
0.550292
0.55026
0.550229
0.550197
0.550166
0.550134
0.550103
0.550072
0.55004
0.550009
0.549977
0.549945
0.549914
0.549883
0.549852
0.549821
0.549789
0.549757
0.549725
0.549694
0.549663
0.549631
0.549601
0.54957
0.549538
0.549506
0.549474
0.549443
0.549412
0.549381
0.549351
0.549319
0.549286
0.549254
0.549221
0.54919
0.54916
0.549131
0.549101
0.549068
0.549035
0.549002
0.54897
0.54894
0.54891
0.54888
0.548848
0.548815
0.548783
0.548751
0.548721
0.548691
0.54866
0.548628
0.548596
0.548565
0.548534
0.548503
0.548471
0.548437
0.548405
0.548376
0.548352
0.548322
0.548287
0.548252
0.548217
0.548183
0.548151
0.548129
0.548105
0.548071
0.548035
0.548
0.547964
0.54793
0.547898
0.547876
0.547852
0.547819
0.547784
0.547748
0.547713
0.54768
0.547651
0.547629
0.547601
0.547567
0.547532
0.547497
0.547463
0.547434
0.547412
0.547386
0.547351
0.547315
0.547279
0.547244
0.547212
0.547188
0.547167
0.547134
0.547098
0.547061
0.547025
0.546991
0.54696
0.54694
0.546916
0.546881
0.546845
0.546809
0.546773
0.546739
0.54671
0.546693
0.546665
0.54663
0.546594
0.546557
0.546522
0.546489
0.546465
0.546445
0.546413
0.546377
0.546341
0.546305
0.546272
0.546244
0.546224
0.546194
0.546159
0.546123
0.546088
0.546054
0.546024
0.545998
0.545969
0.545939
0.545911
0.545887
0.545856
0.54582
0.545784
0.545748
0.545712
0.545677
0.545646
0.545628
0.545605
0.54557
0.545534
0.545497
0.545461
0.545426
0.545392
0.545365
0.545352
0.545326
0.545291
0.545254
0.545218
0.545182
0.545147
0.545117
0.5451
0.545075
0.54504
0.545004
0.544968
0.544932
0.544897
0.544866
0.544844
0.54482
0.544786
0.544752
0.544718
0.544689
0.544667
0.544636
0.5446
0.544564
0.544529
0.544494
0.544463
0.544443
0.544419
0.544384
0.544348
0.544312
0.544276
0.544241
0.544209
0.544189
0.544169
0.544136
0.5441
0.544064
0.544028
0.543994
0.543963
0.543945
0.543923
0.543888
0.543852
0.543816
0.54378
0.543746
0.543715
0.543695
0.543671
0.543637
0.543601
0.543565
0.543529
0.543496
0.54347
0.543451
0.543419
0.543383
0.543347
0.543312
0.543278
0.54325
0.54323
0.543201
0.543165
0.543129
0.543094
0.543059
0.543026
0.543004
0.542984
0.542951
0.542915
0.542879
0.542843
0.542807
0.542774
0.542748
0.542737
0.542713
0.542678
0.542641
0.542604
0.542567
0.542532
0.542496
0.542461
0.542428
0.542402
0.542396
0.542379
0.542345
0.542308
0.542271
0.542235
0.542199
0.542164
0.542128
0.542095
0.542068
0.54205
0.542022
0.541986
0.54195
0.541915
0.54188
0.541849
0.541828
0.541802
0.541767
0.541731
0.541696
0.541661
0.541628
0.541605
0.541587
0.541555
0.541519
0.541483
0.541448
0.541413
0.541383
0.541364
0.541344
0.54131
0.541274
0.541237
0.541201
0.541166
0.541132
0.541102
0.541084
0.541061
0.541027
0.540991
0.540955
0.540919
0.540884
0.540852
0.54083
0.540813
0.540782
0.540746
0.54071
0.540674
0.540639
0.540605
0.540576
0.540559
0.540533
0.540498
0.540463
0.540426
0.54039
0.540355
0.540319
0.540285
0.540254
0.540235
0.54023
0.540205
0.54017
0.540133
0.540096
0.540061
0.540025
0.539989
0.539954
0.539918
0.539884
0.539854
0.539839
0.539828
0.539797
0.539761
0.539724
0.539689
0.539653
0.53962
0.539591
0.539571
0.539541
0.539506
0.53947
0.539435
0.5394
0.53937
0.539349
0.539324
0.539289
0.539254
0.539218
0.539183
0.539149
0.53912
0.539101
0.539074
0.539039
0.539003
0.538967
0.538932
0.538897
0.538864
0.538837
0.538829
0.538811
0.538777
0.53874
0.538703
0.538666
0.538631
0.538597
0.538566
0.538544
0.538516
0.538481
0.538445
0.538409
0.538373
0.538338
0.538303
0.53827
0.538243
0.538238
0.53823
0.538198
0.538161
0.538121
0.538079
0.538043
0.538007
0.537972
0.537939
0.537912
0.537896
0.53787
0.537835
0.537799
0.537763
0.537728
0.537693
0.537661
0.537637
0.537631
0.53761
0.537576
0.537539
0.5375
0.537462
0.537427
0.537391
0.537357
0.537327
0.537308
0.537287
0.537253
0.537218
0.537182
0.537147
0.537112
0.53708
0.537056
0.537036
0.537005
0.53697
0.536934
0.536899
0.536864
0.536831
0.536804
0.536787
0.536759
0.536724
0.536688
0.536653
0.536619
0.536586
0.536562
0.536538
0.536505
0.536469
0.536434
0.536398
0.536363
0.53633
0.536301
0.536291
0.536287
0.536258
0.536222
0.536182
0.536139
0.536101
0.536065
0.53603
0.535997
0.535969
0.535955
0.535931
0.535897
0.535861
0.535825
0.53579
0.535756
0.535724
0.5357
0.535683
0.535652
0.535617
0.535581
0.535546
0.535511
0.535477
0.535446
0.535425
0.5354
0.535366
0.535331
0.535295
0.535259
0.535223
0.535188
0.535154
0.535123
0.535101
0.535105
0.53509
0.535056
0.535019
0.534975
0.53493
0.534892
0.534856
0.534821
0.534787
0.534754
0.534726
0.53472
0.534719
0.53469
0.534654
0.534614
0.534573
0.534536
0.534501
0.534466
0.534434
0.53441
0.534387
0.534354
0.534319
0.534283
0.534248
0.534213
0.534178
0.534146
0.534122
0.534118
0.534099
0.534065
0.534029
0.53399
0.533953
0.533917
0.533883
0.53385
0.533824
0.533804
0.533774
0.533739
0.533704
0.533669
0.533635
0.533603
0.533579
0.533559
0.533527
0.533492
0.533457
0.533422
0.533388
0.533357
0.533336
0.533314
0.533281
0.533246
0.533211
0.533176
0.533142
0.533109
0.533085
0.533071
0.533043
0.533008
0.532973
0.532938
0.532903
0.532869
0.532837
0.532813
0.53279
0.532757
0.532722
0.532687
0.532652
0.532617
0.532584
0.532555
0.532539
0.532516
0.532483
0.532448
0.532413
0.532378
0.532343
0.532312
0.532288
0.532279
0.532254
0.53222
0.532184
0.532147
0.532112
0.532077
0.532043
0.532012
0.53199
0.531969
0.531936
0.531901
0.531866
0.531832
0.531798
0.531766
0.531742
0.531719
0.531686
0.531652
0.531618
0.531585
0.531555
0.531531
0.531501
0.531467
0.531432
0.531397
0.531362
0.531327
0.531292
0.531259
0.531229
0.531214
0.531218
0.531196
0.531161
0.531123
0.531081
0.531042
0.531006
0.530972
0.530938
0.530909
0.530889
0.530862
0.530828
0.530793
0.530758
0.530724
0.530691
0.530662
0.530642
0.530614
0.530579
0.530545
0.53051
0.530475
0.530443
0.530415
0.530406
0.530391
0.530358
0.530323
0.530285
0.530246
0.53021
0.530175
0.530141
0.53011
0.530088
0.530074
0.530046
0.530011
0.529976
0.529941
0.529907
0.529873
0.529843
0.52982
0.52979
0.529756
0.529721
0.529686
0.529651
0.529616
0.529581
0.529547
0.529517
0.529497
0.529501
0.529485
0.529452
0.529415
0.529374
0.529335
0.529299
0.529265
0.529231
0.529201
0.529177
0.529147
0.529113
0.529078
0.529043
0.529007
0.528973
0.528938
0.528904
0.528873
0.528852
0.528856
0.528845
0.528812
0.528776
0.528735
0.528686
0.528646
0.528611
0.528577
0.528543
0.528513
0.528494
0.528498
0.528482
0.528448
0.528411
0.52837
0.528329
0.528293
0.528259
0.528225
0.528194
0.528171
0.528148
0.528115
0.528081
0.528046
0.528012
0.527978
0.527948
0.527926
0.527898
0.527864
0.527829
0.527795
0.52776
0.527726
0.527692
0.527662
0.527642
0.527643
0.527623
0.527589
0.527553
0.527512
0.527473
0.527438
0.527404
0.527371
0.527342
0.52732
0.527292
0.527258
0.527223
0.527188
0.527153
0.527118
0.527084
0.52705
0.527019
0.526995
0.526997
0.526993
0.526962
0.526926
0.526887
0.526843
0.526805
0.52677
0.526736
0.526703
0.526671
0.526648
0.526628
0.526596
0.526562
0.526527
0.526493
0.526459
0.526425
0.526391
0.526359
0.526331
0.526312
0.526299
0.526272
0.526239
0.526204
0.52617
0.526136
0.526102
0.526067
0.526034
0.526001
0.525975
0.525957
0.52593
0.525896
0.525862
0.525827
0.525794
0.525761
0.525734
0.525712
0.525682
0.525648
0.525613
0.525579
0.525544
0.52551
0.525476
0.525445
0.525419
0.525416
0.52541
0.525379
0.525344
0.525305
0.525261
0.525224
0.525189
0.525155
0.525123
0.525094
0.525072
0.525042
0.525008
0.524974
0.524939
0.524904
0.52487
0.524836
0.524803
0.524773
0.524754
0.52476
0.524744
0.524711
0.524675
0.524632
0.524583
0.524544
0.524509
0.524475
0.524442
0.524414
0.524401
0.524405
0.524383
0.524348
0.524312
0.524269
0.524227
0.524191
0.524157
0.524123
0.524089
0.524055
0.524023
0.523996
0.523987
0.523975
0.523943
0.523909
0.523873
0.523836
0.523801
0.523767
0.523733
0.5237
0.523672
0.523654
0.52363
0.523597
0.523563
0.523529
0.523495
0.523461
0.52343
0.523404
0.523383
0.523352
0.523319
0.523285
0.523251
0.523217
0.523186
0.523162
0.523137
0.523105
0.523072
0.523038
0.523005
0.522974
0.522949
0.522924
0.522891
0.522857
0.522823
0.522789
0.522755
0.522723
0.522694
0.522683
0.522681
0.522654
0.52262
0.522583
0.522541
0.522503
0.522469
0.522435
0.522402
0.522372
0.522353
0.52233
0.522298
0.522264
0.52223
0.522196
0.522163
0.522131
0.522105
0.522086
0.522057
0.522023
0.521989
0.521955
0.521921
0.521889
0.521859
0.521833
0.521802
0.521768
0.521734
0.521701
0.521667
0.521635
0.521608
0.521599
0.521598
0.52157
0.521536
0.521499
0.521458
0.52142
0.521385
0.521352
0.521318
0.521286
0.521257
0.521225
0.521192
0.521158
0.521124
0.52109
0.521057
0.521026
0.521004
0.521007
0.521003
0.520973
0.520938
0.5209
0.520856
0.520818
0.520784
0.52075
0.520716
0.520684
0.520656
0.52063
0.520599
0.520566
0.520533
0.5205
0.520471
0.520454
0.520438
0.520408
0.520374
0.52034
0.520305
0.520272
0.520238
0.520205
0.520174
0.52015
0.520124
0.520092
0.520058
0.520024
0.519991
0.519959
0.519931
0.51991
0.519882
0.519849
0.519815
0.519781
0.519748
0.519714
0.519681
0.51965
0.519626
0.519624
0.519615
0.519584
0.51955
0.519512
0.519469
0.519431
0.519397
0.519363
0.519329
0.519296
0.519266
0.519243
0.519229
0.519202
0.519169
0.519135
0.5191
0.519065
0.519031
0.518998
0.518964
0.51893
0.518897
0.518864
0.518833
0.51881
0.518813
0.518811
0.518782
0.518747
0.51871
0.518666
0.518625
0.51859
0.518556
0.518523
0.51849
0.518458
0.518429
0.518404
0.518376
0.518345
0.518314
0.518286
0.518265
0.518237
0.518205
0.518171
0.518137
0.518104
0.51807
0.518038
0.518009
0.517986
0.517959
0.517927
0.517893
0.51786
0.517826
0.517793
0.517764
0.517743
0.517738
0.517716
0.517683
0.517649
0.517612
0.517572
0.517536
0.517502
0.517469
0.517435
0.517402
0.517369
0.517339
0.517317
0.517314
0.517294
0.517262
0.517227
0.517191
0.517155
0.517121
0.517088
0.517055
0.517023
0.516995
0.516976
0.516949
0.516916
0.516883
0.516849
0.516816
0.516784
0.516757
0.516737
0.516709
0.516676
0.516642
0.516609
0.516575
0.516542
0.516509
0.516477
0.51645
0.516435
0.516413
0.516381
0.516347
0.516313
0.516279
0.516245
0.516211
0.516178
0.516145
0.516111
0.516078
0.516048
0.516023
0.516021
0.516021
0.515994
0.51596
0.515924
0.515881
0.515839
0.515803
0.51577
0.515736
0.515703
0.51567
0.515638
0.51561
0.515594
0.515581
0.515552
0.515518
0.515485
0.51545
0.515416
0.515382
0.515349
0.515315
0.515282
0.515249
0.515216
0.515185
0.515159
0.515154
0.515144
0.515114
0.51508
0.515044
0.515005
0.51497
0.514937
0.514904
0.514871
0.514843
0.514822
0.514795
0.514763
0.514729
0.514696
0.514662
0.514629
0.514596
0.514563
0.514532
0.514506
0.514496
0.514482
0.514451
0.514418
0.514383
0.514348
0.514314
0.514281
0.514248
0.514217
0.51419
0.514167
0.514136
0.514103
0.51407
0.514037
0.514004
0.513974
0.513947
0.51392
0.513888
0.513855
0.513822
0.513789
0.513755
0.513723
0.513694
0.513675
0.513679
0.513664
0.513632
0.513598
0.51356
0.513514
0.513473
0.513439
0.513406
0.513373
0.51334
0.513309
0.513282
0.513269
0.513254
0.513223
0.51319
0.513156
0.513119
0.513083
0.513049
0.513016
0.512983
0.51295
0.512919
0.512892
0.512882
0.512883
0.512859
0.512826
0.512791
0.512752
0.51271
0.512675
0.512641
0.512608
0.512575
0.512542
0.51251
0.512478
0.512449
0.512433
0.512423
0.512395
0.512362
0.512328
0.512294
0.512261
0.512228
0.512195
0.512163
0.512131
0.512103
0.512083
0.512058
0.512027
0.511994
0.511962
0.51193
0.5119
0.511875
0.511846
0.511813
0.51178
0.511747
0.511714
0.511681
0.511649
0.511617
0.51159
0.511576
0.51156
0.51153
0.511497
0.511463
0.511427
0.511386
0.51135
0.511317
0.511284
0.511251
0.511218
0.511187
0.511159
0.511144
0.511157
0.511149
0.511119
0.511085
0.511049
0.511003
0.510956
0.51092
0.510886
0.510853
0.51082
0.510787
0.510755
0.510722
0.51069
0.510662
0.510645
0.510644
0.510622
0.510589
0.510555
0.510519
0.510484
0.510451
0.510418
0.510386
0.510355
0.510331
0.51031
0.51028
0.510247
0.510214
0.510182
0.510149
0.510116
0.510085
0.510055
0.510027
0.509995
0.509962
0.509929
0.509896
0.509863
0.509831
0.509799
0.509768
0.509744
0.509743
0.509745
0.509719
0.509686
0.509651
0.509611
0.509569
0.509534
0.509501
0.509468
0.509436
0.509407
0.509385
0.509359
0.509327
0.509294
0.509261
0.509228
0.509196
0.509163
0.50913
0.509098
0.509066
0.509036
0.509006
0.508974
0.508944
0.508917
0.508905
0.508911
0.508891
0.508859
0.508825
0.508788
0.508743
0.508704
0.50867
0.508638
0.508605
0.508573
0.508541
0.508512
0.508483
0.508451
0.508418
0.508386
0.508354
0.508325
0.508304
0.508306
0.508295
0.508265
0.508231
0.508195
0.508151
0.508108
0.508073
0.50804
0.508008
0.507976
0.507946
0.507924
0.507913
0.507889
0.507856
0.507823
0.507789
0.507753
0.507717
0.507684
0.507652
0.507619
0.507588
0.507561
0.50755
0.507553
0.507529
0.507497
0.507463
0.507425
0.507382
0.507344
0.507311
0.507279
0.507246
0.507214
0.507181
0.507149
0.507119
0.507094
0.507084
0.507066
0.507036
0.507003
0.50697
0.506936
0.506903
0.506871
0.506838
0.506806
0.506775
0.506746
0.506721
0.506692
0.50666
0.506627
0.506595
0.506562
0.50653
0.506498
0.506469
0.506447
0.50644
0.506419
0.506387
0.506354
0.50632
0.506281
0.506244
0.506212
0.506179
0.506147
0.506118
0.506097
0.506099
0.506087
0.506056
0.506023
0.505987
0.505942
0.505895
0.505858
0.505825
0.505793
0.505761
0.505729
0.505699
0.505677
0.505677
0.505665
0.505635
0.505602
0.505567
0.505527
0.505489
0.505456
0.505424
0.505391
0.505359
0.505328
0.5053
0.505269
0.505237
0.505205
0.505173
0.505141
0.50511
0.505084
0.505074
0.505083
0.505064
0.505032
0.504999
0.504962
0.504915
0.504869
0.504834
0.504801
0.504769
0.504736
0.504704
0.504672
0.504643
0.50462
0.504617
0.504606
0.504576
0.504543
0.504508
0.504469
0.504425
0.504389
0.504357
0.504324
0.504292
0.50426
0.504227
0.504195
0.504163
0.504134
0.50411
0.504109
0.504117
0.504094
0.504061
0.504027
0.503989
0.503942
0.503901
0.503868
0.503836
0.503804
0.503773
0.503746
0.503731
0.503715
0.503686
0.503653
0.503621
0.503587
0.503552
0.503519
0.503487
0.503455
0.503423
0.503391
0.503361
0.503336
0.503324
0.503303
0.503272
0.50324
0.503207
0.503174
0.503142
0.50311
0.503078
0.503047
0.503018
0.502996
0.502969
0.502937
0.502905
0.502873
0.502841
0.502809
0.502777
0.502745
0.502714
0.502686
0.50267
0.502656
0.502628
0.502596
0.502563
0.50253
0.502496
0.502463
0.50243
0.502398
0.502366
0.502334
0.502302
0.502272
0.502248
0.502235
0.502214
0.502183
0.502151
0.502118
0.502084
0.502047
0.502013
0.501981
0.501949
0.501917
0.501887
0.50186
0.501849
0.501854
0.501833
0.501801
0.501768
0.501731
0.501684
0.501639
0.501604
0.501572
0.50154
0.501508
0.501479
0.501455
0.50145
0.501441
0.501412
0.501379
0.501346
0.501308
0.50127
0.501238
0.501206
0.501174
0.501143
0.501116
0.501096
0.50107
0.501039
0.501007
0.500975
0.500942
0.500907
0.500873
0.500841
0.500809
0.500777
0.500745
0.500713
0.500681
0.500651
0.500623
0.500609
0.500621
0.500614
0.500585
0.500553
0.500518
0.500478
0.50043
0.500392
0.500359
0.500327
0.500295
0.500263
0.500231
0.500201
0.500174
0.500161
0.500145
0.500116
0.500084
0.500052
0.500019
0.499984
0.499951
0.499919
0.499887
0.499855
0.499824
0.499793
0.499765
0.499748
0.499733
0.499705
0.499673
0.499641
0.499608
0.499574
0.499541
0.499509
0.499477
0.499446
0.499415
0.499389
0.49937
0.499342
0.499311
0.499279
0.499247
0.499215
0.499183
0.499152
0.499121
0.499093
0.499077
0.499077
0.499058
0.499027
0.498994
0.498959
0.498916
0.498871
0.498837
0.498804
0.498773
0.498741
0.498711
0.498684
0.498671
0.498668
0.498643
0.498612
0.498579
0.498544
0.498505
0.498469
0.498436
0.498404
0.498373
0.498341
0.498309
0.498279
0.498252
0.498235
0.498217
0.498187
0.498155
0.498124
0.498092
0.49806
0.498028
0.497996
0.497965
0.497936
0.497911
0.497891
0.497863
0.497831
0.497799
0.497768
0.497736
0.497705
0.497675
0.497651
0.497627
0.497597
0.497565
0.497534
0.497502
0.49747
0.497438
0.497407
0.497375
0.497345
0.497319
0.497307
0.497305
0.497281
0.497249
0.497217
0.497181
0.497138
0.497099
0.497066
0.497034
0.497002
0.496972
0.496944
0.496926
0.49691
0.496881
0.496849
0.496817
0.496784
0.496748
0.496711
0.496678
0.496646
0.496614
0.496583
0.496553
0.496528
0.496519
0.49652
0.496496
0.496465
0.496432
0.496396
0.496352
0.496311
0.496278
0.496247
0.496215
0.496185
0.496158
0.496145
0.496145
0.496122
0.496091
0.496058
0.496023
0.49598
0.495937
0.495904
0.495872
0.495841
0.49581
0.49578
0.495756
0.495747
0.495729
0.495699
0.495667
0.495635
0.495602
0.495567
0.495535
0.495504
0.495472
0.495441
0.495411
0.495382
0.495352
0.495321
0.495289
0.495258
0.495226
0.495195
0.495164
0.495134
0.495107
0.495093
0.495104
0.495093
0.495063
0.495032
0.494998
0.49496
0.494911
0.494869
0.494836
0.494804
0.494772
0.494741
0.49471
0.494678
0.494647
0.494615
0.494584
0.494553
0.494525
0.494506
0.494512
0.494511
0.494484
0.494453
0.49442
0.494384
0.494338
0.494294
0.494261
0.494229
0.494198
0.494166
0.494135
0.494105
0.494077
0.494059
0.494049
0.494024
0.493993
0.493962
0.493929
0.493895
0.493857
0.493822
0.49379
0.493759
0.493727
0.493696
0.493665
0.493635
0.493608
0.493593
0.493594
0.493574
0.493543
0.493511
0.493478
0.49344
0.493398
0.493364
0.493332
0.493301
0.493269
0.493238
0.493207
0.493175
0.493144
0.493113
0.493082
0.493051
0.493022
0.493
0.493
0.493002
0.492977
0.492946
0.492914
0.492879
0.492838
0.4928
0.492768
0.492736
0.492705
0.492674
0.492645
0.492622
0.492601
0.492573
0.492542
0.492511
0.492479
0.492448
0.492417
0.492386
0.492355
0.492326
0.4923
0.492275
0.492247
0.492218
0.49219
0.492166
0.492139
0.492109
0.492078
0.492047
0.492015
0.491984
0.491952
0.49192
0.491887
0.491856
0.491825
0.491794
0.491762
0.491731
0.4917
0.49167
0.491644
0.491629
0.491637
0.491626
0.491597
0.491566
0.491533
0.491496
0.491453
0.491417
0.491385
0.491354
0.491323
0.491292
0.491263
0.491236
0.491211
0.491182
0.491151
0.49112
0.491088
0.491057
0.491026
0.490995
0.490965
0.490937
0.490915
0.490906
0.490885
0.490855
0.490824
0.490793
0.490762
0.49073
0.490699
0.490667
0.490634
0.490598
0.490565
0.490533
0.490502
0.490471
0.49044
0.490409
0.490378
0.490347
0.490317
0.490292
0.49028
0.490292
0.490279
0.49025
0.490218
0.490186
0.490149
0.490105
0.490069
0.490037
0.490006
0.489975
0.489944
0.489915
0.489888
0.489861
0.48983
0.4898
0.489769
0.489738
0.489707
0.489676
0.489645
0.489616
0.489591
0.48958
0.489564
0.489535
0.489504
0.489473
0.489441
0.489408
0.489374
0.489342
0.489311
0.48928
0.48925
0.489219
0.489189
0.489161
0.48914
0.489127
0.489103
0.489072
0.489041
0.48901
0.488978
0.488943
0.488907
0.488875
0.488844
0.488814
0.488783
0.488752
0.488723
0.488699
0.488691
0.488679
0.488651
0.48862
0.488588
0.488556
0.488522
0.48849
0.48846
0.488429
0.488398
0.488368
0.488341
0.488315
0.488285
0.488255
0.488224
0.488193
0.488162
0.488131
0.488101
0.488071
0.488043
0.488022
0.488011
0.487986
0.487956
0.487925
0.487894
0.487862
0.48783
0.487799
0.487769
0.487738
0.487708
0.48768
0.487659
0.487637
0.487608
0.487577
0.487547
0.487516
0.487485
0.487454
0.487423
0.487393
0.487363
0.487333
0.487306
0.487278
0.487248
0.487218
0.487189
0.487163
0.487144
0.487121
0.487092
0.487061
0.48703
0.486999
0.486966
0.48693
0.486894
0.486863
0.486832
0.486801
0.48677
0.486741
0.486715
0.486701
0.48671
0.486699
0.48667
0.486639
0.486607
0.486572
0.486528
0.486486
0.486453
0.486422
0.486392
0.486361
0.486331
0.486302
0.486278
0.486264
0.486242
0.486212
0.486182
0.486151
0.48612
0.486087
0.486053
0.486021
0.48599
0.485959
0.485929
0.485898
0.485868
0.48584
0.485817
0.485808
0.485789
0.48576
0.485729
0.485698
0.485666
0.485634
0.485603
0.485572
0.485542
0.485512
0.485482
0.485457
0.485433
0.485404
0.485373
0.485343
0.485312
0.485281
0.48525
0.48522
0.485189
0.485159
0.48513
0.485105
0.485095
0.485083
0.485055
0.485025
0.484994
0.484962
0.484927
0.484888
0.484854
0.484823
0.484793
0.484762
0.484732
0.484702
0.484675
0.484657
0.484647
0.484622
0.484592
0.484561
0.48453
0.484498
0.484463
0.48443
0.484399
0.484368
0.484338
0.484308
0.484279
0.484255
0.484235
0.484208
0.484178
0.484148
0.484117
0.484086
0.484053
0.48402
0.483989
0.483959
0.483928
0.483898
0.483869
0.483845
0.483834
0.483825
0.483798
0.483768
0.483737
0.483706
0.483671
0.483638
0.483607
0.483576
0.483546
0.483517
0.483492
0.483479
0.483464
0.483436
0.483405
0.483375
0.483344
0.48331
0.483273
0.483239
0.483209
0.483178
0.483148
0.483117
0.483087
0.483058
0.48303
0.483009
0.482996
0.482971
0.482941
0.482911
0.482881
0.48285
0.482819
0.482787
0.482757
0.482726
0.482696
0.482666
0.482636
0.482606
0.482579
0.482559
0.482537
0.482508
0.482478
0.482448
0.482417
0.482385
0.482353
0.482322
0.482292
0.482261
0.482232
0.482203
0.482181
0.482175
0.482162
0.482133
0.482103
0.482072
0.48204
0.482001
0.48196
0.481927
0.481896
0.481866
0.481836
0.481806
0.48178
0.481762
0.481752
0.481728
0.481698
0.481668
0.481637
0.481605
0.481568
0.48153
0.481498
0.481467
0.481437
0.481407
0.481377
0.481348
0.481321
0.481301
0.481302
0.481288
0.48126
0.48123
0.481199
0.481166
0.481127
0.481084
0.481049
0.481018
0.480988
0.480958
0.480927
0.480897
0.480868
0.480842
0.480824
0.480822
0.480803
0.480774
0.480743
0.480713
0.48068
0.480641
0.480596
0.480561
0.48053
0.480499
0.480469
0.480439
0.480409
0.480379
0.480349
0.480321
0.480298
0.480292
0.480304
0.480286
0.480257
0.480226
0.480195
0.480161
0.480116
0.480064
0.480027
0.479996
0.479966
0.479936
0.479906
0.479876
0.47985
0.479833
0.479833
0.479815
0.479786
0.479756
0.479725
0.479693
0.479658
0.479624
0.479593
0.479563
0.479533
0.479503
0.479473
0.479443
0.479413
0.479382
0.479352
0.479322
0.47929
0.479258
0.479228
0.479197
0.479167
0.479138
0.479109
0.479084
0.479074
0.479086
0.479074
0.479046
0.479015
0.478985
0.478951
0.478911
0.47886
0.478822
0.478791
0.47876
0.47873
0.478701
0.478671
0.478644
0.478623
0.478614
0.478593
0.478564
0.478534
0.478504
0.478474
0.478442
0.478407
0.478371
0.47834
0.478309
0.478279
0.47825
0.47822
0.47819
0.47816
0.47813
0.4781
0.47807
0.478042
0.478018
0.478011
0.478018
0.477999
0.47797
0.47794
0.477909
0.477877
0.477839
0.477796
0.477763
0.477732
0.477702
0.477672
0.477642
0.477612
0.477582
0.477552
0.477522
0.477492
0.477463
0.477434
0.477406
0.477386
0.477375
0.477351
0.477322
0.477292
0.477262
0.477232
0.477202
0.477172
0.477139
0.477108
0.477078
0.477048
0.477019
0.476989
0.476959
0.476929
0.4769
0.476874
0.476856
0.476844
0.47682
0.476791
0.476761
0.476731
0.476701
0.476671
0.476641
0.476611
0.47658
0.476547
0.476515
0.476485
0.476455
0.476425
0.476395
0.476365
0.476336
0.476306
0.476276
0.476247
0.476219
0.476197
0.476192
0.476184
0.476158
0.476128
0.476098
0.476068
0.476037
0.476
0.475963
0.475932
0.475901
0.475872
0.475842
0.475812
0.475782
0.475752
0.475723
0.475693
0.475663
0.475634
0.475605
0.47558
0.475566
0.47556
0.475536
0.475506
0.475477
0.475447
0.475415
0.475381
0.475342
0.475307
0.475277
0.475247
0.475217
0.475188
0.475158
0.475129
0.475103
0.475085
0.475077
0.475053
0.475024
0.474995
0.474965
0.474935
0.474903
0.474871
0.47484
0.474811
0.474781
0.474752
0.474723
0.474698
0.47468
0.474658
0.47463
0.4746
0.47457
0.474541
0.47451
0.474479
0.474449
0.474419
0.47439
0.47436
0.474331
0.474303
0.47428
0.474258
0.474231
0.474201
0.474172
0.474142
0.474112
0.474081
0.474048
0.474013
0.473982
0.473953
0.473923
0.473893
0.473864
0.473835
0.473806
0.473779
0.473759
0.473759
0.473752
0.473726
0.473696
0.473666
0.473635
0.473601
0.473557
0.473516
0.473484
0.473455
0.473425
0.473396
0.473368
0.473343
0.473329
0.47332
0.473295
0.473266
0.473236
0.473206
0.473175
0.473141
0.473108
0.473077
0.473048
0.473018
0.472989
0.472961
0.472936
0.472917
0.472893
0.472864
0.472835
0.472805
0.472775
0.472746
0.472715
0.472681
0.472649
0.472619
0.47259
0.47256
0.472531
0.472502
0.472473
0.472445
0.472422
0.472413
0.472403
0.472376
0.472347
0.472317
0.472288
0.472257
0.472223
0.472183
0.472149
0.472119
0.47209
0.47206
0.472031
0.472002
0.471972
0.471943
0.471914
0.471887
0.471864
0.471857
0.471848
0.471822
0.471793
0.471763
0.471733
0.471701
0.471662
0.471622
0.47159
0.471561
0.471531
0.471502
0.471474
0.471447
0.47143
0.471424
0.471403
0.471375
0.471346
0.471316
0.471286
0.471252
0.471214
0.47118
0.47115
0.47112
0.471091
0.471062
0.471033
0.471004
0.470979
0.470964
0.470947
0.47092
0.470891
0.470862
0.470832
0.470802
0.470771
0.470736
0.470704
0.470674
0.470645
0.470615
0.470586
0.470557
0.470529
0.470504
0.470491
0.470478
0.470452
0.470423
0.470394
0.470364
0.470334
0.470301
0.470265
0.470234
0.470204
0.470175
0.470145
0.470116
0.470088
0.470062
0.470044
0.470025
0.469997
0.469968
0.469939
0.46991
0.46988
0.46985
0.469818
0.469787
0.469758
0.469728
0.469699
0.46967
0.469642
0.469615
0.469595
0.469584
0.469562
0.469533
0.469504
0.469475
0.469446
0.469417
0.469387
0.469357
0.469326
0.469293
0.469263
0.469233
0.469204
0.469175
0.469146
0.469116
0.469087
0.469058
0.469029
0.469
0.468971
0.468944
0.468922
0.468914
0.4689
0.468873
0.468844
0.468815
0.468785
0.468756
0.468725
0.468691
0.468659
0.468629
0.4686
0.46857
0.468541
0.468512
0.468483
0.468454
0.468425
0.468396
0.468367
0.468339
0.468314
0.468298
0.468282
0.468256
0.468227
0.468198
0.468169
0.468139
0.46811
0.468078
0.468046
0.468016
0.467987
0.467958
0.467929
0.4679
0.467872
0.467847
0.467828
0.467806
0.467779
0.46775
0.467721
0.467692
0.467663
0.467633
0.467603
0.467571
0.467535
0.467503
0.467473
0.467444
0.467415
0.467386
0.467357
0.467329
0.4673
0.467273
0.46725
0.467242
0.467234
0.467209
0.46718
0.467151
0.467121
0.467091
0.467056
0.46702
0.466989
0.46696
0.466931
0.466903
0.466875
0.466852
0.466845
0.466838
0.466813
0.466785
0.466756
0.466726
0.466696
0.466662
0.466619
0.46658
0.466548
0.466519
0.46649
0.466461
0.466432
0.466403
0.466374
0.466345
0.466317
0.466288
0.466259
0.466232
0.46621
0.4662
0.466187
0.46616
0.466132
0.466103
0.466074
0.466044
0.466014
0.465983
0.465953
0.465924
0.465895
0.465867
0.465838
0.465809
0.465781
0.465752
0.465723
0.465694
0.465665
0.465634
0.465603
0.465573
0.465544
0.465515
0.465486
0.465458
0.46543
0.465405
0.465389
0.465377
0.465352
0.465323
0.465294
0.465265
0.465236
0.465206
0.465176
0.465147
0.465118
0.465089
0.465061
0.465035
0.465015
0.464995
0.464968
0.464939
0.464911
0.464882
0.464852
0.464819
0.464786
0.464756
0.464728
0.464699
0.464671
0.464643
0.464621
0.464606
0.464583
0.464555
0.464527
0.464498
0.464469
0.464438
0.464404
0.464364
0.464331
0.464301
0.464273
0.464244
0.464215
0.464187
0.464158
0.464131
0.464106
0.464093
0.464096
0.46408
0.464052
0.464023
0.463994
0.463965
0.463932
0.463891
0.463849
0.463817
0.463787
0.463759
0.46373
0.463702
0.463676
0.463656
0.463648
0.463628
0.4636
0.463572
0.463543
0.463514
0.463485
0.463453
0.463423
0.463394
0.463366
0.463337
0.463308
0.46328
0.463253
0.463226
0.463197
0.463168
0.46314
0.463111
0.463082
0.463052
0.463021
0.462991
0.462962
0.462934
0.462905
0.462877
0.462848
0.462821
0.462796
0.462782
0.462772
0.462747
0.462719
0.462691
0.462662
0.462633
0.462604
0.462573
0.462542
0.462514
0.462485
0.462457
0.462428
0.4624
0.462374
0.462348
0.46232
0.462292
0.462263
0.462234
0.462206
0.462176
0.462145
0.462115
0.462086
0.462057
0.462029
0.462
0.461972
0.461945
0.46192
0.461905
0.461893
0.461869
0.46184
0.461812
0.461783
0.461755
0.461726
0.461696
0.461662
0.461628
0.461598
0.461569
0.461541
0.461512
0.461484
0.461455
0.461427
0.461398
0.46137
0.461342
0.461315
0.461293
0.461283
0.461269
0.461243
0.461215
0.461186
0.461158
0.461129
0.461099
0.461068
0.461038
0.461009
0.460981
0.460952
0.460924
0.460896
0.460869
0.460841
0.460813
0.460785
0.460756
0.460728
0.460699
0.460669
0.460639
0.460609
0.460581
0.460552
0.460524
0.460496
0.460467
0.46044
0.460416
0.460401
0.460392
0.460369
0.460341
0.460312
0.460284
0.460255
0.460225
0.460191
0.460156
0.460126
0.460098
0.460069
0.460041
0.460013
0.459986
0.459963
0.459943
0.459917
0.459889
0.45986
0.459832
0.459804
0.459774
0.459743
0.459707
0.459672
0.459643
0.459614
0.459586
0.459558
0.459529
0.459501
0.459473
0.459447
0.459426
0.459424
0.459424
0.459402
0.459374
0.459345
0.459317
0.459288
0.459256
0.459216
0.459172
0.45914
0.459111
0.459083
0.459054
0.459026
0.458999
0.458973
0.458954
0.458936
0.45891
0.458882
0.458853
0.458825
0.458797
0.458768
0.45874
0.458711
0.458683
0.458655
0.458627
0.4586
0.458574
0.45855
0.458523
0.458495
0.458467
0.458438
0.45841
0.458382
0.458353
0.458324
0.458296
0.458268
0.45824
0.458211
0.458184
0.458157
0.458134
0.458117
0.458093
0.458066
0.458038
0.45801
0.457982
0.457953
0.457925
0.457897
0.457868
0.45784
0.457812
0.457784
0.457758
0.457734
0.45771
0.457682
0.457654
0.457626
0.457598
0.45757
0.457541
0.457512
0.457482
0.457453
0.457425
0.457397
0.457369
0.457341
0.457313
0.457285
0.45726
0.457241
0.457219
0.457192
0.457164
0.457136
0.457108
0.457079
0.457051
0.457022
0.456994
0.456965
0.456937
0.45691
0.456882
0.456857