/*--------------------------------*- C++ -*----------------------------------*\
  =========                 |
  \\      /  F ield         | OpenFOAM: The Open Source CFD Toolbox
   \\    /   O peration     | Website:  https://openfoam.org
    \\  /    A nd           | Version:  9
     \\/     M anipulation  |
\*---------------------------------------------------------------------------*/
FoamFile
{
    format      ascii;
    class       volScalarField;
    location    "0.033";
    object      ddt0(rho);
}
// * * * * * * * * * * * * * * * * * * * * * * * * * * * * * * * * * * * * * //

dimensions      [1 -3 -1 0 0 0 0];

internalField   nonuniform List<scalar> 
10000
(
-10.4944
-10.4941
-10.4937
-10.4933
-10.4928
-10.4925
-10.4921
-10.4917
-10.4912
-10.4907
-10.4904
-10.4901
-10.4896
-10.489
-10.4886
-10.4884
-10.4881
-10.4877
-10.487
-10.4864
-10.4861
-10.486
-10.4859
-10.4854
-10.4845
-10.4838
-10.4835
-10.4835
-10.4836
-10.4833
-10.4824
-10.4814
-10.4807
-10.4805
-10.4808
-10.4811
-10.4809
-10.48
-10.4788
-10.4777
-10.4772
-10.4774
-10.478
-10.4784
-10.4783
-10.4773
-10.4759
-10.4744
-10.4735
-10.4734
-10.474
-10.475
-10.4757
-10.4757
-10.4748
-10.4732
-10.4713
-10.4697
-10.4689
-10.4689
-10.4698
-10.4711
-10.4723
-10.473
-10.4729
-10.4719
-10.4701
-10.4679
-10.4657
-10.4641
-10.4632
-10.4632
-10.4642
-10.4657
-10.4676
-10.4693
-10.4707
-10.4713
-10.471
-10.4698
-10.4679
-10.4655
-10.4627
-10.4599
-10.4573
-10.4553
-10.454
-10.4534
-10.4537
-10.4548
-10.4567
-10.4592
-10.4622
-10.4656
-10.4692
-10.473
-10.4766
-10.4801
-10.4833
-10.4862
-10.4886
-10.4905
-10.492
-10.493
-10.4935
-10.4937
-10.4937
-10.4937
-10.494
-10.495
-10.4983
-10.4996
-10.4997
-10.4997
-10.4997
-10.4996
-10.4995
-10.4994
-10.4993
-10.4992
-10.4991
-10.499
-10.4989
-10.4989
-10.4988
-10.4987
-10.4986
-10.4986
-10.4985
-10.4984
-10.4984
-10.4983
-10.4982
-10.4982
-10.4981
-10.498
-10.498
-10.4979
-10.4978
-10.4977
-10.4977
-10.4976
-10.4976
-10.4975
-10.4974
-10.4974
-10.4973
-10.4972
-10.4972
-10.4971
-10.497
-10.497
-10.4969
-10.4968
-10.4968
-10.4967
-10.4966
-10.4966
-10.4965
-10.4964
-10.4964
-10.4963
-10.4962
-10.4962
-10.4961
-10.496
-10.496
-10.4959
-10.4958
-10.4958
-10.4957
-10.4956
-10.4956
-10.4955
-10.4954
-10.4954
-10.4953
-10.4952
-10.4952
-10.4951
-10.495
-10.495
-10.4949
-10.4948
-10.4947
-10.4947
-10.4946
-10.4945
-10.4945
-10.4944
-10.4943
-10.4943
-10.4942
-10.4941
-10.4941
-10.494
-10.4939
-10.4939
-10.4938
-10.4937
-10.4937
-10.4936
-10.4935
-10.4934
-10.4934
-10.4933
-10.4932
-10.4932
-10.4931
-10.493
-10.493
-10.4929
-10.4928
-10.4928
-10.4927
-10.4926
-10.4926
-10.4925
-10.4924
-10.4923
-10.4923
-10.4922
-10.4921
-10.4921
-10.492
-10.4919
-10.4918
-10.4918
-10.4917
-10.4916
-10.4916
-10.4915
-10.4914
-10.4914
-10.4913
-10.4912
-10.4911
-10.4911
-10.491
-10.4909
-10.4909
-10.4908
-10.4907
-10.4906
-10.4906
-10.4905
-10.4904
-10.4904
-10.4903
-10.4902
-10.4902
-10.4901
-10.49
-10.4899
-10.4899
-10.4898
-10.4897
-10.4897
-10.4896
-10.4895
-10.4894
-10.4894
-10.4893
-10.4892
-10.4892
-10.4891
-10.489
-10.4889
-10.4889
-10.4888
-10.4887
-10.4886
-10.4886
-10.4885
-10.4884
-10.4884
-10.4883
-10.4882
-10.4881
-10.4881
-10.488
-10.4879
-10.4878
-10.4878
-10.4877
-10.4876
-10.4876
-10.4875
-10.4874
-10.4873
-10.4873
-10.4872
-10.4871
-10.487
-10.487
-10.4869
-10.4868
-10.4868
-10.4867
-10.4866
-10.4865
-10.4865
-10.4864
-10.4863
-10.4862
-10.4862
-10.4861
-10.486
-10.4859
-10.4859
-10.4858
-10.4857
-10.4856
-10.4856
-10.4855
-10.4854
-10.4853
-10.4853
-10.4852
-10.4851
-10.485
-10.485
-10.4849
-10.4848
-10.4847
-10.4847
-10.4846
-10.4845
-10.4844
-10.4844
-10.4843
-10.4842
-10.4841
-10.4841
-10.484
-10.4839
-10.4838
-10.4838
-10.4837
-10.4836
-10.4835
-10.4835
-10.4834
-10.4833
-10.4832
-10.4832
-10.4831
-10.483
-10.4829
-10.4829
-10.4828
-10.4827
-10.4826
-10.4826
-10.4825
-10.4824
-10.4823
-10.4823
-10.4822
-10.4821
-10.482
-10.4819
-10.4819
-10.4818
-10.4817
-10.4816
-10.4816
-10.4815
-10.4814
-10.4813
-10.4812
-10.4812
-10.4811
-10.481
-10.4809
-10.4809
-10.4808
-10.4807
-10.4806
-10.4806
-10.4805
-10.4804
-10.4803
-10.4802
-10.4802
-10.4801
-10.48
-10.4799
-10.4799
-10.4798
-10.4797
-10.4796
-10.4795
-10.4795
-10.4794
-10.4793
-10.4792
-10.4792
-10.4791
-10.479
-10.4789
-10.4788
-10.4788
-10.4787
-10.4786
-10.4785
-10.4784
-10.4784
-10.4783
-10.4782
-10.4781
-10.478
-10.478
-10.4779
-10.4778
-10.4777
-10.4777
-10.4776
-10.4775
-10.4774
-10.4773
-10.4773
-10.4772
-10.4771
-10.477
-10.4769
-10.4769
-10.4768
-10.4767
-10.4766
-10.4765
-10.4765
-10.4764
-10.4763
-10.4762
-10.4761
-10.476
-10.476
-10.4759
-10.4758
-10.4757
-10.4756
-10.4756
-10.4755
-10.4754
-10.4753
-10.4752
-10.4752
-10.4751
-10.475
-10.4749
-10.4748
-10.4748
-10.4747
-10.4746
-10.4745
-10.4744
-10.4744
-10.4743
-10.4742
-10.4741
-10.474
-10.4739
-10.4739
-10.4738
-10.4737
-10.4736
-10.4735
-10.4735
-10.4734
-10.4733
-10.4732
-10.4731
-10.473
-10.473
-10.4729
-10.4728
-10.4727
-10.4726
-10.4725
-10.4725
-10.4724
-10.4723
-10.4722
-10.4721
-10.4721
-10.472
-10.4719
-10.4718
-10.4717
-10.4716
-10.4716
-10.4715
-10.4714
-10.4713
-10.4712
-10.4711
-10.4711
-10.471
-10.4709
-10.4708
-10.4707
-10.4706
-10.4705
-10.4705
-10.4704
-10.4703
-10.4702
-10.4701
-10.47
-10.47
-10.4699
-10.4698
-10.4697
-10.4696
-10.4695
-10.4695
-10.4694
-10.4693
-10.4692
-10.4691
-10.469
-10.469
-10.4689
-10.4688
-10.4687
-10.4686
-10.4685
-10.4684
-10.4684
-10.4683
-10.4682
-10.4681
-10.468
-10.4679
-10.4678
-10.4678
-10.4677
-10.4676
-10.4675
-10.4674
-10.4673
-10.4672
-10.4672
-10.4671
-10.467
-10.4669
-10.4668
-10.4667
-10.4666
-10.4666
-10.4665
-10.4664
-10.4663
-10.4662
-10.4661
-10.466
-10.466
-10.4659
-10.4658
-10.4657
-10.4656
-10.4655
-10.4654
-10.4653
-10.4653
-10.4652
-10.4651
-10.465
-10.4649
-10.4648
-10.4647
-10.4647
-10.4646
-10.4645
-10.4644
-10.4643
-10.4642
-10.4641
-10.464
-10.464
-10.4639
-10.4638
-10.4637
-10.4636
-10.4635
-10.4634
-10.4633
-10.4632
-10.4632
-10.4631
-10.463
-10.4629
-10.4628
-10.4627
-10.4626
-10.4625
-10.4625
-10.4624
-10.4623
-10.4622
-10.4621
-10.462
-10.4619
-10.4618
-10.4617
-10.4617
-10.4616
-10.4615
-10.4614
-10.4613
-10.4612
-10.4611
-10.461
-10.4609
-10.4609
-10.4608
-10.4607
-10.4606
-10.4605
-10.4604
-10.4603
-10.4602
-10.4601
-10.46
-10.46
-10.4599
-10.4598
-10.4597
-10.4596
-10.4595
-10.4594
-10.4593
-10.4592
-10.4591
-10.4591
-10.459
-10.4589
-10.4588
-10.4587
-10.4586
-10.4585
-10.4584
-10.4583
-10.4582
-10.4581
-10.4581
-10.458
-10.4579
-10.4578
-10.4577
-10.4576
-10.4575
-10.4574
-10.4573
-10.4572
-10.4571
-10.457
-10.457
-10.4569
-10.4568
-10.4567
-10.4566
-10.4565
-10.4564
-10.4563
-10.4562
-10.4561
-10.456
-10.4559
-10.4559
-10.4558
-10.4557
-10.4556
-10.4555
-10.4554
-10.4553
-10.4552
-10.4551
-10.455
-10.4549
-10.4548
-10.4547
-10.4547
-10.4546
-10.4545
-10.4544
-10.4543
-10.4542
-10.4541
-10.454
-10.4539
-10.4538
-10.4537
-10.4536
-10.4535
-10.4534
-10.4533
-10.4532
-10.4532
-10.4531
-10.453
-10.4529
-10.4528
-10.4527
-10.4526
-10.4525
-10.4524
-10.4523
-10.4522
-10.4521
-10.452
-10.4519
-10.4518
-10.4517
-10.4517
-10.4516
-10.4515
-10.4514
-10.4513
-10.4512
-10.4511
-10.451
-10.4509
-10.4508
-10.4507
-10.4506
-10.4505
-10.4504
-10.4503
-10.4502
-10.4501
-10.45
-10.4499
-10.4498
-10.4497
-10.4497
-10.4496
-10.4495
-10.4494
-10.4493
-10.4492
-10.4491
-10.449
-10.4489
-10.4488
-10.4487
-10.4486
-10.4485
-10.4484
-10.4483
-10.4482
-10.4481
-10.448
-10.4479
-10.4478
-10.4477
-10.4476
-10.4475
-10.4474
-10.4474
-10.4472
-10.4472
-10.447
-10.447
-10.4468
-10.4468
-10.4465
-10.4467
-10.4463
-10.4466
-10.446
-10.4465
-10.4458
-10.4463
-10.4455
-10.4462
-10.4453
-10.4459
-10.4452
-10.4456
-10.4453
-10.4451
-10.4452
-10.445
-10.4449
-10.4448
-10.4447
-10.4446
-10.4445
-10.4444
-10.4443
-10.4442
-10.4441
-10.444
-10.444
-10.4437
-10.444
-10.4432
-10.4441
-10.4426
-10.4443
-10.4422
-10.4443
-10.4419
-10.4439
-10.4421
-10.4432
-10.4426
-10.4421
-10.4433
-10.4411
-10.4437
-10.4405
-10.4435
-10.4408
-10.4425
-10.4417
-10.441
-10.4428
-10.4398
-10.4432
-10.4395
-10.4424
-10.4404
-10.4407
-10.4419
-10.4391
-10.4426
-10.4385
-10.442
-10.4395
-10.44
-10.4413
-10.4381
-10.4422
-10.4377
-10.4411
-10.4392
-10.4387
-10.4412
-10.437
-10.4416
-10.4374
-10.4396
-10.4396
-10.437
-10.4412
-10.4362
-10.4402
-10.4379
-10.4374
-10.4403
-10.4354
-10.4404
-10.4365
-10.4378
-10.4392
-10.435
-10.4403
-10.4353
-10.4379
-10.4382
-10.4347
-10.4399
-10.4344
-10.4379
-10.4373
-10.4344
-10.4395
-10.4337
-10.4377
-10.4366
-10.4339
-10.439
-10.4331
-10.4373
-10.436
-10.4335
-10.4384
-10.4325
-10.4369
-10.4353
-10.4331
-10.4379
-10.432
-10.4364
-10.4349
-10.4324
-10.4374
-10.4315
-10.4355
-10.4348
-10.4315
-10.4371
-10.4313
-10.4344
-10.435
-10.4305
-10.4365
-10.4314
-10.4329
-10.4355
-10.4296
-10.4356
-10.432
-10.431
-10.4358
-10.4291
-10.4339
-10.4331
-10.4291
-10.4356
-10.4296
-10.4315
-10.4344
-10.4278
-10.4343
-10.4311
-10.4288
-10.435
-10.428
-10.4315
-10.4332
-10.4268
-10.434
-10.4298
-10.4282
-10.4344
-10.4268
-10.4309
-10.4324
-10.4257
-10.4333
-10.429
-10.427
-10.4338
-10.426
-10.4297
-10.432
-10.4247
-10.4321
-10.4288
-10.4256
-10.4329
-10.4257
-10.428
-10.4316
-10.424
-10.4305
-10.4288
-10.4243
-10.4318
-10.4258
-10.4261
-10.4313
-10.4236
-10.4284
-10.4293
-10.4228
-10.4303
-10.4266
-10.4236
-10.4309
-10.4239
-10.4254
-10.4302
-10.4221
-10.4275
-10.4283
-10.4214
-10.4291
-10.4258
-10.422
-10.4298
-10.4233
-10.4233
-10.4294
-10.4214
-10.425
-10.4282
-10.4202
-10.4266
-10.4262
-10.42
-10.4278
-10.4241
-10.4205
-10.4283
-10.4219
-10.4215
-10.4281
-10.4201
-10.4229
-10.4272
-10.4187
-10.4244
-10.4257
-10.418
-10.4256
-10.4239
-10.4179
-10.4265
-10.422
-10.4183
-10.4269
-10.42
-10.4191
-10.4268
-10.4183
-10.4201
-10.4263
-10.4169
-10.4211
-10.4254
-10.4159
-10.4222
-10.4242
-10.4152
-10.4231
-10.4229
-10.4148
-10.4238
-10.4214
-10.4147
-10.4242
-10.42
-10.4148
-10.4245
-10.4186
-10.4151
-10.4245
-10.4173
-10.4155
-10.4243
-10.4162
-10.4159
-10.4239
-10.4151
-10.4164
-10.4235
-10.4142
-10.4168
-10.4229
-10.4134
-10.4171
-10.4222
-10.4128
-10.4174
-10.4215
-10.4122
-10.4176
-10.4209
-10.4117
-10.4178
-10.4202
-10.4113
-10.4178
-10.4196
-10.4109
-10.4178
-10.419
-10.4105
-10.4177
-10.4185
-10.4101
-10.4175
-10.418
-10.4098
-10.4173
-10.4177
-10.4094
-10.417
-10.4174
-10.409
-10.4166
-10.4172
-10.4086
-10.4161
-10.417
-10.4082
-10.4155
-10.417
-10.4079
-10.4148
-10.4169
-10.4076
-10.4141
-10.4169
-10.4074
-10.4132
-10.4169
-10.4073
-10.4122
-10.417
-10.4073
-10.4112
-10.4169
-10.4073
-10.4101
-10.4168
-10.4076
-10.409
-10.4166
-10.4079
-10.4079
-10.4162
-10.4084
-10.4068
-10.4157
-10.409
-10.4058
-10.415
-10.4097
-10.4049
-10.4141
-10.4104
-10.4042
-10.413
-10.4111
-10.4037
-10.4117
-10.4117
-10.4034
-10.4103
-10.4123
-10.4033
-10.4087
-10.4127
-10.4036
-10.4071
-10.4129
-10.4041
-10.4054
-10.4128
-10.4049
-10.4039
-10.4122
-10.406
-10.4024
-10.4113
-10.4072
-10.4013
-10.41
-10.4084
-10.4007
-10.4083
-10.4095
-10.4006
-10.4063
-10.4102
-10.4011
-10.404
-10.4105
-10.4021
-10.4019
-10.4101
-10.4035
-10.4002
-10.4091
-10.4051
-10.3991
-10.4074
-10.4066
-10.3987
-10.4051
-10.4078
-10.399
-10.4027
-10.4084
-10.4
-10.4004
-10.4081
-10.4016
-10.3985
-10.4069
-10.4034
-10.3973
-10.4049
-10.4051
-10.397
-10.4024
-10.4063
-10.3977
-10.3998
-10.4065
-10.3993
-10.3975
-10.4056
-10.4013
-10.396
-10.4036
-10.4033
-10.3956
-10.401
-10.4045
-10.3963
-10.3983
-10.4046
-10.398
-10.396
-10.4036
-10.4001
-10.3946
-10.4015
-10.402
-10.3944
-10.3988
-10.403
-10.3955
-10.3961
-10.4027
-10.3975
-10.394
-10.4013
-10.3996
-10.393
-10.3987
-10.4012
-10.3936
-10.3957
-10.4016
-10.3955
-10.3932
-10.4005
-10.3978
-10.3918
-10.3979
-10.3997
-10.3923
-10.3948
-10.4003
-10.3941
-10.3921
-10.3992
-10.3966
-10.3908
-10.3966
-10.3984
-10.3913
-10.3934
-10.3989
-10.3933
-10.3908
-10.3975
-10.3957
-10.3898
-10.3948
-10.3973
-10.3907
-10.3917
-10.3973
-10.3927
-10.3895
-10.3956
-10.3949
-10.389
-10.3928
-10.3962
-10.3902
-10.3898
-10.3957
-10.3924
-10.3881
-10.3935
-10.3944
-10.3883
-10.3904
-10.395
-10.3901
-10.3878
-10.3937
-10.3925
-10.3869
-10.3908
-10.3939
-10.3881
-10.3877
-10.3935
-10.3905
-10.386
-10.391
-10.3926
-10.3865
-10.3877
-10.3928
-10.3888
-10.3854
-10.3907
-10.3912
-10.3853
-10.3875
-10.3918
-10.3873
-10.3849
-10.3902
-10.3898
-10.3844
-10.3871
-10.3907
-10.386
-10.3845
-10.3895
-10.3884
-10.3836
-10.3867
-10.3895
-10.3849
-10.384
-10.3886
-10.387
-10.3829
-10.3861
-10.3884
-10.3838
-10.3834
-10.3878
-10.3859
-10.382
-10.3854
-10.3874
-10.3828
-10.3826
-10.387
-10.3849
-10.3811
-10.3845
-10.3866
-10.382
-10.3816
-10.386
-10.3843
-10.3803
-10.3833
-10.3858
-10.3814
-10.3804
-10.3848
-10.3837
-10.3796
-10.382
-10.3848
-10.381
-10.3794
-10.3834
-10.3831
-10.3791
-10.3806
-10.3836
-10.3807
-10.3786
-10.382
-10.3823
-10.3786
-10.3795
-10.3824
-10.3801
-10.3778
-10.3807
-10.3815
-10.378
-10.3783
-10.3813
-10.3796
-10.3769
-10.3794
-10.3808
-10.3775
-10.377
-10.3802
-10.3792
-10.3761
-10.3778
-10.3801
-10.3772
-10.3757
-10.3787
-10.379
-10.3755
-10.3762
-10.3791
-10.3771
-10.3746
-10.377
-10.3784
-10.3753
-10.3746
-10.3776
-10.377
-10.374
-10.3752
-10.3775
-10.3753
-10.3735
-10.3759
-10.3766
-10.3737
-10.3737
-10.3762
-10.3751
-10.3726
-10.3742
-10.3758
-10.3735
-10.3723
-10.3747
-10.3748
-10.3721
-10.3726
-10.3747
-10.3733
-10.3713
-10.373
-10.3742
-10.3718
-10.371
-10.3734
-10.3732
-10.3706
-10.3712
-10.3734
-10.3718
-10.3697
-10.3715
-10.3728
-10.3705
-10.3694
-10.3718
-10.3719
-10.3692
-10.3695
-10.3717
-10.3707
-10.3684
-10.3697
-10.3713
-10.3694
-10.368
-10.3699
-10.3705
-10.3682
-10.3678
-10.3699
-10.3694
-10.3673
-10.3679
-10.3696
-10.3682
-10.3666
-10.3681
-10.369
-10.3671
-10.3663
-10.3681
-10.3681
-10.3661
-10.3662
-10.3679
-10.367
-10.3652
-10.3663
-10.3675
-10.3659
-10.3647
-10.3662
-10.3669
-10.3649
-10.3644
-10.3661
-10.366
-10.364
-10.3642
-10.3659
-10.3651
-10.3632
-10.3641
-10.3654
-10.3641
-10.3627
-10.3639
-10.3648
-10.3632
-10.3623
-10.3638
-10.364
-10.3623
-10.3621
-10.3635
-10.3631
-10.3615
-10.3619
-10.3631
-10.3622
-10.3609
-10.3617
-10.3626
-10.3613
-10.3604
-10.3615
-10.3619
-10.3604
-10.3599
-10.3613
-10.3612
-10.3596
-10.3596
-10.3609
-10.3605
-10.3589
-10.3592
-10.3605
-10.3597
-10.3582
-10.3589
-10.36
-10.3589
-10.3577
-10.3586
-10.3594
-10.3581
-10.3572
-10.3583
-10.3587
-10.3574
-10.3568
-10.3579
-10.358
-10.3566
-10.3564
-10.3575
-10.3573
-10.356
-10.356
-10.357
-10.3565
-10.3553
-10.3556
-10.3565
-10.3558
-10.3547
-10.3553
-10.356
-10.3551
-10.3541
-10.3549
-10.3554
-10.3543
-10.3536
-10.3544
-10.3548
-10.3536
-10.3531
-10.354
-10.3542
-10.353
-10.3526
-10.3535
-10.3536
-10.3523
-10.3521
-10.353
-10.353
-10.3517
-10.3516
-10.3525
-10.3523
-10.3511
-10.3511
-10.352
-10.3516
-10.3506
-10.3506
-10.3514
-10.351
-10.35
-10.3502
-10.3508
-10.3503
-10.3494
-10.3497
-10.3503
-10.3496
-10.3488
-10.3492
-10.3497
-10.349
-10.3482
-10.3487
-10.3492
-10.3484
-10.3476
-10.3482
-10.3486
-10.3478
-10.347
-10.3476
-10.3481
-10.3472
-10.3465
-10.347
-10.3475
-10.3467
-10.3459
-10.3464
-10.3468
-10.3461
-10.3454
-10.3458
-10.3462
-10.3455
-10.3449
-10.3453
-10.3456
-10.3449
-10.3444
-10.3448
-10.3449
-10.3443
-10.3438
-10.3443
-10.3444
-10.3436
-10.3432
-10.3437
-10.3438
-10.343
-10.3426
-10.3431
-10.3433
-10.3425
-10.3419
-10.3425
-10.3428
-10.342
-10.3413
-10.3418
-10.3422
-10.3415
-10.3408
-10.3411
-10.3415
-10.341
-10.3403
-10.3405
-10.3409
-10.3404
-10.3398
-10.3399
-10.3402
-10.3398
-10.3392
-10.3394
-10.3396
-10.3392
-10.3386
-10.3388
-10.3391
-10.3386
-10.338
-10.3382
-10.3385
-10.338
-10.3374
-10.3376
-10.338
-10.3375
-10.3368
-10.3369
-10.3373
-10.337
-10.3362
-10.3362
-10.3366
-10.3365
-10.3358
-10.3355
-10.3359
-10.3359
-10.3353
-10.335
-10.3352
-10.3353
-10.3348
-10.3344
-10.3346
-10.3346
-10.3342
-10.3339
-10.334
-10.334
-10.3336
-10.3332
-10.3335
-10.3335
-10.333
-10.3326
-10.3328
-10.333
-10.3324
-10.3319
-10.3321
-10.3324
-10.3319
-10.3313
-10.3314
-10.3317
-10.3315
-10.3308
-10.3307
-10.331
-10.3309
-10.3303
-10.33
-10.3303
-10.3303
-10.3298
-10.3295
-10.3296
-10.3297
-10.3293
-10.3289
-10.329
-10.329
-10.3287
-10.3283
-10.3284
-10.3284
-10.3281
-10.3277
-10.3278
-10.3279
-10.3275
-10.327
-10.3271
-10.3273
-10.327
-10.3265
-10.3263
-10.3266
-10.3265
-10.3259
-10.3257
-10.3259
-10.326
-10.3255
-10.325
-10.3251
-10.3253
-10.325
-10.3245
-10.3245
-10.3246
-10.3244
-10.324
-10.3238
-10.3239
-10.3238
-10.3234
-10.3232
-10.3233
-10.3232
-10.3228
-10.3226
-10.3227
-10.3226
-10.3222
-10.3219
-10.322
-10.322
-10.3217
-10.3212
-10.3213
-10.3214
-10.3212
-10.3207
-10.3205
-10.3207
-10.3206
-10.3202
-10.3199
-10.32
-10.32
-10.3197
-10.3193
-10.3193
-10.3193
-10.3191
-10.3187
-10.3186
-10.3187
-10.3185
-10.3181
-10.318
-10.318
-10.3179
-10.3175
-10.3173
-10.3174
-10.3173
-10.3169
-10.3166
-10.3167
-10.3167
-10.3164
-10.316
-10.3159
-10.3161
-10.3159
-10.3155
-10.3152
-10.3153
-10.3153
-10.3149
-10.3146
-10.3146
-10.3146
-10.3144
-10.314
-10.3139
-10.3139
-10.3137
-10.3134
-10.3133
-10.3133
-10.3131
-10.3128
-10.3126
-10.3126
-10.3126
-10.3122
-10.3119
-10.3119
-10.312
-10.3117
-10.3113
-10.3112
-10.3113
-10.3111
-10.3108
-10.3105
-10.3105
-10.3105
-10.3102
-10.3099
-10.3098
-10.3098
-10.3096
-10.3093
-10.3091
-10.3091
-10.309
-10.3087
-10.3085
-10.3084
-10.3084
-10.3081
-10.3079
-10.3078
-10.3077
-10.3075
-10.3072
-10.3071
-10.3071
-10.3069
-10.3066
-10.3064
-10.3064
-10.3063
-10.3061
-10.3057
-10.3056
-10.3056
-10.3055
-10.3052
-10.3049
-10.3049
-10.3049
-10.3046
-10.3043
-10.3042
-10.3042
-10.304
-10.3037
-10.3035
-10.3035
-10.3033
-10.3031
-10.3029
-10.3028
-10.3027
-10.3025
-10.3022
-10.3021
-10.3021
-10.3019
-10.3016
-10.3014
-10.3014
-10.3013
-10.301
-10.3007
-10.3006
-10.3006
-10.3004
-10.3001
-10.2999
-10.2999
-10.2998
-10.2995
-10.2993
-10.2992
-10.2991
-10.2989
-10.2986
-10.2985
-10.2984
-10.2983
-10.298
-10.2978
-10.2977
-10.2976
-10.2974
-10.2971
-10.297
-10.2969
-10.2968
-10.2965
-10.2963
-10.2962
-10.2961
-10.2959
-10.2956
-10.2955
-10.2955
-10.2953
-10.295
-10.2948
-10.2947
-10.2947
-10.2944
-10.2941
-10.294
-10.294
-10.2938
-10.2935
-10.2933
-10.2932
-10.2931
-10.2929
-10.2927
-10.2925
-10.2924
-10.2923
-10.292
-10.2918
-10.2917
-10.2916
-10.2914
-10.2912
-10.291
-10.2909
-10.2907
-10.2905
-10.2903
-10.2903
-10.2901
-10.2899
-10.2896
-10.2895
-10.2894
-10.2893
-10.289
-10.2888
-10.2887
-10.2886
-10.2884
-10.2881
-10.288
-10.2879
-10.2877
-10.2875
-10.2873
-10.2872
-10.287
-10.2868
-10.2866
-10.2865
-10.2864
-10.2862
-10.286
-10.2858
-10.2857
-10.2855
-10.2853
-10.2851
-10.2849
-10.2848
-10.2847
-10.2844
-10.2842
-10.2841
-10.284
-10.2838
-10.2836
-10.2834
-10.2833
-10.2831
-10.2829
-10.2827
-10.2825
-10.2824
-10.2823
-10.282
-10.2819
-10.2817
-10.2816
-10.2814
-10.2812
-10.281
-10.2809
-10.2807
-10.2805
-10.2803
-10.2802
-10.28
-10.2798
-10.2796
-10.2794
-10.2793
-10.2792
-10.2789
-10.2787
-10.2786
-10.2785
-10.2783
-10.2781
-10.2779
-10.2777
-10.2776
-10.2774
-10.2772
-10.277
-10.2769
-10.2767
-10.2765
-10.2763
-10.2762
-10.276
-10.2758
-10.2756
-10.2754
-10.2753
-10.2752
-10.2749
-10.2747
-10.2746
-10.2745
-10.2743
-10.274
-10.2738
-10.2737
-10.2736
-10.2734
-10.2732
-10.273
-10.2728
-10.2727
-10.2725
-10.2723
-10.2721
-10.2719
-10.2718
-10.2716
-10.2714
-10.2713
-10.2711
-10.2709
-10.2707
-10.2705
-10.2704
-10.2702
-10.27
-10.2698
-10.2696
-10.2695
-10.2693
-10.2691
-10.2689
-10.2687
-10.2686
-10.2685
-10.2682
-10.268
-10.2678
-10.2677
-10.2675
-10.2673
-10.2671
-10.267
-10.2668
-10.2666
-10.2664
-10.2663
-10.2661
-10.2659
-10.2657
-10.2655
-10.2654
-10.2652
-10.265
-10.2648
-10.2646
-10.2645
-10.2643
-10.2641
-10.2639
-10.2637
-10.2636
-10.2634
-10.2632
-10.263
-10.2628
-10.2627
-10.2625
-10.2623
-10.2621
-10.2619
-10.2617
-10.2616
-10.2614
-10.2612
-10.2611
-10.2608
-10.2606
-10.2604
-10.2603
-10.2602
-10.26
-10.2597
-10.2595
-10.2594
-10.2592
-10.2591
-10.2588
-10.2586
-10.2585
-10.2583
-10.2581
-10.2579
-10.2577
-10.2575
-10.2574
-10.2572
-10.257
-10.2568
-10.2566
-10.2564
-10.2563
-10.2561
-10.2559
-10.2557
-10.2555
-10.2553
-10.2551
-10.255
-10.2548
-10.2546
-10.2544
-10.2542
-10.2541
-10.2539
-10.2537
-10.2535
-10.2533
-10.2531
-10.253
-10.2528
-10.2526
-10.2524
-10.2522
-10.252
-10.2518
-10.2516
-10.2515
-10.2513
-10.2511
-10.2509
-10.2507
-10.2505
-10.2504
-10.2501
-10.2499
-10.2497
-10.2496
-10.2494
-10.2492
-10.249
-10.2488
-10.2486
-10.2485
-10.2483
-10.2481
-10.2479
-10.2477
-10.2475
-10.2473
-10.2471
-10.247
-10.2468
-10.2466
-10.2464
-10.2462
-10.246
-10.2458
-10.2456
-10.2454
-10.2452
-10.2451
-10.2449
-10.2447
-10.2445
-10.2443
-10.2441
-10.2439
-10.2437
-10.2435
-10.2433
-10.2432
-10.243
-10.2428
-10.2426
-10.2424
-10.2422
-10.242
-10.2418
-10.2416
-10.2414
-10.2413
-10.2411
-10.2409
-10.2407
-10.2405
-10.2403
-10.2401
-10.2399
-10.2397
-10.2395
-10.2393
-10.2391
-10.2389
-10.2387
-10.2386
-10.2384
-10.2382
-10.238
-10.2378
-10.2376
-10.2374
-10.2372
-10.237
-10.2368
-10.2366
-10.2364
-10.2362
-10.236
-10.2358
-10.2356
-10.2355
-10.2353
-10.2351
-10.2349
-10.2347
-10.2345
-10.2343
-10.2341
-10.2339
-10.2337
-10.2335
-10.2333
-10.2331
-10.2329
-10.2327
-10.2325
-10.2323
-10.2321
-10.2319
-10.2317
-10.2316
-10.2314
-10.2311
-10.2309
-10.2307
-10.2306
-10.2304
-10.2302
-10.23
-10.2298
-10.2296
-10.2294
-10.2292
-10.229
-10.2288
-10.2286
-10.2284
-10.2282
-10.228
-10.2278
-10.2276
-10.2274
-10.2272
-10.227
-10.2268
-10.2266
-10.2264
-10.2262
-10.226
-10.2258
-10.2256
-10.2254
-10.2252
-10.225
-10.2248
-10.2246
-10.2244
-10.2242
-10.224
-10.2238
-10.2236
-10.2234
-10.2232
-10.223
-10.2228
-10.2226
-10.2224
-10.2222
-10.2219
-10.2218
-10.2216
-10.2214
-10.2212
-10.2209
-10.2207
-10.2205
-10.2203
-10.2201
-10.2199
-10.2197
-10.2195
-10.2193
-10.2191
-10.2189
-10.2187
-10.2185
-10.2183
-10.2181
-10.2179
-10.2177
-10.2175
-10.2173
-10.2171
-10.2169
-10.2167
-10.2165
-10.2163
-10.2161
-10.2158
-10.2156
-10.2154
-10.2152
-10.215
-10.2148
-10.2146
-10.2144
-10.2142
-10.214
-10.2138
-10.2136
-10.2134
-10.2132
-10.2129
-10.2127
-10.2125
-10.2123
-10.2121
-10.2119
-10.2117
-10.2115
-10.2113
-10.2111
-10.2109
-10.2107
-10.2105
-10.2102
-10.21
-10.2098
-10.2096
-10.2094
-10.2092
-10.209
-10.2088
-10.2085
-10.2084
-10.2082
-10.2079
-10.2077
-10.2075
-10.2073
-10.2071
-10.2069
-10.2067
-10.2065
-10.2062
-10.206
-10.2058
-10.2056
-10.2054
-10.2052
-10.205
-10.2047
-10.2045
-10.2043
-10.2041
-10.2039
-10.2037
-10.2035
-10.2032
-10.203
-10.2028
-10.2026
-10.2024
-10.2022
-10.2019
-10.2017
-10.2015
-10.2013
-10.2011
-10.2009
-10.2007
-10.2004
-10.2002
-10.2
-10.1998
-10.1996
-10.1994
-10.1991
-10.1989
-10.1987
-10.1985
-10.1983
-10.1981
-10.1978
-10.1976
-10.1974
-10.1972
-10.197
-10.1968
-10.1965
-10.1963
-10.1961
-10.1959
-10.1957
-10.1954
-10.1952
-10.195
-10.1948
-10.1945
-10.1943
-10.1941
-10.1939
-10.1937
-10.1934
-10.1932
-10.193
-10.1928
-10.1926
-10.1924
-10.1921
-10.1919
-10.1917
-10.1914
-10.1912
-10.191
-10.1908
-10.1906
-10.1903
-10.1901
-10.1899
-10.1897
-10.1895
-10.1892
-10.189
-10.1888
-10.1885
-10.1883
-10.1881
-10.1879
-10.1877
-10.1874
-10.1872
-10.187
-10.1868
-10.1865
-10.1863
-10.1861
-10.1859
-10.1856
-10.1854
-10.1852
-10.185
-10.1847
-10.1845
-10.1843
-10.1841
-10.1838
-10.1836
-10.1834
-10.1832
-10.1829
-10.1827
-10.1825
-10.1822
-10.182
-10.1818
-10.1816
-10.1813
-10.1811
-10.1809
-10.1807
-10.1804
-10.1802
-10.18
-10.1797
-10.1795
-10.1793
-10.179
-10.1788
-10.1786
-10.1784
-10.1781
-10.1779
-10.1777
-10.1774
-10.1772
-10.177
-10.1767
-10.1765
-10.1763
-10.176
-10.1758
-10.1756
-10.1753
-10.1751
-10.1749
-10.1746
-10.1744
-10.1742
-10.1739
-10.1737
-10.1735
-10.1732
-10.173
-10.1728
-10.1725
-10.1723
-10.172
-10.1718
-10.1716
-10.1713
-10.1711
-10.1709
-10.1706
-10.1704
-10.1701
-10.1699
-10.1697
-10.1694
-10.1692
-10.169
-10.1687
-10.1685
-10.1682
-10.168
-10.1678
-10.1675
-10.1673
-10.167
-10.1668
-10.1665
-10.1663
-10.1661
-10.1658
-10.1656
-10.1653
-10.1651
-10.1648
-10.1646
-10.1644
-10.1641
-10.1639
-10.1636
-10.1634
-10.1631
-10.1629
-10.1626
-10.1624
-10.1622
-10.1619
-10.1617
-10.1614
-10.1612
-10.1609
-10.1607
-10.1604
-10.1602
-10.1599
-10.1597
-10.1594
-10.1592
-10.1589
-10.1587
-10.1584
-10.1582
-10.1579
-10.1577
-10.1574
-10.1572
-10.1569
-10.1567
-10.1564
-10.1562
-10.1559
-10.1557
-10.1554
-10.1552
-10.1549
-10.1547
-10.1544
-10.1542
-10.1539
-10.1537
-10.1534
-10.1532
-10.1529
-10.1527
-10.1524
-10.1521
-10.1519
-10.1516
-10.1514
-10.1511
-10.1509
-10.1506
-10.1503
-10.1501
-10.1498
-10.1496
-10.1493
-10.1491
-10.1488
-10.1485
-10.1483
-10.148
-10.1478
-10.1475
-10.1473
-10.147
-10.1467
-10.1465
-10.1462
-10.1459
-10.1457
-10.1454
-10.1452
-10.1449
-10.1446
-10.1444
-10.1441
-10.1438
-10.1436
-10.1433
-10.1431
-10.1428
-10.1425
-10.1423
-10.142
-10.1417
-10.1415
-10.1412
-10.1409
-10.1407
-10.1404
-10.1401
-10.1399
-10.1396
-10.1393
-10.1391
-10.1388
-10.1385
-10.1382
-10.138
-10.1377
-10.1374
-10.1372
-10.1369
-10.1366
-10.1364
-10.1361
-10.1358
-10.1355
-10.1353
-10.135
-10.1347
-10.1344
-10.1342
-10.1339
-10.1336
-10.1334
-10.1331
-10.1328
-10.1325
-10.1322
-10.132
-10.1317
-10.1314
-10.1311
-10.1309
-10.1306
-10.1303
-10.13
-10.1297
-10.1295
-10.1292
-10.1289
-10.1286
-10.1283
-10.128
-10.1278
-10.1275
-10.1272
-10.1269
-10.1267
-10.1264
-10.1261
-10.1258
-10.1255
-10.1252
-10.1249
-10.1247
-10.1244
-10.1241
-10.1238
-10.1235
-10.1232
-10.1229
-10.1227
-10.1224
-10.1221
-10.1218
-10.1215
-10.1212
-10.1209
-10.1206
-10.1203
-10.12
-10.1197
-10.1194
-10.1191
-10.1189
-10.1186
-10.1183
-10.118
-10.1177
-10.1174
-10.1171
-10.1168
-10.1165
-10.1162
-10.1159
-10.1156
-10.1153
-10.115
-10.1147
-10.1144
-10.1141
-10.1138
-10.1135
-10.1132
-10.1129
-10.1126
-10.1123
-10.112
-10.1117
-10.1114
-10.1111
-10.1108
-10.1105
-10.1102
-10.1099
-10.1096
-10.1093
-10.109
-10.1087
-10.1083
-10.108
-10.1077
-10.1074
-10.1071
-10.1068
-10.1065
-10.1062
-10.1059
-10.1055
-10.1052
-10.1049
-10.1046
-10.1043
-10.104
-10.1037
-10.1033
-10.103
-10.1027
-10.1024
-10.1021
-10.1018
-10.1015
-10.1011
-10.1008
-10.1005
-10.1002
-10.0998
-10.0995
-10.0992
-10.0989
-10.0986
-10.0982
-10.0979
-10.0976
-10.0973
-10.0969
-10.0966
-10.0963
-10.0959
-10.0956
-10.0953
-10.095
-10.0946
-10.0943
-10.094
-10.0936
-10.0933
-10.093
-10.0926
-10.0923
-10.092
-10.0917
-10.0913
-10.091
-10.0906
-10.0903
-10.09
-10.0896
-10.0893
-10.089
-10.0886
-10.0883
-10.0879
-10.0876
-10.0872
-10.0869
-10.0866
-10.0862
-10.0859
-10.0855
-10.0852
-10.0848
-10.0845
-10.0841
-10.0838
-10.0834
-10.0831
-10.0827
-10.0824
-10.082
-10.0817
-10.0813
-10.081
-10.0806
-10.0803
-10.0799
-10.0796
-10.0792
-10.0788
-10.0785
-10.0781
-10.0778
-10.0774
-10.077
-10.0767
-10.0763
-10.0759
-10.0756
-10.0752
-10.0749
-10.0745
-10.0741
-10.0738
-10.0734
-10.073
-10.0726
-10.0723
-10.0719
-10.0715
-10.0712
-10.0708
-10.0704
-10.07
-10.0697
-10.0693
-10.0689
-10.0685
-10.0682
-10.0678
-10.0674
-10.067
-10.0666
-10.0663
-10.0659
-10.0655
-10.0651
-10.0647
-10.0643
-10.0639
-10.0635
-10.0632
-10.0628
-10.0624
-10.062
-10.0616
-10.0612
-10.0608
-10.0604
-10.06
-10.0596
-10.0592
-10.0588
-10.0584
-10.058
-10.0576
-10.0572
-10.0568
-10.0564
-10.056
-10.0556
-10.0552
-10.0548
-10.0544
-10.054
-10.0535
-10.0531
-10.0527
-10.0523
-10.0519
-10.0515
-10.0511
-10.0506
-10.0502
-10.0498
-10.0494
-10.049
-10.0485
-10.0481
-10.0477
-10.0473
-10.0468
-10.0464
-10.046
-10.0456
-10.0451
-10.0447
-10.0443
-10.0438
-10.0434
-10.043
-10.0425
-10.0421
-10.0416
-10.0412
-10.0408
-10.0403
-10.0399
-10.0394
-10.039
-10.0385
-10.0381
-10.0376
-10.0372
-10.0367
-10.0363
-10.0358
-10.0354
-10.0349
-10.0344
-10.034
-10.0335
-10.0331
-10.0326
-10.0321
-10.0317
-10.0312
-10.0307
-10.0303
-10.0298
-10.0293
-10.0289
-10.0284
-10.0279
-10.0274
-10.0269
-10.0265
-10.026
-10.0255
-10.025
-10.0245
-10.024
-10.0236
-10.0231
-10.0226
-10.0221
-10.0216
-10.0211
-10.0206
-10.0201
-10.0196
-10.0191
-10.0186
-10.0181
-10.0176
-10.0171
-10.0166
-10.0161
-10.0156
-10.015
-10.0145
-10.014
-10.0135
-10.013
-10.0125
-10.0119
-10.0114
-10.0109
-10.0104
-10.0098
-10.0093
-10.0088
-10.0082
-10.0077
-10.0072
-10.0066
-10.0061
-10.0055
-10.005
-10.0044
-10.0039
-10.0034
-10.0028
-10.0023
-10.0017
-10.0011
-10.0006
-10
-9.99946
-9.9989
-9.99834
-9.99778
-9.99721
-9.99663
-9.99606
-9.99547
-9.9949
-9.99432
-9.99375
-9.99317
-9.99259
-9.99201
-9.99141
-9.99081
-9.99022
-9.98962
-9.98903
-9.98844
-9.98785
-9.98725
-9.98664
-9.98603
-9.98541
-9.98479
-9.98418
-9.98357
-9.98296
-9.98235
-9.98173
-9.9811
-9.98047
-9.97984
-9.9792
-9.97857
-9.97794
-9.97731
-9.97667
-9.97603
-9.97539
-9.97474
-9.97408
-9.97342
-9.97277
-9.97212
-9.97146
-9.97081
-9.97015
-9.96948
-9.96881
-9.96813
-9.96745
-9.96677
-9.9661
-9.96542
-9.96474
-9.96406
-9.96337
-9.96267
-9.96197
-9.96127
-9.96057
-9.95987
-9.95917
-9.95847
-9.95776
-9.95704
-9.95632
-9.95559
-9.95487
-9.95414
-9.95342
-9.95269
-9.95196
-9.95123
-9.95048
-9.94974
-9.94899
-9.94823
-9.94748
-9.94673
-9.94598
-9.94522
-9.94446
-9.94369
-9.94291
-9.94213
-9.94135
-9.94057
-9.93979
-9.93901
-9.93822
-9.93743
-9.93663
-9.93583
-9.93502
-9.93421
-9.9334
-9.93258
-9.93177
-9.93095
-9.93013
-9.92929
-9.92846
-9.92762
-9.92678
-9.92594
-9.92509
-9.92424
-9.92339
-9.92254
-9.92167
-9.9208
-9.91993
-9.91905
-9.91818
-9.9173
-9.91641
-9.91553
-9.91464
-9.91373
-9.91283
-9.91192
-9.911
-9.91009
-9.90918
-9.90825
-9.90733
-9.9064
-9.90546
-9.90452
-9.90358
-9.90262
-9.90167
-9.90071
-9.89975
-9.89878
-9.89782
-9.89684
-9.89586
-9.89487
-9.89388
-9.89288
-9.89188
-9.89087
-9.88986
-9.88886
-9.88784
-9.88681
-9.88578
-9.88474
-9.8837
-9.88266
-9.88161
-9.88055
-9.87949
-9.87843
-9.87735
-9.87628
-9.8752
-9.8741
-9.87301
-9.87191
-9.8708
-9.8697
-9.86859
-9.86746
-9.86633
-9.86521
-9.86406
-9.86291
-9.86177
-9.86061
-9.85944
-9.85828
-9.85711
-9.85592
-9.85474
-9.85354
-9.85234
-9.85114
-9.84992
-9.8487
-9.84748
-9.84625
-9.84501
-9.84377
-9.84252
-9.84125
-9.83999
-9.83872
-9.83743
-9.83615
-9.83487
-9.83356
-9.83226
-9.83095
-9.82962
-9.82829
-9.82696
-9.82561
-9.82425
-9.8229
-9.82154
-9.82016
-9.81879
-9.8174
-9.816
-9.8146
-9.81318
-9.81175
-9.81033
-9.80889
-9.80744
-9.806
-9.80454
-9.80307
-9.80159
-9.80011
-9.7986
-9.7971
-9.79559
-9.79406
-9.79253
-9.791
-9.78945
-9.7879
-9.78633
-9.78476
-9.78316
-9.78157
-9.77997