/*--------------------------------*- C++ -*----------------------------------*\
  =========                 |
  \\      /  F ield         | OpenFOAM: The Open Source CFD Toolbox
   \\    /   O peration     | Website:  https://openfoam.org
    \\  /    A nd           | Version:  9
     \\/     M anipulation  |
\*---------------------------------------------------------------------------*/
FoamFile
{
    format      ascii;
    class       volScalarField;
    location    "0.033";
    object      ddt0(p);
}
// * * * * * * * * * * * * * * * * * * * * * * * * * * * * * * * * * * * * * //

dimensions      [1 -1 -3 0 0 0 0];

internalField   nonuniform List<scalar> 
10000
(
-872905
-872896
-872888
-872881
-872875
-872868
-872861
-872854
-872847
-872840
-872833
-872826
-872820
-872813
-872806
-872799
-872792
-872785
-872778
-872771
-872764
-872758
-872751
-872744
-872737
-872730
-872723
-872716
-872709
-872702
-872695
-872688
-872681
-872674
-872667
-872660
-872653
-872646
-872639
-872632
-872625
-872618
-872611
-872604
-872597
-872590
-872582
-872575
-872568
-872561
-872554
-872548
-872541
-872534
-872526
-872519
-872512
-872504
-872497
-872490
-872483
-872477
-872470
-872462
-872455
-872448
-872441
-872434
-872426
-872419
-872412
-872405
-872398
-872391
-872384
-872376
-872369
-872362
-872355
-872348
-872341
-872334
-872327
-872320
-872312
-872304
-872296
-872289
-872283
-872276
-872268
-872261
-872254
-872247
-872239
-872233
-872225
-872218
-872211
-872203
-872196
-872189
-872181
-872174
-872167
-872159
-872152
-872145
-872137
-872132
-872127
-872111
-872106
-872100
-872093
-872086
-872078
-872071
-872064
-872056
-872049
-872042
-872035
-872028
-872020
-872013
-872005
-871998
-871990
-871983
-871976
-871968
-871960
-871953
-871946
-871939
-871931
-871922
-871915
-871907
-871900
-871893
-871885
-871878
-871870
-871863
-871856
-871848
-871840
-871833
-871826
-871818
-871811
-871803
-871796
-871789
-871781
-871773
-871766
-871758
-871751
-871743
-871736
-871728
-871720
-871712
-871704
-871697
-871689
-871682
-871674
-871667
-871659
-871652
-871644
-871636
-871629
-871621
-871613
-871606
-871598
-871591
-871583
-871575
-871568
-871560
-871553
-871545
-871538
-871530
-871522
-871514
-871506
-871498
-871491
-871483
-871475
-871467
-871460
-871452
-871444
-871437
-871429
-871421
-871413
-871406
-871398
-871390
-871382
-871375
-871367
-871359
-871351
-871343
-871336
-871328
-871320
-871313
-871305
-871297
-871289
-871281
-871273
-871265
-871257
-871249
-871242
-871234
-871226
-871218
-871210
-871202
-871195
-871187
-871179
-871171
-871163
-871155
-871147
-871139
-871131
-871123
-871115
-871108
-871100
-871092
-871084
-871076
-871068
-871060
-871052
-871044
-871036
-871028
-871020
-871012
-871004
-870996
-870988
-870980
-870972
-870964
-870956
-870948
-870940
-870932
-870924
-870916
-870908
-870900
-870892
-870884
-870876
-870868
-870860
-870852
-870844
-870836
-870827
-870819
-870811
-870803
-870795
-870787
-870779
-870771
-870763
-870755
-870746
-870738
-870730
-870722
-870714
-870706
-870698
-870689
-870681
-870673
-870665
-870657
-870649
-870640
-870632
-870624
-870616
-870608
-870599
-870591
-870583
-870574
-870566
-870558
-870550
-870542
-870533
-870525
-870517
-870509
-870501
-870492
-870484
-870476
-870468
-870459
-870451
-870443
-870434
-870426
-870418
-870409
-870401
-870393
-870385
-870376
-870368
-870360
-870351
-870343
-870334
-870326
-870317
-870309
-870301
-870292
-870284
-870275
-870267
-870259
-870251
-870242
-870234
-870226
-870217
-870209
-870200
-870192
-870183
-870175
-870167
-870158
-870150
-870141
-870133
-870124
-870116
-870107
-870099
-870090
-870082
-870073
-870065
-870056
-870047
-870039
-870030
-870022
-870013
-870005
-869996
-869988
-869979
-869971
-869963
-869954
-869945
-869937
-869928
-869920
-869911
-869903
-869894
-869886
-869877
-869868
-869860
-869851
-869842
-869834
-869825
-869816
-869808
-869799
-869790
-869782
-869773
-869764
-869756
-869747
-869738
-869730
-869721
-869712
-869704
-869695
-869686
-869678
-869669
-869660
-869652
-869643
-869634
-869626
-869617
-869608
-869600
-869591
-869582
-869573
-869564
-869556
-869547
-869538
-869529
-869520
-869511
-869503
-869494
-869485
-869476
-869467
-869459
-869450
-869441
-869432
-869423
-869415
-869406
-869397
-869388
-869379
-869371
-869362
-869353
-869344
-869335
-869326
-869318
-869309
-869300
-869291
-869282
-869273
-869264
-869255
-869246
-869237
-869228
-869219
-869210
-869201
-869192
-869183
-869174
-869165
-869156
-869147
-869138
-869129
-869120
-869111
-869103
-869094
-869085
-869076
-869067
-869058
-869049
-869040
-869031
-869022
-869013
-869004
-868994
-868985
-868976
-868967
-868958
-868949
-868940
-868931
-868922
-868913
-868903
-868894
-868885
-868876
-868867
-868858
-868849
-868840
-868831
-868821
-868812
-868803
-868794
-868785
-868776
-868767
-868758
-868748
-868739
-868730
-868721
-868712
-868702
-868693
-868684
-868675
-868665
-868656
-868647
-868638
-868628
-868619
-868610
-868601
-868592
-868582
-868573
-868564
-868554
-868545
-868536
-868527
-868517
-868508
-868499
-868490
-868480
-868471
-868462
-868452
-868443
-868434
-868424
-868415
-868406
-868396
-868387
-868378
-868368
-868359
-868349
-868340
-868331
-868321
-868312
-868302
-868293
-868284
-868274
-868265
-868255
-868246
-868237
-868227
-868218
-868208
-868199
-868189
-868180
-868171
-868161
-868152
-868142
-868133
-868123
-868114
-868104
-868095
-868085
-868076
-868066
-868057
-868047
-868038
-868028
-868019
-868009
-867999
-867990
-867980
-867971
-867961
-867952
-867942
-867933
-867923
-867913
-867904
-867894
-867885
-867875
-867865
-867856
-867846
-867837
-867827
-867817
-867808
-867798
-867788
-867779
-867769
-867759
-867750
-867740
-867730
-867721
-867711
-867701
-867692
-867682
-867672
-867663
-867653
-867643
-867634
-867624
-867614
-867604
-867595
-867585
-867575
-867565
-867556
-867546
-867536
-867526
-867517
-867507
-867497
-867487
-867477
-867467
-867458
-867448
-867438
-867428
-867418
-867409
-867399
-867389
-867379
-867369
-867359
-867350
-867340
-867330
-867320
-867310
-867300
-867291
-867281
-867271
-867261
-867251
-867241
-867231
-867221
-867211
-867201
-867191
-867182
-867172
-867162
-867152
-867142
-867132
-867122
-867112
-867102
-867092
-867082
-867072
-867062
-867052
-867042
-867032
-867022
-867012
-867002
-866992
-866982
-866972
-866962
-866952
-866942
-866932
-866922
-866912
-866902
-866892
-866881
-866871
-866861
-866851
-866841
-866831
-866821
-866811
-866800
-866790
-866780
-866770
-866760
-866750
-866740
-866730
-866719
-866709
-866699
-866689
-866679
-866668
-866658
-866648
-866638
-866628
-866618
-866608
-866597
-866587
-866577
-866567
-866556
-866546
-866536
-866526
-866516
-866506
-866495
-866485
-866475
-866464
-866454
-866443
-866433
-866423
-866413
-866403
-866393
-866382
-866372
-866361
-866351
-866340
-866330
-866320
-866309
-866299
-866289
-866279
-866269
-866259
-866248
-866237
-866226
-866216
-866206
-866195
-866186
-866175
-866165
-866154
-866145
-866134
-866123
-866113
-866103
-866092
-866081
-866070
-866060
-866050
-866039
-866029
-866018
-866008
-865997
-865987
-865976
-865966
-865955
-865945
-865934
-865924
-865914
-865903
-865893
-865882
-865872
-865861
-865850
-865839
-865830
-865819
-865808
-865798
-865786
-865777
-865766
-865755
-865745
-865735
-865723
-865714
-865702
-865691
-865681
-865670
-865660
-865650
-865638
-865628
-865617
-865606
-865595
-865586
-865574
-865564
-865552
-865542
-865533
-865521
-865511
-865500
-865489
-865478
-865467
-865457
-865445
-865437
-865424
-865414
-865404
-865392
-865382
-865371
-865361
-865349
-865338
-865328
-865318
-865308
-865296
-865285
-865273
-865264
-865253
-865242
-865230
-865219
-865207
-865200
-865188
-865174
-865169
-865153
-865145
-865131
-865124
-865113
-865099
-865088
-865080
-865069
-865057
-865046
-865035
-865024
-865013
-865002
-864992
-864981
-864969
-864958
-864948
-864937
-864926
-864915
-864904
-864893
-864883
-864871
-864861
-864849
-864838
-864827
-864816
-864805
-864794
-864783
-864772
-864761
-864750
-864739
-864728
-864717
-864706
-864695
-864684
-864673
-864662
-864651
-864640
-864629
-864617
-864606
-864595
-864583
-864572
-864563
-864551
-864539
-864529
-864517
-864506
-864495
-864483
-864474
-864461
-864451
-864440
-864427
-864418
-864406
-864394
-864384
-864373
-864360
-864349
-864338
-864328
-864317
-864305
-864294
-864283
-864271
-864260
-864249
-864238
-864226
-864215
-864204
-864193
-864181
-864170
-864158
-864147
-864136
-864125
-864113
-864102
-864091
-864080
-864068
-864057
-864046
-864034
-864023
-864012
-864000
-863989
-863978
-863966
-863955
-863943
-863932
-863921
-863909
-863898
-863887
-863875
-863864
-863852
-863841
-863829
-863818
-863806
-863795
-863784
-863772
-863761
-863749
-863738
-863726
-863715
-863703
-863692
-863680
-863669
-863657
-863646
-863634
-863623
-863611
-863600
-863588
-863577
-863565
-863554
-863542
-863531
-863519
-863507
-863496
-863484
-863473
-863461
-863450
-863438
-863427
-863415
-863403
-863392
-863380
-863368
-863357
-863345
-863333
-863322
-863310
-863298
-863287
-863275
-863263
-863252
-863240
-863228
-863217
-863205
-863193
-863182
-863170
-863158
-863147
-863135
-863123
-863112
-863100
-863088
-863077
-863065
-863053
-863041
-863029
-863018
-863006
-862994
-862982
-862971
-862959
-862947
-862935
-862923
-862912
-862900
-862888
-862876
-862864
-862852
-862840
-862829
-862817
-862805
-862793
-862781
-862769
-862758
-862746
-862734
-862722
-862710
-862698
-862686
-862674
-862662
-862651
-862639
-862627
-862615
-862603
-862591
-862579
-862567
-862555
-862543
-862531
-862519
-862507
-862495
-862483
-862471
-862459
-862447
-862435
-862423
-862411
-862399
-862387
-862375
-862363
-862351
-862339
-862327
-862315
-862303
-862291
-862279
-862266
-862254
-862242
-862230
-862218
-862206
-862194
-862182
-862170
-862158
-862145
-862133
-862121
-862109
-862097
-862085
-862073
-862061
-862049
-862036
-862024
-862012
-862000
-861988
-861975
-861963
-861951
-861939
-861927
-861914
-861902
-861890
-861877
-861865
-861853
-861841
-861828
-861816
-861804
-861792
-861780
-861767
-861755
-861743
-861730
-861718
-861706
-861694
-861681
-861669
-861657
-861644
-861632
-861620
-861607
-861595
-861583
-861570
-861558
-861546
-861533
-861521
-861508
-861496
-861484
-861471
-861459
-861446
-861434
-861422
-861409
-861396
-861384
-861372
-861359
-861347
-861334
-861322
-861309
-861297
-861285
-861272
-861260
-861247
-861234
-861222
-861210
-861197
-861184
-861172
-861160
-861147
-861135
-861122
-861109
-861097
-861084
-861072
-861059
-861047
-861034
-861022
-861009
-860996
-860984
-860971
-860959
-860946
-860933
-860921
-860908
-860895
-860883
-860870
-860857
-860845
-860832
-860820
-860807
-860794
-860782
-860769
-860756
-860744
-860731
-860718
-860705
-860693
-860680
-860667
-860655
-860642
-860629
-860616
-860604
-860591
-860578
-860565
-860553
-860540
-860527
-860514
-860502
-860489
-860476
-860463
-860450
-860438
-860425
-860412
-860399
-860386
-860373
-860361
-860348
-860335
-860322
-860309
-860296
-860283
-860271
-860258
-860245
-860232
-860219
-860206
-860193
-860180
-860167
-860154
-860142
-860129
-860116
-860103
-860090
-860077
-860064
-860051
-860038
-860025
-860012
-859999
-859986
-859973
-859960
-859947
-859934
-859921
-859908
-859895
-859882
-859869
-859856
-859843
-859830
-859817
-859804
-859791
-859778
-859765
-859751
-859738
-859725
-859712
-859699
-859686
-859673
-859660
-859647
-859634
-859620
-859607
-859594
-859581
-859568
-859555
-859542
-859528
-859515
-859502
-859489
-859476
-859462
-859449
-859436
-859423
-859410
-859396
-859383
-859370
-859357
-859344
-859330
-859317
-859304
-859291
-859277
-859264
-859251
-859237
-859224
-859211
-859198
-859184
-859171
-859158
-859144
-859131
-859118
-859104
-859091
-859078
-859064
-859051
-859038
-859024
-859011
-858998
-858984
-858971
-858957
-858944
-858931
-858917
-858904
-858890
-858877
-858864
-858850
-858837
-858823
-858810
-858796
-858783
-858769
-858756
-858742
-858729
-858716
-858702
-858689
-858675
-858662
-858648
-858635
-858621
-858608
-858594
-858581
-858567
-858553
-858540
-858526
-858513
-858499
-858486
-858472
-858458
-858445
-858431
-858418
-858404
-858390
-858377
-858363
-858350
-858336
-858322
-858309
-858295
-858281
-858268
-858254
-858240
-858227
-858213
-858199
-858186
-858172
-858158
-858145
-858131
-858117
-858104
-858090
-858076
-858062
-858049
-858035
-858021
-858007
-857994
-857980
-857966
-857952
-857939
-857925
-857911
-857897
-857883
-857870
-857856
-857842
-857828
-857814
-857801
-857787
-857773
-857759
-857745
-857731
-857717
-857704
-857690
-857676
-857662
-857648
-857634
-857620
-857606
-857592
-857578
-857565
-857551
-857537
-857523
-857509
-857495
-857481
-857467
-857453
-857439
-857425
-857411
-857397
-857383
-857369
-857355
-857341
-857327
-857313
-857299
-857285
-857271
-857257
-857243
-857229
-857215
-857201
-857187
-857173
-857159
-857144
-857130
-857116
-857102
-857088
-857074
-857060
-857046
-857032
-857017
-857003
-856989
-856975
-856961
-856947
-856933
-856918
-856904
-856890
-856876
-856862
-856847
-856833
-856819
-856805
-856791
-856776
-856762
-856748
-856734
-856720
-856705
-856691
-856677
-856663
-856648
-856634
-856620
-856605
-856591
-856577
-856563
-856548
-856534
-856520
-856505
-856491
-856477
-856462
-856448
-856434
-856419
-856405
-856390
-856376
-856362
-856347
-856333
-856318
-856304
-856290
-856275
-856261
-856246
-856232
-856218
-856203
-856189
-856174
-856160
-856145
-856131
-856116
-856102
-856087
-856073
-856059
-856044
-856030
-856015
-856001
-855986
-855972
-855957
-855942
-855928
-855913
-855899
-855884
-855870
-855855
-855841
-855826
-855811
-855797
-855782
-855768
-855753
-855738
-855724
-855709
-855694
-855680
-855665
-855651
-855636
-855621
-855607
-855592
-855577
-855562
-855548
-855533
-855518
-855504
-855489
-855474
-855460
-855445
-855430
-855415
-855401
-855386
-855371
-855356
-855342
-855327
-855312
-855297
-855283
-855268
-855253
-855238
-855223
-855209
-855194
-855179
-855164
-855149
-855135
-855120
-855105
-855090
-855075
-855060
-855045
-855030
-855016
-855001
-854986
-854971
-854956
-854941
-854926
-854911
-854896
-854881
-854866
-854851
-854836
-854821
-854807
-854792
-854777
-854762
-854747
-854732
-854717
-854702
-854687
-854672
-854657
-854642
-854627
-854612
-854597
-854581
-854566
-854551
-854536
-854521
-854506
-854491
-854476
-854461
-854446
-854431
-854416
-854400
-854385
-854370
-854355
-854340
-854325
-854310
-854294
-854279
-854264
-854249
-854234
-854219
-854203
-854188
-854173
-854158
-854143
-854127
-854112
-854097
-854082
-854066
-854051
-854036
-854021
-854005
-853990
-853975
-853960
-853944
-853929
-853914
-853898
-853883
-853868
-853852
-853837
-853822
-853806
-853791
-853776
-853760
-853745
-853730
-853714
-853699
-853684
-853668
-853653
-853637
-853622
-853607
-853591
-853576
-853560
-853545
-853529
-853514
-853498
-853483
-853468
-853452
-853437
-853421
-853406
-853390
-853375
-853359
-853344
-853328
-853312
-853297
-853281
-853266
-853250
-853235
-853219
-853204
-853188
-853173
-853157
-853141
-853126
-853110
-853095
-853079
-853063
-853048
-853032
-853016
-853001
-852985
-852970
-852954
-852938
-852923
-852907
-852891
-852875
-852860
-852844
-852828
-852813
-852797
-852781
-852765
-852750
-852734
-852718
-852702
-852687
-852671
-852655
-852639
-852624
-852608
-852592
-852576
-852560
-852545
-852529
-852513
-852497
-852481
-852465
-852449
-852434
-852418
-852402
-852386
-852370
-852354
-852338
-852322
-852307
-852291
-852275
-852259
-852243
-852227
-852211
-852195
-852179
-852163
-852147
-852131
-852115
-852099
-852083
-852067
-852051
-852035
-852019
-852003
-851987
-851971
-851955
-851939
-851923
-851907
-851891
-851875
-851859
-851843
-851826
-851810
-851794
-851778
-851762
-851746
-851730
-851714
-851698
-851681
-851665
-851649
-851633
-851617
-851601
-851584
-851568
-851552
-851536
-851520
-851503
-851487
-851471
-851455
-851438
-851422
-851406
-851390
-851373
-851357
-851341
-851325
-851308
-851292
-851276
-851259
-851243
-851227
-851210
-851194
-851178
-851161
-851145
-851129
-851112
-851096
-851080
-851063
-851047
-851030
-851014
-850998
-850981
-850965
-850948
-850932
-850915
-850899
-850883
-850866
-850850
-850833
-850817
-850800
-850784
-850767
-850751
-850734
-850718
-850701
-850685
-850668
-850652
-850635
-850618
-850602
-850585
-850569
-850552
-850536
-850519
-850502
-850486
-850469
-850453
-850436
-850419
-850403
-850386
-850369
-850353
-850336
-850319
-850303
-850286
-850269
-850253
-850236
-850219
-850202
-850186
-850169
-850152
-850135
-850119
-850102
-850085
-850068
-850052
-850035
-850018
-850001
-849984
-849968
-849951
-849934
-849917
-849900
-849883
-849867
-849850
-849833
-849816
-849799
-849782
-849765
-849748
-849732
-849715
-849698
-849681
-849664
-849647
-849630
-849613
-849596
-849579
-849562
-849545
-849528
-849511
-849494
-849477
-849460
-849443
-849426
-849409
-849392
-849375
-849358
-849341
-849324
-849307
-849290
-849273
-849255
-849238
-849221
-849204
-849187
-849170
-849153
-849136
-849118
-849101
-849084
-849067
-849050
-849033
-849015
-848998
-848981
-848964
-848947
-848929
-848912
-848895
-848878
-848860
-848843
-848826
-848809
-848791
-848774
-848757
-848739
-848722
-848705
-848687
-848670
-848653
-848635
-848618
-848601
-848583
-848566
-848549
-848531
-848514
-848496
-848479
-848462
-848444
-848427
-848409
-848392
-848374
-848357
-848340
-848322
-848305
-848287
-848270
-848252
-848235
-848217
-848200
-848182
-848165
-848147
-848129
-848112
-848094
-848077
-848059
-848042
-848024
-848006
-847989
-847971
-847953
-847936
-847918
-847901
-847883
-847865
-847848
-847830
-847812
-847794
-847777
-847759
-847741
-847724
-847706
-847688
-847670
-847653
-847635
-847617
-847599
-847582
-847564
-847546
-847528
-847510
-847493
-847475
-847457
-847439
-847421
-847403
-847386
-847368
-847350
-847332
-847314
-847296
-847278
-847260
-847242
-847224
-847207
-847189
-847171
-847153
-847135
-847117
-847099
-847081
-847063
-847045
-847027
-847009
-846991
-846973
-846955
-846936
-846918
-846900
-846882
-846864
-846846
-846828
-846810
-846792
-846774
-846755
-846737
-846719
-846701
-846683
-846665
-846646
-846628
-846610
-846592
-846574
-846555
-846537
-846519
-846501
-846482
-846464
-846446
-846428
-846409
-846391
-846373
-846355
-846336
-846318
-846300
-846281
-846263
-846245
-846226
-846208
-846189
-846171
-846153
-846134
-846116
-846097
-846079
-846060
-846042
-846024
-846005
-845987
-845968
-845950
-845931
-845913
-845894
-845876
-845857
-845839
-845820
-845801
-845783
-845764
-845746
-845727
-845709
-845690
-845671
-845653
-845634
-845615
-845597
-845578
-845559
-845541
-845522
-845503
-845485
-845466
-845447
-845429
-845410
-845391
-845372
-845354
-845335
-845316
-845297
-845279
-845260
-845241
-845222
-845203
-845184
-845166
-845147
-845128
-845109
-845090
-845071
-845052
-845033
-845015
-844996
-844977
-844958
-844939
-844920
-844901
-844882
-844863
-844844
-844825
-844806
-844787
-844768
-844749
-844730
-844711
-844692
-844673
-844653
-844634
-844615
-844596
-844577
-844558
-844539
-844520
-844500
-844481
-844462
-844443
-844424
-844405
-844385
-844366
-844347
-844328
-844308
-844289
-844270
-844251
-844231
-844212
-844193
-844173
-844154
-844135
-844115
-844096
-844077
-844057
-844038
-844019
-843999
-843980
-843960
-843941
-843921
-843902
-843882
-843863
-843844
-843824
-843805
-843785
-843766
-843746
-843726
-843707
-843687
-843668
-843648
-843629
-843609
-843589
-843570
-843550
-843530
-843511
-843491
-843471
-843452
-843432
-843412
-843393
-843373
-843353
-843334
-843314
-843294
-843274
-843255
-843235
-843215
-843195
-843175
-843155
-843136
-843116
-843096
-843076
-843056
-843036
-843016
-842997
-842977
-842957
-842937
-842917
-842897
-842877
-842857
-842837
-842817
-842797
-842777
-842757
-842737
-842717
-842697
-842676
-842656
-842636
-842616
-842596
-842576
-842556
-842536
-842515
-842495
-842475
-842455
-842435
-842414
-842394
-842374
-842353
-842333
-842313
-842293
-842272
-842252
-842232
-842211
-842191
-842170
-842150
-842130
-842109
-842089
-842068
-842048
-842027
-842007
-841986
-841966
-841945
-841925
-841904
-841884
-841863
-841842
-841822
-841801
-841781
-841760
-841739
-841719
-841698
-841677
-841656
-841636
-841615
-841594
-841573
-841553
-841532
-841511
-841490
-841469
-841449
-841428
-841407
-841386
-841365
-841344
-841323
-841302
-841281
-841260
-841239
-841218
-841197
-841176
-841155
-841134
-841113
-841092
-841071
-841050
-841029
-841008
-840987
-840966
-840944
-840923
-840902
-840881
-840860
-840839
-840818
-840796
-840775
-840754
-840733
-840712
-840690
-840669
-840648
-840627
-840605
-840584
-840563
-840541
-840520
-840499
-840477
-840456
-840435
-840413
-840392
-840371
-840349
-840328
-840306
-840285
-840264
-840242
-840221
-840199
-840178
-840156
-840135
-840113
-840092
-840070
-840049
-840027
-840006
-839984
-839962
-839941
-839919
-839898
-839876
-839854
-839833
-839811
-839789
-839767
-839746
-839724
-839702
-839680
-839659
-839637
-839615
-839593
-839571
-839549
-839527
-839506
-839484
-839462
-839440
-839418
-839396
-839374
-839352
-839330
-839308
-839285
-839263
-839241
-839219
-839197
-839175
-839153
-839130
-839108
-839086
-839064
-839041
-839019
-838997
-838974
-838952
-838930
-838907
-838885
-838862
-838840
-838817
-838795
-838772
-838750
-838727
-838705
-838682
-838659
-838637
-838614
-838591
-838569
-838546
-838523
-838501
-838478
-838455
-838432
-838409
-838387
-838364
-838341
-838318
-838295
-838272
-838249
-838226
-838203
-838180
-838157
-838134
-838111
-838088
-838065
-838042
-838019
-837996
-837972
-837949
-837926
-837903
-837880
-837856
-837833
-837810
-837786
-837763
-837740
-837716
-837693
-837670
-837646
-837623
-837599
-837576
-837552
-837529
-837505
-837482
-837458
-837435
-837411
-837387
-837364
-837340
-837316
-837293
-837269
-837245
-837221
-837198
-837174
-837150
-837126
-837102
-837078
-837055
-837031
-837007
-836983
-836959
-836935
-836911
-836887
-836863
-836839
-836814
-836790
-836766
-836742
-836718
-836694
-836669
-836645
-836621
-836597
-836572
-836548
-836524
-836499
-836475
-836450
-836426
-836401
-836377
-836352
-836328
-836303
-836279
-836254
-836230
-836205
-836180
-836155
-836131
-836106
-836081
-836056
-836032
-836007
-835982
-835957
-835932
-835907
-835882
-835857
-835832
-835807
-835782
-835757
-835732
-835707
-835682
-835657
-835631
-835606
-835581
-835556
-835530
-835505
-835480
-835454
-835429
-835403
-835378
-835353
-835327
-835301
-835276
-835250
-835225
-835199
-835173
-835148
-835122
-835096
-835070
-835045
-835019
-834993
-834967
-834941
-834915
-834889
-834863
-834837
-834811
-834785
-834759
-834733
-834707
-834681
-834654
-834628
-834602
-834576
-834549
-834523
-834496
-834470
-834444
-834417
-834391
-834364
-834337
-834311
-834284
-834258
-834231
-834204
-834177
-834151
-834124
-834097
-834070
-834043
-834016
-833989
-833962
-833935
-833908
-833881
-833854
-833827
-833800
-833772
-833745
-833718
-833690
-833663
-833636
-833608
-833581
-833553
-833526
-833498
-833471
-833443
-833415
-833388
-833360
-833332
-833304
-833276
-833249
-833221
-833193
-833165
-833137
-833109
-833081
-833052
-833024
-832996
-832968
-832940
-832911
-832883
-832855
-832826
-832798
-832769
-832741
-832712
-832684
-832655
-832626
-832597
-832569
-832540
-832511
-832482
-832453
-832424
-832395
-832366
-832337
-832308
-832279
-832250
-832220
-832191
-832162
-832132
-832103
-832074
-832044
-832015
-831985
-831955
-831926
-831896
-831866
-831836
-831807
-831777
-831747
-831717
-831687
-831657
-831627
-831596
-831566
-831536
-831506
-831475
-831445
-831415
-831384
-831354
-831323
-831292
-831262
-831231
-831200
-831169
-831139
-831108
-831077
-831046
-831015
-830984
-830952
-830921
-830890
-830859
-830827
-830796
-830765
-830733
-830701
-830670
-830638
-830606
-830575
-830543
-830511
-830479
-830447
-830415
-830383
-830351
-830319
-830286
-830254
-830222
-830189
-830157
-830124
-830092
-830059
-830026
-829994
-829961
-829928
-829895
-829862
-829829
-829796
-829763
-829730
-829696
-829663
-829630
-829596
-829563
-829529
-829495
-829462
-829428
-829394
-829360
-829326
-829292
-829258
-829224
-829190
-829155
-829121
-829087
-829052
-829018
-828983
-828948
-828914
-828879
-828844
-828809
-828774
-828739
-828704
-828668
-828633
-828598
-828562
-828527
-828491
-828456
-828420
-828384
-828348
-828312
-828276
-828240
-828204
-828168
-828131
-828095
-828059
-828022
-827985
-827949
-827912
-827875
-827838
-827801
-827764
-827727
-827690
-827652
-827615
-827577
-827540
-827502
-827464
-827426
-827389
-827351
-827312
-827274
-827236
-827198
-827159
-827121
-827082
-827043
-827005
-826966
-826927
-826888
-826849
-826809
-826770
-826731
-826691
-826652
-826612
-826572
-826532
-826492
-826452
-826412
-826372
-826331
-826291
-826250
-826210
-826169
-826128
-826087
-826046
-826005
-825964
-825922
-825881
-825839
-825797
-825756
-825714
-825672
-825630
-825587
-825545
-825503
-825460
-825417
-825375
-825332
-825289
-825246
-825202
-825159
-825116
-825072
-825028
-824984
-824941
-824896
-824852
-824808
-824764
-824719
-824674
-824630
-824585
-824540
-824495
-824449
-824404
-824358
-824313
-824267
-824221
-824175
-824129
-824082
-824036
-823989
-823943
-823896
-823849
-823802
-823755
-823707
-823660
-823612
-823564
-823516
-823468
-823420
-823371
-823323
-823274
-823225
-823176
-823127
-823078
-823028
-822979
-822929
-822879
-822829
-822779
-822729
-822678
-822627
-822576
-822525
-822474
-822423
-822371
-822320
-822268
-822216
-822164
-822111
-822059
-822006
-821953
-821900
-821847
-821794
-821740
-821686
-821633
-821578
-821524
-821470
-821415
-821360
-821305
-821250
-821195
-821139
-821083
-821027
-820971
-820915
-820858
-820801
-820744
-820687
-820630
-820572
-820515
-820457
-820398
-820340
-820281
-820223
-820164
-820104
-820045
-819985
-819925
-819865
-819805
-819744
-819683
-819622
-819561
-819500
-819438
-819376
-819314
-819251
-819189
-819126
-819063
-818999
-818936
-818872
-818808
-818743
-818679
-818614
-818549
-818483
-818418
-818352
-818286
-818219
-818153
-818086
-818019
-817951
-817883
-817815
-817747
-817678
-817610
-817540
-817471
-817401
-817331
-817261
-817190
-817119
-817048
-816977
-816905
-816833
-816760
-816688
-816615
-816541
-816468
-816394
-816320
-816245
-816170
-816095
-816019
-815943
-815867
-815791
-815714
-815636
-815559
-815481
-815403
-815324
-815245
-815166
-815086
-815006
-814926
-814845
-814764
-814682
-814600
-814518
-814436
-814353
-814269
-814185
-814101
-814017
-813932
-813846
-813761
-813674
-813588
-813501
-813413
-813326
-813237
-813149
-813060
-812970
-812880
-812790
-812699
-812608
-812516
-812424
-812331
-812238
-812145
-812051
-811957
-811862
-811766
-811670
-811574
-811477
-811380
-811282
-811184
-811085
-810986
-810886
-810786
-810685
-810584
-810482
-810380
-810277
-810173
-810069
-809965
-809860
-809754
-809648
-809541
-809434
-809326
-809218
-809109
-808999
-808889
-808778
-808667
-808555
-808442
-808329
-808216
-808101
-807986
-807871
-807754
-807637
-807520
-807402
-807283
-807164
-807043
-806923
-806801
-806679
-806556
-806433
-806308
-806183
-806058
-805931
-805804
-805677
-805548
-805419
-805289
-805158
-805027
-804894
-804761
-804628
-804493
-804358
-804222
-804085
-803947
-803809
-803669
-803529
-803388
-803246
-803103
-802960
-802816
-802670
-802524
-802377
-802229
-802081
-801931
-801780
-801629
-801476
-801323
-801169
-801013
-800857
-800700
-800542
-800383
-800223
-800062
-799899
-799736
-799572
-799407
-799241
-799073
-798905
-798736
-798565
-798394
-798221
-798047
-797872
-797696
-797519
-797340
-797160
-796980
-796798
-796614
-796430
-796244
-796057
-795869
-795679
-795488
-795296
-795102
-794907
-794710
-794512
-794313
-794105
-794114
-794053
-793846
-793639
-793428
-793097
-792833
-792652
-792382
-792184
-791960
-791737
-791530
-791307
-791092
-790872
-790650
-790430
-790206
-789982
-789756
-789528
-789300
-789070
-788839
-788606
-788370
-788134
-787895
-787656
-787415
-787172
-786928
-786682
-786435
-786186
-785935
-785682
-785428
-785172
-784915
-784656
-784395
-784132
-783868
-783602
-783334
-783064
-782792
-782519
-782244
-781967
-781688
-781408
-781125
-780841
-780555
-780267
-779976
-779685
-779391
-779095
-778797
-778498
-778196
-777892
-777586
-777279
-776969
-776657
-776343
-776027
-775709
-775389
-775067
-774743
-774416
-774087
-773757
-773424
-773088
-772751
-772412
-772070
-771726
-771380
-771031
-770680
-770327
-769971
-769614
-769254
-768891
-768527
-768160
-767790
-767418
-767044
-766667
-766288
-765906
-765522
-765136
-764747
-764355
-763962
-763565
-763166
-762765
-762360
-761954
-761545
-761133
-760718
-760301
-759882
-759460
-759035
-758608
-758178
-757745
-757309
-756871
-756430
-755987
-755541
-755092
-754641
-754186
-753729
-753270
-752807
-752342
-751874
-751403
-750929
-750453
-749974
-749492
-749008
-748520
-748030
-747537
-747041
-746543
-746041
-745537
-745030
-744520
-744008
-743492
-742974
-742453
-741929
-741402
-740873
-740341
-739806
-739268
-738727
-738184
-737638
-737089
-736537
-735983
-735426
-734866
-734303
-733738
-733170
-732599
-732025
-731449
-730871
-730289
-729705
-729118
-728529
-727937
-727343
-726746
-726146
-725544
-724940
-724333
-723723
-723111
-722497
-721880
-721261
-720640
-720016
-719390
-718762
-718132
-717499
-716864
-716227
-715588
-714947
-714304
-713658
-713011
-712362
-711711
-711059
-710404
-709747
-709089
-708429
-707768
-707105
-706440
-705774
-705106
-704437
-703767
-703095
-702422
-701747
-701072
-700395
-699718
-699039
-698359
-697679
-696997
-696315
-695632
-694949
-694264
-693579
-692894
-692209
-691522
-690836
-690150
-689463
-688776
-688089
-687402
-686715
-686029
-685342
-684656
-683970
-683285
-682600
-681916
-681233
-680550
-679868
-679187
-678507
-677828
-677150
-676474
-675798
-675124
-674451
-673780
-673111
-672443
-671777
-671112
-670450
-669789
-669131
-668474
-667820
-667168
-666519
-665872
-665227
-664585
-663946
-663309
-662676
-662045
-661417
-660792
-660170
-659552
-658936
-658325
-657716
-657111
-656510
-655912
-655318
-654727
-654141
-653558
-652979
-652405
-651834
-651268