/*--------------------------------*- C++ -*----------------------------------*\
  =========                 |
  \\      /  F ield         | OpenFOAM: The Open Source CFD Toolbox
   \\    /   O peration     | Website:  https://openfoam.org
    \\  /    A nd           | Version:  9
     \\/     M anipulation  |
\*---------------------------------------------------------------------------*/
FoamFile
{
    format      ascii;
    class       volScalarField;
    location    "0.033";
    object      ddt0(rho,K);
}
// * * * * * * * * * * * * * * * * * * * * * * * * * * * * * * * * * * * * * //

dimensions      [1 -1 -3 0 0 0 0];

internalField   nonuniform List<scalar> 
10000
(
167.983
164.113
161.19
158.714
156.128
153.37
150.535
147.667
144.763
141.811
138.813
135.771
132.687
129.554
126.37
123.14
119.868
116.555
113.197
109.787
106.326
102.821
99.2782
95.698
92.0718
88.391
84.6517
80.8578
77.019
73.1441
69.2339
65.2813
61.2785
57.2222
53.1154
48.9656
44.7807
40.5635
36.3066
31.9958
27.6203
23.1812
18.692
14.1701
9.62454
5.05063
0.436051
-4.23179
-8.96369
-13.7642
-18.6259
-23.5319
-28.4663
-33.423
-38.4048
-43.422
-48.4908
-53.6265
-58.8336
-64.1065
-69.4379
-74.8193
-80.2412
-85.6929
-91.1606
-96.6361
-102.13
-107.667
-113.261
-118.921
-124.654
-130.47
-136.366
-142.324
-148.331
-154.378
-160.451
-166.536
-172.632
-178.738
-184.855
-190.996
-197.176
-203.413
-209.724
-216.111
-222.564
-229.078
-235.672
-242.366
-249.152
-255.996
-262.899
-269.881
-276.917
-283.991
-291.116
-298.281
-305.47
-312.697
-319.948
-327.22
-334.52
-341.839
-349.187
-356.563
-363.979
-371.451
-378.972
-386.498
-394.425
-402.168
-409.705
-417.499
-425.293
-433.123
-440.992
-448.916
-456.882
-464.896
-472.964
-481.064
-489.223
-497.425
-505.66
-513.955
-522.295
-530.665
-539.086
-547.571
-556.092
-564.64
-573.243
-581.915
-590.632
-599.38
-608.156
-616.97
-625.842
-634.774
-643.757
-652.79
-661.87
-670.991
-680.15
-689.359
-698.616
-707.915
-717.258
-726.655
-736.102
-745.589
-755.119
-764.698
-774.329
-784.005
-793.719
-803.47
-813.271
-823.127
-833.034
-842.985
-852.975
-863.002
-873.067
-883.178
-893.342
-903.558
-913.824
-924.139
-934.503
-944.914
-955.368
-965.864
-976.405
-986.994
-997.628
-1008.31
-1019.03
-1029.8
-1040.62
-1051.49
-1062.4
-1073.36
-1084.36
-1095.41
-1106.51
-1117.66
-1128.85
-1140.09
-1151.36
-1162.68
-1174.03
-1185.44
-1196.89
-1208.39
-1219.94
-1231.54
-1243.18
-1254.88
-1266.62
-1278.4
-1290.24
-1302.12
-1314.04
-1326
-1338.01
-1350.07
-1362.18
-1374.33
-1386.52
-1398.76
-1411.05
-1423.39
-1435.77
-1448.21
-1460.69
-1473.22
-1485.78
-1498.39
-1511.04
-1523.73
-1536.47
-1549.26
-1562.1
-1574.98
-1587.91
-1600.89
-1613.92
-1626.99
-1640.11
-1653.27
-1666.48
-1679.73
-1693.03
-1706.38
-1719.78
-1733.21
-1746.7
-1760.22
-1773.79
-1787.41
-1801.08
-1814.8
-1828.57
-1842.38
-1856.23
-1870.13
-1884.08
-1898.06
-1912.09
-1926.17
-1940.29
-1954.46
-1968.68
-1982.95
-1997.26
-2011.62
-2026.02
-2040.47
-2054.97
-2069.51
-2084.09
-2098.73
-2113.41
-2128.14
-2142.91
-2157.72
-2172.58
-2187.49
-2202.44
-2217.44
-2232.49
-2247.59
-2262.73
-2277.91
-2293.14
-2308.42
-2323.74
-2339.1
-2354.51
-2369.97
-2385.48
-2401.03
-2416.63
-2432.28
-2447.97
-2463.71
-2479.49
-2495.32
-2511.2
-2527.12
-2543.08
-2559.1
-2575.15
-2591.26
-2607.4
-2623.6
-2639.84
-2656.13
-2672.46
-2688.85
-2705.27
-2721.75
-2738.26
-2754.82
-2771.43
-2788.08
-2804.77
-2821.51
-2838.3
-2855.14
-2872.03
-2888.96
-2905.94
-2922.97
-2940.04
-2957.16
-2974.33
-2991.54
-3008.79
-3026.09
-3043.44
-3060.83
-3078.26
-3095.74
-3113.27
-3130.84
-3148.46
-3166.13
-3183.85
-3201.61
-3219.41
-3237.27
-3255.16
-3273.1
-3291.08
-3309.11
-3327.18
-3345.3
-3363.47
-3381.68
-3399.94
-3418.25
-3436.61
-3455.02
-3473.47
-3491.97
-3510.51
-3529.1
-3547.74
-3566.42
-3585.15
-3603.92
-3622.74
-3641.6
-3660.5
-3679.45
-3698.45
-3717.5
-3736.59
-3755.73
-3774.91
-3794.14
-3813.42
-3832.74
-3852.1
-3871.51
-3890.96
-3910.45
-3930
-3949.59
-3969.23
-3988.91
-4008.65
-4028.43
-4048.26
-4068.13
-4088.05
-4108.02
-4128.04
-4148.1
-4168.21
-4188.36
-4208.56
-4228.8
-4249.09
-4269.42
-4289.8
-4310.22
-4330.69
-4351.21
-4371.77
-4392.38
-4413.03
-4433.73
-4454.47
-4475.26
-4496.09
-4516.96
-4537.89
-4558.86
-4579.87
-4600.94
-4622.05
-4643.2
-4664.4
-4685.66
-4706.95
-4728.3
-4749.69
-4771.13
-4792.61
-4814.15
-4835.72
-4857.34
-4879.01
-4900.72
-4922.48
-4944.29
-4966.14
-4988.04
-5009.98
-5031.97
-5054
-5076.07
-5098.19
-5120.36
-5142.57
-5164.82
-5187.13
-5209.47
-5231.87
-5254.31
-5276.8
-5299.33
-5321.91
-5344.54
-5367.21
-5389.93
-5412.7
-5435.51
-5458.37
-5481.28
-5504.23
-5527.23
-5550.28
-5573.37
-5596.51
-5619.69
-5642.92
-5666.2
-5689.52
-5712.89
-5736.3
-5759.76
-5783.26
-5806.81
-5830.4
-5854.03
-5877.71
-5901.44
-5925.21
-5949.02
-5972.89
-5996.8
-6020.76
-6044.76
-6068.82
-6092.91
-6117.06
-6141.25
-6165.49
-6189.77
-6214.1
-6238.47
-6262.89
-6287.36
-6311.87
-6336.43
-6361.04
-6385.69
-6410.4
-6435.14
-6459.94
-6484.77
-6509.66
-6534.58
-6559.55
-6584.57
-6609.63
-6634.74
-6659.89
-6685.08
-6710.32
-6735.61
-6760.95
-6786.33
-6811.76
-6837.23
-6862.75
-6888.32
-6913.93
-6939.59
-6965.3
-6991.05
-7016.85
-7042.69
-7068.58
-7094.52
-7120.5
-7146.53
-7172.6
-7198.73
-7224.89
-7251.11
-7277.37
-7303.68
-7330.03
-7356.43
-7382.87
-7409.35
-7435.88
-7462.46
-7489.08
-7515.75
-7542.46
-7569.22
-7596.03
-7622.88
-7649.78
-7676.72
-7703.71
-7730.75
-7757.83
-7784.96
-7812.14
-7839.36
-7866.62
-7893.94
-7921.3
-7948.7
-7976.15
-8003.65
-8031.19
-8058.78
-8086.41
-8114.1
-8141.82
-8169.6
-8197.42
-8225.28
-8253.19
-8281.15
-8309.15
-8337.2
-8365.29
-8393.43
-8421.61
-8449.84
-8478.12
-8506.44
-8534.81
-8563.22
-8591.68
-8620.19
-8648.74
-8677.34
-8705.98
-8734.67
-8763.41
-8792.19
-8821.02
-8849.89
-8878.81
-8907.78
-8936.79
-8965.84
-8994.95
-9024.1
-9053.29
-9082.53
-9111.82
-9141.15
-9170.53
-9199.95
-9229.42
-9258.94
-9288.5
-9318.1
-9347.76
-9377.46
-9407.2
-9437
-9466.83
-9496.72
-9526.65
-9556.62
-9586.65
-9616.71
-9646.83
-9676.98
-9707.19
-9737.44
-9767.74
-9798.08
-9828.47
-9858.9
-9889.38
-9919.91
-9950.48
-9981.1
-10011.8
-10042.5
-10073.2
-10104
-10134.9
-10165.8
-10196.7
-10227.7
-10258.7
-10289.8
-10320.9
-10352.1
-10383.3
-10414.5
-10445.8
-10477.2
-10508.6
-10540
-10571.5
-10603.1
-10634.7
-10666.3
-10698
-10729.7
-10761.4
-10793.3
-10825.1
-10857
-10889
-10921
-10953
-10985.1
-11017.2
-11049.4
-11081.6
-11113.9
-11146.2
-11178.6
-11211
-11243.4
-11275.9
-11308.4
-11341
-11373.7
-11406.3
-11439.1
-11471.8
-11504.7
-11537.5
-11570.4
-11603.4
-11636.4
-11669.5
-11702.6
-11735.7
-11768.9
-11802.1
-11835.4
-11868.7
-11902.1
-11935.5
-11969
-12002.5
-12036
-12069.6
-12103.3
-12137
-12170.7
-12204.5
-12238.3
-12272.2
-12306.1
-12340.1
-12374.1
-12408.1
-12442.2
-12476.4
-12510.6
-12544.8
-12579.1
-12613.4
-12647.8
-12682.2
-12716.7
-12751.2
-12785.8
-12820.4
-12855.1
-12889.8
-12924.5
-12959.3
-12994.1
-13029
-13063.9
-13098.9
-13134
-13169
-13204.2
-13239.3
-13274.5
-13309.8
-13345
-13380.4
-13415.8
-13451.2
-13486.7
-13522.2
-13557.8
-13593.4
-13629.1
-13664.8
-13700.5
-13736.3
-13772.1
-13808
-13843.9
-13879.9
-13916
-13952
-13988.2
-14024.4
-14060.6
-14096.8
-14133.1
-14169.5
-14205.9
-14242.3
-14278.8
-14315.3
-14351.9
-14388.6
-14425.3
-14462
-14498.7
-14535.5
-14572.4
-14609.3
-14646.2
-14683.2
-14720.2
-14757.3
-14794.5
-14831.7
-14868.9
-14906.1
-14943.4
-14980.8
-15018.2
-15055.6
-15093.1
-15130.6
-15168.2
-15205.9
-15243.5
-15281.4
-15319
-15357
-15394.6
-15432.8
-15470.4
-15508.7
-15546.4
-15584.9
-15622.6
-15661.3
-15699.1
-15737.9
-15775.8
-15814.4
-15852.7
-15891
-15929.6
-15968.2
-16006.7
-16045.5
-16084.2
-16122.8
-16161.7
-16200.5
-16239.3
-16278.2
-16317.1
-16356.2
-16395.3
-16434.2
-16473.6
-16512.3
-16552.3
-16590.6
-16631.2
-16669.2
-16710.1
-16748
-16789
-16827.3
-16867.8
-16907.1
-16946.5
-16987.1
-17025.4
-17067.2
-17104.9
-17147.1
-17185.1
-17226.4
-17266
-17305.6
-17347.2
-17385.3
-17428.1
-17465.7
-17508.3
-17547.3
-17588.1
-17629.5
-17667.9
-17711.2
-17748.8
-17792.1
-17831
-17872.3
-17914.1
-17952.6
-17996.6
-18034.3
-18078
-18117.6
-18158.3
-18201.3
-18239.3
-18284.2
-18322.4
-18365.5
-18406.9
-18446.3
-18491
-18528.7
-18573.5
-18613.3
-18654.6
-18698.7
-18736.5
-18782.3
-18821.2
-18864.1
-18907.2
-18945.9
-18992
-19030.3
-19074.7
-19117
-19156.5
-19202.9
-19240.8
-19286
-19328.1
-19368.1
-19414.5
-19452.6
-19498.4
-19540.3
-19581
-19627.5
-19665.5
-19711.9
-19753.8
-19794.6
-19841.5
-19879.7
-19926.7
-19968.5
-20009.5
-20056.7
-20095.4
-20142.3
-20184.3
-20225.6
-20273.2
-20311.8
-20358.7
-20401.6
-20442.6
-20491
-20529.7
-20576.1
-20620.4
-20660.5
-20709.6
-20749
-20794.3
-20840.6
-20879.7
-20929
-20970.1
-21013.4
-21061.8
-21100.3
-21148.9
-21192.6
-21233.5
-21283.7
-21323
-21369.3
-21416.4
-21455.3
-21505.8
-21547.8
-21590.6
-21640.9
-21679.6
-21727.8
-21774.2
-21813.6
-21865
-21906.4
-21950.2
-22001
-22039.4
-22088.6
-22135.2
-22174.5
-22226.9
-22268.5
-22312.2
-22364.1
-22402.6
-22451.7
-22499.6
-22538.7
-22591.3
-22634.1
-22677.2
-22729.8
-22769.2
-22817.4
-22866.7
-22905.9
-22958.2
-23002.7
-23044.8
-23098.2
-23139
-23185.8
-23237.1
-23276.3
-23327.5
-23374.9
-23415.5
-23469.3
-23512.4
-23556.5
-23610.3
-23650.4
-23698.9
-23750.4
-23789.5
-23841.9
-23889.7
-23930.3
-23985
-24029
-24072.6
-24127.6
-24168.6
-24216.2
-24269.6
-24309.2
-24360.4
-24411.1
-24450.9
-24505
-24552.4
-24594
-24649.6
-24693.7
-24738.1
-24793.9
-24835.5
-24883.3
-24938
-24978.1
-25029.3
-25081.8
-25121.5
-25175.7
-25225.4
-25266
-25322.3
-25369.1
-25411.5
-25469
-25512.9
-25557.9
-25615.6
-25657.3
-25705.2
-25762.1
-25802.2
-25853.1
-25908.6
-25947.9
-26001.6
-26055.1
-26094.4
-26150.4
-26201.8
-26241.6
-26299.4
-26348.6
-26389.6
-26448.7
-26495.7
-26538.3
-26598.2
-26643.3
-26687.6
-26747.8
-26791.3
-26837.5
-26897.6
-26939.8
-26988
-27047.6
-27088.9
-27138.9
-27197.8
-27238.4
-27290.2
-27348.3
-27388.6
-27442
-27499.1
-27539.3
-27594
-27650.2
-27690.5
-27746.4
-27801.7
-27842.2
-27899.2
-27953.7
-27994.5
-28052.3
-28106.1
-28147.2
-28205.8
-28258.9
-28300.3
-28359.5
-28412.1
-28453.9
-28513.6
-28565.8
-28607.9
-28668
-28720.1
-28762.3
-28822.8
-28874.8
-28917.2
-28977.8
-29030.1
-29072.4
-29133.2
-29185.9
-29228
-29288.9
-29342.1
-29384
-29444.9
-29498.8
-29540.5
-29601.2
-29656
-29697.5
-29757.7
-29813.6
-29855
-29914.6
-29971.7
-30013
-30071.8
-30130.3
-30171.5
-30229.3
-30289.1
-30330.6
-30387.2
-30448.3
-30490.3
-30545.4
-30607.7
-30650.5
-30704
-30767.4
-30811.4
-30863
-30927.4
-30972.7
-31022.5
-31087.5
-31134.6
-31182.6
-31247.8
-31296.9
-31343.3
-31408.2
-31459.7
-31504.6
-31568.8
-31622.8
-31666.6
-31729.6
-31786.3
-31829.4
-31890.6
-31950
-31992.9
-32052
-32113.8
-32157.2
-32213.7
-32277.7
-32322.3
-32375.9
-32441.4
-32488.2
-32538.7
-32605.1
-32654.7
-32702.3
-32768.6
-32821.6
-32866.9
-32932.1
-32988.8
-33032.7
-33095.5
-33156
-33199.6
-33259
-33323
-33367.6
-33423.1
-33489.6
-33536.5
-33588
-33655.6
-33706.1
-33754.1
-33821.2
-33876.1
-33921.6
-33986.4
-34046.1
-34090.5
-34151.8
-34215.7
-34260.8
-34317.7
-34384.6
-34432.2
-34484.6
-34552.7
-34604.4
-34652.9
-34720
-34777
-34822.7
-34887.1
-34949.2
-34994.4
-35054.3
-35120.5
-35167.6
-35222.4
-35290.7
-35341.9
-35391.9
-35459.8
-35516.6
-35563.4
-35628.5
-35690.7
-35736.9
-35797.3
-35863.7
-35912.1
-35967
-36035.5
-36088.4
-36138.5
-36206.2
-36264.7
-36312.1
-36376.4
-36440.3
-36487.8
-36546.9
-36614.7
-36665.3
-36718.7
-36787.6
-36843.5
-36892.6
-36959.3
-37021.4
-37069
-37130.8
-37198
-37247.8
-37303.3
-37372.7
-37427.7
-37477.9
-37545.9
-37607.4
-37655.5
-37718.4
-37785.6
-37835.7
-37892
-37961.8
-38017.2
-38068
-38136.1
-38198.2
-38247.2
-38309.9
-38377.6
-38428.9
-38485
-38554.8
-38611.7
-38662.8
-38730.2
-38793.8
-38843.8
-38905.5
-38974
-39027.1
-39082.4
-39152
-39211.1
-39262.3
-39328.5
-39394.1
-39445.4
-39505.4
-39574.9
-39630.4
-39684.4
-39753.4
-39815.5
-39866.7
-39930.9
-39998.9
-40052.1
-40109.5
-40179.7
-40238.7
-40291.2
-40358.5
-40424.5
-40476.5
-40537.2
-40607.6
-40664.3
-40718.5
-40787.9
-40851.9
-40903.8
-40967.2
-41037
-41092.3
-41148.5
-41218.9
-41281.4
-41333.9
-41399.3
-41468.2
-41522.9
-41581.1
-41651.7
-41713.1
-41766.6
-41833.3
-41901.4
-41956.1
-42015.9
-42086.5
-42147.1
-42201.9
-42269.5
-42336.7
-42391.7
-42453
-42523.3
-42583.4
-42639.4
-42707.7
-42774.3
-42829.6
-42892.1
-42962.4
-43022.2
-43079
-43147.9
-43214.4
-43269.9
-43333
-43403.7
-43463.7
-43520.8
-43590
-43657
-43712.8
-43775.8
-43847.1
-43907.7
-43964.8
-44033.9
-44101.8
-44158.3
-44220.7
-44292.2
-44354.3
-44411.3
-44479.6
-44548.7
-44606.4
-44668
-44739.2
-44803
-44860.5
-44927.7
-44997.4
-45056.8
-45117.8
-45188.5
-45253.6
-45311.9
-45378.3
-45448.3
-45509.1
-45570
-45640.1
-45706.5
-45765.4
-45831
-45901.5
-45963.6
-46024.1
-46093.9
-46161.7
-46221.2
-46285.8
-46356.9
-46420.8
-46480.6
-46549.5
-46619.2
-46679.7
-46742.7
-46814.1
-46880.2
-46939.9
-47007.1
-47078.3
-47140.8
-47202.4
-47272.9
-47341.5
-47402.1
-47467.2
-47538.9
-47604.1
-47665
-47733.8
-47804.4
-47866.8
-47930.1
-48001.3
-48069.1
-48130.5
-48197.2
-48268.7
-48333.6
-48395.9
-48465.8
-48535.7
-48598.4
-48663.4
-48734.9
-48802.3
-48864.5
-48932.7
-49004
-49068.7
-49132.3
-49203
-49272.8
-49335.8
-49401.9
-49474
-49541.3
-49604.1
-49673
-49745
-49809.9
-49873.9
-49945.2
-50015.8
-50079.2
-50145.3
-50218
-50286.4
-50349.5
-50418.3
-50491
-50557.3
-50621.3
-50692.3
-50763.9
-50828.7
-50894.6
-50967
-51036.9
-51101
-51169.2
-51242
-51310
-51374.6
-51444.9
-51517.2
-51583.6
-51649.6
-51721.5
-51792.5
-51858
-51925.8
-51998.6
-52068
-52133.4
-52203.2
-52276.1
-52343.9
-52409.9
-52481.6
-52553.8
-52620.4
-52687.8
-52760.7
-52831.8
-52897.7
-52966.7
-53040.3
-53110.1
-53176.1
-53246.6
-53320.3
-53388.9
-53455.5
-53527.5
-53600.7
-53668.4
-53736
-53809.1
-53881.4
-53948.6
-54017.6
-54091.3
-54162.6
-54229.8
-54300.2
-54374
-54444.2
-54511.9
-54583.6
-54657.2
-54726.5
-54794.9
-54867.8
-54940.9
-55009.5
-55078.9
-55152.8
-55225.1
-55293.3
-55363.9
-55438.3
-55509.8
-55578
-55649.7
-55724.3
-55795.2
-55863.6
-55936.4
-56011
-56081.2
-56150.2
-56223.7
-56298.1
-56367.9
-56437.6
-56511.9
-56585.8
-56655.4
-56725.9
-56800.7
-56874.1
-56943.7
-57015
-57090.1
-57163.1
-57232.7
-57305
-57380.2
-57452.6
-57522.6
-57595.7
-57670.9
-57742.9
-57813.3
-57887.1
-57962.3
-58033.9
-58104.8
-58179.3
-58254.3
-58325.7
-58397.1
-58472.2
-58547
-58618.2
-58690.2
-58765.7
-58840.3
-58911.5
-58984
-59060
-59134.3
-59205.6
-59278.6
-59354.9
-59429.1
-59500.4
-59574
-59650.4
-59724.5
-59796.1
-59870.1
-59946.6
-60020.7
-60092.5
-60167
-60243.5
-60317.5
-60389.7
-60464.6
-60541.1
-60615
-60687.6
-60763
-60839.4
-60913.2
-60986.2
-61062.1
-61138.5
-61212.2
-61285.6
-61361.8
-61438.3
-61511.9
-61585.6
-61662.2
-61738.9
-61812.5
-61886.3
-61963.3
-62040.1
-62113.9
-62187.9
-62265.1
-62342.1
-62416
-62490.2
-62567.5
-62644.7
-62718.9
-62793.3
-62870.7
-62947.9
-63022.5
-63097.2
-63174.6
-63251.9
-63326.8
-63401.8
-63479.3
-63556.6
-63631.6
-63707.1
-63784.8
-63862
-63937.2
-64013.1
-64091
-64168.3
-64243.5
-64319.6
-64398
-64475.4
-64550.6
-64626.8
-64705.4
-64783.3
-64858.6
-64934.7
-65013.5
-65091.8
-65167.5
-65243.5
-65322.3
-65400.9
-65477.1
-65553.1
-65631.8
-65710.7
-65787.3
-65863.6
-65942.2
-66021.1
-66098.1
-66174.8
-66253.4
-66332.3
-66409.6
-66486.6
-66565.4
-66644.3
-66721.7
-66799
-66878
-66957.2
-67034.6
-67112
-67191.3
-67270.9
-67348.5
-67425.7
-67505.2
-67585.2
-67663.1
-67740.3
-67819.7
-67900.1
-67978.6
-68055.8
-68134.9
-68215.5
-68294.6
-68372.1
-68451
-68531.6
-68611.2
-68689.2
-68768
-68848.5
-68928.4
-69006.8
-69085.9
-69166.3
-69246.3
-69325.1
-69404.3
-69484.9
-69565
-69644
-69723.4
-69804.3
-69884.6
-69963.6
-70043.1
-70124.2
-70205.1
-70284.2
-70363.5
-70444.7
-70526.1
-70605.7
-70684.8
-70765.8
-70847.6
-70927.8
-71007
-71087.7
-71169.7
-71250.6
-71330.1
-71410.5
-71492.5
-71573.9
-71653.8
-71734.2
-71816.1
-71897.7
-71978.2
-72058.8
-72140.5
-72222.3
-72303.1
-72383.9
-72465.8
-72547.8
-72628.7
-72709.6
-72791.8
-72874.1
-72955.2
-73036
-73118.3
-73201.1
-73282.6
-73363.3
-73445.4
-73528.5
-73610.7
-73691.6
-73773.3
-73856.5
-73939.3
-74020.7
-74102.2
-74185.2
-74268.5
-74350.4
-74432
-74514.8
-74598.2
-74680.7
-74762.6
-74845.3
-74928.7
-75011.5
-75093.7
-75176.5
-75260.1
-75343.1
-75425.5
-75508.4
-75592.2
-75675.6
-75758
-75840.9
-75924.9
-76008.8
-76091.5
-76174.2
-76258.2
-76342.6
-76425.8
-76508.5
-76592.2
-76676.8
-76760.7
-76843.6
-76927.1
-77011.7
-77096.1
-77179.5
-77262.9
-77347.4
-77432
-77515.9
-77599.6
-77684
-77768.8
-77853
-77936.8
-78021.3
-78106.4
-78190.8
-78274.7
-78359.3
-78444.6
-78529.5
-78613.5
-78697.9
-78783.3
-78868.8
-78953.2
-79037.4
-79122.7
-79208.6
-79293.7
-79378
-79463
-79548.9
-79634.5
-79719.3
-79804.2
-79890
-79975.9
-80061.2
-80146.2
-80232
-80318
-80403.6
-80488.9
-80574.7
-80661
-80746.8
-80832.3
-80918.1
-81004.6
-81090.9
-81176.5
-81262.2
-81348.8
-81435.6
-81521.5
-81607.2
-81693.6
-81780.8
-81867.3
-81953.2
-82039.4
-82126.5
-82213.6
-82299.9
-82386.1
-82473
-82560.4
-82647.2
-82733.6
-82820.4
-82907.9
-82995.1
-83081.7
-83168.6
-83256.1
-83343.6
-83430.6
-83517.6
-83605.2
-83692.9
-83780.2
-83867.2
-83954.8
-84042.9
-84130.6
-84217.7
-84305.2
-84393.4
-84481.6
-84569.1
-84656.5
-84744.6
-84833.1
-84921.2
-85008.7
-85096.6
-85185.2
-85273.8
-85361.7
-85449.6
-85538.1
-85626.9
-85715.3
-85803.4
-85891.8
-85980.8
-86069.5
-86157.8
-86246.4
-86335.4
-86424.4
-86513
-86601.6
-86690.7
-86780
-86868.9
-86957.6
-87046.7
-87136.3
-87225.6
-87314.5
-87403.5
-87493.1
-87582.9
-87672.2
-87761.2
-87850.6
-87940.6
-88030.5
-88119.7
-88209.1
-88299.1
-88389.2
-88479
-88568.5
-88658.4
-88748.6
-88838.8
-88928.5
-89018.5
-89108.9
-89199.3
-89289.3
-89379.3
-89469.8
-89560.5
-89650.9
-89741
-89831.4
-89922.3
-90013.1
-90103.4
-90193.8
-90284.7
-90375.9
-90466.7
-90557.1
-90647.9
-90739.2
-90830.5
-90921.3
-91012
-91103.3
-91194.8
-91286.1
-91377
-91468.2
-91559.8
-91651.5
-91742.7
-91834
-91925.6
-92017.4
-92109.1
-92200.5
-92292.2
-92384.2
-92476.1
-92567.8
-92659.5
-92751.6
-92843.8
-92935.8
-93027.5
-93119.7
-93212.2
-93304.5
-93396.5
-93488.6
-93581.1
-93673.8
-93766.3
-93858.4
-93950.8
-94043.7
-94136.5
-94229.1
-94321.5
-94414.3
-94507.3
-94600.3
-94693
-94785.8
-94878.9
-94972.1
-95065.1
-95158
-95251.3
-95344.6
-95437.9
-95531
-95624.3
-95717.9
-95811.5
-95904.7
-95998
-96091.7
-96185.6
-96279.4
-96372.7
-96466.3
-96560.3
-96654.5
-96748.3
-96841.9
-96935.8
-97030
-97124.3
-97218.3
-97312.3
-97406.5
-97500.9
-97595.3
-97689.5
-97783.8
-97878.3
-97972.8
-98067.3
-98161.8
-98256.5
-98351.2
-98445.9
-98540.4
-98635.2
-98730.3
-98825.3
-98920
-99014.8
-99109.8
-99205.2
-99300.4
-99395.3
-99490.3
-99585.6
-99681.2
-99776.6
-99871.8
-99967
-100063
-100158
-100254
-100349
-100445
-100541
-100636
-100732
-100828
-100924
-101020
-101116
-101212
-101308
-101404
-101500
-101596
-101692
-101789
-101885
-101982
-102078
-102174
-102271
-102368
-102464
-102561
-102657
-102754
-102851
-102948
-103045
-103141
-103238
-103335
-103432
-103530
-103627
-103724
-103821
-103918
-104016
-104113
-104211
-104308
-104405
-104503
-104601
-104698
-104796
-104893
-104991
-105089
-105187
-105285
-105383
-105481
-105579
-105677
-105775
-105873
-105972
-106070
-106168
-106267
-106365
-106463
-106562
-106660
-106759
-106858
-106956
-107055
-107154
-107252
-107352
-107451
-107549
-107648
-107747
-107846
-107946
-108045
-108144
-108243
-108342
-108442
-108541
-108641
-108740
-108840
-108939
-109039
-109139
-109238
-109338
-109438
-109537
-109638
-109738
-109838
-109937
-110037
-110138
-110238
-110338
-110438
-110538
-110639
-110739
-110840
-110940
-111041
-111141
-111242
-111343
-111443
-111544
-111645
-111746
-111846
-111947
-112049
-112150
-112251
-112352
-112453
-112554
-112655
-112757
-112858
-112959
-113061
-113162
-113264
-113365
-113467
-113568
-113670
-113772
-113874
-113976
-114077
-114179
-114281
-114383
-114485
-114588
-114690
-114792
-114894
-114997
-115099
-115201
-115303
-115406
-115509
-115611
-115714
-115816
-115919
-116022
-116125
-116228
-116330
-116433
-116536
-116639
-116742
-116845
-116949
-117052
-117155
-117258
-117362
-117465
-117568
-117672
-117775
-117879
-117983
-118086
-118190
-118294
-118397
-118501
-118605
-118709
-118813
-118917
-119021
-119125
-119229
-119333
-119438
-119542
-119646
-119751
-119855
-119960
-120064
-120169
-120273
-120378
-120483
-120587
-120692
-120797
-120902
-121007
-121112
-121217
-121322
-121427
-121532
-121637
-121742
-121848
-121953
-122058
-122164
-122269
-122375
-122480
-122586
-122692
-122797
-122903
-123009
-123115
-123220
-123326
-123432
-123538
-123644
-123750
-123857
-123963
-124069
-124175
-124282
-124388
-124494
-124601
-124707
-124814
-124920
-125027
-125134
-125241
-125347
-125454
-125561
-125668
-125775
-125882
-125989
-126096
-126203
-126310
-126418
-126525
-126632
-126740
-126847
-126954
-127062
-127169
-127277
-127385
-127493
-127600
-127708
-127816
-127924
-128032
-128140
-128248
-128356
-128464
-128572
-128680
-128788
-128897
-129005
-129113
-129222
-129330
-129439
-129547
-129656
-129764
-129873
-129982
-130091
-130200
-130308
-130417
-130526
-130635
-130744
-130853
-130963
-131072
-131181
-131290
-131400
-131509
-131618
-131728
-131837
-131947
-132056
-132166
-132276
-132386
-132495
-132605
-132715
-132825
-132935
-133045
-133155
-133265
-133375
-133486
-133596
-133706
-133816
-133927
-134037
-134148
-134258
-134369
-134479
-134590
-134701
-134811
-134922
-135033
-135144
-135255
-135366
-135477
-135588
-135699
-135810
-135921
-136033
-136144
-136255
-136367
-136478
-136590
-136701
-136813
-136924
-137036
-137148
-137260
-137371
-137483
-137595
-137707
-137819
-137931
-138043
-138155
-138267
-138379
-138492
-138604
-138716
-138829
-138941
-139054
-139166
-139279
-139391
-139504
-139617
-139729
-139842
-139955
-140068
-140181
-140294
-140407
-140520
-140633
-140746
-140860
-140973
-141086
-141199
-141313
-141426
-141540
-141653
-141767
-141880
-141994
-142108
-142221
-142335
-142449
-142563
-142677
-142791
-142905
-143019
-143133
-143247
-143361
-143476
-143590
-143704
-143819
-143933
-144048
-144162
-144277
-144391
-144506
-144621
-144736
-144850
-144965
-145080
-145195
-145310
-145425
-145540
-145655
-145770
-145886
-146001
-146116
-146232
-146347
-146463
-146578
-146694
-146809
-146925
-147041
-147157
-147272
-147388
-147504
-147620
-147736
-147852
-147968
-148084
-148201
-148317
-148433
-148550
-148666
-148782
-148899
-149015
-149132
-149249
-149365
-149482
-149599
-149716
-149833
-149949
-150066
-150183
-150301
-150418
-150535
-150652
-150769
-150887
-151004
-151121
-151239
-151356
-151474
-151591
-151709
-151827
-151944
-152062
-152180
-152298
-152416
-152534
-152652
-152770
-152888
-153006
-153124
-153243
-153361
-153479
-153598
-153716
-153834
-153953
-154072
-154190
-154309
-154427
-154546
-154665
-154784
-154903
-155022
-155141
-155260
-155379
-155498
-155617
-155736
-155856
-155975
-156094
-156214
-156333
-156453
-156572
-156692
-156811
-156931
-157051
-157170
-157290
-157410
-157530
-157650
-157770
-157890
-158010
-158130
-158250
-158371
-158491
-158611
-158732
-158852
-158972
-159093
-159214
-159334
-159455
-159575
-159696
-159817
-159938
-160059
-160180
-160301
-160422
-160543
-160664
-160785
-160906
-161028
-161149
-161270
-161392
-161513
-161635
-161756
-161878
-161999
-162121
-162243
-162365
-162487
-162608
-162730
-162852
-162974
-163096
-163219
-163341
-163463
-163585
-163708
-163830
-163952
-164075
-164197
-164320
-164443
-164565
-164688
-164811
-164934
-165056
-165179
-165302
-165425
-165548
-165672
-165795
-165918
-166041
-166164
-166288
-166411
-166535
-166658
-166782
-166905
-167029
-167153
-167276
-167400
-167524
-167648
-167772
-167896
-168020
-168144
-168268
-168392
-168517
-168641
-168765
-168890
-169014
-169138
-169263
-169388
-169512
-169637
-169762
-169886
-170011
-170136
-170261
-170386
-170511
-170636
-170761
-170886
-171012
-171137
-171262
-171388
-171513
-171638
-171764
-171890
-172015
-172141
-172267
-172392
-172518
-172644
-172770
-172896
-173022
-173148
-173274
-173400
-173527
-173653
-173779
-173906
-174032
-174158
-174285
-174412
-174538
-174665
-174792
-174918
-175045
-175172
-175299
-175426
-175553
-175680
-175807
-175934
-176062
-176189
-176316
-176444
-176571
-176699
-176826
-176954
-177081
-177209
-177337
-177465
-177592
-177720
-177848
-177976
-178104
-178232
-178361
-178489
-178617
-178745
-178873
-179002
-179130
-179259
-179388
-179516
-179645
-179773
-179902
-180031
-180160
-180289
-180418
-180547
-180676
-180805
-180934
-181063
-181193
-181322
-181452
-181581
-181710
-181840
-181970
-182099
-182229
-182359
-182489
-182618
-182748
-182878
-183008
-183138
-183269
-183399
-183529
-183659
-183790
-183920
-184050
-184181
-184312
-184442
-184573
-184703
-184834
-184965
-185096
-185227
-185358
-185489
-185620
-185751
-185882
-186014
-186145
-186276
-186408
-186539
-186671
-186802
-186934
-187066
-187197
-187329
-187461
-187593
-187725
-187857
-187989
-188121
-188253
-188385
-188518
-188650
-188782
-188915
-189047
-189180
-189313
-189445
-189578
-189711
-189844
-189976
-190109
-190242
-190376
-190509
-190642
-190775
-190908
-191042
-191175
-191309
-191442
-191576
-191709
-191843
-191977
-192110
-192244
-192378
-192512
-192646
-192780
-192914
-193048
-193183
-193317
-193451
-193586
-193720
-193855
-193989
-194124
-194259
-194394
-194528
-194663
-194798
-194933
-195068
-195203
-195339
-195474
-195609
-195745
-195880
-196015
-196151
-196286
-196422
-196558
-196694
-196829
-196965
-197101
-197237
-197373
-197509
-197646
-197782
-197918
-198054
-198191
-198327
-198464
-198600
-198737
-198874
-199011
-199147
-199284
-199421
-199558
-199695
-199833
-199970
-200107
-200244
-200382
-200519
-200657
-200794
-200932
-201070
-201208
-201345
-201483
-201621
-201759
-201897
-202035
-202174
-202312
-202450
-202589
-202727
-202866
-203004
-203143
-203282
-203420
-203559
-203698
-203837
-203976
-204115
-204254
-204394
-204533
-204672
-204812
-204951
-205091
-205230
-205370
-205510
-205650
-205790
-205929
-206070
-206210
-206350
-206490
-206630
-206771
-206911
-207052
-207192
-207333
-207473
-207614
-207755
-207896
-208037
-208178
-208319
-208460
-208601
-208743
-208884
-209026
-209167
-209309
-209450
-209592
-209734
-209876
-210018
-210160
-210302
-210444
-210586
-210729
-210871
-211013
-211156
-211298
-211441
-211584
-211727
-211870
-212013
-212156
-212299
-212442
-212585
-212728
-212872
-213015
-213159
-213302
-213446
-213590
-213734
-213878
-214022
-214166
-214310
-214454
-214598
-214743
-214887
-215032
-215176
-215321
-215466
-215611
-215756
-215901
-216046
-216191
-216336
-216481
-216627
-216772
-216918
-217064
-217209
-217355
-217501
-217647
-217793
-217939
-218085
-218232
-218378
-218524
-218671
-218817
-218964
-219111
-219258
-219405
-219552
-219699
-219846
-219993
-220141
-220288
-220436
-220584
-220731
-220879
-221027
-221175
-221323
-221471
-221619
-221768
-221916
-222065
-222213
-222362
-222511
-222660
-222809
-222958
-223107
-223256
-223406
-223555
-223704
-223854
-224004
-224154
-224303
-224454
-224604
-224754
-224904
-225054
-225205
-225355
-225506
-225657
-225808
-225959
-226110
-226261
-226412
-226563
-226715
-226866
-227018
-227170
-227322
-227474
-227626
-227778
-227930
-228082
-228235
-228388
-228540
-228693
-228846
-228999
-229152
-229305
-229458
-229612
-229766
-229919
-230073
-230227
-230381
-230535
-230689
-230843
-230998
-231152
-231307
-231462
-231616
-231771
-231926
-232082
-232237
-232392
-232548
-232704
-232860
-233015
-233171
-233327
-233484
-233640
-233797
-233953
-234110
-234267
-234424
-234581
-234738
-234896
-235053
-235211
-235369
-235526
-235684
-235843
-236001
-236159
-236318
-236476
-236635
-236794
-236953
-237112
-237272
-237431
-237591
-237750
-237910
-238070
-238230
-238391
-238551
-238712
-238872
-239033
-239194
-239355
-239516
-239678
-239839
-240001
-240163
-240325
-240487
-240649
-240812
-240974
-241137
-241300
-241463
-241626
-241790
-241953
-242117
-242281
-242445
-242609
-242773
-242938
-243102
-243267
-243432
-243597
-243762
-243928
-244093
-244259
-244425
-244591
-244757
-244924
-245091
-245257
-245424
-245591
-245759
-245926
-246094
-246262
-246430
-246598
-246767
-246935
-247104
-247273
-247442
-247611
-247781
-247951
-248121
-248291
-248461
-248631
-248802
-248973
-249144
-249315
-249487
-249659
-249830
-250003
-250175
-250347
-250520
-250693
-250866
-251040
-251213
-251387
-251561
-251735
-251909
-252084
-252259
-252434
-252609
-252785
-252961
-253137
-253313
-253489
-253666
-253843
-254020
-254198
-254375
-254553
-254731
-254910
-255088
-255267
-255446
-255625
-255805
-255985
-256165
-256345
-256526
-256707
-256888
-257070
-257251
-257433
-257615
-257798
-257981
-258164
-258347
-258531
-258714
-258899
-259083
-259268
-259453
-259638
-259824
-260010
-260196
-260382
-260569
-260756
-260944
-261131
-261319
-261508
-261696
-261885
-262074
-262264
-262454
-262644
-262835
-263026
-263217
-263409
-263600
-263793
-263985
-264178
-264371
-264565
-264759
-264953
-265148
-265343
-265538
-265734
-265930
-266127
-266324
-266521
-266719
-266917
-267115
-267314
-267513
-267713
-267913
-268113
-268314
-268515
-268717
-268919
-269121
-269324
-269527
-269731
-269935
-270140
-270345
-270550
-270756
-270962
-271169
-271376
-271584
-271792
-272001
-272210
-272420
-272630
-272841
-273052
-273263
-273476
-273688
-273901
-274115
-274329
-274544
-274760
-274976
-275192
-275411
-275595
-275774
-275951
-276135
-276362
-276640
-276872
-277090
-277338
-277553
-277780
-278005
-278226
-278453
-278677
-278902
-279127
-279352
-279578
-279805
-280032
-280260
-280488
-280718
-280947
-281178
-281409
-281640
-281872
-282105
-282338
-282572
-282807
-283042
-283278
-283514
-283752
-283989
-284228
-284467
-284707
-284947
-285189
-285430
-285673
-285916
-286160
-286405
-286650
-286896
-287143
-287390
-287639
-287888
-288137
-288388
-288639
-288891
-289143
-289397
-289651
-289906
-290161
-290418
-290675
-290933
-291192
-291452
-291712
-291973
-292235
-292498
-292762
-293026
-293292
-293558
-293824
-294092
-294361
-294630
-294901
-295172
-295444
-295717
-295991
-296266
-296541
-296818
-297095
-297373
-297652
-297933
-298214
-298496
-298779
-299062
-299347