/*--------------------------------*- C++ -*----------------------------------*\
  =========                 |
  \\      /  F ield         | OpenFOAM: The Open Source CFD Toolbox
   \\    /   O peration     | Website:  https://openfoam.org
    \\  /    A nd           | Version:  9
     \\/     M anipulation  |
\*---------------------------------------------------------------------------*/
FoamFile
{
    format      ascii;
    class       surfaceScalarField;
    location    "0.033";
    object      ddtCorrDdt0(phi);
}
// * * * * * * * * * * * * * * * * * * * * * * * * * * * * * * * * * * * * * //

dimensions      [1 0 -2 0 0 0 0];

internalField   nonuniform List<scalar> 
9999
(
-21.9581
-25.1342
-28.3074
-31.4767
-34.6444
-37.8133
-40.9829
-44.1521
-47.3223
-50.4949
-53.6674
-56.8365
-60.0026
-63.1702
-66.3426
-69.5171
-72.6875
-75.8518
-79.0147
-82.1829
-85.3577
-88.5324
-91.6993
-94.8571
-98.0131
-101.178
-104.356
-107.543
-110.726
-113.895
-117.051
-120.204
-123.367
-126.544
-129.728
-132.908
-136.071
-139.217
-142.357
-145.509
-148.682
-151.873
-155.068
-158.249
-161.407
-164.546
-167.677
-170.816
-173.976
-177.161
-180.362
-183.563
-186.746
-189.906
-193.041
-196.163
-199.289
-202.433
-205.6
-208.792
-212.001
-215.218
-218.427
-221.617
-224.773
-227.896
-230.998
-234.097
-237.205
-240.333
-243.491
-246.683
-249.903
-253.137
-256.375
-259.607
-262.816
-265.994
-269.143
-272.259
-275.347
-278.419
-281.486
-284.562
-287.659
-290.777
-293.913
-297.073
-300.268
-303.506
-306.769
-310.043
-313.34
-316.656
-319.972
-323.286
-326.606
-329.911
-333.203
-336.488
-339.747
-342.993
-346.218
-349.424
-352.616
-355.792
-358.971
-362.151
-365.343
-368.548
-372.006
-375.056
-378.276
-381.453
-384.631
-387.802
-390.974
-394.152
-397.319
-400.5
-403.672
-406.844
-410.026
-413.195
-416.368
-419.547
-422.719
-425.887
-429.063
-432.243
-435.413
-438.579
-441.756
-444.937
-448.114
-451.284
-454.448
-457.613
-460.785
-463.961
-467.136
-470.314
-473.491
-476.664
-479.837
-483.012
-486.186
-489.358
-492.532
-495.708
-498.884
-502.058
-505.231
-508.407
-511.584
-514.759
-517.931
-521.101
-524.274
-527.45
-530.627
-533.802
-536.974
-540.142
-543.309
-546.478
-549.65
-552.822
-555.996
-559.171
-562.347
-565.522
-568.696
-571.869
-575.042
-578.216
-581.389
-584.56
-587.732
-590.906
-594.081
-597.256
-600.43
-603.603
-606.776
-609.95
-613.125
-616.301
-619.476
-622.649
-625.82
-628.99
-632.159
-635.328
-638.498
-641.669
-644.842
-648.015
-651.189
-654.362
-657.536
-660.71
-663.883
-667.056
-670.229
-673.4
-676.572
-679.745
-682.918
-686.09
-689.262
-692.434
-695.606
-698.78
-701.954
-705.13
-708.305
-711.479
-714.651
-717.822
-720.991
-724.161
-727.33
-730.501
-733.672
-736.844
-740.016
-743.189
-746.361
-749.534
-752.707
-755.879
-759.051
-762.223
-765.395
-768.568
-771.74
-774.912
-778.083
-781.253
-784.424
-787.596
-790.768
-793.941
-797.115
-800.288
-803.461
-806.633
-809.804
-812.974
-816.144
-819.315
-822.485
-825.656
-828.827
-831.999
-835.171
-838.343
-841.515
-844.686
-847.857
-851.028
-854.2
-857.372
-860.544
-863.715
-866.886
-870.057
-873.227
-876.398
-879.569
-882.741
-885.912
-889.084
-892.255
-895.426
-898.597
-901.767
-904.937
-908.107
-911.278
-914.448
-917.619
-920.79
-923.962
-927.133
-930.305
-933.476
-936.647
-939.818
-942.988
-946.159
-949.33
-952.501
-955.671
-958.841
-962.011
-965.181
-968.352
-971.523
-974.694
-977.865
-981.036
-984.206
-987.376
-990.545
-993.714
-996.883
-1000.05
-1003.22
-1006.39
-1009.56
-1012.73
-1015.9
-1019.07
-1022.24
-1025.42
-1028.59
-1031.76
-1034.93
-1038.1
-1041.27
-1044.44
-1047.61
-1050.78
-1053.95
-1057.12
-1060.29
-1063.46
-1066.63
-1069.8
-1072.97
-1076.14
-1079.31
-1082.48
-1085.64
-1088.81
-1091.98
-1095.15
-1098.32
-1101.48
-1104.65
-1107.82
-1110.99
-1114.16
-1117.33
-1120.5
-1123.67
-1126.84
-1130.01
-1133.19
-1136.36
-1139.52
-1142.69
-1145.86
-1149.03
-1152.2
-1155.37
-1158.54
-1161.71
-1164.88
-1168.05
-1171.22
-1174.38
-1177.55
-1180.72
-1183.89
-1187.06
-1190.22
-1193.39
-1196.56
-1199.73
-1202.89
-1206.06
-1209.23
-1212.4
-1215.57
-1218.74
-1221.91
-1225.08
-1228.25
-1231.42
-1234.59
-1237.76
-1240.92
-1244.09
-1247.26
-1250.43
-1253.6
-1256.77
-1259.94
-1263.1
-1266.27
-1269.44
-1272.61
-1275.78
-1278.94
-1282.11
-1285.28
-1288.44
-1291.61
-1294.78
-1297.94
-1301.11
-1304.28
-1307.45
-1310.61
-1313.78
-1316.95
-1320.12
-1323.29
-1326.46
-1329.62
-1332.79
-1335.96
-1339.13
-1342.3
-1345.47
-1348.63
-1351.8
-1354.97
-1358.14
-1361.3
-1364.47
-1367.64
-1370.81
-1373.97
-1377.14
-1380.31
-1383.47
-1386.64
-1389.8
-1392.97
-1396.14
-1399.3
-1402.47
-1405.64
-1408.8
-1411.97
-1415.14
-1418.3
-1421.47
-1424.64
-1427.81
-1430.97
-1434.14
-1437.31
-1440.47
-1443.64
-1446.81
-1449.98
-1453.14
-1456.31
-1459.48
-1462.65
-1465.81
-1468.98
-1472.14
-1475.31
-1478.48
-1481.64
-1484.81
-1487.97
-1491.14
-1494.3
-1497.47
-1500.63
-1503.8
-1506.97
-1510.13
-1513.3
-1516.46
-1519.63
-1522.8
-1525.96
-1529.13
-1532.29
-1535.46
-1538.63
-1541.79
-1544.96
-1548.13
-1551.29
-1554.46
-1557.62
-1560.79
-1563.96
-1567.12
-1570.29
-1573.45
-1576.62
-1579.78
-1582.95
-1586.11
-1589.28
-1592.44
-1595.61
-1598.77
-1601.94
-1605.1
-1608.27
-1611.43
-1614.6
-1617.76
-1620.93
-1624.09
-1627.26
-1630.42
-1633.59
-1636.75
-1639.92
-1643.08
-1646.25
-1649.41
-1652.58
-1655.74
-1658.91
-1662.07
-1665.24
-1668.4
-1671.57
-1674.73
-1677.9
-1681.06
-1684.22
-1687.39
-1690.55
-1693.72
-1696.88
-1700.04
-1703.21
-1706.37
-1709.54
-1712.7
-1715.87
-1719.03
-1722.19
-1725.36
-1728.52
-1731.69
-1734.85
-1738.01
-1741.18
-1744.34
-1747.51
-1750.67
-1753.83
-1757
-1760.16
-1763.33
-1766.49
-1769.65
-1772.82
-1775.98
-1779.14
-1782.31
-1785.47
-1788.63
-1791.8
-1794.96
-1798.12
-1801.29
-1804.45
-1807.61
-1810.78
-1813.94
-1817.1
-1820.27
-1823.43
-1826.59
-1829.76
-1832.92
-1836.08
-1839.24
-1842.41
-1845.57
-1848.73
-1851.9
-1855.06
-1858.22
-1861.38
-1864.55
-1867.71
-1870.87
-1874.03
-1877.2
-1880.36
-1883.52
-1886.68
-1889.85
-1893.01
-1896.17
-1899.33
-1902.5
-1905.66
-1908.82
-1911.98
-1915.15
-1918.31
-1921.47
-1924.63
-1927.79
-1930.96
-1934.12
-1937.28
-1940.44
-1943.6
-1946.77
-1949.93
-1953.09
-1956.25
-1959.41
-1962.58
-1965.74
-1968.9
-1972.06
-1975.22
-1978.38
-1981.54
-1984.7
-1987.87
-1991.03
-1994.19
-1997.35
-2000.51
-2003.67
-2006.83
-2010
-2013.16
-2016.32
-2019.48
-2022.64
-2025.8
-2028.96
-2032.12
-2035.29
-2038.45
-2041.61
-2044.77
-2047.93
-2051.09
-2054.25
-2057.41
-2060.57
-2063.73
-2066.89
-2070.05
-2073.21
-2076.38
-2079.54
-2082.7
-2085.86
-2089.02
-2092.18
-2095.34
-2098.49
-2101.65
-2104.81
-2107.97
-2111.13
-2114.3
-2117.46
-2120.62
-2123.78
-2126.94
-2130.1
-2133.26
-2136.42
-2139.58
-2142.74
-2145.9
-2149.06
-2152.22
-2155.38
-2158.54
-2161.7
-2164.86
-2168.02
-2171.18
-2174.34
-2177.49
-2180.65
-2183.81
-2186.97
-2190.13
-2193.29
-2196.45
-2199.61
-2202.77
-2205.92
-2209.08
-2212.24
-2215.4
-2218.56
-2221.72
-2224.88
-2228.04
-2231.2
-2234.36
-2237.52
-2240.67
-2243.83
-2246.99
-2250.15
-2253.31
-2256.47
-2259.63
-2262.79
-2265.95
-2269.11
-2272.26
-2275.42
-2278.58
-2281.74
-2284.89
-2288.05
-2291.21
-2294.37
-2297.53
-2300.69
-2303.84
-2307
-2310.16
-2313.31
-2316.47
-2319.63
-2322.79
-2325.94
-2329.1
-2332.26
-2335.42
-2338.58
-2341.74
-2344.89
-2348.05
-2351.21
-2354.36
-2357.52
-2360.68
-2363.84
-2367
-2370.15
-2373.31
-2376.47
-2379.63
-2382.79
-2385.94
-2389.1
-2392.25
-2395.41
-2398.57
-2401.72
-2404.88
-2408.04
-2411.2
-2414.35
-2417.51
-2420.67
-2423.82
-2426.98
-2430.13
-2433.28
-2436.44
-2439.6
-2442.76
-2445.92
-2449.07
-2452.23
-2455.38
-2458.54
-2461.69
-2464.85
-2468
-2471.16
-2474.31
-2477.48
-2480.64
-2483.8
-2486.96
-2490.1
-2493.27
-2496.41
-2499.56
-2502.73
-2505.88
-2509.04
-2512.21
-2515.35
-2518.51
-2521.67
-2524.82
-2527.97
-2531.12
-2534.28
-2537.44
-2540.58
-2543.75
-2546.89
-2550.07
-2553.19
-2556.38
-2559.51
-2562.68
-2565.84
-2568.98
-2572.16
-2575.27
-2578.49
-2581.57
-2584.8
-2587.88
-2591.09
-2594.22
-2597.38
-2600.57
-2603.64
-2606.9
-2609.94
-2613.21
-2616.26
-2619.49
-2622.63
-2625.73
-2628.98
-2632.02
-2635.32
-2638.34
-2641.56
-2644.69
-2647.82
-2651.06
-2654.07
-2657.4
-2660.4
-2663.64
-2666.78
-2669.88
-2673.16
-2676.14
-2679.47
-2682.48
-2685.69
-2688.9
-2691.92
-2695.26
-2698.22
-2701.51
-2704.61
-2707.71
-2711.02
-2713.95
-2717.34
-2720.33
-2723.5
-2726.77
-2729.74
-2733.11
-2736.06
-2739.31
-2742.5
-2745.5
-2748.9
-2751.8
-2755.1
-2758.25
-2761.25
-2764.67
-2767.56
-2770.87
-2773.99
-2777.03
-2780.4
-2783.34
-2786.65
-2789.73
-2792.78
-2796.2
-2799.05
-2802.42
-2805.49
-2808.55
-2811.99
-2814.81
-2818.16
-2821.27
-2824.33
-2827.73
-2830.57
-2833.94
-2837.04
-2840.05
-2843.48
-2846.32
-2849.69
-2852.83
-2855.77
-2859.25
-2862.11
-2865.4
-2868.64
-2871.5
-2875
-2877.91
-2881.09
-2884.46
-2887.24
-2890.73
-2893.74
-2896.75
-2900.25
-2903.02
-2906.39
-2909.6
-2912.43
-2916
-2918.86
-2922.01
-2925.46
-2928.17
-2931.66
-2934.76
-2937.64
-2941.24
-2944.02
-2947.25
-2950.66
-2953.34
-2956.9
-2959.95
-2962.83
-2966.47
-2969.19
-2972.43
-2975.89
-2978.52
-2982.08
-2985.18
-2987.98
-2991.68
-2994.41
-2997.61
-3001.11
-3003.74
-3007.24
-3010.42
-3013.17
-3016.84
-3019.67
-3022.75
-3026.32
-3028.94
-3032.37
-3035.67
-3038.35
-3042
-3044.94
-3047.86
-3051.53
-3054.21
-3057.46
-3060.95
-3063.54
-3067.08
-3070.27
-3072.96
-3076.68
-3079.55
-3082.47
-3086.19
-3088.82
-3092.07
-3095.62
-3098.16
-3101.68
-3104.96
-3107.56
-3111.27
-3114.27
-3117.04
-3120.81
-3123.55
-3126.58
-3130.29
-3132.86
-3136.16
-3139.69
-3142.21
-3145.75
-3149.05
-3151.61
-3155.33
-3158.37
-3161.07
-3164.88
-3167.67
-3170.58
-3174.38
-3176.97
-3180.13
-3183.83
-3186.29
-3189.7
-3193.23
-3195.65
-3199.27
-3202.6
-3205.05
-3208.83
-3211.93
-3214.48
-3218.38
-3221.26
-3223.95
-3227.9
-3230.58
-3233.45
-3237.39
-3239.91
-3242.97
-3246.84
-3249.25
-3252.5
-3256.28
-3258.6
-3262.03
-3265.69
-3267.98
-3271.56
-3275.08
-3277.38
-3281.09
-3284.46
-3286.79
-3290.61
-3293.83
-3296.22
-3300.11
-3303.2
-3305.66
-3309.61
-3312.57
-3315.11
-3319.09
-3321.94
-3324.57
-3328.56
-3331.31
-3334.03
-3338.02
-3340.7
-3343.49
-3347.47
-3350.08
-3352.96
-3356.93
-3359.48
-3362.42
-3366.37
-3368.88
-3371.87
-3375.81
-3378.28
-3381.33
-3385.25
-3387.69
-3390.77
-3394.69
-3397.11
-3400.21
-3404.13
-3406.54
-3409.63
-3413.57
-3415.97
-3419.05
-3423.01
-3425.41
-3428.46
-3432.45
-3434.85
-3437.87
-3441.88
-3444.31
-3447.27
-3451.31
-3453.77
-3456.66
-3460.73
-3463.25
-3466.05
-3470.15
-3472.74
-3475.44
-3479.55
-3482.23
-3484.83
-3488.95
-3491.73
-3494.23
-3498.33
-3501.24
-3503.64
-3507.69
-3510.75
-3513.06
-3517.04
-3520.25
-3522.49
-3526.37
-3529.76
-3531.94
-3535.7
-3539.25
-3541.41
-3545.02
-3548.73
-3550.9
-3554.33
-3558.18
-3560.41
-3563.64
-3567.61
-3569.94
-3572.96
-3577.02
-3579.49
-3582.29
-3586.4
-3589.05
-3591.64
-3595.75
-3598.61
-3601.02
-3605.06
-3608.18
-3610.44
-3614.35
-3617.73
-3619.9
-3623.61
-3627.25
-3629.4
-3632.85
-3636.73
-3638.95
-3642.11
-3646.16
-3648.54
-3651.38
-3655.53
-3658.17
-3660.7
-3664.82
-3667.79
-3670.08
-3674.06
-3677.39
-3679.53
-3683.27
-3686.94
-3689.07
-3692.46
-3696.41
-3698.67
-3701.68
-3705.79
-3708.32
-3710.95
-3715.09
-3717.98
-3720.31
-3724.31
-3727.61
-3729.77
-3733.49
-3737.17
-3739.33
-3742.65
-3746.63
-3748.97
-3751.85
-3755.98
-3758.65
-3761.14
-3765.22
-3768.33
-3770.55
-3774.37
-3777.94
-3780.09
-3783.5
-3787.43
-3789.74
-3792.67
-3796.78
-3799.45
-3801.95
-3805.99
-3809.13
-3811.37
-3815.13
-3818.73
-3820.94
-3824.25
-3828.19
-3830.6
-3833.43
-3837.51
-3840.32
-3842.74
-3846.68
-3849.99
-3852.21
-3855.78
-3859.55
-3861.83
-3864.9
-3868.94
-3871.56
-3874.13
-3878.15
-3881.29
-3883.54
-3887.24
-3890.91
-3893.14
-3896.32
-3900.33
-3902.88
-3905.51
-3909.54
-3912.63
-3914.9
-3918.61
-3922.26
-3924.51
-3927.68
-3931.67
-3934.26
-3936.87
-3940.86
-3944.01
-3946.29
-3949.92
-3953.61
-3955.93
-3959
-3962.98
-3965.69
-3968.24
-3972.13
-3975.41
-3977.71
-3981.19
-3984.95
-3987.38
-3990.3
-3994.26
-3997.14
-3999.6
-4003.37
-4006.82
-4009.14
-4012.42
-4016.29
-4018.87
-4021.58
-4025.5
-4028.63
-4030.98
-4034.55
-4038.23
-4040.63
-4043.61
-4047.56
-4050.42
-4052.88
-4056.64
-4060.12
-4062.44
-4065.65
-4069.56
-4072.22
-4074.82
-4078.69
-4081.99
-4084.31
-4087.69
-4091.51
-4094.06
-4096.8
-4100.7
-4103.84
-4106.21
-4109.7
-4113.42
-4115.92
-4118.78
-4122.66
-4125.7
-4128.15
-4131.7
-4135.31
-4137.8
-4140.77
-4144.61
-4147.56
-4150.09
-4153.68
-4157.2
-4159.69
-4162.75
-4166.55
-4169.44
-4172.02
-4175.65
-4179.1
-4181.59
-4184.7
-4188.49
-4191.34
-4193.94
-4197.59
-4201.02
-4203.5
-4206.61
-4210.41
-4213.28
-4215.85
-4219.49
-4222.96
-4225.45
-4228.5
-4232.3
-4235.24
-4237.78
-4241.34
-4244.89
-4247.43
-4250.38
-4254.16
-4257.21
-4259.74
-4263.18
-4266.78
-4269.42
-4272.29
-4275.99
-4279.16
-4281.72
-4285.04
-4288.64
-4291.4
-4294.22
-4297.84
-4301.08
-4303.69
-4306.92
-4310.52
-4313.36
-4316.14
-4319.69
-4323.01
-4325.64
-4328.77
-4332.4
-4335.33
-4338.04
-4341.52
-4344.95
-4347.61
-4350.61
-4354.25
-4357.33
-4359.96
-4363.31
-4366.86
-4369.63
-4372.46
-4376.04
-4379.32
-4381.95
-4385.09
-4388.71
-4391.67
-4394.37
-4397.81
-4401.25
-4403.97
-4406.92
-4410.5
-4413.67
-4416.34
-4419.58
-4423.11
-4426
-4428.81
-4432.27
-4435.61
-4438.34
-4441.39
-4444.93
-4448
-4450.74
-4454.04
-4457.5
-4460.35
-4463.24
-4466.72
-4469.97
-4472.7
-4475.83
-4479.35
-4482.36
-4485.12
-4488.47
-4491.9
-4494.72
-4497.62
-4501.13
-4504.37
-4507.08
-4510.2
-4513.75
-4516.77
-4519.51
-4522.83
-4526.3
-4529.14
-4532
-4535.47
-4538.78
-4541.52
-4544.56
-4548.08
-4551.2
-4553.94
-4557.16
-4560.64
-4563.59
-4566.41
-4569.78
-4573.14
-4575.97
-4578.94
-4582.39
-4585.59
-4588.37
-4591.51
-4594.96
-4598
-4600.82
-4604.11
-4607.49
-4610.39
-4613.32
-4616.71
-4619.97
-4622.79
-4625.85
-4629.3
-4632.41
-4635.22
-4638.42
-4641.85
-4644.83
-4647.67
-4650.99
-4654.36
-4657.25
-4660.17
-4663.57
-4666.84
-4669.66
-4672.69
-4676.13
-4679.29
-4682.1
-4685.24
-4688.67
-4691.72
-4694.56
-4697.8
-4701.18
-4704.14
-4707.05
-4710.36
-4713.66
-4716.57
-4719.56
-4722.91
-4726.12
-4728.99
-4732.09
-4735.46
-4738.56
-4741.43
-4744.62
-4747.99
-4751
-4753.9
-4757.16
-4760.49
-4763.43
-4766.37
-4769.7
-4772.98
-4775.87
-4778.87
-4782.24
-4785.45
-4788.31
-4791.37
-4794.76
-4797.91
-4800.77
-4803.89
-4807.27
-4810.36
-4813.23
-4816.41
-4819.77
-4822.8
-4825.7
-4828.93
-4832.26
-4835.24
-4838.18
-4841.45
-4844.73
-4847.69
-4850.67
-4853.97
-4857.2
-4860.13
-4863.17
-4866.48
-4869.66
-4872.58
-4875.66
-4878.99
-4882.12
-4885.04
-4888.16
-4891.49
-4894.58
-4897.49
-4900.66
-4903.98
-4907.03
-4909.96
-4913.16
-4916.47
-4919.49
-4922.43
-4925.66
-4928.95
-4931.95
-4934.9
-4938.15
-4941.43
-4944.41
-4947.38
-4950.64
-4953.89
-4956.87
-4959.86
-4963.13
-4966.35
-4969.32
-4972.34
-4975.61
-4978.81
-4981.78
-4984.83
-4988.1
-4991.27
-4994.23
-4997.31
-5000.58
-5003.73
-5006.69
-5009.79
-5013.07
-5016.19
-5019.14
-5022.26
-5025.55
-5028.66
-5031.6
-5034.73
-5038.02
-5041.13
-5044.06
-5047.19
-5050.49
-5053.6
-5056.53
-5059.66
-5062.95
-5066.06
-5069
-5072.12
-5075.41
-5078.52
-5081.48
-5084.6
-5087.86
-5090.97
-5093.95
-5097.07
-5100.32
-5103.42
-5106.41
-5109.55
-5112.78
-5115.87
-5118.87
-5122.02
-5125.25
-5128.32
-5131.31
-5134.48
-5137.73
-5140.78
-5143.76
-5146.93
-5150.19
-5153.26
-5156.22
-5159.37
-5162.64
-5165.73
-5168.69
-5171.81
-5175.09
-5178.2
-5181.16
-5184.27
-5187.52
-5190.66
-5193.64
-5196.73
-5199.96
-5203.1
-5206.11
-5209.2
-5212.41
-5215.54
-5218.56
-5221.66
-5224.87
-5227.99
-5231.01
-5234.12
-5237.33
-5240.44
-5243.45
-5246.56
-5249.79
-5252.91
-5255.9
-5258.99
-5262.23
-5265.38
-5268.36
-5271.42
-5274.66
-5277.84
-5280.84
-5283.87
-5287.08
-5290.28
-5293.31
-5296.32
-5299.5
-5302.72
-5305.78
-5308.79
-5311.94
-5315.14
-5318.23
-5321.25
-5324.39
-5327.57
-5330.66
-5333.71
-5336.84
-5340.02
-5343.1
-5346.14
-5349.29
-5352.47
-5355.55
-5358.58
-5361.71
-5364.92
-5368.02
-5371.02
-5374.13
-5377.35
-5380.48
-5383.48
-5386.55
-5389.77
-5392.94
-5395.95
-5398.99
-5402.18
-5405.37
-5408.42
-5411.44
-5414.59
-5417.79
-5420.87
-5423.9
-5427.02
-5430.21
-5433.31
-5436.35
-5439.46
-5442.63
-5445.74
-5448.79
-5451.9
-5455.07
-5458.18
-5461.22
-5464.33
-5467.51
-5470.63
-5473.66
-5476.74
-5479.93
-5483.08
-5486.11
-5489.16
-5492.34
-5495.52
-5498.57
-5501.6
-5504.74
-5507.94
-5511.03
-5514.05
-5517.15
-5520.34
-5523.47
-5526.51
-5529.58
-5532.75
-5535.89
-5538.95
-5542.02
-5545.17
-5548.31
-5551.39
-5554.46
-5557.6
-5560.74
-5563.81
-5566.88
-5570.02
-5573.17
-5576.25
-5579.3
-5582.42
-5585.6
-5588.7
-5591.73
-5594.82
-5598
-5601.14
-5604.18
-5607.24
-5610.4
-5613.56
-5616.64
-5619.67
-5622.8
-5625.97
-5629.07
-5632.12
-5635.21
-5638.37
-5641.49
-5644.55
-5647.64
-5650.78
-5653.91
-5656.98
-5660.06
-5663.2
-5666.33
-5669.4
-5672.47
-5675.61
-5678.76
-5681.84
-5684.88
-5688
-5691.17
-5694.28
-5697.32
-5700.4
-5703.56
-5706.71
-5709.77
-5712.82
-5715.94
-5719.11
-5722.2
-5725.25
-5728.35
-5731.5
-5734.62
-5737.68
-5740.77
-5743.9
-5747.02
-5750.1
-5753.18
-5756.31
-5759.44
-5762.51
-5765.59
-5768.71
-5771.85
-5774.94
-5778
-5781.1
-5784.26
-5787.37
-5790.42
-5793.5
-5796.64
-5799.78
-5802.86
-5805.91
-5809.02
-5812.18
-5815.28
-5818.34
-5821.42
-5824.56
-5827.69
-5830.76
-5833.83
-5836.96
-5840.09
-5843.18
-5846.25
-5849.35
-5852.49
-5855.59
-5858.66
-5861.75
-5864.88
-5868
-5871.07
-5874.15
-5877.28
-5880.4
-5883.48
-5886.55
-5889.66
-5892.8
-5895.9
-5898.96
-5902.04
-5905.18
-5908.31
-5911.38
-5914.45
-5917.56
-5920.7
-5923.8
-5926.86
-5929.95
-5933.08
-5936.2
-5939.27
-5942.35
-5945.46
-5948.59
-5951.68
-5954.75
-5957.86
-5960.98
-5964.08
-5967.15
-5970.24
-5973.37
-5976.48
-5979.55
-5982.63
-5985.75
-5988.88
-5991.97
-5995.03
-5998.12
-6001.26
-6004.37
-6007.44
-6010.51
-6013.63
-6016.76
-6019.85
-6022.91
-6026.01
-6029.13
-6032.24
-6035.32
-6038.4
-6041.51
-6044.63
-6047.72
-6050.79
-6053.89
-6057.01
-6060.11
-6063.18
-6066.27
-6069.39
-6072.5
-6075.58
-6078.66
-6081.77
-6084.89
-6087.98
-6091.05
-6094.14
-6097.26
-6100.37
-6103.45
-6106.52
-6109.63
-6112.75
-6115.85
-6118.91
-6122
-6125.12
-6128.23
-6131.31
-6134.39
-6137.49
-6140.61
-6143.7
-6146.78
-6149.86
-6152.98
-6156.08
-6159.17
-6162.25
-6165.35
-6168.46
-6171.55
-6174.63
-6177.72
-6180.84
-6183.94
-6187.01
-6190.09
-6193.2
-6196.32
-6199.4
-6202.47
-6205.56
-6208.68
-6211.79
-6214.87
-6217.94
-6221.04
-6224.16
-6227.26
-6230.33
-6233.41
-6236.51
-6239.62
-6242.71
-6245.79
-6248.88
-6251.99
-6255.08
-6258.17
-6261.25
-6264.36
-6267.46
-6270.54
-6273.62
-6276.72
-6279.83
-6282.92
-6285.99
-6289.08
-6292.19
-6295.3
-6298.38
-6301.45
-6304.54
-6307.66
-6310.76
-6313.83
-6316.91
-6320
-6323.12
-6326.21
-6329.29
-6332.37
-6335.47
-6338.57
-6341.66
-6344.74
-6347.83
-6350.93
-6354.02
-6357.11
-6360.2
-6363.3
-6366.39
-6369.47
-6372.55
-6375.65
-6378.76
-6381.85
-6384.92
-6388
-6391.11
-6394.22
-6397.3
-6400.37
-6403.45
-6406.56
-6409.67
-6412.75
-6415.82
-6418.9
-6422.01
-6425.11
-6428.19
-6431.27
-6434.36
-6437.46
-6440.55
-6443.63
-6446.72
-6449.82
-6452.9
-6455.98
-6459.07
-6462.17
-6465.27
-6468.35
-6471.42
-6474.51
-6477.62
-6480.72
-6483.79
-6486.86
-6489.95
-6493.06
-6496.16
-6499.24
-6502.31
-6505.39
-6508.5
-6511.59
-6514.67
-6517.75
-6520.84
-6523.93
-6527.02
-6530.11
-6533.2
-6536.29
-6539.37
-6542.45
-6545.54
-6548.64
-6551.73
-6554.81
-6557.88
-6560.97
-6564.08
-6567.17
-6570.25
-6573.31
-6576.4
-6579.5
-6582.61
-6585.68
-6588.75
-6591.84
-6594.93
-6598.03
-6601.11
-6604.19
-6607.28
-6610.36
-6613.45
-6616.54
-6619.63
-6622.72
-6625.8
-6628.87
-6631.96
-6635.05
-6638.15
-6641.23
-6644.3
-6647.38
-6650.48
-6653.58
-6656.66
-6659.73
-6662.8
-6665.9
-6669
-6672.08
-6675.15
-6678.23
-6681.32
-6684.41
-6687.5
-6690.58
-6693.66
-6696.75
-6699.83
-6702.91
-6706
-6709.09
-6712.17
-6715.25
-6718.33
-6721.42
-6724.51
-6727.6
-6730.67
-6733.74
-6736.83
-6739.93
-6743.02
-6746.09
-6749.16
-6752.25
-6755.34
-6758.43
-6761.51
-6764.59
-6767.67
-6770.75
-6773.84
-6776.92
-6780.01
-6783.09
-6786.17
-6789.25
-6792.33
-6795.42
-6798.51
-6801.58
-6804.66
-6807.73
-6810.83
-6813.92
-6817
-6820.07
-6823.14
-6826.23
-6829.32
-6832.41
-6835.48
-6838.56
-6841.64
-6844.73
-6847.81
-6850.89
-6853.97
-6857.05
-6860.13
-6863.21
-6866.29
-6869.38
-6872.46
-6875.54
-6878.61
-6881.69
-6884.78
-6887.87
-6890.95
-6894.02
-6897.09
-6900.18
-6903.27
-6906.35
-6909.43
-6912.5
-6915.58
-6918.67
-6921.75
-6924.83
-6927.9
-6930.98
-6934.07
-6937.15
-6940.23
-6943.31
-6946.39
-6949.47
-6952.54
-6955.62
-6958.7
-6961.79
-6964.87
-6967.94
-6971.01
-6974.1
-6977.18
-6980.26
-6983.34
-6986.41
-6989.49
-6992.57
-6995.66
-6998.73
-7001.81
-7004.88
-7007.97
-7011.05
-7014.12
-7017.2
-7020.28
-7023.36
-7026.44
-7029.51
-7032.59
-7035.67
-7038.75
-7041.83
-7044.9
-7047.98
-7051.06
-7054.14
-7057.22
-7060.29
-7063.37
-7066.45
-7069.53
-7072.61
-7075.68
-7078.76
-7081.84
-7084.91
-7087.99
-7091.07
-7094.14
-7097.22
-7100.3
-7103.37
-7106.45
-7109.53
-7112.61
-7115.69
-7118.76
-7121.83
-7124.91
-7127.99
-7131.07
-7134.14
-7137.22
-7140.29
-7143.37
-7146.45
-7149.52
-7152.6
-7155.67
-7158.75
-7161.83
-7164.9
-7167.98
-7171.06
-7174.13
-7177.21
-7180.28
-7183.35
-7186.43
-7189.51
-7192.59
-7195.66
-7198.73
-7201.8
-7204.88
-7207.96
-7211.04
-7214.11
-7217.18
-7220.26
-7223.33
-7226.41
-7229.48
-7232.56
-7235.64
-7238.71
-7241.78
-7244.85
-7247.93
-7251.01
-7254.08
-7257.15
-7260.22
-7263.3
-7266.38
-7269.46
-7272.53
-7275.6
-7278.67
-7281.75
-7284.82
-7287.9
-7290.97
-7294.04
-7297.11
-7300.19
-7303.26
-7306.34
-7309.41
-7312.49
-7315.56
-7318.62
-7321.7
-7324.78
-7327.86
-7330.93
-7333.99
-7337.06
-7340.14
-7343.22
-7346.29
-7349.36
-7352.43
-7355.5
-7358.57
-7361.65
-7364.73
-7367.8
-7370.87
-7373.94
-7377.01
-7380.08
-7383.16
-7386.24
-7389.31
-7392.38
-7395.44
-7398.51
-7401.59
-7404.67
-7407.74
-7410.81
-7413.87
-7416.95
-7420.02
-7423.1
-7426.17
-7429.24
-7432.31
-7435.38
-7438.45
-7441.53
-7444.6
-7447.67
-7450.74
-7453.81
-7456.88
-7459.95
-7463.03
-7466.11
-7469.17
-7472.24
-7475.3
-7478.38
-7481.45
-7484.53
-7487.6
-7490.66
-7493.73
-7496.8
-7499.88
-7502.95
-7506.02
-7509.09
-7512.16
-7515.23
-7518.3
-7521.37
-7524.44
-7527.52
-7530.58
-7533.65
-7536.71
-7539.79
-7542.86
-7545.94
-7549
-7552.07
-7555.13
-7558.21
-7561.28
-7564.35
-7567.42
-7570.49
-7573.55
-7576.62
-7579.69
-7582.77
-7585.84
-7588.9
-7591.97
-7595.03
-7598.1
-7601.18
-7604.25
-7607.32
-7610.38
-7613.45
-7616.51
-7619.58
-7622.66
-7625.73
-7628.79
-7631.85
-7634.92
-7637.99
-7641.06
-7644.13
-7647.2
-7650.26
-7653.33
-7656.4
-7659.46
-7662.54
-7665.6
-7668.67
-7671.73
-7674.8
-7677.86
-7680.93
-7684.01
-7687.07
-7690.14
-7693.2
-7696.26
-7699.33
-7702.41
-7705.47
-7708.54
-7711.6
-7714.67
-7717.73
-7720.8
-7723.87
-7726.94
-7730
-7733.07
-7736.13
-7739.2
-7742.27
-7745.34
-7748.41
-7751.47
-7754.53
-7757.6
-7760.67
-7763.74
-7766.81
-7769.87
-7772.94
-7776
-7779.07
-7782.14
-7785.21
-7788.28
-7791.34
-7794.41
-7797.47
-7800.54
-7803.61
-7806.68
-7809.75
-7812.81
-7815.88
-7818.94
-7822.01
-7825.08
-7828.16
-7831.22
-7834.29
-7837.35
-7840.42
-7843.49
-7846.56
-7849.63
-7852.7
-7855.76
-7858.83
-7861.9
-7864.97
-7868.04
-7871.11
-7874.18
-7877.24
-7880.31
-7883.38
-7886.45
-7889.52
-7892.59
-7895.66
-7898.72
-7901.79
-7904.86
-7907.93
-7911
-7914.07
-7917.13
-7920.2
-7923.27
-7926.34
-7929.41
-7932.48
-7935.54
-7938.61
-7941.68
-7944.75
-7947.82
-7950.89
-7953.96
-7957.02
-7960.09
-7963.16
-7966.23
-7969.3
-7972.36
-7975.43
-7978.5
-7981.56
-7984.63
-7987.7
-7990.77
-7993.84
-7996.9
-7999.97
-8003.03
-8006.1
-8009.17
-8012.24
-8015.31
-8018.37
-8021.44
-8024.5
-8027.57
-8030.64
-8033.71
-8036.78
-8039.84
-8042.9
-8045.97
-8049.04
-8052.1
-8055.17
-8058.24
-8061.3
-8064.37
-8067.43
-8070.5
-8073.57
-8076.64
-8079.7
-8082.76
-8085.83
-8088.89
-8091.96
-8095.03
-8098.09
-8101.16
-8104.22
-8107.29
-8110.35
-8113.42
-8116.48
-8119.55
-8122.62
-8125.68
-8128.75
-8131.81
-8134.87
-8137.94
-8141.01
-8144.08
-8147.14
-8150.2
-8153.27
-8156.33
-8159.4
-8162.47
-8165.53
-8168.6
-8171.66
-8174.73
-8177.79
-8180.86
-8183.93
-8186.99
-8190.06
-8193.12
-8196.18
-8199.25
-8202.32
-8205.38
-8208.45
-8211.52
-8214.58
-8217.65
-8220.71
-8223.78
-8226.84
-8229.91
-8232.98
-8236.04
-8239.11
-8242.17
-8245.24
-8248.31
-8251.37
-8254.44
-8257.5
-8260.57
-8263.63
-8266.7
-8269.77
-8272.84
-8275.9
-8278.97
-8282.03
-8285.1
-8288.17
-8291.23
-8294.3
-8297.37
-8300.43
-8303.5
-8306.56
-8309.63
-8312.7
-8315.77
-8318.83
-8321.9
-8324.97
-8328.03
-8331.1
-8334.17
-8337.23
-8340.3
-8343.37
-8346.43
-8349.5
-8352.57
-8355.64
-8358.7
-8361.77
-8364.84
-8367.91
-8370.97
-8374.04
-8377.11
-8380.17
-8383.24
-8386.31
-8389.38
-8392.45
-8395.51
-8398.58
-8401.65
-8404.72
-8407.78
-8410.85
-8413.92
-8416.99
-8420.06
-8423.13
-8426.19
-8429.26
-8432.33
-8435.4
-8438.47
-8441.54
-8444.61
-8447.67
-8450.74
-8453.81
-8456.88
-8459.95
-8463.02
-8466.09
-8469.16
-8472.22
-8475.29
-8478.36
-8481.43
-8484.5
-8487.57
-8490.64
-8493.71
-8496.78
-8499.85
-8502.92
-8505.99
-8509.06
-8512.13
-8515.2
-8518.26
-8521.33
-8524.41
-8527.48
-8530.55
-8533.62
-8536.69
-8539.76
-8542.83
-8545.9
-8548.97
-8552.04
-8555.12
-8558.19
-8561.26
-8564.32
-8567.39
-8570.46
-8573.54
-8576.61
-8579.69
-8582.76
-8585.83
-8588.89
-8591.96
-8595.04
-8598.11
-8601.19
-8604.26
-8607.33
-8610.4
-8613.47
-8616.54
-8619.62
-8622.69
-8625.77
-8628.84
-8631.91
-8634.98
-8638.05
-8641.13
-8644.2
-8647.28
-8650.36
-8653.43
-8656.5
-8659.57
-8662.64
-8665.72
-8668.8
-8671.87
-8674.95
-8678.02
-8681.09
-8684.16
-8687.24
-8690.32
-8693.39
-8696.47
-8699.54
-8702.62
-8705.69
-8708.76
-8711.84
-8714.92
-8718
-8721.08
-8724.15
-8727.22
-8730.3
-8733.37
-8736.45
-8739.54
-8742.61
-8745.69
-8748.76
-8751.84
-8754.91
-8757.99
-8761.07
-8764.16
-8767.24
-8770.31
-8773.39
-8776.46
-8779.54
-8782.62
-8785.7
-8788.79
-8791.87
-8794.94
-8798.02
-8801.09
-8804.17
-8807.26
-8810.34
-8813.42
-8816.5
-8819.58
-8822.66
-8825.74
-8828.82
-8831.9
-8834.99
-8838.07
-8841.15
-8844.23
-8847.31
-8850.39
-8853.47
-8856.56
-8859.65
-8862.73
-8865.81
-8868.89
-8871.97
-8875.06
-8878.14
-8881.23
-8884.32
-8887.4
-8890.48
-8893.56
-8896.65
-8899.73
-8902.82
-8905.91
-8909
-8912.08
-8915.17
-8918.25
-8921.33
-8924.42
-8927.51
-8930.6
-8933.69
-8936.78
-8939.86
-8942.95
-8946.03
-8949.12
-8952.21
-8955.31
-8958.4
-8961.48
-8964.57
-8967.66
-8970.75
-8973.84
-8976.93
-8980.02
-8983.12
-8986.21
-8989.3
-8992.38
-8995.47
-8998.57
-9001.66
-9004.76
-9007.85
-9010.94
-9014.03
-9017.13
-9020.22
-9023.31
-9026.41
-9029.51
-9032.6
-9035.7
-9038.79
-9041.88
-9044.98
-9048.08
-9051.17
-9054.27
-9057.37
-9060.47
-9063.56
-9066.66
-9069.76
-9072.86
-9075.96
-9079.06
-9082.16
-9085.26
-9088.35
-9091.45
-9094.55
-9097.65
-9100.76
-9103.86
-9106.96
-9110.06
-9113.16
-9116.27
-9119.37
-9122.47
-9125.58
-9128.68
-9131.79
-9134.89
-9138
-9141.1
-9144.2
-9147.31
-9150.42
-9153.52
-9156.63
-9159.74
-9162.85
-9165.95
-9169.06
-9172.17
-9175.28
-9178.39
-9181.5
-9184.61
-9187.72
-9190.83
-9193.94
-9197.05
-9200.17
-9203.28
-9206.39
-9209.51
-9212.62
-9215.73
-9218.85
-9221.96
-9225.08
-9228.19
-9231.31
-9234.42
-9237.54
-9240.66
-9243.78
-9246.89
-9250.01
-9253.13
-9256.25
-9259.37
-9262.49
-9265.61
-9268.73
-9271.85
-9274.98
-9278.1
-9281.22
-9284.34
-9287.47
-9290.59
-9293.72
-9296.84
-9299.97
-9303.09
-9306.22
-9309.35
-9312.48
-9315.6
-9318.73
-9321.86
-9324.99
-9328.12
-9331.25
-9334.38
-9337.51
-9340.65
-9343.78
-9346.91
-9350.05
-9353.18
-9356.32
-9359.45
-9362.59
-9365.72
-9368.86
-9372
-9375.14
-9378.27
-9381.41
-9384.55
-9387.69
-9390.83
-9393.98
-9397.12
-9400.26
-9403.4
-9406.55
-9409.69
-9412.84
-9415.98
-9419.13
-9422.28
-9425.43
-9428.57
-9431.72
-9434.87
-9438.02
-9441.17
-9444.32
-9447.47
-9450.63
-9453.78
-9456.94
-9460.09
-9463.24
-9466.4
-9469.55
-9472.71
-9475.87
-9479.03
-9482.19
-9485.35
-9488.51
-9491.67
-9494.83
-9498
-9501.16
-9504.33
-9507.5
-9510.66
-9513.83
-9516.99
-9520.16
-9523.33
-9526.5
-9529.67
-9532.84
-9536.02
-9539.19
-9542.36
-9545.53
-9548.71
-9551.88
-9555.06
-9558.24
-9561.42
-9564.6
-9567.78
-9570.96
-9574.14
-9577.32
-9580.51
-9583.7
-9586.88
-9590.07
-9593.26
-9596.45
-9599.63
-9602.82
-9606.01
-9609.2
-9612.4
-9615.6
-9618.79
-9621.99
-9625.18
-9628.38
-9631.57
-9634.77
-9637.98
-9641.18
-9644.39
-9647.59
-9650.79
-9654
-9657.2
-9660.41
-9663.62
-9666.83
-9670.04
-9673.26
-9676.47
-9679.68
-9682.9
-9686.11
-9689.32
-9692.54
-9695.77
-9698.99
-9702.22
-9705.44
-9708.66
-9711.88
-9715.11
-9718.33
-9721.56
-9724.8
-9728.03
-9731.27
-9734.5
-9737.73
-9740.97
-9744.2
-9747.44
-9750.68
-9753.92
-9757.17
-9760.42
-9763.66
-9766.9
-9770.15
-9773.39
-9776.64
-9779.9
-9783.15
-9786.41
-9789.67
-9792.93
-9796.18
-9799.44
-9802.7
-9805.96
-9809.23
-9812.5
-9815.77
-9819.04
-9822.31
-9825.58
-9828.85
-9832.12
-9835.4
-9838.67
-9841.96
-9845.24
-9848.52
-9851.81
-9855.09
-9858.38
-9861.66
-9864.95
-9868.25
-9871.54
-9874.84
-9878.14
-9881.44
-9884.74
-9888.04
-9891.34
-9894.64
-9897.95
-9901.26
-9904.58
-9907.89
-9911.21
-9914.52
-9917.84
-9921.16
-9924.48
-9927.8
-9931.13
-9934.46
-9937.79
-9941.12
-9944.45
-9947.79
-9951.12
-9954.46
-9957.8
-9961.15
-9964.49
-9967.84
-9971.19
-9974.54
-9977.9
-9981.25
-9984.61
-9987.97
-9991.33
-9994.7
-9998.07
-10001.4
-10004.8
-10008.2
-10011.5
-10014.9
-10018.3
-10021.7
-10025.1
-10028.5
-10031.9
-10035.2
-10038.6
-10042
-10045.4
-10048.8
-10052.2
-10055.6
-10059.1
-10062.5
-10065.9
-10069.3
-10072.7
-10076.1
-10079.6
-10083
-10086.4
-10089.8
-10093.3
-10096.7
-10100.2
-10103.6
-10107
-10110.5
-10113.9
-10117.4
-10120.9
-10124.3
-10127.8
-10131.3
-10134.7
-10138.2
-10141.7
-10145.1
-10148.6
-10152.1
-10155.6
-10159.1
-10162.6
-10166.1
-10169.6
-10173.1
-10176.6
-10180.1
-10183.6
-10187.1
-10190.6
-10194.2
-10197.7
-10201.2
-10204.7
-10208.3
-10211.8
-10215.4
-10218.9
-10222.5
-10226
-10229.6
-10233.1
-10236.7
-10240.3
-10243.8
-10247.4
-10251
-10254.6
-10258.2
-10261.8
-10265.4
-10269
-10272.6
-10276.2
-10279.8
-10283.4
-10287
-10290.6
-10294.3
-10297.9
-10301.5
-10305.2
-10308.8
-10312.5
-10316.1
-10319.8
-10323.4
-10327.1
-10330.8
-10334.5
-10338.1
-10341.8
-10345.5
-10349.2
-10352.9
-10356.6
-10360.3
-10364
-10367.8
-10371.5
-10375.2
-10379
-10382.7
-10386.4
-10390.2
-10393.9
-10397.7
-10401.5