/*--------------------------------*- C++ -*----------------------------------*\
  =========                 |
  \\      /  F ield         | OpenFOAM: The Open Source CFD Toolbox
   \\    /   O peration     | Website:  https://openfoam.org
    \\  /    A nd           | Version:  9
     \\/     M anipulation  |
\*---------------------------------------------------------------------------*/
FoamFile
{
    format      ascii;
    class       volScalarField;
    location    "0.033";
    object      p;
}
// * * * * * * * * * * * * * * * * * * * * * * * * * * * * * * * * * * * * * //

dimensions      [1 -1 -2 0 0 0 0];

internalField   nonuniform List<scalar> 
10000
(
15976.7
15976.6
15976.4
15976.3
15976.2
15976
15975.9
15975.8
15975.7
15975.6
15975.4
15975.3
15975.2
15975.1
15974.9
15974.8
15974.7
15974.6
15974.4
15974.3
15974.2
15974.1
15973.9
15973.8
15973.7
15973.6
15973.4
15973.3
15973.2
15973.1
15972.9
15972.8
15972.7
15972.6
15972.4
15972.3
15972.2
15972.1
15971.9
15971.8
15971.7
15971.6
15971.4
15971.3
15971.2
15971.1
15970.9
15970.8
15970.7
15970.6
15970.4
15970.3
15970.2
15970.1
15969.9
15969.8
15969.7
15969.6
15969.4
15969.3
15969.2
15969.1
15968.9
15968.8
15968.7
15968.6
15968.4
15968.3
15968.2
15968.1
15967.9
15967.8
15967.7
15967.6
15967.4
15967.3
15967.2
15967.1
15966.9
15966.8
15966.7
15966.6
15966.4
15966.3
15966.2
15966.1
15965.9
15965.8
15965.7
15965.5
15965.4
15965.3
15965.2
15965
15964.9
15964.8
15964.7
15964.5
15964.4
15964.3
15964.2
15964
15963.9
15963.8
15963.7
15963.5
15963.4
15963.3
15963.2
15963
15962.9
15962.8
15962.6
15962.5
15962.4
15962.3
15962.1
15962
15961.9
15961.8
15961.6
15961.5
15961.4
15961.2
15961.1
15961
15960.9
15960.7
15960.6
15960.5
15960.4
15960.2
15960.1
15960
15959.9
15959.7
15959.6
15959.5
15959.3
15959.2
15959.1
15959
15958.8
15958.7
15958.6
15958.5
15958.3
15958.2
15958.1
15957.9
15957.8
15957.7
15957.6
15957.4
15957.3
15957.2
15957
15956.9
15956.8
15956.7
15956.5
15956.4
15956.3
15956.2
15956
15955.9
15955.8
15955.6
15955.5
15955.4
15955.3
15955.1
15955
15954.9
15954.7
15954.6
15954.5
15954.4
15954.2
15954.1
15954
15953.8
15953.7
15953.6
15953.5
15953.3
15953.2
15953.1
15952.9
15952.8
15952.7
15952.6
15952.4
15952.3
15952.2
15952
15951.9
15951.8
15951.7
15951.5
15951.4
15951.3
15951.1
15951
15950.9
15950.8
15950.6
15950.5
15950.4
15950.2
15950.1
15950
15949.9
15949.7
15949.6
15949.5
15949.3
15949.2
15949.1
15948.9
15948.8
15948.7
15948.6
15948.4
15948.3
15948.2
15948
15947.9
15947.8
15947.7
15947.5
15947.4
15947.3
15947.1
15947
15946.9
15946.7
15946.6
15946.5
15946.4
15946.2
15946.1
15946
15945.8
15945.7
15945.6
15945.4
15945.3
15945.2
15945.1
15944.9
15944.8
15944.7
15944.5
15944.4
15944.3
15944.1
15944
15943.9
15943.7
15943.6
15943.5
15943.4
15943.2
15943.1
15943
15942.8
15942.7
15942.6
15942.4
15942.3
15942.2
15942
15941.9
15941.8
15941.7
15941.5
15941.4
15941.3
15941.1
15941
15940.9
15940.7
15940.6
15940.5
15940.3
15940.2
15940.1
15940
15939.8
15939.7
15939.6
15939.4
15939.3
15939.2
15939
15938.9
15938.8
15938.6
15938.5
15938.4
15938.2
15938.1
15938
15937.8
15937.7
15937.6
15937.5
15937.3
15937.2
15937.1
15936.9
15936.8
15936.7
15936.5
15936.4
15936.3
15936.1
15936
15935.9
15935.7
15935.6
15935.5
15935.3
15935.2
15935.1
15934.9
15934.8
15934.7
15934.5
15934.4
15934.3
15934.1
15934
15933.9
15933.8
15933.6
15933.5
15933.4
15933.2
15933.1
15933
15932.8
15932.7
15932.6
15932.4
15932.3
15932.2
15932
15931.9
15931.8
15931.6
15931.5
15931.4
15931.2
15931.1
15931
15930.8
15930.7
15930.6
15930.4
15930.3
15930.2
15930
15929.9
15929.8
15929.6
15929.5
15929.4
15929.2
15929.1
15929
15928.8
15928.7
15928.6
15928.4
15928.3
15928.2
15928
15927.9
15927.8
15927.6
15927.5
15927.4
15927.2
15927.1
15927
15926.8
15926.7
15926.6
15926.4
15926.3
15926.2
15926
15925.9
15925.8
15925.6
15925.5
15925.3
15925.2
15925.1
15924.9
15924.8
15924.7
15924.5
15924.4
15924.3
15924.1
15924
15923.9
15923.7
15923.6
15923.5
15923.3
15923.2
15923.1
15922.9
15922.8
15922.7
15922.5
15922.4
15922.3
15922.1
15922
15921.8
15921.7
15921.6
15921.4
15921.3
15921.2
15921
15920.9
15920.8
15920.6
15920.5
15920.4
15920.2
15920.1
15920
15919.8
15919.7
15919.5
15919.4
15919.3
15919.1
15919
15918.9
15918.7
15918.6
15918.5
15918.3
15918.2
15918.1
15917.9
15917.8
15917.7
15917.5
15917.4
15917.2
15917.1
15917
15916.8
15916.7
15916.6
15916.4
15916.3
15916.2
15916
15915.9
15915.7
15915.6
15915.5
15915.3
15915.2
15915.1
15914.9
15914.8
15914.7
15914.5
15914.4
15914.2
15914.1
15914
15913.8
15913.7
15913.6
15913.4
15913.3
15913.2
15913
15912.9
15912.7
15912.6
15912.5
15912.3
15912.2
15912.1
15911.9
15911.8
15911.6
15911.5
15911.4
15911.2
15911.1
15911
15910.8
15910.7
15910.6
15910.4
15910.3
15910.1
15910
15909.9
15909.7
15909.6
15909.5
15909.3
15909.2
15909
15908.9
15908.8
15908.6
15908.5
15908.4
15908.2
15908.1
15907.9
15907.8
15907.7
15907.5
15907.4
15907.3
15907.1
15907
15906.8
15906.7
15906.6
15906.4
15906.3
15906.1
15906
15905.9
15905.7
15905.6
15905.5
15905.3
15905.2
15905
15904.9
15904.8
15904.6
15904.5
15904.3
15904.2
15904.1
15903.9
15903.8
15903.7
15903.5
15903.4
15903.2
15903.1
15903
15902.8
15902.7
15902.5
15902.4
15902.3
15902.1
15902
15901.9
15901.7
15901.6
15901.4
15901.3
15901.2
15901
15900.9
15900.7
15900.6
15900.5
15900.3
15900.2
15900
15899.9
15899.8
15899.6
15899.5
15899.3
15899.2
15899.1
15898.9
15898.8
15898.6
15898.5
15898.4
15898.2
15898.1
15897.9
15897.8
15897.7
15897.5
15897.4
15897.3
15897.1
15897
15896.8
15896.7
15896.6
15896.4
15896.3
15896.1
15896
15895.8
15895.7
15895.6
15895.4
15895.3
15895.1
15895
15894.9
15894.7
15894.6
15894.4
15894.3
15894.2
15894
15893.9
15893.7
15893.6
15893.5
15893.3
15893.2
15893
15892.9
15892.8
15892.6
15892.5
15892.3
15892.2
15892.1
15891.9
15891.8
15891.6
15891.5
15891.4
15891.2
15891.1
15890.9
15890.8
15890.6
15890.5
15890.4
15890.2
15890.1
15889.9
15889.8
15889.7
15889.5
15889.4
15889.2
15889.1
15888.9
15888.8
15888.7
15888.5
15888.4
15888.2
15888.1
15888
15887.8
15887.7
15887.5
15887.4
15887.2
15887.1
15887
15886.8
15886.7
15886.5
15886.4
15886.3
15886.1
15886
15885.8
15885.7
15885.5
15885.4
15885.3
15885.1
15885
15884.8
15884.7
15884.5
15884.4
15884.3
15884.1
15884
15883.8
15883.7
15883.6
15883.4
15883.3
15883.1
15883
15882.8
15882.7
15882.6
15882.4
15882.3
15882.1
15882
15881.8
15881.7
15881.6
15881.4
15881.3
15881.1
15881
15880.8
15880.7
15880.6
15880.4
15880.3
15880.1
15880
15879.8
15879.7
15879.5
15879.4
15879.3
15879.1
15879
15878.8
15878.7
15878.5
15878.4
15878.3
15878.1
15878
15877.8
15877.7
15877.5
15877.4
15877.3
15877.1
15877
15876.8
15876.7
15876.5
15876.4
15876.2
15876.1
15876
15875.8
15875.7
15875.5
15875.4
15875.2
15875.1
15874.9
15874.8
15874.7
15874.5
15874.4
15874.2
15874.1
15873.9
15873.8
15873.6
15873.5
15873.4
15873.2
15873.1
15872.9
15872.8
15872.6
15872.5
15872.3
15872.2
15872.1
15871.9
15871.8
15871.6
15871.5
15871.3
15871.2
15871
15870.9
15870.8
15870.6
15870.5
15870.3
15870.2
15870
15869.9
15869.7
15869.6
15869.4
15869.3
15869.2
15869
15868.9
15868.7
15868.6
15868.4
15868.3
15868.1
15868
15867.8
15867.7
15867.6
15867.4
15867.3
15867.1
15867
15866.8
15866.7
15866.5
15866.4
15866.2
15866.1
15865.9
15865.8
15865.7
15865.5
15865.4
15865.2
15865.1
15864.9
15864.8
15864.6
15864.5
15864.3
15864.2
15864
15863.9
15863.8
15863.6
15863.5
15863.3
15863.2
15863
15862.9
15862.7
15862.6
15862.4
15862.3
15862.1
15862
15861.9
15861.7
15861.6
15861.4
15861.3
15861.1
15861
15860.8
15860.7
15860.5
15860.4
15860.2
15860.1
15859.9
15859.8
15859.6
15859.5
15859.4
15859.2
15859.1
15858.9
15858.8
15858.6
15858.5
15858.3
15858.2
15858
15857.9
15857.7
15857.6
15857.4
15857.3
15857.1
15857
15856.8
15856.7
15856.5
15856.4
15856.3
15856.1
15856
15855.8
15855.7
15855.5
15855.4
15855.2
15855.1
15854.9
15854.8
15854.6
15854.5
15854.3
15854.2
15854
15853.9
15853.7
15853.6
15853.4
15853.3
15853.1
15853
15852.8
15852.7
15852.5
15852.4
15852.3
15852.1
15852
15851.8
15851.7
15851.5
15851.4
15851.2
15851.1
15850.9
15850.8
15850.6
15850.5
15850.3
15850.2
15850
15849.9
15849.7
15849.6
15849.4
15849.3
15849.1
15849
15848.8
15848.7
15848.5
15848.4
15848.2
15848.1
15847.9
15847.8
15847.6
15847.5
15847.3
15847.2
15847
15846.9
15846.7
15846.6
15846.4
15846.3
15846.1
15846
15845.8
15845.7
15845.5
15845.4
15845.2
15845.1
15844.9
15844.8
15844.6
15844.5
15844.3
15844.2
15844
15843.9
15843.7
15843.6
15843.4
15843.3
15843.1
15843
15842.8
15842.7
15842.5
15842.4
15842.2
15842.1
15841.9
15841.8
15841.6
15841.5
15841.3
15841.2
15841
15840.9
15840.7
15840.6
15840.4
15840.3
15840.1
15840
15839.8
15839.7
15839.5
15839.4
15839.2
15839.1
15838.9
15838.8
15838.6
15838.5
15838.3
15838.2
15838
15837.9
15837.7
15837.6
15837.4
15837.2
15837.1
15836.9
15836.8
15836.6
15836.5
15836.3
15836.2
15836
15835.9
15835.7
15835.6
15835.4
15835.3
15835.1
15835
15834.8
15834.7
15834.5
15834.4
15834.2
15834.1
15833.9
15833.8
15833.6
15833.5
15833.3
15833.2
15833
15832.8
15832.7
15832.5
15832.4
15832.2
15832.1
15831.9
15831.8
15831.6
15831.5
15831.3
15831.2
15831
15830.9
15830.7
15830.6
15830.4
15830.3
15830.1
15829.9
15829.8
15829.6
15829.5
15829.3
15829.2
15829
15828.9
15828.7
15828.6
15828.4
15828.3
15828.1
15828
15827.8
15827.7
15827.5
15827.3
15827.2
15827
15826.9
15826.7
15826.6
15826.4
15826.3
15826.1
15826
15825.8
15825.7
15825.5
15825.4
15825.2
15825
15824.9
15824.7
15824.6
15824.4
15824.3
15824.1
15824
15823.8
15823.7
15823.5
15823.4
15823.2
15823
15822.9
15822.7
15822.6
15822.4
15822.3
15822.1
15822
15821.8
15821.7
15821.5
15821.3
15821.2
15821
15820.9
15820.7
15820.6
15820.4
15820.3
15820.1
15820
15819.8
15819.6
15819.5
15819.3
15819.2
15819
15818.9
15818.7
15818.6
15818.4
15818.3
15818.1
15817.9
15817.8
15817.6
15817.5
15817.3
15817.2
15817
15816.9
15816.7
15816.6
15816.4
15816.2
15816.1
15815.9
15815.8
15815.6
15815.5
15815.3
15815.2
15815
15814.8
15814.7
15814.5
15814.4
15814.2
15814.1
15813.9
15813.8
15813.6
15813.4
15813.3
15813.1
15813
15812.8
15812.7
15812.5
15812.3
15812.2
15812
15811.9
15811.7
15811.6
15811.4
15811.3
15811.1
15810.9
15810.8
15810.6
15810.5
15810.3
15810.2
15810
15809.8
15809.7
15809.5
15809.4
15809.2
15809.1
15808.9
15808.8
15808.6
15808.4
15808.3
15808.1
15808
15807.8
15807.7
15807.5
15807.3
15807.2
15807
15806.9
15806.7
15806.6
15806.4
15806.2
15806.1
15805.9
15805.8
15805.6
15805.5
15805.3
15805.1
15805
15804.8
15804.7
15804.5
15804.4
15804.2
15804
15803.9
15803.7
15803.6
15803.4
15803.3
15803.1
15802.9
15802.8
15802.6
15802.5
15802.3
15802.1
15802
15801.8
15801.7
15801.5
15801.4
15801.2
15801
15800.9
15800.7
15800.6
15800.4
15800.3
15800.1
15799.9
15799.8
15799.6
15799.5
15799.3
15799.1
15799
15798.8
15798.7
15798.5
15798.4
15798.2
15798
15797.9
15797.7
15797.6
15797.4
15797.2
15797.1
15796.9
15796.8
15796.6
15796.4
15796.3
15796.1
15796
15795.8
15795.7
15795.5
15795.3
15795.2
15795
15794.9
15794.7
15794.5
15794.4
15794.2
15794.1
15793.9
15793.7
15793.6
15793.4
15793.3
15793.1
15792.9
15792.8
15792.6
15792.5
15792.3
15792.1
15792
15791.8
15791.7
15791.5
15791.4
15791.2
15791
15790.9
15790.7
15790.6
15790.4
15790.2
15790.1
15789.9
15789.8
15789.6
15789.4
15789.3
15789.1
15789
15788.8
15788.6
15788.5
15788.3
15788.1
15788
15787.8
15787.7
15787.5
15787.3
15787.2
15787
15786.9
15786.7
15786.5
15786.4
15786.2
15786.1
15785.9
15785.7
15785.6
15785.4
15785.3
15785.1
15784.9
15784.8
15784.6
15784.5
15784.3
15784.1
15784
15783.8
15783.6
15783.5
15783.3
15783.2
15783
15782.8
15782.7
15782.5
15782.4
15782.2
15782
15781.9
15781.7
15781.6
15781.4
15781.2
15781.1
15780.9
15780.7
15780.6
15780.4
15780.3
15780.1
15779.9
15779.8
15779.6
15779.5
15779.3
15779.1
15779
15778.8
15778.6
15778.5
15778.3
15778.2
15778
15777.8
15777.7
15777.5
15777.3
15777.2
15777
15776.9
15776.7
15776.5
15776.4
15776.2
15776
15775.9
15775.7
15775.6
15775.4
15775.2
15775.1
15774.9
15774.7
15774.6
15774.4
15774.3
15774.1
15773.9
15773.8
15773.6
15773.4
15773.3
15773.1
15773
15772.8
15772.6
15772.5
15772.3
15772.1
15772
15771.8
15771.6
15771.5
15771.3
15771.2
15771
15770.8
15770.7
15770.5
15770.3
15770.2
15770
15769.9
15769.7
15769.5
15769.4
15769.2
15769
15768.9
15768.7
15768.5
15768.4
15768.2
15768.1
15767.9
15767.7
15767.6
15767.4
15767.2
15767.1
15766.9
15766.7
15766.6
15766.4
15766.2
15766.1
15765.9
15765.8
15765.6
15765.4
15765.3
15765.1
15764.9
15764.8
15764.6
15764.4
15764.3
15764.1
15763.9
15763.8
15763.6
15763.5
15763.3
15763.1
15763
15762.8
15762.6
15762.5
15762.3
15762.1
15762
15761.8
15761.6
15761.5
15761.3
15761.1
15761
15760.8
15760.7
15760.5
15760.3
15760.2
15760
15759.8
15759.7
15759.5
15759.3
15759.2
15759
15758.8
15758.7
15758.5
15758.3
15758.2
15758
15757.8
15757.7
15757.5
15757.3
15757.2
15757
15756.8
15756.7
15756.5
15756.4
15756.2
15756
15755.9
15755.7
15755.5
15755.4
15755.2
15755
15754.9
15754.7
15754.5
15754.4
15754.2
15754
15753.9
15753.7
15753.5
15753.4
15753.2
15753
15752.9
15752.7
15752.5
15752.4
15752.2
15752
15751.9
15751.7
15751.5
15751.4
15751.2
15751
15750.9
15750.7
15750.5
15750.4
15750.2
15750
15749.9
15749.7
15749.5
15749.4
15749.2
15749
15748.9
15748.7
15748.5
15748.4
15748.2
15748
15747.9
15747.7
15747.5
15747.4
15747.2
15747
15746.9
15746.7
15746.5
15746.4
15746.2
15746
15745.9
15745.7
15745.5
15745.3
15745.2
15745
15744.8
15744.7
15744.5
15744.3
15744.2
15744
15743.8
15743.7
15743.5
15743.3
15743.2
15743
15742.8
15742.7
15742.5
15742.3
15742.2
15742
15741.8
15741.7
15741.5
15741.3
15741.1
15741
15740.8
15740.6
15740.5
15740.3
15740.1
15740
15739.8
15739.6
15739.5
15739.3
15739.1
15739
15738.8
15738.6
15738.5
15738.3
15738.1
15737.9
15737.8
15737.6
15737.4
15737.3
15737.1
15736.9
15736.8
15736.6
15736.4
15736.3
15736.1
15735.9
15735.7
15735.6
15735.4
15735.2
15735.1
15734.9
15734.7
15734.6
15734.4
15734.2
15734.1
15733.9
15733.7
15733.5
15733.4
15733.2
15733
15732.9
15732.7
15732.5
15732.4
15732.2
15732
15731.8
15731.7
15731.5
15731.3
15731.2
15731
15730.8
15730.7
15730.5
15730.3
15730.1
15730
15729.8
15729.6
15729.5
15729.3
15729.1
15729
15728.8
15728.6
15728.4
15728.3
15728.1
15727.9
15727.8
15727.6
15727.4
15727.3
15727.1
15726.9
15726.7
15726.6
15726.4
15726.2
15726.1
15725.9
15725.7
15725.5
15725.4
15725.2
15725
15724.9
15724.7
15724.5
15724.4
15724.2
15724
15723.8
15723.7
15723.5
15723.3
15723.2
15723
15722.8
15722.6
15722.5
15722.3
15722.1
15722
15721.8
15721.6
15721.4
15721.3
15721.1
15720.9
15720.8
15720.6
15720.4
15720.2
15720.1
15719.9
15719.7
15719.6
15719.4
15719.2
15719
15718.9
15718.7
15718.5
15718.3
15718.2
15718
15717.8
15717.7
15717.5
15717.3
15717.1
15717
15716.8
15716.6
15716.5
15716.3
15716.1
15715.9
15715.8
15715.6
15715.4
15715.2
15715.1
15714.9
15714.7
15714.6
15714.4
15714.2
15714
15713.9
15713.7
15713.5
15713.3
15713.2
15713
15712.8
15712.7
15712.5
15712.3
15712.1
15712
15711.8
15711.6
15711.4
15711.3
15711.1
15710.9
15710.8
15710.6
15710.4
15710.2
15710.1
15709.9
15709.7
15709.5
15709.4
15709.2
15709
15708.8
15708.7
15708.5
15708.3
15708.2
15708
15707.8
15707.6
15707.5
15707.3
15707.1
15706.9
15706.8
15706.6
15706.4
15706.2
15706.1
15705.9
15705.7
15705.5
15705.4
15705.2
15705
15704.9
15704.7
15704.5
15704.3
15704.2
15704
15703.8
15703.6
15703.5
15703.3
15703.1
15702.9
15702.8
15702.6
15702.4
15702.2
15702.1
15701.9
15701.7
15701.5
15701.4
15701.2
15701
15700.8
15700.7
15700.5
15700.3
15700.1
15700
15699.8
15699.6
15699.4
15699.3
15699.1
15698.9
15698.7
15698.6
15698.4
15698.2
15698
15697.9
15697.7
15697.5
15697.3
15697.2
15697
15696.8
15696.6
15696.5
15696.3
15696.1
15695.9
15695.8
15695.6
15695.4
15695.2
15695.1
15694.9
15694.7
15694.5
15694.4
15694.2
15694
15693.8
15693.7
15693.5
15693.3
15693.1
15693
15692.8
15692.6
15692.4
15692.3
15692.1
15691.9
15691.7
15691.5
15691.4
15691.2
15691
15690.8
15690.7
15690.5
15690.3
15690.1
15690
15689.8
15689.6
15689.4
15689.3
15689.1
15688.9
15688.7
15688.6
15688.4
15688.2
15688
15687.8
15687.7
15687.5
15687.3
15687.1
15687
15686.8
15686.6
15686.4
15686.3
15686.1
15685.9
15685.7
15685.5
15685.4
15685.2
15685
15684.8
15684.7
15684.5
15684.3
15684.1
15684
15683.8
15683.6
15683.4
15683.2
15683.1
15682.9
15682.7
15682.5
15682.4
15682.2
15682
15681.8
15681.7
15681.5
15681.3
15681.1
15680.9
15680.8
15680.6
15680.4
15680.2
15680.1
15679.9
15679.7
15679.5
15679.3
15679.2
15679
15678.8
15678.6
15678.5
15678.3
15678.1
15677.9
15677.7
15677.6
15677.4
15677.2
15677
15676.9
15676.7
15676.5
15676.3
15676.1
15676
15675.8
15675.6
15675.4
15675.2
15675.1
15674.9
15674.7
15674.5
15674.4
15674.2
15674
15673.8
15673.6
15673.5
15673.3
15673.1
15672.9
15672.7
15672.6
15672.4
15672.2
15672
15671.9
15671.7
15671.5
15671.3
15671.1
15671
15670.8
15670.6
15670.4
15670.2
15670.1
15669.9
15669.7
15669.5
15669.3
15669.2
15669
15668.8
15668.6
15668.5
15668.3
15668.1
15667.9
15667.7
15667.6
15667.4
15667.2
15667
15666.8
15666.7
15666.5
15666.3
15666.1
15665.9
15665.8
15665.6
15665.4
15665.2
15665
15664.9
15664.7
15664.5
15664.3
15664.1
15664
15663.8
15663.6
15663.4
15663.2
15663.1
15662.9
15662.7
15662.5
15662.3
15662.2
15662
15661.8
15661.6
15661.4
15661.3
15661.1
15660.9
15660.7
15660.5
15660.4
15660.2
15660
15659.8
15659.6
15659.5
15659.3
15659.1
15658.9
15658.7
15658.6
15658.4
15658.2
15658
15657.8
15657.7
15657.5
15657.3
15657.1
15656.9
15656.7
15656.6
15656.4
15656.2
15656
15655.8
15655.7
15655.5
15655.3
15655.1
15654.9
15654.8
15654.6
15654.4
15654.2
15654
15653.9
15653.7
15653.5
15653.3
15653.1
15652.9
15652.8
15652.6
15652.4
15652.2
15652
15651.9
15651.7
15651.5
15651.3
15651.1
15651
15650.8
15650.6
15650.4
15650.2
15650
15649.9
15649.7
15649.5
15649.3
15649.1
15649
15648.8
15648.6
15648.4
15648.2
15648
15647.9
15647.7
15647.5
15647.3
15647.1
15647
15646.8
15646.6
15646.4
15646.2
15646
15645.9
15645.7
15645.5
15645.3
15645.1
15644.9
15644.8
15644.6
15644.4
15644.2
15644
15643.9
15643.7
15643.5
15643.3
15643.1
15642.9
15642.8
15642.6
15642.4
15642.2
15642
15641.8
15641.7
15641.5
15641.3
15641.1
15640.9
15640.8
15640.6
15640.4
15640.2
15640
15639.8
15639.7
15639.5
15639.3
15639.1
15638.9
15638.7
15638.6
15638.4
15638.2
15638
15637.8
15637.6
15637.5
15637.3
15637.1
15636.9
15636.7
15636.5
15636.4
15636.2
15636
15635.8
15635.6
15635.4
15635.3
15635.1
15634.9
15634.7
15634.5
15634.3
15634.2
15634
15633.8
15633.6
15633.4
15633.2
15633.1
15632.9
15632.7
15632.5
15632.3
15632.1
15632
15631.8
15631.6
15631.4
15631.2
15631
15630.9
15630.7
15630.5
15630.3
15630.1
15629.9
15629.7
15629.6
15629.4
15629.2
15629
15628.8
15628.6
15628.5
15628.3
15628.1
15627.9
15627.7
15627.5
15627.4
15627.2
15627
15626.8
15626.6
15626.4
15626.2
15626.1
15625.9
15625.7
15625.5
15625.3
15625.1
15625
15624.8
15624.6
15624.4
15624.2
15624
15623.8
15623.7
15623.5
15623.3
15623.1
15622.9
15622.7
15622.6
15622.4
15622.2
15622
15621.8
15621.6
15621.4
15621.3
15621.1
15620.9
15620.7
15620.5
15620.3
15620.2
15620
15619.8
15619.6
15619.4
15619.2
15619
15618.9
15618.7
15618.5
15618.3
15618.1
15617.9
15617.7
15617.6
15617.4
15617.2
15617
15616.8
15616.6
15616.4
15616.3
15616.1
15615.9
15615.7
15615.5
15615.3
15615.2
15615
15614.8
15614.6
15614.4
15614.2
15614
15613.9
15613.7
15613.5
15613.3
15613.1
15612.9
15612.7
15612.6
15612.4
15612.2
15612
15611.8
15611.6
15611.4
15611.3
15611.1
15610.9
15610.7
15610.5
15610.3
15610.1
15610
15609.8
15609.6
15609.4
15609.2
15609
15608.8
15608.7
15608.5
15608.3
15608.1
15607.9
15607.7
15607.5
15607.3
15607.2
15607
15606.8
15606.6
15606.4
15606.2
15606
15605.9
15605.7
15605.5
15605.3
15605.1
15604.9
15604.7
15604.6
15604.4
15604.2
15604
15603.8
15603.6
15603.4
15603.2
15603.1
15602.9
15602.7
15602.5
15602.3
15602.1
15601.9
15601.8
15601.6
15601.4
15601.2
15601
15600.8
15600.6
15600.4
15600.3
15600.1
15599.9
15599.7
15599.5
15599.3
15599.1
15599
15598.8
15598.6
15598.4
15598.2
15598
15597.8
15597.6
15597.5
15597.3
15597.1
15596.9
15596.7
15596.5
15596.3
15596.2
15596
15595.8
15595.6
15595.4
15595.2
15595
15594.8
15594.7
15594.5
15594.3
15594.1
15593.9
15593.7
15593.5
15593.3
15593.2
15593
15592.8
15592.6
15592.4
15592.2
15592
15591.8
15591.7
15591.5
15591.3
15591.1
15590.9
15590.7
15590.5
15590.3
15590.2
15590
15589.8
15589.6
15589.4
15589.2
15589
15588.8
15588.7
15588.5
15588.3
15588.1
15587.9
15587.7
15587.5
15587.3
15587.2
15587
15586.8
15586.6
15586.4
15586.2
15586
15585.8
15585.7
15585.5
15585.3
15585.1
15584.9
15584.7
15584.5
15584.3
15584.2
15584
15583.8
15583.6
15583.4
15583.2
15583
15582.8
15582.7
15582.5
15582.3
15582.1
15581.9
15581.7
15581.5
15581.3
15581.2
15581
15580.8
15580.6
15580.4
15580.2
15580
15579.8
15579.6
15579.5
15579.3
15579.1
15578.9
15578.7
15578.5
15578.3
15578.1
15578
15577.8
15577.6
15577.4
15577.2
15577
15576.8
15576.6
15576.5
15576.3
15576.1
15575.9
15575.7
15575.5
15575.3
15575.1
15574.9
15574.8
15574.6
15574.4
15574.2
15574
15573.8
15573.6
15573.4
15573.3
15573.1
15572.9
15572.7
15572.5
15572.3
15572.1
15571.9
15571.8
15571.6
15571.4
15571.2
15571
15570.8
15570.6
15570.4
15570.2
15570.1
15569.9
15569.7
15569.5
15569.3
15569.1
15568.9
15568.7
15568.6
15568.4
15568.2
15568
15567.8
15567.6
15567.4
15567.2
15567
15566.9
15566.7
15566.5
15566.3
15566.1
15565.9
15565.7
15565.5
15565.4
15565.2
15565
15564.8
15564.6
15564.4
15564.2
15564
15563.8
15563.7
15563.5
15563.3
15563.1
15562.9
15562.7
15562.5
15562.3
15562.2
15562
15561.8
15561.6
15561.4
15561.2
15561
15560.8
15560.6
15560.5
15560.3
15560.1
15559.9
15559.7
15559.5
15559.3
15559.1
15559
15558.8
15558.6
15558.4
15558.2
15558
15557.8
15557.6
15557.4
15557.3
15557.1
15556.9
15556.7
15556.5
15556.3
15556.1
15555.9
15555.8
15555.6
15555.4
15555.2
15555
15554.8
15554.6
15554.4
15554.2
15554.1
15553.9
15553.7
15553.5
15553.3
15553.1
15552.9
15552.7
15552.6
15552.4
15552.2
15552
15551.8
15551.6
15551.4
15551.2
15551
15550.9
15550.7
15550.5
15550.3
15550.1
15549.9
15549.7
15549.5
15549.4
15549.2
15549
15548.8
15548.6
15548.4
15548.2
15548
15547.9
15547.7
15547.5
15547.3
15547.1
15546.9
15546.7
15546.5
15546.3
15546.2
15546
15545.8
15545.6
15545.4
15545.2
15545
15544.8
15544.7
15544.5
15544.3
15544.1
15543.9
15543.7
15543.5
15543.3
15543.2
15543
15542.8
15542.6
15542.4
15542.2
15542
15541.8
15541.7
15541.5
15541.3
15541.1
15540.9
15540.7
15540.5
15540.3
15540.2
15540
15539.8
15539.6
15539.4
15539.2
15539
15538.8
15538.7
15538.5
15538.3
15538.1
15537.9
15537.7
15537.5
15537.3
15537.2
15537
15536.8
15536.6
15536.4
15536.2
15536
15535.9
15535.7
15535.5
15535.3
15535.1
15534.9
15534.7
15534.5
15534.4
15534.2
15534
15533.8
15533.6
15533.4
15533.2
15533.1
15532.9
15532.7
15532.5
15532.3
15532.1
15531.9
15531.7
15531.6
15531.4
15531.2
15531
15530.8
15530.6
15530.4
15530.3
15530.1
15529.9
15529.7
15529.5
15529.3
15529.1
15529
15528.8
15528.6
15528.4
15528.2
15528
15527.8
15527.6
15527.5
15527.3
15527.1
15526.9
15526.7
15526.5
15526.3
15526.2
15526
15525.8
15525.6
15525.4
15525.2
15525
15524.9
15524.7
15524.5
15524.3
15524.1
15523.9
15523.8
15523.6
15523.4
15523.2
15523
15522.8
15522.6
15522.5
15522.3
15522.1
15521.9
15521.7
15521.5
15521.3
15521.2
15521
15520.8
15520.6
15520.4
15520.2
15520.1
15519.9
15519.7
15519.5
15519.3
15519.1
15518.9
15518.8
15518.6
15518.4
15518.2
15518
15517.8
15517.7
15517.5
15517.3
15517.1
15516.9
15516.7
15516.6
15516.4
15516.2
15516
15515.8
15515.6
15515.5
15515.3
15515.1
15514.9
15514.7
15514.5
15514.4
15514.2
15514
15513.8
15513.6
15513.4
15513.3
15513.1
15512.9
15512.7
15512.5
15512.3
15512.2
15512
15511.8
15511.6
15511.4
15511.3
15511.1
15510.9
15510.7
15510.5
15510.3
15510.2
15510
15509.8
15509.6
15509.4
15509.3
15509.1
15508.9
15508.7
15508.5
15508.3
15508.2
15508
15507.8
15507.6
15507.4
15507.3
15507.1
15506.9
15506.7
15506.5
15506.4
15506.2
15506
15505.8
15505.6
15505.5
15505.3
15505.1
15504.9
15504.7
15504.6
15504.4
15504.2
15504
15503.8
15503.7
15503.5
15503.3
15503.1
15502.9
15502.8
15502.6
15502.4
15502.2
15502
15501.9
15501.7
15501.5
15501.3
15501.1
15501
15500.8
15500.6
15500.4
15500.3
15500.1
15499.9
15499.7
15499.5
15499.4
15499.2
15499
15498.8
15498.7
15498.5
15498.3
15498.1
15497.9
15497.8
15497.6
15497.4
15497.2
15497.1
15496.9
15496.7
15496.5
15496.4
15496.2
15496
15495.8
15495.7
15495.5
15495.3
15495.1
15495
15494.8
15494.6
15494.4
15494.3
15494.1
15493.9
15493.7
15493.6
15493.4
15493.2
15493
15492.9
15492.7
15492.5
15492.3
15492.2
15492
15491.8
15491.6
15491.5
15491.3
15491.1
15490.9
15490.8
15490.6
15490.4
15490.3
15490.1
15489.9
15489.7
15489.6
15489.4
15489.2
15489.1
15488.9
15488.7
15488.5
15488.4
15488.2
15488
15487.9
15487.7
15487.5
15487.3
15487.2
15487
15486.8
15486.7
15486.5
15486.3
15486.2
15486
15485.8
15485.6
15485.5
15485.3
15485.1
15485
15484.8
15484.6
15484.5
15484.3
15484.1
15484
15483.8
15483.6
15483.5
15483.3
15483.1
15483
15482.8
15482.6
15482.5
15482.3
15482.1
15482
15481.8
15481.6
15481.5
15481.3
15481.1
15481
15480.8
15480.6
15480.5
15480.3
15480.1
15480
15479.8
15479.7
15479.5
15479.3
15479.2
15479
15478.8
15478.7
15478.5
15478.3
15478.2
15478
15477.9
15477.7
15477.5
15477.4
15477.2
15477.1
15476.9
15476.7
15476.6
15476.4
15476.3
15476.1
15475.9
15475.8
15475.6
15475.5
15475.3
15475.1
15475
15474.8
15474.7
15474.5
15474.4
15474.2
15474
15473.9
15473.7
15473.6
15473.4
15473.3
15473.1
15472.9
15472.8
15472.6
15472.5
15472.3
15472.2
15472
15471.9
15471.7
15471.6
15471.4
15471.2
15471.1
15470.9
15470.8
15470.6
15470.5
15470.3
15470.2
15470
15469.9
15469.7
15469.6
15469.4
15469.3
15469.1
15469
15468.8
15468.7
15468.5
15468.4
15468.2
15468.1
15467.9
15467.8
15467.6
15467.5
15467.4
15467.2
15467.1
15466.9
15466.8
15466.6
15466.5
15466.3
15466.2
15466
15465.9
15465.8
15465.6
15465.5
15465.3
15465.2
15465.1
15464.9
15464.8
15464.6
15464.5
15464.3
15464.2
15464.1
15463.9
15463.8
15463.6
15463.5
15463.4
15463.2
15463.1
15463
15462.8
15462.7
15462.6
15462.4
15462.3
15462.1
15462
15461.9
15461.7
15461.6
15461.5
15461.3
15461.2
15461.1
15460.9
15460.8
15460.7
15460.6
15460.4
15460.3
15460.2
15460
15459.9
15459.8
15459.7
15459.5
15459.4
15459.3
15459.1
15459
15458.9
15458.8
15458.6
15458.5
15458.4
15458.3
15458.1
15458
15457.9
15457.8
15457.7
15457.5
15457.4
15457.3
15457.2
15457.1
15456.9
15456.8
15456.7
15456.6
15456.5
15456.4
15456.2
15456.1
15456
15455.9
15455.8
15455.7
15455.6
15455.4
15455.3
15455.2
15455.1
15455
15454.9
15454.8
15454.7
15454.6
15454.5
15454.4
15454.2
15454.1
15454
15453.9
15453.8
15453.7
15453.6
15453.5
15453.4
15453.3
15453.2
15453.1
15453
15452.9
15452.8
15452.7
15452.6
15452.5
15452.4
15452.3
15452.2
15452.1
15452
15452
15451.9
15451.8
15451.7
15451.6
15451.5
15451.4
15451.3
15451.2
15451.1
15451.1
15451
15450.9
15450.8
15450.7
15450.6
15450.6
15450.5
15450.4
15450.3
15450.2
15450.2
15450.1
15450
15449.9
15449.8
15449.8
15449.7
15449.6
15449.5
15449.5
15449.4
15449.3
15449.3
15449.2
15449.1
15449.1
15449
15448.9
15448.9
15448.8
15448.7
15448.7
15448.6
15448.6
15448.5
15448.4
15448.4
15448.3
15448.3
15448.2
15448.2
15448.1
15448
15448
15447.9
15447.9
15447.8
15447.8
15447.8
15447.7
15447.7
15447.6
15447.6
15447.5
15447.5
15447.5
15447.4
15447.4
15447.3
15447.3
15447.3
15447.2
15447.2
15447.2
15447.1
15447.1
15447.1
15447.1
15447
15447
15447
15447
15446.9
15446.9
15446.9
15446.9
15446.9
15446.8
15446.8
15446.8
15446.8
15446.8
15446.8
15446.8
15446.8
15446.8
15446.8
15446.8
15446.8
15446.8
15446.8
15446.8
15446.8
15446.8
15446.8
15446.8
15446.8
15446.8
15446.8
15446.8
15446.8
15446.8
15446.9
15446.9
15446.9
15446.9
15446.9
15447
15447
15447
15447
15447.1
15447.1
15447.1
15447.2
15447.2
15447.3
15447.3
15447.3
15447.4
15447.4
15447.5
15447.5
15447.6
15447.6
15447.7
15447.7
15447.8
15447.8
15447.9
15448
15448
15448.1
15448.1
15448.2
15448.3
15448.4
15448.4
15448.5
15448.6
15448.7
15448.7
15448.8
15448.9
15449
15449.1
15449.2
15449.3
15449.4
15449.5
15449.6
15449.7
15449.8
15449.9
15450
15450.1
15450.2
15450.3
15450.4
15450.6
15450.7
15450.8
15450.9
15451.1
15451.2
15451.3
15451.4
15451.6
15451.7
15451.9
15452
15452.2
15452.3
15452.5
15452.6
15452.8
15452.9
15453.1
15453.2
15453.4
15453.6
15453.7
15453.9
15454.1
15454.3
15454.5
15454.6
15454.8
15455
15455.2
15455.4
15455.6
15455.8
15456
15456.2
15456.4
15456.6
15456.8
15457.1
15457.3
15457.5
15457.7
15458
15458.2
15458.4
15458.7
15458.9
15459.1
15459.4
15459.6
15459.9
15460.1
15460.4
15460.7
15460.9
15461.2
15461.5
15461.8
15462
15462.3
15462.6
15462.9
15463.2
15463.5
15463.8
15464.1
15464.4
15464.7
15465
15465.3
15465.6
15466
15466.3
15466.6
15467
15467.3
15467.6
15468
15468.3
15468.7
15469
15469.4
15469.8
15470.1
15470.5
15470.9
15471.3
15471.6
15472
15472.4
15472.8
15473.2
15473.6
15474
15474.4
15474.9
15475.3
15475.7
15476.1
15476.6
15477
15477.5
15477.9
15478.3
15478.8
15479.3
15479.7
15480.2
15480.7
15481.1
15481.6
15482.1
15482.6
15483.1
15483.6
15484.1
15484.6
15485.1
15485.6
15486.2
15486.7
15487.2
15487.8
15488.3
15488.8
15489.4
15489.9
15490.5
15491.1
15491.6
15492.2
15492.8
15493.4
15494
15494.6
15495.2
15495.8
15496.4
15497
15497.6
15498.2
15498.9
15499.5
15500.1
15500.8
15501.4
15502.1
15502.7
15503.4
15504.1
15504.8
15505.4
15506.1
15506.8
15507.5
15508.2
15508.9
15509.6
15510.3
15511.1
15511.8
15512.5
15513.3
15514
15514.8
15515.5
15516.3
15517
15517.8
15518.6
15519.4
15520.1
15520.9
15521.7
15522.5
15523.3
15524.2
15525
15525.8
15526.6
15527.5
15528.3
15529.2
15530
15530.9
15531.7
15532.6
15533.5
15534.3
15535.2
15536.1
15537
15537.9
15538.8
15539.7
15540.6
15541.5
15542.5
15543.4
15544.3
15545.3
15546.2
15547.2
15548.1
15549.1
15550
15551
15552
15553
15554
15555
15556
15557
15558
15559
15560
15561
15562
15563.1
15564.1
15565.1
15566.2
15567.2
15568.3
15569.4
15570.4
15571.5
15572.6
15573.6
15574.7
15575.8
15576.9
15578
15579.1
15580.2
15581.3
15582.4
15583.6
15584.7
15585.8
15586.9
15588.1
15589.2
15590.4
15591.5
15592.7
15593.8
15595
15596.1
15597.3
15598.5
15599.7
15600.8
15602
15603.2
15604.4
15605.6
15606.8
15608
15609.2
15610.4
15611.6
15612.9
15614.1
15615.3
15616.5
15617.8
15619
15620.2
15621.5
15622.7
15624
15625.2
15626.5
15627.7
15629
15630.3
15631.5
15632.8
15634.1
15635.3
15636.6
15637.9
15639.2
15640.5
15641.7
15643
15644.3
15645.6
15646.9
15648.2
15649.5
15650.8
15652.1
15653.4
15654.8
15656.1
15657.4
15658.7
15660
15661.4
15662.7
15664
15665.3
15666.7
15668
15669.3
15670.7
15672
15673.3
15674.7
15676
15677.4
15678.7
15680.1
15681.4
15682.8
15684.1
15685.5
15686.8
15688.2
15689.5
15690.9
15692.3
15693.6
15695
15696.4
15697.7