/*--------------------------------*- C++ -*----------------------------------*\
  =========                 |
  \\      /  F ield         | OpenFOAM: The Open Source CFD Toolbox
   \\    /   O peration     | Website:  https://openfoam.org
    \\  /    A nd           | Version:  9
     \\/     M anipulation  |
\*---------------------------------------------------------------------------*/
FoamFile
{
    format      ascii;
    class       volScalarField;
    location    "0.045";
    object      ddt0(rho);
}
// * * * * * * * * * * * * * * * * * * * * * * * * * * * * * * * * * * * * * //

dimensions      [1 -3 -1 0 0 0 0];

internalField   nonuniform List<scalar> 
10000
(
-4.89562
-4.89551
-4.89535
-4.89519
-4.89504
-4.89488
-4.89472
-4.89457
-4.89441
-4.89426
-4.8941
-4.89394
-4.89379
-4.89363
-4.89347
-4.89332
-4.89317
-4.89301
-4.89285
-4.89269
-4.89254
-4.89239
-4.89224
-4.89208
-4.89192
-4.89177
-4.89162
-4.89148
-4.89131
-4.89114
-4.89098
-4.89084
-4.8907
-4.89055
-4.89038
-4.89021
-4.89005
-4.88992
-4.88978
-4.88963
-4.88945
-4.88927
-4.88912
-4.88899
-4.88887
-4.88871
-4.88852
-4.88833
-4.88818
-4.88805
-4.88794
-4.8878
-4.88761
-4.88741
-4.88723
-4.8871
-4.887
-4.88689
-4.88673
-4.88652
-4.8863
-4.88613
-4.88602
-4.88593
-4.88582
-4.88566
-4.88543
-4.8852
-4.88502
-4.88491
-4.88484
-4.88476
-4.88462
-4.88439
-4.88414
-4.88391
-4.88377
-4.88371
-4.88366
-4.88357
-4.88339
-4.88313
-4.88284
-4.88262
-4.88249
-4.88246
-4.88245
-4.88238
-4.8822
-4.88193
-4.88161
-4.88134
-4.88119
-4.88116
-4.88118
-4.88118
-4.88106
-4.88081
-4.88047
-4.88012
-4.87986
-4.87974
-4.87975
-4.87982
-4.87985
-4.87975
-4.87949
-4.87912
-4.87872
-4.8784
-4.87824
-4.87823
-4.87834
-4.87845
-4.87846
-4.8783
-4.87796
-4.87752
-4.87707
-4.87673
-4.87656
-4.87659
-4.87675
-4.87693
-4.87701
-4.87692
-4.87662
-4.87617
-4.87564
-4.87518
-4.87486
-4.87477
-4.87487
-4.8751
-4.87534
-4.87548
-4.87542
-4.87513
-4.87465
-4.87406
-4.87349
-4.87304
-4.8728
-4.87281
-4.87301
-4.87334
-4.87367
-4.87387
-4.87386
-4.8736
-4.8731
-4.87246
-4.87177
-4.87116
-4.87073
-4.87056
-4.87064
-4.87094
-4.87136
-4.87178
-4.8721
-4.8722
-4.87205
-4.87163
-4.871
-4.87024
-4.86946
-4.86878
-4.8683
-4.86807
-4.86811
-4.8684
-4.86887
-4.86942
-4.86993
-4.87031
-4.87046
-4.87034
-4.86995
-4.86931
-4.8685
-4.86761
-4.86674
-4.86599
-4.86544
-4.86515
-4.86513
-4.86539
-4.86587
-4.86649
-4.86718
-4.86783
-4.86836
-4.86868
-4.86875
-4.86854
-4.86806
-4.86735
-4.86645
-4.86545
-4.86442
-4.86344
-4.86259
-4.86194
-4.86153
-4.86139
-4.86152
-4.86191
-4.86251
-4.86326
-4.86412
-4.865
-4.86584
-4.86658
-4.86715
-4.86752
-4.86766
-4.86754
-4.86717
-4.86655
-4.86571
-4.86469
-4.86353
-4.8623
-4.86103
-4.85978
-4.85858
-4.8575
-4.85657
-4.85582
-4.85528
-4.85497
-4.8549
-4.85507
-4.85547
-4.8561
-4.85694
-4.85796
-4.85915
-4.86051
-4.862
-4.8636
-4.86526
-4.86697
-4.8687
-4.87043
-4.87211
-4.87373
-4.87525
-4.87664
-4.87787
-4.87894
-4.87981
-4.88048
-4.88096
-4.88128
-4.8815
-4.88162
-4.88164
-4.88165
-4.88162
-4.88155
-4.88157
-4.88185
-4.88298
-4.88602
-4.88648
-4.88649
-4.88652
-4.88654
-4.88654
-4.88655
-4.88652
-4.88648
-4.88644
-4.8864
-4.88632
-4.88623
-4.88616
-4.88608
-4.88601
-4.88594
-4.88587
-4.88579
-4.88571
-4.88564
-4.88556
-4.88548
-4.8854
-4.88533
-4.88526
-4.88519
-4.88511
-4.88502
-4.88494
-4.88486
-4.88479
-4.88472
-4.88464
-4.88457
-4.8845
-4.88443
-4.88435
-4.88427
-4.8842
-4.88413
-4.88406
-4.88399
-4.88391
-4.88383
-4.88375
-4.88367
-4.88359
-4.88351
-4.88344
-4.88336
-4.88329
-4.88321
-4.88314
-4.88306
-4.88298
-4.8829
-4.88283
-4.88275
-4.88267
-4.88259
-4.88251
-4.88243
-4.88235
-4.88227
-4.88219
-4.88211
-4.88203
-4.88195
-4.88187
-4.88179
-4.88171
-4.88163
-4.88155
-4.88147
-4.88139
-4.88131
-4.88123
-4.88114
-4.88106
-4.88097
-4.88089
-4.8808
-4.88072
-4.88064
-4.88056
-4.88048
-4.88039
-4.88031
-4.88023
-4.88014
-4.88006
-4.87998
-4.87989
-4.8798
-4.87971
-4.87962
-4.87953
-4.87945
-4.87936
-4.87927
-4.87919
-4.8791
-4.87902
-4.87893
-4.87884
-4.87876
-4.87867
-4.87858
-4.8785
-4.87841
-4.87832
-4.87823
-4.87813
-4.87804
-4.87795
-4.87786
-4.87777
-4.87767
-4.87758
-4.87749
-4.8774
-4.87731
-4.87722
-4.87714
-4.87705
-4.87695
-4.87686
-4.87677
-4.87667
-4.87657
-4.87648
-4.87638
-4.87629
-4.8762
-4.8761
-4.876
-4.87591
-4.87581
-4.87572
-4.87562
-4.87553
-4.87543
-4.87534
-4.87524
-4.87515
-4.87505
-4.87495
-4.87485
-4.87475
-4.87465
-4.87455
-4.87445
-4.87435
-4.87425
-4.87415
-4.87405
-4.87395
-4.87385
-4.87375
-4.87365
-4.87355
-4.87345
-4.87335
-4.87325
-4.87315
-4.87304
-4.87294
-4.87283
-4.87273
-4.87262
-4.87253
-4.87241
-4.87232
-4.8722
-4.87213
-4.87198
-4.87193
-4.87175
-4.87174
-4.87151
-4.87154
-4.87127
-4.87136
-4.87103
-4.87116
-4.8708
-4.87094
-4.87062
-4.87066
-4.87049
-4.87035
-4.87029
-4.87018
-4.87006
-4.86993
-4.86985
-4.86973
-4.86962
-4.86949
-4.8694
-4.86927
-4.86917
-4.869
-4.86904
-4.86863
-4.86896
-4.86828
-4.86883
-4.868
-4.8686
-4.86785
-4.8682
-4.86787
-4.86769
-4.86787
-4.86726
-4.86782
-4.86687
-4.86765
-4.8667
-4.86719
-4.86682
-4.86652
-4.86696
-4.86599
-4.86691
-4.86573
-4.86647
-4.8659
-4.86571
-4.86615
-4.86508
-4.86611
-4.86488
-4.86558
-4.86516
-4.86469
-4.86545
-4.8641
-4.86524
-4.86414
-4.86437
-4.86465
-4.86351
-4.86472
-4.86328
-4.86405
-4.86376
-4.86299
-4.86412
-4.86252
-4.86358
-4.86295
-4.86245
-4.86345
-4.86182
-4.86304
-4.86219
-4.86183
-4.86276
-4.8611
-4.86239
-4.8615
-4.86117
-4.86219
-4.86045
-4.86172
-4.86094
-4.86036
-4.86157
-4.85973
-4.86092
-4.86044
-4.8595
-4.86096
-4.85914
-4.85999
-4.86005
-4.85861
-4.86025
-4.85866
-4.85887
-4.85973
-4.85782
-4.85936
-4.8584
-4.85773
-4.85921
-4.8572
-4.85819
-4.85824
-4.85662
-4.85843
-4.85695
-4.85682
-4.85801
-4.85592
-4.85723
-4.85696
-4.85548
-4.85732
-4.85566
-4.85565
-4.85685
-4.85469
-4.85604
-4.85581
-4.85422
-4.85613
-4.85456
-4.85428
-4.8557
-4.85348
-4.85462
-4.85483
-4.85289
-4.85479
-4.85365
-4.85273
-4.85459
-4.85247
-4.85277
-4.85402
-4.85165
-4.85309
-4.85299
-4.85111
-4.85313
-4.85187
-4.85091
-4.85284
-4.85073
-4.85094
-4.85231
-4.84987
-4.85111
-4.85145
-4.84918
-4.85112
-4.85041
-4.84887
-4.85097
-4.84928
-4.8488
-4.85054
-4.8482
-4.8489
-4.84982
-4.84736
-4.84898
-4.84891
-4.84677
-4.84885
-4.84794
-4.84644
-4.84865
-4.84692
-4.84623
-4.84819
-4.84592
-4.84608
-4.84761
-4.84508
-4.84597
-4.84691
-4.84434
-4.84582
-4.84609
-4.8437
-4.8456
-4.84524
-4.84317
-4.84532
-4.84437
-4.8427
-4.84496
-4.84352
-4.84228
-4.84452
-4.84269
-4.84187
-4.84403
-4.8419
-4.84147
-4.84349
-4.84115
-4.84103
-4.8429
-4.84041
-4.84057
-4.8423
-4.83971
-4.84009
-4.84172
-4.83904
-4.83957
-4.84116
-4.83839
-4.83894
-4.84064
-4.83773
-4.8383
-4.84008
-4.8371
-4.83766
-4.83949
-4.83648
-4.83699
-4.83888
-4.83589
-4.83632
-4.83823
-4.83533
-4.83565
-4.83758
-4.83481
-4.83494
-4.83694
-4.83424
-4.83418
-4.83629
-4.83372
-4.83334
-4.83567
-4.83325
-4.83249
-4.83496
-4.83282
-4.83168
-4.83419
-4.83236
-4.83082
-4.83343
-4.83199
-4.83001
-4.83261
-4.83166
-4.82925
-4.83161
-4.83125
-4.82853
-4.83066
-4.83085
-4.82785
-4.82957
-4.83042
-4.82736
-4.82843
-4.83003
-4.82677
-4.82715
-4.82926
-4.82645
-4.82627
-4.82858
-4.82613
-4.8251
-4.82773
-4.82592
-4.82405
-4.82667
-4.82565
-4.82317
-4.82556
-4.8254
-4.8224
-4.82426
-4.82506
-4.82191
-4.82275
-4.82463
-4.82148
-4.82154
-4.82377
-4.82129
-4.82024
-4.82286
-4.8212
-4.81912
-4.82157
-4.82101
-4.81825
-4.82018
-4.82081
-4.81769
-4.81859
-4.82025
-4.81738
-4.81709
-4.81945
-4.81729
-4.81573
-4.81823
-4.81722
-4.81467
-4.81676
-4.81709
-4.814
-4.81507
-4.81664
-4.81368
-4.81337
-4.8158
-4.81367
-4.81191
-4.81447
-4.8137
-4.81084
-4.81276
-4.81357
-4.8103
-4.81077
-4.81305
-4.81028
-4.80906
-4.81175
-4.81042
-4.80778
-4.80997
-4.81043
-4.80712
-4.80778
-4.81014
-4.80709
-4.80598
-4.80869
-4.80731
-4.80458
-4.80678
-4.80737
-4.80401
-4.80451
-4.8069
-4.8041
-4.80267
-4.80529
-4.80429
-4.80134
-4.80325
-4.80422
-4.80094
-4.801
-4.80345
-4.80112
-4.79914
-4.8017
-4.8013
-4.79807
-4.79922
-4.80119
-4.79797
-4.79708
-4.79977
-4.79828
-4.79552
-4.79757
-4.79828
-4.795
-4.79504
-4.79749
-4.79522
-4.79312
-4.79559
-4.79547
-4.79208
-4.79276
-4.79521
-4.79217
-4.79069
-4.79325
-4.79252
-4.7894
-4.79061
-4.79243
-4.7892
-4.78811
-4.79086
-4.78964
-4.78655
-4.78815
-4.78959
-4.78644
-4.78557
-4.78811
-4.78671
-4.78378
-4.7856
-4.78669
-4.78351
-4.78283
-4.78525
-4.78388
-4.78094
-4.78267
-4.78385
-4.78073
-4.7798
-4.78234
-4.78103
-4.77807
-4.77958
-4.78089
-4.77783
-4.77681
-4.77927
-4.77808
-4.77514
-4.77609
-4.77823
-4.77491
-4.77355
-4.77592
-4.77533
-4.77208
-4.77275
-4.775
-4.77205
-4.77028
-4.77256
-4.77235
-4.76909
-4.76917
-4.77154
-4.76926
-4.767
-4.76889
-4.76923
-4.76602
-4.7658
-4.76785
-4.76634
-4.76349
-4.76499
-4.76621
-4.76314
-4.76185
-4.76419
-4.7634
-4.76021
-4.76061
-4.7628
-4.76038
-4.75812
-4.76
-4.76021
-4.75714
-4.75674
-4.75864
-4.75737
-4.75451
-4.75534
-4.75717
-4.75413
-4.75256
-4.75439
-4.75424
-4.75111
-4.75087
-4.75295
-4.75119
-4.7486
-4.74956
-4.7511
-4.74802
-4.74648
-4.74832
-4.74812
-4.74498
-4.74466
-4.74661
-4.7451
-4.74236
-4.74302
-4.74488
-4.74194
-4.74001
-4.74165
-4.74174
-4.73882
-4.7381
-4.73975
-4.73876
-4.73592
-4.73597
-4.73794
-4.73582
-4.73351
-4.73431
-4.73533
-4.73242
-4.73096
-4.73247
-4.73218
-4.72928
-4.72873
-4.73028
-4.72923
-4.72662
-4.72654
-4.72829
-4.72611
-4.72381
-4.72423
-4.72555
-4.72266
-4.72099
-4.72216
-4.72211
-4.71956
-4.71867
-4.71991
-4.71923
-4.71659
-4.71611
-4.71753
-4.71601
-4.71349
-4.71329
-4.71468
-4.71256
-4.71047
-4.71066
-4.71178
-4.70924
-4.70764
-4.70846
-4.70851
-4.70596
-4.70481
-4.70565
-4.70507
-4.70265
-4.70175
-4.70262
-4.70165
-4.6994
-4.69881
-4.69978
-4.69826
-4.69618
-4.69574
-4.69677
-4.69474
-4.69276
-4.69257
-4.69332
-4.69119
-4.68944
-4.68923
-4.68995
-4.68778
-4.68616
-4.68603
-4.6864
-4.68417
-4.6829
-4.68268
-4.68263
-4.68049
-4.67938
-4.6792
-4.67887
-4.67684
-4.67585
-4.67577
-4.67515
-4.67322
-4.67225
-4.67212
-4.67136
-4.66952
-4.66852
-4.66829
-4.66756
-4.6658
-4.66484
-4.66442
-4.66395
-4.66234
-4.66141
-4.66077
-4.66052
-4.65903
-4.6579
-4.65804
-4.65783
-4.65731
-4.65554
-4.65436
-4.65297
-4.65109
-4.64954
-4.64857
-4.64744
-4.64605
-4.64483
-4.64393
-4.64287
-4.64161
-4.64035
-4.63946
-4.6384
-4.63711
-4.636
-4.63507
-4.634
-4.63265
-4.63152
-4.63062
-4.62951
-4.62817
-4.62695
-4.62602
-4.62489
-4.62353
-4.62229
-4.62127
-4.62012
-4.61872
-4.61752
-4.61649
-4.61532
-4.61388
-4.61258
-4.61154
-4.61033
-4.60889
-4.60755
-4.60649
-4.60525
-4.60378
-4.60243
-4.60133
-4.60006
-4.59853
-4.59716
-4.59602
-4.59478
-4.59323
-4.5918
-4.59062
-4.58933
-4.58778
-4.58631
-4.58512
-4.58378
-4.5822
-4.58068
-4.57944
-4.57812
-4.5765
-4.57495
-4.57366
-4.57234
-4.5707
-4.5691
-4.56775
-4.5664
-4.56475
-4.56309
-4.56172
-4.56034
-4.55869
-4.55697
-4.55555
-4.55415
-4.55248
-4.5507
-4.5492
-4.54781
-4.54612
-4.54433
-4.54276
-4.54134
-4.53963
-4.53778
-4.53615
-4.5347
-4.53302
-4.53111
-4.52941
-4.5279
-4.52624
-4.52429
-4.52252
-4.52097
-4.51928
-4.51732
-4.51545
-4.51387
-4.51218
-4.51021
-4.50824
-4.5066
-4.50491
-4.50293
-4.50091
-4.49917
-4.49746
-4.49547
-4.49339
-4.49156
-4.48986
-4.48786
-4.48571
-4.48378
-4.48205
-4.48007
-4.47787
-4.47585
-4.47406
-4.4721
-4.46986
-4.46775
-4.46588
-4.46395
-4.46167
-4.45944
-4.4575
-4.45558
-4.45332
-4.451
-4.44896
-4.447
-4.44476
-4.44235
-4.44021
-4.43821
-4.43601
-4.43354
-4.43126
-4.42923
-4.42705
-4.42455
-4.42213
-4.42001
-4.41783
-4.41535
-4.41282
-4.4106
-4.40841
-4.40594
-4.40331
-4.40096
-4.39875
-4.39631
-4.39362
-4.39111
-4.38886
-4.38645
-4.38373
-4.38107
-4.37873
-4.37631
-4.37361
-4.37084
-4.36837
-4.36596
-4.36326
-4.36039
-4.35777
-4.35533
-4.35267
-4.34973
-4.34694
-4.34444
-4.3418
-4.33885
-4.33592
-4.33331
-4.33066
-4.32772
-4.32468
-4.32191
-4.31926
-4.31635
-4.31321
-4.31027
-4.30757
-4.3047
-4.30152
-4.2984
-4.2956
-4.29275
-4.28958
-4.28632
-4.28337
-4.2805
-4.27736
-4.274
-4.27087
-4.26794
-4.26486
-4.26145
-4.25812
-4.25508
-4.25204
-4.24865
-4.24515
-4.24195
-4.23888
-4.23556
-4.23196
-4.22856
-4.22541
-4.22213
-4.21851
-4.21493
-4.21164
-4.20838
-4.20478
-4.20105
-4.19757
-4.19428
-4.19075
-4.18694
-4.18323
-4.17982
-4.17637
-4.17256
-4.16867
-4.16507
-4.16162
-4.15786
-4.15388
-4.15006
-4.14652
-4.14282
-4.1388
-4.13479
-4.1311
-4.12742
-4.12343
-4.11927
-4.11537
-4.11165
-4.10774
-4.10351
-4.09936
-4.09552
-4.09167
-4.08746
-4.08313
-4.07908
-4.0752
-4.07107
-4.06666
-4.06239
-4.05838
-4.05431
-4.04988
-4.04543
-4.04125
-4.03718
-4.0328
-4.02823
-4.02383
-4.01967
-4.01537
-4.01076
-4.00614
-4.00182
-3.99755
-3.993
-3.98823
-3.98367
-3.97934
-3.97487
-3.97008
-3.96529
-3.96079
-3.95635
-3.95161
-3.94668
-3.94197
-3.93747
-3.93281
-3.92783
-3.92289
-3.91824
-3.91363
-3.9087
-3.90361
-3.89873
-3.89407
-3.88925
-3.88411
-3.87898
-3.87417
-3.86941
-3.86435
-3.85908
-3.85401
-3.84918
-3.84425
-3.83898
-3.83368
-3.82865
-3.82375
-3.81859
-3.81319
-3.80791
-3.80292
-3.79787
-3.7925
-3.78702
-3.78183
-3.77679
-3.77153
-3.76599
-3.76056
-3.75541
-3.75025
-3.74476
-3.73916
-3.73381
-3.72865
-3.72329
-3.71764
-3.71206
-3.70678
-3.70151
-3.69596
-3.69024
-3.68473
-3.67945
-3.67403
-3.66832
-3.66261
-3.65717
-3.65183
-3.64624
-3.64045
-3.6348
-3.62939
-3.62393
-3.6182
-3.6124
-3.60683
-3.60141
-3.59581
-3.58997
-3.58422
-3.57872
-3.57324
-3.56749
-3.56162
-3.55596
-3.5505
-3.5449
-3.53905
-3.53321
-3.52765
-3.52218
-3.51646
-3.51056
-3.50481
-3.49933
-3.4938
-3.48798
-3.48208
-3.47644
-3.47101
-3.4654
-3.45953
-3.45369
-3.44816
-3.44273
-3.43705
-3.43117
-3.42544
-3.42
-3.41455
-3.40881
-3.40297
-3.39737
-3.392
-3.38651
-3.38075
-3.375
-3.36953
-3.3642
-3.35867
-3.35294
-3.34731
-3.34197
-3.33666
-3.33112
-3.32545
-3.31998
-3.31474
-3.30944
-3.3039
-3.29834
-3.29303
-3.28788
-3.28258
-3.27709
-3.27168
-3.26653
-3.26144
-3.25616
-3.25076
-3.24552
-3.24051
-3.23548
-3.23024
-3.22497
-3.21991
-3.21504
-3.21005
-3.20489
-3.19977
-3.19491
-3.19014
-3.18522
-3.18015
-3.17522
-3.17054
-3.16589
-3.16103
-3.1561
-3.15137
-3.14686
-3.14231
-3.13755
-3.13277
-3.12825
-3.12391
-3.11946
-3.11481
-3.11022
-3.10591
-3.10173
-3.09739
-3.09287
-3.08849
-3.08439
-3.08035
-3.07612
-3.07177
-3.0676
-3.06371
-3.05981
-3.05571
-3.05154
-3.0476
-3.04389
-3.04014
-3.03617
-3.0322
-3.02848
-3.02497
-3.02135
-3.01755
-3.01378
-3.01029
-3.00695
-3.00348
-2.99984
-2.9963
-2.99303
-2.98987
-2.98653
-2.98307
-2.97976
-2.97671
-2.97371
-2.97052
-2.96725
-2.96417
-2.96133
-2.95848
-2.95545
-2.95238
-2.94953
-2.94688
-2.94419
-2.94131
-2.93845
-2.93583
-2.93337
-2.93082
-2.92811
-2.92546
-2.92306
-2.92078
-2.91837
-2.91583
-2.91339
-2.9112
-2.90909
-2.90682
-2.90445
-2.90222
-2.90023
-2.89828
-2.89615
-2.89396
-2.89193
-2.89014
-2.88832
-2.88635
-2.88432
-2.8825
-2.88087
-2.87921
-2.87738
-2.87553
-2.87388
-2.87242
-2.8709
-2.86921
-2.86753
-2.86606
-2.86475
-2.86336
-2.86182
-2.8603
-2.85899
-2.85782
-2.85656
-2.85516
-2.85379
-2.85263
-2.8516
-2.85046
-2.8492
-2.84798
-2.84696
-2.84604
-2.84504
-2.8439
-2.84283
-2.84193
-2.84113
-2.84023
-2.83922
-2.83828
-2.83751
-2.83681
-2.83601
-2.83513
-2.83431
-2.83366
-2.83305
-2.83235
-2.83158
-2.83088
-2.83033
-2.82981
-2.82921
-2.82854
-2.82794
-2.82749
-2.82706
-2.82655
-2.82597
-2.82546
-2.82509
-2.82476
-2.82432
-2.82382
-2.8234
-2.82312
-2.82287
-2.82251
-2.82208
-2.82173
-2.82153
-2.82136
-2.82106
-2.82069
-2.82041
-2.82029
-2.82019
-2.81996
-2.81964
-2.81942
-2.81937
-2.81933
-2.81916
-2.81889
-2.81873
-2.81874
-2.81876
-2.81864
-2.81842
-2.81831
-2.81836
-2.81844
-2.81837
-2.8182
-2.81813
-2.81822
-2.81834
-2.81832
-2.81821
-2.81817
-2.81829
-2.81844
-2.81847
-2.81841
-2.81841
-2.81856
-2.81873
-2.8188
-2.81878
-2.81883
-2.81899
-2.81918
-2.81929
-2.81932
-2.8194
-2.81958
-2.81979
-2.81992
-2.81999
-2.82009
-2.82029
-2.82053
-2.82069
-2.82078
-2.8209
-2.82112
-2.82138
-2.82157
-2.82168
-2.82181
-2.82205
-2.82233
-2.82255
-2.82268
-2.82281
-2.82306
-2.82337
-2.82362
-2.82376
-2.8239
-2.82415
-2.82448
-2.82476
-2.82491
-2.82506
-2.82531
-2.82566
-2.82596
-2.82613
-2.82628
-2.82654
-2.82689
-2.8272
-2.8274
-2.82757
-2.82781
-2.82817
-2.8285
-2.82872
-2.82889
-2.82914
-2.82948
-2.82983
-2.83008
-2.83026
-2.8305
-2.83084
-2.83119
-2.83146
-2.83167
-2.8319
-2.83222
-2.83258
-2.83288
-2.8331
-2.83333
-2.83364
-2.834
-2.83431
-2.83455
-2.83477
-2.83508
-2.83545
-2.83577
-2.83601
-2.83624
-2.83654
-2.83691
-2.83725
-2.8375
-2.83772
-2.83802
-2.83839
-2.83874
-2.839
-2.83923
-2.83951
-2.83987
-2.84023
-2.84051
-2.84074
-2.84101
-2.84137
-2.84174
-2.84203
-2.84226
-2.84253
-2.84288
-2.84325
-2.84356
-2.84381
-2.84406
-2.84438
-2.84476
-2.8451
-2.84536
-2.8456
-2.8459
-2.84627
-2.84663
-2.84691
-2.84715
-2.84743
-2.84779
-2.84817
-2.84847
-2.8487
-2.84897
-2.84932
-2.8497
-2.85001
-2.85026
-2.85052
-2.85086
-2.85123
-2.85155
-2.85182
-2.85208
-2.8524
-2.85276
-2.8531
-2.85338
-2.85364
-2.85394
-2.8543
-2.85465
-2.85494
-2.8552
-2.85549
-2.85584
-2.85619
-2.85649
-2.85676
-2.85704
-2.85738
-2.85774
-2.85806
-2.85832
-2.8586
-2.85892
-2.85929
-2.85962
-2.85989
-2.86015
-2.86046
-2.86084
-2.86119
-2.86146
-2.86171
-2.86201
-2.86237
-2.86274
-2.86304
-2.86329
-2.86356
-2.86391
-2.86428
-2.86461
-2.86487
-2.86513
-2.86544
-2.86581
-2.86617
-2.86645
-2.8667
-2.86699
-2.86735
-2.86771
-2.86802
-2.86828
-2.86856
-2.86889
-2.86925
-2.86958
-2.86986
-2.87013
-2.87044
-2.8708
-2.87113
-2.87143
-2.8717
-2.872
-2.87235
-2.87269
-2.87299
-2.87327
-2.87357
-2.8739
-2.87424
-2.87455
-2.87483
-2.87513
-2.87546
-2.8758
-2.87612
-2.8764
-2.87668
-2.877
-2.87735
-2.87769
-2.87798
-2.87825
-2.87855
-2.8789
-2.87926
-2.87956
-2.87982
-2.8801
-2.88044
-2.8808
-2.88114
-2.88141
-2.88167
-2.88198
-2.88234
-2.88269
-2.883
-2.88326
-2.88354
-2.88387
-2.88424
-2.88457
-2.88485
-2.88512
-2.88542
-2.88577
-2.88612
-2.88643
-2.8867
-2.88699
-2.88732
-2.88767
-2.88799
-2.88828
-2.88857
-2.88888
-2.88922
-2.88955
-2.88984
-2.89014
-2.89045
-2.89079
-2.89111
-2.89141
-2.8917
-2.89201
-2.89235
-2.89268
-2.89298
-2.89327
-2.89357
-2.8939
-2.89425
-2.89456
-2.89485
-2.89513
-2.89545
-2.8958
-2.89614
-2.89643
-2.89671
-2.897
-2.89734
-2.89769
-2.89802
-2.8983
-2.89857
-2.89888
-2.89923
-2.89959
-2.89989
-2.90016
-2.90044
-2.90078
-2.90113
-2.90146
-2.90175
-2.90203
-2.90233
-2.90267
-2.90302
-2.90333
-2.90362
-2.90391
-2.90423
-2.90457
-2.9049
-2.9052
-2.90549
-2.9058
-2.90613
-2.90645
-2.90676
-2.90706
-2.90737
-2.90769
-2.90802
-2.90833
-2.90863
-2.90894
-2.90926
-2.90959
-2.9099
-2.9102
-2.9105
-2.91082
-2.91115
-2.91148
-2.91178
-2.91207
-2.91237
-2.91271
-2.91305
-2.91337
-2.91365
-2.91394
-2.91425
-2.9146
-2.91494
-2.91525
-2.91553
-2.91582
-2.91614
-2.9165
-2.91683
-2.91712
-2.9174
-2.9177
-2.91804
-2.91838
-2.9187
-2.91899
-2.91928
-2.91959
-2.91993
-2.92027
-2.92058
-2.92087
-2.92117
-2.92149
-2.92182
-2.92215
-2.92245
-2.92275
-2.92306
-2.92339
-2.92371
-2.92402
-2.92433
-2.92464
-2.92496
-2.92528
-2.92559
-2.92589
-2.9262
-2.92653
-2.92685
-2.92717
-2.92747
-2.92777
-2.92809
-2.92842
-2.92875
-2.92906
-2.92935
-2.92965
-2.92997
-2.93031
-2.93064
-2.93094
-2.93123
-2.93153
-2.93187
-2.93221
-2.93253
-2.93282
-2.93311
-2.93342
-2.93376
-2.9341
-2.93441
-2.9347
-2.93499
-2.93531
-2.93565
-2.93598
-2.93629
-2.93658
-2.93689
-2.93721
-2.93754
-2.93787
-2.93817
-2.93847
-2.93878
-2.93911
-2.93943
-2.93975
-2.94005
-2.94036
-2.94068
-2.941
-2.94132
-2.94163
-2.94194
-2.94226
-2.94258
-2.9429
-2.94321
-2.94351
-2.94382
-2.94415
-2.94448
-2.94479
-2.94509
-2.9454
-2.94572
-2.94605
-2.94638
-2.94669
-2.94698
-2.94728
-2.94761
-2.94795
-2.94827
-2.94858
-2.94887
-2.94918
-2.94951
-2.94984
-2.95017
-2.95047
-2.95077
-2.95108
-2.95141
-2.95174
-2.95206
-2.95236
-2.95266
-2.95298
-2.9533
-2.95363
-2.95395
-2.95425
-2.95456
-2.95488
-2.95521
-2.95553
-2.95584
-2.95615
-2.95647
-2.95679
-2.95711
-2.95742
-2.95773
-2.95805
-2.95837
-2.95869
-2.95901
-2.95932
-2.95963
-2.95995
-2.96028
-2.9606
-2.96091
-2.96122
-2.96152
-2.96185
-2.96218
-2.96251
-2.96282
-2.96312
-2.96343
-2.96375
-2.96409
-2.96441
-2.96472
-2.96502
-2.96533
-2.96566
-2.96599
-2.96632
-2.96663
-2.96693
-2.96724
-2.96757
-2.9679
-2.96822
-2.96853
-2.96884
-2.96916
-2.96948
-2.96981
-2.97013
-2.97044
-2.97075
-2.97107
-2.9714
-2.97172
-2.97203
-2.97235
-2.97267
-2.97299
-2.97331
-2.97363
-2.97394
-2.97426
-2.97458
-2.97491
-2.97523
-2.97554
-2.97585
-2.97617
-2.9765
-2.97683
-2.97715
-2.97746
-2.97777
-2.97808
-2.97842
-2.97875
-2.97907
-2.97938
-2.97969
-2.98
-2.98033
-2.98067
-2.98099
-2.9813
-2.98161
-2.98193
-2.98225
-2.98259
-2.98291
-2.98322
-2.98353
-2.98385
-2.98418
-2.98451
-2.98483
-2.98514
-2.98546
-2.98578
-2.98611
-2.98643
-2.98675
-2.98707
-2.98739
-2.98771
-2.98804
-2.98835
-2.98867
-2.98899
-2.98932
-2.98965
-2.98997
-2.99028
-2.9906
-2.99092
-2.99125
-2.99158
-2.9919
-2.99221
-2.99253
-2.99285
-2.99318
-2.99351
-2.99383
-2.99415
-2.99446
-2.99478
-2.99511
-2.99544
-2.99577
-2.99608
-2.9964
-2.99672
-2.99704
-2.99738
-2.9977
-2.99802
-2.99833
-2.99866
-2.99898
-2.99931
-2.99963
-2.99995
-3.00027
-3.0006
-3.00092
-3.00125
-3.00157
-3.00189
-3.00221
-3.00254
-3.00286
-3.00319
-3.00351
-3.00383
-3.00415
-3.00448
-3.00481
-3.00513
-3.00545
-3.00577
-3.0061
-3.00643
-3.00675
-3.00707
-3.00739
-3.00771
-3.00804
-3.00837
-3.0087
-3.00902
-3.00934
-3.00966
-3.00998
-3.01032
-3.01065
-3.01097
-3.01128
-3.0116
-3.01193
-3.01226
-3.01259
-3.01292
-3.01323
-3.01355
-3.01388
-3.01421
-3.01454
-3.01486
-3.01518
-3.0155
-3.01583
-3.01616
-3.01649
-3.01681
-3.01713
-3.01746
-3.01778
-3.01811
-3.01844
-3.01876
-3.01908
-3.01941
-3.01974
-3.02007
-3.02039
-3.02071
-3.02104
-3.02136
-3.02169
-3.02202
-3.02234
-3.02266
-3.02299
-3.02332
-3.02365
-3.02398
-3.0243
-3.02462
-3.02494
-3.02527
-3.0256
-3.02593
-3.02626
-3.02658
-3.0269
-3.02723
-3.02756
-3.02789
-3.02821
-3.02854
-3.02886
-3.02918
-3.02951
-3.02984
-3.03017
-3.03049
-3.03082
-3.03114
-3.03147
-3.0318
-3.03213
-3.03245
-3.03278
-3.0331
-3.03343
-3.03376
-3.03409
-3.03441
-3.03474
-3.03506
-3.03539
-3.03572
-3.03604
-3.03637
-3.0367
-3.03703
-3.03736
-3.03768
-3.038
-3.03833
-3.03866
-3.03899
-3.03932
-3.03964
-3.03997
-3.04029
-3.04062
-3.04095
-3.04128
-3.04161
-3.04193
-3.04225
-3.04258
-3.04291
-3.04324
-3.04357
-3.04389
-3.04422
-3.04454
-3.04487
-3.0452
-3.04553
-3.04586
-3.04618
-3.0465
-3.04683
-3.04716
-3.04749
-3.04782
-3.04814
-3.04847
-3.0488
-3.04913
-3.04945
-3.04978
-3.05011
-3.05043
-3.05076
-3.05109
-3.05142
-3.05174
-3.05207
-3.0524
-3.05273
-3.05306
-3.05338
-3.05371
-3.05403
-3.05436
-3.05469
-3.05502
-3.05535
-3.05567
-3.05599
-3.05632
-3.05665
-3.05699
-3.05731
-3.05764
-3.05796
-3.05829
-3.05862
-3.05895
-3.05928
-3.0596
-3.05993
-3.06025
-3.06058
-3.06091
-3.06124
-3.06157
-3.06189
-3.06222
-3.06254
-3.06287
-3.0632
-3.06353
-3.06386
-3.06418
-3.06451
-3.06484
-3.06517
-3.06549
-3.06582
-3.06615
-3.06648
-3.06681
-3.06713
-3.06746
-3.06778
-3.06811
-3.06844
-3.06877
-3.0691
-3.06942
-3.06975
-3.07007
-3.07041
-3.07074
-3.07106
-3.07139
-3.07171
-3.07204
-3.07237
-3.0727
-3.07303
-3.07336
-3.07368
-3.074
-3.07433
-3.07466
-3.07499
-3.07532
-3.07564
-3.07597
-3.07629
-3.07662
-3.07695
-3.07728
-3.07761
-3.07794
-3.07826
-3.07859
-3.07891
-3.07924
-3.07957
-3.0799
-3.08023
-3.08055
-3.08088
-3.08121
-3.08153
-3.08186
-3.08219
-3.08252
-3.08285
-3.08317
-3.0835
-3.08382
-3.08415
-3.08448
-3.08481
-3.08514
-3.08546
-3.08579
-3.08611
-3.08645
-3.08678
-3.0871
-3.08743
-3.08775
-3.08808
-3.08841
-3.08874
-3.08907
-3.0894
-3.08972
-3.09004
-3.09037
-3.0907
-3.09103
-3.09136
-3.09169
-3.09201
-3.09234
-3.09266
-3.09299
-3.09332
-3.09365
-3.09398
-3.0943
-3.09463
-3.09496
-3.09528
-3.09561
-3.09594
-3.09627
-3.0966
-3.09692
-3.09725
-3.09757
-3.0979
-3.09823
-3.09856
-3.09889
-3.09922
-3.09954
-3.09986
-3.10019
-3.10052
-3.10086
-3.10118
-3.10151
-3.10184
-3.10216
-3.10249
-3.10282
-3.10315
-3.10348
-3.1038
-3.10413
-3.10446
-3.10479
-3.10511
-3.10544
-3.10577
-3.1061
-3.10643
-3.10675
-3.10708
-3.10741
-3.10774
-3.10807
-3.1084
-3.10873
-3.10905
-3.10938
-3.1097
-3.11003
-3.11037
-3.1107
-3.11103
-3.11135
-3.11168
-3.112
-3.11233
-3.11266
-3.113
-3.11333
-3.11365
-3.11397
-3.1143
-3.11463
-3.11496
-3.1153
-3.11562
-3.11595
-3.11628
-3.1166
-3.11693
-3.11727
-3.1176
-3.11793
-3.11825
-3.11858
-3.11891
-3.11923
-3.11957
-3.1199
-3.12023
-3.12056
-3.12089
-3.12121
-3.12154
-3.12187
-3.1222
-3.12253
-3.12287
-3.12319
-3.12352
-3.12385
-3.12417
-3.12451
-3.12484
-3.12517
-3.1255
-3.12583
-3.12616
-3.12648
-3.12682
-3.12715
-3.12748
-3.12781
-3.12814
-3.12847
-3.12879
-3.12913
-3.12946
-3.12979
-3.13012
-3.13045
-3.13078
-3.13111
-3.13144
-3.13177
-3.1321
-3.13244
-3.13277
-3.1331
-3.13343
-3.13376
-3.13408
-3.13442
-3.13475
-3.13508
-3.13542
-3.13574
-3.13607
-3.1364
-3.13674
-3.13707
-3.1374
-3.13773
-3.13806
-3.13839
-3.13872
-3.13905
-3.13939
-3.13972
-3.14005
-3.14039
-3.14072
-3.14104
-3.14138
-3.14171
-3.14204
-3.14238
-3.14271
-3.14304
-3.14337
-3.1437
-3.14403
-3.14437
-3.1447
-3.14504
-3.14537
-3.1457
-3.14603
-3.14636
-3.14669
-3.14703
-3.14736
-3.1477
-3.14803
-3.14836
-3.14869
-3.14902
-3.14936
-3.14969
-3.15003
-3.15036
-3.15069
-3.15102
-3.15135
-3.15169
-3.15203
-3.15236
-3.15269
-3.15302
-3.15336
-3.15369
-3.15402
-3.15436
-3.15469
-3.15503
-3.15536
-3.15569
-3.15603
-3.15636
-3.1567
-3.15703
-3.15737
-3.1577
-3.15803
-3.15837
-3.1587
-3.15903
-3.15937
-3.15971
-3.16004
-3.16038
-3.16071
-3.16104
-3.16138
-3.16171
-3.16205
-3.16238
-3.16272
-3.16305
-3.16339
-3.16372
-3.16406
-3.16439
-3.16473
-3.16507
-3.1654
-3.16573
-3.16607
-3.1664
-3.16674
-3.16708
-3.16741
-3.16775
-3.16808
-3.16842
-3.16875
-3.16909
-3.16942
-3.16976
-3.1701
-3.17043
-3.17077
-3.1711
-3.17144
-3.17178
-3.17211
-3.17245
-3.17279
-3.17312
-3.17346
-3.1738
-3.17413
-3.17447
-3.1748
-3.17514
-3.17548
-3.17582
-3.17615
-3.17649
-3.17682
-3.17716
-3.1775
-3.17784
-3.17817
-3.17851
-3.17885
-3.17918
-3.17952
-3.17986
-3.18019
-3.18053
-3.18087
-3.18121
-3.18154
-3.18188
-3.18222
-3.18256
-3.18289
-3.18323
-3.18357
-3.18391
-3.18424
-3.18458
-3.18492
-3.18526
-3.1856
-3.18593
-3.18627
-3.18661
-3.18695
-3.18728
-3.18762
-3.18796
-3.1883
-3.18864
-3.18898
-3.18931
-3.18965
-3.18999
-3.19033
-3.19067
-3.19101
-3.19135
-3.19169
-3.19202
-3.19236
-3.1927
-3.19304
-3.19338
-3.19372
-3.19406
-3.19439
-3.19473
-3.19507
-3.19541
-3.19575
-3.19609
-3.19643
-3.19677
-3.19711
-3.19745
-3.19778
-3.19812
-3.19846
-3.1988
-3.19914
-3.19948
-3.19982
-3.20016
-3.2005
-3.20084
-3.20118
-3.20152
-3.20186
-3.2022
-3.20254
-3.20288
-3.20322
-3.20356
-3.2039
-3.20424
-3.20458
-3.20492
-3.20526
-3.2056
-3.20594
-3.20628
-3.20662
-3.20696
-3.2073
-3.20764
-3.20798
-3.20832
-3.20866
-3.209
-3.20934
-3.20968
-3.21002
-3.21036
-3.2107
-3.21104
-3.21138
-3.21172
-3.21207
-3.21241
-3.21275
-3.21309
-3.21343
-3.21377
-3.21411
-3.21445
-3.21479
-3.21513
-3.21547
-3.21582
-3.21615
-3.2165
-3.21684
-3.21718
-3.21752
-3.21786
-3.2182
-3.21854
-3.21889
-3.21923
-3.21957
-3.21991
-3.22025
-3.22059
-3.22093
-3.22128
-3.22162
-3.22196
-3.2223
-3.22264
-3.22298
-3.22332
-3.22366
-3.22401
-3.22435
-3.22469
-3.22503
-3.22537
-3.22571
-3.22606
-3.2264
-3.22674
-3.22708
-3.22743
-3.22777
-3.22811
-3.22845
-3.22879
-3.22913
-3.22948
-3.22982
-3.23016
-3.2305
-3.23084
-3.23118
-3.23153
-3.23187
-3.23221
-3.23256
-3.2329
-3.23324
-3.23358
-3.23392
-3.23426
-3.23461
-3.23495
-3.23529
-3.23564
-3.23598
-3.23632
-3.23666
-3.237
-3.23735
-3.23769
-3.23803
-3.23838
-3.23872
-3.23906
-3.2394
-3.23974
-3.24009
-3.24043
-3.24077
-3.24112
-3.24146
-3.2418
-3.24214
-3.24248
-3.24283
-3.24317
-3.24351
-3.24386
-3.2442
-3.24454
-3.24488
-3.24523
-3.24557
-3.24591
-3.24626
-3.2466
-3.24694
-3.24728
-3.24763
-3.24797
-3.24831
-3.24865
-3.249
-3.24934
-3.24968
-3.25003
-3.25037
-3.25071
-3.25105
-3.2514
-3.25174
-3.25208
-3.25243
-3.25277
-3.25311
-3.25345
-3.2538
-3.25414
-3.25448
-3.25483
-3.25517
-3.25552
-3.25586
-3.2562
-3.25654
-3.25689
-3.25723
-3.25757
-3.25792
-3.25826
-3.2586
-3.25894
-3.25929
-3.25963
-3.25997
-3.26032
-3.26066
-3.26101
-3.26135
-3.26169
-3.26203
-3.26238
-3.26272
-3.26306
-3.26341
-3.26375
-3.2641
-3.26444
-3.26478
-3.26512
-3.26547
-3.26581
-3.26616
-3.2665
-3.26684
-3.26719
-3.26753
-3.26787
-3.26821
-3.26856
-3.2689
-3.26925
-3.26959
-3.26993
-3.27028
-3.27062
-3.27096
-3.27131
-3.27165
-3.272
-3.27234
-3.27268
-3.27303
-3.27337
-3.27371
-3.27406
-3.2744
-3.27475
-3.27509
-3.27543
-3.27578
-3.27612
-3.27646
-3.2768
-3.27715
-3.27749
-3.27784
-3.27818
-3.27853
-3.27887
-3.27921
-3.27956
-3.2799
-3.28025
-3.28059
-3.28093
-3.28128
-3.28162
-3.28196
-3.28231
-3.28265
-3.283
-3.28334
-3.28369
-3.28403
-3.28437
-3.28472
-3.28506
-3.2854
-3.28575
-3.28609
-3.28644
-3.28678
-3.28713
-3.28747
-3.28781
-3.28816
-3.2885
-3.28885
-3.28919
-3.28954
-3.28988
-3.29023
-3.29057
-3.29091
-3.29126
-3.2916
-3.29195
-3.29229
-3.29264
-3.29298
-3.29333
-3.29367
-3.29402
-3.29436
-3.29471
-3.29505
-3.2954
-3.29574
-3.29609
-3.29643
-3.29677
-3.29712
-3.29747
-3.29781
-3.29816
-3.2985
-3.29885
-3.29919
-3.29953
-3.29988
-3.30022
-3.30057
-3.30092
-3.30126
-3.30161
-3.30195
-3.3023
-3.30264
-3.30299
-3.30333
-3.30368
-3.30403
-3.30437
-3.30472
-3.30506
-3.3054
-3.30575
-3.3061
-3.30644
-3.30679
-3.30714
-3.30748
-3.30782
-3.30817
-3.30852
-3.30886
-3.30921
-3.30956
-3.3099
-3.31025
-3.31059
-3.31094
-3.31128
-3.31163
-3.31198
-3.31232
-3.31267
-3.31302
-3.31336
-3.31371
-3.31405
-3.3144
-3.31475
-3.31509
-3.31544
-3.31579
-3.31613
-3.31648
-3.31682
-3.31717
-3.31752
-3.31786
-3.31821
-3.31856
-3.31891
-3.31925
-3.3196
-3.31994
-3.32029
-3.32064
-3.32099
-3.32133
-3.32168
-3.32203
-3.32238
-3.32272
-3.32307
-3.32342
-3.32376
-3.32411
-3.32446
-3.32481
-3.32515
-3.3255
-3.32585
-3.32619
-3.32654
-3.32689
-3.32724
-3.32759
-3.32793
-3.32828
-3.32863
-3.32898
-3.32932
-3.32967
-3.33002
-3.33037
-3.33072
-3.33106
-3.33141
-3.33176
-3.33211
-3.33246
-3.3328
-3.33315
-3.3335
-3.33385
-3.3342
-3.33454
-3.33489
-3.33524
-3.33559
-3.33594
-3.33629
-3.33664
-3.33698
-3.33733
-3.33768
-3.33803
-3.33838
-3.33873
-3.33908
-3.33943
-3.33978
-3.34012
-3.34047
-3.34082
-3.34117
-3.34152
-3.34187
-3.34222
-3.34257
-3.34292
-3.34326
-3.34361
-3.34396
-3.34431
-3.34466
-3.34501