/*--------------------------------*- C++ -*----------------------------------*\
  =========                 |
  \\      /  F ield         | OpenFOAM: The Open Source CFD Toolbox
   \\    /   O peration     | Website:  https://openfoam.org
    \\  /    A nd           | Version:  9
     \\/     M anipulation  |
\*---------------------------------------------------------------------------*/
FoamFile
{
    format      ascii;
    class       surfaceScalarField;
    location    "0.045";
    object      ddtCorrDdt0(phi);
}
// * * * * * * * * * * * * * * * * * * * * * * * * * * * * * * * * * * * * * //

dimensions      [1 0 -2 0 0 0 0];

internalField   nonuniform List<scalar> 
9999
(
-50.4287
-51.5209
-52.6138
-53.7076
-54.802
-55.897
-56.9924
-58.088
-59.1836
-60.2792
-61.3747
-62.47
-63.5645
-64.658
-65.7506
-66.8426
-67.9339
-69.0248
-70.1156
-71.2068
-72.2989
-73.3917
-74.485
-75.5787
-76.6732
-77.7685
-78.8643
-79.96
-81.0552
-82.15
-83.2445
-84.3385
-85.4312
-86.5225
-87.6127
-88.7028
-89.7936
-90.885
-91.9763
-93.0673
-94.1586
-95.2511
-96.3453
-97.4408
-98.5364
-99.6314
-100.726
-101.82
-102.915
-104.01
-105.103
-106.194
-107.284
-108.372
-109.463
-110.554
-111.647
-112.738
-113.828
-114.917
-116.008
-117.102
-118.199
-119.297
-120.393
-121.487
-122.578
-123.67
-124.762
-125.856
-126.95
-128.042
-129.131
-130.218
-131.305
-132.394
-133.487
-134.581
-135.677
-136.77
-137.862
-138.952
-140.043
-141.137
-142.234
-143.333
-144.43
-145.522
-146.61
-147.694
-148.779
-149.868
-150.961
-152.058
-153.155
-154.25
-155.34
-156.426
-157.511
-158.599
-159.692
-160.79
-161.893
-162.994
-164.091
-165.181
-166.265
-167.346
-168.429
-169.516
-170.61
-171.71
-172.812
-173.913
-175.008
-176.097
-177.179
-178.26
-179.342
-180.431
-181.527
-182.63
-183.736
-184.84
-185.939
-187.029
-188.111
-189.187
-190.262
-191.341
-192.43
-193.529
-194.638
-195.75
-196.861
-197.964
-199.056
-200.137
-201.21
-202.279
-203.352
-204.434
-205.527
-206.633
-207.745
-208.86
-209.972
-211.076
-212.169
-213.252
-214.326
-215.396
-216.466
-217.543
-218.628
-219.724
-220.83
-221.945
-223.065
-224.183
-225.293
-226.392
-227.477
-228.549
-229.612
-230.674
-231.738
-232.811
-233.897
-234.997
-236.11
-237.232
-238.358
-239.483
-240.604
-241.716
-242.817
-243.904
-244.977
-246.037
-247.09
-248.143
-249.2
-250.267
-251.348
-252.445
-253.559
-254.686
-255.819
-256.955
-258.09
-259.221
-260.343
-261.456
-262.554
-263.635
-264.701
-265.755
-266.803
-267.847
-268.892
-269.944
-271.01
-272.09
-273.183
-274.288
-275.404
-276.53
-277.667
-278.815
-279.968
-281.119
-282.263
-283.4
-284.528
-285.642
-286.741
-287.827
-288.903
-289.97
-291.029
-292.078
-293.116
-294.144
-295.169
-296.201
-297.243
-298.289
-299.342
-300.405
-301.484
-302.575
-303.675
-304.789
-305.92
-307.065
-308.229
-309.412
-310.602
-311.787
-312.974
-314.171
-315.382
-316.594
-317.796
-319.004
-320.214
-321.411
-322.603
-323.789
-324.956
-326.112
-327.267
-328.425
-329.585
-330.708
-331.804
-332.925
-334.042
-335.136
-336.25
-337.351
-338.465
-339.613
-340.838
-342.084
-343.206
-344.316
-345.44
-346.535
-347.66
-348.774
-349.868
-350.978
-352.108
-353.215
-354.298
-355.392
-356.499
-357.607
-358.72
-359.837
-360.943
-362.047
-363.16
-364.274
-365.377
-366.479
-367.591
-368.708
-369.82
-370.928
-372.028
-373.125
-374.228
-375.338
-376.45
-377.559
-378.67
-379.784
-380.897
-382.006
-383.113
-384.221
-385.332
-386.448
-387.564
-388.674
-389.779
-390.884
-391.99
-393.098
-394.207
-395.318
-396.431
-397.546
-398.66
-399.772
-400.882
-401.992
-403.105
-404.221
-405.336
-406.449
-407.559
-408.668
-409.776
-410.885
-411.994
-413.106
-414.22
-415.336
-416.453
-417.567
-418.679
-419.792
-420.906
-422.022
-423.139
-424.255
-425.37
-426.483
-427.594
-428.705
-429.815
-430.926
-432.04
-433.156
-434.273
-435.39
-436.507
-437.623
-438.74
-439.857
-440.975
-442.093
-443.211
-444.327
-445.442
-446.556
-447.67
-448.783
-449.898
-451.015
-452.132
-453.25
-454.367
-455.485
-456.603
-457.723
-458.843
-459.964
-461.086
-462.207
-463.326
-464.443
-465.559
-466.675
-467.791
-468.909
-470.028
-471.148
-472.268
-473.388
-474.509
-475.629
-476.75
-477.872
-478.994
-480.117
-481.24
-482.363
-483.485
-484.606
-485.726
-486.845
-487.965
-489.085
-490.206
-491.328
-492.451
-493.575
-494.699
-495.824
-496.949
-498.074
-499.199
-500.324
-501.448
-502.571
-503.694
-504.818
-505.942
-507.066
-508.191
-509.316
-510.441
-511.565
-512.69
-513.815
-514.942
-516.07
-517.199
-518.329
-519.458
-520.586
-521.714
-522.84
-523.965
-525.09
-526.216
-527.343
-528.47
-529.6
-530.729
-531.859
-532.989
-534.119
-535.248
-536.378
-537.509
-538.641
-539.773
-540.906
-542.035
-543.167
-544.298
-545.428
-546.556
-547.688
-548.817
-549.947
-551.079
-552.21
-553.348
-554.48
-555.613
-556.753
-557.888
-559.021
-560.155
-561.292
-562.425
-563.557
-564.692
-565.827
-566.962
-568.096
-569.234
-570.365
-571.508
-572.636
-573.775
-574.912
-576.047
-577.191
-578.327
-579.475
-580.601
-581.755
-582.878
-584.027
-585.161
-586.3
-587.438
-588.571
-589.729
-590.844
-592.013
-593.133
-594.284
-595.428
-596.554
-597.706
-598.828
-600.011
-601.124
-602.278
-603.426
-604.557
-605.725
-606.844
-608.012
-609.141
-610.286
-611.431
-612.545
-613.764
-614.83
-615.994
-617.159
-618.283
-619.472
-620.583
-621.756
-622.897
-624.051
-625.215
-626.324
-627.485
-628.622
-629.758
-630.961
-632.063
-633.241
-634.387
-635.536
-636.707
-637.818
-638.998
-640.133
-641.3
-642.471
-643.584
-644.764
-645.906
-647.05
-648.251
-649.336
-650.511
-651.669
-652.792
-654.014
-655.134
-656.318
-657.502
-658.602
-659.771
-660.912
-662.072
-663.26
-664.373
-665.591
-666.724
-667.837
-669.082
-670.197
-671.373
-672.548
-673.62
-674.869
-675.979
-677.143
-678.372
-679.499
-680.701
-681.853
-682.935
-684.131
-685.29
-686.44
-687.703
-688.803
-689.964
-691.169
-692.273
-693.552
-694.642
-695.748
-696.989
-698.115
-699.319
-700.534
-701.607
-702.824
-704.022
-705.139
-706.356
-707.532
-708.649
-709.898
-710.993
-712.2
-713.425
-714.522
-715.744
-716.933
-717.993
-719.242
-720.421
-721.579
-722.818
-723.93
-725.134
-726.378
-727.44
-728.635
-729.866
-730.978
-732.257
-733.444
-734.485
-735.796
-736.892
-738.072
-739.364
-740.451
-741.661
-742.905
-743.972
-745.223
-746.459
-747.522
-748.795
-750.001
-751.087
-752.336
-753.517
-754.665
-755.964
-757.087
-758.244
-759.535
-760.634
-761.819
-763.114
-764.206
-765.418
-766.687
-767.76
-769.001
-770.257
-771.333
-772.596
-773.834
-774.919
-776.208
-777.433
-778.523
-779.822
-781.022
-782.113
-783.424
-784.611
-785.704
-787.031
-788.22
-789.322
-790.654
-791.823
-792.921
-794.267
-795.413
-796.537
-797.908
-799.041
-800.158
-801.521
-802.673
-803.785
-805.123
-806.314
-807.428
-808.728
-809.991
-811.087
-812.36
-813.665
-814.727
-816.007
-817.265
-818.36
-819.655
-820.884
-822.017
-823.346
-824.553
-825.62
-827.03
-828.233
-829.307
-830.615
-831.939
-833.005
-834.329
-835.583
-836.71
-838.022
-839.318
-840.308
-841.606
-842.974
-844.074
-845.305
-846.657
-847.767
-849.008
-850.398
-851.467
-852.661
-854.067
-855.209
-856.299
-857.797
-858.901
-860.11
-861.545
-862.818
-863.812
-865.077
-866.334
-867.524
-868.912
-870.222
-871.267
-872.549
-873.92
-875.02
-876.309
-877.705
-878.786
-879.995
-881.421
-882.549
-883.716
-885.306
-886.43
-887.458
-888.856
-890.173
-891.257
-892.695
-894.001
-895.088
-896.373
-897.734
-898.857
-900.148
-901.6
-902.739
-903.891
-905.316
-906.543
-907.682
-909.118
-910.432
-911.511
-912.858
-914.244
-915.349
-916.638
-918.092
-919.244
-920.435
-921.891
-923.116
-924.238
-925.68
-927.019
-928.113
-929.471
-930.886
-931.993
-933.262
-934.748
-935.937
-937.125
-938.506
-939.921
-940.962
-942.371
-943.77
-944.896
-946.19
-947.646
-948.833
-950.074
-951.523
-952.875
-953.924
-955.348
-956.789
-957.875
-959.163
-960.687
-961.933
-963.14
-964.541
-965.952
-967.051
-968.417
-969.84
-970.982
-972.267
-973.852
-975.074
-976.238
-977.705
-979.132
-980.226
-981.634
-983.103
-984.221
-985.443
-987.163
-988.305
-989.452
-990.983
-992.429
-993.532
-994.85
-996.426
-997.676
-998.854
-1000.32
-1001.76
-1002.91
-1004.35
-1005.87
-1006.96
-1008.26
-1009.77
-1011.25
-1012.33
-1013.71
-1015.29
-1016.5
-1017.71
-1019.48
-1020.54
-1021.77
-1023.34
-1024.87
-1025.99
-1027.22
-1028.97
-1030.18
-1031.39
-1032.99
-1034.29
-1035.53
-1036.95
-1038.58
-1039.88
-1040.98
-1042.6
-1044
-1045.32
-1046.57
-1048.31
-1049.52
-1050.68
-1052.32
-1053.75
-1055.02
-1056.29
-1058.08
-1059.26
-1060.53
-1062.13
-1063.6
-1064.79
-1066.12
-1067.96
-1069.16
-1070.41
-1071.87
-1073.53
-1074.69
-1076.09
-1077.65
-1079.25
-1080.3
-1081.89
-1083.45
-1084.83
-1086.03
-1087.7
-1089.13
-1090.43
-1091.89
-1093.6
-1094.86
-1096.14
-1097.59
-1099.35
-1100.55
-1101.91
-1103.78
-1105
-1106.37
-1107.85
-1109.49
-1110.75
-1112.2
-1113.78
-1115.35
-1116.62
-1118.16
-1119.82
-1121.11
-1122.5
-1124.04
-1125.72
-1126.93
-1128.38
-1130.31
-1131.63
-1132.88
-1134.44
-1136.19
-1137.54
-1138.84
-1140.45
-1142.18
-1143.39
-1144.94
-1146.89
-1148.16
-1149.42
-1151.03
-1152.83
-1154.16
-1155.52
-1157.11
-1158.86
-1160.12
-1161.73
-1163.58
-1165.18
-1166.3
-1167.88
-1169.65
-1171.17
-1172.43
-1174.06
-1175.77
-1177.24
-1178.64
-1180.51
-1182.27
-1183.71
-1185.08
-1186.96
-1188.19
-1189.71
-1191.42
-1193.16
-1194.58
-1195.94
-1197.6
-1199.48
-1201.08
-1202.63
-1204.47
-1206.09
-1207.41
-1208.93
-1210.79
-1212.31
-1213.68
-1215.35
-1217.16
-1218.65
-1220.14
-1222.05
-1223.94
-1225.51
-1227.05
-1228.62
-1230.46
-1231.95
-1233.48
-1235.31
-1236.89
-1238.31
-1240.02
-1241.95
-1243.72
-1245.21
-1246.85
-1248.92
-1250.37
-1251.97
-1253.78
-1255.51
-1257.1
-1258.65
-1260.44
-1262.31
-1263.88
-1265.58
-1267.37
-1269.35
-1270.95
-1272.51
-1274.39
-1276.25
-1277.83
-1279.52
-1281.28
-1283.01
-1284.76
-1286.53
-1288.38
-1290.19
-1291.8
-1293.68
-1295.72
-1297.33
-1298.9
-1300.81
-1302.87
-1304.43
-1306.04
-1307.84
-1310.07
-1311.64
-1313.33
-1315.16
-1317.4
-1318.97
-1320.71
-1322.52
-1324.73
-1326.27
-1328.03
-1329.82
-1332.03
-1333.55
-1335.32
-1337.2
-1339.34
-1340.86
-1342.55
-1344.45
-1346.33
-1348.07
-1349.75
-1351.55
-1352.18
-1354.08
-1355.51
-1357.88
-1360.29
-1362.83
-1365.1
-1367.33
-1369.46
-1371.52
-1373.49
-1375.61
-1377.59
-1379.64
-1381.55
-1383.51
-1385.54
-1387.47
-1389.48
-1391.49
-1393.5
-1395.44
-1397.42
-1399.5
-1401.56
-1403.53
-1405.52
-1407.56
-1409.64
-1411.67
-1413.69
-1415.74
-1417.8
-1419.85
-1421.93
-1424.05
-1426.16
-1428.25
-1430.31
-1432.42
-1434.57
-1436.67
-1438.77
-1440.91
-1443.07
-1445.21
-1447.35
-1449.52
-1451.68
-1453.83
-1455.98
-1458.18
-1460.41
-1462.6
-1464.78
-1466.98
-1469.22
-1471.44
-1473.66
-1475.9
-1478.15
-1480.38
-1482.61
-1484.88
-1487.17
-1489.44
-1491.69
-1493.98
-1496.31
-1498.62
-1500.91
-1503.22
-1505.56
-1507.88
-1510.2
-1512.55
-1514.93
-1517.29
-1519.63
-1522
-1524.4
-1526.79
-1529.16
-1531.55
-1533.99
-1536.42
-1538.83
-1541.26
-1543.72
-1546.18
-1548.61
-1551.06
-1553.56
-1556.06
-1558.53
-1561.01
-1563.53
-1566.07
-1568.58
-1571.09
-1573.64
-1576.21
-1578.75
-1581.29
-1583.87
-1586.48
-1589.07
-1591.64
-1594.25
-1596.9
-1599.53
-1602.14
-1604.78
-1607.45
-1610.11
-1612.76
-1615.43
-1618.15
-1620.86
-1623.55
-1626.25
-1628.99
-1631.74
-1634.47
-1637.21
-1639.99
-1642.79
-1645.57
-1648.34
-1651.16
-1653.99
-1656.81
-1659.61
-1662.45
-1665.34
-1668.21
-1671.06
-1673.95
-1676.87
-1679.78
-1682.67
-1685.59
-1688.55
-1691.52
-1694.46
-1697.41
-1700.41
-1703.43
-1706.42
-1709.41
-1712.44
-1715.5
-1718.55
-1721.59
-1724.66
-1727.76
-1730.86
-1733.94
-1737.05
-1740.2
-1743.36
-1746.5
-1749.64
-1752.83
-1756.05
-1759.24
-1762.43
-1765.66
-1768.92
-1772.17
-1775.41
-1778.68
-1781.99
-1785.3
-1788.59
-1791.9
-1795.26
-1798.63
-1801.98
-1805.33
-1808.73
-1812.16
-1815.57
-1818.97
-1822.42
-1825.9
-1829.37
-1832.83
-1836.32
-1839.85
-1843.4
-1846.91
-1850.44
-1854.02
-1857.63
-1861.21
-1864.79
-1868.41
-1872.08
-1875.73
-1879.37
-1883.04
-1886.76
-1890.48
-1894.17
-1897.89
-1901.66
-1905.45
-1909.22
-1912.98
-1916.79
-1920.65
-1924.49
-1928.32
-1932.18
-1936.09
-1940.01
-1943.9
-1947.81
-1951.77
-1955.76
-1959.73
-1963.69
-1967.7
-1971.75
-1975.8
-1979.83
-1983.88
-1987.99
-1992.12
-1996.22
-2000.32
-2004.48
-2008.67
-2012.86
-2017.02
-2021.22
-2025.48
-2029.75
-2033.99
-2038.24
-2042.55
-2046.89
-2051.21
-2055.53
-2059.89
-2064.29
-2068.7
-2073.08
-2077.49
-2081.96
-2086.44
-2090.9
-2095.36
-2099.88
-2104.44
-2108.98
-2113.51
-2118.07
-2122.69
-2127.32
-2131.93
-2136.54
-2141.21
-2145.92
-2150.61
-2155.29
-2160.01
-2164.78
-2169.55
-2174.31
-2179.08
-2183.9
-2188.76
-2193.59
-2198.42
-2203.29
-2208.22
-2213.14
-2218.04
-2222.96
-2227.94
-2232.94
-2237.92
-2242.9
-2247.92
-2252.99
-2258.06
-2263.1
-2268.17
-2273.29
-2278.44
-2283.57
-2288.69
-2293.85
-2299.07
-2304.28
-2309.46
-2314.67
-2319.94
-2325.23
-2330.49
-2335.75
-2341.05
-2346.4
-2351.75
-2357.07
-2362.41
-2367.81
-2373.23
-2378.64
-2384.03
-2389.45
-2394.93
-2400.42
-2405.87
-2411.33
-2416.84
-2422.39
-2427.92
-2433.43
-2438.97
-2444.57
-2450.17
-2455.74
-2461.31
-2466.93
-2472.59
-2478.24
-2483.86
-2489.5
-2495.2
-2500.9
-2506.58
-2512.25
-2517.97
-2523.72
-2529.46
-2535.17
-2540.9
-2546.68
-2552.48
-2558.24
-2564
-2569.78
-2575.61
-2581.44
-2587.23
-2593.02
-2598.86
-2604.72
-2610.57
-2616.38
-2622.22
-2628.1
-2633.98
-2639.83
-2645.67
-2651.55
-2657.45
-2663.34
-2669.2
-2675.06
-2680.97
-2686.89
-2692.77
-2698.63
-2704.52
-2710.45
-2716.36
-2722.23
-2728.1
-2734
-2739.93
-2745.82
-2751.68
-2757.55
-2763.46
-2769.37
-2775.23
-2781.07
-2786.94
-2792.84
-2798.72
-2804.55
-2810.37
-2816.23
-2822.1
-2827.93
-2833.73
-2839.52
-2845.35
-2851.18
-2856.96
-2862.71
-2868.48
-2874.27
-2880.04
-2885.76
-2891.46
-2897.18
-2902.92
-2908.62
-2914.28
-2919.92
-2925.59
-2931.26
-2936.88
-2942.47
-2948.05
-2953.65
-2959.24
-2964.77
-2970.27
-2975.79
-2981.31
-2986.79
-2992.23
-2997.65
-3003.08
-3008.51
-3013.89
-3019.22
-3024.55
-3029.89
-3035.21
-3040.47
-3045.7
-3050.92
-3056.16
-3061.35
-3066.49
-3071.61
-3076.72
-3081.84
-3086.91
-3091.92
-3096.91
-3101.91
-3106.9
-3111.83
-3116.7
-3121.57
-3126.44
-3131.29
-3136.07
-3140.81
-3145.54
-3150.28
-3154.97
-3159.61
-3164.2
-3168.79
-3173.39
-3177.93
-3182.41
-3186.85
-3191.3
-3195.74
-3200.12
-3204.44
-3208.74
-3213.03
-3217.31
-3221.53
-3225.68
-3229.82
-3233.97
-3238.08
-3242.13
-3246.12
-3250.1
-3254.09
-3258.03
-3261.91
-3265.74
-3269.56
-3273.38
-3277.15
-3280.86
-3284.52
-3288.19
-3291.84
-3295.44
-3298.97
-3302.47
-3305.98
-3309.46
-3312.89
-3316.25
-3319.59
-3322.94
-3326.25
-3329.5
-3332.7
-3335.88
-3339.06
-3342.21
-3345.29
-3348.33
-3351.35
-3354.37
-3357.35
-3360.27
-3363.15
-3366.02
-3368.88
-3371.7
-3374.45
-3377.17
-3379.89
-3382.59
-3385.25
-3387.85
-3390.42
-3392.99
-3395.54
-3398.04
-3400.49
-3402.92
-3405.34
-3407.75
-3410.1
-3412.4
-3414.69
-3416.98
-3419.24
-3421.45
-3423.61
-3425.76
-3427.92
-3430.04
-3432.12
-3434.15
-3436.17
-3438.19
-3440.19
-3442.14
-3444.04
-3445.94
-3447.84
-3449.72
-3451.54
-3453.33
-3455.11
-3456.9
-3458.65
-3460.36
-3462.04
-3463.71
-3465.39
-3467.04
-3468.64
-3470.21
-3471.78
-3473.35
-3474.89
-3476.4
-3477.87
-3479.35
-3480.82
-3482.27
-3483.67
-3485.06
-3486.45
-3487.83
-3489.18
-3490.51
-3491.81
-3493.11
-3494.41
-3495.68
-3496.92
-3498.15
-3499.37
-3500.6
-3501.8
-3502.96
-3504.11
-3505.27
-3506.42
-3507.55
-3508.65
-3509.74
-3510.83
-3511.92
-3512.98
-3514.02
-3515.04
-3516.07
-3517.11
-3518.12
-3519.09
-3520.06
-3521.04
-3522.02
-3522.98
-3523.91
-3524.82
-3525.75
-3526.69
-3527.6
-3528.48
-3529.35
-3530.23
-3531.13
-3532
-3532.84
-3533.67
-3534.51
-3535.36
-3536.2
-3537
-3537.79
-3538.6
-3539.42
-3540.22
-3540.99
-3541.75
-3542.53
-3543.31
-3544.08
-3544.83
-3545.56
-3546.31
-3547.06
-3547.8
-3548.52
-3549.24
-3549.96
-3550.68
-3551.4
-3552.1
-3552.79
-3553.49
-3554.2
-3554.89
-3555.57
-3556.24
-3556.92
-3557.61
-3558.29
-3558.95
-3559.6
-3560.26
-3560.93
-3561.6
-3562.25
-3562.88
-3563.53
-3564.18
-3564.84
-3565.47
-3566.09
-3566.72
-3567.37
-3568.01
-3568.64
-3569.25
-3569.87
-3570.5
-3571.13
-3571.75
-3572.35
-3572.96
-3573.58
-3574.21
-3574.82
-3575.41
-3576.01
-3576.62
-3577.24
-3577.84
-3578.43
-3579.02
-3579.62
-3580.24
-3580.84
-3581.42
-3582
-3582.6
-3583.2
-3583.8
-3584.38
-3584.96
-3585.55
-3586.15
-3586.74
-3587.32
-3587.9
-3588.48
-3589.07
-3589.66
-3590.24
-3590.81
-3591.39
-3591.98
-3592.57
-3593.15
-3593.71
-3594.29
-3594.87
-3595.46
-3596.04
-3596.6
-3597.17
-3597.75
-3598.34
-3598.92
-3599.48
-3600.05
-3600.63
-3601.21
-3601.79
-3602.35
-3602.92
-3603.49
-3604.08
-3604.66
-3605.22
-3605.78
-3606.35
-3606.94
-3607.52
-3608.08
-3608.64
-3609.21
-3609.79
-3610.37
-3610.94
-3611.5
-3612.07
-3612.64
-3613.23
-3613.8
-3614.36
-3614.92
-3615.49
-3616.08
-3616.65
-3617.21
-3617.77
-3618.34
-3618.93
-3619.5
-3620.07
-3620.63
-3621.2
-3621.77
-3622.35
-3622.92
-3623.48
-3624.05
-3624.62
-3625.2
-3625.77
-3626.33
-3626.9
-3627.47
-3628.05
-3628.62
-3629.19
-3629.75
-3630.32
-3630.9
-3631.48
-3632.04
-3632.61
-3633.18
-3633.76
-3634.33
-3634.9
-3635.46
-3636.03
-3636.61
-3637.19
-3637.76
-3638.32
-3638.89
-3639.46
-3640.04
-3640.62
-3641.18
-3641.74
-3642.32
-3642.9
-3643.48
-3644.04
-3644.6
-3645.18
-3645.76
-3646.34
-3646.91
-3647.47
-3648.04
-3648.62
-3649.2
-3649.77
-3650.34
-3650.9
-3651.48
-3652.06
-3652.64
-3653.21
-3653.77
-3654.34
-3654.92
-3655.5
-3656.08
-3656.64
-3657.21
-3657.79
-3658.37
-3658.95
-3659.51
-3660.08
-3660.66
-3661.24
-3661.82
-3662.39
-3662.96
-3663.53
-3664.11
-3664.69
-3665.26
-3665.83
-3666.41
-3666.99
-3667.57
-3668.14
-3668.71
-3669.28
-3669.86
-3670.45
-3671.02
-3671.59
-3672.16
-3672.74
-3673.33
-3673.91
-3674.48
-3675.04
-3675.62
-3676.2
-3676.79
-3677.36
-3677.93
-3678.5
-3679.08
-3679.67
-3680.25
-3680.82
-3681.39
-3681.97
-3682.55
-3683.13
-3683.71
-3684.28
-3684.85
-3685.43
-3686.02
-3686.6
-3687.17
-3687.75
-3688.32
-3688.91
-3689.49
-3690.07
-3690.64
-3691.22
-3691.8
-3692.38
-3692.96
-3693.54
-3694.11
-3694.7
-3695.28
-3695.86
-3696.43
-3697.01
-3697.59
-3698.18
-3698.76
-3699.33
-3699.91
-3700.49
-3701.08
-3701.66
-3702.24
-3702.81
-3703.39
-3703.97
-3704.56
-3705.14
-3705.72
-3706.29
-3706.87
-3707.46
-3708.05
-3708.63
-3709.2
-3709.78
-3710.36
-3710.95
-3711.54
-3712.11
-3712.69
-3713.27
-3713.86
-3714.45
-3715.03
-3715.6
-3716.18
-3716.77
-3717.35
-3717.94
-3718.52
-3719.1
-3719.68
-3720.27
-3720.85
-3721.44
-3722.02
-3722.6
-3723.18
-3723.77
-3724.35
-3724.93
-3725.52
-3726.1
-3726.69
-3727.27
-3727.85
-3728.43
-3729.02
-3729.61
-3730.19
-3730.78
-3731.36
-3731.94
-3732.53
-3733.12
-3733.7
-3734.28
-3734.86
-3735.45
-3736.04
-3736.63
-3737.21
-3737.79
-3738.38
-3738.96
-3739.56
-3740.15
-3740.73
-3741.31
-3741.89
-3742.48
-3743.08
-3743.66
-3744.24
-3744.82
-3745.41
-3746.01
-3746.6
-3747.18
-3747.76
-3748.35
-3748.94
-3749.53
-3750.12
-3750.7
-3751.29
-3751.87
-3752.47
-3753.06
-3753.64
-3754.23
-3754.82
-3755.41
-3756
-3756.58
-3757.17
-3757.76
-3758.35
-3758.94
-3759.53
-3760.12
-3760.7
-3761.29
-3761.88
-3762.48
-3763.06
-3763.65
-3764.24
-3764.83
-3765.42
-3766.01
-3766.6
-3767.19
-3767.78
-3768.37
-3768.97
-3769.55
-3770.14
-3770.73
-3771.32
-3771.91
-3772.51
-3773.1
-3773.68
-3774.27
-3774.87
-3775.46
-3776.06
-3776.64
-3777.23
-3777.82
-3778.42
-3779.01
-3779.6
-3780.19
-3780.78
-3781.37
-3781.97
-3782.56
-3783.16
-3783.74
-3784.34
-3784.93
-3785.52
-3786.12
-3786.71
-3787.3
-3787.89
-3788.49
-3789.08
-3789.67
-3790.27
-3790.86
-3791.45
-3792.05
-3792.64
-3793.23
-3793.82
-3794.42
-3795.02
-3795.61
-3796.2
-3796.79
-3797.39
-3797.98
-3798.58
-3799.18
-3799.77
-3800.36
-3800.95
-3801.55
-3802.15
-3802.74
-3803.34
-3803.93
-3804.52
-3805.12
-3805.72
-3806.31
-3806.91
-3807.5
-3808.1
-3808.69
-3809.29
-3809.89
-3810.48
-3811.07
-3811.67
-3812.27
-3812.87
-3813.46
-3814.06
-3814.65
-3815.25
-3815.85
-3816.44
-3817.04
-3817.63
-3818.23
-3818.83
-3819.43
-3820.02
-3820.62
-3821.21
-3821.81
-3822.41
-3823.01
-3823.6
-3824.2
-3824.8
-3825.4
-3826
-3826.59
-3827.19
-3827.78
-3828.38
-3828.98
-3829.58
-3830.18
-3830.77
-3831.37
-3831.97
-3832.57
-3833.17
-3833.77
-3834.36
-3834.96
-3835.56
-3836.16
-3836.76
-3837.36
-3837.95
-3838.55
-3839.15
-3839.75
-3840.35
-3840.95
-3841.55
-3842.15
-3842.75
-3843.35
-3843.95
-3844.54
-3845.14
-3845.74
-3846.34
-3846.94
-3847.54
-3848.14
-3848.74
-3849.34
-3849.94
-3850.54
-3851.14
-3851.74
-3852.34
-3852.94
-3853.54
-3854.14
-3854.74
-3855.34
-3855.94
-3856.55
-3857.14
-3857.74
-3858.34
-3858.94
-3859.55
-3860.15
-3860.75
-3861.35
-3861.95
-3862.55
-3863.15
-3863.76
-3864.36
-3864.95
-3865.55
-3866.16
-3866.76
-3867.36
-3867.96
-3868.56
-3869.16
-3869.77
-3870.37
-3870.97
-3871.57
-3872.17
-3872.78
-3873.38
-3873.98
-3874.58
-3875.19
-3875.79
-3876.39
-3876.99
-3877.6
-3878.2
-3878.8
-3879.4
-3880.01
-3880.61
-3881.21
-3881.81
-3882.41
-3883.02
-3883.62
-3884.23
-3884.83
-3885.43
-3886.03
-3886.64
-3887.24
-3887.85
-3888.45
-3889.05
-3889.65
-3890.26
-3890.86
-3891.47
-3892.07
-3892.68
-3893.28
-3893.88
-3894.49
-3895.09
-3895.7
-3896.3
-3896.9
-3897.51
-3898.11
-3898.72
-3899.32
-3899.93
-3900.53
-3901.14
-3901.74
-3902.35
-3902.95
-3903.56
-3904.16
-3904.77
-3905.37
-3905.98
-3906.58
-3907.19
-3907.79
-3908.4
-3909.01
-3909.61
-3910.22
-3910.82
-3911.43
-3912.03
-3912.64
-3913.25
-3913.85
-3914.46
-3915.06
-3915.67
-3916.28
-3916.88
-3917.49
-3918.09
-3918.7
-3919.31
-3919.92
-3920.52
-3921.13
-3921.74
-3922.34
-3922.95
-3923.56
-3924.17
-3924.77
-3925.38
-3925.99
-3926.6
-3927.2
-3927.81
-3928.42
-3929.03
-3929.63
-3930.24
-3930.85
-3931.46
-3932.07
-3932.67
-3933.28
-3933.89
-3934.5
-3935.11
-3935.72
-3936.33
-3936.94
-3937.54
-3938.15
-3938.76
-3939.37
-3939.98
-3940.59
-3941.2
-3941.81
-3942.42
-3943.03
-3943.64
-3944.25
-3944.86
-3945.47
-3946.07
-3946.68
-3947.3
-3947.91
-3948.52
-3949.13
-3949.74
-3950.35
-3950.96
-3951.57
-3952.18
-3952.79
-3953.4
-3954.01
-3954.62
-3955.23
-3955.85
-3956.46
-3957.07
-3957.68
-3958.29
-3958.9
-3959.52
-3960.13
-3960.74
-3961.35
-3961.96
-3962.57
-3963.19
-3963.8
-3964.41
-3965.02
-3965.64
-3966.25
-3966.86
-3967.47
-3968.09
-3968.7
-3969.31
-3969.93
-3970.54
-3971.15
-3971.77
-3972.38
-3972.99
-3973.61
-3974.22
-3974.83
-3975.45
-3976.06
-3976.68
-3977.29
-3977.91
-3978.52
-3979.13
-3979.75
-3980.36
-3980.98
-3981.59
-3982.21
-3982.82
-3983.44
-3984.05
-3984.67
-3985.28
-3985.9
-3986.51
-3987.13
-3987.75
-3988.36
-3988.98
-3989.59
-3990.21
-3990.83
-3991.44
-3992.06
-3992.68
-3993.29
-3993.91
-3994.53
-3995.14
-3995.76
-3996.38
-3996.99
-3997.61
-3998.23
-3998.85
-3999.46
-4000.08
-4000.7
-4001.32
-4001.94
-4002.55
-4003.17
-4003.79
-4004.41
-4005.03
-4005.65
-4006.26
-4006.88
-4007.5
-4008.12
-4008.74
-4009.36
-4009.98
-4010.6
-4011.22
-4011.84
-4012.46
-4013.08
-4013.7
-4014.32
-4014.94
-4015.56
-4016.18
-4016.8
-4017.42
-4018.04
-4018.66
-4019.28
-4019.9
-4020.52
-4021.14
-4021.76
-4022.39
-4023.01
-4023.63
-4024.25
-4024.87
-4025.49
-4026.12
-4026.74
-4027.36
-4027.98
-4028.61
-4029.23
-4029.85
-4030.47
-4031.1
-4031.72
-4032.34
-4032.97
-4033.59
-4034.21
-4034.83
-4035.46
-4036.08
-4036.71
-4037.33
-4037.95
-4038.58
-4039.2
-4039.83
-4040.45
-4041.08
-4041.7
-4042.32
-4042.95
-4043.57
-4044.2
-4044.82
-4045.45
-4046.08
-4046.7
-4047.33
-4047.95
-4048.58
-4049.2
-4049.83
-4050.46
-4051.08
-4051.71
-4052.33
-4052.96
-4053.59
-4054.21
-4054.84
-4055.47
-4056.09
-4056.72
-4057.35
-4057.98
-4058.6
-4059.23
-4059.86
-4060.49
-4061.11
-4061.74
-4062.37
-4063
-4063.63
-4064.26
-4064.88
-4065.51
-4066.14
-4066.77
-4067.4
-4068.03
-4068.66
-4069.28
-4069.91
-4070.54
-4071.17
-4071.8
-4072.43
-4073.06
-4073.69
-4074.32
-4074.95
-4075.58
-4076.21
-4076.84
-4077.47
-4078.1
-4078.73
-4079.36
-4079.99
-4080.62
-4081.26
-4081.89
-4082.52
-4083.15
-4083.78
-4084.41
-4085.04
-4085.68
-4086.31
-4086.94
-4087.57
-4088.2
-4088.83
-4089.47
-4090.1
-4090.73
-4091.36
-4092
-4092.63
-4093.26
-4093.89
-4094.53
-4095.16
-4095.79
-4096.43
-4097.06
-4097.69
-4098.33
-4098.96
-4099.6
-4100.23
-4100.86
-4101.5
-4102.13
-4102.76
-4103.4
-4104.03
-4104.67
-4105.3
-4105.94
-4106.57
-4107.2
-4107.84
-4108.47
-4109.11
-4109.75
-4110.38
-4111.01
-4111.65
-4112.28
-4112.92
-4113.56
-4114.19
-4114.83
-4115.46
-4116.1
-4116.73
-4117.37
-4118.01
-4118.64
-4119.28
-4119.91
-4120.55
-4121.19
-4121.82
-4122.46
-4123.1
-4123.73
-4124.37
-4125.01
-4125.64
-4126.28
-4126.92
-4127.56
-4128.19
-4128.83
-4129.47
-4130.11
-4130.74
-4131.38
-4132.02
-4132.66
-4133.29
-4133.93
-4134.57
-4135.21
-4135.85
-4136.48
-4137.12
-4137.76
-4138.4
-4139.04
-4139.68
-4140.31
-4140.95
-4141.59
-4142.23
-4142.87
-4143.51
-4144.15
-4144.79
-4145.43
-4146.07
-4146.71
-4147.35
-4147.98
-4148.62
-4149.26
-4149.9
-4150.54
-4151.18
-4151.82
-4152.46
-4153.1
-4153.74
-4154.38
-4155.02
-4155.66
-4156.3
-4156.95
-4157.59
-4158.22
-4158.87
-4159.51
-4160.15
-4160.79
-4161.43
-4162.07
-4162.71
-4163.35
-4163.99
-4164.63
-4165.28
-4165.92
-4166.56
-4167.2
-4167.84
-4168.48
-4169.12
-4169.77
-4170.41
-4171.05
-4171.69
-4172.33
-4172.98
-4173.62
-4174.26
-4174.9
-4175.55
-4176.19
-4176.83
-4177.47
-4178.12
-4178.76
-4179.4
-4180.05
-4180.69
-4181.33
-4181.97
-4182.62
-4183.26
-4183.9
-4184.55
-4185.19
-4185.83
-4186.48
-4187.12
-4187.76
-4188.41
-4189.05
-4189.7
-4190.34
-4190.98
-4191.63
-4192.27
-4192.91
-4193.56
-4194.2
-4194.85
-4195.49
-4196.14
-4196.78
-4197.43
-4198.07
-4198.72
-4199.36
-4200.01
-4200.65
-4201.3
-4201.94
-4202.58
-4203.23
-4203.88
-4204.52
-4205.17
-4205.81
-4206.46
-4207.1
-4207.75
-4208.39
-4209.04
-4209.69
-4210.33
-4210.98
-4211.62
-4212.27
-4212.92
-4213.56
-4214.21
-4214.86
-4215.5
-4216.15
-4216.8
-4217.44
-4218.09
-4218.74
-4219.38
-4220.03
-4220.68
-4221.32
-4221.97
-4222.62
-4223.27
-4223.91
-4224.56
-4225.21
-4225.86
-4226.5
-4227.15
-4227.8
-4228.45
-4229.1
-4229.74
-4230.39
-4231.04
-4231.69
-4232.34
-4232.98
-4233.63
-4234.28
-4234.93
-4235.58
-4236.23
-4236.88
-4237.52
-4238.17
-4238.82
-4239.47
-4240.12
-4240.77
-4241.42
-4242.07
-4242.72
-4243.37
-4244.02
-4244.67
-4245.32
-4245.97
-4246.62
-4247.27
-4247.92
-4248.57
-4249.22
-4249.87
-4250.52
-4251.17
-4251.82
-4252.47
-4253.12
-4253.77
-4254.42
-4255.07
-4255.72
-4256.37
-4257.02
-4257.68
-4258.33
-4258.98
-4259.63
-4260.28
-4260.93
-4261.58
-4262.24
-4262.89
-4263.54
-4264.19
-4264.84
-4265.5
-4266.15
-4266.8
-4267.45
-4268.1
-4268.76
-4269.41
-4270.06
-4270.71
-4271.37
-4272.02
-4272.67
-4273.33
-4273.98
-4274.63
-4275.28
-4275.94
-4276.59
-4277.24
-4277.9
-4278.55
-4279.2
-4279.86
-4280.51
-4281.17
-4281.82
-4282.47
-4283.13
-4283.78
-4284.44
-4285.09
-4285.75
-4286.4
-4287.05
-4287.71
-4288.36
-4289.02
-4289.67
-4290.33
-4290.98
-4291.64
-4292.29
-4292.95
-4293.6
-4294.26
-4294.91
-4295.57
-4296.23
-4296.88
-4297.54
-4298.19
-4298.85
-4299.51
-4300.16
-4300.82
-4301.47
-4302.13
-4302.79
-4303.44
-4304.1
-4304.76
-4305.41
-4306.07
-4306.73
-4307.38
-4308.04
-4308.7
-4309.36
-4310.01
-4310.67
-4311.33
-4311.99
-4312.64
-4313.3
-4313.96
-4314.62
-4315.27
-4315.93
-4316.59
-4317.25
-4317.91
-4318.57
-4319.23
-4319.88
-4320.54
-4321.2
-4321.86
-4322.52
-4323.18
-4323.84
-4324.5
-4325.16
-4325.82
-4326.47
-4327.13
-4327.79
-4328.45
-4329.11
-4329.77
-4330.43
-4331.09
-4331.75
-4332.41
-4333.07
-4333.74
-4334.4
-4335.06
-4335.72
-4336.38
-4337.04
-4337.7
-4338.36
-4339.02
-4339.68
-4340.35
-4341.01
-4341.67
-4342.33
-4342.99
-4343.65
-4344.32
-4344.98
-4345.64
-4346.3
-4346.96
-4347.63
-4348.29
-4348.95
-4349.61
-4350.28
-4350.94
-4351.6
-4352.27
-4352.93
-4353.59
-4354.26
-4354.92
-4355.58
-4356.25
-4356.91
-4357.57
-4358.24
-4358.9
-4359.57
-4360.23
-4360.89
-4361.56
-4362.22
-4362.89
-4363.55
-4364.22
-4364.88
-4365.55
-4366.21
-4366.88
-4367.54
-4368.21
-4368.87
-4369.54
-4370.2
-4370.87
-4371.54
-4372.2
-4372.87
-4373.54
-4374.2
-4374.87
-4375.53
-4376.2
-4376.87
-4377.53
-4378.2
-4378.87
-4379.53
-4380.2
-4380.87
-4381.54
-4382.2
-4382.87
-4383.54
-4384.21
-4384.87
-4385.54
-4386.21
-4386.88
-4387.55
-4388.22
-4388.88
-4389.55
-4390.22
-4390.89
-4391.56
-4392.23
-4392.9
-4393.57
-4394.24
-4394.9
-4395.57
-4396.24
-4396.91
-4397.58
-4398.25
-4398.92
-4399.59
-4400.26
-4400.93
-4401.6
-4402.27
-4402.94
-4403.62
-4404.29
-4404.96
-4405.63
-4406.3
-4406.97
-4407.64
-4408.31
-4408.98
-4409.66
-4410.33
-4411
-4411.67
-4412.34
-4413.01
-4413.69
-4414.36
-4415.03
-4415.7
-4416.38
-4417.05
-4417.72
-4418.4
-4419.07
-4419.74
-4420.41
-4421.09
-4421.76
-4422.44
-4423.11
-4423.78
-4424.46
-4425.13
-4425.8
-4426.48
-4427.15
-4427.83
-4428.5
-4429.17
-4429.85
-4430.52
-4431.2
-4431.87
-4432.55
-4433.22
-4433.9
-4434.57
-4435.25
-4435.92
-4436.6
-4437.28
-4437.95
-4438.63
-4439.3
-4439.98
-4440.66
-4441.33
-4442.01
-4442.68
-4443.36
-4444.04
-4444.71
-4445.39
-4446.07
-4446.74
-4447.42
-4448.1
-4448.78
-4449.45
-4450.13
-4450.81
-4451.49
-4452.16
-4452.84
-4453.52
-4454.2
-4454.88
-4455.55
-4456.23
-4456.91
-4457.59
-4458.27
-4458.95
-4459.62
-4460.3
-4460.98
-4461.66
-4462.34
-4463.02
-4463.7
-4464.38
-4465.06
-4465.74
-4466.42
-4467.1
-4467.78
-4468.46
-4469.14
-4469.82
-4470.5
-4471.18
-4471.86
-4472.54
-4473.22
-4473.9
-4474.58
-4475.26
-4475.94
-4476.62
-4477.3
-4477.99
-4478.67
-4479.35
-4480.03
-4480.71
-4481.39
-4482.07
-4482.76
-4483.44
-4484.12
-4484.8
-4485.48
-4486.17
-4486.85
-4487.53
-4488.21
-4488.9
-4489.58
-4490.26
-4490.94
-4491.63
-4492.31
-4492.99
-4493.68
-4494.36
-4495.04
-4495.73
-4496.41
-4497.09
-4497.78
-4498.46
-4499.15
-4499.83
-4500.51
-4501.2
-4501.88
-4502.57
-4503.25
-4503.93
-4504.62
-4505.3
-4505.99
-4506.67
-4507.36
-4508.04
-4508.73
-4509.41
-4510.1
-4510.78
-4511.47
-4512.16
-4512.84
-4513.53
-4514.21
-4514.9
-4515.58
-4516.27
-4516.96
-4517.64
-4518.33
-4519.01
-4519.7
-4520.39
-4521.07
-4521.76
-4522.45
-4523.13
-4523.82
-4524.51
-4525.2
-4525.88
-4526.57
-4527.26
-4527.94
-4528.63
-4529.32
-4530.01
-4530.69
-4531.38
-4532.07
-4532.76
-4533.45
-4534.13
-4534.82
-4535.51
-4536.2
-4536.89
-4537.58
-4538.26
-4538.95
-4539.64
-4540.33
-4541.02
-4541.71
-4542.4
-4543.09
-4543.78
-4544.47
-4545.16
-4545.84
-4546.53
-4547.22
-4547.91
-4548.6
-4549.29
-4549.98
-4550.67
-4551.36
-4552.05
-4552.74
-4553.44
-4554.13
-4554.82
-4555.51
-4556.2
-4556.89
-4557.58
-4558.27
-4558.96
-4559.65
-4560.34
-4561.04
-4561.73
-4562.42
-4563.11
-4563.8
-4564.49
-4565.18