/*--------------------------------*- C++ -*----------------------------------*\
  =========                 |
  \\      /  F ield         | OpenFOAM: The Open Source CFD Toolbox
   \\    /   O peration     | Website:  https://openfoam.org
    \\  /    A nd           | Version:  9
     \\/     M anipulation  |
\*---------------------------------------------------------------------------*/
FoamFile
{
    format      ascii;
    class       volVectorField;
    location    "0.045";
    object      U;
}
// * * * * * * * * * * * * * * * * * * * * * * * * * * * * * * * * * * * * * //

dimensions      [0 1 -1 0 0 0 0];

internalField   nonuniform List<vector> 
10000
(
(8.33999 0 0)
(8.36922 0 0)
(8.40553 0 0)
(8.43526 0 0)
(8.46135 0 0)
(8.4873 0 0)
(8.51393 0 0)
(8.54084 0 0)
(8.56773 0 0)
(8.59456 0 0)
(8.62137 0 0)
(8.64818 0 0)
(8.675 0 0)
(8.70182 0 0)
(8.72864 0 0)
(8.75545 0 0)
(8.78227 0 0)
(8.80909 0 0)
(8.83591 0 0)
(8.86273 0 0)
(8.88955 0 0)
(8.91637 0 0)
(8.94319 0 0)
(8.97001 0 0)
(8.99683 0 0)
(9.02364 0 0)
(9.05046 0 0)
(9.07728 0 0)
(9.1041 0 0)
(9.13092 0 0)
(9.15774 0 0)
(9.18456 0 0)
(9.21138 0 0)
(9.2382 0 0)
(9.26502 0 0)
(9.29184 0 0)
(9.31866 0 0)
(9.34548 0 0)
(9.3723 0 0)
(9.39912 0 0)
(9.42595 0 0)
(9.45277 0 0)
(9.47959 0 0)
(9.50641 0 0)
(9.53323 0 0)
(9.56005 0 0)
(9.58687 0 0)
(9.61369 0 0)
(9.64051 0 0)
(9.66733 0 0)
(9.69415 0 0)
(9.72098 0 0)
(9.7478 0 0)
(9.77462 0 0)
(9.80144 0 0)
(9.82826 0 0)
(9.85508 0 0)
(9.8819 0 0)
(9.90873 0 0)
(9.93555 0 0)
(9.96237 0 0)
(9.98919 0 0)
(10.016 0 0)
(10.0428 0 0)
(10.0697 0 0)
(10.0965 0 0)
(10.1233 0 0)
(10.1501 0 0)
(10.1769 0 0)
(10.2038 0 0)
(10.2306 0 0)
(10.2574 0 0)
(10.2842 0 0)
(10.3111 0 0)
(10.3379 0 0)
(10.3647 0 0)
(10.3915 0 0)
(10.4183 0 0)
(10.4452 0 0)
(10.472 0 0)
(10.4988 0 0)
(10.5256 0 0)
(10.5525 0 0)
(10.5793 0 0)
(10.6061 0 0)
(10.6329 0 0)
(10.6598 0 0)
(10.6866 0 0)
(10.7134 0 0)
(10.7402 0 0)
(10.767 0 0)
(10.7939 0 0)
(10.8207 0 0)
(10.8475 0 0)
(10.8743 0 0)
(10.9012 0 0)
(10.928 0 0)
(10.9548 0 0)
(10.9816 0 0)
(11.0085 0 0)
(11.0353 0 0)
(11.0621 0 0)
(11.0889 0 0)
(11.1158 0 0)
(11.1426 0 0)
(11.1694 0 0)
(11.1962 0 0)
(11.223 0 0)
(11.2499 0 0)
(11.2767 0 0)
(11.3035 0 0)
(11.3303 0 0)
(11.3572 0 0)
(11.384 0 0)
(11.4108 0 0)
(11.4376 0 0)
(11.4645 0 0)
(11.4913 0 0)
(11.5181 0 0)
(11.5449 0 0)
(11.5718 0 0)
(11.5986 0 0)
(11.6254 0 0)
(11.6522 0 0)
(11.6791 0 0)
(11.7059 0 0)
(11.7327 0 0)
(11.7595 0 0)
(11.7863 0 0)
(11.8132 0 0)
(11.84 0 0)
(11.8668 0 0)
(11.8936 0 0)
(11.9205 0 0)
(11.9473 0 0)
(11.9741 0 0)
(12.0009 0 0)
(12.0278 0 0)
(12.0546 0 0)
(12.0814 0 0)
(12.1082 0 0)
(12.1351 0 0)
(12.1619 0 0)
(12.1887 0 0)
(12.2155 0 0)
(12.2424 0 0)
(12.2692 0 0)
(12.296 0 0)
(12.3228 0 0)
(12.3496 0 0)
(12.3765 0 0)
(12.4033 0 0)
(12.4301 0 0)
(12.4569 0 0)
(12.4838 0 0)
(12.5106 0 0)
(12.5374 0 0)
(12.5642 0 0)
(12.5911 0 0)
(12.6179 0 0)
(12.6447 0 0)
(12.6715 0 0)
(12.6984 0 0)
(12.7252 0 0)
(12.752 0 0)
(12.7788 0 0)
(12.8057 0 0)
(12.8325 0 0)
(12.8593 0 0)
(12.8861 0 0)
(12.9129 0 0)
(12.9398 0 0)
(12.9666 0 0)
(12.9934 0 0)
(13.0202 0 0)
(13.0471 0 0)
(13.0739 0 0)
(13.1007 0 0)
(13.1275 0 0)
(13.1544 0 0)
(13.1812 0 0)
(13.208 0 0)
(13.2348 0 0)
(13.2616 0 0)
(13.2885 0 0)
(13.3153 0 0)
(13.3421 0 0)
(13.3689 0 0)
(13.3958 0 0)
(13.4226 0 0)
(13.4494 0 0)
(13.4762 0 0)
(13.5031 0 0)
(13.5299 0 0)
(13.5567 0 0)
(13.5835 0 0)
(13.6103 0 0)
(13.6372 0 0)
(13.664 0 0)
(13.6908 0 0)
(13.7176 0 0)
(13.7445 0 0)
(13.7713 0 0)
(13.7981 0 0)
(13.8249 0 0)
(13.8517 0 0)
(13.8786 0 0)
(13.9054 0 0)
(13.9322 0 0)
(13.959 0 0)
(13.9859 0 0)
(14.0127 0 0)
(14.0395 0 0)
(14.0663 0 0)
(14.0931 0 0)
(14.12 0 0)
(14.1468 0 0)
(14.1736 0 0)
(14.2004 0 0)
(14.2272 0 0)
(14.2541 0 0)
(14.2809 0 0)
(14.3077 0 0)
(14.3345 0 0)
(14.3613 0 0)
(14.3882 0 0)
(14.415 0 0)
(14.4418 0 0)
(14.4686 0 0)
(14.4954 0 0)
(14.5223 0 0)
(14.5491 0 0)
(14.5759 0 0)
(14.6027 0 0)
(14.6295 0 0)
(14.6564 0 0)
(14.6832 0 0)
(14.71 0 0)
(14.7368 0 0)
(14.7636 0 0)
(14.7905 0 0)
(14.8173 0 0)
(14.8441 0 0)
(14.8709 0 0)
(14.8977 0 0)
(14.9246 0 0)
(14.9514 0 0)
(14.9782 0 0)
(15.005 0 0)
(15.0318 0 0)
(15.0587 0 0)
(15.0855 0 0)
(15.1123 0 0)
(15.1391 0 0)
(15.1659 0 0)
(15.1927 0 0)
(15.2196 0 0)
(15.2464 0 0)
(15.2732 0 0)
(15.3 0 0)
(15.3268 0 0)
(15.3537 0 0)
(15.3805 0 0)
(15.4073 0 0)
(15.4341 0 0)
(15.4609 0 0)
(15.4877 0 0)
(15.5146 0 0)
(15.5414 0 0)
(15.5682 0 0)
(15.595 0 0)
(15.6218 0 0)
(15.6486 0 0)
(15.6754 0 0)
(15.7023 0 0)
(15.7291 0 0)
(15.7559 0 0)
(15.7827 0 0)
(15.8095 0 0)
(15.8363 0 0)
(15.8632 0 0)
(15.89 0 0)
(15.9168 0 0)
(15.9436 0 0)
(15.9704 0 0)
(15.9972 0 0)
(16.024 0 0)
(16.0509 0 0)
(16.0777 0 0)
(16.1045 0 0)
(16.1313 0 0)
(16.1581 0 0)
(16.1849 0 0)
(16.2117 0 0)
(16.2385 0 0)
(16.2654 0 0)
(16.2922 0 0)
(16.319 0 0)
(16.3458 0 0)
(16.3726 0 0)
(16.3994 0 0)
(16.4262 0 0)
(16.453 0 0)
(16.4798 0 0)
(16.5067 0 0)
(16.5335 0 0)
(16.5603 0 0)
(16.5871 0 0)
(16.6139 0 0)
(16.6407 0 0)
(16.6675 0 0)
(16.6943 0 0)
(16.7211 0 0)
(16.748 0 0)
(16.7748 0 0)
(16.8016 0 0)
(16.8284 0 0)
(16.8552 0 0)
(16.882 0 0)
(16.9088 0 0)
(16.9356 0 0)
(16.9624 0 0)
(16.9892 0 0)
(17.016 0 0)
(17.0428 0 0)
(17.0697 0 0)
(17.0965 0 0)
(17.1233 0 0)
(17.1501 0 0)
(17.1769 0 0)
(17.2037 0 0)
(17.2305 0 0)
(17.2573 0 0)
(17.2841 0 0)
(17.3109 0 0)
(17.3377 0 0)
(17.3645 0 0)
(17.3913 0 0)
(17.4181 0 0)
(17.4449 0 0)
(17.4717 0 0)
(17.4985 0 0)
(17.5254 0 0)
(17.5522 0 0)
(17.579 0 0)
(17.6058 0 0)
(17.6326 0 0)
(17.6594 0 0)
(17.6862 0 0)
(17.713 0 0)
(17.7398 0 0)
(17.7666 0 0)
(17.7934 0 0)
(17.8202 0 0)
(17.847 0 0)
(17.8738 0 0)
(17.9006 0 0)
(17.9274 0 0)
(17.9542 0 0)
(17.981 0 0)
(18.0078 0 0)
(18.0346 0 0)
(18.0614 0 0)
(18.0882 0 0)
(18.115 0 0)
(18.1418 0 0)
(18.1686 0 0)
(18.1954 0 0)
(18.2222 0 0)
(18.249 0 0)
(18.2758 0 0)
(18.3026 0 0)
(18.3294 0 0)
(18.3562 0 0)
(18.383 0 0)
(18.4098 0 0)
(18.4366 0 0)
(18.4634 0 0)
(18.4901 0 0)
(18.5169 0 0)
(18.5437 0 0)
(18.5705 0 0)
(18.5973 0 0)
(18.6241 0 0)
(18.6509 0 0)
(18.6777 0 0)
(18.7045 0 0)
(18.7313 0 0)
(18.7581 0 0)
(18.7849 0 0)
(18.8117 0 0)
(18.8385 0 0)
(18.8653 0 0)
(18.8921 0 0)
(18.9188 0 0)
(18.9456 0 0)
(18.9724 0 0)
(18.9992 0 0)
(19.026 0 0)
(19.0528 0 0)
(19.0796 0 0)
(19.1064 0 0)
(19.1332 0 0)
(19.16 0 0)
(19.1867 0 0)
(19.2135 0 0)
(19.2403 0 0)
(19.2671 0 0)
(19.2939 0 0)
(19.3207 0 0)
(19.3475 0 0)
(19.3743 0 0)
(19.401 0 0)
(19.4278 0 0)
(19.4546 0 0)
(19.4814 0 0)
(19.5082 0 0)
(19.535 0 0)
(19.5618 0 0)
(19.5885 0 0)
(19.6153 0 0)
(19.6421 0 0)
(19.6689 0 0)
(19.6957 0 0)
(19.7224 0 0)
(19.7492 0 0)
(19.776 0 0)
(19.8028 0 0)
(19.8296 0 0)
(19.8564 0 0)
(19.8831 0 0)
(19.9099 0 0)
(19.9367 0 0)
(19.9635 0 0)
(19.9903 0 0)
(20.017 0 0)
(20.0438 0 0)
(20.0706 0 0)
(20.0974 0 0)
(20.1241 0 0)
(20.1509 0 0)
(20.1777 0 0)
(20.2045 0 0)
(20.2312 0 0)
(20.258 0 0)
(20.2848 0 0)
(20.3116 0 0)
(20.3383 0 0)
(20.3651 0 0)
(20.3919 0 0)
(20.4187 0 0)
(20.4454 0 0)
(20.4722 0 0)
(20.499 0 0)
(20.5258 0 0)
(20.5525 0 0)
(20.5793 0 0)
(20.6061 0 0)
(20.6328 0 0)
(20.6596 0 0)
(20.6864 0 0)
(20.7131 0 0)
(20.7399 0 0)
(20.7667 0 0)
(20.7935 0 0)
(20.8202 0 0)
(20.847 0 0)
(20.8738 0 0)
(20.9005 0 0)
(20.9273 0 0)
(20.954 0 0)
(20.9808 0 0)
(21.0076 0 0)
(21.0343 0 0)
(21.0611 0 0)
(21.0879 0 0)
(21.1146 0 0)
(21.1414 0 0)
(21.1682 0 0)
(21.1949 0 0)
(21.2217 0 0)
(21.2484 0 0)
(21.2752 0 0)
(21.302 0 0)
(21.3287 0 0)
(21.3555 0 0)
(21.3822 0 0)
(21.409 0 0)
(21.4358 0 0)
(21.4625 0 0)
(21.4893 0 0)
(21.516 0 0)
(21.5428 0 0)
(21.5695 0 0)
(21.5963 0 0)
(21.623 0 0)
(21.6498 0 0)
(21.6765 0 0)
(21.7033 0 0)
(21.7301 0 0)
(21.7568 0 0)
(21.7836 0 0)
(21.8103 0 0)
(21.8371 0 0)
(21.8638 0 0)
(21.8906 0 0)
(21.9173 0 0)
(21.9441 0 0)
(21.9708 0 0)
(21.9976 0 0)
(22.0243 0 0)
(22.051 0 0)
(22.0778 0 0)
(22.1045 0 0)
(22.1313 0 0)
(22.158 0 0)
(22.1848 0 0)
(22.2115 0 0)
(22.2383 0 0)
(22.265 0 0)
(22.2917 0 0)
(22.3185 0 0)
(22.3452 0 0)
(22.372 0 0)
(22.3987 0 0)
(22.4254 0 0)
(22.4522 0 0)
(22.4789 0 0)
(22.5057 0 0)
(22.5324 0 0)
(22.5591 0 0)
(22.5859 0 0)
(22.6126 0 0)
(22.6393 0 0)
(22.6661 0 0)
(22.6928 0 0)
(22.7195 0 0)
(22.7463 0 0)
(22.773 0 0)
(22.7997 0 0)
(22.8265 0 0)
(22.8532 0 0)
(22.8799 0 0)
(22.9067 0 0)
(22.9334 0 0)
(22.9601 0 0)
(22.9868 0 0)
(23.0136 0 0)
(23.0403 0 0)
(23.067 0 0)
(23.0937 0 0)
(23.1205 0 0)
(23.1472 0 0)
(23.1739 0 0)
(23.2006 0 0)
(23.2274 0 0)
(23.2541 0 0)
(23.2808 0 0)
(23.3075 0 0)
(23.3342 0 0)
(23.361 0 0)
(23.3877 0 0)
(23.4144 0 0)
(23.4411 0 0)
(23.4678 0 0)
(23.4946 0 0)
(23.5213 0 0)
(23.548 0 0)
(23.5747 0 0)
(23.6014 0 0)
(23.6281 0 0)
(23.6548 0 0)
(23.6815 0 0)
(23.7083 0 0)
(23.735 0 0)
(23.7617 0 0)
(23.7884 0 0)
(23.8151 0 0)
(23.8418 0 0)
(23.8685 0 0)
(23.8952 0 0)
(23.9219 0 0)
(23.9486 0 0)
(23.9753 0 0)
(24.002 0 0)
(24.0287 0 0)
(24.0554 0 0)
(24.0821 0 0)
(24.1088 0 0)
(24.1355 0 0)
(24.1622 0 0)
(24.1889 0 0)
(24.2156 0 0)
(24.2423 0 0)
(24.269 0 0)
(24.2957 0 0)
(24.3224 0 0)
(24.3491 0 0)
(24.3758 0 0)
(24.4025 0 0)
(24.4292 0 0)
(24.4559 0 0)
(24.4826 0 0)
(24.5093 0 0)
(24.5359 0 0)
(24.5626 0 0)
(24.5893 0 0)
(24.616 0 0)
(24.6427 0 0)
(24.6694 0 0)
(24.6961 0 0)
(24.7227 0 0)
(24.7494 0 0)
(24.7761 0 0)
(24.8028 0 0)
(24.8295 0 0)
(24.8561 0 0)
(24.8828 0 0)
(24.9095 0 0)
(24.9362 0 0)
(24.9629 0 0)
(24.9895 0 0)
(25.0162 0 0)
(25.0429 0 0)
(25.0696 0 0)
(25.0962 0 0)
(25.1229 0 0)
(25.1496 0 0)
(25.1762 0 0)
(25.2029 0 0)
(25.2296 0 0)
(25.2562 0 0)
(25.2829 0 0)
(25.3096 0 0)
(25.3362 0 0)
(25.3629 0 0)
(25.3896 0 0)
(25.4162 0 0)
(25.4429 0 0)
(25.4695 0 0)
(25.4962 0 0)
(25.5229 0 0)
(25.5495 0 0)
(25.5762 0 0)
(25.6028 0 0)
(25.6295 0 0)
(25.6561 0 0)
(25.6828 0 0)
(25.7094 0 0)
(25.7361 0 0)
(25.7627 0 0)
(25.7894 0 0)
(25.816 0 0)
(25.8427 0 0)
(25.8693 0 0)
(25.896 0 0)
(25.9226 0 0)
(25.9493 0 0)
(25.9759 0 0)
(26.0025 0 0)
(26.0292 0 0)
(26.0558 0 0)
(26.0825 0 0)
(26.1091 0 0)
(26.1357 0 0)
(26.1624 0 0)
(26.189 0 0)
(26.2156 0 0)
(26.2423 0 0)
(26.2689 0 0)
(26.2955 0 0)
(26.3222 0 0)
(26.3488 0 0)
(26.3754 0 0)
(26.402 0 0)
(26.4287 0 0)
(26.4553 0 0)
(26.4819 0 0)
(26.5085 0 0)
(26.5352 0 0)
(26.5618 0 0)
(26.5884 0 0)
(26.615 0 0)
(26.6416 0 0)
(26.6683 0 0)
(26.6949 0 0)
(26.7215 0 0)
(26.7481 0 0)
(26.7747 0 0)
(26.8013 0 0)
(26.8279 0 0)
(26.8545 0 0)
(26.8811 0 0)
(26.9077 0 0)
(26.9343 0 0)
(26.961 0 0)
(26.9876 0 0)
(27.0142 0 0)
(27.0408 0 0)
(27.0674 0 0)
(27.094 0 0)
(27.1205 0 0)
(27.1471 0 0)
(27.1737 0 0)
(27.2003 0 0)
(27.2269 0 0)
(27.2535 0 0)
(27.2801 0 0)
(27.3067 0 0)
(27.3333 0 0)
(27.3599 0 0)
(27.3864 0 0)
(27.413 0 0)
(27.4396 0 0)
(27.4662 0 0)
(27.4928 0 0)
(27.5194 0 0)
(27.5459 0 0)
(27.5725 0 0)
(27.5991 0 0)
(27.6257 0 0)
(27.6522 0 0)
(27.6788 0 0)
(27.7054 0 0)
(27.7319 0 0)
(27.7585 0 0)
(27.7851 0 0)
(27.8116 0 0)
(27.8382 0 0)
(27.8648 0 0)
(27.8913 0 0)
(27.9179 0 0)
(27.9444 0 0)
(27.971 0 0)
(27.9975 0 0)
(28.0241 0 0)
(28.0507 0 0)
(28.0772 0 0)
(28.1038 0 0)
(28.1303 0 0)
(28.1568 0 0)
(28.1834 0 0)
(28.2099 0 0)
(28.2365 0 0)
(28.263 0 0)
(28.2896 0 0)
(28.3161 0 0)
(28.3426 0 0)
(28.3692 0 0)
(28.3957 0 0)
(28.4222 0 0)
(28.4488 0 0)
(28.4753 0 0)
(28.5018 0 0)
(28.5284 0 0)
(28.5549 0 0)
(28.5814 0 0)
(28.6079 0 0)
(28.6344 0 0)
(28.661 0 0)
(28.6875 0 0)
(28.714 0 0)
(28.7405 0 0)
(28.767 0 0)
(28.7935 0 0)
(28.82 0 0)
(28.8466 0 0)
(28.8731 0 0)
(28.8996 0 0)
(28.9261 0 0)
(28.9526 0 0)
(28.9791 0 0)
(29.0056 0 0)
(29.0321 0 0)
(29.0586 0 0)
(29.0851 0 0)
(29.1116 0 0)
(29.138 0 0)
(29.1645 0 0)
(29.191 0 0)
(29.2175 0 0)
(29.244 0 0)
(29.2705 0 0)
(29.297 0 0)
(29.3234 0 0)
(29.3499 0 0)
(29.3764 0 0)
(29.4029 0 0)
(29.4293 0 0)
(29.4558 0 0)
(29.4823 0 0)
(29.5087 0 0)
(29.5352 0 0)
(29.5617 0 0)
(29.5881 0 0)
(29.6146 0 0)
(29.641 0 0)
(29.6675 0 0)
(29.694 0 0)
(29.7204 0 0)
(29.7469 0 0)
(29.7733 0 0)
(29.7998 0 0)
(29.8262 0 0)
(29.8526 0 0)
(29.8791 0 0)
(29.9055 0 0)
(29.932 0 0)
(29.9584 0 0)
(29.9848 0 0)
(30.0113 0 0)
(30.0377 0 0)
(30.0641 0 0)
(30.0906 0 0)
(30.117 0 0)
(30.1434 0 0)
(30.1698 0 0)
(30.1962 0 0)
(30.2227 0 0)
(30.2491 0 0)
(30.2755 0 0)
(30.3019 0 0)
(30.3283 0 0)
(30.3547 0 0)
(30.3811 0 0)
(30.4075 0 0)
(30.4339 0 0)
(30.4603 0 0)
(30.4867 0 0)
(30.5131 0 0)
(30.5395 0 0)
(30.5659 0 0)
(30.5923 0 0)
(30.6187 0 0)
(30.645 0 0)
(30.6714 0 0)
(30.6978 0 0)
(30.7242 0 0)
(30.7506 0 0)
(30.7769 0 0)
(30.8033 0 0)
(30.8297 0 0)
(30.856 0 0)
(30.8824 0 0)
(30.9088 0 0)
(30.9351 0 0)
(30.9615 0 0)
(30.9878 0 0)
(31.0142 0 0)
(31.0405 0 0)
(31.0669 0 0)
(31.0932 0 0)
(31.1196 0 0)
(31.1459 0 0)
(31.1723 0 0)
(31.1986 0 0)
(31.2249 0 0)
(31.2513 0 0)
(31.2776 0 0)
(31.3039 0 0)
(31.3302 0 0)
(31.3566 0 0)
(31.3829 0 0)
(31.4092 0 0)
(31.4355 0 0)
(31.4618 0 0)
(31.4881 0 0)
(31.5144 0 0)
(31.5407 0 0)
(31.567 0 0)
(31.5933 0 0)
(31.6196 0 0)
(31.6459 0 0)
(31.6722 0 0)
(31.6985 0 0)
(31.7248 0 0)
(31.7511 0 0)
(31.7774 0 0)
(31.8036 0 0)
(31.8299 0 0)
(31.8562 0 0)
(31.8825 0 0)
(31.9087 0 0)
(31.935 0 0)
(31.9613 0 0)
(31.9875 0 0)
(32.0138 0 0)
(32.04 0 0)
(32.0663 0 0)
(32.0925 0 0)
(32.1188 0 0)
(32.145 0 0)
(32.1713 0 0)
(32.1975 0 0)
(32.2237 0 0)
(32.25 0 0)
(32.2762 0 0)
(32.3024 0 0)
(32.3286 0 0)
(32.3549 0 0)
(32.3811 0 0)
(32.4073 0 0)
(32.4335 0 0)
(32.4597 0 0)
(32.4859 0 0)
(32.5121 0 0)
(32.5383 0 0)
(32.5645 0 0)
(32.5907 0 0)
(32.6169 0 0)
(32.6431 0 0)
(32.6693 0 0)
(32.6954 0 0)
(32.7216 0 0)
(32.7478 0 0)
(32.774 0 0)
(32.8001 0 0)
(32.8263 0 0)
(32.8525 0 0)
(32.8786 0 0)
(32.9048 0 0)
(32.9309 0 0)
(32.9571 0 0)
(32.9832 0 0)
(33.0094 0 0)
(33.0355 0 0)
(33.0616 0 0)
(33.0878 0 0)
(33.1139 0 0)
(33.14 0 0)
(33.1661 0 0)
(33.1923 0 0)
(33.2184 0 0)
(33.2445 0 0)
(33.2706 0 0)
(33.2967 0 0)
(33.3228 0 0)
(33.3489 0 0)
(33.375 0 0)
(33.4011 0 0)
(33.4272 0 0)
(33.4533 0 0)
(33.4793 0 0)
(33.5054 0 0)
(33.5315 0 0)
(33.5576 0 0)
(33.5836 0 0)
(33.6097 0 0)
(33.6357 0 0)
(33.6618 0 0)
(33.6878 0 0)
(33.7139 0 0)
(33.7399 0 0)
(33.766 0 0)
(33.792 0 0)
(33.818 0 0)
(33.8441 0 0)
(33.8701 0 0)
(33.8961 0 0)
(33.9221 0 0)
(33.9481 0 0)
(33.9741 0 0)
(34.0001 0 0)
(34.0261 0 0)
(34.0521 0 0)
(34.0781 0 0)
(34.1041 0 0)
(34.1301 0 0)
(34.1561 0 0)
(34.182 0 0)
(34.208 0 0)
(34.234 0 0)
(34.2599 0 0)
(34.2859 0 0)
(34.3118 0 0)
(34.3378 0 0)
(34.3637 0 0)
(34.3897 0 0)
(34.4156 0 0)
(34.4415 0 0)
(34.4675 0 0)
(34.4934 0 0)
(34.5193 0 0)
(34.5452 0 0)
(34.5711 0 0)
(34.597 0 0)
(34.6229 0 0)
(34.6488 0 0)
(34.6747 0 0)
(34.7006 0 0)
(34.7265 0 0)
(34.7524 0 0)
(34.7782 0 0)
(34.8041 0 0)
(34.83 0 0)
(34.8558 0 0)
(34.8817 0 0)
(34.9075 0 0)
(34.9333 0 0)
(34.9592 0 0)
(34.985 0 0)
(35.0108 0 0)
(35.0367 0 0)
(35.0625 0 0)
(35.0883 0 0)
(35.1141 0 0)
(35.1399 0 0)
(35.1657 0 0)
(35.1915 0 0)
(35.2173 0 0)
(35.2431 0 0)
(35.2688 0 0)
(35.2946 0 0)
(35.3204 0 0)
(35.3461 0 0)
(35.3719 0 0)
(35.3976 0 0)
(35.4234 0 0)
(35.4491 0 0)
(35.4749 0 0)
(35.5006 0 0)
(35.5263 0 0)
(35.552 0 0)
(35.5777 0 0)
(35.6034 0 0)
(35.6291 0 0)
(35.6548 0 0)
(35.6805 0 0)
(35.7062 0 0)
(35.7319 0 0)
(35.7576 0 0)
(35.7832 0 0)
(35.8089 0 0)
(35.8345 0 0)
(35.8602 0 0)
(35.8858 0 0)
(35.9115 0 0)
(35.9371 0 0)
(35.9627 0 0)
(35.9883 0 0)
(36.014 0 0)
(36.0396 0 0)
(36.0652 0 0)
(36.0908 0 0)
(36.1164 0 0)
(36.1419 0 0)
(36.1675 0 0)
(36.1931 0 0)
(36.2187 0 0)
(36.2442 0 0)
(36.2698 0 0)
(36.2953 0 0)
(36.3209 0 0)
(36.3464 0 0)
(36.372 0 0)
(36.3975 0 0)
(36.423 0 0)
(36.4485 0 0)
(36.474 0 0)
(36.4995 0 0)
(36.525 0 0)
(36.5505 0 0)
(36.576 0 0)
(36.6014 0 0)
(36.6269 0 0)
(36.6523 0 0)
(36.6778 0 0)
(36.7032 0 0)
(36.7286 0 0)
(36.7541 0 0)
(36.7795 0 0)
(36.8049 0 0)
(36.8303 0 0)
(36.8557 0 0)
(36.8811 0 0)
(36.9064 0 0)
(36.9318 0 0)
(36.9572 0 0)
(36.9825 0 0)
(37.0079 0 0)
(37.0332 0 0)
(37.0585 0 0)
(37.0839 0 0)
(37.1092 0 0)
(37.1345 0 0)
(37.1598 0 0)
(37.1851 0 0)
(37.2104 0 0)
(37.2357 0 0)
(37.2609 0 0)
(37.2862 0 0)
(37.3115 0 0)
(37.3367 0 0)
(37.3619 0 0)
(37.3872 0 0)
(37.4124 0 0)
(37.4376 0 0)
(37.4628 0 0)
(37.488 0 0)
(37.5132 0 0)
(37.5384 0 0)
(37.5636 0 0)
(37.5887 0 0)
(37.6139 0 0)
(37.639 0 0)
(37.6642 0 0)
(37.6893 0 0)
(37.7144 0 0)
(37.7395 0 0)
(37.7646 0 0)
(37.7897 0 0)
(37.8148 0 0)
(37.8399 0 0)
(37.8649 0 0)
(37.89 0 0)
(37.915 0 0)
(37.9401 0 0)
(37.9651 0 0)
(37.9901 0 0)
(38.0151 0 0)
(38.0401 0 0)
(38.0651 0 0)
(38.0901 0 0)
(38.1151 0 0)
(38.14 0 0)
(38.165 0 0)
(38.1899 0 0)
(38.2149 0 0)
(38.2398 0 0)
(38.2647 0 0)
(38.2896 0 0)
(38.3145 0 0)
(38.3394 0 0)
(38.3642 0 0)
(38.3891 0 0)
(38.4139 0 0)
(38.4388 0 0)
(38.4636 0 0)
(38.4884 0 0)
(38.5132 0 0)
(38.538 0 0)
(38.5628 0 0)
(38.5876 0 0)
(38.6124 0 0)
(38.6371 0 0)
(38.6619 0 0)
(38.6866 0 0)
(38.7113 0 0)
(38.736 0 0)
(38.7607 0 0)
(38.7854 0 0)
(38.8101 0 0)
(38.8347 0 0)
(38.8594 0 0)
(38.884 0 0)
(38.9087 0 0)
(38.9333 0 0)
(38.9579 0 0)
(38.9825 0 0)
(39.0071 0 0)
(39.0316 0 0)
(39.0562 0 0)
(39.0807 0 0)
(39.1053 0 0)
(39.1298 0 0)
(39.1543 0 0)
(39.1788 0 0)
(39.2033 0 0)
(39.2277 0 0)
(39.2522 0 0)
(39.2767 0 0)
(39.3011 0 0)
(39.3255 0 0)
(39.3499 0 0)
(39.3743 0 0)
(39.3987 0 0)
(39.4231 0 0)
(39.4474 0 0)
(39.4717 0 0)
(39.4961 0 0)
(39.5204 0 0)
(39.5447 0 0)
(39.569 0 0)
(39.5933 0 0)
(39.6175 0 0)
(39.6418 0 0)
(39.666 0 0)
(39.6902 0 0)
(39.7144 0 0)
(39.7386 0 0)
(39.7628 0 0)
(39.7869 0 0)
(39.8111 0 0)
(39.8352 0 0)
(39.8593 0 0)
(39.8834 0 0)
(39.9075 0 0)
(39.9316 0 0)
(39.9557 0 0)
(39.9797 0 0)
(40.0037 0 0)
(40.0277 0 0)
(40.0517 0 0)
(40.0757 0 0)
(40.0997 0 0)
(40.1236 0 0)
(40.1476 0 0)
(40.1715 0 0)
(40.1954 0 0)
(40.2193 0 0)
(40.2431 0 0)
(40.267 0 0)
(40.2908 0 0)
(40.3147 0 0)
(40.3385 0 0)
(40.3623 0 0)
(40.386 0 0)
(40.4098 0 0)
(40.4335 0 0)
(40.4572 0 0)
(40.481 0 0)
(40.5046 0 0)
(40.5283 0 0)
(40.552 0 0)
(40.5756 0 0)
(40.5992 0 0)
(40.6228 0 0)
(40.6464 0 0)
(40.67 0 0)
(40.6935 0 0)
(40.7171 0 0)
(40.7406 0 0)
(40.7641 0 0)
(40.7875 0 0)
(40.811 0 0)
(40.8344 0 0)
(40.8579 0 0)
(40.8813 0 0)
(40.9046 0 0)
(40.928 0 0)
(40.9513 0 0)
(40.9747 0 0)
(40.998 0 0)
(41.0213 0 0)
(41.0445 0 0)
(41.0678 0 0)
(41.091 0 0)
(41.1142 0 0)
(41.1374 0 0)
(41.1606 0 0)
(41.1837 0 0)
(41.2068 0 0)
(41.2299 0 0)
(41.253 0 0)
(41.2761 0 0)
(41.2991 0 0)
(41.3222 0 0)
(41.3452 0 0)
(41.3682 0 0)
(41.3911 0 0)
(41.4141 0 0)
(41.437 0 0)
(41.4599 0 0)
(41.4827 0 0)
(41.5056 0 0)
(41.5284 0 0)
(41.5512 0 0)
(41.574 0 0)
(41.5968 0 0)
(41.6195 0 0)
(41.6423 0 0)
(41.665 0 0)
(41.6876 0 0)
(41.7103 0 0)
(41.7329 0 0)
(41.7555 0 0)
(41.7781 0 0)
(41.8007 0 0)
(41.8232 0 0)
(41.8457 0 0)
(41.8682 0 0)
(41.8907 0 0)
(41.9131 0 0)
(41.9355 0 0)
(41.9579 0 0)
(41.9803 0 0)
(42.0026 0 0)
(42.0249 0 0)
(42.0472 0 0)
(42.0695 0 0)
(42.0917 0 0)
(42.114 0 0)
(42.1362 0 0)
(42.1583 0 0)
(42.1805 0 0)
(42.2026 0 0)
(42.2247 0 0)
(42.2467 0 0)
(42.2688 0 0)
(42.2908 0 0)
(42.3128 0 0)
(42.3347 0 0)
(42.3567 0 0)
(42.3786 0 0)
(42.4004 0 0)
(42.4223 0 0)
(42.4441 0 0)
(42.4659 0 0)
(42.4877 0 0)
(42.5094 0 0)
(42.5311 0 0)
(42.5528 0 0)
(42.5745 0 0)
(42.5961 0 0)
(42.6177 0 0)
(42.6393 0 0)
(42.6608 0 0)
(42.6824 0 0)
(42.7039 0 0)
(42.7253 0 0)
(42.7467 0 0)
(42.7681 0 0)
(42.7895 0 0)
(42.8109 0 0)
(42.8322 0 0)
(42.8535 0 0)
(42.8747 0 0)
(42.8959 0 0)
(42.9171 0 0)
(42.9383 0 0)
(42.9594 0 0)
(42.9805 0 0)
(43.0016 0 0)
(43.0226 0 0)
(43.0437 0 0)
(43.0646 0 0)
(43.0856 0 0)
(43.1065 0 0)
(43.1274 0 0)
(43.1482 0 0)
(43.1691 0 0)
(43.1898 0 0)
(43.2106 0 0)
(43.2313 0 0)
(43.252 0 0)
(43.2727 0 0)
(43.2933 0 0)
(43.3139 0 0)
(43.3345 0 0)
(43.355 0 0)
(43.3755 0 0)
(43.396 0 0)
(43.4164 0 0)
(43.4368 0 0)
(43.4572 0 0)
(43.4775 0 0)
(43.4978 0 0)
(43.5181 0 0)
(43.5383 0 0)
(43.5585 0 0)
(43.5786 0 0)
(43.5988 0 0)
(43.6189 0 0)
(43.6389 0 0)
(43.6589 0 0)
(43.6789 0 0)
(43.6989 0 0)
(43.7188 0 0)
(43.7387 0 0)
(43.7585 0 0)
(43.7783 0 0)
(43.7981 0 0)
(43.8179 0 0)
(43.8376 0 0)
(43.8572 0 0)
(43.8769 0 0)
(43.8965 0 0)
(43.916 0 0)
(43.9356 0 0)
(43.9551 0 0)
(43.9745 0 0)
(43.9939 0 0)
(44.0133 0 0)
(44.0326 0 0)
(44.052 0 0)
(44.0712 0 0)
(44.0905 0 0)
(44.1097 0 0)
(44.1288 0 0)
(44.1479 0 0)
(44.167 0 0)
(44.1861 0 0)
(44.2051 0 0)
(44.2241 0 0)
(44.243 0 0)
(44.2619 0 0)
(44.2807 0 0)
(44.2996 0 0)
(44.3184 0 0)
(44.3371 0 0)
(44.3558 0 0)
(44.3745 0 0)
(44.3931 0 0)
(44.4117 0 0)
(44.4303 0 0)
(44.4488 0 0)
(44.4673 0 0)
(44.4857 0 0)
(44.5041 0 0)
(44.5225 0 0)
(44.5408 0 0)
(44.5591 0 0)
(44.5773 0 0)
(44.5956 0 0)
(44.6137 0 0)
(44.6319 0 0)
(44.65 0 0)
(44.668 0 0)
(44.686 0 0)
(44.704 0 0)
(44.722 0 0)
(44.7399 0 0)
(44.7577 0 0)
(44.7755 0 0)
(44.7933 0 0)
(44.8111 0 0)
(44.8288 0 0)
(44.8465 0 0)
(44.8641 0 0)
(44.8817 0 0)
(44.8992 0 0)
(44.9168 0 0)
(44.9342 0 0)
(44.9517 0 0)
(44.9691 0 0)
(44.9864 0 0)
(45.0038 0 0)
(45.021 0 0)
(45.0383 0 0)
(45.0555 0 0)
(45.0727 0 0)
(45.0898 0 0)
(45.1069 0 0)
(45.1239 0 0)
(45.141 0 0)
(45.1579 0 0)
(45.1749 0 0)
(45.1918 0 0)
(45.2086 0 0)
(45.2255 0 0)
(45.2422 0 0)
(45.259 0 0)
(45.2757 0 0)
(45.2924 0 0)
(45.309 0 0)
(45.3256 0 0)
(45.3422 0 0)
(45.3587 0 0)
(45.3752 0 0)
(45.3917 0 0)
(45.4081 0 0)
(45.4245 0 0)
(45.4408 0 0)
(45.4571 0 0)
(45.4734 0 0)
(45.4896 0 0)
(45.5058 0 0)
(45.522 0 0)
(45.5381 0 0)
(45.5542 0 0)
(45.5702 0 0)
(45.5863 0 0)
(45.6022 0 0)
(45.6182 0 0)
(45.6341 0 0)
(45.65 0 0)
(45.6658 0 0)
(45.6816 0 0)
(45.6974 0 0)
(45.7131 0 0)
(45.7288 0 0)
(45.7445 0 0)
(45.7602 0 0)
(45.7758 0 0)
(45.7913 0 0)
(45.8069 0 0)
(45.8224 0 0)
(45.8378 0 0)
(45.8533 0 0)
(45.8687 0 0)
(45.8841 0 0)
(45.8994 0 0)
(45.9147 0 0)
(45.93 0 0)
(45.9452 0 0)
(45.9604 0 0)
(45.9756 0 0)
(45.9908 0 0)
(46.0059 0 0)
(46.021 0 0)
(46.0361 0 0)
(46.0511 0 0)
(46.0661 0 0)
(46.0811 0 0)
(46.096 0 0)
(46.1109 0 0)
(46.1258 0 0)
(46.1407 0 0)
(46.1555 0 0)
(46.1703 0 0)
(46.1851 0 0)
(46.1998 0 0)
(46.2145 0 0)
(46.2292 0 0)
(46.2439 0 0)
(46.2585 0 0)
(46.2731 0 0)
(46.2877 0 0)
(46.3022 0 0)
(46.3168 0 0)
(46.3313 0 0)
(46.3457 0 0)
(46.3602 0 0)
(46.3746 0 0)
(46.389 0 0)
(46.4034 0 0)
(46.4178 0 0)
(46.4321 0 0)
(46.4464 0 0)
(46.4607 0 0)
(46.4749 0 0)
(46.4892 0 0)
(46.5034 0 0)
(46.5176 0 0)
(46.5317 0 0)
(46.5459 0 0)
(46.56 0 0)
(46.5741 0 0)
(46.5882 0 0)
(46.6022 0 0)
(46.6163 0 0)
(46.6303 0 0)
(46.6443 0 0)
(46.6583 0 0)
(46.6722 0 0)
(46.6862 0 0)
(46.7001 0 0)
(46.714 0 0)
(46.7279 0 0)
(46.7417 0 0)
(46.7556 0 0)
(46.7694 0 0)
(46.7832 0 0)
(46.797 0 0)
(46.8108 0 0)
(46.8245 0 0)
(46.8383 0 0)
(46.852 0 0)
(46.8657 0 0)
(46.8794 0 0)
(46.8931 0 0)
(46.9067 0 0)
(46.9204 0 0)
(46.934 0 0)
(46.9476 0 0)
(46.9612 0 0)
(46.9748 0 0)
(46.9883 0 0)
(47.0019 0 0)
(47.0154 0 0)
(47.029 0 0)
(47.0425 0 0)
(47.056 0 0)
(47.0694 0 0)
(47.0829 0 0)
(47.0964 0 0)
(47.1098 0 0)
(47.1233 0 0)
(47.1367 0 0)
(47.1501 0 0)
(47.1635 0 0)
(47.1769 0 0)
(47.1903 0 0)
(47.2036 0 0)
(47.217 0 0)
(47.2303 0 0)
(47.2436 0 0)
(47.257 0 0)
(47.2703 0 0)
(47.2836 0 0)
(47.2969 0 0)
(47.3102 0 0)
(47.3234 0 0)
(47.3367 0 0)
(47.3499 0 0)
(47.3632 0 0)
(47.3764 0 0)
(47.3897 0 0)
(47.4029 0 0)
(47.4161 0 0)
(47.4293 0 0)
(47.4425 0 0)
(47.4557 0 0)
(47.4689 0 0)
(47.482 0 0)
(47.4952 0 0)
(47.5084 0 0)
(47.5215 0 0)
(47.5347 0 0)
(47.5478 0 0)
(47.5609 0 0)
(47.574 0 0)
(47.5872 0 0)
(47.6003 0 0)
(47.6134 0 0)
(47.6265 0 0)
(47.6396 0 0)
(47.6527 0 0)
(47.6658 0 0)
(47.6788 0 0)
(47.6919 0 0)
(47.705 0 0)
(47.718 0 0)
(47.7311 0 0)
(47.7441 0 0)
(47.7572 0 0)
(47.7702 0 0)
(47.7833 0 0)
(47.7963 0 0)
(47.8093 0 0)
(47.8224 0 0)
(47.8354 0 0)
(47.8484 0 0)
(47.8614 0 0)
(47.8744 0 0)
(47.8874 0 0)
(47.9004 0 0)
(47.9134 0 0)
(47.9264 0 0)
(47.9394 0 0)
(47.9524 0 0)
(47.9654 0 0)
(47.9784 0 0)
(47.9914 0 0)
(48.0043 0 0)
(48.0173 0 0)
(48.0303 0 0)
(48.0433 0 0)
(48.0562 0 0)
(48.0692 0 0)
(48.0822 0 0)
(48.0951 0 0)
(48.1081 0 0)
(48.121 0 0)
(48.134 0 0)
(48.1469 0 0)
(48.1599 0 0)
(48.1728 0 0)
(48.1858 0 0)
(48.1987 0 0)
(48.2117 0 0)
(48.2246 0 0)
(48.2375 0 0)
(48.2505 0 0)
(48.2634 0 0)
(48.2763 0 0)
(48.2893 0 0)
(48.3022 0 0)
(48.3151 0 0)
(48.3281 0 0)
(48.341 0 0)
(48.3539 0 0)
(48.3668 0 0)
(48.3798 0 0)
(48.3927 0 0)
(48.4056 0 0)
(48.4185 0 0)
(48.4314 0 0)
(48.4443 0 0)
(48.4573 0 0)
(48.4702 0 0)
(48.4831 0 0)
(48.496 0 0)
(48.5089 0 0)
(48.5218 0 0)
(48.5347 0 0)
(48.5477 0 0)
(48.5606 0 0)
(48.5735 0 0)
(48.5864 0 0)
(48.5993 0 0)
(48.6122 0 0)
(48.6251 0 0)
(48.638 0 0)
(48.6509 0 0)
(48.6638 0 0)
(48.6767 0 0)
(48.6896 0 0)
(48.7025 0 0)
(48.7154 0 0)
(48.7283 0 0)
(48.7412 0 0)
(48.7541 0 0)
(48.767 0 0)
(48.7799 0 0)
(48.7928 0 0)
(48.8057 0 0)
(48.8186 0 0)
(48.8315 0 0)
(48.8444 0 0)
(48.8573 0 0)
(48.8702 0 0)
(48.8831 0 0)
(48.896 0 0)
(48.9089 0 0)
(48.9218 0 0)
(48.9347 0 0)
(48.9476 0 0)
(48.9605 0 0)
(48.9734 0 0)
(48.9863 0 0)
(48.9992 0 0)
(49.0121 0 0)
(49.025 0 0)
(49.0379 0 0)
(49.0508 0 0)
(49.0637 0 0)
(49.0766 0 0)
(49.0895 0 0)
(49.1024 0 0)
(49.1153 0 0)
(49.1282 0 0)
(49.1411 0 0)
(49.154 0 0)
(49.1669 0 0)
(49.1798 0 0)
(49.1927 0 0)
(49.2056 0 0)
(49.2185 0 0)
(49.2314 0 0)
(49.2443 0 0)
(49.2572 0 0)
(49.2701 0 0)
(49.283 0 0)
(49.2959 0 0)
(49.3088 0 0)
(49.3217 0 0)
(49.3346 0 0)
(49.3475 0 0)
(49.3605 0 0)
(49.3734 0 0)
(49.3863 0 0)
(49.3992 0 0)
(49.4121 0 0)
(49.425 0 0)
(49.4379 0 0)
(49.4508 0 0)
(49.4637 0 0)
(49.4766 0 0)
(49.4895 0 0)
(49.5024 0 0)
(49.5153 0 0)
(49.5282 0 0)
(49.5411 0 0)
(49.554 0 0)
(49.5669 0 0)
(49.5798 0 0)
(49.5927 0 0)
(49.6056 0 0)
(49.6185 0 0)
(49.6314 0 0)
(49.6443 0 0)
(49.6573 0 0)
(49.6702 0 0)
(49.6831 0 0)
(49.696 0 0)
(49.7089 0 0)
(49.7218 0 0)
(49.7347 0 0)
(49.7476 0 0)
(49.7605 0 0)
(49.7734 0 0)
(49.7863 0 0)
(49.7992 0 0)
(49.8122 0 0)
(49.8251 0 0)
(49.838 0 0)
(49.8509 0 0)
(49.8638 0 0)
(49.8767 0 0)
(49.8896 0 0)
(49.9025 0 0)
(49.9154 0 0)
(49.9284 0 0)
(49.9413 0 0)
(49.9542 0 0)
(49.9671 0 0)
(49.98 0 0)
(49.9929 0 0)
(50.0058 0 0)
(50.0187 0 0)
(50.0317 0 0)
(50.0446 0 0)
(50.0575 0 0)
(50.0704 0 0)
(50.0833 0 0)
(50.0962 0 0)
(50.1092 0 0)
(50.1221 0 0)
(50.135 0 0)
(50.1479 0 0)
(50.1608 0 0)
(50.1737 0 0)
(50.1867 0 0)
(50.1996 0 0)
(50.2125 0 0)
(50.2254 0 0)
(50.2383 0 0)
(50.2512 0 0)
(50.2642 0 0)
(50.2771 0 0)
(50.29 0 0)
(50.3029 0 0)
(50.3158 0 0)
(50.3288 0 0)
(50.3417 0 0)
(50.3546 0 0)
(50.3675 0 0)
(50.3805 0 0)
(50.3934 0 0)
(50.4063 0 0)
(50.4192 0 0)
(50.4321 0 0)
(50.4451 0 0)
(50.458 0 0)
(50.4709 0 0)
(50.4838 0 0)
(50.4968 0 0)
(50.5097 0 0)
(50.5226 0 0)
(50.5355 0 0)
(50.5485 0 0)
(50.5614 0 0)
(50.5743 0 0)
(50.5872 0 0)
(50.6002 0 0)
(50.6131 0 0)
(50.626 0 0)
(50.639 0 0)
(50.6519 0 0)
(50.6648 0 0)
(50.6777 0 0)
(50.6907 0 0)
(50.7036 0 0)
(50.7165 0 0)
(50.7295 0 0)
(50.7424 0 0)
(50.7553 0 0)
(50.7682 0 0)
(50.7812 0 0)
(50.7941 0 0)
(50.807 0 0)
(50.82 0 0)
(50.8329 0 0)
(50.8458 0 0)
(50.8588 0 0)
(50.8717 0 0)
(50.8846 0 0)
(50.8976 0 0)
(50.9105 0 0)
(50.9234 0 0)
(50.9364 0 0)
(50.9493 0 0)
(50.9622 0 0)
(50.9752 0 0)
(50.9881 0 0)
(51.001 0 0)
(51.014 0 0)
(51.0269 0 0)
(51.0398 0 0)
(51.0528 0 0)
(51.0657 0 0)
(51.0787 0 0)
(51.0916 0 0)
(51.1045 0 0)
(51.1175 0 0)
(51.1304 0 0)
(51.1433 0 0)
(51.1563 0 0)
(51.1692 0 0)
(51.1822 0 0)
(51.1951 0 0)
(51.208 0 0)
(51.221 0 0)
(51.2339 0 0)
(51.2469 0 0)
(51.2598 0 0)
(51.2727 0 0)
(51.2857 0 0)
(51.2986 0 0)
(51.3116 0 0)
(51.3245 0 0)
(51.3374 0 0)
(51.3504 0 0)
(51.3633 0 0)
(51.3763 0 0)
(51.3892 0 0)
(51.4022 0 0)
(51.4151 0 0)
(51.4281 0 0)
(51.441 0 0)
(51.4539 0 0)
(51.4669 0 0)
(51.4798 0 0)
(51.4928 0 0)
(51.5057 0 0)
(51.5187 0 0)
(51.5316 0 0)
(51.5446 0 0)
(51.5575 0 0)
(51.5705 0 0)
(51.5834 0 0)
(51.5964 0 0)
(51.6093 0 0)
(51.6222 0 0)
(51.6352 0 0)
(51.6481 0 0)
(51.6611 0 0)
(51.674 0 0)
(51.687 0 0)
(51.6999 0 0)
(51.7129 0 0)
(51.7258 0 0)
(51.7388 0 0)
(51.7517 0 0)
(51.7647 0 0)
(51.7777 0 0)
(51.7906 0 0)
(51.8036 0 0)
(51.8165 0 0)
(51.8295 0 0)
(51.8424 0 0)
(51.8554 0 0)
(51.8683 0 0)
(51.8813 0 0)
(51.8942 0 0)
(51.9072 0 0)
(51.9201 0 0)
(51.9331 0 0)
(51.946 0 0)
(51.959 0 0)
(51.972 0 0)
(51.9849 0 0)
(51.9979 0 0)
(52.0108 0 0)
(52.0238 0 0)
(52.0367 0 0)
(52.0497 0 0)
(52.0627 0 0)
(52.0756 0 0)
(52.0886 0 0)
(52.1015 0 0)
(52.1145 0 0)
(52.1274 0 0)
(52.1404 0 0)
(52.1534 0 0)
(52.1663 0 0)
(52.1793 0 0)
(52.1922 0 0)
(52.2052 0 0)
(52.2182 0 0)
(52.2311 0 0)
(52.2441 0 0)
(52.2571 0 0)
(52.27 0 0)
(52.283 0 0)
(52.2959 0 0)
(52.3089 0 0)
(52.3219 0 0)
(52.3348 0 0)
(52.3478 0 0)
(52.3608 0 0)
(52.3737 0 0)
(52.3867 0 0)
(52.3996 0 0)
(52.4126 0 0)
(52.4256 0 0)
(52.4385 0 0)
(52.4515 0 0)
(52.4645 0 0)
(52.4774 0 0)
(52.4904 0 0)
(52.5034 0 0)
(52.5163 0 0)
(52.5293 0 0)
(52.5423 0 0)
(52.5552 0 0)
(52.5682 0 0)
(52.5812 0 0)
(52.5941 0 0)
(52.6071 0 0)
(52.6201 0 0)
(52.6331 0 0)
(52.646 0 0)
(52.659 0 0)
(52.672 0 0)
(52.6849 0 0)
(52.6979 0 0)
(52.7109 0 0)
(52.7238 0 0)
(52.7368 0 0)
(52.7498 0 0)
(52.7628 0 0)
(52.7757 0 0)
(52.7887 0 0)
(52.8017 0 0)
(52.8146 0 0)
(52.8276 0 0)
(52.8406 0 0)
(52.8536 0 0)
(52.8665 0 0)
(52.8795 0 0)
(52.8925 0 0)
(52.9055 0 0)
(52.9184 0 0)
(52.9314 0 0)
(52.9444 0 0)
(52.9574 0 0)
(52.9703 0 0)
(52.9833 0 0)
(52.9963 0 0)
(53.0093 0 0)
(53.0223 0 0)
(53.0352 0 0)
(53.0482 0 0)
(53.0612 0 0)
(53.0742 0 0)
(53.0871 0 0)
(53.1001 0 0)
(53.1131 0 0)
(53.1261 0 0)
(53.1391 0 0)
(53.152 0 0)
(53.165 0 0)
(53.178 0 0)
(53.191 0 0)
(53.204 0 0)
(53.2169 0 0)
(53.2299 0 0)
(53.2429 0 0)
(53.2559 0 0)
(53.2689 0 0)
(53.2818 0 0)
(53.2948 0 0)
(53.3078 0 0)
(53.3208 0 0)
(53.3338 0 0)
(53.3468 0 0)
(53.3597 0 0)
(53.3727 0 0)
(53.3857 0 0)
(53.3987 0 0)
(53.4117 0 0)
(53.4247 0 0)
(53.4377 0 0)
(53.4506 0 0)
(53.4636 0 0)
(53.4766 0 0)
(53.4896 0 0)
(53.5026 0 0)
(53.5156 0 0)
(53.5286 0 0)
(53.5416 0 0)
(53.5545 0 0)
(53.5675 0 0)
(53.5805 0 0)
(53.5935 0 0)
(53.6065 0 0)
(53.6195 0 0)
(53.6325 0 0)
(53.6455 0 0)
(53.6584 0 0)
(53.6714 0 0)
(53.6844 0 0)
(53.6974 0 0)
(53.7104 0 0)
(53.7234 0 0)
(53.7364 0 0)
(53.7494 0 0)
(53.7624 0 0)
(53.7754 0 0)
(53.7884 0 0)
(53.8014 0 0)
(53.8143 0 0)
(53.8273 0 0)
(53.8403 0 0)
(53.8533 0 0)
(53.8663 0 0)
(53.8793 0 0)
(53.8923 0 0)
(53.9053 0 0)
(53.9183 0 0)
(53.9313 0 0)
(53.9443 0 0)
(53.9573 0 0)
(53.9703 0 0)
(53.9833 0 0)
(53.9963 0 0)
(54.0093 0 0)
(54.0223 0 0)
(54.0353 0 0)
(54.0483 0 0)