/*--------------------------------*- C++ -*----------------------------------*\
  =========                 |
  \\      /  F ield         | OpenFOAM: The Open Source CFD Toolbox
   \\    /   O peration     | Website:  https://openfoam.org
    \\  /    A nd           | Version:  9
     \\/     M anipulation  |
\*---------------------------------------------------------------------------*/
FoamFile
{
    format      ascii;
    class       volScalarField;
    location    "0.043";
    object      mag(U);
}
// * * * * * * * * * * * * * * * * * * * * * * * * * * * * * * * * * * * * * //

dimensions      [0 1 -1 0 0 0 0];

internalField   nonuniform List<scalar> 
10000
(
221.814
221.844
221.862
221.882
221.901
221.92
221.939
221.958
221.977
221.997
222.016
222.035
222.054
222.073
222.092
222.112
222.131
222.15
222.169
222.188
222.207
222.227
222.246
222.265
222.284
222.303
222.322
222.341
222.361
222.38
222.399
222.418
222.437
222.456
222.475
222.495
222.514
222.533
222.552
222.571
222.591
222.61
222.629
222.648
222.667
222.686
222.705
222.724
222.744
222.763
222.782
222.801
222.82
222.839
222.859
222.878
222.897
222.916
222.935
222.955
222.974
222.993
223.012
223.031
223.05
223.069
223.089
223.108
223.127
223.146
223.165
223.184
223.203
223.223
223.242
223.261
223.28
223.299
223.318
223.337
223.357
223.376
223.395
223.414
223.433
223.452
223.472
223.491
223.51
223.529
223.548
223.567
223.587
223.606
223.625
223.644
223.663
223.682
223.701
223.721
223.74
223.759
223.778
223.797
223.816
223.835
223.855
223.874
223.893
223.912
223.931
223.95
223.97
223.989
224.008
224.027
224.047
224.066
224.084
224.104
224.123
224.142
224.161
224.181
224.2
224.219
224.237
224.257
224.276
224.295
224.315
224.334
224.353
224.371
224.39
224.409
224.429
224.45
224.469
224.488
224.505
224.523
224.542
224.563
224.584
224.604
224.622
224.64
224.658
224.676
224.696
224.717
224.738
224.756
224.774
224.792
224.811
224.832
224.852
224.87
224.888
224.906
224.927
224.949
224.969
224.986
225.003
225.02
225.038
225.06
225.084
225.104
225.121
225.137
225.154
225.172
225.191
225.215
225.237
225.256
225.273
225.29
225.309
225.329
225.348
225.367
225.385
225.405
225.429
225.451
225.469
225.485
225.501
225.517
225.535
225.555
225.582
225.605
225.622
225.637
225.653
225.669
225.687
225.709
225.736
225.757
225.773
225.789
225.805
225.822
225.841
225.867
225.892
225.909
225.925
225.941
225.958
225.976
226
226.026
226.044
226.06
226.076
226.092
226.11
226.134
226.16
226.179
226.195
226.21
226.226
226.242
226.262
226.288
226.314
226.331
226.347
226.363
226.378
226.395
226.413
226.436
226.462
226.482
226.5
226.517
226.538
226.561
226.579
226.596
226.612
226.629
226.648
226.673
226.698
226.715
226.731
226.746
226.762
226.778
226.795
226.818
226.847
226.869
226.886
226.901
226.917
226.933
226.95
226.972
227.004
227.029
227.045
227.06
227.075
227.091
227.107
227.124
227.144
227.171
227.195
227.212
227.227
227.243
227.259
227.277
227.3
227.326
227.345
227.361
227.377
227.394
227.415
227.441
227.463
227.48
227.495
227.511
227.528
227.546
227.571
227.597
227.615
227.631
227.647
227.663
227.68
227.7
227.727
227.749
227.766
227.782
227.797
227.813
227.829
227.846
227.866
227.899
227.931
227.95
227.965
227.98
227.996
228.011
228.027
228.044
228.061
228.084
228.112
228.132
228.148
228.164
228.179
228.195
228.211
228.229
228.255
228.289
228.312
228.328
228.342
228.358
228.373
228.39
228.41
228.436
228.46
228.477
228.493
228.508
228.524
228.541
228.561
228.587
228.611
228.628
228.644
228.659
228.675
228.691
228.709
228.737
228.772
228.796
228.812
228.827
228.84
228.855
228.871
228.887
228.904
228.927
228.955
228.977
228.993
229.009
229.024
229.04
229.057
229.076
229.103
229.13
229.148
229.164
229.179
229.195
229.211
229.228
229.25
229.279
229.303
229.319
229.335
229.35
229.365
229.381
229.397
229.416
229.446
229.482
229.503
229.519
229.532
229.543
229.558
229.573
229.589
229.606
229.625
229.655
229.692
229.714
229.73
229.744
229.758
229.774
229.79
229.809
229.833
229.857
229.875
229.891
229.907
229.923
229.939
229.958
229.984
230.011
230.029
230.045
230.061
230.077
230.093
230.111
230.134
230.16
230.179
230.195
230.211
230.227
230.243
230.259
230.276
230.303
230.341
230.368
230.384
230.399
230.411
230.426
230.442
230.459
230.48
230.506
230.528
230.545
230.561
230.577
230.593
230.609
230.628
230.654
230.681
230.699
230.715
230.731
230.747
230.764
230.785
230.809
230.828
230.844
230.86
230.876
230.892
230.909
230.932
230.969
231.002
231.019
231.034
231.046
231.057
231.072
231.088
231.104
231.122
231.147
231.178
231.201
231.217
231.232
231.248
231.264
231.281
231.301
231.329
231.354
231.372
231.388
231.403
231.419
231.436
231.454
231.477
231.504
231.523
231.539
231.555
231.571
231.588
231.607
231.633
231.658
231.675
231.691
231.707
231.723
231.74
231.762
231.789
231.81
231.826
231.842
231.858
231.875
231.894
231.918
231.943
231.961
231.978
231.994
232.01
232.028
232.052
232.076
232.094
232.11
232.126
232.143
232.16
232.181
232.207
232.229
232.245
232.261
232.277
232.293
232.309
232.326
232.35
232.387
232.417
232.434
232.449
232.462
232.477
232.493
232.51
232.53
232.554
232.575
232.592
232.608
232.624
232.641
232.661
232.687
232.711
232.728
232.744
232.76
232.776
232.793
232.81
232.834
232.863
232.883
232.9
232.916
232.932
232.948
232.966
232.988
233.012
233.03
233.046
233.062
233.078
233.094
233.11
233.127
233.152
233.19
233.225
233.243
233.258
233.269
233.28
233.295
233.312
233.329
233.349
233.377
233.401
233.418
233.434
233.45
233.466
233.483
233.504
233.531
233.553
233.57
233.586
233.602
233.619
233.637
233.662
233.686
233.704
233.72
233.736
233.753
233.771
233.794
233.818
233.836
233.853
233.869
233.885
233.901
233.918
233.94
233.969
233.992
234.009
234.025
234.04
234.056
234.073
234.089
234.111
234.145
234.177
234.196
234.211
234.226
234.242
234.258
234.276
234.296
234.318
234.335
234.352
234.368
234.384
234.401
234.422
234.45
234.474
234.492
234.508
234.524
234.54
234.557
234.576
234.601
234.625
234.642
234.659
234.675
234.691
234.708
234.729
234.755
234.776
234.793
234.809
234.826
234.842
234.859
234.878
234.905
234.93
234.948
234.964
234.98
234.996
235.013
235.03
235.051
235.081
235.108
235.126
235.141
235.155
235.168
235.184
235.2
235.217
235.236
235.267
235.306
235.33
235.346
235.359
235.371
235.386
235.402
235.419
235.438
235.462
235.485
235.502
235.518
235.534
235.551
235.57
235.593
235.617
235.635
235.652
235.667
235.683
235.699
235.715
235.732
235.751
235.781
235.822
235.85
235.867
235.881
235.89
235.898
235.912
235.928
235.944
235.961
235.982
236.016
236.053
236.074
236.09
236.104
236.118
236.134
236.15
236.168
236.19
236.212
236.23
236.246
236.263
236.279
236.296
236.317
236.344
236.367
236.384
236.4
236.416
236.432
236.449
236.467
236.491
236.517
236.537
236.553
236.569
236.583
236.598
236.614
236.63
236.647
236.668
236.702
236.746
236.773
236.79
236.804
236.813
236.824
236.84
236.856
236.873
236.893
236.917
236.937
236.953
236.969
236.986
237.002
237.018
237.035
237.054
237.083
237.124
237.151
237.168
237.182
237.193
237.205
237.221
237.238
237.255
237.277
237.303
237.325
237.342
237.358
237.374
237.391
237.408
237.428
237.456
237.482
237.499
237.515
237.531
237.545
237.561
237.577
237.594
237.611
237.63
237.659
237.696
237.719
237.735
237.749
237.762
237.777
237.794
237.81
237.827
237.848
237.873
237.894
237.91
237.927
237.942
237.958
237.975
237.991
238.008
238.028
238.062
238.104
238.131
238.147
238.161
238.17
238.179
238.194
238.21
238.227
238.247
238.274
238.305
238.324
238.341
238.356
238.372
238.389
238.406
238.425
238.45
238.477
238.495
238.511
238.528
238.544
238.56
238.577
238.597
238.622
238.646
238.664
238.681
238.697
238.714
238.731
238.751
238.774
238.792
238.809
238.825
238.841
238.858
238.874
238.891
238.909
238.938
238.981
239.012
239.03
239.045
239.055
239.064
239.078
239.095
239.111
239.13
239.154
239.182
239.202
239.219
239.235
239.251
239.268
239.285
239.303
239.327
239.353
239.372
239.389
239.405
239.422
239.439
239.457
239.481
239.51
239.531
239.547
239.564
239.58
239.596
239.614
239.633
239.653
239.67
239.687
239.703
239.72
239.736
239.752
239.77
239.79
239.824
239.868
239.895
239.911
239.926
239.935
239.946
239.961
239.977
239.994
240.013
240.038
240.064
240.082
240.099
240.115
240.132
240.148
240.166
240.188
240.214
240.234
240.251
240.267
240.284
240.301
240.319
240.344
240.371
240.39
240.407
240.423
240.44
240.456
240.475
240.498
240.522
240.541
240.557
240.574
240.59
240.608
240.629
240.655
240.676
240.693
240.709
240.726
240.742
240.759
240.775
240.792
240.81
240.834
240.868
240.894
240.911
240.928
240.943
240.96
240.976
240.993
241.009
241.027
241.047
241.074
241.1
241.118
241.135
241.151
241.167
241.183
241.2
241.216
241.233
241.251
241.275
241.308
241.334
241.351
241.367
241.383
241.4
241.416
241.433
241.449
241.466
241.485
241.511
241.54
241.56
241.576
241.593
241.609
241.626
241.642
241.661
241.684
241.71
241.728
241.745
241.761
241.777
241.794
241.81
241.827
241.846
241.873
241.904
241.926
241.943
241.958
241.973
241.987
242.003
242.019
242.036
242.052
242.069
242.086
242.104
242.131
242.173
242.21
242.23
242.246
242.258
242.267
242.28
242.296
242.313
242.33
242.35
242.376
242.399
242.417
242.433
242.45
242.467
242.484
242.505
242.531
242.553
242.57
242.586
242.602
242.618
242.634
242.651
242.668
242.685
242.706
242.739
242.771
242.791
242.807
242.822
242.835
242.85
242.866
242.883
242.9
242.919
242.944
242.975
242.996
243.012
243.029
243.045
243.061
243.078
243.096
243.116
243.141
243.162
243.179
243.196
243.213
243.233
243.257
243.282
243.301
243.317
243.334
243.35
243.367
243.385
243.406
243.429
243.448
243.465
243.482
243.499
243.516
243.537
243.563
243.586
243.604
243.621
243.637
243.654
243.67
243.687
243.705
243.725
243.749
243.771
243.791
243.81
243.83
243.847
243.864
243.88
243.897
243.914
243.93
243.947
243.964
243.983
244.011
244.052
244.08
244.097
244.112
244.122
244.129
244.143
244.159
244.176
244.193
244.217
244.255
244.295
244.317
244.333
244.347
244.355
244.365
244.38
244.397
244.413
244.432
244.456
244.485
244.505
244.522
244.539
244.555
244.572
244.588
244.606
244.626
244.655
244.683
244.702
244.718
244.733
244.747
244.761
244.778
244.794
244.811
244.829
244.855
244.89
244.916
244.933
244.949
244.962
244.973
244.987
245.004
245.02
245.037
245.055
245.077
245.113
245.151
245.173
245.189
245.204
245.215
245.228
245.244
245.261
245.278
245.295
245.311
245.328
245.347
245.371
245.404
245.431
245.448
245.465
245.48
245.497
245.513
245.53
245.547
245.564
245.582
245.604
245.628
245.647
245.664
245.681
245.699
245.718
245.744
245.773
245.793
245.81
245.826
245.841
245.856
245.872
245.889
245.906
245.922
245.939
245.957
245.981
246.016
246.048
246.066
246.082
246.097
246.11
246.126
246.143
246.159
246.176
246.193
246.21
246.228
246.247
246.265
246.282
246.299
246.317
246.339
246.376
246.421
246.447
246.465
246.48
246.49
246.494
246.504
246.52
246.537
246.553
246.57
246.587
246.605
246.628
246.665
246.701
246.721
246.737
246.751
246.762
246.776
246.792
246.809
246.827
246.846
246.872
246.898
246.916
246.932
246.949
246.965
246.98
246.996
247.013
247.03
247.046
247.063
247.08
247.097
247.117
247.148
247.196
247.234
247.254
247.27
247.284
247.291
247.298
247.312
247.328
247.345
247.362
247.379
247.396
247.413
247.435
247.466
247.498
247.518
247.534
247.55
247.564
247.58
247.597
247.614
247.631
247.65
247.671
247.691
247.708
247.725
247.742
247.759
247.775
247.792
247.81
247.83
247.863
247.908
247.938
247.956
247.972
247.984
247.992
248.005
248.021
248.038
248.055
248.074
248.096
248.12
248.138
248.155
248.171
248.188
248.205
248.222
248.239
248.257
248.279
248.311
248.338
248.356
248.373
248.389
248.406
248.422
248.439
248.456
248.473
248.492
248.515
248.54
248.559
248.576
248.593
248.61
248.627
248.644
248.664
248.691
248.719
248.738
248.755
248.772
248.788
248.805
248.822
248.839
248.858
248.879
248.898
248.915
248.932
248.949
248.966
248.983
249
249.017
249.04
249.075
249.112
249.133
249.149
249.164
249.176
249.19
249.206
249.223
249.24
249.26
249.284
249.304
249.322
249.338
249.355
249.371
249.388
249.405
249.422
249.44
249.463
249.499
249.532
249.552
249.568
249.582
249.594
249.608
249.625
249.642
249.659
249.679
249.702
249.723
249.741
249.758
249.775
249.792
249.809
249.83
249.859
249.886
249.905
249.922
249.938
249.954
249.97
249.987
250.004
250.021
250.041
250.068
250.098
250.119
250.136
250.153
250.169
250.186
250.204
250.224
250.245
250.263
250.281
250.297
250.314
250.332
250.349
250.37
250.395
250.416
250.434
250.451
250.468
250.485
250.501
250.518
250.535
250.553
250.572
250.591
250.609
250.627
250.645
250.665
250.694
250.736
250.766
250.784
250.8
250.813
250.818
250.825
250.84
250.857
250.874
250.891
250.909
250.932
250.969
251.006
251.027
251.043
251.058
251.069
251.082
251.098
251.115
251.132
251.15
251.174
251.201
251.223
251.24
251.257
251.274
251.291
251.309
251.33
251.353
251.373
251.39
251.407
251.423
251.439
251.454
251.471
251.488
251.505
251.523
251.544
251.578
251.616
251.639
251.656
251.671
251.683
251.695
251.711
251.728
251.745
251.763
251.784
251.806
251.825
251.842
251.859
251.876
251.893
251.91
251.928
251.951
251.988
252.024
252.044
252.06
252.075
252.084
252.09
252.104
252.121
252.138
252.155
252.173
252.193
252.224
252.266
252.292
252.31
252.326
252.339
252.35
252.365
252.382
252.399
252.416
252.436
252.459
252.481
252.499
252.516
252.533
252.55
252.568
252.587
252.613
252.64
252.659
252.676
252.693
252.709
252.724
252.741
252.758
252.775
252.792
252.809
252.828
252.854
252.891
252.918
252.936
252.953
252.968
252.981
252.997
253.014
253.031
253.048
253.066
253.085
253.109
253.132
253.15
253.168
253.185
253.203
253.222
253.244
253.266
253.284
253.301
253.318
253.335
253.353
253.374
253.397
253.416
253.434
253.451
253.468
253.486
253.507
253.535
253.559
253.577
253.594
253.611
253.628
253.646
253.664
253.684
253.705
253.723
253.74
253.757
253.774
253.79
253.807
253.824
253.841
253.859
253.877
253.904
253.942
253.972
253.991
254.007
254.022
254.034
254.049
254.066
254.083
254.101
254.121
254.144
254.165
254.183
254.2
254.217
254.234
254.251
254.268
254.285
254.303
254.323
254.352
254.385
254.406
254.424
254.44
254.455
254.47
254.487
254.504
254.521
254.539
254.56
254.585
254.606
254.623
254.64
254.658
254.675
254.693
254.713
254.736
254.758
254.775
254.793
254.81
254.827
254.843
254.861
254.878
254.895
254.912
254.929
254.946
254.963
254.981
255
255.027
255.069
255.105
255.125
255.142
255.157
255.167
255.17
255.181
255.198
255.215
255.232
255.25
255.274
255.314
255.358
255.383
255.4
255.416
255.429
255.437
255.45
255.467
255.484
255.501
255.519
255.537
255.556
255.574
255.591
255.608
255.625
255.642
255.659
255.677
255.694
255.715
255.747
255.786
255.809
255.826
255.842
255.856
255.868
255.884
255.901
255.918
255.936
255.957
255.982
256.005
256.023
256.041
256.058
256.075
256.091
256.108
256.125
256.142
256.16
256.177
256.194
256.211
256.229
256.247
256.271
256.307
256.341
256.36
256.377
256.393
256.406
256.415
256.429
256.446
256.463
256.481
256.499
256.525
256.564
256.598
256.617
256.634
256.649
256.659
256.665
256.678
256.695
256.712
256.729
256.747
256.766
256.793
256.832
256.86
256.878
256.895
256.91
256.921
256.933
256.95
256.967
256.984
257.001
257.018
257.035
257.053
257.07
257.087
257.105
257.123
257.149
257.191
257.235
257.258
257.275
257.292
257.305
257.311
257.313
257.326
257.342
257.36
257.377
257.394
257.413
257.44
257.48
257.513
257.533
257.549
257.565
257.577
257.59
257.606
257.623
257.641
257.659
257.68
257.706
257.728
257.746
257.763
257.78
257.798
257.815
257.833
257.851
257.87
257.887
257.905
257.922
257.939
257.956
257.973
257.991
258.009
258.031
258.064
258.101
258.123
258.14
258.156
258.17
258.183
258.199
258.216
258.234
258.251
258.271
258.296
258.32
258.338
258.356
258.373
258.39
258.408
258.426
258.445
258.463
258.481
258.498
258.515
258.533
258.55
258.567
258.585
258.603
258.624
258.657
258.692
258.713
258.731
258.747
258.762
258.775
258.791
258.809
258.826
258.844
258.862
258.883
258.903
258.92
258.938
258.955
258.972
258.989
259.007
259.024
259.044
259.071
259.11
259.138
259.156
259.173
259.189
259.201
259.215
259.232
259.249
259.266
259.285
259.306
259.332
259.353
259.37
259.388
259.405
259.422
259.44
259.458
259.476
259.495
259.513
259.53
259.547
259.565
259.582
259.599
259.617
259.636
259.661
259.699
259.732
259.752
259.769
259.785
259.798
259.809
259.824
259.841
259.858
259.875
259.893
259.91
259.928
259.949
259.978
260.005
260.024
260.042
260.059
260.076
260.093
260.109
260.124
260.139
260.156
260.174
260.191
260.208
260.226
260.243
260.26
260.278
260.298
260.327
260.374
260.415
260.436
260.453
260.47
260.482
260.487
260.493
260.507
260.524
260.542
260.559
260.576
260.594
260.613
260.637
260.67
260.697
260.716
260.733
260.75
260.765
260.781
260.798
260.815
260.832
260.85
260.87
260.895
260.92
260.939
260.957
260.974
260.991
261.009
261.027
261.046
261.067
261.086
261.104
261.121
261.139
261.156
261.174
261.191
261.21
261.233
261.263
261.288
261.306
261.323
261.34
261.357
261.373
261.391
261.408
261.426
261.444
261.465
261.491
261.515
261.534
261.551
261.569
261.586
261.603
261.621
261.639
261.659
261.679
261.697
261.714
261.732
261.749
261.766
261.784
261.802
261.822
261.849
261.878
261.899
261.916
261.933
261.95
261.965
261.98
261.997
262.014
262.031
262.049
262.068
262.094
262.129
262.157
262.175
262.192
262.208
262.222
262.233
262.248
262.265
262.282
262.3
262.318
262.337
262.362
262.394
262.418
262.436
262.453
262.47
262.486
262.501
262.518
262.536
262.553
262.57
262.588
262.606
262.627
262.654
262.684
262.704
262.721
262.739
262.756
262.772
262.789
262.806
262.823
262.841
262.858
262.876
262.893
262.911
262.928
262.946
262.964
262.982
263.001
263.02
263.041
263.072
263.116
263.146
263.164
263.182
263.198
263.211
263.216
263.225
263.241
263.258
263.275
263.293
263.31
263.328
263.345
263.363
263.38
263.398
263.415
263.433
263.453
263.483
263.529
263.569
263.591
263.608
263.625
263.639
263.646
263.655
263.67
263.687
263.705
263.723
263.74
263.759
263.779
263.798
263.815
263.833
263.85
263.868
263.885
263.903
263.92
263.939
263.959
263.987
264.018
264.039
264.057
264.074
264.091
264.106
264.122
264.139
264.157
264.174
264.192
264.211
264.237
264.274
264.302
264.32
264.338
264.354
264.367
264.374
264.386
264.402
264.42
264.437
264.455
264.473
264.493
264.522
264.56
264.585
264.603
264.621
264.637
264.651
264.667
264.684
264.702
264.72
264.738
264.757
264.776
264.793
264.811
264.828
264.845
264.861
264.875
264.892
264.909
264.927
264.944
264.962
264.982
265.01
265.055
265.099
265.122
265.14
265.157
265.172
265.18
265.18
265.189
265.205
265.223
265.24
265.258
265.275
265.293
265.312
265.335
265.369
265.401
265.421
265.438
265.455
265.471
265.484
265.499
265.517
265.534
265.552
265.571
265.594
265.629
265.66
265.68
265.697
265.714
265.728
265.736
265.747
265.763
265.78
265.798
265.816
265.834
265.857
265.889
265.92
265.939
265.957
265.974
265.99
266.004
266.016
266.032
266.05
266.067
266.085
266.102
266.12
266.138
266.155
266.174
266.196
266.229
266.266
266.289
266.306
266.323
266.339
266.35
266.36
266.375
266.393
266.41
266.428
266.447
266.469
266.502
266.537
266.558
266.575
266.593
266.608
266.618
266.624
266.639
266.656
266.673
266.691
266.709
266.726
266.744
266.762
266.781
266.808
266.85
266.891
266.914
266.931
266.948
266.963
266.972
266.974
266.985
267.001
267.019
267.037
267.055
267.073
267.098
267.134
267.169
267.19
267.208
267.225
267.24
267.251
267.262
267.277
267.295
267.312
267.33
267.347
267.365
267.383
267.4
267.418
267.436
267.454
267.476
267.509
267.553
267.58
267.599
267.616
267.633
267.647
267.653
267.657
267.671
267.689
267.706
267.724
267.742
267.761
267.785
267.823
267.858
267.879
267.896
267.913
267.928
267.938
267.949
267.965
267.982
268
268.018
268.037
268.061
268.087
268.107
268.125
268.143
268.16
268.176
268.192
268.208
268.226
268.244
268.262
268.281
268.307
268.347
268.384
268.406
268.423
268.44
268.455
268.464
268.464
268.476
268.492
268.51
268.527
268.545
268.563
268.582
268.605
268.641
268.681
268.704
268.722
268.739
268.755
268.768
268.777
268.791
268.809
268.826
268.844
268.862
268.88
268.901
268.929
268.959
268.98
268.997
269.015
269.033
269.049
269.063
269.075
269.091
269.109
269.126
269.144
269.162
269.18
269.198
269.216
269.238
269.272
269.31
269.332
269.35
269.367
269.384
269.398
269.405
269.417
269.434
269.451
269.469
269.487
269.504
269.522
269.54
269.558
269.576
269.594
269.616
269.65
269.694
269.72
269.738
269.756
269.772
269.786
269.793
269.804
269.821
269.838
269.856
269.874
269.893
269.918
269.952
269.981
270.001
270.019
270.036
270.053
270.067
270.08
270.096
270.113
270.131
270.149
270.166
270.184
270.202
270.22
270.237
270.255
270.274
270.295
270.324
270.354
270.375
270.393
270.41
270.428
270.445
270.46
270.474
270.49
270.508
270.525
270.543
270.561
270.579
270.597
270.616
270.641
270.674
270.701
270.72
270.738
270.755
270.773
270.788
270.801
270.814
270.831
270.848
270.866
270.884
270.902
270.919
270.937
270.955
270.973
270.991
271.012
271.041
271.086
271.122
271.142
271.16
271.177
271.193
271.203
271.204
271.213
271.229
271.247
271.264
271.282
271.3
271.319
271.341
271.375
271.41
271.432
271.45
271.467
271.484
271.496
271.503
271.514
271.531
271.548
271.566
271.584
271.603
271.624
271.655
271.689
271.71
271.728
271.746
271.763
271.778
271.792
271.809
271.827
271.845
271.863
271.884
271.911
271.943
271.965
271.983
272.001
272.018
272.033
272.044
272.06
272.077
272.095
272.113
272.132
272.154
272.185
272.212
272.232
272.25
272.267
272.285
272.3
272.316
272.333
272.351
272.368
272.386
272.405
272.426
272.447
272.466
272.484
272.502
272.519
272.537
272.554
272.569
272.586
272.604
272.622
272.639
272.657
272.675
272.694
272.716
272.749
272.79
272.815
272.833
272.851
272.868
272.883
272.894
272.906
272.922
272.94
272.958
272.976
272.994
273.014
273.037
273.061
273.08
273.098
273.116
273.134
273.151
273.168
273.182
273.194
273.21
273.228
273.246
273.264
273.282
273.3
273.318
273.338
273.364
273.406
273.444
273.465
273.483
273.501
273.517
273.53
273.537
273.55
273.567
273.585
273.602
273.621
273.64
273.665
273.699
273.726
273.745
273.762
273.78
273.797
273.811
273.821
273.836
273.853
273.871
273.889
273.907
273.925
273.943
273.962
273.984
274.014
274.041
274.06
274.078
274.096
274.114
274.131
274.147
274.165
274.182
274.2
274.218
274.237
274.257
274.279
274.298
274.317
274.335
274.352
274.37
274.387
274.403
274.418
274.436
274.454
274.472
274.49
274.508
274.527
274.548
274.582
274.627
274.655
274.674
274.692
274.71
274.725
274.736
274.74
274.751
274.768
274.786
274.804
274.822
274.84
274.86
274.885
274.918
274.942
274.96
274.978
274.996
275.013
275.029
275.042
275.058
275.075
275.093
275.111
275.129
275.147
275.166
275.188
275.215
275.242
275.262
275.28
275.298
275.316
275.334
275.352
275.37
275.389
275.408
275.428
275.446
275.464
275.482
275.5
275.517
275.534
275.55
275.568
275.586
275.604
275.622
275.64
275.66
275.684
275.712
275.734
275.752
275.77
275.788
275.805
275.822
275.839
275.857
275.875
275.893
275.911
275.931
275.956
275.987
276.011
276.03
276.048
276.066
276.083
276.098
276.112
276.13
276.147
276.166
276.184
276.204
276.229
276.26
276.284
276.302
276.32
276.338
276.355
276.37
276.382
276.399
276.417
276.435
276.453
276.471
276.491
276.515
276.541
276.561
276.58
276.598
276.616
276.633
276.651
276.668
276.685
276.703
276.722
276.74
276.758
276.777
276.795
276.813
276.831
276.849
276.867
276.884
276.901
276.919
276.937
276.955
276.973
276.992
277.013
277.045
277.083
277.108
277.126
277.144
277.162
277.178
277.191
277.205
277.222
277.24
277.259
277.277
277.296
277.319
277.341
277.36
277.378
277.396
277.414
277.431
277.446
277.463
277.481
277.499
277.517
277.536
277.558
277.589
277.62
277.64
277.659
277.677
277.695
277.712
277.727
277.74
277.756
277.774
277.792
277.81
277.828
277.846
277.864
277.882
277.899
277.915
277.933
277.951
277.969
277.987
278.005
278.024
278.043
278.066
278.102
278.142
278.166
278.184
278.202
278.22
278.236
278.246
278.248
278.259
278.276
278.294
278.312
278.331
278.349
278.37
278.401
278.444
278.474
278.493
278.511
278.529
278.547
278.562
278.57
278.575
278.589
278.606
278.624
278.642
278.661
278.679
278.697
278.715
278.733
278.751
278.77
278.789
278.812
278.847
278.885
278.907
278.926
278.944
278.962
278.978
278.991
278.997
279.006
279.022
279.04
279.058
279.077
279.095
279.113
279.131
279.149
279.168
279.19
279.221
279.263
279.291
279.31
279.328
279.346
279.364
279.38
279.392
279.404
279.421
279.439
279.457
279.475
279.493
279.511
279.529
279.547
279.565
279.581
279.595
279.61
279.627
279.645
279.663
279.681
279.699
279.718
279.739
279.767
279.808
279.839
279.859
279.877
279.895
279.913
279.929
279.942
279.959
279.977
279.995
280.013
280.032
280.052
280.075
280.097
280.116
280.135
280.153
280.171
280.189
280.206
280.224
280.242
280.26
280.279
280.298
280.319
280.342
280.363
280.381
280.4
280.418
280.436
280.454
280.472
280.491
280.509
280.527
280.546
280.564
280.582
280.6
280.618
280.636
280.653
280.669
280.687
280.705
280.724
280.742
280.76
280.779
280.8
280.828
280.863
280.886
280.905
280.923
280.942
280.96
280.977
280.994
281.008
281.024
281.042
281.06
281.078
281.096
281.114
281.131
281.146
281.161
281.179
281.197
281.215
281.233
281.252
281.271
281.291
281.319
281.36
281.391
281.411
281.429
281.448
281.465
281.481
281.491
281.503
281.52
281.538
281.556
281.575
281.594
281.614
281.638
281.659
281.678
281.696
281.715
281.733
281.75
281.768
281.786
281.804
281.822
281.841
281.86
281.882
281.903
281.921
281.94
281.958
281.976
281.994
282.012
282.03
282.049
282.067
282.086
282.107
282.134
282.162
282.183
282.202
282.22
282.238
282.256
282.274
282.29
282.306
282.324
282.342
282.36
282.378
282.396
282.415
282.433
282.45
282.468
282.486
282.505
282.523
282.541
282.56
282.579
282.6
282.629
282.657
282.677
282.695
282.714
282.732
282.75
282.768
282.786
282.805
282.823
282.842
282.862
282.887
282.912
282.932
282.95
282.968
282.987
283.004
283.02
283.031
283.041
283.056
283.074
283.093
283.111
283.129
283.147
283.166
283.185
283.205
283.232
283.27
283.299
283.319
283.338
283.356
283.374
283.392
283.409
283.422
283.433
283.449
283.467
283.485
283.503
283.521
283.54
283.558
283.576
283.595
283.613
283.631
283.65
283.669
283.692
283.722
283.748
283.768
283.787
283.805
283.823
283.842
283.86
283.878
283.896
283.913
283.928
283.941
283.957
283.975
283.993
284.011
284.029
284.048
284.066
284.084
284.103
284.121
284.14
284.159
284.18
284.209
284.244
284.267
284.286
284.305
284.323
284.341
284.357
284.371
284.386
284.403
284.422
284.44
284.459
284.478
284.5
284.528
284.553
284.572
284.59
284.609
284.627
284.645
284.663
284.681
284.696
284.712
284.73
284.748
284.766
284.784
284.8
284.817
284.835
284.853
284.872
284.89
284.908
284.927
284.945
284.964
284.986
285.016
285.052
285.075
285.094
285.113
285.131
285.149
285.166
285.18
285.192
285.209
285.227
285.246
285.264
285.283
285.302
285.323
285.344
285.364
285.382
285.401
285.419
285.437
285.455
285.471
285.487
285.505
285.524
285.542
285.56
285.579
285.598
285.619
285.646
285.678
285.701
285.72
285.738
285.757
285.775
285.793
285.811
285.827
285.84
285.855
285.872
285.89
285.907
285.924
285.941
285.958
285.977
285.995
286.013
286.032
286.05
286.069
286.087
286.106
286.128
286.157
286.197
286.224
286.244
286.262
286.28
286.298
286.315
286.326
286.331
286.344
286.362
286.38
286.399
286.417
286.437
286.459
286.49
286.523
286.545
286.564
286.582
286.601
286.619
286.635
286.648
286.66
286.677
286.695
286.713
286.732
286.75
286.769
286.788
286.809
286.83
286.849
286.867
286.886
286.904
286.922
286.94
286.956
286.972
286.99
287.008
287.027
287.045
287.064
287.083
287.105
287.135
287.171
287.195
287.214
287.232
287.251
287.269
287.286
287.301
287.315
287.332
287.35
287.369
287.387
287.406
287.426
287.448
287.472
287.492
287.51
287.529
287.547
287.566
287.584
287.603
287.621
287.64
287.658
287.675
287.69
287.7
287.713
287.731
287.749
287.768
287.786
287.804
287.823
287.841
287.86
287.879
287.899
287.924
287.961
287.998
288.02
288.038
288.057
288.075
288.093
288.109
288.12
288.131
288.148
288.166
288.185
288.203
288.222
288.243
288.267
288.297
288.319
288.338
288.356
288.375
288.393
288.411
288.427
288.437
288.445
288.461
288.479
288.497
288.516
288.534
288.553
288.571
288.59
288.608
288.627
288.648
288.674
288.711
288.74
288.76
288.778
288.797
288.815
288.833
288.849
288.859
288.871
288.889
288.907
288.926
288.944
288.963
288.983
289.005
289.026
289.045
289.064
289.082
289.101
289.119
289.136
289.154
289.172
289.191
289.209
289.228
289.248
289.27
289.301
289.329
289.35
289.369
289.388
289.406
289.425
289.443
289.461
289.479
289.497
289.516
289.534
289.553
289.571
289.59
289.608
289.627
289.645
289.662
289.675
289.687
289.703
289.722
289.74
289.759
289.777
289.796
289.815
289.834
289.855
289.884
289.918
289.941
289.96
289.979
289.997
290.016
290.033
290.05
290.061
290.072
290.089
290.107
290.125
290.144
290.162
290.181
290.2
290.219
290.241
290.269
290.298
290.319
290.338
290.356
290.375
290.393
290.412
290.43
290.447
290.462
290.477
290.495
290.514
290.532
290.551
290.569
290.588
290.607
290.626
290.646
290.669
290.698
290.721
290.741
290.76
290.778
290.797
290.815
290.832
290.844
290.852
290.865
290.883
290.901
290.92
290.939
290.957
290.977
290.997
291.025
291.059
291.084
291.104
291.123
291.141
291.16
291.178
291.196
291.212
291.229
291.247
291.265
291.284
291.303
291.321
291.34
291.359
291.378
291.397
291.415
291.434
291.452
291.471
291.49
291.509
291.528
291.551
291.577
291.599
291.618
291.637
291.655
291.674
291.692
291.71
291.725
291.735
291.748
291.766
291.784
291.803
291.822
291.84
291.859
291.878
291.897
291.918
291.945
291.981
292.008
292.027
292.046
292.065
292.084
292.102
292.121
292.139
292.157
292.174
292.187
292.192
292.204
292.222
292.24
292.258
292.277
292.296
292.314
292.333
292.352
292.37
292.389
292.408
292.428
292.451
292.482
292.515
292.537
292.556
292.575
292.593
292.612
292.629
292.645
292.661
292.678
292.697
292.716
292.735
292.754
292.774
292.798
292.821
292.84
292.859
292.878
292.896
292.915
292.932
292.946
292.954
292.965