/*--------------------------------*- C++ -*----------------------------------*\
  =========                 |
  \\      /  F ield         | OpenFOAM: The Open Source CFD Toolbox
   \\    /   O peration     | Website:  https://openfoam.org
    \\  /    A nd           | Version:  9
     \\/     M anipulation  |
\*---------------------------------------------------------------------------*/
FoamFile
{
    format      ascii;
    class       volScalarField;
    location    "0.043";
    object      p;
}
// * * * * * * * * * * * * * * * * * * * * * * * * * * * * * * * * * * * * * //

dimensions      [1 -1 -2 0 0 0 0];

internalField   nonuniform List<scalar> 
1000
(
44756.2
44698.3
44663.2
44625.3
44588.1
44550.8
44513.5
44476.3
44439.1
44401.9
44364.8
44327.6
44290.6
44253.5
44216.5
44179.4
44142.5
44105.5
44068.6
44031.7
43994.8
43957.9
43921.1
43884.3
43847.5
43810.8
43774.1
43737.4
43700.7
43664.1
43627.4
43590.8
43554.3
43517.7
43481.2
43444.7
43408.3
43371.8
43335.4
43299
43262.7
43226.3
43190
43153.8
43117.5
43081.3
43045.1
43008.9
42972.8
42936.6
42900.5
42864.5
42828.4
42792.4
42756.4
42720.4
42684.5
42648.5
42612.6
42576.8
42540.9
42505.1
42469.3
42433.6
42397.8
42362.1
42326.4
42290.8
42255.1
42219.5
42183.9
42148.4
42112.8
42077.4
42041.9
42006.4
41971
41935.6
41900.2
41864.9
41829.5
41794.2
41758.9
41723.7
41688.4
41653.2
41618.1
41582.9
41547.8
41512.7
41477.6
41442.6
41407.6
41372.6
41337.6
41302.7
41267.7
41232.8
41198
41163.1
41128.3
41093.5
41058.7
41023.9
40989.2
40954.5
40919.8
40885.2
40850.6
40816
40781.4
40746.8
40712.3
40677.8
40643.3
40608.9
40574.4
40540
40505.6
40471.3
40436.9
40402.6
40368.4
40334.1
40299.9
40265.7
40231.5
40197.3
40163.2
40129.1
40095
40060.9
40026.9
39992.9
39958.9
39924.9
39891
39857.1
39823.2
39789.3
39755.5
39721.6
39687.9
39654.1
39620.3
39586.6
39552.9
39519.3
39485.6
39452
39418.4
39384.8
39351.3
39317.7
39284.2
39250.8
39217.3
39183.9
39150.5
39117.1
39083.7
39050.4
39017.1
38983.8
38950.6
38917.3
38884.1
38851
38817.8
38784.7
38751.6
38718.5
38685.4
38652.4
38619.3
38586.3
38553.3
38520.3
38487.4
38454.4
38421.5
38388.6
38355.7
38322.9
38290.1
38257.3
38224.5
38191.8
38159.1
38126.5
38093.9
38061.3
38028.7
37996.1
37963.6
37931.1
37898.7
37866.2
37833.8
37801.4
37769
37736.6
37704.3
37672
37639.7
37607.4
37575.1
37542.9
37510.7
37478.5
37446.3
37414.2
37382
37349.9
37317.8
37285.8
37253.7
37221.7
37189.7
37157.8
37125.9
37094
37062.1
37030.2
36998.4
36966.6
36934.8
36903
36871.3
36839.6
36807.9
36776.2
36744.5
36712.9
36681.3
36649.7
36618.2
36586.6
36555.1
36523.6
36492.1
36460.7
36429.3
36397.9
36366.5
36335.1
36303.8
36272.4
36241.2
36210
36178.7
36147.4
36116
36085.1
36054.4
36023.2
35991.5
35960
35929.5
35899.8
35868.5
35836.5
35804.8
35774.3
35745.5
35714.4
35682.4
35650.4
35619.4
35590.8
35560.7
35528.9
35496.9
35465.4
35436
35407.3
35375.9
35344.1
35312.5
35281.9
35253.8
35223.6
35192
35160.3
35129.1
35100.1
35071.5
35040.4
35008.9
34977.6
34947.2
34919.2
34889.4
34858.2
34826.9
34795.9
34766.6
34738.5
34707.9
34676.8
34645.7
34615.3
34587.1
34558.1
34527.3
34496.3
34465.5
34435.7
34408.1
34378.3
34347.5
34316.7
34286.2
34257.1
34229.3
34199.3
34168.7
34138.2
34108.2
34080.4
34051.6
34021.2
33990.6
33960
33929.7
33900.5
33873.2
33843.9
33813.9
33784
33754.9
33727.3
33698
33668.1
33638.1
33608.6
33581
33552.4
33522.4
33492.3
33462
33431.9
33401.9
33372.3
33344.3
33316.3
33286.7
33256.9
33227
33197.3
33167.8
33139.7
33112
33082.6
33053
33023
32992
32962
32932.5
32903.4
32875.8
32854.4
32830.3
32801.5
32772.3
32742.7
32711.8
32680.9
32651.6
32622.5
32593.8
32566
32538
32509.1
32480.2
32451.1
32422.2
32393.5
32365.1
32337.9
32310
32281.5
32252.9
32224.2
32195.8
32167.6
32140
32112.9
32085
32057
32028.9
32001
31973.4
31946.2
31919.7
31892.6
31865.5
31838.4
31811.7
31785.3
31759.4
31734
31708.5
31683.2
31658
31633.3
31609.3
31585.9
31563.4
31541.2
31519.7
31499
31479.5
31461.3
31444.6
31429.6
31416.1
31404.2
31393.8
31385.5
31379
31374.2
31370.8
31368.7
31367.2
31366.1
31365.9
31366.4
31367.7
31370.1
31373.5
31376.6
31379.8
31383.3
31386.7
31389.9
31392.8
31394.8
31396.7
31399.7
31403.2
31407.2
31411.2
31414.1
31416.9
31420.1
31422.6
31424.4
31425.2
31424.2
31423.4
31422.2
31418.6
31412.2
31405.3
31399.2
31394
31388.7
31383.3
31380.4
31378.4
31376.9
31375.7
31374.5
31372.4
31371.1
31371
31371.2
31371.7
31372.2
31372.2
31371.5
31372.4
31373.9
31375.8
31377.8
31379.8
31380.7
31382
31384.5
31387
31389.1
31390.8
31391.4
31390.3
31390
31389.8
31388.7
31385.4
31379.3
31373.9
31370.2
31367.2
31364.7
31362.7
31361
31359.5
31358.3
31357.3
31355.9
31352.9
31351.2
31350.7
31350.6
31350.4
31349.3
31347.3
31347.3
31348.2
31349.3
31350.6
31352.1
31353.7
31355.5
31357.2
31358.6
31358.3
31358.5
31359.8
31361.1
31362
31362.2
31360.5
31359.3
31358.4
31356.1
31352.6
31349
31345.2
31340.4
31337.4
31335.6
31334.1
31332.8
31331.5
31329.5
31326.6
31325.5
31325
31324.8
31324.7
31324.4
31322.9
31321.6
31321.8
31322.4
31323.2
31324
31324.5
31323.7
31323.9
31325.1
31326.6
31328.2
31329.6
31330.1
31329.3
31329.8
31330.7
31331.3
31331.5
31331
31328.4
31324.1
31320.5
31317.4
31314.7
31312.2
31308.7
31305.2
31303.8
31302.8
31302
31301.4
31300.8
31300.4
31300.1
31299.8
31298.8
31295.9
31294.9
31295.1
31295.5
31296
31296.6
31296.9
31295.7
31295.5
31296.4
31297.5
31298.7
31299.8
31300.3
31299.4
31299.7
31300.4
31300.9
31301.1
31300.8
31299
31295.8
31293.1
31290.4
31287.9
31285.5
31283.1
31280.3
31278.3
31277.2
31276.3
31275.4
31274.3
31272.4
31270.5
31269.8
31269.5
31269.4
31269.4
31269.1
31267.6
31266.1
31266.3
31267.2
31268.1
31268.9
31268.9
31267
31267
31268.3
31269.5
31270.5
31270.5
31268.6
31268.5
31268.8
31268.9
31268.8
31268
31266.2
31264.1
31261.7
31257.4
31252.3
31250.2
31249
31248.3
31247.7
31247.3
31246.9
31246.3
31244.8
31241.8
31240.7
31240.5
31240.6
31240.8
31241
31241.1
31239.7
31238
31238.2
31238.7
31239.4
31240.2
31240.9
31241
31238.3
31235.4
31235.7
31236.5
31237.1
31237.7
31238.1
31238.3
31237.8
31236.5
31234.9
31233.4
31231.4
31226.9
31223.2
31221.9
31221
31220.2
31219.6
31218.7
31216.3
31214.3
31213.9
31213.7
31213.7
31213.7
31213.8
31213.8
31212.9
31209.1
31207.4
31207.6
31208.1
31208.7
31209.5
31210.3
31211.1
31211.9
31212.6
31212.6
31210.9
31209.7
31209.4
31209.1
31207.9
31203.9
31200.4
31198.7
31197.4
31196.3
31195.5
31194.9
31194.3
31193.7
31193.1
31192.5
31191.4
31187.9
31183
31181.9
31181.7
31181.7
31181.7
31181.9
31182.1
31182.4
31182.8
31183.2
31183.5
31182.9
31179.2
31176.4
31176.5
31177.1
31177.8
31178.6
31179.4
31180.5
31181.2
31181.5
31181.7
31181.6
31181
31179.3
31174.2
31169
31167.2
31166.1
31165.4
31164.7
31163.5
31160.4
31158
31157.2
31156.8
31156.5
31156.4
31156.2
31155.4
31152.5
31150.4
31150.1
31150.2
31150.4
31150.7
31150.8
31150.5
31147.9
31141.7
31140.2
31140.4
31141
31141.6
31142.1
31142.7
31143
31143.3
31143.3
31143.2
31142.7
31141.9
31140.8
31139.1
31136.1
31132.1
31128.8
31127.5
31127
31126.7
31126.6
31126.4
31126.1
31125.9
31125.8
31125.7
31125.8
31125.8
31125.8
31125
31121.3
31117.2
31116.7
31116.9
31117.2
31117.6
31118.1
31118.5
31118.9
31119.1
31118.4
31113.9
31106.7
31105.5
31105.4
31105.5
31105.3
31104.7
31104.1
31103.6
31103.1
31102.5
31101.8
31100.2
31096.2
31093.5
31092.7
31092.4
31092.2
31091.8
31090.6
31087.2
31085.6
31085.3
31085.2
31085.3
31085.4
31085.2
31084.1
31081.2
31080.2
31080.1
31080.2
31080.2
31079.7
31077.3
31076.2
31076.3
31076.5
31076.7
31076.9
31077
31077.6
31079.9
31088.9
31127.8
31297.2
31668.4
31937.1
32037
32071.6
32086.5
32090.9
32091.4
32090.8
32088.2
32086.6
32085.4
32083.9
32084.9
32085.2
32085.7
32086.1
32084.7
32083.1
32078.2
32071.5
32070.6
32070.6
32070.8
32071.8
32073.6
32073.7
32073.7
32073.4
32071.5
32065.1
32058.9
32057.5
32057.2
32057.1
32057.5
32057.5
32057.3
32056.9
32056.4
32056.2
32056.9
32056.7
32056.3
32056
32055.6
32053.5
32050.2
32067.3
32138.9
32350.5
32607.6
32762.7
32834
32863.4
32877.6
32885.7
32887.3
32884.5
32879.7
32876.9
32876
32875.7
32876.8
32878
32879.9
32881.1
32880.5
32878.5
32870.1
32862.6
32861.7
32861.6
32861.7
32862.5
32864.7
32866.8
32867.4
32867.6
32867.4
32865.6
32858
32851
32850
32850
32850.5
32852.7
32853.5
32853.5
32852.9
32849.3
32843.3
32842.1
32842
32842.3
32844.1
32846.7
32847.1
32847.1
32846.5
32842.1
32833.7
32831.9
32831.9
32832.2
32832.9
32834.5
32835.1
32835.4
32835.6
32834.6
32831.1
32829.8
32829.8
32830.1
32830.3
32830.1
32828
32825.1
32824.7
32824.8
32825
32825.2
32825.1
32823.6
32821.6
32821.3
32821.5
32821.8
32821.8
32821
32817.9
32816.6
32816.7
32817
32817.3
32817.7
32817.9
32818
)
;

boundaryField
{
    sides
    {
        type            zeroGradient;
    }
    empty
    {
        type            empty;
    }
}


// ************************************************************************* //
