/*--------------------------------*- C++ -*----------------------------------*\
  =========                 |
  \\      /  F ield         | OpenFOAM: The Open Source CFD Toolbox
   \\    /   O peration     | Website:  https://openfoam.org
    \\  /    A nd           | Version:  9
     \\/     M anipulation  |
\*---------------------------------------------------------------------------*/
FoamFile
{
    format      ascii;
    class       volScalarField;
    location    "0.043";
    object      T;
}
// * * * * * * * * * * * * * * * * * * * * * * * * * * * * * * * * * * * * * //

dimensions      [0 0 0 1 0 0 0];

internalField   nonuniform List<scalar> 
1000
(
276.989
276.887
276.825
276.758
276.692
276.625
276.559
276.493
276.427
276.361
276.295
276.229
276.162
276.096
276.03
275.964
275.898
275.832
275.766
275.7
275.634
275.568
275.502
275.436
275.37
275.304
275.238
275.172
275.106
275.04
274.974
274.908
274.842
274.776
274.71
274.644
274.578
274.512
274.446
274.381
274.315
274.249
274.183
274.117
274.051
273.985
273.919
273.854
273.788
273.722
273.656
273.59
273.525
273.459
273.393
273.327
273.261
273.196
273.13
273.064
272.998
272.933
272.867
272.801
272.735
272.67
272.604
272.538
272.473
272.407
272.341
272.276
272.21
272.144
272.079
272.013
271.948
271.882
271.816
271.751
271.685
271.62
271.554
271.488
271.423
271.357
271.292
271.226
271.161
271.095
271.03
270.964
270.899
270.833
270.768
270.702
270.637
270.571
270.506
270.44
270.375
270.309
270.244
270.179
270.113
270.048
269.982
269.917
269.852
269.786
269.721
269.656
269.59
269.525
269.459
269.394
269.329
269.263
269.198
269.133
269.068
269.002
268.937
268.872
268.806
268.741
268.676
268.611
268.545
268.48
268.415
268.35
268.284
268.219
268.154
268.089
268.024
267.959
267.893
267.828
267.763
267.698
267.633
267.568
267.502
267.437
267.372
267.307
267.242
267.177
267.112
267.047
266.982
266.917
266.852
266.787
266.722
266.656
266.591
266.526
266.461
266.396
266.331
266.266
266.201
266.137
266.072
266.007
265.942
265.877
265.812
265.747
265.682
265.617
265.552
265.487
265.422
265.357
265.292
265.227
265.162
265.097
265.033
264.968
264.903
264.838
264.773
264.708
264.643
264.579
264.514
264.449
264.384
264.32
264.255
264.19
264.126
264.061
263.996
263.931
263.867
263.802
263.737
263.673
263.608
263.543
263.479
263.414
263.349
263.285
263.22
263.156
263.091
263.026
262.962
262.897
262.832
262.768
262.703
262.639
262.574
262.509
262.445
262.38
262.316
262.251
262.187
262.122
262.058
261.993
261.929
261.864
261.8
261.735
261.671
261.606
261.542
261.478
261.413
261.349
261.284
261.22
261.155
261.091
261.027
260.962
260.898
260.833
260.769
260.705
260.641
260.576
260.511
260.447
260.384
260.32
260.254
260.189
260.126
260.064
259.999
259.933
259.867
259.804
259.744
259.679
259.613
259.546
259.482
259.422
259.359
259.293
259.226
259.16
259.099
259.039
258.973
258.906
258.84
258.776
258.717
258.654
258.587
258.521
258.455
258.394
258.334
258.268
258.202
258.136
258.071
258.012
257.949
257.883
257.817
257.751
257.689
257.63
257.565
257.499
257.433
257.368
257.308
257.246
257.181
257.115
257.049
256.985
256.926
256.863
256.797
256.731
256.666
256.603
256.544
256.479
256.414
256.348
256.284
256.224
256.162
256.097
256.031
255.965
255.9
255.836
255.777
255.714
255.649
255.585
255.522
255.462
255.398
255.333
255.268
255.204
255.144
255.082
255.017
254.951
254.885
254.82
254.754
254.69
254.629
254.567
254.503
254.437
254.372
254.307
254.242
254.181
254.12
254.055
253.99
253.924
253.856
253.79
253.725
253.661
253.6
253.553
253.499
253.436
253.371
253.306
253.237
253.169
253.104
253.039
252.975
252.914
252.851
252.787
252.723
252.658
252.594
252.53
252.466
252.406
252.343
252.28
252.216
252.151
252.088
252.025
251.963
251.902
251.839
251.776
251.713
251.65
251.588
251.527
251.467
251.406
251.345
251.284
251.223
251.164
251.105
251.048
250.99
250.933
250.876
250.82
250.765
250.712
250.661
250.61
250.561
250.514
250.47
250.428
250.39
250.356
250.325
250.298
250.274
250.255
250.24
250.229
250.222
250.217
250.213
250.211
250.21
250.211
250.214
250.219
250.227
250.234
250.241
250.249
250.257
250.264
250.27
250.275
250.279
250.286
250.294
250.303
250.312
250.318
250.325
250.332
250.337
250.341
250.343
250.341
250.339
250.336
250.328
250.313
250.297
250.283
250.271
250.259
250.247
250.24
250.235
250.232
250.229
250.226
250.221
250.218
250.218
250.218
250.219
250.22
250.22
250.218
250.22
250.223
250.228
250.232
250.236
250.238
250.241
250.247
250.252
250.257
250.261
250.262
250.259
250.259
250.258
250.255
250.248
250.234
250.221
250.213
250.206
250.2
250.195
250.191
250.188
250.185
250.182
250.179
250.172
250.168
250.167
250.166
250.165
250.163
250.158
250.158
250.16
250.162
250.165
250.168
250.172
250.175
250.179
250.182
250.182
250.182
250.185
250.187
250.189
250.19
250.185
250.183
250.18
250.175
250.167
250.158
250.149
250.138
250.131
250.127
250.123
250.12
250.117
250.112
250.105
250.103
250.101
250.101
250.1
250.099
250.095
250.092
250.093
250.094
250.095
250.097
250.097
250.095
250.096
250.098
250.101
250.104
250.107
250.108
250.106
250.107
250.109
250.11
250.11
250.109
250.102
250.092
250.084
250.076
250.069
250.063
250.055
250.047
250.043
250.041
250.038
250.036
250.035
250.033
250.032
250.031
250.028
250.021
250.018
250.019
250.019
250.019
250.02
250.02
250.017
250.016
250.017
250.019
250.022
250.023
250.024
250.021
250.021
250.021
250.021
250.02
250.018
250.011
250.002
249.994
249.985
249.975
249.964
249.953
249.942
249.935
249.931
249.927
249.922
249.915
249.905
249.899
249.898
249.899
249.902
249.905
249.907
249.907
249.906
249.908
249.913
249.917
249.92
249.921
249.918
249.919
249.923
249.926
249.928
249.928
249.923
249.922
249.92
249.919
249.918
249.915
249.909
249.903
249.896
249.886
249.874
249.87
249.868
249.867
249.867
249.867
249.867
249.867
249.864
249.857
249.854
249.853
249.854
249.854
249.854
249.854
249.85
249.846
249.846
249.847
249.849
249.851
249.852
249.852
249.846
249.84
249.841
249.843
249.844
249.846
249.847
249.847
249.846
249.843
249.839
249.836
249.831
249.821
249.812
249.809
249.807
249.805
249.804
249.802
249.796
249.792
249.791
249.79
249.79
249.79
249.791
249.791
249.788
249.78
249.776
249.776
249.778
249.779
249.781
249.782
249.784
249.786
249.788
249.788
249.784
249.781
249.78
249.78
249.777
249.768
249.76
249.756
249.753
249.75
249.749
249.747
249.746
249.744
249.743
249.742
249.739
249.731
249.72
249.717
249.717
249.717
249.717
249.717
249.718
249.719
249.719
249.72
249.721
249.72
249.711
249.705
249.705
249.706
249.708
249.71
249.711
249.714
249.716
249.716
249.717
249.716
249.715
249.711
249.699
249.688
249.683
249.681
249.679
249.678
249.675
249.668
249.662
249.661
249.66
249.659
249.659
249.658
249.656
249.65
249.645
249.644
249.644
249.645
249.645
249.646
249.645
249.639
249.625
249.622
249.622
249.623
249.625
249.626
249.627
249.628
249.629
249.629
249.629
249.628
249.626
249.623
249.619
249.613
249.603
249.596
249.593
249.592
249.591
249.591
249.59
249.59
249.589
249.589
249.589
249.589
249.589
249.589
249.587
249.579
249.569
249.568
249.568
249.569
249.57
249.571
249.572
249.573
249.574
249.572
249.562
249.545
249.542
249.542
249.542
249.542
249.54
249.539
249.538
249.536
249.535
249.533
249.53
249.521
249.515
249.513
249.513
249.512
249.511
249.509
249.501
249.497
249.496
249.496
249.496
249.496
249.496
249.493
249.487
249.484
249.484
249.484
249.484
249.483
249.477
249.475
249.475
249.476
249.477
249.477
249.478
249.479
249.484
249.505
249.594
249.981
250.828
251.467
251.605
251.695
251.787
251.813
251.81
251.789
251.753
251.741
251.742
251.758
251.78
251.783
251.779
251.764
251.747
251.744
251.744
251.741
251.743
251.742
251.737
251.728
251.729
251.731
251.736
251.741
251.74
251.723
251.701
251.696
251.696
251.698
251.704
251.706
251.706
251.703
251.698
251.695
251.697
251.697
251.699
251.701
251.699
251.691
251.683
251.721
251.882
252.356
252.924
253.31
253.428
253.46
253.508
253.558
253.568
253.557
253.527
253.509
253.507
253.515
253.531
253.537
253.537
253.533
253.524
253.517
253.506
253.496
253.495
253.494
253.49
253.488
253.49
253.498
253.503
253.505
253.505
253.5
253.48
253.464
253.463
253.464
253.466
253.471
253.472
253.471
253.469
253.461
253.448
253.446
253.446
253.446
253.45
253.456
253.457
253.457
253.456
253.446
253.427
253.423
253.423
253.424
253.425
253.428
253.429
253.43
253.43
253.428
253.422
253.419
253.42
253.421
253.421
253.42
253.415
253.408
253.407
253.407
253.407
253.407
253.407
253.403
253.4
253.399
253.401
253.402
253.402
253.4
253.393
253.39
253.39
253.39
253.391
253.391
253.391
253.391
)
;

boundaryField
{
    sides
    {
        type            zeroGradient;
    }
    empty
    {
        type            empty;
    }
}


// ************************************************************************* //
