/*--------------------------------*- C++ -*----------------------------------*\
  =========                 |
  \\      /  F ield         | OpenFOAM: The Open Source CFD Toolbox
   \\    /   O peration     | Website:  https://openfoam.org
    \\  /    A nd           | Version:  9
     \\/     M anipulation  |
\*---------------------------------------------------------------------------*/
FoamFile
{
    format      ascii;
    class       volVectorField;
    location    "0.043";
    object      U;
}
// * * * * * * * * * * * * * * * * * * * * * * * * * * * * * * * * * * * * * //

dimensions      [0 1 -1 0 0 0 0];

internalField   nonuniform List<vector> 
1000
(
(222.984 0 0)
(223.289 0 0)
(223.467 0 0)
(223.661 0 0)
(223.851 0 0)
(224.042 0 0)
(224.233 0 0)
(224.424 0 0)
(224.615 0 0)
(224.806 0 0)
(224.997 0 0)
(225.188 0 0)
(225.379 0 0)
(225.569 0 0)
(225.76 0 0)
(225.951 0 0)
(226.142 0 0)
(226.333 0 0)
(226.524 0 0)
(226.714 0 0)
(226.905 0 0)
(227.096 0 0)
(227.287 0 0)
(227.478 0 0)
(227.669 0 0)
(227.859 0 0)
(228.05 0 0)
(228.241 0 0)
(228.432 0 0)
(228.623 0 0)
(228.814 0 0)
(229.004 0 0)
(229.195 0 0)
(229.386 0 0)
(229.577 0 0)
(229.768 0 0)
(229.958 0 0)
(230.149 0 0)
(230.34 0 0)
(230.531 0 0)
(230.722 0 0)
(230.912 0 0)
(231.103 0 0)
(231.294 0 0)
(231.485 0 0)
(231.676 0 0)
(231.866 0 0)
(232.057 0 0)
(232.248 0 0)
(232.439 0 0)
(232.63 0 0)
(232.82 0 0)
(233.011 0 0)
(233.202 0 0)
(233.393 0 0)
(233.583 0 0)
(233.774 0 0)
(233.965 0 0)
(234.156 0 0)
(234.346 0 0)
(234.537 0 0)
(234.728 0 0)
(234.919 0 0)
(235.109 0 0)
(235.3 0 0)
(235.491 0 0)
(235.682 0 0)
(235.872 0 0)
(236.063 0 0)
(236.254 0 0)
(236.445 0 0)
(236.635 0 0)
(236.826 0 0)
(237.017 0 0)
(237.207 0 0)
(237.398 0 0)
(237.589 0 0)
(237.779 0 0)
(237.97 0 0)
(238.161 0 0)
(238.351 0 0)
(238.542 0 0)
(238.733 0 0)
(238.924 0 0)
(239.114 0 0)
(239.305 0 0)
(239.496 0 0)
(239.686 0 0)
(239.877 0 0)
(240.068 0 0)
(240.258 0 0)
(240.449 0 0)
(240.639 0 0)
(240.83 0 0)
(241.021 0 0)
(241.211 0 0)
(241.402 0 0)
(241.593 0 0)
(241.783 0 0)
(241.974 0 0)
(242.165 0 0)
(242.355 0 0)
(242.546 0 0)
(242.737 0 0)
(242.927 0 0)
(243.118 0 0)
(243.308 0 0)
(243.499 0 0)
(243.69 0 0)
(243.88 0 0)
(244.071 0 0)
(244.262 0 0)
(244.452 0 0)
(244.643 0 0)
(244.834 0 0)
(245.024 0 0)
(245.215 0 0)
(245.405 0 0)
(245.596 0 0)
(245.787 0 0)
(245.977 0 0)
(246.168 0 0)
(246.359 0 0)
(246.549 0 0)
(246.74 0 0)
(246.931 0 0)
(247.121 0 0)
(247.312 0 0)
(247.502 0 0)
(247.693 0 0)
(247.884 0 0)
(248.074 0 0)
(248.265 0 0)
(248.455 0 0)
(248.646 0 0)
(248.837 0 0)
(249.027 0 0)
(249.218 0 0)
(249.408 0 0)
(249.599 0 0)
(249.79 0 0)
(249.98 0 0)
(250.171 0 0)
(250.361 0 0)
(250.552 0 0)
(250.743 0 0)
(250.933 0 0)
(251.124 0 0)
(251.314 0 0)
(251.505 0 0)
(251.695 0 0)
(251.886 0 0)
(252.077 0 0)
(252.267 0 0)
(252.458 0 0)
(252.648 0 0)
(252.839 0 0)
(253.029 0 0)
(253.22 0 0)
(253.41 0 0)
(253.601 0 0)
(253.792 0 0)
(253.982 0 0)
(254.173 0 0)
(254.363 0 0)
(254.554 0 0)
(254.744 0 0)
(254.935 0 0)
(255.125 0 0)
(255.316 0 0)
(255.506 0 0)
(255.697 0 0)
(255.887 0 0)
(256.078 0 0)
(256.268 0 0)
(256.459 0 0)
(256.65 0 0)
(256.84 0 0)
(257.031 0 0)
(257.222 0 0)
(257.413 0 0)
(257.603 0 0)
(257.794 0 0)
(257.985 0 0)
(258.176 0 0)
(258.366 0 0)
(258.557 0 0)
(258.747 0 0)
(258.938 0 0)
(259.128 0 0)
(259.319 0 0)
(259.509 0 0)
(259.7 0 0)
(259.89 0 0)
(260.08 0 0)
(260.27 0 0)
(260.461 0 0)
(260.651 0 0)
(260.842 0 0)
(261.032 0 0)
(261.222 0 0)
(261.413 0 0)
(261.603 0 0)
(261.793 0 0)
(261.984 0 0)
(262.174 0 0)
(262.365 0 0)
(262.555 0 0)
(262.746 0 0)
(262.936 0 0)
(263.127 0 0)
(263.317 0 0)
(263.508 0 0)
(263.698 0 0)
(263.889 0 0)
(264.079 0 0)
(264.27 0 0)
(264.46 0 0)
(264.651 0 0)
(264.841 0 0)
(265.031 0 0)
(265.222 0 0)
(265.412 0 0)
(265.603 0 0)
(265.793 0 0)
(265.983 0 0)
(266.174 0 0)
(266.364 0 0)
(266.554 0 0)
(266.745 0 0)
(266.935 0 0)
(267.126 0 0)
(267.316 0 0)
(267.506 0 0)
(267.697 0 0)
(267.887 0 0)
(268.078 0 0)
(268.268 0 0)
(268.458 0 0)
(268.649 0 0)
(268.839 0 0)
(269.029 0 0)
(269.22 0 0)
(269.41 0 0)
(269.601 0 0)
(269.791 0 0)
(269.981 0 0)
(270.172 0 0)
(270.362 0 0)
(270.553 0 0)
(270.743 0 0)
(270.933 0 0)
(271.122 0 0)
(271.314 0 0)
(271.507 0 0)
(271.697 0 0)
(271.884 0 0)
(272.072 0 0)
(272.266 0 0)
(272.464 0 0)
(272.653 0 0)
(272.837 0 0)
(273.022 0 0)
(273.216 0 0)
(273.42 0 0)
(273.609 0 0)
(273.792 0 0)
(273.975 0 0)
(274.165 0 0)
(274.37 0 0)
(274.565 0 0)
(274.748 0 0)
(274.931 0 0)
(275.116 0 0)
(275.315 0 0)
(275.518 0 0)
(275.704 0 0)
(275.887 0 0)
(276.07 0 0)
(276.26 0 0)
(276.467 0 0)
(276.659 0 0)
(276.843 0 0)
(277.025 0 0)
(277.211 0 0)
(277.41 0 0)
(277.612 0 0)
(277.798 0 0)
(277.981 0 0)
(278.164 0 0)
(278.354 0 0)
(278.559 0 0)
(278.753 0 0)
(278.936 0 0)
(279.119 0 0)
(279.304 0 0)
(279.5 0 0)
(279.704 0 0)
(279.891 0 0)
(280.075 0 0)
(280.258 0 0)
(280.446 0 0)
(280.648 0 0)
(280.845 0 0)
(281.03 0 0)
(281.214 0 0)
(281.398 0 0)
(281.589 0 0)
(281.794 0 0)
(281.985 0 0)
(282.17 0 0)
(282.353 0 0)
(282.539 0 0)
(282.733 0 0)
(282.937 0 0)
(283.125 0 0)
(283.31 0 0)
(283.494 0 0)
(283.683 0 0)
(283.885 0 0)
(284.081 0 0)
(284.266 0 0)
(284.45 0 0)
(284.633 0 0)
(284.818 0 0)
(285.011 0 0)
(285.215 0 0)
(285.407 0 0)
(285.594 0 0)
(285.78 0 0)
(285.973 0 0)
(286.175 0 0)
(286.366 0 0)
(286.552 0 0)
(286.738 0 0)
(286.927 0 0)
(287.128 0 0)
(287.323 0 0)
(287.508 0 0)
(287.693 0 0)
(287.875 0 0)
(288.059 0 0)
(288.243 0 0)
(288.43 0 0)
(288.627 0 0)
(288.825 0 0)
(289.012 0 0)
(289.196 0 0)
(289.381 0 0)
(289.566 0 0)
(289.752 0 0)
(289.948 0 0)
(290.146 0 0)
(290.333 0 0)
(290.518 0 0)
(290.701 0 0)
(290.876 0 0)
(291.057 0 0)
(291.242 0 0)
(291.429 0 0)
(291.628 0 0)
(291.868 0 0)
(292.09 0 0)
(292.28 0 0)
(292.466 0 0)
(292.649 0 0)
(292.823 0 0)
(292.996 0 0)
(293.181 0 0)
(293.367 0 0)
(293.555 0 0)
(293.75 0 0)
(293.942 0 0)
(294.129 0 0)
(294.315 0 0)
(294.499 0 0)
(294.685 0 0)
(294.871 0 0)
(295.06 0 0)
(295.256 0 0)
(295.447 0 0)
(295.634 0 0)
(295.819 0 0)
(296.004 0 0)
(296.19 0 0)
(296.376 0 0)
(296.567 0 0)
(296.76 0 0)
(296.947 0 0)
(297.132 0 0)
(297.315 0 0)
(297.499 0 0)
(297.683 0 0)
(297.869 0 0)
(298.058 0 0)
(298.241 0 0)
(298.422 0 0)
(298.601 0 0)
(298.779 0 0)
(298.956 0 0)
(299.134 0 0)
(299.312 0 0)
(299.484 0 0)
(299.654 0 0)
(299.819 0 0)
(299.982 0 0)
(300.144 0 0)
(300.303 0 0)
(300.461 0 0)
(300.612 0 0)
(300.758 0 0)
(300.896 0 0)
(301.028 0 0)
(301.151 0 0)
(301.264 0 0)
(301.366 0 0)
(301.455 0 0)
(301.528 0 0)
(301.588 0 0)
(301.637 0 0)
(301.676 0 0)
(301.705 0 0)
(301.722 0 0)
(301.73 0 0)
(301.728 0 0)
(301.719 0 0)
(301.711 0 0)
(301.701 0 0)
(301.687 0 0)
(301.664 0 0)
(301.629 0 0)
(301.587 0 0)
(301.549 0 0)
(301.518 0 0)
(301.49 0 0)
(301.463 0 0)
(301.436 0 0)
(301.404 0 0)
(301.371 0 0)
(301.344 0 0)
(301.315 0 0)
(301.283 0 0)
(301.245 0 0)
(301.2 0 0)
(301.16 0 0)
(301.133 0 0)
(301.113 0 0)
(301.097 0 0)
(301.082 0 0)
(301.064 0 0)
(301.054 0 0)
(301.06 0 0)
(301.086 0 0)
(301.132 0 0)
(301.18 0 0)
(301.221 0 0)
(301.253 0 0)
(301.27 0 0)
(301.275 0 0)
(301.287 0 0)
(301.298 0 0)
(301.306 0 0)
(301.311 0 0)
(301.311 0 0)
(301.299 0 0)
(301.29 0 0)
(301.286 0 0)
(301.282 0 0)
(301.276 0 0)
(301.267 0 0)
(301.251 0 0)
(301.227 0 0)
(301.21 0 0)
(301.196 0 0)
(301.181 0 0)
(301.163 0 0)
(301.141 0 0)
(301.107 0 0)
(301.075 0 0)
(301.052 0 0)
(301.033 0 0)
(301.015 0 0)
(301 0 0)
(300.982 0 0)
(300.959 0 0)
(300.948 0 0)
(300.945 0 0)
(300.948 0 0)
(300.962 0 0)
(300.973 0 0)
(300.988 0 0)
(301.01 0 0)
(301.03 0 0)
(301.048 0 0)
(301.064 0 0)
(301.076 0 0)
(301.086 0 0)
(301.094 0 0)
(301.098 0 0)
(301.096 0 0)
(301.08 0 0)
(301.069 0 0)
(301.066 0 0)
(301.062 0 0)
(301.056 0 0)
(301.042 0 0)
(301.019 0 0)
(301.007 0 0)
(300.999 0 0)
(300.99 0 0)
(300.98 0 0)
(300.97 0 0)
(300.958 0 0)
(300.945 0 0)
(300.93 0 0)
(300.911 0 0)
(300.88 0 0)
(300.853 0 0)
(300.837 0 0)
(300.825 0 0)
(300.814 0 0)
(300.802 0 0)
(300.782 0 0)
(300.771 0 0)
(300.774 0 0)
(300.789 0 0)
(300.813 0 0)
(300.835 0 0)
(300.85 0 0)
(300.851 0 0)
(300.858 0 0)
(300.867 0 0)
(300.875 0 0)
(300.882 0 0)
(300.887 0 0)
(300.884 0 0)
(300.872 0 0)
(300.87 0 0)
(300.871 0 0)
(300.87 0 0)
(300.868 0 0)
(300.863 0 0)
(300.847 0 0)
(300.831 0 0)
(300.824 0 0)
(300.817 0 0)
(300.809 0 0)
(300.799 0 0)
(300.785 0 0)
(300.759 0 0)
(300.74 0 0)
(300.726 0 0)
(300.713 0 0)
(300.7 0 0)
(300.685 0 0)
(300.665 0 0)
(300.637 0 0)
(300.621 0 0)
(300.612 0 0)
(300.606 0 0)
(300.602 0 0)
(300.599 0 0)
(300.595 0 0)
(300.597 0 0)
(300.615 0 0)
(300.634 0 0)
(300.649 0 0)
(300.659 0 0)
(300.655 0 0)
(300.647 0 0)
(300.651 0 0)
(300.656 0 0)
(300.661 0 0)
(300.665 0 0)
(300.669 0 0)
(300.671 0 0)
(300.672 0 0)
(300.67 0 0)
(300.661 0 0)
(300.637 0 0)
(300.625 0 0)
(300.62 0 0)
(300.615 0 0)
(300.608 0 0)
(300.6 0 0)
(300.588 0 0)
(300.564 0 0)
(300.545 0 0)
(300.533 0 0)
(300.521 0 0)
(300.51 0 0)
(300.497 0 0)
(300.48 0 0)
(300.454 0 0)
(300.439 0 0)
(300.429 0 0)
(300.421 0 0)
(300.416 0 0)
(300.411 0 0)
(300.404 0 0)
(300.399 0 0)
(300.411 0 0)
(300.427 0 0)
(300.441 0 0)
(300.451 0 0)
(300.455 0 0)
(300.452 0 0)
(300.45 0 0)
(300.452 0 0)
(300.454 0 0)
(300.455 0 0)
(300.454 0 0)
(300.446 0 0)
(300.436 0 0)
(300.433 0 0)
(300.431 0 0)
(300.428 0 0)
(300.424 0 0)
(300.417 0 0)
(300.399 0 0)
(300.381 0 0)
(300.373 0 0)
(300.369 0 0)
(300.363 0 0)
(300.356 0 0)
(300.34 0 0)
(300.311 0 0)
(300.294 0 0)
(300.286 0 0)
(300.277 0 0)
(300.268 0 0)
(300.252 0 0)
(300.225 0 0)
(300.214 0 0)
(300.209 0 0)
(300.207 0 0)
(300.209 0 0)
(300.216 0 0)
(300.227 0 0)
(300.238 0 0)
(300.246 0 0)
(300.237 0 0)
(300.219 0 0)
(300.221 0 0)
(300.225 0 0)
(300.229 0 0)
(300.233 0 0)
(300.236 0 0)
(300.237 0 0)
(300.238 0 0)
(300.232 0 0)
(300.212 0 0)
(300.205 0 0)
(300.203 0 0)
(300.202 0 0)
(300.199 0 0)
(300.196 0 0)
(300.189 0 0)
(300.172 0 0)
(300.151 0 0)
(300.143 0 0)
(300.136 0 0)
(300.129 0 0)
(300.122 0 0)
(300.113 0 0)
(300.099 0 0)
(300.064 0 0)
(300.029 0 0)
(300.018 0 0)
(300.012 0 0)
(300.007 0 0)
(300.004 0 0)
(300.004 0 0)
(300.007 0 0)
(300.012 0 0)
(300.022 0 0)
(300.032 0 0)
(300.041 0 0)
(300.044 0 0)
(300.026 0 0)
(300.013 0 0)
(300.016 0 0)
(300.02 0 0)
(300.023 0 0)
(300.025 0 0)
(300.023 0 0)
(300.008 0 0)
(299.997 0 0)
(299.996 0 0)
(299.996 0 0)
(299.995 0 0)
(299.994 0 0)
(299.992 0 0)
(299.988 0 0)
(299.975 0 0)
(299.941 0 0)
(299.922 0 0)
(299.916 0 0)
(299.911 0 0)
(299.906 0 0)
(299.901 0 0)
(299.895 0 0)
(299.889 0 0)
(299.882 0 0)
(299.875 0 0)
(299.864 0 0)
(299.843 0 0)
(299.826 0 0)
(299.819 0 0)
(299.813 0 0)
(299.805 0 0)
(299.783 0 0)
(299.773 0 0)
(299.78 0 0)
(299.788 0 0)
(299.795 0 0)
(299.801 0 0)
(299.806 0 0)
(299.811 0 0)
(299.815 0 0)
(299.818 0 0)
(299.82 0 0)
(299.817 0 0)
(299.795 0 0)
(299.761 0 0)
(299.754 0 0)
(299.753 0 0)
(299.752 0 0)
(299.752 0 0)
(299.751 0 0)
(299.75 0 0)
(299.748 0 0)
(299.745 0 0)
(299.741 0 0)
(299.736 0 0)
(299.724 0 0)
(299.689 0 0)
(299.66 0 0)
(299.652 0 0)
(299.646 0 0)
(299.641 0 0)
(299.636 0 0)
(299.633 0 0)
(299.633 0 0)
(299.633 0 0)
(299.631 0 0)
(299.63 0 0)
(299.63 0 0)
(299.632 0 0)
(299.631 0 0)
(299.609 0 0)
(299.586 0 0)
(299.587 0 0)
(299.59 0 0)
(299.593 0 0)
(299.594 0 0)
(299.591 0 0)
(299.574 0 0)
(299.562 0 0)
(299.562 0 0)
(299.563 0 0)
(299.564 0 0)
(299.564 0 0)
(299.562 0 0)
(299.555 0 0)
(299.532 0 0)
(299.514 0 0)
(299.509 0 0)
(299.507 0 0)
(299.504 0 0)
(299.5 0 0)
(299.496 0 0)
(299.487 0 0)
(299.461 0 0)
(299.409 0 0)
(299.391 0 0)
(299.384 0 0)
(299.38 0 0)
(299.375 0 0)
(299.371 0 0)
(299.367 0 0)
(299.364 0 0)
(299.363 0 0)
(299.362 0 0)
(299.363 0 0)
(299.367 0 0)
(299.37 0 0)
(299.373 0 0)
(299.372 0 0)
(299.362 0 0)
(299.343 0 0)
(299.328 0 0)
(299.324 0 0)
(299.324 0 0)
(299.325 0 0)
(299.326 0 0)
(299.327 0 0)
(299.329 0 0)
(299.331 0 0)
(299.332 0 0)
(299.332 0 0)
(299.332 0 0)
(299.331 0 0)
(299.328 0 0)
(299.32 0 0)
(299.29 0 0)
(299.257 0 0)
(299.249 0 0)
(299.246 0 0)
(299.243 0 0)
(299.239 0 0)
(299.236 0 0)
(299.232 0 0)
(299.229 0 0)
(299.223 0 0)
(299.212 0 0)
(299.173 0 0)
(299.115 0 0)
(299.1 0 0)
(299.097 0 0)
(299.096 0 0)
(299.098 0 0)
(299.102 0 0)
(299.106 0 0)
(299.11 0 0)
(299.113 0 0)
(299.117 0 0)
(299.119 0 0)
(299.115 0 0)
(299.093 0 0)
(299.079 0 0)
(299.077 0 0)
(299.076 0 0)
(299.075 0 0)
(299.073 0 0)
(299.066 0 0)
(299.043 0 0)
(299.033 0 0)
(299.031 0 0)
(299.029 0 0)
(299.027 0 0)
(299.025 0 0)
(299.021 0 0)
(299.01 0 0)
(298.986 0 0)
(298.976 0 0)
(298.971 0 0)
(298.967 0 0)
(298.962 0 0)
(298.952 0 0)
(298.927 0 0)
(298.913 0 0)
(298.908 0 0)
(298.905 0 0)
(298.903 0 0)
(298.903 0 0)
(298.902 0 0)
(298.897 0 0)
(298.879 0 0)
(298.809 0 0)
(298.508 0 0)
(297.232 0 0)
(294.419 0 0)
(292.581 0 0)
(291.816 0 0)
(291.554 0 0)
(291.486 0 0)
(291.46 0 0)
(291.451 0 0)
(291.447 0 0)
(291.43 0 0)
(291.42 0 0)
(291.412 0 0)
(291.403 0 0)
(291.412 0 0)
(291.415 0 0)
(291.42 0 0)
(291.424 0 0)
(291.415 0 0)
(291.406 0 0)
(291.373 0 0)
(291.327 0 0)
(291.322 0 0)
(291.323 0 0)
(291.326 0 0)
(291.335 0 0)
(291.351 0 0)
(291.355 0 0)
(291.359 0 0)
(291.361 0 0)
(291.351 0 0)
(291.31 0 0)
(291.27 0 0)
(291.265 0 0)
(291.267 0 0)
(291.271 0 0)
(291.279 0 0)
(291.286 0 0)
(291.29 0 0)
(291.294 0 0)
(291.298 0 0)
(291.306 0 0)
(291.321 0 0)
(291.33 0 0)
(291.336 0 0)
(291.338 0 0)
(291.328 0 0)
(291.283 0 0)
(291.169 0 0)
(290.99 0 0)
(290.462 0 0)
(288.968 0 0)
(287.15 0 0)
(286.112 0 0)
(285.638 0 0)
(285.429 0 0)
(285.348 0 0)
(285.324 0 0)
(285.299 0 0)
(285.264 0 0)
(285.226 0 0)
(285.206 0 0)
(285.201 0 0)
(285.199 0 0)
(285.208 0 0)
(285.216 0 0)
(285.229 0 0)
(285.238 0 0)
(285.233 0 0)
(285.219 0 0)
(285.161 0 0)
(285.11 0 0)
(285.104 0 0)
(285.104 0 0)
(285.104 0 0)
(285.11 0 0)
(285.125 0 0)
(285.139 0 0)
(285.144 0 0)
(285.145 0 0)
(285.144 0 0)
(285.132 0 0)
(285.079 0 0)
(285.03 0 0)
(285.023 0 0)
(285.023 0 0)
(285.027 0 0)
(285.042 0 0)
(285.048 0 0)
(285.048 0 0)
(285.044 0 0)
(285.02 0 0)
(284.979 0 0)
(284.971 0 0)
(284.97 0 0)
(284.972 0 0)
(284.984 0 0)
(285.001 0 0)
(285.003 0 0)
(285.001 0 0)
(284.995 0 0)
(284.962 0 0)
(284.901 0 0)
(284.886 0 0)
(284.883 0 0)
(284.882 0 0)
(284.883 0 0)
(284.89 0 0)
(284.89 0 0)
(284.887 0 0)
(284.883 0 0)
(284.871 0 0)
(284.841 0 0)
(284.826 0 0)
(284.82 0 0)
(284.816 0 0)
(284.812 0 0)
(284.804 0 0)
(284.784 0 0)
(284.758 0 0)
(284.75 0 0)
(284.745 0 0)
(284.74 0 0)
(284.735 0 0)
(284.728 0 0)
(284.711 0 0)
(284.692 0 0)
(284.684 0 0)
(284.679 0 0)
(284.675 0 0)
(284.669 0 0)
(284.658 0 0)
(284.63 0 0)
(284.616 0 0)
(284.611 0 0)
(284.607 0 0)
(284.604 0 0)
(284.6 0 0)
(284.597 0 0)
(284.59 0 0)
)
;

boundaryField
{
    sides
    {
        type            zeroGradient;
    }
    empty
    {
        type            empty;
    }
}


// ************************************************************************* //
