/*--------------------------------*- C++ -*----------------------------------*\
  =========                 |
  \\      /  F ield         | OpenFOAM: The Open Source CFD Toolbox
   \\    /   O peration     | Website:  https://openfoam.org
    \\  /    A nd           | Version:  9
     \\/     M anipulation  |
\*---------------------------------------------------------------------------*/
FoamFile
{
    format      ascii;
    class       volScalarField;
    location    "0.023";
    object      T;
}
// * * * * * * * * * * * * * * * * * * * * * * * * * * * * * * * * * * * * * //

dimensions      [0 0 0 1 0 0 0];

internalField   nonuniform List<scalar> 
1000
(
252.144
252.173
252.221
252.28
252.345
252.401
252.438
252.458
252.464
252.465
252.464
252.46
252.45
252.436
252.423
252.41
252.397
252.385
252.372
252.36
252.347
252.335
252.322
252.31
252.297
252.285
252.272
252.259
252.247
252.234
252.221
252.209
252.196
252.183
252.17
252.158
252.145
252.132
252.119
252.106
252.093
252.08
252.067
252.054
252.041
252.028
252.015
252.002
251.989
251.976
251.963
251.95
251.937
251.923
251.91
251.897
251.884
251.87
251.857
251.844
251.83
251.817
251.804
251.79
251.777
251.763
251.75
251.736
251.723
251.709
251.696
251.682
251.668
251.655
251.641
251.627
251.613
251.6
251.586
251.572
251.558
251.544
251.531
251.517
251.503
251.489
251.475
251.461
251.447
251.433
251.419
251.405
251.39
251.376
251.362
251.348
251.334
251.319
251.305
251.291
251.277
251.262
251.248
251.233
251.219
251.204
251.19
251.175
251.161
251.146
251.132
251.117
251.102
251.088
251.073
251.058
251.044
251.029
251.014
250.999
250.984
250.969
250.955
250.939
250.926
250.908
250.896
250.877
250.867
250.847
250.837
250.817
250.806
250.786
250.776
250.755
250.745
250.725
250.715
250.694
250.684
250.663
250.652
250.633
250.62
250.604
250.587
250.574
250.555
250.542
250.525
250.509
250.495
250.477
250.463
250.447
250.43
250.415
250.399
250.382
250.367
250.351
250.334
250.319
250.302
250.286
250.27
250.254
250.238
250.221
250.205
250.189
250.172
250.156
250.139
250.123
250.107
250.09
250.073
250.057
250.04
250.024
250.007
249.99
249.973
249.957
249.94
249.923
249.906
249.889
249.872
249.855
249.838
249.821
249.804
249.787
249.77
249.753
249.736
249.719
249.701
249.684
249.667
249.649
249.632
249.615
249.597
249.58
249.562
249.545
249.527
249.51
249.492
249.474
249.457
249.439
249.421
249.403
249.385
249.368
249.35
249.332
249.314
249.296
249.278
249.26
249.242
249.223
249.205
249.187
249.169
249.151
249.132
249.114
249.096
249.077
249.059
249.04
249.022
249.003
248.985
248.966
248.948
248.929
248.91
248.891
248.873
248.854
248.835
248.816
248.797
248.778
248.759
248.74
248.721
248.702
248.683
248.664
248.645
248.626
248.606
248.587
248.568
248.549
248.529
248.51
248.49
248.471
248.451
248.432
248.412
248.393
248.373
248.353
248.334
248.314
248.294
248.274
248.255
248.235
248.215
248.195
248.175
248.155
248.135
248.115
248.095
248.075
248.054
248.034
248.014
247.994
247.973
247.953
247.933
247.912
247.892
247.872
247.851
247.831
247.81
247.789
247.769
247.748
247.728
247.707
247.686
247.665
247.645
247.624
247.603
247.582
247.561
247.54
247.519
247.498
247.477
247.456
247.435
247.414
247.393
247.372
247.351
247.329
247.308
247.287
247.266
247.244
247.223
247.202
247.18
247.159
247.138
247.116
247.095
247.073
247.052
247.03
247.009
246.987
246.966
246.944
246.923
246.901
246.879
246.858
246.836
246.815
246.793
246.771
246.75
246.728
246.706
246.685
246.663
246.641
246.62
246.598
246.576
246.555
246.533
246.511
246.49
246.468
246.446
246.425
246.403
246.382
246.36
246.339
246.317
246.296
246.274
246.253
246.231
246.21
246.189
246.167
246.146
246.125
246.104
246.083
246.062
246.041
246.02
245.999
245.979
245.958
245.937
245.917
245.896
245.876
245.856
245.836
245.816
245.796
245.776
245.757
245.737
245.718
245.698
245.679
245.66
245.642
245.623
245.605
245.587
245.569
245.551
245.533
245.516
245.499
245.482
245.466
245.449
245.433
245.418
245.402
245.387
245.372
245.358
245.344
245.33
245.317
245.304
245.291
245.279
245.268
245.256
245.246
245.236
245.226
245.217
245.208
245.201
245.193
245.186
245.18
245.175
245.17
245.166
245.163
245.16
245.159
245.158
245.158
245.159
245.16
245.162
245.165
245.17
245.175
245.181
245.188
245.196
245.205
245.215
245.227
245.239
245.252
245.267
245.282
245.299
245.317
245.336
245.356
245.377
245.399
245.422
245.446
245.472
245.498
245.525
245.554
245.583
245.613
245.645
245.677
245.71
245.743
245.778
245.813
245.849
245.886
245.923
245.96
245.998
246.037
246.075
246.114
246.154
246.193
246.233
246.272
246.312
246.352
246.391
246.43
246.469
246.508
246.547
246.585
246.623
246.66
246.697
246.733
246.769
246.804
246.838
246.872
246.906
246.938
246.97
247.001
247.032
247.061
247.09
247.119
247.146
247.173
247.198
247.223
247.248
247.271
247.294
247.316
247.337
247.358
247.377
247.396
247.414
247.432
247.449
247.465
247.48
247.495
247.509
247.523
247.536
247.548
247.56
247.571
247.581
247.592
247.601
247.61
247.619
247.627
247.635
247.642
247.649
247.655
247.661
247.667
247.672
247.677
247.682
247.687
247.691
247.695
247.698
247.702
247.705
247.708
247.711
247.713
247.716
247.718
247.72
247.722
247.724
247.726
247.727
247.729
247.73
247.731
247.732
247.733
247.734
247.735
247.736
247.737
247.738
247.738
247.739
247.739
247.74
247.741
247.741
247.741
247.742
247.742
247.743
247.743
247.743
247.743
247.744
247.744
247.744
247.744
247.745
247.745
247.745
247.745
247.745
247.746
247.746
247.746
247.746
247.746
247.746
247.747
247.747
247.747
247.747
247.747
247.747
247.747
247.748
247.748
247.748
247.748
247.748
247.748
247.748
247.748
247.749
247.749
247.749
247.749
247.749
247.749
247.749
247.749
247.75
247.75
247.75
247.75
247.75
247.75
247.75
247.75
247.751
247.751
247.751
247.751
247.751
247.751
247.751
247.752
247.752
247.752
247.752
247.752
247.752
247.752
247.753
247.753
247.753
247.753
247.753
247.753
247.753
247.754
247.754
247.754
247.754
247.754
247.754
247.755
247.755
247.755
247.755
247.755
247.755
247.755
247.756
247.756
247.756
247.756
247.756
247.756
247.756
247.757
247.757
247.757
247.757
247.757
247.757
247.758
247.758
247.758
247.758
247.758
247.758
247.759
247.759
247.759
247.759
247.759
247.759
247.76
247.76
247.76
247.76
247.76
247.761
247.761
247.761
247.761
247.761
247.761
247.762
247.762
247.762
247.762
247.762
247.763
247.763
247.763
247.763
247.763
247.763
247.764
247.764
247.764
247.764
247.764
247.765
247.765
247.765
247.765
247.765
247.766
247.766
247.766
247.766
247.766
247.767
247.767
247.767
247.767
247.767
247.768
247.768
247.768
247.768
247.769
247.769
247.769
247.769
247.769
247.77
247.77
247.77
247.77
247.77
247.771
247.771
247.771
247.771
247.772
247.772
247.772
247.772
247.773
247.773
247.773
247.773
247.774
247.774
247.774
247.774
247.775
247.775
247.775
247.775
247.776
247.776
247.776
247.776
247.777
247.777
247.777
247.777
247.778
247.778
247.778
247.778
247.779
247.779
247.779
247.779
247.78
247.78
247.78
247.78
247.781
247.781
247.781
247.781
247.782
247.782
247.782
247.782
247.783
247.783
247.784
247.784
247.784
247.784
247.785
247.785
247.785
247.785
247.786
247.786
247.787
247.787
247.787
247.787
247.788
247.788
247.789
247.789
247.789
247.789
247.79
247.79
247.79
247.79
247.791
247.791
247.792
247.792
247.792
247.793
247.793
247.793
247.794
247.794
247.795
247.795
247.795
247.795
247.796
247.796
247.797
247.797
247.798
247.798
247.798
247.798
247.799
247.799
247.8
247.8
247.801
247.801
247.802
247.802
247.802
247.802
247.803
247.803
247.804
247.804
247.805
247.805
247.806
247.806
247.807
247.807
247.808
247.808
247.809
247.81
247.811
247.811
247.813
247.814
247.816
247.816
247.819
247.82
247.823
247.824
247.828
247.829
247.834
247.835
247.842
247.843
247.852
247.853
247.863
247.864
247.877
247.878
247.893
247.894
247.912
247.913
247.933
247.935
247.957
247.959
247.984
247.986
248.014
248.016
248.045
248.047
248.078
248.08
248.113
248.114
248.147
248.148
248.182
248.183
248.216
248.216
248.248
248.248
248.279
248.279
248.307
248.307
248.333
248.333
248.356
248.356
248.376
248.376
248.394
248.394
248.409
248.409
248.422
248.422
248.432
248.432
248.441
248.442
248.449
248.449
248.455
248.456
248.461
248.461
248.466
248.466
248.47
248.471
248.475
248.475
248.479
248.48
248.484
248.484
248.489
248.489
248.494
248.494
248.499
248.499
248.504
248.504
248.508
248.509
248.513
248.513
248.518
248.518
248.521
248.522
248.525
248.525
248.529
248.529
248.532
248.532
248.534
248.534
248.536
248.537
248.539
248.539
248.541
248.541
248.543
248.544
248.546
248.546
248.548
248.548
248.551
248.551
248.554
)
;

boundaryField
{
    sides
    {
        type            zeroGradient;
    }
    empty
    {
        type            empty;
    }
}


// ************************************************************************* //
