/*--------------------------------*- C++ -*----------------------------------*\
  =========                 |
  \\      /  F ield         | OpenFOAM: The Open Source CFD Toolbox
   \\    /   O peration     | Website:  https://openfoam.org
    \\  /    A nd           | Version:  9
     \\/     M anipulation  |
\*---------------------------------------------------------------------------*/
FoamFile
{
    format      ascii;
    class       volScalarField;
    location    "0.018";
    object      T;
}
// * * * * * * * * * * * * * * * * * * * * * * * * * * * * * * * * * * * * * //

dimensions      [0 0 0 1 0 0 0];

internalField   nonuniform List<scalar> 
1000
(
289.799
289.859
289.914
289.928
289.928
289.924
289.91
289.897
289.884
289.871
289.858
289.846
289.833
289.82
289.807
289.794
289.781
289.767
289.754
289.74
289.727
289.713
289.7
289.686
289.672
289.658
289.644
289.63
289.615
289.601
289.587
289.572
289.557
289.543
289.528
289.513
289.498
289.483
289.468
289.452
289.437
289.421
289.406
289.39
289.374
289.359
289.343
289.326
289.31
289.294
289.278
289.261
289.245
289.228
289.211
289.194
289.177
289.16
289.143
289.126
289.108
289.091
289.073
289.055
289.038
289.02
289.001
288.983
288.965
288.947
288.928
288.909
288.891
288.872
288.853
288.834
288.814
288.795
288.775
288.756
288.736
288.716
288.696
288.676
288.656
288.636
288.615
288.594
288.574
288.553
288.532
288.51
288.489
288.468
288.446
288.424
288.402
288.38
288.358
288.336
288.313
288.291
288.268
288.245
288.222
288.198
288.175
288.151
288.127
288.103
288.079
288.055
288.031
288.006
287.981
287.956
287.931
287.905
287.88
287.854
287.828
287.802
287.776
287.749
287.722
287.695
287.668
287.641
287.613
287.585
287.557
287.529
287.5
287.471
287.442
287.413
287.383
287.354
287.323
287.293
287.263
287.232
287.2
287.169
287.137
287.105
287.073
287.04
287.007
286.974
286.94
286.906
286.872
286.837
286.802
286.767
286.731
286.695
286.658
286.621
286.584
286.546
286.508
286.469
286.43
286.39
286.35
286.309
286.268
286.226
286.184
286.141
286.098
286.054
286.009
285.964
285.918
285.872
285.825
285.776
285.728
285.678
285.629
285.576
285.527
285.47
285.423
285.359
285.316
285.244
285.205
285.127
285.088
285.008
284.966
284.883
284.84
284.754
284.71
284.62
284.574
284.482
284.432
284.343
284.276
284.201
284.121
284.047
283.962
283.885
283.8
283.715
283.63
283.541
283.453
283.361
283.268
283.174
283.077
282.979
282.879
282.778
282.675
282.569
282.463
282.354
282.244
282.132
282.019
281.903
281.786
281.668
281.548
281.426
281.302
281.178
281.051
280.923
280.794
280.664
280.532
280.399
280.264
280.129
279.992
279.855
279.716
279.576
279.435
279.294
279.151
279.008
278.864
278.72
278.574
278.428
278.282
278.135
277.988
277.84
277.691
277.543
277.393
277.244
277.094
276.945
276.794
276.644
276.493
276.343
276.192
276.041
275.89
275.739
275.587
275.436
275.285
275.133
274.982
274.83
274.679
274.527
274.376
274.224
274.073
273.921
273.77
273.619
273.467
273.316
273.165
273.013
272.862
272.711
272.56
272.409
272.258
272.107
271.956
271.805
271.654
271.504
271.353
271.202
271.052
270.901
270.751
270.601
270.45
270.3
270.15
270
269.85
269.7
269.55
269.4
269.25
269.101
268.951
268.801
268.652
268.502
268.353
268.204
268.055
267.905
267.756
267.607
267.459
267.31
267.161
267.012
266.864
266.715
266.567
266.418
266.27
266.122
265.974
265.826
265.678
265.53
265.382
265.235
265.087
264.939
264.792
264.645
264.497
264.35
264.203
264.056
263.91
263.763
263.616
263.47
263.323
263.177
263.031
262.885
262.739
262.593
262.447
262.301
262.156
262.01
261.865
261.72
261.575
261.43
261.285
261.141
260.996
260.852
260.708
260.564
260.42
260.276
260.132
259.989
259.846
259.703
259.56
259.417
259.274
259.132
258.99
258.848
258.706
258.564
258.423
258.281
258.14
257.999
257.859
257.719
257.578
257.439
257.299
257.16
257.02
256.882
256.743
256.605
256.467
256.329
256.192
256.055
255.918
255.782
255.646
255.51
255.375
255.24
255.105
254.971
254.837
254.704
254.571
254.439
254.307
254.176
254.045
253.915
253.785
253.656
253.527
253.399
253.272
253.145
253.019
252.894
252.769
252.646
252.523
252.4
252.279
252.158
252.039
251.92
251.802
251.686
251.57
251.455
251.342
251.229
251.118
251.008
250.899
250.792
250.686
250.581
250.478
250.376
250.276
250.177
250.08
249.984
249.891
249.799
249.709
249.621
249.534
249.45
249.368
249.287
249.209
249.133
249.059
248.987
248.917
248.85
248.785
248.722
248.662
248.604
248.548
248.494
248.443
248.394
248.348
248.304
248.262
248.222
248.185
248.149
248.116
248.085
248.056
248.028
248.003
247.979
247.958
247.937
247.919
247.902
247.886
247.872
247.859
247.847
247.837
247.827
247.819
247.811
247.804
247.798
247.792
247.788
247.783
247.78
247.776
247.773
247.771
247.769
247.767
247.765
247.764
247.763
247.762
247.761
247.761
247.76
247.76
247.759
247.759
247.759
247.759
247.758
247.758
247.758
247.758
247.758
247.758
247.758
247.758
247.758
247.758
247.758
247.759
247.759
247.759
247.759
247.759
247.759
247.759
247.759
247.759
247.759
247.76
247.76
247.76
247.76
247.76
247.76
247.76
247.76
247.761
247.761
247.761
247.761
247.761
247.761
247.761
247.762
247.762
247.762
247.762
247.762
247.762
247.763
247.763
247.763
247.763
247.763
247.764
247.764
247.764
247.764
247.764
247.765
247.765
247.765
247.765
247.765
247.766
247.766
247.766
247.766
247.766
247.767
247.767
247.767
247.767
247.768
247.768
247.768
247.768
247.768
247.769
247.769
247.769
247.769
247.77
247.77
247.77
247.77
247.77
247.771
247.771
247.771
247.771
247.772
247.772
247.772
247.772
247.772
247.773
247.773
247.773
247.773
247.774
247.774
247.774
247.774
247.775
247.775
247.775
247.775
247.775
247.776
247.776
247.776
247.776
247.777
247.777
247.777
247.777
247.778
247.778
247.778
247.778
247.779
247.779
247.779
247.779
247.78
247.78
247.78
247.78
247.781
247.781
247.781
247.782
247.782
247.782
247.782
247.783
247.783
247.783
247.783
247.784
247.784
247.784
247.785
247.785
247.785
247.786
247.786
247.786
247.786
247.787
247.787
247.787
247.788
247.788
247.788
247.789
247.789
247.789
247.789
247.79
247.79
247.79
247.791
247.791
247.791
247.792
247.792
247.792
247.793
247.793
247.793
247.794
247.794
247.795
247.795
247.795
247.796
247.796
247.796
247.797
247.797
247.797
247.798
247.798
247.798
247.799
247.799
247.8
247.8
247.8
247.801
247.801
247.801
247.802
247.802
247.803
247.803
247.803
247.804
247.804
247.805
247.805
247.806
247.806
247.806
247.807
247.807
247.808
247.808
247.809
247.809
247.809
247.81
247.81
247.811
247.811
247.812
247.812
247.813
247.813
247.814
247.814
247.814
247.815
247.815
247.816
247.816
247.817
247.817
247.818
247.818
247.819
247.819
247.82
247.82
247.821
247.822
247.822
247.823
247.823
247.824
247.824
247.825
247.825
247.826
247.826
247.827
247.828
247.828
247.829
247.829
247.83
247.831
247.831
247.832
247.832
247.833
247.834
247.834
247.835
247.835
247.836
247.837
247.837
247.838
247.839
247.839
247.84
247.841
247.841
247.842
247.843
247.844
247.844
247.845
247.846
247.846
247.847
247.848
247.849
247.849
247.85
247.851
247.852
247.852
247.853
247.854
247.855
247.856
247.856
247.857
247.858
247.859
247.86
247.861
247.861
247.862
247.863
247.864
247.865
247.866
247.867
247.868
247.869
247.87
247.87
247.871
247.872
247.873
247.874
247.875
247.876
247.877
247.878
247.879
247.88
247.882
247.883
247.884
247.885
247.886
247.887
247.888
247.889
247.89
247.892
247.893
247.894
247.895
247.896
247.898
247.899
247.9
247.901
247.903
247.904
247.905
247.907
247.908
247.909
247.911
247.912
247.914
247.915
247.916
247.918
247.919
247.921
247.922
247.924
247.925
247.927
247.929
247.93
247.932
247.934
247.935
247.937
247.939
247.94
247.942
247.944
247.946
247.948
247.95
247.952
247.953
247.955
247.958
247.96
247.962
247.964
247.966
247.968
247.971
247.973
247.976
247.979
247.982
247.985
247.988
247.991
247.996
248
248.004
248.009
248.015
248.021
248.028
248.036
248.044
248.053
248.064
248.075
248.088
248.101
248.117
248.132
248.15
248.167
248.189
248.207
248.233
248.252
248.281
248.3
248.331
248.351
248.384
248.403
248.436
248.456
248.487
248.506
248.536
248.553
248.582
248.597
248.623
248.636
248.66
248.67
248.693
248.7
248.722
248.726
248.747
248.75
248.769
248.771
248.789
248.79
248.808
248.809
248.826
248.826
248.842
248.843
248.86
248.861
248.879
248.88
248.9
248.901
248.922
248.923
248.946
248.947
248.972
248.974
249.001
249.003
249.033
249.035
249.068
249.071
249.107
249.109
249.147
249.157
249.207
249.214
249.267
249.27
249.32
249.321
249.376
249.38
249.442
249.452
249.53
249.548
249.658
249.691
249.856
249.917
250.177
250.275
250.78
)
;

boundaryField
{
    sides
    {
        type            zeroGradient;
    }
    empty
    {
        type            empty;
    }
}


// ************************************************************************* //
