/*--------------------------------*- C++ -*----------------------------------*\
  =========                 |
  \\      /  F ield         | OpenFOAM: The Open Source CFD Toolbox
   \\    /   O peration     | Website:  https://openfoam.org
    \\  /    A nd           | Version:  9
     \\/     M anipulation  |
\*---------------------------------------------------------------------------*/
FoamFile
{
    format      ascii;
    class       volVectorField;
    location    "0.046";
    object      U;
}
// * * * * * * * * * * * * * * * * * * * * * * * * * * * * * * * * * * * * * //

dimensions      [0 1 -1 0 0 0 0];

internalField   nonuniform List<vector> 
100
(
(50.7948 0 0)
(52.4283 0 0)
(55.2266 0 0)
(57.791 0 0)
(59.8322 0 0)
(61.7669 0 0)
(63.7391 0 0)
(65.7369 0 0)
(67.7268 0 0)
(69.6957 0 0)
(71.6504 0 0)
(73.5961 0 0)
(75.5292 0 0)
(77.449 0 0)
(79.3555 0 0)
(81.2486 0 0)
(83.1297 0 0)
(84.9962 0 0)
(86.847 0 0)
(88.6835 0 0)
(90.5028 0 0)
(92.3033 0 0)
(94.0791 0 0)
(95.8399 0 0)
(97.6074 0 0)
(99.3805 0 0)
(101.145 0 0)
(102.876 0 0)
(104.534 0 0)
(106.06 0 0)
(107.464 0 0)
(108.813 0 0)
(110.14 0 0)
(111.452 0 0)
(112.748 0 0)
(114.023 0 0)
(115.272 0 0)
(116.493 0 0)
(117.686 0 0)
(118.85 0 0)
(119.989 0 0)
(121.098 0 0)
(122.177 0 0)
(123.234 0 0)
(124.273 0 0)
(125.294 0 0)
(126.3 0 0)
(127.294 0 0)
(128.278 0 0)
(129.248 0 0)
(130.208 0 0)
(131.165 0 0)
(132.119 0 0)
(133.067 0 0)
(134.009 0 0)
(134.948 0 0)
(135.881 0 0)
(136.809 0 0)
(137.732 0 0)
(138.655 0 0)
(139.578 0 0)
(140.501 0 0)
(141.422 0 0)
(142.343 0 0)
(143.264 0 0)
(144.189 0 0)
(145.121 0 0)
(146.063 0 0)
(147.016 0 0)
(147.973 0 0)
(148.938 0 0)
(149.91 0 0)
(150.893 0 0)
(151.885 0 0)
(152.89 0 0)
(153.901 0 0)
(154.91 0 0)
(155.91 0 0)
(156.902 0 0)
(157.883 0 0)
(158.847 0 0)
(159.783 0 0)
(160.681 0 0)
(161.534 0 0)
(162.337 0 0)
(163.088 0 0)
(163.794 0 0)
(164.47 0 0)
(165.131 0 0)
(165.791 0 0)
(166.467 0 0)
(167.177 0 0)
(167.935 0 0)
(168.744 0 0)
(169.617 0 0)
(170.55 0 0)
(171.543 0 0)
(172.589 0 0)
(173.661 0 0)
(175.73 0 0)
)
;

boundaryField
{
    sides
    {
        type            zeroGradient;
    }
    empty
    {
        type            empty;
    }
}


// ************************************************************************* //
