/*--------------------------------*- C++ -*----------------------------------*\
  =========                 |
  \\      /  F ield         | OpenFOAM: The Open Source CFD Toolbox
   \\    /   O peration     | Website:  https://openfoam.org
    \\  /    A nd           | Version:  9
     \\/     M anipulation  |
\*---------------------------------------------------------------------------*/
FoamFile
{
    format      ascii;
    class       volScalarField;
    location    "0.049";
    object      p;
}
// * * * * * * * * * * * * * * * * * * * * * * * * * * * * * * * * * * * * * //

dimensions      [1 -1 -2 0 0 0 0];

internalField   nonuniform List<scalar> 
100
(
12479.1
12468.2
12439.1
12404.3
12380.4
12361.1
12342.6
12324.7
12307.9
12292.4
12278.1
12265.2
12253.7
12243.4
12234.7
12227.4
12221.6
12217.6
12215.4
12214.9
12215
12215.6
12217
12220.4
12228.2
12242
12265
12291.3
12319.3
12348.4
12378.7
12410.7
12444.6
12480.5
12518.7
12559
12601.4
12645.9
12692.4
12740.8
12790.9
12842.7
12895.9
12950.4
13006.3
13063.4
13121.6
13181
13241.4
13303
13365.5
13429
13493.4
13559
13625.5
13692.9
13761
13830.2
13899.8
13970.4
14041
14112.9
14184.5
14257.2
14329.3
14402.5
14475.1
14548.8
14621.7
14695.6
14769.2
14844.2
14919.1
14995.9
15073.1
15153.3
15235.1
15320.9
15409
15501.7
15597.9
15699.2
15803.8
15912.1
16022.4
16135.3
16246.8
16358.4
16466.8
16573.7
16676.4
16776.3
16872.1
16966
17055.7
17144.4
17230.1
17315.3
17397.6
17481.3
)
;

boundaryField
{
    sides
    {
        type            zeroGradient;
    }
    empty
    {
        type            empty;
    }
}


// ************************************************************************* //
