/*--------------------------------*- C++ -*----------------------------------*\
  =========                 |
  \\      /  F ield         | OpenFOAM: The Open Source CFD Toolbox
   \\    /   O peration     | Website:  https://openfoam.org
    \\  /    A nd           | Version:  9
     \\/     M anipulation  |
\*---------------------------------------------------------------------------*/
FoamFile
{
    format      ascii;
    class       volVectorField;
    location    "0.049";
    object      U;
}
// * * * * * * * * * * * * * * * * * * * * * * * * * * * * * * * * * * * * * //

dimensions      [0 1 -1 0 0 0 0];

internalField   nonuniform List<vector> 
100
(
(51.5929 0 0)
(52.9556 0 0)
(55.4251 0 0)
(57.7549 0 0)
(59.5665 0 0)
(61.2596 0 0)
(62.9818 0 0)
(64.725 0 0)
(66.4678 0 0)
(68.1993 0 0)
(69.9141 0 0)
(71.6149 0 0)
(73.3047 0 0)
(74.9817 0 0)
(76.6432 0 0)
(78.288 0 0)
(79.9153 0 0)
(81.5253 0 0)
(83.116 0 0)
(84.6927 0 0)
(86.2728 0 0)
(87.8608 0 0)
(89.4426 0 0)
(90.9934 0 0)
(92.4716 0 0)
(93.8159 0 0)
(95.0408 0 0)
(96.2212 0 0)
(97.3881 0 0)
(98.5478 0 0)
(99.6967 0 0)
(100.829 0 0)
(101.939 0 0)
(103.024 0 0)
(104.085 0 0)
(105.124 0 0)
(106.139 0 0)
(107.127 0 0)
(108.093 0 0)
(109.04 0 0)
(109.968 0 0)
(110.883 0 0)
(111.788 0 0)
(112.683 0 0)
(113.564 0 0)
(114.437 0 0)
(115.303 0 0)
(116.163 0 0)
(117.016 0 0)
(117.867 0 0)
(118.717 0 0)
(119.561 0 0)
(120.398 0 0)
(121.232 0 0)
(122.065 0 0)
(122.896 0 0)
(123.725 0 0)
(124.556 0 0)
(125.387 0 0)
(126.219 0 0)
(127.051 0 0)
(127.888 0 0)
(128.731 0 0)
(129.583 0 0)
(130.446 0 0)
(131.316 0 0)
(132.195 0 0)
(133.079 0 0)
(133.973 0 0)
(134.873 0 0)
(135.779 0 0)
(136.693 0 0)
(137.608 0 0)
(138.514 0 0)
(139.411 0 0)
(140.289 0 0)
(141.145 0 0)
(141.977 0 0)
(142.78 0 0)
(143.543 0 0)
(144.261 0 0)
(144.932 0 0)
(145.569 0 0)
(146.18 0 0)
(146.776 0 0)
(147.374 0 0)
(147.989 0 0)
(148.631 0 0)
(149.312 0 0)
(150.038 0 0)
(150.821 0 0)
(151.659 0 0)
(152.554 0 0)
(153.498 0 0)
(154.487 0 0)
(155.51 0 0)
(156.567 0 0)
(157.652 0 0)
(158.749 0 0)
(160.757 0 0)
)
;

boundaryField
{
    sides
    {
        type            zeroGradient;
    }
    empty
    {
        type            empty;
    }
}


// ************************************************************************* //
