/*--------------------------------*- C++ -*----------------------------------*\
  =========                 |
  \\      /  F ield         | OpenFOAM: The Open Source CFD Toolbox
   \\    /   O peration     | Website:  https://openfoam.org
    \\  /    A nd           | Version:  9
     \\/     M anipulation  |
\*---------------------------------------------------------------------------*/
FoamFile
{
    format      ascii;
    class       volScalarField;
    location    "0.017";
    object      rho;
}
// * * * * * * * * * * * * * * * * * * * * * * * * * * * * * * * * * * * * * //

dimensions      [1 -3 0 0 0 0 0];

internalField   nonuniform List<scalar> 
1000
(
0.833697
0.831924
0.830857
0.8297
0.828569
0.827433
0.826301
0.825171
0.824043
0.822918
0.821795
0.820674
0.819555
0.818439
0.817324
0.81621
0.815096
0.813982
0.812868
0.811753
0.810637
0.809521
0.808405
0.80729
0.806175
0.805061
0.803949
0.802839
0.80173
0.800623
0.799517
0.798413
0.79731
0.796208
0.795107
0.794008
0.79291
0.791813
0.790717
0.789623
0.788531
0.787439
0.786349
0.78526
0.784172
0.783086
0.782001
0.780918
0.779835
0.778754
0.777675
0.776596
0.775519
0.774443
0.773369
0.772295
0.771223
0.770153
0.769083
0.768015
0.766948
0.765882
0.764818
0.763755
0.762693
0.761633
0.760574
0.759516
0.758459
0.757404
0.75635
0.755297
0.754246
0.753195
0.752147
0.751099
0.750052
0.749007
0.747962
0.746919
0.745878
0.744838
0.743799
0.742762
0.741726
0.740691
0.739657
0.738624
0.737592
0.736561
0.735532
0.734505
0.73348
0.732456
0.731432
0.730409
0.729388
0.728367
0.727348
0.726331
0.725315
0.724301
0.723287
0.722275
0.721263
0.720251
0.719241
0.718234
0.71723
0.716229
0.715232
0.714233
0.71323
0.71222
0.711205
0.71019
0.709183
0.708189
0.707211
0.706246
0.705283
0.704312
0.703324
0.702321
0.701313
0.700314
0.699332
0.698368
0.697407
0.696425
0.695412
0.694377
0.693355
0.692391
0.69153
0.690761
0.689925
0.688883
0.687697
0.686471
0.68526
0.684112
0.683133
0.682463
0.682321
0.681804
0.68057
0.679221
0.677908
0.676667
0.675542
0.674612
0.673978
0.673505
0.67274
0.671658
0.670496
0.669354
0.668288
0.66734
0.666516
0.66573
0.664869
0.66391
0.662905
0.661902
0.660934
0.660008
0.659109
0.658208
0.657287
0.656348
0.655403
0.654463
0.653534
0.652612
0.651693
0.650772
0.649849
0.648924
0.648001
0.64708
0.646161
0.645244
0.644328
0.643412
0.642497
0.641582
0.640669
0.639758
0.638847
0.637937
0.637029
0.636121
0.635214
0.634309
0.633404
0.6325
0.631598
0.630696
0.629796
0.628896
0.627998
0.6271
0.626204
0.625309
0.624414
0.623521
0.622629
0.621737
0.620847
0.619958
0.619069
0.618182
0.617296
0.616411
0.615526
0.614643
0.613761
0.61288
0.612
0.61112
0.610242
0.609365
0.608489
0.607614
0.60674
0.605866
0.604994
0.604123
0.603253
0.602384
0.601516
0.600648
0.599782
0.598917
0.598053
0.59719
0.596327
0.595466
0.594606
0.593747
0.592888
0.592031
0.591175
0.590319
0.589465
0.588612
0.587759
0.586908
0.586058
0.585208
0.58436
0.583512
0.582666
0.581821
0.580976
0.580132
0.57929
0.578448
0.577608
0.576768
0.575929
0.575092
0.574255
0.573419
0.572584
0.571751
0.570918
0.570086
0.569255
0.568425
0.567596
0.566768
0.565941
0.565115
0.564289
0.563465
0.562642
0.56182
0.560998
0.560178
0.559359
0.55854
0.557723
0.556906
0.55609
0.555276
0.554462
0.553649
0.552838
0.552027
0.551217
0.550408
0.5496
0.548793
0.547987
0.547181
0.546377
0.545574
0.544772
0.54397
0.54317
0.54237
0.541571
0.540774
0.539977
0.539181
0.538386
0.537593
0.5368
0.536008
0.535216
0.534426
0.533637
0.532849
0.532061
0.531275
0.530489
0.529705
0.528921
0.528138
0.527356
0.526575
0.525795
0.525016
0.524238
0.523461
0.522685
0.521909
0.521135
0.520361
0.519589
0.518817
0.518046
0.517276
0.516507
0.515739
0.514972
0.514206
0.513441
0.512676
0.511913
0.51115
0.510389
0.509628
0.508868
0.508109
0.507351
0.506594
0.505838
0.505082
0.504328
0.503575
0.502822
0.50207
0.501319
0.50057
0.499821
0.499073
0.498325
0.497579
0.496834
0.496089
0.495346
0.494603
0.493861
0.49312
0.49238
0.491641
0.490903
0.490166
0.489429
0.488694
0.487959
0.487225
0.486492
0.48576
0.485029
0.484299
0.48357
0.482841
0.482114
0.481387
0.480661
0.479937
0.479213
0.478489
0.477767
0.477046
0.476325
0.475606
0.474887
0.474169
0.473452
0.472736
0.472021
0.471307
0.470593
0.469881
0.469169
0.468458
0.467748
0.467039
0.466331
0.465624
0.464917
0.464212
0.463507
0.462804
0.462101
0.461399
0.460697
0.459997
0.459298
0.458599
0.457902
0.457205
0.456509
0.455814
0.45512
0.454426
0.453734
0.453043
0.452352
0.451662
0.450973
0.450285
0.449598
0.448912
0.448227
0.447543
0.446859
0.446177
0.445495
0.444815
0.444135
0.443456
0.442778
0.442102
0.441426
0.440751
0.440078
0.439405
0.438734
0.438064
0.437395
0.436728
0.436063
0.4354
0.43474
0.434083
0.433431
0.432785
0.432146
0.431517
0.430902
0.430303
0.429726
0.429176
0.428657
0.428175
0.427732
0.427332
0.426979
0.426674
0.426421
0.426218
0.426064
0.425952
0.425874
0.425824
0.425794
0.425781
0.425773
0.425768
0.425766
0.425766
0.425775
0.425799
0.425847
0.425908
0.42596
0.425996
0.426017
0.426033
0.426055
0.426084
0.426127
0.426174
0.426214
0.426243
0.426257
0.426273
0.426298
0.426336
0.426397
0.426459
0.426506
0.426532
0.426535
0.426535
0.426533
0.426522
0.426493
0.426431
0.426349
0.426274
0.426211
0.426161
0.426133
0.426117
0.426116
0.426124
0.426122
0.426117
0.426108
0.42609
0.426083
0.426084
0.426091
0.426114
0.426142
0.426163
0.426179
0.426184
0.426186
0.4262
0.426222
0.426255
0.426293
0.426325
0.426353
0.426379
0.426398
0.426416
0.42643
0.426437
0.426441
0.426439
0.426416
0.426366
0.426313
0.426275
0.426249
0.426231
0.426218
0.426205
0.426188
0.426173
0.426162
0.426155
0.426153
0.426153
0.426156
0.426159
0.42616
0.42616
0.426161
0.426165
0.426176
0.426197
0.426218
0.426234
0.426244
0.426252
0.42626
0.426274
0.426297
0.42633
0.426361
0.426382
0.426394
0.426401
0.426404
0.426406
0.426406
0.4264
0.42638
0.426338
0.42629
0.426253
0.426232
0.426222
0.426215
0.42621
0.426204
0.426196
0.426186
0.426179
0.426176
0.426174
0.426174
0.426178
0.426182
0.426185
0.426188
0.426191
0.426196
0.426206
0.426225
0.426246
0.426258
0.426267
0.426274
0.426281
0.426293
0.426314
0.426345
0.426371
0.426381
0.426384
0.426386
0.426386
0.426381
0.426369
0.426351
0.426327
0.426296
0.426259
0.426226
0.426207
0.426197
0.426195
0.426197
0.426196
0.426192
0.426184
0.426172
0.426163
0.42616
0.426162
0.426168
0.426178
0.426186
0.426189
0.426191
0.426194
0.426199
0.426217
0.426239
0.426255
0.426269
0.426276
0.426281
0.426289
0.426307
0.426334
0.426356
0.426366
0.426369
0.42637
0.426359
0.426338
0.426321
0.426307
0.426293
0.426275
0.426251
0.426232
0.42622
0.426214
0.426212
0.426213
0.426215
0.426215
0.426209
0.426199
0.426193
0.426192
0.426195
0.426206
0.426217
0.426223
0.426225
0.426227
0.42623
0.426236
0.426253
0.426273
0.426286
0.426294
0.4263
0.426305
0.426312
0.42633
0.426351
0.426362
0.426367
0.426366
0.426353
0.426325
0.426305
0.426292
0.426284
0.426278
0.42627
0.426255
0.426238
0.426226
0.42622
0.426219
0.426223
0.426229
0.426231
0.426228
0.426218
0.426211
0.42621
0.426214
0.426227
0.42624
0.426246
0.426248
0.426248
0.426251
0.426257
0.426273
0.426295
0.426309
0.426317
0.426319
0.426319
0.426322
0.426335
0.42635
0.426359
0.426361
0.426356
0.426329
0.426299
0.426282
0.426275
0.426274
0.426273
0.426269
0.42626
0.426242
0.426228
0.426225
0.42623
0.426242
0.42625
0.426251
0.426246
0.426235
0.426226
0.426225
0.426233
0.426253
0.426268
0.426273
0.426273
0.426272
0.426272
0.426276
0.426293
0.426319
0.426334
0.426334
0.426332
0.42633
0.42633
0.426335
0.426344
0.426351
0.426353
0.426339
0.426306
0.42628
0.426268
0.426266
0.42627
0.426276
0.426277
0.42627
0.426251
0.426238
0.42624
0.426247
0.426262
0.426273
0.426275
0.426268
0.426251
0.42624
0.42624
0.426254
0.42628
0.426295
0.426303
0.426304
0.426296
0.426291
0.426294
0.426316
0.426344
0.426352
0.426353
0.426347
0.426333
0.426327
0.426329
0.42634
0.426348
0.426347
0.426334
0.426301
0.426277
0.426266
0.426266
0.426279
0.426292
0.426295
0.426287
0.426267
0.426257
0.426255
0.426264
0.426287
0.426301
0.426301
0.426289
0.426271
0.426262
0.426263
0.426284
0.426314
0.426333
0.426338
0.426328
0.426312
0.426309
0.426315
0.426346
0.426373
0.426383
0.426381
0.426359
0.426332
0.426324
0.426328
0.426341
0.426354
0.426357
0.426343
0.426309
0.426283
0.426272
0.426279
0.426304
0.42632
0.426327
0.42632
0.426296
0.426282
0.426282
0.426297
0.426327
0.426335
0.426331
0.426316
0.426293
0.426284
0.42629
0.426328
0.426369
0.426386
0.426386
0.426366
0.426344
0.426335
0.42634
0.426375
0.426404
0.426411
0.426402
0.426364
0.42634
0.426331
0.426338
0.426367
0.42639
0.426393
0.42637
0.426327
0.426301
0.426294
0.426311
0.42635
0.426375
0.426386
0.426365
0.426329
0.426312
0.426316
0.426347
0.426385
0.426395
0.426392
0.426363
0.426332
0.426323
0.426341
0.426389
0.426433
0.42645
0.426444
0.426413
0.426386
0.426375
0.426387
0.426431
0.426457
0.426463
0.426441
0.426396
0.426373
0.426368
0.426391
0.426454
0.42649
0.426481
0.426379
0.426185
0.426102
0.426169
0.426928
0.429969
0.433552
0.435508
0.436249
0.436444
0.436552
0.436604
0.436639
0.436617
0.436547
0.436472
0.436427
0.436451
0.436526
0.436608
0.436657
0.436625
0.436562
0.436511
0.436497
0.43654
0.436614
0.436646
0.436636
0.436585
0.436526
0.436507
0.43654
0.436629
0.4367
0.43672
0.436698
0.436634
0.436578
0.436564
0.436582
0.436659
0.436711
0.436724
0.436711
0.43667
0.436639
0.436638
0.43669
0.436792
0.436836
0.43683
0.436764
0.436709
0.436674
0.436689
0.436792
0.436853
0.436839
0.43678
0.436732
0.43667
0.43658
0.436529
0.436468
0.436191
0.435657
0.434719
0.432984
0.429765
0.424082
0.414307
0.397914
0.372448
0.336403
0.300173
0.282558
)
;

boundaryField
{
    sides
    {
        type            calculated;
        value           nonuniform List<scalar> 2(0.282558 0.833697);
    }
    empty
    {
        type            empty;
    }
}


// ************************************************************************* //
