/*--------------------------------*- C++ -*----------------------------------*\
  =========                 |
  \\      /  F ield         | OpenFOAM: The Open Source CFD Toolbox
   \\    /   O peration     | Website:  https://openfoam.org
    \\  /    A nd           | Version:  9
     \\/     M anipulation  |
\*---------------------------------------------------------------------------*/
FoamFile
{
    format      ascii;
    class       volScalarField;
    location    "0.017";
    object      T;
}
// * * * * * * * * * * * * * * * * * * * * * * * * * * * * * * * * * * * * * //

dimensions      [0 0 0 1 0 0 0];

internalField   nonuniform List<scalar> 
1000
(
324.085
323.808
323.64
323.457
323.278
323.098
322.919
322.738
322.558
322.377
322.196
322.015
321.833
321.651
321.469
321.287
321.106
320.925
320.745
320.566
320.388
320.21
320.033
319.856
319.68
319.504
319.328
319.151
318.975
318.799
318.622
318.446
318.27
318.093
317.917
317.741
317.565
317.389
317.214
317.038
316.862
316.686
316.511
316.335
316.16
315.984
315.809
315.634
315.459
315.283
315.108
314.933
314.758
314.584
314.409
314.234
314.059
313.885
313.71
313.536
313.361
313.187
313.013
312.838
312.664
312.49
312.316
312.142
311.968
311.794
311.62
311.447
311.273
311.1
310.926
310.753
310.579
310.406
310.232
310.059
309.886
309.713
309.54
309.367
309.194
309.022
308.849
308.676
308.503
308.331
308.158
307.986
307.814
307.641
307.469
307.297
307.125
306.953
306.781
306.609
306.437
306.266
306.094
305.922
305.751
305.579
305.408
305.236
305.065
304.895
304.725
304.554
304.383
304.21
304.037
303.863
303.69
303.52
303.352
303.186
303.021
302.854
302.684
302.511
302.337
302.164
301.995
301.828
301.662
301.492
301.316
301.136
300.959
300.791
300.642
300.507
300.362
300.18
299.973
299.759
299.547
299.346
299.175
299.057
299.032
298.942
298.725
298.488
298.257
298.038
297.84
297.675
297.563
297.48
297.344
297.153
296.947
296.744
296.555
296.386
296.24
296.1
295.947
295.776
295.596
295.417
295.244
295.079
294.918
294.756
294.591
294.422
294.253
294.084
293.916
293.75
293.585
293.419
293.252
293.085
292.918
292.751
292.585
292.418
292.252
292.086
291.919
291.753
291.587
291.42
291.254
291.088
290.922
290.756
290.59
290.424
290.258
290.093
289.927
289.761
289.595
289.43
289.264
289.099
288.933
288.768
288.602
288.437
288.271
288.106
287.941
287.776
287.611
287.446
287.281
287.116
286.951
286.786
286.621
286.456
286.291
286.127
285.962
285.797
285.633
285.468
285.304
285.139
284.975
284.811
284.646
284.482
284.318
284.154
283.99
283.826
283.661
283.498
283.334
283.17
283.006
282.842
282.678
282.515
282.351
282.187
282.024
281.86
281.697
281.534
281.37
281.207
281.044
280.88
280.717
280.554
280.391
280.228
280.065
279.902
279.739
279.576
279.413
279.251
279.088
278.925
278.763
278.6
278.437
278.275
278.113
277.95
277.788
277.626
277.463
277.301
277.139
276.977
276.815
276.653
276.491
276.329
276.167
276.005
275.843
275.682
275.52
275.358
275.197
275.035
274.874
274.712
274.551
274.389
274.228
274.067
273.905
273.744
273.583
273.422
273.261
273.1
272.939
272.778
272.617
272.457
272.296
272.135
271.974
271.814
271.653
271.493
271.332
271.172
271.011
270.851
270.691
270.531
270.37
270.21
270.05
269.89
269.73
269.57
269.41
269.25
269.09
268.931
268.771
268.611
268.452
268.292
268.132
267.973
267.814
267.654
267.495
267.336
267.176
267.017
266.858
266.699
266.54
266.381
266.222
266.063
265.904
265.745
265.586
265.428
265.269
265.11
264.952
264.793
264.635
264.476
264.318
264.16
264.001
263.843
263.685
263.527
263.369
263.21
263.052
262.895
262.737
262.579
262.421
262.263
262.105
261.948
261.79
261.633
261.475
261.318
261.16
261.003
260.846
260.688
260.531
260.374
260.217
260.06
259.903
259.746
259.589
259.432
259.275
259.118
258.962
258.805
258.648
258.492
258.335
258.179
258.022
257.866
257.709
257.553
257.397
257.241
257.085
256.929
256.773
256.617
256.461
256.305
256.149
255.993
255.837
255.682
255.526
255.371
255.215
255.06
254.904
254.749
254.594
254.438
254.283
254.128
253.973
253.818
253.663
253.508
253.353
253.198
253.044
252.889
252.734
252.58
252.425
252.271
252.117
251.962
251.808
251.654
251.5
251.346
251.192
251.038
250.885
250.731
250.578
250.425
250.272
250.119
249.966
249.814
249.662
249.511
249.361
249.212
249.065
248.92
248.777
248.639
248.506
248.378
248.258
248.146
248.043
247.95
247.868
247.797
247.738
247.691
247.655
247.629
247.611
247.599
247.592
247.589
247.587
247.586
247.586
247.585
247.587
247.593
247.604
247.618
247.63
247.639
247.644
247.647
247.652
247.659
247.669
247.68
247.689
247.696
247.699
247.703
247.708
247.717
247.731
247.746
247.756
247.763
247.763
247.763
247.762
247.76
247.753
247.739
247.72
247.702
247.687
247.676
247.669
247.665
247.665
247.667
247.666
247.665
247.663
247.659
247.657
247.657
247.659
247.664
247.67
247.675
247.679
247.68
247.68
247.684
247.689
247.696
247.705
247.712
247.719
247.725
247.729
247.733
247.737
247.738
247.739
247.738
247.733
247.721
247.709
247.7
247.694
247.69
247.687
247.683
247.679
247.676
247.673
247.672
247.671
247.671
247.672
247.672
247.672
247.672
247.672
247.673
247.676
247.681
247.686
247.689
247.691
247.693
247.695
247.698
247.703
247.711
247.718
247.723
247.726
247.728
247.728
247.728
247.728
247.726
247.722
247.712
247.701
247.692
247.687
247.684
247.683
247.682
247.681
247.679
247.676
247.674
247.673
247.673
247.673
247.674
247.674
247.675
247.676
247.676
247.678
247.68
247.684
247.689
247.691
247.693
247.695
247.697
247.699
247.704
247.711
247.717
247.72
247.72
247.72
247.72
247.719
247.716
247.712
247.706
247.699
247.69
247.682
247.678
247.676
247.675
247.675
247.675
247.674
247.672
247.669
247.666
247.665
247.666
247.668
247.671
247.672
247.672
247.672
247.673
247.674
247.678
247.684
247.687
247.689
247.691
247.692
247.695
247.699
247.705
247.709
247.712
247.713
247.713
247.71
247.705
247.701
247.697
247.694
247.69
247.684
247.679
247.676
247.675
247.675
247.675
247.675
247.675
247.673
247.671
247.67
247.669
247.669
247.671
247.674
247.675
247.676
247.676
247.677
247.678
247.682
247.687
247.691
247.692
247.693
247.693
247.694
247.698
247.702
247.707
247.708
247.707
247.704
247.697
247.691
247.689
247.688
247.687
247.684
247.68
247.674
247.67
247.67
247.671
247.673
247.674
247.673
247.672
247.669
247.668
247.668
247.668
247.671
247.674
247.675
247.675
247.675
247.676
247.678
247.681
247.686
247.69
247.69
247.69
247.69
247.691
247.694
247.698
247.699
247.699
247.698
247.692
247.684
247.681
247.68
247.679
247.677
247.676
247.673
247.669
247.667
247.666
247.666
247.668
247.669
247.67
247.67
247.667
247.666
247.664
247.665
247.669
247.671
247.672
247.673
247.673
247.674
247.675
247.678
247.684
247.686
247.687
247.686
247.685
247.684
247.685
247.686
247.687
247.688
247.685
247.678
247.672
247.671
247.669
247.669
247.668
247.668
247.666
247.661
247.66
247.66
247.661
247.664
247.666
247.666
247.665
247.661
247.658
247.658
247.661
247.667
247.669
247.67
247.67
247.668
247.667
247.668
247.673
247.679
247.682
247.681
247.679
247.674
247.671
247.671
247.674
247.676
247.676
247.673
247.665
247.661
247.657
247.655
247.658
247.66
247.66
247.658
247.652
247.651
247.651
247.653
247.658
247.66
247.659
247.655
247.65
247.647
247.648
247.653
247.661
247.665
247.666
247.663
247.66
247.656
247.656
247.662
247.667
247.669
247.669
247.665
247.658
247.659
247.66
247.662
247.662
247.661
247.656
247.645
247.638
247.637
247.64
247.647
247.653
247.653
247.651
247.644
247.639
247.635
247.638
247.644
247.647
247.646
247.642
247.636
247.633
247.635
247.643
247.652
247.653
247.652
247.647
247.641
247.637
247.637
247.644
247.651
247.654
247.652
247.643
247.637
247.637
247.638
247.643
247.642
247.641
247.634
247.62
247.613
247.613
247.617
247.627
247.635
247.636
247.631
247.622
247.618
247.612
247.617
247.623
247.623
247.622
247.615
247.607
247.606
247.61
247.622
247.632
247.632
247.63
247.621
247.613
247.605
247.606
247.614
247.621
247.62
247.614
247.602
247.599
247.595
247.599
247.613
247.617
247.614
247.589
247.543
247.518
247.532
247.707
248.41
249.275
249.624
249.808
249.94
249.961
249.948
249.919
249.883
249.871
249.879
249.891
249.904
249.909
249.898
249.892
249.881
249.872
249.875
249.871
249.875
249.877
249.872
249.867
249.858
249.85
249.843
249.844
249.852
249.856
249.856
249.85
249.834
249.819
249.802
249.797
249.808
249.815
249.811
249.802
249.788
249.777
249.759
249.763
249.776
249.769
249.757
249.728
249.696
249.671
249.672
249.693
249.714
249.721
249.717
249.722
249.73
249.749
249.799
249.902
250.055
250.338
250.88
251.885
253.72
257.081
263.192
274.126
293.362
323.508
359.248
390.314
)
;

boundaryField
{
    sides
    {
        type            zeroGradient;
    }
    empty
    {
        type            empty;
    }
}


// ************************************************************************* //
