/*--------------------------------*- C++ -*----------------------------------*\
  =========                 |
  \\      /  F ield         | OpenFOAM: The Open Source CFD Toolbox
   \\    /   O peration     | Website:  https://openfoam.org
    \\  /    A nd           | Version:  9
     \\/     M anipulation  |
\*---------------------------------------------------------------------------*/
FoamFile
{
    format      ascii;
    class       volScalarField;
    location    "0.043";
    object      ddt0(rho,K);
}
// * * * * * * * * * * * * * * * * * * * * * * * * * * * * * * * * * * * * * //

dimensions      [1 -1 -3 0 0 0 0];

internalField   nonuniform List<scalar> 
10000
(
78.7344
76.6921
74.6297
72.9447
71.3572
69.7207
68.0376
66.3366
64.628
62.9099
61.179
59.4334
57.6727
55.8972
54.1077
52.3042
50.4865
48.6544
46.808
44.9482
43.0751
41.1887
39.2891
37.3772
35.4539
33.5196
31.5738
29.6156
27.6445
25.6607
23.6642
21.654
19.6291
17.5889
15.5342
13.4658
11.3841
9.28783
7.17574
5.04776
2.90567
0.752021
-1.41168
-3.58587
-5.77223
-7.97192
-10.1845
-12.4085
-14.643
-16.8892
-19.1492
-21.4252
-23.7173
-26.0236
-28.3422
-30.6727
-33.0168
-35.3777
-37.7573
-40.1546
-42.5659
-44.9867
-47.4143
-49.8495
-52.2957
-54.7568
-57.2347
-59.7285
-62.2344
-64.7491
-67.2716
-69.8043
-72.3522
-74.9195
-77.5075
-80.1137
-82.7335
-85.363
-88.0013
-90.651
-93.3162
-95.9996
-98.7006
-101.415
-104.139
-106.867
-109.6
-112.342
-115.097
-117.871
-120.666
-123.481
-126.313
-129.156
-132.005
-134.861
-137.725
-140.605
-143.506
-146.432
-149.381
-152.346
-155.319
-158.296
-161.272
-164.25
-167.235
-170.234
-173.254
-176.298
-179.369
-182.461
-185.569
-188.685
-191.802
-194.92
-198.042
-201.175
-204.326
-207.501
-210.702
-213.929
-217.178
-220.444
-223.716
-226.987
-230.251
-233.508
-236.766
-240.035
-243.327
-246.65
-250.008
-253.401
-256.824
-260.267
-263.72
-267.168
-270.603
-274.027
-277.443
-280.865
-284.302
-287.766
-291.261
-294.788
-298.349
-301.939
-305.554
-309.184
-312.817
-316.448
-320.073
-323.692
-327.306
-330.916
-334.527
-338.149
-341.791
-345.468
-349.187
-352.952
-356.754
-360.583
-364.43
-368.289
-372.153
-376.01
-379.855
-383.687
-387.511
-391.334
-395.159
-398.989
-402.827
-406.676
-410.545
-414.446
-418.394
-422.391
-426.428
-430.497
-434.594
-438.718
-442.861
-447.01
-451.155
-455.297
-459.437
-463.571
-467.7
-471.824
-475.934
-480.017
-484.079
-488.142
-492.223
-496.326
-500.444
-504.577
-508.742
-512.951
-517.193
-521.466
-525.781
-530.136
-534.528
-538.968
-543.47
-548.023
-552.603
-557.187
-561.769
-566.383
-571.046
-575.717
-580.383
-585.067
-589.769
-594.46
-599.151
-603.847
-608.523
-613.186
-617.832
-622.471
-627.158
-631.891
-636.583
-641.205
-645.878
-650.59
-655.298
-660.05
-664.929
-670.019
-674.822
-679.567
-684.4
-689.211
-693.989
-698.875
-703.738
-708.534
-713.347
-718.203
-723.123
-728.056
-732.977
-737.927
-742.885
-747.832
-752.806
-757.808
-762.814
-767.813
-772.825
-777.883
-782.965
-788.032
-793.088
-798.15
-803.231
-808.336
-813.471
-818.632
-823.806
-828.981
-834.17
-839.384
-844.611
-849.838
-855.071
-860.325
-865.605
-870.904
-876.212
-881.522
-886.831
-892.142
-897.471
-902.825
-908.201
-913.591
-918.994
-924.415
-929.855
-935.306
-940.764
-946.23
-951.71
-957.21
-962.731
-968.272
-973.821
-979.371
-984.925
-990.49
-996.071
-1001.67
-1007.28
-1012.91
-1018.56
-1024.22
-1029.9
-1035.59
-1041.29
-1047
-1052.72
-1058.46
-1064.23
-1070
-1075.79
-1081.59
-1087.39
-1093.2
-1099.03
-1104.86
-1110.72
-1116.59
-1122.48
-1128.39
-1134.32
-1140.25
-1146.19
-1152.15
-1158.12
-1164.1
-1170.1
-1176.12
-1182.14
-1188.18
-1194.23
-1200.28
-1206.35
-1212.43
-1218.53
-1224.64
-1230.78
-1236.93
-1243.09
-1249.27
-1255.46
-1261.66
-1267.88
-1274.11
-1280.35
-1286.61
-1292.88
-1299.17
-1305.46
-1311.76
-1318.07
-1324.39
-1330.73
-1337.08
-1343.46
-1349.85
-1356.25
-1362.67
-1369.11
-1375.55
-1382.01
-1388.49
-1394.98
-1401.48
-1408
-1414.53
-1421.07
-1427.62
-1434.18
-1440.75
-1447.33
-1453.92
-1460.53
-1467.16
-1473.81
-1480.47
-1487.14
-1493.83
-1500.54
-1507.25
-1513.99
-1520.74
-1527.5
-1534.28
-1541.07
-1547.87
-1554.67
-1561.49
-1568.32
-1575.16
-1582.02
-1588.89
-1595.78
-1602.68
-1609.59
-1616.52
-1623.46
-1630.42
-1637.4
-1644.39
-1651.4
-1658.42
-1665.46
-1672.5
-1679.56
-1686.63
-1693.7
-1700.79
-1707.9
-1715.02
-1722.15
-1729.29
-1736.45
-1743.63
-1750.81
-1758.02
-1765.23
-1772.46
-1779.71
-1786.98
-1794.26
-1801.55
-1808.85
-1816.17
-1823.49
-1830.83
-1838.18
-1845.55
-1852.92
-1860.32
-1867.73
-1875.15
-1882.58
-1890.03
-1897.49
-1904.96
-1912.45
-1919.96
-1927.48
-1935.02
-1942.57
-1950.13
-1957.71
-1965.29
-1972.89
-1980.5
-1988.12
-1995.76
-2003.41
-2011.08
-2018.76
-2026.46
-2034.17
-2041.89
-2049.63
-2057.38
-2065.14
-2072.93
-2080.72
-2088.54
-2096.36
-2104.19
-2112.04
-2119.89
-2127.76
-2135.64
-2143.54
-2151.45
-2159.38
-2167.32
-2175.28
-2183.25
-2191.23
-2199.23
-2207.24
-2215.27
-2223.31
-2231.37
-2239.45
-2247.53
-2255.64
-2263.73
-2271.86
-2279.97
-2288.14
-2296.26
-2304.47
-2312.61
-2320.87
-2329.03
-2337.33
-2345.5
-2353.83
-2362.02
-2370.37
-2378.63
-2386.99
-2395.32
-2403.66
-2412.02
-2420.4
-2428.78
-2437.16
-2445.57
-2453.99
-2462.42
-2470.87
-2479.34
-2487.81
-2496.34
-2504.79
-2513.39
-2521.78
-2530.49
-2538.86
-2547.66
-2556.06
-2564.87
-2573.32
-2582.07
-2590.69
-2599.29
-2608.09
-2616.54
-2625.52
-2633.94
-2642.97
-2651.5
-2660.36
-2669.11
-2677.76
-2686.82
-2695.28
-2704.46
-2712.99
-2722.07
-2730.88
-2739.66
-2748.83
-2757.37
-2766.72
-2775.29
-2784.41
-2793.37
-2802.15
-2811.54
-2820.1
-2829.52
-2838.29
-2847.39
-2856.69
-2865.27
-2874.86
-2883.57
-2892.9
-2902.08
-2910.9
-2920.58
-2929.23
-2938.77
-2947.9
-2956.9
-2966.62
-2975.3
-2984.99
-2994.05
-3003.18
-3012.98
-3021.68
-3031.54
-3040.66
-3049.79
-3059.6
-3068.4
-3078.36
-3087.6
-3096.83
-3106.81
-3115.56
-3125.49
-3134.93
-3144.05
-3154.21
-3163.07
-3172.9
-3182.6
-3191.65
-3201.99
-3211.06
-3220.64
-3230.69
-3239.73
-3249.96
-3259.29
-3268.77
-3279.16
-3288.16
-3298.27
-3308.03
-3317.26
-3327.85
-3336.93
-3346.8
-3357.17
-3366.15
-3376.76
-3386.43
-3395.75
-3406.4
-3415.58
-3425.68
-3436.12
-3445.21
-3455.79
-3465.57
-3475.18
-3486.02
-3495.32
-3505.38
-3515.95
-3525.25
-3535.89
-3545.92
-3555.38
-3566.35
-3575.9
-3585.92
-3596.77
-3605.98
-3616.66
-3627.16
-3636.54
-3647.68
-3657.53
-3667.27
-3678.49
-3687.97
-3698.39
-3709.32
-3718.65
-3729.67
-3740.11
-3749.6
-3760.88
-3770.9
-3781.02
-3792.36
-3801.9
-3812.43
-3823.51
-3833.04
-3844.14
-3854.84
-3864.47
-3875.88
-3886.18
-3896.19
-3907.76
-3917.7
-3928.13
-3939.61
-3949.33
-3960.2
-3971.46
-3981.15
-3992.45
-4003.4
-4013.14
-4024.71
-4035.36
-4045.39
-4057.2
-4067.56
-4077.84
-4089.68
-4099.8
-4110.44
-4122.26
-4132.22
-4143.18
-4154.91
-4164.79
-4176.07
-4187.68
-4197.55
-4209.11
-4220.55
-4230.44
-4242.22
-4253.52
-4263.5
-4275.47
-4286.61
-4296.66
-4308.8
-4319.82
-4330
-4342.31
-4353.22
-4363.51
-4375.93
-4386.72
-4397.13
-4409.65
-4420.35
-4430.87
-4443.48
-4454.1
-4464.74
-4477.44
-4488.02
-4498.77
-4511.54
-4522.09
-4532.92
-4545.76
-4556.31
-4567.19
-4580.08
-4590.65
-4601.56
-4614.52
-4625.14
-4636.07
-4649.11
-4659.79
-4670.71
-4683.81
-4694.59
-4705.47
-4718.64
-4729.53
-4740.35
-4753.58
-4764.62
-4775.38
-4788.65
-4799.87
-4810.54
-4823.83
-4835.26
-4845.86
-4859.12
-4870.79
-4881.3
-4894.5
-4906.43
-4916.89
-4929.98
-4942.21
-4952.65
-4965.59
-4978.13
-4988.58
-5001.34
-5014.17
-5024.7
-5037.2
-5050.32
-5060.97
-5073.2
-5086.55
-5097.41
-5109.33
-5122.86
-5134
-5145.62
-5159.26
-5170.75
-5182.09
-5195.73
-5207.64
-5218.73
-5232.28
-5244.65
-5255.58
-5268.93
-5281.78
-5292.66
-5305.68
-5318.99
-5329.95
-5342.57
-5356.26
-5367.46
-5379.6
-5393.55
-5405.16
-5416.81
-5430.85
-5443.01
-5454.27
-5468.17
-5480.99
-5492.01
-5505.55
-5519.04
-5530.05
-5543.02
-5557.07
-5568.38
-5580.68
-5595.06
-5606.94
-5618.59
-5632.97
-5645.64
-5656.85
-5670.87
-5684.39
-5695.47
-5708.83
-5723.07
-5734.44
-5746.99
-5761.63
-5773.68
-5785.46
-5800.08
-5813.05
-5824.34
-5838.49
-5852.42
-5863.67
-5877
-5891.65
-5903.36
-5915.76
-5930.69
-5943.27
-5954.92
-5969.58
-5983.23
-5994.57
-6008.47
-6023.07
-6034.69
-6047.56
-6062.68
-6075.14
-6087.07
-6102.06
-6115.69
-6127.13
-6141.36
-6156.09
-6167.73
-6180.83
-6196.19
-6208.73
-6220.75
-6235.98
-6249.82
-6261.3
-6275.65
-6290.7
-6302.49
-6315.53
-6331.15
-6344.06
-6355.99
-6371.24
-6385.63
-6397.2
-6411.29
-6426.83
-6439.05
-6451.72
-6467.53
-6481.15
-6492.89
-6507.91
-6523.03
-6534.88
-6548.44
-6564.37
-6577.38
-6589.61
-6605.21
-6619.87
-6631.69
-6645.96
-6661.86
-6674.47
-6687.21
-6703.22
-6717.42
-6729.36
-6744.3
-6759.98
-6772.36
-6785.72
-6801.86
-6815.74
-6827.98
-6843.31
-6858.83
-6871.19
-6884.95
-6901.25
-6914.92
-6927.39
-6943.11
-6958.47
-6970.87
-6985.03
-7001.35
-7014.97
-7027.71
-7043.59
-7058.95
-7071.43
-7085.82
-7102.23
-7115.85
-7128.78
-7144.82
-7160.2
-7172.84
-7187.35
-7203.85
-7217.64
-7230.65
-7246.78
-7262.36
-7275.1
-7289.67
-7306.31
-7320.31
-7333.38
-7349.5
-7365.37
-7378.28
-7392.72
-7409.55
-7423.89
-7436.9
-7452.96
-7469.18
-7482.33
-7496.55
-7513.48
-7528.35
-7541.29
-7557.12
-7573.81
-7587.3
-7601.21
-7618.18
-7633.66
-7646.65
-7662.07
-7679.18
-7693.25
-7706.77
-7723.59
-7739.81
-7752.98
-7767.86
-7785.23
-7800.1
-7813.33
-7829.69
-7846.67
-7860.33
-7874.53
-7891.92
-7907.75
-7920.96
-7936.58
-7954.14
-7968.67
-7982.27
-7999.25
-8016.13
-8029.7
-8044.44
-8062.15
-8077.86
-8091.22
-8107.34
-8125.03
-8139.51
-8153.44
-8170.75
-8187.68
-8201.4
-8216.43
-8234.36
-8250.19
-8263.75
-8280.1
-8297.96
-8312.67
-8326.78
-8344.22
-8361.43
-8375.4
-8390.51
-8408.6
-8424.78
-8438.56
-8454.89
-8472.99
-8488.16
-8502.32
-8519.72
-8537.35
-8551.73
-8566.74
-8584.85
-8601.64
-8615.7
-8631.76
-8650.13
-8665.98
-8680.17
-8697.29
-8715.42
-8730.47
-8745.22
-8763.17
-8780.74
-8795.23
-8810.85
-8829.31
-8846.08
-8860.43
-8876.99
-8895.58
-8911.55
-8926.1
-8943.59
-8961.94
-8977.24
-8992.31
-9010.52
-9028.4
-9043.22
-9059.04
-9077.73
-9094.94
-9109.61
-9126.24
-9145.12
-9161.67
-9176.41
-9193.86
-9212.68
-9228.6
-9243.69
-9261.84
-9280.39
-9295.82
-9311.43
-9330.15
-9348.26
-9363.39
-9379.63
-9398.72
-9416.33
-9431.33
-9448.25
-9467.53
-9484.62
-9499.69
-9517.26
-9536.56
-9553.17
-9568.45
-9586.64
-9605.81
-9622.02
-9637.63
-9656.33
-9675.3
-9691.19
-9707.23
-9726.34
-9745.02
-9760.73
-9777.23
-9796.66
-9815.02
-9830.62
-9847.61
-9867.24
-9885.29
-9900.89
-9918.35
-9938.12
-9955.86
-9971.55
-9989.45
-10009.3
-10026.8
-10042.6
-10060.9
-10080.7
-10098
-10114
-10132.7
-10152.5
-10169.5
-10185.8
-10204.8
-10224.5
-10241.5
-10258
-10277.3
-10296.9
-10313.8
-10330.5
-10350
-10369.6
-10386.4
-10403.4
-10423.2
-10442.7
-10459.4
-10476.6
-10496.6
-10516.1
-10532.8
-10550.3
-10570.4
-10589.8
-10606.6
-10624.2
-10644.5
-10663.9
-10680.8
-10698.6
-10718.9
-10738.4
-10755.3
-10773.3
-10793.7
-10813.2
-10830.3
-10848.3
-10868.9
-10888.4
-10905.6
-10923.7
-10944.4
-10964
-10981.3
-10999.5
-11020.2
-11040
-11057.3
-11075.7
-11096.5
-11116.3
-11133.8
-11152.2
-11173.1
-11193.1
-11210.7
-11229.2
-11250
-11270.2
-11288
-11306.5
-11327.4
-11347.7
-11365.7
-11384.1
-11405.1
-11425.6
-11443.8
-11462.2
-11483.2
-11503.9
-11522.3
-11540.7
-11561.6
-11582.6
-11601.2
-11619.6
-11640.5
-11661.7
-11680.6
-11699
-11719.8
-11741.2
-11760.4
-11778.8
-11799.4
-11821.1
-11840.6
-11859
-11879.5
-11901.3
-11921.2
-11939.7
-11960
-11982
-12002.2
-12020.8
-12041
-12063
-12083.7
-12102.5
-12122.4
-12144.4
-12165.5
-12184.5
-12204.3
-12226.3
-12247.7
-12267.1
-12286.7
-12308.5
-12330.4
-12350.1
-12369.6
-12391.3
-12413.4
-12433.5
-12453
-12474.5
-12496.8
-12517.4
-12536.9
-12558.1
-12580.7
-12601.7
-12621.3
-12642.3
-12664.9
-12686.4
-12706.2
-12727
-12749.6
-12771.6
-12791.7
-12812.2
-12834.7
-12857.2
-12877.7
-12898
-12920.3
-12943.2
-12964.1
-12984.4
-13006.4
-13029.5
-13051
-13071.3
-13093
-13116.3
-13138.4
-13158.9
-13180.2
-13203.5
-13226.2
-13247
-13268.1
-13291.1
-13314.4
-13335.7
-13356.6
-13379.3
-13402.9
-13424.8
-13445.7
-13468.1
-13491.9
-13514.5
-13535.5
-13557.5
-13581.2
-13604.5
-13625.9
-13647.6
-13671.1
-13694.9
-13716.9
-13738.4
-13761.6
-13785.7
-13808.4
-13829.9
-13852.7
-13876.9
-13900.3
-13922.1
-13944.5
-13968.6
-13992.6
-14014.9
-14037.1
-14060.9
-14085.3
-14108.3
-14130.4
-14153.9
-14178.5
-14202.1
-14224.5
-14247.6
-14272.2
-14296.4
-14319.2
-14342
-14366.4
-14391.2
-14414.5
-14437.2
-14461.3
-14486.4
-14510.4
-14533.2
-14557
-14582.1
-14606.7
-14630
-14653.4
-14678.4
-14703.6
-14727.4
-14750.7
-14775.3
-14800.8
-14825.4
-14848.8
-14873
-14898.6
-14923.9
-14947.7
-14971.6
-14997
-15022.8
-15047.4
-15071.2
-15096.2
-15122.2
-15147.5
-15171.6
-15196.2
-15222.2
-15248.2
-15272.8
-15297.2
-15322.9
-15349.3
-15374.7
-15399.2
-15424.4
-15450.9
-15477.1
-15502
-15526.9
-15553.2
-15580
-15605.6
-15630.5
-15656.4
-15683.4
-15709.7
-15735
-15760.6
-15787.4
-15814.4
-15840.3
-15865.8
-15892.3
-15919.7
-15946.3
-15972
-15998.2
-16025.6
-16052.8
-16079.1
-16105.2
-16132.3
-16160
-16186.9
-16213.2
-16240
-16267.9
-16295.5
-16322.1
-16348.8
-16376.5
-16404.6
-16431.9
-16458.6
-16486.1
-16514.5
-16542.5
-16569.6
-16596.8
-16625.1
-16653.7
-16681.4
-16708.6
-16736.7
-16765.6
-16794.1
-16821.7
-16849.4
-16878.3
-16907.4
-16935.7
-16963.4
-16992
-17021.5
-17050.5
-17078.6
-17106.9
-17136.3
-17166
-17194.9
-17223.2
-17252.2
-17282.2
-17311.9
-17340.7
-17369.5
-17399.3
-17429.6
-17459.2
-17488.1
-17517.7
-17548.2
-17578.5
-17608
-17637.4
-17667.8
-17698.6
-17728.9
-17758.6
-17788.7
-17819.7
-17850.7
-17880.9
-17911
-17941.9
-17973.3
-18004.3
-18034.7
-18065.4
-18097
-18128.7
-18159.7
-18190.5
-18221.9
-18254
-18285.8
-18316.9
-18348.3
-18380.5
-18412.9
-18444.7
-18476.2
-18508.2
-18541.1
-18573.7
-18605.6
-18637.6
-18670.4
-18703.7
-18736.4
-18768.6
-18801.2
-18834.7
-18868.2
-18901.1
-18933.7
-18967
-19001
-19034.7
-19067.7
-19100.8
-19134.8
-19169.2
-19202.9
-19236.1
-19269.8
-19304.1
-19338.6
-19372.6
-19406.3
-19439.9
-19475.5
-19510.7
-19543.8
-19575.5
-19601.9
-19628.1
-19656.2
-19687.7
-19724.8
-19765
-19806.6
-19845.7
-19883.6
-19921.9
-19960
-19997.2
-20034.6
-20072
-20109.1
-20146
-20182.7
-20219.3
-20256.1
-20293
-20330.2
-20367.3
-20404.3
-20441.5
-20478.9
-20516.3
-20553.6
-20590.9
-20628.4
-20666.4
-20704.6
-20742.6
-20780.7
-20819
-20857.5
-20896
-20934.3
-20972.9
-21012
-21051.3
-21090.5
-21129.5
-21168.8
-21208.6
-21248.4
-21287.8
-21327.4
-21367.4
-21408
-21448.4
-21488.6
-21529
-21569.8
-21610.8
-21651.6
-21692.3
-21733.3
-21774.9
-21816.7
-21858.2
-21899.7
-21941.5
-21983.8
-22026
-22068
-22110.1
-22152.7
-22195.8
-22238.8
-22281.6
-22324.5
-22367.8
-22411.4
-22454.9
-22498.3
-22542
-22586.2
-22630.6
-22675
-22719.2
-22763.7
-22808.6
-22853.7
-22898.5
-22943.5
-22988.8
-23034.6
-23080.4
-23126.2
-23172
-23218.2
-23264.7
-23311.2
-23357.6
-23404.3
-23451.3
-23498.7
-23546.1
-23593.4
-23641
-23688.9
-23737
-23785.1
-23833.2
-23881.6
-23930.5
-23979.5
-24028.5
-24077.5
-24126.9
-24176.7
-24226.5
-24276.3
-24326.2
-24376.5
-24427.2
-24478.1
-24528.8
-24579.7
-24631
-24682.6
-24734.3
-24785.9
-24837.7
-24890
-24942.7
-24995.4
-25048
-25100.8
-25154.2
-25207.8
-25261.5
-25315
-25368.8
-25423.2
-25477.9
-25532.6
-25587.3
-25642.2
-25697.7
-25753.4
-25809
-25864.7
-25920.8
-25977.3
-26034.1
-26090.9
-26147.7
-26205
-26262.6
-26320.5
-26378.3
-26436.3
-26494.6
-26553.5
-26612.5
-26671.4
-26730.6
-26790.2
-26850.2
-26910.3
-26970.5
-27030.9
-27091.7
-27152.9
-27214.2
-27275.6
-27337.2
-27399.3
-27461.7
-27524.3
-27586.9
-27649.7
-27713.1
-27776.8
-27840.7
-27904.6
-27968.7
-28033.4
-28098.4
-28163.6
-28228.7
-28294.2
-28360.2
-28426.6
-28493.1
-28559.6
-28626.4
-28693.8
-28761.5
-28829.4
-28897.3
-28965.5
-29034.2
-29103.4
-29172.7
-29242
-29311.6
-29381.8
-29452.4
-29523
-29593.8
-29664.9
-29736.5
-29808.5
-29880.6
-29952.9
-30025.5
-30098.6
-30172.1
-30245.7
-30319.4
-30393.5
-30468.1
-30543.1
-30618.2
-30693.5
-30769.2
-30845.3
-30921.8
-30998.5
-31075.3
-31152.5
-31230.2
-31308.3
-31386.5
-31465
-31543.7
-31623
-31702.6
-31782.5
-31862.5
-31942.8
-32023.7
-32105
-32186.5
-32268.1
-32350
-32432.5
-32515.4
-32598.5
-32681.7
-32765.3
-32849.4
-32933.9
-33018.7
-33103.6
-33188.8
-33274.5
-33360.7
-33447.1
-33533.7
-33620.6
-33707.9
-33795.7
-33883.8
-33972.1
-34060.6
-34149.6
-34239
-34328.8
-34418.7
-34508.9
-34599.5
-34690.6
-34782
-34873.7
-34965.5
-35057.8
-35150.5
-35243.6
-35336.8
-35430.3
-35524.2
-35618.6
-35713.3
-35808.1
-35903.3
-35998.8
-36094.8
-36191.1
-36287.6
-36384.3
-36481.4
-36579
-36676.9
-36775
-36873.3
-36972
-37071.1
-37170.5
-37270.2
-37370.1
-37470.2
-37570.9
-37671.9
-37773.1
-37874.4
-37976
-38078.1
-38180.6
-38283.3
-38386.1
-38489.1
-38592.6
-38696.5
-38800.6
-38904.8
-39009.2
-39114
-39219.2
-39324.7
-39430.2
-39536
-39642
-39748.4
-39855.1
-39962
-40069
-40176.2
-40283.8
-40391.6
-40499.6
-40607.8
-40716.1
-40824.7
-40933.6
-41042.7
-41151.9
-41261.2
-41370.9
-41480.7
-41590.8
-41700.9
-41811.1
-41921.6
-42032.3
-42143.2
-42254.1
-42365.1
-42476.3
-42587.8
-42699.3
-42810.9
-42922.6
-43034.4
-43146.4
-43258.6
-43370.7
-43482.8
-43595.1
-43707.5
-43820.1
-43932.7
-44045.2
-44157.8
-44270.5
-44383.3
-44496.2
-44608.9
-44721.6
-44834.4
-44947.3
-45060.2
-45173
-45285.7
-45398.4
-45511.2
-45624.1
-45736.8
-45849.3
-45961.8
-46074.3
-46186.8
-46299.2
-46411.5
-46523.6
-46635.6
-46747.6
-46859.5
-46971.2
-47082.8
-47194.2
-47305.5
-47416.7
-47527.7
-47638.5
-47749.1
-47859.6
-47969.9
-48079.9
-48189.7
-48299.3
-48408.8
-48518
-48627
-48735.6
-48844
-48952.2
-49060.2
-49167.9
-49275.2
-49382.1
-49488.9
-49595.4
-49701.7
-49807.5
-49912.9
-50018
-50122.8
-50227.4
-50331.6
-50435.3
-50538.5
-50641.5
-50744.2
-50846.5
-50948.4
-51049.7
-51150.7
-51251.3
-51351.6
-51451.4
-51550.6
-51649.4
-51747.8
-51845.9
-51943.4
-52040.4
-52137
-52233
-52328.7
-52423.9
-52518.5
-52612.6
-52706.3
-52799.4
-52892.1
-52984.2
-53075.8
-53166.8
-53257.4
-53347.5
-53436.9
-53525.8
-53614.2
-53702.1
-53789.4
-53876.2
-53962.3
-54047.9
-54132.9
-54217.5
-54301.5
-54384.9
-54467.6
-54549.7
-54631.4
-54712.6
-54793.1
-54872.9
-54952.2
-55030.9
-55109.2
-55186.8
-55263.8
-55340.1
-55415.8
-55491.1
-55565.8
-55639.9
-55713.3
-55786.1
-55858.4
-55930.1
-56001.3
-56071.8
-56141.7
-56211
-56279.8
-56348
-56415.7
-56482.7
-56549.1
-56615
-56680.3
-56745
-56809.2
-56872.8
-56935.8
-56998.3
-57060.2
-57121.5
-57182.3
-57242.5
-57302.2
-57361.4
-57420
-57478
-57535.5
-57592.6
-57649.1
-57705
-57760.4
-57815.2
-57869.6
-57923.5
-57977
-58029.8
-58082.1
-58133.9
-58185.3
-58236.3
-58286.7
-58336.6
-58386
-58435
-58483.6
-58531.7
-58579.3
-58626.4
-58673.1
-58719.4
-58765.3
-58810.7
-58855.7
-58900.2
-58944.3
-58988.1
-59031.4
-59074.4
-59116.9
-59159
-59200.7
-59242.1
-59283.1
-59323.7
-59363.9
-59403.8
-59443.3
-59482.5
-59521.4
-59559.8
-59598
-59635.8
-59673.3
-59710.5
-59747.3
-59783.8
-59820
-59856
-59891.6
-59926.9
-59961.9
-59996.6
-60031.1
-60065.4
-60099.3
-60132.9
-60166.3
-60199.4
-60232.4
-60265.1
-60297.4
-60329.5
-60361.4
-60393.1
-60424.7
-60455.9
-60486.9
-60517.7
-60548.3
-60578.7
-60608.9
-60638.9
-60668.7
-60698.3
-60727.7
-60757
-60786.1
-60815
-60843.7
-60872.2
-60900.6
-60928.8
-60956.9
-60984.8
-61012.6
-61040.2
-61067.7
-61095
-61122.2
-61149.2
-61176.2
-61203
-61229.7
-61256.2
-61282.6
-61309
-61335.2
-61361.3
-61387.3
-61413.2
-61438.9
-61464.6
-61490.2
-61515.7
-61541.1
-61566.4
-61591.5
-61616.7
-61641.8
-61666.8
-61691.6
-61716.4
-61741.1
-61765.8
-61790.4
-61814.9
-61839.4
-61863.7
-61888
-61912.3
-61936.5
-61960.7
-61984.7
-62008.7
-62032.7
-62056.7
-62080.5
-62104.4
-62128.1
-62151.9
-62175.6
-62199.2
-62222.8
-62246.4
-62269.9
-62293.4
-62316.9
-62340.3
-62363.6
-62387
-62410.3
-62433.6
-62456.9
-62480.1
-62503.3
-62526.4
-62549.6
-62572.7
-62595.9
-62618.9
-62641.9
-62665
-62688
-62711
-62734
-62757
-62779.9
-62802.8
-62825.7
-62848.6
-62871.5
-62894.4
-62917.2
-62940
-62962.9
-62985.7
-63008.5
-63031.3
-63054.1
-63076.9
-63099.7
-63122.4
-63145.2
-63167.9
-63190.6
-63213.4
-63236.1
-63258.8
-63281.5
-63304.2
-63327
-63349.7
-63372.4
-63395
-63417.7
-63440.4
-63463.1
-63485.8
-63508.5
-63531.2
-63553.8
-63576.5
-63599.2
-63621.9
-63644.6
-63667.2
-63689.9
-63712.6
-63735.3
-63758
-63780.6
-63803.3
-63826
-63848.7
-63871.4
-63894.1
-63916.7
-63939.4
-63962.1
-63984.8
-64007.5
-64030.2
-64052.9
-64075.6
-64098.3
-64121
-64143.7
-64166.4
-64189.2
-64211.9
-64234.6
-64257.3
-64280.1
-64302.8
-64325.5
-64348.3
-64371
-64393.8
-64416.6
-64439.3
-64462.1
-64484.8
-64507.6
-64530.4
-64553.2
-64575.9
-64598.7
-64621.6
-64644.4
-64667.2
-64690
-64712.8
-64735.6
-64758.4
-64781.3
-64804.1
-64826.9
-64849.7
-64872.6
-64895.5
-64918.3
-64941.2
-64964.1
-64986.9
-65009.8
-65032.7
-65055.6
-65078.5
-65101.4
-65124.3
-65147.2
-65170.1
-65193
-65216
-65238.9
-65261.8
-65284.8
-65307.7
-65330.7
-65353.6
-65376.6
-65399.6
-65422.5
-65445.5
-65468.5
-65491.5
-65514.5
-65537.5
-65560.5
-65583.5
-65606.5
-65629.5
-65652.5
-65675.6
-65698.6
-65721.7
-65744.7
-65767.8
-65790.8
-65813.9
-65837
-65860.1
-65883.1
-65906.2
-65929.3
-65952.4
-65975.5
-65998.6
-66021.7
-66044.8
-66068
-66091.1
-66114.3
-66137.4
-66160.5
-66183.7
-66206.8
-66230
-66253.2
-66276.3
-66299.5
-66322.7
-66345.9
-66369.1
-66392.3
-66415.5
-66438.7
-66461.9
-66485.2
-66508.4
-66531.6
-66554.8
-66578.1
-66601.3
-66624.6
-66647.9
-66671.1
-66694.4
-66717.7
-66741
-66764.3
-66787.6
-66810.9
-66834.1
-66857.5
-66880.8
-66904.1
-66927.4
-66950.8
-66974.1
-66997.4
-67020.8
-67044.2
-67067.5
-67090.9
-67114.2
-67137.6
-67161
-67184.4
-67207.8
-67231.2
-67254.6
-67278
-67301.4
-67324.8
-67348.3
-67371.7
-67395.1
-67418.6
-67442
-67465.5
-67488.9
-67512.4
-67535.9
-67559.3
-67582.8
-67606.3
-67629.8
-67653.3
-67676.8
-67700.3
-67723.8
-67747.4
-67770.9
-67794.4
-67817.9
-67841.5
-67865.1
-67888.6
-67912.2
-67935.7
-67959.3
-67982.9
-68006.5
-68030.1
-68053.6
-68077.2
-68100.8
-68124.4
-68148.1
-68171.7
-68195.3
-68218.9
-68242.6
-68266.2
-68289.9
-68313.5
-68337.2
-68360.9
-68384.5
-68408.2
-68431.9
-68455.6
-68479.3
-68503
-68526.7
-68550.4
-68574.1
-68597.8
-68621.5
-68645.3
-68669
-68692.8
-68716.5
-68740.3
-68764
-68787.8
-68811.6
-68835.4
-68859.2
-68882.9
-68906.7
-68930.5
-68954.3
-68978.2
-69002
-69025.8
-69049.6
-69073.4
-69097.3
-69121.2
-69145
-69168.9
-69192.7
-69216.6
-69240.5
-69264.4
-69288.3
-69312.1
-69336
-69359.9
-69383.8
-69407.8
-69431.7
-69455.6
-69479.5
-69503.5
-69527.4
-69551.4
-69575.3
-69599.3
-69623.3
-69647.2
-69671.2
-69695.2
-69719.2
-69743.2
-69767.2
-69791.2
-69815.2
-69839.2
-69863.2
-69887.3
-69911.3
-69935.3
-69959.4
-69983.5
-70007.5
-70031.6
-70055.6
-70079.7
-70103.8
-70127.9
-70152
-70176.1
-70200.2
-70224.3
-70248.4
-70272.5
-70296.6
-70320.8
-70344.9
-70369
-70393.2
-70417.3
-70441.5
-70465.7
-70489.8
-70514
-70538.2
-70562.4
-70586.6
-70610.8
-70635
-70659.2
-70683.4
-70707.6
-70731.9
-70756.1
-70780.3
-70804.6
-70828.8
-70853.1
-70877.3
-70901.6
-70925.9
-70950.1
-70974.4
-70998.7
-71023
-71047.3
-71071.6
-71095.9
-71120.2
-71144.6
-71168.9
-71193.2
-71217.6
-71241.9
-71266.2
-71290.6
-71315
-71339.3
-71363.7
-71388.1
-71412.5
-71436.8
-71461.2
-71485.6
-71510
-71534.5
-71558.9
-71583.3
-71607.7
-71632.1
-71656.6
-71681
-71705.5
-71729.9
-71754.4
-71778.8
-71803.3
-71827.8
-71852.3
-71876.8
-71901.2
-71925.7
-71950.2
-71974.7
-71999.2
-72023.8
-72048.3
-72072.8
-72097.3
-72121.9
-72146.4
-72171
-72195.5
-72220.1
-72244.7
-72269.2
-72293.8
-72318.4
-72343
-72367.6
-72392.2
-72416.8
-72441.4
-72466
-72490.6
-72515.2
-72539.8
-72564.5
-72589.1
-72613.8
-72638.4
-72663.1
-72687.7
-72712.4
-72737.1
-72761.7
-72786.4
-72811.1
-72835.8
-72860.5
-72885.2
-72909.9
-72934.6
-72959.3
-72984
-73008.8
-73033.5
-73058.2
-73083
-73107.8
-73132.5
-73157.3
-73182
-73206.8
-73231.6
-73256.3
-73281.1
-73305.9
-73330.7
-73355.5
-73380.3
-73405.1
-73429.9
-73454.8
-73479.6
-73504.4
-73529.3
-73554.1
-73578.9
-73603.8
-73628.7
-73653.5
-73678.4
-73703.3
-73728.1
-73753
-73777.9
-73802.8
-73827.7
-73852.6
-73877.5
-73902.4
-73927.4
-73952.3
-73977.2
-74002.2
-74027.1
-74052
-74077
-74101.9
-74126.9
-74151.9
-74176.8
-74201.8
-74226.8
-74251.8
-74276.8
-74301.8
-74326.8
-74351.8
-74376.8
-74401.8
-74426.9
-74451.9
-74476.9
-74501.9
-74527
-74552.1
-74577.1
-74602.2
-74627.2
-74652.3
-74677.4
-74702.4
-74727.5
-74752.6
-74777.7
-74802.8
-74827.9
-74853
-74878.2
-74903.3
-74928.4
-74953.6
-74978.7
-75003.8
-75029
-75054.1
-75079.3
-75104.5
-75129.6
-75154.8
-75180
-75205.2
-75230.4
-75255.6
-75280.8
-75306
-75331.2
-75356.4
-75381.6
-75406.9
-75432.1
-75457.3
-75482.6
-75507.8
-75533.1
-75558.3
-75583.6
-75608.9
-75634.1
-75659.4
-75684.7
-75710
-75735.3
-75760.6
-75785.9
-75811.2
-75836.6
-75861.9
-75887.2
-75912.6
-75937.9
-75963.2
-75988.6
-76014
-76039.3
-76064.7
-76090.1
-76115.4
-76140.8
-76166.2
-76191.6
-76217
-76242.4
-76267.8
-76293.3
-76318.7
-76344.1
-76369.5
-76395
-76420.4
-76445.9
-76471.3
-76496.8
-76522.3
-76547.7
-76573.2
-76598.7
-76624.2
-76649.7
-76675.2
-76700.7
-76726.2
-76751.7
-76777.2
-76802.8
-76828.3
-76853.8
-76879.4
-76904.9
-76930.5
-76956
-76981.6
-77007.2
-77032.8
-77058.4
-77083.9
-77109.5
-77135.1
-77160.7
-77186.4
-77212
-77237.6
-77263.2
-77288.9
-77314.5
-77340.2
-77365.8
-77391.5
-77417.1
-77442.8
-77468.5
-77494.2
-77519.8
-77545.5
-77571.2
-77596.9
-77622.7
-77648.4
-77674.1
-77699.8
-77725.5
-77751.3
-77777
-77802.8
-77828.5
-77854.3
-77880.1
-77905.8
-77931.6
-77957.4
-77983.2
-78009
-78034.8
-78060.6
-78086.4
-78112.2
-78138.1
-78163.9
-78189.7
-78215.6
-78241.4
-78267.3
-78293.2
-78319
-78344.9
-78370.8
-78396.7
-78422.6
-78448.5
-78474.4
-78500.3
-78526.2
-78552.1
-78578
-78604
-78629.9
-78655.9
-78681.8
-78707.8
-78733.7
-78759.7
-78785.7
-78811.7
-78837.6
-78863.6
-78889.6
-78915.6
-78941.7
-78967.7
-78993.7
-79019.7
-79045.8
-79071.8
-79097.9
-79123.9
-79150
-79176
-79202.1
-79228.2
-79254.3
-79280.4
-79306.5
-79332.6
-79358.7
-79384.8
-79410.9
-79437.1
-79463.2
-79489.3
-79515.5
-79541.6
-79567.8
-79594
-79620.1
-79646.3
-79672.5
-79698.7
-79724.9
-79751.1
-79777.3
-79803.5
-79829.7
-79856
-79882.2
-79908.5
-79934.7
-79960.9
-79987.2
-80013.5
-80039.7
-80066
-80092.3
-80118.6
-80144.9
-80171.2
-80197.5
-80223.8
-80250.2
-80276.5
-80302.8
-80329.2
-80355.5
-80381.9
-80408.2
-80434.6
-80461
-80487.4
-80513.8
-80540.2
-80566.6
-80593
-80619.4
-80645.8
-80672.2
-80698.6
-80725.1
-80751.5
-80778
-80804.4
-80830.9
-80857.4
-80883.8
-80910.3
-80936.8
-80963.3
-80989.8
-81016.3
-81042.8
-81069.4
-81095.9
-81122.4
-81149
-81175.5
-81202.1
-81228.6
-81255.2
-81281.8
-81308.3
-81334.9
-81361.5
-81388.1
-81414.7
-81441.3
-81468
-81494.6
-81521.2
-81547.9
-81574.5
-81601.2
-81627.8
-81654.5
-81681.1
-81707.8
-81734.5
-81761.2
-81787.9
-81814.6
-81841.3
-81868
-81894.7
-81921.4
-81948.2
-81974.9
-82001.7
-82028.4
-82055.2
-82082
-82108.7
-82135.5
-82162.3
-82189.1
-82215.9
-82242.7
-82269.5
-82296.3
-82323.1
-82350
-82376.8
-82403.6
-82430.5
-82457.4
-82484.2
-82511.1
-82538
-82564.8
-82591.7
-82618.6
-82645.5
-82672.4
-82699.3
-82726.2
-82753.2
-82780.1
-82807
-82834
-82860.9
-82887.9
-82914.9
-82941.8
-82968.8
-82995.8
-83022.8
-83049.8
-83076.8
-83103.8
-83130.8
-83157.8
-83184.8
-83211.9
-83238.9
-83265.9
-83293
-83320.1
-83347.1
-83374.2
-83401.3
-83428.3
-83455.4
-83482.5
-83509.6
-83536.7
-83563.8
-83591
-83618.1
-83645.2
-83672.3
-83699.5
-83726.6
-83753.8
-83781
-83808.1
-83835.3
-83862.5
-83889.7
-83916.9
-83944.1
-83971.3
-83998.5
-84025.7
-84052.9
-84080.1
-84107.4
-84134.6
-84161.9
-84189.1
-84216.4
-84243.6
-84270.9
-84298.2
-84325.5
-84352.8
-84380.1
-84407.4
-84434.7
-84462
-84489.3
-84516.6
-84543.9
-84571.3
-84598.6
-84626
-84653.3
-84680.7
-84708.1
-84735.4
-84762.8
-84790.2
-84817.6
-84845
-84872.4
-84899.8
-84927.2
-84954.6
-84982
-85009.5
-85036.9
-85064.4
-85091.8
-85119.3
-85146.7
-85174.2
-85201.7
-85229.1
-85256.6
-85284.1
-85311.6
-85339.1
-85366.6
-85394.1
-85421.7
-85449.2
-85476.7
-85504.3
-85531.8
-85559.3
-85586.9
-85614.5
-85642
-85669.6
-85697.2
-85724.8
-85752.3
-85779.9
-85807.5
-85835.1
-85862.8
-85890.4
-85918
-85945.6
-85973.3
-86000.9
-86028.6
-86056.2
-86083.9
-86111.5
-86139.2
-86166.9
-86194.5
-86222.2
-86249.9
-86277.6
-86305.3
-86333
-86360.7
-86388.5
-86416.2
-86443.9
-86471.7
-86499.4
-86527.2
-86554.9
-86582.7
-86610.4
-86638.2
-86666
-86693.8
-86721.6
-86749.4
-86777.2
-86805
-86832.8
-86860.6
-86888.4
-86916.3
-86944.1
-86971.9
-86999.8
-87027.6
-87055.5
-87083.4
-87111.2
-87139.1
-87167
-87194.9
-87222.8
-87250.7
-87278.6
-87306.5
-87334.4
-87362.3
-87390.3
-87418.2
-87446.1
-87474.1
-87502
-87530
-87558
-87585.9
-87613.9
-87641.9
-87669.9
-87697.9
-87725.8
-87753.8
-87781.9
-87809.9
-87837.9
-87865.9
-87894
-87922
-87950
-87978.1
-88006.1
-88034.2
-88062.3
-88090.3
-88118.4
-88146.5
-88174.6
-88202.7
-88230.8
-88258.9
-88287
-88315.1
-88343.2
-88371.4
-88399.5
-88427.6
-88455.8
-88483.9
-88512.1
-88540.3
-88568.4
-88596.6
-88624.8
-88653
-88681.2
-88709.4
-88737.6
-88765.8
-88794
-88822.2
-88850.5
-88878.7
-88906.9
-88935.2
-88963.4
-88991.7
-89020
-89048.2
-89076.5
-89104.8
-89133.1
-89161.4
-89189.7
-89218
-89246.3
-89274.6
-89302.9
-89331.3
-89359.6
-89387.9
-89416.3
-89444.6
-89473
-89501.4
-89529.7
-89558.1
-89586.5
-89614.9
-89643.3
-89671.7
-89700.1
-89728.5
-89756.9
-89785.3
-89813.8
-89842.2
-89870.6
-89899.1
-89927.5
-89956
-89984.5
-90012.9
-90041.4
-90069.9
-90098.4
-90126.9
-90155.4
-90183.9
-90212.4
-90240.9
-90269.4
-90298
-90326.5
-90355.1
-90383.6
-90412.2
-90440.7
-90469.3
-90497.9
-90526.4
-90555
-90583.6
-90612.2
-90640.8
-90669.4
-90698
-90726.7
-90755.3
-90783.9
-90812.6
-90841.2
-90869.9
-90898.5
-90927.2
-90955.8
-90984.5
-91013.2
-91041.9
-91070.6
-91099.3
-91128
-91156.7
-91185.4
-91214.1
-91242.9
-91271.6
-91300.4
-91329.1
-91357.9
-91386.6
-91415.4
-91444.2
-91472.9
-91501.7
-91530.5
-91559.3
-91588.1
-91616.9
-91645.7
-91674.6
-91703.4
-91732.2
-91761.1
-91789.9
-91818.8
-91847.6
-91876.5
-91905.4
-91934.2
-91963.1
-91992
-92020.9
-92049.8
-92078.7
-92107.6
-92136.5
-92165.5
-92194.4
-92223.4
-92252.3
-92281.2
-92310.2
-92339.2
-92368.1
-92397.1
-92426.1
-92455.1
-92484.1
-92513.1
-92542.1
-92571.1
-92600.1
-92629.2
-92658.2
-92687.2
-92716.3
-92745.3