/*--------------------------------*- C++ -*----------------------------------*\
  =========                 |
  \\      /  F ield         | OpenFOAM: The Open Source CFD Toolbox
   \\    /   O peration     | Website:  https://openfoam.org
    \\  /    A nd           | Version:  9
     \\/     M anipulation  |
\*---------------------------------------------------------------------------*/
FoamFile
{
    format      ascii;
    class       volVectorField;
    location    "0.043";
    object      ddtCorrDdt0(rho,U);
}
// * * * * * * * * * * * * * * * * * * * * * * * * * * * * * * * * * * * * * //

dimensions      [1 -2 -2 0 0 0 0];

internalField   nonuniform List<vector> 
10000
(
(-12.1523 0 0)
(-12.5292 0 0)
(-12.9333 0 0)
(-13.2614 0 0)
(-13.5614 0 0)
(-13.8657 0 0)
(-14.1766 0 0)
(-14.4892 0 0)
(-14.8011 0 0)
(-15.1122 0 0)
(-15.4232 0 0)
(-15.7343 0 0)
(-16.0457 0 0)
(-16.3573 0 0)
(-16.6689 0 0)
(-16.9806 0 0)
(-17.2924 0 0)
(-17.6043 0 0)
(-17.9164 0 0)
(-18.2285 0 0)
(-18.5405 0 0)
(-18.8524 0 0)
(-19.1644 0 0)
(-19.4764 0 0)
(-19.788 0 0)
(-20.0993 0 0)
(-20.4104 0 0)
(-20.7215 0 0)
(-21.0326 0 0)
(-21.3436 0 0)
(-21.6545 0 0)
(-21.9652 0 0)
(-22.2762 0 0)
(-22.5875 0 0)
(-22.8991 0 0)
(-23.2107 0 0)
(-23.522 0 0)
(-23.8334 0 0)
(-24.1452 0 0)
(-24.4574 0 0)
(-24.7698 0 0)
(-25.0819 0 0)
(-25.3934 0 0)
(-25.7045 0 0)
(-26.0155 0 0)
(-26.3267 0 0)
(-26.6382 0 0)
(-26.9494 0 0)
(-27.26 0 0)
(-27.5702 0 0)
(-27.8804 0 0)
(-28.191 0 0)
(-28.5024 0 0)
(-28.814 0 0)
(-29.1253 0 0)
(-29.4361 0 0)
(-29.7466 0 0)
(-30.0575 0 0)
(-30.3693 0 0)
(-30.6819 0 0)
(-30.9948 0 0)
(-31.3071 0 0)
(-31.6183 0 0)
(-31.9284 0 0)
(-32.2383 0 0)
(-32.5487 0 0)
(-32.86 0 0)
(-33.1719 0 0)
(-33.4836 0 0)
(-33.7944 0 0)
(-34.104 0 0)
(-34.413 0 0)
(-34.7223 0 0)
(-35.0329 0 0)
(-35.3448 0 0)
(-35.6575 0 0)
(-35.97 0 0)
(-36.2815 0 0)
(-36.5918 0 0)
(-36.9016 0 0)
(-37.2117 0 0)
(-37.5231 0 0)
(-37.8356 0 0)
(-38.1487 0 0)
(-38.4612 0 0)
(-38.7723 0 0)
(-39.0817 0 0)
(-39.3899 0 0)
(-39.698 0 0)
(-40.0071 0 0)
(-40.3179 0 0)
(-40.6304 0 0)
(-40.9435 0 0)
(-41.2562 0 0)
(-41.5675 0 0)
(-41.8769 0 0)
(-42.185 0 0)
(-42.4932 0 0)
(-42.8026 0 0)
(-43.1142 0 0)
(-43.4277 0 0)
(-43.7424 0 0)
(-44.0567 0 0)
(-44.3692 0 0)
(-44.6794 0 0)
(-44.9872 0 0)
(-45.2937 0 0)
(-45.6002 0 0)
(-45.9082 0 0)
(-46.2184 0 0)
(-46.5311 0 0)
(-46.8456 0 0)
(-47.1605 0 0)
(-47.4742 0 0)
(-47.7856 0 0)
(-48.0944 0 0)
(-48.4011 0 0)
(-48.7071 0 0)
(-49.0138 0 0)
(-49.3225 0 0)
(-49.6338 0 0)
(-49.9479 0 0)
(-50.2638 0 0)
(-50.5802 0 0)
(-50.8954 0 0)
(-51.208 0 0)
(-51.5171 0 0)
(-51.823 0 0)
(-52.1267 0 0)
(-52.43 0 0)
(-52.7349 0 0)
(-53.0426 0 0)
(-53.354 0 0)
(-53.6689 0 0)
(-53.9864 0 0)
(-54.305 0 0)
(-54.6227 0 0)
(-54.9377 0 0)
(-55.2488 0 0)
(-55.5559 0 0)
(-55.8597 0 0)
(-56.1619 0 0)
(-56.4641 0 0)
(-56.7682 0 0)
(-57.0753 0 0)
(-57.3859 0 0)
(-57.7 0 0)
(-58.0172 0 0)
(-58.3362 0 0)
(-58.6555 0 0)
(-58.9733 0 0)
(-59.2884 0 0)
(-59.6001 0 0)
(-59.9081 0 0)
(-60.2128 0 0)
(-60.5147 0 0)
(-60.8151 0 0)
(-61.1153 0 0)
(-61.4173 0 0)
(-61.7225 0 0)
(-62.032 0 0)
(-62.3462 0 0)
(-62.6642 0 0)
(-62.9847 0 0)
(-63.3064 0 0)
(-63.6279 0 0)
(-63.948 0 0)
(-64.2653 0 0)
(-64.5786 0 0)
(-64.8877 0 0)
(-65.1932 0 0)
(-65.4956 0 0)
(-65.7958 0 0)
(-66.0946 0 0)
(-66.3929 0 0)
(-66.6916 0 0)
(-66.9921 0 0)
(-67.2957 0 0)
(-67.6039 0 0)
(-67.917 0 0)
(-68.2341 0 0)
(-68.5545 0 0)
(-68.8774 0 0)
(-69.2021 0 0)
(-69.5276 0 0)
(-69.8522 0 0)
(-70.1748 0 0)
(-70.4947 0 0)
(-70.8118 0 0)
(-71.1255 0 0)
(-71.4358 0 0)
(-71.7427 0 0)
(-72.0456 0 0)
(-72.3439 0 0)
(-72.6386 0 0)
(-72.9314 0 0)
(-73.2241 0 0)
(-73.5174 0 0)
(-73.8113 0 0)
(-74.1063 0 0)
(-74.4039 0 0)
(-74.7051 0 0)
(-75.0095 0 0)
(-75.3171 0 0)
(-75.6288 0 0)
(-75.9444 0 0)
(-76.2636 0 0)
(-76.5873 0 0)
(-76.916 0 0)
(-77.2489 0 0)
(-77.5842 0 0)
(-77.9199 0 0)
(-78.2555 0 0)
(-78.5931 0 0)
(-78.9335 0 0)
(-79.2739 0 0)
(-79.6128 0 0)
(-79.9518 0 0)
(-80.2904 0 0)
(-80.6266 0 0)
(-80.9607 0 0)
(-81.2929 0 0)
(-81.6215 0 0)
(-81.9466 0 0)
(-82.2681 0 0)
(-82.5867 0 0)
(-82.9062 0 0)
(-83.2268 0 0)
(-83.5427 0 0)
(-83.8524 0 0)
(-84.1645 0 0)
(-84.4787 0 0)
(-84.7927 0 0)
(-85.1108 0 0)
(-85.444 0 0)
(-85.8011 0 0)
(-86.1194 0 0)
(-86.4313 0 0)
(-86.7483 0 0)
(-87.0625 0 0)
(-87.3732 0 0)
(-87.6903 0 0)
(-88.0048 0 0)
(-88.3136 0 0)
(-88.6225 0 0)
(-88.9335 0 0)
(-89.2478 0 0)
(-89.5621 0 0)
(-89.8746 0 0)
(-90.1883 0 0)
(-90.5015 0 0)
(-90.8131 0 0)
(-91.1255 0 0)
(-91.439 0 0)
(-91.7519 0 0)
(-92.0633 0 0)
(-92.3748 0 0)
(-92.6884 0 0)
(-93.0028 0 0)
(-93.3153 0 0)
(-93.6261 0 0)
(-93.9365 0 0)
(-94.2473 0 0)
(-94.5587 0 0)
(-94.8712 0 0)
(-95.1847 0 0)
(-95.498 0 0)
(-95.8106 0 0)
(-96.1232 0 0)
(-96.4365 0 0)
(-96.7499 0 0)
(-97.0623 0 0)
(-97.3743 0 0)
(-97.6867 0 0)
(-98.0001 0 0)
(-98.3137 0 0)
(-98.6271 0 0)
(-98.9397 0 0)
(-99.2513 0 0)
(-99.5623 0 0)
(-99.8735 0 0)
(-100.186 0 0)
(-100.498 0 0)
(-100.811 0 0)
(-101.123 0 0)
(-101.436 0 0)
(-101.749 0 0)
(-102.062 0 0)
(-102.375 0 0)
(-102.687 0 0)
(-103 0 0)
(-103.313 0 0)
(-103.626 0 0)
(-103.939 0 0)
(-104.253 0 0)
(-104.565 0 0)
(-104.877 0 0)
(-105.189 0 0)
(-105.501 0 0)
(-105.813 0 0)
(-106.125 0 0)
(-106.438 0 0)
(-106.751 0 0)
(-107.064 0 0)
(-107.377 0 0)
(-107.69 0 0)
(-108.003 0 0)
(-108.315 0 0)
(-108.627 0 0)
(-108.94 0 0)
(-109.253 0 0)
(-109.567 0 0)
(-109.88 0 0)
(-110.192 0 0)
(-110.505 0 0)
(-110.817 0 0)
(-111.129 0 0)
(-111.441 0 0)
(-111.754 0 0)
(-112.066 0 0)
(-112.379 0 0)
(-112.692 0 0)
(-113.006 0 0)
(-113.319 0 0)
(-113.631 0 0)
(-113.944 0 0)
(-114.257 0 0)
(-114.57 0 0)
(-114.883 0 0)
(-115.196 0 0)
(-115.509 0 0)
(-115.822 0 0)
(-116.134 0 0)
(-116.447 0 0)
(-116.759 0 0)
(-117.071 0 0)
(-117.383 0 0)
(-117.696 0 0)
(-118.009 0 0)
(-118.322 0 0)
(-118.635 0 0)
(-118.949 0 0)
(-119.262 0 0)
(-119.575 0 0)
(-119.887 0 0)
(-120.201 0 0)
(-120.514 0 0)
(-120.827 0 0)
(-121.14 0 0)
(-121.453 0 0)
(-121.766 0 0)
(-122.078 0 0)
(-122.391 0 0)
(-122.703 0 0)
(-123.015 0 0)
(-123.328 0 0)
(-123.64 0 0)
(-123.953 0 0)
(-124.267 0 0)
(-124.58 0 0)
(-124.893 0 0)
(-125.206 0 0)
(-125.519 0 0)
(-125.833 0 0)
(-126.146 0 0)
(-126.459 0 0)
(-126.773 0 0)
(-127.086 0 0)
(-127.399 0 0)
(-127.712 0 0)
(-128.025 0 0)
(-128.337 0 0)
(-128.649 0 0)
(-128.962 0 0)
(-129.275 0 0)
(-129.587 0 0)
(-129.9 0 0)
(-130.214 0 0)
(-130.527 0 0)
(-130.84 0 0)
(-131.153 0 0)
(-131.466 0 0)
(-131.78 0 0)
(-132.093 0 0)
(-132.407 0 0)
(-132.72 0 0)
(-133.034 0 0)
(-133.347 0 0)
(-133.66 0 0)
(-133.973 0 0)
(-134.286 0 0)
(-134.598 0 0)
(-134.911 0 0)
(-135.224 0 0)
(-135.537 0 0)
(-135.85 0 0)
(-136.163 0 0)
(-136.476 0 0)
(-136.789 0 0)
(-137.102 0 0)
(-137.416 0 0)
(-137.729 0 0)
(-138.043 0 0)
(-138.357 0 0)
(-138.67 0 0)
(-138.984 0 0)
(-139.297 0 0)
(-139.611 0 0)
(-139.924 0 0)
(-140.237 0 0)
(-140.55 0 0)
(-140.863 0 0)
(-141.176 0 0)
(-141.489 0 0)
(-141.802 0 0)
(-142.115 0 0)
(-142.429 0 0)
(-142.742 0 0)
(-143.055 0 0)
(-143.368 0 0)
(-143.682 0 0)
(-143.996 0 0)
(-144.309 0 0)
(-144.623 0 0)
(-144.937 0 0)
(-145.25 0 0)
(-145.564 0 0)
(-145.877 0 0)
(-146.19 0 0)
(-146.503 0 0)
(-146.817 0 0)
(-147.13 0 0)
(-147.443 0 0)
(-147.757 0 0)
(-148.07 0 0)
(-148.384 0 0)
(-148.697 0 0)
(-149.01 0 0)
(-149.324 0 0)
(-149.638 0 0)
(-149.951 0 0)
(-150.265 0 0)
(-150.579 0 0)
(-150.893 0 0)
(-151.206 0 0)
(-151.52 0 0)
(-151.833 0 0)
(-152.146 0 0)
(-152.46 0 0)
(-152.773 0 0)
(-153.087 0 0)
(-153.401 0 0)
(-153.714 0 0)
(-154.028 0 0)
(-154.342 0 0)
(-154.655 0 0)
(-154.969 0 0)
(-155.282 0 0)
(-155.596 0 0)
(-155.91 0 0)
(-156.224 0 0)
(-156.538 0 0)
(-156.852 0 0)
(-157.166 0 0)
(-157.479 0 0)
(-157.793 0 0)
(-158.106 0 0)
(-158.42 0 0)
(-158.733 0 0)
(-159.047 0 0)
(-159.361 0 0)
(-159.675 0 0)
(-159.989 0 0)
(-160.302 0 0)
(-160.616 0 0)
(-160.93 0 0)
(-161.244 0 0)
(-161.558 0 0)
(-161.872 0 0)
(-162.186 0 0)
(-162.501 0 0)
(-162.814 0 0)
(-163.129 0 0)
(-163.442 0 0)
(-163.757 0 0)
(-164.069 0 0)
(-164.385 0 0)
(-164.696 0 0)
(-165.013 0 0)
(-165.323 0 0)
(-165.641 0 0)
(-165.95 0 0)
(-166.27 0 0)
(-166.578 0 0)
(-166.898 0 0)
(-167.206 0 0)
(-167.526 0 0)
(-167.835 0 0)
(-168.153 0 0)
(-168.467 0 0)
(-168.781 0 0)
(-169.095 0 0)
(-169.41 0 0)
(-169.724 0 0)
(-170.037 0 0)
(-170.351 0 0)
(-170.665 0 0)
(-170.979 0 0)
(-171.293 0 0)
(-171.608 0 0)
(-171.921 0 0)
(-172.238 0 0)
(-172.547 0 0)
(-172.869 0 0)
(-173.171 0 0)
(-173.5 0 0)
(-173.797 0 0)
(-174.131 0 0)
(-174.427 0 0)
(-174.759 0 0)
(-175.059 0 0)
(-175.383 0 0)
(-175.695 0 0)
(-176.004 0 0)
(-176.331 0 0)
(-176.625 0 0)
(-176.964 0 0)
(-177.252 0 0)
(-177.592 0 0)
(-177.887 0 0)
(-178.212 0 0)
(-178.526 0 0)
(-178.828 0 0)
(-179.165 0 0)
(-179.45 0 0)
(-179.795 0 0)
(-180.083 0 0)
(-180.416 0 0)
(-180.726 0 0)
(-181.031 0 0)
(-181.37 0 0)
(-181.652 0 0)
(-182.002 0 0)
(-182.286 0 0)
(-182.617 0 0)
(-182.932 0 0)
(-183.228 0 0)
(-183.576 0 0)
(-183.853 0 0)
(-184.202 0 0)
(-184.495 0 0)
(-184.812 0 0)
(-185.147 0 0)
(-185.423 0 0)
(-185.779 0 0)
(-186.06 0 0)
(-186.393 0 0)
(-186.713 0 0)
(-187 0 0)
(-187.357 0 0)
(-187.629 0 0)
(-187.973 0 0)
(-188.282 0 0)
(-188.578 0 0)
(-188.933 0 0)
(-189.201 0 0)
(-189.553 0 0)
(-189.852 0 0)
(-190.153 0 0)
(-190.508 0 0)
(-190.774 0 0)
(-191.131 0 0)
(-191.429 0 0)
(-191.727 0 0)
(-192.081 0 0)
(-192.346 0 0)
(-192.705 0 0)
(-193.006 0 0)
(-193.303 0 0)
(-193.663 0 0)
(-193.923 0 0)
(-194.276 0 0)
(-194.587 0 0)
(-194.872 0 0)
(-195.24 0 0)
(-195.502 0 0)
(-195.843 0 0)
(-196.169 0 0)
(-196.442 0 0)
(-196.817 0 0)
(-197.089 0 0)
(-197.408 0 0)
(-197.756 0 0)
(-198.019 0 0)
(-198.385 0 0)
(-198.675 0 0)
(-198.973 0 0)
(-199.342 0 0)
(-199.6 0 0)
(-199.949 0 0)
(-200.269 0 0)
(-200.54 0 0)
(-200.92 0 0)
(-201.186 0 0)
(-201.506 0 0)
(-201.864 0 0)
(-202.115 0 0)
(-202.487 0 0)
(-202.79 0 0)
(-203.066 0 0)
(-203.444 0 0)
(-203.704 0 0)
(-204.035 0 0)
(-204.389 0 0)
(-204.639 0 0)
(-205.008 0 0)
(-205.309 0 0)
(-205.592 0 0)
(-205.975 0 0)
(-206.235 0 0)
(-206.558 0 0)
(-206.916 0 0)
(-207.168 0 0)
(-207.534 0 0)
(-207.846 0 0)
(-208.113 0 0)
(-208.499 0 0)
(-208.768 0 0)
(-209.076 0 0)
(-209.449 0 0)
(-209.692 0 0)
(-210.047 0 0)
(-210.386 0 0)
(-210.636 0 0)
(-211.023 0 0)
(-211.312 0 0)
(-211.59 0 0)
(-211.98 0 0)
(-212.236 0 0)
(-212.561 0 0)
(-212.926 0 0)
(-213.168 0 0)
(-213.535 0 0)
(-213.859 0 0)
(-214.112 0 0)
(-214.498 0 0)
(-214.784 0 0)
(-215.076 0 0)
(-215.463 0 0)
(-215.714 0 0)
(-216.039 0 0)
(-216.403 0 0)
(-216.648 0 0)
(-217.01 0 0)
(-217.342 0 0)
(-217.593 0 0)
(-217.975 0 0)
(-218.273 0 0)
(-218.548 0 0)
(-218.938 0 0)
(-219.207 0 0)
(-219.51 0 0)
(-219.892 0 0)
(-220.141 0 0)
(-220.475 0 0)
(-220.837 0 0)
(-221.08 0 0)
(-221.442 0 0)
(-221.779 0 0)
(-222.024 0 0)
(-222.404 0 0)
(-222.714 0 0)
(-222.976 0 0)
(-223.368 0 0)
(-223.654 0 0)
(-223.933 0 0)
(-224.325 0 0)
(-224.591 0 0)
(-224.891 0 0)
(-225.28 0 0)
(-225.53 0 0)
(-225.852 0 0)
(-226.23 0 0)
(-226.472 0 0)
(-226.814 0 0)
(-227.179 0 0)
(-227.417 0 0)
(-227.776 0 0)
(-228.127 0 0)
(-228.364 0 0)
(-228.736 0 0)
(-229.073 0 0)
(-229.313 0 0)
(-229.696 0 0)
(-230.019 0 0)
(-230.262 0 0)
(-230.654 0 0)
(-230.965 0 0)
(-231.213 0 0)
(-231.614 0 0)
(-231.913 0 0)
(-232.167 0 0)
(-232.572 0 0)
(-232.86 0 0)
(-233.12 0 0)
(-233.529 0 0)
(-233.808 0 0)
(-234.073 0 0)
(-234.485 0 0)
(-234.756 0 0)
(-235.026 0 0)
(-235.442 0 0)
(-235.707 0 0)
(-235.981 0 0)
(-236.398 0 0)
(-236.658 0 0)
(-236.935 0 0)
(-237.353 0 0)
(-237.611 0 0)
(-237.889 0 0)
(-238.308 0 0)
(-238.564 0 0)
(-238.841 0 0)
(-239.262 0 0)
(-239.519 0 0)
(-239.794 0 0)
(-240.217 0 0)
(-240.475 0 0)
(-240.747 0 0)
(-241.171 0 0)
(-241.433 0 0)
(-241.699 0 0)
(-242.125 0 0)
(-242.392 0 0)
(-242.652 0 0)
(-243.078 0 0)
(-243.352 0 0)
(-243.604 0 0)
(-244.03 0 0)
(-244.314 0 0)
(-244.558 0 0)
(-244.981 0 0)
(-245.277 0 0)
(-245.513 0 0)
(-245.931 0 0)
(-246.241 0 0)
(-246.468 0 0)
(-246.879 0 0)
(-247.204 0 0)
(-247.425 0 0)
(-247.825 0 0)
(-248.168 0 0)
(-248.385 0 0)
(-248.771 0 0)
(-249.131 0 0)
(-249.347 0 0)
(-249.717 0 0)
(-250.094 0 0)
(-250.312 0 0)
(-250.663 0 0)
(-251.055 0 0)
(-251.279 0 0)
(-251.608 0 0)
(-252.013 0 0)
(-252.249 0 0)
(-252.554 0 0)
(-252.968 0 0)
(-253.221 0 0)
(-253.503 0 0)
(-253.92 0 0)
(-254.194 0 0)
(-254.454 0 0)
(-254.869 0 0)
(-255.168 0 0)
(-255.409 0 0)
(-255.814 0 0)
(-256.141 0 0)
(-256.369 0 0)
(-256.757 0 0)
(-257.113 0 0)
(-257.335 0 0)
(-257.699 0 0)
(-258.081 0 0)
(-258.307 0 0)
(-258.64 0 0)
(-259.045 0 0)
(-259.284 0 0)
(-259.583 0 0)
(-260.001 0 0)
(-260.265 0 0)
(-260.529 0 0)
(-260.95 0 0)
(-261.248 0 0)
(-261.483 0 0)
(-261.891 0 0)
(-262.229 0 0)
(-262.447 0 0)
(-262.828 0 0)
(-263.207 0 0)
(-263.422 0 0)
(-263.763 0 0)
(-264.175 0 0)
(-264.407 0 0)
(-264.701 0 0)
(-265.13 0 0)
(-265.398 0 0)
(-265.648 0 0)
(-266.074 0 0)
(-266.389 0 0)
(-266.608 0 0)
(-267.007 0 0)
(-267.375 0 0)
(-267.584 0 0)
(-267.937 0 0)
(-268.348 0 0)
(-268.573 0 0)
(-268.871 0 0)
(-269.304 0 0)
(-269.57 0 0)
(-269.817 0 0)
(-270.245 0 0)
(-270.568 0 0)
(-270.781 0 0)
(-271.175 0 0)
(-271.556 0 0)
(-271.764 0 0)
(-272.103 0 0)
(-272.526 0 0)
(-272.762 0 0)
(-273.039 0 0)
(-273.477 0 0)
(-273.765 0 0)
(-273.993 0 0)
(-274.41 0 0)
(-274.763 0 0)
(-274.969 0 0)
(-275.334 0 0)
(-275.745 0 0)
(-275.966 0 0)
(-276.264 0 0)
(-276.703 0 0)
(-276.974 0 0)
(-277.211 0 0)
(-277.638 0 0)
(-277.98 0 0)
(-278.184 0 0)
(-278.56 0 0)
(-278.969 0 0)
(-279.183 0 0)
(-279.486 0 0)
(-279.93 0 0)
(-280.198 0 0)
(-280.431 0 0)
(-280.863 0 0)
(-281.21 0 0)
(-281.408 0 0)
(-281.781 0 0)
(-282.199 0 0)
(-282.415 0 0)
(-282.705 0 0)
(-283.154 0 0)
(-283.437 0 0)
(-283.656 0 0)
(-284.079 0 0)
(-284.45 0 0)
(-284.645 0 0)
(-284.993 0 0)
(-285.431 0 0)
(-285.665 0 0)
(-285.923 0 0)
(-286.374 0 0)
(-286.691 0 0)
(-286.891 0 0)
(-287.289 0 0)
(-287.695 0 0)
(-287.899 0 0)
(-288.206 0 0)
(-288.657 0 0)
(-288.93 0 0)
(-289.154 0 0)
(-289.581 0 0)
(-289.952 0 0)
(-290.148 0 0)
(-290.492 0 0)
(-290.934 0 0)
(-291.177 0 0)
(-291.425 0 0)
(-291.871 0 0)
(-292.207 0 0)
(-292.405 0 0)
(-292.782 0 0)
(-293.204 0 0)
(-293.428 0 0)
(-293.707 0 0)
(-294.153 0 0)
(-294.464 0 0)
(-294.674 0 0)
(-295.068 0 0)
(-295.474 0 0)
(-295.69 0 0)
(-295.987 0 0)
(-296.435 0 0)
(-296.727 0 0)
(-296.946 0 0)
(-297.356 0 0)
(-297.745 0 0)
(-297.957 0 0)
(-298.272 0 0)
(-298.715 0 0)
(-298.997 0 0)
(-299.226 0 0)
(-299.639 0 0)
(-300.022 0 0)
(-300.233 0 0)
(-300.554 0 0)
(-300.996 0 0)
(-301.273 0 0)
(-301.506 0 0)
(-301.922 0 0)
(-302.299 0 0)
(-302.514 0 0)
(-302.837 0 0)
(-303.276 0 0)
(-303.557 0 0)
(-303.789 0 0)
(-304.203 0 0)
(-304.585 0 0)
(-304.8 0 0)
(-305.12 0 0)
(-305.56 0 0)
(-305.847 0 0)
(-306.077 0 0)
(-306.483 0 0)
(-306.876 0 0)
(-307.095 0 0)
(-307.401 0 0)
(-307.845 0 0)
(-308.145 0 0)
(-308.366 0 0)
(-308.763 0 0)
(-309.169 0 0)
(-309.396 0 0)
(-309.683 0 0)
(-310.126 0 0)
(-310.451 0 0)
(-310.662 0 0)
(-311.038 0 0)
(-311.464 0 0)
(-311.706 0 0)
(-311.969 0 0)
(-312.407 0 0)
(-312.76 0 0)
(-312.969 0 0)
(-313.315 0 0)
(-313.757 0 0)
(-314.026 0 0)
(-314.261 0 0)
(-314.684 0 0)
(-315.072 0 0)
(-315.286 0 0)
(-315.595 0 0)
(-316.045 0 0)
(-316.353 0 0)
(-316.566 0 0)
(-316.955 0 0)
(-317.381 0 0)
(-317.617 0 0)
(-317.881 0 0)
(-318.325 0 0)
(-318.681 0 0)
(-318.888 0 0)
(-319.229 0 0)
(-319.679 0 0)
(-319.958 0 0)
(-320.183 0 0)
(-320.597 0 0)
(-321.005 0 0)
(-321.227 0 0)
(-321.512 0 0)
(-321.963 0 0)
(-322.303 0 0)
(-322.509 0 0)
(-322.867 0 0)
(-323.314 0 0)
(-323.581 0 0)
(-323.815 0 0)
(-324.237 0 0)
(-324.637 0 0)
(-324.858 0 0)
(-325.15 0 0)
(-325.602 0 0)
(-325.938 0 0)
(-326.146 0 0)
(-326.508 0 0)
(-326.953 0 0)
(-327.223 0 0)
(-327.458 0 0)
(-327.876 0 0)
(-328.281 0 0)
(-328.507 0 0)
(-328.793 0 0)
(-329.243 0 0)
(-329.589 0 0)
(-329.8 0 0)
(-330.15 0 0)
(-330.597 0 0)
(-330.884 0 0)
(-331.112 0 0)
(-331.517 0 0)
(-331.935 0 0)
(-332.174 0 0)
(-332.446 0 0)
(-332.886 0 0)
(-333.254 0 0)
(-333.472 0 0)
(-333.797 0 0)
(-334.248 0 0)
(-334.561 0 0)
(-334.782 0 0)
(-335.162 0 0)
(-335.596 0 0)
(-335.862 0 0)
(-336.11 0 0)
(-336.531 0 0)
(-336.931 0 0)
(-337.163 0 0)
(-337.454 0 0)
(-337.899 0 0)
(-338.252 0 0)
(-338.473 0 0)
(-338.812 0 0)
(-339.259 0 0)
(-339.566 0 0)
(-339.794 0 0)
(-340.179 0 0)
(-340.61 0 0)
(-340.877 0 0)
(-341.13 0 0)
(-341.549 0 0)
(-341.951 0 0)
(-342.189 0 0)
(-342.478 0 0)
(-342.919 0 0)
(-343.282 0 0)
(-343.508 0 0)
(-343.836 0 0)
(-344.285 0 0)
(-344.608 0 0)
(-344.834 0 0)
(-345.203 0 0)
(-345.644 0 0)
(-345.931 0 0)
(-346.172 0 0)
(-346.574 0 0)
(-346.997 0 0)
(-347.254 0 0)
(-347.519 0 0)
(-347.947 0 0)
(-348.343 0 0)
(-348.581 0 0)
(-348.875 0 0)
(-349.319 0 0)
(-349.685 0 0)
(-349.912 0 0)
(-350.239 0 0)
(-350.688 0 0)
(-351.023 0 0)
(-351.251 0 0)
(-351.608 0 0)
(-352.055 0 0)
(-352.361 0 0)
(-352.596 0 0)
(-352.981 0 0)
(-353.418 0 0)
(-353.699 0 0)
(-353.948 0 0)
(-354.356 0 0)
(-354.778 0 0)
(-355.04 0 0)
(-355.307 0 0)
(-355.733 0 0)
(-356.136 0 0)
(-356.384 0 0)
(-356.671 0 0)
(-357.11 0 0)
(-357.492 0 0)
(-357.732 0 0)
(-358.041 0 0)
(-358.486 0 0)
(-358.849 0 0)
(-359.084 0 0)
(-359.414 0 0)
(-359.862 0 0)
(-360.205 0 0)
(-360.441 0 0)
(-360.79 0 0)
(-361.237 0 0)
(-361.563 0 0)
(-361.803 0 0)
(-362.17 0 0)
(-362.612 0 0)
(-362.923 0 0)
(-363.169 0 0)
(-363.55 0 0)
(-363.987 0 0)
(-364.285 0 0)
(-364.539 0 0)
(-364.934 0 0)
(-365.363 0 0)
(-365.651 0 0)
(-365.913 0 0)
(-366.318 0 0)
(-366.74 0 0)
(-367.019 0 0)
(-367.29 0 0)
(-367.703 0 0)
(-368.118 0 0)
(-368.391 0 0)
(-368.67 0 0)
(-369.09 0 0)
(-369.497 0 0)
(-369.766 0 0)
(-370.053 0 0)
(-370.478 0 0)
(-370.879 0 0)
(-371.144 0 0)
(-371.439 0 0)
(-371.868 0 0)
(-372.263 0 0)
(-372.527 0 0)
(-372.827 0 0)
(-373.259 0 0)
(-373.65 0 0)
(-373.912 0 0)
(-374.218 0 0)
(-374.651 0 0)
(-375.039 0 0)
(-375.301 0 0)
(-375.611 0 0)
(-376.045 0 0)
(-376.431 0 0)
(-376.694 0 0)
(-377.006 0 0)
(-377.441 0 0)
(-377.826 0 0)
(-378.09 0 0)
(-378.404 0 0)
(-378.838 0 0)
(-379.223 0 0)
(-379.49 0 0)
(-379.805 0 0)
(-380.238 0 0)
(-380.624 0 0)
(-380.893 0 0)
(-381.208 0 0)
(-381.64 0 0)
(-382.028 0 0)
(-382.299 0 0)
(-382.613 0 0)
(-383.044 0 0)
(-383.435 0 0)
(-383.709 0 0)
(-384.021 0 0)
(-384.451 0 0)
(-384.845 0 0)
(-385.123 0 0)
(-385.432 0 0)
(-385.859 0 0)
(-386.259 0 0)
(-386.54 0 0)
(-386.845 0 0)
(-387.27 0 0)
(-387.675 0 0)
(-387.961 0 0)
(-388.262 0 0)
(-388.682 0 0)
(-389.094 0 0)
(-389.386 0 0)
(-389.683 0 0)
(-390.097 0 0)
(-390.516 0 0)
(-390.816 0 0)
(-391.107 0 0)
(-391.515 0 0)
(-391.94 0 0)
(-392.249 0 0)
(-392.535 0 0)
(-392.935 0 0)
(-393.366 0 0)
(-393.686 0 0)
(-393.968 0 0)
(-394.358 0 0)
(-394.794 0 0)
(-395.127 0 0)
(-395.406 0 0)
(-395.785 0 0)
(-396.224 0 0)
(-396.571 0 0)
(-396.85 0 0)
(-397.215 0 0)
(-397.656 0 0)
(-398.017 0 0)
(-398.298 0 0)
(-398.65 0 0)
(-399.089 0 0)
(-399.466 0 0)
(-399.751 0 0)
(-400.09 0 0)
(-400.525 0 0)
(-400.917 0 0)
(-401.21 0 0)
(-401.536 0 0)
(-401.964 0 0)
(-402.369 0 0)
(-402.672 0 0)
(-402.988 0 0)
(-403.406 0 0)
(-403.824 0 0)
(-404.139 0 0)
(-404.446 0 0)
(-404.852 0 0)
(-405.279 0 0)
(-405.61 0 0)
(-405.91 0 0)
(-406.303 0 0)
(-406.736 0 0)
(-407.084 0 0)
(-407.381 0 0)
(-407.758 0 0)
(-408.195 0 0)
(-408.56 0 0)
(-408.858 0 0)
(-409.219 0 0)
(-409.655 0 0)
(-410.04 0 0)
(-410.342 0 0)
(-410.686 0 0)
(-411.118 0 0)
(-411.52 0 0)
(-411.832 0 0)
(-412.161 0 0)
(-412.584 0 0)
(-413.002 0 0)
(-413.328 0 0)
(-413.644 0 0)
(-414.053 0 0)
(-414.484 0 0)
(-414.828 0 0)
(-415.136 0 0)
(-415.527 0 0)
(-415.966 0 0)
(-416.332 0 0)
(-416.637 0 0)
(-417.008 0 0)
(-417.449 0 0)
(-417.837 0 0)
(-418.147 0 0)
(-418.497 0 0)
(-418.932 0 0)
(-419.342 0 0)
(-419.664 0 0)
(-419.996 0 0)
(-420.419 0 0)
(-420.847 0 0)
(-421.187 0 0)
(-421.507 0 0)
(-421.91 0 0)
(-422.351 0 0)
(-422.715 0 0)
(-423.028 0 0)
(-423.41 0 0)
(-423.853 0 0)
(-424.243 0 0)
(-424.561 0 0)
(-424.919 0 0)
(-425.357 0 0)
(-425.771 0 0)
(-426.102 0 0)
(-426.44 0 0)
(-426.864 0 0)
(-427.296 0 0)
(-427.648 0 0)
(-427.975 0 0)
(-428.377 0 0)
(-428.82 0 0)
(-429.197 0 0)
(-429.522 0 0)
(-429.901 0 0)
(-430.343 0 0)
(-430.746 0 0)
(-431.079 0 0)
(-431.436 0 0)
(-431.87 0 0)
(-432.294 0 0)
(-432.644 0 0)
(-432.986 0 0)
(-433.401 0 0)
(-433.84 0 0)
(-434.213 0 0)
(-434.549 0 0)
(-434.942 0 0)
(-435.386 0 0)
(-435.783 0 0)
(-436.123 0 0)
(-436.495 0 0)
(-436.933 0 0)
(-437.353 0 0)
(-437.706 0 0)
(-438.062 0 0)
(-438.485 0 0)
(-438.922 0 0)
(-439.295 0 0)
(-439.642 0 0)
(-440.046 0 0)
(-440.49 0 0)
(-440.888 0 0)
(-441.235 0 0)
(-441.618 0 0)
(-442.06 0 0)
(-442.481 0 0)
(-442.839 0 0)
(-443.204 0 0)
(-443.633 0 0)
(-444.073 0 0)
(-444.452 0 0)
(-444.805 0 0)
(-445.215 0 0)
(-445.664 0 0)
(-446.068 0 0)
(-446.422 0 0)
(-446.809 0 0)
(-447.254 0 0)
(-447.684 0 0)
(-448.051 0 0)
(-448.418 0 0)
(-448.849 0 0)
(-449.297 0 0)
(-449.688 0 0)
(-450.046 0 0)
(-450.454 0 0)
(-450.908 0 0)
(-451.327 0 0)
(-451.691 0 0)
(-452.075 0 0)
(-452.52 0 0)
(-452.964 0 0)
(-453.347 0 0)
(-453.715 0 0)
(-454.14 0 0)
(-454.597 0 0)
(-455.007 0 0)
(-455.374 0 0)
(-455.774 0 0)
(-456.229 0 0)
(-456.667 0 0)
(-457.047 0 0)
(-457.428 0 0)
(-457.867 0 0)
(-458.322 0 0)
(-458.728 0 0)
(-459.103 0 0)
(-459.518 0 0)
(-459.976 0 0)
(-460.409 0 0)
(-460.793 0 0)
(-461.188 0 0)
(-461.635 0 0)
(-462.088 0 0)
(-462.493 0 0)
(-462.878 0 0)
(-463.306 0 0)
(-463.767 0 0)
(-464.196 0 0)
(-464.585 0 0)
(-464.994 0 0)
(-465.449 0 0)
(-465.899 0 0)
(-466.304 0 0)
(-466.701 0 0)
(-467.141 0 0)
(-467.603 0 0)
(-468.03 0 0)
(-468.426 0 0)
(-468.848 0 0)
(-469.309 0 0)
(-469.759 0 0)
(-470.166 0 0)
(-470.574 0 0)
(-471.024 0 0)
(-471.488 0 0)
(-471.916 0 0)
(-472.318 0 0)
(-472.751 0 0)
(-473.22 0 0)
(-473.671 0 0)
(-474.081 0 0)
(-474.497 0 0)
(-474.957 0 0)
(-475.426 0 0)
(-475.857 0 0)
(-476.265 0 0)
(-476.706 0 0)
(-477.182 0 0)
(-477.638 0 0)
(-478.053 0 0)
(-478.476 0 0)
(-478.943 0 0)
(-479.419 0 0)
(-479.856 0 0)
(-480.27 0 0)
(-480.717 0 0)
(-481.199 0 0)
(-481.663 0 0)
(-482.086 0 0)
(-482.513 0 0)
(-482.985 0 0)
(-483.469 0 0)
(-483.915 0 0)
(-484.336 0 0)
(-484.787 0 0)
(-485.274 0 0)
(-485.748 0 0)
(-486.181 0 0)
(-486.614 0 0)
(-487.088 0 0)
(-487.579 0 0)
(-488.037 0 0)
(-488.468 0 0)
(-488.922 0 0)
(-489.412 0 0)
(-489.896 0 0)
(-490.342 0 0)
(-490.782 0 0)
(-491.258 0 0)
(-491.755 0 0)
(-492.225 0 0)
(-492.667 0 0)
(-493.126 0 0)
(-493.62 0 0)
(-494.112 0 0)
(-494.57 0 0)
(-495.02 0 0)
(-495.5 0 0)
(-496.002 0 0)
(-496.484 0 0)
(-496.937 0 0)
(-497.402 0 0)
(-497.901 0 0)
(-498.402 0 0)
(-498.873 0 0)
(-499.331 0 0)
(-499.816 0 0)
(-500.325 0 0)
(-500.819 0 0)
(-501.284 0 0)
(-501.755 0 0)
(-502.259 0 0)
(-502.771 0 0)
(-503.255 0 0)
(-503.722 0 0)
(-504.211 0 0)
(-504.729 0 0)
(-505.237 0 0)
(-505.714 0 0)
(-506.19 0 0)
(-506.698 0 0)
(-507.223 0 0)
(-507.723 0 0)
(-508.199 0 0)
(-508.691 0 0)
(-509.215 0 0)
(-509.739 0 0)
(-510.232 0 0)
(-510.713 0 0)
(-511.222 0 0)
(-511.757 0 0)
(-512.275 0 0)
(-512.764 0 0)
(-513.256 0 0)
(-513.782 0 0)
(-514.319 0 0)
(-514.829 0 0)
(-515.317 0 0)
(-515.822 0 0)
(-516.356 0 0)
(-516.889 0 0)
(-517.396 0 0)
(-517.893 0 0)
(-518.398 0 0)
(-518.954 0 0)
(-519.498 0 0)
(-519.98 0 0)
(-520.44 0 0)
(-520.815 0 0)
(-521.2 0 0)
(-521.613 0 0)
(-522.069 0 0)
(-522.63 0 0)
(-523.257 0 0)
(-523.901 0 0)
(-524.501 0 0)
(-525.072 0 0)
(-525.653 0 0)
(-526.237 0 0)
(-526.805 0 0)
(-527.371 0 0)
(-527.931 0 0)
(-528.49 0 0)
(-529.052 0 0)
(-529.604 0 0)
(-530.151 0 0)
(-530.698 0 0)
(-531.254 0 0)
(-531.818 0 0)
(-532.376 0 0)
(-532.925 0 0)
(-533.478 0 0)
(-534.043 0 0)
(-534.609 0 0)
(-535.164 0 0)
(-535.714 0 0)
(-536.274 0 0)
(-536.848 0 0)
(-537.423 0 0)
(-537.987 0 0)
(-538.549 0 0)
(-539.123 0 0)
(-539.704 0 0)
(-540.279 0 0)
(-540.842 0 0)
(-541.413 0 0)
(-542.001 0 0)
(-542.593 0 0)
(-543.175 0 0)
(-543.748 0 0)
(-544.332 0 0)
(-544.931 0 0)
(-545.526 0 0)
(-546.108 0 0)
(-546.688 0 0)
(-547.285 0 0)
(-547.895 0 0)
(-548.498 0 0)
(-549.089 0 0)
(-549.682 0 0)
(-550.291 0 0)
(-550.906 0 0)
(-551.51 0 0)
(-552.104 0 0)
(-552.709 0 0)
(-553.331 0 0)
(-553.956 0 0)
(-554.568 0 0)
(-555.175 0 0)
(-555.792 0 0)
(-556.423 0 0)
(-557.051 0 0)
(-557.667 0 0)
(-558.282 0 0)
(-558.912 0 0)
(-559.554 0 0)
(-560.191 0 0)
(-560.818 0 0)
(-561.446 0 0)
(-562.087 0 0)
(-562.735 0 0)
(-563.376 0 0)
(-564.009 0 0)
(-564.649 0 0)
(-565.303 0 0)
(-565.962 0 0)
(-566.613 0 0)
(-567.259 0 0)
(-567.912 0 0)
(-568.575 0 0)
(-569.24 0 0)
(-569.897 0 0)
(-570.551 0 0)
(-571.216 0 0)
(-571.893 0 0)
(-572.568 0 0)
(-573.236 0 0)
(-573.903 0 0)
(-574.581 0 0)
(-575.267 0 0)
(-575.949 0 0)
(-576.624 0 0)
(-577.303 0 0)
(-577.994 0 0)
(-578.692 0 0)
(-579.385 0 0)
(-580.072 0 0)
(-580.765 0 0)
(-581.469 0 0)
(-582.175 0 0)
(-582.876 0 0)
(-583.573 0 0)
(-584.278 0 0)
(-584.994 0 0)
(-585.713 0 0)
(-586.426 0 0)
(-587.136 0 0)
(-587.855 0 0)
(-588.584 0 0)
(-589.314 0 0)
(-590.036 0 0)
(-590.757 0 0)
(-591.488 0 0)
(-592.232 0 0)
(-592.974 0 0)
(-593.708 0 0)
(-594.442 0 0)
(-595.189 0 0)
(-595.945 0 0)
(-596.698 0 0)
(-597.442 0 0)
(-598.188 0 0)
(-598.949 0 0)
(-599.72 0 0)
(-600.486 0 0)
(-601.243 0 0)
(-602.004 0 0)
(-602.78 0 0)
(-603.563 0 0)
(-604.341 0 0)
(-605.11 0 0)
(-605.885 0 0)
(-606.676 0 0)
(-607.473 0 0)
(-608.264 0 0)
(-609.049 0 0)
(-609.84 0 0)
(-610.645 0 0)
(-611.455 0 0)
(-612.257 0 0)
(-613.056 0 0)
(-613.863 0 0)
(-614.684 0 0)
(-615.507 0 0)
(-616.324 0 0)
(-617.14 0 0)
(-617.964 0 0)
(-618.799 0 0)
(-619.635 0 0)
(-620.466 0 0)
(-621.296 0 0)
(-622.137 0 0)
(-622.988 0 0)
(-623.839 0 0)
(-624.685 0 0)
(-625.533 0 0)
(-626.391 0 0)
(-627.257 0 0)
(-628.122 0 0)
(-628.983 0 0)
(-629.847 0 0)
(-630.722 0 0)
(-631.605 0 0)
(-632.486 0 0)
(-633.364 0 0)
(-634.245 0 0)
(-635.137 0 0)
(-636.036 0 0)
(-636.934 0 0)
(-637.828 0 0)
(-638.725 0 0)
(-639.634 0 0)
(-640.551 0 0)
(-641.467 0 0)
(-642.378 0 0)
(-643.293 0 0)
(-644.219 0 0)
(-645.154 0 0)
(-646.086 0 0)
(-647.015 0 0)
(-647.946 0 0)
(-648.891 0 0)
(-649.844 0 0)
(-650.795 0 0)
(-651.741 0 0)
(-652.692 0 0)
(-653.655 0 0)
(-654.626 0 0)
(-655.595 0 0)
(-656.559 0 0)
(-657.528 0 0)
(-658.51 0 0)
(-659.5 0 0)
(-660.488 0 0)
(-661.472 0 0)
(-662.461 0 0)
(-663.462 0 0)
(-664.47 0 0)
(-665.476 0 0)
(-666.479 0 0)
(-667.488 0 0)
(-668.508 0 0)
(-669.536 0 0)
(-670.561 0 0)
(-671.585 0 0)
(-672.614 0 0)
(-673.654 0 0)
(-674.7 0 0)
(-675.745 0 0)
(-676.789 0 0)
(-677.838 0 0)
(-678.898 0 0)
(-679.964 0 0)
(-681.03 0 0)
(-682.095 0 0)
(-683.165 0 0)
(-684.244 0 0)
(-685.331 0 0)
(-686.418 0 0)
(-687.503 0 0)
(-688.593 0 0)
(-689.693 0 0)
(-690.801 0 0)
(-691.909 0 0)
(-693.015 0 0)
(-694.126 0 0)
(-695.247 0 0)
(-696.377 0 0)
(-697.506 0 0)
(-698.632 0 0)
(-699.764 0 0)
(-700.907 0 0)
(-702.058 0 0)
(-703.208 0 0)
(-704.356 0 0)
(-705.509 0 0)
(-706.673 0 0)
(-707.845 0 0)
(-709.018 0 0)
(-710.187 0 0)
(-711.361 0 0)
(-712.546 0 0)
(-713.74 0 0)
(-714.934 0 0)
(-716.126 0 0)
(-717.322 0 0)
(-718.528 0 0)
(-719.743 0 0)
(-720.959 0 0)
(-722.174 0 0)
(-723.391 0 0)
(-724.618 0 0)
(-725.854 0 0)
(-727.093 0 0)
(-728.33 0 0)
(-729.569 0 0)
(-730.817 0 0)
(-732.074 0 0)
(-733.335 0 0)
(-734.595 0 0)
(-735.855 0 0)
(-737.124 0 0)
(-738.402 0 0)
(-739.685 0 0)
(-740.967 0 0)
(-742.249 0 0)
(-743.539 0 0)
(-744.838 0 0)
(-746.142 0 0)
(-747.446 0 0)
(-748.75 0 0)
(-750.06 0 0)
(-751.38 0 0)
(-752.705 0 0)
(-754.029 0 0)
(-755.355 0 0)
(-756.686 0 0)
(-758.028 0 0)
(-759.373 0 0)
(-760.718 0 0)
(-762.064 0 0)
(-763.416 0 0)
(-764.777 0 0)
(-766.143 0 0)
(-767.508 0 0)
(-768.874 0 0)
(-770.246 0 0)
(-771.627 0 0)
(-773.013 0 0)
(-774.399 0 0)
(-775.785 0 0)
(-777.175 0 0)
(-778.573 0 0)
(-779.979 0 0)
(-781.386 0 0)
(-782.79 0 0)
(-784.198 0 0)
(-785.614 0 0)
(-787.039 0 0)
(-788.464 0 0)
(-789.887 0 0)
(-791.312 0 0)
(-792.745 0 0)
(-794.186 0 0)
(-795.63 0 0)
(-797.071 0 0)
(-798.513 0 0)
(-799.961 0 0)
(-801.417 0 0)
(-802.878 0 0)
(-804.337 0 0)
(-805.795 0 0)
(-807.257 0 0)
(-808.728 0 0)
(-810.204 0 0)
(-811.679 0 0)
(-813.152 0 0)
(-814.629 0 0)
(-816.112 0 0)
(-817.601 0 0)
(-819.089 0 0)
(-820.577 0 0)
(-822.067 0 0)
(-823.562 0 0)
(-825.062 0 0)
(-826.563 0 0)
(-828.063 0 0)
(-829.564 0 0)
(-831.07 0 0)
(-832.581 0 0)
(-834.093 0 0)
(-835.603 0 0)
(-837.113 0 0)
(-838.629 0 0)
(-840.149 0 0)
(-841.669 0 0)
(-843.188 0 0)
(-844.706 0 0)
(-846.229 0 0)
(-847.756 0 0)
(-849.284 0 0)
(-850.809 0 0)
(-852.333 0 0)
(-853.86 0 0)
(-855.392 0 0)
(-856.926 0 0)
(-858.456 0 0)
(-859.984 0 0)
(-861.513 0 0)
(-863.048 0 0)
(-864.585 0 0)
(-866.119 0 0)
(-867.649 0 0)
(-869.179 0 0)
(-870.712 0 0)
(-872.25 0 0)
(-873.786 0 0)
(-875.317 0 0)
(-876.845 0 0)
(-878.375 0 0)
(-879.91 0 0)
(-881.444 0 0)
(-882.975 0 0)
(-884.5 0 0)
(-886.025 0 0)
(-887.553 0 0)
(-889.084 0 0)
(-890.61 0 0)
(-892.131 0 0)
(-893.649 0 0)
(-895.169 0 0)
(-896.691 0 0)
(-898.21 0 0)
(-899.723 0 0)
(-901.234 0 0)
(-902.744 0 0)
(-904.254 0 0)
(-905.762 0 0)
(-907.266 0 0)
(-908.765 0 0)
(-910.263 0 0)
(-911.76 0 0)
(-913.255 0 0)
(-914.744 0 0)
(-916.23 0 0)
(-917.713 0 0)
(-919.195 0 0)
(-920.674 0 0)
(-922.147 0 0)
(-923.615 0 0)
(-925.08 0 0)
(-926.545 0 0)
(-928.006 0 0)
(-929.461 0 0)
(-930.909 0 0)
(-932.353 0 0)
(-933.796 0 0)
(-935.236 0 0)
(-936.671 0 0)
(-938.098 0 0)
(-939.518 0 0)
(-940.936 0 0)
(-942.352 0 0)
(-943.764 0 0)
(-945.167 0 0)
(-946.562 0 0)
(-947.953 0 0)
(-949.342 0 0)
(-950.727 0 0)
(-952.105 0 0)
(-953.473 0 0)
(-954.834 0 0)
(-956.193 0 0)
(-957.548 0 0)
(-958.898 0 0)
(-960.238 0 0)
(-961.568 0 0)
(-962.894 0 0)
(-964.216 0 0)
(-965.534 0 0)
(-966.843 0 0)
(-968.142 0 0)
(-969.434 0 0)
(-970.722 0 0)
(-972.004 0 0)
(-973.279 0 0)
(-974.545 0 0)
(-975.802 0 0)
(-977.053 0 0)
(-978.299 0 0)
(-979.538 0 0)
(-980.767 0 0)
(-981.988 0 0)
(-983.202 0 0)
(-984.409 0 0)
(-985.609 0 0)
(-986.801 0 0)
(-987.983 0 0)
(-989.158 0 0)
(-990.326 0 0)
(-991.487 0 0)
(-992.638 0 0)
(-993.78 0 0)
(-994.914 0 0)
(-996.042 0 0)
(-997.163 0 0)
(-998.274 0 0)
(-999.374 0 0)
(-1000.47 0 0)
(-1001.55 0 0)
(-1002.63 0 0)
(-1003.7 0 0)
(-1004.76 0 0)
(-1005.81 0 0)
(-1006.85 0 0)
(-1007.89 0 0)
(-1008.91 0 0)
(-1009.93 0 0)
(-1010.94 0 0)
(-1011.94 0 0)
(-1012.93 0 0)
(-1013.91 0 0)
(-1014.89 0 0)
(-1015.85 0 0)
(-1016.81 0 0)
(-1017.75 0 0)
(-1018.69 0 0)
(-1019.63 0 0)
(-1020.55 0 0)
(-1021.46 0 0)
(-1022.36 0 0)
(-1023.26 0 0)