/*--------------------------------*- C++ -*----------------------------------*\
  =========                 |
  \\      /  F ield         | OpenFOAM: The Open Source CFD Toolbox
   \\    /   O peration     | Website:  https://openfoam.org
    \\  /    A nd           | Version:  9
     \\/     M anipulation  |
\*---------------------------------------------------------------------------*/
FoamFile
{
    format      ascii;
    class       volScalarField;
    location    "0.043";
    object      rho;
}
// * * * * * * * * * * * * * * * * * * * * * * * * * * * * * * * * * * * * * //

dimensions      [1 -3 0 0 0 0 0];

internalField   nonuniform List<scalar> 
10000
(
0.193917
0.193914
0.19391
0.193907
0.193903
0.1939
0.193896
0.193892
0.193889
0.193885
0.193882
0.193878
0.193875
0.193871
0.193867
0.193864
0.19386
0.193857
0.193853
0.19385
0.193846
0.193842
0.193839
0.193835
0.193832
0.193828
0.193825
0.193821
0.193818
0.193814
0.19381
0.193807
0.193803
0.1938
0.193796
0.193793
0.193789
0.193785
0.193782
0.193778
0.193775
0.193771
0.193768
0.193764
0.193761
0.193757
0.193753
0.19375
0.193746
0.193743
0.193739
0.193736
0.193732
0.193729
0.193725
0.193722
0.193718
0.193714
0.193711
0.193707
0.193704
0.1937
0.193697
0.193693
0.19369
0.193686
0.193683
0.193679
0.193676
0.193672
0.193669
0.193665
0.193661
0.193658
0.193654
0.193651
0.193647
0.193644
0.19364
0.193637
0.193633
0.19363
0.193626
0.193623
0.193619
0.193616
0.193612
0.193609
0.193605
0.193602
0.193598
0.193595
0.193591
0.193588
0.193584
0.193581
0.193577
0.193574
0.19357
0.193567
0.193563
0.193559
0.193556
0.193553
0.193549
0.193546
0.193542
0.193539
0.193535
0.193532
0.193528
0.193525
0.193521
0.193518
0.193514
0.193511
0.193507
0.193504
0.1935
0.193497
0.193493
0.19349
0.193486
0.193483
0.193479
0.193476
0.193473
0.193469
0.193466
0.193462
0.193459
0.193455
0.193452
0.193448
0.193445
0.193441
0.193438
0.193434
0.193431
0.193428
0.193424
0.193421
0.193418
0.193414
0.193411
0.193407
0.193403
0.1934
0.193396
0.193393
0.19339
0.193386
0.193383
0.19338
0.193377
0.193373
0.19337
0.193366
0.193363
0.193359
0.193356
0.193352
0.193349
0.193345
0.193342
0.193338
0.193335
0.193332
0.193329
0.193326
0.193322
0.193319
0.193316
0.193313
0.193309
0.193306
0.193302
0.193299
0.193295
0.193291
0.193288
0.193284
0.193281
0.193277
0.193274
0.193271
0.193268
0.193265
0.193262
0.193259
0.193256
0.193253
0.19325
0.193247
0.193244
0.193241
0.193237
0.193234
0.19323
0.193227
0.193223
0.19322
0.193216
0.193212
0.193208
0.193205
0.193201
0.193197
0.193194
0.19319
0.193187
0.193184
0.193181
0.193178
0.193175
0.193173
0.19317
0.193168
0.193166
0.193164
0.193162
0.19316
0.193158
0.193156
0.193155
0.193153
0.193152
0.19315
0.193149
0.193147
0.193146
0.193145
0.193143
0.193142
0.19314
0.193139
0.193138
0.193137
0.193136
0.193135
0.193134
0.193133
0.193132
0.193131
0.19313
0.193129
0.193128
0.193127
0.193126
0.193125
0.193124
0.193122
0.193121
0.19312
0.193119
0.193118
0.193117
0.193116
0.193115
0.193114
0.193113
0.193112
0.193111
0.19311
0.193109
0.193108
0.193107
0.193106
0.193105
0.193104
0.193103
0.193102
0.193101
0.1931
0.193099
0.193098
0.193097
0.193096
0.193095
0.193094
0.193092
0.193091
0.19309
0.193089
0.193088
0.193087
0.193086
0.193085
0.193084
0.193083
0.193082
0.193081
0.19308
0.193079
0.193078
0.193077
0.193076
0.193075
0.193074
0.193073
0.193072
0.193071
0.19307
0.193069
0.193068
0.193067
0.193066
0.193065
0.193064
0.193062
0.193061
0.19306
0.193059
0.193058
0.193057
0.193056
0.193055
0.193054
0.193053
0.193052
0.193051
0.19305
0.193049
0.193048
0.193047
0.193046
0.193045
0.193044
0.193043
0.193042
0.193041
0.19304
0.193039
0.193038
0.193037
0.193036
0.193035
0.193034
0.193033
0.193031
0.19303
0.193029
0.193028
0.193027
0.193026
0.193025
0.193024
0.193023
0.193022
0.193021
0.19302
0.193019
0.193018
0.193017
0.193016
0.193015
0.193014
0.193013
0.193012
0.193011
0.19301
0.193009
0.193008
0.193007
0.193006
0.193005
0.193004
0.193003
0.193002
0.193001
0.192999
0.192998
0.192997
0.192996
0.192995
0.192994
0.192993
0.192992
0.192991
0.19299
0.192989
0.192988
0.192987
0.192986
0.192985
0.192984
0.192983
0.192982
0.192981
0.19298
0.192979
0.192978
0.192977
0.192976
0.192975
0.192974
0.192973
0.192972
0.192971
0.19297
0.192969
0.192968
0.192966
0.192965
0.192964
0.192963
0.192962
0.192961
0.19296
0.192959
0.192958
0.192957
0.192956
0.192955
0.192954
0.192953
0.192952
0.192951
0.19295
0.192949
0.192948
0.192947
0.192946
0.192945
0.192944
0.192943
0.192942
0.192941
0.19294
0.192939
0.192938
0.192937
0.192936
0.192935
0.192934
0.192933
0.192931
0.19293
0.192929
0.192928
0.192927
0.192926
0.192925
0.192924
0.192923
0.192922
0.192921
0.19292
0.192919
0.192918
0.192917
0.192916
0.192915
0.192914
0.192913
0.192912
0.192911
0.19291
0.192909
0.192908
0.192907
0.192906
0.192905
0.192904
0.192903
0.192902
0.192901
0.1929
0.192899
0.192898
0.192897
0.192896
0.192894
0.192893
0.192892
0.192891
0.19289
0.192889
0.192888
0.192887
0.192886
0.192885
0.192884
0.192883
0.192882
0.192881
0.19288
0.192879
0.192878
0.192877
0.192876
0.192875
0.192874
0.192873
0.192872
0.192871
0.19287
0.192869
0.192868
0.192867
0.192866
0.192865
0.192864
0.192863
0.192862
0.192861
0.19286
0.192859
0.192858
0.192857
0.192855
0.192855
0.192853
0.192853
0.192851
0.19285
0.192849
0.192848
0.192847
0.192846
0.192845
0.192844
0.192843
0.192842
0.192841
0.19284
0.192839
0.192838
0.192837
0.192836
0.192835
0.192834
0.192833
0.192832
0.192831
0.19283
0.192829
0.192828
0.192827
0.192826
0.192825
0.192824
0.192823
0.192822
0.192821
0.19282
0.192819
0.192818
0.192817
0.192816
0.192815
0.192814
0.192813
0.192812
0.192811
0.19281
0.192808
0.192808
0.192806
0.192805
0.192804
0.192803
0.192802
0.192801
0.1928
0.192799
0.192798
0.192797
0.192796
0.192795
0.192794
0.192793
0.192792
0.192791
0.19279
0.192789
0.192788
0.192787
0.192786
0.192785
0.192784
0.192783
0.192782
0.192781
0.19278
0.192779
0.192778
0.192777
0.192776
0.192775
0.192774
0.192773
0.192772
0.192771
0.19277
0.192769
0.192768
0.192767
0.192766
0.192765
0.192764
0.192763
0.192762
0.192761
0.19276
0.192759
0.192758
0.192757
0.192756
0.192755
0.192754
0.192753
0.192751
0.192751
0.19275
0.192748
0.192748
0.192746
0.192745
0.192745
0.192743
0.192742
0.192741
0.19274
0.192739
0.192738
0.192737
0.192736
0.192735
0.192734
0.192733
0.192732
0.192731
0.19273
0.192729
0.192728
0.192727
0.192726
0.192725
0.192724
0.192723
0.192722
0.192721
0.19272
0.192719
0.192718
0.192717
0.192716
0.192715
0.192714
0.192713
0.192712
0.192711
0.19271
0.192709
0.192708
0.192707
0.192706
0.192705
0.192704
0.192703
0.192702
0.192701
0.1927
0.192699
0.192698
0.192697
0.192696
0.192695
0.192694
0.192693
0.192692
0.192691
0.19269
0.192689
0.192688
0.192687
0.192686
0.192685
0.192684
0.192683
0.192682
0.192681
0.19268
0.192679
0.192678
0.192677
0.192676
0.192675
0.192674
0.192673
0.192672
0.192671
0.19267
0.192669
0.192668
0.192667
0.192666
0.192665
0.192664
0.192663
0.192662
0.192661
0.19266
0.192659
0.192658
0.192657
0.192656
0.192655
0.192654
0.192653
0.192652
0.192651
0.19265
0.192649
0.192648
0.192647
0.192646
0.192645
0.192644
0.192643
0.192642
0.192641
0.19264
0.192639
0.192638
0.192637
0.192636
0.192635
0.192634
0.192633
0.192632
0.192631
0.19263
0.192629
0.192628
0.192627
0.192626
0.192625
0.192624
0.192623
0.192622
0.192621
0.19262
0.192619
0.192618
0.192617
0.192616
0.192615
0.192614
0.192613
0.192612
0.192611
0.19261
0.192609
0.192608
0.192607
0.192606
0.192605
0.192604
0.192603
0.192602
0.192601
0.1926
0.192599
0.192598
0.192597
0.192596
0.192595
0.192594
0.192593
0.192592
0.192591
0.19259
0.192589
0.192588
0.192587
0.192586
0.192585
0.192584
0.192583
0.192582
0.192581
0.19258
0.192579
0.192578
0.192577
0.192576
0.192575
0.192574
0.192573
0.192572
0.192571
0.19257
0.192569
0.192568
0.192567
0.192566
0.192565
0.192564
0.192563
0.192562
0.192561
0.19256
0.192559
0.192559
0.192557
0.192556
0.192556
0.192555
0.192553
0.192553
0.192552
0.192551
0.19255
0.192549
0.192548
0.192547
0.192546
0.192545
0.192544
0.192543
0.192542
0.192541
0.19254
0.192539
0.192538
0.192537
0.192536
0.192535
0.192534
0.192533
0.192532
0.192531
0.19253
0.192529
0.192528
0.192527
0.192526
0.192525
0.192524
0.192523
0.192522
0.192521
0.19252
0.192519
0.192518
0.192517
0.192516
0.192515
0.192514
0.192514
0.192513
0.192511
0.192511
0.19251
0.192509
0.192508
0.192507
0.192506
0.192505
0.192504
0.192503
0.192502
0.192501
0.1925
0.192499
0.192498
0.192497
0.192496
0.192495
0.192494
0.192493
0.192492
0.192491
0.19249
0.192489
0.192488
0.192487
0.192486
0.192485
0.192485
0.192484
0.192483
0.192482
0.192481
0.19248
0.192479
0.192478
0.192477
0.192476
0.192475
0.192474
0.192473
0.192472
0.192471
0.19247
0.192469
0.192468
0.192467
0.192466
0.192465
0.192464
0.192463
0.192462
0.192462
0.192461
0.19246
0.192459
0.192458
0.192457
0.192456
0.192455
0.192454
0.192453
0.192452
0.192451
0.19245
0.192449
0.192448
0.192447
0.192446
0.192445
0.192444
0.192443
0.192442
0.192442
0.192441
0.19244
0.192439
0.192438
0.192437
0.192436
0.192435
0.192434
0.192433
0.192432
0.192431
0.19243
0.192429
0.192428
0.192427
0.192426
0.192425
0.192425
0.192424
0.192423
0.192422
0.192421
0.19242
0.192419
0.192418
0.192417
0.192416
0.192415
0.192414
0.192413
0.192412
0.192412
0.192411
0.19241
0.192409
0.192408
0.192407
0.192406
0.192405
0.192404
0.192403
0.192402
0.192401
0.1924
0.192399
0.192398
0.192398
0.192397
0.192396
0.192395
0.192394
0.192393
0.192392
0.192391
0.19239
0.192389
0.192388
0.192387
0.192386
0.192385
0.192385
0.192384
0.192383
0.192382
0.192381
0.19238
0.192379
0.192378
0.192377
0.192376
0.192375
0.192375
0.192374
0.192373
0.192372
0.192371
0.19237
0.192369
0.192368
0.192367
0.192366
0.192365
0.192364
0.192364
0.192363
0.192362
0.192361
0.19236
0.192359
0.192358
0.192357
0.192356
0.192355
0.192354
0.192354
0.192353
0.192352
0.192351
0.19235
0.192349
0.192348
0.192347
0.192346
0.192345
0.192345
0.192344
0.192343
0.192342
0.192341
0.19234
0.192339
0.192338
0.192337
0.192337
0.192336
0.192335
0.192334
0.192333
0.192332
0.192331
0.19233
0.192329
0.192328
0.192328
0.192327
0.192326
0.192325
0.192324
0.192323
0.192322
0.192321
0.192321
0.19232
0.192319
0.192318
0.192317
0.192316
0.192315
0.192314
0.192314
0.192313
0.192312
0.192311
0.19231
0.192309
0.192308
0.192307
0.192307
0.192306
0.192305
0.192304
0.192303
0.192302
0.192301
0.1923
0.1923
0.192299
0.192298
0.192297
0.192296
0.192295
0.192294
0.192294
0.192293
0.192292
0.192291
0.19229
0.192289
0.192288
0.192288
0.192287
0.192286
0.192285
0.192284
0.192283
0.192282
0.192282
0.192281
0.19228
0.192279
0.192278
0.192277
0.192277
0.192276
0.192275
0.192274
0.192273
0.192272
0.192271
0.192271
0.19227
0.192269
0.192268
0.192267
0.192266
0.192266
0.192265
0.192264
0.192263
0.192262
0.192261
0.192261
0.19226
0.192259
0.192258
0.192257
0.192256
0.192256
0.192255
0.192254
0.192253
0.192252
0.192251
0.192251
0.19225
0.192249
0.192248
0.192247
0.192247
0.192246
0.192245
0.192244
0.192243
0.192243
0.192242
0.192241
0.19224
0.192239
0.192238
0.192238
0.192237
0.192236
0.192235
0.192234
0.192234
0.192233
0.192232
0.192231
0.192231
0.19223
0.192229
0.192228
0.192227
0.192227
0.192226
0.192225
0.192224
0.192223
0.192223
0.192222
0.192221
0.19222
0.192219
0.192219
0.192218
0.192217
0.192216
0.192216
0.192215
0.192214
0.192213
0.192212
0.192212
0.192211
0.19221
0.192209
0.192209
0.192208
0.192207
0.192206
0.192206
0.192205
0.192204
0.192203
0.192203
0.192202
0.192201
0.1922
0.1922
0.192199
0.192198
0.192197
0.192197
0.192196
0.192195
0.192194
0.192194
0.192193
0.192192
0.192191
0.192191
0.19219
0.192189
0.192188
0.192188
0.192187
0.192186
0.192185
0.192185
0.192184
0.192183
0.192183
0.192182
0.192181
0.19218
0.19218
0.192179
0.192178
0.192178
0.192177
0.192176
0.192175
0.192175
0.192174
0.192173
0.192173
0.192172
0.192171
0.19217
0.19217
0.192169
0.192168
0.192168
0.192167
0.192166
0.192166
0.192165
0.192164
0.192164
0.192163
0.192162
0.192161
0.192161
0.19216
0.192159
0.192159
0.192158
0.192157
0.192157
0.192156
0.192155
0.192155
0.192154
0.192153
0.192153
0.192152
0.192151
0.192151
0.19215
0.192149
0.192149
0.192148
0.192147
0.192147
0.192146
0.192146
0.192145
0.192144
0.192144
0.192143
0.192142
0.192142
0.192141
0.192141
0.19214
0.192139
0.192139
0.192138
0.192137
0.192137
0.192136
0.192136
0.192135
0.192134
0.192134
0.192133
0.192133
0.192132
0.192131
0.192131
0.19213
0.19213
0.192129
0.192128
0.192128
0.192127
0.192127
0.192126
0.192125
0.192125
0.192124
0.192124
0.192123
0.192123
0.192122
0.192121
0.192121
0.19212
0.19212
0.192119
0.192119
0.192118
0.192117
0.192117
0.192116
0.192116
0.192115
0.192115
0.192114
0.192114
0.192113
0.192113
0.192112
0.192112
0.192111
0.19211
0.19211
0.192109
0.192109
0.192108
0.192108
0.192107
0.192107
0.192106
0.192106
0.192105
0.192105
0.192104
0.192104
0.192103
0.192103
0.192102
0.192102
0.192101
0.192101
0.1921
0.1921
0.1921
0.192099
0.192099
0.192098
0.192098
0.192097
0.192097
0.192096
0.192096
0.192095
0.192095
0.192095
0.192094
0.192094
0.192093
0.192093
0.192092
0.192092
0.192092
0.192091
0.192091
0.19209
0.19209
0.192089
0.192089
0.192089
0.192088
0.192088
0.192087
0.192087
0.192087
0.192086
0.192086
0.192086
0.192085
0.192085
0.192084
0.192084
0.192084
0.192083
0.192083
0.192083
0.192082
0.192082
0.192082
0.192081
0.192081
0.192081
0.19208
0.19208
0.19208
0.192079
0.192079
0.192079
0.192078
0.192078
0.192078
0.192077
0.192077
0.192077
0.192077
0.192076
0.192076
0.192076
0.192075
0.192075
0.192075
0.192075
0.192074
0.192074
0.192074
0.192074
0.192073
0.192073
0.192073
0.192073
0.192072
0.192072
0.192072
0.192072
0.192071
0.192071
0.192071
0.192071
0.192071
0.19207
0.19207
0.19207
0.19207
0.19207
0.19207
0.192069
0.192069
0.192069
0.192069
0.192069
0.192069
0.192068
0.192068
0.192068
0.192068
0.192068
0.192068
0.192068
0.192068
0.192067
0.192067
0.192067
0.192067
0.192067
0.192067
0.192067
0.192067
0.192067
0.192067
0.192067
0.192066
0.192066
0.192066
0.192066
0.192066
0.192066
0.192066
0.192066
0.192066
0.192066
0.192066
0.192066
0.192066
0.192066
0.192066
0.192066
0.192066
0.192066
0.192066
0.192066
0.192066
0.192066
0.192066
0.192066
0.192066
0.192067
0.192067
0.192067
0.192067
0.192067
0.192067
0.192067
0.192067
0.192067
0.192067
0.192067
0.192068
0.192068
0.192068
0.192068
0.192068
0.192068
0.192069
0.192069
0.192069
0.192069
0.192069
0.192069
0.19207
0.19207
0.19207
0.19207
0.19207
0.192071
0.192071
0.192071
0.192071
0.192072
0.192072
0.192072
0.192073
0.192073
0.192073
0.192073
0.192074
0.192074
0.192074
0.192075
0.192075
0.192075
0.192076
0.192076
0.192076
0.192077
0.192077
0.192078
0.192078
0.192078
0.192079
0.192079
0.19208
0.19208
0.19208
0.192081
0.192081
0.192082
0.192082
0.192083
0.192083
0.192084
0.192084
0.192085
0.192085
0.192086
0.192086
0.192087
0.192087
0.192088
0.192089
0.192089
0.19209
0.19209
0.192091
0.192091
0.192092
0.192093
0.192093
0.192094
0.192095
0.192095
0.192096
0.192097
0.192097
0.192098
0.192099
0.192099
0.1921
0.192101
0.192102
0.192102
0.192103
0.192104
0.192105
0.192106
0.192106
0.192107
0.192108
0.192109
0.19211
0.192111
0.192111
0.192112
0.192113
0.192114
0.192115
0.192116
0.192117
0.192118
0.192119
0.19212
0.192121
0.192122
0.192123
0.192124
0.192125
0.192126
0.192127
0.192128
0.192129
0.19213
0.192131
0.192132
0.192133
0.192134
0.192135
0.192136
0.192138
0.192139
0.19214
0.192141
0.192142
0.192144
0.192145
0.192146
0.192147
0.192149
0.19215
0.192151
0.192152
0.192154
0.192155
0.192156
0.192158
0.192159
0.19216
0.192162
0.192163
0.192165
0.192166
0.192168
0.192169
0.19217
0.192172
0.192173
0.192175
0.192176
0.192178
0.19218
0.192181
0.192183
0.192184
0.192186
0.192188
0.192189
0.192191
0.192193
0.192194
0.192196
0.192198
0.192199
0.192201
0.192203
0.192205
0.192207
0.192208
0.19221
0.192212
0.192214
0.192216
0.192218
0.19222
0.192221
0.192223
0.192225
0.192227
0.192229
0.192231
0.192233
0.192235
0.192237
0.19224
0.192242
0.192244
0.192246
0.192248
0.19225
0.192252
0.192255
0.192257
0.192259
0.192261
0.192264
0.192266
0.192268
0.192271
0.192273
0.192275
0.192278
0.19228
0.192282
0.192285
0.192287
0.19229
0.192292
0.192295
0.192297
0.1923
0.192303
0.192305
0.192308
0.19231
0.192313
0.192316
0.192319
0.192321
0.192324
0.192327
0.19233
0.192332
0.192335
0.192338
0.192341
0.192344
0.192347
0.19235
0.192353
0.192356
0.192359
0.192362
0.192365
0.192368
0.192371
0.192374
0.192377
0.19238
0.192384
0.192387
0.19239
0.192393
0.192397
0.1924
0.192403
0.192407
0.19241
0.192413
0.192417
0.19242
0.192424
0.192427
0.192431
0.192434
0.192438
0.192441
0.192445
0.192449
0.192452
0.192456
0.19246
0.192464
0.192467
0.192471
0.192475
0.192479
0.192483
0.192487
0.19249
0.192494
0.192498
0.192502
0.192506
0.192511
0.192515
0.192519
0.192523
0.192527
0.192531
0.192535
0.19254
0.192544
0.192548
0.192553
0.192557
0.192561
0.192566
0.19257
0.192575
0.192579
0.192584
0.192588
0.192593
0.192598
0.192602
0.192607
0.192612
0.192616
0.192621
0.192626
0.192631
0.192636
0.19264
0.192645
0.19265
0.192655
0.19266
0.192665
0.19267
0.192675
0.19268
0.192686
0.192691
0.192696
0.192701
0.192707
0.192712
0.192717
0.192722
0.192728
0.192733
0.192739
0.192744
0.19275
0.192755
0.192761
0.192766
0.192772
0.192778
0.192783
0.192789
0.192795
0.192801
0.192806
0.192812
0.192818
0.192824
0.19283
0.192836
0.192842
0.192848
0.192854
0.19286
0.192866
0.192872
0.192878
0.192885
0.192891
0.192897
0.192903
0.19291
0.192916
0.192922
0.192929
0.192935
0.192942
0.192948
0.192955
0.192961
0.192968
0.192975
0.192981
0.192988
0.192995
0.193001
0.193008
0.193015
0.193022
0.193029
0.193036
0.193042
0.193049
0.193056
0.193063
0.19307
0.193078
0.193085
0.193092
0.193099
0.193106
0.193113
0.19312
0.193128
0.193135
0.193142
0.19315
0.193157
0.193164
0.193172
0.193179
0.193187
0.193194
0.193202
0.193209
0.193217
0.193225
0.193232
0.19324
0.193248
0.193255
0.193263
0.193271
0.193279
0.193287
0.193294
0.193302
0.19331
0.193318
0.193326
0.193334
0.193342
0.19335
0.193358
0.193366
0.193374
0.193382
0.193391
0.193399
0.193407
0.193415
0.193423
0.193432
0.19344
0.193448
0.193456
0.193465
0.193473
0.193482
0.19349
0.193498
0.193507
0.193515
0.193524
0.193532
0.193541
0.193549
0.193558
0.193567
0.193575
0.193584
0.193592
0.193601
0.19361
0.193618
0.193627
0.193636
0.193645
0.193653
0.193662
0.193671
0.19368
0.193689
0.193698
0.193706
0.193715
0.193724
0.193733
0.193742
0.193751
0.19376
0.193769
0.193778
0.193787
0.193796
0.193805
0.193814
0.193823
0.193832
0.193841
0.19385
0.19386
0.193869
0.193878
0.193887
0.193896
0.193905
0.193915
0.193924
0.193933
0.193942
0.193952
0.193961
0.19397
0.193979
0.193989
0.193998
0.194007
0.194017
0.194026
0.194035
0.194045
0.194054
0.194063
0.194073
0.194082
0.194091
0.194101
0.19411
0.19412
0.194129
0.194139
0.194148
0.194157
0.194167
0.194176
0.194186
0.194195
0.194205
0.194214
0.194224
0.194233
0.194243
0.194252
0.194262
0.194271
0.194281
0.194291
0.1943
0.19431
0.194319
0.194329
0.194338
0.194348
0.194358
0.194367
0.194377
0.194386
0.194396
0.194406
0.194415
0.194425
0.194435
0.194444
0.194454
0.194463
0.194473
0.194483
0.194492
0.194502
0.194512
0.194521
0.194531
0.194541
0.194551
0.19456
0.19457
0.19458
0.194589
0.194599
0.194609
0.194618
0.194628
0.194638
0.194648
0.194657
0.194667
0.194677
0.194686
0.194696
0.194706
0.194716
0.194725
0.194735
0.194745
0.194755
0.194764
0.194774
0.194784
0.194794
0.194803
0.194813
0.194823
0.194833
0.194842
0.194852
0.194862
0.194872
0.194881
0.194891
0.194901
0.194911
0.194921
0.19493
0.19494
0.19495
0.19496
0.19497
0.194979
0.194989
0.194999
0.195009
0.195018
0.195028
0.195038
0.195048
0.195058
0.195067
0.195077
0.195087
0.195097
0.195107
0.195117
0.195126
0.195136
0.195146
0.195156
0.195166
0.195175
0.195185
0.195195
0.195205
0.195215
0.195225
0.195234
0.195244
0.195254
0.195264
0.195274
0.195283
0.195293
0.195303
0.195313
0.195323
0.195333
0.195342
0.195352
0.195362
0.195372
0.195382
0.195392
0.195401
0.195411
0.195421
0.195431
0.195441
0.195451
0.19546
0.19547
0.19548
0.19549
0.1955
0.19551
0.19552
0.195529
0.195539
0.195549
0.195559
0.195569
0.195579
0.195589
0.195598
0.195608
0.195618
0.195628
0.195638
0.195648
0.195657
0.195667
0.195677
0.195687
0.195697
0.195707
0.195717
0.195726
0.195736
0.195746
0.195756
0.195766
0.195776
0.195786
0.195796
0.195805
0.195815
0.195825
0.195835
0.195845
0.195855
0.195865
0.195874
0.195884
0.195894
0.195904
0.195914
0.195924
0.195934
0.195944
0.195953
0.195963
0.195973
0.195983
0.195993
0.196003
0.196013
0.196023
0.196033
0.196042
0.196052
0.196062
0.196072
0.196082
0.196092
0.196102
0.196112
0.196121
0.196131
0.196141
0.196151
0.196161
0.196171
0.196181
0.196191
0.196201
0.19621
0.19622
0.19623
0.19624
0.19625
0.19626
0.19627
0.19628
0.19629
0.1963
0.196309
0.196319
0.196329
0.196339
0.196349
0.196359
0.196369
0.196379
0.196389
0.196399
0.196408
0.196418
0.196428
0.196438
0.196448
0.196458
0.196468
0.196478
0.196488
0.196498
0.196507
0.196517
0.196527
0.196537
0.196547
0.196557
0.196567
0.196577
0.196587
0.196597
0.196607
0.196617
0.196626
0.196636
0.196646
0.196656
0.196666
0.196676
0.196686
0.196696
0.196706
0.196716
0.196726
0.196736
0.196745
0.196755
0.196765
0.196775
0.196785
0.196795
0.196805
0.196815
0.196825
0.196835
0.196845
0.196855
0.196865
0.196875
0.196884
0.196894
0.196904
0.196914
0.196924
0.196934
0.196944
0.196954
0.196964
0.196974
0.196984
0.196994
0.197004
0.197014
0.197024
0.197034
0.197043
0.197053
0.197063
0.197073
0.197083
0.197093
0.197103
0.197113
0.197123
0.197133
0.197143
0.197153
0.197163
0.197173
0.197183
0.197193
0.197203
0.197213
0.197223
0.197232
0.197242
0.197252
0.197262
0.197272
0.197282
0.197292
0.197302
0.197312
0.197322
0.197332
0.197342
0.197352
0.197362
0.197372
0.197382
0.197392
0.197402
0.197412
0.197422
0.197432
0.197442
0.197452
0.197462
0.197472
0.197482
0.197491
0.197501
0.197511
0.197521
0.197531
0.197541
0.197551
0.197561
0.197571
0.197581
0.197591
0.197601
0.197611
0.197621
0.197631
0.197641
0.197651
0.197661
0.197671
0.197681
0.197691
0.197701
0.197711
0.197721
0.197731
0.197741
0.197751
0.197761
0.197771
0.197781
0.197791
0.197801
0.197811
0.197821
0.197831
0.197841
0.197851
0.197861
0.197871
0.197881
0.197891
0.197901
0.197911
0.197921
0.197931
0.197941
0.197951
0.197961
0.197971
0.197981
0.197991
0.198001
0.198011
0.198021
0.198031
0.198041
0.198051
0.198061
0.198071
0.198081
0.198091
0.198101
0.198111
0.198121
0.198131
0.198141
0.198151
0.198161
0.198171
0.198181
0.198191
0.198201
0.198211
0.198221
0.198231
0.198241
0.198251
0.198261
0.198271
0.198281
0.198291
0.198301
0.198311
0.198321
0.198331
0.198341
0.198351
0.198361
0.198371
0.198381
0.198391
0.198401
0.198411
0.198421
0.198431
0.198441
0.198451
0.198461
0.198471
0.198481
0.198491
0.198501
0.198511
0.198522
0.198532
0.198542
0.198552
0.198562
0.198572
0.198582
0.198592
0.198602
0.198612
0.198622
0.198632
0.198642
0.198652
0.198662
0.198672
0.198682
0.198692
0.198702
0.198712
0.198722
0.198732
0.198742
0.198752
0.198762
0.198773
0.198783
0.198793
0.198803
0.198813
0.198823
0.198833
0.198843
0.198853
0.198863
0.198873
0.198883
0.198893
0.198903
0.198913
0.198923
0.198933
0.198943
0.198953
0.198964
0.198974
0.198984
0.198994
0.199004
0.199014
0.199024
0.199034
0.199044
0.199054
0.199064
0.199074
0.199084
0.199094
0.199104
0.199114
0.199125
0.199135
0.199145
0.199155
0.199165
0.199175
0.199185
0.199195
0.199205
0.199215
0.199225
0.199235
0.199245
0.199255
0.199266
0.199276
0.199286
0.199296
0.199306
0.199316
0.199326
0.199336
0.199346
0.199356
0.199366
0.199376
0.199387
0.199397
0.199407
0.199417
0.199427
0.199437
0.199447
0.199457
0.199467
0.199477
0.199487
0.199498
0.199508
0.199518
0.199528
0.199538
0.199548
0.199558
0.199568
0.199578
0.199588
0.199598
0.199609
0.199619
0.199629
0.199639
0.199649
0.199659
0.199669
0.199679
0.199689
0.199699
0.19971
0.19972
0.19973
0.19974
0.19975
0.19976
0.19977
0.19978
0.19979
0.199801
0.199811
0.199821
0.199831
0.199841
0.199851
0.199861
0.199871
0.199881
0.199892
0.199902
0.199912
0.199922
0.199932
0.199942
0.199952
0.199962
0.199972
0.199983
0.199993
0.200003
0.200013
0.200023
0.200033
0.200043
0.200053
0.200064
0.200074
0.200084
0.200094
0.200104
0.200114
0.200124
0.200134
0.200145
0.200155
0.200165
0.200175
0.200185
0.200195
0.200205
0.200216
0.200226
0.200236
0.200246
0.200256
0.200266
0.200276
0.200287
0.200297
0.200307
0.200317
0.200327
0.200337
0.200347
0.200358
0.200368
0.200378
0.200388
0.200398
0.200408
0.200418
0.200429
0.200439
0.200449
0.200459
0.200469
0.200479
0.200489
0.2005
0.20051
0.20052
0.20053
0.20054
0.20055
0.200561
0.200571
0.200581
0.200591
0.200601
0.200611
0.200621
0.200632
0.200642
0.200652
0.200662
0.200672
0.200682
0.200693
0.200703
0.200713
0.200723
0.200733
0.200743
0.200754
0.200764
0.200774
0.200784
0.200794
0.200804
0.200815
0.200825
0.200835
0.200845
0.200855
0.200865
0.200876
0.200886
0.200896
0.200906
0.200916
0.200927
0.200937
0.200947
0.200957
0.200967
0.200977
0.200988
0.200998
0.201008
0.201018
0.201028
0.201039
0.201049
0.201059
0.201069
0.201079
0.201089
0.2011
0.20111
0.20112
0.20113
0.20114
0.201151
0.201161
0.201171
0.201181
0.201191
0.201202
0.201212
0.201222
0.201232
0.201242
0.201253
0.201263
0.201273
0.201283
0.201293
0.201304
0.201314
0.201324
0.201334
0.201344
0.201355
0.201365
0.201375
0.201385
0.201395
0.201406
0.201416
0.201426
0.201436
0.201446
0.201457
0.201467
0.201477
0.201487
0.201497
0.201508
0.201518
0.201528
0.201538
0.201548
0.201559
0.201569
0.201579
0.201589
0.2016
0.20161
0.20162
0.20163
0.20164
0.201651
0.201661
0.201671
0.201681
0.201692
0.201702
0.201712
0.201722
0.201732
0.201743
0.201753
0.201763
0.201773
0.201784
0.201794
0.201804
0.201814
0.201825
0.201835
0.201845
0.201855
0.201865
0.201876
0.201886
0.201896
0.201906
0.201917
0.201927
0.201937
0.201947
0.201958
0.201968
0.201978
0.201988
0.201999
0.202009
0.202019
0.202029
0.202039
0.20205
0.20206
0.20207
0.20208
0.202091
0.202101
0.202111
0.202121
0.202132
0.202142
0.202152
0.202162
0.202173
0.202183
0.202193
0.202203
0.202214
0.202224
0.202234
0.202244
0.202255
0.202265
0.202275
0.202286
0.202296
0.202306
0.202316
0.202327
0.202337
0.202347
0.202357
0.202368
0.202378
0.202388
0.202398
0.202409
0.202419
0.202429
0.202439
0.20245
0.20246
0.20247
0.202481
0.202491
0.202501
0.202511
0.202522
0.202532
0.202542
0.202552
0.202563
0.202573
0.202583
0.202594
0.202604
0.202614
0.202624
0.202635
0.202645
0.202655
0.202665
0.202676
0.202686
0.202696
0.202707
0.202717
0.202727
0.202737
0.202748
0.202758
0.202768
0.202779
0.202789
0.202799
0.202809
0.20282
0.20283
0.20284
0.202851
0.202861
0.202871
0.202882
0.202892
0.202902
0.202912
0.202923
0.202933
0.202943
0.202954
0.202964
0.202974
0.202984
0.202995
0.203005
0.203015
0.203026
0.203036
0.203046
0.203057
0.203067
0.203077
0.203088
0.203098
0.203108
0.203118
0.203129
0.203139
0.203149
0.20316
0.20317
0.20318
0.203191
0.203201
0.203211
0.203222
0.203232
0.203242
0.203252
0.203263
0.203273
0.203283
0.203294
0.203304
0.203314
0.203325
0.203335
0.203345
0.203356
0.203366
0.203376
0.203387
0.203397
0.203407
0.203418
0.203428
0.203438
0.203449
0.203459
0.203469
0.20348
0.20349
0.2035
0.203511
0.203521
0.203531
0.203542
0.203552
0.203562
0.203573
0.203583
0.203593
0.203604
0.203614
0.203624
0.203635
0.203645
0.203655
0.203666
0.203676
0.203686
0.203697
0.203707
0.203717
0.203728
0.203738
0.203748
0.203759
0.203769
0.203779
0.20379
0.2038
0.20381
0.203821
0.203831
0.203842
0.203852
0.203862
0.203873
0.203883
0.203893
0.203904
0.203914
0.203924
0.203935
0.203945
0.203955
0.203966
0.203976
0.203986
0.203997
0.204007
0.204018
0.204028
0.204038
0.204049
0.204059
0.204069
0.20408
0.20409
0.204101
0.204111
0.204121
0.204132
0.204142
0.204152
0.204163
0.204173
0.204183
0.204194
0.204204
0.204215
0.204225
0.204235
0.204246
0.204256
0.204266
0.204277
0.204287
0.204298
0.204308
0.204318
0.204329
0.204339
0.20435
0.20436
0.20437
0.204381
0.204391
0.204401
0.204412
0.204422
0.204433
0.204443
0.204453
0.204464
0.204474
0.204485
0.204495
0.204505
0.204516
0.204526
0.204537
0.204547
0.204557
0.204568
0.204578
0.204588
0.204599
0.204609
0.20462
0.20463
0.20464
0.204651
0.204661
0.204672
0.204682
0.204692
0.204703
0.204713
0.204724
0.204734
0.204745
0.204755
0.204765
0.204776
0.204786
0.204797
0.204807
0.204817
0.204828
0.204838
0.204849
0.204859
0.204869
0.20488
0.20489
0.204901
0.204911
0.204922
0.204932
0.204942
0.204953
0.204963
0.204974
0.204984
0.204994
0.205005
0.205015
0.205026
0.205036
0.205047
0.205057
0.205067
0.205078
0.205088
0.205099
0.205109
0.20512
0.20513
0.20514
0.205151
0.205161
0.205172
0.205182
0.205193
0.205203
0.205213
0.205224
0.205234
0.205245
0.205255
0.205266
0.205276
0.205287
0.205297
0.205307
0.205318
0.205328
0.205339
0.205349
0.20536
0.20537
0.205381
0.205391
0.205401
0.205412
0.205422
0.205433
0.205443
0.205454
0.205464
0.205475
0.205485
0.205495
0.205506
0.205516
0.205527
0.205537
0.205548
0.205558
0.205569
0.205579
0.20559
0.2056
0.20561
0.205621
0.205631
0.205642
0.205652
0.205663
0.205673
0.205684
0.205694
0.205705
0.205715
0.205726
0.205736
0.205746
0.205757
0.205767
0.205778
0.205788
0.205799
0.205809
0.20582
0.20583
0.205841
0.205851
0.205862
0.205872
0.205883
0.205893
0.205904
0.205914
0.205925
0.205935
0.205945
0.205956
0.205966
0.205977
0.205987
0.205998
0.206008
0.206019
0.206029
0.20604
0.20605
0.206061
0.206071
0.206082
0.206092
0.206103
0.206113
0.206124
0.206134
0.206145
0.206155
0.206166
0.206176
0.206187
0.206197
0.206208
0.206218
0.206229
0.206239
0.20625
0.20626
0.206271
0.206281
0.206292
0.206302
0.206313
0.206323
0.206334
0.206344
0.206355
0.206365
0.206376
0.206386
0.206397
0.206407
0.206418
0.206428
0.206439
0.206449
0.20646
0.20647
0.206481
0.206491
0.206502
0.206512
0.206523
0.206533
0.206544
0.206554
0.206565
0.206575
0.206586
0.206596
0.206607
0.206617
0.206628
0.206638
0.206649
0.20666
0.20667
0.206681
0.206691
0.206702
0.206712
0.206723
0.206733
0.206744
0.206754
0.206765
0.206775
0.206786
0.206796
0.206807
0.206817
0.206828
0.206838
0.206849
0.20686
0.20687
0.206881
0.206891
0.206902
0.206912
0.206923
0.206933
0.206944
0.206954
0.206965
0.206975
0.206986
0.206997
0.207007
0.207018
0.207028
0.207039
0.207049
0.20706
0.20707
0.207081
0.207091
0.207102
0.207113