/*--------------------------------*- C++ -*----------------------------------*\
  =========                 |
  \\      /  F ield         | OpenFOAM: The Open Source CFD Toolbox
   \\    /   O peration     | Website:  https://openfoam.org
    \\  /    A nd           | Version:  9
     \\/     M anipulation  |
\*---------------------------------------------------------------------------*/
FoamFile
{
    format      ascii;
    class       volScalarField;
    location    "0.043";
    object      rho_0;
}
// * * * * * * * * * * * * * * * * * * * * * * * * * * * * * * * * * * * * * //

dimensions      [1 -3 0 0 0 0 0];

internalField   nonuniform List<scalar> 
10000
(
0.193922
0.19392
0.193916
0.193912
0.193909
0.193905
0.193902
0.193898
0.193894
0.193891
0.193887
0.193884
0.19388
0.193876
0.193873
0.193869
0.193866
0.193862
0.193859
0.193855
0.193852
0.193848
0.193844
0.193841
0.193837
0.193834
0.19383
0.193827
0.193823
0.193819
0.193816
0.193812
0.193809
0.193805
0.193802
0.193798
0.193795
0.193791
0.193787
0.193784
0.19378
0.193777
0.193773
0.19377
0.193766
0.193763
0.193759
0.193755
0.193752
0.193748
0.193745
0.193741
0.193738
0.193734
0.193731
0.193727
0.193724
0.19372
0.193716
0.193713
0.193709
0.193706
0.193702
0.193699
0.193695
0.193692
0.193688
0.193685
0.193681
0.193678
0.193674
0.19367
0.193667
0.193663
0.19366
0.193656
0.193653
0.193649
0.193646
0.193642
0.193639
0.193635
0.193632
0.193628
0.193625
0.193621
0.193618
0.193614
0.193611
0.193607
0.193604
0.1936
0.193596
0.193593
0.19359
0.193586
0.193583
0.193579
0.193576
0.193572
0.193568
0.193565
0.193561
0.193558
0.193555
0.193551
0.193548
0.193544
0.193541
0.193537
0.193533
0.19353
0.193527
0.193523
0.19352
0.193516
0.193513
0.193509
0.193506
0.193502
0.193499
0.193495
0.193492
0.193488
0.193485
0.193481
0.193478
0.193475
0.193471
0.193468
0.193464
0.193461
0.193457
0.193454
0.19345
0.193447
0.193443
0.19344
0.193437
0.193433
0.19343
0.193427
0.193423
0.19342
0.193416
0.193412
0.193409
0.193405
0.193402
0.193398
0.193395
0.193392
0.193389
0.193385
0.193382
0.193379
0.193375
0.193372
0.193368
0.193365
0.193361
0.193358
0.193354
0.193351
0.193347
0.193344
0.193341
0.193337
0.193334
0.193331
0.193328
0.193325
0.193321
0.193318
0.193315
0.193311
0.193308
0.193304
0.1933
0.193297
0.193293
0.19329
0.193286
0.193283
0.19328
0.193276
0.193273
0.19327
0.193267
0.193264
0.193261
0.193258
0.193255
0.193252
0.193249
0.193246
0.193243
0.193239
0.193236
0.193232
0.193229
0.193225
0.193221
0.193218
0.193214
0.19321
0.193206
0.193203
0.193199
0.193196
0.193193
0.193189
0.193186
0.193183
0.193181
0.193178
0.193176
0.193173
0.193171
0.193169
0.193167
0.193165
0.193164
0.193162
0.19316
0.193159
0.193157
0.193156
0.193154
0.193153
0.193151
0.19315
0.193149
0.193147
0.193146
0.193145
0.193144
0.193142
0.193141
0.19314
0.193139
0.193138
0.193137
0.193136
0.193135
0.193134
0.193133
0.193132
0.193131
0.19313
0.193129
0.193128
0.193127
0.193126
0.193125
0.193124
0.193123
0.193122
0.193121
0.19312
0.193119
0.193118
0.193117
0.193116
0.193115
0.193113
0.193112
0.193111
0.19311
0.193109
0.193108
0.193107
0.193106
0.193105
0.193104
0.193103
0.193102
0.193101
0.1931
0.193099
0.193098
0.193097
0.193096
0.193095
0.193094
0.193093
0.193092
0.193091
0.19309
0.193089
0.193088
0.193087
0.193086
0.193085
0.193083
0.193082
0.193081
0.19308
0.193079
0.193078
0.193077
0.193076
0.193075
0.193074
0.193073
0.193072
0.193071
0.19307
0.193069
0.193068
0.193067
0.193066
0.193065
0.193064
0.193063
0.193062
0.193061
0.19306
0.193059
0.193058
0.193057
0.193056
0.193055
0.193053
0.193052
0.193051
0.19305
0.193049
0.193048
0.193047
0.193046
0.193045
0.193044
0.193043
0.193042
0.193041
0.19304
0.193039
0.193038
0.193037
0.193036
0.193035
0.193034
0.193033
0.193032
0.193031
0.19303
0.193029
0.193028
0.193027
0.193026
0.193025
0.193024
0.193023
0.193021
0.19302
0.193019
0.193018
0.193017
0.193016
0.193015
0.193014
0.193013
0.193012
0.193011
0.19301
0.193009
0.193008
0.193007
0.193006
0.193005
0.193004
0.193003
0.193002
0.193001
0.193
0.192999
0.192998
0.192997
0.192996
0.192995
0.192994
0.192993
0.192992
0.192991
0.192989
0.192988
0.192987
0.192986
0.192985
0.192984
0.192983
0.192982
0.192981
0.19298
0.192979
0.192978
0.192977
0.192976
0.192975
0.192974
0.192973
0.192972
0.192971
0.19297
0.192969
0.192968
0.192967
0.192966
0.192965
0.192964
0.192963
0.192962
0.192961
0.19296
0.192959
0.192958
0.192957
0.192955
0.192954
0.192953
0.192952
0.192951
0.19295
0.192949
0.192948
0.192947
0.192946
0.192945
0.192944
0.192943
0.192942
0.192941
0.19294
0.192939
0.192938
0.192937
0.192936
0.192935
0.192934
0.192933
0.192932
0.192931
0.19293
0.192929
0.192928
0.192927
0.192926
0.192925
0.192924
0.192923
0.192922
0.192921
0.192919
0.192918
0.192917
0.192916
0.192915
0.192914
0.192913
0.192912
0.192911
0.19291
0.192909
0.192908
0.192907
0.192906
0.192905
0.192904
0.192903
0.192902
0.192901
0.1929
0.192899
0.192898
0.192897
0.192896
0.192895
0.192894
0.192893
0.192892
0.192891
0.19289
0.192889
0.192888
0.192887
0.192886
0.192885
0.192884
0.192883
0.192881
0.19288
0.192879
0.192878
0.192877
0.192876
0.192875
0.192874
0.192873
0.192872
0.192871
0.19287
0.192869
0.192868
0.192867
0.192866
0.192865
0.192864
0.192863
0.192862
0.192861
0.19286
0.192859
0.192858
0.192857
0.192856
0.192855
0.192854
0.192853
0.192852
0.192851
0.19285
0.192849
0.192848
0.192847
0.192846
0.192845
0.192844
0.192843
0.192842
0.19284
0.19284
0.192838
0.192838
0.192836
0.192835
0.192834
0.192833
0.192832
0.192831
0.19283
0.192829
0.192828
0.192827
0.192826
0.192825
0.192824
0.192823
0.192822
0.192821
0.19282
0.192819
0.192818
0.192817
0.192816
0.192815
0.192814
0.192813
0.192812
0.192811
0.19281
0.192809
0.192808
0.192807
0.192806
0.192805
0.192804
0.192803
0.192802
0.192801
0.1928
0.192799
0.192798
0.192797
0.192796
0.192795
0.192794
0.192793
0.192791
0.192791
0.19279
0.192788
0.192788
0.192786
0.192785
0.192784
0.192783
0.192782
0.192781
0.19278
0.192779
0.192778
0.192777
0.192776
0.192775
0.192774
0.192773
0.192772
0.192771
0.19277
0.192769
0.192768
0.192767
0.192766
0.192765
0.192764
0.192763
0.192762
0.192761
0.19276
0.192759
0.192758
0.192757
0.192756
0.192755
0.192754
0.192753
0.192752
0.192751
0.19275
0.192749
0.192748
0.192747
0.192746
0.192745
0.192744
0.192743
0.192742
0.192741
0.19274
0.192739
0.192738
0.192737
0.192736
0.192735
0.192734
0.192733
0.192732
0.192731
0.19273
0.192729
0.192728
0.192727
0.192726
0.192725
0.192724
0.192723
0.192722
0.192721
0.19272
0.192718
0.192718
0.192717
0.192715
0.192715
0.192713
0.192712
0.192712
0.19271
0.192709
0.192708
0.192707
0.192706
0.192705
0.192704
0.192703
0.192702
0.192701
0.1927
0.192699
0.192698
0.192697
0.192696
0.192695
0.192694
0.192693
0.192692
0.192691
0.19269
0.192689
0.192688
0.192687
0.192686
0.192685
0.192684
0.192683
0.192682
0.192681
0.19268
0.192679
0.192678
0.192677
0.192676
0.192675
0.192674
0.192673
0.192672
0.192671
0.19267
0.192669
0.192668
0.192667
0.192666
0.192665
0.192664
0.192663
0.192662
0.192661
0.19266
0.192659
0.192658
0.192657
0.192656
0.192655
0.192654
0.192653
0.192652
0.192651
0.19265
0.192649
0.192648
0.192647
0.192646
0.192645
0.192644
0.192643
0.192642
0.192641
0.19264
0.192639
0.192638
0.192637
0.192636
0.192635
0.192634
0.192633
0.192632
0.192631
0.19263
0.192629
0.192628
0.192627
0.192626
0.192625
0.192624
0.192623
0.192622
0.192621
0.19262
0.192619
0.192618
0.192617
0.192616
0.192615
0.192614
0.192613
0.192612
0.192611
0.19261
0.192609
0.192608
0.192607
0.192606
0.192605
0.192604
0.192603
0.192602
0.192601
0.1926
0.192599
0.192598
0.192597
0.192596
0.192596
0.192594
0.192593
0.192593
0.192591
0.19259
0.19259
0.192589
0.192587
0.192587
0.192586
0.192584
0.192584
0.192583
0.192582
0.192581
0.19258
0.192579
0.192578
0.192577
0.192576
0.192575
0.192574
0.192573
0.192572
0.192571
0.19257
0.192569
0.192568
0.192567
0.192566
0.192565
0.192564
0.192563
0.192562
0.192561
0.19256
0.192559
0.192558
0.192557
0.192556
0.192555
0.192554
0.192553
0.192552
0.192551
0.19255
0.192549
0.192548
0.192547
0.192546
0.192545
0.192544
0.192543
0.192542
0.192541
0.19254
0.192539
0.192538
0.192537
0.192536
0.192536
0.192535
0.192533
0.192533
0.192532
0.192531
0.19253
0.192529
0.192528
0.192527
0.192526
0.192525
0.192524
0.192523
0.192522
0.192521
0.19252
0.192519
0.192518
0.192517
0.192516
0.192515
0.192514
0.192513
0.192512
0.192511
0.19251
0.192509
0.192508
0.192507
0.192506
0.192505
0.192504
0.192503
0.192503
0.192501
0.1925
0.1925
0.192499
0.192498
0.192497
0.192496
0.192495
0.192494
0.192493
0.192492
0.192491
0.19249
0.192489
0.192488
0.192487
0.192486
0.192485
0.192484
0.192483
0.192482
0.192481
0.19248
0.192479
0.192478
0.192477
0.192477
0.192476
0.192475
0.192474
0.192473
0.192472
0.192471
0.19247
0.192469
0.192468
0.192467
0.192466
0.192465
0.192464
0.192463
0.192462
0.192461
0.19246
0.192459
0.192458
0.192457
0.192457
0.192456
0.192455
0.192454
0.192453
0.192452
0.192451
0.19245
0.192449
0.192448
0.192447
0.192446
0.192445
0.192444
0.192443
0.192442
0.192441
0.19244
0.192439
0.192438
0.192438
0.192437
0.192436
0.192435
0.192434
0.192433
0.192432
0.192431
0.19243
0.192429
0.192428
0.192427
0.192426
0.192425
0.192424
0.192423
0.192423
0.192422
0.192421
0.19242
0.192419
0.192418
0.192417
0.192416
0.192415
0.192414
0.192413
0.192412
0.192411
0.19241
0.19241
0.192408
0.192408
0.192407
0.192406
0.192405
0.192404
0.192403
0.192402
0.192401
0.1924
0.192399
0.192398
0.192397
0.192397
0.192396
0.192395
0.192394
0.192393
0.192392
0.192391
0.19239
0.192389
0.192388
0.192387
0.192386
0.192385
0.192384
0.192384
0.192383
0.192382
0.192381
0.19238
0.192379
0.192378
0.192377
0.192376
0.192375
0.192374
0.192373
0.192373
0.192372
0.192371
0.19237
0.192369
0.192368
0.192367
0.192366
0.192365
0.192364
0.192363
0.192363
0.192362
0.192361
0.19236
0.192359
0.192358
0.192357
0.192356
0.192355
0.192354
0.192354
0.192353
0.192352
0.192351
0.19235
0.192349
0.192348
0.192347
0.192346
0.192346
0.192345
0.192344
0.192343
0.192342
0.192341
0.19234
0.192339
0.192338
0.192337
0.192337
0.192336
0.192335
0.192334
0.192333
0.192332
0.192331
0.19233
0.192329
0.192329
0.192328
0.192327
0.192326
0.192325
0.192324
0.192323
0.192322
0.192322
0.192321
0.19232
0.192319
0.192318
0.192317
0.192316
0.192315
0.192315
0.192314
0.192313
0.192312
0.192311
0.19231
0.192309
0.192309
0.192308
0.192307
0.192306
0.192305
0.192304
0.192303
0.192302
0.192302
0.192301
0.1923
0.192299
0.192298
0.192297
0.192296
0.192296
0.192295
0.192294
0.192293
0.192292
0.192291
0.19229
0.192289
0.192289
0.192288
0.192287
0.192286
0.192285
0.192284
0.192284
0.192283
0.192282
0.192281
0.19228
0.192279
0.192279
0.192278
0.192277
0.192276
0.192275
0.192274
0.192273
0.192273
0.192272
0.192271
0.19227
0.192269
0.192268
0.192268
0.192267
0.192266
0.192265
0.192264
0.192263
0.192263
0.192262
0.192261
0.19226
0.192259
0.192259
0.192258
0.192257
0.192256
0.192255
0.192254
0.192254
0.192253
0.192252
0.192251
0.19225
0.19225
0.192249
0.192248
0.192247
0.192246
0.192246
0.192245
0.192244
0.192243
0.192242
0.192241
0.192241
0.19224
0.192239
0.192238
0.192237
0.192237
0.192236
0.192235
0.192234
0.192233
0.192233
0.192232
0.192231
0.19223
0.19223
0.192229
0.192228
0.192227
0.192226
0.192226
0.192225
0.192224
0.192223
0.192222
0.192222
0.192221
0.19222
0.192219
0.192219
0.192218
0.192217
0.192216
0.192215
0.192215
0.192214
0.192213
0.192212
0.192212
0.192211
0.19221
0.192209
0.192209
0.192208
0.192207
0.192206
0.192206
0.192205
0.192204
0.192203
0.192203
0.192202
0.192201
0.1922
0.1922
0.192199
0.192198
0.192197
0.192197
0.192196
0.192195
0.192194
0.192194
0.192193
0.192192
0.192192
0.192191
0.19219
0.192189
0.192189
0.192188
0.192187
0.192186
0.192186
0.192185
0.192184
0.192184
0.192183
0.192182
0.192181
0.192181
0.19218
0.192179
0.192179
0.192178
0.192177
0.192176
0.192176
0.192175
0.192174
0.192174
0.192173
0.192172
0.192172
0.192171
0.19217
0.19217
0.192169
0.192168
0.192167
0.192167
0.192166
0.192165
0.192165
0.192164
0.192163
0.192163
0.192162
0.192161
0.192161
0.19216
0.192159
0.192159
0.192158
0.192157
0.192157
0.192156
0.192155
0.192155
0.192154
0.192154
0.192153
0.192152
0.192152
0.192151
0.19215
0.19215
0.192149
0.192148
0.192148
0.192147
0.192146
0.192146
0.192145
0.192145
0.192144
0.192143
0.192143
0.192142
0.192141
0.192141
0.19214
0.19214
0.192139
0.192138
0.192138
0.192137
0.192137
0.192136
0.192135
0.192135
0.192134
0.192134
0.192133
0.192132
0.192132
0.192131
0.192131
0.19213
0.19213
0.192129
0.192128
0.192128
0.192127
0.192127
0.192126
0.192126
0.192125
0.192124
0.192124
0.192123
0.192123
0.192122
0.192122
0.192121
0.192121
0.19212
0.192119
0.192119
0.192118
0.192118
0.192117
0.192117
0.192116
0.192116
0.192115
0.192115
0.192114
0.192114
0.192113
0.192113
0.192112
0.192112
0.192111
0.192111
0.19211
0.19211
0.192109
0.192109
0.192108
0.192108
0.192107
0.192107
0.192106
0.192106
0.192105
0.192105
0.192104
0.192104
0.192103
0.192103
0.192103
0.192102
0.192102
0.192101
0.192101
0.1921
0.1921
0.192099
0.192099
0.192099
0.192098
0.192098
0.192097
0.192097
0.192096
0.192096
0.192096
0.192095
0.192095
0.192094
0.192094
0.192094
0.192093
0.192093
0.192092
0.192092
0.192092
0.192091
0.192091
0.19209
0.19209
0.19209
0.192089
0.192089
0.192089
0.192088
0.192088
0.192088
0.192087
0.192087
0.192087
0.192086
0.192086
0.192085
0.192085
0.192085
0.192084
0.192084
0.192084
0.192084
0.192083
0.192083
0.192083
0.192082
0.192082
0.192082
0.192081
0.192081
0.192081
0.192081
0.19208
0.19208
0.19208
0.19208
0.192079
0.192079
0.192079
0.192079
0.192078
0.192078
0.192078
0.192078
0.192077
0.192077
0.192077
0.192077
0.192076
0.192076
0.192076
0.192076
0.192076
0.192075
0.192075
0.192075
0.192075
0.192075
0.192075
0.192074
0.192074
0.192074
0.192074
0.192074
0.192074
0.192073
0.192073
0.192073
0.192073
0.192073
0.192073
0.192073
0.192073
0.192072
0.192072
0.192072
0.192072
0.192072
0.192072
0.192072
0.192072
0.192072
0.192072
0.192072
0.192072
0.192072
0.192072
0.192071
0.192071
0.192071
0.192071
0.192071
0.192071
0.192071
0.192071
0.192071
0.192071
0.192071
0.192071
0.192071
0.192071
0.192071
0.192071
0.192071
0.192071
0.192072
0.192072
0.192072
0.192072
0.192072
0.192072
0.192072
0.192072
0.192072
0.192072
0.192072
0.192072
0.192073
0.192073
0.192073
0.192073
0.192073
0.192073
0.192073
0.192073
0.192074
0.192074
0.192074
0.192074
0.192074
0.192075
0.192075
0.192075
0.192075
0.192075
0.192076
0.192076
0.192076
0.192076
0.192077
0.192077
0.192077
0.192077
0.192078
0.192078
0.192078
0.192079
0.192079
0.192079
0.192079
0.19208
0.19208
0.19208
0.192081
0.192081
0.192082
0.192082
0.192082
0.192083
0.192083
0.192083
0.192084
0.192084
0.192085
0.192085
0.192086
0.192086
0.192086
0.192087
0.192087
0.192088
0.192088
0.192089
0.192089
0.19209
0.19209
0.192091
0.192091
0.192092
0.192092
0.192093
0.192094
0.192094
0.192095
0.192095
0.192096
0.192097
0.192097
0.192098
0.192098
0.192099
0.1921
0.1921
0.192101
0.192102
0.192102
0.192103
0.192104
0.192105
0.192105
0.192106
0.192107
0.192107
0.192108
0.192109
0.19211
0.192111
0.192111
0.192112
0.192113
0.192114
0.192115
0.192116
0.192116
0.192117
0.192118
0.192119
0.19212
0.192121
0.192122
0.192123
0.192124
0.192125
0.192126
0.192127
0.192128
0.192129
0.19213
0.192131
0.192132
0.192133
0.192134
0.192135
0.192136
0.192137
0.192138
0.192139
0.19214
0.192141
0.192143
0.192144
0.192145
0.192146
0.192147
0.192148
0.19215
0.192151
0.192152
0.192153
0.192155
0.192156
0.192157
0.192159
0.19216
0.192161
0.192163
0.192164
0.192165
0.192167
0.192168
0.19217
0.192171
0.192172
0.192174
0.192175
0.192177
0.192178
0.19218
0.192181
0.192183
0.192184
0.192186
0.192188
0.192189
0.192191
0.192192
0.192194
0.192196
0.192197
0.192199
0.192201
0.192203
0.192204
0.192206
0.192208
0.19221
0.192211
0.192213
0.192215
0.192217
0.192219
0.192221
0.192222
0.192224
0.192226
0.192228
0.19223
0.192232
0.192234
0.192236
0.192238
0.19224
0.192242
0.192244
0.192246
0.192249
0.192251
0.192253
0.192255
0.192257
0.192259
0.192262
0.192264
0.192266
0.192268
0.192271
0.192273
0.192275
0.192278
0.19228
0.192282
0.192285
0.192287
0.19229
0.192292
0.192295
0.192297
0.1923
0.192302
0.192305
0.192307
0.19231
0.192312
0.192315
0.192318
0.19232
0.192323
0.192326
0.192329
0.192331
0.192334
0.192337
0.19234
0.192343
0.192346
0.192348
0.192351
0.192354
0.192357
0.19236
0.192363
0.192366
0.192369
0.192372
0.192375
0.192379
0.192382
0.192385
0.192388
0.192391
0.192394
0.192398
0.192401
0.192404
0.192408
0.192411
0.192414
0.192418
0.192421
0.192425
0.192428
0.192432
0.192435
0.192439
0.192442
0.192446
0.192449
0.192453
0.192457
0.19246
0.192464
0.192468
0.192472
0.192475
0.192479
0.192483
0.192487
0.192491
0.192495
0.192499
0.192503
0.192507
0.192511
0.192515
0.192519
0.192523
0.192527
0.192531
0.192536
0.19254
0.192544
0.192548
0.192553
0.192557
0.192561
0.192566
0.19257
0.192575
0.192579
0.192584
0.192588
0.192593
0.192597
0.192602
0.192606
0.192611
0.192616
0.192621
0.192625
0.19263
0.192635
0.19264
0.192645
0.19265
0.192654
0.192659
0.192664
0.192669
0.192674
0.19268
0.192685
0.19269
0.192695
0.1927
0.192705
0.192711
0.192716
0.192721
0.192727
0.192732
0.192737
0.192743
0.192748
0.192754
0.192759
0.192765
0.19277
0.192776
0.192782
0.192787
0.192793
0.192799
0.192805
0.19281
0.192816
0.192822
0.192828
0.192834
0.19284
0.192846
0.192852
0.192858
0.192864
0.19287
0.192876
0.192882
0.192889
0.192895
0.192901
0.192907
0.192914
0.19292
0.192926
0.192933
0.192939
0.192946
0.192952
0.192959
0.192965
0.192972
0.192978
0.192985
0.192992
0.192998
0.193005
0.193012
0.193019
0.193026
0.193032
0.193039
0.193046
0.193053
0.19306
0.193067
0.193074
0.193081
0.193088
0.193095
0.193103
0.19311
0.193117
0.193124
0.193131
0.193139
0.193146
0.193153
0.193161
0.193168
0.193176
0.193183
0.193191
0.193198
0.193206
0.193213
0.193221
0.193228
0.193236
0.193244
0.193251
0.193259
0.193267
0.193275
0.193282
0.19329
0.193298
0.193306
0.193314
0.193322
0.19333
0.193338
0.193346
0.193354
0.193362
0.19337
0.193378
0.193386
0.193394
0.193402
0.19341
0.193419
0.193427
0.193435
0.193443
0.193452
0.19346
0.193468
0.193477
0.193485
0.193493
0.193502
0.19351
0.193519
0.193527
0.193536
0.193544
0.193553
0.193561
0.19357
0.193579
0.193587
0.193596
0.193605
0.193613
0.193622
0.193631
0.193639
0.193648
0.193657
0.193666
0.193674
0.193683
0.193692
0.193701
0.19371
0.193719
0.193728
0.193737
0.193745
0.193754
0.193763
0.193772
0.193781
0.19379
0.193799
0.193808
0.193818
0.193827
0.193836
0.193845
0.193854
0.193863
0.193872
0.193881
0.19389
0.1939
0.193909
0.193918
0.193927
0.193936
0.193946
0.193955
0.193964
0.193973
0.193983
0.193992
0.194001
0.194011
0.19402
0.194029
0.194039
0.194048
0.194057
0.194067
0.194076
0.194085
0.194095
0.194104
0.194114
0.194123
0.194132
0.194142
0.194151
0.194161
0.19417
0.19418
0.194189
0.194199
0.194208
0.194218
0.194227
0.194237
0.194246
0.194256
0.194265
0.194275
0.194284
0.194294
0.194303
0.194313
0.194323
0.194332
0.194342
0.194351
0.194361
0.194371
0.19438
0.19439
0.194399
0.194409
0.194419
0.194428
0.194438
0.194447
0.194457
0.194467
0.194476
0.194486
0.194496
0.194505
0.194515
0.194525
0.194534
0.194544
0.194554
0.194563
0.194573
0.194583
0.194593
0.194602
0.194612
0.194622
0.194631
0.194641
0.194651
0.194661
0.19467
0.19468
0.19469
0.194699
0.194709
0.194719
0.194729
0.194738
0.194748
0.194758
0.194768
0.194777
0.194787
0.194797
0.194807
0.194816
0.194826
0.194836
0.194846
0.194855
0.194865
0.194875
0.194885
0.194895
0.194904
0.194914
0.194924
0.194934
0.194943
0.194953
0.194963
0.194973
0.194983
0.194992
0.195002
0.195012
0.195022
0.195032
0.195041
0.195051
0.195061
0.195071
0.195081
0.19509
0.1951
0.19511
0.19512
0.19513
0.195139
0.195149
0.195159
0.195169
0.195179
0.195189
0.195198
0.195208
0.195218
0.195228
0.195238
0.195247
0.195257
0.195267
0.195277
0.195287
0.195297
0.195306
0.195316
0.195326
0.195336
0.195346
0.195356
0.195365
0.195375
0.195385
0.195395
0.195405
0.195415
0.195424
0.195434
0.195444
0.195454
0.195464
0.195474
0.195483
0.195493
0.195503
0.195513
0.195523
0.195533
0.195543
0.195552
0.195562
0.195572
0.195582
0.195592
0.195602
0.195611
0.195621
0.195631
0.195641
0.195651
0.195661
0.195671
0.19568
0.19569
0.1957
0.19571
0.19572
0.19573
0.19574
0.19575
0.195759
0.195769
0.195779
0.195789
0.195799
0.195809
0.195819
0.195828
0.195838
0.195848
0.195858
0.195868
0.195878
0.195888
0.195898
0.195907
0.195917
0.195927
0.195937
0.195947
0.195957
0.195967
0.195977
0.195986
0.195996
0.196006
0.196016
0.196026
0.196036
0.196046
0.196056
0.196065
0.196075
0.196085
0.196095
0.196105
0.196115
0.196125
0.196135
0.196145
0.196154
0.196164
0.196174
0.196184
0.196194
0.196204
0.196214
0.196224
0.196234
0.196243
0.196253
0.196263
0.196273
0.196283
0.196293
0.196303
0.196313
0.196323
0.196333
0.196342
0.196352
0.196362
0.196372
0.196382
0.196392
0.196402
0.196412
0.196422
0.196432
0.196441
0.196451
0.196461
0.196471
0.196481
0.196491
0.196501
0.196511
0.196521
0.196531
0.196541
0.19655
0.19656
0.19657
0.19658
0.19659
0.1966
0.19661
0.19662
0.19663
0.19664
0.19665
0.19666
0.196669
0.196679
0.196689
0.196699
0.196709
0.196719
0.196729
0.196739
0.196749
0.196759
0.196769
0.196779
0.196789
0.196798
0.196808
0.196818
0.196828
0.196838
0.196848
0.196858
0.196868
0.196878
0.196888
0.196898
0.196908
0.196918
0.196928
0.196937
0.196947
0.196957
0.196967
0.196977
0.196987
0.196997
0.197007
0.197017
0.197027
0.197037
0.197047
0.197057
0.197067
0.197077
0.197087
0.197097
0.197106
0.197116
0.197126
0.197136
0.197146
0.197156
0.197166
0.197176
0.197186
0.197196
0.197206
0.197216
0.197226
0.197236
0.197246
0.197256
0.197266
0.197276
0.197286
0.197296
0.197306
0.197315
0.197325
0.197335
0.197345
0.197355
0.197365
0.197375
0.197385
0.197395
0.197405
0.197415
0.197425
0.197435
0.197445
0.197455
0.197465
0.197475
0.197485
0.197495
0.197505
0.197515
0.197525
0.197535
0.197545
0.197555
0.197565
0.197575
0.197585
0.197595
0.197605
0.197615
0.197624
0.197634
0.197644
0.197654
0.197664
0.197674
0.197684
0.197694
0.197704
0.197714
0.197724
0.197734
0.197744
0.197754
0.197764
0.197774
0.197784
0.197794
0.197804
0.197814
0.197824
0.197834
0.197844
0.197854
0.197864
0.197874
0.197884
0.197894
0.197904
0.197914
0.197924
0.197934
0.197944
0.197954
0.197964
0.197974
0.197984
0.197994
0.198004
0.198014
0.198024
0.198034
0.198044
0.198054
0.198064
0.198074
0.198084
0.198094
0.198104
0.198114
0.198124
0.198134
0.198144
0.198154
0.198164
0.198174
0.198184
0.198194
0.198204
0.198214
0.198224
0.198234
0.198244
0.198254
0.198264
0.198274
0.198284
0.198294
0.198304
0.198314
0.198324
0.198334
0.198344
0.198354
0.198364
0.198374
0.198385
0.198395
0.198405
0.198415
0.198425
0.198435
0.198445
0.198455
0.198465
0.198475
0.198485
0.198495
0.198505
0.198515
0.198525
0.198535
0.198545
0.198555
0.198565
0.198575
0.198585
0.198595
0.198605
0.198615
0.198625
0.198635
0.198645
0.198655
0.198665
0.198675
0.198686
0.198696
0.198706
0.198716
0.198726
0.198736
0.198746
0.198756
0.198766
0.198776
0.198786
0.198796
0.198806
0.198816
0.198826
0.198836
0.198846
0.198856
0.198866
0.198876
0.198886
0.198897
0.198907
0.198917
0.198927
0.198937
0.198947
0.198957
0.198967
0.198977
0.198987
0.198997
0.199007
0.199017
0.199027
0.199037
0.199047
0.199057
0.199068
0.199078
0.199088
0.199098
0.199108
0.199118
0.199128
0.199138
0.199148
0.199158
0.199168
0.199178
0.199188
0.199198
0.199209
0.199219
0.199229
0.199239
0.199249
0.199259
0.199269
0.199279
0.199289
0.199299
0.199309
0.199319
0.199329
0.19934
0.19935
0.19936
0.19937
0.19938
0.19939
0.1994
0.19941
0.19942
0.19943
0.19944
0.19945
0.199461
0.199471
0.199481
0.199491
0.199501
0.199511
0.199521
0.199531
0.199541
0.199551
0.199561
0.199572
0.199582
0.199592
0.199602
0.199612
0.199622
0.199632
0.199642
0.199652
0.199662
0.199673
0.199683
0.199693
0.199703
0.199713
0.199723
0.199733
0.199743
0.199753
0.199764
0.199774
0.199784
0.199794
0.199804
0.199814
0.199824
0.199834
0.199844
0.199855
0.199865
0.199875
0.199885
0.199895
0.199905
0.199915
0.199925
0.199935
0.199946
0.199956
0.199966
0.199976
0.199986
0.199996
0.200006
0.200016
0.200027
0.200037
0.200047
0.200057
0.200067
0.200077
0.200087
0.200097
0.200108
0.200118
0.200128
0.200138
0.200148
0.200158
0.200168
0.200178
0.200189
0.200199
0.200209
0.200219
0.200229
0.200239
0.200249
0.20026
0.20027
0.20028
0.20029
0.2003
0.20031
0.20032
0.200331
0.200341
0.200351
0.200361
0.200371
0.200381
0.200391
0.200402
0.200412
0.200422
0.200432
0.200442
0.200452
0.200462
0.200473
0.200483
0.200493
0.200503
0.200513
0.200523
0.200534
0.200544
0.200554
0.200564
0.200574
0.200584
0.200594
0.200605
0.200615
0.200625
0.200635
0.200645
0.200655
0.200666
0.200676
0.200686
0.200696
0.200706
0.200716
0.200727
0.200737
0.200747
0.200757
0.200767
0.200777
0.200788
0.200798
0.200808
0.200818
0.200828
0.200838
0.200849
0.200859
0.200869
0.200879
0.200889
0.200899
0.20091
0.20092
0.20093
0.20094
0.20095
0.200961
0.200971
0.200981
0.200991
0.201001
0.201011
0.201022
0.201032
0.201042
0.201052
0.201062
0.201073
0.201083
0.201093
0.201103
0.201113
0.201124
0.201134
0.201144
0.201154
0.201164
0.201174
0.201185
0.201195
0.201205
0.201215
0.201225
0.201236
0.201246
0.201256
0.201266
0.201276
0.201287
0.201297
0.201307
0.201317
0.201327
0.201338
0.201348
0.201358
0.201368
0.201378
0.201389
0.201399
0.201409
0.201419
0.201429
0.20144
0.20145
0.20146
0.20147
0.201481
0.201491
0.201501
0.201511
0.201521
0.201532
0.201542
0.201552
0.201562
0.201572
0.201583
0.201593
0.201603
0.201613
0.201624
0.201634
0.201644
0.201654
0.201664
0.201675
0.201685
0.201695
0.201705
0.201716
0.201726
0.201736
0.201746
0.201756
0.201767
0.201777
0.201787
0.201797
0.201808
0.201818
0.201828
0.201838
0.201848
0.201859
0.201869
0.201879
0.201889
0.2019
0.20191
0.20192
0.20193
0.201941
0.201951
0.201961
0.201971
0.201982
0.201992
0.202002
0.202012
0.202023
0.202033
0.202043
0.202053
0.202064
0.202074
0.202084
0.202094
0.202104
0.202115
0.202125
0.202135
0.202145
0.202156
0.202166
0.202176
0.202186
0.202197
0.202207
0.202217
0.202228
0.202238
0.202248
0.202258
0.202269
0.202279
0.202289
0.202299
0.20231
0.20232
0.20233
0.20234
0.202351
0.202361
0.202371
0.202381
0.202392
0.202402
0.202412
0.202422
0.202433
0.202443
0.202453
0.202464
0.202474
0.202484
0.202494
0.202505
0.202515
0.202525
0.202535
0.202546
0.202556
0.202566
0.202577
0.202587
0.202597
0.202607
0.202618
0.202628
0.202638
0.202648
0.202659
0.202669
0.202679
0.20269
0.2027
0.20271
0.20272
0.202731
0.202741
0.202751
0.202762
0.202772
0.202782
0.202792
0.202803
0.202813
0.202823
0.202834
0.202844
0.202854
0.202864
0.202875
0.202885
0.202895
0.202906
0.202916
0.202926
0.202937
0.202947
0.202957
0.202967
0.202978
0.202988
0.202998
0.203009
0.203019
0.203029
0.20304
0.20305
0.20306
0.20307
0.203081
0.203091
0.203101
0.203112
0.203122
0.203132
0.203143
0.203153
0.203163
0.203174
0.203184
0.203194
0.203204
0.203215
0.203225
0.203235
0.203246
0.203256
0.203266
0.203277
0.203287
0.203297
0.203308
0.203318
0.203328
0.203339
0.203349
0.203359
0.20337
0.20338
0.20339
0.203401
0.203411
0.203421
0.203432
0.203442
0.203452
0.203463
0.203473
0.203483
0.203493
0.203504
0.203514
0.203524
0.203535
0.203545
0.203555
0.203566
0.203576
0.203586
0.203597
0.203607
0.203618
0.203628
0.203638
0.203649
0.203659
0.203669
0.20368
0.20369
0.2037
0.203711
0.203721
0.203731
0.203742
0.203752
0.203762
0.203773
0.203783
0.203793
0.203804
0.203814
0.203824
0.203835
0.203845
0.203855
0.203866
0.203876
0.203887
0.203897
0.203907
0.203918
0.203928
0.203938
0.203949
0.203959
0.203969
0.20398
0.20399
0.204
0.204011
0.204021
0.204032
0.204042
0.204052
0.204063
0.204073
0.204083
0.204094
0.204104
0.204114
0.204125
0.204135
0.204146
0.204156
0.204166
0.204177
0.204187
0.204197
0.204208
0.204218
0.204229
0.204239
0.204249
0.20426
0.20427
0.20428
0.204291
0.204301
0.204312
0.204322
0.204332
0.204343
0.204353
0.204364
0.204374
0.204384
0.204395
0.204405
0.204415
0.204426
0.204436
0.204447
0.204457
0.204467
0.204478
0.204488
0.204499
0.204509
0.204519
0.20453
0.20454
0.204551
0.204561
0.204571
0.204582
0.204592
0.204603
0.204613
0.204623
0.204634
0.204644
0.204655
0.204665
0.204675
0.204686
0.204696
0.204707
0.204717
0.204727
0.204738
0.204748
0.204759
0.204769
0.204779
0.20479
0.2048
0.204811
0.204821
0.204831
0.204842
0.204852
0.204863
0.204873
0.204883
0.204894
0.204904
0.204915
0.204925
0.204936
0.204946
0.204956
0.204967
0.204977
0.204988
0.204998
0.205009
0.205019
0.205029
0.20504
0.20505
0.205061
0.205071
0.205082
0.205092
0.205102
0.205113
0.205123
0.205134
0.205144
0.205155
0.205165
0.205175
0.205186
0.205196
0.205207
0.205217
0.205228
0.205238
0.205248
0.205259
0.205269
0.20528
0.20529
0.205301
0.205311
0.205322
0.205332
0.205342
0.205353
0.205363
0.205374
0.205384
0.205395
0.205405
0.205416
0.205426
0.205436
0.205447
0.205457
0.205468
0.205478
0.205489
0.205499
0.20551
0.20552
0.20553
0.205541
0.205551
0.205562
0.205572
0.205583
0.205593
0.205604
0.205614
0.205625
0.205635
0.205646
0.205656
0.205666
0.205677
0.205687
0.205698
0.205708
0.205719
0.205729
0.20574
0.20575
0.205761
0.205771
0.205782
0.205792
0.205803
0.205813
0.205823
0.205834
0.205844
0.205855
0.205865
0.205876
0.205886
0.205897
0.205907
0.205918
0.205928
0.205939
0.205949
0.20596
0.20597
0.205981
0.205991
0.206002
0.206012
0.206023
0.206033
0.206044
0.206054
0.206064
0.206075
0.206085
0.206096
0.206106
0.206117
0.206127
0.206138
0.206148
0.206159
0.206169
0.20618
0.20619
0.206201
0.206211
0.206222
0.206232
0.206243
0.206253
0.206264
0.206274
0.206285
0.206295
0.206306
0.206316
0.206327
0.206337
0.206348
0.206358
0.206369
0.206379
0.20639
0.2064
0.206411
0.206421
0.206432
0.206442
0.206453
0.206463
0.206474
0.206484
0.206495
0.206505
0.206516
0.206526
0.206537
0.206548
0.206558
0.206569
0.206579
0.20659
0.2066
0.206611
0.206621
0.206632
0.206642
0.206653
0.206663
0.206674
0.206684
0.206695
0.206705
0.206716
0.206726
0.206737
0.206747
0.206758
0.206768
0.206779
0.20679
0.2068
0.206811
0.206821
0.206832
0.206842
0.206853
0.206863
0.206874
0.206884
0.206895
0.206905
0.206916
0.206926
0.206937
0.206948
0.206958
0.206969
0.206979
0.20699
0.207
0.207011
0.207021
0.207032
0.207042
0.207053
0.207064
0.207074
0.207085
0.207095
0.207106
0.207116