/*--------------------------------*- C++ -*----------------------------------*\
  =========                 |
  \\      /  F ield         | OpenFOAM: The Open Source CFD Toolbox
   \\    /   O peration     | Website:  https://openfoam.org
    \\  /    A nd           | Version:  9
     \\/     M anipulation  |
\*---------------------------------------------------------------------------*/
FoamFile
{
    format      ascii;
    class       volVectorField;
    location    "0.03";
    object      U;
}
// * * * * * * * * * * * * * * * * * * * * * * * * * * * * * * * * * * * * * //

dimensions      [0 1 -1 0 0 0 0];

internalField   nonuniform List<vector> 
1000
(
(178.45 0 0)
(178.887 0 0)
(179.141 0 0)
(179.417 0 0)
(179.688 0 0)
(179.96 0 0)
(180.232 0 0)
(180.504 0 0)
(180.776 0 0)
(181.047 0 0)
(181.318 0 0)
(181.59 0 0)
(181.861 0 0)
(182.132 0 0)
(182.403 0 0)
(182.673 0 0)
(182.944 0 0)
(183.215 0 0)
(183.486 0 0)
(183.757 0 0)
(184.028 0 0)
(184.299 0 0)
(184.57 0 0)
(184.842 0 0)
(185.114 0 0)
(185.386 0 0)
(185.658 0 0)
(185.93 0 0)
(186.203 0 0)
(186.475 0 0)
(186.747 0 0)
(187.019 0 0)
(187.29 0 0)
(187.562 0 0)
(187.833 0 0)
(188.104 0 0)
(188.375 0 0)
(188.646 0 0)
(188.917 0 0)
(189.188 0 0)
(189.46 0 0)
(189.731 0 0)
(190.003 0 0)
(190.274 0 0)
(190.546 0 0)
(190.817 0 0)
(191.089 0 0)
(191.361 0 0)
(191.632 0 0)
(191.904 0 0)
(192.175 0 0)
(192.446 0 0)
(192.717 0 0)
(192.989 0 0)
(193.26 0 0)
(193.531 0 0)
(193.802 0 0)
(194.073 0 0)
(194.344 0 0)
(194.615 0 0)
(194.886 0 0)
(195.158 0 0)
(195.429 0 0)
(195.7 0 0)
(195.971 0 0)
(196.242 0 0)
(196.513 0 0)
(196.784 0 0)
(197.055 0 0)
(197.326 0 0)
(197.597 0 0)
(197.868 0 0)
(198.139 0 0)
(198.41 0 0)
(198.681 0 0)
(198.952 0 0)
(199.223 0 0)
(199.495 0 0)
(199.766 0 0)
(200.037 0 0)
(200.308 0 0)
(200.579 0 0)
(200.85 0 0)
(201.12 0 0)
(201.39 0 0)
(201.66 0 0)
(201.93 0 0)
(202.2 0 0)
(202.47 0 0)
(202.741 0 0)
(203.011 0 0)
(203.282 0 0)
(203.553 0 0)
(203.823 0 0)
(204.094 0 0)
(204.364 0 0)
(204.635 0 0)
(204.905 0 0)
(205.176 0 0)
(205.446 0 0)
(205.717 0 0)
(205.988 0 0)
(206.26 0 0)
(206.53 0 0)
(206.801 0 0)
(207.072 0 0)
(207.343 0 0)
(207.613 0 0)
(207.884 0 0)
(208.155 0 0)
(208.426 0 0)
(208.697 0 0)
(208.969 0 0)
(209.24 0 0)
(209.51 0 0)
(209.781 0 0)
(210.052 0 0)
(210.323 0 0)
(210.593 0 0)
(210.864 0 0)
(211.135 0 0)
(211.406 0 0)
(211.677 0 0)
(211.948 0 0)
(212.219 0 0)
(212.49 0 0)
(212.761 0 0)
(213.032 0 0)
(213.303 0 0)
(213.574 0 0)
(213.845 0 0)
(214.116 0 0)
(214.386 0 0)
(214.657 0 0)
(214.928 0 0)
(215.199 0 0)
(215.47 0 0)
(215.741 0 0)
(216.012 0 0)
(216.283 0 0)
(216.554 0 0)
(216.825 0 0)
(217.096 0 0)
(217.367 0 0)
(217.638 0 0)
(217.908 0 0)
(218.179 0 0)
(218.45 0 0)
(218.721 0 0)
(218.992 0 0)
(219.263 0 0)
(219.534 0 0)
(219.805 0 0)
(220.076 0 0)
(220.347 0 0)
(220.617 0 0)
(220.888 0 0)
(221.159 0 0)
(221.43 0 0)
(221.701 0 0)
(221.971 0 0)
(222.242 0 0)
(222.513 0 0)
(222.784 0 0)
(223.055 0 0)
(223.326 0 0)
(223.596 0 0)
(223.867 0 0)
(224.138 0 0)
(224.409 0 0)
(224.68 0 0)
(224.951 0 0)
(225.221 0 0)
(225.492 0 0)
(225.763 0 0)
(226.034 0 0)
(226.305 0 0)
(226.576 0 0)
(226.846 0 0)
(227.117 0 0)
(227.388 0 0)
(227.659 0 0)
(227.93 0 0)
(228.201 0 0)
(228.471 0 0)
(228.742 0 0)
(229.013 0 0)
(229.284 0 0)
(229.554 0 0)
(229.825 0 0)
(230.096 0 0)
(230.367 0 0)
(230.637 0 0)
(230.908 0 0)
(231.179 0 0)
(231.45 0 0)
(231.72 0 0)
(231.991 0 0)
(232.262 0 0)
(232.533 0 0)
(232.803 0 0)
(233.074 0 0)
(233.345 0 0)
(233.615 0 0)
(233.886 0 0)
(234.157 0 0)
(234.428 0 0)
(234.698 0 0)
(234.969 0 0)
(235.24 0 0)
(235.511 0 0)
(235.781 0 0)
(236.052 0 0)
(236.322 0 0)
(236.593 0 0)
(236.864 0 0)
(237.134 0 0)
(237.405 0 0)
(237.676 0 0)
(237.947 0 0)
(238.217 0 0)
(238.488 0 0)
(238.759 0 0)
(239.029 0 0)
(239.3 0 0)
(239.571 0 0)
(239.841 0 0)
(240.112 0 0)
(240.383 0 0)
(240.653 0 0)
(240.924 0 0)
(241.195 0 0)
(241.465 0 0)
(241.736 0 0)
(242.006 0 0)
(242.277 0 0)
(242.548 0 0)
(242.818 0 0)
(243.089 0 0)
(243.36 0 0)
(243.63 0 0)
(243.901 0 0)
(244.171 0 0)
(244.442 0 0)
(244.713 0 0)
(244.983 0 0)
(245.254 0 0)
(245.525 0 0)
(245.795 0 0)
(246.066 0 0)
(246.336 0 0)
(246.607 0 0)
(246.878 0 0)
(247.148 0 0)
(247.419 0 0)
(247.69 0 0)
(247.96 0 0)
(248.231 0 0)
(248.501 0 0)
(248.772 0 0)
(249.042 0 0)
(249.313 0 0)
(249.583 0 0)
(249.854 0 0)
(250.124 0 0)
(250.395 0 0)
(250.665 0 0)
(250.936 0 0)
(251.206 0 0)
(251.477 0 0)
(251.748 0 0)
(252.018 0 0)
(252.289 0 0)
(252.56 0 0)
(252.831 0 0)
(253.102 0 0)
(253.373 0 0)
(253.643 0 0)
(253.914 0 0)
(254.184 0 0)
(254.454 0 0)
(254.724 0 0)
(254.995 0 0)
(255.265 0 0)
(255.535 0 0)
(255.805 0 0)
(256.076 0 0)
(256.346 0 0)
(256.616 0 0)
(256.887 0 0)
(257.157 0 0)
(257.428 0 0)
(257.698 0 0)
(257.969 0 0)
(258.239 0 0)
(258.509 0 0)
(258.78 0 0)
(259.05 0 0)
(259.321 0 0)
(259.591 0 0)
(259.861 0 0)
(260.132 0 0)
(260.402 0 0)
(260.672 0 0)
(260.943 0 0)
(261.213 0 0)
(261.483 0 0)
(261.754 0 0)
(262.024 0 0)
(262.294 0 0)
(262.564 0 0)
(262.835 0 0)
(263.105 0 0)
(263.376 0 0)
(263.646 0 0)
(263.916 0 0)
(264.186 0 0)
(264.457 0 0)
(264.728 0 0)
(264.999 0 0)
(265.269 0 0)
(265.539 0 0)
(265.808 0 0)
(266.078 0 0)
(266.35 0 0)
(266.622 0 0)
(266.893 0 0)
(267.162 0 0)
(267.43 0 0)
(267.699 0 0)
(267.971 0 0)
(268.245 0 0)
(268.517 0 0)
(268.786 0 0)
(269.053 0 0)
(269.321 0 0)
(269.591 0 0)
(269.868 0 0)
(270.144 0 0)
(270.413 0 0)
(270.677 0 0)
(270.94 0 0)
(271.205 0 0)
(271.48 0 0)
(271.768 0 0)
(272.044 0 0)
(272.307 0 0)
(272.567 0 0)
(272.827 0 0)
(273.089 0 0)
(273.36 0 0)
(273.655 0 0)
(273.936 0 0)
(274.199 0 0)
(274.46 0 0)
(274.721 0 0)
(274.984 0 0)
(275.253 0 0)
(275.521 0 0)
(275.791 0 0)
(276.076 0 0)
(276.383 0 0)
(276.657 0 0)
(276.916 0 0)
(277.173 0 0)
(277.431 0 0)
(277.689 0 0)
(277.948 0 0)
(278.215 0 0)
(278.515 0 0)
(278.809 0 0)
(279.071 0 0)
(279.33 0 0)
(279.588 0 0)
(279.846 0 0)
(280.106 0 0)
(280.373 0 0)
(280.671 0 0)
(280.962 0 0)
(281.225 0 0)
(281.485 0 0)
(281.743 0 0)
(282.003 0 0)
(282.264 0 0)
(282.534 0 0)
(282.832 0 0)
(283.118 0 0)
(283.382 0 0)
(283.643 0 0)
(283.904 0 0)
(284.167 0 0)
(284.438 0 0)
(284.722 0 0)
(284.991 0 0)
(285.255 0 0)
(285.52 0 0)
(285.79 0 0)
(286.078 0 0)
(286.353 0 0)
(286.617 0 0)
(286.879 0 0)
(287.139 0 0)
(287.402 0 0)
(287.667 0 0)
(287.943 0 0)
(288.228 0 0)
(288.494 0 0)
(288.758 0 0)
(289.02 0 0)
(289.282 0 0)
(289.545 0 0)
(289.811 0 0)
(290.091 0 0)
(290.389 0 0)
(290.658 0 0)
(290.921 0 0)
(291.183 0 0)
(291.441 0 0)
(291.7 0 0)
(291.96 0 0)
(292.222 0 0)
(292.492 0 0)
(292.754 0 0)
(293.008 0 0)
(293.257 0 0)
(293.502 0 0)
(293.746 0 0)
(293.989 0 0)
(294.233 0 0)
(294.466 0 0)
(294.689 0 0)
(294.903 0 0)
(295.106 0 0)
(295.304 0 0)
(295.493 0 0)
(295.671 0 0)
(295.833 0 0)
(295.976 0 0)
(296.097 0 0)
(296.195 0 0)
(296.277 0 0)
(296.344 0 0)
(296.393 0 0)
(296.429 0 0)
(296.452 0 0)
(296.462 0 0)
(296.456 0 0)
(296.45 0 0)
(296.445 0 0)
(296.437 0 0)
(296.424 0 0)
(296.402 0 0)
(296.366 0 0)
(296.314 0 0)
(296.271 0 0)
(296.24 0 0)
(296.213 0 0)
(296.187 0 0)
(296.16 0 0)
(296.126 0 0)
(296.079 0 0)
(296.043 0 0)
(296.017 0 0)
(295.993 0 0)
(295.968 0 0)
(295.938 0 0)
(295.897 0 0)
(295.838 0 0)
(295.793 0 0)
(295.765 0 0)
(295.744 0 0)
(295.729 0 0)
(295.718 0 0)
(295.706 0 0)
(295.684 0 0)
(295.695 0 0)
(295.734 0 0)
(295.782 0 0)
(295.827 0 0)
(295.865 0 0)
(295.888 0 0)
(295.887 0 0)
(295.894 0 0)
(295.904 0 0)
(295.911 0 0)
(295.915 0 0)
(295.916 0 0)
(295.909 0 0)
(295.887 0 0)
(295.878 0 0)
(295.874 0 0)
(295.869 0 0)
(295.862 0 0)
(295.849 0 0)
(295.824 0 0)
(295.791 0 0)
(295.773 0 0)
(295.758 0 0)
(295.743 0 0)
(295.725 0 0)
(295.7 0 0)
(295.657 0 0)
(295.618 0 0)
(295.593 0 0)
(295.572 0 0)
(295.554 0 0)
(295.537 0 0)
(295.517 0 0)
(295.484 0 0)
(295.473 0 0)
(295.475 0 0)
(295.488 0 0)
(295.51 0 0)
(295.534 0 0)
(295.546 0 0)
(295.544 0 0)
(295.556 0 0)
(295.57 0 0)
(295.582 0 0)
(295.59 0 0)
(295.59 0 0)
(295.568 0 0)
(295.558 0 0)
(295.559 0 0)
(295.56 0 0)
(295.561 0 0)
(295.562 0 0)
(295.561 0 0)
(295.56 0 0)
(295.556 0 0)
(295.547 0 0)
(295.522 0 0)
(295.481 0 0)
(295.462 0 0)
(295.449 0 0)
(295.438 0 0)
(295.426 0 0)
(295.411 0 0)
(295.384 0 0)
(295.344 0 0)
(295.318 0 0)
(295.3 0 0)
(295.285 0 0)
(295.273 0 0)
(295.259 0 0)
(295.235 0 0)
(295.214 0 0)
(295.211 0 0)
(295.217 0 0)
(295.233 0 0)
(295.252 0 0)
(295.265 0 0)
(295.261 0 0)
(295.272 0 0)
(295.284 0 0)
(295.294 0 0)
(295.301 0 0)
(295.308 0 0)
(295.313 0 0)
(295.314 0 0)
(295.3 0 0)
(295.251 0 0)
(295.233 0 0)
(295.23 0 0)
(295.229 0 0)
(295.228 0 0)
(295.226 0 0)
(295.224 0 0)
(295.222 0 0)
(295.217 0 0)
(295.209 0 0)
(295.2 0 0)
(295.19 0 0)
(295.179 0 0)
(295.161 0 0)
(295.126 0 0)
(295.093 0 0)
(295.073 0 0)
(295.052 0 0)
(295.025 0 0)
(294.994 0 0)
(294.978 0 0)
(294.97 0 0)
(294.964 0 0)
(294.961 0 0)
(294.96 0 0)
(294.958 0 0)
(294.953 0 0)
(294.966 0 0)
(294.983 0 0)
(294.999 0 0)
(295.005 0 0)
(294.998 0 0)
(294.999 0 0)
(295.003 0 0)
(295.006 0 0)
(295.009 0 0)
(295.01 0 0)
(295.004 0 0)
(294.988 0 0)
(294.983 0 0)
(294.98 0 0)
(294.976 0 0)
(294.965 0 0)
(294.943 0 0)
(294.934 0 0)
(294.928 0 0)
(294.923 0 0)
(294.916 0 0)
(294.907 0 0)
(294.893 0 0)
(294.868 0 0)
(294.847 0 0)
(294.834 0 0)
(294.822 0 0)
(294.807 0 0)
(294.782 0 0)
(294.75 0 0)
(294.733 0 0)
(294.724 0 0)
(294.717 0 0)
(294.712 0 0)
(294.706 0 0)
(294.692 0 0)
(294.682 0 0)
(294.69 0 0)
(294.704 0 0)
(294.718 0 0)
(294.73 0 0)
(294.734 0 0)
(294.722 0 0)
(294.721 0 0)
(294.724 0 0)
(294.726 0 0)
(294.727 0 0)
(294.726 0 0)
(294.714 0 0)
(294.696 0 0)
(294.692 0 0)
(294.692 0 0)
(294.69 0 0)
(294.687 0 0)
(294.679 0 0)
(294.656 0 0)
(294.634 0 0)
(294.626 0 0)
(294.62 0 0)
(294.614 0 0)
(294.606 0 0)
(294.593 0 0)
(294.565 0 0)
(294.533 0 0)
(294.52 0 0)
(294.51 0 0)
(294.501 0 0)
(294.492 0 0)
(294.483 0 0)
(294.477 0 0)
(294.471 0 0)
(294.462 0 0)
(294.432 0 0)
(294.372 0 0)
(294.362 0 0)
(294.371 0 0)
(294.382 0 0)
(294.393 0 0)
(294.404 0 0)
(294.413 0 0)
(294.421 0 0)
(294.427 0 0)
(294.43 0 0)
(294.423 0 0)
(294.39 0 0)
(294.373 0 0)
(294.371 0 0)
(294.371 0 0)
(294.373 0 0)
(294.374 0 0)
(294.374 0 0)
(294.372 0 0)
(294.365 0 0)
(294.342 0 0)
(294.312 0 0)
(294.302 0 0)
(294.297 0 0)
(294.293 0 0)
(294.289 0 0)
(294.283 0 0)
(294.275 0 0)
(294.267 0 0)
(294.255 0 0)
(294.233 0 0)
(294.211 0 0)
(294.201 0 0)
(294.195 0 0)
(294.19 0 0)
(294.188 0 0)
(294.187 0 0)
(294.188 0 0)
(294.192 0 0)
(294.194 0 0)
(294.173 0 0)
(294.134 0 0)
(294.131 0 0)
(294.136 0 0)
(294.141 0 0)
(294.147 0 0)
(294.152 0 0)
(294.156 0 0)
(294.159 0 0)
(294.154 0 0)
(294.13 0 0)
(294.11 0 0)
(294.107 0 0)
(294.106 0 0)
(294.107 0 0)
(294.107 0 0)
(294.106 0 0)
(294.104 0 0)
(294.098 0 0)
(294.083 0 0)
(294.046 0 0)
(294.025 0 0)
(294.02 0 0)
(294.016 0 0)
(294.012 0 0)
(294.006 0 0)
(293.999 0 0)
(293.991 0 0)
(293.984 0 0)
(293.978 0 0)
(293.974 0 0)
(293.968 0 0)
(293.953 0 0)
(293.904 0 0)
(293.87 0 0)
(293.867 0 0)
(293.871 0 0)
(293.88 0 0)
(293.89 0 0)
(293.899 0 0)
(293.907 0 0)
(293.912 0 0)
(293.915 0 0)
(293.918 0 0)
(293.92 0 0)
(293.92 0 0)
(293.91 0 0)
(293.889 0 0)
(293.878 0 0)
(293.868 0 0)
(293.849 0 0)
(293.834 0 0)
(293.83 0 0)
(293.829 0 0)
(293.829 0 0)
(293.828 0 0)
(293.828 0 0)
(293.837 0 0)
(293.85 0 0)
(293.849 0 0)
(293.846 0 0)
(293.842 0 0)
(293.835 0 0)
(293.807 0 0)
(293.777 0 0)
(293.765 0 0)
(293.758 0 0)
(293.754 0 0)
(293.752 0 0)
(293.753 0 0)
(293.753 0 0)
(293.753 0 0)
(293.75 0 0)
(293.731 0 0)
(293.715 0 0)
(293.719 0 0)
(293.726 0 0)
(293.734 0 0)
(293.743 0 0)
(293.751 0 0)
(293.754 0 0)
(293.755 0 0)
(293.754 0 0)
(293.744 0 0)
(293.706 0 0)
(293.689 0 0)
(293.688 0 0)
(293.688 0 0)
(293.687 0 0)
(293.685 0 0)
(293.683 0 0)
(293.681 0 0)
(293.677 0 0)
(293.662 0 0)
(293.641 0 0)
(293.633 0 0)
(293.628 0 0)
(293.623 0 0)
(293.619 0 0)
(293.616 0 0)
(293.614 0 0)
(293.611 0 0)
(293.603 0 0)
(293.588 0 0)
(293.577 0 0)
(293.572 0 0)
(293.57 0 0)
(293.569 0 0)
(293.572 0 0)
(293.576 0 0)
(293.58 0 0)
(293.583 0 0)
(293.583 0 0)
(293.571 0 0)
(293.526 0 0)
(293.51 0 0)
(293.512 0 0)
(293.515 0 0)
(293.518 0 0)
(293.521 0 0)
(293.529 0 0)
(293.532 0 0)
(293.533 0 0)
(293.534 0 0)
(293.532 0 0)
(293.511 0 0)
(293.49 0 0)
(293.485 0 0)
(293.483 0 0)
(293.482 0 0)
(293.488 0 0)
(293.522 0 0)
(293.55 0 0)
(293.553 0 0)
(293.55 0 0)
(293.544 0 0)
(293.531 0 0)
(293.488 0 0)
(293.445 0 0)
(293.436 0 0)
(293.433 0 0)
(293.43 0 0)
(293.427 0 0)
(293.424 0 0)
(293.422 0 0)
(293.421 0 0)
(293.418 0 0)
(293.4 0 0)
(293.379 0 0)
(293.378 0 0)
(293.381 0 0)
(293.384 0 0)
(293.394 0 0)
(293.438 0 0)
(293.499 0 0)
(293.514 0 0)
(293.518 0 0)
(293.519 0 0)
(293.516 0 0)
(293.497 0 0)
(293.44 0 0)
(293.417 0 0)
(293.414 0 0)
(293.415 0 0)
(293.415 0 0)
(293.414 0 0)
(293.411 0 0)
(293.407 0 0)
(293.399 0 0)
(293.374 0 0)
(293.351 0 0)
(293.348 0 0)
(293.347 0 0)
(293.344 0 0)
(293.344 0 0)
(293.362 0 0)
(293.392 0 0)
(293.396 0 0)
(293.395 0 0)
(293.394 0 0)
(293.389 0 0)
(293.37 0 0)
(293.333 0 0)
(293.324 0 0)
(293.325 0 0)
(293.33 0 0)
(293.337 0 0)
(293.347 0 0)
(293.374 0 0)
(293.388 0 0)
(293.317 0 0)
(293.003 0 0)
(291.752 0 0)
(289.106 0 0)
(287.284 0 0)
(286.454 0 0)
(286.09 0 0)
(285.872 0 0)
(285.82 0 0)
(285.808 0 0)
(285.808 0 0)
(285.831 0 0)
(285.884 0 0)
(285.937 0 0)
(285.979 0 0)
(285.995 0 0)
(286.002 0 0)
(285.998 0 0)
(285.978 0 0)
(285.919 0 0)
(285.85 0 0)
(285.835 0 0)
(285.842 0 0)
(285.847 0 0)
(285.862 0 0)
(285.906 0 0)
(285.932 0 0)
(285.936 0 0)
(285.939 0 0)
(285.937 0 0)
(285.919 0 0)
(285.892 0 0)
(285.883 0 0)
(285.882 0 0)
(285.885 0 0)
(285.897 0 0)
(285.915 0 0)
(285.921 0 0)
(285.925 0 0)
(285.926 0 0)
(285.926 0 0)
(285.923 0 0)
(285.92 0 0)
(285.923 0 0)
(285.927 0 0)
(285.931 0 0)
(285.935 0 0)
(285.942 0 0)
(285.946 0 0)
(285.95 0 0)
(285.954 0 0)
(285.96 0 0)
(285.965 0 0)
(285.969 0 0)
(285.976 0 0)
(285.979 0 0)
(285.977 0 0)
(285.971 0 0)
(285.961 0 0)
(285.934 0 0)
(285.859 0 0)
(285.627 0 0)
(284.866 0 0)
(283.137 0 0)
(281.54 0 0)
(280.683 0 0)
(280.322 0 0)
(280.146 0 0)
(280.065 0 0)
(280.019 0 0)
(280.004 0 0)
(280.003 0 0)
(280.005 0 0)
(280.009 0 0)
(280.014 0 0)
(280.015 0 0)
(280.017 0 0)
(280.017 0 0)
(280.012 0 0)
(280.011 0 0)
(280.009 0 0)
(280.009 0 0)
(280.014 0 0)
(280.018 0 0)
(280.021 0 0)
(280.021 0 0)
(280.02 0 0)
(280.018 0 0)
(280.018 0 0)
(280.02 0 0)
(280.022 0 0)
(280.022 0 0)
(280.022 0 0)
(280.021 0 0)
(280.02 0 0)
(280.019 0 0)
(280.02 0 0)
(280.023 0 0)
(280.032 0 0)
(280.035 0 0)
(280.037 0 0)
(280.037 0 0)
(280.037 0 0)
(280.036 0 0)
(280.031 0 0)
(280.023 0 0)
(280.021 0 0)
(280.02 0 0)
(280.021 0 0)
)
;

boundaryField
{
    sides
    {
        type            zeroGradient;
    }
    empty
    {
        type            empty;
    }
}


// ************************************************************************* //
