/*--------------------------------*- C++ -*----------------------------------*\
  =========                 |
  \\      /  F ield         | OpenFOAM: The Open Source CFD Toolbox
   \\    /   O peration     | Website:  https://openfoam.org
    \\  /    A nd           | Version:  9
     \\/     M anipulation  |
\*---------------------------------------------------------------------------*/
FoamFile
{
    format      ascii;
    class       volScalarField;
    location    "0.048";
    object      T;
}
// * * * * * * * * * * * * * * * * * * * * * * * * * * * * * * * * * * * * * //

dimensions      [0 0 0 1 0 0 0];

internalField   nonuniform List<scalar> 
10000
(
169.069
169.07
169.072
169.074
169.076
169.077
169.079
169.081
169.083
169.085
169.086
169.088
169.09
169.092
169.093
169.095
169.097
169.099
169.1
169.102
169.104
169.106
169.107
169.109
169.111
169.113
169.114
169.116
169.118
169.12
169.121
169.123
169.125
169.126
169.128
169.13
169.132
169.133
169.135
169.137
169.138
169.14
169.142
169.144
169.145
169.147
169.149
169.15
169.152
169.154
169.155
169.157
169.159
169.161
169.162
169.164
169.166
169.167
169.169
169.171
169.172
169.174
169.175
169.177
169.179
169.181
169.182
169.184
169.186
169.187
169.189
169.191
169.192
169.194
169.195
169.197
169.199
169.2
169.202
169.204
169.206
169.207
169.209
169.211
169.212
169.214
169.215
169.217
169.218
169.219
169.221
169.222
169.224
169.225
169.227
169.229
169.231
169.233
169.234
169.236
169.238
169.24
169.242
169.244
169.245
169.247
169.248
169.25
169.251
169.252
169.253
169.254
169.254
169.255
169.256
169.256
169.257
169.257
169.257
169.258
169.258
169.258
169.258
169.258
169.258
169.259
169.259
169.259
169.259
169.259
169.259
169.259
169.259
169.259
169.259
169.259
169.259
169.259
169.259
169.259
169.259
169.259
169.259
169.259
169.259
169.259
169.259
169.259
169.259
169.259
169.259
169.259
169.259
169.259
169.259
169.259
169.259
169.259
169.259
169.259
169.259
169.259
169.259
169.259
169.259
169.259
169.259
169.259
169.26
169.26
169.26
169.26
169.26
169.26
169.26
169.26
169.26
169.26
169.26
169.26
169.26
169.26
169.26
169.26
169.26
169.26
169.26
169.26
169.26
169.26
169.26
169.26
169.26
169.26
169.26
169.26
169.26
169.26
169.26
169.26
169.26
169.26
169.26
169.26
169.26
169.26
169.26
169.26
169.26
169.26
169.26
169.26
169.26
169.26
169.26
169.26
169.26
169.26
169.26
169.26
169.26
169.26
169.26
169.26
169.26
169.26
169.26
169.26
169.26
169.26
169.26
169.26
169.26
169.26
169.26
169.26
169.26
169.26
169.26
169.26
169.26
169.26
169.26
169.26
169.26
169.26
169.26
169.26
169.26
169.26
169.26
169.26
169.26
169.26
169.26
169.26
169.26
169.26
169.26
169.26
169.26
169.261
169.261
169.261
169.261
169.261
169.261
169.261
169.261
169.261
169.261
169.261
169.261
169.261
169.261
169.261
169.261
169.262
169.262
169.262
169.262
169.262
169.262
169.262
169.262
169.262
169.262
169.262
169.262
169.263
169.263
169.263
169.263
169.263
169.263
169.263
169.263
169.263
169.263
169.263
169.263
169.264
169.264
169.264
169.264
169.264
169.264
169.264
169.264
169.264
169.264
169.264
169.265
169.265
169.265
169.265
169.265
169.265
169.265
169.265
169.265
169.265
169.265
169.265
169.266
169.266
169.266
169.266
169.266
169.266
169.266
169.266
169.266
169.266
169.267
169.267
169.267
169.267
169.267
169.267
169.267
169.267
169.267
169.267
169.268
169.268
169.268
169.268
169.268
169.268
169.268
169.268
169.269
169.269
169.269
169.269
169.269
169.269
169.269
169.27
169.27
169.27
169.27
169.27
169.27
169.271
169.271
169.271
169.271
169.271
169.271
169.272
169.272
169.272
169.272
169.272
169.273
169.273
169.273
169.273
169.274
169.274
169.274
169.274
169.274
169.275
169.275
169.275
169.275
169.276
169.276
169.276
169.276
169.277
169.277
169.277
169.277
169.278
169.278
169.278
169.279
169.279
169.279
169.279
169.28
169.28
169.28
169.281
169.281
169.281
169.281
169.282
169.282
169.282
169.283
169.283
169.283
169.284
169.284
169.284
169.285
169.285
169.285
169.286
169.286
169.286
169.287
169.287
169.287
169.288
169.288
169.288
169.289
169.289
169.289
169.29
169.29
169.29
169.291
169.291
169.292
169.292
169.292
169.293
169.293
169.293
169.294
169.294
169.295
169.295
169.295
169.296
169.296
169.297
169.297
169.298
169.298
169.298
169.299
169.299
169.3
169.3
169.301
169.301
169.301
169.302
169.302
169.303
169.303
169.304
169.304
169.305
169.305
169.305
169.306
169.306
169.307
169.307
169.308
169.308
169.309
169.309
169.31
169.31
169.311
169.311
169.311
169.312
169.312
169.313
169.313
169.314
169.314
169.315
169.315
169.316
169.316
169.317
169.317
169.318
169.318
169.319
169.319
169.319
169.32
169.32
169.321
169.321
169.322
169.322
169.323
169.323
169.324
169.324
169.325
169.325
169.326
169.326
169.327
169.327
169.328
169.328
169.329
169.329
169.33
169.33
169.331
169.331
169.332
169.332
169.333
169.333
169.333
169.334
169.334
169.335
169.335
169.336
169.337
169.337
169.338
169.338
169.339
169.339
169.34
169.34
169.341
169.341
169.342
169.342
169.343
169.343
169.344
169.344
169.345
169.346
169.346
169.347
169.347
169.348
169.348
169.349
169.35
169.35
169.351
169.351
169.352
169.352
169.353
169.354
169.354
169.355
169.356
169.356
169.357
169.357
169.358
169.359
169.359
169.36
169.361
169.361
169.362
169.363
169.363
169.364
169.365
169.365
169.366
169.367
169.368
169.368
169.369
169.37
169.37
169.371
169.372
169.373
169.373
169.374
169.375
169.376
169.376
169.377
169.378
169.379
169.379
169.38
169.381
169.382
169.383
169.383
169.384
169.385
169.386
169.387
169.388
169.388
169.389
169.39
169.391
169.392
169.393
169.394
169.395
169.396
169.396
169.397
169.398
169.399
169.4
169.401
169.402
169.403
169.404
169.405
169.406
169.407
169.408
169.409
169.41
169.411
169.412
169.413
169.415
169.416
169.417
169.418
169.419
169.42
169.421
169.423
169.424
169.425
169.426
169.428
169.429
169.43
169.431
169.433
169.434
169.436
169.437
169.438
169.44
169.441
169.443
169.444
169.446
169.447
169.449
169.45
169.452
169.453
169.455
169.457
169.458
169.46
169.462
169.463
169.465
169.467
169.469
169.471
169.472
169.474
169.476
169.478
169.48
169.482
169.484
169.486
169.488
169.49
169.492
169.494
169.496
169.498
169.5
169.502
169.504
169.506
169.508
169.51
169.512
169.515
169.517
169.519
169.521
169.523
169.526
169.528
169.53
169.533
169.535
169.537
169.54
169.542
169.544
169.547
169.549
169.551
169.554
169.556
169.559
169.561
169.563
169.566
169.568
169.571
169.573
169.576
169.578
169.581
169.583
169.586
169.588
169.591
169.593
169.596
169.599
169.601
169.604
169.606
169.609
169.612
169.614
169.617
169.619
169.622
169.625
169.627
169.63
169.633
169.635
169.638
169.641
169.643
169.646
169.649
169.651
169.654
169.657
169.659
169.662
169.665
169.667
169.67
169.673
169.675
169.678
169.681
169.684
169.686
169.689
169.692
169.694
169.697
169.7
169.702
169.705
169.708
169.711
169.713
169.716
169.719
169.722
169.724
169.727
169.73
169.733
169.735
169.738
169.741
169.744
169.746
169.749
169.752
169.755
169.757
169.76
169.763
169.766
169.768
169.771
169.774
169.777
169.78
169.782
169.785
169.788
169.791
169.793
169.796
169.799
169.802
169.805
169.808
169.81
169.813
169.816
169.819
169.822
169.824
169.827
169.83
169.833
169.836
169.839
169.841
169.844
169.847
169.85
169.853
169.856
169.858
169.861
169.864
169.867
169.87
169.873
169.876
169.878
169.881
169.884
169.887
169.89
169.893
169.896
169.899
169.902
169.904
169.907
169.91
169.913
169.916
169.919
169.922
169.925
169.928
169.931
169.933
169.936
169.939
169.942
169.945
169.948
169.951
169.954
169.957
169.96
169.963
169.966
169.969
169.972
169.975
169.978
169.981
169.984
169.987
169.99
169.993
169.996
169.999
170.002
170.005
170.008
170.011
170.014
170.017
170.02
170.023
170.026
170.029
170.032
170.035
170.039
170.042
170.045
170.048
170.051
170.054
170.057
170.06
170.063
170.067
170.07
170.073
170.076
170.079
170.082
170.085
170.089
170.092
170.095
170.098
170.101
170.105
170.108
170.111
170.114
170.117
170.121
170.124
170.127
170.13
170.134
170.137
170.14
170.143
170.146
170.15
170.153
170.156
170.16
170.163
170.166
170.169
170.173
170.176
170.179
170.182
170.186
170.189
170.192
170.196
170.199
170.202
170.205
170.209
170.212
170.215
170.219
170.222
170.225
170.229
170.232
170.235
170.239
170.242
170.245
170.249
170.252
170.255
170.258
170.262
170.265
170.268
170.272
170.275
170.278
170.282
170.285
170.288
170.292
170.295
170.298
170.302
170.305
170.308
170.312
170.315
170.318
170.322
170.325
170.328
170.332
170.335
170.338
170.342
170.345
170.348
170.352
170.355
170.358
170.362
170.365
170.368
170.372
170.375
170.378
170.382
170.385
170.388
170.392
170.395
170.398
170.402
170.405
170.408
170.412
170.415
170.418
170.422
170.425
170.428
170.431
170.435
170.438
170.441
170.445
170.448
170.451
170.455
170.458
170.461
170.464
170.468
170.471
170.474
170.478
170.481
170.484
170.487
170.491
170.494
170.497
170.501
170.504
170.507
170.51
170.514
170.517
170.52
170.523
170.527
170.53
170.533
170.536
170.54
170.543
170.546
170.549
170.552
170.556
170.559
170.562
170.565
170.569
170.572
170.575
170.578
170.581
170.585
170.588
170.591
170.594
170.597
170.601
170.604
170.607
170.61
170.613
170.617
170.62
170.623
170.626
170.629
170.633
170.636
170.639
170.642
170.645
170.648
170.652
170.655
170.658
170.661
170.664
170.668
170.671
170.674
170.677
170.68
170.684
170.687
170.69
170.693
170.696
170.699
170.703
170.706
170.709
170.712
170.715
170.719
170.722
170.725
170.728
170.731
170.735
170.738
170.741
170.744
170.748
170.751
170.754
170.757
170.76
170.764
170.767
170.77
170.773
170.777
170.78
170.783
170.786
170.789
170.793
170.796
170.799
170.802
170.806
170.809
170.812
170.815
170.819
170.822
170.825
170.828
170.832
170.835
170.838
170.842
170.845
170.848
170.851
170.855
170.858
170.861
170.864
170.868
170.871
170.874
170.878
170.881
170.884
170.888
170.891
170.894
170.897
170.901
170.904
170.907
170.911
170.914
170.917
170.92
170.924
170.927
170.93
170.934
170.937
170.94
170.944
170.947
170.95
170.953
170.957
170.96
170.963
170.967
170.97
170.973
170.977
170.98
170.983
170.986
170.99
170.993
170.996
171
171.003
171.006
171.009
171.013
171.016
171.019
171.023
171.026
171.029
171.032
171.036
171.039
171.042
171.046
171.049
171.052
171.055
171.059
171.062
171.065
171.068
171.072
171.075
171.078
171.081
171.085
171.088
171.091
171.094
171.098
171.101
171.104
171.107
171.111
171.114
171.117
171.12
171.124
171.127
171.13
171.133
171.137
171.14
171.143
171.146
171.15
171.153
171.156
171.159
171.163
171.166
171.169
171.172
171.176
171.179
171.182
171.185
171.189
171.192
171.195
171.198
171.202
171.205
171.208
171.211
171.215
171.218
171.221
171.224
171.228
171.231
171.234
171.238
171.241
171.244
171.247
171.251
171.254
171.257
171.26
171.264
171.267
171.27
171.274
171.277
171.28
171.283
171.287
171.29
171.293
171.297
171.3
171.303
171.306
171.31
171.313
171.316
171.32
171.323
171.326
171.33
171.333
171.336
171.339
171.343
171.346
171.349
171.353
171.356
171.359
171.363
171.366
171.369
171.373
171.376
171.379
171.383
171.386
171.389
171.393
171.396
171.399
171.403
171.406
171.409
171.413
171.416
171.419
171.423
171.426
171.429
171.433
171.436
171.439
171.443
171.446
171.449
171.453
171.456
171.459
171.463
171.466
171.469
171.473
171.476
171.479
171.483
171.486
171.489
171.493
171.496
171.499
171.503
171.506
171.509
171.513
171.516
171.519
171.523
171.526
171.529
171.532
171.536
171.539
171.542
171.546
171.549
171.552
171.556
171.559
171.562
171.566
171.569
171.572
171.576
171.579
171.582
171.585
171.589
171.592
171.595
171.599
171.602
171.605
171.609
171.612
171.615
171.618
171.622
171.625
171.628
171.632
171.635
171.638
171.641
171.645
171.648
171.651
171.654
171.658
171.661
171.664
171.667
171.671
171.674
171.677
171.68
171.684
171.687
171.69
171.693
171.697
171.7
171.703
171.706
171.71
171.713
171.716
171.719
171.723
171.726
171.729
171.732
171.736
171.739
171.742
171.745
171.749
171.752
171.755
171.758
171.762
171.765
171.768
171.771
171.775
171.778
171.781
171.784
171.788
171.791
171.794
171.797
171.801
171.804
171.807
171.81
171.814
171.817
171.82
171.823
171.827
171.83
171.833
171.836
171.84
171.843
171.846
171.849
171.853
171.856
171.859
171.863
171.866
171.869
171.872
171.876
171.879
171.882
171.886
171.889
171.892
171.895
171.899
171.902
171.905
171.909
171.912
171.915
171.918
171.922
171.925
171.928
171.932
171.935
171.938
171.942
171.945
171.948
171.952
171.955
171.958
171.962
171.965
171.968
171.972
171.975
171.978
171.982
171.985
171.988
171.992
171.995
171.998
172.002
172.005
172.008
172.012
172.015
172.018
172.022
172.025
172.028
172.032
172.035
172.039
172.042
172.045
172.049
172.052
172.055
172.059
172.062
172.065
172.069
172.072
172.075
172.079
172.082
172.085
172.089
172.092
172.095
172.099
172.102
172.105
172.109
172.112
172.115
172.119
172.122
172.125
172.129
172.132
172.135
172.139
172.142
172.145
172.149
172.152
172.155
172.159
172.162
172.165
172.168
172.172
172.175
172.178
172.182
172.185
172.188
172.192
172.195
172.198
172.202
172.205
172.208
172.211
172.215
172.218
172.221
172.225
172.228
172.231
172.235
172.238
172.241
172.244
172.248
172.251
172.254
172.258
172.261
172.264
172.268
172.271
172.274
172.277
172.281
172.284
172.287
172.291
172.294
172.297
172.301
172.304
172.307
172.311
172.314
172.317
172.321
172.324
172.327
172.331
172.334
172.337
172.341
172.344
172.347
172.351
172.354
172.357
172.361
172.364
172.367
172.371
172.374
172.377
172.381
172.384
172.387
172.391
172.394
172.398
172.401
172.404
172.408
172.411
172.414
172.418
172.421
172.425
172.428
172.431
172.435
172.438
172.441
172.445
172.448
172.452
172.455
172.458
172.462
172.465
172.469
172.472
172.475
172.479
172.482
172.486
172.489
172.492
172.496
172.499
172.503
172.506
172.509
172.513
172.516
172.519
172.523
172.526
172.53
172.533
172.536
172.54
172.543
172.547
172.55
172.553
172.557
172.56
172.563
172.567
172.57
172.573
172.577
172.58
172.584
172.587
172.59
172.594
172.597
172.6
172.604
172.607
172.61
172.614
172.617
172.62
172.624
172.627
172.63
172.634
172.637
172.64
172.644
172.647
172.65
172.653
172.657
172.66
172.663
172.667
172.67
172.673
172.677
172.68
172.683
172.686
172.69
172.693
172.696
172.7
172.703
172.706
172.709
172.713
172.716
172.719
172.722
172.726
172.729
172.732
172.736
172.739
172.742
172.745
172.749
172.752
172.755
172.758
172.762
172.765
172.768
172.771
172.775
172.778
172.781
172.785
172.788
172.791
172.794
172.798
172.801
172.804
172.807
172.811
172.814
172.817
172.82
172.824
172.827
172.83
172.834
172.837
172.84
172.843
172.847
172.85
172.853
172.856
172.86
172.863
172.866
172.87
172.873
172.876
172.879
172.883
172.886
172.889
172.893
172.896
172.899
172.902
172.906
172.909
172.912
172.916
172.919
172.922
172.925
172.929
172.932
172.935
172.939
172.942
172.945
172.948
172.952
172.955
172.958
172.962
172.965
172.968
172.971
172.975
172.978
172.981
172.985
172.988
172.991
172.994
172.998
173.001
173.004
173.008
173.011
173.014
173.017
173.021
173.024
173.027
173.031
173.034
173.037
173.04
173.044
173.047
173.05
173.054
173.057
173.06
173.063
173.067
173.07
173.073
173.077
173.08
173.083
173.086
173.09
173.093
173.096
173.1
173.103
173.106
173.11
173.113
173.116
173.119
173.123
173.126
173.129
173.133
173.136
173.139
173.143
173.146
173.149
173.153
173.156
173.159
173.163
173.166
173.169
173.173
173.176
173.179
173.183
173.186
173.189
173.193
173.196
173.199
173.203
173.206
173.209
173.213
173.216
173.22
173.223
173.226
173.23
173.233
173.236
173.24
173.243
173.247
173.25
173.253
173.257
173.26
173.264
173.267
173.271
173.274
173.277
173.281
173.284
173.288
173.291
173.295
173.298
173.302
173.305
173.308
173.312
173.315
173.319
173.322
173.326
173.329
173.333
173.336
173.34
173.343
173.347
173.35
173.354
173.357
173.361
173.364
173.368
173.371
173.375
173.378
173.381
173.385
173.388
173.392
173.395
173.399
173.402
173.406
173.409
173.413
173.416
173.42
173.423
173.427
173.43
173.434
173.437
173.441
173.444
173.448
173.451
173.455
173.458
173.462
173.465
173.469
173.472
173.476
173.479
173.482
173.486
173.489
173.493
173.496
173.5
173.503
173.507
173.51
173.513
173.517
173.52
173.524
173.527
173.53
173.534
173.537
173.541
173.544
173.547
173.551
173.554
173.558
173.561
173.564
173.568
173.571
173.574
173.578
173.581
173.584
173.588
173.591
173.594
173.598
173.601
173.604
173.608
173.611
173.614
173.618
173.621
173.624
173.628
173.631
173.634
173.637
173.641
173.644
173.647
173.651
173.654
173.657
173.66
173.664
173.667
173.67
173.673
173.677
173.68
173.683
173.686
173.69
173.693
173.696
173.699
173.703
173.706
173.709
173.712
173.716
173.719
173.722
173.725
173.729
173.732
173.735
173.738
173.742
173.745
173.748
173.751
173.755
173.758
173.761
173.764
173.767
173.771
173.774
173.777
173.78
173.784
173.787
173.79
173.793
173.797
173.8
173.803
173.807
173.81
173.813
173.816
173.82
173.823
173.826
173.829
173.833
173.836
173.839
173.843
173.846
173.849
173.852
173.856
173.859
173.862
173.866
173.869
173.872
173.876
173.879
173.882
173.885
173.889
173.892
173.895
173.899
173.902
173.905
173.909
173.912
173.915
173.919
173.922
173.925
173.929
173.932
173.935
173.939
173.942
173.946
173.949
173.952
173.956
173.959
173.962
173.966
173.969
173.973
173.976
173.979
173.983
173.986
173.989
173.993
173.996
174
174.003
174.006
174.01
174.013
174.017
174.02
174.023
174.027
174.03
174.034
174.037
174.041
174.044
174.047
174.051
174.054
174.058
174.061
174.065
174.068
174.071
174.075
174.078
174.082
174.085
174.089
174.092
174.096
174.099
174.102
174.106
174.109
174.113
174.116
174.12
174.123
174.127
174.13
174.134
174.137
174.14
174.144
174.147
174.151
174.154
174.158
174.161
174.165
174.168
174.172
174.175
174.179
174.182
174.186
174.189
174.193
174.196
174.199
174.203
174.206
174.21
174.213
174.217
174.22
174.224
174.227
174.231
174.234
174.238
174.241
174.245
174.248
174.252
174.255
174.259
174.262
174.266
174.269
174.272
174.276
174.279
174.283
174.286
174.29
174.293
174.297
174.3
174.304
174.307
174.311
174.314
174.317
174.321
174.324
174.328
174.331
174.335
174.338
174.342
174.345
174.348
174.352
174.355
174.359
174.362
174.366
174.369
174.372
174.376
174.379
174.383
174.386
174.389
174.393
174.396
174.4
174.403
174.406
174.41
174.413
174.416
174.42
174.423
174.426
174.43
174.433
174.437
174.44
174.443
174.447
174.45
174.453
174.457
174.46
174.463
174.467
174.47
174.473
174.476
174.48
174.483
174.486
174.49
174.493
174.496
174.499
174.503
174.506
174.509
174.513
174.516
174.519
174.522
174.526
174.529
174.532
174.535
174.539
174.542
174.545
174.548
174.552
174.555
174.558
174.561
174.565
174.568
174.571
174.574
174.577
174.581
174.584
174.587
174.59
174.594
174.597
174.6
174.603
174.607
174.61
174.613
174.616
174.619
174.623
174.626
174.629
174.632
174.636
174.639
174.642
174.645
174.648
174.652
174.655
174.658
174.661
174.665
174.668
174.671
174.674
174.678
174.681
174.684
174.687
174.691
174.694
174.697
174.701
174.704
174.707
174.71
174.714
174.717
174.72
174.723
174.727
174.73
174.733
174.737
174.74
174.743
174.747
174.75
174.753
174.757
174.76
174.763
174.767
174.77
174.773
174.777
174.78
174.783
174.787
174.79
174.794
174.797
174.8
174.804
174.807
174.81
174.814
174.817
174.821
174.824
174.828
174.831
174.834
174.838
174.841
174.845
174.848
174.852
174.855
174.858
174.862
174.865
174.869
174.872
174.876
174.879
174.883
174.886
174.89
174.893
174.897
174.9
174.904
174.907
174.911
174.914
174.918
174.921
174.925
174.928
174.932
174.935
174.939
174.943
174.946
174.95
174.953
174.957
174.96
174.964
174.967
174.971
174.974
174.978
174.982
174.985
174.989
174.992
174.996
174.999
175.003
175.006
175.01
175.014
175.017
175.021
175.024
175.028
175.031
175.035
175.039
175.042
175.046
175.049
175.053
175.056
175.06
175.063
175.067
175.07
175.074
175.078
175.081
175.085
175.088
175.092
175.095
175.099
175.102
175.106
175.109
175.113
175.116
175.12
175.123
175.127
175.13
175.134
175.137
175.141
175.144
175.148
175.151
175.155
175.158
175.162
175.165
175.169
175.172
175.176
175.179
175.182
175.186
175.189
175.193
175.196
175.2
175.203
175.207
175.21
175.213
175.217
175.22
175.224
175.227
175.23
175.234
175.237
175.24
175.244
175.247
175.251
175.254
175.257
175.261
175.264
175.267
175.271
175.274
175.277
175.281
175.284
175.287
175.291
175.294
175.297
175.301
175.304
175.307
175.311
175.314
175.317
175.32
175.324
175.327
175.33
175.334
175.337
175.34
175.343
175.347
175.35
175.353
175.356
175.36
175.363
175.366
175.37
175.373
175.376
175.379
175.383
175.386
175.389
175.392
175.396
175.399
175.402
175.405
175.409
175.412
175.415
175.418
175.422
175.425
175.428
175.431
175.435
175.438
175.441
175.444
175.448
175.451
175.454
175.457
175.461
175.464
175.467
175.471
175.474
175.477
175.48
175.484
175.487
175.49
175.493
175.497
175.5
175.503
175.507
175.51
175.513
175.516
175.52
175.523
175.526
175.53
175.533
175.536
175.54
175.543
175.546
175.55
175.553
175.556
175.56
175.563
175.566
175.57
175.573
175.576
175.58
175.583
175.586
175.59
175.593
175.597
175.6
175.603
175.607
175.61
175.614
175.617
175.62
175.624
175.627
175.63
175.634
175.637
175.641
175.644
175.648
175.651
175.655
175.658
175.662
175.665
175.668
175.672
175.675
175.678
175.682
175.685
175.689
175.692
175.696
175.699
175.703
175.706
175.71
175.713
175.717
175.72
175.724
175.727
175.731
175.734
175.738
175.741
175.745
175.748
175.752
175.755
175.759
175.762
175.767
175.769
175.774
175.776
175.781
175.783
175.788
175.79
175.795
175.797
175.802
175.804
175.809
175.811
175.816
175.818
175.823
175.825
175.83
175.832
175.837
175.839
175.844
175.846
175.851
175.853
175.858
175.86
175.865
175.867
175.872
175.874
175.879
175.881
175.886
175.888
175.893
175.895
175.9
175.902
175.907
175.909
175.914
175.916
175.921
175.923
175.928
175.93
175.935
175.937
175.942
175.944
175.948
175.951
175.955
175.958
175.962
175.965
175.969
175.971
175.976
175.978
175.983
175.985
175.99
175.992
175.996
175.999
176.003
176.006
176.01
176.012
176.017
176.019
176.024
176.026
176.03
176.033
176.037
176.039
176.044
176.046
176.051
176.053
176.057
176.06
176.064
176.067
176.071
176.073
176.077
176.08
176.084
176.087
176.091
176.094
176.097
176.1
176.104
176.107
176.111
176.114
176.117
176.121
176.124
176.127
176.131
176.134
176.137
176.141
176.144
176.147
176.151
176.154
176.157
176.161
176.164
176.167
176.171
176.174
176.178
176.181
176.184
176.188
176.191
176.194
176.198
176.201
176.204
176.208
176.211
176.214
176.218
176.221
176.225
176.228
176.231
176.235
176.238
176.241
176.245
176.248
176.252
176.255
176.258
176.262
176.265
176.269
176.272
176.275
176.279
176.282
176.286
176.289
176.292
176.296
176.299
176.303
176.306
176.309
176.313
176.316
176.32
176.323
176.327
176.33
176.334
176.337
176.34
176.344
176.347
176.351
176.354
176.358
176.361
176.365
176.368
176.372
176.375
176.378
176.382
176.385
176.389
176.392
176.396
176.399
176.403
176.406
176.41
176.413
176.417
176.42
176.424
176.427
176.431
176.434
176.438
176.441
176.445
176.448
176.452
176.455
176.459
176.462
176.466
176.47
176.473
176.477
176.48
176.484
176.487
176.491
176.494
176.498
176.501
176.505
176.508
176.512
176.515
176.519
176.522
176.526
176.529
176.533
176.536
176.54
176.543
176.547
176.55
176.554
176.557
176.561
176.564
176.568
176.571
176.575
176.578
176.582
176.585
176.589
176.592
176.596
176.599
176.603
176.606
176.61
176.613
176.617
176.62
176.624
176.627
176.631
176.634
176.637
176.641
176.644
176.648
176.651
176.655
176.658
176.662
176.665
176.668
176.672
176.675
176.679
176.682
176.686
176.689
176.692
176.696
176.699
176.703
176.706
176.709
176.713
176.716
176.719
176.723
176.726
176.73
176.733
176.736
176.74
176.743
176.746
176.75
176.753
176.756
176.76
176.763
176.767
176.77
176.773
176.777
176.78
176.783
176.787
176.79
176.793
176.797
176.8
176.803
176.807
176.81
176.813
176.816
176.82
176.823
176.826
176.83
176.833
176.836
176.84
176.843
176.846
176.85
176.853
176.856
176.86
176.863
176.866
176.87
176.873
176.876
176.88
176.883
176.886
176.89
176.893
176.896
176.9
176.903
176.906
176.909
176.913
176.916
176.92
176.923
176.926
176.93
176.933
176.936
176.94
176.943
176.946
176.95
176.953
176.956
176.96
176.963
176.967
176.97
176.973
176.977
176.98
176.983
176.987
176.99
176.994
176.997
177
177.004
177.007
177.011
177.014
177.018
177.021
177.024
177.028
177.031
177.035
177.038
177.042
177.045
177.048
177.052
177.055
177.059
177.062
177.066
177.069
177.073
177.076
177.08
177.083
177.087
177.09
177.094
177.097
177.101
177.104
177.108
177.111
177.115
177.118
177.122
177.125
177.129
177.132
177.136
177.14
177.143
177.147
177.15
177.154
177.157
177.161
177.164
177.168
177.172
177.175
177.179
177.182
177.186
177.189
177.193
177.197
177.2
177.204
177.207
177.211
177.214
177.218
177.222
177.225
177.229
177.232
177.236
177.24
177.243
177.247
177.25
177.254
177.257
177.261
177.265
177.268
177.272
177.275
177.279
177.282
177.286
177.29
177.293
177.297
177.3
177.304
177.307
177.311
177.315
177.318
177.322
177.325
177.329
177.332
177.336
177.339
177.343
177.347
177.35
177.354
177.357
177.361
177.364
177.368
177.371
177.375
177.378
177.382
177.385
177.389
177.392
177.396
177.399
177.403
177.406
177.41
177.413
177.417
177.42
177.424
177.427
177.431
177.434
177.438
177.441
177.444
177.448
177.451
177.455
177.458
177.462
177.465
177.468
177.472
177.475
177.479
177.482
177.486
177.489
177.492
177.496
177.499
177.503
177.506
177.509
177.513
177.516
177.519
177.523
177.526
177.53
177.533
177.536
177.54
177.543
177.546
177.55
177.553
177.556
177.56
177.563
177.566
177.57
177.573
177.576
177.58
177.583
177.586
177.59
177.593
177.596
177.6
177.603
177.606
177.61
177.613
177.616
177.62
177.623
177.626
177.63
177.633
177.636
177.64
177.643
177.646
177.649
177.653
177.656
177.659
177.663
177.666
177.669
177.673
177.676
177.679
177.683
177.686
177.689
177.693
177.696
177.699
177.703
177.706
177.709
177.713
177.716
177.719
177.723
177.726
177.729
177.733
177.736
177.739
177.743
177.746
177.749
177.753
177.756
177.76
177.763
177.766
177.77
177.773
177.776
177.78
177.783
177.787
177.79
177.793
177.797
177.8
177.804
177.807
177.81
177.814
177.817
177.821
177.824
177.827
177.831
177.834
177.838
177.841
177.845
177.848
177.852
177.855
177.858
177.862
177.865
177.869
177.872
177.876
177.879
177.883
177.886
177.89
177.893
177.897
177.9
177.904
177.907
177.911
177.914
177.918
177.921
177.925
177.928
177.932
177.935
177.939
177.942
177.946
177.949
177.953
177.957
177.96
177.964
177.967
177.971
177.974
177.978
177.981
177.985
177.989
177.992
177.996
177.999
178.003
178.006
178.01
178.014
178.017
178.021
178.024
178.028
178.032
178.035
178.039
178.042
178.046
178.049
178.053
178.057
178.06
178.064
178.067
178.071
178.075
178.078
178.082
178.085
178.089
178.093
178.096
178.1
178.103
178.107
178.111
178.114
178.118
178.121
178.125
178.129
178.132
178.136
178.139
178.143
178.146
178.15
178.154
178.157
178.161
178.164
178.168
178.171
178.175
178.179
178.182
178.186
178.189
178.193
178.196
178.2
178.204
178.207
178.211
178.214
178.218
178.221
178.225
178.228
178.232
178.235
178.239
178.242
178.246
178.249
178.253
178.257
178.26
178.264
178.267
178.271
178.274
178.278
178.281
178.284
178.288
178.291
178.295
178.298
178.302
178.305
178.309
178.312
178.316
178.319
178.323
178.326
178.33
178.333
178.336
178.34
178.343
178.347
178.35
178.354
178.357
178.36
178.364
178.367
178.371
178.374
178.377
178.381
178.384
178.388
178.391
178.394
178.398
178.401
178.405
178.408
178.411
178.415
178.418
178.422
178.425
178.428
178.432
178.435
178.438
178.442
178.445
178.449
178.452
178.455
178.459
178.462
178.465
178.469
178.472
178.475
178.479
178.482
178.486
178.489
178.492
178.496
178.499
178.502
178.506
178.509
178.512
178.516
178.519
178.522
178.526
178.529
178.533
178.536
178.539
178.543
178.546
178.549
178.553
178.556
178.56
178.563
178.566
178.57
178.573
178.576
178.58
178.583
178.587
178.59
178.593
178.597
178.6
178.604
178.607
178.61
178.614
178.617
178.621
178.624
178.627
178.631
178.634
178.638
178.641
178.644
178.648
178.651
178.655
178.658
178.662
178.665
178.668
178.672
178.675
178.679
178.682
178.686
178.689
178.693
178.696
178.7
178.703
178.707
178.71
178.714
178.717
178.72
178.724
178.727
178.731
178.734
178.738
178.741
178.745
178.748
178.752
178.755
178.759
178.762
178.766
178.77
178.773
178.777
178.78
178.784
178.787
178.791
178.794
178.798
178.801
178.805
178.808
178.812
178.816
178.819
178.823
178.826
178.83
178.833
178.837
178.84
178.844
178.848
178.851
178.855
178.858
178.862
178.865
178.869
178.872
178.876
178.88
178.883
178.887
178.89
178.894
178.898
178.901
178.905
178.908
178.912
178.915
178.919
178.923
178.926
178.93
178.933
178.937
178.94
178.944
178.948
178.951
178.955
178.958
178.962
178.965
178.969
178.973
178.976
178.98
178.983
178.987
178.99
178.994
178.998
179.001
179.005
179.008
179.012
179.015
179.019
179.022
179.026
179.03
179.033
179.037
179.04
179.044
179.047
179.051
179.054
179.058
179.061
179.065
179.069
179.072
179.076
179.079
179.083
179.086
179.09
179.093
179.097
179.1
179.104
179.107
179.111
179.114
179.118
179.121
179.125
179.128
179.132
179.135
179.139
179.142
179.146
179.149
179.153
179.156
179.16
179.163
179.166
179.17
179.173
179.177
179.18
179.184
179.187
179.191
179.194
179.198
179.201
179.205
179.208
179.211
179.215
179.218
179.222
179.225
179.229
179.232
179.236
179.239
179.242
179.246
179.249
179.253
179.256
179.259
179.263
179.266
179.27
179.273
179.277
179.28
179.283
179.287
179.29
179.294
179.297
179.3
179.304
179.307
179.311
179.314
179.318
179.321
179.324
179.328
179.331
179.335
179.338
179.341
179.345
179.348
179.352
179.355
179.358
179.362
179.365
179.369
179.372
179.376
179.379
179.382
179.386
179.389
179.393
179.396
179.4
179.403
179.406
179.41
179.413
179.417
179.42
179.424
179.427
179.43
179.434
179.437
179.441
179.444
179.448
179.451
179.455
179.458
179.462
179.465
179.468
179.472
179.475
179.479
179.482
179.486
179.489
179.493
179.496
179.5
179.503
179.507
179.51
179.514
179.517
179.521
179.524
179.528
179.531
179.535
179.538
179.542
179.545
179.549
179.552
179.556
179.559
179.563
179.566
179.57
179.573
179.577
179.58
179.584
179.587
179.591
179.595
179.598
179.602
179.605
179.609
179.612