/*--------------------------------*- C++ -*----------------------------------*\
  =========                 |
  \\      /  F ield         | OpenFOAM: The Open Source CFD Toolbox
   \\    /   O peration     | Website:  https://openfoam.org
    \\  /    A nd           | Version:  9
     \\/     M anipulation  |
\*---------------------------------------------------------------------------*/
FoamFile
{
    format      ascii;
    class       volScalarField;
    location    "0.033";
    object      mag(U);
}
// * * * * * * * * * * * * * * * * * * * * * * * * * * * * * * * * * * * * * //

dimensions      [0 1 -1 0 0 0 0];

internalField   nonuniform List<scalar> 
1000
(
191.831
192.228
192.459
192.711
192.957
193.205
193.452
193.699
193.946
194.193
194.441
194.688
194.935
195.182
195.429
195.676
195.923
196.171
196.418
196.665
196.912
197.159
197.406
197.653
197.9
198.147
198.395
198.642
198.889
199.136
199.383
199.63
199.877
200.124
200.371
200.618
200.865
201.113
201.36
201.607
201.854
202.1
202.347
202.593
202.839
203.085
203.332
203.578
203.824
204.071
204.318
204.564
204.811
205.058
205.304
205.551
205.797
206.044
206.29
206.537
206.784
207.031
207.278
207.525
207.772
208.018
208.265
208.512
208.759
209.005
209.252
209.499
209.747
209.994
210.241
210.488
210.735
210.981
211.228
211.475
211.722
211.969
212.215
212.462
212.709
212.956
213.203
213.45
213.697
213.944
214.191
214.438
214.685
214.932
215.179
215.426
215.673
215.92
216.167
216.414
216.661
216.908
217.155
217.402
217.649
217.896
218.143
218.39
218.637
218.884
219.131
219.377
219.624
219.871
220.118
220.365
220.612
220.859
221.106
221.353
221.6
221.847
222.094
222.341
222.588
222.835
223.081
223.328
223.575
223.822
224.069
224.316
224.563
224.809
225.056
225.302
225.55
225.797
226.045
226.291
226.535
226.78
227.029
227.283
227.534
227.775
228.009
228.247
228.506
228.786
229.037
229.262
229.482
229.71
229.981
230.294
230.539
230.753
230.965
231.179
231.428
231.757
232.041
232.256
232.464
232.672
232.884
233.142
233.488
233.766
233.979
234.186
234.395
234.606
234.853
235.194
235.489
235.706
235.915
236.126
236.344
236.619
236.957
237.205
237.417
237.629
237.847
238.116
238.443
238.688
238.901
239.113
239.33
239.595
239.925
240.176
240.39
240.601
240.814
241.048
241.358
241.663
241.887
242.099
242.309
242.523
242.76
243.08
243.388
243.613
243.823
244.028
244.242
244.465
244.752
245.095
245.339
245.554
245.762
245.975
246.194
246.454
246.79
247.056
247.276
247.489
247.705
247.925
248.181
248.508
248.772
248.993
249.21
249.428
249.652
249.922
250.242
250.488
250.708
250.926
251.146
251.382
251.677
251.971
252.2
252.42
252.641
252.867
253.129
253.438
253.687
253.912
254.136
254.362
254.608
254.902
255.167
255.398
255.625
255.853
256.095
256.372
256.639
256.876
257.107
257.34
257.586
257.851
258.108
258.349
258.587
258.829
259.078
259.33
259.578
259.822
260.066
260.312
260.559
260.806
261.053
261.299
261.545
261.791
262.037
262.283
262.529
262.776
263.022
263.269
263.515
263.761
264.007
264.253
264.499
264.746
264.993
265.239
265.485
265.73
265.976
266.222
266.47
266.717
266.963
267.209
267.454
267.699
267.945
268.194
268.442
268.689
268.933
269.176
269.42
269.668
269.92
270.17
270.414
270.655
270.895
271.14
271.395
271.652
271.896
272.134
272.372
272.613
272.865
273.13
273.376
273.614
273.851
274.088
274.334
274.601
274.855
275.093
275.329
275.566
275.807
276.066
276.331
276.572
276.808
277.044
277.282
277.532
277.803
278.051
278.288
278.524
278.761
279.003
279.267
279.529
279.769
280.005
280.242
280.48
280.727
280.998
281.249
281.487
281.724
281.961
282.199
282.451
282.721
282.967
283.205
283.442
283.68
283.92
284.172
284.44
284.684
284.923
285.161
285.399
285.64
285.891
286.157
286.402
286.641
286.88
287.119
287.359
287.609
287.874
288.119
288.359
288.599
288.838
289.079
289.327
289.589
289.835
290.076
290.316
290.555
290.796
291.044
291.301
291.546
291.786
292.025
292.264
292.505
292.75
293.001
293.241
293.478
293.714
293.949
294.183
294.423
294.66
294.888
295.113
295.333
295.551
295.767
295.982
296.189
296.388
296.578
296.758
296.933
297.098
297.251
297.39
297.512
297.613
297.692
297.757
297.809
297.849
297.876
297.893
297.898
297.889
297.877
297.869
297.857
297.839
297.811
297.773
297.725
297.683
297.653
297.626
297.599
297.572
297.539
297.494
297.459
297.433
297.406
297.376
297.341
297.297
297.243
297.209
297.187
297.172
297.162
297.154
297.144
297.14
297.175
297.223
297.269
297.307
297.335
297.341
297.341
297.349
297.356
297.361
297.362
297.351
297.327
297.321
297.318
297.314
297.309
297.301
297.291
297.279
297.261
297.226
297.19
297.169
297.149
297.127
297.102
297.068
297.026
297.002
296.987
296.976
296.968
296.957
296.937
296.938
296.96
296.986
297.01
297.029
297.033
297.029
297.039
297.048
297.056
297.062
297.062
297.049
297.036
297.033
297.031
297.028
297.019
296.995
296.975
296.964
296.955
296.944
296.932
296.916
296.883
296.847
296.827
296.811
296.793
296.776
296.755
296.716
296.689
296.681
296.678
296.679
296.687
296.707
296.732
296.756
296.776
296.789
296.782
296.752
296.751
296.756
296.761
296.766
296.77
296.77
296.762
296.73
296.714
296.71
296.707
296.703
296.698
296.689
296.669
296.63
296.609
296.597
296.586
296.575
296.563
296.55
296.531
296.496
296.452
296.434
296.426
296.421
296.419
296.421
296.429
296.446
296.466
296.483
296.482
296.457
296.455
296.459
296.463
296.463
296.454
296.432
296.427
296.429
296.431
296.431
296.431
296.43
296.428
296.425
296.42
296.412
296.392
296.353
296.332
296.32
296.308
296.293
296.267
296.232
296.215
296.203
296.193
296.184
296.176
296.165
296.139
296.127
296.133
296.146
296.161
296.173
296.176
296.163
296.164
296.168
296.172
296.175
296.175
296.166
296.144
296.137
296.136
296.136
296.134
296.129
296.114
296.085
296.073
296.067
296.061
296.054
296.044
296.025
295.991
295.973
295.962
295.952
295.942
295.931
295.913
295.88
295.866
295.861
295.861
295.866
295.873
295.876
295.861
295.861
295.869
295.876
295.883
295.886
295.881
295.858
295.849
295.848
295.849
295.849
295.848
295.838
295.813
295.801
295.796
295.791
295.786
295.779
295.765
295.737
295.722
295.712
295.703
295.693
295.677
295.647
295.628
295.618
295.61
295.602
295.588
295.562
295.555
295.561
295.571
295.582
295.591
295.598
295.605
295.608
295.605
295.567
295.524
295.518
295.518
295.519
295.519
295.52
295.522
295.523
295.523
295.522
295.519
295.515
295.51
295.499
295.471
295.439
295.427
295.418
295.407
295.39
295.358
295.341
295.333
295.329
295.326
295.325
295.323
295.323
295.322
295.309
295.266
295.256
295.261
295.266
295.27
295.274
295.277
295.281
295.284
295.286
295.286
295.274
295.228
295.195
295.189
295.187
295.187
295.186
295.184
295.182
295.181
295.178
295.175
295.171
295.168
295.164
295.156
295.139
295.087
295.038
295.026
295.023
295.022
295.022
295.023
295.026
295.03
295.035
295.042
295.045
295.029
294.989
294.98
294.98
294.981
294.983
294.986
294.989
294.99
294.991
294.989
294.982
294.95
294.909
294.9
294.898
294.896
294.894
294.89
294.886
294.883
294.879
294.876
294.871
294.86
294.823
294.779
294.766
294.761
294.76
294.759
294.762
294.765
294.769
294.773
294.776
294.778
294.774
294.742
294.711
294.706
294.706
294.705
294.705
294.706
294.707
294.707
294.703
294.683
294.665
294.66
294.656
294.653
294.649
294.64
294.616
294.602
294.594
294.587
294.577
294.556
294.53
294.523
294.519
294.515
294.512
294.509
294.508
294.508
294.511
294.51
294.487
294.425
294.406
294.405
294.408
294.411
294.415
294.418
294.42
294.42
294.418
294.41
294.38
294.355
294.352
294.351
294.351
294.349
294.346
294.342
294.336
294.316
294.289
294.283
294.28
294.276
294.271
294.267
294.264
294.261
294.257
294.243
294.224
294.219
294.218
294.221
294.225
294.228
294.226
294.209
294.137
293.838
292.663
290
288.074
287.208
286.885
286.804
286.77
286.748
286.734
286.713
286.701
286.687
286.681
286.689
286.692
286.702
286.701
286.694
286.68
286.637
286.619
286.619
286.621
286.623
286.63
286.638
286.642
286.647
286.649
286.649
286.643
286.611
286.547
286.529
286.528
286.531
286.535
286.541
286.55
286.558
286.565
286.569
286.574
286.577
286.579
286.577
286.55
286.489
286.473
286.474
286.476
286.478
286.478
286.478
286.479
286.472
286.369
286.013
284.894
283.053
281.746
281.07
280.749
280.605
280.54
280.528
280.521
280.528
280.546
280.543
280.537
280.51
280.466
280.459
280.458
280.459
280.469
280.487
280.496
280.501
280.5
280.487
280.435
280.397
280.391
280.391
280.396
280.407
280.411
280.411
280.406
280.384
280.357
280.352
280.353
280.356
280.367
280.372
280.372
280.369
280.356
280.332
280.327
280.326
280.327
280.335
280.355
280.361
280.362
280.36
280.351
280.31
280.241
280.224
280.223
)
;

boundaryField
{
    sides
    {
        type            calculated;
        value           nonuniform List<scalar> 2(280.223 191.831);
    }
    empty
    {
        type            empty;
    }
}


// ************************************************************************* //
