/*--------------------------------*- C++ -*----------------------------------*\
  =========                 |
  \\      /  F ield         | OpenFOAM: The Open Source CFD Toolbox
   \\    /   O peration     | Website:  https://openfoam.org
    \\  /    A nd           | Version:  9
     \\/     M anipulation  |
\*---------------------------------------------------------------------------*/
FoamFile
{
    format      ascii;
    class       volScalarField;
    location    "0.033";
    object      T;
}
// * * * * * * * * * * * * * * * * * * * * * * * * * * * * * * * * * * * * * //

dimensions      [0 0 0 1 0 0 0];

internalField   nonuniform List<scalar> 
1000
(
285.553
285.417
285.334
285.245
285.158
285.07
284.983
284.895
284.807
284.72
284.632
284.545
284.457
284.37
284.282
284.195
284.108
284.02
283.933
283.845
283.758
283.671
283.583
283.496
283.409
283.321
283.234
283.147
283.059
282.972
282.885
282.798
282.71
282.623
282.536
282.449
282.362
282.274
282.187
282.1
282.013
281.926
281.839
281.752
281.665
281.579
281.492
281.405
281.318
281.231
281.144
281.058
280.971
280.884
280.797
280.71
280.624
280.537
280.45
280.363
280.276
280.189
280.103
280.016
279.929
279.842
279.755
279.669
279.582
279.495
279.408
279.322
279.235
279.148
279.061
278.974
278.888
278.801
278.715
278.628
278.541
278.455
278.368
278.282
278.195
278.108
278.022
277.935
277.849
277.762
277.676
277.589
277.503
277.416
277.33
277.243
277.157
277.07
276.984
276.897
276.811
276.725
276.638
276.552
276.465
276.379
276.293
276.206
276.12
276.034
275.948
275.861
275.775
275.689
275.602
275.516
275.43
275.344
275.258
275.171
275.085
274.999
274.913
274.827
274.741
274.655
274.569
274.482
274.396
274.31
274.224
274.138
274.052
273.966
273.88
273.794
273.708
273.623
273.537
273.451
273.364
273.277
273.192
273.109
273.024
272.937
272.847
272.758
272.676
272.602
272.517
272.424
272.33
272.239
272.161
272.097
272.01
271.913
271.817
271.722
271.636
271.579
271.504
271.407
271.309
271.211
271.116
271.032
270.982
270.904
270.807
270.708
270.611
270.516
270.429
270.376
270.304
270.209
270.111
270.014
269.921
269.844
269.789
269.702
269.606
269.51
269.416
269.337
269.278
269.191
269.095
268.999
268.905
268.825
268.768
268.682
268.586
268.49
268.395
268.305
268.242
268.174
268.081
267.984
267.887
267.793
267.704
267.644
267.577
267.484
267.388
267.289
267.194
267.102
267.03
266.976
266.889
266.794
266.697
266.601
266.509
266.427
266.372
266.292
266.198
266.102
266.008
265.916
265.833
265.775
265.695
265.601
265.507
265.413
265.322
265.244
265.184
265.098
265.004
264.911
264.818
264.73
264.662
264.591
264.501
264.407
264.315
264.224
264.144
264.079
263.994
263.902
263.81
263.72
263.634
263.565
263.486
263.396
263.306
263.216
263.129
263.055
262.978
262.89
262.801
262.712
262.627
262.549
262.468
262.382
262.295
262.209
262.125
262.042
261.959
261.873
261.788
261.704
261.619
261.535
261.451
261.366
261.282
261.197
261.113
261.028
260.944
260.859
260.775
260.691
260.606
260.522
260.437
260.352
260.268
260.183
260.099
260.014
259.929
259.844
259.758
259.673
259.588
259.503
259.417
259.33
259.244
259.157
259.071
258.985
258.899
258.813
258.726
258.639
258.553
258.468
258.384
258.301
258.216
258.13
258.044
257.961
257.881
257.802
257.718
257.634
257.549
257.465
257.385
257.308
257.226
257.141
257.055
256.969
256.886
256.81
256.729
256.643
256.556
256.469
256.384
256.305
256.228
256.143
256.056
255.97
255.885
255.803
255.728
255.646
255.56
255.474
255.389
255.304
255.227
255.15
255.065
254.979
254.893
254.808
254.725
254.65
254.569
254.484
254.398
254.312
254.227
254.146
254.071
253.989
253.904
253.818
253.733
253.649
253.568
253.492
253.409
253.325
253.239
253.155
253.07
252.99
252.914
252.831
252.746
252.662
252.577
252.493
252.412
252.336
252.254
252.17
252.085
252.001
251.918
251.836
251.76
251.678
251.594
251.511
251.427
251.344
251.263
251.185
251.103
251.021
250.938
250.855
250.773
250.693
250.615
250.534
250.453
250.371
250.291
250.211
250.134
250.058
249.98
249.904
249.827
249.753
249.68
249.611
249.542
249.475
249.409
249.345
249.285
249.23
249.178
249.131
249.089
249.052
249.019
248.993
248.973
248.958
248.947
248.939
248.932
248.926
248.923
248.922
248.924
248.927
248.933
248.941
248.945
248.95
248.957
248.964
248.971
248.977
248.982
248.983
248.986
248.993
249
249.008
249.017
249.024
249.026
249.031
249.037
249.041
249.044
249.044
249.038
249.024
249.01
248.994
248.979
248.966
248.954
248.94
248.929
248.923
248.919
248.917
248.914
248.908
248.9
248.897
248.898
248.899
248.9
248.903
248.906
248.909
248.911
248.908
248.906
248.909
248.915
248.921
248.926
248.929
248.928
248.931
248.935
248.938
248.939
248.937
248.929
248.922
248.913
248.904
248.896
248.887
248.876
248.864
248.858
248.854
248.851
248.848
248.845
248.839
248.833
248.832
248.831
248.83
248.829
248.823
248.82
248.821
248.823
248.826
248.828
248.83
248.826
248.823
248.825
248.83
248.835
248.839
248.841
248.835
248.832
248.833
248.833
248.833
248.831
248.826
248.818
248.811
248.803
248.797
248.786
248.77
248.764
248.761
248.759
248.757
248.755
248.753
248.75
248.739
248.735
248.734
248.734
248.735
248.736
248.737
248.735
248.728
248.727
248.73
248.733
248.736
248.739
248.743
248.746
248.743
248.737
248.738
248.74
248.741
248.742
248.742
248.739
248.734
248.727
248.719
248.707
248.69
248.682
248.678
248.675
248.672
248.667
248.657
248.653
248.651
248.651
248.651
248.651
248.651
248.652
248.653
248.654
248.654
248.652
248.644
248.643
248.644
248.646
248.647
248.645
248.641
248.642
248.645
248.648
248.65
248.651
248.65
248.642
248.637
248.633
248.628
248.623
248.617
248.609
248.597
248.591
248.588
248.586
248.584
248.582
248.578
248.569
248.565
248.564
248.563
248.563
248.562
248.559
248.552
248.551
248.551
248.552
248.554
248.555
248.553
248.547
248.547
248.549
248.551
248.554
248.556
248.555
248.548
248.546
248.546
248.545
248.543
248.539
248.532
248.52
248.513
248.509
248.506
248.503
248.5
248.495
248.486
248.482
248.481
248.48
248.479
248.477
248.474
248.466
248.463
248.463
248.464
248.465
248.465
248.463
248.457
248.456
248.457
248.458
248.46
248.46
248.455
248.454
248.454
248.455
248.455
248.452
248.444
248.441
248.438
248.435
248.431
248.428
248.426
248.424
248.421
248.416
248.401
248.385
248.381
248.38
248.379
248.379
248.379
248.379
248.379
248.379
248.379
248.38
248.381
248.382
248.381
248.374
248.366
248.365
248.365
248.366
248.365
248.359
248.358
248.359
248.36
248.361
248.361
248.362
248.361
248.359
248.35
248.33
248.321
248.318
248.316
248.314
248.313
248.312
248.311
248.31
248.309
248.307
248.303
248.288
248.278
248.276
248.276
248.276
248.276
248.277
248.278
248.281
248.282
248.284
248.285
248.286
248.287
248.287
248.286
248.274
248.261
248.26
248.26
248.261
248.261
248.26
248.259
248.258
248.256
248.253
248.249
248.24
248.225
248.22
248.219
248.218
248.217
248.216
248.215
248.215
248.214
248.214
248.212
248.202
248.191
248.188
248.188
248.189
248.19
248.191
248.192
248.193
248.194
248.195
248.195
248.194
248.185
248.175
248.174
248.174
248.175
248.175
248.174
248.173
248.171
248.17
248.168
248.166
248.161
248.147
248.135
248.132
248.131
248.13
248.13
248.13
248.129
248.128
248.125
248.119
248.114
248.113
248.113
248.113
248.112
248.11
248.104
248.101
248.101
248.101
248.1
248.096
248.089
248.088
248.089
248.09
248.091
248.092
248.092
248.092
248.09
248.087
248.077
248.055
248.047
248.045
248.044
248.043
248.041
248.04
248.04
248.039
248.039
248.036
248.027
248.018
248.017
248.016
248.016
248.017
248.017
248.018
248.017
248.011
248.002
248.001
248.001
248.002
248.003
248.005
248.006
248.006
248.006
248.003
247.998
247.997
247.997
247.996
247.995
247.993
247.994
247.998
248.017
248.098
248.441
249.243
249.909
250.086
250.196
250.296
250.32
250.313
250.284
250.25
250.242
250.247
250.269
250.282
250.282
250.275
250.257
250.247
250.247
250.246
250.247
250.248
250.246
250.238
250.234
250.236
250.24
250.248
250.251
250.25
250.243
250.223
250.202
250.198
250.199
250.202
250.202
250.202
250.2
250.198
250.199
250.199
250.202
250.203
250.201
250.196
250.181
250.159
250.154
250.153
250.153
250.153
250.152
250.153
250.159
250.179
250.217
250.332
250.688
251.269
251.694
251.904
251.951
251.977
252.012
252.039
252.04
252.037
252.031
252.021
252.021
252.023
252.018
252.016
252.013
252.005
252.003
252.009
252.019
252.025
252.026
252.021
251.997
251.982
251.981
251.983
251.989
251.993
251.994
251.991
251.987
251.979
251.973
251.973
251.975
251.976
251.978
251.978
251.978
251.977
251.974
251.967
251.965
251.963
251.962
251.962
251.968
251.972
251.974
251.975
251.973
251.96
251.936
251.931
251.93
)
;

boundaryField
{
    sides
    {
        type            zeroGradient;
    }
    empty
    {
        type            empty;
    }
}


// ************************************************************************* //
