/*--------------------------------*- C++ -*----------------------------------*\
  =========                 |
  \\      /  F ield         | OpenFOAM: The Open Source CFD Toolbox
   \\    /   O peration     | Website:  https://openfoam.org
    \\  /    A nd           | Version:  9
     \\/     M anipulation  |
\*---------------------------------------------------------------------------*/
FoamFile
{
    format      ascii;
    class       volScalarField;
    location    "0.015";
    object      rho;
}
// * * * * * * * * * * * * * * * * * * * * * * * * * * * * * * * * * * * * * //

dimensions      [1 -3 0 0 0 0 0];

internalField   nonuniform List<scalar> 
10000
(
0.824225
0.824212
0.82421
0.824208
0.824207
0.824206
0.824205
0.824204
0.824203
0.824202
0.824201
0.8242
0.824199
0.824198
0.824196
0.824195
0.824194
0.824193
0.824192
0.82419
0.824189
0.824188
0.824187
0.824185
0.824184
0.824183
0.824181
0.82418
0.824179
0.824177
0.824176
0.824174
0.824173
0.824171
0.82417
0.824168
0.824167
0.824165
0.824164
0.824162
0.824161
0.824159
0.824157
0.824156
0.824154
0.824152
0.824151
0.824149
0.824147
0.824146
0.824144
0.824142
0.82414
0.824138
0.824137
0.824135
0.824133
0.824131
0.824129
0.824127
0.824125
0.824123
0.824121
0.824119
0.824117
0.824115
0.824113
0.824111
0.824109
0.824107
0.824105
0.824103
0.824101
0.824099
0.824097
0.824094
0.824092
0.82409
0.824088
0.824085
0.824083
0.824081
0.824079
0.824076
0.824074
0.824072
0.824069
0.824067
0.824064
0.824062
0.82406
0.824057
0.824055
0.824052
0.82405
0.824047
0.824045
0.824042
0.824039
0.824037
0.824034
0.824032
0.824029
0.824026
0.824024
0.824021
0.824018
0.824016
0.824013
0.82401
0.824007
0.824004
0.824002
0.823999
0.823996
0.823993
0.82399
0.823987
0.823984
0.823981
0.823978
0.823975
0.823972
0.823969
0.823966
0.823963
0.82396
0.823957
0.823954
0.823951
0.823948
0.823945
0.823942
0.823938
0.823935
0.823932
0.823929
0.823925
0.823922
0.823919
0.823916
0.823912
0.823909
0.823906
0.823902
0.823899
0.823895
0.823892
0.823888
0.823885
0.823882
0.823878
0.823874
0.823871
0.823867
0.823864
0.82386
0.823857
0.823853
0.823849
0.823846
0.823842
0.823838
0.823834
0.823831
0.823827
0.823823
0.823819
0.823816
0.823812
0.823808
0.823804
0.8238
0.823796
0.823792
0.823788
0.823784
0.82378
0.823776
0.823772
0.823768
0.823764
0.82376
0.823756
0.823752
0.823748
0.823744
0.82374
0.823735
0.823731
0.823727
0.823723
0.823718
0.823714
0.82371
0.823705
0.823701
0.823697
0.823692
0.823688
0.823684
0.823679
0.823675
0.82367
0.823666
0.823661
0.823657
0.823652
0.823648
0.823643
0.823638
0.823634
0.823629
0.823624
0.82362
0.823615
0.82361
0.823606
0.823601
0.823596
0.823591
0.823586
0.823581
0.823577
0.823572
0.823567
0.823562
0.823557
0.823552
0.823547
0.823542
0.823537
0.823532
0.823527
0.823522
0.823517
0.823511
0.823506
0.823501
0.823496
0.823491
0.823486
0.82348
0.823475
0.82347
0.823464
0.823459
0.823454
0.823448
0.823443
0.823438
0.823432
0.823427
0.823421
0.823416
0.82341
0.823405
0.823399
0.823393
0.823388
0.823382
0.823377
0.823371
0.823365
0.823359
0.823354
0.823348
0.823342
0.823336
0.823331
0.823325
0.823319
0.823313
0.823307
0.823301
0.823295
0.823289
0.823283
0.823277
0.823271
0.823265
0.823259
0.823253
0.823247
0.82324
0.823234
0.823228
0.823222
0.823216
0.823209
0.823203
0.823197
0.82319
0.823184
0.823178
0.823171
0.823165
0.823158
0.823152
0.823145
0.823139
0.823132
0.823126
0.823119
0.823112
0.823106
0.823099
0.823092
0.823086
0.823079
0.823072
0.823065
0.823058
0.823052
0.823045
0.823038
0.823031
0.823024
0.823017
0.82301
0.823003
0.822996
0.822989
0.822982
0.822975
0.822967
0.82296
0.822953
0.822946
0.822939
0.822931
0.822924
0.822917
0.822909
0.822902
0.822894
0.822887
0.822879
0.822872
0.822864
0.822857
0.822849
0.822842
0.822834
0.822826
0.822819
0.822811
0.822803
0.822795
0.822788
0.82278
0.822772
0.822764
0.822756
0.822748
0.82274
0.822732
0.822724
0.822716
0.822708
0.8227
0.822692
0.822684
0.822675
0.822667
0.822659
0.822651
0.822642
0.822634
0.822625
0.822617
0.822609
0.8226
0.822592
0.822583
0.822574
0.822566
0.822557
0.822549
0.82254
0.822531
0.822522
0.822513
0.822505
0.822496
0.822487
0.822478
0.822469
0.82246
0.822451
0.822442
0.822433
0.822424
0.822414
0.822405
0.822396
0.822387
0.822377
0.822368
0.822359
0.822349
0.82234
0.82233
0.822321
0.822311
0.822301
0.822292
0.822282
0.822272
0.822263
0.822253
0.822243
0.822233
0.822223
0.822213
0.822203
0.822193
0.822183
0.822173
0.822163
0.822153
0.822142
0.822132
0.822122
0.822111
0.822101
0.822091
0.82208
0.82207
0.822059
0.822048
0.822038
0.822027
0.822016
0.822005
0.821995
0.821984
0.821973
0.821962
0.821951
0.82194
0.821929
0.821917
0.821906
0.821895
0.821884
0.821872
0.821861
0.821849
0.821838
0.821826
0.821815
0.821803
0.821791
0.82178
0.821768
0.821756
0.821744
0.821732
0.82172
0.821708
0.821696
0.821684
0.821672
0.821659
0.821647
0.821635
0.821622
0.82161
0.821597
0.821584
0.821572
0.821559
0.821546
0.821533
0.82152
0.821507
0.821494
0.821481
0.821468
0.821455
0.821442
0.821428
0.821415
0.821401
0.821388
0.821374
0.82136
0.821347
0.821333
0.821319
0.821305
0.821291
0.821277
0.821263
0.821248
0.821234
0.82122
0.821205
0.821191
0.821176
0.821161
0.821147
0.821132
0.821117
0.821102
0.821087
0.821072
0.821056
0.821041
0.821026
0.82101
0.820994
0.820979
0.820963
0.820947
0.820931
0.820915
0.820899
0.820883
0.820867
0.82085
0.820834
0.820817
0.820801
0.820784
0.820767
0.82075
0.820733
0.820716
0.820698
0.820681
0.820664
0.820646
0.820628
0.820611
0.820593
0.820575
0.820557
0.820538
0.82052
0.820502
0.820483
0.820464
0.820445
0.820427
0.820407
0.820388
0.820369
0.82035
0.82033
0.82031
0.820291
0.820271
0.820251
0.82023
0.82021
0.82019
0.820169
0.820148
0.820127
0.820106
0.820085
0.820064
0.820042
0.820021
0.819999
0.819977
0.819955
0.819933
0.81991
0.819888
0.819865
0.819842
0.819819
0.819796
0.819772
0.819749
0.819725
0.819701
0.819677
0.819652
0.819628
0.819603
0.819578
0.819553
0.819528
0.819503
0.819477
0.819451
0.819425
0.819399
0.819372
0.819346
0.819319
0.819292
0.819264
0.819237
0.819209
0.819181
0.819153
0.819124
0.819095
0.819066
0.819037
0.819008
0.818978
0.818948
0.818918
0.818887
0.818857
0.818826
0.818794
0.818763
0.818731
0.818699
0.818667
0.818634
0.818601
0.818568
0.818534
0.8185
0.818466
0.818432
0.818397
0.818362
0.818326
0.818291
0.818255
0.818218
0.818182
0.818144
0.818107
0.818069
0.818031
0.817993
0.817954
0.817915
0.817875
0.817835
0.817795
0.817754
0.817713
0.817671
0.81763
0.817587
0.817544
0.817501
0.817458
0.817414
0.817369
0.817325
0.817279
0.817234
0.817188
0.817141
0.817094
0.817046
0.816998
0.81695
0.816901
0.816852
0.816802
0.816751
0.8167
0.816649
0.816597
0.816545
0.816492
0.816438
0.816384
0.81633
0.816275
0.816219
0.816163
0.816107
0.816049
0.815992
0.815933
0.815874
0.815815
0.815755
0.815694
0.815633
0.815571
0.815509
0.815446
0.815382
0.815318
0.815253
0.815188
0.815122
0.815055
0.814988
0.81492
0.814851
0.814782
0.814712
0.814642
0.814571
0.814499
0.814427
0.814353
0.81428
0.814205
0.81413
0.814055
0.813978
0.813901
0.813824
0.813745
0.813666
0.813587
0.813506
0.813425
0.813344
0.813261
0.813178
0.813095
0.81301
0.812925
0.81284
0.812753
0.812667
0.812579
0.812491
0.812402
0.812312
0.812222
0.812131
0.812039
0.811947
0.811854
0.811761
0.811667
0.811572
0.811477
0.811381
0.811285
0.811187
0.81109
0.810991
0.810892
0.810793
0.810693
0.810592
0.810491
0.810389
0.810287
0.810184
0.81008
0.809976
0.809872
0.809767
0.809661
0.809555
0.809449
0.809342
0.809234
0.809126
0.809018
0.808909
0.8088
0.80869
0.80858
0.808469
0.808358
0.808246
0.808134
0.808022
0.80791
0.807796
0.807683
0.807569
0.807455
0.807341
0.807226
0.807111
0.806995
0.80688
0.806764
0.806647
0.806531
0.806414
0.806297
0.806179
0.806062
0.805944
0.805825
0.805707
0.805588
0.80547
0.80535
0.805231
0.805112
0.804992
0.804872
0.804752
0.804632
0.804512
0.804391
0.804271
0.80415
0.804029
0.803908
0.803787
0.803665
0.803544
0.803422
0.803301
0.803179
0.803057
0.802935
0.802813
0.802691
0.802568
0.802446
0.802324
0.802201
0.802079
0.801956
0.801834
0.801711
0.801588
0.801465
0.801342
0.801219
0.801097
0.800974
0.800851
0.800727
0.800604
0.800481
0.800358
0.800235
0.800112
0.799988
0.799865
0.799742
0.799619
0.799495
0.799372
0.799249
0.799125
0.799002
0.798879
0.798755
0.798632
0.798509
0.798385
0.798262
0.798138
0.798015
0.797892
0.797768
0.797645
0.797522
0.797398
0.797275
0.797152
0.797028
0.796905
0.796782
0.796658
0.796535
0.796412
0.796288
0.796165
0.796042
0.795918
0.795795
0.795672
0.795549
0.795425
0.795302
0.795179
0.795056
0.794932
0.794809
0.794686
0.794563
0.79444
0.794317
0.794194
0.79407
0.793947
0.793824
0.793701
0.793578
0.793455
0.793332
0.793209
0.793086
0.792963
0.79284
0.792717
0.792594
0.792471
0.792348
0.792226
0.792103
0.79198
0.791857
0.791734
0.791611
0.791488
0.791366
0.791243
0.79112
0.790997
0.790875
0.790752
0.790629
0.790507
0.790384
0.790261
0.790139
0.790016
0.789893
0.789771
0.789648
0.789526
0.789403
0.78928
0.789158
0.789035
0.788913
0.78879
0.788668
0.788545
0.788423
0.788301
0.788178
0.788056
0.787933
0.787811
0.787689
0.787566
0.787444
0.787322
0.7872
0.787077
0.786955
0.786833
0.786711
0.786588
0.786466
0.786344
0.786222
0.7861
0.785977
0.785855
0.785733
0.785611
0.785489
0.785367
0.785245
0.785123
0.785001
0.784879
0.784757
0.784635
0.784513
0.784391
0.784269
0.784147
0.784025
0.783903
0.783782
0.78366
0.783538
0.783416
0.783294
0.783173
0.783051
0.782929
0.782807
0.782686
0.782564
0.782442
0.78232
0.782199
0.782077
0.781955
0.781834
0.781712
0.781591
0.781469
0.781347
0.781226
0.781104
0.780983
0.780861
0.78074
0.780618
0.780497
0.780375
0.780254
0.780133
0.780011
0.77989
0.779768
0.779647
0.779526
0.779404
0.779283
0.779162
0.779041
0.778919
0.778798
0.778677
0.778556
0.778434
0.778313
0.778192
0.778071
0.77795
0.777829
0.777708
0.777586
0.777465
0.777344
0.777223
0.777102
0.776981
0.77686
0.776739
0.776618
0.776497
0.776376
0.776255
0.776134
0.776013
0.775893
0.775772
0.775651
0.77553
0.775409
0.775288
0.775168
0.775047
0.774926
0.774805
0.774685
0.774564
0.774443
0.774322
0.774202
0.774081
0.77396
0.77384
0.773719
0.773599
0.773478
0.773357
0.773237
0.773116
0.772996
0.772875
0.772755
0.772634
0.772514
0.772393
0.772273
0.772152
0.772032
0.771912
0.771791
0.771671
0.771551
0.77143
0.77131
0.77119
0.771069
0.770949
0.770829
0.770708
0.770588
0.770468
0.770348
0.770228
0.770107
0.769987
0.769867
0.769747
0.769627
0.769507
0.769387
0.769267
0.769147
0.769027
0.768907
0.768787
0.768667
0.768547
0.768427
0.768307
0.768187
0.768067
0.767947
0.767827
0.767707
0.767587
0.767467
0.767348
0.767228
0.767108
0.766988
0.766868
0.766749
0.766629
0.766509
0.76639
0.76627
0.76615
0.76603
0.765911
0.765791
0.765672
0.765552
0.765432
0.765313
0.765193
0.765074
0.764954
0.764835
0.764715
0.764596
0.764476
0.764357
0.764237
0.764118
0.763998
0.763879
0.76376
0.76364
0.763521
0.763402
0.763282
0.763163
0.763044
0.762924
0.762805
0.762686
0.762567
0.762447
0.762328
0.762209
0.76209
0.761971
0.761852
0.761732
0.761613
0.761494
0.761375
0.761256
0.761137
0.761018
0.760899
0.76078
0.760661
0.760542
0.760423
0.760304
0.760185
0.760066
0.759947
0.759828
0.759709
0.759591
0.759472
0.759353
0.759234
0.759115
0.758996
0.758878
0.758759
0.75864
0.758521
0.758403
0.758284
0.758165
0.758047
0.757928
0.757809
0.757691
0.757572
0.757454
0.757335
0.757216
0.757098
0.756979
0.756861
0.756742
0.756624
0.756505
0.756387
0.756268
0.75615
0.756032
0.755913
0.755795
0.755676
0.755558
0.75544
0.755321
0.755203
0.755085
0.754966
0.754848
0.75473
0.754612
0.754493
0.754375
0.754257
0.754139
0.754021
0.753902
0.753784
0.753666
0.753548
0.75343
0.753312
0.753194
0.753076
0.752958
0.75284
0.752722
0.752604
0.752486
0.752368
0.75225
0.752132
0.752014
0.751896
0.751778
0.75166
0.751542
0.751425
0.751307
0.751189
0.751071
0.750953
0.750836
0.750718
0.7506
0.750482
0.750365
0.750247
0.750129
0.750012
0.749894
0.749776
0.749659
0.749541
0.749424
0.749306
0.749188
0.749071
0.748953
0.748836
0.748718
0.748601
0.748483
0.748366
0.748248
0.748131
0.748014
0.747896
0.747779
0.747661
0.747544
0.747427
0.747309
0.747192
0.747075
0.746957
0.74684
0.746723
0.746606
0.746488
0.746371
0.746254
0.746137
0.74602
0.745902
0.745785
0.745668
0.745551
0.745434
0.745317
0.7452
0.745083
0.744966
0.744849
0.744732
0.744615
0.744498
0.744381
0.744264
0.744147
0.74403
0.743913
0.743796
0.743679
0.743563
0.743446
0.743329
0.743212
0.743095
0.742978
0.742862
0.742745
0.742628
0.742511
0.742395
0.742278
0.742161
0.742045
0.741928
0.741811
0.741695
0.741578
0.741462
0.741345
0.741228
0.741112
0.740995
0.740879
0.740762
0.740646
0.740529
0.740413
0.740296
0.74018
0.740063
0.739947
0.739831
0.739714
0.739598
0.739482
0.739365
0.739249
0.739133
0.739016
0.7389
0.738784
0.738668
0.738551
0.738435
0.738319
0.738203
0.738087
0.73797
0.737854
0.737738
0.737622
0.737506
0.73739
0.737274
0.737158
0.737042
0.736926
0.73681
0.736694
0.736578
0.736462
0.736346
0.73623
0.736114
0.735998
0.735882
0.735766
0.73565
0.735534
0.735419
0.735303
0.735187
0.735071
0.734955
0.73484
0.734724
0.734608
0.734492
0.734377
0.734261
0.734145
0.73403
0.733914
0.733798
0.733683
0.733567
0.733452
0.733336
0.73322
0.733105
0.732989
0.732874
0.732758
0.732643
0.732527
0.732412
0.732297
0.732181
0.732066
0.73195
0.731835
0.73172
0.731604
0.731489
0.731373
0.731258
0.731143
0.731028
0.730912
0.730797
0.730682
0.730567
0.730451
0.730336
0.730221
0.730106
0.729991
0.729876
0.72976
0.729645
0.72953
0.729415
0.7293
0.729185
0.72907
0.728955
0.72884
0.728725
0.72861
0.728495
0.72838
0.728265
0.72815
0.728035
0.72792
0.727806
0.727691
0.727576
0.727461
0.727346
0.727231
0.727117
0.727002
0.726887
0.726772
0.726658
0.726543
0.726428
0.726313
0.726199
0.726084
0.725969
0.725855
0.72574
0.725626
0.725511
0.725396
0.725282
0.725167
0.725053
0.724938
0.724824
0.724709
0.724595
0.72448
0.724366
0.724252
0.724137
0.724023
0.723908
0.723794
0.72368
0.723565
0.723451
0.723337
0.723222
0.723108
0.722994
0.722879
0.722765
0.722651
0.722537
0.722423
0.722308
0.722194
0.72208
0.721966
0.721852
0.721738
0.721624
0.72151
0.721396
0.721281
0.721167
0.721053
0.720939
0.720825
0.720711
0.720597
0.720483
0.72037
0.720256
0.720142
0.720028
0.719914
0.7198
0.719686
0.719572
0.719459
0.719345
0.719231
0.719117
0.719003
0.71889
0.718776
0.718662
0.718549
0.718435
0.718321
0.718207
0.718094
0.71798
0.717867
0.717753
0.717639
0.717526
0.717412
0.717299
0.717185
0.717072
0.716958
0.716845
0.716731
0.716618
0.716504
0.716391
0.716277
0.716164
0.716051
0.715937
0.715824
0.715711
0.715597
0.715484
0.715371
0.715257
0.715144
0.715031
0.714918
0.714804
0.714691
0.714578
0.714465
0.714351
0.714238
0.714125
0.714012
0.713899
0.713786
0.713673
0.71356
0.713447
0.713334
0.713221
0.713108
0.712995
0.712882
0.712769
0.712656
0.712543
0.71243
0.712317
0.712204
0.712091
0.711978
0.711865
0.711752
0.71164
0.711527
0.711414
0.711301
0.711188
0.711076
0.710963
0.71085
0.710738
0.710625
0.710512
0.710399
0.710287
0.710174
0.710062
0.709949
0.709836
0.709724
0.709611
0.709499
0.709386
0.709274
0.709161
0.709049
0.708936
0.708824
0.708711
0.708599
0.708486
0.708374
0.708261
0.708149
0.708037
0.707924
0.707812
0.7077
0.707587
0.707475
0.707363
0.70725
0.707138
0.707026
0.706914
0.706801
0.706689
0.706577
0.706465
0.706353
0.706241
0.706129
0.706016
0.705904
0.705792
0.70568
0.705568
0.705456
0.705344
0.705232
0.70512
0.705008
0.704896
0.704784
0.704672
0.70456
0.704448
0.704336
0.704225
0.704113
0.704001
0.703889
0.703777
0.703665
0.703553
0.703442
0.70333
0.703218
0.703106
0.702995
0.702883
0.702771
0.70266
0.702548
0.702436
0.702325
0.702213
0.702101
0.70199
0.701878
0.701767
0.701655
0.701544
0.701432
0.70132
0.701209
0.701097
0.700986
0.700875
0.700763
0.700652
0.70054
0.700429
0.700317
0.700206
0.700095
0.699983
0.699872
0.699761
0.699649
0.699538
0.699427
0.699316
0.699204
0.699093
0.698982
0.698871
0.69876
0.698648
0.698537
0.698426
0.698315
0.698204
0.698093
0.697982
0.697871
0.697759
0.697648
0.697537
0.697426
0.697315
0.697204
0.697093
0.696982
0.696871
0.696761
0.69665
0.696539
0.696428
0.696317
0.696206
0.696095
0.695984
0.695874
0.695763
0.695652
0.695541
0.69543
0.69532
0.695209
0.695098
0.694988
0.694877
0.694766
0.694655
0.694545
0.694434
0.694324
0.694213
0.694102
0.693992
0.693881
0.693771
0.69366
0.69355
0.693439
0.693329
0.693218
0.693108
0.692997
0.692887
0.692776
0.692666
0.692556
0.692445
0.692335
0.692224
0.692114
0.692004
0.691893
0.691783
0.691673
0.691563
0.691452
0.691342
0.691232
0.691122
0.691011
0.690901
0.690791
0.690681
0.690571
0.690461
0.690351
0.69024
0.69013
0.69002
0.68991
0.6898
0.68969
0.68958
0.68947
0.68936
0.68925
0.68914
0.68903
0.68892
0.68881
0.688701
0.688591
0.688481
0.688371
0.688261
0.688151
0.688041
0.687932
0.687822
0.687712
0.687602
0.687492
0.687383
0.687273
0.687163
0.687054
0.686944
0.686834
0.686725
0.686615
0.686505
0.686396
0.686286
0.686177
0.686067
0.685957
0.685848
0.685738
0.685629
0.685519
0.68541
0.6853
0.685191
0.685082
0.684972
0.684863
0.684753
0.684644
0.684535
0.684425
0.684316
0.684207
0.684097
0.683988
0.683879
0.683769
0.68366
0.683551
0.683442
0.683332
0.683223
0.683114
0.683005
0.682896
0.682787
0.682677
0.682568
0.682459
0.68235
0.682241
0.682132
0.682023
0.681914
0.681805
0.681696
0.681587
0.681478
0.681369
0.68126
0.681151
0.681042
0.680933
0.680824
0.680715
0.680607
0.680498
0.680389
0.68028
0.680171
0.680062
0.679954
0.679845
0.679736
0.679627
0.679519
0.67941
0.679301
0.679193
0.679084
0.678975
0.678867
0.678758
0.678649
0.678541
0.678432
0.678324
0.678215
0.678107
0.677998
0.67789
0.677781
0.677673
0.677564
0.677456
0.677347
0.677239
0.67713
0.677022
0.676913
0.676805
0.676697
0.676588
0.67648
0.676372
0.676263
0.676155
0.676047
0.675939
0.67583
0.675722
0.675614
0.675506
0.675397
0.675289
0.675181
0.675073
0.674965
0.674857
0.674749
0.67464
0.674532
0.674424
0.674316
0.674208
0.6741
0.673992
0.673884
0.673776
0.673668
0.67356
0.673452
0.673344
0.673236
0.673129
0.673021
0.672913
0.672805
0.672697
0.672589
0.672481
0.672374
0.672266
0.672158
0.67205
0.671943
0.671835
0.671727
0.671619
0.671512
0.671404
0.671296
0.671189
0.671081
0.670973
0.670866
0.670758
0.670651
0.670543
0.670435
0.670328
0.67022
0.670113
0.670005
0.669898
0.66979
0.669683
0.669576
0.669468
0.669361
0.669253
0.669146
0.669038
0.668931
0.668824
0.668716
0.668609
0.668502
0.668395
0.668287
0.66818
0.668073
0.667965
0.667858
0.667751
0.667644
0.667537
0.667429
0.667322
0.667215
0.667108
0.667001
0.666894
0.666787
0.66668
0.666573
0.666466
0.666359
0.666252
0.666145
0.666038
0.665931
0.665824
0.665717
0.66561
0.665503
0.665396
0.665289
0.665182
0.665075
0.664968
0.664862
0.664755
0.664648
0.664541
0.664434
0.664328
0.664221
0.664114
0.664007
0.663901
0.663794
0.663687
0.663581
0.663474
0.663367
0.663261
0.663154
0.663047
0.662941
0.662834
0.662728
0.662621
0.662515
0.662408
0.662302
0.662195
0.662089
0.661982
0.661876
0.661769
0.661663
0.661556
0.66145
0.661344
0.661237
0.661131
0.661025
0.660918
0.660812
0.660706
0.660599
0.660493
0.660387
0.660281
0.660174
0.660068
0.659962
0.659856
0.659749
0.659643
0.659537
0.659431
0.659325
0.659219
0.659113
0.659007
0.658901
0.658794
0.658688
0.658582
0.658476
0.65837
0.658264
0.658158
0.658053
0.657947
0.657841
0.657735
0.657629
0.657523
0.657417
0.657311
0.657205
0.6571
0.656994
0.656888
0.656782
0.656676
0.65657
0.656465
0.656359
0.656254
0.656148
0.656043
0.655938
0.655833
0.655728
0.655624
0.65552
0.655417
0.655313
0.655209
0.655105
0.655
0.654893
0.654786
0.654678
0.654571
0.654463
0.654357
0.654251
0.654146
0.654041
0.653938
0.653836
0.653735
0.653636
0.65354
0.653446
0.653354
0.653264
0.653177
0.65309
0.653001
0.652909
0.65281
0.652703
0.65259
0.652472
0.652352
0.652234
0.652118
0.652004
0.651893
0.651784
0.651677
0.651573
0.651473
0.651375
0.651282
0.651191
0.651104
0.65102
0.65094
0.650861
0.650784
0.650707
0.650626
0.650539
0.650444
0.650341
0.65023
0.650113
0.649992
0.649869
0.649747
0.649626
0.649507
0.64939
0.649275
0.649162
0.64905
0.648941
0.648835
0.64873
0.648628
0.648528
0.648431
0.648336
0.648243
0.648152
0.648063
0.647975
0.647889
0.647803
0.647717
0.64763
0.64754
0.647446
0.647347
0.647243
0.647133
0.64702
0.646904
0.646786
0.646668
0.64655
0.646433
0.646317
0.646203
0.646089
0.645977
0.645865
0.645756
0.645647
0.64554
0.645434
0.64533
0.645227
0.645125
0.645025
0.644926
0.644828
0.644731
0.644636
0.644542
0.644448
0.644355
0.644263
0.644171
0.644078
0.643985
0.643891
0.643793
0.643693
0.64359
0.643484
0.643374
0.643263
0.643149
0.643035
0.64292
0.642806
0.642693
0.64258
0.642468
0.642356
0.642245
0.642135
0.642026
0.641918
0.64181
0.641703
0.641597
0.641492
0.641388
0.641285
0.641182
0.641081
0.64098
0.640881
0.640782
0.640683
0.640586
0.640489
0.640393
0.640297
0.640202
0.640107
0.640013
0.639918
0.639823
0.639727
0.63963
0.639531
0.639429
0.639325
0.639219
0.63911
0.639
0.638889
0.638777
0.638664
0.638552
0.638441
0.638329
0.638219
0.638108
0.637998
0.637889
0.63778
0.637671
0.637564
0.637456
0.63735
0.637243
0.637138
0.637033
0.636929
0.636825
0.636722
0.63662
0.636518
0.636417
0.636317
0.636217
0.636118
0.636019
0.635921
0.635823
0.635726
0.63563
0.635534
0.635438
0.635343
0.635248
0.635152
0.635057
0.634962
0.634865
0.634768
0.634668
0.634567
0.634463
0.634358
0.634251
0.634142
0.634032
0.633921
0.63381
0.633699
0.633588
0.633477
0.633367
0.633257
0.633147
0.633038
0.632929
0.63282
0.632712
0.632604
0.632497
0.632389
0.632283
0.632176
0.63207
0.631965
0.63186
0.631755
0.631651
0.631547
0.631444
0.631341
0.631239
0.631137
0.631036
0.630935
0.630834
0.630734
0.630635
0.630536
0.630437
0.630339
0.630241
0.630144
0.630047
0.629951
0.629855
0.629759
0.629663
0.629568
0.629473
0.629378
0.629282
0.629186
0.629089
0.628989
0.628889
0.628786
0.628681
0.628575
0.628467
0.628358
0.628247
0.628137
0.628026
0.627916
0.627805
0.627695
0.627585
0.627475
0.627365
0.627256
0.627146
0.627037
0.626928
0.626819
0.62671
0.626602
0.626493
0.626385
0.626277
0.626169
0.626061
0.625953
0.625846
0.625738
0.625631
0.625524
0.625417
0.62531
0.625203
0.625097
0.62499
0.624884
0.624778
0.624672
0.624566
0.62446
0.624354
0.624249
0.624144
0.624038
0.623933
0.623828
0.623723
0.623619
0.623514
0.623409
0.623305
0.623201
0.623097
0.622993
0.622889
0.622785
0.622682
0.622579
0.622475
0.622372
0.622269
0.622167
0.622063
0.621962
0.621859
0.621758
0.621655
0.621555
0.621451
0.621353
0.621249
0.621151
0.621047
0.620951
0.620846
0.620751
0.620646
0.620552
0.620446
0.620353
0.620247
0.620154
0.620047
0.619954
0.619846
0.619753
0.619642
0.619549
0.619439
0.619346
0.619235
0.619143
0.619033
0.61894
0.618831
0.618739
0.61863
0.618538
0.618431
0.618339
0.618233
0.618141
0.618037
0.617945
0.617843
0.617751
0.617652
0.61756
0.617463
0.617371
0.617276
0.617185
0.61709
0.616999
0.616904
0.61681
0.616712
0.616614
0.616512
0.61641
0.616306
0.616201
0.616097
0.615992
0.615889
0.615785
0.615683
0.61558
0.615478
0.615376
0.615275
0.615174
0.615074
0.614974
0.614875
0.614777
0.614679
0.614582
0.614485
0.614389
0.614294
0.6142
0.614106
0.614013
0.613919
0.613826
0.613733
0.613639
0.613544
0.613447
0.613347
0.613246
0.613143
0.613039
0.612934
0.61283
0.612726
0.612622
0.612519
0.612416
0.612313
0.612211
0.612109
0.612008
0.611907
0.611807
0.611707
0.611608
0.61151
0.611412
0.611314
0.611218
0.611122
0.611026
0.610932
0.610837
0.610743
0.610649
0.610556
0.610461
0.610365
0.610268
0.610169
0.610068
0.609966
0.609862
0.609758
0.609654
0.60955
0.609446
0.609343
0.60924
0.609138
0.609036
0.608934
0.608833
0.608733
0.608633
0.608533
0.608434
0.608336
0.608239
0.608142
0.608046
0.60795
0.607855
0.607761
0.607667
0.607574
0.607481
0.607387
0.607293
0.607198
0.607101
0.607002
0.606901
0.606799
0.606695
0.606591
0.606486
0.606382
0.606278
0.606175
0.606072
0.60597
0.605868
0.605766
0.605665
0.605564
0.605464
0.605365
0.605266
0.605168
0.605071
0.604975
0.604879
0.604784
0.60469
0.604597
0.604504
0.604412
0.60432
0.604228
0.604135
0.604041
0.603946
0.603849
0.603749
0.603647
0.603544
0.60344
0.603335
0.60323
0.603126
0.603022
0.602918
0.602815
0.602712
0.60261
0.602509
0.602408
0.602307
0.602207
0.602108
0.60201
0.601913
0.601816
0.60172
0.601626
0.601532
0.601439
0.601346
0.601254
0.601163
0.601072
0.600981
0.60089
0.600797
0.600703
0.600606
0.600507
0.600406
0.600303
0.600198
0.600094
0.599988
0.599884
0.59978
0.599676
0.599572
0.599469
0.599367
0.599265
0.599164
0.599063
0.598963
0.598864
0.598766
0.598668
0.598572
0.598476
0.598381
0.598288
0.598195
0.598103
0.598011
0.59792
0.59783
0.59774
0.59765
0.597559
0.597466
0.597372
0.597275
0.597176
0.597075
0.596972
0.596868
0.596763
0.596658
0.596553
0.596449
0.596345
0.596242
0.596139
0.596037
0.595935
0.595834
0.595733
0.595634
0.595535
0.595436
0.595339
0.595243
0.595148
0.595053
0.59496
0.594867
0.594775
0.594684
0.594594
0.594504
0.594415
0.594325
0.594235
0.594143
0.59405
0.593955
0.593857
0.593757
0.593655
0.593552
0.593448
0.593343
0.593238
0.593134
0.59303
0.592927
0.592824
0.592722
0.59262
0.592519
0.592418
0.592318
0.592219
0.592121
0.592023
0.591926
0.591831
0.591736
0.591642
0.591549
0.591457
0.591366
0.591276
0.591186
0.591097
0.591007
0.590918
0.590828
0.590737
0.590645
0.59055
0.590453
0.590353
0.590252
0.590149
0.590045
0.589941
0.589837
0.589733
0.58963
0.589527
0.589424
0.589322
0.58922
0.589119
0.589019
0.588919
0.58882
0.588722
0.588624
0.588528
0.588432
0.588337
0.588243
0.588151
0.588059
0.587968
0.587877
0.587788
0.587698
0.587609
0.587521
0.587432
0.587342
0.58725
0.587157
0.587062
0.586964
0.586864
0.586763
0.58666
0.586557
0.586453
0.586349
0.586246
0.586143
0.586041
0.585939
0.585837
0.585736
0.585635
0.585535
0.585436
0.585338
0.58524
0.585143
0.585047
0.584952
0.584858
0.584764
0.584672
0.58458
0.58449
0.5844
0.584311
0.584222
0.584133
0.584045
0.583956
0.583867
0.583776
0.583684
0.583589
0.583492
0.583393
0.583293
0.583191
0.583088
0.582984
0.582881
0.582778
0.582676
0.582574
0.582472
0.58237
0.58227
0.582169
0.582069
0.58197
0.581872
0.581774
0.581678
0.581582
0.581487
0.581392
0.581299
0.581207
0.581115
0.581025
0.580935
0.580846
0.580758
0.58067
0.580582
0.580494
0.580405
0.580316
0.580224
0.580131
0.580036
0.579939
0.57984
0.579739
0.579637
0.579535
0.579432
0.579329
0.579227
0.579125
0.579023
0.578922
0.578821
0.578721
0.578621
0.578522
0.578423
0.578325
0.578228
0.578132
0.578037
0.577942
0.577849
0.577756
0.577665
0.577574
0.577484
0.577395
0.577307
0.577219
0.577131
0.577044
0.576957
0.576868
0.576779
0.576689
0.576596
0.576501
0.576405
0.576306
0.576206
0.576104
0.576002
0.5759
0.575798
0.575695
0.575594
0.575492
0.575391
0.575291
0.575191
0.575091
0.574992
0.574894
0.574796
0.5747
0.574604
0.574508
0.574414
0.574321
0.574229
0.574137
0.574047
0.573958
0.573869
0.573781
0.573694
0.573607
0.57352
0.573434
0.573347
0.573259
0.573169
0.573078
0.572985
0.572889
0.572792
0.572693
0.572592
0.572491
0.572389
0.572287
0.572185
0.572083
0.571982
0.571881
0.57178
0.57168
0.571581
0.571481
0.571383
0.571285
0.571188
0.571092
0.570997
0.570903
0.570809
0.570717
0.570625
0.570535
0.570445
0.570357
0.570269
0.570182
0.570096
0.57001
0.569924
0.569838
0.569752
0.569664
0.569575
0.569485
0.569392
0.569297
0.5692
0.569101
0.569001
0.5689
0.568798
0.568696
0.568595
0.568493
0.568392
0.568291
0.568191
0.568091
0.567991
0.567892
0.567794
0.567697
0.5676
0.567504
0.567409
0.567314
0.567221
0.567129
0.567038
0.566948
0.566859
0.566771
0.566683
0.566597
0.566511
0.566426
0.566341
0.566256
0.566171
0.566085
0.565997
0.565908
0.565817
0.565723
0.565628
0.56553
0.565431
0.565331
0.56523
0.565128
0.565027
0.564925
0.564824
0.564723
0.564623
0.564523
0.564423
0.564324
0.564226
0.564128
0.564031
0.563934
0.563839
0.563744
0.563651
0.563558
0.563467
0.563377
0.563287
0.563199
0.563112
0.563026
0.56294
0.562855
0.562771
0.562687
0.562603
0.562518
0.562433
0.562346
0.562257
0.562167
0.562074
0.561979
0.561882
0.561784
0.561684
0.561583
0.561482
0.56138
0.561279
0.561178
0.561077
0.560977
0.560877
0.560777
0.560678
0.56058
0.560482
0.560385
0.560289
0.560194
0.560099
0.560006
0.559914
0.559823
0.559733
0.559644
0.559556
0.559469
0.559383
0.559298
0.559214
0.55913
0.559047
0.558964
0.55888
0.558796
0.558711
0.558624
0.558535
0.558444
0.558351
0.558255
0.558158
0.558059
0.55796
0.557859
0.557758
0.557656
0.557555
0.557455
0.557354
0.557254
0.557154
0.557055
0.556956
0.556858
0.556761
0.556664
0.556568
0.556474
0.55638
0.556287
0.556196
0.556105
0.556016
0.555928
0.555841
0.555755
0.55567
0.555586
0.555503
0.55542
0.555337
0.555255
0.555173
0.55509
0.555005
0.554919
0.554831
0.554741
0.554648
0.554554
0.554457
0.554359
0.55426
0.55416
0.554059
0.553958
0.553857
0.553756
0.553655
0.553555
0.553455
0.553356
0.553257
0.553159
0.553062
0.552965
0.552869
0.552774
0.55268
0.552588
0.552496
0.552405
0.552316
0.552228
0.552141
0.552055
0.551971
0.551887
0.551804
0.551722
0.55164
0.551559
0.551478
0.551396
0.551314
0.551229
0.551144
0.551056
0.550966
0.550874
0.55078
0.550684
0.550586
0.550487
0.550387
0.550286
0.550185
0.550084
0.549984
0.549883
0.549783
0.549683
0.549584
0.549485
0.549387
0.549289
0.549193
0.549097
0.549002
0.548908
0.548816
0.548724
0.548634
0.548545
0.548457
0.54837
0.548285
0.548201
0.548117
0.548035
0.547954
0.547873
0.547793
0.547712
0.547632
0.547551
0.547469
0.547385
0.5473
0.547212
0.547122
0.54703
0.546936
0.54684
0.546743
0.546644
0.546544
0.546444
0.546343
0.546242
0.546141
0.54604
0.54594
0.54584
0.545741
0.545642
0.545544
0.545447
0.54535
0.545254
0.54516
0.545066
0.544973
0.544882
0.544792
0.544703
0.544615
0.544529
0.544444
0.54436
0.544278
0.544196
0.544115
0.544035
0.543955
0.543876
0.543797
0.543717
0.543637
0.543555
0.543471
0.543385
0.543298
0.543208
0.543116
0.543021
0.542926
0.542828
0.542729
0.54263
0.542529
0.542428
0.542328
0.542227
0.542127
0.542026
0.541927
0.541828
0.541729
0.541631
0.541534
0.541437
0.541342
0.541247
0.541154
0.541062
0.540971
0.540881
0.540793
0.540706
0.54062
0.540536
0.540453
0.54037
0.54029
0.54021
0.540131
0.540052
0.539974
0.539895
0.539817
0.539738
0.539658
0.539575
0.539492
0.539406
0.539318
0.539227
0.539135
0.539041
0.538945
0.538847
0.538748
0.538648
0.538548
0.538447
0.538346
0.538245