/*--------------------------------*- C++ -*----------------------------------*\
  =========                 |
  \\      /  F ield         | OpenFOAM: The Open Source CFD Toolbox
   \\    /   O peration     | Website:  https://openfoam.org
    \\  /    A nd           | Version:  9
     \\/     M anipulation  |
\*---------------------------------------------------------------------------*/
FoamFile
{
    format      ascii;
    class       volScalarField;
    location    "0.027";
    object      rho;
}
// * * * * * * * * * * * * * * * * * * * * * * * * * * * * * * * * * * * * * //

dimensions      [1 -3 0 0 0 0 0];

internalField   nonuniform List<scalar> 
10000
(
0.652834
0.652741
0.652684
0.652623
0.652564
0.652504
0.652444
0.652384
0.652324
0.652263
0.652203
0.652143
0.652083
0.652023
0.651963
0.651903
0.651842
0.651782
0.651722
0.651662
0.651602
0.651542
0.651482
0.651422
0.651362
0.651302
0.651242
0.651182
0.651122
0.651062
0.651001
0.650941
0.650881
0.650821
0.650761
0.650701
0.650641
0.650581
0.650522
0.650462
0.650402
0.650342
0.650282
0.650222
0.650162
0.650103
0.650043
0.649983
0.649923
0.649863
0.649803
0.649743
0.649683
0.649623
0.649563
0.649503
0.649443
0.649383
0.649323
0.649263
0.649203
0.649143
0.649084
0.649024
0.648964
0.648904
0.648844
0.648785
0.648725
0.648665
0.648605
0.648545
0.648485
0.648425
0.648365
0.648306
0.648246
0.648187
0.648127
0.648067
0.648007
0.647947
0.647887
0.647827
0.647767
0.647707
0.647647
0.647588
0.647528
0.647469
0.647409
0.64735
0.64729
0.647231
0.647171
0.647112
0.647052
0.646992
0.646932
0.646873
0.646813
0.646753
0.646694
0.646634
0.646574
0.646514
0.646454
0.646395
0.646335
0.646275
0.646216
0.646157
0.646097
0.646038
0.645977
0.645917
0.645858
0.645798
0.645739
0.64568
0.64562
0.645561
0.645501
0.645441
0.645381
0.645322
0.645262
0.645203
0.645144
0.645084
0.645024
0.644964
0.644904
0.644844
0.644785
0.644726
0.644667
0.644608
0.644547
0.644486
0.644425
0.644365
0.644308
0.644251
0.644194
0.644134
0.644072
0.644009
0.643948
0.643888
0.643831
0.643775
0.643717
0.643656
0.643594
0.643532
0.643472
0.643414
0.643357
0.6433
0.64324
0.643179
0.643117
0.643056
0.642997
0.642939
0.642881
0.642823
0.642764
0.642704
0.642644
0.642584
0.642525
0.642465
0.642405
0.642344
0.642284
0.642225
0.642168
0.642111
0.642053
0.641994
0.641934
0.641873
0.641811
0.64175
0.641689
0.64163
0.641574
0.641523
0.641469
0.64141
0.641345
0.641278
0.641211
0.641148
0.641089
0.641038
0.640992
0.640941
0.640881
0.640815
0.640747
0.64068
0.640613
0.640553
0.640503
0.640473
0.640426
0.640354
0.640279
0.640204
0.640132
0.640068
0.640026
0.640015
0.639962
0.639884
0.639803
0.639726
0.639652
0.639589
0.639553
0.639535
0.639474
0.639397
0.63932
0.639248
0.639189
0.639167
0.639132
0.639058
0.638978
0.638899
0.638825
0.638762
0.638744
0.638733
0.638664
0.63858
0.638491
0.638412
0.63834
0.638283
0.63828
0.638268
0.638196
0.638108
0.638014
0.637933
0.637862
0.637807
0.63781
0.637791
0.637716
0.637628
0.637541
0.637466
0.637402
0.637386
0.637365
0.637292
0.637207
0.637124
0.637052
0.636996
0.636996
0.636965
0.636887
0.636793
0.636701
0.636625
0.636559
0.636535
0.636551
0.636501
0.636418
0.636315
0.636221
0.636144
0.636079
0.636053
0.636072
0.636028
0.635947
0.635847
0.635753
0.635677
0.635611
0.635586
0.635598
0.635547
0.635465
0.635367
0.635277
0.635201
0.635134
0.635095
0.635122
0.635117
0.635047
0.63496
0.634855
0.634765
0.634689
0.63462
0.634569
0.634578
0.634563
0.634489
0.634398
0.634294
0.634212
0.634142
0.634093
0.634106
0.634094
0.634021
0.63393
0.633824
0.63374
0.63367
0.633619
0.633632
0.633621
0.633549
0.633459
0.633355
0.633273
0.633204
0.633157
0.633171
0.633146
0.63307
0.632978
0.632887
0.632813
0.632751
0.632738
0.63272
0.632648
0.63256
0.63247
0.632395
0.632331
0.632315
0.632326
0.632271
0.632189
0.6321
0.632023
0.631952
0.631899
0.631853
0.631783
0.631708
0.63164
0.63159
0.631593
0.631555
0.631477
0.631382
0.631289
0.631214
0.631151
0.631132
0.631153
0.631107
0.631028
0.630937
0.630856
0.630783
0.630722
0.63068
0.630618
0.630543
0.630471
0.630409
0.630394
0.630388
0.63032
0.630233
0.630126
0.630038
0.629967
0.629911
0.629915
0.629948
0.629902
0.62982
0.629713
0.629589
0.629501
0.629427
0.629363
0.62934
0.629388
0.629402
0.629337
0.62925
0.629129
0.629001
0.628915
0.628841
0.628777
0.628751
0.628795
0.62881
0.628747
0.628661
0.628544
0.62843
0.628349
0.628279
0.628226
0.628235
0.628247
0.628186
0.628101
0.627994
0.627899
0.627825
0.627763
0.627745
0.627765
0.627717
0.627636
0.627532
0.62743
0.627353
0.627287
0.627256
0.627283
0.627257
0.627181
0.627083
0.626968
0.626883
0.626814
0.626763
0.626778
0.626815
0.626768
0.626687
0.626578
0.626447
0.626357
0.626284
0.626222
0.626207
0.62625
0.626231
0.626157
0.626062
0.625938
0.625843
0.625769
0.625707
0.625688
0.625728
0.625709
0.625635
0.625541
0.625417
0.625321
0.625247
0.625184
0.625161
0.625197
0.625174
0.625099
0.625005
0.624893
0.624807
0.624737
0.62468
0.624679
0.624685
0.624623
0.624539
0.624437
0.624352
0.624282
0.624227
0.62423
0.624214
0.624142
0.624051
0.623945
0.623864
0.623797
0.623757
0.62379
0.623818
0.623762
0.623678
0.62356
0.623419
0.623326
0.623253
0.62319
0.623166
0.623209
0.623211
0.623143
0.623056
0.622936
0.622829
0.622752
0.622687
0.622648
0.622678
0.622686
0.622622
0.622536
0.62242
0.622316
0.622239
0.622174
0.622138
0.622168
0.622166
0.622097
0.62201
0.621894
0.621797
0.621722
0.621658
0.621627
0.62165
0.621619
0.621544
0.621452
0.621362
0.621288
0.621227
0.62121
0.621221
0.621166
0.621083
0.62097
0.620853
0.620772
0.620704
0.620654
0.62067
0.620718
0.620681
0.620603
0.620502
0.620373
0.620279
0.620205
0.620142
0.620114
0.620143
0.62012
0.620046
0.619951
0.619837
0.619752
0.619684
0.619632
0.619648
0.619704
0.619671
0.619594
0.619493
0.619345
0.619222
0.619142
0.619073
0.619018
0.619023
0.619088
0.619077
0.619006
0.618917
0.618792
0.61868
0.618601
0.618533
0.618479
0.618482
0.618519
0.618479
0.618403
0.618312
0.618219
0.618143
0.61807
0.618
0.617937
0.617872
0.617806
0.617746
0.617708
0.617725
0.617703
0.61763
0.61754
0.617436
0.617354
0.617286
0.617232
0.617238
0.617241
0.617178
0.617094
0.616987
0.616896
0.616824
0.616764
0.616749
0.616778
0.616739
0.616661
0.616561
0.616447
0.616364
0.616295
0.616241
0.616246
0.616272
0.616222
0.616142
0.616037
0.615928
0.615849
0.615783
0.615739
0.615763
0.615801
0.615753
0.615674
0.615571
0.615435
0.615333
0.615256
0.615183
0.615111
0.615047
0.615
0.615017
0.615079
0.615054
0.614981
0.614889
0.614765
0.61466
0.614584
0.614517
0.614465
0.614471
0.614481
0.614422
0.614342
0.614246
0.614165
0.614097
0.614045
0.614054
0.614056
0.613991
0.613905
0.61378
0.613654
0.613572
0.613504
0.61345
0.613455
0.61352
0.613509
0.613439
0.613351
0.613226
0.613113
0.613034
0.612966
0.612911
0.61291
0.612936
0.612889
0.612811
0.612713
0.612616
0.612541
0.612477
0.612439
0.612462
0.612443
0.612372
0.612282
0.612173
0.612088
0.612019
0.611963
0.611961
0.61199
0.611944
0.611865
0.61176
0.611621
0.611523
0.611449
0.611385
0.611346
0.611378
0.611427
0.611385
0.611308
0.611209
0.611082
0.610988
0.610915
0.610851
0.610813
0.610838
0.610833
0.610766
0.610683
0.610581
0.610499
0.61043
0.610376
0.610377
0.610392
0.610335
0.610253
0.610138
0.610007
0.60992
0.609851
0.609795
0.609792
0.609861
0.609869
0.609805
0.60972
0.6096
0.609467
0.609381
0.609311
0.609251
0.609231
0.609279
0.609287
0.609223
0.60914
0.609024
0.608902
0.608821
0.608751
0.608692
0.608673
0.608714
0.608701
0.608631
0.608546
0.608432
0.608327
0.608249
0.608177
0.608107
0.608045
0.608007
0.608034
0.60806
0.608008
0.607929
0.607828
0.607719
0.607639
0.607571
0.607513
0.607503
0.607521
0.607472
0.607394
0.607298
0.607204
0.607131
0.607067
0.60703
0.607049
0.607022
0.60695
0.606862
0.606762
0.606685
0.606619
0.606569
0.60658
0.606593
0.606536
0.606457
0.606352
0.606236
0.606152
0.60608
0.606009
0.605944
0.605892
0.605894
0.605948
0.60593
0.605859
0.605772
0.605654
0.605551
0.605476
0.60541
0.605358
0.605364
0.605398
0.605356
0.605281
0.605186
0.605065
0.604971
0.604897
0.604826
0.604756
0.604694
0.604654
0.604682
0.604752
0.604728
0.604657
0.604567
0.604431
0.604289
0.604202
0.604131
0.604069
0.604034
0.604071
0.604117
0.604073
0.603997
0.603899
0.603767
0.603668
0.603594
0.603529
0.60348
0.603491
0.603515
0.603465
0.603388
0.603292
0.603193
0.603117
0.603052
0.603
0.603003
0.602985
0.602917
0.602835
0.602745
0.602671
0.602606
0.602561
0.602565
0.602528
0.602455
0.602369
0.602285
0.602215
0.602153
0.602128
0.602126
0.602069
0.601992
0.601906
0.601831
0.601766
0.601719
0.601727
0.601706
0.601637
0.601553
0.601461
0.601386
0.601322
0.601276
0.601275
0.601232
0.601158
0.601069
0.600979
0.600907
0.600845
0.60081
0.600835
0.600814
0.600744
0.600658
0.600549
0.600464
0.600394
0.600335
0.600312
0.600337
0.600304
0.600232
0.600143
0.60004
0.599962
0.599895
0.59984
0.599835
0.599841
0.599783
0.599705
0.599606
0.599514
0.599442
0.599379
0.599339
0.599359
0.599348
0.599282
0.599204
0.599126
0.599057
0.598999
0.598972
0.598925
0.598853
0.598767
0.598657
0.598569
0.598501
0.598443
0.598432
0.598493
0.598502
0.598441
0.598359
0.598244
0.598108
0.59802
0.59795
0.597888
0.597852
0.597883
0.597907
0.597855
0.597778
0.597678
0.597566
0.597487
0.597418
0.597361
0.597344
0.597371
0.597336
0.597263
0.597172
0.597062
0.59698
0.596912
0.596853
0.596833
0.596868
0.596847
0.596778
0.596694
0.596578
0.596472
0.596397
0.596327
0.596263
0.596213
0.596219
0.596291
0.596294
0.59623
0.596148
0.59603
0.595862
0.595751
0.595676
0.595611
0.595556
0.595554
0.595631
0.595662
0.595609
0.595531
0.595427
0.595278
0.595169
0.595095
0.595029
0.594974
0.594967
0.595022
0.595014
0.594948
0.594867
0.594752
0.594641
0.594564
0.594497
0.594441
0.594427
0.594461
0.594432
0.594361
0.594274
0.594166
0.594083
0.594015
0.593955
0.593929
0.593953
0.593922
0.593851
0.593764
0.593659
0.593579
0.593511
0.593454
0.593436
0.593461
0.593423
0.593351
0.593261
0.593158
0.593081
0.593014
0.592957
0.592944
0.59296
0.592912
0.592838
0.592747
0.592658
0.592587
0.592525
0.592484
0.592494
0.592463
0.592393
0.592307
0.592214
0.59214
0.592075
0.592025
0.592029
0.592025
0.591963
0.591884
0.591782
0.591692
0.591622
0.591559
0.591518
0.591537
0.591537
0.591476
0.5914
0.59131
0.591232
0.591163
0.591099
0.591048
0.590999
0.590934
0.590866
0.590798
0.590739
0.590708
0.590718
0.590674
0.590603
0.590518
0.590437
0.590369
0.590309
0.59028
0.59028
0.590226
0.590152
0.590063
0.589982
0.589914
0.589856
0.589833
0.589872
0.589863
0.589799
0.589722
0.589626
0.58952
0.589435
0.58936
0.589288
0.589218
0.58915
0.589082
0.589016
0.588961
0.588947
0.589007
0.58904
0.58899
0.588914
0.588815
0.588669
0.588555
0.58848
0.588414
0.588358
0.588344
0.588398
0.588409
0.58835
0.588272
0.588167
0.588042
0.587958
0.58789
0.587829
0.587789
0.587811
0.587822
0.587765
0.587689
0.587589
0.587486
0.587411
0.587345
0.58729
0.587276
0.587299
0.587258
0.587187
0.587099
0.587003
0.58693
0.586865
0.586811
0.586805
0.586817
0.586766
0.586693
0.58661
0.586536
0.586471
0.586419
0.586416
0.586398
0.586331
0.586247
0.586117
0.58597
0.585883
0.585815
0.585755
0.585724
0.585772
0.585876
0.585872
0.585808
0.585728
0.585613
0.58545
0.585342
0.585269
0.585203
0.585146
0.585122
0.585169
0.585203
0.585154
0.585081
0.584987
0.584871
0.584786
0.584717
0.584656
0.584615
0.584633
0.584634
0.584574
0.584496
0.584388
0.584263
0.584181
0.584113
0.584053
0.584014
0.584039
0.584075
0.584031
0.583961
0.583879
0.583802
0.583735
0.583675
0.583641
0.583609
0.583545
0.583471
0.583375
0.583259
0.583175
0.583106
0.583041
0.582984
0.582957
0.583006
0.583076
0.583045
0.582977
0.582891
0.582763
0.582615
0.582527
0.582458
0.582396
0.582346
0.582351
0.582414
0.582406
0.582342
0.582263
0.582154
0.582037
0.581958
0.581891
0.581831
0.581791
0.581811
0.581813
0.581754
0.581679
0.581585
0.581496
0.581426
0.581364
0.581315
0.581315
0.581296
0.581231
0.581155
0.581066
0.580993
0.580929
0.580874
0.580865
0.580866
0.58081
0.580737
0.580646
0.580561
0.580493
0.580432
0.580391
0.580403
0.58038
0.580313
0.580234
0.580136
0.580057
0.57999
0.579932
0.579901
0.579916
0.57988
0.579812
0.579728
0.579633
0.579559
0.579494
0.579439
0.579422
0.579433
0.579384
0.579313
0.579228
0.579144
0.579076
0.579015
0.578974
0.578991
0.578985
0.578923
0.578849
0.578758
0.578678
0.578611
0.578546
0.578489
0.57844
0.578379
0.578312
0.578246
0.578182
0.578128
0.578112
0.578142
0.578111
0.578043
0.577959
0.577843
0.577745
0.577675
0.577612
0.577562
0.577564
0.577608
0.577578
0.57751
0.577426
0.577309
0.577206
0.577134
0.57707
0.577015
0.576999
0.577034
0.577012
0.576946
0.576867
0.57676
0.576666
0.576597
0.576534
0.576481
0.576475
0.576497
0.576454
0.576385
0.576301
0.576215
0.576146
0.576084
0.576036
0.57604
0.576047
0.575991
0.575918
0.575824
0.575709
0.575627
0.575559
0.575493
0.575428
0.575368
0.575322
0.575331
0.575377
0.575347
0.57528
0.575199
0.575087
0.574985
0.574914
0.574849
0.574794
0.57477
0.574801
0.574783
0.574719
0.574641
0.574538
0.574447
0.574379
0.574316
0.574266
0.574263
0.574274
0.574222
0.574151
0.574063
0.57397
0.573899
0.573836
0.573784
0.573775
0.573788
0.573741
0.57367
0.573582
0.573485
0.573413
0.573348
0.573293
0.573271
0.57329
0.573254
0.573186
0.573106
0.573017
0.572945
0.572881
0.572824
0.572797
0.572774
0.572715
0.572646
0.572572
0.572504
0.572441
0.572387
0.572375
0.572361
0.572301
0.572229
0.572142
0.572066
0.572001
0.571943
0.571911
0.571919
0.571878
0.57181
0.571729
0.571644
0.571576
0.571515
0.571465
0.571464
0.571463
0.571407
0.571336
0.571257
0.571187
0.571125
0.571074
0.571068
0.571049
0.570986
0.570909
0.570798
0.570665
0.570579
0.570512
0.570448
0.570391
0.570354
0.570386
0.570484
0.570487
0.570429
0.570354
0.570252
0.57009
0.569961
0.569885
0.56982
0.569762
0.569722
0.569747
0.569825
0.569812
0.569749
0.569672
0.569561
0.569413
0.569318
0.569249
0.569187
0.569135
0.569125
0.569193
0.569226
0.569177
0.569107
0.569019
0.568887
0.568771
0.568697
0.568631
0.568568
0.568514
0.568491
0.568499
0.568454
0.568386
0.568314
0.568246
0.568186
0.568138
0.568143
0.568144
0.568087
0.568014
0.567912
0.567786
0.567703
0.567638
0.567579
0.567542
0.567571
0.567627
0.567595
0.567528
0.567447
0.567326
0.5672
0.567122
0.567056
0.566997
0.566951
0.566961
0.567009
0.566981
0.566915
0.566837
0.56673
0.566632
0.566562
0.566498
0.566442
0.566409
0.56643
0.566415
0.566354
0.566282
0.566204
0.566137
0.566077
0.56603
0.566032
0.566017
0.565955
0.565879
0.565769
0.565621
0.565526
0.565457
0.565392
0.56533
0.565276
0.56525
0.565301
0.565396
0.565383
0.565322
0.565246
0.565139
0.564974
0.564854
0.564781
0.564717
0.56466
0.564623
0.564654
0.564762
0.564778
0.564724
0.564653
0.56456
0.564415
0.56428
0.564201
0.564135
0.564071
0.564006
0.563942
0.563879
0.563817
0.563763
0.563737
0.563781
0.563835
0.5638
0.563734
0.563653
0.563534
0.563405
0.563325
0.563261
0.563201
0.563154
0.563159
0.563214
0.563197
0.563134
0.563059
0.562952
0.562828
0.562748
0.562684
0.562624
0.562577
0.562581
0.562624
0.562595
0.56253
0.562452
0.562344
0.562244
0.562175
0.562112
0.562056
0.562025
0.562051
0.562043
0.561984
0.561913
0.561818
0.561725
0.561656
0.561593
0.561539
0.561513
0.561536
0.561511
0.561448
0.561374
0.561286
0.561213
0.56115
0.561094
0.56106
0.561067
0.561027
0.560961
0.56088
0.560769
0.560677
0.560609
0.560547
0.560492
0.560462
0.560499
0.560541
0.560501
0.560434
0.560353
0.560232
0.560118
0.560044
0.559981
0.559922
0.559876
0.559881
0.55993
0.559906
0.559843
0.559768
0.559664
0.559549
0.559472
0.559407
0.559344
0.559282
0.559225
0.559185
0.559205
0.559283
0.559277
0.559217
0.559145
0.559043
0.558873
0.558723
0.558642
0.558577
0.558516
0.558461
0.558433
0.55848
0.558584
0.558582
0.558524
0.558452
0.558356
0.55821
0.558095
0.558023
0.55796
0.557902
0.557859
0.55787
0.557917
0.557887
0.557823
0.557745
0.557631
0.557506
0.557429
0.557365
0.557308
0.557268
0.55729
0.557364
0.55735
0.557289
0.557216
0.557114
0.556972
0.556876
0.55681
0.556747
0.556692
0.556658
0.55668
0.556677
0.556619
0.556549
0.556454
0.556342
0.556266
0.556203
0.556147
0.556115
0.556154
0.556221
0.556194
0.556131
0.556054
0.55594
0.555785
0.555689
0.555623
0.555562
0.555509
0.55549
0.555547
0.555595
0.555555
0.55549
0.555408
0.555279
0.555109
0.55501
0.554943
0.554881
0.554825
0.554788
0.554818
0.554952
0.555012
0.554972
0.554907
0.554827
0.554706
0.554503
0.554351
0.554271
0.554207
0.554144
0.554081
0.554019
0.553957
0.553901
0.553857
0.553867
0.553972
0.554037
0.554001
0.553936
0.553858
0.553741
0.553566
0.553451
0.553381
0.553318
0.553261
0.553216
0.553223
0.553305
0.55332
0.553268
0.5532
0.553113
0.55298
0.552864
0.552792
0.55273
0.552672
0.552625
0.552627
0.552676
0.552656
0.552595
0.552522
0.552422
0.552305
0.552228
0.552165
0.552105
0.552055
0.552043
0.552076
0.552052
0.55199
0.551918
0.551824
0.551736
0.551671
0.551609
0.551555
0.551525
0.551535
0.5515
0.551436
0.551364
0.551279
0.55121
0.551148
0.551092
0.551053
0.551054
0.551019
0.550956
0.550886
0.550811
0.550746
0.550686
0.550632
0.550606
0.550582
0.550525
0.550461
0.550393
0.550329
0.550269
0.550216
0.550191
0.550183
0.550131
0.550066
0.54999
0.549915
0.549852
0.549793
0.549745
0.54974
0.549738
0.549684
0.549617
0.549533
0.549428
0.549349
0.549285
0.549223
0.549162
0.549101
0.549043
0.548995
0.548987
0.549041
0.549042
0.548987
0.54892
0.548839
0.548754
0.548687
0.548626
0.548567
0.548517
0.548469
0.548409
0.548347
0.548281
0.548207
0.548139
0.548077
0.548019
0.547969
0.547958
0.547997
0.547977
0.547917
0.547849
0.547762
0.547673
0.547606
0.547544
0.547482
0.547421
0.547359
0.547298
0.54724
0.547191
0.547178
0.547213
0.547193
0.547133
0.547064
0.546973
0.546886
0.546821
0.546761
0.546709
0.546688
0.546719
0.546703
0.546643
0.546571
0.546469
0.546306
0.546184
0.546112
0.54605
0.54599
0.545935
0.545895
0.545914
0.546024
0.546071
0.546029
0.545965
0.545887
0.545769
0.545604
0.545502
0.545435
0.545374
0.545318
0.545274
0.545282
0.545355
0.545356
0.545301
0.545234
0.545147
0.545015
0.544907
0.544839
0.544778
0.544721
0.544676
0.544679
0.544726
0.544702
0.544642
0.544571
0.544474
0.544359
0.544284
0.544222
0.544163
0.544114
0.544102
0.544137
0.544115
0.544055
0.543985
0.54389
0.543786
0.543715
0.543653
0.543596
0.543551
0.543551
0.543575
0.543535
0.543472
0.543398
0.543299
0.543215
0.543151
0.543091
0.543038
0.543009
0.543027
0.543003
0.542943
0.542874
0.542785
0.542701
0.542637
0.542577
0.542524
0.542492
0.542509
0.542488
0.542429
0.542362
0.542282
0.54221
0.542148
0.542091
0.542043
0.542033
0.542061
0.54203
0.54197
0.541906
0.541836
0.541752
0.541627
0.541488
0.541405
0.541342
0.541281
0.541221
0.541163
0.541113
0.541095
0.541157
0.541267
0.541261
0.541205
0.541138
0.54105
0.540902
0.540744
0.540659
0.540596
0.540537
0.540482
0.540445
0.540466
0.54054
0.540528
0.540471
0.540403
0.540314
0.540182
0.54008
0.540014
0.539954
0.539898
0.539853
0.539854
0.539905
0.539887
0.539828
0.539761
0.539672
0.539571
0.5395
0.53944
0.539383
0.539336
0.53933
0.539341
0.539296
0.539232
0.539153
0.539034
0.538913
0.538841
0.53878
0.538723
0.538676
0.53867
0.538742
0.538775
0.538731
0.538667
0.538592
0.538478
0.538348
0.538269
0.538207
0.538148
0.538094
0.538055
0.538071
0.538109
0.538074
0.538013
0.537943
0.537852
0.537769
0.537706
0.537646
0.537593
0.537557
0.537558
0.537521
0.53746
0.537388
0.537287
0.537177
0.537106
0.537045
0.536988
0.53694
0.536929
0.536992
0.537025
0.536981
0.536919
0.536845
0.53674
0.536628
0.536556
0.536495
0.536436
0.536382
0.536341
0.536341
0.536315
0.536257
0.536192
0.536114
0.536044
0.535984
0.535927
0.535882
0.535879
0.535899
0.535858
0.535796
0.535723
0.535616
0.535505
0.535434
0.535374
0.535316
0.535264
0.535233
0.535266
0.535312
0.535277
0.535217
0.535145
0.535042
0.534894
0.534796
0.534731
0.534672
0.534616
0.534572
0.534575
0.534652
0.534674
0.534627
0.534564
0.534487
0.534372
0.53424
0.534162
0.5341
0.534041
0.533987
0.533946
0.533956
0.533996
0.533965
0.533905
0.533836
0.533744
0.533642
0.533571
0.533511
0.533454
0.533402
0.533374
0.533395
0.53338
0.533324
0.53326
0.533185
0.533113
0.533052
0.532993
0.532937
0.532887
0.532839
0.532782
0.532723
0.532664
0.532607
0.532556
0.532531
0.532546
0.532517
0.532458
0.53239
0.532299
0.532195
0.532125
0.532065
0.532007
0.531956
0.531931
0.53197
0.532006
0.531965
0.531904
0.531831
0.531721
0.53156
0.531457
0.531391
0.531333
0.531277
0.531231
0.531227
0.531304
0.531349
0.53131
0.531249
0.531178
0.531075
0.530929
0.530834
0.53077
0.530712
0.530656
0.53061
0.530603
0.530658
0.530661
0.530608
0.530545
0.530467
0.530356
0.530263
0.530198
0.530139
0.530084
0.530037
0.530028
0.530052
0.530019
0.529959
0.529892
0.529804
0.529723
0.529661
0.529603
0.529551
0.529518
0.529538
0.529533
0.529479
0.529416
0.529334
0.529208
0.529098
0.52903
0.528971
0.528913
0.52886
0.528821
0.528833
0.528903
0.528896
0.528842
0.528778
0.528699
0.528582
0.52848
0.528414
0.528355
0.528298
0.528247
0.528216
0.528236
0.52823
0.528177
0.528114
0.528038
0.527949
0.527882
0.527823
0.527767
0.527719
0.527703
0.527716
0.527678
0.527619
0.527552
0.527472
0.527404
0.527345
0.52729
0.527243
0.527227
0.5272
0.527143
0.52708
0.526998
0.526884
0.526798
0.526737
0.526679
0.526628
0.526598
0.526633
0.526698
0.526674
0.526617
0.526552
0.526465
0.526339
0.526245
0.526182
0.526124
0.526069
0.526024
0.526016
0.526067
0.526062
0.526009
0.525946
0.525867
0.525745
0.525626
0.525554
0.525495
0.525437
0.525379
0.525323
0.525275
0.525255
0.525301
0.525335
0.525294
0.525234
0.525166
0.52507
0.524953
0.524878
0.524818
0.52476
0.524707
0.524665
0.524667
0.52469
0.524651
0.524592
0.524524
0.524434
0.524343
0.524279
0.524221
0.524165
0.524118
0.524103
0.524151
0.524165
0.524119
0.524061
0.524
0.523937
0.523869
0.523786
0.523664
0.52353
0.523452
0.523391
0.523333
0.523275
0.523218
0.523161
0.523107
0.523061
0.523052
0.523129
0.523212
0.523188
0.523132
0.523067
0.522982
0.52284
0.522688
0.522607
0.522547
0.522489
0.522436
0.522394
0.522398
0.522472
0.522486
0.522438
0.522377
0.522305
0.522195
0.522061
0.521981
0.52192
0.521863
0.52181
0.521768
0.521769
0.52182
0.521804
0.521749
0.521687
0.521607
0.521492
0.5214
0.521337
0.521279
0.521224
0.521175
0.521154
0.521182
0.521169
0.521115
0.521054
0.520979
0.520887
0.520818
0.52076
0.520703
0.520653
0.52062
0.52064
0.520642
0.520593
0.520534
0.520468
0.520393
0.520328
0.520269
0.520211
0.520153
0.520092
0.520024
0.519939
0.519859
0.519799
0.519741
0.519686
0.519638
0.519614
0.519657
0.519704
0.51967
0.519612
0.519548
0.519462
0.519359
0.519288
0.51923
0.519174
0.519124
0.519094
0.519117
0.519114
0.519063
0.519002
0.518924
0.518797
0.518628
0.518534
0.518471
0.518414
0.518358
0.518308
0.518275
0.518301
0.51842
0.518459
0.518418
0.518359
0.518292
0.518198
0.518043
0.517919
0.51785
0.517792
0.517736
0.517685
0.517647
0.517659
0.517725
0.517715
0.517662
0.517601
0.517526
0.517412
0.517304
0.517237
0.51718
0.517124
0.517074
0.517041
0.517062
0.51708
0.517037
0.516978
0.516911
0.516817
0.516715
0.516648
0.516591
0.516535
0.516485
0.516451
0.516468
0.516465
0.516415
0.516355
0.516285
0.516191
0.516113
0.516053
0.515997
0.515944
0.5159
0.515894
0.515897
0.515851
0.515792
0.515726
0.515652
0.51559
0.515534
0.515482
0.515441
0.515446
0.515488
0.515462
0.515407
0.515343
0.515259
0.515119
0.514983
0.514908
0.51485
0.514793
0.514737
0.514681
0.514625
0.514571
0.514525
0.514509
0.514567
0.514644
0.514622
0.514568
0.514506
0.514429
0.514305
0.514165
0.514087
0.514028
0.513972
0.513917
0.51387
0.513848
0.513888
0.513906
0.513862
0.513803
0.513737
0.513646
0.513544
0.513475
0.513418
0.513362
0.51331
0.513266
0.513259
0.513263
0.513219
0.513161
0.513097
0.513021
0.512956
0.5129
0.512845
0.512795
0.512762
0.512746
0.5127
0.512644
0.512585
0.512523
0.512465
0.51241
0.512358
0.512321
0.512331
0.512342
0.512298
0.512239
0.512172
0.512073
0.511939
0.511854
0.511794
0.511738
0.511682
0.511626
0.511571
0.511522
0.511486
0.511502
0.511562
0.511545
0.511492
0.511432
0.511359
0.511252
0.511153
0.511089
0.511033
0.510978
0.510929
0.510897
0.510917
0.510929
0.510884
0.510827
0.51076
0.510667
0.510563
0.510496
0.510439
0.510385
0.510336
0.510304
0.510329
0.510365
0.51033
0.510274
0.510212
0.510132
0.510023
0.509941
0.509882
0.509826
0.50977
0.509714
0.509659
0.509603
0.509548
0.509494
0.509444
0.509407
0.509418
0.509436
0.509395
0.509338
0.509276
0.509193
0.509097
0.50903
0.508974
0.508919
0.508867
0.508825
0.50882
0.508829
0.508786
0.508729
0.508666
0.508581
0.508492
0.50843
0.508374
0.50832
0.508273
0.508251
0.508274
0.508255
0.508201
0.508142
0.508069
0.507972
0.507895
0.507837
0.507783
0.507731
0.507689
0.507687
0.507712
0.507678
0.507623
0.507562
0.507486
0.507403
0.507341
0.507286
0.507232
0.507185
0.507164
0.507177
0.507144
0.507089
0.507027
0.506945
0.506815
0.506707
0.506643
0.506587
0.506532
0.50648
0.506435
0.506422
0.506489
0.506569
0.506548
0.506495
0.506436
0.506364
0.506251
0.506085
0.505985
0.505923
0.505867
0.505812
0.505757
0.505704
0.505656
0.505624
0.50565
0.505726
0.505717
0.505667
0.505609
0.505541
0.505442
0.505317
0.505239
0.505181
0.505126
0.505072
0.505023
0.504989
0.505001
0.505007
0.504962
0.504905
0.504842
0.50476
0.504678
0.504618
0.504563
0.50451
0.504462
0.504433
0.50444
0.50441
0.504356
0.504297
0.504226
0.504145
0.504084
0.504028
0.503975
0.503926
0.503896
0.503903
0.503877
0.503824
0.503765
0.503696
0.503618
0.503557
0.503502
0.503448
0.5034
0.50337
0.50338
0.503359
0.503307
0.50325
0.503184
0.503103
0.503037
0.502981
0.502926
0.502872
0.502817
0.502763
0.502708
0.502654
0.5026
0.50255
0.502508
0.502503
0.502504
0.50246
0.502405
0.502346
0.502279
0.50222
0.502165
0.502111
0.502062
0.502026
0.502026
0.502001
0.501948
0.50189
0.501822
0.501729
0.501646
0.501587
0.501532
0.501477
0.501423
0.501369
0.501316
0.501268
0.501232
0.501241
0.501244
0.501199
0.501143
0.501081
0.500998
0.500909
0.500847
0.500792
0.500739
0.50069
0.500656
0.500668
0.500675
0.500631
0.500575
0.500513
0.500431
0.500338
0.500273
0.500218
0.500165
0.500114
0.500073
0.500069
0.500066
0.500021
0.499965
0.499904
0.499828
0.499758
0.499702
0.499648
0.499596
0.499552
0.499538
0.499532
0.499486
0.499431
0.49937
0.499294
0.499222
0.499165
0.499111
0.499059
0.499016
0.499002
0.499051
0.499064
0.49902
0.498965
0.498907
0.498837
0.498733
0.498587
0.498497
0.498437
0.498382
0.498329
0.498275
0.498221
0.498168
0.498116
0.498069
0.49804
0.49807
0.498134
0.498115
0.498064
0.498007
0.49794
0.49784
0.49771
0.497632
0.497575
0.497521
0.497469
0.497423
0.497397
0.497427
0.497444
0.497402
0.497347
0.497286
0.497207
0.497099
0.497022
0.496965
0.496911
0.49686
0.496813
0.496787
0.496809
0.496804
0.496755
0.4967
0.496638
0.496557
0.496479
0.496422
0.496368
0.496316
0.496269
0.496241
0.496251
0.496226
0.496174
0.496118
0.496051
0.495965
0.495893
0.495837
0.495784
0.495732
0.495683
0.495644
0.495601
0.495549
0.495496
0.495442
0.495387
0.495333
0.49528
0.495229
0.495186
0.49517
0.495199
0.495181
0.49513
0.495074
0.495007
0.49491
0.49481
0.494746
0.494692
0.494639
0.49459
0.494552
0.494556
0.494583
0.494551
0.494498
0.49444
0.49437
0.494272
0.494193
0.494136
0.494083
0.494031
0.493984
0.493953
0.493965
0.493952
0.493903
0.493847
0.493785
0.4937
0.493618
0.49356
0.493506
0.493454
0.493406
0.493373
0.493382
0.493372
0.493324
0.493269
0.493207
0.493127
0.493046
0.492987
0.492934
0.492882
0.492833
0.492797
0.492801
0.492794
0.492747
0.492693
0.492634
0.492564
0.492501
0.492447
0.492395
0.492345
0.492304
0.492294
0.492282
0.492234
0.49218
0.49212
0.492041
0.491942
0.491872
0.491817
0.491764
0.491711
0.491659
0.491606
0.491555
0.49151
0.491481
0.491505
0.491521
0.49148
0.491427
0.491369
0.491298
0.491198
0.491118
0.491061
0.491009
0.490957
0.490908
0.49087
0.490871
0.49088
0.490839
0.490786
0.49073
0.490665
0.490603
0.490549
0.490497
0.490447
0.490406
0.490399
0.490397
0.490354
0.4903
0.49024
0.490162
0.490039
0.489935
0.489873
0.489819
0.489766
0.489714
0.489661
0.48961
0.489561
0.48952
0.489513
0.48957
0.489585
0.489542
0.489489
0.489431
0.489359
0.489251
0.489156
0.489096
0.489043
0.488991
0.488941
0.488897
0.488878
0.488901
0.488883
0.488833
0.488779
0.488719
0.488641
0.488568
0.488513
0.48846
0.488409
0.488362
0.488328
0.488318
0.488281
0.48823
0.488176
0.488116
0.488045
0.487985
0.487932
0.48788
0.487831
0.487792
0.487786
0.487779
0.487733
0.487679
0.487622
0.487549
0.487468
0.487409
0.487356
0.487304
0.487255
0.487213
0.487201
0.4872
0.487158
0.487105
0.48705
0.486989
0.486928
0.486875
0.486823
0.486771
0.486721
0.486675
0.486628
0.486577
0.486525
0.486473
0.486421
0.486369
0.486318
0.486271
0.486235
0.486227
0.486197
0.486146
0.486094
0.486039
0.485977
0.485914
0.48586
0.485807
0.485756
0.485704
0.485652
0.4856
0.48555
0.485505
0.485477
0.485476
0.485443
0.485392
0.485339
0.485281
0.485215
0.485155
0.485102
0.485051
0.484999
0.484949
0.484904
0.484874
0.484839
0.484789
0.484738
0.484686
0.484633
0.484582
0.48453
0.48448
0.484434
0.484404
0.484396
0.484358
0.484307
0.484253
0.484193
0.484118
0.484051
0.483997
0.483946
0.483896
0.483852
0.483829
0.483834
0.483801
0.48375
0.483695
0.483632
0.483541
0.483448
0.483387
0.483335
0.483283
0.483233
0.483187
0.483154
0.483166
0.483187
0.483151
0.4831
0.483046
0.482983
0.4829
0.482827
0.482771
0.48272
0.482669
0.48262
0.48258
0.482569
0.482573
0.482533
0.482482
0.482428
0.482368
0.482293
0.482227
0.482173
0.482122
0.48207
0.482019
0.481968
0.481916
0.481865
0.481815
0.481766
0.481723
0.481706
0.481701
0.48166
0.481608
0.481555
0.481496
0.481427
0.481369
0.481317
0.481266
0.481216
0.481169
0.481134
0.481128
0.4811
0.481051
0.480999
0.480945
0.480883
0.480822
0.480769
0.480718
0.480667
0.480616
0.480564
0.480514
0.480463
0.480413
0.480364
0.48032
0.480292
0.480287
0.480252
0.480202
0.480151
0.480099
0.480045
0.479985
0.47993
0.479879
0.479828
0.479778
0.479729
0.479688
0.47965
0.479602
0.479552
0.479501
0.479451
0.479401
0.479354
0.479313
0.479272
0.479222
0.479172
0.479121
0.47907
0.479019
0.478968
0.478918
0.478871
0.478831
0.478813
0.478785
0.478736
0.478685
0.478633
0.478577
0.478519
0.478467
0.478417
0.478367
0.478321
0.478288
0.47828
0.478248
0.478198
0.478147
0.478093
0.478032
0.477968
0.477914
0.477863
0.477812
0.477762
0.477711
0.47766
0.477607
0.477552
0.477498
0.477447
0.477396