/*--------------------------------*- C++ -*----------------------------------*\
  =========                 |
  \\      /  F ield         | OpenFOAM: The Open Source CFD Toolbox
   \\    /   O peration     | Website:  https://openfoam.org
    \\  /    A nd           | Version:  9
     \\/     M anipulation  |
\*---------------------------------------------------------------------------*/
FoamFile
{
    format      ascii;
    class       volScalarField;
    location    "0.018";
    object      ddt0(rho);
}
// * * * * * * * * * * * * * * * * * * * * * * * * * * * * * * * * * * * * * //

dimensions      [1 -3 -1 0 0 0 0];

internalField   nonuniform List<scalar> 
10000
(
-51.8088
-51.8078
-51.7993
-51.7933
-51.7985
-51.8103
-51.8221
-51.8305
-51.8351
-51.8367
-51.8373
-51.8396
-51.84
-51.8397
-51.8395
-51.8394
-51.8394
-51.8393
-51.8392
-51.8392
-51.8391
-51.8391
-51.839
-51.839
-51.8389
-51.8388
-51.8388
-51.8387
-51.8387
-51.8386
-51.8385
-51.8385
-51.8384
-51.8383
-51.8382
-51.8382
-51.8381
-51.838
-51.8379
-51.8379
-51.8378
-51.8377
-51.8376
-51.8375
-51.8374
-51.8374
-51.8373
-51.8372
-51.8371
-51.837
-51.8369
-51.8368
-51.8367
-51.8366
-51.8365
-51.8364
-51.8363
-51.8362
-51.8361
-51.836
-51.8359
-51.8358
-51.8357
-51.8356
-51.8355
-51.8354
-51.8353
-51.8351
-51.835
-51.8349
-51.8348
-51.8347
-51.8345
-51.8344
-51.8343
-51.8342
-51.834
-51.8339
-51.8338
-51.8337
-51.8335
-51.8334
-51.8333
-51.8331
-51.833
-51.8329
-51.8327
-51.8326
-51.8324
-51.8323
-51.8321
-51.832
-51.8319
-51.8317
-51.8316
-51.8314
-51.8313
-51.8311
-51.831
-51.8308
-51.8306
-51.8305
-51.8303
-51.8302
-51.83
-51.8298
-51.8297
-51.8295
-51.8293
-51.8292
-51.829
-51.8288
-51.8287
-51.8285
-51.8283
-51.8281
-51.828
-51.8278
-51.8276
-51.8274
-51.8272
-51.827
-51.8269
-51.8267
-51.8265
-51.8263
-51.8261
-51.8259
-51.8257
-51.8255
-51.8253
-51.8251
-51.8249
-51.8247
-51.8245
-51.8243
-51.8241
-51.8239
-51.8237
-51.8235
-51.8233
-51.8231
-51.8229
-51.8227
-51.8225
-51.8223
-51.822
-51.8218
-51.8216
-51.8214
-51.8212
-51.8209
-51.8207
-51.8205
-51.8203
-51.82
-51.8198
-51.8196
-51.8193
-51.8191
-51.8189
-51.8186
-51.8184
-51.8182
-51.8179
-51.8177
-51.8174
-51.8172
-51.817
-51.8167
-51.8165
-51.8162
-51.816
-51.8157
-51.8155
-51.8152
-51.815
-51.8147
-51.8144
-51.8142
-51.8139
-51.8137
-51.8134
-51.8131
-51.8129
-51.8126
-51.8123
-51.8121
-51.8118
-51.8115
-51.8113
-51.811
-51.8107
-51.8104
-51.8101
-51.8099
-51.8096
-51.8093
-51.809
-51.8087
-51.8085
-51.8082
-51.8079
-51.8076
-51.8073
-51.807
-51.8067
-51.8064
-51.8061
-51.8058
-51.8055
-51.8052
-51.8049
-51.8046
-51.8043
-51.804
-51.8037
-51.8034
-51.8031
-51.8028
-51.8025
-51.8022
-51.8018
-51.8015
-51.8012
-51.8009
-51.8006
-51.8002
-51.7999
-51.7996
-51.7993
-51.799
-51.7986
-51.7983
-51.798
-51.7976
-51.7973
-51.797
-51.7966
-51.7963
-51.796
-51.7956
-51.7953
-51.7949
-51.7946
-51.7943
-51.7939
-51.7936
-51.7932
-51.7929
-51.7925
-51.7922
-51.7918
-51.7915
-51.7911
-51.7907
-51.7904
-51.79
-51.7897
-51.7893
-51.7889
-51.7886
-51.7882
-51.7878
-51.7875
-51.7871
-51.7867
-51.7864
-51.786
-51.7856
-51.7852
-51.7848
-51.7845
-51.7841
-51.7837
-51.7833
-51.7829
-51.7826
-51.7822
-51.7818
-51.7814
-51.781
-51.7806
-51.7802
-51.7798
-51.7794
-51.779
-51.7786
-51.7782
-51.7778
-51.7774
-51.777
-51.7766
-51.7762
-51.7758
-51.7754
-51.775
-51.7746
-51.7742
-51.7737
-51.7733
-51.7729
-51.7725
-51.7721
-51.7717
-51.7712
-51.7708
-51.7704
-51.77
-51.7695
-51.7691
-51.7687
-51.7682
-51.7678
-51.7674
-51.7669
-51.7665
-51.7661
-51.7656
-51.7652
-51.7648
-51.7643
-51.7639
-51.7634
-51.763
-51.7625
-51.7621
-51.7616
-51.7612
-51.7607
-51.7603
-51.7598
-51.7594
-51.7589
-51.7584
-51.758
-51.7575
-51.757
-51.7566
-51.7561
-51.7557
-51.7552
-51.7547
-51.7542
-51.7538
-51.7533
-51.7528
-51.7523
-51.7519
-51.7514
-51.7509
-51.7504
-51.7499
-51.7495
-51.749
-51.7485
-51.748
-51.7475
-51.747
-51.7465
-51.746
-51.7455
-51.745
-51.7445
-51.7441
-51.7436
-51.7431
-51.7425
-51.742
-51.7415
-51.741
-51.7405
-51.74
-51.7395
-51.739
-51.7385
-51.738
-51.7375
-51.7369
-51.7364
-51.7359
-51.7354
-51.7349
-51.7343
-51.7338
-51.7333
-51.7328
-51.7322
-51.7317
-51.7312
-51.7306
-51.7301
-51.7296
-51.729
-51.7285
-51.728
-51.7274
-51.7269
-51.7263
-51.7258
-51.7253
-51.7247
-51.7242
-51.7236
-51.7231
-51.7225
-51.722
-51.7214
-51.7209
-51.7203
-51.7197
-51.7192
-51.7186
-51.7181
-51.7175
-51.7169
-51.7164
-51.7158
-51.7152
-51.7147
-51.7141
-51.7135
-51.7129
-51.7124
-51.7118
-51.7112
-51.7106
-51.7101
-51.7095
-51.7089
-51.7083
-51.7077
-51.7071
-51.7065
-51.706
-51.7054
-51.7048
-51.7042
-51.7036
-51.703
-51.7024
-51.7018
-51.7012
-51.7006
-51.7
-51.6994
-51.6988
-51.6982
-51.6976
-51.697
-51.6964
-51.6957
-51.6951
-51.6945
-51.6939
-51.6933
-51.6927
-51.692
-51.6914
-51.6908
-51.6902
-51.6896
-51.6889
-51.6883
-51.6877
-51.687
-51.6864
-51.6858
-51.6851
-51.6845
-51.6839
-51.6832
-51.6826
-51.682
-51.6813
-51.6807
-51.68
-51.6794
-51.6787
-51.6781
-51.6774
-51.6768
-51.6761
-51.6755
-51.6748
-51.6742
-51.6735
-51.6729
-51.6722
-51.6715
-51.6709
-51.6702
-51.6695
-51.6689
-51.6682
-51.6675
-51.6669
-51.6662
-51.6655
-51.6648
-51.6642
-51.6635
-51.6628
-51.6621
-51.6614
-51.6608
-51.6601
-51.6594
-51.6587
-51.658
-51.6573
-51.6566
-51.6559
-51.6553
-51.6546
-51.6539
-51.6532
-51.6525
-51.6518
-51.6511
-51.6504
-51.6497
-51.649
-51.6482
-51.6475
-51.6468
-51.6461
-51.6454
-51.6447
-51.644
-51.6433
-51.6425
-51.6418
-51.6411
-51.6404
-51.6397
-51.6389
-51.6382
-51.6375
-51.6368
-51.636
-51.6353
-51.6346
-51.6338
-51.6331
-51.6324
-51.6316
-51.6309
-51.6301
-51.6294
-51.6287
-51.6279
-51.6272
-51.6264
-51.6257
-51.6249
-51.6242
-51.6234
-51.6227
-51.6219
-51.6212
-51.6204
-51.6196
-51.6189
-51.6181
-51.6174
-51.6166
-51.6158
-51.6151
-51.6143
-51.6135
-51.6128
-51.612
-51.6112
-51.6104
-51.6097
-51.6089
-51.6081
-51.6073
-51.6065
-51.6058
-51.605
-51.6042
-51.6034
-51.6026
-51.6018
-51.601
-51.6002
-51.5994
-51.5986
-51.5979
-51.5971
-51.5963
-51.5955
-51.5947
-51.5938
-51.593
-51.5922
-51.5914
-51.5906
-51.5898
-51.589
-51.5882
-51.5874
-51.5866
-51.5857
-51.5849
-51.5841
-51.5833
-51.5825
-51.5816
-51.5808
-51.58
-51.5792
-51.5783
-51.5775
-51.5767
-51.5758
-51.575
-51.5742
-51.5733
-51.5725
-51.5716
-51.5708
-51.57
-51.5691
-51.5683
-51.5674
-51.5666
-51.5657
-51.5649
-51.564
-51.5632
-51.5623
-51.5615
-51.5606
-51.5597
-51.5589
-51.558
-51.5572
-51.5563
-51.5554
-51.5546
-51.5537
-51.5528
-51.5519
-51.5511
-51.5502
-51.5493
-51.5484
-51.5476
-51.5467
-51.5458
-51.5449
-51.544
-51.5432
-51.5423
-51.5414
-51.5405
-51.5396
-51.5387
-51.5378
-51.5369
-51.536
-51.5351
-51.5342
-51.5333
-51.5324
-51.5315
-51.5306
-51.5297
-51.5288
-51.5279
-51.527
-51.5261
-51.5252
-51.5243
-51.5233
-51.5224
-51.5215
-51.5206
-51.5197
-51.5187
-51.5178
-51.5169
-51.516
-51.515
-51.5141
-51.5132
-51.5122
-51.5113
-51.5104
-51.5094
-51.5085
-51.5076
-51.5066
-51.5057
-51.5047
-51.5038
-51.5029
-51.5019
-51.501
-51.5
-51.4991
-51.4981
-51.4972
-51.4962
-51.4952
-51.4943
-51.4933
-51.4924
-51.4914
-51.4904
-51.4895
-51.4885
-51.4875
-51.4866
-51.4856
-51.4846
-51.4837
-51.4827
-51.4817
-51.4807
-51.4797
-51.4788
-51.4778
-51.4768
-51.4758
-51.4748
-51.4738
-51.4729
-51.4719
-51.4709
-51.4699
-51.4689
-51.4679
-51.4669
-51.4659
-51.4649
-51.4639
-51.4629
-51.4619
-51.4609
-51.4599
-51.4589
-51.4579
-51.4569
-51.4558
-51.4548
-51.4538
-51.4528
-51.4518
-51.4508
-51.4497
-51.4487
-51.4477
-51.4467
-51.4456
-51.4446
-51.4436
-51.4426
-51.4415
-51.4405
-51.4395
-51.4384
-51.4374
-51.4363
-51.4353
-51.4343
-51.4332
-51.4322
-51.4311
-51.4301
-51.429
-51.428
-51.4269
-51.4259
-51.4248
-51.4238
-51.4227
-51.4217
-51.4206
-51.4195
-51.4185
-51.4174
-51.4164
-51.4153
-51.4142
-51.4131
-51.4121
-51.411
-51.4099
-51.4089
-51.4078
-51.4067
-51.4056
-51.4045
-51.4035
-51.4024
-51.4013
-51.4002
-51.3991
-51.398
-51.3969
-51.3958
-51.3948
-51.3937
-51.3926
-51.3915
-51.3904
-51.3893
-51.3882
-51.3871
-51.386
-51.3849
-51.3837
-51.3826
-51.3815
-51.3804
-51.3793
-51.3782
-51.3771
-51.376
-51.3748
-51.3737
-51.3726
-51.3715
-51.3703
-51.3692
-51.3681
-51.367
-51.3658
-51.3647
-51.3636
-51.3624
-51.3613
-51.3602
-51.359
-51.3579
-51.3567
-51.3556
-51.3545
-51.3533
-51.3522
-51.351
-51.3499
-51.3487
-51.3476
-51.3464
-51.3453
-51.3441
-51.3429
-51.3418
-51.3406
-51.3395
-51.3383
-51.3371
-51.336
-51.3348
-51.3336
-51.3324
-51.3313
-51.3301
-51.3289
-51.3278
-51.3266
-51.3254
-51.3242
-51.323
-51.3218
-51.3207
-51.3195
-51.3183
-51.3171
-51.3159
-51.3147
-51.3135
-51.3123
-51.3111
-51.3099
-51.3087
-51.3075
-51.3063
-51.3051
-51.3039
-51.3027
-51.3015
-51.3003
-51.2991
-51.2979
-51.2966
-51.2954
-51.2942
-51.293
-51.2918
-51.2906
-51.2893
-51.2881
-51.2869
-51.2857
-51.2844
-51.2832
-51.282
-51.2807
-51.2795
-51.2783
-51.277
-51.2758
-51.2745
-51.2733
-51.2721
-51.2708
-51.2696
-51.2683
-51.2671
-51.2658
-51.2646
-51.2633
-51.2621
-51.2608
-51.2596
-51.2583
-51.257
-51.2558
-51.2545
-51.2532
-51.252
-51.2507
-51.2494
-51.2482
-51.2469
-51.2456
-51.2443
-51.2431
-51.2418
-51.2405
-51.2392
-51.2379
-51.2367
-51.2354
-51.2341
-51.2328
-51.2315
-51.2302
-51.2289
-51.2276
-51.2263
-51.225
-51.2237
-51.2224
-51.2211
-51.2198
-51.2185
-51.2172
-51.2159
-51.2146
-51.2133
-51.212
-51.2107
-51.2094
-51.2081
-51.2067
-51.2054
-51.2041
-51.2028
-51.2014
-51.2001
-51.1988
-51.1975
-51.1961
-51.1948
-51.1935
-51.1921
-51.1908
-51.1895
-51.1881
-51.1868
-51.1855
-51.1841
-51.1828
-51.1814
-51.1801
-51.1787
-51.1774
-51.176
-51.1747
-51.1733
-51.172
-51.1706
-51.1692
-51.1679
-51.1665
-51.1652
-51.1638
-51.1624
-51.1611
-51.1597
-51.1583
-51.1569
-51.1556
-51.1542
-51.1528
-51.1514
-51.1501
-51.1487
-51.1473
-51.1459
-51.1445
-51.1431
-51.1418
-51.1404
-51.139
-51.1376
-51.1362
-51.1348
-51.1334
-51.132
-51.1306
-51.1292
-51.1278
-51.1264
-51.125
-51.1236
-51.1221
-51.1207
-51.1193
-51.1179
-51.1165
-51.1151
-51.1137
-51.1122
-51.1108
-51.1094
-51.108
-51.1065
-51.1051
-51.1037
-51.1023
-51.1008
-51.0994
-51.098
-51.0965
-51.0951
-51.0936
-51.0922
-51.0908
-51.0893
-51.0879
-51.0864
-51.085
-51.0835
-51.0821
-51.0806
-51.0792
-51.0777
-51.0762
-51.0748
-51.0733
-51.0719
-51.0704
-51.0689
-51.0675
-51.066
-51.0645
-51.063
-51.0616
-51.0601
-51.0586
-51.0571
-51.0557
-51.0542
-51.0527
-51.0512
-51.0497
-51.0482
-51.0467
-51.0453
-51.0438
-51.0423
-51.0408
-51.0393
-51.0378
-51.0363
-51.0348
-51.0333
-51.0318
-51.0303
-51.0288
-51.0272
-51.0257
-51.0242
-51.0227
-51.0212
-51.0197
-51.0182
-51.0166
-51.0151
-51.0136
-51.0121
-51.0105
-51.009
-51.0075
-51.006
-51.0044
-51.0029
-51.0013
-50.9998
-50.9983
-50.9967
-50.9952
-50.9936
-50.9921
-50.9906
-50.989
-50.9875
-50.9859
-50.9844
-50.9828
-50.9812
-50.9797
-50.9781
-50.9766
-50.975
-50.9734
-50.9719
-50.9703
-50.9687
-50.9672
-50.9656
-50.964
-50.9624
-50.9609
-50.9593
-50.9577
-50.9561
-50.9545
-50.953
-50.9514
-50.9498
-50.9482
-50.9466
-50.945
-50.9434
-50.9418
-50.9402
-50.9386
-50.937
-50.9354
-50.9338
-50.9322
-50.9306
-50.929
-50.9274
-50.9258
-50.9242
-50.9225
-50.9209
-50.9193
-50.9177
-50.9161
-50.9144
-50.9128
-50.9112
-50.9096
-50.9079
-50.9063
-50.9047
-50.903
-50.9014
-50.8998
-50.8981
-50.8965
-50.8948
-50.8932
-50.8915
-50.8899
-50.8882
-50.8866
-50.8849
-50.8833
-50.8816
-50.88
-50.8783
-50.8766
-50.875
-50.8733
-50.8717
-50.87
-50.8683
-50.8666
-50.865
-50.8633
-50.8616
-50.8599
-50.8583
-50.8566
-50.8549
-50.8532
-50.8515
-50.8498
-50.8482
-50.8465
-50.8448
-50.8431
-50.8414
-50.8397
-50.838
-50.8363
-50.8346
-50.8329
-50.8312
-50.8295
-50.8278
-50.826
-50.8243
-50.8226
-50.8209
-50.8192
-50.8175
-50.8157
-50.814
-50.8123
-50.8106
-50.8088
-50.8071
-50.8054
-50.8036
-50.8019
-50.8002
-50.7984
-50.7967
-50.795
-50.7932
-50.7915
-50.7897
-50.788
-50.7862
-50.7845
-50.7827
-50.781
-50.7792
-50.7774
-50.7757
-50.7739
-50.7722
-50.7704
-50.7686
-50.7668
-50.7651
-50.7633
-50.7615
-50.7598
-50.758
-50.7562
-50.7544
-50.7526
-50.7508
-50.7491
-50.7473
-50.7455
-50.7437
-50.7419
-50.7401
-50.7383
-50.7365
-50.7347
-50.7329
-50.7311
-50.7293
-50.7275
-50.7257
-50.7239
-50.722
-50.7202
-50.7184
-50.7166
-50.7148
-50.7129
-50.7111
-50.7093
-50.7075
-50.7056
-50.7038
-50.702
-50.7001
-50.6983
-50.6965
-50.6946
-50.6928
-50.6909
-50.6891
-50.6872
-50.6854
-50.6835
-50.6817
-50.6798
-50.678
-50.6761
-50.6742
-50.6724
-50.6705
-50.6687
-50.6668
-50.6649
-50.663
-50.6612
-50.6593
-50.6574
-50.6555
-50.6537
-50.6518
-50.6499
-50.648
-50.6461
-50.6442
-50.6423
-50.6404
-50.6385
-50.6366
-50.6347
-50.6328
-50.6309
-50.629
-50.6271
-50.6252
-50.6233
-50.6214
-50.6195
-50.6176
-50.6156
-50.6137
-50.6118
-50.6099
-50.6079
-50.606
-50.6041
-50.6021
-50.6002
-50.5983
-50.5963
-50.5944
-50.5925
-50.5905
-50.5886
-50.5866
-50.5847
-50.5827
-50.5808
-50.5788
-50.5768
-50.5749
-50.5729
-50.571
-50.569
-50.567
-50.5651
-50.5631
-50.5611
-50.5591
-50.5572
-50.5552
-50.5532
-50.5512
-50.5492
-50.5472
-50.5452
-50.5432
-50.5413
-50.5393
-50.5373
-50.5353
-50.5333
-50.5313
-50.5292
-50.5272
-50.5252
-50.5232
-50.5212
-50.5192
-50.5172
-50.5151
-50.5131
-50.5111
-50.5091
-50.507
-50.505
-50.503
-50.5009
-50.4989
-50.4969
-50.4948
-50.4928
-50.4907
-50.4887
-50.4866
-50.4846
-50.4825
-50.4805
-50.4784
-50.4763
-50.4743
-50.4722
-50.4701
-50.4681
-50.466
-50.4639
-50.4619
-50.4598
-50.4577
-50.4556
-50.4535
-50.4514
-50.4493
-50.4473
-50.4452
-50.4431
-50.441
-50.4389
-50.4368
-50.4347
-50.4325
-50.4304
-50.4283
-50.4262
-50.4241
-50.422
-50.4199
-50.4177
-50.4156
-50.4135
-50.4113
-50.4092
-50.4071
-50.4049
-50.4028
-50.4007
-50.3985
-50.3964
-50.3942
-50.3921
-50.3899
-50.3878
-50.3856
-50.3834
-50.3813
-50.3791
-50.3769
-50.3748
-50.3726
-50.3704
-50.3682
-50.3661
-50.3639
-50.3617
-50.3595
-50.3573
-50.3551
-50.3529
-50.3507
-50.3485
-50.3463
-50.3441
-50.3419
-50.3397
-50.3375
-50.3353
-50.3331
-50.3309
-50.3286
-50.3264
-50.3242
-50.3219
-50.3197
-50.3175
-50.3152
-50.313
-50.3108
-50.3085
-50.3063
-50.304
-50.3018
-50.2995
-50.2973
-50.295
-50.2927
-50.2905
-50.2882
-50.2859
-50.2836
-50.2814
-50.2791
-50.2768
-50.2745
-50.2722
-50.2699
-50.2677
-50.2654
-50.2631
-50.2608
-50.2585
-50.2561
-50.2538
-50.2515
-50.2492
-50.2469
-50.2446
-50.2422
-50.2399
-50.2376
-50.2353
-50.2329
-50.2306
-50.2282
-50.2259
-50.2235
-50.2212
-50.2188
-50.2165
-50.2141
-50.2118
-50.2094
-50.207
-50.2047
-50.2023
-50.1999
-50.1975
-50.1952
-50.1928
-50.1904
-50.188
-50.1856
-50.1832
-50.1808
-50.1784
-50.176
-50.1736
-50.1712
-50.1687
-50.1663
-50.1639
-50.1615
-50.159
-50.1566
-50.1542
-50.1517
-50.1493
-50.1469
-50.1444
-50.142
-50.1395
-50.137
-50.1346
-50.1321
-50.1296
-50.1272
-50.1247
-50.1222
-50.1197
-50.1172
-50.1148
-50.1123
-50.1098
-50.1073
-50.1048
-50.1023
-50.0997
-50.0972
-50.0947
-50.0922
-50.0897
-50.0871
-50.0846
-50.0821
-50.0795
-50.077
-50.0744
-50.0719
-50.0693
-50.0668
-50.0642
-50.0616
-50.0591
-50.0565
-50.0539
-50.0513
-50.0488
-50.0462
-50.0436
-50.041
-50.0384
-50.0358
-50.0332
-50.0306
-50.0279
-50.0253
-50.0227
-50.0201
-50.0174
-50.0148
-50.0121
-50.0095
-50.0068
-50.0042
-50.0015
-49.9989
-49.9962
-49.9935
-49.9909
-49.9882
-49.9855
-49.9828
-49.9801
-49.9774
-49.9747
-49.972
-49.9693
-49.9666
-49.9638
-49.9611
-49.9584
-49.9557
-49.9529
-49.9502
-49.9474
-49.9447
-49.9419
-49.9391
-49.9364
-49.9336
-49.9308
-49.928
-49.9252
-49.9224
-49.9196
-49.9168
-49.914
-49.9112
-49.9084
-49.9056
-49.9027
-49.8999
-49.8971
-49.8942
-49.8914
-49.8885
-49.8856
-49.8828
-49.8799
-49.877
-49.8741
-49.8713
-49.8684
-49.8655
-49.8625
-49.8596
-49.8567
-49.8538
-49.8509
-49.8479
-49.845
-49.842
-49.8391
-49.8361
-49.8331
-49.8302
-49.8272
-49.8242
-49.8212
-49.8182
-49.8152
-49.8122
-49.8092
-49.8062
-49.8031
-49.8001
-49.797
-49.794
-49.7909
-49.7879
-49.7848
-49.7817
-49.7786
-49.7756
-49.7725
-49.7694
-49.7662
-49.7631
-49.76
-49.7569
-49.7537
-49.7506
-49.7474
-49.7443
-49.7411
-49.7379
-49.7347
-49.7315
-49.7283
-49.7251
-49.7219
-49.7187
-49.7155
-49.7122
-49.709
-49.7057
-49.7025
-49.6992
-49.6959
-49.6926
-49.6893
-49.686
-49.6827
-49.6794
-49.6761
-49.6727
-49.6694
-49.666
-49.6627
-49.6593
-49.6559
-49.6525
-49.6491
-49.6457
-49.6423
-49.6389
-49.6354
-49.632
-49.6285
-49.6251
-49.6216
-49.6181
-49.6146
-49.6111
-49.6076
-49.6041
-49.6006
-49.597
-49.5935
-49.5899
-49.5864
-49.5828
-49.5792
-49.5756
-49.572
-49.5684
-49.5647
-49.5611
-49.5574
-49.5538
-49.5501
-49.5464
-49.5427
-49.539
-49.5353
-49.5316
-49.5278
-49.5241
-49.5203
-49.5166
-49.5128
-49.509
-49.5052
-49.5014
-49.4975
-49.4937
-49.4899
-49.486
-49.4821
-49.4782
-49.4743
-49.4704
-49.4665
-49.4626
-49.4586
-49.4547
-49.4507
-49.4467
-49.4427
-49.4387
-49.4347
-49.4307
-49.4266
-49.4226
-49.4185
-49.4144
-49.4103
-49.4062
-49.4021
-49.3979
-49.3938
-49.3896
-49.3854
-49.3812
-49.377
-49.3728
-49.3686
-49.3643
-49.3601
-49.3558
-49.3515
-49.3472
-49.3429
-49.3386
-49.3342
-49.3298
-49.3255
-49.3211
-49.3167
-49.3123
-49.3078
-49.3034
-49.2989
-49.2944
-49.2899
-49.2854
-49.2809
-49.2763
-49.2718
-49.2672
-49.2626
-49.258
-49.2534
-49.2488
-49.2441
-49.2394
-49.2347
-49.23
-49.2253
-49.2206
-49.2158
-49.211
-49.2062
-49.2014
-49.1966
-49.1918
-49.1869
-49.182
-49.1771
-49.1722
-49.1673
-49.1623
-49.1574
-49.1524
-49.1474
-49.1424
-49.1373
-49.1322
-49.1272
-49.1221
-49.1169
-49.1118
-49.1066
-49.1014
-49.0962
-49.091
-49.0858
-49.0805
-49.0752
-49.0699
-49.0646
-49.0592
-49.0539
-49.0485
-49.0431
-49.0376
-49.0322
-49.0267
-49.0212
-49.0156
-49.0101
-49.0045
-48.9989
-48.9933
-48.9876
-48.9819
-48.9762
-48.9705
-48.9647
-48.9589
-48.9531
-48.9473
-48.9414
-48.9355
-48.9296
-48.9237
-48.9177
-48.9117
-48.9056
-48.8996
-48.8935
-48.8874
-48.8812
-48.875
-48.8687
-48.8625
-48.8562
-48.85
-48.8435
-48.8372
-48.8306
-48.8244
-48.8175
-48.8115
-48.8042
-48.7985
-48.7907
-48.7855
-48.7769
-48.7724
-48.7627
-48.7595
-48.748
-48.7468
-48.7327
-48.7345
-48.7168
-48.7228
-48.7
-48.7117
-48.6825
-48.701
-48.6647
-48.6891
-48.6488
-48.6722
-48.6399
-48.6435
-48.6363
-48.6247
-48.6154
-48.6115
-48.6019
-48.5915
-48.5855
-48.5776
-48.5684
-48.5575
-48.5503
-48.5414
-48.5343
-48.5242
-48.5163
-48.5063
-48.4991
-48.4889
-48.4809
-48.4715
-48.4647
-48.4551
-48.4493
-48.4299
-48.4473
-48.3824
-48.4619
-48.3278
-48.4587
-48.3196
-48.3818
-48.3662
-48.3221
-48.3372
-48.3295
-48.2951
-48.3113
-48.3096
-48.2361
-48.3232
-48.1957
-48.301
-48.1667
-48.2595
-48.2022
-48.1637
-48.1931
-48.1837
-48.1364
-48.1232
-48.2031
-48.0073
-48.1886
-48.0433
-48.047
-48.0952
-48.0127
-48.0387
-47.9995
-48.0186
-47.9201
-48.046
-47.8594
-47.9757
-47.9119
-47.847
-47.8912
-47.8708
-47.8483
-47.7422
-47.9175
-47.6938
-47.7708
-47.758
-47.6615
-47.7393
-47.6527
-47.6749
-47.5521
-47.7192
-47.5378
-47.4582
-47.6067
-47.4759
-47.4976
-47.4011
-47.4961
-47.3
-47.3796
-47.3903
-47.2084
-47.3217
-47.1885
-47.2661
-47.0792
-47.1655
-47.1309
-46.979
-47.0813
-46.9063
-47.0089
-46.7997
-46.8734
-46.8649
-46.6808
-46.7764
-46.5708
-46.704
-46.4735
-46.4703
-46.5534
-46.3041
-46.4088
-46.15
-46.3034
-46.1019
-45.974
-46.1117
-45.8565
-45.9643
-45.6403
-45.7424
-45.592
-45.4512
-45.5109
-45.2244
-45.3633
-45.0488
-45.0301
-44.9493
-44.6944
-44.806
-44.4434
-44.5112
-44.2795
-44.1135
-44.1136
-43.7478
-43.83
-43.489
-43.4076
-43.2791
-42.9495
-42.9856
-42.5735
-42.5378
-42.282
-42.0021
-41.9556
-41.5115
-41.4818
-41.1186
-40.8797
-40.7334
-40.2792
-40.2217
-39.7741
-39.5582
-39.3114
-38.8569
-38.7507
-38.2389
-38.0287
-37.6886
-37.2364
-37.0705
-36.5123
-36.293
-35.8742
-35.4231
-35.1974
-34.6071
-34.3702
-33.8902
-33.4376
-33.1605
-32.5492
-32.2936
-31.7709
-31.3176
-31.0026
-30.3818
-30.1122
-29.5666
-29.1152
-28.7799
-28.1609
-27.8854
-27.3373
-26.8924
-26.5565
-25.9501
-25.6801
-25.1488
-24.7166
-24.3993
-23.8165
-23.5627
-23.0665
-22.6527
-22.3707
-21.8222
-21.5925
-21.1481
-20.7566
-20.5233
-20.018
-19.8168
-19.4374
-19.0703
-18.8935
-18.4392
-18.2662
-17.9612
-17.6189
-17.4999
-17.1038
-16.9531
-16.7284
-16.4097
-16.3436
-16.0116
-15.8741
-15.7305
-15.435
-15.4104
-15.148
-15.0129
-14.9453
-14.6754
-14.6753
-14.4874
-14.3446
-14.3423
-14.1037
-14.108
-13.997
-13.841
-13.8865
-13.6889
-13.6776
-13.6411
-13.474
-13.5435
-13.3994
-13.3561
-13.3846
-13.2174
-13.2835
-13.2038
-13.1211
-13.196
-13.0472
-13.0838
-13.0728
-12.9561
-13.0496
-12.9417
-12.9297
-12.9798
-12.8483
-12.9274
-12.8797
-12.8141
-12.9033
-12.7862
-12.8212
-12.8401
-12.7347
-12.8287
-12.7568
-12.7312
-12.8037
-12.6898
-12.7505
-12.7437
-12.6632
-12.7568
-12.6731
-12.6736
-12.7289
-12.6229
-12.6948
-12.6717
-12.6093
-12.6974
-12.6098
-12.6245
-12.6674
-12.5694
-12.6439
-12.6132
-12.5613
-12.6436
-12.5573
-12.5765
-12.6136
-12.5215
-12.5935
-12.5628
-12.5141
-12.5921
-12.5108
-12.5269
-12.5645
-12.476
-12.5417
-12.5177
-12.466
-12.5413
-12.4682
-12.4748
-12.518
-12.4321
-12.4877
-12.4763
-12.4171
-12.4897
-12.429
-12.4205
-12.4723
-12.3904
-12.431
-12.4369
-12.3691
-12.4356
-12.393
-12.3653
-12.4251
-12.3521
-12.3718
-12.3979
-12.3238
-12.3779
-12.359
-12.3114
-12.3742
-12.318
-12.3114
-12.3563
-12.2837
-12.3163
-12.3254
-12.2617
-12.3176
-12.2873
-12.2528
-12.3088
-12.2499
-12.2527
-12.2879
-12.2198
-12.2548
-12.2571
-12.2002
-12.2529
-12.2213
-12.1912
-12.2423
-12.1867
-12.1891
-12.2217
-12.1581
-12.1886
-12.1931
-12.1382
-12.1852
-12.1601
-12.1268
-12.1752
-12.1272
-12.1216
-12.157
-12.0986
-12.1188
-12.132
-12.0765
-12.1147
-12.1024
-12.0613
-12.1064
-12.0713
-12.052
-12.0919
-12.0423
-12.0461
-12.0716
-12.0173
-12.041
-12.0464
-11.9975
-12.0341
-12.0183
-11.983
-12.0235
-11.9897
-11.9727
-12.0083
-11.9628
-11.9648
-11.9887
-11.9389
-11.9576
-11.9654
-11.919
-11.9492
-11.9397
-11.9029
-11.9383
-11.9134
-11.8899
-11.9244
-11.8876
-11.8794
-11.9071
-11.8636
-11.87
-11.8869
-11.8421
-11.8604
-11.8645
-11.8232
-11.8499
-11.8407
-11.807
-11.8377
-11.8165
-11.793
-11.8233
-11.7927
-11.7804
-11.8069
-11.7698
-11.7689
-11.7884
-11.7484
-11.7576
-11.7682
-11.7288
-11.7459
-11.747
-11.7107
-11.7334
-11.7251
-11.6942
-11.7199
-11.7028
-11.6791
-11.7051
-11.6809
-11.6649
-11.6891
-11.6595
-11.6513
-11.672
-11.6387
-11.6381
-11.6537
-11.6189
-11.6248
-11.6348
-11.6
-11.6114
-11.6152
-11.5819
-11.5976
-11.5952
-11.5647
-11.5832
-11.5751
-11.5481
-11.5683
-11.555
-11.532
-11.5528
-11.5349
-11.5165
-11.5367
-11.5152
-11.5011
-11.5202
-11.4958
-11.486
-11.5032
-11.4766
-11.471
-11.4858
-11.458
-11.4559
-11.4682
-11.4395
-11.4408
-11.4503
-11.4214
-11.4255
-11.4322
-11.4037
-11.41
-11.4142
-11.3862
-11.3945
-11.396
-11.3689
-11.3787
-11.3778
-11.3519
-11.3627
-11.3598
-11.3349
-11.3467
-11.3417
-11.3181
-11.3304
-11.3237
-11.3014
-11.3139
-11.306
-11.2846
-11.2975
-11.2882
-11.2681
-11.2808
-11.2705
-11.2515
-11.264
-11.2532
-11.2347
-11.2473
-11.2356
-11.2182
-11.2304
-11.2183
-11.2016
-11.2133
-11.2013
-11.1848
-11.1965
-11.184
-11.1682
-11.1794
-11.167
-11.1515
-11.1622
-11.1503
-11.1346
-11.1453
-11.1333
-11.1179
-11.1281
-11.1166
-11.1012
-11.1108
-11.1
-11.0842
-11.0938
-11.0832
-11.0676
-11.0765
-11.0668
-11.0508
-11.0592
-11.0504
-11.0338
-11.042
-11.0337
-11.0173
-11.0245
-11.0175
-11.0005
-11.0071
-11.0011
-10.9837
-10.9898
-10.9846
-10.9673
-10.9722
-10.9684
-10.9506
-10.9547
-10.9521
-10.9341
-10.9372
-10.9356
-10.9179
-10.9194
-10.9193
-10.9014
-10.9019
-10.9028
-10.8852
-10.8844
-10.8862
-10.8694
-10.8666
-10.8697
-10.8532
-10.8491
-10.8529
-10.8374
-10.8316
-10.8359
-10.8218
-10.814
-10.819
-10.8059
-10.7969
-10.8017
-10.7903
-10.7796
-10.7844
-10.7748
-10.7625
-10.767
-10.759
-10.7459
-10.7492
-10.7434
-10.7292
-10.7316
-10.7276
-10.7127
-10.7139
-10.7115
-10.6968
-10.6959
-10.6956
-10.6807
-10.6782
-10.6791
-10.665
-10.6605
-10.6624
-10.6496
-10.6427
-10.6457
-10.634
-10.6255
-10.6284
-10.6187
-10.6084
-10.611
-10.6035
-10.5914
-10.5935
-10.5878
-10.5751
-10.5756
-10.5723
-10.5589
-10.5578
-10.5564
-10.543
-10.5401
-10.5399
-10.5276
-10.5222
-10.5235
-10.5121
-10.5048
-10.5065
-10.4969
-10.4877
-10.4891
-10.4818
-10.4707
-10.4717
-10.4662
-10.4544
-10.4538
-10.4507
-10.4384
-10.436
-10.4348
-10.4227
-10.4184
-10.4182
-10.4075
-10.4007
-10.4016
-10.3923
-10.3836
-10.3844
-10.377
-10.3669
-10.3667
-10.3619
-10.3505
-10.3492
-10.3461
-10.3348
-10.3313
-10.3301
-10.3194
-10.3137
-10.3137
-10.304
-10.2966
-10.2965
-10.2891
-10.2796
-10.2792
-10.2738
-10.2632
-10.2617
-10.2581
-10.2475
-10.2438
-10.2423
-10.232
-10.2264
-10.2257
-10.2169
-10.2092
-10.2087
-10.2019
-10.1924
-10.1915
-10.1864
-10.1765
-10.1737
-10.1709
-10.1607
-10.1562
-10.1547
-10.1455
-10.139
-10.1379
-10.1305
-10.122
-10.1209
-10.1152
-10.1058
-10.1033
-10.0998
-10.09
-10.0858
-10.0838
-10.0746
-10.0686
-10.0671
-10.0597
-10.0516
-10.0502
-10.0445
-10.0354
-10.0328
-10.029
-10.0197
-10.0152
-10.0131
-10.0043
-9.9982
-9.99641
-9.98938
-9.98136
-9.97941
-9.97417
-9.9652
-9.96214
-9.95851
-9.94977
-9.94465
-9.94256
-9.93443
-9.92778
-9.92576
-9.91942
-9.91128
-9.90861
-9.90419
-9.89532
-9.89144
-9.88826
-9.88012
-9.87415
-9.87204
-9.86492
-9.85752
-9.8551
-9.84975
-9.84149
-9.83782
-9.83432
-9.82584
-9.8208
-9.81806
-9.81083
-9.80388
-9.80144
-9.79568
-9.78766
-9.7844
-9.78019
-9.77214
-9.76713
-9.76437
-9.7568
-9.75043
-9.7477
-9.7418
-9.73409
-9.73074
-9.72647
-9.71836
-9.71375
-9.71047
-9.70328
-9.6968
-9.69413
-9.68806
-9.68064
-9.67715
-9.67275
-9.66498
-9.66009
-9.65696
-9.64967
-9.64349
-9.64036
-9.63471
-9.62718
-9.6236
-9.61925
-9.61164
-9.60665
-9.6033
-9.59654
-9.58995
-9.58692
-9.58128
-9.57404
-9.56993
-9.56594
-9.55849
-9.55316
-9.54987
-9.54336
-9.53676
-9.53323
-9.52827
-9.52079
-9.51653
-9.51254
-9.5056
-9.49973
-9.49644
-9.49044
-9.48354
-9.47981
-9.47511
-9.468
-9.46294
-9.45943
-9.45269
-9.44658
-9.44295
-9.43765
-9.43057
-9.4263
-9.42216
-9.41517
-9.40972
-9.40604
-9.40017
-9.3934
-9.38965
-9.38478
-9.3779
-9.37289
-9.36912
-9.36267
-9.35651
-9.35286
-9.34747
-9.34074
-9.33615
-9.3321
-9.32529
-9.31977
-9.31595
-9.31027
-9.30366
-9.29951
-9.29495
-9.28814
-9.28303
-9.27905
-9.27311
-9.26672
-9.26286
-9.25779
-9.25118
-9.24626
-9.24222
-9.23595
-9.22996
-9.2261
-9.22075
-9.21427
-9.20954
-9.20539
-9.19888
-9.19332
-9.18929
-9.18384
-9.17738
-9.17294
-9.16848
-9.16199
-9.15664
-9.15254
-9.14698
-9.14058
-9.13636
-9.13158
-9.12525
-9.11993
-9.11589
-9.11009
-9.10393
-9.0997
-9.09481
-9.08853
-9.08329
-9.07925
-9.07328
-9.06738
-9.06302
-9.05818
-9.0518
-9.04677
-9.04256
-9.03664
-9.03079
-9.02641
-9.02155
-9.01516
-9.01028
-9.00588
-9.00011
-8.99418
-8.98993
-8.98491
-8.97868
-8.97373
-8.96933
-8.96359
-8.95767
-8.95344
-8.94833
-8.94228
-8.93717
-8.93289
-8.92707
-8.92129
-8.9169
-8.91191
-8.90585
-8.90072
-8.89645
-8.89064
-8.88494
-8.88038
-8.87557
-8.86943
-8.86437
-8.85996
-8.85436
-8.84855
-8.84399
-8.83922
-8.83314
-8.82803
-8.82354
-8.81815
-8.8122
-8.80767
-8.80285
-8.79697
-8.79165
-8.78724
-8.7819
-8.77598
-8.77133
-8.76657
-8.76085
-8.75533
-8.75099
-8.74568
-8.73988
-8.73497
-8.73041
-8.72469
-8.71915
-8.71469
-8.70956
-8.70379
-8.6987
-8.69426
-8.6886
-8.68307
-8.67839
-8.67355
-8.66769
-8.66256
-8.65805
-8.65263
-8.64698
-8.6422
-8.63751
-8.6317
-8.62648
-8.62185
-8.61674
-8.61092
-8.60611
-8.60141
-8.59585
-8.59039
-8.58577
-8.5808
-8.57501
-8.57004
-8.56536
-8.56005
-8.55437
-8.54974
-8.54484
-8.53924
-8.53396
-8.52939
-8.5242
-8.51852
-8.5137
-8.50893
-8.5035
-8.49799
-8.49344
-8.48836
-8.48281
-8.47766
-8.47309
-8.46774
-8.46221
-8.45745
-8.4526
-8.44711
-8.44176
-8.43721
-8.43202
-8.42653
-8.42148
-8.41687
-8.41142
-8.40603
-8.40128
-8.39639
-8.39087
-8.38566
-8.38106
-8.37582
-8.37038
-8.3654
-8.36074
-8.35526
-8.34998
-8.3452
-8.3403
-8.33477
-8.32966
-8.32501
-8.31978
-8.31437
-8.30942
-8.30473
-8.29926
-8.29404
-8.28924
-8.28434
-8.27881
-8.27378
-8.26905
-8.26388
-8.25847
-8.25356
-8.24882
-8.24341
-8.2382
-8.23338
-8.22851
-8.223
-8.21799
-8.21322
-8.20812
-8.20269
-8.19781
-8.19303
-8.1877
-8.18247
-8.17765
-8.17279
-8.16733
-8.16231
-8.1575
-8.15248
-8.14705
-8.14216
-8.13736
-8.13213
-8.12686
-8.12203
-8.11719
-8.1118
-8.10673
-8.10191
-8.09696
-8.09154
-8.08662
-8.08181
-8.07669
-8.07136
-8.06653
-8.0617
-8.05641
-8.05126
-8.04644
-8.04155
-8.03617
-8.0312
-8.02637
-8.02136
-8.01601
-8.01114
-8.00631
-8.00115
-7.99592
-7.99109
-7.98624
-7.98095
-7.97589
-7.97105
-7.96614
-7.9608
-7.95587
-7.95103
-7.94601
-7.94072
-7.93585
-7.93103
-7.92586
-7.9207
-7.91585
-7.91102
-7.90573
-7.90072
-7.89587
-7.89097
-7.88567
-7.88074
-7.87591
-7.87089
-7.86566
-7.86077
-7.85597
-7.85081
-7.8457
-7.84081
-7.83602
-7.83077
-7.82576
-7.8209
-7.81603
-7.81078
-7.80582
-7.80101
-7.79601
-7.79084
-7.78589
-7.78113
-7.77601
-7.77092
-7.76599
-7.76123
-7.75604
-7.75101
-7.74614
-7.74131
-7.73612
-7.73111
-7.72632
-7.72136
-7.71624
-7.71123
-7.7065
-7.70144
-7.69637
-7.69139
-7.68666
-7.68155
-7.6765
-7.6716
-7.6668
-7.6617
-7.65664
-7.65183
-7.64694
-7.64187
-7.6368
-7.63207
-7.62709
-7.62205
-7.61702
-7.61229
-7.60728
-7.60222
-7.59728
-7.5925
-7.5875
-7.5824
-7.57756
-7.57271
-7.56774
-7.56262
-7.55785
-7.55295
-7.54796
-7.54288
-7.53812
-7.53322
-7.52818
-7.52319
-7.51839
-7.51352
-7.50842
-7.50352
-7.49868
-7.49381
-7.48869
-7.48384
-7.47899
-7.4741
-7.469
-7.46416
-7.45934
-7.45438
-7.44936
-7.44449
-7.43971
-7.43468
-7.42972
-7.42484
-7.42008
-7.41501
-7.41009
-7.40523
-7.40043
-7.39539
-7.39045
-7.38565
-7.38078
-7.37578
-7.37083
-7.36608
-7.36115
-7.35619
-7.35123
-7.34651
-7.34155
-7.3366
-7.33168
-7.32692
-7.32199
-7.31701
-7.31215
-7.30735
-7.30246
-7.29743
-7.29264
-7.28779
-7.28292
-7.27789
-7.27312
-7.26827
-7.26337
-7.25839
-7.2536
-7.24878
-7.24384
-7.23891
-7.23408
-7.22931
-7.22432
-7.21944
-7.2146
-7.20983
-7.20483
-7.19997
-7.19515
-7.19035
-7.18538
-7.1805
-7.17572
-7.17088
-7.16596
-7.16104
-7.15631
-7.15143
-7.14654
-7.14161
-7.1369
-7.13201
-7.12711
-7.12222
-7.11748
-7.11262
-7.10769
-7.10286
-7.09807
-7.09325
-7.08829
-7.0835
-7.07868
-7.07389
-7.06892
-7.06414
-7.05933
-7.05452
-7.04958
-7.04477
-7.04001
-7.03515
-7.03027
-7.02543
-7.0207
-7.01581
-7.01096
-7.0061
-7.0014
-6.9965
-6.99165
-6.98681
-6.98208
-6.97722
-6.97234
-6.96755
-6.96278
-6.95796
-6.95305
-6.9483
-6.9435
-6.93871
-6.93379
-6.92905
-6.92425
-6.91946
-6.91456
-6.9098
-6.90503
-6.90021
-6.89535
-6.89055
-6.88583
-6.88097
-6.87616
-6.87133
-6.86663
-6.86177
-6.85696
-6.85214
-6.84743
-6.84259