/*--------------------------------*- C++ -*----------------------------------*\
  =========                 |
  \\      /  F ield         | OpenFOAM: The Open Source CFD Toolbox
   \\    /   O peration     | Website:  https://openfoam.org
    \\  /    A nd           | Version:  9
     \\/     M anipulation  |
\*---------------------------------------------------------------------------*/
FoamFile
{
    format      ascii;
    class       volScalarField;
    location    "0.018";
    object      ddt0(p);
}
// * * * * * * * * * * * * * * * * * * * * * * * * * * * * * * * * * * * * * //

dimensions      [1 -1 -3 0 0 0 0];

internalField   nonuniform List<scalar> 
10000
(
-6.02805e+06
-6.02802e+06
-6.02802e+06
-6.02801e+06
-6.02799e+06
-6.02797e+06
-6.02796e+06
-6.02794e+06
-6.02793e+06
-6.02791e+06
-6.0279e+06
-6.02788e+06
-6.02787e+06
-6.02785e+06
-6.02784e+06
-6.02782e+06
-6.0278e+06
-6.02779e+06
-6.02777e+06
-6.02775e+06
-6.02774e+06
-6.02772e+06
-6.0277e+06
-6.02769e+06
-6.02767e+06
-6.02765e+06
-6.02763e+06
-6.02761e+06
-6.0276e+06
-6.02758e+06
-6.02756e+06
-6.02754e+06
-6.02752e+06
-6.0275e+06
-6.02748e+06
-6.02746e+06
-6.02744e+06
-6.02742e+06
-6.0274e+06
-6.02738e+06
-6.02736e+06
-6.02734e+06
-6.02732e+06
-6.0273e+06
-6.02728e+06
-6.02726e+06
-6.02724e+06
-6.02722e+06
-6.02719e+06
-6.02717e+06
-6.02715e+06
-6.02713e+06
-6.02711e+06
-6.02708e+06
-6.02706e+06
-6.02704e+06
-6.02702e+06
-6.02699e+06
-6.02697e+06
-6.02695e+06
-6.02692e+06
-6.0269e+06
-6.02687e+06
-6.02685e+06
-6.02683e+06
-6.0268e+06
-6.02678e+06
-6.02675e+06
-6.02673e+06
-6.0267e+06
-6.02668e+06
-6.02665e+06
-6.02663e+06
-6.0266e+06
-6.02657e+06
-6.02655e+06
-6.02652e+06
-6.02649e+06
-6.02647e+06
-6.02644e+06
-6.02641e+06
-6.02639e+06
-6.02636e+06
-6.02633e+06
-6.0263e+06
-6.02628e+06
-6.02625e+06
-6.02622e+06
-6.02619e+06
-6.02616e+06
-6.02613e+06
-6.02611e+06
-6.02608e+06
-6.02605e+06
-6.02602e+06
-6.02599e+06
-6.02596e+06
-6.02593e+06
-6.0259e+06
-6.02587e+06
-6.02584e+06
-6.02581e+06
-6.02578e+06
-6.02575e+06
-6.02572e+06
-6.02568e+06
-6.02565e+06
-6.02562e+06
-6.02559e+06
-6.02556e+06
-6.02553e+06
-6.02549e+06
-6.02546e+06
-6.02543e+06
-6.0254e+06
-6.02536e+06
-6.02533e+06
-6.0253e+06
-6.02526e+06
-6.02523e+06
-6.0252e+06
-6.02516e+06
-6.02513e+06
-6.02509e+06
-6.02506e+06
-6.02502e+06
-6.02499e+06
-6.02495e+06
-6.02492e+06
-6.02488e+06
-6.02485e+06
-6.02481e+06
-6.02478e+06
-6.02474e+06
-6.02471e+06
-6.02467e+06
-6.02463e+06
-6.0246e+06
-6.02456e+06
-6.02452e+06
-6.02449e+06
-6.02445e+06
-6.02441e+06
-6.02437e+06
-6.02434e+06
-6.0243e+06
-6.02426e+06
-6.02422e+06
-6.02418e+06
-6.02414e+06
-6.02411e+06
-6.02407e+06
-6.02403e+06
-6.02399e+06
-6.02395e+06
-6.02391e+06
-6.02387e+06
-6.02383e+06
-6.02379e+06
-6.02375e+06
-6.02371e+06
-6.02367e+06
-6.02363e+06
-6.02359e+06
-6.02354e+06
-6.0235e+06
-6.02346e+06
-6.02342e+06
-6.02338e+06
-6.02334e+06
-6.02329e+06
-6.02325e+06
-6.02321e+06
-6.02317e+06
-6.02312e+06
-6.02308e+06
-6.02304e+06
-6.02299e+06
-6.02295e+06
-6.02291e+06
-6.02286e+06
-6.02282e+06
-6.02277e+06
-6.02273e+06
-6.02269e+06
-6.02264e+06
-6.0226e+06
-6.02255e+06
-6.02251e+06
-6.02246e+06
-6.02241e+06
-6.02237e+06
-6.02232e+06
-6.02228e+06
-6.02223e+06
-6.02218e+06
-6.02214e+06
-6.02209e+06
-6.02204e+06
-6.022e+06
-6.02195e+06
-6.0219e+06
-6.02185e+06
-6.02181e+06
-6.02176e+06
-6.02171e+06
-6.02166e+06
-6.02161e+06
-6.02156e+06
-6.02152e+06
-6.02147e+06
-6.02142e+06
-6.02137e+06
-6.02132e+06
-6.02127e+06
-6.02122e+06
-6.02117e+06
-6.02112e+06
-6.02107e+06
-6.02102e+06
-6.02097e+06
-6.02092e+06
-6.02087e+06
-6.02082e+06
-6.02076e+06
-6.02071e+06
-6.02066e+06
-6.02061e+06
-6.02056e+06
-6.0205e+06
-6.02045e+06
-6.0204e+06
-6.02035e+06
-6.02029e+06
-6.02024e+06
-6.02019e+06
-6.02013e+06
-6.02008e+06
-6.02003e+06
-6.01997e+06
-6.01992e+06
-6.01986e+06
-6.01981e+06
-6.01976e+06
-6.0197e+06
-6.01965e+06
-6.01959e+06
-6.01954e+06
-6.01948e+06
-6.01942e+06
-6.01937e+06
-6.01931e+06
-6.01926e+06
-6.0192e+06
-6.01914e+06
-6.01909e+06
-6.01903e+06
-6.01897e+06
-6.01892e+06
-6.01886e+06
-6.0188e+06
-6.01874e+06
-6.01869e+06
-6.01863e+06
-6.01857e+06
-6.01851e+06
-6.01845e+06
-6.0184e+06
-6.01834e+06
-6.01828e+06
-6.01822e+06
-6.01816e+06
-6.0181e+06
-6.01804e+06
-6.01798e+06
-6.01792e+06
-6.01786e+06
-6.0178e+06
-6.01774e+06
-6.01768e+06
-6.01762e+06
-6.01756e+06
-6.01749e+06
-6.01743e+06
-6.01737e+06
-6.01731e+06
-6.01725e+06
-6.01719e+06
-6.01712e+06
-6.01706e+06
-6.017e+06
-6.01694e+06
-6.01687e+06
-6.01681e+06
-6.01675e+06
-6.01668e+06
-6.01662e+06
-6.01656e+06
-6.01649e+06
-6.01643e+06
-6.01636e+06
-6.0163e+06
-6.01624e+06
-6.01617e+06
-6.01611e+06
-6.01604e+06
-6.01598e+06
-6.01591e+06
-6.01584e+06
-6.01578e+06
-6.01571e+06
-6.01565e+06
-6.01558e+06
-6.01551e+06
-6.01545e+06
-6.01538e+06
-6.01531e+06
-6.01525e+06
-6.01518e+06
-6.01511e+06
-6.01504e+06
-6.01498e+06
-6.01491e+06
-6.01484e+06
-6.01477e+06
-6.0147e+06
-6.01463e+06
-6.01457e+06
-6.0145e+06
-6.01443e+06
-6.01436e+06
-6.01429e+06
-6.01422e+06
-6.01415e+06
-6.01408e+06
-6.01401e+06
-6.01394e+06
-6.01387e+06
-6.0138e+06
-6.01373e+06
-6.01365e+06
-6.01358e+06
-6.01351e+06
-6.01344e+06
-6.01337e+06
-6.0133e+06
-6.01322e+06
-6.01315e+06
-6.01308e+06
-6.01301e+06
-6.01293e+06
-6.01286e+06
-6.01279e+06
-6.01272e+06
-6.01264e+06
-6.01257e+06
-6.01249e+06
-6.01242e+06
-6.01235e+06
-6.01227e+06
-6.0122e+06
-6.01212e+06
-6.01205e+06
-6.01197e+06
-6.0119e+06
-6.01182e+06
-6.01175e+06
-6.01167e+06
-6.0116e+06
-6.01152e+06
-6.01144e+06
-6.01137e+06
-6.01129e+06
-6.01122e+06
-6.01114e+06
-6.01106e+06
-6.01098e+06
-6.01091e+06
-6.01083e+06
-6.01075e+06
-6.01067e+06
-6.0106e+06
-6.01052e+06
-6.01044e+06
-6.01036e+06
-6.01028e+06
-6.0102e+06
-6.01012e+06
-6.01005e+06
-6.00997e+06
-6.00989e+06
-6.00981e+06
-6.00973e+06
-6.00965e+06
-6.00957e+06
-6.00949e+06
-6.00941e+06
-6.00933e+06
-6.00924e+06
-6.00916e+06
-6.00908e+06
-6.009e+06
-6.00892e+06
-6.00884e+06
-6.00876e+06
-6.00867e+06
-6.00859e+06
-6.00851e+06
-6.00843e+06
-6.00834e+06
-6.00826e+06
-6.00818e+06
-6.00809e+06
-6.00801e+06
-6.00793e+06
-6.00784e+06
-6.00776e+06
-6.00767e+06
-6.00759e+06
-6.00751e+06
-6.00742e+06
-6.00734e+06
-6.00725e+06
-6.00717e+06
-6.00708e+06
-6.007e+06
-6.00691e+06
-6.00682e+06
-6.00674e+06
-6.00665e+06
-6.00657e+06
-6.00648e+06
-6.00639e+06
-6.00631e+06
-6.00622e+06
-6.00613e+06
-6.00604e+06
-6.00596e+06
-6.00587e+06
-6.00578e+06
-6.00569e+06
-6.0056e+06
-6.00552e+06
-6.00543e+06
-6.00534e+06
-6.00525e+06
-6.00516e+06
-6.00507e+06
-6.00498e+06
-6.00489e+06
-6.0048e+06
-6.00471e+06
-6.00462e+06
-6.00453e+06
-6.00444e+06
-6.00435e+06
-6.00426e+06
-6.00417e+06
-6.00408e+06
-6.00399e+06
-6.00389e+06
-6.0038e+06
-6.00371e+06
-6.00362e+06
-6.00353e+06
-6.00343e+06
-6.00334e+06
-6.00325e+06
-6.00316e+06
-6.00306e+06
-6.00297e+06
-6.00288e+06
-6.00278e+06
-6.00269e+06
-6.0026e+06
-6.0025e+06
-6.00241e+06
-6.00231e+06
-6.00222e+06
-6.00212e+06
-6.00203e+06
-6.00193e+06
-6.00184e+06
-6.00174e+06
-6.00165e+06
-6.00155e+06
-6.00146e+06
-6.00136e+06
-6.00126e+06
-6.00117e+06
-6.00107e+06
-6.00097e+06
-6.00088e+06
-6.00078e+06
-6.00068e+06
-6.00058e+06
-6.00049e+06
-6.00039e+06
-6.00029e+06
-6.00019e+06
-6.00009e+06
-5.99999e+06
-5.9999e+06
-5.9998e+06
-5.9997e+06
-5.9996e+06
-5.9995e+06
-5.9994e+06
-5.9993e+06
-5.9992e+06
-5.9991e+06
-5.999e+06
-5.9989e+06
-5.9988e+06
-5.9987e+06
-5.9986e+06
-5.99849e+06
-5.99839e+06
-5.99829e+06
-5.99819e+06
-5.99809e+06
-5.99799e+06
-5.99788e+06
-5.99778e+06
-5.99768e+06
-5.99758e+06
-5.99747e+06
-5.99737e+06
-5.99727e+06
-5.99716e+06
-5.99706e+06
-5.99696e+06
-5.99685e+06
-5.99675e+06
-5.99664e+06
-5.99654e+06
-5.99643e+06
-5.99633e+06
-5.99622e+06
-5.99612e+06
-5.99601e+06
-5.99591e+06
-5.9958e+06
-5.9957e+06
-5.99559e+06
-5.99548e+06
-5.99538e+06
-5.99527e+06
-5.99516e+06
-5.99506e+06
-5.99495e+06
-5.99484e+06
-5.99474e+06
-5.99463e+06
-5.99452e+06
-5.99441e+06
-5.9943e+06
-5.9942e+06
-5.99409e+06
-5.99398e+06
-5.99387e+06
-5.99376e+06
-5.99365e+06
-5.99354e+06
-5.99343e+06
-5.99332e+06
-5.99321e+06
-5.9931e+06
-5.99299e+06
-5.99288e+06
-5.99277e+06
-5.99266e+06
-5.99255e+06
-5.99244e+06
-5.99233e+06
-5.99222e+06
-5.9921e+06
-5.99199e+06
-5.99188e+06
-5.99177e+06
-5.99165e+06
-5.99154e+06
-5.99143e+06
-5.99132e+06
-5.9912e+06
-5.99109e+06
-5.99098e+06
-5.99086e+06
-5.99075e+06
-5.99064e+06
-5.99052e+06
-5.99041e+06
-5.99029e+06
-5.99018e+06
-5.99006e+06
-5.98995e+06
-5.98983e+06
-5.98972e+06
-5.9896e+06
-5.98949e+06
-5.98937e+06
-5.98925e+06
-5.98914e+06
-5.98902e+06
-5.9889e+06
-5.98879e+06
-5.98867e+06
-5.98855e+06
-5.98844e+06
-5.98832e+06
-5.9882e+06
-5.98808e+06
-5.98796e+06
-5.98785e+06
-5.98773e+06
-5.98761e+06
-5.98749e+06
-5.98737e+06
-5.98725e+06
-5.98713e+06
-5.98701e+06
-5.98689e+06
-5.98677e+06
-5.98665e+06
-5.98653e+06
-5.98641e+06
-5.98629e+06
-5.98617e+06
-5.98605e+06
-5.98593e+06
-5.98581e+06
-5.98569e+06
-5.98557e+06
-5.98544e+06
-5.98532e+06
-5.9852e+06
-5.98508e+06
-5.98496e+06
-5.98483e+06
-5.98471e+06
-5.98459e+06
-5.98446e+06
-5.98434e+06
-5.98422e+06
-5.98409e+06
-5.98397e+06
-5.98385e+06
-5.98372e+06
-5.9836e+06
-5.98347e+06
-5.98335e+06
-5.98322e+06
-5.9831e+06
-5.98297e+06
-5.98285e+06
-5.98272e+06
-5.98259e+06
-5.98247e+06
-5.98234e+06
-5.98222e+06
-5.98209e+06
-5.98196e+06
-5.98184e+06
-5.98171e+06
-5.98158e+06
-5.98145e+06
-5.98133e+06
-5.9812e+06
-5.98107e+06
-5.98094e+06
-5.98081e+06
-5.98069e+06
-5.98056e+06
-5.98043e+06
-5.9803e+06
-5.98017e+06
-5.98004e+06
-5.97991e+06
-5.97978e+06
-5.97965e+06
-5.97952e+06
-5.97939e+06
-5.97926e+06
-5.97913e+06
-5.979e+06
-5.97887e+06
-5.97874e+06
-5.9786e+06
-5.97847e+06
-5.97834e+06
-5.97821e+06
-5.97808e+06
-5.97794e+06
-5.97781e+06
-5.97768e+06
-5.97755e+06
-5.97741e+06
-5.97728e+06
-5.97715e+06
-5.97701e+06
-5.97688e+06
-5.97675e+06
-5.97661e+06
-5.97648e+06
-5.97634e+06
-5.97621e+06
-5.97607e+06
-5.97594e+06
-5.9758e+06
-5.97567e+06
-5.97553e+06
-5.9754e+06
-5.97526e+06
-5.97512e+06
-5.97499e+06
-5.97485e+06
-5.97471e+06
-5.97458e+06
-5.97444e+06
-5.9743e+06
-5.97417e+06
-5.97403e+06
-5.97389e+06
-5.97375e+06
-5.97362e+06
-5.97348e+06
-5.97334e+06
-5.9732e+06
-5.97306e+06
-5.97292e+06
-5.97278e+06
-5.97264e+06
-5.9725e+06
-5.97236e+06
-5.97222e+06
-5.97208e+06
-5.97194e+06
-5.9718e+06
-5.97166e+06
-5.97152e+06
-5.97138e+06
-5.97124e+06
-5.9711e+06
-5.97096e+06
-5.97082e+06
-5.97067e+06
-5.97053e+06
-5.97039e+06
-5.97025e+06
-5.9701e+06
-5.96996e+06
-5.96982e+06
-5.96968e+06
-5.96953e+06
-5.96939e+06
-5.96925e+06
-5.9691e+06
-5.96896e+06
-5.96881e+06
-5.96867e+06
-5.96852e+06
-5.96838e+06
-5.96823e+06
-5.96809e+06
-5.96794e+06
-5.9678e+06
-5.96765e+06
-5.96751e+06
-5.96736e+06
-5.96722e+06
-5.96707e+06
-5.96692e+06
-5.96678e+06
-5.96663e+06
-5.96648e+06
-5.96633e+06
-5.96619e+06
-5.96604e+06
-5.96589e+06
-5.96574e+06
-5.9656e+06
-5.96545e+06
-5.9653e+06
-5.96515e+06
-5.965e+06
-5.96485e+06
-5.9647e+06
-5.96455e+06
-5.9644e+06
-5.96425e+06
-5.9641e+06
-5.96395e+06
-5.9638e+06
-5.96365e+06
-5.9635e+06
-5.96335e+06
-5.9632e+06
-5.96305e+06
-5.9629e+06
-5.96274e+06
-5.96259e+06
-5.96244e+06
-5.96229e+06
-5.96214e+06
-5.96198e+06
-5.96183e+06
-5.96168e+06
-5.96152e+06
-5.96137e+06
-5.96122e+06
-5.96106e+06
-5.96091e+06
-5.96076e+06
-5.9606e+06
-5.96045e+06
-5.96029e+06
-5.96014e+06
-5.95998e+06
-5.95983e+06
-5.95967e+06
-5.95952e+06
-5.95936e+06
-5.95921e+06
-5.95905e+06
-5.95889e+06
-5.95874e+06
-5.95858e+06
-5.95842e+06
-5.95827e+06
-5.95811e+06
-5.95795e+06
-5.95779e+06
-5.95764e+06
-5.95748e+06
-5.95732e+06
-5.95716e+06
-5.957e+06
-5.95685e+06
-5.95669e+06
-5.95653e+06
-5.95637e+06
-5.95621e+06
-5.95605e+06
-5.95589e+06
-5.95573e+06
-5.95557e+06
-5.95541e+06
-5.95525e+06
-5.95509e+06
-5.95493e+06
-5.95477e+06
-5.9546e+06
-5.95444e+06
-5.95428e+06
-5.95412e+06
-5.95396e+06
-5.9538e+06
-5.95363e+06
-5.95347e+06
-5.95331e+06
-5.95315e+06
-5.95298e+06
-5.95282e+06
-5.95266e+06
-5.95249e+06
-5.95233e+06
-5.95216e+06
-5.952e+06
-5.95184e+06
-5.95167e+06
-5.95151e+06
-5.95134e+06
-5.95118e+06
-5.95101e+06
-5.95085e+06
-5.95068e+06
-5.95051e+06
-5.95035e+06
-5.95018e+06
-5.95002e+06
-5.94985e+06
-5.94968e+06
-5.94952e+06
-5.94935e+06
-5.94918e+06
-5.94901e+06
-5.94885e+06
-5.94868e+06
-5.94851e+06
-5.94834e+06
-5.94817e+06
-5.948e+06
-5.94784e+06
-5.94767e+06
-5.9475e+06
-5.94733e+06
-5.94716e+06
-5.94699e+06
-5.94682e+06
-5.94665e+06
-5.94648e+06
-5.94631e+06
-5.94614e+06
-5.94597e+06
-5.94579e+06
-5.94562e+06
-5.94545e+06
-5.94528e+06
-5.94511e+06
-5.94494e+06
-5.94476e+06
-5.94459e+06
-5.94442e+06
-5.94425e+06
-5.94407e+06
-5.9439e+06
-5.94373e+06
-5.94355e+06
-5.94338e+06
-5.94321e+06
-5.94303e+06
-5.94286e+06
-5.94268e+06
-5.94251e+06
-5.94233e+06
-5.94216e+06
-5.94198e+06
-5.94181e+06
-5.94163e+06
-5.94146e+06
-5.94128e+06
-5.94111e+06
-5.94093e+06
-5.94075e+06
-5.94058e+06
-5.9404e+06
-5.94022e+06
-5.94004e+06
-5.93987e+06
-5.93969e+06
-5.93951e+06
-5.93933e+06
-5.93916e+06
-5.93898e+06
-5.9388e+06
-5.93862e+06
-5.93844e+06
-5.93826e+06
-5.93808e+06
-5.9379e+06
-5.93772e+06
-5.93754e+06
-5.93736e+06
-5.93718e+06
-5.937e+06
-5.93682e+06
-5.93664e+06
-5.93646e+06
-5.93628e+06
-5.9361e+06
-5.93591e+06
-5.93573e+06
-5.93555e+06
-5.93537e+06
-5.93519e+06
-5.935e+06
-5.93482e+06
-5.93464e+06
-5.93446e+06
-5.93427e+06
-5.93409e+06
-5.9339e+06
-5.93372e+06
-5.93354e+06
-5.93335e+06
-5.93317e+06
-5.93298e+06
-5.9328e+06
-5.93261e+06
-5.93243e+06
-5.93224e+06
-5.93206e+06
-5.93187e+06
-5.93169e+06
-5.9315e+06
-5.93131e+06
-5.93113e+06
-5.93094e+06
-5.93075e+06
-5.93056e+06
-5.93038e+06
-5.93019e+06
-5.93e+06
-5.92981e+06
-5.92963e+06
-5.92944e+06
-5.92925e+06
-5.92906e+06
-5.92887e+06
-5.92868e+06
-5.92849e+06
-5.9283e+06
-5.92811e+06
-5.92792e+06
-5.92773e+06
-5.92754e+06
-5.92735e+06
-5.92716e+06
-5.92697e+06
-5.92678e+06
-5.92659e+06
-5.9264e+06
-5.92621e+06
-5.92602e+06
-5.92582e+06
-5.92563e+06
-5.92544e+06
-5.92525e+06
-5.92505e+06
-5.92486e+06
-5.92467e+06
-5.92447e+06
-5.92428e+06
-5.92409e+06
-5.92389e+06
-5.9237e+06
-5.9235e+06
-5.92331e+06
-5.92312e+06
-5.92292e+06
-5.92273e+06
-5.92253e+06
-5.92233e+06
-5.92214e+06
-5.92194e+06
-5.92175e+06
-5.92155e+06
-5.92135e+06
-5.92116e+06
-5.92096e+06
-5.92076e+06
-5.92057e+06
-5.92037e+06
-5.92017e+06
-5.91997e+06
-5.91978e+06
-5.91958e+06
-5.91938e+06
-5.91918e+06
-5.91898e+06
-5.91878e+06
-5.91858e+06
-5.91838e+06
-5.91818e+06
-5.91799e+06
-5.91779e+06
-5.91758e+06
-5.91738e+06
-5.91718e+06
-5.91698e+06
-5.91678e+06
-5.91658e+06
-5.91638e+06
-5.91618e+06
-5.91598e+06
-5.91577e+06
-5.91557e+06
-5.91537e+06
-5.91517e+06
-5.91496e+06
-5.91476e+06
-5.91456e+06
-5.91436e+06
-5.91415e+06
-5.91395e+06
-5.91374e+06
-5.91354e+06
-5.91334e+06
-5.91313e+06
-5.91293e+06
-5.91272e+06
-5.91252e+06
-5.91231e+06
-5.91211e+06
-5.9119e+06
-5.91169e+06
-5.91149e+06
-5.91128e+06
-5.91108e+06
-5.91087e+06
-5.91066e+06
-5.91045e+06
-5.91025e+06
-5.91004e+06
-5.90983e+06
-5.90962e+06
-5.90942e+06
-5.90921e+06
-5.909e+06
-5.90879e+06
-5.90858e+06
-5.90837e+06
-5.90816e+06
-5.90795e+06
-5.90774e+06
-5.90753e+06
-5.90732e+06
-5.90711e+06
-5.9069e+06
-5.90669e+06
-5.90648e+06
-5.90627e+06
-5.90606e+06
-5.90585e+06
-5.90564e+06
-5.90542e+06
-5.90521e+06
-5.905e+06
-5.90479e+06
-5.90457e+06
-5.90436e+06
-5.90415e+06
-5.90394e+06
-5.90372e+06
-5.90351e+06
-5.90329e+06
-5.90308e+06
-5.90287e+06
-5.90265e+06
-5.90244e+06
-5.90222e+06
-5.90201e+06
-5.90179e+06
-5.90158e+06
-5.90136e+06
-5.90114e+06
-5.90093e+06
-5.90071e+06
-5.90049e+06
-5.90028e+06
-5.90006e+06
-5.89984e+06
-5.89963e+06
-5.89941e+06
-5.89919e+06
-5.89897e+06
-5.89875e+06
-5.89854e+06
-5.89832e+06
-5.8981e+06
-5.89788e+06
-5.89766e+06
-5.89744e+06
-5.89722e+06
-5.897e+06
-5.89678e+06
-5.89656e+06
-5.89634e+06
-5.89612e+06
-5.8959e+06
-5.89568e+06
-5.89546e+06
-5.89523e+06
-5.89501e+06
-5.89479e+06
-5.89457e+06
-5.89435e+06
-5.89412e+06
-5.8939e+06
-5.89368e+06
-5.89345e+06
-5.89323e+06
-5.89301e+06
-5.89278e+06
-5.89256e+06
-5.89234e+06
-5.89211e+06
-5.89189e+06
-5.89166e+06
-5.89144e+06
-5.89121e+06
-5.89099e+06
-5.89076e+06
-5.89053e+06
-5.89031e+06
-5.89008e+06
-5.88986e+06
-5.88963e+06
-5.8894e+06
-5.88917e+06
-5.88895e+06
-5.88872e+06
-5.88849e+06
-5.88826e+06
-5.88804e+06
-5.88781e+06
-5.88758e+06
-5.88735e+06
-5.88712e+06
-5.88689e+06
-5.88666e+06
-5.88643e+06
-5.8862e+06
-5.88597e+06
-5.88574e+06
-5.88551e+06
-5.88528e+06
-5.88505e+06
-5.88482e+06
-5.88459e+06
-5.88435e+06
-5.88412e+06
-5.88389e+06
-5.88366e+06
-5.88343e+06
-5.88319e+06
-5.88296e+06
-5.88273e+06
-5.88249e+06
-5.88226e+06
-5.88203e+06
-5.88179e+06
-5.88156e+06
-5.88132e+06
-5.88109e+06
-5.88085e+06
-5.88062e+06
-5.88038e+06
-5.88015e+06
-5.87991e+06
-5.87968e+06
-5.87944e+06
-5.8792e+06
-5.87897e+06
-5.87873e+06
-5.87849e+06
-5.87826e+06
-5.87802e+06
-5.87778e+06
-5.87754e+06
-5.8773e+06
-5.87707e+06
-5.87683e+06
-5.87659e+06
-5.87635e+06
-5.87611e+06
-5.87587e+06
-5.87563e+06
-5.87539e+06
-5.87515e+06
-5.87491e+06
-5.87467e+06
-5.87443e+06
-5.87419e+06
-5.87395e+06
-5.87371e+06
-5.87346e+06
-5.87322e+06
-5.87298e+06
-5.87274e+06
-5.87249e+06
-5.87225e+06
-5.87201e+06
-5.87177e+06
-5.87152e+06
-5.87128e+06
-5.87103e+06
-5.87079e+06
-5.87055e+06
-5.8703e+06
-5.87006e+06
-5.86981e+06
-5.86957e+06
-5.86932e+06
-5.86907e+06
-5.86883e+06
-5.86858e+06
-5.86834e+06
-5.86809e+06
-5.86784e+06
-5.8676e+06
-5.86735e+06
-5.8671e+06
-5.86685e+06
-5.8666e+06
-5.86636e+06
-5.86611e+06
-5.86586e+06
-5.86561e+06
-5.86536e+06
-5.86511e+06
-5.86486e+06
-5.86461e+06
-5.86436e+06
-5.86411e+06
-5.86386e+06
-5.86361e+06
-5.86336e+06
-5.86311e+06
-5.86286e+06
-5.8626e+06
-5.86235e+06
-5.8621e+06
-5.86185e+06
-5.8616e+06
-5.86134e+06
-5.86109e+06
-5.86084e+06
-5.86058e+06
-5.86033e+06
-5.86007e+06
-5.85982e+06
-5.85957e+06
-5.85931e+06
-5.85906e+06
-5.8588e+06
-5.85855e+06
-5.85829e+06
-5.85803e+06
-5.85778e+06
-5.85752e+06
-5.85726e+06
-5.85701e+06
-5.85675e+06
-5.85649e+06
-5.85623e+06
-5.85598e+06
-5.85572e+06
-5.85546e+06
-5.8552e+06
-5.85494e+06
-5.85468e+06
-5.85442e+06
-5.85417e+06
-5.85391e+06
-5.85365e+06
-5.85338e+06
-5.85312e+06
-5.85286e+06
-5.8526e+06
-5.85234e+06
-5.85208e+06
-5.85182e+06
-5.85156e+06
-5.85129e+06
-5.85103e+06
-5.85077e+06
-5.85051e+06
-5.85024e+06
-5.84998e+06
-5.84971e+06
-5.84945e+06
-5.84919e+06
-5.84892e+06
-5.84866e+06
-5.84839e+06
-5.84813e+06
-5.84786e+06
-5.8476e+06
-5.84733e+06
-5.84706e+06
-5.8468e+06
-5.84653e+06
-5.84626e+06
-5.846e+06
-5.84573e+06
-5.84546e+06
-5.84519e+06
-5.84492e+06
-5.84466e+06
-5.84439e+06
-5.84412e+06
-5.84385e+06
-5.84358e+06
-5.84331e+06
-5.84304e+06
-5.84277e+06
-5.8425e+06
-5.84223e+06
-5.84196e+06
-5.84168e+06
-5.84141e+06
-5.84114e+06
-5.84087e+06
-5.8406e+06
-5.84032e+06
-5.84005e+06
-5.83978e+06
-5.8395e+06
-5.83923e+06
-5.83896e+06
-5.83868e+06
-5.83841e+06
-5.83813e+06
-5.83786e+06
-5.83758e+06
-5.83731e+06
-5.83703e+06
-5.83675e+06
-5.83648e+06
-5.8362e+06
-5.83592e+06
-5.83565e+06
-5.83537e+06
-5.83509e+06
-5.83481e+06
-5.83454e+06
-5.83426e+06
-5.83398e+06
-5.8337e+06
-5.83342e+06
-5.83314e+06
-5.83286e+06
-5.83258e+06
-5.8323e+06
-5.83202e+06
-5.83174e+06
-5.83146e+06
-5.83117e+06
-5.83089e+06
-5.83061e+06
-5.83033e+06
-5.83005e+06
-5.82976e+06
-5.82948e+06
-5.8292e+06
-5.82891e+06
-5.82863e+06
-5.82834e+06
-5.82806e+06
-5.82777e+06
-5.82749e+06
-5.8272e+06
-5.82692e+06
-5.82663e+06
-5.82634e+06
-5.82606e+06
-5.82577e+06
-5.82548e+06
-5.8252e+06
-5.82491e+06
-5.82462e+06
-5.82433e+06
-5.82404e+06
-5.82375e+06
-5.82346e+06
-5.82317e+06
-5.82288e+06
-5.82259e+06
-5.8223e+06
-5.82201e+06
-5.82172e+06
-5.82143e+06
-5.82114e+06
-5.82085e+06
-5.82055e+06
-5.82026e+06
-5.81997e+06
-5.81968e+06
-5.81938e+06
-5.81909e+06
-5.81879e+06
-5.8185e+06
-5.8182e+06
-5.81791e+06
-5.81761e+06
-5.81732e+06
-5.81702e+06
-5.81673e+06
-5.81643e+06
-5.81613e+06
-5.81583e+06
-5.81554e+06
-5.81524e+06
-5.81494e+06
-5.81464e+06
-5.81434e+06
-5.81404e+06
-5.81374e+06
-5.81345e+06
-5.81315e+06
-5.81284e+06
-5.81254e+06
-5.81224e+06
-5.81194e+06
-5.81164e+06
-5.81134e+06
-5.81103e+06
-5.81073e+06
-5.81043e+06
-5.81013e+06
-5.80982e+06
-5.80952e+06
-5.80921e+06
-5.80891e+06
-5.8086e+06
-5.8083e+06
-5.80799e+06
-5.80769e+06
-5.80738e+06
-5.80707e+06
-5.80677e+06
-5.80646e+06
-5.80615e+06
-5.80584e+06
-5.80553e+06
-5.80523e+06
-5.80492e+06
-5.80461e+06
-5.8043e+06
-5.80399e+06
-5.80368e+06
-5.80336e+06
-5.80305e+06
-5.80274e+06
-5.80243e+06
-5.80212e+06
-5.8018e+06
-5.80149e+06
-5.80118e+06
-5.80086e+06
-5.80055e+06
-5.80024e+06
-5.79992e+06
-5.79961e+06
-5.79929e+06
-5.79897e+06
-5.79866e+06
-5.79834e+06
-5.79802e+06
-5.79771e+06
-5.79739e+06
-5.79707e+06
-5.79675e+06
-5.79643e+06
-5.79611e+06
-5.79579e+06
-5.79547e+06
-5.79515e+06
-5.79483e+06
-5.79451e+06
-5.79419e+06
-5.79387e+06
-5.79354e+06
-5.79322e+06
-5.7929e+06
-5.79257e+06
-5.79225e+06
-5.79192e+06
-5.7916e+06
-5.79127e+06
-5.79095e+06
-5.79062e+06
-5.7903e+06
-5.78997e+06
-5.78964e+06
-5.78931e+06
-5.78899e+06
-5.78866e+06
-5.78833e+06
-5.788e+06
-5.78767e+06
-5.78734e+06
-5.78701e+06
-5.78668e+06
-5.78635e+06
-5.78601e+06
-5.78568e+06
-5.78535e+06
-5.78501e+06
-5.78468e+06
-5.78435e+06
-5.78401e+06
-5.78368e+06
-5.78334e+06
-5.78301e+06
-5.78267e+06
-5.78233e+06
-5.78199e+06
-5.78166e+06
-5.78132e+06
-5.78098e+06
-5.78064e+06
-5.7803e+06
-5.77996e+06
-5.77962e+06
-5.77928e+06
-5.77894e+06
-5.7786e+06
-5.77825e+06
-5.77791e+06
-5.77757e+06
-5.77722e+06
-5.77688e+06
-5.77653e+06
-5.77619e+06
-5.77584e+06
-5.7755e+06
-5.77515e+06
-5.7748e+06
-5.77445e+06
-5.7741e+06
-5.77376e+06
-5.77341e+06
-5.77306e+06
-5.77271e+06
-5.77235e+06
-5.772e+06
-5.77165e+06
-5.7713e+06
-5.77094e+06
-5.77059e+06
-5.77024e+06
-5.76988e+06
-5.76953e+06
-5.76917e+06
-5.76881e+06
-5.76846e+06
-5.7681e+06
-5.76774e+06
-5.76738e+06
-5.76702e+06
-5.76666e+06
-5.7663e+06
-5.76594e+06
-5.76558e+06
-5.76522e+06
-5.76486e+06
-5.76449e+06
-5.76413e+06
-5.76376e+06
-5.7634e+06
-5.76303e+06
-5.76267e+06
-5.7623e+06
-5.76193e+06
-5.76156e+06
-5.7612e+06
-5.76083e+06
-5.76046e+06
-5.76008e+06
-5.75971e+06
-5.75934e+06
-5.75897e+06
-5.7586e+06
-5.75822e+06
-5.75785e+06
-5.75747e+06
-5.7571e+06
-5.75672e+06
-5.75634e+06
-5.75596e+06
-5.75559e+06
-5.75521e+06
-5.75483e+06
-5.75445e+06
-5.75406e+06
-5.75368e+06
-5.7533e+06
-5.75292e+06
-5.75253e+06
-5.75215e+06
-5.75176e+06
-5.75138e+06
-5.75099e+06
-5.7506e+06
-5.75021e+06
-5.74982e+06
-5.74943e+06
-5.74904e+06
-5.74865e+06
-5.74826e+06
-5.74787e+06
-5.74747e+06
-5.74708e+06
-5.74668e+06
-5.74628e+06
-5.74589e+06
-5.74549e+06
-5.74509e+06
-5.74469e+06
-5.74429e+06
-5.74389e+06
-5.74349e+06
-5.74309e+06
-5.74268e+06
-5.74228e+06
-5.74187e+06
-5.74147e+06
-5.74106e+06
-5.74065e+06
-5.74024e+06
-5.73983e+06
-5.73942e+06
-5.73901e+06
-5.7386e+06
-5.73819e+06
-5.73777e+06
-5.73736e+06
-5.73694e+06
-5.73653e+06
-5.73611e+06
-5.73569e+06
-5.73527e+06
-5.73485e+06
-5.73443e+06
-5.73401e+06
-5.73358e+06
-5.73316e+06
-5.73273e+06
-5.73231e+06
-5.73188e+06
-5.73145e+06
-5.73102e+06
-5.73059e+06
-5.73016e+06
-5.72973e+06
-5.7293e+06
-5.72886e+06
-5.72843e+06
-5.72799e+06
-5.72755e+06
-5.72711e+06
-5.72667e+06
-5.72623e+06
-5.72579e+06
-5.72535e+06
-5.72491e+06
-5.72446e+06
-5.72401e+06
-5.72357e+06
-5.72312e+06
-5.72267e+06
-5.72222e+06
-5.72177e+06
-5.72131e+06
-5.72086e+06
-5.72041e+06
-5.71995e+06
-5.71949e+06
-5.71903e+06
-5.71857e+06
-5.71811e+06
-5.71765e+06
-5.71719e+06
-5.71672e+06
-5.71626e+06
-5.71579e+06
-5.71532e+06
-5.71485e+06
-5.71438e+06
-5.71391e+06
-5.71343e+06
-5.71296e+06
-5.71248e+06
-5.71201e+06
-5.71153e+06
-5.71105e+06
-5.71057e+06
-5.71008e+06
-5.7096e+06
-5.70912e+06
-5.70863e+06
-5.70814e+06
-5.70765e+06
-5.70716e+06
-5.70667e+06
-5.70618e+06
-5.70568e+06
-5.70519e+06
-5.70469e+06
-5.70419e+06
-5.70369e+06
-5.70319e+06
-5.70268e+06
-5.70218e+06
-5.70167e+06
-5.70117e+06
-5.70066e+06
-5.70015e+06
-5.69963e+06
-5.69912e+06
-5.6986e+06
-5.69809e+06
-5.69757e+06
-5.69705e+06
-5.69653e+06
-5.69601e+06
-5.69548e+06
-5.69496e+06
-5.69443e+06
-5.6939e+06
-5.69337e+06
-5.69284e+06
-5.6923e+06
-5.69177e+06
-5.69123e+06
-5.69069e+06
-5.69015e+06
-5.68961e+06
-5.68907e+06
-5.68852e+06
-5.68797e+06
-5.68742e+06
-5.68687e+06
-5.68632e+06
-5.68577e+06
-5.68521e+06
-5.68465e+06
-5.68409e+06
-5.68353e+06
-5.68297e+06
-5.68241e+06
-5.68184e+06
-5.68127e+06
-5.6807e+06
-5.68013e+06
-5.67956e+06
-5.67898e+06
-5.6784e+06
-5.67782e+06
-5.67724e+06
-5.67666e+06
-5.67608e+06
-5.67549e+06
-5.6749e+06
-5.67431e+06
-5.67372e+06
-5.67312e+06
-5.67252e+06
-5.67193e+06
-5.67133e+06
-5.67072e+06
-5.67012e+06
-5.66951e+06
-5.6689e+06
-5.66829e+06
-5.66768e+06
-5.66706e+06
-5.66645e+06
-5.66583e+06
-5.6652e+06
-5.66458e+06
-5.66395e+06
-5.66333e+06
-5.6627e+06
-5.66206e+06
-5.66143e+06
-5.66079e+06
-5.66015e+06
-5.65951e+06
-5.65887e+06
-5.65822e+06
-5.65757e+06
-5.65692e+06
-5.65626e+06
-5.65561e+06
-5.65495e+06
-5.65429e+06
-5.65362e+06
-5.65296e+06
-5.65229e+06
-5.65162e+06
-5.65094e+06
-5.65027e+06
-5.64959e+06
-5.64891e+06
-5.64822e+06
-5.64753e+06
-5.64684e+06
-5.64615e+06
-5.64546e+06
-5.64476e+06
-5.64406e+06
-5.64335e+06
-5.64264e+06
-5.64193e+06
-5.64122e+06
-5.6405e+06
-5.63978e+06
-5.63906e+06
-5.63833e+06
-5.6376e+06
-5.63687e+06
-5.63614e+06
-5.6354e+06
-5.63465e+06
-5.63391e+06
-5.63316e+06
-5.6324e+06
-5.63165e+06
-5.63089e+06
-5.63012e+06
-5.62935e+06
-5.62858e+06
-5.62781e+06
-5.62703e+06
-5.62624e+06
-5.62546e+06
-5.62466e+06
-5.62387e+06
-5.62307e+06
-5.62226e+06
-5.62145e+06
-5.62064e+06
-5.61982e+06
-5.619e+06
-5.61817e+06
-5.61734e+06
-5.6165e+06
-5.61566e+06
-5.61481e+06
-5.61396e+06
-5.61311e+06
-5.61225e+06
-5.61139e+06
-5.61053e+06
-5.60967e+06
-5.6088e+06
-5.60793e+06
-5.60706e+06
-5.60617e+06
-5.60527e+06
-5.60436e+06
-5.60343e+06
-5.60247e+06
-5.60169e+06
-5.60016e+06
-5.59969e+06
-5.59851e+06
-5.59754e+06
-5.59662e+06
-5.59562e+06
-5.59463e+06
-5.59365e+06
-5.59245e+06
-5.59139e+06
-5.59039e+06
-5.58935e+06
-5.58831e+06
-5.58729e+06
-5.58624e+06
-5.58514e+06
-5.58405e+06
-5.58299e+06
-5.58194e+06
-5.58092e+06
-5.57991e+06
-5.57889e+06
-5.57787e+06
-5.57672e+06
-5.57556e+06
-5.57434e+06
-5.57309e+06
-5.57183e+06
-5.57052e+06
-5.56922e+06
-5.56759e+06
-5.56607e+06
-5.56585e+06
-5.56377e+06
-5.56226e+06
-5.56201e+06
-5.56051e+06
-5.55901e+06
-5.55785e+06
-5.5562e+06
-5.55448e+06
-5.55305e+06
-5.55166e+06
-5.55018e+06
-5.54803e+06
-5.54793e+06
-5.5449e+06
-5.54474e+06
-5.5432e+06
-5.54083e+06
-5.53953e+06
-5.53808e+06
-5.53595e+06
-5.53427e+06
-5.53233e+06
-5.5311e+06
-5.52817e+06
-5.52794e+06
-5.52512e+06
-5.52337e+06
-5.52205e+06
-5.51966e+06
-5.51765e+06
-5.51552e+06
-5.51222e+06
-5.51252e+06
-5.50818e+06
-5.50714e+06
-5.50617e+06
-5.50304e+06
-5.50022e+06
-5.49815e+06
-5.49583e+06
-5.49111e+06
-5.49067e+06
-5.48817e+06
-5.48494e+06
-5.48375e+06
-5.48085e+06
-5.47728e+06
-5.47453e+06
-5.46792e+06
-5.46971e+06
-5.46617e+06
-5.46144e+06
-5.4598e+06
-5.45615e+06
-5.4517e+06
-5.44856e+06
-5.44471e+06
-5.44087e+06
-5.43901e+06
-5.43336e+06
-5.42964e+06
-5.42676e+06
-5.42131e+06
-5.41707e+06
-5.41398e+06
-5.40894e+06
-5.40242e+06
-5.39946e+06
-5.39455e+06
-5.38903e+06
-5.38311e+06
-5.37888e+06
-5.37367e+06
-5.36539e+06
-5.36128e+06
-5.35564e+06
-5.34888e+06
-5.34321e+06
-5.33393e+06
-5.32971e+06
-5.31996e+06
-5.31257e+06
-5.30663e+06
-5.29477e+06
-5.29386e+06
-5.28225e+06
-5.27255e+06
-5.26312e+06
-5.25206e+06
-5.24179e+06
-5.23311e+06
-5.22316e+06
-5.21492e+06
-5.20191e+06
-5.18873e+06
-5.17563e+06
-5.16297e+06
-5.15045e+06
-5.1374e+06
-5.12347e+06
-5.10861e+06
-5.09305e+06
-5.07696e+06
-5.06043e+06
-5.04344e+06
-5.02588e+06
-5.00767e+06
-4.98874e+06
-4.96905e+06
-4.9486e+06
-4.9274e+06
-4.90546e+06
-4.88275e+06
-4.85927e+06
-4.83499e+06
-4.80989e+06
-4.78396e+06
-4.75716e+06
-4.72949e+06
-4.70093e+06
-4.67147e+06
-4.6411e+06
-4.60981e+06
-4.5776e+06
-4.54447e+06
-4.5104e+06
-4.47541e+06
-4.43947e+06
-4.40261e+06
-4.36481e+06
-4.32609e+06
-4.28648e+06
-4.24596e+06
-4.20459e+06
-4.16235e+06
-4.11928e+06
-4.07541e+06
-4.03075e+06
-3.98535e+06
-3.93921e+06
-3.89239e+06
-3.84492e+06
-3.79684e+06
-3.74821e+06
-3.69905e+06
-3.64944e+06
-3.59942e+06
-3.54903e+06
-3.49835e+06
-3.44741e+06
-3.39628e+06
-3.34502e+06
-3.29368e+06
-3.24234e+06
-3.19104e+06
-3.13986e+06
-3.08886e+06
-3.03809e+06
-2.98763e+06
-2.93753e+06
-2.88785e+06
-2.83865e+06
-2.78999e+06
-2.74193e+06
-2.6945e+06
-2.64778e+06
-2.6018e+06
-2.55662e+06
-2.51227e+06
-2.4688e+06
-2.42625e+06
-2.38466e+06
-2.34404e+06
-2.30443e+06
-2.26586e+06
-2.22835e+06
-2.19192e+06
-2.15657e+06
-2.12233e+06
-2.08919e+06
-2.05717e+06
-2.02627e+06
-1.99648e+06
-1.96781e+06
-1.94023e+06
-1.91376e+06
-1.88836e+06
-1.86404e+06
-1.84076e+06
-1.81852e+06
-1.79729e+06
-1.77705e+06
-1.75777e+06
-1.73943e+06
-1.72201e+06
-1.70547e+06
-1.68979e+06
-1.67494e+06
-1.66089e+06
-1.6476e+06
-1.63506e+06
-1.62323e+06
-1.61207e+06
-1.60157e+06
-1.59169e+06
-1.58239e+06
-1.57366e+06
-1.56546e+06
-1.55777e+06
-1.55056e+06
-1.5438e+06
-1.53747e+06
-1.53154e+06
-1.526e+06
-1.52081e+06
-1.51595e+06
-1.51141e+06
-1.50716e+06
-1.50318e+06
-1.49946e+06
-1.49598e+06
-1.49272e+06
-1.48967e+06
-1.48681e+06
-1.48413e+06
-1.48161e+06
-1.47925e+06
-1.47702e+06
-1.47492e+06
-1.47295e+06
-1.47108e+06
-1.46932e+06
-1.46764e+06
-1.46606e+06
-1.46455e+06
-1.46311e+06
-1.46173e+06
-1.46042e+06
-1.45916e+06
-1.45795e+06
-1.45679e+06
-1.45566e+06
-1.45457e+06
-1.45352e+06
-1.4525e+06
-1.4515e+06
-1.45053e+06
-1.44958e+06
-1.44866e+06
-1.44775e+06
-1.44686e+06
-1.44598e+06
-1.44512e+06
-1.44426e+06
-1.44342e+06
-1.44259e+06
-1.44177e+06
-1.44095e+06
-1.44015e+06
-1.43935e+06
-1.43855e+06
-1.43776e+06
-1.43697e+06
-1.43619e+06
-1.43541e+06
-1.43464e+06
-1.43387e+06
-1.4331e+06
-1.43233e+06
-1.43156e+06
-1.4308e+06
-1.43004e+06
-1.42928e+06
-1.42852e+06
-1.42776e+06
-1.427e+06
-1.42625e+06
-1.42549e+06
-1.42474e+06
-1.42399e+06
-1.42323e+06
-1.42248e+06
-1.42173e+06
-1.42098e+06
-1.42023e+06
-1.41948e+06
-1.41873e+06
-1.41798e+06
-1.41723e+06
-1.41648e+06
-1.41573e+06
-1.41498e+06
-1.41424e+06
-1.41349e+06
-1.41274e+06
-1.41199e+06
-1.41125e+06
-1.4105e+06
-1.40975e+06
-1.40901e+06
-1.40826e+06
-1.40752e+06
-1.40677e+06
-1.40603e+06
-1.40528e+06
-1.40454e+06
-1.40379e+06
-1.40305e+06
-1.4023e+06
-1.40156e+06
-1.40082e+06
-1.40007e+06
-1.39933e+06
-1.39859e+06