/*--------------------------------*- C++ -*----------------------------------*\
  =========                 |
  \\      /  F ield         | OpenFOAM: The Open Source CFD Toolbox
   \\    /   O peration     | Website:  https://openfoam.org
    \\  /    A nd           | Version:  9
     \\/     M anipulation  |
\*---------------------------------------------------------------------------*/
FoamFile
{
    format      ascii;
    class       volVectorField;
    location    "0.018";
    object      ddtCorrDdt0(rho,U);
}
// * * * * * * * * * * * * * * * * * * * * * * * * * * * * * * * * * * * * * //

dimensions      [1 -2 -2 0 0 0 0];

internalField   nonuniform List<vector> 
10000
(
(124.583 0 0)
(108.762 0 0)
(106.463 0 0)
(97.2991 0 0)
(87.9058 0 0)
(79.8533 0 0)
(72.053 0 0)
(64.0711 0 0)
(55.9799 0 0)
(47.8996 0 0)
(39.841 0 0)
(31.7857 0 0)
(23.7328 0 0)
(15.6715 0 0)
(7.60769 0 0)
(-0.452415 0 0)
(-8.51403 0 0)
(-16.5768 0 0)
(-24.6391 0 0)
(-32.7012 0 0)
(-40.7631 0 0)
(-48.825 0 0)
(-56.8869 0 0)
(-64.9488 0 0)
(-73.0107 0 0)
(-81.0726 0 0)
(-89.1345 0 0)
(-97.1964 0 0)
(-105.258 0 0)
(-113.32 0 0)
(-121.382 0 0)
(-129.444 0 0)
(-137.506 0 0)
(-145.568 0 0)
(-153.63 0 0)
(-161.692 0 0)
(-169.754 0 0)
(-177.816 0 0)
(-185.878 0 0)
(-193.94 0 0)
(-202.002 0 0)
(-210.064 0 0)
(-218.126 0 0)
(-226.188 0 0)
(-234.25 0 0)
(-242.312 0 0)
(-250.374 0 0)
(-258.436 0 0)
(-266.499 0 0)
(-274.561 0 0)
(-282.623 0 0)
(-290.685 0 0)
(-298.747 0 0)
(-306.809 0 0)
(-314.871 0 0)
(-322.933 0 0)
(-330.995 0 0)
(-339.057 0 0)
(-347.119 0 0)
(-355.182 0 0)
(-363.244 0 0)
(-371.306 0 0)
(-379.368 0 0)
(-387.43 0 0)
(-395.492 0 0)
(-403.554 0 0)
(-411.616 0 0)
(-419.679 0 0)
(-427.741 0 0)
(-435.803 0 0)
(-443.865 0 0)
(-451.927 0 0)
(-459.989 0 0)
(-468.051 0 0)
(-476.113 0 0)
(-484.175 0 0)
(-492.237 0 0)
(-500.3 0 0)
(-508.362 0 0)
(-516.424 0 0)
(-524.486 0 0)
(-532.548 0 0)
(-540.61 0 0)
(-548.672 0 0)
(-556.734 0 0)
(-564.796 0 0)
(-572.858 0 0)
(-580.92 0 0)
(-588.982 0 0)
(-597.044 0 0)
(-605.106 0 0)
(-613.168 0 0)
(-621.229 0 0)
(-629.292 0 0)
(-637.354 0 0)
(-645.416 0 0)
(-653.478 0 0)
(-661.54 0 0)
(-669.602 0 0)
(-677.664 0 0)
(-685.726 0 0)
(-693.788 0 0)
(-701.85 0 0)
(-709.911 0 0)
(-717.973 0 0)
(-726.035 0 0)
(-734.097 0 0)
(-742.159 0 0)
(-750.22 0 0)
(-758.282 0 0)
(-766.344 0 0)
(-774.406 0 0)
(-782.468 0 0)
(-790.53 0 0)
(-798.591 0 0)
(-806.653 0 0)
(-814.715 0 0)
(-822.776 0 0)
(-830.838 0 0)
(-838.899 0 0)
(-846.961 0 0)
(-855.022 0 0)
(-863.084 0 0)
(-871.145 0 0)
(-879.207 0 0)
(-887.268 0 0)
(-895.329 0 0)
(-903.391 0 0)
(-911.452 0 0)
(-919.513 0 0)
(-927.575 0 0)
(-935.636 0 0)
(-943.697 0 0)
(-951.759 0 0)
(-959.82 0 0)
(-967.881 0 0)
(-975.942 0 0)
(-984.003 0 0)
(-992.064 0 0)
(-1000.12 0 0)
(-1008.19 0 0)
(-1016.25 0 0)
(-1024.31 0 0)
(-1032.37 0 0)
(-1040.43 0 0)
(-1048.49 0 0)
(-1056.55 0 0)
(-1064.61 0 0)
(-1072.67 0 0)
(-1080.73 0 0)
(-1088.79 0 0)
(-1096.86 0 0)
(-1104.92 0 0)
(-1112.98 0 0)
(-1121.04 0 0)
(-1129.1 0 0)
(-1137.16 0 0)
(-1145.22 0 0)
(-1153.28 0 0)
(-1161.34 0 0)
(-1169.4 0 0)
(-1177.46 0 0)
(-1185.52 0 0)
(-1193.58 0 0)
(-1201.64 0 0)
(-1209.7 0 0)
(-1217.76 0 0)
(-1225.82 0 0)
(-1233.88 0 0)
(-1241.94 0 0)
(-1250 0 0)
(-1258.06 0 0)
(-1266.12 0 0)
(-1274.18 0 0)
(-1282.24 0 0)
(-1290.3 0 0)
(-1298.36 0 0)
(-1306.42 0 0)
(-1314.48 0 0)
(-1322.54 0 0)
(-1330.6 0 0)
(-1338.66 0 0)
(-1346.72 0 0)
(-1354.78 0 0)
(-1362.83 0 0)
(-1370.89 0 0)
(-1378.95 0 0)
(-1387.01 0 0)
(-1395.07 0 0)
(-1403.13 0 0)
(-1411.19 0 0)
(-1419.25 0 0)
(-1427.31 0 0)
(-1435.37 0 0)
(-1443.42 0 0)
(-1451.48 0 0)
(-1459.54 0 0)
(-1467.6 0 0)
(-1475.66 0 0)
(-1483.72 0 0)
(-1491.78 0 0)
(-1499.83 0 0)
(-1507.89 0 0)
(-1515.95 0 0)
(-1524.01 0 0)
(-1532.07 0 0)
(-1540.13 0 0)
(-1548.18 0 0)
(-1556.24 0 0)
(-1564.3 0 0)
(-1572.36 0 0)
(-1580.42 0 0)
(-1588.47 0 0)
(-1596.53 0 0)
(-1604.59 0 0)
(-1612.65 0 0)
(-1620.7 0 0)
(-1628.76 0 0)
(-1636.82 0 0)
(-1644.88 0 0)
(-1652.93 0 0)
(-1660.99 0 0)
(-1669.05 0 0)
(-1677.11 0 0)
(-1685.16 0 0)
(-1693.22 0 0)
(-1701.28 0 0)
(-1709.33 0 0)
(-1717.39 0 0)
(-1725.45 0 0)
(-1733.5 0 0)
(-1741.56 0 0)
(-1749.62 0 0)
(-1757.67 0 0)
(-1765.73 0 0)
(-1773.79 0 0)
(-1781.84 0 0)
(-1789.9 0 0)
(-1797.95 0 0)
(-1806.01 0 0)
(-1814.07 0 0)
(-1822.12 0 0)
(-1830.18 0 0)
(-1838.23 0 0)
(-1846.29 0 0)
(-1854.35 0 0)
(-1862.4 0 0)
(-1870.46 0 0)
(-1878.51 0 0)
(-1886.57 0 0)
(-1894.62 0 0)
(-1902.68 0 0)
(-1910.73 0 0)
(-1918.79 0 0)
(-1926.84 0 0)
(-1934.9 0 0)
(-1942.95 0 0)
(-1951.01 0 0)
(-1959.06 0 0)
(-1967.12 0 0)
(-1975.17 0 0)
(-1983.23 0 0)
(-1991.28 0 0)
(-1999.33 0 0)
(-2007.39 0 0)
(-2015.44 0 0)
(-2023.5 0 0)
(-2031.55 0 0)
(-2039.6 0 0)
(-2047.66 0 0)
(-2055.71 0 0)
(-2063.77 0 0)
(-2071.82 0 0)
(-2079.87 0 0)
(-2087.93 0 0)
(-2095.98 0 0)
(-2104.03 0 0)
(-2112.09 0 0)
(-2120.14 0 0)
(-2128.19 0 0)
(-2136.24 0 0)
(-2144.3 0 0)
(-2152.35 0 0)
(-2160.4 0 0)
(-2168.46 0 0)
(-2176.51 0 0)
(-2184.56 0 0)
(-2192.61 0 0)
(-2200.67 0 0)
(-2208.72 0 0)
(-2216.77 0 0)
(-2224.82 0 0)
(-2232.87 0 0)
(-2240.92 0 0)
(-2248.98 0 0)
(-2257.03 0 0)
(-2265.08 0 0)
(-2273.13 0 0)
(-2281.18 0 0)
(-2289.23 0 0)
(-2297.28 0 0)
(-2305.34 0 0)
(-2313.39 0 0)
(-2321.44 0 0)
(-2329.49 0 0)
(-2337.54 0 0)
(-2345.59 0 0)
(-2353.64 0 0)
(-2361.69 0 0)
(-2369.74 0 0)
(-2377.79 0 0)
(-2385.84 0 0)
(-2393.89 0 0)
(-2401.94 0 0)
(-2409.99 0 0)
(-2418.04 0 0)
(-2426.09 0 0)
(-2434.14 0 0)
(-2442.19 0 0)
(-2450.24 0 0)
(-2458.29 0 0)
(-2466.34 0 0)
(-2474.39 0 0)
(-2482.43 0 0)
(-2490.48 0 0)
(-2498.53 0 0)
(-2506.58 0 0)
(-2514.63 0 0)
(-2522.68 0 0)
(-2530.73 0 0)
(-2538.77 0 0)
(-2546.82 0 0)
(-2554.87 0 0)
(-2562.92 0 0)
(-2570.97 0 0)
(-2579.01 0 0)
(-2587.06 0 0)
(-2595.11 0 0)
(-2603.16 0 0)
(-2611.2 0 0)
(-2619.25 0 0)
(-2627.3 0 0)
(-2635.34 0 0)
(-2643.39 0 0)
(-2651.44 0 0)
(-2659.48 0 0)
(-2667.53 0 0)
(-2675.58 0 0)
(-2683.62 0 0)
(-2691.67 0 0)
(-2699.72 0 0)
(-2707.76 0 0)
(-2715.81 0 0)
(-2723.85 0 0)
(-2731.9 0 0)
(-2739.94 0 0)
(-2747.99 0 0)
(-2756.04 0 0)
(-2764.08 0 0)
(-2772.13 0 0)
(-2780.17 0 0)
(-2788.22 0 0)
(-2796.26 0 0)
(-2804.31 0 0)
(-2812.35 0 0)
(-2820.39 0 0)
(-2828.44 0 0)
(-2836.48 0 0)
(-2844.53 0 0)
(-2852.57 0 0)
(-2860.62 0 0)
(-2868.66 0 0)
(-2876.7 0 0)
(-2884.75 0 0)
(-2892.79 0 0)
(-2900.83 0 0)
(-2908.88 0 0)
(-2916.92 0 0)
(-2924.96 0 0)
(-2933.01 0 0)
(-2941.05 0 0)
(-2949.09 0 0)
(-2957.13 0 0)
(-2965.18 0 0)
(-2973.22 0 0)
(-2981.26 0 0)
(-2989.3 0 0)
(-2997.34 0 0)
(-3005.39 0 0)
(-3013.43 0 0)
(-3021.47 0 0)
(-3029.51 0 0)
(-3037.55 0 0)
(-3045.59 0 0)
(-3053.63 0 0)
(-3061.67 0 0)
(-3069.71 0 0)
(-3077.75 0 0)
(-3085.8 0 0)
(-3093.84 0 0)
(-3101.88 0 0)
(-3109.92 0 0)
(-3117.96 0 0)
(-3126 0 0)
(-3134.04 0 0)
(-3142.07 0 0)
(-3150.11 0 0)
(-3158.15 0 0)
(-3166.19 0 0)
(-3174.23 0 0)
(-3182.27 0 0)
(-3190.31 0 0)
(-3198.35 0 0)
(-3206.39 0 0)
(-3214.42 0 0)
(-3222.46 0 0)
(-3230.5 0 0)
(-3238.54 0 0)
(-3246.58 0 0)
(-3254.61 0 0)
(-3262.65 0 0)
(-3270.69 0 0)
(-3278.72 0 0)
(-3286.76 0 0)
(-3294.8 0 0)
(-3302.84 0 0)
(-3310.87 0 0)
(-3318.91 0 0)
(-3326.94 0 0)
(-3334.98 0 0)
(-3343.02 0 0)
(-3351.05 0 0)
(-3359.09 0 0)
(-3367.12 0 0)
(-3375.16 0 0)
(-3383.19 0 0)
(-3391.23 0 0)
(-3399.26 0 0)
(-3407.3 0 0)
(-3415.33 0 0)
(-3423.37 0 0)
(-3431.4 0 0)
(-3439.44 0 0)
(-3447.47 0 0)
(-3455.51 0 0)
(-3463.54 0 0)
(-3471.57 0 0)
(-3479.61 0 0)
(-3487.64 0 0)
(-3495.67 0 0)
(-3503.71 0 0)
(-3511.74 0 0)
(-3519.77 0 0)
(-3527.8 0 0)
(-3535.84 0 0)
(-3543.87 0 0)
(-3551.9 0 0)
(-3559.93 0 0)
(-3567.96 0 0)
(-3576 0 0)
(-3584.03 0 0)
(-3592.06 0 0)
(-3600.09 0 0)
(-3608.12 0 0)
(-3616.15 0 0)
(-3624.18 0 0)
(-3632.21 0 0)
(-3640.24 0 0)
(-3648.27 0 0)
(-3656.3 0 0)
(-3664.33 0 0)
(-3672.36 0 0)
(-3680.39 0 0)
(-3688.42 0 0)
(-3696.45 0 0)
(-3704.48 0 0)
(-3712.51 0 0)
(-3720.54 0 0)
(-3728.57 0 0)
(-3736.59 0 0)
(-3744.62 0 0)
(-3752.65 0 0)
(-3760.68 0 0)
(-3768.71 0 0)
(-3776.73 0 0)
(-3784.76 0 0)
(-3792.79 0 0)
(-3800.82 0 0)
(-3808.84 0 0)
(-3816.87 0 0)
(-3824.9 0 0)
(-3832.92 0 0)
(-3840.95 0 0)
(-3848.97 0 0)
(-3857 0 0)
(-3865.03 0 0)
(-3873.05 0 0)
(-3881.08 0 0)
(-3889.1 0 0)
(-3897.13 0 0)
(-3905.15 0 0)
(-3913.18 0 0)
(-3921.2 0 0)
(-3929.22 0 0)
(-3937.25 0 0)
(-3945.27 0 0)
(-3953.3 0 0)
(-3961.32 0 0)
(-3969.34 0 0)
(-3977.37 0 0)
(-3985.39 0 0)
(-3993.41 0 0)
(-4001.43 0 0)
(-4009.46 0 0)
(-4017.48 0 0)
(-4025.5 0 0)
(-4033.52 0 0)
(-4041.54 0 0)
(-4049.57 0 0)
(-4057.59 0 0)
(-4065.61 0 0)
(-4073.63 0 0)
(-4081.65 0 0)
(-4089.67 0 0)
(-4097.69 0 0)
(-4105.71 0 0)
(-4113.73 0 0)
(-4121.75 0 0)
(-4129.77 0 0)
(-4137.79 0 0)
(-4145.81 0 0)
(-4153.83 0 0)
(-4161.85 0 0)
(-4169.86 0 0)
(-4177.88 0 0)
(-4185.9 0 0)
(-4193.92 0 0)
(-4201.94 0 0)
(-4209.95 0 0)
(-4217.97 0 0)
(-4225.99 0 0)
(-4234.01 0 0)
(-4242.02 0 0)
(-4250.04 0 0)
(-4258.06 0 0)
(-4266.07 0 0)
(-4274.09 0 0)
(-4282.1 0 0)
(-4290.12 0 0)
(-4298.14 0 0)
(-4306.15 0 0)
(-4314.17 0 0)
(-4322.18 0 0)
(-4330.2 0 0)
(-4338.21 0 0)
(-4346.22 0 0)
(-4354.24 0 0)
(-4362.25 0 0)
(-4370.27 0 0)
(-4378.28 0 0)
(-4386.29 0 0)
(-4394.3 0 0)
(-4402.32 0 0)
(-4410.33 0 0)
(-4418.34 0 0)
(-4426.35 0 0)
(-4434.37 0 0)
(-4442.38 0 0)
(-4450.39 0 0)
(-4458.4 0 0)
(-4466.41 0 0)
(-4474.42 0 0)
(-4482.43 0 0)
(-4490.44 0 0)
(-4498.45 0 0)
(-4506.46 0 0)
(-4514.47 0 0)
(-4522.48 0 0)
(-4530.49 0 0)
(-4538.5 0 0)
(-4546.51 0 0)
(-4554.52 0 0)
(-4562.53 0 0)
(-4570.54 0 0)
(-4578.55 0 0)
(-4586.55 0 0)
(-4594.56 0 0)
(-4602.57 0 0)
(-4610.58 0 0)
(-4618.58 0 0)
(-4626.59 0 0)
(-4634.6 0 0)
(-4642.6 0 0)
(-4650.61 0 0)
(-4658.61 0 0)
(-4666.62 0 0)
(-4674.62 0 0)
(-4682.63 0 0)
(-4690.63 0 0)
(-4698.64 0 0)
(-4706.64 0 0)
(-4714.65 0 0)
(-4722.65 0 0)
(-4730.66 0 0)
(-4738.66 0 0)
(-4746.66 0 0)
(-4754.67 0 0)
(-4762.67 0 0)
(-4770.67 0 0)
(-4778.67 0 0)
(-4786.68 0 0)
(-4794.68 0 0)
(-4802.68 0 0)
(-4810.68 0 0)
(-4818.68 0 0)
(-4826.68 0 0)
(-4834.68 0 0)
(-4842.68 0 0)
(-4850.68 0 0)
(-4858.68 0 0)
(-4866.68 0 0)
(-4874.68 0 0)
(-4882.68 0 0)
(-4890.68 0 0)
(-4898.68 0 0)
(-4906.68 0 0)
(-4914.68 0 0)
(-4922.68 0 0)
(-4930.67 0 0)
(-4938.67 0 0)
(-4946.67 0 0)
(-4954.67 0 0)
(-4962.66 0 0)
(-4970.66 0 0)
(-4978.66 0 0)
(-4986.65 0 0)
(-4994.65 0 0)
(-5002.64 0 0)
(-5010.64 0 0)
(-5018.64 0 0)
(-5026.63 0 0)
(-5034.62 0 0)
(-5042.62 0 0)
(-5050.61 0 0)
(-5058.61 0 0)
(-5066.6 0 0)
(-5074.59 0 0)
(-5082.59 0 0)
(-5090.58 0 0)
(-5098.57 0 0)
(-5106.57 0 0)
(-5114.56 0 0)
(-5122.55 0 0)
(-5130.54 0 0)
(-5138.53 0 0)
(-5146.52 0 0)
(-5154.52 0 0)
(-5162.51 0 0)
(-5170.5 0 0)
(-5178.49 0 0)
(-5186.48 0 0)
(-5194.47 0 0)
(-5202.46 0 0)
(-5210.45 0 0)
(-5218.43 0 0)
(-5226.42 0 0)
(-5234.41 0 0)
(-5242.4 0 0)
(-5250.39 0 0)
(-5258.37 0 0)
(-5266.36 0 0)
(-5274.35 0 0)
(-5282.34 0 0)
(-5290.32 0 0)
(-5298.31 0 0)
(-5306.3 0 0)
(-5314.28 0 0)
(-5322.27 0 0)
(-5330.25 0 0)
(-5338.24 0 0)
(-5346.22 0 0)
(-5354.21 0 0)
(-5362.19 0 0)
(-5370.17 0 0)
(-5378.16 0 0)
(-5386.14 0 0)
(-5394.12 0 0)
(-5402.11 0 0)
(-5410.09 0 0)
(-5418.07 0 0)
(-5426.05 0 0)
(-5434.04 0 0)
(-5442.02 0 0)
(-5450 0 0)
(-5457.98 0 0)
(-5465.96 0 0)
(-5473.94 0 0)
(-5481.92 0 0)
(-5489.9 0 0)
(-5497.88 0 0)
(-5505.86 0 0)
(-5513.84 0 0)
(-5521.82 0 0)
(-5529.79 0 0)
(-5537.77 0 0)
(-5545.75 0 0)
(-5553.73 0 0)
(-5561.71 0 0)
(-5569.68 0 0)
(-5577.66 0 0)
(-5585.64 0 0)
(-5593.61 0 0)
(-5601.59 0 0)
(-5609.56 0 0)
(-5617.54 0 0)
(-5625.51 0 0)
(-5633.49 0 0)
(-5641.46 0 0)
(-5649.44 0 0)
(-5657.41 0 0)
(-5665.39 0 0)
(-5673.36 0 0)
(-5681.33 0 0)
(-5689.31 0 0)
(-5697.28 0 0)
(-5705.25 0 0)
(-5713.22 0 0)
(-5721.19 0 0)
(-5729.16 0 0)
(-5737.14 0 0)
(-5745.11 0 0)
(-5753.08 0 0)
(-5761.05 0 0)
(-5769.02 0 0)
(-5776.99 0 0)
(-5784.96 0 0)
(-5792.93 0 0)
(-5800.89 0 0)
(-5808.86 0 0)
(-5816.83 0 0)
(-5824.8 0 0)
(-5832.77 0 0)
(-5840.73 0 0)
(-5848.7 0 0)
(-5856.67 0 0)
(-5864.63 0 0)
(-5872.6 0 0)
(-5880.56 0 0)
(-5888.53 0 0)
(-5896.5 0 0)
(-5904.46 0 0)
(-5912.42 0 0)
(-5920.39 0 0)
(-5928.35 0 0)
(-5936.32 0 0)
(-5944.28 0 0)
(-5952.24 0 0)
(-5960.21 0 0)
(-5968.17 0 0)
(-5976.13 0 0)
(-5984.09 0 0)
(-5992.05 0 0)
(-6000.01 0 0)
(-6007.98 0 0)
(-6015.94 0 0)
(-6023.9 0 0)
(-6031.86 0 0)
(-6039.82 0 0)
(-6047.78 0 0)
(-6055.73 0 0)
(-6063.69 0 0)
(-6071.65 0 0)
(-6079.61 0 0)
(-6087.57 0 0)
(-6095.52 0 0)
(-6103.48 0 0)
(-6111.44 0 0)
(-6119.4 0 0)
(-6127.35 0 0)
(-6135.31 0 0)
(-6143.26 0 0)
(-6151.22 0 0)
(-6159.17 0 0)
(-6167.13 0 0)
(-6175.08 0 0)
(-6183.04 0 0)
(-6190.99 0 0)
(-6198.94 0 0)
(-6206.9 0 0)
(-6214.85 0 0)
(-6222.8 0 0)
(-6230.75 0 0)
(-6238.71 0 0)
(-6246.66 0 0)
(-6254.61 0 0)
(-6262.56 0 0)
(-6270.51 0 0)
(-6278.46 0 0)
(-6286.41 0 0)
(-6294.36 0 0)
(-6302.31 0 0)
(-6310.26 0 0)
(-6318.2 0 0)
(-6326.15 0 0)
(-6334.1 0 0)
(-6342.05 0 0)
(-6350 0 0)
(-6357.94 0 0)
(-6365.89 0 0)
(-6373.83 0 0)
(-6381.78 0 0)
(-6389.73 0 0)
(-6397.67 0 0)
(-6405.62 0 0)
(-6413.56 0 0)
(-6421.5 0 0)
(-6429.45 0 0)
(-6437.39 0 0)
(-6445.34 0 0)
(-6453.28 0 0)
(-6461.22 0 0)
(-6469.16 0 0)
(-6477.1 0 0)
(-6485.05 0 0)
(-6492.99 0 0)
(-6500.93 0 0)
(-6508.87 0 0)
(-6516.81 0 0)
(-6524.75 0 0)
(-6532.69 0 0)
(-6540.63 0 0)
(-6548.57 0 0)
(-6556.5 0 0)
(-6564.44 0 0)
(-6572.38 0 0)
(-6580.32 0 0)
(-6588.25 0 0)
(-6596.19 0 0)
(-6604.13 0 0)
(-6612.06 0 0)
(-6620 0 0)
(-6627.93 0 0)
(-6635.87 0 0)
(-6643.8 0 0)
(-6651.74 0 0)
(-6659.67 0 0)
(-6667.6 0 0)
(-6675.54 0 0)
(-6683.47 0 0)
(-6691.4 0 0)
(-6699.33 0 0)
(-6707.27 0 0)
(-6715.2 0 0)
(-6723.13 0 0)
(-6731.06 0 0)
(-6738.99 0 0)
(-6746.92 0 0)
(-6754.85 0 0)
(-6762.78 0 0)
(-6770.71 0 0)
(-6778.64 0 0)
(-6786.56 0 0)
(-6794.49 0 0)
(-6802.42 0 0)
(-6810.35 0 0)
(-6818.27 0 0)
(-6826.2 0 0)
(-6834.13 0 0)
(-6842.05 0 0)
(-6849.98 0 0)
(-6857.9 0 0)
(-6865.83 0 0)
(-6873.75 0 0)
(-6881.67 0 0)
(-6889.6 0 0)
(-6897.52 0 0)
(-6905.44 0 0)
(-6913.37 0 0)
(-6921.29 0 0)
(-6929.21 0 0)
(-6937.13 0 0)
(-6945.05 0 0)
(-6952.97 0 0)
(-6960.89 0 0)
(-6968.81 0 0)
(-6976.73 0 0)
(-6984.65 0 0)
(-6992.57 0 0)
(-7000.49 0 0)
(-7008.4 0 0)
(-7016.32 0 0)
(-7024.24 0 0)
(-7032.15 0 0)
(-7040.07 0 0)
(-7047.99 0 0)
(-7055.9 0 0)
(-7063.82 0 0)
(-7071.73 0 0)
(-7079.65 0 0)
(-7087.56 0 0)
(-7095.47 0 0)
(-7103.39 0 0)
(-7111.3 0 0)
(-7119.21 0 0)
(-7127.13 0 0)
(-7135.04 0 0)
(-7142.95 0 0)
(-7150.86 0 0)
(-7158.77 0 0)
(-7166.68 0 0)
(-7174.59 0 0)
(-7182.5 0 0)
(-7190.41 0 0)
(-7198.32 0 0)
(-7206.22 0 0)
(-7214.13 0 0)
(-7222.04 0 0)
(-7229.95 0 0)
(-7237.85 0 0)
(-7245.76 0 0)
(-7253.67 0 0)
(-7261.57 0 0)
(-7269.48 0 0)
(-7277.38 0 0)
(-7285.29 0 0)
(-7293.19 0 0)
(-7301.09 0 0)
(-7309 0 0)
(-7316.9 0 0)
(-7324.8 0 0)
(-7332.7 0 0)
(-7340.6 0 0)
(-7348.5 0 0)
(-7356.41 0 0)
(-7364.31 0 0)
(-7372.21 0 0)
(-7380.1 0 0)
(-7388 0 0)
(-7395.9 0 0)
(-7403.8 0 0)
(-7411.7 0 0)
(-7419.6 0 0)
(-7427.49 0 0)
(-7435.39 0 0)
(-7443.29 0 0)
(-7451.18 0 0)
(-7459.08 0 0)
(-7466.97 0 0)
(-7474.87 0 0)
(-7482.76 0 0)
(-7490.65 0 0)
(-7498.55 0 0)
(-7506.44 0 0)
(-7514.33 0 0)
(-7522.22 0 0)
(-7530.12 0 0)
(-7538.01 0 0)
(-7545.9 0 0)
(-7553.79 0 0)
(-7561.68 0 0)
(-7569.57 0 0)
(-7577.46 0 0)
(-7585.35 0 0)
(-7593.23 0 0)
(-7601.12 0 0)
(-7609.01 0 0)
(-7616.9 0 0)
(-7624.78 0 0)
(-7632.67 0 0)
(-7640.55 0 0)
(-7648.44 0 0)
(-7656.32 0 0)
(-7664.21 0 0)
(-7672.09 0 0)
(-7679.98 0 0)
(-7687.86 0 0)
(-7695.74 0 0)
(-7703.62 0 0)
(-7711.51 0 0)
(-7719.39 0 0)
(-7727.27 0 0)
(-7735.15 0 0)
(-7743.03 0 0)
(-7750.91 0 0)
(-7758.79 0 0)
(-7766.67 0 0)
(-7774.55 0 0)
(-7782.42 0 0)
(-7790.3 0 0)
(-7798.18 0 0)
(-7806.06 0 0)
(-7813.93 0 0)
(-7821.81 0 0)
(-7829.68 0 0)
(-7837.56 0 0)
(-7845.43 0 0)
(-7853.31 0 0)
(-7861.18 0 0)
(-7869.05 0 0)
(-7876.92 0 0)
(-7884.8 0 0)
(-7892.67 0 0)
(-7900.54 0 0)
(-7908.41 0 0)
(-7916.28 0 0)
(-7924.15 0 0)
(-7932.02 0 0)
(-7939.89 0 0)
(-7947.76 0 0)
(-7955.63 0 0)
(-7963.49 0 0)
(-7971.36 0 0)
(-7979.23 0 0)
(-7987.09 0 0)
(-7994.96 0 0)
(-8002.83 0 0)
(-8010.69 0 0)
(-8018.56 0 0)
(-8026.42 0 0)
(-8034.28 0 0)
(-8042.15 0 0)
(-8050.01 0 0)
(-8057.87 0 0)
(-8065.73 0 0)
(-8073.59 0 0)
(-8081.45 0 0)
(-8089.32 0 0)
(-8097.17 0 0)
(-8105.03 0 0)
(-8112.89 0 0)
(-8120.75 0 0)
(-8128.61 0 0)
(-8136.47 0 0)
(-8144.32 0 0)
(-8152.18 0 0)
(-8160.04 0 0)
(-8167.89 0 0)
(-8175.75 0 0)
(-8183.6 0 0)
(-8191.46 0 0)
(-8199.31 0 0)
(-8207.16 0 0)
(-8215.02 0 0)
(-8222.87 0 0)
(-8230.72 0 0)
(-8238.57 0 0)
(-8246.42 0 0)
(-8254.27 0 0)
(-8262.12 0 0)
(-8269.97 0 0)
(-8277.82 0 0)
(-8285.67 0 0)
(-8293.52 0 0)
(-8301.37 0 0)
(-8309.21 0 0)
(-8317.06 0 0)
(-8324.91 0 0)
(-8332.75 0 0)
(-8340.6 0 0)
(-8348.44 0 0)
(-8356.29 0 0)
(-8364.13 0 0)
(-8371.97 0 0)
(-8379.81 0 0)
(-8387.66 0 0)
(-8395.5 0 0)
(-8403.34 0 0)
(-8411.18 0 0)
(-8419.02 0 0)
(-8426.86 0 0)
(-8434.7 0 0)
(-8442.54 0 0)
(-8450.38 0 0)
(-8458.21 0 0)
(-8466.05 0 0)
(-8473.89 0 0)
(-8481.72 0 0)
(-8489.56 0 0)
(-8497.39 0 0)
(-8505.23 0 0)
(-8513.06 0 0)
(-8520.9 0 0)
(-8528.73 0 0)
(-8536.56 0 0)
(-8544.4 0 0)
(-8552.23 0 0)
(-8560.06 0 0)
(-8567.89 0 0)
(-8575.72 0 0)
(-8583.55 0 0)
(-8591.38 0 0)
(-8599.21 0 0)
(-8607.03 0 0)
(-8614.86 0 0)
(-8622.69 0 0)
(-8630.51 0 0)
(-8638.34 0 0)
(-8646.17 0 0)
(-8653.99 0 0)
(-8661.82 0 0)
(-8669.64 0 0)
(-8677.46 0 0)
(-8685.29 0 0)
(-8693.11 0 0)
(-8700.93 0 0)
(-8708.75 0 0)
(-8716.57 0 0)
(-8724.39 0 0)
(-8732.21 0 0)
(-8740.03 0 0)
(-8747.85 0 0)
(-8755.67 0 0)
(-8763.49 0 0)
(-8771.3 0 0)
(-8779.12 0 0)
(-8786.94 0 0)
(-8794.75 0 0)
(-8802.57 0 0)
(-8810.38 0 0)
(-8818.19 0 0)
(-8826.01 0 0)
(-8833.82 0 0)
(-8841.63 0 0)
(-8849.44 0 0)
(-8857.26 0 0)
(-8865.07 0 0)
(-8872.88 0 0)
(-8880.69 0 0)
(-8888.49 0 0)
(-8896.3 0 0)
(-8904.11 0 0)
(-8911.92 0 0)
(-8919.72 0 0)
(-8927.53 0 0)
(-8935.34 0 0)
(-8943.14 0 0)
(-8950.95 0 0)
(-8958.75 0 0)
(-8966.55 0 0)
(-8974.36 0 0)
(-8982.16 0 0)
(-8989.96 0 0)
(-8997.76 0 0)
(-9005.56 0 0)
(-9013.36 0 0)
(-9021.16 0 0)
(-9028.96 0 0)
(-9036.76 0 0)
(-9044.56 0 0)
(-9052.36 0 0)
(-9060.15 0 0)
(-9067.95 0 0)
(-9075.74 0 0)
(-9083.54 0 0)
(-9091.33 0 0)
(-9099.13 0 0)
(-9106.92 0 0)
(-9114.71 0 0)
(-9122.51 0 0)
(-9130.3 0 0)
(-9138.09 0 0)
(-9145.88 0 0)
(-9153.67 0 0)
(-9161.46 0 0)
(-9169.25 0 0)
(-9177.04 0 0)
(-9184.82 0 0)
(-9192.61 0 0)
(-9200.4 0 0)
(-9208.18 0 0)
(-9215.97 0 0)
(-9223.75 0 0)
(-9231.54 0 0)
(-9239.32 0 0)
(-9247.1 0 0)
(-9254.89 0 0)
(-9262.67 0 0)
(-9270.45 0 0)
(-9278.23 0 0)
(-9286.01 0 0)
(-9293.79 0 0)
(-9301.57 0 0)
(-9309.34 0 0)
(-9317.12 0 0)
(-9324.9 0 0)
(-9332.68 0 0)
(-9340.45 0 0)
(-9348.23 0 0)
(-9356 0 0)
(-9363.78 0 0)
(-9371.55 0 0)
(-9379.32 0 0)
(-9387.09 0 0)
(-9394.87 0 0)
(-9402.64 0 0)
(-9410.41 0 0)
(-9418.18 0 0)
(-9425.95 0 0)
(-9433.71 0 0)
(-9441.48 0 0)
(-9449.25 0 0)
(-9457.02 0 0)
(-9464.78 0 0)
(-9472.55 0 0)
(-9480.31 0 0)
(-9488.08 0 0)
(-9495.84 0 0)
(-9503.6 0 0)
(-9511.37 0 0)
(-9519.13 0 0)
(-9526.89 0 0)
(-9534.65 0 0)
(-9542.41 0 0)
(-9550.17 0 0)
(-9557.93 0 0)
(-9565.68 0 0)
(-9573.44 0 0)
(-9581.2 0 0)
(-9588.95 0 0)
(-9596.71 0 0)
(-9604.46 0 0)
(-9612.22 0 0)
(-9619.97 0 0)
(-9627.72 0 0)
(-9635.48 0 0)
(-9643.23 0 0)
(-9650.98 0 0)
(-9658.73 0 0)
(-9666.48 0 0)
(-9674.23 0 0)
(-9681.98 0 0)
(-9689.72 0 0)
(-9697.47 0 0)
(-9705.22 0 0)
(-9712.96 0 0)
(-9720.71 0 0)
(-9728.45 0 0)
(-9736.2 0 0)
(-9743.94 0 0)
(-9751.68 0 0)
(-9759.42 0 0)
(-9767.16 0 0)
(-9774.9 0 0)
(-9782.64 0 0)
(-9790.38 0 0)
(-9798.12 0 0)
(-9805.86 0 0)
(-9813.6 0 0)
(-9821.33 0 0)
(-9829.07 0 0)
(-9836.8 0 0)
(-9844.54 0 0)
(-9852.27 0 0)
(-9860.01 0 0)
(-9867.74 0 0)
(-9875.47 0 0)
(-9883.2 0 0)
(-9890.93 0 0)
(-9898.66 0 0)
(-9906.39 0 0)
(-9914.12 0 0)
(-9921.84 0 0)
(-9929.57 0 0)
(-9937.3 0 0)
(-9945.02 0 0)
(-9952.75 0 0)
(-9960.47 0 0)
(-9968.2 0 0)
(-9975.92 0 0)
(-9983.64 0 0)
(-9991.36 0 0)
(-9999.08 0 0)
(-10006.8 0 0)
(-10014.5 0 0)
(-10022.2 0 0)
(-10030 0 0)
(-10037.7 0 0)
(-10045.4 0 0)
(-10053.1 0 0)
(-10060.8 0 0)
(-10068.5 0 0)
(-10076.2 0 0)
(-10084 0 0)
(-10091.7 0 0)
(-10099.4 0 0)
(-10107.1 0 0)
(-10114.8 0 0)
(-10122.5 0 0)
(-10130.2 0 0)
(-10137.9 0 0)
(-10145.6 0 0)
(-10153.3 0 0)
(-10161 0 0)
(-10168.8 0 0)
(-10176.5 0 0)
(-10184.2 0 0)
(-10191.9 0 0)
(-10199.6 0 0)
(-10207.3 0 0)
(-10215 0 0)
(-10222.7 0 0)
(-10230.4 0 0)
(-10238.1 0 0)
(-10245.8 0 0)
(-10253.5 0 0)
(-10261.2 0 0)
(-10268.8 0 0)
(-10276.5 0 0)
(-10284.2 0 0)
(-10291.9 0 0)
(-10299.6 0 0)
(-10307.3 0 0)
(-10315 0 0)
(-10322.7 0 0)
(-10330.4 0 0)
(-10338.1 0 0)
(-10345.8 0 0)
(-10353.4 0 0)
(-10361.1 0 0)
(-10368.8 0 0)
(-10376.5 0 0)
(-10384.2 0 0)
(-10391.9 0 0)
(-10399.5 0 0)
(-10407.2 0 0)
(-10414.9 0 0)
(-10422.6 0 0)
(-10430.3 0 0)
(-10437.9 0 0)
(-10445.6 0 0)
(-10453.3 0 0)
(-10461 0 0)
(-10468.7 0 0)
(-10476.3 0 0)
(-10484 0 0)
(-10491.7 0 0)
(-10499.3 0 0)
(-10507 0 0)
(-10514.7 0 0)
(-10522.4 0 0)
(-10530 0 0)
(-10537.7 0 0)
(-10545.4 0 0)
(-10553 0 0)
(-10560.7 0 0)
(-10568.4 0 0)
(-10576 0 0)
(-10583.7 0 0)
(-10591.3 0 0)
(-10599 0 0)
(-10606.7 0 0)
(-10614.3 0 0)
(-10622 0 0)
(-10629.6 0 0)
(-10637.3 0 0)
(-10644.9 0 0)
(-10652.6 0 0)
(-10660.3 0 0)
(-10667.9 0 0)
(-10675.6 0 0)
(-10683.2 0 0)
(-10690.9 0 0)
(-10698.5 0 0)
(-10706.2 0 0)
(-10713.8 0 0)
(-10721.5 0 0)
(-10729.1 0 0)
(-10736.8 0 0)
(-10744.4 0 0)
(-10752 0 0)
(-10759.7 0 0)
(-10767.3 0 0)
(-10775 0 0)
(-10782.6 0 0)
(-10790.2 0 0)
(-10797.9 0 0)
(-10805.5 0 0)
(-10813.2 0 0)
(-10820.8 0 0)
(-10828.4 0 0)
(-10836.1 0 0)
(-10843.7 0 0)
(-10851.3 0 0)
(-10859 0 0)
(-10866.6 0 0)
(-10874.2 0 0)
(-10881.9 0 0)
(-10889.5 0 0)
(-10897.1 0 0)
(-10904.7 0 0)
(-10912.4 0 0)
(-10920 0 0)
(-10927.6 0 0)
(-10935.2 0 0)
(-10942.9 0 0)
(-10950.5 0 0)
(-10958.1 0 0)
(-10965.7 0 0)
(-10973.3 0 0)
(-10980.9 0 0)
(-10988.6 0 0)
(-10996.2 0 0)
(-11003.8 0 0)
(-11011.4 0 0)
(-11019 0 0)
(-11026.6 0 0)
(-11034.2 0 0)
(-11041.8 0 0)
(-11049.5 0 0)
(-11057.1 0 0)
(-11064.7 0 0)
(-11072.3 0 0)
(-11079.9 0 0)
(-11087.5 0 0)
(-11095.1 0 0)
(-11102.7 0 0)
(-11110.3 0 0)
(-11117.9 0 0)
(-11125.5 0 0)
(-11133.1 0 0)
(-11140.7 0 0)
(-11148.3 0 0)
(-11155.9 0 0)
(-11163.5 0 0)
(-11171 0 0)
(-11178.6 0 0)
(-11186.2 0 0)
(-11193.8 0 0)
(-11201.4 0 0)
(-11209 0 0)
(-11216.6 0 0)
(-11224.2 0 0)
(-11231.7 0 0)
(-11239.3 0 0)
(-11246.9 0 0)
(-11254.5 0 0)
(-11262.1 0 0)
(-11269.6 0 0)
(-11277.2 0 0)
(-11284.8 0 0)
(-11292.4 0 0)
(-11300 0 0)
(-11307.5 0 0)
(-11315.1 0 0)
(-11322.7 0 0)
(-11330.2 0 0)
(-11337.8 0 0)
(-11345.4 0 0)
(-11352.9 0 0)
(-11360.5 0 0)
(-11368.1 0 0)
(-11375.6 0 0)
(-11383.2 0 0)
(-11390.8 0 0)
(-11398.3 0 0)
(-11405.9 0 0)
(-11413.4 0 0)
(-11421 0 0)
(-11428.6 0 0)
(-11436.1 0 0)
(-11443.7 0 0)
(-11451.2 0 0)
(-11458.8 0 0)
(-11466.3 0 0)
(-11473.9 0 0)
(-11481.4 0 0)
(-11489 0 0)
(-11496.5 0 0)
(-11504 0 0)
(-11511.6 0 0)
(-11519.1 0 0)
(-11526.7 0 0)
(-11534.2 0 0)
(-11541.8 0 0)
(-11549.3 0 0)
(-11556.8 0 0)
(-11564.4 0 0)
(-11571.9 0 0)
(-11579.4 0 0)
(-11587 0 0)
(-11594.5 0 0)
(-11602 0 0)
(-11609.5 0 0)
(-11617.1 0 0)
(-11624.6 0 0)
(-11632.1 0 0)
(-11639.6 0 0)
(-11647.2 0 0)
(-11654.7 0 0)
(-11662.2 0 0)
(-11669.7 0 0)
(-11677.2 0 0)
(-11684.8 0 0)
(-11692.3 0 0)
(-11699.8 0 0)
(-11707.3 0 0)
(-11714.8 0 0)
(-11722.3 0 0)
(-11729.8 0 0)
(-11737.3 0 0)
(-11744.8 0 0)
(-11752.3 0 0)
(-11759.8 0 0)
(-11767.3 0 0)
(-11774.8 0 0)
(-11782.3 0 0)
(-11789.8 0 0)
(-11797.3 0 0)
(-11804.8 0 0)
(-11812.3 0 0)
(-11819.8 0 0)
(-11827.3 0 0)
(-11834.8 0 0)
(-11842.3 0 0)
(-11849.8 0 0)
(-11857.2 0 0)
(-11864.7 0 0)
(-11872.2 0 0)
(-11879.7 0 0)
(-11887.2 0 0)
(-11894.6 0 0)
(-11902.1 0 0)
(-11909.6 0 0)
(-11917.1 0 0)
(-11924.5 0 0)
(-11932 0 0)
(-11939.5 0 0)
(-11946.9 0 0)
(-11954.4 0 0)
(-11961.9 0 0)
(-11969.3 0 0)
(-11976.8 0 0)
(-11984.3 0 0)
(-11991.7 0 0)
(-11999.2 0 0)
(-12006.6 0 0)
(-12014.1 0 0)
(-12021.5 0 0)
(-12029 0 0)
(-12036.4 0 0)
(-12043.9 0 0)
(-12051.3 0 0)
(-12058.8 0 0)
(-12066.2 0 0)
(-12073.7 0 0)
(-12081.1 0 0)
(-12088.5 0 0)
(-12096 0 0)
(-12103.4 0 0)
(-12110.8 0 0)
(-12118.3 0 0)
(-12125.7 0 0)
(-12133.1 0 0)
(-12140.6 0 0)
(-12148 0 0)
(-12155.4 0 0)
(-12162.8 0 0)
(-12170.3 0 0)
(-12177.7 0 0)
(-12185.1 0 0)
(-12192.5 0 0)
(-12199.9 0 0)
(-12207.3 0 0)
(-12214.8 0 0)
(-12222.2 0 0)
(-12229.6 0 0)
(-12237 0 0)
(-12244.4 0 0)
(-12251.8 0 0)
(-12259.2 0 0)
(-12266.6 0 0)
(-12274 0 0)
(-12281.4 0 0)
(-12288.8 0 0)
(-12296.2 0 0)
(-12303.5 0 0)
(-12310.9 0 0)
(-12318.3 0 0)
(-12325.7 0 0)
(-12333.1 0 0)
(-12340.5 0 0)
(-12347.8 0 0)
(-12355.2 0 0)
(-12362.6 0 0)
(-12370 0 0)
(-12377.3 0 0)
(-12384.7 0 0)
(-12392.1 0 0)
(-12399.4 0 0)
(-12406.8 0 0)
(-12414.2 0 0)
(-12421.5 0 0)
(-12428.9 0 0)
(-12436.2 0 0)
(-12443.6 0 0)
(-12450.9 0 0)
(-12458.3 0 0)
(-12465.6 0 0)
(-12473 0 0)
(-12480.3 0 0)
(-12487.7 0 0)
(-12495 0 0)
(-12502.3 0 0)
(-12509.7 0 0)
(-12517 0 0)
(-12524.3 0 0)
(-12531.6 0 0)
(-12539 0 0)
(-12546.3 0 0)
(-12553.6 0 0)
(-12560.9 0 0)
(-12568.3 0 0)
(-12575.6 0 0)
(-12582.9 0 0)
(-12590.2 0 0)
(-12597.5 0 0)
(-12604.8 0 0)
(-12612.1 0 0)
(-12619.4 0 0)
(-12626.7 0 0)
(-12634 0 0)
(-12641.3 0 0)
(-12648.6 0 0)
(-12655.9 0 0)
(-12663.2 0 0)
(-12670.4 0 0)
(-12677.7 0 0)
(-12685 0 0)
(-12692.3 0 0)
(-12699.6 0 0)
(-12706.8 0 0)
(-12714.1 0 0)
(-12721.4 0 0)
(-12728.6 0 0)
(-12735.9 0 0)
(-12743.1 0 0)
(-12750.4 0 0)
(-12757.7 0 0)
(-12764.9 0 0)
(-12772.2 0 0)
(-12779.4 0 0)
(-12786.6 0 0)
(-12793.9 0 0)
(-12801.1 0 0)
(-12808.4 0 0)
(-12815.6 0 0)
(-12822.8 0 0)
(-12830 0 0)
(-12837.3 0 0)
(-12844.5 0 0)
(-12851.7 0 0)
(-12858.9 0 0)
(-12866.1 0 0)
(-12873.3 0 0)
(-12880.6 0 0)
(-12887.8 0 0)
(-12895 0 0)
(-12902.2 0 0)
(-12909.4 0 0)
(-12916.5 0 0)
(-12923.7 0 0)
(-12930.9 0 0)
(-12938.1 0 0)
(-12945.3 0 0)
(-12952.5 0 0)
(-12959.6 0 0)
(-12966.8 0 0)
(-12974 0 0)
(-12981.1 0 0)
(-12988.3 0 0)
(-12995.4 0 0)
(-13002.6 0 0)
(-13009.8 0 0)
(-13016.9 0 0)
(-13024 0 0)
(-13031.2 0 0)
(-13038.3 0 0)
(-13045.5 0 0)
(-13052.6 0 0)
(-13059.7 0 0)
(-13066.8 0 0)
(-13074 0 0)
(-13081.1 0 0)
(-13088.2 0 0)
(-13095.3 0 0)
(-13102.4 0 0)
(-13109.5 0 0)
(-13116.6 0 0)
(-13123.7 0 0)
(-13130.8 0 0)
(-13137.9 0 0)
(-13145 0 0)
(-13152 0 0)
(-13159.1 0 0)
(-13166.2 0 0)
(-13173.3 0 0)
(-13180.3 0 0)
(-13187.4 0 0)
(-13194.4 0 0)
(-13201.5 0 0)
(-13208.5 0 0)
(-13215.6 0 0)
(-13222.6 0 0)
(-13229.7 0 0)
(-13236.7 0 0)
(-13243.7 0 0)
(-13250.7 0 0)
(-13257.8 0 0)
(-13264.8 0 0)
(-13271.8 0 0)
(-13278.8 0 0)
(-13285.8 0 0)
(-13292.8 0 0)
(-13299.8 0 0)
(-13306.8 0 0)
(-13313.8 0 0)
(-13320.8 0 0)
(-13327.7 0 0)
(-13334.7 0 0)
(-13341.7 0 0)
(-13348.6 0 0)
(-13355.6 0 0)
(-13362.6 0 0)
(-13369.5 0 0)
(-13376.5 0 0)
(-13383.4 0 0)
(-13390.3 0 0)
(-13397.3 0 0)
(-13404.2 0 0)
(-13411.1 0 0)
(-13418 0 0)
(-13424.9 0 0)
(-13431.8 0 0)
(-13438.7 0 0)
(-13445.6 0 0)
(-13452.5 0 0)
(-13459.4 0 0)
(-13466.3 0 0)
(-13473.2 0 0)
(-13480 0 0)
(-13486.9 0 0)
(-13493.8 0 0)
(-13500.6 0 0)
(-13507.5 0 0)
(-13514.3 0 0)
(-13521.2 0 0)
(-13528 0 0)
(-13534.8 0 0)
(-13541.7 0 0)
(-13548.5 0 0)
(-13555.3 0 0)
(-13562.1 0 0)
(-13568.9 0 0)
(-13575.7 0 0)
(-13582.5 0 0)
(-13589.3 0 0)
(-13596 0 0)
(-13602.8 0 0)
(-13609.6 0 0)
(-13616.3 0 0)
(-13623.1 0 0)
(-13629.8 0 0)
(-13636.6 0 0)
(-13643.3 0 0)
(-13650.1 0 0)
(-13656.8 0 0)
(-13663.5 0 0)
(-13670.2 0 0)
(-13676.9 0 0)
(-13683.6 0 0)
(-13690.3 0 0)
(-13697 0 0)
(-13703.7 0 0)
(-13710.4 0 0)
(-13717 0 0)
(-13723.7 0 0)
(-13730.4 0 0)
(-13737 0 0)
(-13743.6 0 0)
(-13750.3 0 0)
(-13756.9 0 0)
(-13763.5 0 0)
(-13770.2 0 0)
(-13776.8 0 0)
(-13783.4 0 0)
(-13790 0 0)
(-13796.6 0 0)
(-13803.1 0 0)
(-13809.7 0 0)
(-13816.3 0 0)
(-13822.8 0 0)
(-13829.4 0 0)
(-13835.9 0 0)
(-13842.5 0 0)
(-13849 0 0)
(-13855.5 0 0)
(-13862.1 0 0)
(-13868.6 0 0)
(-13875.1 0 0)
(-13881.6 0 0)
(-13888.1 0 0)
(-13894.5 0 0)
(-13901 0 0)
(-13907.5 0 0)
(-13913.9 0 0)
(-13920.4 0 0)
(-13926.8 0 0)
(-13933.3 0 0)
(-13939.7 0 0)
(-13946.1 0 0)
(-13952.5 0 0)
(-13958.9 0 0)
(-13965.3 0 0)
(-13971.7 0 0)
(-13978.1 0 0)
(-13984.5 0 0)
(-13990.8 0 0)
(-13997.2 0 0)
(-14003.5 0 0)
(-14009.9 0 0)
(-14016.2 0 0)
(-14022.5 0 0)
(-14028.8 0 0)
(-14035.1 0 0)
(-14041.4 0 0)
(-14047.7 0 0)
(-14054 0 0)
(-14060.2 0 0)
(-14066.5 0 0)
(-14072.8 0 0)
(-14079 0 0)
(-14085.2 0 0)
(-14091.5 0 0)
(-14097.7 0 0)
(-14103.9 0 0)
(-14110.1 0 0)
(-14116.3 0 0)
(-14122.4 0 0)
(-14128.6 0 0)
(-14134.8 0 0)
(-14140.9 0 0)
(-14147 0 0)
(-14153.2 0 0)
(-14159.3 0 0)
(-14165.4 0 0)
(-14171.5 0 0)
(-14177.6 0 0)
(-14183.7 0 0)
(-14189.7 0 0)
(-14195.8 0 0)
(-14201.8 0 0)
(-14207.9 0 0)
(-14213.9 0 0)
(-14219.9 0 0)
(-14225.9 0 0)
(-14231.9 0 0)
(-14237.9 0 0)
(-14243.8 0 0)
(-14249.8 0 0)
(-14255.7 0 0)
(-14261.7 0 0)
(-14267.6 0 0)
(-14273.5 0 0)
(-14279.4 0 0)
(-14285.3 0 0)
(-14291.2 0 0)
(-14297.1 0 0)
(-14302.9 0 0)
(-14308.7 0 0)
(-14314.6 0 0)
(-14320.4 0 0)
(-14326.2 0 0)
(-14332 0 0)
(-14337.7 0 0)
(-14343.5 0 0)
(-14349.3 0 0)
(-14355 0 0)
(-14360.7 0 0)
(-14366.4 0 0)
(-14372.1 0 0)
(-14377.8 0 0)
(-14383.5 0 0)
(-14389.1 0 0)
(-14394.7 0 0)
(-14400.4 0 0)
(-14406 0 0)
(-14411.5 0 0)
(-14417.1 0 0)
(-14422.7 0 0)
(-14428.2 0 0)
(-14433.7 0 0)
(-14439.2 0 0)
(-14444.7 0 0)
(-14450.2 0 0)
(-14455.7 0 0)
(-14461.1 0 0)
(-14466.5 0 0)
(-14471.9 0 0)
(-14477.3 0 0)
(-14482.7 0 0)
(-14488.1 0 0)
(-14493.3 0 0)
(-14498.7 0 0)
(-14503.9 0 0)
(-14509.3 0 0)
(-14514.4 0 0)
(-14519.8 0 0)
(-14524.7 0 0)
(-14530.3 0 0)
(-14535 0 0)
(-14540.7 0 0)
(-14545.1 0 0)
(-14551.1 0 0)
(-14555 0 0)
(-14561.4 0 0)
(-14564.7 0 0)
(-14571.8 0 0)
(-14574.2 0 0)
(-14582.1 0 0)
(-14583.4 0 0)
(-14592.4 0 0)
(-14592.5 0 0)
(-14602.5 0 0)
(-14602 0 0)
(-14611.8 0 0)
(-14612.6 0 0)
(-14619.6 0 0)
(-14624.4 0 0)
(-14628 0 0)
(-14632.4 0 0)
(-14637.6 0 0)
(-14642.6 0 0)
(-14646.7 0 0)
(-14651.4 0 0)
(-14656.2 0 0)
(-14660.5 0 0)
(-14664.1 0 0)
(-14668.7 0 0)
(-14673.2 0 0)
(-14677.9 0 0)
(-14681.9 0 0)
(-14686.1 0 0)
(-14690 0 0)
(-14694.2 0 0)
(-14697.8 0 0)
(-14701.8 0 0)
(-14705.5 0 0)
(-14709.7 0 0)
(-14713.2 0 0)
(-14717.3 0 0)
(-14719.2 0 0)
(-14727.3 0 0)
(-14721.8 0 0)
(-14740.2 0 0)
(-14723.5 0 0)
(-14750.7 0 0)
(-14733.1 0 0)
(-14749.6 0 0)
(-14751.3 0 0)
(-14748.8 0 0)
(-14755.5 0 0)
(-14757.7 0 0)
(-14758.6 0 0)
(-14766.2 0 0)
(-14769.7 0 0)
(-14762.3 0 0)
(-14781.1 0 0)
(-14763.9 0 0)
(-14786.3 0 0)
(-14769 0 0)
(-14789.6 0 0)
(-14785.5 0 0)
(-14782.1 0 0)
(-14788.7 0 0)