/*--------------------------------*- C++ -*----------------------------------*\
  =========                 |
  \\      /  F ield         | OpenFOAM: The Open Source CFD Toolbox
   \\    /   O peration     | Website:  https://openfoam.org
    \\  /    A nd           | Version:  9
     \\/     M anipulation  |
\*---------------------------------------------------------------------------*/
FoamFile
{
    format      ascii;
    class       surfaceScalarField;
    location    "0.018";
    object      ddtCorrDdt0(phi);
}
// * * * * * * * * * * * * * * * * * * * * * * * * * * * * * * * * * * * * * //

dimensions      [1 0 -2 0 0 0 0];

internalField   nonuniform List<scalar> 
9999
(
466.123
433.895
401.687
369.425
337.092
304.733
272.392
240.086
207.805
175.54
143.288
110.993
78.775
46.5225
14.2868
-17.9555
-50.2051
-82.4543
-114.702
-146.949
-179.195
-211.442
-243.689
-275.936
-308.183
-340.43
-372.677
-404.924
-437.172
-469.419
-501.666
-533.914
-566.161
-598.409
-630.656
-662.904
-695.152
-727.4
-759.647
-791.895
-824.143
-856.391
-888.639
-920.887
-953.135
-985.383
-1017.63
-1049.88
-1082.13
-1114.38
-1146.62
-1178.87
-1211.12
-1243.37
-1275.62
-1307.86
-1340.11
-1372.36
-1404.61
-1436.86
-1469.11
-1501.35
-1533.6
-1565.85
-1598.1
-1630.35
-1662.6
-1694.84
-1727.09
-1759.34
-1791.59
-1823.84
-1856.09
-1888.33
-1920.58
-1952.83
-1985.08
-2017.33
-2049.58
-2081.83
-2114.07
-2146.32
-2178.57
-2210.82
-2243.07
-2275.31
-2307.56
-2339.81
-2372.06
-2404.3
-2436.55
-2468.8
-2501.05
-2533.3
-2565.54
-2597.79
-2630.04
-2662.29
-2694.54
-2726.78
-2759.03
-2791.28
-2823.53
-2855.77
-2888.02
-2920.27
-2952.52
-2984.76
-3017.01
-3049.26
-3081.5
-3113.75
-3146
-3178.25
-3210.49
-3242.74
-3274.99
-3307.23
-3339.48
-3371.72
-3403.97
-3436.22
-3468.46
-3500.71
-3532.95
-3565.2
-3597.44
-3629.69
-3661.93
-3694.18
-3726.43
-3758.67
-3790.92
-3823.16
-3855.41
-3887.65
-3919.89
-3952.14
-3984.38
-4016.63
-4048.87
-4081.11
-4113.36
-4145.6
-4177.84
-4210.09
-4242.33
-4274.57
-4306.82
-4339.06
-4371.3
-4403.55
-4435.79
-4468.03
-4500.27
-4532.51
-4564.76
-4597
-4629.24
-4661.48
-4693.72
-4725.96
-4758.2
-4790.45
-4822.69
-4854.93
-4887.17
-4919.41
-4951.65
-4983.89
-5016.13
-5048.36
-5080.6
-5112.84
-5145.08
-5177.32
-5209.56
-5241.8
-5274.04
-5306.27
-5338.51
-5370.75
-5402.99
-5435.22
-5467.46
-5499.7
-5531.93
-5564.17
-5596.41
-5628.64
-5660.88
-5693.11
-5725.35
-5757.59
-5789.82
-5822.06
-5854.29
-5886.52
-5918.76
-5950.99
-5983.23
-6015.46
-6047.69
-6079.93
-6112.16
-6144.39
-6176.62
-6208.86
-6241.09
-6273.32
-6305.55
-6337.78
-6370.01
-6402.24
-6434.47
-6466.71
-6498.94
-6531.16
-6563.39
-6595.62
-6627.85
-6660.08
-6692.31
-6724.54
-6756.77
-6788.99
-6821.22
-6853.45
-6885.68
-6917.9
-6950.13
-6982.36
-7014.58
-7046.81
-7079.03
-7111.26
-7143.48
-7175.71
-7207.93
-7240.16
-7272.38
-7304.6
-7336.83
-7369.05
-7401.27
-7433.5
-7465.72
-7497.94
-7530.16
-7562.38
-7594.6
-7626.82
-7659.05
-7691.27
-7723.49
-7755.7
-7787.92
-7820.14
-7852.36
-7884.58
-7916.8
-7949.01
-7981.23
-8013.45
-8045.67
-8077.88
-8110.1
-8142.31
-8174.53
-8206.74
-8238.96
-8271.17
-8303.39
-8335.6
-8367.81
-8400.03
-8432.24
-8464.45
-8496.66
-8528.88
-8561.09
-8593.3
-8625.51
-8657.72
-8689.93
-8722.14
-8754.35
-8786.56
-8818.77
-8850.98
-8883.18
-8915.39
-8947.6
-8979.81
-9012.01
-9044.22
-9076.42
-9108.63
-9140.84
-9173.04
-9205.24
-9237.45
-9269.65
-9301.86
-9334.06
-9366.26
-9398.46
-9430.66
-9462.87
-9495.07
-9527.27
-9559.47
-9591.67
-9623.87
-9656.07
-9688.26
-9720.46
-9752.66
-9784.86
-9817.06
-9849.25
-9881.45
-9913.64
-9945.84
-9978.03
-10010.2
-10042.4
-10074.6
-10106.8
-10139
-10171.2
-10203.4
-10235.6
-10267.8
-10300
-10332.2
-10364.3
-10396.5
-10428.7
-10460.9
-10493.1
-10525.3
-10557.5
-10589.7
-10621.8
-10654
-10686.2
-10718.4
-10750.6
-10782.8
-10815
-10847.1
-10879.3
-10911.5
-10943.7
-10975.9
-11008.1
-11040.2
-11072.4
-11104.6
-11136.8
-11169
-11201.1
-11233.3
-11265.5
-11297.7
-11329.8
-11362
-11394.2
-11426.4
-11458.6
-11490.7
-11522.9
-11555.1
-11587.2
-11619.4
-11651.6
-11683.8
-11715.9
-11748.1
-11780.3
-11812.5
-11844.6
-11876.8
-11909
-11941.1
-11973.3
-12005.5
-12037.6
-12069.8
-12102
-12134.1
-12166.3
-12198.5
-12230.6
-12262.8
-12294.9
-12327.1
-12359.3
-12391.4
-12423.6
-12455.7
-12487.9
-12520.1
-12552.2
-12584.4
-12616.5
-12648.7
-12680.8
-12713
-12745.2
-12777.3
-12809.5
-12841.6
-12873.8
-12905.9
-12938.1
-12970.2
-13002.4
-13034.5
-13066.7
-13098.8
-13131
-13163.1
-13195.3
-13227.4
-13259.6
-13291.7
-13323.9
-13356
-13388.1
-13420.3
-13452.4
-13484.6
-13516.7
-13548.9
-13581
-13613.1
-13645.3
-13677.4
-13709.5
-13741.7
-13773.8
-13806
-13838.1
-13870.2
-13902.4
-13934.5
-13966.6
-13998.8
-14030.9
-14063
-14095.2
-14127.3
-14159.4
-14191.5
-14223.7
-14255.8
-14287.9
-14320
-14352.2
-14384.3
-14416.4
-14448.5
-14480.7
-14512.8
-14544.9
-14577
-14609.2
-14641.3
-14673.4
-14705.5
-14737.6
-14769.7
-14801.9
-14834
-14866.1
-14898.2
-14930.3
-14962.4
-14994.5
-15026.7
-15058.8
-15090.9
-15123
-15155.1
-15187.2
-15219.3
-15251.4
-15283.5
-15315.6
-15347.7
-15379.8
-15411.9
-15444.1
-15476.2
-15508.3
-15540.4
-15572.5
-15604.6
-15636.7
-15668.8
-15700.8
-15732.9
-15765
-15797.1
-15829.2
-15861.3
-15893.4
-15925.5
-15957.6
-15989.7
-16021.8
-16053.9
-16086
-16118
-16150.1
-16182.2
-16214.3
-16246.4
-16278.5
-16310.6
-16342.6
-16374.7
-16406.8
-16438.9
-16471
-16503
-16535.1
-16567.2
-16599.3
-16631.3
-16663.4
-16695.5
-16727.6
-16759.6
-16791.7
-16823.8
-16855.9
-16887.9
-16920
-16952.1
-16984.1
-17016.2
-17048.3
-17080.3
-17112.4
-17144.5
-17176.5
-17208.6
-17240.6
-17272.7
-17304.8
-17336.8
-17368.9
-17400.9
-17433
-17465
-17497.1
-17529.1
-17561.2
-17593.2
-17625.3
-17657.3
-17689.4
-17721.4
-17753.5
-17785.5
-17817.6
-17849.6
-17881.7
-17913.7
-17945.8
-17977.8
-18009.8
-18041.9
-18073.9
-18106
-18138
-18170
-18202.1
-18234.1
-18266.1
-18298.2
-18330.2
-18362.2
-18394.3
-18426.3
-18458.3
-18490.3
-18522.4
-18554.4
-18586.4
-18618.4
-18650.5
-18682.5
-18714.5
-18746.5
-18778.6
-18810.6
-18842.6
-18874.6
-18906.6
-18938.6
-18970.6
-19002.7
-19034.7
-19066.7
-19098.7
-19130.7
-19162.7
-19194.7
-19226.7
-19258.7
-19290.7
-19322.7
-19354.7
-19386.7
-19418.7
-19450.7
-19482.7
-19514.7
-19546.7
-19578.7
-19610.7
-19642.7
-19674.7
-19706.7
-19738.7
-19770.7
-19802.7
-19834.7
-19866.6
-19898.6
-19930.6
-19962.6
-19994.6
-20026.6
-20058.6
-20090.5
-20122.5
-20154.5
-20186.5
-20218.4
-20250.4
-20282.4
-20314.4
-20346.3
-20378.3
-20410.3
-20442.3
-20474.2
-20506.2
-20538.2
-20570.1
-20602.1
-20634
-20666
-20698
-20729.9
-20761.9
-20793.8
-20825.8
-20857.8
-20889.7
-20921.7
-20953.6
-20985.6
-21017.5
-21049.5
-21081.4
-21113.4
-21145.3
-21177.3
-21209.2
-21241.2
-21273.1
-21305
-21337
-21368.9
-21400.9
-21432.8
-21464.7
-21496.7
-21528.6
-21560.5
-21592.5
-21624.4
-21656.3
-21688.3
-21720.2
-21752.1
-21784
-21816
-21847.9
-21879.8
-21911.7
-21943.6
-21975.6
-22007.5
-22039.4
-22071.3
-22103.2
-22135.1
-22167.1
-22199
-22230.9
-22262.8
-22294.7
-22326.6
-22358.5
-22390.4
-22422.3
-22454.2
-22486.1
-22518
-22549.9
-22581.8
-22613.7
-22645.6
-22677.5
-22709.4
-22741.3
-22773.2
-22805.1
-22836.9
-22868.8
-22900.7
-22932.6
-22964.5
-22996.4
-23028.3
-23060.1
-23092
-23123.9
-23155.8
-23187.6
-23219.5
-23251.4
-23283.3
-23315.1
-23347
-23378.9
-23410.7
-23442.6
-23474.5
-23506.3
-23538.2
-23570.1
-23601.9
-23633.8
-23665.6
-23697.5
-23729.3
-23761.2
-23793
-23824.9
-23856.8
-23888.6
-23920.4
-23952.3
-23984.1
-24016
-24047.8
-24079.7
-24111.5
-24143.3
-24175.2
-24207
-24238.9
-24270.7
-24302.5
-24334.4
-24366.2
-24398
-24429.8
-24461.7
-24493.5
-24525.3
-24557.1
-24589
-24620.8
-24652.6
-24684.4
-24716.2
-24748.1
-24779.9
-24811.7
-24843.5
-24875.3
-24907.1
-24938.9
-24970.7
-25002.5
-25034.3
-25066.1
-25097.9
-25129.7
-25161.5
-25193.3
-25225.1
-25256.9
-25288.7
-25320.5
-25352.3
-25384.1
-25415.9
-25447.7
-25479.4
-25511.2
-25543
-25574.8
-25606.6
-25638.4
-25670.1
-25701.9
-25733.7
-25765.5
-25797.2
-25829
-25860.8
-25892.5
-25924.3
-25956.1
-25987.8
-26019.6
-26051.4
-26083.1
-26114.9
-26146.6
-26178.4
-26210.1
-26241.9
-26273.6
-26305.4
-26337.1
-26368.9
-26400.6
-26432.4
-26464.1
-26495.9
-26527.6
-26559.3
-26591.1
-26622.8
-26654.6
-26686.3
-26718
-26749.7
-26781.5
-26813.2
-26844.9
-26876.7
-26908.4
-26940.1
-26971.8
-27003.5
-27035.3
-27067
-27098.7
-27130.4
-27162.1
-27193.8
-27225.5
-27257.2
-27288.9
-27320.7
-27352.4
-27384.1
-27415.8
-27447.5
-27479.2
-27510.9
-27542.5
-27574.2
-27605.9
-27637.6
-27669.3
-27701
-27732.7
-27764.4
-27796
-27827.7
-27859.4
-27891.1
-27922.8
-27954.4
-27986.1
-28017.8
-28049.5
-28081.1
-28112.8
-28144.5
-28176.1
-28207.8
-28239.4
-28271.1
-28302.8
-28334.4
-28366.1
-28397.7
-28429.4
-28461
-28492.7
-28524.3
-28556
-28587.6
-28619.3
-28650.9
-28682.5
-28714.2
-28745.8
-28777.5
-28809.1
-28840.7
-28872.3
-28904
-28935.6
-28967.2
-28998.9
-29030.5
-29062.1
-29093.7
-29125.3
-29157
-29188.6
-29220.2
-29251.8
-29283.4
-29315
-29346.6
-29378.2
-29409.8
-29441.4
-29473
-29504.6
-29536.2
-29567.8
-29599.4
-29631
-29662.6
-29694.2
-29725.8
-29757.4
-29788.9
-29820.5
-29852.1
-29883.7
-29915.3
-29946.8
-29978.4
-30010
-30041.5
-30073.1
-30104.7
-30136.2
-30167.8
-30199.4
-30230.9
-30262.5
-30294.1
-30325.6
-30357.2
-30388.7
-30420.3
-30451.8
-30483.4
-30514.9
-30546.5
-30578
-30609.5
-30641.1
-30672.6
-30704.1
-30735.7
-30767.2
-30798.7
-30830.3
-30861.8
-30893.3
-30924.8
-30956.4
-30987.9
-31019.4
-31050.9
-31082.4
-31113.9
-31145.5
-31177
-31208.5
-31240
-31271.5
-31303
-31334.5
-31366
-31397.5
-31429
-31460.5
-31492
-31523.4
-31554.9
-31586.4
-31617.9
-31649.4
-31680.9
-31712.3
-31743.8
-31775.3
-31806.8
-31838.2
-31869.7
-31901.2
-31932.6
-31964.1
-31995.6
-32027
-32058.5
-32090
-32121.4
-32152.9
-32184.3
-32215.8
-32247.2
-32278.7
-32310.1
-32341.5
-32373
-32404.4
-32435.9
-32467.3
-32498.7
-32530.2
-32561.6
-32593
-32624.4
-32655.9
-32687.3
-32718.7
-32750.1
-32781.5
-32813
-32844.4
-32875.8
-32907.2
-32938.6
-32970
-33001.4
-33032.8
-33064.2
-33095.6
-33127
-33158.4
-33189.8
-33221.2
-33252.5
-33283.9
-33315.3
-33346.7
-33378.1
-33409.5
-33440.8
-33472.2
-33503.6
-33534.9
-33566.3
-33597.7
-33629
-33660.4
-33691.8
-33723.1
-33754.5
-33785.8
-33817.2
-33848.5
-33879.9
-33911.2
-33942.6
-33973.9
-34005.3
-34036.6
-34067.9
-34099.3
-34130.6
-34161.9
-34193.2
-34224.6
-34255.9
-34287.2
-34318.5
-34349.9
-34381.2
-34412.5
-34443.8
-34475.1
-34506.4
-34537.7
-34569
-34600.3
-34631.6
-34662.9
-34694.2
-34725.5
-34756.8
-34788.1
-34819.4
-34850.6
-34881.9
-34913.2
-34944.5
-34975.8
-35007
-35038.3
-35069.6
-35100.8
-35132.1
-35163.4
-35194.6
-35225.9
-35257.2
-35288.4
-35319.7
-35350.9
-35382.2
-35413.4
-35444.6
-35475.9
-35507.1
-35538.4
-35569.6
-35600.8
-35632.1
-35663.3
-35694.5
-35725.7
-35757
-35788.2
-35819.4
-35850.6
-35881.8
-35913
-35944.2
-35975.4
-36006.7
-36037.9
-36069.1
-36100.3
-36131.4
-36162.6
-36193.8
-36225
-36256.2
-36287.4
-36318.6
-36349.7
-36380.9
-36412.1
-36443.3
-36474.4
-36505.6
-36536.8
-36567.9
-36599.1
-36630.3
-36661.4
-36692.6
-36723.7
-36754.9
-36786
-36817.2
-36848.3
-36879.4
-36910.6
-36941.7
-36972.8
-37004
-37035.1
-37066.2
-37097.4
-37128.5
-37159.6
-37190.7
-37221.8
-37252.9
-37284
-37315.2
-37346.3
-37377.4
-37408.5
-37439.6
-37470.7
-37501.7
-37532.8
-37563.9
-37595
-37626.1
-37657.2
-37688.2
-37719.3
-37750.4
-37781.5
-37812.5
-37843.6
-37874.7
-37905.7
-37936.8
-37967.8
-37998.9
-38029.9
-38061
-38092
-38123.1
-38154.1
-38185.2
-38216.2
-38247.2
-38278.3
-38309.3
-38340.3
-38371.3
-38402.3
-38433.4
-38464.4
-38495.4
-38526.4
-38557.4
-38588.4
-38619.4
-38650.4
-38681.4
-38712.4
-38743.4
-38774.4
-38805.4
-38836.4
-38867.3
-38898.3
-38929.3
-38960.3
-38991.2
-39022.2
-39053.2
-39084.1
-39115.1
-39146.1
-39177
-39208
-39238.9
-39269.9
-39300.8
-39331.7
-39362.7
-39393.6
-39424.6
-39455.5
-39486.4
-39517.3
-39548.3
-39579.2
-39610.1
-39641
-39671.9
-39702.8
-39733.7
-39764.6
-39795.5
-39826.4
-39857.3
-39888.2
-39919.1
-39950
-39980.9
-40011.8
-40042.6
-40073.5
-40104.4
-40135.3
-40166.1
-40197
-40227.9
-40258.7
-40289.6
-40320.4
-40351.3
-40382.1
-40413
-40443.8
-40474.6
-40505.5
-40536.3
-40567.1
-40598
-40628.8
-40659.6
-40690.4
-40721.2
-40752.1
-40782.9
-40813.7
-40844.5
-40875.3
-40906.1
-40936.9
-40967.7
-40998.4
-41029.2
-41060
-41090.8
-41121.6
-41152.3
-41183.1
-41213.9
-41244.6
-41275.4
-41306.2
-41336.9
-41367.7
-41398.4
-41429.2
-41459.9
-41490.6
-41521.4
-41552.1
-41582.8
-41613.6
-41644.3
-41675
-41705.7
-41736.4
-41767.1
-41797.9
-41828.6
-41859.3
-41890
-41920.7
-41951.3
-41982
-42012.7
-42043.4
-42074.1
-42104.8
-42135.4
-42166.1
-42196.8
-42227.4
-42258.1
-42288.7
-42319.4
-42350
-42380.7
-42411.3
-42442
-42472.6
-42503.2
-42533.9
-42564.5
-42595.1
-42625.7
-42656.3
-42687
-42717.6
-42748.2
-42778.8
-42809.4
-42840
-42870.6
-42901.1
-42931.7
-42962.3
-42992.9
-43023.5
-43054
-43084.6
-43115.2
-43145.7
-43176.3
-43206.8
-43237.4
-43267.9
-43298.5
-43329
-43359.5
-43390.1
-43420.6
-43451.1
-43481.6
-43512.2
-43542.7
-43573.2
-43603.7
-43634.2
-43664.7
-43695.2
-43725.7
-43756.2
-43786.6
-43817.1
-43847.6
-43878.1
-43908.5
-43939
-43969.5
-43999.9
-44030.4
-44060.8
-44091.3
-44121.7
-44152.2
-44182.6
-44213
-44243.4
-44273.9
-44304.3
-44334.7
-44365.1
-44395.5
-44425.9
-44456.3
-44486.7
-44517.1
-44547.5
-44577.9
-44608.3
-44638.6
-44669
-44699.4
-44729.7
-44760.1
-44790.4
-44820.8
-44851.1
-44881.5
-44911.8
-44942.2
-44972.5
-45002.8
-45033.1
-45063.4
-45093.8
-45124.1
-45154.4
-45184.7
-45215
-45245.3
-45275.5
-45305.8
-45336.1
-45366.4
-45396.6
-45426.9
-45457.2
-45487.4
-45517.7
-45547.9
-45578.2
-45608.4
-45638.6
-45668.9
-45699.1
-45729.3
-45759.5
-45789.8
-45820
-45850.2
-45880.4
-45910.6
-45940.7
-45970.9
-46001.1
-46031.3
-46061.5
-46091.6
-46121.8
-46151.9
-46182.1
-46212.2
-46242.4
-46272.5
-46302.6
-46332.8
-46362.9
-46393
-46423.1
-46453.2
-46483.3
-46513.4
-46543.5
-46573.6
-46603.7
-46633.8
-46663.9
-46693.9
-46724
-46754
-46784.1
-46814.1
-46844.2
-46874.2
-46904.3
-46934.3
-46964.3
-46994.3
-47024.3
-47054.3
-47084.3
-47114.3
-47144.3
-47174.3
-47204.3
-47234.3
-47264.2
-47294.2
-47324.2
-47354.1
-47384.1
-47414
-47443.9
-47473.9
-47503.8
-47533.7
-47563.6
-47593.5
-47623.4
-47653.3
-47683.2
-47713.1
-47743
-47772.8
-47802.7
-47832.6
-47862.4
-47892.3
-47922.1
-47952
-47981.8
-48011.6
-48041.4
-48071.3
-48101.1
-48130.9
-48160.7
-48190.4
-48220.2
-48250
-48279.8
-48309.5
-48339.3
-48369
-48398.8
-48428.5
-48458.3
-48488
-48517.7
-48547.4
-48577.1
-48606.8
-48636.5
-48666.2
-48695.9
-48725.6
-48755.2
-48784.9
-48814.5
-48844.2
-48873.8
-48903.5
-48933.1
-48962.7
-48992.3
-49021.9
-49051.5
-49081.1
-49110.7
-49140.3
-49169.8
-49199.4
-49228.9
-49258.5
-49288
-49317.6
-49347.1
-49376.6
-49406.1
-49435.6
-49465.1
-49494.6
-49524.1
-49553.5
-49583
-49612.5
-49641.9
-49671.3
-49700.8
-49730.2
-49759.6
-49789
-49818.4
-49847.8
-49877.2
-49906.6
-49935.9
-49965.3
-49994.6
-50024
-50053.3
-50082.6
-50111.9
-50141.3
-50170.5
-50199.8
-50229.1
-50258.4
-50287.6
-50316.9
-50346.1
-50375.4
-50404.6
-50433.8
-50463
-50492.2
-50521.4
-50550.6
-50579.8
-50608.9
-50638.1
-50667.2
-50696.3
-50725.5
-50754.6
-50783.7
-50812.8
-50841.9
-50870.9
-50900
-50929
-50958.1
-50987.1
-51016.1
-51045.1
-51074.1
-51103.1
-51132.1
-51161.1
-51190
-51219
-51247.9
-51276.8
-51305.7
-51334.6
-51363.5
-51392.4
-51421.3
-51450.1
-51479
-51507.8
-51536.6
-51565.4
-51594.2
-51623
-51651.8
-51680.5
-51709.3
-51738
-51766.8
-51795.5
-51824.2
-51852.9
-51881.5
-51910.2
-51938.8
-51967.5
-51996.1
-52024.7
-52053.3
-52081.9
-52110.5
-52139
-52167.6
-52196.1
-52224.6
-52253.1
-52281.6
-52310.1
-52338.5
-52367
-52395.4
-52423.8
-52452.2
-52480.6
-52509
-52537.3
-52565.7
-52594
-52622.3
-52650.6
-52678.9
-52707.2
-52735.4
-52763.6
-52791.9
-52820.1
-52848.3
-52876.4
-52904.6
-52932.7
-52960.8
-52989
-53017
-53045.1
-53073.2
-53101.2
-53129.2
-53157.2
-53185.2
-53213.2
-53241.2
-53269.1
-53297
-53324.9
-53352.8
-53380.7
-53408.5
-53436.3
-53464.1
-53491.9
-53519.7
-53547.4
-53575.2
-53602.9
-53630.6
-53658.3
-53685.9
-53713.6
-53741.2
-53768.8
-53796.4
-53823.9
-53851.4
-53879
-53906.5
-53933.9
-53961.4
-53988.8
-54016.2
-54043.6
-54071
-54098.3
-54125.7
-54153
-54180.3
-54207.5
-54234.8
-54262
-54289.2
-54316.3
-54343.5
-54370.6
-54397.7
-54424.8
-54451.9
-54478.9
-54505.9
-54532.9
-54559.8
-54586.8
-54613.7
-54640.6
-54667.5
-54694.3
-54721.1
-54747.9
-54774.7
-54801.4
-54828.1
-54854.8
-54881.5
-54908.1
-54934.7
-54961.3
-54987.9
-55014.4
-55040.9
-55067.4
-55093.8
-55120.3
-55146.7
-55173
-55199.4
-55225.7
-55252
-55278.2
-55304.5
-55330.7
-55356.9
-55383
-55409.1
-55435.2
-55461.3
-55487.3
-55513.3
-55539.3
-55565.2
-55591.1
-55617
-55642.8
-55668.6
-55694.4
-55720.2
-55745.9
-55771.6
-55797.3
-55822.9
-55848.5
-55874.1
-55899.6
-55925.1
-55950.6
-55976
-56001.4
-56026.8
-56052.1
-56077.4
-56102.7
-56127.9
-56153.1
-56178.2
-56203.4
-56228.5
-56253.5
-56278.5
-56303.5
-56328.5
-56353.4
-56378.3
-56403.1
-56427.9
-56452.7
-56477.4
-56502.1
-56526.7
-56551.3
-56575.9
-56600.4
-56624.9
-56649.4
-56673.8
-56698.1
-56722.5
-56746.8
-56771
-56795.2
-56819.4
-56843.5
-56867.6
-56891.6
-56915.6
-56939.5
-56963.4
-56987.3
-57011.1
-57034.9
-57058.6
-57082.3
-57105.9
-57129.5
-57153
-57176.5
-57199.9
-57223.3
-57246.6
-57269.9
-57293.1
-57316.3
-57339.4
-57362.5
-57385.5
-57408.5
-57431.4
-57454.3
-57477.1
-57499.8
-57522.5
-57545.1
-57567.7
-57590.2
-57612.6
-57635
-57657.3
-57679.6
-57701.8
-57723.9
-57746
-57768
-57789.9
-57811.8
-57833.5
-57855.3
-57876.9
-57898.5
-57920
-57941.4
-57962.7
-57984
-58005.2
-58026.3
-58047.3
-58068.3
-58089.1
-58110
-58130.5
-58151.3
-58171.5
-58192.3
-58212.1
-58232.8
-58252.3
-58272.9
-58291.9
-58312.6
-58331.1
-58351.7
-58369.9
-58390.1
-58409
-58427.6
-58448.8
-58463.3
-58490.6
-58503
-58521.6
-58538.9
-58561
-58579.3
-58595.2
-58615
-58634.2
-58649.2
-58665.2
-58683.6
-58702.5
-58719.6
-58735.7
-58752.4
-58768.7
-58784
-58799.1
-58814.7
-58830.5
-58846
-58860.7
-58873.2
-58892.8
-58898.1
-58923.9
-58927.6
-58948.5
-58967.4
-58964.4
-59007
-58993.8
-59014.2
-59021.6
-59033.3
-59051.8
-59070.2
-59064.2
-59087.6
-59089.6
-59099.8
-59111
-59116.5
-59150.3
-59141.1
-59135.6
-59161.2
-59168.9
-59158.2
-59192.4
-59174.5
-59184.7
-59209.1
-59173.9
-59231.6
-59204.5
-59206.1
-59215.9
-59211.3
-59204.9
-59229
-59219.7
-59210.4
-59245.3
-59200.8
-59200.7
-59204.8
-59217.4
-59187.6
-59210.8
-59204.3
-59163.2
-59195
-59138.2
-59158.3
-59143.9
-59132.2
-59113.3
-59124.7
-59115
-59051.5
-59022.7
-59072.4
-59011.3
-58983
-58992.6
-58945.5
-58903.1
-58935.6
-58843.2
-58827.2
-58807.2
-58762.1
-58727.8
-58691
-58696.3
-58590.4
-58579.8
-58504.1
-58456.9
-58417.6
-58347.1
-58359.8
-58235.1
-58199.4
-58101.2
-58030.6
-57984.5
-57856.9
-57894
-57743.9
-57653.2
-57552.5
-57430.8
-57368.8
-57239.1
-57148.1
-57096.8
-56934.3
-56794.9
-56616.5
-56511.4
-56367.2
-56207.1
-56085.8
-55940.6
-55761.1
-55522.9
-55368.4
-55136.6
-54970.3
-54758.6
-54520.7
-54318.3
-54026.7
-53810
-53518.3
-53249.2
-52981.7
-52648.8
-52381.4
-52018.2
-51703.5
-51350.9
-50964.1
-50622.9
-50186.7
-49814.3
-49374.3
-48930.1
-48504
-47993.7
-47548.9
-47017.6
-46506.5
-45986.7
-45400
-44872.9
-44250.4
-43666.3
-43050.8
-42387.2
-41773.2
-41062.6
-40402.7
-39694.6
-38957.1
-38258.8
-37468.4
-36736.6
-35946.1
-35142.6
-34369.5
-33511.7
-32718
-31860.7
-31004.4
-30173.4
-29266.5
-28428.6
-27526.7
-26637.4
-25771.7
-24839
-23979.6
-23059.4
-22160.5
-21287.4
-20355.1
-19500.6
-18591.3
-17709
-16857.7
-15953.4
-15131.2
-14261.5
-13421.4
-12619.9
-11769.3
-11004.1
-10199.9
-9424.32
-8696.26
-7921.02
-7232.58
-6514.77
-5820.4
-5183.23
-4498.91
-3899.93
-3282.28
-2678.94
-2142.14
-1557.54
-1052.84
-541.714
-32.225
402.766
885.465
1298.45
1703.87
2122.73
2461.76
2845.97
3175.72
3482.4
3818.02
4072.77
4365.93
4624.69
4844.31
5106.2
5292.14
5504.19
5705.54
5852.97
6050.86
6184.96
6327.36
6483.74
6575.72
6718.26
6816.81
6901.93
7022.91
7076.69
7171.12
7247.7
7288.74
7380.15
7412.06
7464.92
7528.67
7539.66
7603.81
7627.58
7646
7700.69
7696.05
7733.21
7758.13
7751.14
7795.44
7788.59
7799.4
7828.86
7807.85
7837.13
7838.16
7826.29
7857.32
7835.06
7844.55
7857.74
7831.39
7856.24
7843.96
7832.58
7854.89
7826.08
7836.02
7839.57
7812.66
7834.71
7815.83
7806.11
7823.1
7792.17
7802.45
7801.01
7774.87
7794.99
7773.57
7764.79
7779
7747.92
7757.7
7754.58
7728.93
7747.57
7726.22
7716.89
7730.25
7699.88
7708.01
7705.71
7679.71
7696.95
7677.57
7666.11
7679.93
7650.9
7655.99
7656.44
7629.47
7644.81
7629.15
7614.12
7628.95
7602.27
7602.75
7607.26
7579.39
7591.62
7581.41
7561.94
7577.26
7554.65
7548.89
7557.95
7530.32
7537.46
7534.17
7510.47
7524.49
7508.18
7495.11
7507.76
7482.9
7482.57
7486.74
7460.63
7470.29
7462.52
7442.42
7455.88
7437.25
7427.73
7437.99
7413.23
7414.88
7416.58
7392.08
7401.81
7392.78
7374.33
7386.75
7368.34
7359.46
7368.71
7345.05
7346.04
7347.78
7324.17
7332.47
7324.81
7306.09
7317.38
7301.16
7290.46
7299.93
7278.23
7276.3
7280.05
7257.03
7262.37
7258.29
7238.07
7247.58
7235.54
7221.26
7231.14
7212.87
7206.04
7212.72
7191.21
7191.57
7192.54
7171.1
7176.97
7171.07
7152.79
7161.5
7149.05
7136.07
7144.69
7127.24
7120.51
7126.39
7106.19
7105.51
7106.76
7086.34
7090.47
7086.11
7067.83
7074.86
7064.96
7050.54
7058.36
7043.79
7034.25
7040.8
7023
7018.59
7022.19
7002.97
7003.13
7002.72
6983.84
6987.54
6982.65
6965.63
6971.52
6962.26
6948.3
6954.88
6941.88
6931.64
6937.53
6921.76
6915.44
6919.49
6902.06
6899.5
6900.84
6882.95
6883.57
6881.71
6864.44
6867.48
6862.29
6846.5
6851.1
6842.71
6829.12
6834.35
6823.15
6812.16
6817.18
6803.74
6795.5
6799.62
6784.55
6779.07
6781.69
6765.67
6762.71
6763.46
6747.13
6746.35
6745.01
6728.91
6729.93
6726.4
6711.04
6713.38
6707.7
6693.46
6696.66
6689.01
6676.12
6679.77
6670.34
6659
6662.7
6651.77
6642.03
6645.46
6633.32
6625.17
6628.08
6614.99
6608.4
6610.57
6596.83
6591.65
6592.96
6578.81
6574.93
6575.29
6560.93
6558.21
6557.56
6543.21
6541.44
6539.82
6525.61
6524.66
6522.08
6508.12
6507.84
6504.34
6490.75
6490.97
6486.65
6473.44
6474.07
6469
6456.22
6457.15
6451.38
6439.07
6440.17
6433.85
6421.96
6423.18
6416.37
6404.88
6406.19
6398.93
6387.87
6389.15
6381.59
6370.86
6372.12
6364.3
6353.88
6355.11
6347.06
6336.94
6338.05
6329.92
6319.99
6321.03
6312.82
6303.05
6304.02
6295.77
6286.17
6286.99
6278.81
6269.25
6270
6261.89
6252.37
6253.02
6245.01
6235.53
6236.02
6228.23
6218.67
6219.06
6211.46
6201.85
6202.11
6194.74
6185.07
6185.14
6178.11
6168.28
6168.21
6161.49
6151.55
6151.28
6144.91
6134.86
6134.33
6128.41
6118.18
6117.42
6111.9
6101.58
6100.5
6095.43
6085.02
6083.56
6079.02
6068.49
6066.67
6062.58
6052.05
6049.76
6046.18
6035.67
6032.85
6029.79
6019.33
6016
6013.36
6003.1
5999.13
5996.95
5986.92
5982.3
5980.53
5970.78
5965.54
5964.04
5954.76
5948.79
5947.56
5938.76
5932.12
5931.03
5922.81
5915.54
5914.43
5906.94
5899.01
5897.83
5891.05
5882.61
5881.18
5875.19
5866.33
5864.47
5859.34
5850.13
5847.79
5843.42
5834.09
5831.08
5827.48
5818.16
5814.38
5811.49
5802.32
5797.77
5795.39
5786.64
5781.17
5779.22
5771.01
5764.69
5762.97
5755.43
5748.36
5746.59
5739.93
5732.12
5730.17
5724.38
5716.08
5713.68
5708.81
5700.21
5697.14
5693.19
5684.47
5680.65
5677.43
5668.92
5664.18
5661.57
5653.49
5647.8
5645.59
5638.13
5631.59
5629.44
5622.86
5615.52
5613.21
5607.56
5599.66
5596.9
5592.19
5584.02
5580.53
5576.75
5568.54
5564.21
5561.14
5553.26
5547.97
5545.36
5538.1
5531.85
5529.45
5522.98
5515.97
5513.36
5507.88
5500.28
5497.2
5492.69
5484.82
5481.01
5477.34
5469.61
5464.84
5461.85
5454.53
5448.83
5446.14
5439.56
5433
5430.25
5424.63
5417.39
5414.27
5409.58
5402.07
5398.21
5394.42
5386.96
5382.2
5379.06
5372.03
5366.35
5363.47
5357.22
5350.67
5347.72
5342.39
5335.29
5331.83
5327.45
5320.17
5315.92
5312.35
5305.26
5300.12
5297
5290.54
5284.47
5281.45
5275.84
5269.1
5265.75
5261.06
5254.03
5249.95
5246.14
5239.18
5234.25
5230.96
5224.54
5218.7
5215.56
5209.96
5203.41
5199.99
5195.29
5188.45
5184.33
5180.48
5173.72
5168.74
5165.4
5159.19
5153.36
5150.07
5144.71
5138.22
5134.62
5130.11
5123.43
5119.07
5115.33
5108.87
5103.65
5100.3
5094.44
5088.47
5085.01
5080.05
5073.56
5069.63
5065.47
5058.98
5054.24
5050.66
5044.6
5039.02
5035.61
5030.28
5024.11
5020.35
5015.89
5009.48
5005.06
5001.27
4995.13
4989.88
4986.38
4980.91
4974.95
4971.3
4966.61
4960.36
4956.09
4952.16
4946.04
4940.98
4937.42
4931.87
4926.12
4922.44
4917.7
4911.55
4907.37
4903.33
4897.3
4892.34
4888.71
4883.2
4877.54
4873.85
4869.09
4863.08
4858.85
4854.83
4848.88
4843.94
4840.27
4834.87
4829.26
4825.48
4820.84
4814.88
4810.6
4806.59
4800.82
4795.79
4792.11
4786.87
4781.25
4777.38
4772.88
4767.03
4762.58
4758.68
4753.05
4747.93
4744.19
4739.2
4733.54
4729.53
4725.23
4719.47
4714.85
4711
4705.64
4700.34
4696.55
4691.81
4686.16
4681.92
4677.84
4672.26
4667.38
4663.6
4658.51
4653.09
4649.12
4644.72
4639.1
4634.62
4630.69
4625.37
4620.24
4616.41
4611.68
4606.17
4601.98
4597.84
4592.41
4587.58
4583.77
4578.77
4573.46
4569.45
4565.1
4559.63
4555.1
4551.19
4546.03
4540.93
4537.02
4532.46
4527.05
4522.75
4518.7
4513.45
4508.57
4504.7
4499.95
4494.65
4490.52
4486.33
4481.05
4476.35
4472.48
4467.59
4462.44
4458.39
4454.09
4448.81
4444.29
4440.36
4435.39
4430.37
4426.38
4421.98
4416.73
4412.35
4408.36
4403.35
4398.44
4394.5
4390
4384.82
4380.53
4376.48
4371.47
4366.65
4362.74
4358.17
4353.06
4348.83
4344.75
4339.73
4335.01
4331.09
4326.49
4321.45
4317.26
4313.16
4308.14
4303.5
4299.57
4294.98
4289.97
4285.82
4281.69
4276.71
4272.12
4268.18
4263.6
4258.63
4254.51
4250.36
4245.44
4240.85
4236.93
4232.36
4227.44
4223.31
4219.19
4214.3
4209.73
4205.8
4201.27
4196.4
4192.24
4188.15
4183.3
4178.74
4174.8
4170.33
4165.48
4161.31
4157.25
4152.45
4147.89
4143.93
4139.54
4134.7
4130.51
4126.47
4121.76
4117.16
4113.2
4108.87
4104.06
4099.84
4095.83
4091.2
4086.57
4082.6
4078.34
4073.58
4069.29
4065.33
4060.77
4056.13
4052.13
4047.95
4043.24
4038.88
4034.95
4030.48
4025.84
4021.77
4017.69
4013.03
4008.62
4004.69
4000.34
3995.69
3991.56
3987.55
3982.97
3978.51
3974.55
3970.32
3965.68
3961.49
3957.52
3953.05
3948.54
3944.55
3940.43
3935.82
3931.55
3927.61
3923.27
3918.72
3914.67
3910.64
3906.12
3901.76
3897.83
3893.61
3889.06
3884.93
3880.97
3876.56
3872.12
3868.17
3864.06
3859.56
3855.33
3851.42
3847.13
3842.66
3838.63
3834.63
3830.21
3825.88
3821.97
3817.81
3813.35
3809.22
3805.31
3800.99
3796.6
3792.64
3788.61
3784.2
3779.97
3776.08
3771.89
3767.49
3763.43
3759.51
3755.19
3750.89
3746.96
3742.92
3738.54
3734.38
3730.5
3726.32
3721.97
3717.96
3714.04
3709.74
3705.5
3701.59
3697.56
3693.22
3689.11
3685.24
3681.08
3676.78
3672.8
3668.89
3664.63
3660.43
3656.54
3652.54
3648.24
3644.17
3640.3
3636.18
3631.92
3627.97
3624.07
3619.86
3615.69
3611.81
3607.84
3603.59
3599.54
3595.69
3591.62
3587.39
3583.45
3579.58
3575.42
3571.27
3567.4
3563.47
3559.27
3555.23
3551.39
3547.38
3543.19
3539.24
3535.4
3531.32
3527.18
3523.31
3519.43
3515.29
3511.24
3507.42
3503.47
3499.32
3495.36
3491.55
3487.54
3483.41
3479.54
3475.71
3471.63
3467.58
3463.76
3459.88
3455.78
3451.8
3448.01
3444.08
3439.98
3436.09
3432.3
3428.3
3424.25
3420.42
3416.61
3412.57
3408.57
3404.79
3400.94
3396.88
3392.96
3389.2
3385.29
3381.25
3377.4
3373.64
3369.68
3365.68
3361.88
3358.1
3354.11
3350.17
3346.41
3342.59
3338.59
3334.71
3330.97
3327.11
3323.12
3319.29
3315.57
3311.67
3307.71
3303.93
3300.19
3296.26
3292.35
3288.61
3284.85
3280.9
3277.04
3273.33
3269.53
3265.59
3261.78
3258.08
3254.25
3250.34
3246.56
3242.87
3239.01
3235.13
3231.4
3227.69
3223.82
3219.97
3216.27
3212.54
3208.67
3204.85
3201.19
3197.43
3193.56
3189.79
3186.14
3182.35
3178.5
3174.77
3171.12
3167.32
3163.49
3159.8
3156.14
3152.33
3148.52
3144.87
3141.19
3137.38
3133.61
3129.98
3126.28
3122.48
3118.74
3115.12
3111.41
3107.61
3103.91
3100.3
3096.59
3092.8
3089.13
3085.52
3081.8
3078.03
3074.39
3070.78
3067.05
3063.3
3059.69
3056.07
3052.34
3048.62
3045.03
3041.41
3037.67
3033.99
3030.41
3026.78
3023.05
3019.4
3015.83
3012.2
3008.48
3004.85
3001.29
2997.65
2993.95
2990.34
2986.79
2983.14
2979.46
2975.87
2972.33
2968.67
2965.01
2961.45
2957.9
2954.25
2950.6
2947.06
2943.51
2939.87
2936.24
2932.72
2929.17
2925.53
2921.92
2918.41
2914.86
2911.23
2907.65
2904.15
2900.6
2896.98
2893.41
2889.92
2886.38
2882.76
2879.22
2875.73
2872.2
2868.59
2865.07
2861.59
2858.05
2854.46
2850.95
2847.49
2843.95
2840.38
2836.88
2833.42
2829.88
2826.33
2822.85
2819.4
2815.87
2812.32
2808.86
2805.41
2801.89
2798.36
2794.91
2791.46
2787.95
2784.43
2781
2777.56
2774.05
2770.55
2767.12
2763.69
2760.2
2756.71
2753.29
2749.87
2746.38
2742.91
2739.5
2736.09
2732.61
2729.15
2725.75
2722.35
2718.87
2715.43
2712.04
2708.64
2705.18
2701.74
2698.37
2694.98
2691.53
2688.1
2684.74
2681.35
2677.92
2674.5
2671.15
2667.77
2664.35
2660.94
2657.6
2654.23
2650.81
2647.42
2644.08
2640.73
2637.32
2633.94
2630.61
2627.27
2623.87
2620.5
2617.18
2613.85
2610.46
2607.1
2603.79
2600.47
2597.1
2593.74
2590.44
2587.12
2583.77
2580.42
2577.13
2573.82
2570.47
2567.14
2563.86
2560.56
2557.22
2553.9
2550.62
2547.34
2544.01
2540.7
2537.43
2534.16
2530.84
2527.54
2524.28
2521.02
2517.71
2514.42
2511.17
2507.92
2504.62
2501.33
2498.09
2494.85
2491.58
2488.29
2485.06
2481.83
2478.56
2475.29
2472.06
2468.84
2465.59
2462.33
2459.1
2455.9
2452.66
2449.41
2446.19
2443
2439.76
2436.52
2433.31
2430.13
2426.91
2423.68
2420.48
2417.3
2414.1
2410.87
2407.68
2404.51
2401.32
2398.11
2394.92
2391.76
2388.59
2385.38
2382.2
2379.05
2375.89
2372.7
2369.52
2366.38
2363.23
2360.05
2356.88
2353.75
2350.61
2347.45
2344.28
2341.16
2338.03
2334.88
2331.72
2328.6
2325.49
2322.35
2319.2
2316.09
2312.99
2309.86
2306.72
2303.61
2300.52
2297.4
2294.28
2291.17
2288.09
2284.99
2281.87
2278.78
2275.7
2272.62
2269.51
2266.42
2263.35
2260.28
2257.18
2254.1
2251.04
2247.99
2244.9
2241.82
2238.77
2235.72
2232.65
2229.58
2226.54
2223.5
2220.45
2217.38
2214.34
2211.32
2208.28
2205.22
2202.19
2199.17
2196.14
2193.1
2190.07
2187.06
2184.05
2181.02
2177.99
2174.99
2171.99
2168.97
2165.95
2162.96
2159.97
2156.97
2153.95
2150.97
2147.99
2145
2141.99
2139.01
2136.05
2133.07
2130.08
2127.1
2124.14
2121.17
2118.19
2115.22
2112.27
2109.32
2106.35
2103.38
2100.44
2097.5
2094.55
2091.59
2088.65
2085.72
2082.78
2079.83
2076.89
2073.98
2071.05
2068.11