/*--------------------------------*- C++ -*----------------------------------*\
  =========                 |
  \\      /  F ield         | OpenFOAM: The Open Source CFD Toolbox
   \\    /   O peration     | Website:  https://openfoam.org
    \\  /    A nd           | Version:  9
     \\/     M anipulation  |
\*---------------------------------------------------------------------------*/
FoamFile
{
    format      ascii;
    class       volScalarField;
    location    "0.018";
    object      p;
}
// * * * * * * * * * * * * * * * * * * * * * * * * * * * * * * * * * * * * * //

dimensions      [1 -1 -2 0 0 0 0];

internalField   nonuniform List<scalar> 
10000
(
51698.5
51698.1
51697.8
51697.5
51697.2
51696.9
51696.6
51696.2
51695.9
51695.6
51695.3
51695
51694.7
51694.4
51694.1
51693.7
51693.4
51693.1
51692.8
51692.5
51692.2
51691.8
51691.5
51691.2
51690.9
51690.6
51690.2
51689.9
51689.6
51689.3
51688.9
51688.6
51688.3
51688
51687.6
51687.3
51687
51686.7
51686.3
51686
51685.7
51685.3
51685
51684.7
51684.3
51684
51683.7
51683.4
51683
51682.7
51682.3
51682
51681.7
51681.3
51681
51680.7
51680.3
51680
51679.6
51679.3
51679
51678.6
51678.3
51677.9
51677.6
51677.2
51676.9
51676.6
51676.2
51675.9
51675.5
51675.2
51674.8
51674.5
51674.1
51673.8
51673.4
51673.1
51672.7
51672.4
51672
51671.7
51671.3
51671
51670.6
51670.3
51669.9
51669.5
51669.2
51668.8
51668.5
51668.1
51667.7
51667.4
51667
51666.7
51666.3
51665.9
51665.6
51665.2
51664.9
51664.5
51664.1
51663.8
51663.4
51663
51662.7
51662.3
51661.9
51661.6
51661.2
51660.8
51660.4
51660.1
51659.7
51659.3
51659
51658.6
51658.2
51657.8
51657.5
51657.1
51656.7
51656.3
51655.9
51655.6
51655.2
51654.8
51654.4
51654.1
51653.7
51653.3
51652.9
51652.5
51652.1
51651.8
51651.4
51651
51650.6
51650.2
51649.8
51649.4
51649.1
51648.7
51648.3
51647.9
51647.5
51647.1
51646.7
51646.3
51645.9
51645.5
51645.1
51644.7
51644.4
51644
51643.6
51643.2
51642.8
51642.4
51642
51641.6
51641.2
51640.8
51640.4
51640
51639.6
51639.2
51638.8
51638.4
51638
51637.5
51637.1
51636.7
51636.3
51635.9
51635.5
51635.1
51634.7
51634.3
51633.9
51633.5
51633.1
51632.6
51632.2
51631.8
51631.4
51631
51630.6
51630.2
51629.7
51629.3
51628.9
51628.5
51628.1
51627.7
51627.2
51626.8
51626.4
51626
51625.6
51625.1
51624.7
51624.3
51623.9
51623.4
51623
51622.6
51622.2
51621.7
51621.3
51620.9
51620.5
51620
51619.6
51619.2
51618.7
51618.3
51617.9
51617.4
51617
51616.6
51616.1
51615.7
51615.3
51614.8
51614.4
51614
51613.5
51613.1
51612.6
51612.2
51611.8
51611.3
51610.9
51610.4
51610
51609.5
51609.1
51608.7
51608.2
51607.8
51607.3
51606.9
51606.4
51606
51605.5
51605.1
51604.6
51604.2
51603.7
51603.3
51602.8
51602.4
51601.9
51601.5
51601
51600.6
51600.1
51599.7
51599.2
51598.7
51598.3
51597.8
51597.4
51596.9
51596.4
51596
51595.5
51595.1
51594.6
51594.1
51593.7
51593.2
51592.7
51592.3
51591.8
51591.3
51590.9
51590.4
51589.9
51589.5
51589
51588.5
51588.1
51587.6
51587.1
51586.6
51586.2
51585.7
51585.2
51584.8
51584.3
51583.8
51583.3
51582.9
51582.4
51581.9
51581.4
51580.9
51580.5
51580
51579.5
51579
51578.5
51578
51577.6
51577.1
51576.6
51576.1
51575.6
51575.1
51574.7
51574.2
51573.7
51573.2
51572.7
51572.2
51571.7
51571.2
51570.7
51570.2
51569.7
51569.3
51568.8
51568.3
51567.8
51567.3
51566.8
51566.3
51565.8
51565.3
51564.8
51564.3
51563.8
51563.3
51562.8
51562.3
51561.8
51561.3
51560.8
51560.3
51559.8
51559.3
51558.8
51558.3
51557.7
51557.2
51556.7
51556.2
51555.7
51555.2
51554.7
51554.2
51553.7
51553.2
51552.6
51552.1
51551.6
51551.1
51550.6
51550.1
51549.6
51549
51548.5
51548
51547.5
51547
51546.4
51545.9
51545.4
51544.9
51544.4
51543.8
51543.3
51542.8
51542.3
51541.7
51541.2
51540.7
51540.2
51539.6
51539.1
51538.6
51538
51537.5
51537
51536.5
51535.9
51535.4
51534.9
51534.3
51533.8
51533.3
51532.7
51532.2
51531.6
51531.1
51530.6
51530
51529.5
51529
51528.4
51527.9
51527.3
51526.8
51526.2
51525.7
51525.2
51524.6
51524.1
51523.5
51523
51522.4
51521.9
51521.3
51520.8
51520.2
51519.7
51519.1
51518.6
51518
51517.5
51516.9
51516.4
51515.8
51515.3
51514.7
51514.2
51513.6
51513.1
51512.5
51511.9
51511.4
51510.8
51510.3
51509.7
51509.1
51508.6
51508
51507.5
51506.9
51506.3
51505.8
51505.2
51504.6
51504.1
51503.5
51502.9
51502.4
51501.8
51501.2
51500.7
51500.1
51499.5
51498.9
51498.4
51497.8
51497.2
51496.7
51496.1
51495.5
51494.9
51494.4
51493.8
51493.2
51492.6
51492
51491.5
51490.9
51490.3
51489.7
51489.1
51488.6
51488
51487.4
51486.8
51486.2
51485.6
51485.1
51484.5
51483.9
51483.3
51482.7
51482.1
51481.5
51480.9
51480.3
51479.8
51479.2
51478.6
51478
51477.4
51476.8
51476.2
51475.6
51475
51474.4
51473.8
51473.2
51472.6
51472
51471.4
51470.8
51470.2
51469.6
51469
51468.4
51467.8
51467.2
51466.6
51466
51465.4
51464.8
51464.2
51463.6
51463
51462.4
51461.7
51461.1
51460.5
51459.9
51459.3
51458.7
51458.1
51457.5
51456.9
51456.2
51455.6
51455
51454.4
51453.8
51453.2
51452.5
51451.9
51451.3
51450.7
51450.1
51449.4
51448.8
51448.2
51447.6
51447
51446.3
51445.7
51445.1
51444.5
51443.8
51443.2
51442.6
51441.9
51441.3
51440.7
51440.1
51439.4
51438.8
51438.2
51437.5
51436.9
51436.3
51435.6
51435
51434.4
51433.7
51433.1
51432.5
51431.8
51431.2
51430.5
51429.9
51429.3
51428.6
51428
51427.3
51426.7
51426
51425.4
51424.8
51424.1
51423.5
51422.8
51422.2
51421.5
51420.9
51420.2
51419.6
51418.9
51418.3
51417.6
51417
51416.3
51415.7
51415
51414.4
51413.7
51413.1
51412.4
51411.7
51411.1
51410.4
51409.8
51409.1
51408.5
51407.8
51407.1
51406.5
51405.8
51405.2
51404.5
51403.8
51403.2
51402.5
51401.8
51401.2
51400.5
51399.8
51399.2
51398.5
51397.8
51397.2
51396.5
51395.8
51395.1
51394.5
51393.8
51393.1
51392.5
51391.8
51391.1
51390.4
51389.8
51389.1
51388.4
51387.7
51387
51386.4
51385.7
51385
51384.3
51383.6
51383
51382.3
51381.6
51380.9
51380.2
51379.5
51378.8
51378.2
51377.5
51376.8
51376.1
51375.4
51374.7
51374
51373.3
51372.6
51372
51371.3
51370.6
51369.9
51369.2
51368.5
51367.8
51367.1
51366.4
51365.7
51365
51364.3
51363.6
51362.9
51362.2
51361.5
51360.8
51360.1
51359.4
51358.7
51358
51357.3
51356.6
51355.9
51355.2
51354.5
51353.8
51353
51352.3
51351.6
51350.9
51350.2
51349.5
51348.8
51348.1
51347.4
51346.6
51345.9
51345.2
51344.5
51343.8
51343.1
51342.3
51341.6
51340.9
51340.2
51339.5
51338.8
51338
51337.3
51336.6
51335.9
51335.1
51334.4
51333.7
51333
51332.2
51331.5
51330.8
51330.1
51329.3
51328.6
51327.9
51327.1
51326.4
51325.7
51324.9
51324.2
51323.5
51322.7
51322
51321.3
51320.5
51319.8
51319.1
51318.3
51317.6
51316.9
51316.1
51315.4
51314.6
51313.9
51313.2
51312.4
51311.7
51310.9
51310.2
51309.4
51308.7
51307.9
51307.2
51306.5
51305.7
51305
51304.2
51303.5
51302.7
51302
51301.2
51300.5
51299.7
51298.9
51298.2
51297.4
51296.7
51295.9
51295.2
51294.4
51293.7
51292.9
51292.1
51291.4
51290.6
51289.9
51289.1
51288.3
51287.6
51286.8
51286
51285.3
51284.5
51283.8
51283
51282.2
51281.5
51280.7
51279.9
51279.1
51278.4
51277.6
51276.8
51276.1
51275.3
51274.5
51273.7
51273
51272.2
51271.4
51270.6
51269.9
51269.1
51268.3
51267.5
51266.8
51266
51265.2
51264.4
51263.6
51262.8
51262.1
51261.3
51260.5
51259.7
51258.9
51258.1
51257.4
51256.6
51255.8
51255
51254.2
51253.4
51252.6
51251.8
51251
51250.3
51249.5
51248.7
51247.9
51247.1
51246.3
51245.5
51244.7
51243.9
51243.1
51242.3
51241.5
51240.7
51239.9
51239.1
51238.3
51237.5
51236.7
51235.9
51235.1
51234.3
51233.5
51232.7
51231.9
51231.1
51230.3
51229.4
51228.6
51227.8
51227
51226.2
51225.4
51224.6
51223.8
51223
51222.1
51221.3
51220.5
51219.7
51218.9
51218.1
51217.3
51216.4
51215.6
51214.8
51214
51213.2
51212.3
51211.5
51210.7
51209.9
51209
51208.2
51207.4
51206.6
51205.7
51204.9
51204.1
51203.3
51202.4
51201.6
51200.8
51200
51199.1
51198.3
51197.5
51196.6
51195.8
51195
51194.1
51193.3
51192.5
51191.6
51190.8
51189.9
51189.1
51188.3
51187.4
51186.6
51185.7
51184.9
51184.1
51183.2
51182.4
51181.5
51180.7
51179.8
51179
51178.2
51177.3
51176.5
51175.6
51174.8
51173.9
51173.1
51172.2
51171.4
51170.5
51169.7
51168.8
51167.9
51167.1
51166.2
51165.4
51164.5
51163.7
51162.8
51162
51161.1
51160.2
51159.4
51158.5
51157.7
51156.8
51155.9
51155.1
51154.2
51153.3
51152.5
51151.6
51150.7
51149.9
51149
51148.1
51147.3
51146.4
51145.5
51144.7
51143.8
51142.9
51142
51141.2
51140.3
51139.4
51138.6
51137.7
51136.8
51135.9
51135
51134.2
51133.3
51132.4
51131.5
51130.7
51129.8
51128.9
51128
51127.1
51126.2
51125.4
51124.5
51123.6
51122.7
51121.8
51120.9
51120
51119.2
51118.3
51117.4
51116.5
51115.6
51114.7
51113.8
51112.9
51112
51111.1
51110.2
51109.3
51108.4
51107.5
51106.6
51105.7
51104.9
51104
51103.1
51102.2
51101.3
51100.3
51099.4
51098.5
51097.6
51096.7
51095.8
51094.9
51094
51093.1
51092.2
51091.3
51090.4
51089.5
51088.6
51087.7
51086.7
51085.8
51084.9
51084
51083.1
51082.2
51081.3
51080.4
51079.4
51078.5
51077.6
51076.7
51075.8
51074.8
51073.9
51073
51072.1
51071.2
51070.2
51069.3
51068.4
51067.5
51066.5
51065.6
51064.7
51063.8
51062.8
51061.9
51061
51060.1
51059.1
51058.2
51057.3
51056.3
51055.4
51054.5
51053.5
51052.6
51051.7
51050.7
51049.8
51048.9
51047.9
51047
51046
51045.1
51044.2
51043.2
51042.3
51041.3
51040.4
51039.5
51038.5
51037.6
51036.6
51035.7
51034.7
51033.8
51032.8
51031.9
51030.9
51030
51029
51028.1
51027.1
51026.2
51025.2
51024.3
51023.3
51022.4
51021.4
51020.5
51019.5
51018.5
51017.6
51016.6
51015.7
51014.7
51013.8
51012.8
51011.8
51010.9
51009.9
51008.9
51008
51007
51006.1
51005.1
51004.1
51003.2
51002.2
51001.2
51000.2
50999.3
50998.3
50997.3
50996.4
50995.4
50994.4
50993.4
50992.5
50991.5
50990.5
50989.5
50988.6
50987.6
50986.6
50985.6
50984.7
50983.7
50982.7
50981.7
50980.7
50979.8
50978.8
50977.8
50976.8
50975.8
50974.8
50973.8
50972.9
50971.9
50970.9
50969.9
50968.9
50967.9
50966.9
50965.9
50964.9
50964
50963
50962
50961
50960
50959
50958
50957
50956
50955
50954
50953
50952
50951
50950
50949
50948
50947
50946
50945
50944
50943
50942
50941
50939.9
50938.9
50937.9
50936.9
50935.9
50934.9
50933.9
50932.9
50931.9
50930.8
50929.8
50928.8
50927.8
50926.8
50925.8
50924.8
50923.7
50922.7
50921.7
50920.7
50919.7
50918.6
50917.6
50916.6
50915.6
50914.5
50913.5
50912.5
50911.5
50910.4
50909.4
50908.4
50907.4
50906.3
50905.3
50904.3
50903.2
50902.2
50901.2
50900.1
50899.1
50898.1
50897
50896
50895
50893.9
50892.9
50891.9
50890.8
50889.8
50888.7
50887.7
50886.7
50885.6
50884.6
50883.5
50882.5
50881.4
50880.4
50879.4
50878.3
50877.3
50876.2
50875.2
50874.1
50873.1
50872
50871
50869.9
50868.9
50867.8
50866.8
50865.7
50864.7
50863.6
50862.5
50861.5
50860.4
50859.4
50858.3
50857.3
50856.2
50855.1
50854.1
50853
50851.9
50850.9
50849.8
50848.8
50847.7
50846.6
50845.6
50844.5
50843.4
50842.4
50841.3
50840.2
50839.1
50838.1
50837
50835.9
50834.9
50833.8
50832.7
50831.6
50830.6
50829.5
50828.4
50827.3
50826.3
50825.2
50824.1
50823
50821.9
50820.9
50819.8
50818.7
50817.6
50816.5
50815.4
50814.4
50813.3
50812.2
50811.1
50810
50808.9
50807.8
50806.7
50805.7
50804.6
50803.5
50802.4
50801.3
50800.2
50799.1
50798
50796.9
50795.8
50794.7
50793.6
50792.5
50791.4
50790.3
50789.2
50788.1
50787
50785.9
50784.8
50783.7
50782.6
50781.5
50780.4
50779.3
50778.2
50777.1
50776
50774.9
50773.8
50772.6
50771.5
50770.4
50769.3
50768.2
50767.1
50766
50764.9
50763.7
50762.6
50761.5
50760.4
50759.3
50758.2
50757
50755.9
50754.8
50753.7
50752.6
50751.4
50750.3
50749.2
50748.1
50746.9
50745.8
50744.7
50743.6
50742.4
50741.3
50740.2
50739
50737.9
50736.8
50735.6
50734.5
50733.4
50732.3
50731.1
50730
50728.8
50727.7
50726.6
50725.4
50724.3
50723.2
50722
50720.9
50719.7
50718.6
50717.5
50716.3
50715.2
50714
50712.9
50711.7
50710.6
50709.4
50708.3
50707.1
50706
50704.8
50703.7
50702.5
50701.4
50700.2
50699.1
50697.9
50696.8
50695.6
50694.5
50693.3
50692.2
50691
50689.8
50688.7
50687.5
50686.4
50685.2
50684
50682.9
50681.7
50680.6
50679.4
50678.2
50677.1
50675.9
50674.7
50673.6
50672.4
50671.2
50670.1
50668.9
50667.7
50666.5
50665.4
50664.2
50663
50661.8
50660.7
50659.5
50658.3
50657.1
50656
50654.8
50653.6
50652.4
50651.2
50650.1
50648.9
50647.7
50646.5
50645.3
50644.2
50643
50641.8
50640.6
50639.4
50638.2
50637
50635.8
50634.7
50633.5
50632.3
50631.1
50629.9
50628.7
50627.5
50626.3
50625.1
50623.9
50622.7
50621.5
50620.3
50619.1
50617.9
50616.7
50615.5
50614.3
50613.1
50611.9
50610.7
50609.5
50608.3
50607.1
50605.9
50604.7
50603.5
50602.3
50601.1
50599.9
50598.6
50597.4
50596.2
50595
50593.8
50592.6
50591.4
50590.2
50588.9
50587.7
50586.5
50585.3
50584.1
50582.8
50581.6
50580.4
50579.2
50578
50576.7
50575.5
50574.3
50573.1
50571.8
50570.6
50569.4
50568.2
50566.9
50565.7
50564.5
50563.2
50562
50560.8
50559.6
50558.3
50557.1
50555.8
50554.6
50553.4
50552.1
50550.9
50549.7
50548.4
50547.2
50545.9
50544.7
50543.5
50542.2
50541
50539.7
50538.5
50537.2
50536
50534.8
50533.5
50532.3
50531
50529.8
50528.5
50527.3
50526
50524.8
50523.5
50522.3
50521
50519.7
50518.5
50517.2
50516
50514.7
50513.5
50512.2
50510.9
50509.7
50508.4
50507.2
50505.9
50504.6
50503.4
50502.1
50500.8
50499.6
50498.3
50497
50495.8
50494.5
50493.2
50492
50490.7
50489.4
50488.1
50486.9
50485.6
50484.3
50483
50481.8
50480.5
50479.2
50477.9
50476.7
50475.4
50474.1
50472.8
50471.5
50470.3
50469
50467.7
50466.4
50465.1
50463.8
50462.5
50461.3
50460
50458.7
50457.4
50456.1
50454.8
50453.5
50452.2
50450.9
50449.6
50448.3
50447
50445.7
50444.4
50443.1
50441.8
50440.5
50439.2
50437.9
50436.6
50435.3
50434
50432.7
50431.4
50430.1
50428.8
50427.5
50426.2
50424.9
50423.6
50422.3
50421
50419.7
50418.3
50417
50415.7
50414.4
50413.1
50411.8
50410.5
50409.1
50407.8
50406.5
50405.2
50403.9
50402.5
50401.2
50399.9
50398.6
50397.2
50395.9
50394.6
50393.3
50391.9
50390.6
50389.3
50388
50386.6
50385.3
50384
50382.6
50381.3
50380
50378.6
50377.3
50375.9
50374.6
50373.3
50371.9
50370.6
50369.3
50367.9
50366.6
50365.2
50363.9
50362.5
50361.2
50359.8
50358.5
50357.2
50355.8
50354.5
50353.1
50351.8
50350.4
50349.1
50347.7
50346.3
50345
50343.6
50342.3
50340.9
50339.6
50338.2
50336.8
50335.5
50334.1
50332.8
50331.4
50330
50328.7
50327.3
50325.9
50324.6
50323.2
50321.8
50320.5
50319.1
50317.7
50316.4
50315
50313.6
50312.2
50310.9
50309.5
50308.1
50306.7
50305.3
50304
50302.6
50301.2
50299.8
50298.4
50297.1
50295.7
50294.3
50292.9
50291.5
50290.1
50288.7
50287.3
50286
50284.6
50283.2
50281.8
50280.4
50279
50277.6
50276.2
50274.8
50273.4
50272
50270.6
50269.2
50267.8
50266.4
50265
50263.6
50262.2
50260.8
50259.4
50258
50256.6
50255.1
50253.7
50252.3
50250.9
50249.5
50248.1
50246.7
50245.3
50243.8
50242.4
50241
50239.6
50238.2
50236.7
50235.3
50233.9
50232.5
50231
50229.6
50228.2
50226.8
50225.3
50223.9
50222.5
50221
50219.6
50218.2
50216.7
50215.3
50213.9
50212.4
50211
50209.6
50208.1
50206.7
50205.2
50203.8
50202.3
50200.9
50199.5
50198
50196.6
50195.1
50193.7
50192.2
50190.8
50189.3
50187.8
50186.4
50184.9
50183.5
50182
50180.6
50179.1
50177.6
50176.2
50174.7
50173.3
50171.8
50170.3
50168.9
50167.4
50165.9
50164.4
50163
50161.5
50160
50158.6
50157.1
50155.6
50154.1
50152.6
50151.2
50149.7
50148.2
50146.7
50145.2
50143.7
50142.3
50140.8
50139.3
50137.8
50136.3
50134.8
50133.3
50131.8
50130.3
50128.8
50127.3
50125.8
50124.3
50122.8
50121.3
50119.8
50118.3
50116.8
50115.3
50113.8
50112.3
50110.8
50109.3
50107.8
50106.3
50104.7
50103.2
50101.7
50100.2
50098.7
50097.2
50095.6
50094.1
50092.6
50091.1
50089.5
50088
50086.5
50084.9
50083.4
50081.9
50080.4
50078.8
50077.3
50075.7
50074.2
50072.7
50071.1
50069.6
50068
50066.5
50064.9
50063.4
50061.9
50060.3
50058.8
50057.2
50055.6
50054.1
50052.5
50051
50049.4
50047.9
50046.3
50044.7
50043.2
50041.6
50040
50038.5
50036.9
50035.3
50033.8
50032.2
50030.6
50029
50027.5
50025.9
50024.3
50022.7
50021.1
50019.5
50018
50016.4
50014.8
50013.2
50011.6
50010
50008.4
50006.8
50005.2
50003.6
50002
50000.4
49998.8
49997.2
49995.6
49994
49992.4
49990.8
49989.1
49987.5
49985.9
49984.3
49982.7
49981.1
49979.4
49977.8
49976.2
49974.5
49972.9
49971.3
49969.6
49968
49966.4
49964.7
49963.1
49961.5
49959.8
49958.2
49956.5
49954.9
49953.2
49951.6
49949.9
49948.3
49946.6
49944.9
49943.3
49941.6
49939.9
49938.3
49936.6
49934.9
49933.3
49931.6
49929.9
49928.2
49926.5
49924.9
49923.2
49921.5
49919.8
49918.1
49916.4
49914.7
49913
49911.3
49909.6
49907.9
49906.2
49904.5
49902.7
49901
49899.3
49897.6
49895.8
49894.1
49892.4
49890.7
49888.9
49887.2
49885.4
49883.7
49881.9
49880.2
49878.4
49876.7
49874.9
49873.1
49871.4
49869.6
49867.8
49866.1
49864.3
49862.5
49860.7
49858.9
49857.1
49855.3
49853.5
49851.7
49849.9
49848.1
49846.2
49844.4
49842.6
49840.8
49838.9
49837.1
49835.2
49833.4
49831.5
49829.6
49827.8
49825.9
49824
49822.1
49820.3
49818.4
49816.5
49814.5
49812.6
49810.7
49808.8
49806.8
49804.9
49802.9
49801
49799
49797.1
49795.1
49793.1
49791.1
49789.1
49787.1
49785
49783
49781
49778.9
49776.8
49774.7
49772.7
49770.6
49768.5
49766.3
49764.2
49762
49759.9
49757.7
49755.5
49753.3
49751.1
49748.8
49746.6
49744.3
49742
49739.7
49737.3
49735
49732.6
49730.2
49727.8
49725.4
49722.9
49720.4
49717.9
49715.4
49712.8
49710.2
49707.6
49704.9
49702.2
49699.5
49696.7
49693.9
49691.1
49688.2
49685.3
49682.3
49679.3
49676.3
49673.2
49670
49666.8
49663.6
49660.3
49656.9
49653.5
49650.1
49646.5
49642.9
49639.3
49635.6
49631.8
49627.9
49624
49620
49615.9
49611.8
49607.6
49603.3
49598.9
49594.4
49589.9
49585.3
49580.5
49575.7
49570.8
49565.8
49560.8
49555.6
49550.3
49545
49539.5
49534
49528.3
49522.6
49516.7
49510.8
49504.8
49498.6
49492.4
49486.1
49479.6
49473.1
49466.5
49459.8
49453
49446.1
49439.1
49432
49424.9
49417.6
49410.3
49402.8
49395.3
49387.7
49380.1
49372.3
49364.5
49356.6
49348.6
49340.6
49332.5
49324.3
49316.1
49307.8
49299.4
49291
49282.6
49274
49265.5
49256.9
49248.2
49239.5
49230.7
49221.9
49213.1
49204.3
49195.4
49186.4
49177.5
49168.5
49159.5
49150.4
49141.3
49132.3
49123.1
49114
49104.9
49095.7
49086.5
49077.3
49068.1
49058.9
49049.7
49040.4
49031.2
49021.9
49012.6
49003.3
48994.1
48984.8
48975.5
48966.2
48956.8
48947.5
48938.2
48928.9
48919.6
48910.2
48900.9
48891.6
48882.3
48872.9
48863.6
48854.3
48844.9
48835.6
48826.2
48816.9
48807.6
48798.2
48788.9
48779.6
48770.2
48760.9
48751.6
48742.2
48732.9
48723.6
48714.2
48704.9
48695.6
48686.3
48676.9
48667.6
48658.3
48649
48639.7
48630.3
48621
48611.7
48602.4
48593.1
48583.8
48574.5
48565.2
48555.8
48546.5
48537.2
48527.9
48518.6
48509.3
48500
48490.7
48481.4
48472.2
48462.9
48453.6
48444.3
48435
48425.7
48416.4
48407.1
48397.9
48388.6
48379.3
48370
48360.8
48351.5
48342.2
48332.9
48323.7
48314.4
48305.1
48295.9
48286.6
48277.4
48268.1
48258.8
48249.6
48240.3
48231.1
48221.8
48212.6
48203.3
48194.1
48184.8
48175.6
48166.3
48157.1
48147.9
48138.6
48129.4
48120.1
48110.9
48101.7
48092.5
48083.2
48074
48064.8
48055.5
48046.3
48037.1
48027.9
48018.7
48009.4
48000.2
47991
47981.8
47972.6
47963.4
47954.2
47945
47935.8
47926.6
47917.4
47908.2
47899
47889.8
47880.6
47871.4
47862.2
47853
47843.8
47834.6
47825.4
47816.2
47807.1
47797.9
47788.7
47779.5
47770.3
47761.2
47752
47742.8
47733.6
47724.5
47715.3
47706.1
47697
47687.8
47678.6
47669.5
47660.3
47651.2
47642
47632.9
47623.7
47614.6
47605.4
47596.3
47587.1
47578
47568.8
47559.7
47550.5
47541.4
47532.3
47523.1
47514
47504.8
47495.7
47486.6
47477.5
47468.3
47459.2
47450.1
47441
47431.8
47422.7
47413.6
47404.5
47395.4
47386.3
47377.1
47368
47358.9
47349.8
47340.7
47331.6
47322.5
47313.4
47304.3
47295.2
47286.1
47277
47267.9
47258.8
47249.7
47240.6
47231.5
47222.5
47213.4
47204.3
47195.2
47186.1
47177
47168
47158.9
47149.8
47140.7
47131.7
47122.6
47113.5
47104.5
47095.4
47086.3
47077.3
47068.2
47059.1
47050.1
47041
47032
47022.9
47013.9
47004.8
46995.8
46986.7
46977.7
46968.6
46959.6
46950.5
46941.5
46932.5
46923.4
46914.4
46905.4
46896.3
46887.3
46878.3
46869.2
46860.2
46851.2
46842.2
46833.1
46824.1
46815.1
46806.1
46797.1
46788
46779
46770
46761
46752
46743
46734
46725
46716
46707
46698
46689
46680
46671
46662
46653
46644
46635
46626
46617
46608.1
46599.1
46590.1
46581.1
46572.1
46563.2
46554.2
46545.2
46536.2
46527.3
46518.3
46509.3
46500.4
46491.4
46482.4
46473.5
46464.5
46455.5
46446.6
46437.6
46428.7
46419.7
46410.8
46401.8
46392.9
46383.9
46375
46366
46357.1
46348.1
46339.2
46330.3
46321.3
46312.4
46303.5
46294.5
46285.6
46276.7
46267.7
46258.8
46249.9
46241
46232
46223.1
46214.2
46205.3
46196.4
46187.4
46178.5
46169.6
46160.7
46151.8
46142.9
46134
46125.1
46116.2
46107.3
46098.4
46089.5
46080.6
46071.7
46062.8
46053.9
46045
46036.1
46027.2
46018.3
46009.4
46000.6
45991.7
45982.8
45973.9
45965
45956.2
45947.3
45938.4
45929.5
45920.7
45911.8
45902.9
45894.1
45885.2
45876.3
45867.5
45858.6
45849.8
45840.9
45832
45823.2
45814.3
45805.5
45796.6
45787.8
45778.9
45770.1
45761.2
45752.4
45743.6
45734.7
45725.9
45717
45708.2
45699.4
45690.5
45681.7
45672.9
45664
45655.2
45646.4
45637.6
45628.7
45619.9
45611.1
45602.3
45593.5
45584.7
45575.8
45567
45558.2
45549.4
45540.6
45531.8
45523
45514.2
45505.4
45496.6
45487.8
45479
45470.2
45461.4
45452.6
45443.8
45435
45426.2
45417.4
45408.7
45399.9
45391.1
45382.3
45373.5
45364.8
45356
45347.2
45338.4
45329.7
45320.9
45312.1
45303.3
45294.6
45285.8
45277.1
45268.3
45259.5
45250.8
45242
45233.3
45224.5
45215.7
45207
45198.2
45189.5
45180.7
45172
45163.3
45154.5
45145.8
45137
45128.3
45119.6
45110.8
45102.1
45093.3
45084.6
45075.9
45067.2
45058.4
45049.7
45041
45032.3
45023.5
45014.8
45006.1
44997.4
44988.7
44979.9
44971.2
44962.5
44953.8
44945.1
44936.4
44927.7
44919
44910.3
44901.6
44892.9
44884.2
44875.5
44866.8
44858.1
44849.4
44840.7
44832
44823.3
44814.6
44806
44797.3
44788.6
44779.9
44771.2
44762.6
44753.9
44745.2
44736.5
44727.9
44719.2
44710.5
44701.9
44693.2
44684.5
44675.9
44667.2
44658.5
44649.9
44641.2
44632.6
44623.9
44615.3
44606.6
44597.9
44589.3
44580.7
44572
44563.4
44554.7
44546.1
44537.4
44528.8
44520.2
44511.5
44502.9
44494.3
44485.6
44477
44468.4
44459.7
44451.1
44442.5
44433.9
44425.2
44416.6
44408
44399.4
44390.8
44382.2
44373.5
44364.9
44356.3
44347.7
44339.1
44330.5
44321.9
44313.3
44304.7
44296.1
44287.5
44278.9
44270.3
44261.7
44253.1
44244.5
44235.9
44227.3
44218.8
44210.2
44201.6
44193
44184.4
44175.8
44167.3
44158.7
44150.1
44141.5
44133
44124.4
44115.8
44107.2
44098.7
44090.1
44081.6
44073
44064.4
44055.9
44047.3
44038.8
44030.2
44021.6
44013.1
44004.5
43996
43987.4
43978.9
43970.3
43961.8
43953.3
43944.7
43936.2
43927.6
43919.1
43910.6
43902
43893.5
43885
43876.4
43867.9
43859.4
43850.9
43842.3
43833.8
43825.3
43816.8
43808.3
43799.7
43791.2
43782.7
43774.2
43765.7
43757.2
43748.7
43740.2
43731.7
43723.1
43714.6
43706.1
43697.6
43689.1
43680.6
43672.2
43663.7
43655.2
43646.7
43638.2
43629.7
43621.2
43612.7
43604.2
43595.8
43587.3
43578.8
43570.3
43561.8
43553.4
43544.9
43536.4
43527.9
43519.5
43511
43502.5
43494.1
43485.6
43477.1
43468.7
43460.2
43451.8
43443.3
43434.9
43426.4
43417.9
43409.5
43401
43392.6
43384.1
43375.7
43367.3
43358.8
43350.4
43341.9
43333.5
43325.1
43316.6
43308.2
43299.8
43291.3
43282.9
43274.5
43266
43257.6
43249.2
43240.8
43232.3
43223.9
43215.5
43207.1
43198.7
43190.3
43181.8
43173.4
43165
43156.6
43148.2
43139.8
43131.4
43123
43114.6
43106.2
43097.8
43089.4
43081
43072.6
43064.2
43055.8
43047.4
43039
43030.6
43022.3
43013.9
43005.5
42997.1
42988.7
42980.3
42972
42963.6
42955.2
42946.8
42938.5
42930.1
42921.7
42913.4
42905
42896.6
42888.3
42879.9
42871.5
42863.2
42854.8
42846.5
42838.1
42829.8
42821.4
42813
42804.7
42796.4
42788
42779.7
42771.3
42763
42754.6
42746.3
42738
42729.6
42721.3
42712.9
42704.6
42696.3
42687.9
42679.6
42671.3
42663
42654.6
42646.3
42638
42629.7
42621.4
42613
42604.7
42596.4
42588.1
42579.8
42571.5
42563.2
42554.9
42546.6
42538.2
42529.9
42521.6
42513.3
42505
42496.7
42488.4
42480.2
42471.9
42463.6
42455.3
42447
42438.7
42430.4
42422.1
42413.8
42405.6
42397.3
42389
42380.7
42372.4
42364.2
42355.9
42347.6
42339.3
42331.1
42322.8
42314.5
42306.3
42298
42289.7
42281.5
42273.2
42265
42256.7
42248.5
42240.2
42231.9
42223.7
42215.4
42207.2
42198.9
42190.7
42182.5
42174.2
42166
42157.7
42149.5
42141.3
42133
42124.8
42116.5
42108.3
42100.1
42091.9
42083.6
42075.4
42067.2
42058.9
42050.7
42042.5
42034.3
42026.1
42017.9
42009.6
42001.4
41993.2
41985
41976.8
41968.6
41960.4
41952.2
41944
41935.8
41927.6
41919.4
41911.2
41903
41894.8
41886.6
41878.4
41870.2
41862
41853.8
41845.6
41837.4
41829.2
41821.1
41812.9
41804.7
41796.5
41788.3
41780.2
41772
41763.8
41755.6
41747.5
41739.3
41731.1
41723
41714.8
41706.6
41698.5
41690.3
41682.1
41674
41665.8
41657.7
41649.5
41641.4
41633.2
41625.1
41616.9
41608.8
41600.6
41592.5
41584.3
41576.2
41568
41559.9
41551.8
41543.6
41535.5
41527.4
41519.2
41511.1
41503
41494.8
41486.7
41478.6
41470.5
41462.3
41454.2
41446.1
41438
41429.9
41421.7
41413.6
41405.5
41397.4
41389.3
41381.2
41373.1
41365
41356.9
41348.8
41340.7
41332.6
41324.5
41316.4
41308.3
41300.2
41292.1
41284
41275.9
41267.8
41259.7
41251.6
41243.5
41235.5
41227.4
41219.3
41211.2
41203.1
41195.1
41187
41178.9
41170.8
41162.8
41154.7
41146.6
41138.5
41130.5
41122.4
41114.3
41106.3
41098.2
41090.2
41082.1
41074
41066
41057.9
41049.9
41041.8
41033.8
41025.7
41017.7
41009.6
41001.6
40993.6
40985.5
40977.5
40969.4
40961.4
40953.4
40945.3
40937.3
40929.3
40921.2
40913.2
40905.2
40897.1
40889.1
40881.1
40873.1
40865
40857
40849
40841
40833
40825
40816.9
40808.9
40800.9
40792.9
40784.9
40776.9
40768.9
40760.9
40752.9
40744.9
40736.9
40728.9
40720.9
40712.9
40704.9
40696.9
40688.9
40680.9
40672.9
40664.9
40657
40649
40641
40633
40625
40617.1
40609.1
40601.1
40593.1
40585.1
40577.2
40569.2
40561.2
40553.3
40545.3
40537.3
40529.4
40521.4
40513.4
40505.5
40497.5
40489.6
40481.6
40473.7
40465.7
40457.8
40449.8
40441.9
40433.9
40426
40418
40410.1
40402.1
40394.2
40386.2
40378.3
40370.4
40362.4
40354.5
40346.6
40338.6
40330.7
40322.8
40314.8
40306.9
40299
40291.1
40283.1
40275.2
40267.3
40259.4
40251.5
40243.6
40235.6
40227.7
40219.8
40211.9
40204
40196.1
40188.2
40180.3
40172.4
40164.5
40156.6
40148.7
40140.8
40132.9
40125
40117.1
40109.2
40101.3
40093.4
40085.5
40077.6
40069.8
40061.9
40054
40046.1
40038.2
40030.3
40022.5
40014.6
40006.7
39998.8
39991
39983.1
39975.2
39967.4
39959.5
39951.6
39943.8
39935.9
39928
39920.2
39912.3
39904.5
39896.6
39888.8
39880.9
39873
39865.2
39857.3
39849.5
39841.6
39833.8
39826
39818.1
39810.3
39802.4
39794.6
39786.8
39778.9
39771.1
39763.3
39755.4
39747.6
39739.8
39731.9
39724.1
39716.3
39708.5
39700.6
39692.8
39685
39677.2
39669.4
39661.5
39653.7
39645.9
39638.1
39630.3
39622.5
39614.7
39606.9
39599.1
39591.3
39583.5
39575.7
39567.9
39560.1
39552.3
39544.5
39536.7
39528.9
39521.1
39513.3
39505.5
39497.7
39489.9
39482.1
39474.4
39466.6
39458.8
39451
39443.2
39435.5
39427.7
39419.9
39412.1
39404.4
39396.6
39388.8
39381.1
39373.3
39365.5
39357.8
39350
39342.2
39334.5
39326.7
39319
39311.2
39303.5
39295.7
39288
39280.2
39272.5
39264.7
39257
39249.2
39241.5
39233.7
39226
39218.2
39210.5
39202.8
39195
39187.3
39179.6
39171.8
39164.1
39156.4
39148.7
39140.9
39133.2
39125.5
39117.8
39110
39102.3
39094.6
39086.9
39079.2
39071.4
39063.7
39056
39048.3
39040.6
39032.9
39025.2
39017.5
39009.8
39002.1
38994.4
38986.7
38979
38971.3
38963.6
38955.9
38948.2
38940.5
38932.8
38925.1
38917.4
38909.8
38902.1
38894.4
38886.7
38879
38871.3
38863.7
38856
38848.3
38840.6
38833
38825.3
38817.6
38809.9
38802.3
38794.6
38786.9
38779.3
38771.6
38764
38756.3
38748.6
38741
38733.3
38725.7
38718
38710.4
38702.7
38695.1
38687.4
38679.8
38672.1
38664.5
38656.8
38649.2
38641.6
38633.9
38626.3
38618.6
38611
38603.4
38595.7
38588.1
38580.5
38572.9
38565.2
38557.6
38550
38542.4
38534.7
38527.1
38519.5
38511.9
38504.3
38496.6
38489
38481.4
38473.8
38466.2
38458.6
38451
38443.4
38435.8
38428.2
38420.6
38413
38405.4
38397.8
38390.2
38382.6
38375
38367.4
38359.8
38352.2
38344.6
38337
38329.5
38321.9
38314.3
38306.7
38299.1
38291.5
38284
38276.4
38268.8
38261.2
38253.7
38246.1
38238.5
38231
38223.4
38215.8
38208.3
38200.7
38193.1
38185.6
38178
38170.5
38162.9
38155.3
38147.8
38140.2
38132.7
38125.1
38117.6
38110
38102.5
38094.9
38087.4
38079.9
38072.3
38064.8
38057.2
38049.7
38042.2
38034.6
38027.1
38019.6
38012
38004.5
37997
37989.4
37981.9
37974.4
37966.9
37959.4
37951.8
37944.3
37936.8
37929.3
37921.8
37914.2
37906.7
37899.2
37891.7
37884.2
37876.7
37869.2
37861.7
37854.2
37846.7
37839.2
37831.7
37824.2
37816.7
37809.2
37801.7
37794.2
37786.7
37779.2
37771.7
37764.3
37756.8
37749.3
37741.8
37734.3
37726.8
37719.4
37711.9
37704.4
37696.9
37689.5
37682
37674.5
37667
37659.6
37652.1
37644.6
37637.2
37629.7
37622.2
37614.8
37607.3
37599.9
37592.4
37584.9
37577.5
37570
37562.6
37555.1
37547.7
37540.2
37532.8
37525.3
37517.9
37510.5
37503
37495.6
37488.1
37480.7
37473.3
37465.8
37458.4
37451
37443.5
37436.1
37428.7
37421.2
37413.8
37406.4
37399
37391.6
37384.1
37376.7
37369.3
37361.9
37354.5
37347
37339.6
37332.2
37324.8
37317.4
37310
37302.6
37295.2
37287.8
37280.4
37273
37265.6
37258.2
37250.8
37243.4
37236
37228.6
37221.2
37213.8
37206.4
37199
37191.7
37184.3
37176.9
37169.5
37162.1
37154.7
37147.4
37140
37132.6
37125.2
37117.9
37110.5
37103.1
37095.7
37088.4
37081
37073.6
37066.3
37058.9
37051.6
37044.2
37036.8
37029.5
37022.1
37014.8
37007.4
37000.1
36992.7
36985.4
36978
36970.7
36963.3
36956
36948.6
36941.3
36933.9
36926.6
36919.3
36911.9
36904.6
36897.3
36889.9
36882.6
36875.3
36867.9
36860.6
36853.3
36846
36838.6
36831.3
36824
36816.7
36809.3
36802
36794.7
36787.4
36780.1
36772.8
36765.5
36758.1
36750.8
36743.5
36736.2
36728.9
36721.6
36714.3
36707
36699.7
36692.4
36685.1
36677.8
36670.5
36663.2
36655.9
36648.7
36641.4
36634.1
36626.8
36619.5
36612.2
36604.9
36597.7
36590.4
36583.1
36575.8
36568.5
36561.3
36554
36546.7
36539.5
36532.2
36524.9
36517.7
36510.4
36503.1
36495.9
36488.6
36481.3
36474.1
36466.8
36459.6
36452.3
36445.1
36437.8
36430.6
36423.3
36416.1
36408.8
36401.6
36394.3
36387.1
36379.8
36372.6
36365.4
36358.1
36350.9
36343.6
36336.4
36329.2
36321.9
36314.7
36307.5
36300.3
36293
36285.8
36278.6
36271.4
36264.1
36256.9
36249.7
36242.5
36235.3
36228.1
36220.8
36213.6
36206.4
36199.2
36192
36184.8
36177.6
36170.4
36163.2
36156
36148.8
36141.6
36134.4
36127.2
36120
36112.8
36105.6
36098.4
36091.2
36084
36076.8
36069.7
36062.5
36055.3
36048.1
36040.9
36033.7
36026.6
36019.4
36012.2
36005
35997.9
35990.7
35983.5
35976.4
35969.2
35962
35954.9
35947.7
35940.5
35933.4
35926.2
35919.1
35911.9
35904.7
35897.6
35890.4
35883.3