/*--------------------------------*- C++ -*----------------------------------*\
  =========                 |
  \\      /  F ield         | OpenFOAM: The Open Source CFD Toolbox
   \\    /   O peration     | Website:  https://openfoam.org
    \\  /    A nd           | Version:  9
     \\/     M anipulation  |
\*---------------------------------------------------------------------------*/
FoamFile
{
    format      ascii;
    class       surfaceScalarField;
    location    "0.018";
    object      phi;
}
// * * * * * * * * * * * * * * * * * * * * * * * * * * * * * * * * * * * * * //

dimensions      [1 0 -1 0 0 0 0];

internalField   nonuniform List<scalar> 
9999
(
4.64244
4.84964
5.0568
5.26394
5.4711
5.67831
5.88557
6.09286
6.30017
6.50748
6.7148
6.92213
7.12945
7.33678
7.54411
7.75143
7.95876
8.16608
8.37341
8.58073
8.78806
8.99538
9.2027
9.41003
9.61735
9.82467
10.032
10.2393
10.4466
10.654
10.8613
11.0686
11.2759
11.4832
11.6906
11.8979
12.1052
12.3125
12.5198
12.7272
12.9345
13.1418
13.3491
13.5564
13.7638
13.9711
14.1784
14.3857
14.593
14.8003
15.0077
15.215
15.4223
15.6296
15.8369
16.0442
16.2515
16.4589
16.6662
16.8735
17.0808
17.2881
17.4954
17.7027
17.91
18.1173
18.3246
18.532
18.7393
18.9466
19.1539
19.3612
19.5685
19.7758
19.9831
20.1904
20.3977
20.605
20.8123
21.0196
21.2269
21.4342
21.6415
21.8488
22.0561
22.2634
22.4707
22.678
22.8853
23.0926
23.2999
23.5072
23.7145
23.9218
24.1291
24.3364
24.5437
24.751
24.9583
25.1656
25.3728
25.5801
25.7874
25.9947
26.202
26.4093
26.6166
26.8239
27.0311
27.2384
27.4457
27.653
27.8603
28.0676
28.2748
28.4821
28.6894
28.8967
29.104
29.3112
29.5185
29.7258
29.9331
30.1403
30.3476
30.5549
30.7622
30.9694
31.1767
31.384
31.5912
31.7985
32.0058
32.213
32.4203
32.6276
32.8348
33.0421
33.2494
33.4566
33.6639
33.8711
34.0784
34.2857
34.4929
34.7002
34.9074
35.1147
35.3219
35.5292
35.7364
35.9437
36.1509
36.3582
36.5654
36.7727
36.9799
37.1872
37.3944
37.6017
37.8089
38.0162
38.2234
38.4306
38.6379
38.8451
39.0524
39.2596
39.4668
39.6741
39.8813
40.0885
40.2958
40.503
40.7102
40.9175
41.1247
41.3319
41.5391
41.7464
41.9536
42.1608
42.368
42.5752
42.7825
42.9897
43.1969
43.4041
43.6113
43.8185
44.0258
44.233
44.4402
44.6474
44.8546
45.0618
45.269
45.4762
45.6834
45.8906
46.0978
46.305
46.5122
46.7194
46.9266
47.1338
47.341
47.5482
47.7554
47.9626
48.1698
48.377
48.5841
48.7913
48.9985
49.2057
49.4129
49.6201
49.8272
50.0344
50.2416
50.4488
50.656
50.8631
51.0703
51.2775
51.4846
51.6918
51.899
52.1061
52.3133
52.5205
52.7276
52.9348
53.142
53.3491
53.5563
53.7634
53.9706
54.1777
54.3849
54.592
54.7992
55.0063
55.2135
55.4206
55.6278
55.8349
56.0421
56.2492
56.4563
56.6635
56.8706
57.0777
57.2849
57.492
57.6991
57.9063
58.1134
58.3205
58.5276
58.7348
58.9419
59.149
59.3561
59.5632
59.7703
59.9775
60.1846
60.3917
60.5988
60.8059
61.013
61.2201
61.4272
61.6343
61.8414
62.0485
62.2556
62.4627
62.6698
62.8769
63.084
63.2911
63.4981
63.7052
63.9123
64.1194
64.3265
64.5336
64.7406
64.9477
65.1548
65.3619
65.5689
65.776
65.9831
66.1901
66.3972
66.6043
66.8113
67.0184
67.2254
67.4325
67.6395
67.8466
68.0536
68.2607
68.4677
68.6748
68.8818
69.0889
69.2959
69.503
69.71
69.917
70.1241
70.3311
70.5381
70.7452
70.9522
71.1592
71.3662
71.5733
71.7803
71.9873
72.1943
72.4013
72.6083
72.8153
73.0224
73.2294
73.4364
73.6434
73.8504
74.0574
74.2644
74.4714
74.6784
74.8854
75.0923
75.2993
75.5063
75.7133
75.9203
76.1273
76.3342
76.5412
76.7482
76.9552
77.1621
77.3691
77.5761
77.783
77.99
78.197
78.4039
78.6109
78.8178
79.0248
79.2317
79.4387
79.6456
79.8526
80.0595
80.2665
80.4734
80.6804
80.8873
81.0942
81.3012
81.5081
81.715
81.9219
82.1289
82.3358
82.5427
82.7496
82.9565
83.1635
83.3704
83.5773
83.7842
83.9911
84.198
84.4049
84.6118
84.8187
85.0256
85.2325
85.4394
85.6463
85.8531
86.06
86.2669
86.4738
86.6807
86.8875
87.0944
87.3013
87.5082
87.715
87.9219
88.1287
88.3356
88.5425
88.7493
88.9562
89.163
89.3699
89.5767
89.7836
89.9904
90.1972
90.4041
90.6109
90.8178
91.0246
91.2314
91.4382
91.6451
91.8519
92.0587
92.2655
92.4723
92.6792
92.886
93.0928
93.2996
93.5064
93.7132
93.92
94.1268
94.3336
94.5404
94.7471
94.9539
95.1607
95.3675
95.5743
95.7811
95.9878
96.1946
96.4014
96.6081
96.8149
97.0217
97.2284
97.4352
97.6419
97.8487
98.0555
98.2622
98.4689
98.6757
98.8824
99.0892
99.2959
99.5026
99.7094
99.9161
100.123
100.33
100.536
100.743
100.95
101.156
101.363
101.57
101.777
101.983
102.19
102.397
102.603
102.81
103.017
103.223
103.43
103.637
103.843
104.05
104.257
104.463
104.67
104.877
105.083
105.29
105.497
105.703
105.91
106.117
106.323
106.53
106.737
106.943
107.15
107.357
107.563
107.77
107.977
108.183
108.39
108.596
108.803
109.01
109.216
109.423
109.629
109.836
110.043
110.249
110.456
110.662
110.869
111.076
111.282
111.489
111.695
111.902
112.108
112.315
112.522
112.728
112.935
113.141
113.348
113.554
113.761
113.968
114.174
114.381
114.587
114.794
115
115.207
115.413
115.62
115.826
116.033
116.239
116.446
116.652
116.859
117.065
117.272
117.478
117.685
117.891
118.098
118.304
118.511
118.717
118.924
119.13
119.337
119.543
119.75
119.956
120.163
120.369
120.575
120.782
120.988
121.195
121.401
121.608
121.814
122.021
122.227
122.433
122.64
122.846
123.053
123.259
123.465
123.672
123.878
124.085
124.291
124.497
124.704
124.91
125.117
125.323
125.529
125.736
125.942
126.149
126.355
126.561
126.768
126.974
127.18
127.387
127.593
127.799
128.006
128.212
128.418
128.625
128.831
129.037
129.244
129.45
129.656
129.863
130.069
130.275
130.482
130.688
130.894
131.1
131.307
131.513
131.719
131.926
132.132
132.338
132.544
132.751
132.957
133.163
133.369
133.576
133.782
133.988
134.194
134.401
134.607
134.813
135.019
135.226
135.432
135.638
135.844
136.05
136.257
136.463
136.669
136.875
137.081
137.288
137.494
137.7
137.906
138.112
138.318
138.525
138.731
138.937
139.143
139.349
139.555
139.762
139.968
140.174
140.38
140.586
140.792
140.998
141.205
141.411
141.617
141.823
142.029
142.235
142.441
142.647
142.853
143.059
143.266
143.472
143.678
143.884
144.09
144.296
144.502
144.708
144.914
145.12
145.326
145.532
145.738
145.944
146.15
146.356
146.562
146.768
146.974
147.181
147.387
147.593
147.799
148.005
148.211
148.417
148.623
148.829
149.034
149.24
149.446
149.652
149.858
150.064
150.27
150.476
150.682
150.888
151.094
151.3
151.506
151.712
151.918
152.124
152.33
152.536
152.742
152.947
153.153
153.359
153.565
153.771
153.977
154.183
154.389
154.595
154.8
155.006
155.212
155.418
155.624
155.83
156.036
156.241
156.447
156.653
156.859
157.065
157.271
157.476
157.682
157.888
158.094
158.3
158.506
158.711
158.917
159.123
159.329
159.535
159.74
159.946
160.152
160.358
160.563
160.769
160.975
161.181
161.386
161.592
161.798
162.004
162.209
162.415
162.621
162.826
163.032
163.238
163.444
163.649
163.855
164.061
164.266
164.472
164.678
164.883
165.089
165.295
165.5
165.706
165.912
166.117
166.323
166.529
166.734
166.94
167.146
167.351
167.557
167.762
167.968
168.174
168.379
168.585
168.79
168.996
169.202
169.407
169.613
169.818
170.024
170.23
170.435
170.641
170.846
171.052
171.257
171.463
171.668
171.874
172.079
172.285
172.49
172.696
172.901
173.107
173.312
173.518
173.723
173.929
174.134
174.34
174.545
174.751
174.956
175.162
175.367
175.573
175.778
175.984
176.189
176.394
176.6
176.805
177.011
177.216
177.421
177.627
177.832
178.038
178.243
178.448
178.654
178.859
179.065
179.27
179.475
179.681
179.886
180.091
180.297
180.502
180.707
180.913
181.118
181.323
181.529
181.734
181.939
182.145
182.35
182.555
182.761
182.966
183.171
183.376
183.582
183.787
183.992
184.197
184.403
184.608
184.813
185.018
185.224
185.429
185.634
185.839
186.044
186.25
186.455
186.66
186.865
187.07
187.276
187.481
187.686
187.891
188.096
188.302
188.507
188.712
188.917
189.122
189.327
189.532
189.737
189.943
190.148
190.353
190.558
190.763
190.968
191.173
191.378
191.583
191.788
191.994
192.199
192.404
192.609
192.814
193.019
193.224
193.429
193.634
193.839
194.044
194.249
194.454
194.659
194.864
195.069
195.274
195.479
195.684
195.889
196.094
196.299
196.504
196.709
196.914
197.119
197.324
197.529
197.734
197.938
198.143
198.348
198.553
198.758
198.963
199.168
199.373
199.578
199.783
199.987
200.192
200.397
200.602
200.807
201.012
201.217
201.421
201.626
201.831
202.036
202.241
202.445
202.65
202.855
203.06
203.265
203.469
203.674
203.879
204.084
204.289
204.493
204.698
204.903
205.108
205.312
205.517
205.722
205.926
206.131
206.336
206.541
206.745
206.95
207.155
207.359
207.564
207.769
207.973
208.178
208.383
208.587
208.792
208.997
209.201
209.406
209.611
209.815
210.02
210.224
210.429
210.634
210.838
211.043
211.247
211.452
211.656
211.861
212.066
212.27
212.475
212.679
212.884
213.088
213.293
213.497
213.702
213.906
214.111
214.315
214.52
214.724
214.929
215.133
215.338
215.542
215.747
215.951
216.156
216.36
216.564
216.769
216.973
217.178
217.382
217.587
217.791
217.995
218.2
218.404
218.608
218.813
219.017
219.222
219.426
219.63
219.835
220.039
220.243
220.448
220.652
220.856
221.061
221.265
221.469
221.673
221.878
222.082
222.286
222.491
222.695
222.899
223.103
223.308
223.512
223.716
223.92
224.124
224.329
224.533
224.737
224.941
225.146
225.35
225.554
225.758
225.962
226.166
226.371
226.575
226.779
226.983
227.187
227.391
227.595
227.799
228.004
228.208
228.412
228.616
228.82
229.024
229.228
229.432
229.636
229.84
230.044
230.248
230.452
230.656
230.86
231.064
231.268
231.472
231.676
231.88
232.084
232.288
232.492
232.696
232.9
233.104
233.308
233.512
233.716
233.92
234.124
234.328
234.532
234.736
234.94
235.143
235.347
235.551
235.755
235.959
236.163
236.367
236.571
236.774
236.978
237.182
237.386
237.59
237.794
237.997
238.201
238.405
238.609
238.813
239.016
239.22
239.424
239.628
239.831
240.035
240.239
240.443
240.646
240.85
241.054
241.257
241.461
241.665
241.868
242.072
242.276
242.479
242.683
242.887
243.09
243.294
243.498
243.701
243.905
244.109
244.312
244.516
244.719
244.923
245.127
245.33
245.534
245.737
245.941
246.144
246.348
246.551
246.755
246.958
247.162
247.365
247.569
247.772
247.976
248.179
248.383
248.586
248.79
248.993
249.197
249.4
249.604
249.807
250.011
250.214
250.417
250.621
250.824
251.028
251.231
251.434
251.638
251.841
252.044
252.248
252.451
252.654
252.858
253.061
253.264
253.468
253.671
253.874
254.078
254.281
254.484
254.687
254.891
255.094
255.297
255.5
255.704
255.907
256.11
256.313
256.516
256.72
256.923
257.126
257.329
257.532
257.736
257.939
258.142
258.345
258.548
258.751
258.954
259.157
259.361
259.564
259.767
259.97
260.173
260.376
260.579
260.782
260.985
261.188
261.391
261.594
261.797
262
262.203
262.406
262.609
262.812
263.015
263.218
263.421
263.624
263.827
264.03
264.233
264.436
264.639
264.842
265.045
265.248
265.45
265.653
265.856
266.059
266.262
266.465
266.668
266.871
267.073
267.276
267.479
267.682
267.885
268.087
268.29
268.493
268.696
268.899
269.101
269.304
269.507
269.71
269.912
270.115
270.318
270.52
270.723
270.926
271.129
271.331
271.534
271.737
271.939
272.142
272.345
272.547
272.75
272.952
273.155
273.358
273.56
273.763
273.965
274.168
274.371
274.573
274.776
274.978
275.181
275.383
275.586
275.788
275.991
276.193
276.396
276.598
276.801
277.003
277.206
277.408
277.611
277.813
278.015
278.218
278.42
278.623
278.825
279.028
279.23
279.432
279.635
279.837
280.039
280.242
280.444
280.646
280.849
281.051
281.253
281.456
281.658
281.86
282.062
282.265
282.467
282.669
282.872
283.074
283.276
283.478
283.68
283.883
284.085
284.287
284.489
284.691
284.894
285.096
285.298
285.5
285.702
285.904
286.106
286.308
286.511
286.713
286.915
287.117
287.319
287.521
287.723
287.925
288.127
288.329
288.531
288.733
288.935
289.137
289.339
289.541
289.743
289.945
290.147
290.349
290.551
290.753
290.955
291.157
291.359
291.561
291.762
291.964
292.166
292.368
292.57
292.772
292.974
293.175
293.377
293.579
293.781
293.983
294.184
294.386
294.588
294.79
294.992
295.193
295.395
295.597
295.798
296
296.202
296.404
296.605
296.807
297.009
297.21
297.412
297.614
297.815
298.017
298.219
298.42
298.622
298.823
299.025
299.227
299.428
299.63
299.831
300.033
300.234
300.436
300.637
300.839
301.04
301.242
301.443
301.645
301.846
302.048
302.249
302.451
302.652
302.854
303.055
303.256
303.458
303.659
303.861
304.062
304.263
304.465
304.666
304.867
305.069
305.27
305.471
305.673
305.874
306.075
306.276
306.478
306.679
306.88
307.081
307.283
307.484
307.685
307.886
308.087
308.289
308.49
308.691
308.892
309.093
309.294
309.496
309.697
309.898
310.099
310.3
310.501
310.702
310.903
311.104
311.305
311.506
311.707
311.908
312.109
312.31
312.511
312.712
312.913
313.114
313.315
313.516
313.717
313.918
314.119
314.32
314.521
314.722
314.923
315.124
315.324
315.525
315.726
315.927
316.128
316.329
316.529
316.73
316.931
317.132
317.333
317.533
317.734
317.935
318.136
318.336
318.537
318.738
318.938
319.139
319.34
319.54
319.741
319.942
320.142
320.343
320.544
320.744
320.945
321.145
321.346
321.546
321.747
321.948
322.148
322.349
322.549
322.75
322.95
323.151
323.351
323.552
323.752
323.953
324.153
324.353
324.554
324.754
324.955
325.155
325.355
325.556
325.756
325.956
326.157
326.357
326.557
326.758
326.958
327.158
327.359
327.559
327.759
327.959
328.16
328.36
328.56
328.76
328.96
329.161
329.361
329.561
329.761
329.961
330.161
330.362
330.562
330.762
330.962
331.162
331.362
331.562
331.762
331.962
332.162
332.362
332.562
332.762
332.962
333.162
333.362
333.562
333.762
333.962
334.162
334.362
334.562
334.762
334.962
335.161
335.361
335.561
335.761
335.961
336.161
336.36
336.56
336.76
336.96
337.159
337.359
337.559
337.759
337.958
338.158
338.358
338.558
338.757
338.957
339.156
339.356
339.556
339.755
339.955
340.155
340.354
340.554
340.753
340.953
341.152
341.352
341.551
341.751
341.95
342.15
342.349
342.549
342.748
342.948
343.147
343.347
343.546
343.745
343.945
344.144
344.343
344.543
344.742
344.941
345.141
345.34
345.539
345.739
345.938
346.137
346.336
346.535
346.735
346.934
347.133
347.332
347.531
347.731
347.93
348.129
348.328
348.527
348.726
348.925
349.124
349.323
349.522
349.721
349.92
350.119
350.318
350.517
350.716
350.915
351.114
351.313
351.512
351.711
351.91
352.109
352.307
352.506
352.705
352.904
353.103
353.302
353.5
353.699
353.898
354.097
354.295
354.494
354.693
354.891
355.09
355.289
355.487
355.686
355.885
356.083
356.282
356.481
356.679
356.878
357.076
357.275
357.473
357.672
357.87
358.069
358.267
358.466
358.664
358.862
359.061
359.259
359.458
359.656
359.854
360.053
360.251
360.449
360.648
360.846
361.044
361.242
361.441
361.639
361.837
362.035
362.233
362.432
362.63
362.828
363.026
363.224
363.422
363.62
363.818
364.016
364.214
364.412
364.61
364.808
365.006
365.204
365.402
365.6
365.798
365.996
366.194
366.392
366.589
366.787
366.985
367.183
367.381
367.578
367.776
367.974
368.172
368.369
368.567
368.765
368.962
369.16
369.357
369.555
369.753
369.95
370.148
370.345
370.543
370.74
370.938
371.135
371.333
371.53
371.728
371.925
372.122
372.32
372.517
372.714
372.912
373.109
373.306
373.503
373.701
373.898
374.095
374.292
374.49
374.687
374.884
375.081
375.278
375.475
375.672
375.869
376.066
376.263
376.46
376.657
376.854
377.051
377.248
377.445
377.642
377.839
378.035
378.232
378.429
378.626
378.823
379.019
379.216
379.413
379.609
379.806
380.003
380.199
380.396
380.593
380.789
380.986
381.182
381.379
381.575
381.772
381.968
382.165
382.361
382.557
382.754
382.95
383.146
383.343
383.539
383.735
383.931
384.128
384.324
384.52
384.716
384.912
385.108
385.304
385.501
385.697
385.893
386.089
386.285
386.48
386.676
386.872
387.068
387.264
387.46
387.656
387.851
388.047
388.243
388.439
388.634
388.83
389.026
389.221
389.417
389.613
389.808
390.004
390.199
390.395
390.59
390.785
390.981
391.176
391.372
391.567
391.762
391.958
392.153
392.348
392.543
392.738
392.933
393.129
393.324
393.519
393.714
393.909
394.104
394.299
394.494
394.689
394.883
395.078
395.273
395.468
395.663
395.857
396.052
396.247
396.441
396.636
396.831
397.025
397.22
397.414
397.609
397.803
397.997
398.192
398.386
398.58
398.775
398.969
399.163
399.357
399.551
399.745
399.939
400.133
400.327
400.521
400.715
400.909
401.103
401.297
401.491
401.684
401.878
402.072
402.265
402.459
402.652
402.846
403.039
403.233
403.426
403.619
403.813
404.006
404.199
404.392
404.585
404.778
404.971
405.164
405.357
405.55
405.743
405.936
406.128
406.321
406.514
406.706
406.899
407.091
407.284
407.476
407.668
407.86
408.052
408.245
408.437
408.629
408.82
409.013
409.204
409.396
409.588
409.779
409.97
410.162
410.353
410.544
410.736
410.927
411.118
411.309
411.5
411.691
411.881
412.072
412.262
412.453
412.643
412.833
413.023
413.213
413.403
413.593
413.783
413.972
414.162
414.351
414.54
414.73
414.918
415.107
415.296
415.484
415.673
415.861
416.049
416.237
416.425
416.612
416.8
416.988
417.174
417.361
417.548
417.735
417.921
418.107
418.293
418.478
418.664
418.849
419.034
419.218
419.402
419.587
419.771
419.955
420.137
420.32
420.503
420.685
420.867
421.048
421.23
421.41
421.59
421.77
421.949
422.129
422.307
422.485
422.662
422.839
423.016
423.191
423.367
423.541
423.715
423.888
424.06
424.233
424.403
424.574
424.743
424.912
425.08
425.247
425.413
425.578
425.742
425.905
426.067
426.228
426.388
426.547
426.705
426.861
427.016
427.17
427.323
427.474
427.624
427.773
427.919
428.065
428.21
428.352
428.494
428.633
428.771
428.907
429.042
429.176
429.307
429.437
429.565
429.691
429.816
429.938
430.059
430.179
430.296
430.412
430.525
430.638
430.748
430.857
430.964
431.068
431.172
431.273
431.373
431.472
431.568
431.663
431.756
431.847
431.938
432.026
432.113
432.198
432.282
432.365
432.445
432.525
432.604
432.681
432.757
432.831
432.905
432.977
433.048
433.119
433.188
433.256
433.323
433.389
433.455
433.52
433.583
433.647
433.709
433.771
433.832
433.892
433.952
434.011
434.07
434.128
434.186
434.243
434.3
434.357
434.413
434.468
434.524
434.579
434.634
434.688
434.742
434.797
434.85
434.904
434.958
435.01
435.064
435.117
435.169
435.222
435.274
435.326
435.379
435.431
435.483
435.535
435.586
435.638
435.69
435.742
435.793
435.844
435.896
435.947
435.998
436.05
436.101
436.152
436.203
436.254
436.305
436.356
436.407
436.458
436.509
436.56
436.61
436.661
436.712
436.762
436.813
436.864
436.914
436.965
437.016
437.066
437.117
437.167
437.218
437.268
437.318
437.369
437.419
437.469
437.52
437.57
437.62
437.67
437.721
437.771
437.821
437.871
437.921
437.971
438.021
438.071
438.121
438.171
438.221
438.271
438.321
438.371
438.421
438.471
438.52
438.57
438.62
438.67
438.72
438.769
438.819
438.869
438.918
438.968
439.017
439.067
439.117
439.166
439.215
439.265
439.314
439.364
439.413
439.463
439.512
439.561
439.611
439.66
439.709
439.758
439.808
439.857
439.906
439.955
440.004
440.053
440.102
440.151
440.2
440.249
440.298
440.347
440.396
440.445
440.494
440.543
440.592
440.641
440.689
440.738
440.787
440.836
440.884
440.933
440.982
441.03
441.079
441.127
441.176
441.224
441.273
441.321
441.37
441.418
441.467
441.515
441.564
441.612
441.66
441.708
441.757
441.805
441.853
441.901
441.95
441.998
442.046
442.094
442.142
442.19
442.238
442.286
442.334
442.382
442.43
442.478
442.526
442.574
442.622
442.67
442.717
442.765
442.813
442.861
442.908
442.956
443.004
443.051
443.099
443.147
443.194
443.242
443.289
443.337
443.384
443.432
443.479
443.527
443.574
443.621
443.669
443.716
443.763
443.811
443.858
443.905
443.952
444
444.047
444.094
444.141
444.188
444.235
444.282
444.329
444.376
444.423
444.47
444.517
444.564
444.611
444.658
444.705
444.751
444.798
444.845
444.892
444.938
444.985
445.032
445.078
445.125
445.172
445.218
445.265
445.311
445.358
445.404
445.451
445.497
445.544
445.59
445.637
445.683
445.729
445.776
445.822
445.868
445.914
445.961
446.007
446.053
446.099
446.145
446.191
446.238
446.284
446.33
446.376
446.422
446.468
446.514
446.56
446.605
446.651
446.697
446.743
446.789
446.835
446.88
446.926
446.972
447.018
447.063
447.109
447.154
447.2
447.246
447.291
447.337
447.382
447.428
447.473
447.519
447.564
447.61
447.655
447.7
447.746
447.791
447.836
447.882
447.927
447.972
448.017
448.062
448.108
448.153
448.198
448.243
448.288
448.333
448.378
448.423
448.468
448.513
448.558
448.603
448.648
448.692
448.737
448.782
448.827
448.872
448.916
448.961
449.006
449.051
449.095
449.14
449.184
449.229
449.274
449.318
449.363
449.407
449.452
449.496
449.541
449.585
449.629
449.674
449.718
449.762
449.807
449.851
449.895
449.939
449.984
450.028
450.072
450.116
450.16
450.204
450.248
450.292
450.336
450.38
450.424
450.468
450.512
450.556
450.6
450.644
450.688
450.732
450.776
450.819
450.863
450.907
450.951
450.994
451.038
451.082
451.125
451.169
451.212
451.256
451.299
451.343
451.386
451.43
451.473
451.517
451.56
451.604
451.647
451.69
451.734
451.777
451.82
451.863
451.907
451.95
451.993
452.036
452.079
452.122
452.165
452.209
452.252
452.295
452.338
452.381
452.424
452.466
452.509
452.552
452.595
452.638
452.681
452.724
452.766
452.809
452.852
452.895
452.937
452.98
453.023
453.065
453.108
453.15
453.193
453.236
453.278
453.321
453.363
453.405
453.448
453.49
453.533
453.575
453.617
453.66
453.702
453.744
453.786
453.829
453.871
453.913
453.955
453.997
454.039
454.082
454.124
454.166
454.208
454.25
454.292
454.334
454.376
454.418
454.459
454.501
454.543
454.585
454.627
454.669
454.71
454.752
454.794
454.835
454.877
454.919
454.96
455.002
455.044
455.085
455.127
455.168
455.21
455.251
455.293
455.334
455.376
455.417
455.458
455.5
455.541
455.582
455.624
455.665
455.706
455.747
455.788
455.83
455.871
455.912
455.953
455.994
456.035
456.076
456.117
456.158
456.199
456.24
456.281
456.322
456.363
456.404
456.445
456.485
456.526
456.567
456.608
456.648
456.689
456.73
456.77
456.811
456.852
456.892
456.933
456.973
457.014
457.055
457.095
457.136
457.176
457.216
457.257
457.297
457.338
457.378
457.418
457.458
457.499
457.539
457.579
457.619
457.66
457.7
457.74
457.78
457.82
457.86
457.9
457.94
457.98
458.02
458.06
458.1
458.14
458.18
458.22
458.26
458.3
458.34
458.379
458.419
458.459
458.499
458.538
458.578
458.618
458.657
458.697
458.737
458.776
458.816
458.855
458.895
458.934
458.974
459.013
459.053
459.092
459.131
459.171
459.21
459.249
459.289
459.328
459.367
459.407
459.446
459.485
459.524
459.563
459.602
459.642
459.681
459.72
459.759
459.798
459.837
459.876
459.915
459.954
459.993
460.031
460.07
460.109
460.148
460.187
460.226
460.264
460.303
460.342
460.381
460.419
460.458
460.497
460.535
460.574
460.612
460.651
460.689
460.728
460.766
460.805
460.843
460.882
460.92
460.959
460.997
461.035
461.074
461.112
461.15
461.188
461.227
461.265
461.303
461.341
461.379
461.417
461.456
461.494
461.532
461.57
461.608
461.646
461.684
461.722
461.76
461.798
461.835
461.873
461.911
461.949
461.987
462.025
462.062
462.1
462.138
462.176
462.213
462.251
462.288
462.326
462.364
462.401
462.439
462.476
462.514
462.551
462.589
462.626
462.664
462.701
462.738
462.776
462.813
462.851
462.888
462.925
462.962
463
463.037
463.074
463.111
463.148
463.185
463.223
463.26
463.297
463.334
463.371
463.408
463.445
463.482
463.519
463.556
463.592
463.629
463.666
463.703
463.74
463.777
463.813
463.85
463.887
463.924
463.96
463.997
464.034
464.07
464.107
464.143
464.18
464.216
464.253
464.29
464.326
464.362
464.399
464.435
464.472
464.508
464.544
464.581
464.617
464.653
464.69
464.726
464.762
464.798
464.834
464.871
464.907
464.943
464.979
465.015
465.051
465.087
465.123
465.159
465.195
465.231
465.267
465.303
465.339
465.375
465.411
465.446
465.482
465.518
465.554
465.59
465.625
465.661
465.697
465.732
465.768
465.804
465.839
465.875
465.91
465.946
465.981
466.017
466.052
466.088
466.123
466.159
466.194
466.229
466.265
466.3
466.335
466.371
466.406
466.441
466.476
466.512
466.547
466.582
466.617
466.652
466.687
466.722
466.757
466.792
466.828
466.863
466.897
466.932
466.967
467.002
467.037
467.072
467.107
467.142
467.177
467.211
467.246
467.281
467.316
467.35
467.385
467.42
467.454
467.489
467.524
467.558
467.593
467.627
467.662
467.696
467.731
467.765
467.8
467.834
467.868
467.903
467.937
467.972
468.006
468.04
468.074
468.109
468.143
468.177
468.211
468.246
468.28
468.314
468.348
468.382
468.416
468.45
468.484
468.518
468.552
468.586
468.62
468.654
468.688
468.722
468.756
468.79
468.823
468.857
468.891
468.925
468.958
468.992
469.026
469.06
469.093
469.127
469.16
469.194
469.228
469.261
469.295
469.328
469.362
469.395
469.429
469.462
469.496
469.529
469.562
469.596
469.629
469.662
469.696
469.729
469.762
469.795
469.829
469.862
469.895
469.928
469.961
469.994
470.027
470.061
470.094
470.127
470.16
470.193
470.226
470.259
470.291
470.324
470.357
470.39
470.423
470.456
470.489
470.521
470.554
470.587
470.62
470.652
470.685
470.718
470.75
470.783
470.816
470.848
470.881
470.913
470.946
470.978
471.011
471.043
471.076
471.108
471.141
471.173
471.205
471.238
471.27
471.302
471.335
471.367
471.399
471.431
471.463
471.496
471.528
471.56
471.592
471.624
471.656
471.688
471.72
471.752
471.784
471.816
471.848
471.88
471.912
471.944
471.976
472.008
472.04
472.071
472.103
472.135
472.167
472.199
472.23
472.262
472.294
472.325
472.357
472.389
472.42
472.452
472.483
472.515
472.546
472.578
472.609
472.641
472.672
472.704
472.735
472.766
472.798
472.829
472.86
472.892
472.923
472.954
472.986
473.017
473.048
473.079
473.11
473.141
473.173
473.204
473.235
473.266
473.297
473.328
473.359
473.39
473.421
473.452
473.483
473.514
473.544
473.575
473.606
473.637
473.668
473.699
473.729
473.76
473.791
473.821
473.852
473.883
473.913
473.944
473.975
474.005
474.036
474.066
474.097
474.127
474.158
474.188
474.219
474.249
474.28
474.31
474.34
474.371
474.401
474.431
474.462
474.492
474.522
474.552
474.583
474.613
474.643
474.673
474.703
474.733
474.763
474.793
474.824
474.854
474.884
474.914
474.944
474.973
475.003
475.033
475.063
475.093
475.123
475.153
475.183
475.212
475.242
475.272
475.302
475.331
475.361
475.391
475.42
475.45
475.48
475.509
475.539
475.568
475.598
475.627
475.657
475.686
475.716
475.745
475.775
475.804
475.834
475.863
475.892
475.922
475.951
475.98
476.009
476.039
476.068
476.097
476.126
476.155
476.185
476.214
476.243
476.272
476.301
476.33
476.359
476.388
476.417
476.446
476.475
476.504
476.533
476.562
476.591
476.619
476.648
476.677
476.706
476.735
476.763
476.792
476.821
476.85
476.878
476.907
476.936
476.964
476.993
477.021
477.05
477.078
477.107
477.136
477.164
477.192
477.221
477.249
477.278
477.306
477.335
477.363
477.391
477.42
477.448
477.476
477.504
477.533
477.561
477.589
477.617
477.645
477.673
477.702
477.73
477.758
477.786
477.814
477.842
477.87
477.898
477.926
477.954
477.982
478.01
478.037
478.065
478.093
478.121
478.149
478.177
478.204
478.232
478.26
478.288
478.315
478.343
478.371
478.398
478.426
478.453
478.481
478.509
478.536
478.564
478.591
478.619
478.646
478.674
478.701
478.728
478.756
478.783
478.81
478.838
478.865
478.892
478.92
478.947
478.974
479.001
479.029
479.056
479.083
479.11
479.137
479.164
479.191
479.218
479.245
479.272
479.299
479.326
479.353
479.38
479.407
479.434
479.461
479.488
479.515
479.542
479.568
479.595
479.622
479.649
479.675
479.702
479.729
479.756
479.782
479.809
479.836
479.862
479.889
479.915
479.942
479.968
479.995
480.021
480.048
480.074
480.101
480.127
480.153
480.18
480.206
480.233
480.259
480.285
480.311
480.338
480.364
480.39
480.416
480.443
480.469
480.495
480.521
480.547
480.573
480.599
480.625
480.651
480.677
480.703
480.729
480.755
480.781
480.807
480.833
480.859
480.885
480.911
480.937
480.962
480.988
481.014
481.04
481.065
481.091
481.117
481.142
481.168
481.194
481.219
481.245
481.271
481.296
481.322
481.347
481.373
481.398
481.424
481.449
481.475
481.5
481.525
481.551
481.576
481.601
481.627
481.652
481.677
481.703
481.728
481.753
481.778
481.803
481.829
481.854
481.879
481.904
481.929
481.954
481.979
482.004
482.029
482.054
482.079
482.104
482.129
482.154
482.179
482.204
482.229
482.254
482.278
482.303
482.328
482.353
482.378
482.402
482.427
482.452
482.476
482.501
482.526
482.55
482.575
482.6
482.624
482.649
482.673
482.698
482.722
482.747
482.771
482.796
482.82
482.844
482.869
482.893
482.917
482.942
482.966
482.99
483.015
483.039
483.063
483.087
483.112
483.136
483.16
483.184
483.208
483.232
483.256
483.28
483.305
483.329
483.353
483.377
483.401
483.425
483.448
483.472
483.496
483.52
483.544
483.568
483.592
483.616
483.639
483.663
483.687
483.711
483.734
483.758
483.782
483.805
483.829
483.853
483.876
483.9
483.923
483.947
483.97
483.994
484.017
484.041
484.064
484.088
484.111
484.135
484.158
484.181
484.205
484.228
484.251
484.275
484.298
484.321
484.345
484.368
484.391
484.414
484.437
484.46
484.484
484.507
484.53
484.553
484.576
484.599
484.622
484.645
484.668
484.691
484.714
484.737
484.76
484.783
484.805
484.828
484.851
484.874
484.897
484.92
484.942
484.965
484.988
485.011
485.033
485.056
485.079
485.101
485.124
485.146
485.169
485.192
485.214
485.237
485.259
485.282
485.304
485.327
485.349
485.371
485.394
485.416
485.439
485.461
485.483
485.506
485.528
485.55
485.572
485.595
485.617
485.639
485.661
485.683
485.705
485.728
485.75
485.772
485.794
485.816
485.838
485.86
485.882
485.904
485.926
485.948
485.97
485.992
486.014
486.036
486.057
486.079
486.101
486.123
486.145
486.166
486.188
486.21
486.232
486.253
486.275
486.297
486.318
486.34
486.361
486.383
486.405
486.426
486.448
486.469
486.491
486.512
486.534
486.555
486.577
486.598
486.619
486.641
486.662
486.683
486.705
486.726
486.747
486.769
486.79
486.811
486.832
486.853
486.875
486.896
486.917
486.938
486.959
486.98
487.001
487.022
487.043
487.064
487.085
487.106
487.127
487.148
487.169
487.19
487.211
487.232
487.253
487.273
487.294
487.315
487.336
487.357
487.377
487.398
487.419
487.439
487.46
487.481
487.501
487.522
487.543
487.563
487.584
487.604
487.625
487.645
487.666
487.686
487.707
487.727
487.748
487.768
487.788
487.809
487.829
487.85
487.87
487.89
487.91
487.931
487.951
487.971
487.991
488.012
488.032
488.052
488.072
488.092
488.112
488.132
488.152
488.172
488.192
488.213
488.232
488.252
488.272
488.292
488.312
488.332
488.352
488.372
488.392
488.412
488.431
488.451
488.471
488.491
488.511
488.53
488.55
488.57
488.589
488.609
488.629
488.648
488.668