/*--------------------------------*- C++ -*----------------------------------*\
  =========                 |
  \\      /  F ield         | OpenFOAM: The Open Source CFD Toolbox
   \\    /   O peration     | Website:  https://openfoam.org
    \\  /    A nd           | Version:  9
     \\/     M anipulation  |
\*---------------------------------------------------------------------------*/
FoamFile
{
    format      ascii;
    class       volScalarField;
    location    "0.018";
    object      rho;
}
// * * * * * * * * * * * * * * * * * * * * * * * * * * * * * * * * * * * * * //

dimensions      [1 -3 0 0 0 0 0];

internalField   nonuniform List<scalar> 
10000
(
0.623062
0.623045
0.62302
0.622992
0.622965
0.622945
0.622932
0.622923
0.622918
0.622914
0.622911
0.622907
0.622905
0.622902
0.6229
0.622897
0.622894
0.622891
0.622889
0.622886
0.622883
0.622881
0.622878
0.622875
0.622872
0.62287
0.622867
0.622864
0.622861
0.622858
0.622856
0.622853
0.62285
0.622847
0.622845
0.622842
0.622839
0.622836
0.622833
0.62283
0.622828
0.622825
0.622822
0.622819
0.622816
0.622813
0.622811
0.622808
0.622805
0.622802
0.622799
0.622796
0.622793
0.62279
0.622787
0.622785
0.622782
0.622779
0.622776
0.622773
0.62277
0.622767
0.622764
0.622761
0.622758
0.622755
0.622752
0.622749
0.622746
0.622743
0.62274
0.622737
0.622734
0.622731
0.622728
0.622725
0.622722
0.622719
0.622716
0.622713
0.62271
0.622707
0.622704
0.622701
0.622698
0.622695
0.622692
0.622689
0.622686
0.622683
0.62268
0.622677
0.622674
0.622671
0.622667
0.622664
0.622661
0.622658
0.622655
0.622652
0.622649
0.622646
0.622642
0.622639
0.622636
0.622633
0.62263
0.622627
0.622624
0.62262
0.622617
0.622614
0.622611
0.622608
0.622604
0.622601
0.622598
0.622595
0.622592
0.622588
0.622585
0.622582
0.622579
0.622575
0.622572
0.622569
0.622566
0.622562
0.622559
0.622556
0.622553
0.622549
0.622546
0.622543
0.622539
0.622536
0.622533
0.62253
0.622526
0.622523
0.62252
0.622516
0.622513
0.62251
0.622506
0.622503
0.6225
0.622496
0.622493
0.622489
0.622486
0.622483
0.622479
0.622476
0.622473
0.622469
0.622466
0.622462
0.622459
0.622455
0.622452
0.622449
0.622445
0.622442
0.622438
0.622435
0.622431
0.622428
0.622424
0.622421
0.622418
0.622414
0.622411
0.622407
0.622404
0.6224
0.622397
0.622393
0.62239
0.622386
0.622383
0.622379
0.622375
0.622372
0.622368
0.622365
0.622361
0.622358
0.622354
0.622351
0.622347
0.622343
0.62234
0.622336
0.622333
0.622329
0.622325
0.622322
0.622318
0.622315
0.622311
0.622307
0.622304
0.6223
0.622296
0.622293
0.622289
0.622285
0.622282
0.622278
0.622274
0.622271
0.622267
0.622263
0.62226
0.622256
0.622252
0.622249
0.622245
0.622241
0.622237
0.622234
0.62223
0.622226
0.622223
0.622219
0.622215
0.622211
0.622207
0.622204
0.6222
0.622196
0.622192
0.622189
0.622185
0.622181
0.622177
0.622173
0.62217
0.622166
0.622162
0.622158
0.622154
0.62215
0.622147
0.622143
0.622139
0.622135
0.622131
0.622127
0.622123
0.62212
0.622116
0.622112
0.622108
0.622104
0.6221
0.622096
0.622092
0.622088
0.622084
0.62208
0.622076
0.622073
0.622069
0.622065
0.622061
0.622057
0.622053
0.622049
0.622045
0.622041
0.622037
0.622033
0.622029
0.622025
0.622021
0.622017
0.622013
0.622009
0.622005
0.622001
0.621997
0.621993
0.621989
0.621985
0.621981
0.621976
0.621972
0.621968
0.621964
0.62196
0.621956
0.621952
0.621948
0.621944
0.62194
0.621936
0.621931
0.621927
0.621923
0.621919
0.621915
0.621911
0.621907
0.621902
0.621898
0.621894
0.62189
0.621886
0.621882
0.621877
0.621873
0.621869
0.621865
0.621861
0.621856
0.621852
0.621848
0.621844
0.62184
0.621835
0.621831
0.621827
0.621823
0.621818
0.621814
0.62181
0.621806
0.621801
0.621797
0.621793
0.621788
0.621784
0.62178
0.621776
0.621771
0.621767
0.621763
0.621758
0.621754
0.62175
0.621745
0.621741
0.621737
0.621732
0.621728
0.621723
0.621719
0.621715
0.62171
0.621706
0.621702
0.621697
0.621693
0.621688
0.621684
0.62168
0.621675
0.621671
0.621666
0.621662
0.621657
0.621653
0.621648
0.621644
0.62164
0.621635
0.621631
0.621626
0.621622
0.621617
0.621613
0.621608
0.621604
0.621599
0.621595
0.62159
0.621586
0.621581
0.621577
0.621572
0.621567
0.621563
0.621558
0.621554
0.621549
0.621545
0.62154
0.621535
0.621531
0.621526
0.621522
0.621517
0.621513
0.621508
0.621503
0.621499
0.621494
0.621489
0.621485
0.62148
0.621475
0.621471
0.621466
0.621462
0.621457
0.621452
0.621448
0.621443
0.621438
0.621433
0.621429
0.621424
0.621419
0.621415
0.62141
0.621405
0.6214
0.621396
0.621391
0.621386
0.621381
0.621377
0.621372
0.621367
0.621362
0.621358
0.621353
0.621348
0.621343
0.621339
0.621334
0.621329
0.621324
0.621319
0.621314
0.62131
0.621305
0.6213
0.621295
0.62129
0.621285
0.621281
0.621276
0.621271
0.621266
0.621261
0.621256
0.621251
0.621246
0.621242
0.621237
0.621232
0.621227
0.621222
0.621217
0.621212
0.621207
0.621202
0.621197
0.621192
0.621187
0.621182
0.621177
0.621172
0.621167
0.621162
0.621158
0.621153
0.621148
0.621143
0.621138
0.621133
0.621127
0.621122
0.621117
0.621112
0.621107
0.621102
0.621097
0.621092
0.621087
0.621082
0.621077
0.621072
0.621067
0.621062
0.621057
0.621052
0.621047
0.621041
0.621036
0.621031
0.621026
0.621021
0.621016
0.621011
0.621006
0.621
0.620995
0.62099
0.620985
0.62098
0.620975
0.620969
0.620964
0.620959
0.620954
0.620949
0.620944
0.620938
0.620933
0.620928
0.620923
0.620917
0.620912
0.620907
0.620902
0.620896
0.620891
0.620886
0.620881
0.620875
0.62087
0.620865
0.62086
0.620854
0.620849
0.620844
0.620838
0.620833
0.620828
0.620822
0.620817
0.620812
0.620806
0.620801
0.620796
0.62079
0.620785
0.62078
0.620774
0.620769
0.620764
0.620758
0.620753
0.620747
0.620742
0.620737
0.620731
0.620726
0.62072
0.620715
0.62071
0.620704
0.620699
0.620693
0.620688
0.620682
0.620677
0.620671
0.620666
0.62066
0.620655
0.620649
0.620644
0.620638
0.620633
0.620627
0.620622
0.620616
0.620611
0.620605
0.6206
0.620594
0.620589
0.620583
0.620578
0.620572
0.620567
0.620561
0.620555
0.62055
0.620544
0.620539
0.620533
0.620527
0.620522
0.620516
0.620511
0.620505
0.620499
0.620494
0.620488
0.620482
0.620477
0.620471
0.620466
0.62046
0.620454
0.620449
0.620443
0.620437
0.620431
0.620426
0.62042
0.620414
0.620409
0.620403
0.620397
0.620392
0.620386
0.62038
0.620374
0.620369
0.620363
0.620357
0.620351
0.620346
0.62034
0.620334
0.620328
0.620322
0.620317
0.620311
0.620305
0.620299
0.620293
0.620288
0.620282
0.620276
0.62027
0.620264
0.620258
0.620253
0.620247
0.620241
0.620235
0.620229
0.620223
0.620217
0.620211
0.620206
0.6202
0.620194
0.620188
0.620182
0.620176
0.62017
0.620164
0.620158
0.620152
0.620146
0.62014
0.620134
0.620128
0.620122
0.620117
0.620111
0.620105
0.620099
0.620093
0.620087
0.620081
0.620075
0.620069
0.620063
0.620057
0.62005
0.620044
0.620038
0.620032
0.620026
0.62002
0.620014
0.620008
0.620002
0.619996
0.61999
0.619984
0.619978
0.619972
0.619966
0.619959
0.619953
0.619947
0.619941
0.619935
0.619929
0.619923
0.619917
0.61991
0.619904
0.619898
0.619892
0.619886
0.61988
0.619873
0.619867
0.619861
0.619855
0.619849
0.619842
0.619836
0.61983
0.619824
0.619818
0.619811
0.619805
0.619799
0.619793
0.619786
0.61978
0.619774
0.619767
0.619761
0.619755
0.619749
0.619742
0.619736
0.61973
0.619723
0.619717
0.619711
0.619704
0.619698
0.619692
0.619685
0.619679
0.619673
0.619666
0.61966
0.619654
0.619647
0.619641
0.619635
0.619628
0.619622
0.619615
0.619609
0.619603
0.619596
0.61959
0.619583
0.619577
0.61957
0.619564
0.619558
0.619551
0.619545
0.619538
0.619532
0.619525
0.619519
0.619512
0.619506
0.619499
0.619493
0.619486
0.61948
0.619473
0.619467
0.61946
0.619454
0.619447
0.619441
0.619434
0.619428
0.619421
0.619414
0.619408
0.619401
0.619395
0.619388
0.619382
0.619375
0.619368
0.619362
0.619355
0.619349
0.619342
0.619335
0.619329
0.619322
0.619315
0.619309
0.619302
0.619295
0.619289
0.619282
0.619275
0.619269
0.619262
0.619255
0.619249
0.619242
0.619235
0.619229
0.619222
0.619215
0.619208
0.619202
0.619195
0.619188
0.619181
0.619175
0.619168
0.619161
0.619154
0.619148
0.619141
0.619134
0.619127
0.61912
0.619114
0.619107
0.6191
0.619093
0.619086
0.61908
0.619073
0.619066
0.619059
0.619052
0.619045
0.619039
0.619032
0.619025
0.619018
0.619011
0.619004
0.618997
0.61899
0.618983
0.618977
0.61897
0.618963
0.618956
0.618949
0.618942
0.618935
0.618928
0.618921
0.618914
0.618907
0.6189
0.618893
0.618886
0.618879
0.618872
0.618865
0.618858
0.618851
0.618844
0.618837
0.61883
0.618823
0.618816
0.618809
0.618802
0.618795
0.618788
0.618781
0.618774
0.618767
0.61876
0.618753
0.618746
0.618739
0.618731
0.618724
0.618717
0.61871
0.618703
0.618696
0.618689
0.618682
0.618674
0.618667
0.61866
0.618653
0.618646
0.618639
0.618632
0.618624
0.618617
0.61861
0.618603
0.618596
0.618588
0.618581
0.618574
0.618567
0.61856
0.618552
0.618545
0.618538
0.618531
0.618523
0.618516
0.618509
0.618502
0.618494
0.618487
0.61848
0.618472
0.618465
0.618458
0.618451
0.618443
0.618436
0.618429
0.618421
0.618414
0.618407
0.618399
0.618392
0.618385
0.618377
0.61837
0.618362
0.618355
0.618348
0.61834
0.618333
0.618326
0.618318
0.618311
0.618303
0.618296
0.618288
0.618281
0.618274
0.618266
0.618259
0.618251
0.618244
0.618236
0.618229
0.618221
0.618214
0.618206
0.618199
0.618192
0.618184
0.618176
0.618169
0.618161
0.618154
0.618146
0.618139
0.618131
0.618124
0.618116
0.618109
0.618101
0.618094
0.618086
0.618078
0.618071
0.618063
0.618056
0.618048
0.618041
0.618033
0.618025
0.618018
0.61801
0.618002
0.617995
0.617987
0.617979
0.617972
0.617964
0.617957
0.617949
0.617941
0.617934
0.617926
0.617918
0.61791
0.617903
0.617895
0.617887
0.61788
0.617872
0.617864
0.617856
0.617849
0.617841
0.617833
0.617825
0.617818
0.61781
0.617802
0.617794
0.617787
0.617779
0.617771
0.617763
0.617755
0.617748
0.61774
0.617732
0.617724
0.617716
0.617709
0.617701
0.617693
0.617685
0.617677
0.617669
0.617661
0.617654
0.617646
0.617638
0.61763
0.617622
0.617614
0.617606
0.617598
0.61759
0.617582
0.617574
0.617567
0.617559
0.617551
0.617543
0.617535
0.617527
0.617519
0.617511
0.617503
0.617495
0.617487
0.617479
0.617471
0.617463
0.617455
0.617447
0.617439
0.617431
0.617423
0.617415
0.617407
0.617399
0.617391
0.617383
0.617375
0.617366
0.617358
0.61735
0.617342
0.617334
0.617326
0.617318
0.61731
0.617302
0.617294
0.617285
0.617277
0.617269
0.617261
0.617253
0.617245
0.617237
0.617228
0.61722
0.617212
0.617204
0.617196
0.617188
0.617179
0.617171
0.617163
0.617155
0.617146
0.617138
0.61713
0.617122
0.617114
0.617105
0.617097
0.617089
0.617081
0.617072
0.617064
0.617056
0.617047
0.617039
0.617031
0.617023
0.617014
0.617006
0.616998
0.616989
0.616981
0.616973
0.616964
0.616956
0.616948
0.616939
0.616931
0.616923
0.616914
0.616906
0.616897
0.616889
0.616881
0.616872
0.616864
0.616855
0.616847
0.616839
0.61683
0.616822
0.616813
0.616805
0.616796
0.616788
0.616779
0.616771
0.616763
0.616754
0.616746
0.616737
0.616729
0.61672
0.616712
0.616703
0.616695
0.616686
0.616677
0.616669
0.61666
0.616652
0.616643
0.616635
0.616626
0.616618
0.616609
0.616601
0.616592
0.616583
0.616575
0.616566
0.616558
0.616549
0.61654
0.616532
0.616523
0.616514
0.616506
0.616497
0.616489
0.61648
0.616471
0.616463
0.616454
0.616445
0.616436
0.616428
0.616419
0.61641
0.616402
0.616393
0.616384
0.616376
0.616367
0.616358
0.616349
0.616341
0.616332
0.616323
0.616314
0.616306
0.616297
0.616288
0.616279
0.61627
0.616262
0.616253
0.616244
0.616235
0.616226
0.616218
0.616209
0.6162
0.616191
0.616182
0.616173
0.616165
0.616156
0.616147
0.616138
0.616129
0.61612
0.616111
0.616102
0.616094
0.616085
0.616076
0.616067
0.616058
0.616049
0.61604
0.616031
0.616022
0.616013
0.616004
0.615995
0.615986
0.615977
0.615968
0.615959
0.61595
0.615941
0.615932
0.615923
0.615914
0.615905
0.615896
0.615887
0.615878
0.615869
0.61586
0.615851
0.615842
0.615833
0.615824
0.615815
0.615806
0.615797
0.615788
0.615779
0.615769
0.61576
0.615751
0.615742
0.615733
0.615724
0.615715
0.615706
0.615696
0.615687
0.615678
0.615669
0.61566
0.615651
0.615641
0.615632
0.615623
0.615614
0.615605
0.615595
0.615586
0.615577
0.615568
0.615558
0.615549
0.61554
0.615531
0.615522
0.615512
0.615503
0.615494
0.615484
0.615475
0.615466
0.615457
0.615447
0.615438
0.615429
0.615419
0.61541
0.615401
0.615391
0.615382
0.615373
0.615363
0.615354
0.615345
0.615335
0.615326
0.615316
0.615307
0.615298
0.615288
0.615279
0.615269
0.61526
0.615251
0.615241
0.615232
0.615222
0.615213
0.615203
0.615194
0.615185
0.615175
0.615166
0.615156
0.615147
0.615137
0.615128
0.615118
0.615109
0.615099
0.61509
0.61508
0.615071
0.615061
0.615052
0.615042
0.615032
0.615023
0.615013
0.615004
0.614994
0.614985
0.614975
0.614965
0.614956
0.614946
0.614937
0.614927
0.614917
0.614908
0.614898
0.614888
0.614879
0.614869
0.61486
0.61485
0.61484
0.614831
0.614821
0.614811
0.614802
0.614792
0.614782
0.614772
0.614763
0.614753
0.614743
0.614734
0.614724
0.614714
0.614704
0.614695
0.614685
0.614675
0.614665
0.614655
0.614646
0.614636
0.614626
0.614616
0.614607
0.614597
0.614587
0.614577
0.614567
0.614557
0.614548
0.614538
0.614528
0.614518
0.614508
0.614498
0.614488
0.614479
0.614469
0.614459
0.614449
0.614439
0.614429
0.614419
0.614409
0.614399
0.614389
0.614379
0.61437
0.61436
0.61435
0.61434
0.61433
0.61432
0.61431
0.6143
0.61429
0.61428
0.61427
0.61426
0.61425
0.61424
0.61423
0.61422
0.61421
0.6142
0.61419
0.614179
0.614169
0.614159
0.614149
0.614139
0.614129
0.614119
0.614109
0.614099
0.614089
0.614079
0.614068
0.614058
0.614048
0.614038
0.614028
0.614018
0.614008
0.613997
0.613987
0.613977
0.613967
0.613957
0.613947
0.613936
0.613926
0.613916
0.613906
0.613896
0.613885
0.613875
0.613865
0.613855
0.613844
0.613834
0.613824
0.613814
0.613803
0.613793
0.613783
0.613772
0.613762
0.613752
0.613742
0.613731
0.613721
0.613711
0.6137
0.61369
0.61368
0.613669
0.613659
0.613649
0.613638
0.613628
0.613617
0.613607
0.613597
0.613586
0.613576
0.613565
0.613555
0.613545
0.613534
0.613524
0.613513
0.613503
0.613492
0.613482
0.613471
0.613461
0.613451
0.61344
0.61343
0.613419
0.613409
0.613398
0.613388
0.613377
0.613367
0.613356
0.613345
0.613335
0.613324
0.613314
0.613303
0.613293
0.613282
0.613272
0.613261
0.61325
0.61324
0.613229
0.613219
0.613208
0.613197
0.613187
0.613176
0.613165
0.613155
0.613144
0.613133
0.613123
0.613112
0.613101
0.613091
0.61308
0.613069
0.613059
0.613048
0.613037
0.613027
0.613016
0.613005
0.612994
0.612984
0.612973
0.612962
0.612951
0.612941
0.61293
0.612919
0.612908
0.612897
0.612887
0.612876
0.612865
0.612854
0.612843
0.612833
0.612822
0.612811
0.6128
0.612789
0.612778
0.612767
0.612757
0.612746
0.612735
0.612724
0.612713
0.612702
0.612691
0.61268
0.612669
0.612658
0.612648
0.612637
0.612626
0.612615
0.612604
0.612593
0.612582
0.612571
0.61256
0.612549
0.612538
0.612527
0.612516
0.612505
0.612494
0.612483
0.612472
0.612461
0.61245
0.612439
0.612428
0.612416
0.612405
0.612394
0.612383
0.612372
0.612361
0.61235
0.612339
0.612328
0.612317
0.612305
0.612294
0.612283
0.612272
0.612261
0.61225
0.612239
0.612227
0.612216
0.612205
0.612194
0.612183
0.612171
0.61216
0.612149
0.612138
0.612126
0.612115
0.612104
0.612093
0.612082
0.61207
0.612059
0.612048
0.612036
0.612025
0.612014
0.612003
0.611991
0.61198
0.611969
0.611957
0.611946
0.611935
0.611923
0.611912
0.6119
0.611889
0.611878
0.611866
0.611855
0.611844
0.611832
0.611821
0.611809
0.611798
0.611786
0.611775
0.611764
0.611752
0.611741
0.611729
0.611718
0.611706
0.611695
0.611683
0.611672
0.61166
0.611649
0.611637
0.611626
0.611614
0.611603
0.611591
0.61158
0.611568
0.611556
0.611545
0.611533
0.611522
0.61151
0.611499
0.611487
0.611475
0.611464
0.611452
0.61144
0.611429
0.611417
0.611406
0.611394
0.611382
0.611371
0.611359
0.611347
0.611335
0.611324
0.611312
0.6113
0.611289
0.611277
0.611265
0.611253
0.611242
0.61123
0.611218
0.611206
0.611195
0.611183
0.611171
0.611159
0.611147
0.611136
0.611124
0.611112
0.6111
0.611088
0.611076
0.611065
0.611053
0.611041
0.611029
0.611017
0.611005
0.610993
0.610981
0.610969
0.610957
0.610946
0.610934
0.610922
0.61091
0.610898
0.610886
0.610874
0.610862
0.61085
0.610838
0.610826
0.610814
0.610802
0.61079
0.610778
0.610766
0.610754
0.610742
0.61073
0.610717
0.610705
0.610693
0.610681
0.610669
0.610657
0.610645
0.610633
0.610621
0.610608
0.610596
0.610584
0.610572
0.61056
0.610548
0.610535
0.610523
0.610511
0.610499
0.610487
0.610474
0.610462
0.61045
0.610438
0.610425
0.610413
0.610401
0.610389
0.610376
0.610364
0.610352
0.610339
0.610327
0.610315
0.610302
0.61029
0.610278
0.610265
0.610253
0.610241
0.610228
0.610216
0.610203
0.610191
0.610179
0.610166
0.610154
0.610141
0.610129
0.610116
0.610104
0.610091
0.610079
0.610066
0.610054
0.610041
0.610029
0.610016
0.610004
0.609991
0.609979
0.609966
0.609954
0.609941
0.609928
0.609916
0.609903
0.609891
0.609878
0.609865
0.609853
0.60984
0.609827
0.609815
0.609802
0.609789
0.609777
0.609764
0.609751
0.609738
0.609726
0.609713
0.6097
0.609688
0.609675
0.609662
0.609649
0.609636
0.609624
0.609611
0.609598
0.609585
0.609572
0.609559
0.609547
0.609534
0.609521
0.609508
0.609495
0.609482
0.609469
0.609456
0.609443
0.60943
0.609417
0.609404
0.609391
0.609378
0.609365
0.609352
0.609339
0.609326
0.609313
0.6093
0.609287
0.609274
0.609261
0.609248
0.609235
0.609222
0.609209
0.609196
0.609183
0.609169
0.609156
0.609143
0.60913
0.609117
0.609103
0.60909
0.609077
0.609064
0.609051
0.609037
0.609024
0.609011
0.608998
0.608984
0.608971
0.608958
0.608944
0.608931
0.608918
0.608904
0.608891
0.608878
0.608864
0.608851
0.608837
0.608824
0.60881
0.608797
0.608784
0.60877
0.608757
0.608743
0.60873
0.608716
0.608703
0.608689
0.608675
0.608662
0.608648
0.608635
0.608621
0.608608
0.608594
0.60858
0.608567
0.608553
0.608539
0.608526
0.608512
0.608498
0.608485
0.608471
0.608457
0.608443
0.60843
0.608416
0.608402
0.608388
0.608374
0.608361
0.608347
0.608333
0.608319
0.608305
0.608291
0.608277
0.608263
0.60825
0.608235
0.608222
0.608208
0.608194
0.60818
0.608166
0.608151
0.608138
0.608123
0.60811
0.608095
0.608082
0.608067
0.608053
0.608038
0.608025
0.60801
0.607997
0.607981
0.607969
0.607953
0.60794
0.607924
0.607912
0.607896
0.607883
0.607867
0.607854
0.607838
0.607826
0.607809
0.607797
0.607781
0.607768
0.607752
0.607739
0.607723
0.60771
0.607694
0.607681
0.607665
0.607652
0.607635
0.607623
0.607606
0.607593
0.607578
0.607563
0.607549
0.607532
0.60752
0.607503
0.60749
0.607474
0.60746
0.607444
0.607431
0.607414
0.6074
0.607385
0.60737
0.607356
0.607339
0.607326
0.607309
0.607295
0.607279
0.607265
0.607248
0.607235
0.607219
0.607203
0.607189
0.607172
0.607159
0.607142
0.607128
0.607111
0.607097
0.60708
0.607065
0.60705
0.607033
0.60702
0.607002
0.606988
0.606971
0.606956
0.606939
0.606924
0.606909
0.606891
0.606877
0.606859
0.606845
0.606828
0.606812
0.606796
0.606779
0.606765
0.606746
0.606731
0.606714
0.606698
0.606681
0.606665
0.606649
0.60663
0.606616
0.606598
0.606582
0.606564
0.606547
0.606531
0.606512
0.606497
0.606478
0.606462
0.606444
0.606426
0.60641
0.60639
0.606375
0.606356
0.606339
0.60632
0.606302
0.606285
0.606264
0.606249
0.606228
0.606211
0.606192
0.606172
0.606155
0.606134
0.606116
0.606096
0.606077
0.606058
0.606036
0.606019
0.605996
0.605978
0.605957
0.605935
0.605917
0.605893
0.605874
0.605851
0.60583
0.605809
0.605785
0.605765
0.60574
0.605719
0.605695
0.605671
0.605649
0.605622
0.605601
0.605574
0.60555
0.605525
0.605497
0.605474
0.605445
0.60542
0.605392
0.605363
0.605337
0.605306
0.605279
0.605248
0.605218
0.605189
0.605155
0.605126
0.605092
0.605059
0.605027
0.604991
0.604958
0.604921
0.604886
0.60485
0.604811
0.604775
0.604734
0.604695
0.604655
0.604613
0.604573
0.604529
0.604486
0.604442
0.604396
0.604352
0.604304
0.604258
0.604209
0.604159
0.604111
0.604058
0.604008
0.603955
0.603901
0.603848
0.603791
0.603737
0.60368
0.603621
0.603564
0.603504
0.603445
0.603384
0.603321
0.60326
0.603196
0.603133
0.603068
0.603002
0.602937
0.602869
0.602802
0.602734
0.602664
0.602596
0.602525
0.602455
0.602384
0.602311
0.60224
0.602167
0.602094
0.60202
0.601945
0.601872
0.601796
0.60172
0.601645
0.601567
0.601492
0.601414
0.601337
0.60126
0.601181
0.601104
0.601025
0.600946
0.600868
0.600788
0.600709
0.60063
0.600549
0.600471
0.60039
0.60031
0.60023
0.600149
0.600069
0.599988
0.599907
0.599827
0.599745
0.599665
0.599584
0.599502
0.599422
0.59934
0.599259
0.599178
0.599096
0.599015
0.598934
0.598852
0.598771
0.598689
0.598608
0.598526
0.598444
0.598363
0.598281
0.5982
0.598119
0.598036
0.597955
0.597873
0.597791
0.597711
0.597628
0.597547
0.597465
0.597383
0.597302
0.59722
0.597139
0.597058
0.596975
0.596894
0.596813
0.59673
0.59665
0.596567
0.596486
0.596405
0.596323
0.596242
0.59616
0.596078
0.595997
0.595915
0.595834
0.595753
0.595671
0.59559
0.595508
0.595426
0.595345
0.595263
0.595182
0.595101
0.595019
0.594938
0.594857
0.594775
0.594694
0.594612
0.594531
0.59445
0.594368
0.594287
0.594206
0.594124
0.594043
0.593962
0.59388
0.5938
0.593718
0.593637
0.593556
0.593474
0.593393
0.593312
0.59323
0.59315
0.593068
0.592987
0.592906
0.592824
0.592743
0.592662
0.592581
0.5925
0.592419
0.592338
0.592257
0.592175
0.592094
0.592013
0.591932
0.591851
0.59177
0.591689
0.591608
0.591527
0.591446
0.591365
0.591284
0.591203
0.591122
0.591041
0.59096
0.590879
0.590798
0.590717
0.590636
0.590555
0.590475
0.590393
0.590313
0.590232
0.590151
0.59007
0.589989
0.589908
0.589828
0.589746
0.589666
0.589585
0.589504
0.589423
0.589343
0.589261
0.589181
0.5891
0.589019
0.588939
0.588858
0.588777
0.588697
0.588616
0.588535
0.588454
0.588373
0.588293
0.588212
0.588131
0.588051
0.58797
0.58789
0.587809
0.587728
0.587648
0.587567
0.587487
0.587406
0.587326
0.587245
0.587164
0.587084
0.587003
0.586923
0.586842
0.586762
0.586681
0.586601
0.58652
0.58644
0.586359
0.586279
0.586199
0.586118
0.586038
0.585957
0.585877
0.585796
0.585716
0.585635
0.585555
0.585475
0.585394
0.585314
0.585234
0.585153
0.585073
0.584993
0.584912
0.584832
0.584752
0.584672
0.584592
0.584511
0.584431
0.584351
0.58427
0.58419
0.58411
0.58403
0.58395
0.583869
0.583789
0.583709
0.583629
0.583549
0.583469
0.583388
0.583308
0.583228
0.583148
0.583068
0.582988
0.582908
0.582828
0.582748
0.582668
0.582588
0.582508
0.582427
0.582348
0.582268
0.582187
0.582108
0.582028
0.581947
0.581868
0.581788
0.581708
0.581628
0.581548
0.581468
0.581388
0.581308
0.581228
0.581148
0.581068
0.580988
0.580909
0.580829
0.580749
0.580669
0.580589
0.580509
0.58043
0.58035
0.58027
0.58019
0.58011
0.580031
0.579951
0.579871
0.579791
0.579712
0.579632
0.579552
0.579473
0.579393
0.579313
0.579234
0.579154
0.579074
0.578995
0.578915
0.578835
0.578756
0.578676
0.578596
0.578517
0.578437
0.578358
0.578278
0.578198
0.578119
0.578039
0.57796
0.57788
0.577801
0.577721
0.577642
0.577562
0.577483
0.577403
0.577324
0.577244
0.577165
0.577086
0.577006
0.576927
0.576847
0.576768
0.576689
0.576609
0.57653
0.57645
0.576371
0.576292
0.576212
0.576133
0.576054
0.575974
0.575895
0.575816
0.575737
0.575657
0.575578
0.575499
0.575419
0.57534
0.575261
0.575182
0.575102
0.575023
0.574944
0.574865
0.574786
0.574706
0.574627
0.574548
0.574469
0.57439
0.574311
0.574232
0.574152
0.574073
0.573994
0.573915
0.573836
0.573757
0.573678
0.573599
0.57352
0.573441
0.573362
0.573283
0.573204
0.573125
0.573046
0.572967
0.572888
0.572809
0.57273
0.572651
0.572572
0.572493
0.572414
0.572335
0.572256
0.572178
0.572099
0.57202
0.571941
0.571862
0.571783
0.571704
0.571626
0.571547
0.571468
0.571389
0.57131
0.571231
0.571153
0.571074
0.570995
0.570916
0.570838
0.570759
0.57068
0.570601
0.570523
0.570444
0.570365
0.570287
0.570208
0.570129
0.570051
0.569972
0.569893
0.569815
0.569736
0.569657
0.569579
0.5695
0.569422
0.569343
0.569265
0.569186
0.569107
0.569029
0.56895
0.568872
0.568793
0.568715
0.568636
0.568558
0.568479
0.568401
0.568322
0.568244
0.568165
0.568087
0.568009
0.56793
0.567852
0.567773
0.567695
0.567617
0.567538
0.56746
0.567381
0.567303
0.567225
0.567146
0.567068
0.56699
0.566911
0.566833
0.566755
0.566677
0.566598
0.56652
0.566442
0.566363
0.566285
0.566207
0.566129
0.566051
0.565972
0.565894
0.565816
0.565738
0.56566
0.565581
0.565503
0.565425
0.565347
0.565269
0.565191
0.565113
0.565035
0.564956
0.564878
0.5648
0.564722
0.564644
0.564566
0.564488
0.56441
0.564332
0.564254
0.564176
0.564098
0.56402
0.563942
0.563864
0.563786
0.563708
0.56363
0.563552
0.563474
0.563396
0.563319
0.563241
0.563163
0.563085
0.563007
0.562929
0.562851
0.562773
0.562696
0.562618
0.56254
0.562462
0.562384
0.562307
0.562229
0.562151
0.562073
0.561995
0.561918
0.56184
0.561762
0.561684
0.561607
0.561529
0.561451
0.561374
0.561296
0.561218
0.561141
0.561063
0.560985
0.560908
0.56083
0.560752
0.560675
0.560597
0.56052
0.560442
0.560364
0.560287
0.560209
0.560132
0.560054
0.559977
0.559899
0.559822
0.559744
0.559667
0.559589
0.559512
0.559434
0.559357
0.559279
0.559202
0.559124
0.559047
0.558969
0.558892
0.558815
0.558737
0.55866
0.558582
0.558505
0.558428
0.55835
0.558273
0.558196
0.558118
0.558041
0.557964
0.557886
0.557809
0.557732
0.557654
0.557577
0.5575
0.557423
0.557345
0.557268
0.557191
0.557114
0.557037
0.556959
0.556882
0.556805
0.556728
0.556651
0.556573
0.556496
0.556419
0.556342
0.556265
0.556188
0.556111
0.556034
0.555957
0.555879
0.555802
0.555725
0.555648
0.555571
0.555494
0.555417
0.55534
0.555263
0.555186
0.555109
0.555032
0.554955
0.554878
0.554801
0.554724
0.554647
0.55457
0.554493
0.554417
0.55434
0.554263
0.554186
0.554109
0.554032
0.553955
0.553878
0.553802
0.553725
0.553648
0.553571
0.553494
0.553417
0.553341
0.553264
0.553187
0.55311
0.553034
0.552957
0.55288
0.552803
0.552727
0.55265
0.552573
0.552496
0.55242
0.552343
0.552266
0.55219
0.552113
0.552036
0.55196
0.551883
0.551807
0.55173
0.551653
0.551577
0.5515
0.551424
0.551347
0.55127
0.551194
0.551117
0.551041
0.550964
0.550888
0.550811
0.550735
0.550658
0.550582
0.550505
0.550429
0.550352
0.550276
0.550199
0.550123
0.550047
0.54997
0.549894
0.549817
0.549741
0.549665
0.549588
0.549512
0.549435
0.549359
0.549283
0.549206
0.54913
0.549054
0.548977
0.548901
0.548825
0.548749
0.548672
0.548596
0.54852
0.548444
0.548367
0.548291
0.548215
0.548139
0.548062
0.547986
0.54791
0.547834
0.547758
0.547682
0.547605
0.547529
0.547453
0.547377
0.547301
0.547225
0.547149
0.547073
0.546996
0.54692
0.546844
0.546768
0.546692
0.546616
0.54654
0.546464
0.546388
0.546312
0.546236
0.54616
0.546084
0.546008
0.545932
0.545856
0.54578
0.545704
0.545628
0.545552
0.545477
0.545401
0.545325
0.545249
0.545173
0.545097
0.545021
0.544945
0.54487
0.544794
0.544718
0.544642
0.544566
0.54449
0.544415
0.544339
0.544263
0.544187
0.544112
0.544036
0.54396
0.543884
0.543809
0.543733
0.543657
0.543582
0.543506
0.54343
0.543354
0.543279
0.543203
0.543127
0.543052
0.542976
0.542901
0.542825
0.542749
0.542674
0.542598
0.542523
0.542447
0.542371
0.542296
0.54222
0.542145
0.542069
0.541994
0.541918
0.541843
0.541767
0.541692
0.541616
0.541541
0.541465
0.54139
0.541314
0.541239
0.541164
0.541088
0.541013
0.540937
0.540862
0.540787
0.540711
0.540636
0.54056
0.540485
0.54041
0.540334
0.540259
0.540184
0.540108
0.540033
0.539958
0.539883
0.539807
0.539732
0.539657
0.539582
0.539506
0.539431
0.539356
0.539281
0.539205
0.53913
0.539055
0.53898
0.538905
0.53883
0.538754
0.538679
0.538604
0.538529
0.538454
0.538379
0.538304
0.538229
0.538153
0.538078
0.538003
0.537928
0.537853
0.537778
0.537703
0.537628
0.537553
0.537478
0.537403
0.537328
0.537253
0.537178
0.537103
0.537028
0.536953
0.536878
0.536803
0.536728
0.536653
0.536579
0.536504
0.536429
0.536354
0.536279
0.536204
0.536129
0.536054
0.53598
0.535905
0.53583
0.535755
0.53568
0.535605
0.535531
0.535456
0.535381
0.535306
0.535232
0.535157
0.535082
0.535007
0.534933
0.534858
0.534783
0.534709
0.534634
0.534559
0.534485
0.53441
0.534335
0.534261
0.534186
0.534111
0.534037
0.533962
0.533887
0.533813
0.533738
0.533664
0.533589
0.533515
0.53344
0.533365
0.533291
0.533216
0.533142
0.533067
0.532993
0.532918
0.532844
0.532769
0.532695
0.53262
0.532546
0.532472
0.532397
0.532323
0.532248
0.532174
0.532099
0.532025
0.531951
0.531876
0.531802
0.531728
0.531653
0.531579
0.531505
0.53143
0.531356
0.531282
0.531207
0.531133
0.531059
0.530984
0.53091
0.530836
0.530762
0.530687
0.530613
0.530539
0.530465
0.530391
0.530316
0.530242
0.530168
0.530094
0.53002
0.529945
0.529871
0.529797
0.529723
0.529649
0.529575
0.529501
0.529427
0.529352
0.529278
0.529204
0.52913
0.529056
0.528982
0.528908
0.528834
0.52876
0.528686
0.528612
0.528538
0.528464
0.52839
0.528316
0.528242
0.528168
0.528094
0.52802
0.527946
0.527872
0.527799
0.527725
0.527651
0.527577
0.527503
0.527429
0.527355
0.527281
0.527208
0.527134
0.52706
0.526986
0.526912
0.526838
0.526765
0.526691
0.526617
0.526543
0.52647
0.526396
0.526322
0.526248
0.526175
0.526101
0.526027
0.525953
0.52588
0.525806
0.525732
0.525659
0.525585
0.525511
0.525438
0.525364
0.52529
0.525217
0.525143
0.52507
0.524996
0.524922
0.524849
0.524775
0.524702
0.524628
0.524555
0.524481
0.524408
0.524334
0.524261
0.524187
0.524114
0.52404
0.523967
0.523893
0.52382
0.523746
0.523673
0.523599
0.523526
0.523453
0.523379
0.523306
0.523232
0.523159
0.523086
0.523012
0.522939
0.522865
0.522792
0.522719
0.522645
0.522572
0.522499
0.522426
0.522352
0.522279
0.522206
0.522132
0.522059
0.521986
0.521913
0.521839
0.521766
0.521693
0.52162
0.521547
0.521473
0.5214
0.521327
0.521254
0.521181
0.521108
0.521034
0.520961
0.520888
0.520815
0.520742
0.520669
0.520596
0.520523
0.52045
0.520377
0.520303
0.52023
0.520157
0.520084
0.520011
0.519938
0.519865
0.519792
0.519719
0.519646
0.519573
0.5195
0.519427
0.519354
0.519282
0.519209
0.519136
0.519063
0.51899
0.518917
0.518844
0.518771
0.518698
0.518625
0.518553
0.51848
0.518407
0.518334
0.518261
0.518188
0.518116
0.518043
0.51797
0.517897
0.517824
0.517752
0.517679
0.517606
0.517533
0.517461
0.517388
0.517315
0.517243
0.51717
0.517097
0.517025
0.516952
0.516879
0.516807
0.516734
0.516661
0.516589
0.516516
0.516443
0.516371
0.516298
0.516226
0.516153
0.51608
0.516008
0.515935
0.515863
0.51579
0.515718
0.515645
0.515573
0.5155
0.515428
0.515355
0.515283
0.51521
0.515138
0.515065
0.514993
0.51492
0.514848
0.514776
0.514703
0.514631
0.514558
0.514486
0.514414
0.514341
0.514269
0.514197
0.514124
0.514052
0.513979
0.513907
0.513835
0.513763
0.51369
0.513618
0.513546
0.513473
0.513401
0.513329
0.513257
0.513184
0.513112
0.51304
0.512968
0.512896