/*--------------------------------*- C++ -*----------------------------------*\
  =========                 |
  \\      /  F ield         | OpenFOAM: The Open Source CFD Toolbox
   \\    /   O peration     | Website:  https://openfoam.org
    \\  /    A nd           | Version:  9
     \\/     M anipulation  |
\*---------------------------------------------------------------------------*/
FoamFile
{
    format      ascii;
    class       volVectorField;
    location    "0.018";
    object      U_0;
}
// * * * * * * * * * * * * * * * * * * * * * * * * * * * * * * * * * * * * * //

dimensions      [0 1 -1 0 0 0 0];

internalField   nonuniform List<vector> 
10000
(
(1.77945 0 0)
(1.9154 0 0)
(1.989 0 0)
(2.06828 0 0)
(2.1527 0 0)
(2.23683 0 0)
(2.32011 0 0)
(2.40323 0 0)
(2.48646 0 0)
(2.56973 0 0)
(2.65298 0 0)
(2.73621 0 0)
(2.81943 0 0)
(2.90266 0 0)
(2.98589 0 0)
(3.06912 0 0)
(3.15235 0 0)
(3.23559 0 0)
(3.31882 0 0)
(3.40205 0 0)
(3.48529 0 0)
(3.56852 0 0)
(3.65176 0 0)
(3.73499 0 0)
(3.81823 0 0)
(3.90146 0 0)
(3.9847 0 0)
(4.06794 0 0)
(4.15118 0 0)
(4.23442 0 0)
(4.31766 0 0)
(4.4009 0 0)
(4.48414 0 0)
(4.56738 0 0)
(4.65062 0 0)
(4.73387 0 0)
(4.81711 0 0)
(4.90036 0 0)
(4.9836 0 0)
(5.06685 0 0)
(5.15009 0 0)
(5.23334 0 0)
(5.31659 0 0)
(5.39984 0 0)
(5.48308 0 0)
(5.56633 0 0)
(5.64958 0 0)
(5.73284 0 0)
(5.81609 0 0)
(5.89934 0 0)
(5.98259 0 0)
(6.06585 0 0)
(6.1491 0 0)
(6.23236 0 0)
(6.31561 0 0)
(6.39887 0 0)
(6.48212 0 0)
(6.56538 0 0)
(6.64864 0 0)
(6.7319 0 0)
(6.81516 0 0)
(6.89842 0 0)
(6.98168 0 0)
(7.06494 0 0)
(7.1482 0 0)
(7.23147 0 0)
(7.31473 0 0)
(7.39799 0 0)
(7.48126 0 0)
(7.56452 0 0)
(7.64779 0 0)
(7.73106 0 0)
(7.81433 0 0)
(7.89759 0 0)
(7.98086 0 0)
(8.06413 0 0)
(8.1474 0 0)
(8.23067 0 0)
(8.31394 0 0)
(8.39722 0 0)
(8.48049 0 0)
(8.56376 0 0)
(8.64704 0 0)
(8.73031 0 0)
(8.81359 0 0)
(8.89686 0 0)
(8.98014 0 0)
(9.06342 0 0)
(9.1467 0 0)
(9.22997 0 0)
(9.31325 0 0)
(9.39653 0 0)
(9.47981 0 0)
(9.5631 0 0)
(9.64638 0 0)
(9.72966 0 0)
(9.81294 0 0)
(9.89623 0 0)
(9.97951 0 0)
(10.0628 0 0)
(10.1461 0 0)
(10.2294 0 0)
(10.3127 0 0)
(10.3959 0 0)
(10.4792 0 0)
(10.5625 0 0)
(10.6458 0 0)
(10.7291 0 0)
(10.8124 0 0)
(10.8957 0 0)
(10.979 0 0)
(11.0623 0 0)
(11.1456 0 0)
(11.2289 0 0)
(11.3122 0 0)
(11.3955 0 0)
(11.4788 0 0)
(11.562 0 0)
(11.6453 0 0)
(11.7286 0 0)
(11.8119 0 0)
(11.8952 0 0)
(11.9785 0 0)
(12.0618 0 0)
(12.1451 0 0)
(12.2285 0 0)
(12.3118 0 0)
(12.3951 0 0)
(12.4784 0 0)
(12.5617 0 0)
(12.645 0 0)
(12.7283 0 0)
(12.8116 0 0)
(12.8949 0 0)
(12.9782 0 0)
(13.0615 0 0)
(13.1448 0 0)
(13.2281 0 0)
(13.3114 0 0)
(13.3948 0 0)
(13.4781 0 0)
(13.5614 0 0)
(13.6447 0 0)
(13.728 0 0)
(13.8113 0 0)
(13.8946 0 0)
(13.978 0 0)
(14.0613 0 0)
(14.1446 0 0)
(14.2279 0 0)
(14.3112 0 0)
(14.3946 0 0)
(14.4779 0 0)
(14.5612 0 0)
(14.6445 0 0)
(14.7278 0 0)
(14.8112 0 0)
(14.8945 0 0)
(14.9778 0 0)
(15.0611 0 0)
(15.1445 0 0)
(15.2278 0 0)
(15.3111 0 0)
(15.3944 0 0)
(15.4778 0 0)
(15.5611 0 0)
(15.6444 0 0)
(15.7278 0 0)
(15.8111 0 0)
(15.8944 0 0)
(15.9778 0 0)
(16.0611 0 0)
(16.1444 0 0)
(16.2278 0 0)
(16.3111 0 0)
(16.3944 0 0)
(16.4778 0 0)
(16.5611 0 0)
(16.6444 0 0)
(16.7278 0 0)
(16.8111 0 0)
(16.8945 0 0)
(16.9778 0 0)
(17.0611 0 0)
(17.1445 0 0)
(17.2278 0 0)
(17.3112 0 0)
(17.3945 0 0)
(17.4778 0 0)
(17.5612 0 0)
(17.6445 0 0)
(17.7279 0 0)
(17.8112 0 0)
(17.8946 0 0)
(17.9779 0 0)
(18.0613 0 0)
(18.1446 0 0)
(18.228 0 0)
(18.3113 0 0)
(18.3947 0 0)
(18.478 0 0)
(18.5614 0 0)
(18.6447 0 0)
(18.7281 0 0)
(18.8114 0 0)
(18.8948 0 0)
(18.9782 0 0)
(19.0615 0 0)
(19.1449 0 0)
(19.2282 0 0)
(19.3116 0 0)
(19.3949 0 0)
(19.4783 0 0)
(19.5617 0 0)
(19.645 0 0)
(19.7284 0 0)
(19.8118 0 0)
(19.8951 0 0)
(19.9785 0 0)
(20.0618 0 0)
(20.1452 0 0)
(20.2286 0 0)
(20.3119 0 0)
(20.3953 0 0)
(20.4787 0 0)
(20.562 0 0)
(20.6454 0 0)
(20.7288 0 0)
(20.8122 0 0)
(20.8955 0 0)
(20.9789 0 0)
(21.0623 0 0)
(21.1456 0 0)
(21.229 0 0)
(21.3124 0 0)
(21.3958 0 0)
(21.4791 0 0)
(21.5625 0 0)
(21.6459 0 0)
(21.7293 0 0)
(21.8127 0 0)
(21.896 0 0)
(21.9794 0 0)
(22.0628 0 0)
(22.1462 0 0)
(22.2296 0 0)
(22.3129 0 0)
(22.3963 0 0)
(22.4797 0 0)
(22.5631 0 0)
(22.6465 0 0)
(22.7299 0 0)
(22.8133 0 0)
(22.8966 0 0)
(22.98 0 0)
(23.0634 0 0)
(23.1468 0 0)
(23.2302 0 0)
(23.3136 0 0)
(23.397 0 0)
(23.4804 0 0)
(23.5638 0 0)
(23.6472 0 0)
(23.7305 0 0)
(23.8139 0 0)
(23.8973 0 0)
(23.9807 0 0)
(24.0641 0 0)
(24.1475 0 0)
(24.2309 0 0)
(24.3143 0 0)
(24.3977 0 0)
(24.4811 0 0)
(24.5645 0 0)
(24.6479 0 0)
(24.7313 0 0)
(24.8147 0 0)
(24.8981 0 0)
(24.9815 0 0)
(25.0649 0 0)
(25.1483 0 0)
(25.2317 0 0)
(25.3152 0 0)
(25.3986 0 0)
(25.482 0 0)
(25.5654 0 0)
(25.6488 0 0)
(25.7322 0 0)
(25.8156 0 0)
(25.899 0 0)
(25.9824 0 0)
(26.0658 0 0)
(26.1492 0 0)
(26.2327 0 0)
(26.3161 0 0)
(26.3995 0 0)
(26.4829 0 0)
(26.5663 0 0)
(26.6497 0 0)
(26.7332 0 0)
(26.8166 0 0)
(26.9 0 0)
(26.9834 0 0)
(27.0668 0 0)
(27.1503 0 0)
(27.2337 0 0)
(27.3171 0 0)
(27.4005 0 0)
(27.4839 0 0)
(27.5674 0 0)
(27.6508 0 0)
(27.7342 0 0)
(27.8176 0 0)
(27.9011 0 0)
(27.9845 0 0)
(28.0679 0 0)
(28.1514 0 0)
(28.2348 0 0)
(28.3182 0 0)
(28.4016 0 0)
(28.4851 0 0)
(28.5685 0 0)
(28.6519 0 0)
(28.7354 0 0)
(28.8188 0 0)
(28.9022 0 0)
(28.9857 0 0)
(29.0691 0 0)
(29.1525 0 0)
(29.236 0 0)
(29.3194 0 0)
(29.4029 0 0)
(29.4863 0 0)
(29.5697 0 0)
(29.6532 0 0)
(29.7366 0 0)
(29.8201 0 0)
(29.9035 0 0)
(29.9869 0 0)
(30.0704 0 0)
(30.1538 0 0)
(30.2373 0 0)
(30.3207 0 0)
(30.4042 0 0)
(30.4876 0 0)
(30.5711 0 0)
(30.6545 0 0)
(30.738 0 0)
(30.8214 0 0)
(30.9049 0 0)
(30.9883 0 0)
(31.0718 0 0)
(31.1552 0 0)
(31.2387 0 0)
(31.3221 0 0)
(31.4056 0 0)
(31.489 0 0)
(31.5725 0 0)
(31.6559 0 0)
(31.7394 0 0)
(31.8229 0 0)
(31.9063 0 0)
(31.9898 0 0)
(32.0732 0 0)
(32.1567 0 0)
(32.2402 0 0)
(32.3236 0 0)
(32.4071 0 0)
(32.4905 0 0)
(32.574 0 0)
(32.6575 0 0)
(32.7409 0 0)
(32.8244 0 0)
(32.9079 0 0)
(32.9913 0 0)
(33.0748 0 0)
(33.1583 0 0)
(33.2417 0 0)
(33.3252 0 0)
(33.4087 0 0)
(33.4921 0 0)
(33.5756 0 0)
(33.6591 0 0)
(33.7426 0 0)
(33.826 0 0)
(33.9095 0 0)
(33.993 0 0)
(34.0765 0 0)
(34.1599 0 0)
(34.2434 0 0)
(34.3269 0 0)
(34.4104 0 0)
(34.4938 0 0)
(34.5773 0 0)
(34.6608 0 0)
(34.7443 0 0)
(34.8278 0 0)
(34.9112 0 0)
(34.9947 0 0)
(35.0782 0 0)
(35.1617 0 0)
(35.2452 0 0)
(35.3287 0 0)
(35.4121 0 0)
(35.4956 0 0)
(35.5791 0 0)
(35.6626 0 0)
(35.7461 0 0)
(35.8296 0 0)
(35.9131 0 0)
(35.9966 0 0)
(36.0801 0 0)
(36.1635 0 0)
(36.247 0 0)
(36.3305 0 0)
(36.414 0 0)
(36.4975 0 0)
(36.581 0 0)
(36.6645 0 0)
(36.748 0 0)
(36.8315 0 0)
(36.915 0 0)
(36.9985 0 0)
(37.082 0 0)
(37.1655 0 0)
(37.249 0 0)
(37.3325 0 0)
(37.416 0 0)
(37.4995 0 0)
(37.583 0 0)
(37.6665 0 0)
(37.75 0 0)
(37.8335 0 0)
(37.917 0 0)
(38.0005 0 0)
(38.084 0 0)
(38.1675 0 0)
(38.2511 0 0)
(38.3346 0 0)
(38.4181 0 0)
(38.5016 0 0)
(38.5851 0 0)
(38.6686 0 0)
(38.7521 0 0)
(38.8356 0 0)
(38.9191 0 0)
(39.0027 0 0)
(39.0862 0 0)
(39.1697 0 0)
(39.2532 0 0)
(39.3367 0 0)
(39.4202 0 0)
(39.5038 0 0)
(39.5873 0 0)
(39.6708 0 0)
(39.7543 0 0)
(39.8378 0 0)
(39.9214 0 0)
(40.0049 0 0)
(40.0884 0 0)
(40.1719 0 0)
(40.2554 0 0)
(40.339 0 0)
(40.4225 0 0)
(40.506 0 0)
(40.5895 0 0)
(40.6731 0 0)
(40.7566 0 0)
(40.8401 0 0)
(40.9237 0 0)
(41.0072 0 0)
(41.0907 0 0)
(41.1743 0 0)
(41.2578 0 0)
(41.3413 0 0)
(41.4248 0 0)
(41.5084 0 0)
(41.5919 0 0)
(41.6755 0 0)
(41.759 0 0)
(41.8425 0 0)
(41.9261 0 0)
(42.0096 0 0)
(42.0931 0 0)
(42.1767 0 0)
(42.2602 0 0)
(42.3438 0 0)
(42.4273 0 0)
(42.5108 0 0)
(42.5944 0 0)
(42.6779 0 0)
(42.7615 0 0)
(42.845 0 0)
(42.9286 0 0)
(43.0121 0 0)
(43.0956 0 0)
(43.1792 0 0)
(43.2627 0 0)
(43.3463 0 0)
(43.4298 0 0)
(43.5134 0 0)
(43.5969 0 0)
(43.6805 0 0)
(43.764 0 0)
(43.8476 0 0)
(43.9311 0 0)
(44.0147 0 0)
(44.0983 0 0)
(44.1818 0 0)
(44.2654 0 0)
(44.3489 0 0)
(44.4325 0 0)
(44.516 0 0)
(44.5996 0 0)
(44.6832 0 0)
(44.7667 0 0)
(44.8503 0 0)
(44.9338 0 0)
(45.0174 0 0)
(45.101 0 0)
(45.1845 0 0)
(45.2681 0 0)
(45.3516 0 0)
(45.4352 0 0)
(45.5188 0 0)
(45.6023 0 0)
(45.6859 0 0)
(45.7695 0 0)
(45.853 0 0)
(45.9366 0 0)
(46.0202 0 0)
(46.1037 0 0)
(46.1873 0 0)
(46.2709 0 0)
(46.3545 0 0)
(46.438 0 0)
(46.5216 0 0)
(46.6052 0 0)
(46.6888 0 0)
(46.7723 0 0)
(46.8559 0 0)
(46.9395 0 0)
(47.0231 0 0)
(47.1066 0 0)
(47.1902 0 0)
(47.2738 0 0)
(47.3574 0 0)
(47.441 0 0)
(47.5245 0 0)
(47.6081 0 0)
(47.6917 0 0)
(47.7753 0 0)
(47.8589 0 0)
(47.9425 0 0)
(48.026 0 0)
(48.1096 0 0)
(48.1932 0 0)
(48.2768 0 0)
(48.3604 0 0)
(48.444 0 0)
(48.5276 0 0)
(48.6112 0 0)
(48.6947 0 0)
(48.7783 0 0)
(48.8619 0 0)
(48.9455 0 0)
(49.0291 0 0)
(49.1127 0 0)
(49.1963 0 0)
(49.2799 0 0)
(49.3635 0 0)
(49.4471 0 0)
(49.5307 0 0)
(49.6143 0 0)
(49.6979 0 0)
(49.7815 0 0)
(49.8651 0 0)
(49.9487 0 0)
(50.0323 0 0)
(50.1159 0 0)
(50.1995 0 0)
(50.2831 0 0)
(50.3667 0 0)
(50.4503 0 0)
(50.5339 0 0)
(50.6175 0 0)
(50.7011 0 0)
(50.7847 0 0)
(50.8683 0 0)
(50.9519 0 0)
(51.0355 0 0)
(51.1191 0 0)
(51.2028 0 0)
(51.2864 0 0)
(51.37 0 0)
(51.4536 0 0)
(51.5372 0 0)
(51.6208 0 0)
(51.7044 0 0)
(51.788 0 0)
(51.8717 0 0)
(51.9553 0 0)
(52.0389 0 0)
(52.1225 0 0)
(52.2061 0 0)
(52.2898 0 0)
(52.3734 0 0)
(52.457 0 0)
(52.5406 0 0)
(52.6242 0 0)
(52.7079 0 0)
(52.7915 0 0)
(52.8751 0 0)
(52.9587 0 0)
(53.0423 0 0)
(53.126 0 0)
(53.2096 0 0)
(53.2932 0 0)
(53.3769 0 0)
(53.4605 0 0)
(53.5441 0 0)
(53.6277 0 0)
(53.7114 0 0)
(53.795 0 0)
(53.8786 0 0)
(53.9623 0 0)
(54.0459 0 0)
(54.1295 0 0)
(54.2132 0 0)
(54.2968 0 0)
(54.3804 0 0)
(54.4641 0 0)
(54.5477 0 0)
(54.6313 0 0)
(54.715 0 0)
(54.7986 0 0)
(54.8823 0 0)
(54.9659 0 0)
(55.0495 0 0)
(55.1332 0 0)
(55.2168 0 0)
(55.3005 0 0)
(55.3841 0 0)
(55.4677 0 0)
(55.5514 0 0)
(55.635 0 0)
(55.7187 0 0)
(55.8023 0 0)
(55.886 0 0)
(55.9696 0 0)
(56.0533 0 0)
(56.1369 0 0)
(56.2206 0 0)
(56.3042 0 0)
(56.3879 0 0)
(56.4715 0 0)
(56.5552 0 0)
(56.6388 0 0)
(56.7225 0 0)
(56.8061 0 0)
(56.8898 0 0)
(56.9734 0 0)
(57.0571 0 0)
(57.1408 0 0)
(57.2244 0 0)
(57.3081 0 0)
(57.3917 0 0)
(57.4754 0 0)
(57.559 0 0)
(57.6427 0 0)
(57.7264 0 0)
(57.81 0 0)
(57.8937 0 0)
(57.9774 0 0)
(58.061 0 0)
(58.1447 0 0)
(58.2284 0 0)
(58.312 0 0)
(58.3957 0 0)
(58.4794 0 0)
(58.563 0 0)
(58.6467 0 0)
(58.7304 0 0)
(58.814 0 0)
(58.8977 0 0)
(58.9814 0 0)
(59.065 0 0)
(59.1487 0 0)
(59.2324 0 0)
(59.3161 0 0)
(59.3997 0 0)
(59.4834 0 0)
(59.5671 0 0)
(59.6508 0 0)
(59.7344 0 0)
(59.8181 0 0)
(59.9018 0 0)
(59.9855 0 0)
(60.0692 0 0)
(60.1528 0 0)
(60.2365 0 0)
(60.3202 0 0)
(60.4039 0 0)
(60.4876 0 0)
(60.5712 0 0)
(60.6549 0 0)
(60.7386 0 0)
(60.8223 0 0)
(60.906 0 0)
(60.9897 0 0)
(61.0734 0 0)
(61.157 0 0)
(61.2407 0 0)
(61.3244 0 0)
(61.4081 0 0)
(61.4918 0 0)
(61.5755 0 0)
(61.6592 0 0)
(61.7429 0 0)
(61.8266 0 0)
(61.9103 0 0)
(61.994 0 0)
(62.0777 0 0)
(62.1614 0 0)
(62.2451 0 0)
(62.3288 0 0)
(62.4124 0 0)
(62.4961 0 0)
(62.5798 0 0)
(62.6635 0 0)
(62.7472 0 0)
(62.8309 0 0)
(62.9147 0 0)
(62.9984 0 0)
(63.0821 0 0)
(63.1658 0 0)
(63.2495 0 0)
(63.3332 0 0)
(63.4169 0 0)
(63.5006 0 0)
(63.5843 0 0)
(63.668 0 0)
(63.7517 0 0)
(63.8354 0 0)
(63.9191 0 0)
(64.0028 0 0)
(64.0865 0 0)
(64.1703 0 0)
(64.254 0 0)
(64.3377 0 0)
(64.4214 0 0)
(64.5051 0 0)
(64.5888 0 0)
(64.6725 0 0)
(64.7563 0 0)
(64.84 0 0)
(64.9237 0 0)
(65.0074 0 0)
(65.0911 0 0)
(65.1749 0 0)
(65.2586 0 0)
(65.3423 0 0)
(65.426 0 0)
(65.5097 0 0)
(65.5935 0 0)
(65.6772 0 0)
(65.7609 0 0)
(65.8446 0 0)
(65.9284 0 0)
(66.0121 0 0)
(66.0958 0 0)
(66.1795 0 0)
(66.2633 0 0)
(66.347 0 0)
(66.4307 0 0)
(66.5145 0 0)
(66.5982 0 0)
(66.6819 0 0)
(66.7656 0 0)
(66.8494 0 0)
(66.9331 0 0)
(67.0168 0 0)
(67.1006 0 0)
(67.1843 0 0)
(67.2681 0 0)
(67.3518 0 0)
(67.4355 0 0)
(67.5193 0 0)
(67.603 0 0)
(67.6867 0 0)
(67.7705 0 0)
(67.8542 0 0)
(67.938 0 0)
(68.0217 0 0)
(68.1055 0 0)
(68.1892 0 0)
(68.2729 0 0)
(68.3567 0 0)
(68.4404 0 0)
(68.5242 0 0)
(68.6079 0 0)
(68.6917 0 0)
(68.7754 0 0)
(68.8592 0 0)
(68.9429 0 0)
(69.0267 0 0)
(69.1104 0 0)
(69.1942 0 0)
(69.2779 0 0)
(69.3617 0 0)
(69.4454 0 0)
(69.5292 0 0)
(69.6129 0 0)
(69.6967 0 0)
(69.7804 0 0)
(69.8642 0 0)
(69.948 0 0)
(70.0317 0 0)
(70.1155 0 0)
(70.1992 0 0)
(70.283 0 0)
(70.3667 0 0)
(70.4505 0 0)
(70.5343 0 0)
(70.618 0 0)
(70.7018 0 0)
(70.7856 0 0)
(70.8693 0 0)
(70.9531 0 0)
(71.0369 0 0)
(71.1206 0 0)
(71.2044 0 0)
(71.2882 0 0)
(71.3719 0 0)
(71.4557 0 0)
(71.5395 0 0)
(71.6232 0 0)
(71.707 0 0)
(71.7908 0 0)
(71.8745 0 0)
(71.9583 0 0)
(72.0421 0 0)
(72.1259 0 0)
(72.2096 0 0)
(72.2934 0 0)
(72.3772 0 0)
(72.461 0 0)
(72.5447 0 0)
(72.6285 0 0)
(72.7123 0 0)
(72.7961 0 0)
(72.8799 0 0)
(72.9636 0 0)
(73.0474 0 0)
(73.1312 0 0)
(73.215 0 0)
(73.2988 0 0)
(73.3825 0 0)
(73.4663 0 0)
(73.5501 0 0)
(73.6339 0 0)
(73.7177 0 0)
(73.8015 0 0)
(73.8853 0 0)
(73.969 0 0)
(74.0528 0 0)
(74.1366 0 0)
(74.2204 0 0)
(74.3042 0 0)
(74.388 0 0)
(74.4718 0 0)
(74.5556 0 0)
(74.6394 0 0)
(74.7232 0 0)
(74.807 0 0)
(74.8908 0 0)
(74.9746 0 0)
(75.0584 0 0)
(75.1422 0 0)
(75.226 0 0)
(75.3097 0 0)
(75.3935 0 0)
(75.4773 0 0)
(75.5611 0 0)
(75.645 0 0)
(75.7288 0 0)
(75.8126 0 0)
(75.8964 0 0)
(75.9802 0 0)
(76.064 0 0)
(76.1478 0 0)
(76.2316 0 0)
(76.3154 0 0)
(76.3992 0 0)
(76.483 0 0)
(76.5668 0 0)
(76.6506 0 0)
(76.7344 0 0)
(76.8182 0 0)
(76.902 0 0)
(76.9859 0 0)
(77.0697 0 0)
(77.1535 0 0)
(77.2373 0 0)
(77.3211 0 0)
(77.4049 0 0)
(77.4887 0 0)
(77.5726 0 0)
(77.6564 0 0)
(77.7402 0 0)
(77.824 0 0)
(77.9078 0 0)
(77.9916 0 0)
(78.0755 0 0)
(78.1593 0 0)
(78.2431 0 0)
(78.3269 0 0)
(78.4108 0 0)
(78.4946 0 0)
(78.5784 0 0)
(78.6622 0 0)
(78.7461 0 0)
(78.8299 0 0)
(78.9137 0 0)
(78.9975 0 0)
(79.0814 0 0)
(79.1652 0 0)
(79.249 0 0)
(79.3328 0 0)
(79.4167 0 0)
(79.5005 0 0)
(79.5843 0 0)
(79.6682 0 0)
(79.752 0 0)
(79.8358 0 0)
(79.9197 0 0)
(80.0035 0 0)
(80.0873 0 0)
(80.1712 0 0)
(80.255 0 0)
(80.3389 0 0)
(80.4227 0 0)
(80.5065 0 0)
(80.5904 0 0)
(80.6742 0 0)
(80.7581 0 0)
(80.8419 0 0)
(80.9257 0 0)
(81.0096 0 0)
(81.0934 0 0)
(81.1773 0 0)
(81.2611 0 0)
(81.345 0 0)
(81.4288 0 0)
(81.5126 0 0)
(81.5965 0 0)
(81.6803 0 0)
(81.7642 0 0)
(81.848 0 0)
(81.9319 0 0)
(82.0157 0 0)
(82.0996 0 0)
(82.1834 0 0)
(82.2673 0 0)
(82.3511 0 0)
(82.435 0 0)
(82.5189 0 0)
(82.6027 0 0)
(82.6866 0 0)
(82.7704 0 0)
(82.8543 0 0)
(82.9381 0 0)
(83.022 0 0)
(83.1059 0 0)
(83.1897 0 0)
(83.2736 0 0)
(83.3574 0 0)
(83.4413 0 0)
(83.5252 0 0)
(83.609 0 0)
(83.6929 0 0)
(83.7768 0 0)
(83.8606 0 0)
(83.9445 0 0)
(84.0283 0 0)
(84.1122 0 0)
(84.1961 0 0)
(84.2799 0 0)
(84.3638 0 0)
(84.4477 0 0)
(84.5316 0 0)
(84.6154 0 0)
(84.6993 0 0)
(84.7832 0 0)
(84.867 0 0)
(84.9509 0 0)
(85.0348 0 0)
(85.1187 0 0)
(85.2025 0 0)
(85.2864 0 0)
(85.3703 0 0)
(85.4542 0 0)
(85.538 0 0)
(85.6219 0 0)
(85.7058 0 0)
(85.7897 0 0)
(85.8736 0 0)
(85.9574 0 0)
(86.0413 0 0)
(86.1252 0 0)
(86.2091 0 0)
(86.293 0 0)
(86.3769 0 0)
(86.4607 0 0)
(86.5446 0 0)
(86.6285 0 0)
(86.7124 0 0)
(86.7963 0 0)
(86.8802 0 0)
(86.9641 0 0)
(87.0479 0 0)
(87.1318 0 0)
(87.2157 0 0)
(87.2996 0 0)
(87.3835 0 0)
(87.4674 0 0)
(87.5513 0 0)
(87.6352 0 0)
(87.7191 0 0)
(87.803 0 0)
(87.8869 0 0)
(87.9708 0 0)
(88.0547 0 0)
(88.1386 0 0)
(88.2225 0 0)
(88.3064 0 0)
(88.3903 0 0)
(88.4742 0 0)
(88.5581 0 0)
(88.642 0 0)
(88.7259 0 0)
(88.8098 0 0)
(88.8937 0 0)
(88.9776 0 0)
(89.0615 0 0)
(89.1454 0 0)
(89.2293 0 0)
(89.3132 0 0)
(89.3971 0 0)
(89.481 0 0)
(89.5649 0 0)
(89.6488 0 0)
(89.7327 0 0)
(89.8166 0 0)
(89.9006 0 0)
(89.9845 0 0)
(90.0684 0 0)
(90.1523 0 0)
(90.2362 0 0)
(90.3201 0 0)
(90.404 0 0)
(90.488 0 0)
(90.5719 0 0)
(90.6558 0 0)
(90.7397 0 0)
(90.8236 0 0)
(90.9075 0 0)
(90.9915 0 0)
(91.0754 0 0)
(91.1593 0 0)
(91.2432 0 0)
(91.3271 0 0)
(91.4111 0 0)
(91.495 0 0)
(91.5789 0 0)
(91.6628 0 0)
(91.7468 0 0)
(91.8307 0 0)
(91.9146 0 0)
(91.9985 0 0)
(92.0825 0 0)
(92.1664 0 0)
(92.2503 0 0)
(92.3343 0 0)
(92.4182 0 0)
(92.5021 0 0)
(92.586 0 0)
(92.67 0 0)
(92.7539 0 0)
(92.8378 0 0)
(92.9218 0 0)
(93.0057 0 0)
(93.0896 0 0)
(93.1736 0 0)
(93.2575 0 0)
(93.3415 0 0)
(93.4254 0 0)
(93.5093 0 0)
(93.5933 0 0)
(93.6772 0 0)
(93.7611 0 0)
(93.8451 0 0)
(93.929 0 0)
(94.013 0 0)
(94.0969 0 0)
(94.1809 0 0)
(94.2648 0 0)
(94.3487 0 0)
(94.4327 0 0)
(94.5166 0 0)
(94.6006 0 0)
(94.6845 0 0)
(94.7685 0 0)
(94.8524 0 0)
(94.9364 0 0)
(95.0203 0 0)
(95.1043 0 0)
(95.1882 0 0)
(95.2722 0 0)
(95.3561 0 0)
(95.4401 0 0)
(95.524 0 0)
(95.608 0 0)
(95.6919 0 0)
(95.7759 0 0)
(95.8599 0 0)
(95.9438 0 0)
(96.0278 0 0)
(96.1117 0 0)
(96.1957 0 0)
(96.2796 0 0)
(96.3636 0 0)
(96.4476 0 0)
(96.5315 0 0)
(96.6155 0 0)
(96.6994 0 0)
(96.7834 0 0)
(96.8674 0 0)
(96.9513 0 0)
(97.0353 0 0)
(97.1193 0 0)
(97.2032 0 0)
(97.2872 0 0)
(97.3712 0 0)
(97.4551 0 0)
(97.5391 0 0)
(97.6231 0 0)
(97.707 0 0)
(97.791 0 0)
(97.875 0 0)
(97.959 0 0)
(98.0429 0 0)
(98.1269 0 0)
(98.2109 0 0)
(98.2948 0 0)
(98.3788 0 0)
(98.4628 0 0)
(98.5468 0 0)
(98.6307 0 0)
(98.7147 0 0)
(98.7987 0 0)
(98.8827 0 0)
(98.9667 0 0)
(99.0506 0 0)
(99.1346 0 0)
(99.2186 0 0)
(99.3026 0 0)
(99.3866 0 0)
(99.4705 0 0)
(99.5545 0 0)
(99.6385 0 0)
(99.7225 0 0)
(99.8065 0 0)
(99.8905 0 0)
(99.9745 0 0)
(100.058 0 0)
(100.142 0 0)
(100.226 0 0)
(100.31 0 0)
(100.394 0 0)
(100.478 0 0)
(100.562 0 0)
(100.646 0 0)
(100.73 0 0)
(100.814 0 0)
(100.898 0 0)
(100.982 0 0)
(101.066 0 0)
(101.15 0 0)
(101.234 0 0)
(101.318 0 0)
(101.402 0 0)
(101.486 0 0)
(101.57 0 0)
(101.654 0 0)
(101.738 0 0)
(101.822 0 0)
(101.906 0 0)
(101.99 0 0)
(102.074 0 0)
(102.158 0 0)
(102.242 0 0)
(102.326 0 0)
(102.41 0 0)
(102.494 0 0)
(102.578 0 0)
(102.662 0 0)
(102.746 0 0)
(102.83 0 0)
(102.914 0 0)
(102.998 0 0)
(103.082 0 0)
(103.166 0 0)
(103.25 0 0)
(103.334 0 0)
(103.418 0 0)
(103.502 0 0)
(103.586 0 0)
(103.67 0 0)
(103.754 0 0)
(103.838 0 0)
(103.923 0 0)
(104.007 0 0)
(104.091 0 0)
(104.175 0 0)
(104.259 0 0)
(104.343 0 0)
(104.427 0 0)
(104.511 0 0)
(104.595 0 0)
(104.679 0 0)
(104.763 0 0)
(104.847 0 0)
(104.931 0 0)
(105.015 0 0)
(105.099 0 0)
(105.183 0 0)
(105.267 0 0)
(105.351 0 0)
(105.435 0 0)
(105.519 0 0)
(105.603 0 0)
(105.687 0 0)
(105.771 0 0)
(105.855 0 0)
(105.939 0 0)
(106.023 0 0)
(106.107 0 0)
(106.191 0 0)
(106.275 0 0)
(106.359 0 0)
(106.443 0 0)
(106.527 0 0)
(106.611 0 0)
(106.695 0 0)
(106.779 0 0)
(106.863 0 0)
(106.947 0 0)
(107.032 0 0)
(107.116 0 0)
(107.2 0 0)
(107.284 0 0)
(107.368 0 0)
(107.452 0 0)
(107.536 0 0)
(107.62 0 0)
(107.704 0 0)
(107.788 0 0)
(107.872 0 0)
(107.956 0 0)
(108.04 0 0)
(108.124 0 0)
(108.208 0 0)
(108.292 0 0)
(108.376 0 0)
(108.46 0 0)
(108.544 0 0)
(108.628 0 0)
(108.712 0 0)
(108.796 0 0)
(108.88 0 0)
(108.965 0 0)
(109.049 0 0)
(109.133 0 0)
(109.217 0 0)
(109.301 0 0)
(109.385 0 0)
(109.469 0 0)
(109.553 0 0)
(109.637 0 0)
(109.721 0 0)
(109.805 0 0)
(109.889 0 0)
(109.973 0 0)
(110.057 0 0)
(110.141 0 0)
(110.225 0 0)
(110.309 0 0)
(110.393 0 0)
(110.478 0 0)
(110.562 0 0)
(110.646 0 0)
(110.73 0 0)
(110.814 0 0)
(110.898 0 0)
(110.982 0 0)
(111.066 0 0)
(111.15 0 0)
(111.234 0 0)
(111.318 0 0)
(111.402 0 0)
(111.486 0 0)
(111.57 0 0)
(111.654 0 0)
(111.739 0 0)
(111.823 0 0)
(111.907 0 0)
(111.991 0 0)
(112.075 0 0)
(112.159 0 0)
(112.243 0 0)
(112.327 0 0)
(112.411 0 0)
(112.495 0 0)
(112.579 0 0)
(112.663 0 0)
(112.747 0 0)
(112.832 0 0)
(112.916 0 0)
(113 0 0)
(113.084 0 0)
(113.168 0 0)
(113.252 0 0)
(113.336 0 0)
(113.42 0 0)
(113.504 0 0)
(113.588 0 0)
(113.672 0 0)
(113.756 0 0)
(113.84 0 0)
(113.925 0 0)
(114.009 0 0)
(114.093 0 0)
(114.177 0 0)
(114.261 0 0)
(114.345 0 0)
(114.429 0 0)
(114.513 0 0)
(114.597 0 0)
(114.681 0 0)
(114.765 0 0)
(114.85 0 0)
(114.934 0 0)
(115.018 0 0)
(115.102 0 0)
(115.186 0 0)
(115.27 0 0)
(115.354 0 0)
(115.438 0 0)
(115.522 0 0)
(115.606 0 0)
(115.69 0 0)
(115.775 0 0)
(115.859 0 0)
(115.943 0 0)
(116.027 0 0)
(116.111 0 0)
(116.195 0 0)
(116.279 0 0)
(116.363 0 0)
(116.447 0 0)
(116.531 0 0)
(116.616 0 0)
(116.7 0 0)
(116.784 0 0)
(116.868 0 0)
(116.952 0 0)
(117.036 0 0)
(117.12 0 0)
(117.204 0 0)
(117.288 0 0)
(117.373 0 0)
(117.457 0 0)
(117.541 0 0)
(117.625 0 0)
(117.709 0 0)
(117.793 0 0)
(117.877 0 0)
(117.961 0 0)
(118.045 0 0)
(118.13 0 0)
(118.214 0 0)
(118.298 0 0)
(118.382 0 0)
(118.466 0 0)
(118.55 0 0)
(118.634 0 0)
(118.718 0 0)
(118.802 0 0)
(118.887 0 0)
(118.971 0 0)
(119.055 0 0)
(119.139 0 0)
(119.223 0 0)
(119.307 0 0)
(119.391 0 0)
(119.475 0 0)
(119.56 0 0)
(119.644 0 0)
(119.728 0 0)
(119.812 0 0)
(119.896 0 0)
(119.98 0 0)
(120.064 0 0)
(120.148 0 0)
(120.233 0 0)
(120.317 0 0)
(120.401 0 0)
(120.485 0 0)
(120.569 0 0)
(120.653 0 0)
(120.737 0 0)
(120.821 0 0)
(120.906 0 0)
(120.99 0 0)
(121.074 0 0)
(121.158 0 0)
(121.242 0 0)
(121.326 0 0)
(121.41 0 0)
(121.494 0 0)
(121.579 0 0)
(121.663 0 0)
(121.747 0 0)
(121.831 0 0)
(121.915 0 0)
(121.999 0 0)
(122.083 0 0)
(122.168 0 0)
(122.252 0 0)
(122.336 0 0)
(122.42 0 0)
(122.504 0 0)
(122.588 0 0)
(122.672 0 0)
(122.757 0 0)
(122.841 0 0)
(122.925 0 0)
(123.009 0 0)
(123.093 0 0)
(123.177 0 0)
(123.261 0 0)
(123.346 0 0)
(123.43 0 0)
(123.514 0 0)
(123.598 0 0)
(123.682 0 0)
(123.766 0 0)
(123.85 0 0)
(123.935 0 0)
(124.019 0 0)
(124.103 0 0)
(124.187 0 0)
(124.271 0 0)
(124.355 0 0)
(124.439 0 0)
(124.524 0 0)
(124.608 0 0)
(124.692 0 0)
(124.776 0 0)
(124.86 0 0)
(124.944 0 0)
(125.029 0 0)
(125.113 0 0)
(125.197 0 0)
(125.281 0 0)
(125.365 0 0)
(125.449 0 0)
(125.533 0 0)
(125.618 0 0)
(125.702 0 0)
(125.786 0 0)
(125.87 0 0)
(125.954 0 0)
(126.038 0 0)
(126.123 0 0)
(126.207 0 0)
(126.291 0 0)
(126.375 0 0)
(126.459 0 0)
(126.543 0 0)
(126.628 0 0)
(126.712 0 0)
(126.796 0 0)
(126.88 0 0)
(126.964 0 0)
(127.048 0 0)
(127.133 0 0)
(127.217 0 0)
(127.301 0 0)
(127.385 0 0)
(127.469 0 0)
(127.553 0 0)
(127.638 0 0)
(127.722 0 0)
(127.806 0 0)
(127.89 0 0)
(127.974 0 0)
(128.058 0 0)
(128.143 0 0)
(128.227 0 0)
(128.311 0 0)
(128.395 0 0)
(128.479 0 0)
(128.563 0 0)
(128.648 0 0)
(128.732 0 0)
(128.816 0 0)
(128.9 0 0)
(128.984 0 0)
(129.068 0 0)
(129.153 0 0)
(129.237 0 0)
(129.321 0 0)
(129.405 0 0)
(129.489 0 0)
(129.573 0 0)
(129.658 0 0)
(129.742 0 0)
(129.826 0 0)
(129.91 0 0)
(129.994 0 0)
(130.079 0 0)
(130.163 0 0)
(130.247 0 0)
(130.331 0 0)
(130.415 0 0)
(130.499 0 0)
(130.584 0 0)
(130.668 0 0)
(130.752 0 0)
(130.836 0 0)
(130.92 0 0)
(131.005 0 0)
(131.089 0 0)
(131.173 0 0)
(131.257 0 0)
(131.341 0 0)
(131.425 0 0)
(131.51 0 0)
(131.594 0 0)
(131.678 0 0)
(131.762 0 0)
(131.846 0 0)
(131.931 0 0)
(132.015 0 0)
(132.099 0 0)
(132.183 0 0)
(132.267 0 0)
(132.351 0 0)
(132.436 0 0)
(132.52 0 0)
(132.604 0 0)
(132.688 0 0)
(132.772 0 0)
(132.857 0 0)
(132.941 0 0)
(133.025 0 0)
(133.109 0 0)
(133.193 0 0)
(133.278 0 0)
(133.362 0 0)
(133.446 0 0)
(133.53 0 0)
(133.614 0 0)
(133.699 0 0)
(133.783 0 0)
(133.867 0 0)
(133.951 0 0)
(134.035 0 0)
(134.12 0 0)
(134.204 0 0)
(134.288 0 0)
(134.372 0 0)
(134.456 0 0)
(134.54 0 0)
(134.625 0 0)
(134.709 0 0)
(134.793 0 0)
(134.877 0 0)
(134.961 0 0)
(135.046 0 0)
(135.13 0 0)
(135.214 0 0)
(135.298 0 0)
(135.382 0 0)
(135.467 0 0)
(135.551 0 0)
(135.635 0 0)
(135.719 0 0)
(135.803 0 0)
(135.888 0 0)
(135.972 0 0)
(136.056 0 0)
(136.14 0 0)
(136.224 0 0)
(136.309 0 0)
(136.393 0 0)
(136.477 0 0)
(136.561 0 0)
(136.645 0 0)
(136.73 0 0)
(136.814 0 0)
(136.898 0 0)
(136.982 0 0)
(137.066 0 0)
(137.151 0 0)
(137.235 0 0)
(137.319 0 0)
(137.403 0 0)
(137.487 0 0)
(137.572 0 0)
(137.656 0 0)
(137.74 0 0)
(137.824 0 0)
(137.909 0 0)
(137.993 0 0)
(138.077 0 0)
(138.161 0 0)
(138.245 0 0)
(138.33 0 0)
(138.414 0 0)
(138.498 0 0)
(138.582 0 0)
(138.666 0 0)
(138.751 0 0)
(138.835 0 0)
(138.919 0 0)
(139.003 0 0)
(139.087 0 0)
(139.172 0 0)
(139.256 0 0)
(139.34 0 0)
(139.424 0 0)
(139.508 0 0)
(139.593 0 0)
(139.677 0 0)
(139.761 0 0)
(139.845 0 0)
(139.929 0 0)
(140.014 0 0)
(140.098 0 0)
(140.182 0 0)
(140.266 0 0)
(140.35 0 0)
(140.435 0 0)
(140.519 0 0)
(140.603 0 0)
(140.687 0 0)
(140.771 0 0)
(140.856 0 0)
(140.94 0 0)
(141.024 0 0)
(141.108 0 0)
(141.193 0 0)
(141.277 0 0)
(141.361 0 0)
(141.445 0 0)
(141.529 0 0)
(141.614 0 0)
(141.698 0 0)
(141.782 0 0)
(141.866 0 0)
(141.95 0 0)
(142.035 0 0)
(142.119 0 0)
(142.203 0 0)
(142.287 0 0)
(142.371 0 0)
(142.456 0 0)
(142.54 0 0)
(142.624 0 0)
(142.708 0 0)
(142.792 0 0)
(142.877 0 0)
(142.961 0 0)
(143.045 0 0)
(143.129 0 0)
(143.213 0 0)
(143.298 0 0)
(143.382 0 0)
(143.466 0 0)
(143.55 0 0)
(143.634 0 0)
(143.719 0 0)
(143.803 0 0)
(143.887 0 0)
(143.971 0 0)
(144.055 0 0)
(144.14 0 0)
(144.224 0 0)
(144.308 0 0)
(144.392 0 0)
(144.476 0 0)
(144.561 0 0)
(144.645 0 0)
(144.729 0 0)
(144.813 0 0)
(144.897 0 0)
(144.982 0 0)
(145.066 0 0)
(145.15 0 0)
(145.234 0 0)
(145.318 0 0)
(145.403 0 0)
(145.487 0 0)
(145.571 0 0)
(145.655 0 0)
(145.739 0 0)
(145.824 0 0)
(145.908 0 0)
(145.992 0 0)
(146.076 0 0)
(146.16 0 0)
(146.245 0 0)
(146.329 0 0)
(146.413 0 0)
(146.497 0 0)
(146.581 0 0)
(146.666 0 0)
(146.75 0 0)
(146.834 0 0)
(146.918 0 0)
(147.002 0 0)
(147.087 0 0)
(147.171 0 0)
(147.255 0 0)
(147.339 0 0)
(147.423 0 0)
(147.507 0 0)
(147.592 0 0)
(147.676 0 0)
(147.76 0 0)
(147.844 0 0)
(147.928 0 0)
(148.013 0 0)
(148.097 0 0)
(148.181 0 0)
(148.265 0 0)
(148.349 0 0)
(148.433 0 0)
(148.518 0 0)
(148.602 0 0)
(148.686 0 0)
(148.77 0 0)
(148.854 0 0)
(148.939 0 0)
(149.023 0 0)
(149.107 0 0)
(149.191 0 0)
(149.275 0 0)
(149.359 0 0)
(149.444 0 0)
(149.528 0 0)
(149.612 0 0)
(149.696 0 0)
(149.78 0 0)
(149.864 0 0)
(149.949 0 0)
(150.033 0 0)
(150.117 0 0)
(150.201 0 0)
(150.285 0 0)
(150.369 0 0)
(150.454 0 0)
(150.538 0 0)
(150.622 0 0)
(150.706 0 0)
(150.79 0 0)
(150.874 0 0)
(150.959 0 0)
(151.043 0 0)
(151.127 0 0)
(151.211 0 0)
(151.295 0 0)
(151.379 0 0)
(151.463 0 0)
(151.548 0 0)
(151.632 0 0)
(151.716 0 0)
(151.8 0 0)
(151.884 0 0)
(151.968 0 0)
(152.052 0 0)
(152.137 0 0)
(152.221 0 0)
(152.305 0 0)
(152.389 0 0)
(152.473 0 0)
(152.557 0 0)
(152.641 0 0)
(152.726 0 0)
(152.81 0 0)
(152.894 0 0)
(152.978 0 0)
(153.062 0 0)
(153.146 0 0)
(153.23 0 0)
(153.314 0 0)
(153.399 0 0)
(153.483 0 0)
(153.567 0 0)
(153.651 0 0)
(153.735 0 0)
(153.819 0 0)
(153.903 0 0)
(153.987 0 0)
(154.071 0 0)
(154.156 0 0)
(154.24 0 0)
(154.324 0 0)
(154.408 0 0)
(154.492 0 0)
(154.576 0 0)
(154.66 0 0)
(154.744 0 0)
(154.828 0 0)
(154.912 0 0)
(154.997 0 0)
(155.081 0 0)
(155.165 0 0)
(155.249 0 0)
(155.333 0 0)
(155.417 0 0)
(155.501 0 0)
(155.585 0 0)
(155.669 0 0)
(155.753 0 0)
(155.837 0 0)
(155.921 0 0)
(156.006 0 0)
(156.09 0 0)
(156.174 0 0)
(156.258 0 0)
(156.342 0 0)
(156.426 0 0)
(156.51 0 0)
(156.594 0 0)
(156.678 0 0)
(156.762 0 0)
(156.846 0 0)
(156.93 0 0)
(157.014 0 0)
(157.098 0 0)
(157.182 0 0)
(157.266 0 0)
(157.35 0 0)
(157.434 0 0)
(157.518 0 0)
(157.603 0 0)
(157.687 0 0)
(157.771 0 0)
(157.855 0 0)
(157.939 0 0)
(158.023 0 0)
(158.107 0 0)
(158.191 0 0)
(158.275 0 0)
(158.359 0 0)
(158.443 0 0)
(158.527 0 0)
(158.611 0 0)
(158.695 0 0)
(158.779 0 0)
(158.863 0 0)
(158.947 0 0)
(159.031 0 0)
(159.115 0 0)
(159.199 0 0)
(159.283 0 0)
(159.367 0 0)
(159.451 0 0)
(159.535 0 0)
(159.619 0 0)
(159.703 0 0)
(159.787 0 0)
(159.87 0 0)
(159.954 0 0)
(160.038 0 0)
(160.122 0 0)
(160.206 0 0)
(160.29 0 0)
(160.374 0 0)
(160.458 0 0)
(160.542 0 0)
(160.626 0 0)
(160.71 0 0)
(160.794 0 0)
(160.878 0 0)
(160.962 0 0)
(161.046 0 0)
(161.13 0 0)
(161.213 0 0)
(161.297 0 0)
(161.381 0 0)
(161.465 0 0)
(161.549 0 0)
(161.633 0 0)
(161.717 0 0)
(161.801 0 0)
(161.885 0 0)
(161.969 0 0)
(162.052 0 0)
(162.136 0 0)
(162.22 0 0)
(162.304 0 0)
(162.388 0 0)
(162.472 0 0)
(162.556 0 0)
(162.639 0 0)
(162.723 0 0)
(162.807 0 0)
(162.891 0 0)
(162.975 0 0)
(163.059 0 0)
(163.142 0 0)
(163.226 0 0)
(163.31 0 0)
(163.394 0 0)
(163.478 0 0)
(163.562 0 0)
(163.645 0 0)
(163.729 0 0)
(163.813 0 0)
(163.897 0 0)
(163.98 0 0)
(164.064 0 0)
(164.148 0 0)
(164.232 0 0)
(164.315 0 0)
(164.399 0 0)
(164.483 0 0)
(164.567 0 0)
(164.65 0 0)
(164.734 0 0)
(164.818 0 0)
(164.901 0 0)
(164.985 0 0)
(165.069 0 0)
(165.153 0 0)
(165.236 0 0)
(165.32 0 0)
(165.404 0 0)
(165.487 0 0)
(165.571 0 0)
(165.655 0 0)
(165.738 0 0)
(165.822 0 0)
(165.906 0 0)
(165.989 0 0)
(166.073 0 0)
(166.156 0 0)
(166.24 0 0)
(166.324 0 0)
(166.407 0 0)
(166.491 0 0)
(166.574 0 0)
(166.658 0 0)
(166.741 0 0)
(166.825 0 0)
(166.908 0 0)
(166.992 0 0)
(167.075 0 0)
(167.159 0 0)
(167.242 0 0)
(167.326 0 0)
(167.409 0 0)
(167.493 0 0)
(167.576 0 0)
(167.66 0 0)
(167.743 0 0)
(167.827 0 0)
(167.91 0 0)
(167.993 0 0)
(168.077 0 0)
(168.16 0 0)
(168.243 0 0)
(168.327 0 0)
(168.41 0 0)
(168.493 0 0)
(168.577 0 0)
(168.66 0 0)
(168.743 0 0)
(168.826 0 0)
(168.91 0 0)
(168.993 0 0)
(169.076 0 0)
(169.159 0 0)
(169.242 0 0)
(169.325 0 0)
(169.409 0 0)
(169.492 0 0)
(169.575 0 0)
(169.658 0 0)
(169.741 0 0)
(169.824 0 0)
(169.907 0 0)
(169.99 0 0)
(170.073 0 0)
(170.156 0 0)
(170.239 0 0)
(170.322 0 0)
(170.404 0 0)
(170.487 0 0)
(170.57 0 0)
(170.653 0 0)
(170.736 0 0)
(170.818 0 0)
(170.901 0 0)
(170.984 0 0)
(171.066 0 0)
(171.149 0 0)
(171.231 0 0)
(171.314 0 0)
(171.396 0 0)
(171.479 0 0)
(171.561 0 0)
(171.644 0 0)
(171.726 0 0)
(171.808 0 0)
(171.891 0 0)
(171.973 0 0)
(172.055 0 0)
(172.137 0 0)
(172.219 0 0)
(172.301 0 0)
(172.383 0 0)
(172.465 0 0)
(172.547 0 0)
(172.628 0 0)
(172.71 0 0)
(172.792 0 0)
(172.873 0 0)
(172.955 0 0)
(173.036 0 0)
(173.118 0 0)
(173.199 0 0)
(173.28 0 0)
(173.361 0 0)
(173.442 0 0)
(173.523 0 0)
(173.604 0 0)
(173.685 0 0)
(173.766 0 0)
(173.846 0 0)
(173.927 0 0)
(174.007 0 0)
(174.087 0 0)
(174.167 0 0)
(174.247 0 0)
(174.327 0 0)
(174.407 0 0)
(174.486 0 0)
(174.566 0 0)
(174.645 0 0)
(174.724 0 0)
(174.803 0 0)
(174.882 0 0)
(174.96 0 0)
(175.039 0 0)
(175.117 0 0)
(175.195 0 0)
(175.273 0 0)
(175.351 0 0)
(175.428 0 0)
(175.505 0 0)
(175.582 0 0)
(175.659 0 0)
(175.735 0 0)
(175.811 0 0)
(175.887 0 0)
(175.963 0 0)
(176.038 0 0)
(176.113 0 0)
(176.188 0 0)
(176.262 0 0)
(176.337 0 0)
(176.41 0 0)
(176.484 0 0)
(176.557 0 0)
(176.63 0 0)
(176.702 0 0)
(176.774 0 0)
(176.846 0 0)
(176.917 0 0)
(176.988 0 0)
(177.058 0 0)
(177.128 0 0)
(177.198 0 0)
(177.267 0 0)
(177.336 0 0)
(177.404 0 0)
(177.472 0 0)
(177.54 0 0)
(177.607 0 0)
(177.673 0 0)
(177.739 0 0)
(177.805 0 0)
(177.87 0 0)
(177.935 0 0)
(177.999 0 0)
(178.063 0 0)