/*--------------------------------*- C++ -*----------------------------------*\
  =========                 |
  \\      /  F ield         | OpenFOAM: The Open Source CFD Toolbox
   \\    /   O peration     | Website:  https://openfoam.org
    \\  /    A nd           | Version:  9
     \\/     M anipulation  |
\*---------------------------------------------------------------------------*/
FoamFile
{
    format      ascii;
    class       volScalarField;
    location    "0.045";
    object      mag(U);
}
// * * * * * * * * * * * * * * * * * * * * * * * * * * * * * * * * * * * * * //

dimensions      [0 1 -1 0 0 0 0];

internalField   nonuniform List<scalar> 
1000
(
18.9667
19.2293
19.5651
19.8418
20.0837
20.3233
20.5689
20.8174
21.0658
21.3136
21.5611
21.8087
22.0562
22.3038
22.5514
22.7989
23.0463
23.2938
23.5412
23.7886
24.0359
24.2832
24.5305
24.7777
25.0249
25.272
25.5191
25.7661
26.0131
26.26
26.5069
26.7537
27.0004
27.2471
27.4937
27.7403
27.9868
28.2332
28.4796
28.7258
28.972
29.2181
29.4642
29.7101
29.9559
30.2017
30.4473
30.6929
30.9383
31.1837
31.4289
31.6741
31.9192
32.1641
32.4089
32.6537
32.8983
33.1427
33.3871
33.6312
33.8753
34.1192
34.363
34.6066
34.8501
35.0934
35.3366
35.5796
35.8225
36.0651
36.3076
36.55
36.7922
37.0342
37.276
37.5176
37.759
38.0002
38.2412
38.482
38.7226
38.9629
39.2031
39.443
39.6827
39.9222
40.1614
40.4004
40.6391
40.8776
41.1158
41.3537
41.5914
41.8288
42.066
42.3028
42.5394
42.7756
43.0115
43.2472
43.4825
43.7175
43.9521
44.1864
44.4204
44.654
44.8872
45.1201
45.3526
45.5847
45.8164
46.0477
46.2785
46.509
46.739
46.9685
47.1976
47.4264
47.6548
47.8828
48.11
48.3366
48.5626
48.7881
49.013
49.2374
49.4613
49.6846
49.9074
50.1296
50.3512
50.5722
50.7927
51.0125
51.2317
51.4502
51.6681
51.8853
52.1018
52.3177
52.5328
52.7472
52.9609
53.1738
53.386
53.5973
53.8079
54.0177
54.2267
54.4349
54.6422
54.8487
55.0543
55.259
55.4628
55.6657
55.8677
56.0688
56.2689
56.4681
56.6662
56.8634
57.0596
57.2548
57.449
57.6421
57.8342
58.0252
58.2152
58.404
58.5918
58.7785
58.964
59.1485
59.3318
59.5139
59.695
59.8748
60.0535
60.231
60.4074
60.5826
60.7565
60.9293
61.101
61.2714
61.4406
61.6086
61.7754
61.9411
62.1055
62.2687
62.4308
62.5917
62.7514
62.9099
63.0672
63.2234
63.3785
63.5324
63.6852
63.8369
63.9875
64.1369
64.2853
64.4327
64.579
64.7243
64.8686
65.0118
65.1541
65.2955
65.4359
65.5754
65.714
65.8518
65.9887
66.1248
66.2601
66.3946
66.5283
66.6613
66.7936
66.9252
67.0562
67.1865
67.3162
67.4454
67.5739
67.7019
67.8294
67.9564
68.083
68.209
68.3347
68.4599
68.5847
68.7092
68.8333
68.9571
69.0806
69.2038
69.3267
69.4493
69.5717
69.6939
69.8159
69.9377
70.0592
70.1806
70.3019
70.423
70.544
70.6648
70.7856
70.9062
71.0267
71.1472
71.2675
71.3879
71.5081
71.6283
71.7484
71.8685
71.9886
72.1086
72.2287
72.3486
72.4686
72.5886
72.7085
72.8285
72.9484
73.0684
73.1883
73.3083
73.4283
73.5483
73.6683
73.7883
73.9083
74.0283
74.1484
74.2685
74.3886
74.5088
74.6289
74.7491
74.8693
74.9896
75.1098
75.2301
75.3505
75.4708
75.5912
75.7116
75.8321
75.9526
76.0731
76.1936
76.3142
76.4348
76.5554
76.6761
76.7968
76.9176
77.0383
77.1591
77.28
77.4008
77.5218
77.6427
77.7637
77.8847
78.0057
78.1268
78.2479
78.3691
78.4902
78.6115
78.7327
78.854
78.9753
79.0967
79.2181
79.3395
79.461
79.5825
79.704
79.8256
79.9472
80.0688
80.1905
80.3122
80.4339
80.5557
80.6775
80.7994
80.9213
81.0432
81.1651
81.2871
81.4092
81.5312
81.6533
81.7755
81.8976
82.0198
82.1421
82.2643
82.3867
82.509
82.6314
82.7538
82.8763
82.9988
83.1213
83.2438
83.3664
83.4891
83.6117
83.7344
83.8572
83.98
84.1028
84.2256
84.3485
84.4714
84.5944
84.7173
84.8404
84.9634
85.0865
85.2096
85.3328
85.456
85.5792
85.7025
85.8258
85.9491
86.0725
86.1959
86.3193
86.4428
86.5663
86.6898
86.8134
86.937
87.0606
87.1843
87.308
87.4317
87.5555
87.6793
87.8032
87.9271
88.051
88.1749
88.2989
88.4229
88.547
88.671
88.7952
88.9193
89.0435
89.1677
89.292
89.4162
89.5406
89.6649
89.7893
89.9137
90.0382
90.1627
90.2872
90.4117
90.5363
90.6609
90.7856
90.9103
91.035
91.1597
91.2845
91.4093
91.5342
91.6591
91.784
91.9089
92.0339
92.1589
92.284
92.4091
92.5342
92.6593
92.7845
92.9097
93.035
93.1603
93.2856
93.4109
93.5363
93.6617
93.7872
93.9126
94.0382
94.1637
94.2893
94.4149
94.5405
94.6662
94.7919
94.9177
95.0434
95.1692
95.2951
95.4209
95.5468
95.6728
95.7987
95.9247
96.0508
96.1768
96.3029
96.4291
96.5552
96.6814
96.8077
96.9339
97.0602
97.1865
97.3129
97.4393
97.5657
97.6922
97.8186
97.9452
98.0717
98.1983
98.3249
98.4516
98.5782
98.705
98.8317
98.9585
99.0853
99.2121
99.339
99.4659
99.5928
99.7198
99.8468
99.9738
100.101
100.228
100.355
100.482
100.609
100.737
100.864
100.991
101.119
101.246
101.373
101.501
101.628
101.756
101.883
102.011
102.138
102.266
102.394
102.521
102.649
102.777
102.904
103.032
103.16
103.288
103.416
103.544
103.672
103.8
103.928
104.056
104.184
104.312
104.44
104.568
104.696
104.825
104.953
105.081
105.209
105.338
105.466
105.595
105.723
105.852
105.98
106.109
106.237
106.366
106.495
106.623
106.752
106.881
107.009
107.138
107.267
107.396
107.525
107.654
107.783
107.912
108.041
108.17
108.299
108.428
108.557
108.686
108.815
108.945
109.074
109.203
109.332
109.462
109.591
109.721
109.85
109.979
110.109
110.239
110.368
110.498
110.627
110.757
110.887
111.016
111.146
111.276
111.406
111.536
111.665
111.795
111.925
112.055
112.185
112.315
112.445
112.575
112.705
112.836
112.966
113.096
113.226
113.356
113.487
113.617
113.747
113.878
114.008
114.139
114.269
114.4
114.53
114.661
114.791
114.922
115.053
115.183
115.314
115.445
115.576
115.706
115.837
115.968
116.099
116.23
116.361
116.492
116.623
116.754
116.885
117.016
117.147
117.278
117.409
117.54
117.672
117.803
117.934
118.065
118.197
118.328
118.459
118.591
118.722
118.854
118.985
119.117
119.248
119.38
119.511
119.643
119.775
119.906
120.038
120.17
120.302
120.433
120.565
120.697
120.829
120.961
121.093
121.225
121.357
121.489
121.621
121.753
121.885
122.017
122.15
122.282
122.414
122.546
122.679
122.811
122.943
123.075
123.208
123.34
123.473
123.605
123.737
123.87
124.002
124.134
124.267
124.399
124.531
124.664
124.796
124.928
125.06
125.192
125.325
125.457
125.589
125.72
125.852
125.984
126.116
126.247
126.378
126.51
126.641
126.772
126.903
127.033
127.164
127.294
127.424
127.554
127.683
127.812
127.941
128.07
128.198
128.326
128.454
128.581
128.708
128.835
128.961
129.087
129.212
129.337
129.461
129.585
129.709
129.832
129.954
130.076
130.197
130.317
130.437
130.557
130.676
130.794
130.912
131.028
131.145
131.261
131.376
131.49
131.604
131.717
131.83
131.942
132.053
132.164
132.275
132.385
132.494
132.603
132.711
132.82
132.927
133.034
133.141
133.248
133.355
133.461
133.567
133.673
133.779
133.885
133.99
134.096
134.202
134.308
134.414
134.521
134.627
134.734
134.842
134.949
135.057
135.165
135.274
135.384
135.493
135.604
135.715
135.826
135.938
136.051
136.164
136.278
136.392
136.508
136.623
136.74
136.857
136.975
137.093
137.212
137.332
137.452
137.573
137.695
137.817
137.94
138.063
138.187
138.311
138.436
138.562
138.688
138.814
138.941
139.069
139.196
139.325
139.453
139.582
139.712
139.842
139.972
140.102
140.233
140.364
140.495
140.627
140.759
140.891
141.024
141.156
141.289
141.422
141.556
141.689
141.823
141.957
142.091
142.225
142.359
142.494
142.629
142.763
142.898
143.033
143.168
143.303
143.438
143.574
143.709
143.844
143.979
144.114
144.249
144.384
144.518
144.652
144.786
144.92
145.053
145.186
145.319
145.45
145.582
145.712
145.842
145.97
146.098
146.224
146.35
146.474
146.597
146.718
146.837
146.955
147.071
147.185
147.297
147.407
147.515
147.621
147.724
147.824
147.923
148.019
148.112
148.203
148.291
148.377
148.461
148.542
148.621
148.698
148.773
148.846
148.917
148.987
149.055
149.122
149.189
149.254
149.319
149.383
149.447
149.512
149.576
149.641
149.706
149.772
149.839
149.907
149.976
150.046
150.118
150.191
150.265
150.341
150.419
150.498
150.579
150.661
150.745
150.831
150.918
151.006
151.097
151.189
151.282
151.377
151.473
151.571
151.67
151.771
151.872
151.975
152.08
152.185
152.292
152.4
152.509
152.619
152.73
152.842
152.955
153.07
153.185
153.301
153.418
153.536
153.655
153.775
153.895
154.017
154.139
154.262
154.386
154.511
154.637
154.763
154.89
155.018
155.146
155.276
155.406
155.536
155.667
155.799
155.932
156.065
156.199
156.334
156.469
156.605
156.742
156.879
157.016
157.155
157.293
157.433
157.573
157.713
157.854
157.996
158.138
158.281
158.424
158.568
158.712
158.857
159.002
159.148
159.294
159.44
159.588
159.735
159.883
160.032
160.181
160.331
160.481
160.631
160.782
160.933
161.085
161.237
161.389
161.542
161.696
161.85
162.005
162.163
162.438
)
;

boundaryField
{
    sides
    {
        type            calculated;
        value           nonuniform List<scalar> 2(162.438 18.9667);
    }
    empty
    {
        type            empty;
    }
}


// ************************************************************************* //
