/*--------------------------------*- C++ -*----------------------------------*\
  =========                 |
  \\      /  F ield         | OpenFOAM: The Open Source CFD Toolbox
   \\    /   O peration     | Website:  https://openfoam.org
    \\  /    A nd           | Version:  9
     \\/     M anipulation  |
\*---------------------------------------------------------------------------*/
FoamFile
{
    format      ascii;
    class       volScalarField;
    location    "0.045";
    object      rho;
}
// * * * * * * * * * * * * * * * * * * * * * * * * * * * * * * * * * * * * * //

dimensions      [1 -3 0 0 0 0 0];

internalField   nonuniform List<scalar> 
1000
(
0.196157
0.196128
0.196078
0.19603
0.195986
0.195943
0.195899
0.195855
0.195812
0.195768
0.195724
0.195681
0.195637
0.195593
0.19555
0.195507
0.195465
0.195421
0.195378
0.195335
0.195292
0.19525
0.195208
0.195166
0.195124
0.195081
0.195038
0.194996
0.194954
0.194913
0.194873
0.194833
0.194793
0.194752
0.19471
0.194668
0.194626
0.194584
0.194543
0.194504
0.194465
0.194428
0.194391
0.194355
0.194318
0.194281
0.194242
0.194203
0.194162
0.194121
0.194079
0.194037
0.193996
0.193956
0.193918
0.193882
0.193849
0.193818
0.19379
0.193764
0.193739
0.193716
0.193694
0.193673
0.193652
0.193632
0.193613
0.193594
0.193576
0.193559
0.193544
0.193531
0.19352
0.193508
0.193497
0.193486
0.193475
0.193465
0.193454
0.193444
0.193434
0.193424
0.193415
0.193405
0.193396
0.193387
0.193378
0.19337
0.193361
0.193353
0.193345
0.193338
0.19333
0.193323
0.193316
0.19331
0.193303
0.193297
0.193291
0.193285
0.19328
0.193275
0.19327
0.193266
0.193261
0.193257
0.193254
0.193251
0.193248
0.193245
0.193242
0.19324
0.193239
0.193237
0.193236
0.193236
0.193236
0.193236
0.193236
0.193237
0.193238
0.19324
0.193242
0.193244
0.193248
0.193251
0.193255
0.193259
0.193264
0.193269
0.193275
0.193281
0.193288
0.193295
0.193302
0.19331
0.193319
0.193328
0.193338
0.193348
0.193359
0.19337
0.193382
0.193394
0.193407
0.193421
0.193435
0.19345
0.193465
0.193482
0.193498
0.193516
0.193534
0.193552
0.193572
0.193592
0.193613
0.193634
0.193657
0.19368
0.193703
0.193728
0.193753
0.193779
0.193806
0.193833
0.193862
0.193891
0.193921
0.193952
0.193983
0.194016
0.194049
0.194083
0.194118
0.194154
0.194191
0.194229
0.194267
0.194307
0.194347
0.194389
0.194431
0.194474
0.194518
0.194563
0.194608
0.194655
0.194703
0.194751
0.194801
0.194851
0.194903
0.194955
0.195008
0.195062
0.195117
0.195173
0.19523
0.195287
0.195346
0.195405
0.195465
0.195526
0.195588
0.195651
0.195715
0.195779
0.195844
0.19591
0.195977
0.196044
0.196113
0.196182
0.196251
0.196322
0.196393
0.196465
0.196537
0.19661
0.196684
0.196758
0.196833
0.196909
0.196985
0.197061
0.197138
0.197216
0.197294
0.197373
0.197452
0.197531
0.197611
0.197691
0.197772
0.197853
0.197935
0.198016
0.198099
0.198181
0.198264
0.198347
0.19843
0.198514
0.198598
0.198682
0.198766
0.198851
0.198936
0.199021
0.199106
0.199192
0.199277
0.199363
0.199449
0.199535
0.199622
0.199708
0.199795
0.199881
0.199968
0.200055
0.200142
0.20023
0.200317
0.200404
0.200492
0.20058
0.200667
0.200755
0.200843
0.200931
0.201019
0.201107
0.201196
0.201284
0.201372
0.201461
0.20155
0.201638
0.201727
0.201816
0.201905
0.201994
0.202083
0.202172
0.202261
0.20235
0.202439
0.202529
0.202618
0.202707
0.202797
0.202887
0.202977
0.203066
0.203156
0.203246
0.203336
0.203426
0.203516
0.203606
0.203696
0.203786
0.203877
0.203967
0.204058
0.204148
0.204239
0.204329
0.20442
0.20451
0.204601
0.204692
0.204783
0.204874
0.204965
0.205056
0.205147
0.205238
0.20533
0.205421
0.205512
0.205604
0.205695
0.205787
0.205879
0.20597
0.206062
0.206154
0.206246
0.206338
0.20643
0.206522
0.206614
0.206706
0.206798
0.20689
0.206983
0.207075
0.207168
0.20726
0.207353
0.207445
0.207538
0.207631
0.207724
0.207816
0.20791
0.208002
0.208096
0.208188
0.208282
0.208375
0.208468
0.208561
0.208655
0.208748
0.208842
0.208935
0.209029
0.209123
0.209217
0.20931
0.209405
0.209498
0.209593
0.209686
0.209781
0.209874
0.209969
0.210063
0.210158
0.210252
0.210347
0.210441
0.210536
0.21063
0.210725
0.210819
0.210915
0.211009
0.211105
0.211199
0.211295
0.211389
0.211485
0.21158
0.211676
0.21177
0.211867
0.211961
0.212058
0.212153
0.212249
0.212344
0.21244
0.212536
0.212632
0.212727
0.212824
0.21292
0.213017
0.213112
0.213209
0.213305
0.213402
0.213497
0.213595
0.213691
0.213788
0.213884
0.213981
0.214078
0.214175
0.214271
0.214369
0.214465
0.214563
0.21466
0.214758
0.214854
0.214953
0.215049
0.215147
0.215244
0.215343
0.21544
0.215538
0.215635
0.215734
0.215831
0.21593
0.216027
0.216126
0.216223
0.216322
0.21642
0.216519
0.216617
0.216716
0.216814
0.216913
0.217011
0.21711
0.217208
0.217308
0.217406
0.217506
0.217604
0.217704
0.217802
0.217902
0.218001
0.218101
0.2182
0.2183
0.218399
0.218499
0.218598
0.218698
0.218797
0.218898
0.218997
0.219098
0.219197
0.219298
0.219397
0.219498
0.219598
0.219699
0.219798
0.2199
0.219999
0.220101
0.220201
0.220302
0.220402
0.220504
0.220604
0.220706
0.220806
0.220908
0.221008
0.22111
0.22121
0.221313
0.221413
0.221516
0.221616
0.221719
0.221819
0.221922
0.222023
0.222126
0.222226
0.222329
0.22243
0.222533
0.222635
0.222738
0.222839
0.222942
0.223044
0.223147
0.223249
0.223352
0.223454
0.223558
0.223659
0.223763
0.223865
0.223969
0.224071
0.224176
0.224277
0.224382
0.224483
0.224589
0.22469
0.224796
0.224896
0.225003
0.225103
0.225211
0.22531
0.225419
0.225517
0.225628
0.225725
0.225837
0.225932
0.226046
0.226139
0.226256
0.226347
0.226465
0.226556
0.226675
0.226765
0.226884
0.226975
0.227094
0.227185
0.227304
0.227395
0.227514
0.227605
0.227724
0.227815
0.227935
0.228026
0.228146
0.228237
0.228357
0.228448
0.228568
0.22866
0.22878
0.228872
0.228992
0.229084
0.229204
0.229296
0.229417
0.229509
0.229629
0.229722
0.229842
0.229935
0.230056
0.230148
0.230269
0.230362
0.230483
0.230575
0.230697
0.23079
0.230911
0.231004
0.231126
0.231219
0.23134
0.231433
0.231555
0.231649
0.231771
0.231864
0.231986
0.23208
0.232202
0.232296
0.232418
0.232512
0.232634
0.232728
0.232851
0.232945
0.233068
0.233162
0.233285
0.233379
0.233502
0.233597
0.23372
0.233814
0.233938
0.234032
0.234156
0.234251
0.234374
0.234469
0.234593
0.234688
0.234812
0.234907
0.235031
0.235126
0.235251
0.235346
0.235471
0.235566
0.235691
0.235786
0.235911
0.236006
0.236132
0.236227
0.236352
0.236448
0.236573
0.236669
0.236795
0.236891
0.237017
0.237113
0.237238
0.237335
0.237461
0.237557
0.237683
0.23778
0.237906
0.238002
0.238129
0.238225
0.238352
0.238449
0.238576
0.238672
0.238799
0.238896
0.239023
0.239121
0.239248
0.239345
0.239472
0.23957
0.239697
0.239795
0.239922
0.24002
0.240148
0.240245
0.240373
0.240471
0.240599
0.240697
0.240825
0.240924
0.241052
0.241151
0.241278
0.241379
0.241503
0.241608
0.241729
0.241838
0.241956
0.242067
0.242184
0.242295
0.242413
0.242524
0.242643
0.242752
0.242874
0.242982
0.243106
0.243211
0.243338
0.243442
0.24357
0.243673
0.243804
0.243905
0.244038
0.244139
0.244272
0.244374
0.244507
0.244609
0.244743
0.244846
0.244981
0.245084
0.24522
0.245324
0.24546
0.245565
0.245702
0.245807
0.245945
0.246051
0.24619
0.246297
0.246437
0.246545
0.246686
0.246795
0.246937
0.247047
0.247191
0.247301
0.247446
0.247558
0.247705
0.247817
0.247965
0.248079
0.248228
0.248343
0.248494
0.24861
0.248763
0.24888
0.249034
0.249152
0.249307
0.249427
0.249584
0.249704
0.249862
0.249984
0.250143
0.250266
0.250426
0.25055
0.250711
0.250835
0.250998
0.251123
0.251287
0.251412
0.251576
0.251702
0.251867
0.251993
0.252158
0.252284
0.25245
0.252576
0.252741
0.252868
0.253033
0.253159
0.253324
0.25345
0.253614
0.25374
0.253904
0.254028
0.254192
0.254316
0.254478
0.254602
0.254764
0.254887
0.255047
0.255169
0.255329
0.25545
0.255609
0.255729
0.255887
0.256007
0.256163
0.256282
0.256438
0.256556
0.25671
0.256827
0.256981
0.257097
0.25725
0.257366
0.257518
0.257633
0.257784
0.257898
0.258048
0.258162
0.258312
0.258425
0.258574
0.258687
0.258835
0.258947
0.259095
0.259207
0.259354
0.259466
0.259613
0.259725
0.259871
0.259982
0.260128
0.260239
0.260385
0.260496
0.260641
0.260752
0.260898
0.261008
0.261153
0.261264
0.261409
0.261519
0.261664
0.261775
0.26192
0.26203
0.262175
0.262286
0.26243
0.262541
0.262686
0.262797
0.262942
0.263053
0.263199
0.26331
0.263456
0.263568
0.263715
0.263827
0.263975
0.264088
0.264237
0.264351
0.264501
0.264616
0.264768
0.264884
0.265038
0.265156
0.265312
0.265433
0.265591
0.265714
0.265876
0.266001
0.266167
0.266296
0.266466
0.266597
0.266772
0.266907
0.267087
0.267226
0.267411
0.267555
0.267745
0.267893
0.268089
0.268241
0.268442
0.268598
0.268805
0.268965
0.269177
0.269341
0.269557
0.269724
0.269945
0.270114
0.270338
0.27051
0.270736
0.270909
0.271137
0.271311
0.271539
0.271713
0.271942
0.272116
0.272343
0.272516
0.272742
0.272914
0.273138
0.273308
0.273529
0.273697
0.273916
0.274082
0.274297
0.274461
0.274674
0.274834
0.275044
0.275203
0.275409
0.275566
0.275769
0.275923
0.276124
0.276276
0.276474
0.276624
0.276819
0.276967
0.27716
0.277306
0.277497
0.277641
0.277829
0.277972
0.278158
0.278299
0.278484
0.278623
0.278805
0.278944
0.279124
0.279261
0.27944
0.279575
0.279752
0.279887
0.280062
0.280195
0.280369
0.280501
0.280674
0.280805
0.280976
0.281106
0.281276
0.281404
0.281573
0.281701
0.281868
0.281995
0.282161
0.282287
0.282451
0.282576
0.28274
0.282864
0.283027
0.28315
0.283311
0.283434
0.283594
0.283716
0.283875
0.283996
0.284155
0.284275
0.284432
0.284552
0.284708
0.284827
0.284982
0.285101
0.285255
0.285373
0.285526
0.285643
0.285796
0.285912
0.286064
0.28618
0.286331
0.286446
0.286596
0.28671
0.28686
0.286974
0.287123
0.287236
0.287384
0.287497
0.287644
0.287756
0.287903
0.288009
0.288165
0.288231
)
;

boundaryField
{
    sides
    {
        type            calculated;
        value           nonuniform List<scalar> 2(0.288231 0.196157);
    }
    empty
    {
        type            empty;
    }
}


// ************************************************************************* //
