/*--------------------------------*- C++ -*----------------------------------*\
  =========                 |
  \\      /  F ield         | OpenFOAM: The Open Source CFD Toolbox
   \\    /   O peration     | Website:  https://openfoam.org
    \\  /    A nd           | Version:  9
     \\/     M anipulation  |
\*---------------------------------------------------------------------------*/
FoamFile
{
    format      ascii;
    class       volVectorField;
    location    "0.045";
    object      U;
}
// * * * * * * * * * * * * * * * * * * * * * * * * * * * * * * * * * * * * * //

dimensions      [0 1 -1 0 0 0 0];

internalField   nonuniform List<vector> 
1000
(
(18.9667 0 0)
(19.2293 0 0)
(19.5651 0 0)
(19.8418 0 0)
(20.0837 0 0)
(20.3233 0 0)
(20.5689 0 0)
(20.8174 0 0)
(21.0658 0 0)
(21.3136 0 0)
(21.5611 0 0)
(21.8087 0 0)
(22.0562 0 0)
(22.3038 0 0)
(22.5514 0 0)
(22.7989 0 0)
(23.0463 0 0)
(23.2938 0 0)
(23.5412 0 0)
(23.7886 0 0)
(24.0359 0 0)
(24.2832 0 0)
(24.5305 0 0)
(24.7777 0 0)
(25.0249 0 0)
(25.272 0 0)
(25.5191 0 0)
(25.7661 0 0)
(26.0131 0 0)
(26.26 0 0)
(26.5069 0 0)
(26.7537 0 0)
(27.0004 0 0)
(27.2471 0 0)
(27.4937 0 0)
(27.7403 0 0)
(27.9868 0 0)
(28.2332 0 0)
(28.4796 0 0)
(28.7258 0 0)
(28.972 0 0)
(29.2181 0 0)
(29.4642 0 0)
(29.7101 0 0)
(29.9559 0 0)
(30.2017 0 0)
(30.4473 0 0)
(30.6929 0 0)
(30.9383 0 0)
(31.1837 0 0)
(31.4289 0 0)
(31.6741 0 0)
(31.9192 0 0)
(32.1641 0 0)
(32.4089 0 0)
(32.6537 0 0)
(32.8983 0 0)
(33.1427 0 0)
(33.3871 0 0)
(33.6312 0 0)
(33.8753 0 0)
(34.1192 0 0)
(34.363 0 0)
(34.6066 0 0)
(34.8501 0 0)
(35.0934 0 0)
(35.3366 0 0)
(35.5796 0 0)
(35.8225 0 0)
(36.0651 0 0)
(36.3076 0 0)
(36.55 0 0)
(36.7922 0 0)
(37.0342 0 0)
(37.276 0 0)
(37.5176 0 0)
(37.759 0 0)
(38.0002 0 0)
(38.2412 0 0)
(38.482 0 0)
(38.7226 0 0)
(38.9629 0 0)
(39.2031 0 0)
(39.443 0 0)
(39.6827 0 0)
(39.9222 0 0)
(40.1614 0 0)
(40.4004 0 0)
(40.6391 0 0)
(40.8776 0 0)
(41.1158 0 0)
(41.3537 0 0)
(41.5914 0 0)
(41.8288 0 0)
(42.066 0 0)
(42.3028 0 0)
(42.5394 0 0)
(42.7756 0 0)
(43.0115 0 0)
(43.2472 0 0)
(43.4825 0 0)
(43.7175 0 0)
(43.9521 0 0)
(44.1864 0 0)
(44.4204 0 0)
(44.654 0 0)
(44.8872 0 0)
(45.1201 0 0)
(45.3526 0 0)
(45.5847 0 0)
(45.8164 0 0)
(46.0477 0 0)
(46.2785 0 0)
(46.509 0 0)
(46.739 0 0)
(46.9685 0 0)
(47.1976 0 0)
(47.4264 0 0)
(47.6548 0 0)
(47.8828 0 0)
(48.11 0 0)
(48.3366 0 0)
(48.5626 0 0)
(48.7881 0 0)
(49.013 0 0)
(49.2374 0 0)
(49.4613 0 0)
(49.6846 0 0)
(49.9074 0 0)
(50.1296 0 0)
(50.3512 0 0)
(50.5722 0 0)
(50.7927 0 0)
(51.0125 0 0)
(51.2317 0 0)
(51.4502 0 0)
(51.6681 0 0)
(51.8853 0 0)
(52.1018 0 0)
(52.3177 0 0)
(52.5328 0 0)
(52.7472 0 0)
(52.9609 0 0)
(53.1738 0 0)
(53.386 0 0)
(53.5973 0 0)
(53.8079 0 0)
(54.0177 0 0)
(54.2267 0 0)
(54.4349 0 0)
(54.6422 0 0)
(54.8487 0 0)
(55.0543 0 0)
(55.259 0 0)
(55.4628 0 0)
(55.6657 0 0)
(55.8677 0 0)
(56.0688 0 0)
(56.2689 0 0)
(56.4681 0 0)
(56.6662 0 0)
(56.8634 0 0)
(57.0596 0 0)
(57.2548 0 0)
(57.449 0 0)
(57.6421 0 0)
(57.8342 0 0)
(58.0252 0 0)
(58.2152 0 0)
(58.404 0 0)
(58.5918 0 0)
(58.7785 0 0)
(58.964 0 0)
(59.1485 0 0)
(59.3318 0 0)
(59.5139 0 0)
(59.695 0 0)
(59.8748 0 0)
(60.0535 0 0)
(60.231 0 0)
(60.4074 0 0)
(60.5826 0 0)
(60.7565 0 0)
(60.9293 0 0)
(61.101 0 0)
(61.2714 0 0)
(61.4406 0 0)
(61.6086 0 0)
(61.7754 0 0)
(61.9411 0 0)
(62.1055 0 0)
(62.2687 0 0)
(62.4308 0 0)
(62.5917 0 0)
(62.7514 0 0)
(62.9099 0 0)
(63.0672 0 0)
(63.2234 0 0)
(63.3785 0 0)
(63.5324 0 0)
(63.6852 0 0)
(63.8369 0 0)
(63.9875 0 0)
(64.1369 0 0)
(64.2853 0 0)
(64.4327 0 0)
(64.579 0 0)
(64.7243 0 0)
(64.8686 0 0)
(65.0118 0 0)
(65.1541 0 0)
(65.2955 0 0)
(65.4359 0 0)
(65.5754 0 0)
(65.714 0 0)
(65.8518 0 0)
(65.9887 0 0)
(66.1248 0 0)
(66.2601 0 0)
(66.3946 0 0)
(66.5283 0 0)
(66.6613 0 0)
(66.7936 0 0)
(66.9252 0 0)
(67.0562 0 0)
(67.1865 0 0)
(67.3162 0 0)
(67.4454 0 0)
(67.5739 0 0)
(67.7019 0 0)
(67.8294 0 0)
(67.9564 0 0)
(68.083 0 0)
(68.209 0 0)
(68.3347 0 0)
(68.4599 0 0)
(68.5847 0 0)
(68.7092 0 0)
(68.8333 0 0)
(68.9571 0 0)
(69.0806 0 0)
(69.2038 0 0)
(69.3267 0 0)
(69.4493 0 0)
(69.5717 0 0)
(69.6939 0 0)
(69.8159 0 0)
(69.9377 0 0)
(70.0592 0 0)
(70.1806 0 0)
(70.3019 0 0)
(70.423 0 0)
(70.544 0 0)
(70.6648 0 0)
(70.7856 0 0)
(70.9062 0 0)
(71.0267 0 0)
(71.1472 0 0)
(71.2675 0 0)
(71.3879 0 0)
(71.5081 0 0)
(71.6283 0 0)
(71.7484 0 0)
(71.8685 0 0)
(71.9886 0 0)
(72.1086 0 0)
(72.2287 0 0)
(72.3486 0 0)
(72.4686 0 0)
(72.5886 0 0)
(72.7085 0 0)
(72.8285 0 0)
(72.9484 0 0)
(73.0684 0 0)
(73.1883 0 0)
(73.3083 0 0)
(73.4283 0 0)
(73.5483 0 0)
(73.6683 0 0)
(73.7883 0 0)
(73.9083 0 0)
(74.0283 0 0)
(74.1484 0 0)
(74.2685 0 0)
(74.3886 0 0)
(74.5088 0 0)
(74.6289 0 0)
(74.7491 0 0)
(74.8693 0 0)
(74.9896 0 0)
(75.1098 0 0)
(75.2301 0 0)
(75.3505 0 0)
(75.4708 0 0)
(75.5912 0 0)
(75.7116 0 0)
(75.8321 0 0)
(75.9526 0 0)
(76.0731 0 0)
(76.1936 0 0)
(76.3142 0 0)
(76.4348 0 0)
(76.5554 0 0)
(76.6761 0 0)
(76.7968 0 0)
(76.9176 0 0)
(77.0383 0 0)
(77.1591 0 0)
(77.28 0 0)
(77.4008 0 0)
(77.5218 0 0)
(77.6427 0 0)
(77.7637 0 0)
(77.8847 0 0)
(78.0057 0 0)
(78.1268 0 0)
(78.2479 0 0)
(78.3691 0 0)
(78.4902 0 0)
(78.6115 0 0)
(78.7327 0 0)
(78.854 0 0)
(78.9753 0 0)
(79.0967 0 0)
(79.2181 0 0)
(79.3395 0 0)
(79.461 0 0)
(79.5825 0 0)
(79.704 0 0)
(79.8256 0 0)
(79.9472 0 0)
(80.0688 0 0)
(80.1905 0 0)
(80.3122 0 0)
(80.4339 0 0)
(80.5557 0 0)
(80.6775 0 0)
(80.7994 0 0)
(80.9213 0 0)
(81.0432 0 0)
(81.1651 0 0)
(81.2871 0 0)
(81.4092 0 0)
(81.5312 0 0)
(81.6533 0 0)
(81.7755 0 0)
(81.8976 0 0)
(82.0198 0 0)
(82.1421 0 0)
(82.2643 0 0)
(82.3867 0 0)
(82.509 0 0)
(82.6314 0 0)
(82.7538 0 0)
(82.8763 0 0)
(82.9988 0 0)
(83.1213 0 0)
(83.2438 0 0)
(83.3664 0 0)
(83.4891 0 0)
(83.6117 0 0)
(83.7344 0 0)
(83.8572 0 0)
(83.98 0 0)
(84.1028 0 0)
(84.2256 0 0)
(84.3485 0 0)
(84.4714 0 0)
(84.5944 0 0)
(84.7173 0 0)
(84.8404 0 0)
(84.9634 0 0)
(85.0865 0 0)
(85.2096 0 0)
(85.3328 0 0)
(85.456 0 0)
(85.5792 0 0)
(85.7025 0 0)
(85.8258 0 0)
(85.9491 0 0)
(86.0725 0 0)
(86.1959 0 0)
(86.3193 0 0)
(86.4428 0 0)
(86.5663 0 0)
(86.6898 0 0)
(86.8134 0 0)
(86.937 0 0)
(87.0606 0 0)
(87.1843 0 0)
(87.308 0 0)
(87.4317 0 0)
(87.5555 0 0)
(87.6793 0 0)
(87.8032 0 0)
(87.9271 0 0)
(88.051 0 0)
(88.1749 0 0)
(88.2989 0 0)
(88.4229 0 0)
(88.547 0 0)
(88.671 0 0)
(88.7952 0 0)
(88.9193 0 0)
(89.0435 0 0)
(89.1677 0 0)
(89.292 0 0)
(89.4162 0 0)
(89.5406 0 0)
(89.6649 0 0)
(89.7893 0 0)
(89.9137 0 0)
(90.0382 0 0)
(90.1627 0 0)
(90.2872 0 0)
(90.4117 0 0)
(90.5363 0 0)
(90.6609 0 0)
(90.7856 0 0)
(90.9103 0 0)
(91.035 0 0)
(91.1597 0 0)
(91.2845 0 0)
(91.4093 0 0)
(91.5342 0 0)
(91.6591 0 0)
(91.784 0 0)
(91.9089 0 0)
(92.0339 0 0)
(92.1589 0 0)
(92.284 0 0)
(92.4091 0 0)
(92.5342 0 0)
(92.6593 0 0)
(92.7845 0 0)
(92.9097 0 0)
(93.035 0 0)
(93.1603 0 0)
(93.2856 0 0)
(93.4109 0 0)
(93.5363 0 0)
(93.6617 0 0)
(93.7872 0 0)
(93.9126 0 0)
(94.0382 0 0)
(94.1637 0 0)
(94.2893 0 0)
(94.4149 0 0)
(94.5405 0 0)
(94.6662 0 0)
(94.7919 0 0)
(94.9177 0 0)
(95.0434 0 0)
(95.1692 0 0)
(95.2951 0 0)
(95.4209 0 0)
(95.5468 0 0)
(95.6728 0 0)
(95.7987 0 0)
(95.9247 0 0)
(96.0508 0 0)
(96.1768 0 0)
(96.3029 0 0)
(96.4291 0 0)
(96.5552 0 0)
(96.6814 0 0)
(96.8077 0 0)
(96.9339 0 0)
(97.0602 0 0)
(97.1865 0 0)
(97.3129 0 0)
(97.4393 0 0)
(97.5657 0 0)
(97.6922 0 0)
(97.8186 0 0)
(97.9452 0 0)
(98.0717 0 0)
(98.1983 0 0)
(98.3249 0 0)
(98.4516 0 0)
(98.5782 0 0)
(98.705 0 0)
(98.8317 0 0)
(98.9585 0 0)
(99.0853 0 0)
(99.2121 0 0)
(99.339 0 0)
(99.4659 0 0)
(99.5928 0 0)
(99.7198 0 0)
(99.8468 0 0)
(99.9738 0 0)
(100.101 0 0)
(100.228 0 0)
(100.355 0 0)
(100.482 0 0)
(100.609 0 0)
(100.737 0 0)
(100.864 0 0)
(100.991 0 0)
(101.119 0 0)
(101.246 0 0)
(101.373 0 0)
(101.501 0 0)
(101.628 0 0)
(101.756 0 0)
(101.883 0 0)
(102.011 0 0)
(102.138 0 0)
(102.266 0 0)
(102.394 0 0)
(102.521 0 0)
(102.649 0 0)
(102.777 0 0)
(102.904 0 0)
(103.032 0 0)
(103.16 0 0)
(103.288 0 0)
(103.416 0 0)
(103.544 0 0)
(103.672 0 0)
(103.8 0 0)
(103.928 0 0)
(104.056 0 0)
(104.184 0 0)
(104.312 0 0)
(104.44 0 0)
(104.568 0 0)
(104.696 0 0)
(104.825 0 0)
(104.953 0 0)
(105.081 0 0)
(105.209 0 0)
(105.338 0 0)
(105.466 0 0)
(105.595 0 0)
(105.723 0 0)
(105.852 0 0)
(105.98 0 0)
(106.109 0 0)
(106.237 0 0)
(106.366 0 0)
(106.495 0 0)
(106.623 0 0)
(106.752 0 0)
(106.881 0 0)
(107.009 0 0)
(107.138 0 0)
(107.267 0 0)
(107.396 0 0)
(107.525 0 0)
(107.654 0 0)
(107.783 0 0)
(107.912 0 0)
(108.041 0 0)
(108.17 0 0)
(108.299 0 0)
(108.428 0 0)
(108.557 0 0)
(108.686 0 0)
(108.815 0 0)
(108.945 0 0)
(109.074 0 0)
(109.203 0 0)
(109.332 0 0)
(109.462 0 0)
(109.591 0 0)
(109.721 0 0)
(109.85 0 0)
(109.979 0 0)
(110.109 0 0)
(110.239 0 0)
(110.368 0 0)
(110.498 0 0)
(110.627 0 0)
(110.757 0 0)
(110.887 0 0)
(111.016 0 0)
(111.146 0 0)
(111.276 0 0)
(111.406 0 0)
(111.536 0 0)
(111.665 0 0)
(111.795 0 0)
(111.925 0 0)
(112.055 0 0)
(112.185 0 0)
(112.315 0 0)
(112.445 0 0)
(112.575 0 0)
(112.705 0 0)
(112.836 0 0)
(112.966 0 0)
(113.096 0 0)
(113.226 0 0)
(113.356 0 0)
(113.487 0 0)
(113.617 0 0)
(113.747 0 0)
(113.878 0 0)
(114.008 0 0)
(114.139 0 0)
(114.269 0 0)
(114.4 0 0)
(114.53 0 0)
(114.661 0 0)
(114.791 0 0)
(114.922 0 0)
(115.053 0 0)
(115.183 0 0)
(115.314 0 0)
(115.445 0 0)
(115.576 0 0)
(115.706 0 0)
(115.837 0 0)
(115.968 0 0)
(116.099 0 0)
(116.23 0 0)
(116.361 0 0)
(116.492 0 0)
(116.623 0 0)
(116.754 0 0)
(116.885 0 0)
(117.016 0 0)
(117.147 0 0)
(117.278 0 0)
(117.409 0 0)
(117.54 0 0)
(117.672 0 0)
(117.803 0 0)
(117.934 0 0)
(118.065 0 0)
(118.197 0 0)
(118.328 0 0)
(118.459 0 0)
(118.591 0 0)
(118.722 0 0)
(118.854 0 0)
(118.985 0 0)
(119.117 0 0)
(119.248 0 0)
(119.38 0 0)
(119.511 0 0)
(119.643 0 0)
(119.775 0 0)
(119.906 0 0)
(120.038 0 0)
(120.17 0 0)
(120.302 0 0)
(120.433 0 0)
(120.565 0 0)
(120.697 0 0)
(120.829 0 0)
(120.961 0 0)
(121.093 0 0)
(121.225 0 0)
(121.357 0 0)
(121.489 0 0)
(121.621 0 0)
(121.753 0 0)
(121.885 0 0)
(122.017 0 0)
(122.15 0 0)
(122.282 0 0)
(122.414 0 0)
(122.546 0 0)
(122.679 0 0)
(122.811 0 0)
(122.943 0 0)
(123.075 0 0)
(123.208 0 0)
(123.34 0 0)
(123.473 0 0)
(123.605 0 0)
(123.737 0 0)
(123.87 0 0)
(124.002 0 0)
(124.134 0 0)
(124.267 0 0)
(124.399 0 0)
(124.531 0 0)
(124.664 0 0)
(124.796 0 0)
(124.928 0 0)
(125.06 0 0)
(125.192 0 0)
(125.325 0 0)
(125.457 0 0)
(125.589 0 0)
(125.72 0 0)
(125.852 0 0)
(125.984 0 0)
(126.116 0 0)
(126.247 0 0)
(126.378 0 0)
(126.51 0 0)
(126.641 0 0)
(126.772 0 0)
(126.903 0 0)
(127.033 0 0)
(127.164 0 0)
(127.294 0 0)
(127.424 0 0)
(127.554 0 0)
(127.683 0 0)
(127.812 0 0)
(127.941 0 0)
(128.07 0 0)
(128.198 0 0)
(128.326 0 0)
(128.454 0 0)
(128.581 0 0)
(128.708 0 0)
(128.835 0 0)
(128.961 0 0)
(129.087 0 0)
(129.212 0 0)
(129.337 0 0)
(129.461 0 0)
(129.585 0 0)
(129.709 0 0)
(129.832 0 0)
(129.954 0 0)
(130.076 0 0)
(130.197 0 0)
(130.317 0 0)
(130.437 0 0)
(130.557 0 0)
(130.676 0 0)
(130.794 0 0)
(130.912 0 0)
(131.028 0 0)
(131.145 0 0)
(131.261 0 0)
(131.376 0 0)
(131.49 0 0)
(131.604 0 0)
(131.717 0 0)
(131.83 0 0)
(131.942 0 0)
(132.053 0 0)
(132.164 0 0)
(132.275 0 0)
(132.385 0 0)
(132.494 0 0)
(132.603 0 0)
(132.711 0 0)
(132.82 0 0)
(132.927 0 0)
(133.034 0 0)
(133.141 0 0)
(133.248 0 0)
(133.355 0 0)
(133.461 0 0)
(133.567 0 0)
(133.673 0 0)
(133.779 0 0)
(133.885 0 0)
(133.99 0 0)
(134.096 0 0)
(134.202 0 0)
(134.308 0 0)
(134.414 0 0)
(134.521 0 0)
(134.627 0 0)
(134.734 0 0)
(134.842 0 0)
(134.949 0 0)
(135.057 0 0)
(135.165 0 0)
(135.274 0 0)
(135.384 0 0)
(135.493 0 0)
(135.604 0 0)
(135.715 0 0)
(135.826 0 0)
(135.938 0 0)
(136.051 0 0)
(136.164 0 0)
(136.278 0 0)
(136.392 0 0)
(136.508 0 0)
(136.623 0 0)
(136.74 0 0)
(136.857 0 0)
(136.975 0 0)
(137.093 0 0)
(137.212 0 0)
(137.332 0 0)
(137.452 0 0)
(137.573 0 0)
(137.695 0 0)
(137.817 0 0)
(137.94 0 0)
(138.063 0 0)
(138.187 0 0)
(138.311 0 0)
(138.436 0 0)
(138.562 0 0)
(138.688 0 0)
(138.814 0 0)
(138.941 0 0)
(139.069 0 0)
(139.196 0 0)
(139.325 0 0)
(139.453 0 0)
(139.582 0 0)
(139.712 0 0)
(139.842 0 0)
(139.972 0 0)
(140.102 0 0)
(140.233 0 0)
(140.364 0 0)
(140.495 0 0)
(140.627 0 0)
(140.759 0 0)
(140.891 0 0)
(141.024 0 0)
(141.156 0 0)
(141.289 0 0)
(141.422 0 0)
(141.556 0 0)
(141.689 0 0)
(141.823 0 0)
(141.957 0 0)
(142.091 0 0)
(142.225 0 0)
(142.359 0 0)
(142.494 0 0)
(142.629 0 0)
(142.763 0 0)
(142.898 0 0)
(143.033 0 0)
(143.168 0 0)
(143.303 0 0)
(143.438 0 0)
(143.574 0 0)
(143.709 0 0)
(143.844 0 0)
(143.979 0 0)
(144.114 0 0)
(144.249 0 0)
(144.384 0 0)
(144.518 0 0)
(144.652 0 0)
(144.786 0 0)
(144.92 0 0)
(145.053 0 0)
(145.186 0 0)
(145.319 0 0)
(145.45 0 0)
(145.582 0 0)
(145.712 0 0)
(145.842 0 0)
(145.97 0 0)
(146.098 0 0)
(146.224 0 0)
(146.35 0 0)
(146.474 0 0)
(146.597 0 0)
(146.718 0 0)
(146.837 0 0)
(146.955 0 0)
(147.071 0 0)
(147.185 0 0)
(147.297 0 0)
(147.407 0 0)
(147.515 0 0)
(147.621 0 0)
(147.724 0 0)
(147.824 0 0)
(147.923 0 0)
(148.019 0 0)
(148.112 0 0)
(148.203 0 0)
(148.291 0 0)
(148.377 0 0)
(148.461 0 0)
(148.542 0 0)
(148.621 0 0)
(148.698 0 0)
(148.773 0 0)
(148.846 0 0)
(148.917 0 0)
(148.987 0 0)
(149.055 0 0)
(149.122 0 0)
(149.189 0 0)
(149.254 0 0)
(149.319 0 0)
(149.383 0 0)
(149.447 0 0)
(149.512 0 0)
(149.576 0 0)
(149.641 0 0)
(149.706 0 0)
(149.772 0 0)
(149.839 0 0)
(149.907 0 0)
(149.976 0 0)
(150.046 0 0)
(150.118 0 0)
(150.191 0 0)
(150.265 0 0)
(150.341 0 0)
(150.419 0 0)
(150.498 0 0)
(150.579 0 0)
(150.661 0 0)
(150.745 0 0)
(150.831 0 0)
(150.918 0 0)
(151.006 0 0)
(151.097 0 0)
(151.189 0 0)
(151.282 0 0)
(151.377 0 0)
(151.473 0 0)
(151.571 0 0)
(151.67 0 0)
(151.771 0 0)
(151.872 0 0)
(151.975 0 0)
(152.08 0 0)
(152.185 0 0)
(152.292 0 0)
(152.4 0 0)
(152.509 0 0)
(152.619 0 0)
(152.73 0 0)
(152.842 0 0)
(152.955 0 0)
(153.07 0 0)
(153.185 0 0)
(153.301 0 0)
(153.418 0 0)
(153.536 0 0)
(153.655 0 0)
(153.775 0 0)
(153.895 0 0)
(154.017 0 0)
(154.139 0 0)
(154.262 0 0)
(154.386 0 0)
(154.511 0 0)
(154.637 0 0)
(154.763 0 0)
(154.89 0 0)
(155.018 0 0)
(155.146 0 0)
(155.276 0 0)
(155.406 0 0)
(155.536 0 0)
(155.667 0 0)
(155.799 0 0)
(155.932 0 0)
(156.065 0 0)
(156.199 0 0)
(156.334 0 0)
(156.469 0 0)
(156.605 0 0)
(156.742 0 0)
(156.879 0 0)
(157.016 0 0)
(157.155 0 0)
(157.293 0 0)
(157.433 0 0)
(157.573 0 0)
(157.713 0 0)
(157.854 0 0)
(157.996 0 0)
(158.138 0 0)
(158.281 0 0)
(158.424 0 0)
(158.568 0 0)
(158.712 0 0)
(158.857 0 0)
(159.002 0 0)
(159.148 0 0)
(159.294 0 0)
(159.44 0 0)
(159.588 0 0)
(159.735 0 0)
(159.883 0 0)
(160.032 0 0)
(160.181 0 0)
(160.331 0 0)
(160.481 0 0)
(160.631 0 0)
(160.782 0 0)
(160.933 0 0)
(161.085 0 0)
(161.237 0 0)
(161.389 0 0)
(161.542 0 0)
(161.696 0 0)
(161.85 0 0)
(162.005 0 0)
(162.163 0 0)
(162.438 0 0)
)
;

boundaryField
{
    sides
    {
        type            zeroGradient;
    }
    empty
    {
        type            empty;
    }
}


// ************************************************************************* //
