/*--------------------------------*- C++ -*----------------------------------*\
  =========                 |
  \\      /  F ield         | OpenFOAM: The Open Source CFD Toolbox
   \\    /   O peration     | Website:  https://openfoam.org
    \\  /    A nd           | Version:  9
     \\/     M anipulation  |
\*---------------------------------------------------------------------------*/
FoamFile
{
    format      ascii;
    class       surfaceScalarField;
    location    "0.048";
    object      phi;
}
// * * * * * * * * * * * * * * * * * * * * * * * * * * * * * * * * * * * * * //

dimensions      [1 0 -1 0 0 0 0];

internalField   nonuniform List<scalar> 
99
(
49.1913
50.8377
52.4717
54.0927
55.7052
57.3106
58.9028
60.4817
62.0537
63.6222
65.1795
66.7253
68.2604
69.7832
71.2946
72.7923
74.2743
75.7453
77.2051
78.6525
80.0863
81.5222
82.9697
84.4216
85.8467
87.239
88.599
89.8893
91.1703
92.4485
93.7232
94.9936
96.2492
97.4921
98.7288
99.9669
101.206
102.436
103.656
104.866
106.063
107.259
108.47
109.691
110.91
112.131
113.355
114.575
115.793
117.029
118.288
119.552
120.811
122.076
123.35
124.63
125.917
127.229
128.552
129.891
131.225
132.57
133.918
135.29
136.691
138.114
139.559
141.01
142.454
143.903
145.383
146.9
148.44
149.987
151.52
153.041
154.563
156.105
157.669
159.243
160.806
162.316
163.784
165.255
166.748
168.275
169.838
171.426
173.044
174.635
176.257
177.928
179.67
181.472
183.33
185.227
187.157
189.083
191.029
)
;

boundaryField
{
    sides
    {
        type            calculated;
        value           nonuniform List<scalar> 2(192.992 -47.5401);
    }
    empty
    {
        type            empty;
        value           nonuniform List<scalar> 0();
    }
}


// ************************************************************************* //
