/*--------------------------------*- C++ -*----------------------------------*\
  =========                 |
  \\      /  F ield         | OpenFOAM: The Open Source CFD Toolbox
   \\    /   O peration     | Website:  https://openfoam.org
    \\  /    A nd           | Version:  9
     \\/     M anipulation  |
\*---------------------------------------------------------------------------*/
FoamFile
{
    format      ascii;
    class       volScalarField;
    location    "0.015";
    object      ddt0(rho);
}
// * * * * * * * * * * * * * * * * * * * * * * * * * * * * * * * * * * * * * //

dimensions      [1 -3 -1 0 0 0 0];

internalField   nonuniform List<scalar> 
10000
(
-87.1927
-87.2005
-87.2141
-87.2177
-87.2193
-87.2201
-87.2199
-87.22
-87.2201
-87.2202
-87.2203
-87.2204
-87.2205
-87.2206
-87.2206
-87.2207
-87.2208
-87.2209
-87.2209
-87.221
-87.221
-87.2211
-87.2211
-87.2211
-87.2212
-87.2212
-87.2212
-87.2212
-87.2212
-87.2212
-87.2212
-87.2212
-87.2212
-87.2212
-87.2211
-87.2211
-87.2211
-87.221
-87.221
-87.2209
-87.2209
-87.2208
-87.2207
-87.2207
-87.2206
-87.2205
-87.2204
-87.2203
-87.2202
-87.2201
-87.22
-87.2199
-87.2197
-87.2196
-87.2195
-87.2193
-87.2192
-87.219
-87.2189
-87.2187
-87.2186
-87.2184
-87.2182
-87.218
-87.2178
-87.2177
-87.2175
-87.2172
-87.217
-87.2168
-87.2166
-87.2164
-87.2161
-87.2159
-87.2157
-87.2154
-87.2152
-87.2149
-87.2146
-87.2144
-87.2141
-87.2138
-87.2135
-87.2132
-87.2129
-87.2126
-87.2123
-87.212
-87.2117
-87.2114
-87.211
-87.2107
-87.2103
-87.21
-87.2096
-87.2093
-87.2089
-87.2085
-87.2082
-87.2078
-87.2074
-87.207
-87.2066
-87.2062
-87.2058
-87.2054
-87.2049
-87.2045
-87.2041
-87.2036
-87.2032
-87.2027
-87.2023
-87.2018
-87.2013
-87.2009
-87.2004
-87.1999
-87.1994
-87.1989
-87.1984
-87.1979
-87.1974
-87.1968
-87.1963
-87.1958
-87.1952
-87.1947
-87.1941
-87.1936
-87.193
-87.1924
-87.1918
-87.1913
-87.1907
-87.1901
-87.1895
-87.1889
-87.1883
-87.1876
-87.187
-87.1864
-87.1857
-87.1851
-87.1844
-87.1838
-87.1831
-87.1824
-87.1818
-87.1811
-87.1804
-87.1797
-87.179
-87.1783
-87.1776
-87.1768
-87.1761
-87.1754
-87.1746
-87.1739
-87.1731
-87.1724
-87.1716
-87.1708
-87.1701
-87.1693
-87.1685
-87.1677
-87.1669
-87.166
-87.1652
-87.1644
-87.1636
-87.1627
-87.1619
-87.161
-87.1602
-87.1593
-87.1584
-87.1575
-87.1567
-87.1558
-87.1549
-87.1539
-87.153
-87.1521
-87.1512
-87.1502
-87.1493
-87.1483
-87.1474
-87.1464
-87.1454
-87.1445
-87.1435
-87.1425
-87.1415
-87.1405
-87.1395
-87.1384
-87.1374
-87.1364
-87.1353
-87.1343
-87.1332
-87.1321
-87.1311
-87.13
-87.1289
-87.1278
-87.1267
-87.1256
-87.1244
-87.1233
-87.1222
-87.121
-87.1199
-87.1187
-87.1175
-87.1164
-87.1152
-87.114
-87.1128
-87.1116
-87.1104
-87.1091
-87.1079
-87.1067
-87.1054
-87.1042
-87.1029
-87.1016
-87.1003
-87.099
-87.0977
-87.0964
-87.0951
-87.0938
-87.0925
-87.0911
-87.0898
-87.0884
-87.087
-87.0857
-87.0843
-87.0829
-87.0815
-87.08
-87.0786
-87.0772
-87.0758
-87.0743
-87.0728
-87.0714
-87.0699
-87.0684
-87.0669
-87.0654
-87.0639
-87.0624
-87.0608
-87.0593
-87.0577
-87.0562
-87.0546
-87.053
-87.0514
-87.0498
-87.0482
-87.0466
-87.0449
-87.0433
-87.0416
-87.04
-87.0383
-87.0366
-87.0349
-87.0332
-87.0315
-87.0297
-87.028
-87.0262
-87.0245
-87.0227
-87.0209
-87.0191
-87.0173
-87.0155
-87.0136
-87.0118
-87.0099
-87.0081
-87.0062
-87.0043
-87.0024
-87.0005
-86.9986
-86.9966
-86.9947
-86.9927
-86.9907
-86.9887
-86.9867
-86.9847
-86.9827
-86.9807
-86.9786
-86.9765
-86.9745
-86.9724
-86.9703
-86.9681
-86.966
-86.9639
-86.9617
-86.9595
-86.9573
-86.9551
-86.9529
-86.9507
-86.9484
-86.9462
-86.9439
-86.9416
-86.9393
-86.937
-86.9346
-86.9323
-86.9299
-86.9275
-86.9251
-86.9227
-86.9203
-86.9178
-86.9153
-86.9129
-86.9104
-86.9078
-86.9053
-86.9028
-86.9002
-86.8976
-86.895
-86.8924
-86.8898
-86.8871
-86.8844
-86.8817
-86.879
-86.8763
-86.8735
-86.8708
-86.868
-86.8652
-86.8624
-86.8595
-86.8567
-86.8538
-86.8509
-86.8479
-86.845
-86.842
-86.8391
-86.836
-86.833
-86.83
-86.8269
-86.8238
-86.8207
-86.8176
-86.8144
-86.8112
-86.808
-86.8048
-86.8015
-86.7983
-86.795
-86.7916
-86.7883
-86.7849
-86.7815
-86.7781
-86.7747
-86.7712
-86.7677
-86.7642
-86.7607
-86.7571
-86.7535
-86.7499
-86.7462
-86.7426
-86.7389
-86.7351
-86.7314
-86.7276
-86.7238
-86.7199
-86.7161
-86.7122
-86.7082
-86.7043
-86.7003
-86.6963
-86.6922
-86.6882
-86.6841
-86.6799
-86.6758
-86.6716
-86.6673
-86.6631
-86.6588
-86.6545
-86.6501
-86.6457
-86.6413
-86.6369
-86.6324
-86.6279
-86.6233
-86.6187
-86.6141
-86.6094
-86.6047
-86.6
-86.5953
-86.5905
-86.5856
-86.5807
-86.5758
-86.5709
-86.5659
-86.5609
-86.5558
-86.5507
-86.5456
-86.5404
-86.5352
-86.53
-86.5247
-86.5194
-86.514
-86.5086
-86.5032
-86.4977
-86.4921
-86.4866
-86.481
-86.4753
-86.4696
-86.4639
-86.4581
-86.4522
-86.4464
-86.4405
-86.4345
-86.4285
-86.4225
-86.4164
-86.4102
-86.404
-86.3978
-86.3915
-86.3852
-86.3788
-86.3724
-86.3659
-86.3594
-86.3528
-86.3462
-86.3396
-86.3328
-86.3261
-86.3192
-86.3124
-86.3054
-86.2985
-86.2914
-86.2843
-86.2772
-86.27
-86.2627
-86.2554
-86.2481
-86.2406
-86.2332
-86.2256
-86.218
-86.2104
-86.2026
-86.1949
-86.187
-86.1791
-86.1711
-86.1631
-86.155
-86.1468
-86.1386
-86.1303
-86.1219
-86.1134
-86.1049
-86.0963
-86.0877
-86.0789
-86.0701
-86.0612
-86.0523
-86.0432
-86.0341
-86.0249
-86.0156
-86.0062
-85.9967
-85.9871
-85.9775
-85.9677
-85.9579
-85.948
-85.9379
-85.9278
-85.9175
-85.9072
-85.8968
-85.8862
-85.8755
-85.8647
-85.8538
-85.8428
-85.8317
-85.8204
-85.809
-85.7975
-85.7858
-85.774
-85.7621
-85.75
-85.7377
-85.7253
-85.7128
-85.7001
-85.6872
-85.6742
-85.6609
-85.6475
-85.6339
-85.6201
-85.6062
-85.592
-85.5776
-85.563
-85.5481
-85.5331
-85.5178
-85.5022
-85.4864
-85.4704
-85.4541
-85.4375
-85.4206
-85.4034
-85.386
-85.3682
-85.3501
-85.3316
-85.3128
-85.2937
-85.2741
-85.2542
-85.2339
-85.2132
-85.1921
-85.1705
-85.1484
-85.1259
-85.1029
-85.0794
-85.0553
-85.0307
-85.0056
-84.9798
-84.9534
-84.9264
-84.8987
-84.8704
-84.8413
-84.8115
-84.7809
-84.7495
-84.7173
-84.6842
-84.6502
-84.6152
-84.5793
-84.5423
-84.5043
-84.4652
-84.4249
-84.3834
-84.3406
-84.2965
-84.2511
-84.2042
-84.1558
-84.1058
-84.0541
-84.0008
-83.9457
-83.8886
-83.8296
-83.7686
-83.7053
-83.6398
-83.5719
-83.5016
-83.4286
-83.3528
-83.2741
-83.1925
-83.1076
-83.0193
-82.9276
-82.8321
-82.7327
-82.6291
-82.5213
-82.4088
-82.2915
-82.1692
-82.0415
-81.9081
-81.7687
-81.6231
-81.4708
-81.3115
-81.1448
-80.9702
-80.7874
-80.5959
-80.3952
-80.1847
-79.9641
-79.7327
-79.4899
-79.2351
-78.9678
-78.6874
-78.393
-78.0842
-77.7601
-77.4202
-77.0637
-76.6901
-76.2985
-75.8883
-75.4589
-75.0098
-74.5402
-74.0498
-73.538
-73.0045
-72.4489
-71.871
-71.2706
-70.6477
-70.0024
-69.3349
-68.6454
-67.9346
-67.203
-66.4514
-65.6807
-64.8919
-64.0864
-63.2654
-62.4306
-61.5835
-60.726
-59.8599
-58.9874
-58.1104
-57.2312
-56.3519
-55.4749
-54.6023
-53.7365
-52.8797
-52.034
-51.2016
-50.3845
-49.5845
-48.8034
-48.0429
-47.3044
-46.5893
-45.8987
-45.2336
-44.5948
-43.9828
-43.3982
-42.8411
-42.3116
-41.8098
-41.3353
-40.8878
-40.4667
-40.0716
-39.7017
-39.3562
-39.0342
-38.7348
-38.4569
-38.1997
-37.9619
-37.7427
-37.5408
-37.3553
-37.1851
-37.0291
-36.8865
-36.7561
-36.6371
-36.5286
-36.4297
-36.3396
-36.2576
-36.183
-36.115
-36.0531
-35.9967
-35.9452
-35.8982
-35.8551
-35.8157
-35.7794
-35.7461
-35.7152
-35.6866
-35.66
-35.6352
-35.612
-35.5901
-35.5694
-35.5498
-35.5311
-35.5133
-35.4961
-35.4796
-35.4636
-35.4481
-35.433
-35.4182
-35.4038
-35.3896
-35.3756
-35.3619
-35.3482
-35.3348
-35.3214
-35.3082
-35.2951
-35.282
-35.269
-35.2561
-35.2432
-35.2303
-35.2175
-35.2047
-35.192
-35.1792
-35.1665
-35.1538
-35.1411
-35.1285
-35.1158
-35.1032
-35.0905
-35.0779
-35.0652
-35.0526
-35.04
-35.0274
-35.0148
-35.0021
-34.9895
-34.9769
-34.9643
-34.9517
-34.9392
-34.9266
-34.914
-34.9014
-34.8888
-34.8762
-34.8637
-34.8511
-34.8385
-34.8259
-34.8134
-34.8008
-34.7882
-34.7757
-34.7631
-34.7506
-34.738
-34.7255
-34.7129
-34.7004
-34.6878
-34.6753
-34.6628
-34.6502
-34.6377
-34.6252
-34.6126
-34.6001
-34.5876
-34.5751
-34.5626
-34.55
-34.5375
-34.525
-34.5125
-34.5
-34.4875
-34.475
-34.4625
-34.45
-34.4375
-34.425
-34.4125
-34.4
-34.3875
-34.3751
-34.3626
-34.3501
-34.3376
-34.3252
-34.3127
-34.3002
-34.2878
-34.2753
-34.2628
-34.2504
-34.2379
-34.2255
-34.213
-34.2006
-34.1881
-34.1757
-34.1632
-34.1508
-34.1383
-34.1259
-34.1135
-34.101
-34.0886
-34.0762
-34.0638
-34.0513
-34.0389
-34.0265
-34.0141
-34.0017
-33.9893
-33.9769
-33.9645
-33.9521
-33.9397
-33.9273
-33.9149
-33.9025
-33.8901
-33.8777
-33.8653
-33.8529
-33.8406
-33.8282
-33.8158
-33.8034
-33.7911
-33.7787
-33.7663
-33.754
-33.7416
-33.7292
-33.7169
-33.7045
-33.6922
-33.6798
-33.6675
-33.6551
-33.6428
-33.6305
-33.6181
-33.6058
-33.5934
-33.5811
-33.5688
-33.5565
-33.5441
-33.5318
-33.5195
-33.5072
-33.4949
-33.4826
-33.4702
-33.4579
-33.4456
-33.4333
-33.421
-33.4087
-33.3964
-33.3841
-33.3719
-33.3596
-33.3473
-33.335
-33.3227
-33.3104
-33.2982
-33.2859
-33.2736
-33.2613
-33.2491
-33.2368
-33.2245
-33.2123
-33.2
-33.1878
-33.1755
-33.1633
-33.151
-33.1388
-33.1265
-33.1143
-33.1021
-33.0898
-33.0776
-33.0654
-33.0531
-33.0409
-33.0287
-33.0165
-33.0042
-32.992
-32.9798
-32.9676
-32.9554
-32.9432
-32.931
-32.9188
-32.9066
-32.8944
-32.8822
-32.87
-32.8578
-32.8456
-32.8334
-32.8212
-32.809
-32.7969
-32.7847
-32.7725
-32.7603
-32.7482
-32.736
-32.7238
-32.7117
-32.6995
-32.6873
-32.6752
-32.663
-32.6509
-32.6387
-32.6266
-32.6144
-32.6023
-32.5902
-32.578
-32.5659
-32.5538
-32.5416
-32.5295
-32.5174
-32.5052
-32.4931
-32.481
-32.4689
-32.4568
-32.4447
-32.4326
-32.4204
-32.4083
-32.3962
-32.3841
-32.372
-32.3599
-32.3479
-32.3358
-32.3237
-32.3116
-32.2995
-32.2874
-32.2753
-32.2633
-32.2512
-32.2391
-32.2271
-32.215
-32.2029
-32.1909
-32.1788
-32.1667
-32.1547
-32.1426
-32.1306
-32.1185
-32.1065
-32.0944
-32.0824
-32.0704
-32.0583
-32.0463
-32.0343
-32.0222
-32.0102
-31.9982
-31.9862
-31.9741
-31.9621
-31.9501
-31.9381
-31.9261
-31.9141
-31.9021
-31.8901
-31.8781
-31.8661
-31.8541
-31.8421
-31.8301
-31.8181
-31.8061
-31.7941
-31.7821
-31.7702
-31.7582
-31.7462
-31.7342
-31.7223
-31.7103
-31.6983
-31.6864
-31.6744
-31.6624
-31.6505
-31.6385
-31.6266
-31.6146
-31.6027
-31.5907
-31.5788
-31.5668
-31.5549
-31.543
-31.531
-31.5191
-31.5072
-31.4952
-31.4833
-31.4714
-31.4595
-31.4476
-31.4357
-31.4237
-31.4118
-31.3999
-31.388
-31.3761
-31.3642
-31.3523
-31.3404
-31.3285
-31.3166
-31.3047
-31.2928
-31.281
-31.2691
-31.2572
-31.2453
-31.2334
-31.2216
-31.2097
-31.1978
-31.186
-31.1741
-31.1622
-31.1504
-31.1385
-31.1267
-31.1148
-31.103
-31.0911
-31.0793
-31.0674
-31.0556
-31.0438
-31.0319
-31.0201
-31.0083
-30.9964
-30.9846
-30.9728
-30.961
-30.9491
-30.9373
-30.9255
-30.9137
-30.9019
-30.8901
-30.8783
-30.8665
-30.8547
-30.8429
-30.8311
-30.8193
-30.8075
-30.7957
-30.7839
-30.7721
-30.7603
-30.7485
-30.7368
-30.725
-30.7132
-30.7015
-30.6897
-30.6779
-30.6662
-30.6544
-30.6426
-30.6309
-30.6191
-30.6074
-30.5956
-30.5839
-30.5721
-30.5604
-30.5486
-30.5369
-30.5252
-30.5134
-30.5017
-30.49
-30.4782
-30.4665
-30.4548
-30.4431
-30.4314
-30.4196
-30.4079
-30.3962
-30.3845
-30.3728
-30.3611
-30.3494
-30.3377
-30.326
-30.3143
-30.3026
-30.2909
-30.2792
-30.2675
-30.2559
-30.2442
-30.2325
-30.2208
-30.2091
-30.1975
-30.1858
-30.1741
-30.1625
-30.1508
-30.1392
-30.1275
-30.1158
-30.1042
-30.0925
-30.0809
-30.0692
-30.0576
-30.046
-30.0343
-30.0227
-30.011
-29.9994
-29.9878
-29.9761
-29.9645
-29.9529
-29.9413
-29.9297
-29.918
-29.9064
-29.8948
-29.8832
-29.8716
-29.86
-29.8484
-29.8368
-29.8252
-29.8136
-29.802
-29.7904
-29.7788
-29.7672
-29.7557
-29.7441
-29.7325
-29.7209
-29.7093
-29.6978
-29.6862
-29.6746
-29.6631
-29.6515
-29.6399
-29.6284
-29.6168
-29.6053
-29.5937
-29.5822
-29.5706
-29.5591
-29.5475
-29.536
-29.5244
-29.5129
-29.5014
-29.4898
-29.4783
-29.4668
-29.4553
-29.4437
-29.4322
-29.4207
-29.4092
-29.3977
-29.3862
-29.3746
-29.3631
-29.3516
-29.3401
-29.3286
-29.3171
-29.3056
-29.2942
-29.2827
-29.2712
-29.2597
-29.2482
-29.2367
-29.2252
-29.2138
-29.2023
-29.1908
-29.1793
-29.1679
-29.1564
-29.145
-29.1335
-29.122
-29.1106
-29.0991
-29.0877
-29.0762
-29.0648
-29.0533
-29.0419
-29.0304
-29.019
-29.0076
-28.9961
-28.9847
-28.9733
-28.9619
-28.9504
-28.939
-28.9276
-28.9162
-28.9048
-28.8933
-28.8819
-28.8705
-28.8591
-28.8477
-28.8363
-28.8249
-28.8135
-28.8021
-28.7907
-28.7793
-28.7679
-28.7566
-28.7452
-28.7338
-28.7224
-28.711
-28.6997
-28.6883
-28.6769
-28.6656
-28.6542
-28.6428
-28.6315
-28.6201
-28.6088
-28.5974
-28.586
-28.5747
-28.5634
-28.552
-28.5407
-28.5293
-28.518
-28.5066
-28.4953
-28.484
-28.4727
-28.4613
-28.45
-28.4387
-28.4274
-28.416
-28.4047
-28.3934
-28.3821
-28.3708
-28.3595
-28.3482
-28.3369
-28.3256
-28.3143
-28.303
-28.2917
-28.2804
-28.2691
-28.2578
-28.2466
-28.2353
-28.224
-28.2127
-28.2014
-28.1902
-28.1789
-28.1676
-28.1564
-28.1451
-28.1338
-28.1226
-28.1113
-28.1001
-28.0888
-28.0776
-28.0663
-28.0551
-28.0438
-28.0326
-28.0214
-28.0101
-27.9989
-27.9877
-27.9764
-27.9652
-27.954
-27.9427
-27.9315
-27.9203
-27.9091
-27.8979
-27.8867
-27.8755
-27.8643
-27.853
-27.8418
-27.8306
-27.8194
-27.8083
-27.7971
-27.7859
-27.7747
-27.7635
-27.7523
-27.7411
-27.7299
-27.7188
-27.7076
-27.6964
-27.6852
-27.6741
-27.6629
-27.6517
-27.6406
-27.6294
-27.6183
-27.6071
-27.596
-27.5848
-27.5737
-27.5625
-27.5514
-27.5402
-27.5291
-27.518
-27.5068
-27.4957
-27.4846
-27.4734
-27.4623
-27.4512
-27.4401
-27.4289
-27.4178
-27.4067
-27.3956
-27.3845
-27.3734
-27.3623
-27.3512
-27.3401
-27.329
-27.3179
-27.3068
-27.2957
-27.2846
-27.2735
-27.2624
-27.2513
-27.2403
-27.2292
-27.2181
-27.207
-27.1959
-27.1849
-27.1738
-27.1627
-27.1517
-27.1406
-27.1296
-27.1185
-27.1075
-27.0964
-27.0854
-27.0743
-27.0633
-27.0522
-27.0412
-27.0301
-27.0191
-27.0081
-26.997
-26.986
-26.975
-26.9639
-26.9529
-26.9419
-26.9309
-26.9199
-26.9089
-26.8978
-26.8868
-26.8758
-26.8648
-26.8538
-26.8428
-26.8318
-26.8208
-26.8098
-26.7988
-26.7878
-26.7769
-26.7659
-26.7549
-26.7439
-26.7329
-26.722
-26.711
-26.7
-26.689
-26.6781
-26.6671
-26.6561
-26.6452
-26.6342
-26.6233
-26.6123
-26.6014
-26.5904
-26.5795
-26.5685
-26.5576
-26.5466
-26.5357
-26.5248
-26.5138
-26.5029
-26.492
-26.481
-26.4701
-26.4592
-26.4483
-26.4374
-26.4264
-26.4155
-26.4046
-26.3937
-26.3828
-26.3719
-26.361
-26.3501
-26.3392
-26.3283
-26.3174
-26.3065
-26.2956
-26.2847
-26.2738
-26.263
-26.2521
-26.2412
-26.2303
-26.2195
-26.2086
-26.1977
-26.1868
-26.176
-26.1651
-26.1543
-26.1434
-26.1325
-26.1217
-26.1108
-26.1
-26.0891
-26.0783
-26.0674
-26.0566
-26.0458
-26.0349
-26.0241
-26.0133
-26.0024
-25.9916
-25.9808
-25.97
-25.9591
-25.9483
-25.9375
-25.9267
-25.9159
-25.9051
-25.8943
-25.8835
-25.8726
-25.8618
-25.851
-25.8403
-25.8295
-25.8187
-25.8079
-25.7971
-25.7863
-25.7755
-25.7647
-25.754
-25.7432
-25.7324
-25.7216
-25.7109
-25.7001
-25.6893
-25.6786
-25.6678
-25.657
-25.6463
-25.6355
-25.6248
-25.614
-25.6033
-25.5925
-25.5818
-25.571
-25.5603
-25.5496
-25.5388
-25.5281
-25.5174
-25.5066
-25.4959
-25.4852
-25.4745
-25.4638
-25.453
-25.4423
-25.4316
-25.4209
-25.4102
-25.3995
-25.3888
-25.3781
-25.3674
-25.3567
-25.346
-25.3353
-25.3246
-25.3139
-25.3032
-25.2925
-25.2819
-25.2712
-25.2605
-25.2498
-25.2391
-25.2285
-25.2178
-25.2071
-25.1965
-25.1858
-25.1751
-25.1645
-25.1538
-25.1432
-25.1325
-25.1219
-25.1112
-25.1006
-25.0899
-25.0793
-25.0687
-25.058
-25.0474
-25.0368
-25.0261
-25.0155
-25.0049
-24.9943
-24.9836
-24.973
-24.9624
-24.9518
-24.9412
-24.9306
-24.9199
-24.9093
-24.8987
-24.8881
-24.8775
-24.8669
-24.8563
-24.8458
-24.8352
-24.8246
-24.814
-24.8034
-24.7928
-24.7822
-24.7717
-24.7611
-24.7505
-24.7399
-24.7294
-24.7188
-24.7082
-24.6977
-24.6871
-24.6766
-24.666
-24.6555
-24.6449
-24.6344
-24.6238
-24.6133
-24.6027
-24.5922
-24.5816
-24.5711
-24.5606
-24.55
-24.5395
-24.529
-24.5185
-24.5079
-24.4974
-24.4869
-24.4764
-24.4659
-24.4553
-24.4448
-24.4343
-24.4238
-24.4133
-24.4028
-24.3923
-24.3818
-24.3713
-24.3608
-24.3503
-24.3399
-24.3294
-24.3189
-24.3084
-24.2979
-24.2874
-24.277
-24.2665
-24.256
-24.2456
-24.2351
-24.2246
-24.2142
-24.2037
-24.1932
-24.1828
-24.1723
-24.1619
-24.1514
-24.141
-24.1305
-24.1201
-24.1096
-24.0992
-24.0888
-24.0783
-24.0679
-24.0575
-24.047
-24.0366
-24.0262
-24.0158
-24.0054
-23.9949
-23.9845
-23.9741
-23.9637
-23.9533
-23.9429
-23.9325
-23.9221
-23.9117
-23.9013
-23.8909
-23.8805
-23.8701
-23.8597
-23.8493
-23.8389
-23.8286
-23.8182
-23.8078
-23.7974
-23.787
-23.7767
-23.7663
-23.7559
-23.7456
-23.7352
-23.7249
-23.7145
-23.7041
-23.6938
-23.6834
-23.6731
-23.6627
-23.6524
-23.642
-23.6317
-23.6214
-23.611
-23.6007
-23.5904
-23.58
-23.5697
-23.5594
-23.549
-23.5387
-23.5284
-23.5181
-23.5078
-23.4974
-23.4871
-23.4768
-23.4665
-23.4562
-23.4459
-23.4356
-23.4253
-23.415
-23.4047
-23.3944
-23.3841
-23.3738
-23.3636
-23.3533
-23.343
-23.3327
-23.3224
-23.3122
-23.3019
-23.2916
-23.2813
-23.2711
-23.2608
-23.2506
-23.2403
-23.23
-23.2198
-23.2095
-23.1993
-23.189
-23.1788
-23.1685
-23.1583
-23.148
-23.1378
-23.1276
-23.1173
-23.1071
-23.0969
-23.0866
-23.0764
-23.0662
-23.056
-23.0458
-23.0355
-23.0253
-23.0151
-23.0049
-22.9947
-22.9845
-22.9743
-22.9641
-22.9539
-22.9437
-22.9335
-22.9233
-22.9131
-22.9029
-22.8927
-22.8825
-22.8723
-22.8622
-22.852
-22.8418
-22.8316
-22.8215
-22.8113
-22.8011
-22.7909
-22.7808
-22.7706
-22.7605
-22.7503
-22.7401
-22.73
-22.7198
-22.7097
-22.6995
-22.6894
-22.6793
-22.6691
-22.659
-22.6488
-22.6387
-22.6286
-22.6184
-22.6083
-22.5982
-22.5881
-22.5779
-22.5678
-22.5577
-22.5476
-22.5375
-22.5274
-22.5173
-22.5071
-22.497
-22.4869
-22.4768
-22.4667
-22.4566
-22.4465
-22.4365
-22.4264
-22.4163
-22.4062
-22.3961
-22.386
-22.3759
-22.3659
-22.3558
-22.3457
-22.3356
-22.3256
-22.3155
-22.3054
-22.2954
-22.2853
-22.2753
-22.2652
-22.2552
-22.2451
-22.2351
-22.225
-22.215
-22.2049
-22.1949
-22.1848
-22.1748
-22.1648
-22.1547
-22.1447
-22.1347
-22.1246
-22.1146
-22.1046
-22.0946
-22.0846
-22.0745
-22.0645
-22.0545
-22.0445
-22.0345
-22.0245
-22.0145
-22.0045
-21.9945
-21.9845
-21.9745
-21.9645
-21.9545
-21.9445
-21.9345
-21.9245
-21.9146
-21.9046
-21.8946
-21.8846
-21.8747
-21.8647
-21.8547
-21.8447
-21.8348
-21.8248
-21.8149
-21.8049
-21.7949
-21.785
-21.775
-21.7651
-21.7551
-21.7452
-21.7352
-21.7253
-21.7154
-21.7054
-21.6955
-21.6855
-21.6756
-21.6657
-21.6558
-21.6458
-21.6359
-21.626
-21.6161
-21.6061
-21.5962
-21.5863
-21.5764
-21.5665
-21.5566
-21.5467
-21.5368
-21.5269
-21.517
-21.5071
-21.4972
-21.4873
-21.4774
-21.4675
-21.4576
-21.4477
-21.4379
-21.428
-21.4181
-21.4082
-21.3984
-21.3885
-21.3786
-21.3687
-21.3589
-21.349
-21.3392
-21.3293
-21.3194
-21.3096
-21.2997
-21.2899
-21.28
-21.2702
-21.2603
-21.2505
-21.2407
-21.2308
-21.221
-21.2112
-21.2013
-21.1915
-21.1817
-21.1718
-21.162
-21.1522
-21.1424
-21.1326
-21.1227
-21.1129
-21.1031
-21.0933
-21.0835
-21.0737
-21.0639
-21.0541
-21.0443
-21.0345
-21.0247
-21.0149
-21.0051
-20.9953
-20.9855
-20.9758
-20.966
-20.9562
-20.9464
-20.9366
-20.9269
-20.9171
-20.9073
-20.8976
-20.8878
-20.878
-20.8683
-20.8585
-20.8488
-20.839
-20.8293
-20.8195
-20.8098
-20.8
-20.7903
-20.7805
-20.7708
-20.761
-20.7513
-20.7416
-20.7318
-20.7221
-20.7124
-20.7026
-20.6929
-20.6832
-20.6735
-20.6638
-20.6541
-20.6443
-20.6346
-20.6249
-20.6152
-20.6055
-20.5958
-20.5861
-20.5764
-20.5667
-20.557
-20.5473
-20.5376
-20.5279
-20.5182
-20.5086
-20.4989
-20.4892
-20.4795
-20.4698
-20.4602
-20.4505
-20.4408
-20.4312
-20.4215
-20.4118
-20.4022
-20.3925
-20.3828
-20.3732
-20.3635
-20.3539
-20.3442
-20.3346
-20.3249
-20.3153
-20.3057
-20.296
-20.2864
-20.2767
-20.2671
-20.2575
-20.2479
-20.2382
-20.2286
-20.219
-20.2094
-20.1997
-20.1901
-20.1805
-20.1709
-20.1613
-20.1517
-20.1421
-20.1325
-20.1229
-20.1133
-20.1037
-20.0941
-20.0845
-20.0749
-20.0653
-20.0557
-20.0461
-20.0365
-20.027
-20.0174
-20.0078
-19.9982
-19.9886
-19.9791
-19.9695
-19.9599
-19.9504
-19.9408
-19.9312
-19.9217
-19.9121
-19.9026
-19.893
-19.8835
-19.8739
-19.8644
-19.8548
-19.8453
-19.8357
-19.8262
-19.8167
-19.8071
-19.7976
-19.7881
-19.7785
-19.769
-19.7595
-19.75
-19.7404
-19.7309
-19.7214
-19.7119
-19.7024
-19.6929
-19.6834
-19.6739
-19.6644
-19.6549
-19.6454
-19.6359
-19.6264
-19.6169
-19.6074
-19.5979
-19.5884
-19.5789
-19.5694
-19.5599
-19.5505
-19.541
-19.5315
-19.522
-19.5126
-19.5031
-19.4936
-19.4842
-19.4747
-19.4652
-19.4558
-19.4463
-19.4369
-19.4274
-19.418
-19.4085
-19.3991
-19.3896
-19.3802
-19.3707
-19.3613
-19.3519
-19.3424
-19.333
-19.3236
-19.3141
-19.3047
-19.2953
-19.2859
-19.2764
-19.267
-19.2576
-19.2482
-19.2388
-19.2294
-19.22
-19.2106
-19.2011
-19.1917
-19.1823
-19.1729
-19.1635
-19.1542
-19.1448
-19.1354
-19.126
-19.1166
-19.1072
-19.0978
-19.0884
-19.0791
-19.0697
-19.0603
-19.0509
-19.0416
-19.0322
-19.0228
-19.0135
-19.0041
-18.9948
-18.9854
-18.976
-18.9667
-18.9573
-18.948
-18.9386
-18.9293
-18.92
-18.9106
-18.9013
-18.8919
-18.8826
-18.8733
-18.8639
-18.8546
-18.8453
-18.8359
-18.8266
-18.8173
-18.808
-18.7987
-18.7893
-18.78
-18.7707
-18.7614
-18.7521
-18.7428
-18.7335
-18.7242
-18.7149
-18.7056
-18.6963
-18.687
-18.6777
-18.6684
-18.6591
-18.6499
-18.6406
-18.6313
-18.622
-18.6127
-18.6035
-18.5942
-18.5849
-18.5756
-18.5664
-18.5571
-18.5478
-18.5386
-18.5293
-18.5201
-18.5108
-18.5016
-18.4923
-18.4831
-18.4738
-18.4646
-18.4553
-18.4461
-18.4368
-18.4276
-18.4184
-18.4091
-18.3999
-18.3907
-18.3815
-18.3722
-18.363
-18.3538
-18.3446
-18.3353
-18.3261
-18.3169
-18.3077
-18.2985
-18.2893
-18.2801
-18.2709
-18.2617
-18.2525
-18.2433
-18.2341
-18.2249
-18.2157
-18.2065
-18.1973
-18.1881
-18.179
-18.1698
-18.1606
-18.1514
-18.1422
-18.1331
-18.1239
-18.1147
-18.1056
-18.0964
-18.0872
-18.0781
-18.0689
-18.0598
-18.0506
-18.0414
-18.0323
-18.0231
-18.014
-18.0049
-17.9957
-17.9866
-17.9774
-17.9683
-17.9592
-17.95
-17.9409
-17.9318
-17.9226
-17.9135
-17.9044
-17.8953
-17.8861
-17.877
-17.8679
-17.8588
-17.8497
-17.8406
-17.8315
-17.8224
-17.8133
-17.8042
-17.7951
-17.786
-17.7769
-17.7678
-17.7587
-17.7496
-17.7405
-17.7314
-17.7223
-17.7133
-17.7042
-17.6951
-17.686
-17.6769
-17.6679
-17.6588
-17.6497
-17.6407
-17.6316
-17.6225
-17.6135
-17.6044
-17.5954
-17.5863
-17.5773
-17.5682
-17.5592
-17.5501
-17.5411
-17.532
-17.5231
-17.5139
-17.505
-17.4957
-17.4871
-17.4775
-17.4692
-17.4592
-17.4514
-17.4408
-17.4339
-17.4222
-17.4166
-17.4032
-17.3998
-17.3837
-17.3835
-17.3635
-17.3682
-17.3423
-17.3539
-17.3199
-17.3411
-17.296
-17.3299
-17.2703
-17.3204
-17.243
-17.3125
-17.2143
-17.3057
-17.1852
-17.2986
-17.1571
-17.2895
-17.1322
-17.2758
-17.1136
-17.2543
-17.1042
-17.2219
-17.1072
-17.1763
-17.1244
-17.1158
-17.1512
-17.0546
-17.1786
-16.9881
-17.2101
-16.9223
-17.2354
-16.8701
-17.241
-16.8428
-17.2159
-16.8495
-17.1548
-16.893
-17.0598
-16.9655
-16.9433
-17.0489
-16.8281
-17.1169
-16.7425
-17.1426
-16.7109
-17.1065
-16.7439
-17.0076
-16.8318
-16.8675
-16.9423
-16.7271
-17.0295
-16.6336
-17.0494
-16.6213
-16.9816
-16.6943
-16.8412
-16.8182
-16.6787
-16.9311
-16.5608
-16.9695
-16.5391
-16.9015
-16.6209
-16.7473
-16.7589
-16.5758
-16.8711
-16.4714
-16.883
-16.4866
-16.7736
-16.6065
-16.5933
-16.7509
-16.4403
-16.8189
-16.4018
-16.7527
-16.4948
-16.5807
-16.6484
-16.4055
-16.7456
-16.3375
-16.7033
-16.4158
-16.5361
-16.5729
-16.3528
-16.6787
-16.2794
-16.6369
-16.3617
-16.4638
-16.5227
-16.2828
-16.6178
-16.2283
-16.5524
-16.333
-16.3653
-16.4937
-16.2022
-16.5545
-16.1923
-16.4444
-16.3301
-16.2464
-16.4736
-16.1275
-16.4718
-16.1843
-16.3087
-16.3462
-16.1247
-16.438
-16.0845
-16.3501
-16.2116
-16.1532
-16.3587
-16.0318
-16.3548
-16.0952
-16.1849
-16.2577
-16.0121
-16.3252
-16.0055
-16.204
-16.1536
-16.0093
-16.2709
-15.9412
-16.2041
-16.0577
-16.0101
-16.2035
-15.8951
-16.1864
-15.9747
-16.0063
-16.1322
-15.8598
-16.1548
-15.9047
-15.9938
-16.0632
-15.8288
-16.1141
-15.8462
-15.9712
-16.0006
-15.7969
-16.0691
-15.7955
-15.9398
-15.945
-15.762
-16.0224
-15.7507
-15.9006
-15.8965
-15.7234
-15.9749
-15.7112
-15.8539
-15.8554
-15.6804
-15.9275
-15.6756
-15.8011
-15.8201
-15.6347
-15.879
-15.6448
-15.7422
-15.7894
-15.5879
-15.8274
-15.6199
-15.6775
-15.7621
-15.542
-15.7714
-15.6008
-15.6088
-15.7346
-15.501
-15.708
-15.5883
-15.5379
-15.7036
-15.468
-15.636
-15.5809
-15.4687
-15.6647
-15.4458
-15.5558
-15.5745
-15.407
-15.6129
-15.4362
-15.4699
-15.5637
-15.3585
-15.5452
-15.4372
-15.3848
-15.5405
-15.3288
-15.4618
-15.4426
-15.3098
-15.497
-15.32
-15.368
-15.4422
-15.255
-15.4288
-15.3276
-15.2753
-15.4228
-15.2281
-15.3385
-15.3396
-15.1993
-15.3736
-15.2288
-15.2379
-15.3385
-15.1541
-15.2925
-15.2452
-15.1474
-15.306
-15.1449
-15.1906
-15.2551
-15.0883
-15.2341
-15.1615
-15.0918
-15.234
-15.0715
-15.1328
-15.1774
-15.0247
-15.1676
-15.0878
-15.0302
-15.1612
-15.0053
-15.0656
-15.1065
-14.961
-15.0951
-15.0232
-14.9621
-15.0893
-14.9446
-14.9907
-15.0413
-14.8974
-15.0172
-14.966
-14.8894
-15.0167
-14.8896
-14.9092
-14.9795
-14.836
-14.9335
-14.9146
-14.8156
-14.9401
-14.8413
-14.8235
-14.917
-14.7805
-14.8434
-14.8657
-14.7456
-14.8561
-14.7992
-14.7378
-14.8478
-14.7344
-14.7482
-14.814
-14.6854
-14.7624
-14.7601
-14.6592
-14.7662
-14.6978
-14.654
-14.7512
-14.6398
-14.6612
-14.7158
-14.5961
-14.6698
-14.665
-14.5708
-14.6696
-14.6079
-14.5622
-14.6544
-14.5538
-14.5642
-14.623
-14.5103
-14.5684
-14.5785
-14.4809
-14.5674
-14.527
-14.4654
-14.5559
-14.4756
-14.46
-14.5317
-14.4301
-14.4593
-14.4962
-14.3943
-14.4578
-14.4525
-14.3693
-14.4507
-14.4053
-14.3541
-14.4352
-14.3591
-14.3457
-14.4105
-14.3175
-14.3404
-14.3775
-14.283
-14.3347
-14.3386
-14.2562
-14.3255
-14.2966
-14.2364
-14.3109
-14.2542
-14.2222
-14.29
-14.214
-14.2114
-14.2631
-14.1778
-14.2017
-14.2313
-14.1462
-14.1913
-14.1958
-14.1198
-14.1784
-14.1584
-14.0978
-14.1623
-14.1207
-14.0794
-14.1425
-14.0838
-14.0636
-14.1189
-14.049
-14.049
-14.092
-14.0166
-14.0348
-14.0625
-13.9869
-14.0201
-14.031
-13.9601
-14.004
-13.9985
-13.9356
-13.9865
-13.9655
-13.9132
-13.9671
-13.9326
-13.8925
-13.9457
-13.9004
-13.8728
-13.9227
-13.869
-13.8538
-13.8982
-13.8387
-13.8351
-13.8724
-13.8097
-13.8162
-13.8457
-13.7817
-13.7972
-13.8182
-13.7548
-13.7777
-13.7903
-13.729
-13.7575
-13.7622
-13.7038
-13.7368
-13.734
-13.6794
-13.7154
-13.7059
-13.6555
-13.6935
-13.6781
-13.6319
-13.6711
-13.6504
-13.6087
-13.648
-13.6232
-13.5856
-13.6246
-13.5963
-13.5625
-13.6009
-13.5697
-13.5396
-13.5768
-13.5435
-13.5164
-13.5526
-13.5176
-13.4932
-13.5282
-13.4921
-13.4699
-13.5036
-13.4669
-13.4463
-13.479
-13.4419
-13.4227
-13.4543
-13.4173
-13.3989
-13.4295
-13.3929
-13.3749
-13.4048
-13.3687
-13.3509
-13.3799
-13.3448
-13.3266
-13.355
-13.321
-13.3022
-13.3302
-13.2974
-13.2778
-13.3052
-13.2741
-13.2532
-13.2802
-13.2509
-13.2286
-13.2551
-13.2279
-13.2041
-13.2298
-13.2051
-13.1794
-13.2046
-13.1823
-13.155
-13.1791
-13.1597
-13.1305
-13.1534
-13.1373
-13.1062
-13.1277
-13.1147
-13.0822
-13.1016
-13.0923
-13.0583
-13.0754
-13.0699
-13.0346
-13.0491
-13.0472
-13.0114
-13.0226
-13.0246
-12.9885
-12.996
-13.0016
-12.966
-12.9694
-12.9783
-12.9438
-12.9427
-12.9547
-12.922
-12.9163
-12.9305
-12.9006
-12.89
-12.9059
-12.8794
-12.8641
-12.8808
-12.8583
-12.8386
-12.8551
-12.8374
-12.8137
-12.8289
-12.8163
-12.7894
-12.8023
-12.795
-12.7659
-12.7753
-12.7734
-12.743
-12.7482
-12.7511
-12.721
-12.7209
-12.7282
-12.6996
-12.694
-12.7044
-12.6787
-12.6675
-12.6797
-12.6583
-12.6415
-12.6543
-12.6378
-12.6166
-12.6279
-12.6173
-12.5925
-12.601
-12.5963
-12.5695
-12.5738
-12.5745
-12.5477
-12.5463
-12.5518
-12.5265
-12.5194
-12.528
-12.5061
-12.4931
-12.5029
-12.4861
-12.4676
-12.477
-12.4657
-12.4435
-12.4501
-12.445
-12.4206
-12.4228
-12.4234
-12.3988
-12.3956
-12.4004
-12.3783
-12.3687
-12.3763
-12.3581
-12.3429
-12.3507
-12.3381
-12.3184
-12.3241
-12.3178
-12.2952
-12.297
-12.2962
-12.2737
-12.2697
-12.2735
-12.2531
-12.243
-12.2493
-12.233
-12.2176
-12.2234
-12.2132
-12.1934
-12.1969
-12.1924
-12.1711
-12.1696
-12.1705
-12.1501
-12.1426
-12.1471
-12.1299
-12.1169
-12.1218
-12.1102
-12.0923
-12.0955
-12.0897
-12.0696
-12.0685
-12.068
-12.0486
-12.0415
-12.0448
-12.0284
-12.0158
-12.0197
-12.0086
-11.9915
-11.9933
-11.9882
-11.9689
-11.9666
-11.9661
-11.9483
-11.9398
-11.9427
-11.9281
-11.9146
-11.9172
-11.9082
-11.891
-11.8907
-11.8874
-11.8691
-11.8641
-11.8646
-11.8489
-11.838
-11.8404
-11.8289
-11.8136
-11.8144
-11.8085
-11.7913
-11.7876
-11.7868
-11.7703
-11.7616
-11.7629
-11.7505
-11.7367
-11.7375
-11.7303
-11.7138
-11.7111
-11.7087
-11.6928
-11.6847
-11.6855
-11.6726
-11.6599
-11.6602
-11.6526
-11.6369
-11.634
-11.6313
-11.6156
-11.608
-11.6079
-11.5957
-11.583
-11.583
-11.5754
-11.5602
-11.5568
-11.5539
-11.5392
-11.5308
-11.5307
-11.5189
-11.5064
-11.5053
-11.4988
-11.4837
-11.4794
-11.4769
-11.463
-11.4538
-11.4531
-11.4431
-11.4297
-11.4279
-11.4222
-11.4079
-11.4018
-11.4
-11.3874
-11.3768
-11.3757
-11.3672
-11.3537
-11.35
-11.3461
-11.3322
-11.3246
-11.3228
-11.3123
-11.3002
-11.2981
-11.2917
-11.278
-11.2724
-11.2696
-11.2575
-11.2473
-11.2457
-11.2371
-11.2244
-11.2202
-11.216
-11.203
-11.195
-11.1928
-11.1828
-11.1711
-11.1679
-11.1622
-11.149
-11.1427
-11.1397
-11.1288
-11.1181
-11.1155
-11.1083
-11.0956
-11.0903
-11.0865
-11.0749
-11.0654
-11.0629
-11.0545
-11.0426
-11.0378
-11.0333
-11.0213
-11.013
-11.0101
-11.001
-10.9896
-10.9853
-10.9801
-10.9679
-10.9605
-10.9571
-10.9478
-10.9367
-10.9328
-10.9268
-10.915
-10.9079
-10.9044
-10.8946
-10.884
-10.8803
-10.8737
-10.8623
-10.8553
-10.8517
-10.8416
-10.8315
-10.8275
-10.821
-10.8095
-10.8028
-10.7989
-10.7888
-10.7791
-10.7748
-10.7683
-10.7569
-10.7503
-10.7461
-10.7364
-10.7265
-10.7223
-10.7157
-10.7045
-10.6978
-10.6934
-10.684
-10.674
-10.6698
-10.6631
-10.6523
-10.6452
-10.641
-10.6317
-10.6218
-10.6171
-10.6108
-10.6003
-10.5927
-10.5886
-10.5795
-10.5697
-10.5645
-10.5587
-10.5482
-10.5404
-10.536
-10.5276
-10.5176
-10.5119
-10.5065
-10.4963
-10.4882
-10.4835
-10.4759
-10.4655
-10.4596
-10.4543
-10.4447
-10.4359
-10.4311
-10.4241
-10.4137
-10.4072
-10.4021
-10.3932
-10.3838
-10.3788
-10.3722
-10.3623
-10.3548
-10.35
-10.3417
-10.332
-10.3264
-10.3204
-10.3109
-10.3026
-10.2978
-10.2901
-10.2805
-10.274
-10.2687
-10.2596
-10.2507
-10.2456
-10.2387