/*--------------------------------*- C++ -*----------------------------------*\
  =========                 |
  \\      /  F ield         | OpenFOAM: The Open Source CFD Toolbox
   \\    /   O peration     | Website:  https://openfoam.org
    \\  /    A nd           | Version:  9
     \\/     M anipulation  |
\*---------------------------------------------------------------------------*/
FoamFile
{
    format      ascii;
    class       volScalarField;
    location    "0.015";
    object      mag(U);
}
// * * * * * * * * * * * * * * * * * * * * * * * * * * * * * * * * * * * * * //

dimensions      [0 1 -1 0 0 0 0];

internalField   nonuniform List<scalar> 
10000
(
0.763403
0.953088
1.01172
1.13881
1.23836
1.34362
1.45028
1.55606
1.66161
1.7673
1.87303
1.97876
2.08447
2.19019
2.29591
2.40163
2.50735
2.61307
2.71879
2.82451
2.93023
3.03596
3.14168
3.2474
3.35313
3.45885
3.56458
3.67031
3.77604
3.88176
3.98749
4.09322
4.19895
4.30468
4.41042
4.51615
4.62188
4.72762
4.83335
4.93909
5.04482
5.15056
5.2563
5.36203
5.46777
5.57351
5.67925
5.785
5.89074
5.99648
6.10222
6.20797
6.31371
6.41946
6.52521
6.63095
6.7367
6.84245
6.9482
7.05395
7.1597
7.26545
7.3712
7.47696
7.58271
7.68846
7.79422
7.89998
8.00573
8.11149
8.21725
8.32301
8.42877
8.53453
8.64029
8.74605
8.85181
8.95757
9.06334
9.1691
9.27487
9.38063
9.4864
9.59217
9.69793
9.8037
9.90947
10.0152
10.121
10.2268
10.3326
10.4383
10.5441
10.6499
10.7556
10.8614
10.9672
11.073
11.1788
11.2845
11.3903
11.4961
11.6019
11.7076
11.8134
11.9192
12.025
12.1308
12.2366
12.3423
12.4481
12.5539
12.6597
12.7655
12.8713
12.9771
13.0829
13.1886
13.2944
13.4002
13.506
13.6118
13.7176
13.8234
13.9292
14.035
14.1408
14.2466
14.3524
14.4582
14.564
14.6698
14.7756
14.8814
14.9872
15.093
15.1988
15.3046
15.4104
15.5162
15.622
15.7278
15.8336
15.9394
16.0452
16.151
16.2568
16.3626
16.4684
16.5742
16.68
16.7858
16.8916
16.9974
17.1033
17.2091
17.3149
17.4207
17.5265
17.6323
17.7381
17.8439
17.9498
18.0556
18.1614
18.2672
18.373
18.4788
18.5847
18.6905
18.7963
18.9021
19.0079
19.1138
19.2196
19.3254
19.4312
19.537
19.6429
19.7487
19.8545
19.9603
20.0662
20.172
20.2778
20.3836
20.4895
20.5953
20.7011
20.8069
20.9128
21.0186
21.1244
21.2302
21.3361
21.4419
21.5477
21.6536
21.7594
21.8652
21.9711
22.0769
22.1827
22.2886
22.3944
22.5002
22.6061
22.7119
22.8177
22.9236
23.0294
23.1352
23.2411
23.3469
23.4527
23.5586
23.6644
23.7703
23.8761
23.9819
24.0878
24.1936
24.2994
24.4053
24.5111
24.617
24.7228
24.8286
24.9345
25.0403
25.1462
25.252
25.3579
25.4637
25.5695
25.6754
25.7812
25.8871
25.9929
26.0987
26.2046
26.3104
26.4163
26.5221
26.628
26.7338
26.8397
26.9455
27.0513
27.1572
27.263
27.3689
27.4747
27.5806
27.6864
27.7923
27.8981
28.004
28.1098
28.2157
28.3215
28.4273
28.5332
28.639
28.7449
28.8507
28.9566
29.0624
29.1683
29.2741
29.38
29.4858
29.5917
29.6975
29.8034
29.9092
30.0151
30.1209
30.2267
30.3326
30.4384
30.5443
30.6501
30.756
30.8618
30.9677
31.0735
31.1794
31.2852
31.3911
31.4969
31.6028
31.7086
31.8145
31.9203
32.0261
32.132
32.2378
32.3437
32.4495
32.5554
32.6612
32.7671
32.8729
32.9788
33.0846
33.1904
33.2963
33.4021
33.508
33.6138
33.7197
33.8255
33.9313
34.0372
34.143
34.2489
34.3547
34.4605
34.5664
34.6722
34.7781
34.8839
34.9897
35.0956
35.2014
35.3073
35.4131
35.5189
35.6248
35.7306
35.8364
35.9423
36.0481
36.1539
36.2598
36.3656
36.4714
36.5773
36.6831
36.7889
36.8947
37.0006
37.1064
37.2122
37.3181
37.4239
37.5297
37.6355
37.7413
37.8472
37.953
38.0588
38.1646
38.2704
38.3763
38.4821
38.5879
38.6937
38.7995
38.9053
39.0112
39.117
39.2228
39.3286
39.4344
39.5402
39.646
39.7518
39.8576
39.9634
40.0692
40.175
40.2808
40.3866
40.4924
40.5982
40.704
40.8098
40.9156
41.0214
41.1272
41.233
41.3388
41.4445
41.5503
41.6561
41.7619
41.8677
41.9735
42.0792
42.185
42.2908
42.3966
42.5023
42.6081
42.7139
42.8196
42.9254
43.0312
43.1369
43.2427
43.3484
43.4542
43.5599
43.6657
43.7714
43.8772
43.9829
44.0887
44.1944
44.3002
44.4059
44.5116
44.6174
44.7231
44.8288
44.9345
45.0403
45.146
45.2517
45.3574
45.4631
45.5689
45.6746
45.7803
45.886
45.9917
46.0974
46.2031
46.3088
46.4145
46.5202
46.6258
46.7315
46.8372
46.9429
47.0486
47.1542
47.2599
47.3656
47.4712
47.5769
47.6826
47.7882
47.8939
47.9995
48.1052
48.2108
48.3164
48.4221
48.5277
48.6333
48.739
48.8446
48.9502
49.0558
49.1614
49.267
49.3726
49.4782
49.5838
49.6894
49.795
49.9006
50.0062
50.1118
50.2173
50.3229
50.4285
50.534
50.6396
50.7451
50.8507
50.9562
51.0618
51.1673
51.2728
51.3784
51.4839
51.5894
51.6949
51.8004
51.9059
52.0114
52.1169
52.2224
52.3279
52.4333
52.5388
52.6443
52.7497
52.8552
52.9607
53.0661
53.1715
53.277
53.3824
53.4878
53.5932
53.6987
53.8041
53.9095
54.0149
54.1203
54.2256
54.331
54.4364
54.5417
54.6471
54.7525
54.8578
54.9631
55.0685
55.1738
55.2791
55.3844
55.4897
55.595
55.7003
55.8056
55.9109
56.0161
56.1214
56.2266
56.3319
56.4371
56.5424
56.6476
56.7528
56.858
56.9632
57.0684
57.1736
57.2787
57.3839
57.489
57.5942
57.6993
57.8044
57.9095
58.0147
58.1197
58.2248
58.3299
58.435
58.54
58.6451
58.7501
58.8551
58.9601
59.0651
59.1701
59.2751
59.38
59.485
59.5899
59.6948
59.7997
59.9046
60.0095
60.1144
60.2192
60.3241
60.4289
60.5337
60.6385
60.7433
60.848
60.9528
61.0575
61.1622
61.2669
61.3716
61.4762
61.5808
61.6855
61.7901
61.8946
61.9992
62.1037
62.2082
62.3127
62.4172
62.5216
62.626
62.7304
62.8347
62.9391
63.0434
63.1477
63.2519
63.3561
63.4603
63.5645
63.6686
63.7727
63.8767
63.9807
64.0847
64.1886
64.2925
64.3964
64.5002
64.604
64.7077
64.8114
64.915
65.0186
65.1221
65.2255
65.3289
65.4323
65.5356
65.6388
65.742
65.8451
65.9481
66.051
66.1539
66.2567
66.3594
66.462
66.5646
66.667
66.7693
66.8716
66.9737
67.0757
67.1776
67.2794
67.3811
67.4826
67.584
67.6853
67.7864
67.8873
67.9881
68.0887
68.1891
68.2893
68.3893
68.4891
68.5887
68.6881
68.7872
68.886
68.9846
69.0829
69.181
69.2787
69.376
69.4731
69.5698
69.6661
69.762
69.8575
69.9525
70.0471
70.1413
70.2349
70.3281
70.4206
70.5127
70.6041
70.695
70.7852
70.8747
70.9636
71.0518
71.1393
71.2261
71.3121
71.3973
71.4817
71.5653
71.6481
71.73
71.8111
71.8913
71.9707
72.0491
72.1267
72.2034
72.2793
72.3542
72.4283
72.5015
72.5738
72.6453
72.716
72.7858
72.8549
72.9232
72.9907
73.0574
73.1235
73.1889
73.2536
73.3177
73.3811
73.444
73.5064
73.5682
73.6295
73.6903
73.7507
73.8107
73.8703
73.9296
73.9885
74.0471
74.1054
74.1635
74.2212
74.2788
74.3362
74.3933
74.4503
74.5072
74.5638
74.6204
74.6768
74.7332
74.7894
74.8455
74.9016
74.9576
75.0136
75.0694
75.1253
75.181
75.2368
75.2925
75.3482
75.4038
75.4595
75.5151
75.5707
75.6263
75.6818
75.7374
75.7929
75.8484
75.904
75.9595
76.015
76.0705
76.126
76.1815
76.237
76.2925
76.348
76.4034
76.4589
76.5144
76.5699
76.6254
76.6808
76.7363
76.7918
76.8473
76.9028
76.9582
77.0137
77.0692
77.1247
77.1801
77.2356
77.2911
77.3466
77.402
77.4575
77.513
77.5685
77.6239
77.6794
77.7349
77.7904
77.8458
77.9013
77.9568
78.0122
78.0677
78.1232
78.1787
78.2341
78.2896
78.3451
78.4006
78.456
78.5115
78.567
78.6225
78.6779
78.7334
78.7889
78.8444
78.8998
78.9553
79.0108
79.0663
79.1217
79.1772
79.2327
79.2882
79.3436
79.3991
79.4546
79.5101
79.5655
79.621
79.6765
79.732
79.7874
79.8429
79.8984
79.9539
80.0093
80.0648
80.1203
80.1758
80.2313
80.2867
80.3422
80.3977
80.4532
80.5086
80.5641
80.6196
80.6751
80.7305
80.786
80.8415
80.897
80.9524
81.0079
81.0634
81.1189
81.1743
81.2298
81.2853
81.3408
81.3962
81.4517
81.5072
81.5627
81.6181
81.6736
81.7291
81.7846
81.8401
81.8955
81.951
82.0065
82.062
82.1174
82.1729
82.2284
82.2839
82.3393
82.3948
82.4503
82.5058
82.5612
82.6167
82.6722
82.7277
82.7832
82.8386
82.8941
82.9496
83.0051
83.0605
83.116
83.1715
83.227
83.2824
83.3379
83.3934
83.4489
83.5044
83.5598
83.6153
83.6708
83.7263
83.7817
83.8372
83.8927
83.9482
84.0036
84.0591
84.1146
84.1701
84.2256
84.281
84.3365
84.392
84.4475
84.5029
84.5584
84.6139
84.6694
84.7249
84.7803
84.8358
84.8913
84.9468
85.0022
85.0577
85.1132
85.1687
85.2242
85.2796
85.3351
85.3906
85.4461
85.5015
85.557
85.6125
85.668
85.7235
85.7789
85.8344
85.8899
85.9454
86.0008
86.0563
86.1118
86.1673
86.2228
86.2782
86.3337
86.3892
86.4447
86.5001
86.5556
86.6111
86.6666
86.7221
86.7775
86.833
86.8885
86.944
86.9995
87.0549
87.1104
87.1659
87.2214
87.2768
87.3323
87.3878
87.4433
87.4988
87.5542
87.6097
87.6652
87.7207
87.7762
87.8316
87.8871
87.9426
87.9981
88.0535
88.109
88.1645
88.22
88.2755
88.3309
88.3864
88.4419
88.4974
88.5529
88.6083
88.6638
88.7193
88.7748
88.8303
88.8857
88.9412
88.9967
89.0522
89.1076
89.1631
89.2186
89.2741
89.3296
89.385
89.4405
89.496
89.5515
89.607
89.6624
89.7179
89.7734
89.8289
89.8844
89.9398
89.9953
90.0508
90.1063
90.1618
90.2172
90.2727
90.3282
90.3837
90.4392
90.4946
90.5501
90.6056
90.6611
90.7165
90.772
90.8275
90.883
90.9385
90.9939
91.0494
91.1049
91.1604
91.2159
91.2713
91.3268
91.3823
91.4378
91.4933
91.5487
91.6042
91.6597
91.7152
91.7707
91.8261
91.8816
91.9371
91.9926
92.0481
92.1035
92.159
92.2145
92.27
92.3255
92.3809
92.4364
92.4919
92.5474
92.6029
92.6583
92.7138
92.7693
92.8248
92.8803
92.9357
92.9912
93.0467
93.1022
93.1577
93.2131
93.2686
93.3241
93.3796
93.4351
93.4905
93.546
93.6015
93.657
93.7125
93.768
93.8234
93.8789
93.9344
93.9899
94.0454
94.1008
94.1563
94.2118
94.2673
94.3228
94.3782
94.4337
94.4892
94.5447
94.6002
94.6556
94.7111
94.7666
94.8221
94.8776
94.933
94.9885
95.044
95.0995
95.155
95.2104
95.2659
95.3214
95.3769
95.4324
95.4879
95.5433
95.5988
95.6543
95.7098
95.7653
95.8207
95.8762
95.9317
95.9872
96.0427
96.0981
96.1536
96.2091
96.2646
96.3201
96.3756
96.431
96.4865
96.542
96.5975
96.653
96.7084
96.7639
96.8194
96.8749
96.9304
96.9858
97.0413
97.0968
97.1523
97.2078
97.2632
97.3187
97.3742
97.4297
97.4852
97.5407
97.5961
97.6516
97.7071
97.7626
97.8181
97.8735
97.929
97.9845
98.04
98.0955
98.151
98.2064
98.2619
98.3174
98.3729
98.4284
98.4838
98.5393
98.5948
98.6503
98.7058
98.7612
98.8167
98.8722
98.9277
98.9832
99.0387
99.0941
99.1496
99.2051
99.2606
99.3161
99.3715
99.427
99.4825
99.538
99.5935
99.649
99.7044
99.7599
99.8154
99.8709
99.9264
99.9818
100.037
100.093
100.148
100.204
100.259
100.315
100.37
100.426
100.481
100.537
100.592
100.648
100.703
100.759
100.814
100.87
100.925
100.981
101.036
101.091
101.147
101.202
101.258
101.313
101.369
101.424
101.48
101.535
101.591
101.646
101.702
101.757
101.813
101.868
101.924
101.979
102.035
102.09
102.146
102.201
102.257
102.312
102.368
102.423
102.479
102.534
102.59
102.645
102.7
102.756
102.811
102.867
102.922
102.978
103.033
103.089
103.144
103.2
103.255
103.311
103.366
103.422
103.477
103.533
103.588
103.644
103.699
103.755
103.81
103.866
103.921
103.977
104.032
104.088
104.143
104.198
104.254
104.309
104.365
104.42
104.476
104.531
104.587
104.642
104.698
104.753
104.809
104.864
104.92
104.975
105.031
105.086
105.142
105.197
105.253
105.308
105.364
105.419
105.475
105.53
105.586
105.641
105.697
105.752
105.807
105.863
105.918
105.974
106.029
106.085
106.14
106.196
106.251
106.307
106.362
106.418
106.473
106.529
106.584
106.64
106.695
106.751
106.806
106.862
106.917
106.973
107.028
107.084
107.139
107.195
107.25
107.306
107.361
107.416
107.472
107.527
107.583
107.638
107.694
107.749
107.805
107.86
107.916
107.971
108.027
108.082
108.138
108.193
108.249
108.304
108.36
108.415
108.471
108.526
108.582
108.637
108.693
108.748
108.804
108.859
108.915
108.97
109.025
109.081
109.136
109.192
109.247
109.303
109.358
109.414
109.469
109.525
109.58
109.636
109.691
109.747
109.802
109.858
109.913
109.969
110.024
110.08
110.135
110.191
110.246
110.302
110.357
110.413
110.468
110.524
110.579
110.635
110.69
110.745
110.801
110.856
110.912
110.967
111.023
111.078
111.134
111.189
111.245
111.3
111.356
111.411
111.467
111.522
111.578
111.633
111.689
111.744
111.8
111.855
111.911
111.966
112.022
112.077
112.133
112.188
112.244
112.299
112.354
112.41
112.465
112.521
112.576
112.632
112.687
112.743
112.798
112.854
112.909
112.965
113.02
113.076
113.131
113.187
113.242
113.298
113.353
113.409
113.464
113.52
113.575
113.631
113.686
113.742
113.797
113.853
113.908
113.964
114.019
114.074
114.13
114.185
114.241
114.296
114.352
114.407
114.463
114.518
114.574
114.629
114.685
114.74
114.796
114.851
114.907
114.962
115.018
115.073
115.129
115.184
115.24
115.295
115.351
115.406
115.462
115.517
115.573
115.628
115.683
115.739
115.794
115.85
115.905
115.961
116.016
116.072
116.127
116.183
116.238
116.294
116.349
116.405
116.46
116.516
116.571
116.627
116.682
116.738
116.793
116.849
116.904
116.96
117.015
117.071
117.126
117.182
117.237
117.293
117.348
117.403
117.459
117.514
117.57
117.625
117.681
117.736
117.792
117.847
117.903
117.958
118.014
118.069
118.125
118.18
118.236
118.291
118.347
118.402
118.458
118.513
118.569
118.624
118.68
118.735
118.791
118.846
118.902
118.957
119.013
119.068
119.123
119.179
119.234
119.29
119.345
119.401
119.456
119.512
119.567
119.623
119.678
119.734
119.789
119.845
119.9
119.956
120.011
120.067
120.122
120.178
120.233
120.289
120.344
120.4
120.455
120.511
120.566
120.622
120.677
120.732
120.788
120.843
120.899
120.954
121.01
121.065
121.121
121.176
121.232
121.287
121.343
121.398
121.454
121.509
121.565
121.62
121.676
121.731
121.787
121.842
121.898
121.953
122.009
122.064
122.12
122.175
122.231
122.286
122.342
122.397
122.452
122.508
122.563
122.619
122.674
122.73
122.785
122.841
122.896
122.952
123.007
123.063
123.118
123.174
123.229
123.285
123.34
123.396
123.451
123.507
123.562
123.618
123.673
123.729
123.784
123.84
123.895
123.951
124.006
124.062
124.117
124.172
124.228
124.283
124.339
124.394
124.45
124.505
124.561
124.616
124.672
124.727
124.783
124.838
124.894
124.949
125.005
125.06
125.116
125.171
125.227
125.282
125.338
125.393
125.449
125.504
125.56
125.615
125.671
125.726
125.781
125.837
125.892
125.948
126.003
126.059
126.114
126.17
126.225
126.281
126.336
126.392
126.447
126.503
126.558
126.614
126.669
126.725
126.78
126.836
126.891
126.947
127.002
127.058
127.113
127.169
127.224
127.28
127.335
127.391
127.446
127.501
127.557
127.612
127.668
127.723
127.779
127.834
127.89
127.945
128.001
128.056
128.112
128.167
128.223
128.278
128.334
128.389
128.445
128.5
128.556
128.611
128.667
128.722
128.778
128.833
128.889
128.944
129
129.055
129.11
129.166
129.221
129.277
129.332
129.388
129.443
129.499
129.554
129.61
129.665
129.721
129.776
129.832
129.887
129.943
129.998
130.054
130.109
130.165
130.22
130.276
130.331
130.387
130.442
130.498
130.553
130.609
130.664
130.719
130.775
130.83
130.886
130.941
130.997
131.052
131.108
131.163
131.219
131.274
131.33
131.385
131.441
131.496
131.552
131.607
131.663
131.718
131.774
131.829
131.885
131.94
131.996
132.051
132.107
132.162
132.218
132.273
132.329
132.384
132.439
132.495
132.55
132.606
132.661
132.717
132.772
132.828
132.883
132.939
132.994
133.05
133.105
133.161
133.216
133.272
133.327
133.383
133.438
133.494
133.549
133.605
133.66
133.716
133.771
133.827
133.882
133.938
133.993
134.048
134.104
134.159
134.215
134.27
134.326
134.381
134.437
134.492
134.548
134.603
134.659
134.714
134.77
134.825
134.881
134.936
134.992
135.047
135.103
135.158
135.214
135.269
135.325
135.38
135.436
135.491
135.547
135.602
135.657
135.713
135.768
135.824
135.879
135.935
135.99
136.046
136.101
136.157
136.212
136.268
136.323
136.379
136.434
136.49
136.545
136.601
136.656
136.712
136.767
136.823
136.878
136.934
136.989
137.045
137.1
137.155
137.211
137.266
137.322
137.377
137.433
137.488
137.544
137.599
137.655
137.71
137.766
137.821
137.877
137.932
137.988
138.043
138.099
138.154
138.21
138.265
138.321
138.376
138.432
138.487
138.543
138.598
138.654
138.709
138.764
138.82
138.875
138.931
138.986
139.042
139.097
139.153
139.208
139.264
139.319
139.375
139.43
139.486
139.541
139.597
139.652
139.708
139.763
139.819
139.874
139.93
139.985
140.041
140.096
140.152
140.207
140.262
140.318
140.373
140.429
140.484
140.54
140.595
140.651
140.706
140.762
140.817
140.873
140.928
140.984
141.039
141.095
141.15
141.206
141.261
141.317
141.372
141.428
141.483
141.539
141.594
141.65
141.705
141.761
141.816
141.871
141.927
141.982
142.038
142.093
142.149
142.204
142.26
142.315
142.371
142.426
142.482
142.537
142.593
142.648
142.704
142.759
142.815
142.87
142.926
142.981
143.037
143.092
143.148
143.203
143.259
143.314
143.369
143.425
143.48
143.536
143.591
143.647
143.702
143.758
143.813
143.869
143.924
143.98
144.035
144.091
144.146
144.202
144.257
144.313
144.368
144.424
144.479
144.535
144.59
144.646
144.701
144.756
144.812
144.867
144.923
144.978
145.034
145.089
145.145
145.2
145.256
145.311
145.367
145.422
145.478
145.533
145.589
145.644
145.7
145.755
145.811
145.866
145.922
145.977
146.033
146.088
146.144
146.199
146.254
146.31
146.365
146.421
146.476
146.532
146.587
146.643
146.698
146.754
146.809
146.865
146.92
146.976
147.031
147.087
147.142
147.198
147.253
147.309
147.364
147.42
147.475
147.531
147.586
147.642
147.697
147.752
147.808
147.863
147.919
147.974
148.03
148.085
148.141
148.196
148.252
148.307
148.363
148.418
148.474
148.529
148.585
148.64
148.696
148.751
148.807
148.862
148.918
148.973
149.029
149.084
149.139
149.195
149.25
149.306
149.361
149.417
149.472
149.528
149.583
149.639
149.694
149.75
149.805
149.861
149.916
149.972
150.027
150.083
150.138
150.194
150.249
150.305
150.36
150.416
150.471
150.526
150.582
150.637
150.693
150.748
150.804
150.859
150.915
150.97
151.026
151.081
151.137
151.192
151.248
151.303
151.359
151.414
151.47
151.525
151.581
151.636
151.692
151.747
151.803
151.858
151.913
151.969
152.024
152.08
152.135
152.191
152.246
152.302
152.357
152.413
152.468
152.524
152.579
152.635
152.69
152.746
152.801
152.857
152.912
152.968
153.023
153.079
153.134
153.189
153.245
153.3
153.356
153.411
153.467
153.522
153.578
153.633
153.689
153.744
153.8
153.855
153.911
153.966
154.022
154.077
154.133
154.188
154.244
154.299
154.355
154.41
154.466
154.521
154.576
154.632
154.687
154.743
154.798
154.854
154.909
154.965
155.02
155.076
155.131
155.187
155.242
155.298
155.353
155.409
155.464
155.52
155.575
155.631
155.686
155.742
155.797
155.852
155.908
155.963
156.019
156.074
156.13
156.185
156.241
156.296
156.352
156.407
156.463
156.518
156.574
156.629
156.685
156.74
156.796
156.851
156.907
156.962
157.018
157.073
157.128
157.184
157.239
157.295
157.35
157.406
157.461
157.517
157.572
157.628
157.683
157.739
157.794
157.85
157.905
157.961
158.016
158.072
158.127
158.183
158.238
158.294
158.349
158.404
158.46
158.515
158.571
158.626
158.682
158.737
158.793
158.848
158.904
158.959
159.015
159.07
159.126
159.181
159.237
159.292
159.348
159.403
159.459
159.514
159.569
159.625
159.68
159.736
159.791
159.847
159.902
159.958
160.013
160.069
160.124
160.18
160.235
160.291
160.346
160.402
160.457
160.513
160.568
160.624
160.679
160.735
160.79
160.845
160.901
160.956
161.012
161.067
161.123
161.178
161.234
161.289
161.345
161.4
161.456
161.511
161.567
161.622
161.678
161.733
161.789
161.844
161.9
161.955
162.01
162.066
162.121
162.177
162.232
162.288
162.343
162.399
162.454
162.51
162.565
162.621
162.676
162.732
162.787
162.843
162.898
162.954
163.009
163.065
163.12
163.175
163.231
163.286
163.342
163.397
163.453
163.508
163.564
163.619
163.675
163.73
163.786
163.841
163.897
163.952
164.008
164.063
164.119
164.174
164.23
164.285
164.34
164.396
164.451
164.507
164.562
164.618
164.673
164.729
164.784
164.84
164.895
164.951
165.006
165.062
165.117
165.173
165.228
165.284
165.339
165.395
165.45
165.505
165.561
165.616
165.672
165.727
165.783
165.838
165.894
165.949
166.005
166.06
166.116
166.171
166.227
166.282
166.338
166.393
166.449
166.504
166.559
166.615
166.67
166.726
166.781
166.837
166.892
166.948
167.003
167.059
167.114
167.17
167.225
167.281
167.336
167.392
167.447
167.503
167.558
167.613
167.669
167.724
167.78
167.835
167.891
167.946
168.002
168.057
168.113
168.168
168.224
168.279
168.335
168.39
168.446
168.501
168.557
168.612
168.667
168.723
168.778
168.834
168.889
168.945
169
169.056
169.111
169.167
169.222
169.278
169.333
169.389
169.444
169.5
169.555
169.611
169.666
169.721
169.777
169.832
169.888
169.943
169.999
170.054
170.11
170.165
170.221
170.276
170.332
170.387
170.443
170.498
170.554
170.609
170.665
170.72
170.775
170.831
170.886
170.942
170.997
171.053
171.108
171.164
171.219
171.275
171.33
171.386
171.441
171.497
171.552
171.608
171.663
171.719
171.774
171.829
171.885
171.94
171.996
172.051
172.107
172.162
172.218
172.273
172.329
172.384
172.44
172.495
172.551
172.606
172.662
172.717
172.772
172.828
172.883
172.939
172.994
173.05
173.105
173.161
173.216
173.272
173.327
173.383
173.438
173.494
173.549
173.605
173.66
173.716
173.771
173.826
173.882
173.937
173.993
174.048
174.104
174.159
174.215
174.27
174.326
174.381
174.437
174.492
174.548
174.603
174.659
174.714
174.769
174.825
174.88
174.936
174.991
175.047
175.102
175.158
175.213
175.269
175.324
175.38
175.435
175.491
175.546
175.602
175.657
175.712
175.768
175.823
175.879
175.934
175.99
176.045
176.101
176.156
176.212
176.267
176.323
176.378
176.434
176.489
176.545
176.6
176.655
176.711
176.766
176.822
176.877
176.933
176.988
177.044
177.099
177.155
177.21
177.266
177.321
177.377
177.432
177.488
177.543
177.598
177.654
177.709
177.765
177.82
177.876
177.931
177.987
178.042
178.098
178.153
178.209
178.264
178.32
178.375
178.43
178.486
178.541
178.597
178.652
178.708
178.763
178.819
178.874
178.93
178.985
179.041
179.096
179.152
179.207
179.263
179.318
179.373
179.429
179.484
179.54
179.595
179.651
179.706
179.762
179.817
179.873
179.928
179.984
180.039
180.095
180.15
180.205
180.261
180.316
180.372
180.427
180.483
180.538
180.594
180.649
180.705
180.76
180.816
180.871
180.927
180.982
181.037
181.093
181.148
181.204
181.259
181.315
181.37
181.426
181.481
181.537
181.592
181.648
181.703
181.759
181.814
181.87
181.925
181.98
182.036
182.091
182.147
182.202
182.258
182.313
182.369
182.424
182.48
182.535
182.591
182.646
182.702
182.757
182.812
182.868
182.923
182.979
183.034
183.09
183.145
183.201
183.256
183.312
183.367
183.423
183.478
183.533
183.589
183.644
183.7
183.755
183.811
183.866
183.922
183.977
184.033
184.088
184.144
184.199
184.255
184.31
184.365
184.421
184.476
184.532
184.587
184.643
184.698
184.754
184.809
184.865
184.92
184.976
185.031
185.087
185.142
185.197
185.253
185.308
185.364
185.419
185.475
185.53
185.586
185.641
185.697
185.752
185.808
185.863
185.918
185.974
186.029
186.085
186.14
186.196
186.251
186.307
186.362
186.418
186.473
186.529
186.584
186.64
186.695
186.75
186.806
186.861
186.917
186.972
187.028
187.083
187.139
187.194
187.25
187.305
187.361
187.416
187.471
187.527
187.582
187.638
187.693
187.749
187.804
187.86
187.915
187.971
188.026
188.082
188.137
188.192
188.248
188.303
188.359
188.414
188.47
188.525
188.581
188.636
188.692
188.747
188.803
188.858
188.914
188.969
189.024
189.08
189.135
189.191
189.246
189.302
189.357
189.413
189.468
189.524
189.579
189.635
189.69
189.745
189.801
189.856
189.912
189.967
190.023
190.078
190.134
190.189
190.245
190.3
190.356
190.411
190.466
190.522
190.577
190.633
190.688
190.744
190.799
190.855
190.91
190.966
191.021
191.076
191.132
191.187
191.243
191.298
191.354
191.409
191.465
191.52
191.576
191.631
191.687
191.742
191.797
191.853
191.908
191.964
192.019
192.075
192.13
192.186
192.241
192.297
192.352
192.408
192.463
192.518
192.574
192.629
192.685
192.74
192.796
192.851
192.907
192.962
193.018
193.073
193.128
193.184
193.239
193.295
193.35
193.406
193.461
193.517
193.572
193.628
193.683
193.739
193.794
193.849
193.905
193.96
194.016
194.071
194.127
194.182
194.238
194.293
194.349
194.404
194.459
194.515
194.57
194.626
194.681
194.737
194.792
194.848
194.903
194.959
195.014
195.07
195.125
195.18
195.236
195.291
195.347
195.402
195.458
195.513
195.569
195.624
195.68
195.735
195.79
195.846
195.901
195.957
196.012
196.068
196.123
196.179
196.234
196.29
196.345
196.4
196.456
196.511
196.567
196.622
196.678
196.733
196.789
196.844
196.9
196.955
197.01
197.066
197.121
197.177
197.232
197.288
197.343
197.399
197.454
197.51
197.565
197.62
197.676
197.731
197.787
197.842
197.898
197.953
198.009
198.064
198.12
198.175
198.23
198.286
198.341
198.397
198.452
198.508
198.563
198.619
198.674
198.73
198.785
198.84
198.896
198.951
199.007
199.062
199.118
199.173
199.229
199.284
199.34
199.395
199.45
199.506
199.561
199.617
199.672
199.728
199.783
199.839
199.894
199.95
200.005
200.06
200.116
200.171
200.227
200.282
200.338
200.393
200.449
200.504
200.559
200.615
200.67
200.726
200.781
200.837
200.892
200.948
201.003
201.059
201.114
201.169
201.225
201.28
201.336
201.391
201.447
201.502
201.558
201.613
201.668
201.724
201.779
201.835
201.89
201.946
202.001
202.057
202.112
202.168
202.223
202.278
202.334
202.389
202.445
202.5
202.556
202.611
202.667
202.722
202.777
202.833
202.888
202.944
202.999
203.055
203.11
203.166
203.221
203.277
203.332
203.387
203.443
203.498
203.554
203.609
203.665
203.72
203.776
203.831
203.886
203.942
203.997
204.053
204.108
204.164
204.219
204.275
204.33
204.385
204.441
204.496
204.552
204.607
204.663
204.718
204.774
204.829
204.884
204.94
204.995
205.051
205.106
205.162
205.217
205.273
205.328
205.383
205.439
205.494
205.55
205.605
205.661
205.716
205.772
205.827
205.882
205.938
205.993
206.049
206.104
206.16
206.215
206.271
206.326
206.381
206.437
206.492
206.548
206.603
206.659
206.714
206.77
206.825
206.88
206.936
206.991
207.047
207.102
207.158
207.213
207.269
207.324
207.379
207.435
207.49
207.546
207.601
207.657
207.712
207.768
207.823
207.878
207.934
207.989
208.045
208.1
208.156
208.211
208.267
208.322
208.377
208.433
208.488
208.544
208.599
208.655
208.71
208.766
208.821
208.876
208.932
208.987
209.043
209.098
209.154
209.209
209.264
209.32
209.375
209.431
209.486
209.542
209.597
209.653
209.708
209.763
209.819
209.874
209.93
209.985
210.041
210.096
210.151
210.207
210.262
210.318
210.373
210.429
210.484
210.54
210.595
210.65
210.706
210.761
210.817
210.872
210.928
210.983
211.039
211.094
211.149
211.205
211.26
211.316
211.371
211.427
211.482
211.537
211.593
211.648
211.704
211.759
211.815
211.87
211.925
211.981
212.036
212.092
212.147
212.203
212.258
212.314
212.369
212.424
212.48
212.535
212.591
212.646
212.702
212.757
212.812
212.868
212.923
212.979
213.034
213.09
213.145
213.2
213.256
213.311
213.367
213.422
213.478
213.533
213.589
213.644
213.699
213.755
213.81
213.866
213.921
213.977
214.032
214.087
214.143
214.198
214.254
214.309
214.365
214.42
214.475
214.531
214.586
214.642
214.697
214.753
214.808
214.863
214.919
214.974
215.03
215.085
215.141
215.196
215.251
215.307
215.362
215.418
215.473
215.529
215.584
215.639
215.695
215.75
215.806
215.861
215.917
215.972
216.027
216.083
216.138
216.194
216.249
216.305
216.36
216.415
216.471
216.526
216.582
216.637
216.693
216.748
216.803
216.859
216.914
216.97
217.025
217.081
217.136
217.191
217.247
217.302
217.358
217.413
217.469
217.524
217.579
217.635
217.69
217.746
217.801
217.857
217.912
217.967
218.023
218.078
218.134
218.189
218.244
218.3
218.355
218.411
218.466
218.522
218.577
218.632
218.688
218.743
218.799
218.854
218.91
218.965
219.02
219.076
219.131
219.187
219.242
219.297
219.353
219.408
219.464
219.519
219.575
219.63
219.685
219.741
219.796
219.852
219.907
219.963
220.018
220.073
220.129
220.184
220.24
220.295
220.35
220.406
220.461
220.517
220.572
220.628
220.683
220.738
220.794
220.849
220.905
220.96
221.015
221.071
221.126
221.182
221.237
221.293
221.348
221.403
221.459
221.514
221.57
221.625
221.68
221.736
221.791
221.847
221.902
221.958
222.013
222.068
222.124
222.179
222.235
222.29
222.345
222.401
222.456
222.512
222.567
222.623
222.678
222.733
222.789
222.844
222.9
222.955
223.01
223.066
223.121
223.177
223.232
223.287
223.343
223.398
223.454
223.509
223.565
223.62
223.675
223.731
223.786
223.842
223.897
223.952
224.008
224.063
224.119
224.174
224.229
224.285
224.34
224.396
224.451
224.506
224.562
224.617
224.673
224.728
224.784
224.839
224.894
224.95
225.005
225.061
225.116
225.171
225.227
225.282
225.338
225.393
225.448
225.504
225.559
225.615
225.67
225.725
225.781
225.836
225.892
225.947
226.002
226.058
226.113
226.169
226.224
226.279
226.335
226.39
226.446
226.501
226.556
226.612
226.667
226.723
226.778
226.833
226.889
226.944
227
227.055
227.11
227.166
227.221
227.277
227.332
227.387
227.443
227.498
227.554
227.609
227.664
227.72
227.775
227.831
227.886
227.941
227.997
228.052
228.108
228.163
228.218
228.274
228.329
228.385
228.44
228.495
228.551
228.606
228.662
228.717
228.772
228.828
228.883
228.939
228.994
229.049
229.105
229.16
229.216
229.271
229.326
229.382
229.437
229.493
229.548
229.603
229.659
229.714
229.769
229.825
229.88
229.936
229.991
230.046
230.102
230.157
230.213
230.268
230.323
230.379
230.434
230.49
230.545
230.6
230.656
230.711
230.766
230.822
230.877
230.933
230.988
231.043
231.099
231.154
231.21
231.265
231.32
231.376
231.431
231.487
231.542
231.597
231.653
231.708
231.763
231.819
231.874
231.93
231.985
232.04
232.096
232.151
232.207
232.262
232.317
232.373
232.428
232.483
232.539
232.594
232.65
232.705
232.76
232.816
232.871
232.926
232.982
233.037
233.093
233.148
233.203
233.259
233.314
233.369
233.425
233.48
233.536
233.591
233.646
233.702
233.757
233.812
233.868
233.923
233.979
234.034
234.089
234.145
234.2
234.255
234.311
234.366
234.422
234.477
234.532
234.588
234.643
234.698
234.754
234.809
234.865
234.92
234.975
235.031
235.086
235.141
235.197
235.252
235.308
235.363
235.418
235.474
235.529
235.584
235.64
235.695
235.75
235.806
235.861
235.917
235.972
236.027
236.083
236.138
236.193
236.249
236.304
236.359
236.415
236.47
236.526
236.581
236.636
236.692
236.747
236.802
236.858
236.913
236.968
237.024
237.079
237.135
237.19
237.245
237.301
237.356
237.411
237.467
237.522
237.577
237.633
237.688
237.743
237.799
237.854
237.91
237.965
238.02
238.076
238.131
238.186
238.242
238.297
238.352
238.408
238.463
238.518
238.574
238.629
238.684
238.74
238.795
238.851
238.906
238.961
239.017
239.072
239.127
239.183
239.238
239.293
239.349
239.404
239.459
239.515
239.57
239.625
239.681
239.736
239.791
239.847
239.902
239.957
240.013
240.068
240.123
240.179
240.234
240.289
240.345
240.4
240.456
240.511
240.566
240.622
240.677
240.732
240.788
240.843