/*--------------------------------*- C++ -*----------------------------------*\
  =========                 |
  \\      /  F ield         | OpenFOAM: The Open Source CFD Toolbox
   \\    /   O peration     | Website:  https://openfoam.org
    \\  /    A nd           | Version:  9
     \\/     M anipulation  |
\*---------------------------------------------------------------------------*/
FoamFile
{
    format      ascii;
    class       volScalarField;
    location    "0.015";
    object      p_0;
}
// * * * * * * * * * * * * * * * * * * * * * * * * * * * * * * * * * * * * * //

dimensions      [1 -1 -2 0 0 0 0];

internalField   nonuniform List<scalar> 
10000
(
76644
76643.4
76643.2
76642.8
76642.5
76642.2
76641.9
76641.5
76641.2
76640.8
76640.5
76640.2
76639.8
76639.5
76639.1
76638.8
76638.4
76638.1
76637.7
76637.4
76637
76636.6
76636.3
76635.9
76635.6
76635.2
76634.8
76634.5
76634.1
76633.7
76633.4
76633
76632.6
76632.2
76631.9
76631.5
76631.1
76630.7
76630.3
76629.9
76629.5
76629.2
76628.8
76628.4
76628
76627.6
76627.2
76626.8
76626.4
76626
76625.6
76625.2
76624.8
76624.4
76623.9
76623.5
76623.1
76622.7
76622.3
76621.9
76621.4
76621
76620.6
76620.2
76619.7
76619.3
76618.9
76618.5
76618
76617.6
76617.2
76616.7
76616.3
76615.8
76615.4
76614.9
76614.5
76614.1
76613.6
76613.2
76612.7
76612.2
76611.8
76611.3
76610.9
76610.4
76610
76609.5
76609
76608.6
76608.1
76607.6
76607.1
76606.7
76606.2
76605.7
76605.2
76604.8
76604.3
76603.8
76603.3
76602.8
76602.3
76601.8
76601.4
76600.9
76600.4
76599.9
76599.4
76598.9
76598.4
76597.9
76597.4
76596.9
76596.4
76595.8
76595.3
76594.8
76594.3
76593.8
76593.3
76592.8
76592.2
76591.7
76591.2
76590.7
76590.1
76589.6
76589.1
76588.5
76588
76587.5
76586.9
76586.4
76585.9
76585.3
76584.8
76584.2
76583.7
76583.1
76582.6
76582
76581.5
76580.9
76580.4
76579.8
76579.2
76578.7
76578.1
76577.6
76577
76576.4
76575.8
76575.3
76574.7
76574.1
76573.6
76573
76572.4
76571.8
76571.2
76570.6
76570.1
76569.5
76568.9
76568.3
76567.7
76567.1
76566.5
76565.9
76565.3
76564.7
76564.1
76563.5
76562.9
76562.3
76561.7
76561.1
76560.4
76559.8
76559.2
76558.6
76558
76557.4
76556.7
76556.1
76555.5
76554.8
76554.2
76553.6
76553
76552.3
76551.7
76551
76550.4
76549.8
76549.1
76548.5
76547.8
76547.2
76546.5
76545.9
76545.2
76544.6
76543.9
76543.2
76542.6
76541.9
76541.3
76540.6
76539.9
76539.3
76538.6
76537.9
76537.2
76536.6
76535.9
76535.2
76534.5
76533.8
76533.2
76532.5
76531.8
76531.1
76530.4
76529.7
76529
76528.3
76527.6
76526.9
76526.2
76525.5
76524.8
76524.1
76523.4
76522.7
76522
76521.3
76520.5
76519.8
76519.1
76518.4
76517.7
76516.9
76516.2
76515.5
76514.7
76514
76513.3
76512.5
76511.8
76511.1
76510.3
76509.6
76508.8
76508.1
76507.4
76506.6
76505.9
76505.1
76504.3
76503.6
76502.8
76502.1
76501.3
76500.5
76499.8
76499
76498.2
76497.5
76496.7
76495.9
76495.2
76494.4
76493.6
76492.8
76492
76491.2
76490.5
76489.7
76488.9
76488.1
76487.3
76486.5
76485.7
76484.9
76484.1
76483.3
76482.5
76481.7
76480.9
76480.1
76479.2
76478.4
76477.6
76476.8
76476
76475.2
76474.3
76473.5
76472.7
76471.8
76471
76470.2
76469.3
76468.5
76467.7
76466.8
76466
76465.1
76464.3
76463.5
76462.6
76461.7
76460.9
76460
76459.2
76458.3
76457.5
76456.6
76455.7
76454.9
76454
76453.1
76452.2
76451.4
76450.5
76449.6
76448.7
76447.9
76447
76446.1
76445.2
76444.3
76443.4
76442.5
76441.6
76440.7
76439.8
76438.9
76438
76437.1
76436.2
76435.3
76434.4
76433.5
76432.5
76431.6
76430.7
76429.8
76428.9
76427.9
76427
76426.1
76425.1
76424.2
76423.3
76422.3
76421.4
76420.4
76419.5
76418.5
76417.6
76416.6
76415.7
76414.7
76413.8
76412.8
76411.9
76410.9
76409.9
76409
76408
76407
76406
76405.1
76404.1
76403.1
76402.1
76401.1
76400.1
76399.1
76398.1
76397.2
76396.2
76395.2
76394.2
76393.2
76392.1
76391.1
76390.1
76389.1
76388.1
76387.1
76386.1
76385
76384
76383
76382
76380.9
76379.9
76378.9
76377.8
76376.8
76375.7
76374.7
76373.6
76372.6
76371.5
76370.5
76369.4
76368.4
76367.3
76366.2
76365.2
76364.1
76363
76362
76360.9
76359.8
76358.7
76357.6
76356.5
76355.4
76354.4
76353.3
76352.2
76351.1
76350
76348.9
76347.7
76346.6
76345.5
76344.4
76343.3
76342.2
76341
76339.9
76338.8
76337.7
76336.5
76335.4
76334.3
76333.1
76332
76330.8
76329.7
76328.5
76327.4
76326.2
76325
76323.9
76322.7
76321.5
76320.4
76319.2
76318
76316.8
76315.6
76314.5
76313.3
76312.1
76310.9
76309.7
76308.5
76307.3
76306.1
76304.8
76303.6
76302.4
76301.2
76300
76298.7
76297.5
76296.3
76295.1
76293.8
76292.6
76291.3
76290.1
76288.8
76287.6
76286.3
76285.1
76283.8
76282.5
76281.3
76280
76278.7
76277.4
76276.1
76274.9
76273.6
76272.3
76271
76269.7
76268.4
76267.1
76265.7
76264.4
76263.1
76261.8
76260.5
76259.1
76257.8
76256.5
76255.1
76253.8
76252.4
76251.1
76249.7
76248.4
76247
76245.6
76244.3
76242.9
76241.5
76240.1
76238.8
76237.4
76236
76234.6
76233.2
76231.8
76230.4
76229
76227.5
76226.1
76224.7
76223.3
76221.8
76220.4
76218.9
76217.5
76216
76214.6
76213.1
76211.7
76210.2
76208.7
76207.2
76205.8
76204.3
76202.8
76201.3
76199.8
76198.3
76196.7
76195.2
76193.7
76192.2
76190.6
76189.1
76187.6
76186
76184.5
76182.9
76181.3
76179.8
76178.2
76176.6
76175
76173.4
76171.8
76170.2
76168.6
76167
76165.3
76163.7
76162.1
76160.4
76158.7
76157.1
76155.4
76153.7
76152.1
76150.4
76148.7
76147
76145.2
76143.5
76141.8
76140
76138.3
76136.5
76134.8
76133
76131.2
76129.4
76127.6
76125.8
76123.9
76122.1
76120.2
76118.4
76116.5
76114.6
76112.7
76110.8
76108.9
76106.9
76105
76103
76101
76099.1
76097
76095
76093
76090.9
76088.8
76086.7
76084.6
76082.5
76080.3
76078.2
76076
76073.7
76071.5
76069.2
76066.9
76064.6
76062.3
76059.9
76057.5
76055.1
76052.6
76050.1
76047.6
76045
76042.4
76039.8
76037.1
76034.4
76031.6
76028.8
76026
76023.1
76020.1
76017.1
76014
76010.9
76007.7
76004.5
76001.2
75997.8
75994.3
75990.7
75987.1
75983.4
75979.6
75975.7
75971.7
75967.6
75963.4
75959
75954.6
75950
75945.3
75940.5
75935.5
75930.3
75925
75919.6
75913.9
75908.1
75902.1
75896
75889.6
75883
75876.2
75869.2
75862
75854.6
75846.9
75839
75830.8
75822.4
75813.7
75804.8
75795.7
75786.2
75776.5
75766.6
75756.4
75745.9
75735.2
75724.2
75713
75701.5
75689.8
75677.8
75665.6
75653.2
75640.5
75627.6
75614.5
75601.2
75587.7
75574.1
75560.2
75546.1
75531.9
75517.6
75503.1
75488.4
75473.6
75458.7
75443.7
75428.6
75413.4
75398
75382.6
75367.2
75351.6
75336
75320.3
75304.6
75288.8
75272.9
75257
75241.1
75225.2
75209.2
75193.2
75177.1
75161.1
75145
75128.9
75112.8
75096.7
75080.6
75064.4
75048.3
75032.2
75016
74999.8
74983.7
74967.5
74951.3
74935.2
74919
74902.8
74886.7
74870.5
74854.3
74838.1
74822
74805.8
74789.6
74773.5
74757.3
74741.2
74725
74708.9
74692.7
74676.6
74660.4
74644.3
74628.1
74612
74595.9
74579.7
74563.6
74547.5
74531.4
74515.2
74499.1
74483
74466.9
74450.8
74434.7
74418.6
74402.5
74386.4
74370.3
74354.2
74338.1
74322
74305.9
74289.9
74273.8
74257.7
74241.6
74225.6
74209.5
74193.4
74177.4
74161.3
74145.3
74129.2
74113.2
74097.1
74081.1
74065.1
74049
74033
74017
74000.9
73984.9
73968.9
73952.9
73936.9
73920.9
73904.9
73888.8
73872.8
73856.8
73840.9
73824.9
73808.9
73792.9
73776.9
73760.9
73744.9
73729
73713
73697
73681.1
73665.1
73649.1
73633.2
73617.2
73601.3
73585.3
73569.4
73553.4
73537.5
73521.6
73505.6
73489.7
73473.8
73457.8
73441.9
73426
73410.1
73394.2
73378.3
73362.4
73346.4
73330.5
73314.7
73298.8
73282.9
73267
73251.1
73235.2
73219.3
73203.4
73187.6
73171.7
73155.8
73140
73124.1
73108.2
73092.4
73076.5
73060.7
73044.8
73029
73013.1
72997.3
72981.5
72965.6
72949.8
72934
72918.1
72902.3
72886.5
72870.7
72854.9
72839.1
72823.3
72807.5
72791.7
72775.9
72760.1
72744.3
72728.5
72712.7
72696.9
72681.1
72665.3
72649.6
72633.8
72618
72602.3
72586.5
72570.7
72555
72539.2
72523.5
72507.7
72492
72476.2
72460.5
72444.8
72429
72413.3
72397.6
72381.8
72366.1
72350.4
72334.7
72319
72303.3
72287.6
72271.9
72256.2
72240.5
72224.8
72209.1
72193.4
72177.7
72162
72146.3
72130.6
72115
72099.3
72083.6
72068
72052.3
72036.6
72021
72005.3
71989.7
71974
71958.4
71942.7
71927.1
71911.4
71895.8
71880.2
71864.5
71848.9
71833.3
71817.7
71802.1
71786.4
71770.8
71755.2
71739.6
71724
71708.4
71692.8
71677.2
71661.6
71646
71630.5
71614.9
71599.3
71583.7
71568.1
71552.6
71537
71521.4
71505.9
71490.3
71474.8
71459.2
71443.7
71428.1
71412.6
71397
71381.5
71365.9
71350.4
71334.9
71319.4
71303.8
71288.3
71272.8
71257.3
71241.8
71226.3
71210.7
71195.2
71179.7
71164.2
71148.7
71133.3
71117.8
71102.3
71086.8
71071.3
71055.8
71040.4
71024.9
71009.4
70993.9
70978.5
70963
70947.6
70932.1
70916.7
70901.2
70885.8
70870.3
70854.9
70839.4
70824
70808.6
70793.1
70777.7
70762.3
70746.9
70731.4
70716
70700.6
70685.2
70669.8
70654.4
70639
70623.6
70608.2
70592.8
70577.4
70562
70546.7
70531.3
70515.9
70500.5
70485.1
70469.8
70454.4
70439
70423.7
70408.3
70393
70377.6
70362.3
70346.9
70331.6
70316.2
70300.9
70285.6
70270.2
70254.9
70239.6
70224.3
70208.9
70193.6
70178.3
70163
70147.7
70132.4
70117.1
70101.8
70086.5
70071.2
70055.9
70040.6
70025.3
70010
69994.7
69979.5
69964.2
69948.9
69933.7
69918.4
69903.1
69887.9
69872.6
69857.4
69842.1
69826.8
69811.6
69796.4
69781.1
69765.9
69750.6
69735.4
69720.2
69705
69689.7
69674.5
69659.3
69644.1
69628.9
69613.7
69598.5
69583.2
69568
69552.8
69537.7
69522.5
69507.3
69492.1
69476.9
69461.7
69446.5
69431.4
69416.2
69401
69385.9
69370.7
69355.5
69340.4
69325.2
69310.1
69294.9
69279.8
69264.6
69249.5
69234.3
69219.2
69204.1
69188.9
69173.8
69158.7
69143.6
69128.5
69113.3
69098.2
69083.1
69068
69052.9
69037.8
69022.7
69007.6
68992.5
68977.4
68962.3
68947.3
68932.2
68917.1
68902
68886.9
68871.9
68856.8
68841.7
68826.7
68811.6
68796.6
68781.5
68766.5
68751.4
68736.4
68721.3
68706.3
68691.2
68676.2
68661.2
68646.2
68631.1
68616.1
68601.1
68586.1
68571.1
68556
68541
68526
68511
68496
68481
68466
68451
68436
68421.1
68406.1
68391.1
68376.1
68361.1
68346.2
68331.2
68316.2
68301.3
68286.3
68271.4
68256.4
68241.4
68226.5
68211.6
68196.6
68181.7
68166.7
68151.8
68136.9
68121.9
68107
68092.1
68077.2
68062.2
68047.3
68032.4
68017.5
68002.6
67987.7
67972.8
67957.9
67943
67928.1
67913.2
67898.3
67883.4
67868.5
67853.7
67838.8
67823.9
67809
67794.2
67779.3
67764.4
67749.6
67734.7
67719.9
67705
67690.2
67675.3
67660.5
67645.6
67630.8
67616
67601.1
67586.3
67571.5
67556.7
67541.8
67527
67512.2
67497.4
67482.6
67467.8
67453
67438.2
67423.4
67408.6
67393.8
67379
67364.2
67349.4
67334.6
67319.9
67305.1
67290.3
67275.5
67260.8
67246
67231.2
67216.5
67201.7
67187
67172.2
67157.5
67142.7
67128
67113.2
67098.5
67083.8
67069
67054.3
67039.6
67024.8
67010.1
66995.4
66980.7
66966
66951.3
66936.6
66921.9
66907.2
66892.5
66877.8
66863.1
66848.4
66833.7
66819
66804.3
66789.6
66775
66760.3
66745.6
66731
66716.3
66701.6
66687
66672.3
66657.6
66643
66628.3
66613.7
66599.1
66584.4
66569.8
66555.1
66540.5
66525.9
66511.3
66496.6
66482
66467.4
66452.8
66438.2
66423.5
66408.9
66394.3
66379.7
66365.1
66350.5
66335.9
66321.3
66306.8
66292.2
66277.6
66263
66248.4
66233.9
66219.3
66204.7
66190.1
66175.6
66161
66146.5
66131.9
66117.4
66102.8
66088.3
66073.7
66059.2
66044.6
66030.1
66015.6
66001
65986.5
65972
65957.5
65942.9
65928.4
65913.9
65899.4
65884.9
65870.4
65855.9
65841.4
65826.9
65812.4
65797.9
65783.4
65768.9
65754.4
65739.9
65725.5
65711
65696.5
65682
65667.6
65653.1
65638.6
65624.2
65609.7
65595.3
65580.8
65566.4
65551.9
65537.5
65523
65508.6
65494.2
65479.7
65465.3
65450.9
65436.4
65422
65407.6
65393.2
65378.8
65364.4
65350
65335.5
65321.1
65306.7
65292.3
65278
65263.6
65249.2
65234.8
65220.4
65206
65191.6
65177.3
65162.9
65148.5
65134.2
65119.8
65105.4
65091.1
65076.7
65062.4
65048
65033.7
65019.3
65005
64990.6
64976.3
64962
64947.6
64933.3
64919
64904.6
64890.3
64876
64861.7
64847.4
64833.1
64818.8
64804.5
64790.1
64775.8
64761.6
64747.3
64733
64718.7
64704.4
64690.1
64675.8
64661.5
64647.3
64633
64618.7
64604.5
64590.2
64575.9
64561.7
64547.4
64533.2
64518.9
64504.7
64490.4
64476.2
64461.9
64447.7
64433.5
64419.2
64405
64390.8
64376.5
64362.3
64348.1
64333.9
64319.7
64305.5
64291.3
64277.1
64262.9
64248.7
64234.5
64220.3
64206.1
64191.9
64177.7
64163.5
64149.3
64135.1
64121
64106.8
64092.6
64078.5
64064.3
64050.1
64036
64021.8
64007.7
63993.5
63979.4
63965.2
63951.1
63936.9
63922.8
63908.7
63894.5
63880.4
63866.3
63852.1
63838
63823.9
63809.8
63795.7
63781.6
63767.4
63753.3
63739.2
63725.1
63711
63696.9
63682.8
63668.8
63654.7
63640.6
63626.5
63612.4
63598.3
63584.3
63570.2
63556.1
63542.1
63528
63513.9
63499.9
63485.8
63471.8
63457.7
63443.7
63429.6
63415.6
63401.6
63387.5
63373.5
63359.4
63345.4
63331.4
63317.4
63303.3
63289.3
63275.3
63261.3
63247.3
63233.3
63219.3
63205.3
63191.3
63177.3
63163.3
63149.3
63135.3
63121.3
63107.3
63093.4
63079.4
63065.4
63051.4
63037.5
63023.5
63009.5
62995.6
62981.6
62967.6
62953.7
62939.7
62925.8
62911.8
62897.9
62884
62870
62856.1
62842.2
62828.2
62814.3
62800.4
62786.4
62772.5
62758.6
62744.7
62730.8
62716.9
62703
62689.1
62675.2
62661.3
62647.4
62633.5
62619.6
62605.7
62591.8
62577.9
62564
62550.2
62536.3
62522.4
62508.5
62494.7
62480.8
62467
62453.1
62439.2
62425.4
62411.5
62397.7
62383.8
62370
62356.1
62342.3
62328.5
62314.6
62300.8
62287
62273.2
62259.3
62245.5
62231.7
62217.9
62204.1
62190.3
62176.5
62162.7
62148.9
62135.1
62121.3
62107.5
62093.7
62079.9
62066.1
62052.3
62038.5
62024.8
62011
61997.2
61983.4
61969.7
61955.9
61942.1
61928.4
61914.6
61900.9
61887.1
61873.4
61859.6
61845.9
61832.1
61818.4
61804.7
61790.9
61777.2
61763.5
61749.7
61736
61722.3
61708.6
61694.9
61681.2
61667.4
61653.7
61640
61626.3
61612.6
61598.9
61585.2
61571.6
61557.9
61544.2
61530.5
61516.8
61503.1
61489.5
61475.8
61462.1
61448.4
61434.8
61421.1
61407.5
61393.8
61380.1
61366.5
61352.8
61339.2
61325.6
61311.9
61298.3
61284.6
61271
61257.4
61243.7
61230.1
61216.5
61202.9
61189.2
61175.6
61162
61148.4
61134.8
61121.2
61107.6
61094
61080.4
61066.8
61053.2
61039.6
61026
61012.4
60998.9
60985.3
60971.7
60958.1
60944.6
60931
60917.4
60903.9
60890.3
60876.7
60863.2
60849.6
60836.1
60822.5
60809
60795.4
60781.9
60768.4
60754.8
60741.3
60727.8
60714.2
60700.7
60687.2
60673.7
60660.1
60646.6
60633.1
60619.6
60606.1
60592.6
60579.1
60565.6
60552.1
60538.6
60525.1
60511.6
60498.1
60484.6
60471.2
60457.7
60444.2
60430.7
60417.3
60403.8
60390.3
60376.9
60363.4
60349.9
60336.5
60323
60309.6
60296.1
60282.7
60269.3
60255.8
60242.4
60228.9
60215.5
60202.1
60188.6
60175.2
60161.8
60148.4
60135
60121.5
60108.1
60094.7
60081.3
60067.9
60054.5
60041.1
60027.7
60014.3
60000.9
59987.5
59974.2
59960.8
59947.4
59934
59920.6
59907.3
59893.9
59880.5
59867.2
59853.8
59840.4
59827.1
59813.7
59800.4
59787
59773.7
59760.3
59747
59733.6
59720.3
59707
59693.6
59680.3
59667
59653.6
59640.3
59627
59613.7
59600.4
59587.1
59573.7
59560.4
59547.1
59533.8
59520.5
59507.2
59493.9
59480.7
59467.4
59454.1
59440.8
59427.5
59414.2
59401
59387.7
59374.4
59361.1
59347.9
59334.6
59321.3
59308.1
59294.8
59281.6
59268.3
59255.1
59241.8
59228.6
59215.3
59202.1
59188.9
59175.6
59162.4
59149.2
59136
59122.7
59109.5
59096.3
59083.1
59069.9
59056.6
59043.4
59030.2
59017
59003.8
58990.6
58977.4
58964.2
58951.1
58937.9
58924.7
58911.5
58898.3
58885.1
58872
58858.8
58845.6
58832.5
58819.3
58806.1
58793
58779.8
58766.7
58753.5
58740.4
58727.2
58714.1
58700.9
58687.8
58674.6
58661.5
58648.4
58635.2
58622.1
58609
58595.9
58582.7
58569.6
58556.5
58543.4
58530.3
58517.2
58504.1
58491
58477.9
58464.8
58451.7
58438.6
58425.5
58412.4
58399.3
58386.3
58373.2
58360.1
58347
58333.9
58320.9
58307.8
58294.7
58281.7
58268.6
58255.6
58242.5
58229.5
58216.4
58203.4
58190.3
58177.3
58164.2
58151.2
58138.2
58125.1
58112.1
58099.1
58086.1
58073
58060
58047
58034
58021
58008
57995
57982
57968.9
57956
57943
57930
57917
57904
57891
57878
57865
57852
57839.1
57826.1
57813.1
57800.2
57787.2
57774.2
57761.3
57748.3
57735.3
57722.4
57709.4
57696.5
57683.5
57670.6
57657.7
57644.7
57631.8
57618.8
57605.9
57593
57580.1
57567.1
57554.2
57541.3
57528.4
57515.5
57502.5
57489.6
57476.7
57463.8
57450.9
57438
57425.1
57412.2
57399.3
57386.4
57373.6
57360.7
57347.8
57334.9
57322
57309.2
57296.3
57283.4
57270.6
57257.7
57244.8
57232
57219.1
57206.3
57193.4
57180.6
57167.7
57154.9
57142
57129.2
57116.3
57103.5
57090.7
57077.8
57065
57052.2
57039.4
57026.5
57013.7
57000.9
56988.1
56975.3
56962.5
56949.7
56936.9
56924.1
56911.3
56898.5
56885.7
56872.9
56860.1
56847.3
56834.5
56821.8
56809
56796.2
56783.4
56770.7
56757.9
56745.1
56732.4
56719.6
56706.8
56694.1
56681.3
56668.6
56655.8
56643.1
56630.3
56617.6
56604.9
56592.1
56579.4
56566.7
56553.9
56541.2
56528.5
56515.8
56503
56490.3
56477.6
56464.9
56452.2
56439.5
56426.8
56414.1
56401.4
56388.7
56376
56363.3
56350.6
56337.9
56325.2
56312.5
56299.9
56287.2
56274.5
56261.8
56249.2
56236.5
56223.8
56211.2
56198.5
56185.8
56173.2
56160.5
56147.9
56135.2
56122.6
56109.9
56097.3
56084.7
56072
56059.4
56046.8
56034.1
56021.5
56008.9
55996.3
55983.6
55971
55958.4
55945.8
55933.2
55920.6
55908
55895.4
55882.8
55870.2
55857.6
55845
55832.4
55819.8
55807.2
55794.7
55782.1
55769.5
55756.9
55744.4
55731.8
55719.2
55706.6
55694.1
55681.5
55669
55656.4
55643.9
55631.3
55618.8
55606.2
55593.7
55581.1
55568.6
55556.1
55543.5
55531
55518.5
55505.9
55493.4
55480.9
55468.4
55455.8
55443.3
55430.8
55418.3
55405.8
55393.3
55380.8
55368.3
55355.8
55343.3
55330.8
55318.3
55305.8
55293.4
55280.9
55268.4
55255.9
55243.4
55231
55218.5
55206
55193.6
55181.1
55168.6
55156.2
55143.7
55131.3
55118.8
55106.4
55093.9
55081.5
55069
55056.6
55044.1
55031.7
55019.3
55006.9
54994.4
54982
54969.6
54957.2
54944.7
54932.3
54919.9
54907.5
54895.1
54882.7
54870.3
54857.9
54845.5
54833.1
54820.7
54808.3
54795.9
54783.5
54771.1
54758.8
54746.4
54734
54721.6
54709.3
54696.9
54684.5
54672.2
54659.8
54647.4
54635.1
54622.7
54610.4
54598
54585.7
54573.3
54561
54548.6
54536.3
54524
54511.6
54499.3
54487
54474.6
54462.3
54450
54437.7
54425.4
54413
54400.7
54388.4
54376.1
54363.8
54351.5
54339.2
54326.9
54314.6
54302.3
54290
54277.7
54265.5
54253.2
54240.9
54228.6
54216.3
54204.1
54191.8
54179.5
54167.3
54155
54142.7
54130.5
54118.2
54106
54093.7
54081.5
54069.2
54057
54044.7
54032.5
54020.2
54008
53995.8
53983.5
53971.3
53959.1
53946.9
53934.6
53922.4
53910.2
53898
53885.8
53873.6
53861.4
53849.2
53836.9
53824.7
53812.6
53800.4
53788.2
53776
53763.8
53751.6
53739.4
53727.2
53715.1
53702.9
53690.7
53678.5
53666.4
53654.2
53642
53629.9
53617.7
53605.5
53593.4
53581.2
53569.1
53556.9
53544.8
53532.7
53520.5
53508.4
53496.2
53484.1
53472
53459.8
53447.7
53435.6
53423.5
53411.3
53399.2
53387.1
53375
53362.9
53350.8
53338.7
53326.6
53314.5
53302.4
53290.3
53278.2
53266.1
53254
53241.9
53229.8
53217.8
53205.7
53193.6
53181.5
53169.4
53157.4
53145.3
53133.2
53121.2
53109.1
53097.1
53085
53072.9
53060.9
53048.8
53036.8
53024.8
53012.7
53000.7
52988.6
52976.6
52964.6
52952.5
52940.5
52928.5
52916.5
52904.4
52892.4
52880.4
52868.4
52856.4
52844.4
52832.4
52820.4
52808.4
52796.4
52784.4
52772.4
52760.4
52748.4
52736.4
52724.4
52712.4
52700.4
52688.5
52676.5
52664.5
52652.5
52640.6
52628.6
52616.6
52604.7
52592.7
52580.8
52568.8
52556.9
52544.9
52533
52521
52509.1
52497.1
52485.2
52473.2
52461.3
52449.4
52437.4
52425.5
52413.6
52401.7
52389.8
52377.8
52365.9
52354
52342.1
52330.2
52318.3
52306.4
52294.5
52282.6
52270.7
52258.8
52246.9
52235
52223.1
52211.2
52199.3
52187.5
52175.6
52163.7
52151.8
52140
52128.1
52116.2
52104.4
52092.5
52080.6
52068.8
52056.9
52045.1
52033.2
52021.4
52009.5
51997.7
51985.8
51974
51962.2
51950.3
51938.5
51926.7
51914.8
51903
51891.2
51879.4
51867.5
51855.7
51843.9
51832.1
51820.3
51808.5
51796.7
51784.9
51773.1
51761.3
51749.5
51737.7
51725.9
51714.1
51702.3
51690.5
51678.8
51667
51655.2
51643.4
51631.7
51619.9
51608.1
51596.4
51584.6
51572.8
51561.1
51549.3
51537.6
51525.8
51514.1
51502.3
51490.6
51478.8
51467.1
51455.4
51443.6
51431.9
51420.2
51408.4
51396.7
51385
51373.3
51361.5
51349.8
51338.1
51326.4
51314.7
51303
51291.3
51279.6
51267.9
51256.2
51244.5
51232.8
51221.1
51209.4
51197.7
51186
51174.3
51162.7
51151
51139.3
51127.6
51116
51104.3
51092.6
51081
51069.3
51057.6
51046
51034.3
51022.7
51011
50999.4
50987.7
50976.1
50964.4
50952.8
50941.2
50929.5
50917.9
50906.3
50894.6
50883
50871.4
50859.8
50848.2
50836.5
50824.9
50813.3
50801.7
50790.1
50778.5
50766.9
50755.3
50743.7
50732.1
50720.5
50708.9
50697.3
50685.7
50674.1
50662.6
50651
50639.4
50627.8
50616.3
50604.7
50593.1
50581.5
50570
50558.4
50546.9
50535.3
50523.8
50512.2
50500.6
50489.1
50477.6
50466
50454.5
50442.9
50431.4
50419.9
50408.3
50396.8
50385.3
50373.7
50362.2
50350.7
50339.2
50327.7
50316.1
50304.6
50293.1
50281.6
50270.1
50258.6
50247.1
50235.6
50224.1
50212.6
50201.1
50189.6
50178.2
50166.7
50155.2
50143.7
50132.2
50120.8
50109.3
50097.8
50086.3
50074.9
50063.4
50051.9
50040.5
50029
50017.6
50006.1
49994.7
49983.2
49971.8
49960.3
49948.9
49937.4
49926
49914.6
49903.1
49891.7
49880.3
49868.9
49857.4
49846
49834.6
49823.2
49811.8
49800.3
49788.9
49777.5
49766.1
49754.7
49743.3
49731.9
49720.5
49709.1
49697.7
49686.3
49675
49663.6
49652.2
49640.8
49629.4
49618
49606.7
49595.3
49583.9
49572.6
49561.2
49549.8
49538.5
49527.1
49515.8
49504.4
49493.1
49481.7
49470.4
49459
49447.7
49436.3
49425
49413.6
49402.3
49391
49379.7
49368.3
49357
49345.7
49334.4
49323
49311.7
49300.4
49289.1
49277.8
49266.5
49255.2
49243.9
49232.6
49221.3
49210
49198.7
49187.4
49176.1
49164.8
49153.5
49142.2
49131
49119.7
49108.4
49097.1
49085.9
49074.6
49063.3
49052.1
49040.8
49029.5
49018.3
49007
48995.8
48984.5
48973.3
48962
48950.8
48939.5
48928.3
48917
48905.8
48894.6
48883.3
48872.1
48860.9
48849.7
48838.4
48827.2
48816
48804.8
48793.6
48782.4
48771.1
48759.9
48748.7
48737.5
48726.3
48715.1
48703.9
48692.7
48681.6
48670.4
48659.2
48648
48636.8
48625.6
48614.4
48603.3
48592.1
48580.9
48569.8
48558.6
48547.4
48536.3
48525.1
48513.9
48502.8
48491.6
48480.5
48469.3
48458.2
48447
48435.9
48424.7
48413.6
48402.5
48391.3
48380.2
48369.1
48357.9
48346.8
48335.7
48324.6
48313.5
48302.3
48291.2
48280.1
48269
48257.9
48246.8
48235.7
48224.6
48213.5
48202.4
48191.3
48180.2
48169.1
48158
48146.9
48135.8
48124.8
48113.7
48102.6
48091.5
48080.5
48069.4
48058.3
48047.3
48036.2
48025.1
48014.1
48003
47992
47980.9
47969.8
47958.8
47947.8
47936.7
47925.7
47914.6
47903.6
47892.5
47881.5
47870.5
47859.5
47848.4
47837.4
47826.4
47815.4
47804.3
47793.3
47782.3
47771.3
47760.3
47749.3
47738.3
47727.3
47716.3
47705.3
47694.3
47683.3
47672.3
47661.3
47650.3
47639.3
47628.3
47617.4
47606.4
47595.4
47584.4
47573.5
47562.5
47551.5
47540.6
47529.6
47518.6
47507.7
47496.7
47485.8
47474.8
47463.9
47452.9
47442
47431
47420.1
47409.1
47398.2
47387.3
47376.3
47365.4
47354.5
47343.5
47332.6
47321.7
47310.8
47299.8
47288.9
47278
47267.1
47256.2
47245.3
47234.4
47223.5
47212.6
47201.7
47190.8
47179.9
47169
47158.1
47147.2
47136.3
47125.5
47114.6
47103.7
47092.8
47081.9
47071.1
47060.2
47049.3
47038.5
47027.6
47016.7
47005.9
46995
46984.2
46973.3
46962.5
46951.6
46940.8
46929.9
46919.1
46908.2
46897.4
46886.6
46875.7
46864.9
46854.1
46843.2
46832.4
46821.6
46810.8
46799.9
46789.1
46778.3
46767.5
46756.7
46745.9
46735.1
46724.3
46713.5
46702.7
46691.9
46681.1
46670.3
46659.5
46648.7
46637.9
46627.1
46616.4
46605.6
46594.8
46584
46573.2
46562.5
46551.7
46540.9
46530.2
46519.4
46508.6
46497.9
46487.1
46476.4
46465.6
46454.9
46444.1
46433.4
46422.6
46411.9
46401.2
46390.4
46379.7
46368.9
46358.2
46347.5
46336.8
46326
46315.3
46304.6
46293.9
46283.2
46272.4
46261.7
46251
46240.3
46229.6
46218.9
46208.2
46197.5
46186.8
46176.1
46165.4
46154.7
46144
46133.4
46122.7
46112
46101.3
46090.6
46080
46069.3
46058.6
46047.9
46037.3
46026.6
46016
46005.3
45994.6
45984
45973.3
45962.7
45952
45941.4
45930.7
45920.1
45909.4
45898.8
45888.2
45877.5
45866.9
45856.3
45845.6
45835
45824.4
45813.8
45803.1
45792.5
45781.9
45771.3
45760.7
45750.1
45739.5
45728.9
45718.3
45707.7
45697.1
45686.5
45675.9
45665.3
45654.7
45644.1
45633.5
45622.9
45612.3
45601.8
45591.2
45580.6
45570
45559.5
45548.9
45538.3
45527.8
45517.2
45506.6
45496.1
45485.5
45475
45464.4
45453.9
45443.3
45432.8
45422.2
45411.7
45401.1
45390.6
45380.1
45369.5
45359
45348.5
45337.9
45327.4
45316.9
45306.4
45295.9
45285.3
45274.8
45264.3
45253.8
45243.3
45232.8
45222.3
45211.8
45201.3
45190.8
45180.3
45169.8
45159.3
45148.8
45138.3
45127.8
45117.4
45106.9
45096.4
45085.9
45075.4
45065
45054.5
45044
45033.6
45023.1
45012.6
45002.2
44991.7
44981.3
44970.8
44960.4
44949.9
44939.5
44929
44918.6
44908.1
44897.7
44887.3
44876.8
44866.4
44856
44845.5
44835.1
44824.7
44814.3
44803.8
44793.4
44783
44772.6
44762.2
44751.8
44741.4
44731
44720.6
44710.1
44699.8
44689.4
44679
44668.6
44658.2
44647.8
44637.4
44627
44616.6
44606.2
44595.9
44585.5
44575.1
44564.7
44554.4
44544
44533.6
44523.3
44512.9
44502.6
44492.2
44481.8
44471.5
44461.1
44450.8
44440.4
44430.1
44419.8
44409.4
44399.1
44388.7
44378.4
44368.1
44357.7
44347.4
44337.1
44326.8
44316.4
44306.1
44295.8
44285.5
44275.2
44264.9
44254.5
44244.2
44233.9
44223.6
44213.3
44203
44192.7
44182.4
44172.1
44161.8
44151.6
44141.3
44131
44120.7
44110.4
44100.1
44089.9
44079.6
44069.3
44059
44048.8
44038.5
44028.2
44018
44007.7
43997.5
43987.2
43977
43966.7
43956.4
43946.2
43936
43925.7
43915.5
43905.2
43895
43884.8
43874.5
43864.3
43854.1
43843.8
43833.6
43823.4
43813.2
43802.9
43792.7
43782.5
43772.3
43762.1
43751.9
43741.7
43731.5
43721.3
43711.1
43700.9
43690.7
43680.5
43670.3
43660.1
43649.9
43639.7
43629.5
43619.4
43609.2
43599
43588.8
43578.6
43568.5
43558.3
43548.1
43538
43527.8
43517.6
43507.5
43497.3
43487.2
43477
43466.9
43456.7
43446.6
43436.4
43426.3
43416.1
43406
43395.9
43385.7
43375.6
43365.5
43355.3
43345.2
43335.1
43325
43314.8
43304.7
43294.6
43284.5
43274.4
43264.3
43254.2
43244
43233.9
43223.8
43213.7
43203.6
43193.5
43183.5
43173.4
43163.3
43153.2
43143.1
43133
43122.9
43112.8
43102.8
43092.7
43082.6
43072.5
43062.5
43052.4
43042.3
43032.3
43022.2
43012.2
43002.1
42992
42982
42971.9
42961.9
42951.8
42941.8
42931.8
42921.7
42911.7
42901.6
42891.6
42881.6
42871.5
42861.5
42851.5
42841.5
42831.4
42821.4
42811.4
42801.4
42791.4
42781.3
42771.3
42761.3
42751.3
42741.3
42731.3
42721.3
42711.3
42701.3
42691.3
42681.3
42671.3
42661.3
42651.4
42641.4
42631.4
42621.4
42611.4
42601.5
42591.5
42581.5
42571.5
42561.6
42551.6
42541.6
42531.7
42521.7
42511.8
42501.8
42491.8
42481.9
42471.9
42462
42452.1
42442.1
42432.2
42422.2
42412.3
42402.4
42392.4
42382.5
42372.6
42362.6
42352.7
42342.8
42332.9
42322.9
42313
42303.1
42293.2
42283.3
42273.4
42263.5
42253.5
42243.6
42233.7
42223.8
42213.9
42204
42194.2
42184.3
42174.4
42164.5
42154.6
42144.7
42134.8
42125
42115.1
42105.2
42095.3
42085.5
42075.6
42065.7
42055.8
42046
42036.1
42026.3
42016.4
42006.5
41996.7
41986.8
41977
41967.1
41957.3
41947.5
41937.6
41927.8
41917.9
41908.1
41898.3
41888.4
41878.6
41868.8
41859
41849.1
41839.3
41829.5
41819.7
41809.9
41800
41790.2
41780.4
41770.6
41760.8
41751
41741.2
41731.4
41721.6
41711.8
41702
41692.2
41682.4
41672.6
41662.9
41653.1
41643.3
41633.5
41623.7
41614
41604.2
41594.4
41584.6
41574.9
41565.1
41555.3
41545.6
41535.8
41526.1
41516.3
41506.5
41496.8
41487
41477.3
41467.5
41457.8
41448.1
41438.3
41428.6
41418.8
41409.1
41399.4
41389.7
41379.9
41370.2
41360.5
41350.7
41341
41331.3
41321.6
41311.9
41302.2
41292.5
41282.7
41273
41263.3
41253.6
41243.9
41234.2
41224.5
41214.8
41205.2
41195.5
41185.8
41176.1
41166.4
41156.7
41147
41137.4
41127.7
41118
41108.3
41098.7
41089
41079.3
41069.7
41060
41050.3
41040.7
41031
41021.4
41011.7
41002.1
40992.4
40982.8
40973.1
40963.5
40953.8
40944.2
40934.6
40924.9
40915.3
40905.7
40896
40886.4
40876.8
40867.2
40857.5
40847.9
40838.3
40828.7
40819.1
40809.5
40799.8
40790.2
40780.6
40771
40761.4
40751.8
40742.2
40732.6
40723
40713.4
40703.9
40694.3
40684.7
40675.1
40665.5
40655.9
40646.4
40636.8
40627.2
40617.6
40608.1
40598.5
40588.9
40579.4
40569.8
40560.2
40550.7
40541.1
40531.6
40522
40512.5
40502.9
40493.4
40483.8
40474.3
40464.7
40455.2
40445.7
40436.1
40426.6
40417.1
40407.5
40398
40388.5
40379
40369.4
40359.9
40350.4
40340.9
40331.4
40321.9
40312.3
40302.8
40293.3
40283.8
40274.3
40264.8
40255.3
40245.8
40236.3
40226.8
40217.3
40207.9
40198.4
40188.9
40179.4
40169.9
40160.4
40151
40141.5
40132
40122.6
40113.1
40103.6
40094.2
40084.7
40075.2
40065.8
40056.3
40046.9
40037.4
40028
40018.5
40009.1
39999.6
39990.2
39980.7
39971.3
39961.8
39952.4
39943
39933.5
39924.1
39914.7
39905.3
39895.8
39886.4
39877
39867.6
39858.2
39848.7
39839.3
39829.9
39820.5
39811.1
39801.7
39792.3
39782.9
39773.5
39764.1
39754.7
39745.3
39735.9
39726.5
39717.1
39707.8
39698.4
39689
39679.6
39670.2
39660.9
39651.5
39642.1
39632.7
39623.4
39614
39604.6
39595.3
39585.9
39576.6
39567.2
39557.9
39548.5
39539.2
39529.8
39520.5
39511.1
39501.8
39492.4
39483.1
39473.8
39464.4
39455.1
39445.8
39436.4
39427.1
39417.8
39408.4
39399.1
39389.8
39380.5
39371.2
39361.9
39352.5
39343.2
39333.9
39324.6
39315.3
39306
39296.7
39287.4
39278.1
39268.8
39259.5
39250.2
39241
39231.7
39222.4
39213.1
39203.8
39194.5
39185.3
39176
39166.7
39157.4
39148.2
39138.9
39129.6
39120.4
39111.1
39101.9
39092.6
39083.3
39074.1
39064.8
39055.6
39046.3
39037.1
39027.8
39018.6
39009.4
39000.1
38990.9
38981.6
38972.4
38963.2
38954
38944.7
38935.5
38926.3
38917.1
38907.8
38898.6
38889.4
38880.2
38871
38861.8
38852.6
38843.4
38834.1
38824.9
38815.7
38806.5
38797.4
38788.2
38779
38769.8
38760.6
38751.4
38742.2
38733
38723.8
38714.7
38705.5
38696.3
38687.1
38678
38668.8
38659.6
38650.5
38641.3
38632.1
38623
38613.8
38604.7
38595.5
38586.4
38577.2
38568.1
38558.9
38549.8
38540.6
38531.5
38522.3
38513.2
38504.1
38494.9
38485.8
38476.7
38467.5
38458.4
38449.3
38440.2
38431.1
38421.9
38412.8
38403.7
38394.6
38385.5
38376.4
38367.3
38358.2
38349.1
38340
38330.9
38321.8
38312.7
38303.6
38294.5
38285.4
38276.3
38267.2
38258.1
38249.1
38240
38230.9
38221.8
38212.7
38203.7
38194.6
38185.5
38176.5
38167.4
38158.3
38149.3
38140.2
38131.2
38122.1
38113
38104
38094.9
38085.9
38076.9
38067.8
38058.8
38049.7
38040.7
38031.7
38022.6
38013.6
38004.6
37995.5
37986.5
37977.5
37968.4
37959.4
37950.4
37941.4
37932.4
37923.4
37914.4
37905.3
37896.3
37887.3
37878.3
37869.3
37860.3
37851.3
37842.3
37833.3
37824.3
37815.3
37806.4
37797.4
37788.4
37779.4
37770.4
37761.4
37752.5
37743.5
37734.5