/*--------------------------------*- C++ -*----------------------------------*\
  =========                 |
  \\      /  F ield         | OpenFOAM: The Open Source CFD Toolbox
   \\    /   O peration     | Website:  https://openfoam.org
    \\  /    A nd           | Version:  9
     \\/     M anipulation  |
\*---------------------------------------------------------------------------*/
FoamFile
{
    format      ascii;
    class       surfaceScalarField;
    location    "0.015";
    object      phi_0;
}
// * * * * * * * * * * * * * * * * * * * * * * * * * * * * * * * * * * * * * //

dimensions      [1 0 -1 0 0 0 0];

internalField   nonuniform List<scalar> 
9999
(
2.86672
3.21553
3.56438
3.91325
4.26213
4.61101
4.95989
5.30877
5.65765
6.00653
6.35541
6.70429
7.05318
7.40206
7.75094
8.09982
8.44871
8.79759
9.14647
9.49536
9.84424
10.1931
10.542
10.8909
11.2398
11.5887
11.9375
12.2864
12.6353
12.9842
13.3331
13.682
14.0309
14.3797
14.7286
15.0775
15.4264
15.7753
16.1242
16.473
16.8219
17.1708
17.5197
17.8686
18.2175
18.5663
18.9152
19.2641
19.613
19.9619
20.3107
20.6596
21.0085
21.3574
21.7063
22.0551
22.404
22.7529
23.1018
23.4506
23.7995
24.1484
24.4973
24.8461
25.195
25.5439
25.8927
26.2416
26.5905
26.9394
27.2882
27.6371
27.9859
28.3348
28.6837
29.0325
29.3814
29.7303
30.0791
30.428
30.7768
31.1257
31.4745
31.8234
32.1722
32.5211
32.8699
33.2188
33.5676
33.9165
34.2653
34.6142
34.963
35.3119
35.6607
36.0095
36.3584
36.7072
37.056
37.4049
37.7537
38.1025
38.4513
38.8002
39.149
39.4978
39.8466
40.1955
40.5443
40.8931
41.2419
41.5907
41.9395
42.2883
42.6371
42.9859
43.3347
43.6835
44.0323
44.3811
44.7299
45.0787
45.4275
45.7763
46.1251
46.4739
46.8226
47.1714
47.5202
47.869
48.2177
48.5665
48.9153
49.264
49.6128
49.9616
50.3103
50.6591
51.0078
51.3566
51.7053
52.0541
52.4028
52.7516
53.1003
53.449
53.7978
54.1465
54.4952
54.8439
55.1927
55.5414
55.8901
56.2388
56.5875
56.9362
57.2849
57.6336
57.9823
58.331
58.6797
59.0284
59.3771
59.7258
60.0745
60.4231
60.7718
61.1205
61.4692
61.8178
62.1665
62.5151
62.8638
63.2124
63.5611
63.9097
64.2584
64.607
64.9556
65.3043
65.6529
66.0015
66.3501
66.6988
67.0474
67.396
67.7446
68.0932
68.4418
68.7904
69.139
69.4875
69.8361
70.1847
70.5333
70.8819
71.2304
71.579
71.9275
72.2761
72.6246
72.9732
73.3217
73.6703
74.0188
74.3673
74.7159
75.0644
75.4129
75.7614
76.1099
76.4584
76.8069
77.1554
77.5039
77.8524
78.2009
78.5493
78.8978
79.2463
79.5947
79.9432
80.2916
80.6401
80.9885
81.337
81.6854
82.0338
82.3822
82.7306
83.0791
83.4275
83.7759
84.1243
84.4727
84.821
85.1694
85.5178
85.8662
86.2145
86.5629
86.9112
87.2596
87.6079
87.9563
88.3046
88.6529
89.0012
89.3496
89.6979
90.0462
90.3945
90.7428
91.0911
91.4393
91.7876
92.1359
92.4841
92.8324
93.1806
93.5289
93.8771
94.2253
94.5736
94.9218
95.27
95.6182
95.9664
96.3146
96.6628
97.011
97.3591
97.7073
98.0555
98.4036
98.7518
99.0999
99.448
99.7962
100.144
100.492
100.841
101.189
101.537
101.885
102.233
102.581
102.929
103.277
103.625
103.973
104.321
104.669
105.017
105.365
105.713
106.061
106.409
106.757
107.105
107.453
107.801
108.149
108.497
108.845
109.193
109.541
109.889
110.237
110.584
110.932
111.28
111.628
111.976
112.324
112.672
113.019
113.367
113.715
114.063
114.411
114.758
115.106
115.454
115.802
116.149
116.497
116.845
117.193
117.54
117.888
118.236
118.583
118.931
119.279
119.626
119.974
120.322
120.669
121.017
121.365
121.712
122.06
122.407
122.755
123.102
123.45
123.797
124.145
124.492
124.84
125.187
125.535
125.882
126.23
126.577
126.925
127.272
127.619
127.967
128.314
128.662
129.009
129.356
129.704
130.051
130.398
130.746
131.093
131.44
131.787
132.135
132.482
132.829
133.176
133.523
133.871
134.218
134.565
134.912
135.259
135.606
135.953
136.301
136.648
136.995
137.342
137.689
138.036
138.383
138.73
139.077
139.424
139.771
140.118
140.464
140.811
141.158
141.505
141.852
142.199
142.546
142.892
143.239
143.586
143.933
144.279
144.626
144.973
145.32
145.666
146.013
146.359
146.706
147.053
147.399
147.746
148.092
148.439
148.785
149.132
149.478
149.825
150.171
150.518
150.864
151.211
151.557
151.903
152.25
152.596
152.942
153.288
153.635
153.981
154.327
154.673
155.019
155.366
155.712
156.058
156.404
156.75
157.096
157.442
157.788
158.134
158.48
158.826
159.172
159.518
159.863
160.209
160.555
160.901
161.247
161.592
161.938
162.284
162.629
162.975
163.321
163.666
164.012
164.357
164.703
165.048
165.394
165.739
166.085
166.43
166.775
167.121
167.466
167.811
168.157
168.502
168.847
169.192
169.537
169.882
170.227
170.573
170.918
171.263
171.608
171.952
172.297
172.642
172.987
173.332
173.677
174.021
174.366
174.711
175.055
175.4
175.745
176.089
176.434
176.778
177.123
177.467
177.811
178.156
178.5
178.844
179.189
179.533
179.877
180.221
180.565
180.909
181.253
181.597
181.941
182.285
182.629
182.973
183.317
183.66
184.004
184.348
184.691
185.035
185.379
185.722
186.066
186.409
186.752
187.096
187.439
187.782
188.125
188.469
188.812
189.155
189.498
189.841
190.184
190.526
190.869
191.212
191.555
191.897
192.24
192.582
192.925
193.267
193.61
193.952
194.294
194.636
194.979
195.321
195.663
196.005
196.346
196.688
197.03
197.372
197.713
198.055
198.396
198.738
199.079
199.42
199.762
200.103
200.444
200.785
201.125
201.466
201.807
202.147
202.488
202.828
203.169
203.509
203.849
204.189
204.529
204.869
205.208
205.548
205.888
206.227
206.566
206.905
207.244
207.583
207.922
208.261
208.599
208.937
209.275
209.613
209.951
210.289
210.627
210.964
211.301
211.638
211.975
212.312
212.648
212.984
213.32
213.656
213.992
214.327
214.662
214.997
215.331
215.666
216
216.333
216.667
217
217.333
217.665
217.997
218.329
218.66
218.991
219.322
219.652
219.981
220.31
220.639
220.967
221.295
221.622
221.949
222.274
222.6
222.924
223.248
223.571
223.894
224.215
224.536
224.856
225.175
225.493
225.81
226.126
226.44
226.754
227.066
227.377
227.687
227.995
228.302
228.607
228.911
229.212
229.513
229.811
230.107
230.401
230.693
230.983
231.27
231.555
231.838
232.118
232.395
232.67
232.942
233.21
233.476
233.739
233.999
234.255
234.508
234.758
235.004
235.247
235.486
235.722
235.955
236.184
236.409
236.631
236.849
237.064
237.276
237.484
237.689
237.89
238.089
238.284
238.476
238.665
238.852
239.035
239.216
239.395
239.571
239.744
239.915
240.085
240.252
240.417
240.581
240.743
240.903
241.062
241.219
241.375
241.53
241.684
241.837
241.989
242.14
242.29
242.439
242.588
242.736
242.884
243.031
243.177
243.323
243.469
243.615
243.76
243.904
244.049
244.193
244.337
244.481
244.624
244.768
244.911
245.054
245.197
245.34
245.483
245.625
245.768
245.91
246.053
246.195
246.337
246.479
246.621
246.763
246.905
247.047
247.189
247.331
247.472
247.614
247.755
247.897
248.038
248.18
248.321
248.462
248.604
248.745
248.886
249.027
249.168
249.309
249.45
249.591
249.732
249.872
250.013
250.154
250.294
250.435
250.576
250.716
250.856
250.997
251.137
251.277
251.418
251.558
251.698
251.838
251.978
252.118
252.258
252.398
252.537
252.677
252.817
252.957
253.096
253.236
253.375
253.515
253.654
253.793
253.933
254.072
254.211
254.35
254.489
254.628
254.767
254.906
255.045
255.184
255.323
255.462
255.6
255.739
255.878
256.016
256.155
256.293
256.432
256.57
256.708
256.846
256.985
257.123
257.261
257.399
257.537
257.675
257.813
257.951
258.088
258.226
258.364
258.502
258.639
258.777
258.914
259.052
259.189
259.326
259.464
259.601
259.738
259.875
260.012
260.149
260.286
260.423
260.56
260.697
260.834
260.971
261.107
261.244
261.381
261.517
261.654
261.79
261.927
262.063
262.199
262.336
262.472
262.608
262.744
262.88
263.016
263.152
263.288
263.424
263.56
263.695
263.831
263.967
264.102
264.238
264.373
264.509
264.644
264.78
264.915
265.05
265.185
265.321
265.456
265.591
265.726
265.861
265.996
266.131
266.265
266.4
266.535
266.67
266.804
266.939
267.073
267.208
267.342
267.476
267.611
267.745
267.879
268.013
268.148
268.282
268.416
268.55
268.684
268.818
268.951
269.085
269.219
269.353
269.486
269.62
269.753
269.887
270.02
270.154
270.287
270.42
270.553
270.687
270.82
270.953
271.086
271.219
271.352
271.485
271.618
271.75
271.883
272.016
272.149
272.281
272.414
272.546
272.679
272.811
272.943
273.076
273.208
273.34
273.472
273.605
273.737
273.869
274.001
274.132
274.264
274.396
274.528
274.66
274.791
274.923
275.055
275.186
275.318
275.449
275.58
275.712
275.843
275.974
276.105
276.237
276.368
276.499
276.63
276.761
276.892
277.022
277.153
277.284
277.415
277.545
277.676
277.806
277.937
278.067
278.198
278.328
278.458
278.589
278.719
278.849
278.979
279.109
279.239
279.369
279.499
279.629
279.759
279.889
280.018
280.148
280.278
280.407
280.537
280.666
280.796
280.925
281.055
281.184
281.313
281.442
281.571
281.701
281.83
281.959
282.088
282.216
282.345
282.474
282.603
282.732
282.86
282.989
283.117
283.246
283.374
283.503
283.631
283.76
283.888
284.016
284.144
284.272
284.401
284.529
284.657
284.784
284.912
285.04
285.168
285.296
285.423
285.551
285.679
285.806
285.934
286.061
286.189
286.316
286.443
286.571
286.698
286.825
286.952
287.079
287.206
287.333
287.46
287.587
287.714
287.841
287.968
288.094
288.221
288.347
288.474
288.601
288.727
288.853
288.98
289.106
289.232
289.359
289.485
289.611
289.737
289.863
289.989
290.115
290.241
290.367
290.492
290.618
290.744
290.869
290.995
291.121
291.246
291.372
291.497
291.622
291.748
291.873
291.998
292.123
292.248
292.374
292.499
292.624
292.748
292.873
292.998
293.123
293.248
293.372
293.497
293.622
293.746
293.871
293.995
294.12
294.244
294.368
294.493
294.617
294.741
294.865
294.989
295.113
295.237
295.361
295.485
295.609
295.733
295.856
295.98
296.104
296.227
296.351
296.474
296.598
296.721
296.845
296.968
297.091
297.215
297.338
297.461
297.584
297.707
297.83
297.953
298.076
298.199
298.321
298.444
298.567
298.69
298.812
298.935
299.057
299.18
299.302
299.425
299.547
299.669
299.791
299.914
300.036
300.158
300.28
300.402
300.524
300.646
300.768
300.89
301.011
301.133
301.255
301.376
301.498
301.619
301.741
301.862
301.984
302.105
302.226
302.348
302.469
302.59
302.711
302.832
302.953
303.074
303.195
303.316
303.437
303.558
303.678
303.799
303.92
304.04
304.161
304.281
304.402
304.522
304.643
304.763
304.883
305.004
305.124
305.244
305.364
305.484
305.604
305.724
305.844
305.964
306.084
306.203
306.323
306.443
306.562
306.682
306.801
306.921
307.04
307.16
307.279
307.398
307.518
307.637
307.756
307.875
307.994
308.113
308.232
308.351
308.47
308.589
308.708
308.826
308.945
309.064
309.182
309.301
309.419
309.538
309.656
309.775
309.893
310.011
310.13
310.248
310.366
310.484
310.602
310.72
310.838
310.956
311.074
311.192
311.309
311.427
311.545
311.662
311.78
311.898
312.015
312.132
312.25
312.367
312.485
312.602
312.719
312.836
312.953
313.07
313.187
313.304
313.421
313.538
313.655
313.772
313.889
314.005
314.122
314.239
314.355
314.472
314.588
314.705
314.821
314.938
315.054
315.17
315.286
315.403
315.519
315.635
315.751
315.867
315.983
316.099
316.214
316.33
316.446
316.562
316.677
316.793
316.909
317.024
317.14
317.255
317.37
317.486
317.601
317.716
317.831
317.947
318.062
318.177
318.292
318.407
318.522
318.637
318.751
318.866
318.981
319.096
319.21
319.325
319.44
319.554
319.669
319.783
319.897
320.012
320.126
320.24
320.355
320.469
320.583
320.697
320.811
320.925
321.039
321.153
321.267
321.38
321.494
321.608
321.722
321.835
321.949
322.062
322.176
322.289
322.403
322.516
322.629
322.742
322.856
322.969
323.082
323.195
323.308
323.421
323.534
323.647
323.76
323.873
323.985
324.098
324.211
324.323
324.436
324.548
324.661
324.773
324.886
324.998
325.11
325.223
325.335
325.447
325.559
325.671
325.783
325.895
326.007
326.119
326.231
326.343
326.455
326.566
326.678
326.79
326.901
327.013
327.124
327.236
327.347
327.459
327.57
327.681
327.792
327.904
328.015
328.126
328.237
328.348
328.459
328.57
328.681
328.791
328.902
329.013
329.124
329.234
329.345
329.456
329.566
329.677
329.787
329.897
330.008
330.118
330.228
330.338
330.449
330.559
330.669
330.779
330.889
330.999
331.109
331.218
331.328
331.438
331.548
331.657
331.767
331.877
331.986
332.096
332.205
332.314
332.424
332.533
332.642
332.752
332.861
332.97
333.079
333.188
333.297
333.406
333.515
333.624
333.733
333.842
333.95
334.059
334.168
334.276
334.385
334.493
334.602
334.71
334.819
334.927
335.035
335.143
335.252
335.36
335.468
335.576
335.684
335.792
335.9
336.008
336.116
336.224
336.331
336.439
336.547
336.654
336.762
336.87
336.977
337.084
337.192
337.299
337.407
337.514
337.621
337.728
337.835
337.943
338.05
338.157
338.264
338.371
338.477
338.584
338.691
338.798
338.905
339.011
339.118
339.224
339.331
339.437
339.544
339.65
339.757
339.863
339.969
340.075
340.182
340.288
340.394
340.5
340.606
340.712
340.818
340.924
341.03
341.135
341.241
341.347
341.453
341.558
341.664
341.769
341.875
341.98
342.086
342.191
342.296
342.402
342.507
342.612
342.717
342.822
342.927
343.032
343.137
343.242
343.347
343.452
343.557
343.661
343.766
343.871
343.975
344.08
344.184
344.289
344.393
344.498
344.602
344.706
344.811
344.915
345.019
345.123
345.227
345.331
345.435
345.539
345.643
345.747
345.851
345.955
346.059
346.162
346.266
346.37
346.473
346.577
346.68
346.784
346.887
346.99
347.094
347.197
347.3
347.403
347.507
347.61
347.713
347.816
347.919
348.022
348.124
348.227
348.33
348.433
348.536
348.638
348.741
348.843
348.946
349.049
349.151
349.253
349.356
349.458
349.56
349.663
349.765
349.867
349.969
350.071
350.173
350.275
350.377
350.479
350.581
350.683
350.784
350.886
350.988
351.089
351.191
351.293
351.394
351.496
351.597
351.698
351.8
351.901
352.002
352.104
352.205
352.306
352.407
352.508
352.609
352.71
352.811
352.912
353.013
353.113
353.214
353.315
353.415
353.516
353.617
353.717
353.818
353.918
354.018
354.119
354.219
354.319
354.42
354.52
354.62
354.72
354.82
354.92
355.02
355.12
355.22
355.32
355.42
355.519
355.619
355.719
355.818
355.918
356.018
356.117
356.217
356.316
356.415
356.515
356.614
356.713
356.812
356.912
357.011
357.11
357.209
357.308
357.407
357.506
357.605
357.704
357.802
357.901
358
358.098
358.197
358.296
358.394
358.493
358.591
358.69
358.788
358.886
358.984
359.083
359.181
359.279
359.377
359.475
359.573
359.671
359.769
359.867
359.965
360.063
360.161
360.258
360.356
360.454
360.551
360.649
360.746
360.844
360.941
361.039
361.136
361.233
361.331
361.428
361.525
361.622
361.719
361.816
361.913
362.01
362.107
362.204
362.301
362.398
362.495
362.591
362.688
362.785
362.881
362.978
363.074
363.171
363.267
363.364
363.46
363.556
363.653
363.749
363.845
363.941
364.037
364.133
364.23
364.325
364.421
364.517
364.613
364.709
364.805
364.9
364.996
365.092
365.187
365.283
365.379
365.474
365.569
365.665
365.76
365.856
365.951
366.046
366.141
366.236
366.331
366.427
366.522
366.617
366.711
366.806
366.901
366.996
367.091
367.186
367.28
367.375
367.469
367.564
367.659
367.753
367.848
367.942
368.036
368.131
368.225
368.319
368.413
368.507
368.602
368.696
368.79
368.884
368.978
369.072
369.165
369.259
369.353
369.447
369.54
369.634
369.728
369.821
369.915
370.008
370.102
370.195
370.289
370.382
370.475
370.568
370.662
370.755
370.848
370.941
371.034
371.127
371.22
371.313
371.406
371.499
371.591
371.684
371.777
371.87
371.962
372.055
372.147
372.24
372.332
372.425
372.517
372.61
372.702
372.794
372.886
372.979
373.071
373.163
373.255
373.347
373.439
373.531
373.623
373.715
373.806
373.898
373.99
374.082
374.173
374.265
374.356
374.448
374.539
374.631
374.722
374.814
374.905
374.996
375.087
375.179
375.27
375.361
375.452
375.543
375.634
375.725
375.816
375.907
375.998
376.088
376.179
376.27
376.361
376.451
376.542
376.632
376.723
376.813
376.904
376.994
377.085
377.175
377.265
377.355
377.446
377.536
377.626
377.716
377.806
377.896
377.986
378.076
378.166
378.255
378.345
378.435
378.525
378.614
378.704
378.794
378.883
378.973
379.062
379.152
379.241
379.33
379.42
379.509
379.598
379.687
379.776
379.865
379.955
380.044
380.133
380.221
380.31
380.399
380.488
380.577
380.666
380.754
380.843
380.932
381.02
381.109
381.197
381.286
381.374
381.462
381.551
381.639
381.727
381.816
381.904
381.992
382.08
382.168
382.256
382.344
382.432
382.52
382.608
382.696
382.783
382.871
382.959
383.046
383.134
383.222
383.309
383.397
383.484
383.571
383.659
383.746
383.834
383.921
384.008
384.095
384.182
384.269
384.356
384.443
384.53
384.617
384.704
384.791
384.878
384.965
385.052
385.138
385.225
385.312
385.398
385.485
385.571
385.658
385.744
385.83
385.917
386.003
386.089
386.176
386.262
386.348
386.434
386.52
386.606
386.692
386.778
386.864
386.95
387.036
387.121
387.207
387.293
387.379
387.464
387.55
387.635
387.721
387.806
387.892
387.977
388.063
388.148
388.233
388.318
388.404
388.489
388.574
388.659
388.744
388.829
388.914
388.999
389.084
389.169
389.253
389.338
389.423
389.508
389.592
389.677
389.761
389.846
389.93
390.015
390.099
390.184
390.268
390.352
390.437
390.521
390.605
390.689
390.773
390.857
390.941
391.025
391.109
391.193
391.277
391.361
391.445
391.528
391.612
391.696
391.779
391.863
391.946
392.03
392.113
392.197
392.28
392.364
392.447
392.53
392.613
392.697
392.78
392.863
392.946
393.029
393.112
393.195
393.278
393.361
393.444
393.526
393.609
393.692
393.775
393.857
393.94
394.023
394.105
394.188
394.27
394.352
394.435
394.517
394.599
394.682
394.764
394.846
394.928
395.01
395.093
395.175
395.257
395.339
395.42
395.502
395.584
395.666
395.748
395.829
395.911
395.993
396.074
396.156
396.237
396.319
396.4
396.482
396.563
396.645
396.726
396.807
396.888
396.97
397.051
397.132
397.213
397.294
397.375
397.456
397.537
397.618
397.698
397.779
397.86
397.941
398.021
398.102
398.183
398.263
398.344
398.424
398.505
398.585
398.665
398.746
398.826
398.906
398.987
399.067
399.147
399.227
399.307
399.387
399.467
399.547
399.627
399.707
399.787
399.867
399.946
400.026
400.106
400.185
400.265
400.345
400.424
400.504
400.583
400.662
400.742
400.821
400.9
400.98
401.059
401.138
401.217
401.296
401.376
401.455
401.534
401.613
401.691
401.77
401.849
401.928
402.007
402.085
402.164
402.243
402.321
402.4
402.479
402.557
402.636
402.714
402.792
402.871
402.949
403.027
403.106
403.184
403.262
403.34
403.418
403.496
403.574
403.652
403.73
403.808
403.886
403.964
404.041
404.119
404.197
404.275
404.352
404.43
404.507
404.585
404.662
404.74
404.817
404.895
404.972
405.049
405.127
405.204
405.281
405.358
405.435
405.512
405.589
405.666
405.743
405.82
405.897
405.974
406.051
406.127
406.204
406.281
406.357
406.434
406.511
406.587
406.664
406.74
406.817
406.893
406.969
407.046
407.122
407.198
407.274
407.351
407.427
407.503
407.579
407.655
407.731
407.807
407.883
407.959
408.034
408.11
408.186
408.262
408.337
408.413
408.489
408.564
408.64
408.715
408.791
408.866
408.941
409.017
409.092
409.167
409.243
409.318
409.393
409.468
409.543
409.618
409.693
409.768
409.843
409.918
409.993
410.068
410.142
410.217
410.292
410.367
410.441
410.516
410.59
410.665
410.739
410.814
410.888
410.963
411.037
411.111
411.186
411.26
411.334
411.408
411.482
411.556
411.63
411.704
411.778
411.852
411.926
412
412.074
412.148
412.221
412.295
412.369
412.442
412.516
412.59
412.663
412.737
412.81
412.883
412.957
413.03
413.103
413.177
413.25
413.323
413.396
413.469
413.543
413.616
413.689
413.762
413.834
413.907
413.98
414.053
414.126
414.199
414.271
414.344
414.417
414.489
414.562
414.634
414.707
414.779
414.852
414.924
414.996
415.069
415.141
415.213
415.285
415.358
415.43
415.502
415.574
415.646
415.718
415.79
415.862
415.934
416.006
416.077
416.149
416.221
416.292
416.364
416.436
416.507
416.579
416.65
416.722
416.793
416.865
416.936
417.007
417.079
417.15
417.221
417.292
417.363
417.435
417.506
417.577
417.648
417.719
417.79
417.86
417.931
418.002
418.073
418.144
418.214
418.285
418.356
418.426
418.497
418.567
418.638
418.708
418.779
418.849
418.919
418.99
419.06
419.13
419.2
419.271
419.341
419.411
419.481
419.551
419.621
419.691
419.761
419.831
419.9
419.97
420.04
420.11
420.179
420.249
420.319
420.388
420.458
420.527
420.597
420.666
420.736
420.805
420.874
420.944
421.013
421.082
421.151
421.221
421.29
421.359
421.428
421.497
421.566
421.635
421.704
421.773
421.841
421.91
421.979
422.048
422.116
422.185
422.254
422.322
422.391
422.459
422.528
422.596
422.665
422.733
422.801
422.869
422.938
423.006
423.075
423.142
423.211
423.278
423.347
423.414
423.483
423.55
423.618
423.686
423.754
423.822
423.889
423.958
424.025
424.093
424.16
424.228
424.295
424.363
424.431
424.498
424.566
424.632
424.7
424.767
424.835
424.902
424.969
425.036
425.103
425.171
425.237
425.305
425.371
425.439
425.505
425.572
425.639
425.705
425.773
425.839
425.906
425.972
426.039
426.106
426.172
426.239
426.305
426.372
426.438
426.505
426.571
426.637
426.704
426.769
426.836
426.902
426.968
427.034
427.1
427.167
427.232
427.299
427.364
427.43
427.496
427.562
427.628
427.693
427.759
427.824
427.89
427.956
428.021
428.087
428.152
428.218
428.283
428.349
428.414
428.479
428.545
428.609
428.675
428.74
428.805
428.871
428.935
429.001
429.065
429.131
429.196
429.26
429.326
429.39
429.455
429.52
429.584
429.649
429.713
429.779
429.843
429.907
429.972
430.036
430.101
430.165
430.23
430.294
430.358
430.423
430.486
430.551
430.615
430.679
430.744
430.807
430.872
430.935
430.999
431.064
431.127
431.191
431.255
431.319
431.383
431.446
431.51
431.573
431.637
431.701
431.764
431.828
431.891
431.955
432.018
432.081
432.145
432.208
432.271
432.335
432.397
432.461
432.524
432.587
432.65
432.713
432.776
432.839
432.902
432.965
433.027
433.091
433.153
433.216
433.279
433.341
433.404
433.467
433.529
433.592
433.654
433.717
433.779
433.841
433.904
433.966
434.028
434.091
434.153
434.215
434.277
434.339
434.402
434.463
434.526
434.587
434.649
434.712
434.773
434.835
434.897
434.959
435.021
435.082
435.144
435.206
435.267
435.329
435.39
435.452
435.513
435.574
435.636
435.697
435.758
435.82
435.881
435.942
436.004
436.065
436.126
436.187
436.248
436.309
436.37
436.431
436.492
436.553
436.614
436.674
436.735
436.796
436.857
436.918
436.978
437.039
437.1
437.16
437.22
437.281
437.341
437.402
437.462
437.522
437.583
437.643
437.703
437.764
437.823
437.884
437.944
438.004
438.064
438.124
438.184
438.244
438.304
438.364
438.424
438.483
438.543
438.603
438.662
438.722
438.782
438.841
438.901
438.96
439.02
439.079
439.139
439.198
439.258
439.317
439.376
439.435
439.495
439.554
439.613
439.672
439.731
439.79
439.849
439.908
439.967
440.026
440.085
440.144
440.203
440.261
440.32
440.379
440.438
440.497
440.555
440.614
440.672
440.731
440.789
440.848
440.906
440.964
441.023
441.081
441.139
441.197
441.256
441.314
441.372
441.43
441.488
441.546
441.604
441.662
441.72
441.778
441.836
441.894
441.952
442.009
442.067
442.125
442.183
442.24
442.298
442.355
442.413
442.471
442.528
442.586
442.643
442.7
442.758
442.815
442.872
442.93
442.987
443.044
443.101
443.158
443.215
443.272
443.329
443.386
443.443
443.5
443.557
443.614
443.671
443.728
443.784
443.841
443.898
443.954
444.011
444.068
444.124
444.181
444.237
444.293
444.35
444.406
444.463
444.519
444.575
444.631
444.688
444.744
444.8
444.856
444.912
444.968
445.024
445.08
445.136
445.192
445.248
445.304
445.36
445.415
445.471
445.527
445.583
445.638
445.694
445.749
445.805
445.861
445.916
445.972
446.027
446.082
446.138
446.193
446.248
446.304
446.359
446.414
446.469
446.524
446.579
446.635
446.689
446.745
446.8
446.854
446.909
446.964
447.019
447.074
447.129
447.183
447.238
447.293
447.347
447.402
447.457
447.511
447.566
447.62
447.674
447.729
447.783
447.838
447.892
447.946
448
448.055
448.109
448.163
448.217
448.271
448.325
448.379
448.433
448.487
448.541
448.595
448.649
448.703
448.757
448.81
448.864
448.918
448.971
449.025
449.079
449.132
449.186
449.239
449.293
449.346
449.4
449.453
449.506
449.56
449.613
449.666
449.719
449.772
449.826
449.879
449.932
449.985
450.038
450.091
450.144
450.197
450.249
450.302
450.355
450.408
450.461
450.513
450.566
450.619
450.671
450.724
450.777
450.829
450.882
450.934
450.987
451.039
451.091
451.144
451.196
451.248
451.3
451.353
451.405
451.457
451.509
451.561
451.613
451.665
451.717
451.769
451.821
451.873
451.925
451.977
452.028
452.08
452.132
452.184
452.235
452.287
452.338
452.39
452.442
452.493
452.545
452.596
452.647
452.699
452.75
452.801
452.853
452.904
452.955
453.006
453.057
453.109
453.16
453.211
453.262
453.313
453.364
453.415
453.465
453.516
453.567
453.618
453.669
453.719
453.77
453.821
453.871
453.922
453.973
454.023
454.074
454.124
454.175
454.225
454.275
454.326
454.376
454.426
454.477
454.527
454.577
454.627
454.677
454.727
454.778
454.828
454.878
454.928
454.978
455.027
455.077
455.127
455.177
455.227
455.277
455.326
455.376
455.426
455.475
455.525
455.574
455.624
455.673
455.723
455.772
455.822
455.871
455.92
455.97
456.019
456.068
456.117
456.167
456.216
456.265
456.314
456.363
456.412
456.461
456.51
456.559
456.608
456.657
456.706
456.754
456.803
456.852
456.901
456.949
456.998
457.047
457.095
457.144
457.192
457.241
457.289
457.338
457.386
457.434
457.483
457.531
457.579
457.628
457.676
457.724
457.772
457.82
457.868
457.916
457.964
458.012
458.06
458.108
458.156
458.204
458.252
458.3
458.347
458.395
458.443
458.491
458.538
458.586
458.633
458.681
458.729
458.776
458.824
458.871
458.918
458.966
459.013
459.06
459.108
459.155
459.202
459.249
459.296
459.344
459.391
459.438
459.485
459.532
459.579
459.626
459.673
459.719
459.766
459.813
459.86
459.907
459.953
460
460.047
460.093
460.14
460.187
460.233
460.28
460.326
460.373
460.419
460.465
460.512
460.558
460.604
460.651
460.697
460.743
460.789
460.835
460.881
460.927
460.973
461.019
461.065
461.111
461.157
461.203
461.249
461.295
461.341
461.387
461.432
461.478
461.524
461.569
461.615
461.66
461.706
461.752
461.797
461.842
461.888
461.933
461.979
462.024
462.069
462.115
462.16
462.205
462.25
462.295
462.341
462.386
462.431
462.476
462.521
462.566
462.611
462.656
462.7
462.745
462.79
462.835
462.88
462.924
462.969
463.014
463.058
463.103
463.148
463.192
463.237
463.281
463.326
463.37
463.414
463.459
463.503
463.547
463.592
463.636
463.68
463.724
463.768
463.813
463.857
463.901
463.945
463.989
464.033
464.077
464.121
464.164
464.208
464.252
464.296
464.34
464.383
464.427
464.471
464.514
464.558
464.602
464.645
464.689
464.732
464.776
464.819
464.862
464.906
464.949
464.992
465.036
465.079
465.122
465.165
465.208
465.252
465.295
465.338
465.381
465.424
465.467
465.51
465.553
465.596
465.638
465.681
465.724
465.767
465.81
465.852
465.895
465.938
465.98
466.023
466.065
466.108
466.15
466.193
466.235
466.278
466.32
466.362
466.405
466.447
466.489
466.531
466.574
466.616
466.658
466.7
466.742
466.784
466.826
466.868
466.91
466.952
466.994
467.036
467.078
467.119
467.161
467.203
467.245
467.286
467.328
467.37
467.411
467.453
467.494
467.536
467.577
467.619
467.66
467.702
467.743
467.784
467.826
467.867
467.908
467.949
467.991
468.032
468.073
468.114
468.155
468.196
468.237
468.278
468.319
468.36
468.401
468.442
468.483
468.523
468.564
468.605
468.646
468.686
468.727
468.768
468.808
468.849
468.889
468.93
468.97
469.011
469.051
469.092
469.132
469.172
469.212
469.253
469.293
469.333
469.373
469.414
469.454
469.494
469.534
469.574
469.614
469.654
469.694
469.734
469.774
469.813
469.853
469.893
469.933
469.973
470.012
470.052
470.092
470.131
470.171
470.211
470.25
470.29
470.329
470.368
470.408
470.447
470.487
470.526
470.565
470.605
470.644
470.683
470.722
470.761
470.801
470.84
470.879
470.918
470.957
470.996
471.035
471.074
471.113
471.151
471.19
471.229
471.268
471.307
471.345
471.384
471.423
471.461
471.5
471.539
471.577
471.616
471.654
471.693
471.731
471.769
471.808
471.846
471.884
471.923
471.961
471.999
472.037
472.076
472.114
472.152
472.19
472.228
472.266
472.304
472.342
472.38
472.418
472.456
472.494
472.531
472.569
472.607
472.645
472.682
472.72
472.758
472.795
472.833
472.871
472.908
472.946
472.983
473.021
473.058
473.095
473.133
473.17
473.207
473.245
473.282
473.319
473.356
473.394
473.431
473.468
473.505
473.542
473.579
473.616
473.653
473.69
473.727
473.764
473.8
473.837
473.874
473.911
473.948
473.984
474.021
474.058
474.094
474.131
474.167
474.204
474.241
474.277
474.313
474.35
474.386
474.423
474.459
474.495
474.532
474.568
474.604
474.64
474.676
474.713
474.749
474.785
474.821
474.857
474.893
474.929
474.965
475.001
475.037
475.072
475.108
475.144
475.18
475.216
475.251
475.287
475.323
475.358
475.394
475.429
475.465
475.5
475.536
475.571
475.607
475.642
475.678
475.713
475.748
475.784
475.819
475.854
475.889
475.924
475.96
475.995
476.03
476.065
476.1
476.135
476.17
476.205
476.24
476.275
476.31
476.344
476.379
476.414
476.449
476.483
476.518
476.553
476.588
476.622
476.657
476.691
476.726
476.76
476.795
476.829
476.864
476.898
476.932
476.967
477.001
477.035
477.07
477.104
477.138
477.172
477.206
477.24
477.275
477.309
477.343
477.377
477.411
477.445
477.478
477.512
477.546
477.58
477.614
477.648
477.681
477.715
477.749
477.782
477.816
477.85
477.883
477.917
477.95
477.984
478.017
478.051
478.084
478.118
478.151
478.184
478.218
478.251
478.284
478.317
478.351
478.384
478.417
478.45
478.483
478.516
478.549
478.582
478.615
478.648
478.681
478.714
478.747
478.78
478.812
478.845
478.878
478.911
478.943
478.976
479.009
479.041
479.074
479.106
479.139
479.171
479.204
479.236
479.269
479.301
479.334
479.366
479.398
479.43
479.463
479.495
479.527
479.559
479.591
479.624
479.656
479.688
479.72
479.752
479.784
479.816
479.848
479.88
479.911
479.943
479.975
480.007
480.039
480.07
480.102
480.134
480.165
480.197
480.229
480.26
480.292
480.323
480.355
480.386
480.418
480.449
480.48
480.512
480.543
480.574
480.606
480.637
480.668
480.699
480.731
480.762
480.793
480.824
480.855
480.886
480.917
480.948
480.979
481.01
481.041
481.072
481.102
481.133
481.164
481.195
481.225
481.256
481.287
481.317
481.348
481.379
481.409
481.44
481.47
481.501
481.531
481.562
481.592
481.622
481.653
481.683
481.713
481.744
481.774
481.804
481.834
481.865
481.895
481.925
481.955
481.985
482.015
482.045
482.075
482.105
482.135
482.165
482.194
482.224
482.254
482.284
482.314
482.343
482.373
482.403
482.432
482.462
482.492
482.521
482.551
482.58
482.61
482.639
482.669
482.698
482.727
482.757
482.786
482.815
482.845
482.874
482.903