/*--------------------------------*- C++ -*----------------------------------*\
  =========                 |
  \\      /  F ield         | OpenFOAM: The Open Source CFD Toolbox
   \\    /   O peration     | Website:  https://openfoam.org
    \\  /    A nd           | Version:  9
     \\/     M anipulation  |
\*---------------------------------------------------------------------------*/
FoamFile
{
    format      ascii;
    class       volScalarField;
    location    "0.03";
    object      ddt0(rho);
}
// * * * * * * * * * * * * * * * * * * * * * * * * * * * * * * * * * * * * * //

dimensions      [1 -3 -1 0 0 0 0];

internalField   nonuniform List<scalar> 
1000
(
-13.2211
-13.2145
-13.2072
-13.198
-13.1924
-13.1896
-13.1825
-13.169
-13.1552
-13.1483
-13.1495
-13.1532
-13.152
-13.1419
-13.1238
-13.1022
-13.0836
-13.0729
-13.0724
-13.0816
-13.0981
-13.1178
-13.1362
-13.1501
-13.158
-13.1594
-13.1573
-13.157
-13.1611
-13.1778
-13.1969
-13.1932
-13.1914
-13.1887
-13.186
-13.1833
-13.1802
-13.1775
-13.175
-13.1724
-13.1698
-13.167
-13.1643
-13.1619
-13.1595
-13.1571
-13.1547
-13.1522
-13.1498
-13.1474
-13.1449
-13.1423
-13.1397
-13.1371
-13.1345
-13.132
-13.1295
-13.1269
-13.1244
-13.122
-13.1195
-13.117
-13.1144
-13.1118
-13.1092
-13.1066
-13.104
-13.1014
-13.0988
-13.0962
-13.0937
-13.0911
-13.0885
-13.0857
-13.0833
-13.0803
-13.0783
-13.0746
-13.0737
-13.0685
-13.0693
-13.062
-13.0648
-13.0569
-13.0581
-13.0543
-13.0507
-13.0485
-13.0464
-13.0434
-13.0388
-13.0414
-13.0293
-13.0394
-13.0227
-13.0318
-13.0234
-13.0172
-13.0272
-13.0063
-13.0198
-13.0106
-12.9997
-13.0167
-12.9928
-12.9991
-13.0064
-12.9794
-12.9984
-12.9933
-12.9696
-12.9953
-12.9803
-12.961
-12.9902
-12.9689
-12.9516
-12.9838
-12.9595
-12.9409
-12.9764
-12.9526
-12.929
-12.9672
-12.9487
-12.9168
-12.9549
-12.9473
-12.9062
-12.9385
-12.9467
-12.8997
-12.9183
-12.9437
-12.8992
-12.8971
-12.9347
-12.9038
-12.8792
-12.9179
-12.9098
-12.8689
-12.894
-12.912
-12.8687
-12.8674
-12.9041
-12.8779
-12.8466
-12.8814
-12.889
-12.8419
-12.8477
-12.8865
-12.8567
-12.8208
-12.8579
-12.874
-12.8225
-12.8153
-12.8632
-12.8492
-12.7963
-12.8175
-12.8589
-12.8203
-12.7797
-12.8199
-12.8459
-12.7936
-12.7699
-12.8189
-12.8275
-12.771
-12.7636
-12.8134
-12.8069
-12.7517
-12.7583
-12.8045
-12.7863
-12.7346
-12.751
-12.7951
-12.7683
-12.7172
-12.7398
-12.7859
-12.7552
-12.6999
-12.7227
-12.7747
-12.7481
-12.686
-12.7002
-12.7581
-12.744
-12.6783
-12.6774
-12.735
-12.7368
-12.675
-12.6591
-12.71
-12.7254
-12.6706
-12.6419
-12.6863
-12.7158
-12.6677
-12.6215
-12.6556
-12.7056
-12.6759
-12.6088
-12.6139
-12.6784
-12.6874
-12.6188
-12.5809
-12.63
-12.6773
-12.639
-12.5747
-12.5854
-12.6442
-12.645
-12.5811
-12.5549
-12.6051
-12.6418
-12.5956
-12.533
-12.5507
-12.6178
-12.6227
-12.5487
-12.503
-12.5501
-12.6122
-12.5893
-12.5119
-12.4921
-12.5518
-12.5908
-12.5436
-12.4789
-12.4922
-12.5567
-12.5657
-12.4956
-12.4452
-12.4866
-12.5555
-12.5441
-12.4608
-12.4182
-12.4709
-12.5368
-12.5171
-12.4366
-12.4052
-12.4588
-12.5108
-12.4797
-12.4054
-12.3904
-12.4513
-12.4955
-12.452
-12.3721
-12.3592
-12.4264
-12.4779
-12.4393
-12.357
-12.3337
-12.3909
-12.4432
-12.4152
-12.3411
-12.316
-12.3672
-12.4188
-12.3934
-12.3153
-12.2793
-12.3271
-12.3932
-12.3883
-12.3127
-12.2542
-12.2773
-12.3429
-12.3617
-12.3054
-12.2415
-12.2451
-12.3045
-12.337
-12.2921
-12.2169
-12.1953
-12.249
-12.3077
-12.2964
-12.2226
-12.166
-12.1848
-12.2451
-12.2677
-12.2191
-12.1526
-12.142
-12.1928
-12.2379
-12.2154
-12.1419
-12.0923
-12.1149
-12.1761
-12.201
-12.156
-12.0869
-12.0642
-12.102
-12.1465
-12.1372
-12.0759
-12.0248
-12.0338
-12.0852
-12.1157
-12.083
-12.0142
-11.9748
-11.9953
-12.0427
-12.0562
-12.0115
-11.9515
-11.9334
-11.9663
-12.007
-12.0002
-11.9415
-11.8831
-11.8731
-11.9122
-11.9487
-11.9341
-11.8766
-11.8259
-11.8243
-11.8607
-11.8845
-11.8593
-11.7978
-11.7578
-11.744
-11.7925
-11.818
-11.7833
-11.7297
-11.6954
-11.6762
-11.6889
-11.7412
-11.6909
-11.6678
-11.6356
-11.6196
-11.6299
-11.6418
-11.646
-11.5881
-11.5579
-11.5262
-11.5111
-11.5049
-11.5033
-11.4879
-11.4544
-11.4197
-11.4005
-11.397
-11.3957
-11.3822
-11.3506
-11.3123
-11.2877
-11.2838
-11.2807
-11.2632
-11.2317
-11.1915
-11.1619
-11.1514
-11.1454
-11.1315
-11.1072
-11.0676
-11.0271
-11.0119
-11.011
-10.9977
-10.9691
-10.9339
-10.8948
-10.8675
-10.8582
-10.849
-10.8272
-10.7938
-10.7553
-10.7228
-10.7098
-10.7054
-10.6908
-10.6594
-10.6192
-10.5845
-10.5649
-10.5578
-10.5491
-10.5259
-10.4876
-10.4506
-10.4315
-10.4283
-10.424
-10.4085
-10.3825
-10.3528
-10.3287
-10.3185
-10.3196
-10.3162
-10.2994
-10.2746
-10.2518
-10.2385
-10.2378
-10.2453
-10.246
-10.2303
-10.2069
-10.1935
-10.1967
-10.2078
-10.2147
-10.2095
-10.1951
-10.1827
-10.183
-10.1958
-10.2106
-10.2178
-10.2138
-10.2038
-10.2007
-10.2117
-10.2323
-10.2498
-10.2548
-10.2492
-10.2435
-10.2505
-10.2728
-10.2984
-10.3116
-10.3118
-10.3097
-10.3144
-10.3294
-10.3525
-10.3761
-10.3894
-10.3891
-10.3855
-10.3932
-10.4159
-10.4438
-10.4643
-10.4713
-10.4703
-10.4736
-10.4892
-10.5147
-10.5394
-10.5543
-10.5584
-10.5594
-10.5672
-10.5867
-10.613
-10.6357
-10.6471
-10.6491
-10.6506
-10.6615
-10.6856
-10.7155
-10.7376
-10.743
-10.7381
-10.7399
-10.7603
-10.7939
-10.8222
-10.8321
-10.8274
-10.8259
-10.8422
-10.8733
-10.9039
-10.9193
-10.9187
-10.9154
-10.9239
-10.9492
-10.9808
-11.0035
-11.0102
-11.0076
-11.0115
-11.0312
-11.0622
-11.0887
-11.0994
-11.0977
-11.0983
-11.1138
-11.1426
-11.1716
-11.1875
-11.1896
-11.1893
-11.1996
-11.2245
-11.2542
-11.2749
-11.2807
-11.2797
-11.285
-11.3058
-11.3368
-11.3635
-11.3756
-11.3749
-11.3742
-11.387
-11.4152
-11.4468
-11.4673
-11.4707
-11.4664
-11.4707
-11.4932
-11.5273
-11.5565
-11.5682
-11.5649
-11.5626
-11.5764
-11.6073
-11.6409
-11.6609
-11.6625
-11.6571
-11.6626
-11.6859
-11.7199
-11.7476
-11.758
-11.7556
-11.7562
-11.7723
-11.8023
-11.8334
-11.8513
-11.8542
-11.8525
-11.8604
-11.8833
-11.9137
-11.9382
-11.9488
-11.9505
-11.9544
-11.9706
-11.9971
-12.0245
-12.0425
-12.0495
-12.0528
-12.0618
-12.0814
-12.1066
-12.1296
-12.1439
-12.1512
-12.1579
-12.1709
-12.1915
-12.2148
-12.2349
-12.2482
-12.2568
-12.2661
-12.2803
-12.3005
-12.3223
-12.3412
-12.3544
-12.3636
-12.3739
-12.3886
-12.4085
-12.4299
-12.4487
-12.4627
-12.4735
-12.4844
-12.4988
-12.5172
-12.5373
-12.556
-12.5713
-12.5833
-12.5952
-12.6091
-12.6258
-12.6451
-12.6638
-12.6807
-12.6946
-12.7071
-12.7202
-12.7358
-12.7532
-12.7718
-12.7897
-12.8053
-12.8198
-12.8337
-12.8489
-12.865
-12.8822
-12.8995
-12.9163
-12.9321
-12.9473
-12.9627
-12.978
-12.9945
-13.011
-13.0275
-13.0441
-13.0602
-13.0769
-13.0928
-13.1088
-13.1251
-13.141
-13.1573
-13.1733
-13.1897
-13.2061
-13.2229
-13.2391
-13.2555
-13.2719
-13.2877
-13.3043
-13.3201
-13.3365
-13.3528
-13.3695
-13.3862
-13.4028
-13.419
-13.4349
-13.4513
-13.4673
-13.4838
-13.5
-13.5166
-13.5329
-13.5494
-13.5657
-13.5819
-13.5981
-13.6141
-13.6305
-13.6465
-13.6631
-13.6796
-13.6959
-13.712
-13.7281
-13.744
-13.7602
-13.7761
-13.7926
-13.8089
-13.8256
-13.8422
-13.8583
-13.8751
-13.8908
-13.9072
-13.923
-13.9392
-13.9555
-13.9715
-13.9879
-14.0039
-14.0209
-14.0372
-14.0538
-14.0701
-14.0863
-14.1029
-14.1182
-14.1353
-14.1505
-14.1669
-14.1834
-14.1992
-14.2163
-14.2313
-14.2492
-14.2641
-14.2817
-14.2974
-14.3134
-14.331
-14.3454
-14.3633
-14.378
-14.395
-14.4108
-14.4267
-14.443
-14.4581
-14.4756
-14.4903
-14.507
-14.5237
-14.5386
-14.5567
-14.5706
-14.5891
-14.6027
-14.6208
-14.6359
-14.6515
-14.6692
-14.6834
-14.7015
-14.7157
-14.734
-14.746
-14.7679
-14.7766
-14.7993
-14.8107
-14.8253
-14.8478
-14.8534
-14.8803
-14.885
-14.9114
-14.9164
-14.9411
-14.954
-14.9631
-14.995
-14.9888
-15.025
-15.0258
-15.0512
-15.0575
-15.0831
-15.0905
-15.1046
-15.1338
-15.1251
-15.1686
-15.1545
-15.197
-15.1892
-15.2195
-15.2302
-15.2366
-15.2691
-15.2627
-15.3
-15.2847
-15.3441
-15.3006
-15.3688
-15.3547
-15.3606
-15.4108
-15.3794
-15.4351
-15.4078
-15.4719
-15.4229
-15.4984
-15.4689
-15.4965
-15.5167
-15.5101
-15.5547
-15.5179
-15.5947
-15.5411
-15.6048
-15.5893
-15.6033
-15.6292
-15.6243
-15.6408
-15.6604
-15.6642
-15.6592
-15.7156
-15.6642
-15.7278
-15.7066
-15.7293
-15.7373
-15.7347
-15.7679
-15.7482
-15.7897
-15.7563
-15.808
-15.78
-15.82
-15.8037
-15.8018
-15.8513
-15.835
-15.8081
-15.8626
-15.8766
-15.798
-15.9252
-15.8362
-15.842
-15.9368
-15.8811
-15.793
-15.9842
-15.8865
-15.804
-16.0155
-15.8105
-15.9139
-15.9363
-15.8664
-15.8783
-15.9479
-15.8432
-15.8805
-15.9615
-15.7883
-15.8981
-15.8794
-15.823
-15.8527
-15.8706
-15.7335
-15.7854
-15.8835
-15.6753
-15.7385
-15.6893
-15.6844
-15.6614
-15.5893
-15.5777
-15.4209
-15.5637
-15.4609
-15.2858
-15.2562
-15.2481
-15.1809
-15.0591
-15.0203
-14.8081
-14.7559
-14.7053
-14.6626
-14.4334
-14.1052
-14.1848
-14.1425
-13.9247
-13.5911
-13.3965
-13.3526
-13.2681
-12.9535
-12.5476
-12.4057
-12.3997
-12.1182
-11.6003
-11.3804
-11.2626
-10.9997
-10.6397
-10.335
-10.0675
-9.72669
-9.42253
-9.04448
-8.83596
-8.58515
-8.03519
-7.66409
-7.48872
-7.21778
-6.84745
-6.50559
-6.08135
-5.75675
-5.50382
-5.33076
-5.0795
-4.57011
-4.15646
-3.94808
-3.76774
-3.55509
-3.38996
-3.0995
-2.76085
-2.47167
-2.26635
-2.16348
-2.02086
-1.83858
-1.61363
-1.43794
-1.35639
-1.28866
-1.19373
-1.02922
-0.877039
-0.809547
-0.775617
-0.693118
-0.579089
-0.482607
-0.401442
-0.360765
-0.372845
-0.372479
-0.292582
-0.166938
-0.0830546
-0.0629295
-0.0841736
-0.127233
-0.156621
-0.161264
-0.146687
-0.123472
-0.0946005
-0.0131261
0.058598
0.0858092
0.0904589
0.0917765
0.0512595
0.0196254
-0.0973311
-0.223065
-0.297971
-0.3682
-0.353962
-0.461532
-0.369757
-0.327599
-0.608512
-0.481587
0.150729
0.0391757
-2.12754
-2.2415
-3.19217
-1.73511
-3.65316
)
;

boundaryField
{
    sides
    {
        type            calculated;
        value           nonuniform List<scalar> 2(-3.65316 -13.2211);
    }
    empty
    {
        type            empty;
    }
}


// ************************************************************************* //
