/*--------------------------------*- C++ -*----------------------------------*\
  =========                 |
  \\      /  F ield         | OpenFOAM: The Open Source CFD Toolbox
   \\    /   O peration     | Website:  https://openfoam.org
    \\  /    A nd           | Version:  9
     \\/     M anipulation  |
\*---------------------------------------------------------------------------*/
FoamFile
{
    format      ascii;
    class       volScalarField;
    location    "0.03";
    object      rho;
}
// * * * * * * * * * * * * * * * * * * * * * * * * * * * * * * * * * * * * * //

dimensions      [1 -3 0 0 0 0 0];

internalField   nonuniform List<scalar> 
1000
(
0.320849
0.320772
0.320653
0.32054
0.320432
0.320328
0.320224
0.320119
0.320009
0.319898
0.319789
0.319686
0.319588
0.319491
0.31939
0.319283
0.319169
0.319052
0.318937
0.318826
0.318725
0.318634
0.318553
0.318482
0.318416
0.318353
0.318292
0.318231
0.318172
0.318117
0.318072
0.318029
0.317986
0.317943
0.3179
0.317856
0.317813
0.317769
0.317726
0.317682
0.317638
0.317594
0.317551
0.317507
0.317463
0.317419
0.317375
0.317331
0.317287
0.317243
0.317199
0.317155
0.317111
0.317067
0.317023
0.316979
0.316935
0.316891
0.316847
0.316803
0.316759
0.316715
0.316671
0.316626
0.316582
0.316538
0.316494
0.31645
0.316406
0.316362
0.316317
0.316273
0.316229
0.316185
0.31614
0.316096
0.316052
0.316008
0.315963
0.31592
0.315874
0.315832
0.315784
0.315745
0.315695
0.315656
0.315606
0.315568
0.315517
0.315479
0.315429
0.315389
0.315341
0.315299
0.315255
0.315207
0.315168
0.315118
0.315077
0.315032
0.314985
0.314945
0.314896
0.314854
0.314811
0.314762
0.314722
0.314676
0.314628
0.314589
0.314541
0.314495
0.314456
0.314406
0.314362
0.314322
0.314272
0.314228
0.314188
0.314138
0.314093
0.314055
0.314004
0.313959
0.313921
0.313871
0.313824
0.313786
0.313738
0.313689
0.313651
0.313605
0.313555
0.313515
0.313472
0.313421
0.313378
0.313338
0.313289
0.313242
0.313203
0.313156
0.313107
0.313067
0.313024
0.312973
0.31293
0.31289
0.312841
0.312793
0.312754
0.31271
0.312659
0.312616
0.312576
0.312527
0.312479
0.312439
0.312396
0.312345
0.312301
0.312262
0.312215
0.312165
0.312123
0.312083
0.312034
0.311985
0.311945
0.311903
0.311853
0.311806
0.311767
0.311723
0.311672
0.311627
0.311588
0.311543
0.311492
0.311448
0.311409
0.311362
0.311312
0.311269
0.31123
0.311182
0.311132
0.31109
0.31105
0.311003
0.310953
0.31091
0.310871
0.310825
0.310774
0.31073
0.310691
0.310646
0.310595
0.31055
0.310511
0.310468
0.310418
0.310371
0.310331
0.310289
0.31024
0.310192
0.310152
0.310111
0.310063
0.310013
0.309971
0.309933
0.309887
0.309836
0.309791
0.309752
0.309711
0.309661
0.309612
0.309571
0.309533
0.309487
0.309437
0.309392
0.309353
0.309311
0.309262
0.309214
0.309174
0.309135
0.309088
0.309038
0.308994
0.308957
0.308916
0.308867
0.308817
0.308776
0.308739
0.308696
0.308646
0.308599
0.30856
0.308521
0.308476
0.308427
0.308383
0.308345
0.308305
0.308257
0.308209
0.308167
0.308131
0.30809
0.308042
0.307993
0.307953
0.307917
0.307876
0.307828
0.307781
0.307741
0.307705
0.307662
0.307615
0.307569
0.307531
0.307495
0.307452
0.307404
0.307359
0.307322
0.307286
0.307245
0.307198
0.307153
0.307115
0.30708
0.307039
0.306994
0.30695
0.306912
0.306877
0.306838
0.306793
0.306748
0.30671
0.306676
0.30664
0.306597
0.306552
0.306512
0.306478
0.306443
0.306403
0.30636
0.30632
0.306286
0.306252
0.306214
0.306172
0.306131
0.306096
0.306065
0.306031
0.305991
0.30595
0.305913
0.305881
0.30585
0.305814
0.305774
0.305737
0.305705
0.305676
0.305644
0.305607
0.305569
0.305535
0.305506
0.305479
0.305447
0.305411
0.305377
0.305347
0.305321
0.305293
0.305261
0.305227
0.305197
0.305172
0.305148
0.305121
0.305091
0.305061
0.305034
0.305012
0.30499
0.304965
0.304937
0.304911
0.30489
0.304871
0.304852
0.30483
0.304805
0.304783
0.304765
0.304751
0.304735
0.304716
0.304697
0.30468
0.304668
0.304657
0.304646
0.304631
0.304617
0.304605
0.304598
0.304593
0.304587
0.304579
0.304572
0.304566
0.304565
0.304565
0.304564
0.304564
0.304563
0.304562
0.304564
0.304568
0.304574
0.304582
0.304591
0.304601
0.304613
0.304627
0.304644
0.304662
0.30468
0.3047
0.304721
0.304745
0.304772
0.304801
0.30483
0.30486
0.304893
0.304928
0.304967
0.305007
0.305049
0.305092
0.305137
0.305185
0.305237
0.305291
0.305347
0.305404
0.305463
0.305526
0.305593
0.305662
0.305733
0.305807
0.305882
0.305961
0.306043
0.306129
0.306217
0.306308
0.3064
0.306496
0.306595
0.306698
0.306805
0.306913
0.307024
0.307137
0.307253
0.307374
0.307498
0.307625
0.307753
0.307883
0.308017
0.308155
0.308296
0.30844
0.308586
0.308734
0.308884
0.309038
0.309195
0.309355
0.309517
0.30968
0.309845
0.310013
0.310183
0.310357
0.310533
0.31071
0.310888
0.311067
0.311249
0.311434
0.31162
0.311808
0.311996
0.312185
0.312376
0.312568
0.312763
0.312958
0.313154
0.313351
0.313548
0.313746
0.313946
0.314148
0.314349
0.314551
0.314752
0.314955
0.315159
0.315364
0.315569
0.315775
0.31598
0.316185
0.316391
0.316598
0.316807
0.317015
0.317223
0.31743
0.317638
0.317846
0.318056
0.318266
0.318476
0.318685
0.318894
0.319104
0.319314
0.319525
0.319737
0.319948
0.320158
0.320369
0.32058
0.320792
0.321005
0.321217
0.321429
0.321641
0.321853
0.322065
0.322279
0.322493
0.322707
0.322919
0.323132
0.323345
0.32356
0.323775
0.32399
0.324204
0.324417
0.324631
0.324847
0.325063
0.325279
0.325494
0.325709
0.325924
0.326139
0.326356
0.326573
0.32679
0.327006
0.327222
0.327438
0.327656
0.327874
0.328092
0.328309
0.328526
0.328743
0.328962
0.329181
0.3294
0.329618
0.329836
0.330054
0.330273
0.330493
0.330714
0.330933
0.331152
0.331371
0.331591
0.331812
0.332033
0.332254
0.332475
0.332695
0.332915
0.333136
0.333359
0.333581
0.333803
0.334024
0.334245
0.334467
0.33469
0.334914
0.335137
0.335359
0.335582
0.335804
0.336028
0.336252
0.336477
0.336701
0.336924
0.337148
0.337372
0.337597
0.337823
0.338048
0.338273
0.338498
0.338722
0.338948
0.339175
0.339402
0.339628
0.339854
0.34008
0.340306
0.340534
0.340762
0.340989
0.341216
0.341443
0.341671
0.341899
0.342128
0.342357
0.342585
0.342814
0.343042
0.343271
0.3435
0.34373
0.34396
0.34419
0.34442
0.344649
0.34488
0.34511
0.345341
0.345573
0.345804
0.346034
0.346266
0.346497
0.346729
0.346962
0.347194
0.347426
0.347658
0.347891
0.348124
0.348357
0.348591
0.348824
0.349058
0.349291
0.349525
0.349759
0.349994
0.350229
0.350464
0.350698
0.350933
0.351169
0.351404
0.35164
0.351876
0.352112
0.352348
0.352585
0.352821
0.353058
0.353295
0.353532
0.353769
0.354007
0.354245
0.354483
0.354721
0.354959
0.355198
0.355436
0.355675
0.355914
0.356154
0.356393
0.356633
0.356873
0.357113
0.357353
0.357593
0.357834
0.358075
0.358316
0.358557
0.358799
0.35904
0.359282
0.359524
0.359766
0.360009
0.360251
0.360494
0.360737
0.360981
0.361224
0.361468
0.361711
0.361955
0.362199
0.362444
0.362688
0.362933
0.363178
0.363423
0.363669
0.363914
0.36416
0.364406
0.364652
0.364898
0.365145
0.365391
0.365638
0.365885
0.366132
0.36638
0.366627
0.366875
0.367123
0.367371
0.367619
0.367868
0.368117
0.368366
0.368614
0.368864
0.369113
0.369363
0.369612
0.369862
0.370113
0.370363
0.370613
0.370864
0.371115
0.371366
0.371617
0.371868
0.37212
0.372372
0.372624
0.372876
0.373128
0.37338
0.373633
0.373886
0.374139
0.374392
0.374645
0.374899
0.375153
0.375406
0.37566
0.375915
0.376169
0.376424
0.376678
0.376933
0.377188
0.377444
0.377699
0.377955
0.37821
0.378466
0.378722
0.378979
0.379235
0.379492
0.379748
0.380006
0.380263
0.38052
0.380778
0.381035
0.381293
0.381551
0.381809
0.382067
0.382326
0.382585
0.382844
0.383103
0.383362
0.383621
0.383881
0.384141
0.3844
0.384661
0.38492
0.385182
0.385442
0.385703
0.385964
0.386225
0.386487
0.386747
0.387011
0.387271
0.387534
0.387796
0.388059
0.388323
0.388584
0.388849
0.38911
0.389377
0.389638
0.389904
0.390167
0.390432
0.390698
0.390961
0.391229
0.391492
0.391761
0.392024
0.392294
0.392559
0.392827
0.393095
0.393361
0.393633
0.393896
0.394172
0.394435
0.394711
0.394977
0.395251
0.395521
0.395792
0.396068
0.396335
0.396616
0.396882
0.397165
0.397433
0.397716
0.397988
0.398268
0.398547
0.398824
0.399107
0.399384
0.39967
0.39995
0.400236
0.400518
0.400807
0.401091
0.401381
0.401671
0.401959
0.402255
0.402543
0.402843
0.403134
0.403435
0.403731
0.404033
0.404334
0.404636
0.404944
0.405247
0.405561
0.405866
0.406182
0.406494
0.406812
0.407125
0.40745
0.407769
0.408091
0.408422
0.408742
0.409076
0.409407
0.409743
0.410069
0.410422
0.410748
0.411096
0.411442
0.411781
0.412136
0.412481
0.412836
0.413185
0.413549
0.413895
0.414264
0.414621
0.414982
0.415349
0.415714
0.41608
0.416449
0.416822
0.417185
0.417563
0.417939
0.418305
0.418687
0.419053
0.419437
0.419806
0.420187
0.420559
0.42093
0.421313
0.421684
0.422056
0.422425
0.4228
0.423168
0.423537
0.423906
0.424262
0.424629
0.424984
0.425352
0.425697
0.426042
0.426393
0.426741
0.427082
0.42741
0.427739
0.428065
0.428395
0.428707
0.429011
0.429314
0.429623
0.429917
0.430195
0.430475
0.430751
0.43102
0.431278
0.431531
0.431777
0.432013
0.432244
0.43246
0.432683
0.432892
0.433084
0.433271
0.433458
0.433636
0.433805
0.433968
0.434116
0.434262
0.434398
0.434539
0.434668
0.434783
0.434887
0.434991
0.43509
0.435185
0.435278
0.43536
0.435434
0.435499
0.435562
0.435622
0.435679
0.435731
0.435775
0.435817
0.435857
0.435897
0.435934
0.435966
0.435994
0.436022
0.43605
0.436074
0.436095
0.436113
0.436129
0.436143
0.436159
0.436175
0.436186
0.436193
0.436198
0.436202
0.436208
0.436215
0.436223
0.436231
0.436239
0.436245
0.43625
0.436252
0.436251
0.43625
0.436248
0.436244
0.436242
0.43624
0.436239
0.43624
0.436243
0.436249
0.436257
0.436263
0.43627
0.436272
0.436279
0.436287
0.436285
0.436284
0.436309
0.436348
0.43641
0.436521
)
;

boundaryField
{
    sides
    {
        type            calculated;
        value           nonuniform List<scalar> 2(0.436521 0.320849);
    }
    empty
    {
        type            empty;
    }
}


// ************************************************************************* //
