/*--------------------------------*- C++ -*----------------------------------*\
  =========                 |
  \\      /  F ield         | OpenFOAM: The Open Source CFD Toolbox
   \\    /   O peration     | Website:  https://openfoam.org
    \\  /    A nd           | Version:  9
     \\/     M anipulation  |
\*---------------------------------------------------------------------------*/
FoamFile
{
    format      ascii;
    class       volScalarField;
    location    "0.03";
    object      rho_0;
}
// * * * * * * * * * * * * * * * * * * * * * * * * * * * * * * * * * * * * * //

dimensions      [1 -3 0 0 0 0 0];

internalField   nonuniform List<scalar> 
1000
(
0.320981
0.320904
0.320785
0.320672
0.320564
0.320459
0.320356
0.320251
0.320141
0.320029
0.31992
0.319818
0.31972
0.319622
0.319521
0.319414
0.3193
0.319183
0.319067
0.318957
0.318856
0.318765
0.318685
0.318613
0.318547
0.318485
0.318423
0.318362
0.318303
0.318249
0.318203
0.318161
0.318118
0.318075
0.318032
0.317988
0.317945
0.317901
0.317857
0.317814
0.31777
0.317726
0.317682
0.317638
0.317594
0.31755
0.317506
0.317462
0.317418
0.317374
0.31733
0.317286
0.317242
0.317198
0.317154
0.31711
0.317066
0.317022
0.316978
0.316934
0.31689
0.316846
0.316802
0.316757
0.316713
0.316669
0.316625
0.316581
0.316537
0.316492
0.316448
0.316404
0.31636
0.316316
0.316271
0.316227
0.316183
0.316139
0.316094
0.316051
0.316004
0.315963
0.315915
0.315875
0.315825
0.315787
0.315737
0.315698
0.315648
0.315609
0.315559
0.31552
0.315471
0.315429
0.315385
0.315337
0.315298
0.315248
0.315207
0.315162
0.315115
0.315075
0.315026
0.314984
0.314941
0.314892
0.314852
0.314806
0.314758
0.314719
0.314671
0.314625
0.314586
0.314536
0.314491
0.314452
0.314402
0.314358
0.314318
0.314267
0.314223
0.314184
0.314134
0.314088
0.31405
0.314
0.313953
0.313915
0.313867
0.313818
0.31378
0.313734
0.313684
0.313644
0.313601
0.31355
0.313508
0.313467
0.313417
0.313371
0.313332
0.313285
0.313236
0.313196
0.313153
0.313102
0.313059
0.313019
0.31297
0.312922
0.312883
0.312838
0.312787
0.312745
0.312705
0.312656
0.312607
0.312568
0.312525
0.312474
0.312429
0.31239
0.312343
0.312293
0.312251
0.312211
0.312162
0.312113
0.312073
0.312031
0.31198
0.311934
0.311895
0.311851
0.3118
0.311755
0.311716
0.31167
0.31162
0.311576
0.311536
0.31149
0.31144
0.311397
0.311357
0.31131
0.31126
0.311218
0.311178
0.31113
0.31108
0.311038
0.310999
0.310952
0.310901
0.310857
0.310819
0.310773
0.310722
0.310677
0.310638
0.310595
0.310544
0.310498
0.310458
0.310416
0.310366
0.310319
0.310279
0.310238
0.310189
0.31014
0.310098
0.310059
0.310013
0.309962
0.309917
0.309879
0.309837
0.309787
0.309738
0.309698
0.309659
0.309612
0.309562
0.309518
0.30948
0.309437
0.309387
0.30934
0.309301
0.309261
0.309214
0.309164
0.30912
0.309083
0.309041
0.308992
0.308943
0.308902
0.308865
0.308821
0.308771
0.308725
0.308686
0.308647
0.308601
0.308552
0.308508
0.308471
0.30843
0.308382
0.308333
0.308293
0.308256
0.308215
0.308166
0.308118
0.308078
0.308042
0.308
0.307952
0.307905
0.307866
0.307829
0.307786
0.307738
0.307694
0.307656
0.30762
0.307576
0.307528
0.307484
0.307447
0.307411
0.307369
0.307322
0.307277
0.307239
0.307204
0.307163
0.307117
0.307073
0.307036
0.307001
0.306961
0.306915
0.306871
0.306834
0.3068
0.306763
0.306719
0.306675
0.306636
0.306602
0.306566
0.306525
0.306482
0.306443
0.306409
0.306375
0.306337
0.306294
0.306253
0.306219
0.306187
0.306153
0.306113
0.306072
0.306035
0.306004
0.305972
0.305935
0.305896
0.305859
0.305828
0.305798
0.305765
0.305728
0.30569
0.305657
0.305628
0.3056
0.305567
0.305532
0.305498
0.305469
0.305442
0.305414
0.305381
0.305347
0.305318
0.305293
0.305269
0.305242
0.305211
0.305181
0.305154
0.305132
0.30511
0.305084
0.305057
0.305031
0.30501
0.304991
0.304972
0.304948
0.304924
0.304902
0.304885
0.30487
0.304854
0.304835
0.304815
0.304799
0.304786
0.304776
0.304764
0.304749
0.304734
0.304723
0.304716
0.304711
0.304704
0.304696
0.304689
0.304683
0.304682
0.304682
0.304681
0.304681
0.304679
0.304679
0.30468
0.304684
0.30469
0.304698
0.304706
0.304716
0.304728
0.304742
0.304759
0.304776
0.304794
0.304814
0.304835
0.304859
0.304886
0.304914
0.304943
0.304973
0.305005
0.305041
0.305079
0.305119
0.305161
0.305203
0.305248
0.305296
0.305348
0.305402
0.305458
0.305515
0.305573
0.305636
0.305703
0.305772
0.305843
0.305916
0.305991
0.306069
0.306151
0.306237
0.306325
0.306415
0.306507
0.306603
0.306702
0.306805
0.306911
0.307019
0.307129
0.307242
0.307359
0.307479
0.307603
0.307729
0.307857
0.307988
0.308121
0.308259
0.3084
0.308544
0.308689
0.308837
0.308987
0.309141
0.309298
0.309458
0.309619
0.309783
0.309948
0.310115
0.310286
0.310459
0.310635
0.310812
0.310989
0.311169
0.311351
0.311536
0.311722
0.311909
0.312098
0.312287
0.312477
0.31267
0.312865
0.31306
0.313256
0.313453
0.31365
0.313848
0.314049
0.31425
0.314452
0.314653
0.314855
0.315057
0.315262
0.315467
0.315672
0.315878
0.316083
0.316288
0.316495
0.316702
0.31691
0.317119
0.317326
0.317534
0.317742
0.317951
0.31816
0.318371
0.31858
0.31879
0.318999
0.319209
0.31942
0.319631
0.319842
0.320053
0.320264
0.320475
0.320686
0.320899
0.321111
0.321324
0.321536
0.321748
0.32196
0.322173
0.322387
0.322601
0.322814
0.323027
0.323239
0.323453
0.323668
0.323883
0.324098
0.324312
0.324526
0.32474
0.324956
0.325172
0.325388
0.325603
0.325818
0.326033
0.326249
0.326466
0.326684
0.3269
0.327116
0.327332
0.327549
0.327767
0.327985
0.328203
0.32842
0.328637
0.328855
0.329073
0.329293
0.329512
0.32973
0.329948
0.330167
0.330386
0.330606
0.330826
0.331046
0.331265
0.331484
0.331704
0.331925
0.332147
0.332368
0.332588
0.332808
0.333029
0.333251
0.333473
0.333696
0.333918
0.334139
0.33436
0.334582
0.334805
0.335029
0.335253
0.335475
0.335697
0.33592
0.336144
0.336369
0.336594
0.336818
0.337041
0.337264
0.337489
0.337714
0.33794
0.338166
0.338391
0.338615
0.33884
0.339067
0.339294
0.339521
0.339747
0.339973
0.340199
0.340425
0.340653
0.340881
0.341109
0.341336
0.341563
0.341791
0.342019
0.342248
0.342477
0.342706
0.342934
0.343163
0.343392
0.343622
0.343852
0.344082
0.344312
0.344541
0.344771
0.345002
0.345233
0.345464
0.345695
0.345926
0.346157
0.346389
0.34662
0.346853
0.347085
0.347318
0.34755
0.347782
0.348015
0.348248
0.348481
0.348715
0.348949
0.349183
0.349416
0.34965
0.349885
0.350119
0.350354
0.350589
0.350824
0.351059
0.351295
0.35153
0.351766
0.352002
0.352239
0.352475
0.352712
0.352948
0.353185
0.353422
0.35366
0.353897
0.354135
0.354373
0.354611
0.354849
0.355088
0.355326
0.355565
0.355804
0.356044
0.356283
0.356523
0.356763
0.357003
0.357243
0.357483
0.357724
0.357965
0.358206
0.358447
0.358688
0.35893
0.359172
0.359414
0.359656
0.359898
0.360141
0.360384
0.360627
0.36087
0.361113
0.361357
0.361601
0.361845
0.362089
0.362333
0.362578
0.362822
0.363067
0.363312
0.363558
0.363803
0.364049
0.364295
0.364541
0.364787
0.365034
0.36528
0.365527
0.365774
0.366021
0.366269
0.366516
0.366764
0.367012
0.36726
0.367508
0.367757
0.368005
0.368254
0.368503
0.368752
0.369002
0.369251
0.369501
0.369751
0.370001
0.370251
0.370502
0.370753
0.371003
0.371254
0.371505
0.371757
0.372008
0.37226
0.372512
0.372764
0.373016
0.373269
0.373521
0.373774
0.374027
0.37428
0.374534
0.374787
0.375041
0.375295
0.375549
0.375803
0.376057
0.376312
0.376567
0.376821
0.377076
0.377332
0.377587
0.377843
0.378098
0.378354
0.37861
0.378867
0.379123
0.37938
0.379637
0.379893
0.380151
0.380408
0.380665
0.380923
0.381181
0.381439
0.381697
0.381956
0.382214
0.382473
0.382731
0.382991
0.38325
0.383509
0.383769
0.384028
0.384289
0.384548
0.384809
0.385069
0.38533
0.38559
0.385852
0.386113
0.386374
0.386636
0.386897
0.38716
0.387421
0.387684
0.387946
0.388209
0.388473
0.388734
0.389
0.389261
0.389528
0.389789
0.390056
0.390318
0.390584
0.390849
0.391113
0.391381
0.391644
0.391914
0.392177
0.392446
0.392711
0.39298
0.393247
0.393515
0.393786
0.39405
0.394326
0.394588
0.394865
0.395131
0.395405
0.395675
0.395947
0.396222
0.39649
0.396771
0.397037
0.39732
0.397588
0.397871
0.398143
0.398424
0.398702
0.39898
0.399263
0.39954
0.399826
0.400106
0.400392
0.400675
0.400964
0.401248
0.401538
0.401828
0.402116
0.402412
0.4027
0.403
0.403291
0.403593
0.403888
0.404191
0.404492
0.404794
0.405102
0.405405
0.405719
0.406024
0.40634
0.406652
0.40697
0.407283
0.407609
0.407926
0.40825
0.40858
0.408901
0.409235
0.409566
0.409901
0.410229
0.410581
0.410906
0.411256
0.411601
0.41194
0.412295
0.41264
0.412995
0.413344
0.413708
0.414054
0.414424
0.414779
0.415141
0.415508
0.415872
0.416238
0.416608
0.41698
0.417343
0.417722
0.418095
0.418462
0.418844
0.41921
0.419594
0.419962
0.420343
0.420713
0.421086
0.421468
0.421837
0.422209
0.422578
0.422952
0.423319
0.423687
0.424054
0.42441
0.424776
0.425131
0.425497
0.425839
0.426184
0.426535
0.42688
0.427219
0.427544
0.427873
0.428199
0.428525
0.428833
0.429136
0.429438
0.429745
0.430034
0.43031
0.430588
0.430862
0.431128
0.431382
0.431633
0.431875
0.432108
0.432336
0.43255
0.43277
0.432973
0.433162
0.433347
0.433531
0.433705
0.433872
0.43403
0.434174
0.434317
0.434452
0.434591
0.434715
0.434825
0.434927
0.43503
0.435126
0.435219
0.43531
0.435388
0.43546
0.435523
0.435584
0.435643
0.435698
0.435748
0.43579
0.435831
0.43587
0.435909
0.435945
0.435975
0.436003
0.43603
0.436057
0.43608
0.4361
0.436117
0.436132
0.436147
0.436163
0.436178
0.436188
0.436194
0.436198
0.436203
0.436209
0.436217
0.436225
0.436233
0.43624
0.436247
0.436251
0.436252
0.43625
0.436249
0.436247
0.436244
0.436241
0.43624
0.436241
0.436243
0.436247
0.436252
0.436261
0.436267
0.436273
0.436277
0.436285
0.436289
0.436282
0.436297
0.436333
0.436377
0.436428
0.436557
)
;

boundaryField
{
    sides
    {
        type            calculated;
        value           nonuniform List<scalar> 2(0.436557 0.320981);
    }
    empty
    {
        type            empty;
    }
}


// ************************************************************************* //
