/*--------------------------------*- C++ -*----------------------------------*\
  =========                 |
  \\      /  F ield         | OpenFOAM: The Open Source CFD Toolbox
   \\    /   O peration     | Website:  https://openfoam.org
    \\  /    A nd           | Version:  9
     \\/     M anipulation  |
\*---------------------------------------------------------------------------*/
FoamFile
{
    format      ascii;
    class       volScalarField;
    location    "0.018";
    object      p;
}
// * * * * * * * * * * * * * * * * * * * * * * * * * * * * * * * * * * * * * //

dimensions      [1 -1 -2 0 0 0 0];

internalField   nonuniform List<scalar> 
1000
(
52640.6
52630.6
52622.7
52615.5
52607.9
52600.2
52592.4
52584.7
52576.8
52568.9
52561
52553
52544.9
52536.8
52528.6
52520.4
52512.1
52503.8
52495.4
52487
52478.5
52469.9
52461.3
52452.7
52443.9
52435.2
52426.3
52417.4
52408.5
52399.5
52390.4
52381.3
52372.1
52362.9
52353.6
52344.2
52334.8
52325.4
52315.8
52306.2
52296.6
52286.9
52277.1
52267.3
52257.4
52247.4
52237.4
52227.3
52217.1
52206.9
52196.7
52186.3
52175.9
52165.5
52154.9
52144.4
52133.7
52123
52112.2
52101.3
52090.4
52079.4
52068.3
52057.2
52046
52034.8
52023.4
52012
52000.5
51989
51977.4
51965.7
51953.9
51942.1
51930.2
51918.2
51906.1
51894
51881.8
51869.5
51857.1
51844.7
51832.2
51819.5
51806.9
51794.1
51781.3
51768.3
51755.3
51742.2
51729
51715.8
51702.4
51689
51675.5
51661.9
51648.1
51634.4
51620.5
51606.5
51592.4
51578.2
51564
51549.6
51535.2
51520.6
51506
51491.2
51476.3
51461.4
51446.3
51431.1
51415.9
51400.5
51385
51369.4
51353.6
51337.8
51321.8
51305.8
51289.6
51273.3
51256.8
51240.3
51223.6
51206.8
51189.8
51172.7
51155.5
51138.2
51120.7
51103.1
51085.3
51067.4
51049.3
51031.1
51012.8
50994.2
50975.6
50956.7
50937.7
50918.6
50899.2
50879.7
50860
50840.2
50820.1
50799.9
50779.4
50758.8
50738
50717
50695.7
50674.3
50652.6
50630.7
50608.6
50586.2
50563.6
50540.8
50517.7
50494.4
50470.8
50446.9
50422.7
50398.3
50373.5
50348.5
50323.2
50297.5
50271.5
50245.2
50218.5
50191.5
50164.1
50136.4
50108.2
50079.7
50050.7
50021.4
49991.6
49961.3
49930.6
49899.4
49867.8
49835.6
49803
49769.8
49736
49701.7
49666.7
49631.3
49595.2
49558.6
49521.3
49483.3
49444.7
49405.4
49365.3
49324.6
49283.1
49240.8
49197.7
49153.8
49109.1
49063.6
49017.2
48970
48922
48873
48823.1
48772.4
48720.7
48668
48614.4
48559.9
48504.4
48447.9
48390.4
48332
48272.5
48212.1
48150.8
48088.4
48025.1
47960.8
47895.5
47829.3
47762.1
47694.1
47625.1
47555.2
47484.4
47412.8
47340.4
47267.1
47193.1
47118.3
47042.7
46966.5
46889.5
46812
46733.7
46654.9
46575.6
46495.6
46415.2
46334.4
46253
46171.3
46089.2
46006.7
45923.9
45840.8
45757.4
45673.8
45590
45506
45421.8
45337.4
45253
45168.4
45083.7
44999
44914.2
44829.4
44744.6
44659.8
44574.9
44490.1
44405.4
44320.6
44236
44151.4
44066.8
43982.4
43898
43813.7
43729.5
43645.4
43561.4
43477.6
43393.8
43310.2
43226.7
43143.3
43060.1
42976.9
42893.9
42811.1
42728.3
42645.8
42563.3
42481
42398.8
42316.8
42234.9
42153.2
42071.5
41990.1
41908.8
41827.6
41746.6
41665.7
41584.9
41504.3
41423.9
41343.5
41263.4
41183.4
41103.5
41023.7
40944.2
40864.7
40785.4
40706.3
40627.3
40548.4
40469.7
40391.1
40312.7
40234.4
40156.3
40078.3
40000.5
39922.8
39845.2
39767.8
39690.6
39613.5
39536.5
39459.7
39383
39306.5
39230.1
39153.9
39077.8
39001.9
38926.1
38850.5
38775
38699.6
38624.5
38549.4
38474.5
38399.8
38325.2
38250.7
38176.5
38102.3
38028.3
37954.5
37880.8
37807.3
37733.9
37660.7
37587.6
37514.7
37441.9
37369.3
37296.8
37224.5
37152.4
37080.4
37008.6
36936.9
36865.4
36794
36722.9
36651.8
36581
36510.3
36439.7
36369.4
36299.2
36229.1
36159.2
36089.5
36020
35950.7
35881.5
35812.5
35743.6
35675
35606.5
35538.2
35470
35402.1
35334.3
35266.8
35199.4
35132.2
35065.2
34998.4
34931.8
34865.4
34799.2
34733.1
34667.3
34601.7
34536.4
34471.2
34406.2
34341.5
34277
34212.7
34148.6
34084.8
34021.2
33957.9
33894.8
33831.9
33769.3
33707
33644.9
33583.1
33521.5
33460.3
33399.3
33338.6
33278.2
33218.1
33158.4
33098.9
33039.8
32981
32922.5
32864.4
32806.6
32749.2
32692.2
32635.5
32579.2
32523.4
32467.9
32412.9
32358.3
32304.2
32250.5
32197.3
32144.6
32092.4
32040.6
31989.5
31938.8
31888.7
31839.2
31790.3
31741.9
31694.2
31647.1
31600.7
31555
31509.9
31465.6
31421.9
31379.1
31336.9
31295.6
31255.1
31215.4
31176.5
31138.5
31101.3
31065.1
31029.7
30995.3
30961.8
30929.3
30897.7
30867.1
30837.5
30808.9
30781.3
30754.7
30729.1
30704.6
30681
30658.5
30637
30616.5
30597
30578.5
30560.9
30544.3
30528.7
30513.9
30500.1
30487.2
30475
30463.8
30453.3
30443.5
30434.5
30426.2
30418.6
30411.6
30405.2
30399.3
30394
30389.2
30384.8
30380.9
30377.4
30374.2
30371.4
30368.8
30366.6
30364.6
30362.9
30361.3
30360
30358.8
30357.7
30356.8
30356
30355.4
30354.8
30354.3
30353.8
30353.5
30353.1
30352.8
30352.6
30352.4
30352.2
30352.1
30351.9
30351.8
30351.7
30351.6
30351.6
30351.5
30351.4
30351.4
30351.3
30351.3
30351.3
30351.2
30351.2
30351.1
30351.1
30351.1
30351.1
30351
30351
30351
30350.9
30350.9
30350.9
30350.9
30350.9
30350.8
30350.8
30350.8
30350.8
30350.8
30350.7
30350.7
30350.7
30350.7
30350.7
30350.7
30350.6
30350.6
30350.6
30350.6
30350.6
30350.6
30350.6
30350.6
30350.6
30350.6
30350.6
30350.6
30350.6
30350.6
30350.6
30350.6
30350.6
30350.6
30350.6
30350.6
30350.6
30350.6
30350.6
30350.6
30350.6
30350.6
30350.6
30350.7
30350.7
30350.7
30350.7
30350.7
30350.7
30350.7
30350.7
30350.7
30350.7
30350.7
30350.7
30350.7
30350.7
30350.7
30350.7
30350.7
30350.7
30350.7
30350.7
30350.7
30350.7
30350.7
30350.7
30350.7
30350.7
30350.7
30350.7
30350.7
30350.7
30350.7
30350.7
30350.7
30350.7
30350.6
30350.6
30350.6
30350.6
30350.6
30350.6
30350.6
30350.6
30350.6
30350.6
30350.6
30350.6
30350.6
30350.6
30350.6
30350.6
30350.6
30350.6
30350.6
30350.6
30350.6
30350.6
30350.6
30350.6
30350.6
30350.6
30350.6
30350.6
30350.5
30350.5
30350.5
30350.5
30350.5
30350.5
30350.5
30350.5
30350.5
30350.5
30350.5
30350.5
30350.5
30350.5
30350.5
30350.5
30350.5
30350.5
30350.5
30350.5
30350.5
30350.5
30350.5
30350.5
30350.5
30350.5
30350.5
30350.5
30350.5
30350.5
30350.5
30350.5
30350.5
30350.5
30350.5
30350.5
30350.5
30350.5
30350.4
30350.4
30350.4
30350.4
30350.4
30350.4
30350.4
30350.4
30350.4
30350.4
30350.4
30350.4
30350.4
30350.4
30350.4
30350.4
30350.4
30350.4
30350.4
30350.4
30350.4
30350.4
30350.4
30350.4
30350.4
30350.4
30350.4
30350.4
30350.4
30350.4
30350.4
30350.4
30350.4
30350.4
30350.4
30350.4
30350.4
30350.4
30350.4
30350.4
30350.4
30350.4
30350.4
30350.4
30350.4
30350.4
30350.4
30350.4
30350.4
30350.4
30350.4
30350.4
30350.4
30350.4
30350.4
30350.3
30350.3
30350.3
30350.3
30350.3
30350.3
30350.3
30350.3
30350.3
30350.3
30350.3
30350.3
30350.3
30350.3
30350.3
30350.3
30350.3
30350.3
30350.3
30350.3
30350.3
30350.3
30350.3
30350.3
30350.3
30350.3
30350.3
30350.3
30350.3
30350.3
30350.3
30350.3
30350.3
30350.3
30350.3
30350.3
30350.3
30350.3
30350.3
30350.3
30350.3
30350.3
30350.3
30350.3
30350.3
30350.3
30350.3
30350.3
30350.3
30350.3
30350.3
30350.3
30350.3
30350.3
30350.3
30350.3
30350.3
30350.3
30350.3
30350.3
30350.3
30350.3
30350.3
30350.3
30350.3
30350.3
30350.3
30350.3
30350.3
30350.3
30350.3
30350.3
30350.3
30350.3
30350.3
30350.3
30350.3
30350.3
30350.2
30350.2
30350.2
30350.2
30350.2
30350.2
30350.2
30350.2
30350.2
30350.2
30350.2
30350.2
30350.2
30350.2
30350.2
30350.2
30350.2
30350.2
30350.2
30350.2
30350.2
30350.2
30350.2
30350.2
30350.2
30350.2
30350.2
30350.2
30350.2
30350.2
30350.2
30350.2
30350.2
30350.2
30350.2
30350.2
30350.2
30350.2
30350.2
30350.2
30350.2
30350.2
30350.2
30350.2
30350.2
30350.2
30350.2
30350.2
30350.2
30350.2
30350.2
30350.2
30350.2
30350.2
30350.2
30350.2
30350.2
30350.2
30350.2
30350.2
30350.2
30350.2
30350.2
30350.2
30350.2
30350.2
30350.3
30350.3
30350.3
30350.3
30350.4
30350.5
30350.5
30350.7
30350.8
30351
30351.2
30351.5
30351.9
30352.3
30352.9
30353.5
30354.4
30355.4
30356.5
30358
30359.6
30361.6
30363.8
30366.5
30369.5
30372.9
30376.7
30381
30385.8
30391.2
30397
30403.3
30410.1
30417.4
30425.2
30433.4
30442
30450.9
30460
30469.4
30478.8
30488.3
30497.8
30507.1
30516.3
30525.2
30533.7
30541.9
30549.6
30556.9
30563.6
30569.8
30575.5
30580.7
30585.3
30589.4
30593
30596.2
30598.9
30601.3
30603.3
30605.1
30606.5
30607.8
30608.9
30609.6
30610.4
30610.8
30610.9
30611.1
30611.3
30611.5
30611.6
30611.9
30612.1
30612.4
30612.7
30613
30613.3
30613.8
30614.2
30614.7
30615.3
30615.9
30616.6
30617.4
30618.2
30619.1
30620.1
30621.1
30622.1
30623.2
30626.8
30630.4
30633.5
30635.8
30636.1
30636
30635.8
30635.4
30634.7
30634
30633
30632
30630.8
30629.7
30628.2
30627.1
30625.6
30625
30622
)
;

boundaryField
{
    sides
    {
        type            zeroGradient;
    }
    empty
    {
        type            empty;
    }
}


// ************************************************************************* //
