/*--------------------------------*- C++ -*----------------------------------*\
  =========                 |
  \\      /  F ield         | OpenFOAM: The Open Source CFD Toolbox
   \\    /   O peration     | Website:  https://openfoam.org
    \\  /    A nd           | Version:  9
     \\/     M anipulation  |
\*---------------------------------------------------------------------------*/
FoamFile
{
    format      ascii;
    class       volScalarField;
    location    "0.027";
    object      mag(U);
}
// * * * * * * * * * * * * * * * * * * * * * * * * * * * * * * * * * * * * * //

dimensions      [0 1 -1 0 0 0 0];

internalField   nonuniform List<scalar> 
10000
(
3.55907
3.62417
3.68553
3.73653
3.78489
3.83422
3.8844
3.93471
3.98492
4.03505
4.08517
4.13531
4.18546
4.23561
4.28576
4.3359
4.38604
4.43619
4.48633
4.53648
4.58663
4.63678
4.68693
4.73708
4.78722
4.83736
4.88751
4.93765
4.9878
5.03795
5.0881
5.13826
5.18841
5.23857
5.28873
5.33888
5.38904
5.43919
5.48935
5.5395
5.58965
5.6398
5.68996
5.74011
5.79026
5.84041
5.89057
5.94072
5.99087
6.04103
6.09118
6.14133
6.19149
6.24164
6.2918
6.34195
6.39211
6.44226
6.49242
6.54257
6.59273
6.64289
6.69304
6.7432
6.79336
6.84352
6.89367
6.94383
6.99399
7.04415
7.09431
7.14447
7.19463
7.24478
7.29494
7.3451
7.39527
7.44543
7.49559
7.54575
7.59591
7.64607
7.69623
7.7464
7.79656
7.84672
7.89688
7.94705
7.99721
8.04737
8.09754
8.1477
8.19787
8.24803
8.2982
8.34836
8.39853
8.4487
8.49886
8.54903
8.59919
8.64936
8.69953
8.7497
8.79986
8.85003
8.9002
8.95037
9.00054
9.05071
9.10088
9.15105
9.20122
9.25139
9.30156
9.35173
9.4019
9.45207
9.50224
9.55241
9.60259
9.65276
9.70293
9.7531
9.80328
9.85345
9.90362
9.9538
10.004
10.0541
10.1043
10.1545
10.2047
10.2548
10.305
10.3552
10.4054
10.4556
10.5057
10.5559
10.6061
10.6563
10.7064
10.7566
10.8068
10.857
10.9072
10.9573
11.0075
11.0577
11.1079
11.1581
11.2082
11.2584
11.3086
11.3588
11.409
11.4591
11.5093
11.5595
11.6097
11.6599
11.71
11.7602
11.8104
11.8606
11.9108
11.961
12.0112
12.0613
12.1115
12.1617
12.2119
12.2621
12.3123
12.3625
12.4126
12.4628
12.513
12.5632
12.6134
12.6636
12.7138
12.764
12.8141
12.8643
12.9145
12.9647
13.0149
13.0651
13.1153
13.1655
13.2157
13.2659
13.316
13.3662
13.4164
13.4666
13.5168
13.567
13.6172
13.6674
13.7176
13.7678
13.818
13.8682
13.9184
13.9686
14.0188
14.069
14.1191
14.1693
14.2195
14.2697
14.3199
14.3701
14.4203
14.4705
14.5207
14.5709
14.6211
14.6713
14.7215
14.7717
14.8219
14.8721
14.9223
14.9725
15.0227
15.0729
15.1231
15.1733
15.2235
15.2737
15.3239
15.3741
15.4243
15.4745
15.5247
15.5749
15.6251
15.6753
15.7255
15.7758
15.826
15.8762
15.9264
15.9766
16.0268
16.077
16.1272
16.1774
16.2276
16.2778
16.328
16.3782
16.4284
16.4786
16.5289
16.5791
16.6293
16.6795
16.7297
16.7799
16.8301
16.8803
16.9305
16.9807
17.0309
17.0812
17.1314
17.1816
17.2318
17.282
17.3322
17.3824
17.4326
17.4829
17.5331
17.5833
17.6335
17.6837
17.7339
17.7841
17.8344
17.8846
17.9348
17.985
18.0352
18.0854
18.1357
18.1859
18.2361
18.2863
18.3365
18.3867
18.437
18.4872
18.5374
18.5876
18.6378
18.6881
18.7383
18.7885
18.8387
18.8889
18.9392
18.9894
19.0396
19.0898
19.14
19.1903
19.2405
19.2907
19.3409
19.3912
19.4414
19.4916
19.5418
19.592
19.6423
19.6925
19.7427
19.7929
19.8432
19.8934
19.9436
19.9938
20.0441
20.0943
20.1445
20.1948
20.245
20.2952
20.3454
20.3957
20.4459
20.4961
20.5463
20.5966
20.6468
20.697
20.7473
20.7975
20.8477
20.898
20.9482
20.9984
21.0487
21.0989
21.1491
21.1993
21.2496
21.2998
21.35
21.4003
21.4505
21.5007
21.551
21.6012
21.6514
21.7017
21.7519
21.8022
21.8524
21.9026
21.9529
22.0031
22.0533
22.1036
22.1538
22.204
22.2543
22.3045
22.3548
22.405
22.4552
22.5055
22.5557
22.606
22.6562
22.7064
22.7567
22.8069
22.8572
22.9074
22.9576
23.0079
23.0581
23.1084
23.1586
23.2089
23.2591
23.3093
23.3596
23.4098
23.4601
23.5103
23.5606
23.6108
23.661
23.7113
23.7615
23.8118
23.862
23.9123
23.9625
24.0128
24.063
24.1133
24.1635
24.2138
24.264
24.3143
24.3645
24.4148
24.465
24.5153
24.5655
24.6158
24.666
24.7163
24.7665
24.8168
24.867
24.9173
24.9675
25.0178
25.068
25.1183
25.1685
25.2188
25.269
25.3193
25.3695
25.4198
25.47
25.5203
25.5705
25.6208
25.6711
25.7213
25.7716
25.8218
25.8721
25.9223
25.9726
26.0229
26.0731
26.1234
26.1736
26.2239
26.2741
26.3244
26.3747
26.4249
26.4752
26.5254
26.5757
26.626
26.6762
26.7265
26.7767
26.827
26.8773
26.9275
26.9778
27.028
27.0783
27.1286
27.1788
27.2291
27.2794
27.3296
27.3799
27.4302
27.4804
27.5307
27.581
27.6312
27.6815
27.7317
27.782
27.8323
27.8825
27.9328
27.9831
28.0333
28.0836
28.1339
28.1842
28.2344
28.2847
28.335
28.3852
28.4355
28.4858
28.536
28.5863
28.6366
28.6868
28.7371
28.7874
28.8377
28.8879
28.9382
28.9885
29.0387
29.089
29.1393
29.1896
29.2398
29.2901
29.3404
29.3907
29.4409
29.4912
29.5415
29.5918
29.642
29.6923
29.7426
29.7929
29.8431
29.8934
29.9437
29.994
30.0442
30.0945
30.1448
30.1951
30.2454
30.2956
30.3459
30.3962
30.4465
30.4968
30.547
30.5973
30.6476
30.6979
30.7482
30.7984
30.8487
30.899
30.9493
30.9996
31.0499
31.1001
31.1504
31.2007
31.251
31.3013
31.3516
31.4018
31.4521
31.5024
31.5527
31.603
31.6533
31.7036
31.7538
31.8041
31.8544
31.9047
31.955
32.0053
32.0556
32.1058
32.1561
32.2064
32.2567
32.307
32.3573
32.4076
32.4579
32.5082
32.5585
32.6087
32.659
32.7093
32.7596
32.8099
32.8602
32.9105
32.9608
33.0111
33.0614
33.1117
33.162
33.2122
33.2625
33.3128
33.3631
33.4134
33.4637
33.514
33.5643
33.6146
33.6649
33.7152
33.7655
33.8158
33.8661
33.9164
33.9667
34.017
34.0673
34.1176
34.1679
34.2182
34.2685
34.3188
34.3691
34.4194
34.4697
34.52
34.5703
34.6206
34.6709
34.7212
34.7715
34.8218
34.8721
34.9224
34.9727
35.023
35.0733
35.1236
35.1739
35.2242
35.2745
35.3248
35.3751
35.4254
35.4757
35.526
35.5763
35.6266
35.6769
35.7272
35.7776
35.8279
35.8782
35.9285
35.9788
36.0291
36.0794
36.1297
36.18
36.2303
36.2806
36.3309
36.3813
36.4316
36.4819
36.5322
36.5825
36.6328
36.6831
36.7334
36.7837
36.834
36.8844
36.9347
36.985
37.0353
37.0856
37.1359
37.1862
37.2366
37.2869
37.3372
37.3875
37.4378
37.4881
37.5384
37.5888
37.6391
37.6894
37.7397
37.79
37.8403
37.8907
37.941
37.9913
38.0416
38.0919
38.1422
38.1926
38.2429
38.2932
38.3435
38.3938
38.4442
38.4945
38.5448
38.5951
38.6454
38.6958
38.7461
38.7964
38.8467
38.897
38.9474
38.9977
39.048
39.0983
39.1487
39.199
39.2493
39.2996
39.35
39.4003
39.4506
39.5009
39.5513
39.6016
39.6519
39.7022
39.7526
39.8029
39.8532
39.9035
39.9539
40.0042
40.0545
40.1049
40.1552
40.2055
40.2558
40.3062
40.3565
40.4068
40.4572
40.5075
40.5578
40.6082
40.6585
40.7088
40.7591
40.8095
40.8598
40.9101
40.9605
41.0108
41.0611
41.1115
41.1618
41.2121
41.2625
41.3128
41.3631
41.4135
41.4638
41.5141
41.5645
41.6148
41.6652
41.7155
41.7658
41.8162
41.8665
41.9168
41.9672
42.0175
42.0679
42.1182
42.1685
42.2189
42.2692
42.3195
42.3699
42.4202
42.4706
42.5209
42.5712
42.6216
42.6719
42.7223
42.7726
42.823
42.8733
42.9236
42.974
43.0243
43.0747
43.125
43.1754
43.2257
43.276
43.3264
43.3767
43.4271
43.4774
43.5278
43.5781
43.6285
43.6788
43.7291
43.7795
43.8298
43.8802
43.9305
43.9809
44.0312
44.0816
44.1319
44.1823
44.2326
44.283
44.3333
44.3837
44.434
44.4844
44.5347
44.5851
44.6354
44.6858
44.7361
44.7865
44.8368
44.8872
44.9375
44.9879
45.0382
45.0886
45.1389
45.1893
45.2397
45.29
45.3404
45.3907
45.4411
45.4914
45.5418
45.5921
45.6425
45.6928
45.7432
45.7936
45.8439
45.8943
45.9446
45.995
46.0453
46.0957
46.1461
46.1964
46.2468
46.2971
46.3475
46.3979
46.4482
46.4986
46.5489
46.5993
46.6497
46.7
46.7504
46.8007
46.8511
46.9015
46.9518
47.0022
47.0526
47.1029
47.1533
47.2036
47.254
47.3044
47.3547
47.4051
47.4555
47.5058
47.5562
47.6066
47.6569
47.7073
47.7577
47.808
47.8584
47.9088
47.9591
48.0095
48.0599
48.1102
48.1606
48.211
48.2613
48.3117
48.3621
48.4124
48.4628
48.5132
48.5636
48.6139
48.6643
48.7147
48.765
48.8154
48.8658
48.9162
48.9665
49.0169
49.0673
49.1176
49.168
49.2184
49.2688
49.3191
49.3695
49.4199
49.4703
49.5206
49.571
49.6214
49.6718
49.7221
49.7725
49.8229
49.8733
49.9236
49.974
50.0244
50.0748
50.1252
50.1755
50.2259
50.2763
50.3267
50.377
50.4274
50.4778
50.5282
50.5786
50.6289
50.6793
50.7297
50.7801
50.8305
50.8809
50.9312
50.9816
51.032
51.0824
51.1328
51.1832
51.2335
51.2839
51.3343
51.3847
51.4351
51.4855
51.5358
51.5862
51.6366
51.687
51.7374
51.7878
51.8382
51.8885
51.9389
51.9893
52.0397
52.0901
52.1405
52.1909
52.2413
52.2916
52.342
52.3924
52.4428
52.4932
52.5436
52.594
52.6444
52.6948
52.7452
52.7955
52.8459
52.8963
52.9467
52.9971
53.0475
53.0979
53.1483
53.1987
53.2491
53.2995
53.3499
53.4003
53.4507
53.501
53.5514
53.6018
53.6522
53.7026
53.753
53.8034
53.8538
53.9042
53.9546
54.005
54.0554
54.1058
54.1562
54.2066
54.257
54.3074
54.3578
54.4082
54.4586
54.509
54.5594
54.6098
54.6602
54.7106
54.761
54.8114
54.8618
54.9122
54.9626
55.013
55.0634
55.1138
55.1642
55.2146
55.265
55.3154
55.3658
55.4162
55.4666
55.517
55.5674
55.6178
55.6683
55.7187
55.7691
55.8195
55.8699
55.9203
55.9707
56.0211
56.0715
56.1219
56.1723
56.2227
56.2731
56.3235
56.374
56.4244
56.4748
56.5252
56.5756
56.626
56.6764
56.7268
56.7772
56.8276
56.8781
56.9285
56.9789
57.0293
57.0797
57.1301
57.1805
57.2309
57.2814
57.3318
57.3822
57.4326
57.483
57.5334
57.5838
57.6343
57.6847
57.7351
57.7855
57.8359
57.8863
57.9368
57.9872
58.0376
58.088
58.1384
58.1888
58.2393
58.2897
58.3401
58.3905
58.4409
58.4913
58.5418
58.5922
58.6426
58.693
58.7434
58.7939
58.8443
58.8947
58.9451
58.9956
59.046
59.0964
59.1468
59.1972
59.2477
59.2981
59.3485
59.3989
59.4494
59.4998
59.5502
59.6006
59.6511
59.7015
59.7519
59.8023
59.8528
59.9032
59.9536
60.004
60.0545
60.1049
60.1553
60.2057
60.2562
60.3066
60.357
60.4075
60.4579
60.5083
60.5587
60.6092
60.6596
60.71
60.7605
60.8109
60.8613
60.9118
60.9622
61.0126
61.0631
61.1135
61.1639
61.2144
61.2648
61.3152
61.3657
61.4161
61.4665
61.517
61.5674
61.6178
61.6683
61.7187
61.7691
61.8196
61.87
61.9204
61.9709
62.0213
62.0717
62.1222
62.1726
62.2231
62.2735
62.3239
62.3744
62.4248
62.4752
62.5257
62.5761
62.6266
62.677
62.7274
62.7779
62.8283
62.8788
62.9292
62.9796
63.0301
63.0805
63.131
63.1814
63.2319
63.2823
63.3327
63.3832
63.4336
63.4841
63.5345
63.585
63.6354
63.6859
63.7363
63.7867
63.8372
63.8876
63.9381
63.9885
64.039
64.0894
64.1399
64.1903
64.2408
64.2912
64.3417
64.3921
64.4426
64.493
64.5434
64.5939
64.6443
64.6948
64.7452
64.7957
64.8461
64.8966
64.947
64.9975
65.048
65.0984
65.1489
65.1993
65.2498
65.3002
65.3507
65.4011
65.4516
65.502
65.5525
65.6029
65.6534
65.7038
65.7543
65.8048
65.8552
65.9057
65.9561
66.0066
66.057
66.1075
66.1579
66.2084
66.2589
66.3093
66.3598
66.4102
66.4607
66.5111
66.5616
66.6121
66.6625
66.713
66.7634
66.8139
66.8644
66.9148
66.9653
67.0157
67.0662
67.1167
67.1671
67.2176
67.2681
67.3185
67.369
67.4194
67.4699
67.5204
67.5708
67.6213
67.6718
67.7222
67.7727
67.8232
67.8736
67.9241
67.9745
68.025
68.0755
68.1259
68.1764
68.2269
68.2773
68.3278
68.3783
68.4288
68.4792
68.5297
68.5802
68.6306
68.6811
68.7316
68.782
68.8325
68.883
68.9334
68.9839
69.0344
69.0849
69.1353
69.1858
69.2363
69.2867
69.3372
69.3877
69.4382
69.4886
69.5391
69.5896
69.6401
69.6905
69.741
69.7915
69.842
69.8924
69.9429
69.9934
70.0439
70.0943
70.1448
70.1953
70.2458
70.2962
70.3467
70.3972
70.4477
70.4981
70.5486
70.5991
70.6496
70.7001
70.7505
70.801
70.8515
70.902
70.9525
71.0029
71.0534
71.1039
71.1544
71.2049
71.2553
71.3058
71.3563
71.4068
71.4573
71.5078
71.5582
71.6087
71.6592
71.7097
71.7602
71.8107
71.8611
71.9116
71.9621
72.0126
72.0631
72.1136
72.1641
72.2145
72.265
72.3155
72.366
72.4165
72.467
72.5175
72.568
72.6184
72.6689
72.7194
72.7699
72.8204
72.8709
72.9214
72.9719
73.0224
73.0728
73.1233
73.1738
73.2243
73.2748
73.3253
73.3758
73.4263
73.4768
73.5273
73.5778
73.6283
73.6788
73.7292
73.7797
73.8302
73.8807
73.9312
73.9817
74.0322
74.0827
74.1332
74.1837
74.2342
74.2847
74.3352
74.3857
74.4362
74.4867
74.5372
74.5877
74.6382
74.6887
74.7392
74.7897
74.8402
74.8907
74.9412
74.9917
75.0422
75.0927
75.1432
75.1937
75.2442
75.2947
75.3452
75.3957
75.4462
75.4967
75.5472
75.5977
75.6482
75.6987
75.7492
75.7997
75.8502
75.9007
75.9512
76.0017
76.0522
76.1027
76.1532
76.2037
76.2542
76.3047
76.3553
76.4058
76.4563
76.5068
76.5573
76.6078
76.6583
76.7088
76.7593
76.8098
76.8603
76.9108
76.9614
77.0119
77.0624
77.1129
77.1634
77.2139
77.2644
77.3149
77.3654
77.4159
77.4665
77.517
77.5675
77.618
77.6685
77.719
77.7695
77.82
77.8706
77.9211
77.9716
78.0221
78.0726
78.1231
78.1737
78.2242
78.2747
78.3252
78.3757
78.4262
78.4767
78.5273
78.5778
78.6283
78.6788
78.7293
78.7799
78.8304
78.8809
78.9314
78.9819
79.0324
79.083
79.1335
79.184
79.2345
79.285
79.3356
79.3861
79.4366
79.4871
79.5377
79.5882
79.6387
79.6892
79.7397
79.7903
79.8408
79.8913
79.9418
79.9924
80.0429
80.0934
80.1439
80.1945
80.245
80.2955
80.346
80.3966
80.4471
80.4976
80.5481
80.5987
80.6492
80.6997
80.7503
80.8008
80.8513
80.9018
80.9524
81.0029
81.0534
81.104
81.1545
81.205
81.2555
81.3061
81.3566
81.4071
81.4577
81.5082
81.5587
81.6093
81.6598
81.7103
81.7609
81.8114
81.8619
81.9125
81.963
82.0135
82.0641
82.1146
82.1651
82.2157
82.2662
82.3167
82.3673
82.4178
82.4683
82.5189
82.5694
82.62
82.6705
82.721
82.7716
82.8221
82.8726
82.9232
82.9737
83.0243
83.0748
83.1253
83.1759
83.2264
83.277
83.3275
83.378
83.4286
83.4791
83.5297
83.5802
83.6307
83.6813
83.7318
83.7824
83.8329
83.8835
83.934
83.9845
84.0351
84.0856
84.1362
84.1867
84.2373
84.2878
84.3384
84.3889
84.4394
84.49
84.5405
84.5911
84.6416
84.6922
84.7427
84.7933
84.8438
84.8944
84.9449
84.9955
85.046
85.0966
85.1471
85.1977
85.2482
85.2988
85.3493
85.3999
85.4504
85.501
85.5515
85.6021
85.6526
85.7032
85.7537
85.8043
85.8548
85.9054
85.9559
86.0065
86.057
86.1076
86.1581
86.2087
86.2592
86.3098
86.3604
86.4109
86.4615
86.512
86.5626
86.6131
86.6637
86.7142
86.7648
86.8154
86.8659
86.9165
86.967
87.0176
87.0682
87.1187
87.1693
87.2198
87.2704
87.3209
87.3715
87.4221
87.4726
87.5232
87.5737
87.6243
87.6749
87.7254
87.776
87.8266
87.8771
87.9277
87.9782
88.0288
88.0794
88.1299
88.1805
88.2311
88.2816
88.3322
88.3827
88.4333
88.4839
88.5344
88.585
88.6356
88.6861
88.7367
88.7873
88.8378
88.8884
88.939
88.9895
89.0401
89.0907
89.1412
89.1918
89.2424
89.293
89.3435
89.3941
89.4447
89.4952
89.5458
89.5964
89.6469
89.6975
89.7481
89.7987
89.8492
89.8998
89.9504
90.0009
90.0515
90.1021
90.1527
90.2032
90.2538
90.3044
90.355
90.4055
90.4561
90.5067
90.5573
90.6078
90.6584
90.709
90.7596
90.8101
90.8607
90.9113
90.9619
91.0124
91.063
91.1136
91.1642
91.2147
91.2653
91.3159
91.3665
91.4171
91.4676
91.5182
91.5688
91.6194
91.67
91.7205
91.7711
91.8217
91.8723
91.9229
91.9734
92.024
92.0746
92.1252
92.1758
92.2264
92.2769
92.3275
92.3781
92.4287
92.4793
92.5299
92.5804
92.631
92.6816
92.7322
92.7828
92.8334
92.884
92.9345
92.9851
93.0357
93.0863
93.1369
93.1875
93.2381
93.2886
93.3392
93.3898
93.4404
93.491
93.5416
93.5922
93.6428
93.6934
93.7439
93.7945
93.8451
93.8957
93.9463
93.9969
94.0475
94.0981
94.1487
94.1993
94.2499
94.3005
94.351
94.4016
94.4522
94.5028
94.5534
94.604
94.6546
94.7052
94.7558
94.8064
94.857
94.9076
94.9582
95.0088
95.0594
95.11
95.1606
95.2112
95.2618
95.3124
95.363
95.4135
95.4641
95.5147
95.5653
95.6159
95.6665
95.7171
95.7677
95.8183
95.8689
95.9195
95.9701
96.0207
96.0713
96.1219
96.1725
96.2231
96.2737
96.3243
96.375
96.4256
96.4762
96.5268
96.5774
96.628
96.6786
96.7292
96.7798
96.8304
96.881
96.9316
96.9822
97.0328
97.0834
97.134
97.1846
97.2352
97.2858
97.3364
97.387
97.4377
97.4883
97.5389
97.5895
97.6401
97.6907
97.7413
97.7919
97.8425
97.8931
97.9437
97.9943
98.045
98.0956
98.1462
98.1968
98.2474
98.298
98.3486
98.3992
98.4498
98.5005
98.5511
98.6017
98.6523
98.7029
98.7535
98.8041
98.8547
98.9054
98.956
99.0066
99.0572
99.1078
99.1584
99.2091
99.2597
99.3103
99.3609
99.4115
99.4621
99.5127
99.5634
99.614
99.6646
99.7152
99.7658
99.8165
99.8671
99.9177
99.9683
100.019
100.07
100.12
100.171
100.221
100.272
100.323
100.373
100.424
100.475
100.525
100.576
100.626
100.677
100.728
100.778
100.829
100.879
100.93
100.981
101.031
101.082
101.133
101.183
101.234
101.284
101.335
101.386
101.436
101.487
101.538
101.588
101.639
101.689
101.74
101.791
101.841
101.892
101.943
101.993
102.044
102.095
102.145
102.196
102.246
102.297
102.348
102.398
102.449
102.5
102.55
102.601
102.651
102.702
102.753
102.803
102.854
102.905
102.955
103.006
103.057
103.107
103.158
103.208
103.259
103.31
103.36
103.411
103.462
103.512
103.563
103.613
103.664
103.715
103.765
103.816
103.867
103.917
103.968
104.019
104.069
104.12
104.17
104.221
104.272
104.322
104.373
104.424
104.474
104.525
104.576
104.626
104.677
104.728
104.778
104.829
104.879
104.93
104.981
105.031
105.082
105.133
105.183
105.234
105.285
105.335
105.386
105.437
105.487
105.538
105.588
105.639
105.69
105.74
105.791
105.842
105.892
105.943
105.994
106.044
106.095
106.146
106.196
106.247
106.297
106.348
106.399
106.449
106.5
106.551
106.601
106.652
106.703
106.753
106.804
106.855
106.905
106.956
107.007
107.057
107.108
107.159
107.209
107.26
107.311
107.361
107.412
107.462
107.513
107.564
107.614
107.665
107.716
107.766
107.817
107.868
107.918
107.969
108.02
108.07
108.121
108.172
108.222
108.273
108.324
108.374
108.425
108.476
108.526
108.577
108.628
108.678
108.729
108.78
108.83
108.881
108.931
108.982
109.033
109.083
109.134
109.185
109.235
109.286
109.337
109.387
109.438
109.489
109.539
109.59
109.641
109.691
109.742
109.793
109.843
109.894
109.945
109.995
110.046
110.097
110.147
110.198
110.249
110.299
110.35
110.401
110.451
110.502
110.553
110.603
110.654
110.705
110.755
110.806
110.857
110.907
110.958
111.009
111.059
111.11
111.161
111.211
111.262
111.313
111.363
111.414
111.465
111.515
111.566
111.617
111.667
111.718
111.769
111.819
111.87
111.921
111.971
112.022
112.073
112.124
112.174
112.225
112.276
112.326
112.377
112.428
112.478
112.529
112.58
112.63
112.681
112.732
112.782
112.833
112.884
112.934
112.985
113.036
113.086
113.137
113.188
113.238
113.289
113.34
113.39
113.441
113.492
113.542
113.593
113.644
113.694
113.745
113.796
113.847
113.897
113.948
113.999
114.049
114.1
114.151
114.201
114.252
114.303
114.353
114.404
114.455
114.505
114.556
114.607
114.657
114.708
114.759
114.81
114.86
114.911
114.962
115.012
115.063
115.114
115.164
115.215
115.266
115.316
115.367
115.418
115.468
115.519
115.57
115.621
115.671
115.722
115.773
115.823
115.874
115.925
115.975
116.026
116.077
116.127
116.178
116.229
116.28
116.33
116.381
116.432
116.482
116.533
116.584
116.634
116.685
116.736
116.786
116.837
116.888
116.939
116.989
117.04
117.091
117.141
117.192
117.243
117.293
117.344
117.395
117.445
117.496
117.547
117.598
117.648
117.699
117.75
117.8
117.851
117.902
117.952
118.003
118.054
118.105
118.155
118.206
118.257
118.307
118.358
118.409
118.459
118.51
118.561
118.612
118.662
118.713
118.764
118.814
118.865
118.916
118.966
119.017
119.068
119.119
119.169
119.22
119.271
119.321
119.372
119.423
119.474
119.524
119.575
119.626
119.676
119.727
119.778
119.828
119.879
119.93
119.981
120.031
120.082
120.133
120.183
120.234
120.285
120.336
120.386
120.437
120.488
120.538
120.589
120.64
120.691
120.741
120.792
120.843
120.893
120.944
120.995
121.046
121.096
121.147
121.198
121.248
121.299
121.35
121.4
121.451
121.502
121.553
121.603
121.654
121.705
121.755
121.806
121.857
121.908
121.958
122.009
122.06
122.111
122.161
122.212
122.263
122.313
122.364
122.415
122.466
122.516
122.567
122.618
122.668
122.719
122.77
122.821
122.871
122.922
122.973
123.023
123.074
123.125
123.176
123.226
123.277
123.328
123.378
123.429
123.48
123.531
123.581
123.632
123.683
123.734
123.784
123.835
123.886
123.936
123.987
124.038
124.089
124.139
124.19
124.241
124.292
124.342
124.393
124.444
124.494
124.545
124.596
124.647
124.697
124.748
124.799
124.85
124.9
124.951
125.002
125.052
125.103
125.154
125.205
125.255
125.306
125.357
125.408
125.458
125.509
125.56
125.61
125.661
125.712
125.763
125.813
125.864
125.915
125.966
126.016
126.067
126.118
126.169
126.219
126.27
126.321
126.371
126.422
126.473
126.524
126.574
126.625
126.676
126.727
126.777
126.828
126.879
126.93
126.98
127.031
127.082
127.132
127.183
127.234
127.285
127.335
127.386
127.437
127.488
127.538
127.589
127.64
127.691
127.741
127.792
127.843
127.894
127.944
127.995
128.046
128.097
128.147
128.198
128.249
128.299
128.35
128.401
128.452
128.502
128.553
128.604
128.655
128.705
128.756
128.807
128.858
128.908
128.959
129.01
129.061
129.111
129.162
129.213
129.264
129.314
129.365
129.416
129.467
129.517
129.568
129.619
129.67
129.72
129.771
129.822
129.873
129.923
129.974
130.025
130.076
130.126
130.177
130.228
130.279
130.329
130.38
130.431
130.482
130.532
130.583
130.634
130.685
130.735
130.786
130.837
130.888
130.938
130.989
131.04
131.091
131.141
131.192
131.243
131.294
131.344
131.395
131.446
131.497
131.547
131.598
131.649
131.7
131.75
131.801
131.852
131.903
131.953
132.004
132.055
132.106
132.156
132.207
132.258
132.309
132.359
132.41
132.461
132.512
132.562
132.613
132.664
132.715
132.766
132.816
132.867
132.918
132.969
133.019
133.07
133.121
133.172
133.222
133.273
133.324
133.375
133.425
133.476
133.527
133.578
133.628
133.679
133.73
133.781
133.831
133.882
133.933
133.984
134.035
134.085
134.136
134.187
134.238
134.288
134.339
134.39
134.441
134.491
134.542
134.593
134.644
134.694
134.745
134.796
134.847
134.898
134.948
134.999
135.05
135.101
135.151
135.202
135.253
135.304
135.354
135.405
135.456
135.507
135.558
135.608
135.659
135.71
135.761
135.811
135.862
135.913
135.964
136.014
136.065
136.116
136.167
136.218
136.268
136.319
136.37
136.421
136.471
136.522
136.573
136.624
136.675
136.725
136.776
136.827
136.878
136.928
136.979
137.03
137.081
137.131
137.182
137.233
137.284
137.335
137.385
137.436
137.487
137.538
137.588
137.639
137.69
137.741
137.792
137.842
137.893
137.944
137.995
138.045
138.096
138.147
138.198
138.249
138.299
138.35
138.401
138.452
138.502
138.553
138.604
138.655
138.706
138.756
138.807
138.858
138.909
138.959
139.01
139.061
139.112
139.163
139.213
139.264
139.315
139.366
139.417
139.467
139.518
139.569
139.62
139.67
139.721
139.772
139.823
139.874
139.924
139.975
140.026
140.077
140.127
140.178
140.229
140.28
140.331
140.381
140.432
140.483
140.534
140.585
140.635
140.686
140.737
140.788
140.838
140.889
140.94
140.991
141.042
141.092
141.143
141.194
141.245
141.296
141.346
141.397
141.448
141.499
141.55
141.6
141.651
141.702
141.753
141.803
141.854
141.905
141.956
142.007
142.057
142.108
142.159
142.21
142.261
142.311
142.362
142.413
142.464
142.515
142.565
142.616
142.667
142.718
142.769
142.819
142.87
142.921
142.972
143.023
143.073
143.124
143.175
143.226
143.276
143.327
143.378
143.429
143.48
143.53
143.581
143.632
143.683
143.734
143.784
143.835
143.886
143.937
143.988
144.038
144.089
144.14
144.191
144.242
144.292
144.343
144.394
144.445
144.496
144.546
144.597
144.648
144.699
144.75
144.8
144.851
144.902
144.953
145.004
145.054
145.105
145.156
145.207
145.258
145.308
145.359
145.41
145.461
145.512
145.562
145.613
145.664
145.715
145.766
145.816
145.867
145.918
145.969
146.02
146.07
146.121
146.172
146.223
146.274
146.324
146.375
146.426
146.477
146.528
146.579
146.629
146.68
146.731
146.782
146.833
146.883
146.934
146.985
147.036
147.087
147.137
147.188
147.239
147.29
147.341
147.391
147.442
147.493
147.544
147.595
147.645
147.696
147.747
147.798
147.849
147.899
147.95
148.001
148.052
148.103
148.154
148.204
148.255
148.306
148.357
148.408
148.458
148.509
148.56
148.611
148.662
148.712
148.763
148.814
148.865
148.916
148.966
149.017
149.068
149.119
149.17
149.221
149.271
149.322
149.373
149.424
149.475
149.525
149.576
149.627
149.678
149.729
149.779
149.83
149.881
149.932
149.983
150.034
150.084
150.135
150.186
150.237
150.288
150.338
150.389
150.44
150.491
150.542
150.593
150.643
150.694
150.745
150.796
150.847
150.897
150.948
150.999
151.05
151.101
151.152
151.202
151.253
151.304
151.355
151.406
151.456
151.507
151.558
151.609
151.66
151.71
151.761
151.812
151.863
151.914
151.965
152.015
152.066
152.117
152.168
152.219
152.27
152.32
152.371
152.422
152.473
152.524
152.574
152.625
152.676
152.727
152.778
152.829
152.879
152.93
152.981
153.032
153.083
153.133
153.184
153.235
153.286
153.337
153.388
153.438
153.489
153.54
153.591
153.642
153.692
153.743
153.794
153.845
153.896
153.947
153.997
154.048
154.099
154.15
154.201
154.252
154.302
154.353
154.404
154.455
154.506
154.556
154.607
154.658
154.709
154.76
154.811
154.861
154.912
154.963
155.014
155.065
155.116
155.166
155.217
155.268
155.319
155.37
155.421
155.471
155.522
155.573
155.624
155.675
155.725
155.776
155.827
155.878
155.929
155.98
156.03
156.081
156.132
156.183
156.234
156.285
156.335
156.386
156.437
156.488
156.539
156.59
156.64
156.691
156.742
156.793
156.844
156.894
156.945
156.996
157.047
157.098
157.149
157.199
157.25
157.301
157.352
157.403
157.454
157.504
157.555
157.606
157.657
157.708
157.759
157.809
157.86
157.911
157.962
158.013
158.064
158.114
158.165
158.216
158.267
158.318
158.369
158.419
158.47
158.521
158.572
158.623
158.673
158.724
158.775
158.826
158.877
158.928
158.978
159.029
159.08
159.131
159.182
159.233
159.283
159.334
159.385
159.436
159.487
159.538
159.588
159.639
159.69
159.741
159.792
159.843
159.893
159.944
159.995
160.046
160.097
160.148
160.198
160.249
160.3
160.351
160.402
160.453
160.503
160.554
160.605
160.656
160.707
160.758
160.808
160.859
160.91
160.961
161.012
161.063
161.113
161.164
161.215
161.266
161.317
161.368
161.418
161.469
161.52
161.571
161.622
161.673
161.723
161.774
161.825
161.876
161.927
161.978
162.028
162.079
162.13
162.181
162.232
162.283
162.333
162.384
162.435
162.486
162.537
162.588
162.638
162.689
162.74
162.791
162.842
162.893
162.943
162.994
163.045
163.096
163.147
163.198
163.248
163.299
163.35
163.401
163.452
163.503
163.553
163.604
163.655
163.706
163.757
163.808
163.858
163.909
163.96
164.011
164.062
164.113
164.163
164.214
164.265
164.316
164.367
164.418
164.468
164.519
164.57
164.621
164.672
164.723
164.773
164.824
164.875
164.926
164.977
165.028
165.078
165.129
165.18
165.231
165.282
165.333
165.383
165.434
165.485
165.536
165.587
165.638
165.688
165.739
165.79
165.841
165.892
165.943
165.993
166.044
166.095
166.146
166.197
166.248
166.298
166.349
166.4
166.451
166.502
166.553
166.603
166.654
166.705
166.756
166.807
166.857
166.908
166.959
167.01
167.061
167.112
167.162
167.213
167.264
167.315
167.366
167.417
167.467
167.518
167.569
167.62
167.671
167.722
167.772
167.823
167.874
167.925
167.976
168.027
168.077
168.128
168.179
168.23
168.281
168.332
168.382
168.433
168.484
168.535
168.586
168.637
168.687
168.738
168.789
168.84
168.891
168.942
168.992
169.043
169.094
169.145
169.196
169.246
169.297
169.348
169.399
169.45
169.501
169.551
169.602
169.653
169.704
169.755
169.806
169.856
169.907
169.958
170.009
170.06
170.111
170.161
170.212
170.263
170.314
170.365
170.416
170.466
170.517
170.568
170.619
170.67
170.72
170.771
170.822
170.873
170.924
170.975
171.025
171.076
171.127
171.178
171.229
171.28
171.33
171.381
171.432
171.483
171.534
171.584
171.635
171.686
171.737
171.788
171.839
171.889
171.94
171.991
172.042
172.093
172.143
172.194
172.245
172.296
172.347
172.398
172.448
172.499
172.55
172.601
172.652
172.702
172.753
172.804
172.855
172.906
172.957
173.007
173.058
173.109
173.16
173.211
173.261
173.312
173.363
173.414
173.465
173.516
173.566
173.617
173.668
173.719
173.77
173.82
173.871
173.922
173.973
174.024
174.075
174.125
174.176
174.227
174.278
174.329
174.379
174.43
174.481
174.532
174.583
174.633
174.684
174.735
174.786
174.837
174.887
174.938
174.989
175.04
175.091
175.142
175.192
175.243
175.294
175.345
175.396
175.446
175.497
175.548
175.599
175.65
175.7
175.751
175.802
175.853
175.904
175.954
176.005
176.056
176.107
176.158
176.208
176.259
176.31
176.361
176.412
176.462
176.513
176.564
176.615
176.666
176.716
176.767
176.818
176.869
176.92
176.97
177.021
177.072
177.123
177.174
177.224
177.275
177.326
177.377
177.428
177.478
177.529
177.58
177.631
177.682
177.732
177.783
177.834
177.885
177.935
177.986
178.037
178.088
178.139
178.189
178.24
178.291
178.342
178.393
178.443
178.494
178.545
178.596
178.646
178.697
178.748
178.799
178.85
178.9
178.951
179.002
179.053
179.104
179.154
179.205
179.256
179.307
179.357
179.408
179.459
179.51
179.561
179.611
179.662
179.713
179.764
179.814
179.865
179.916
179.967
180.018
180.068
180.119
180.17
180.221
180.271
180.322
180.373
180.424
180.474
180.525
180.576
180.627
180.678
180.728
180.779
180.83
180.881
180.931
180.982
181.033
181.084
181.134
181.185
181.236
181.287
181.337
181.388
181.439
181.49
181.54
181.591
181.642
181.693
181.743
181.794
181.845
181.896
181.946
181.997
182.048
182.099
182.149
182.2
182.251
182.302
182.352
182.403
182.454
182.505
182.555
182.606
182.657
182.708
182.758
182.809
182.86
182.911
182.961
183.012
183.063
183.114
183.164
183.215
183.266
183.317
183.367
183.418
183.469
183.519
183.57
183.621
183.672
183.722
183.773
183.824
183.875
183.925
183.976
184.027
184.077
184.128
184.179
184.23
184.28
184.331
184.382
184.433
184.483
184.534
184.585
184.635
184.686
184.737
184.788
184.838
184.889
184.94
184.99
185.041
185.092
185.142
185.193
185.244
185.295
185.345
185.396
185.447
185.497
185.548
185.599
185.65
185.7
185.751
185.802
185.852
185.903
185.954
186.004
186.055
186.106
186.156
186.207
186.258
186.309
186.359
186.41
186.461
186.511
186.562
186.613
186.663
186.714
186.765
186.815
186.866
186.917
186.967
187.018
187.069
187.119
187.17
187.221
187.271
187.322
187.373
187.423
187.474
187.525
187.575
187.626
187.677
187.727
187.778
187.829
187.879
187.93
187.981
188.031
188.082
188.133
188.183
188.234
188.284
188.335
188.386
188.436
188.487
188.538
188.588
188.639
188.69
188.74
188.791
188.841
188.892
188.943
188.993
189.044
189.095
189.145
189.196
189.246
189.297
189.348
189.398
189.449
189.5
189.55
189.601
189.651
189.702
189.753
189.803
189.854
189.904
189.955
190.006
190.056
190.107
190.157
190.208
190.259
190.309
190.36
190.41
190.461
190.511
190.562
190.613
190.663
190.714
190.764
190.815
190.866
190.916
190.967
191.017
191.068
191.118
191.169
191.219
191.27
191.321
191.371
191.422
191.472