/*--------------------------------*- C++ -*----------------------------------*\
  =========                 |
  \\      /  F ield         | OpenFOAM: The Open Source CFD Toolbox
   \\    /   O peration     | Website:  https://openfoam.org
    \\  /    A nd           | Version:  9
     \\/     M anipulation  |
\*---------------------------------------------------------------------------*/
FoamFile
{
    format      ascii;
    class       surfaceScalarField;
    location    "0.027";
    object      phi;
}
// * * * * * * * * * * * * * * * * * * * * * * * * * * * * * * * * * * * * * //

dimensions      [1 0 -1 0 0 0 0];

internalField   nonuniform List<scalar> 
9999
(
5.04765
5.11764
5.18763
5.25762
5.3276
5.39758
5.46755
5.53753
5.6075
5.67747
5.74743
5.81739
5.88734
5.9573
6.02726
6.09722
6.16717
6.23711
6.30704
6.37696
6.44689
6.51683
6.58678
6.65672
6.72666
6.79659
6.86651
6.93641
7.0063
7.07618
7.14607
7.21596
7.28586
7.35578
7.42572
7.49568
7.56566
7.63565
7.70565
7.77566
7.84569
7.91571
7.98574
8.05577
8.1258
8.19583
8.26587
8.33591
8.40595
8.476
8.54604
8.61608
8.68612
8.75616
8.8262
8.89624
8.96628
9.03632
9.10635
9.17639
9.24643
9.31647
9.38651
9.45654
9.52658
9.59662
9.66665
9.73669
9.80672
9.87676
9.94679
10.0168
10.0869
10.1569
10.2269
10.297
10.367
10.437
10.5071
10.5771
10.6471
10.7172
10.7872
10.8572
10.9273
10.9973
11.0673
11.1373
11.2074
11.2774
11.3474
11.4175
11.4875
11.5575
11.6276
11.6976
11.7676
11.8376
11.9077
11.9777
12.0477
12.1177
12.1878
12.2578
12.3278
12.3978
12.4679
12.5379
12.6079
12.6779
12.748
12.818
12.888
12.958
13.0281
13.0981
13.1681
13.2381
13.3081
13.3782
13.4482
13.5182
13.5882
13.6582
13.7283
13.7983
13.8683
13.9383
14.0083
14.0784
14.1484
14.2184
14.2884
14.3584
14.4284
14.4985
14.5685
14.6385
14.7085
14.7785
14.8485
14.9185
14.9886
15.0586
15.1286
15.1986
15.2686
15.3386
15.4086
15.4786
15.5487
15.6187
15.6887
15.7587
15.8287
15.8987
15.9687
16.0387
16.1087
16.1787
16.2487
16.3188
16.3888
16.4588
16.5288
16.5988
16.6688
16.7388
16.8088
16.8788
16.9488
17.0188
17.0888
17.1588
17.2288
17.2988
17.3688
17.4388
17.5088
17.5788
17.6488
17.7188
17.7888
17.8588
17.9288
17.9988
18.0688
18.1388
18.2088
18.2788
18.3488
18.4188
18.4888
18.5588
18.6288
18.6988
18.7688
18.8388
18.9088
18.9788
19.0488
19.1188
19.1888
19.2588
19.3288
19.3987
19.4687
19.5387
19.6087
19.6787
19.7487
19.8187
19.8887
19.9587
20.0287
20.0987
20.1686
20.2386
20.3086
20.3786
20.4486
20.5186
20.5886
20.6586
20.7285
20.7985
20.8685
20.9385
21.0085
21.0785
21.1484
21.2184
21.2884
21.3584
21.4284
21.4984
21.5683
21.6383
21.7083
21.7783
21.8483
21.9182
21.9882
22.0582
22.1282
22.1981
22.2681
22.3381
22.4081
22.4781
22.548
22.618
22.688
22.758
22.8279
22.8979
22.9679
23.0379
23.1078
23.1778
23.2478
23.3177
23.3877
23.4577
23.5277
23.5976
23.6676
23.7376
23.8075
23.8775
23.9475
24.0174
24.0874
24.1574
24.2273
24.2973
24.3673
24.4372
24.5072
24.5772
24.6471
24.7171
24.7871
24.857
24.927
24.9969
25.0669
25.1369
25.2068
25.2768
25.3467
25.4167
25.4867
25.5566
25.6266
25.6965
25.7665
25.8365
25.9064
25.9764
26.0463
26.1163
26.1862
26.2562
26.3261
26.3961
26.466
26.536
26.606
26.6759
26.7459
26.8158
26.8858
26.9557
27.0257
27.0956
27.1656
27.2355
27.3055
27.3754
27.4453
27.5153
27.5852
27.6552
27.7251
27.7951
27.865
27.935
28.0049
28.0749
28.1448
28.2147
28.2847
28.3546
28.4246
28.4945
28.5644
28.6344
28.7043
28.7743
28.8442
28.9141
28.9841
29.054
29.124
29.1939
29.2638
29.3338
29.4037
29.4736
29.5436
29.6135
29.6834
29.7534
29.8233
29.8932
29.9632
30.0331
30.103
30.173
30.2429
30.3128
30.3827
30.4527
30.5226
30.5925
30.6625
30.7324
30.8023
30.8722
30.9422
31.0121
31.082
31.1519
31.2219
31.2918
31.3617
31.4316
31.5015
31.5715
31.6414
31.7113
31.7812
31.8512
31.9211
31.991
32.0609
32.1308
32.2007
32.2707
32.3406
32.4105
32.4804
32.5503
32.6202
32.6902
32.7601
32.83
32.8999
32.9698
33.0397
33.1096
33.1795
33.2494
33.3194
33.3893
33.4592
33.5291
33.599
33.6689
33.7388
33.8087
33.8786
33.9485
34.0184
34.0883
34.1582
34.2281
34.298
34.3679
34.4379
34.5078
34.5777
34.6476
34.7175
34.7874
34.8573
34.9272
34.9971
35.0669
35.1368
35.2067
35.2766
35.3465
35.4164
35.4863
35.5562
35.6261
35.696
35.7659
35.8358
35.9057
35.9756
36.0455
36.1154
36.1852
36.2551
36.325
36.3949
36.4648
36.5347
36.6046
36.6745
36.7444
36.8142
36.8841
36.954
37.0239
37.0938
37.1637
37.2335
37.3034
37.3733
37.4432
37.5131
37.5829
37.6528
37.7227
37.7926
37.8625
37.9323
38.0022
38.0721
38.142
38.2118
38.2817
38.3516
38.4215
38.4913
38.5612
38.6311
38.701
38.7708
38.8407
38.9106
38.9804
39.0503
39.1202
39.19
39.2599
39.3298
39.3996
39.4695
39.5394
39.6092
39.6791
39.749
39.8188
39.8887
39.9586
40.0284
40.0983
40.1681
40.238
40.3079
40.3777
40.4476
40.5174
40.5873
40.6571
40.727
40.7969
40.8667
40.9366
41.0064
41.0763
41.1461
41.216
41.2858
41.3557
41.4255
41.4954
41.5652
41.6351
41.7049
41.7748
41.8446
41.9145
41.9843
42.0542
42.124
42.1939
42.2637
42.3335
42.4034
42.4732
42.5431
42.6129
42.6828
42.7526
42.8224
42.8923
42.9621
43.032
43.1018
43.1716
43.2415
43.3113
43.3811
43.451
43.5208
43.5906
43.6605
43.7303
43.8001
43.87
43.9398
44.0096
44.0795
44.1493
44.2191
44.289
44.3588
44.4286
44.4984
44.5683
44.6381
44.7079
44.7777
44.8476
44.9174
44.9872
45.057
45.1268
45.1967
45.2665
45.3363
45.4061
45.4759
45.5458
45.6156
45.6854
45.7552
45.825
45.8948
45.9647
46.0345
46.1043
46.1741
46.2439
46.3137
46.3835
46.4533
46.5232
46.593
46.6628
46.7326
46.8024
46.8722
46.942
47.0118
47.0816
47.1514
47.2212
47.291
47.3608
47.4306
47.5004
47.5702
47.64
47.7098
47.7796
47.8494
47.9192
47.989
48.0588
48.1286
48.1984
48.2682
48.338
48.4078
48.4776
48.5474
48.6172
48.687
48.7568
48.8265
48.8963
48.9661
49.0359
49.1057
49.1755
49.2453
49.3151
49.3848
49.4546
49.5244
49.5942
49.664
49.7338
49.8035
49.8733
49.9431
50.0129
50.0827
50.1524
50.2222
50.292
50.3618
50.4315
50.5013
50.5711
50.6409
50.7106
50.7804
50.8502
50.92
50.9897
51.0595
51.1293
51.199
51.2688
51.3386
51.4083
51.4781
51.5479
51.6176
51.6874
51.7572
51.8269
51.8967
51.9665
52.0362
52.106
52.1757
52.2455
52.3153
52.385
52.4548
52.5245
52.5943
52.6641
52.7338
52.8036
52.8733
52.9431
53.0128
53.0826
53.1523
53.2221
53.2918
53.3616
53.4313
53.5011
53.5708
53.6406
53.7103
53.7801
53.8498
53.9195
53.9893
54.059
54.1288
54.1985
54.2683
54.338
54.4077
54.4775
54.5472
54.617
54.6867
54.7564
54.8262
54.8959
54.9656
55.0354
55.1051
55.1748
55.2446
55.3143
55.384
55.4538
55.5235
55.5932
55.6629
55.7327
55.8024
55.8721
55.9419
56.0116
56.0813
56.151
56.2207
56.2905
56.3602
56.4299
56.4996
56.5693
56.6391
56.7088
56.7785
56.8482
56.9179
56.9877
57.0574
57.1271
57.1968
57.2665
57.3362
57.4059
57.4756
57.5453
57.6151
57.6848
57.7545
57.8242
57.8939
57.9636
58.0333
58.103
58.1727
58.2424
58.3121
58.3818
58.4515
58.5212
58.5909
58.6606
58.7303
58.8
58.8697
58.9394
59.0091
59.0788
59.1485
59.2182
59.2879
59.3576
59.4273
59.4969
59.5666
59.6363
59.706
59.7757
59.8454
59.9151
59.9848
60.0544
60.1241
60.1938
60.2635
60.3332
60.4029
60.4725
60.5422
60.6119
60.6816
60.7513
60.8209
60.8906
60.9603
61.03
61.0996
61.1693
61.239
61.3087
61.3783
61.448
61.5177
61.5873
61.657
61.7267
61.7963
61.866
61.9357
62.0053
62.075
62.1447
62.2143
62.284
62.3537
62.4233
62.493
62.5626
62.6323
62.7019
62.7716
62.8413
62.9109
62.9806
63.0502
63.1199
63.1895
63.2592
63.3288
63.3985
63.4681
63.5378
63.6074
63.6771
63.7467
63.8164
63.886
63.9557
64.0253
64.095
64.1646
64.2342
64.3039
64.3735
64.4432
64.5128
64.5824
64.6521
64.7217
64.7913
64.861
64.9306
65.0002
65.0699
65.1395
65.2091
65.2788
65.3484
65.418
65.4877
65.5573
65.6269
65.6965
65.7662
65.8358
65.9054
65.975
66.0447
66.1143
66.1839
66.2535
66.3231
66.3928
66.4624
66.532
66.6016
66.6712
66.7408
66.8105
66.8801
66.9497
67.0193
67.0889
67.1585
67.2281
67.2977
67.3673
67.4369
67.5066
67.5762
67.6458
67.7154
67.785
67.8546
67.9242
67.9938
68.0634
68.133
68.2026
68.2722
68.3418
68.4114
68.481
68.5506
68.6202
68.6897
68.7593
68.8289
68.8985
68.9681
69.0377
69.1073
69.1769
69.2465
69.3161
69.3856
69.4552
69.5248
69.5944
69.664
69.7336
69.8031
69.8727
69.9423
70.0119
70.0815
70.151
70.2206
70.2902
70.3598
70.4293
70.4989
70.5685
70.638
70.7076
70.7772
70.8468
70.9163
70.9859
71.0555
71.125
71.1946
71.2641
71.3337
71.4033
71.4728
71.5424
71.612
71.6815
71.7511
71.8206
71.8902
71.9597
72.0293
72.0989
72.1684
72.238
72.3075
72.3771
72.4466
72.5162
72.5857
72.6553
72.7248
72.7944
72.8639
72.9334
73.003
73.0725
73.1421
73.2116
73.2812
73.3507
73.4202
73.4898
73.5593
73.6289
73.6984
73.7679
73.8375
73.907
73.9765
74.0461
74.1156
74.1851
74.2546
74.3242
74.3937
74.4632
74.5328
74.6023
74.6718
74.7413
74.8108
74.8804
74.9499
75.0194
75.0889
75.1585
75.228
75.2975
75.367
75.4365
75.506
75.5755
75.6451
75.7146
75.7841
75.8536
75.9231
75.9926
76.0621
76.1316
76.2011
76.2706
76.3401
76.4096
76.4791
76.5486
76.6181
76.6876
76.7571
76.8266
76.8961
76.9656
77.0351
77.1046
77.1741
77.2436
77.3131
77.3826
77.4521
77.5216
77.5911
77.6606
77.73
77.7995
77.869
77.9385
78.008
78.0775
78.147
78.2164
78.2859
78.3554
78.4249
78.4943
78.5638
78.6333
78.7028
78.7723
78.8417
78.9112
78.9807
79.0501
79.1196
79.1891
79.2585
79.328
79.3975
79.4669
79.5364
79.6059
79.6753
79.7448
79.8143
79.8837
79.9532
80.0226
80.0921
80.1616
80.231
80.3005
80.3699
80.4394
80.5088
80.5783
80.6477
80.7172
80.7866
80.8561
80.9255
80.995
81.0644
81.1339
81.2033
81.2727
81.3422
81.4116
81.4811
81.5505
81.62
81.6894
81.7588
81.8283
81.8977
81.9671
82.0366
82.106
82.1754
82.2449
82.3143
82.3837
82.4531
82.5226
82.592
82.6614
82.7308
82.8003
82.8697
82.9391
83.0085
83.078
83.1474
83.2168
83.2862
83.3556
83.425
83.4944
83.5639
83.6333
83.7027
83.7721
83.8415
83.9109
83.9803
84.0497
84.1191
84.1885
84.2579
84.3273
84.3968
84.4662
84.5356
84.605
84.6744
84.7438
84.8131
84.8825
84.9519
85.0213
85.0907
85.1601
85.2295
85.2989
85.3683
85.4377
85.5071
85.5765
85.6458
85.7152
85.7846
85.854
85.9234
85.9928
86.0621
86.1315
86.2009
86.2703
86.3396
86.409
86.4784
86.5478
86.6171
86.6865
86.7559
86.8253
86.8946
86.964
87.0334
87.1027
87.1721
87.2415
87.3108
87.3802
87.4495
87.5189
87.5883
87.6576
87.727
87.7963
87.8657
87.9351
88.0044
88.0738
88.1431
88.2125
88.2818
88.3512
88.4205
88.4899
88.5592
88.6285
88.6979
88.7672
88.8366
88.9059
88.9753
89.0446
89.1139
89.1833
89.2526
89.322
89.3913
89.4606
89.53
89.5993
89.6686
89.7379
89.8073
89.8766
89.9459
90.0153
90.0846
90.1539
90.2232
90.2926
90.3619
90.4312
90.5005
90.5698
90.6392
90.7085
90.7778
90.8471
90.9164
90.9857
91.055
91.1244
91.1937
91.263
91.3323
91.4016
91.4709
91.5402
91.6095
91.6788
91.7481
91.8174
91.8867
91.956
92.0253
92.0946
92.1639
92.2332
92.3025
92.3718
92.4411
92.5104
92.5797
92.6489
92.7182
92.7875
92.8568
92.9261
92.9954
93.0647
93.1339
93.2032
93.2725
93.3418
93.4111
93.4803
93.5496
93.6189
93.6882
93.7574
93.8267
93.896
93.9653
94.0345
94.1038
94.1731
94.2423
94.3116
94.3809
94.4501
94.5194
94.5887
94.6579
94.7272
94.7964
94.8657
94.9349
95.0042
95.0735
95.1427
95.212
95.2812
95.3505
95.4197
95.489
95.5582
95.6275
95.6967
95.7659
95.8352
95.9044
95.9737
96.0429
96.1122
96.1814
96.2506
96.3199
96.3891
96.4583
96.5276
96.5968
96.666
96.7353
96.8045
96.8737
96.9429
97.0122
97.0814
97.1506
97.2198
97.2891
97.3583
97.4275
97.4967
97.5659
97.6352
97.7044
97.7736
97.8428
97.912
97.9812
98.0504
98.1197
98.1889
98.2581
98.3273
98.3965
98.4657
98.5349
98.6041
98.6733
98.7425
98.8117
98.8809
98.9501
99.0193
99.0885
99.1577
99.2269
99.2961
99.3653
99.4344
99.5036
99.5728
99.642
99.7112
99.7804
99.8496
99.9187
99.9879
100.057
100.126
100.195
100.265
100.334
100.403
100.472
100.541
100.611
100.68
100.749
100.818
100.887
100.956
101.026
101.095
101.164
101.233
101.302
101.371
101.44
101.51
101.579
101.648
101.717
101.786
101.855
101.925
101.994
102.063
102.132
102.201
102.27
102.339
102.409
102.478
102.547
102.616
102.685
102.754
102.823
102.893
102.962
103.031
103.1
103.169
103.238
103.307
103.377
103.446
103.515
103.584
103.653
103.722
103.791
103.86
103.93
103.999
104.068
104.137
104.206
104.275
104.344
104.413
104.482
104.552
104.621
104.69
104.759
104.828
104.897
104.966
105.035
105.104
105.174
105.243
105.312
105.381
105.45
105.519
105.588
105.657
105.726
105.795
105.864
105.934
106.003
106.072
106.141
106.21
106.279
106.348
106.417
106.486
106.555
106.624
106.693
106.763
106.832
106.901
106.97
107.039
107.108
107.177
107.246
107.315
107.384
107.453
107.522
107.591
107.66
107.729
107.799
107.868
107.937
108.006
108.075
108.144
108.213
108.282
108.351
108.42
108.489
108.558
108.627
108.696
108.765
108.834
108.903
108.972
109.041
109.11
109.179
109.249
109.318
109.387
109.456
109.525
109.594
109.663
109.732
109.801
109.87
109.939
110.008
110.077
110.146
110.215
110.284
110.353
110.422
110.491
110.56
110.629
110.698
110.767
110.836
110.905
110.974
111.043
111.112
111.181
111.25
111.319
111.388
111.457
111.526
111.595
111.664
111.733
111.802
111.871
111.94
112.009
112.078
112.147
112.216
112.285
112.354
112.423
112.492
112.561
112.63
112.699
112.768
112.837
112.906
112.975
113.044
113.113
113.182
113.251
113.32
113.389
113.458
113.527
113.595
113.664
113.733
113.802
113.871
113.94
114.009
114.078
114.147
114.216
114.285
114.354
114.423
114.492
114.561
114.63
114.699
114.768
114.837
114.906
114.974
115.043
115.112
115.181
115.25
115.319
115.388
115.457
115.526
115.595
115.664
115.733
115.802
115.871
115.94
116.008
116.077
116.146
116.215
116.284
116.353
116.422
116.491
116.56
116.629
116.698
116.767
116.835
116.904
116.973
117.042
117.111
117.18
117.249
117.318
117.387
117.456
117.524
117.593
117.662
117.731
117.8
117.869
117.938
118.007
118.076
118.144
118.213
118.282
118.351
118.42
118.489
118.558
118.627
118.695
118.764
118.833
118.902
118.971
119.04
119.109
119.178
119.246
119.315
119.384
119.453
119.522
119.591
119.66
119.728
119.797
119.866
119.935
120.004
120.073
120.142
120.21
120.279
120.348
120.417
120.486
120.555
120.623
120.692
120.761
120.83
120.899
120.968
121.036
121.105
121.174
121.243
121.312
121.381
121.449
121.518
121.587
121.656
121.725
121.794
121.862
121.931
122
122.069
122.138
122.206
122.275
122.344
122.413
122.482
122.55
122.619
122.688
122.757
122.826
122.894
122.963
123.032
123.101
123.17
123.238
123.307
123.376
123.445
123.514
123.582
123.651
123.72
123.789
123.858
123.926
123.995
124.064
124.133
124.201
124.27
124.339
124.408
124.477
124.545
124.614
124.683
124.752
124.82
124.889
124.958
125.027
125.095
125.164
125.233
125.302
125.37
125.439
125.508
125.577
125.645
125.714
125.783
125.852
125.92
125.989
126.058
126.127
126.195
126.264
126.333
126.402
126.47
126.539
126.608
126.677
126.745
126.814
126.883
126.951
127.02
127.089
127.158
127.226
127.295
127.364
127.432
127.501
127.57
127.639
127.707
127.776
127.845
127.913
127.982
128.051
128.12
128.188
128.257
128.326
128.394
128.463
128.532
128.6
128.669
128.738
128.806
128.875
128.944
129.013
129.081
129.15
129.219
129.287
129.356
129.425
129.493
129.562
129.631
129.699
129.768
129.837
129.905
129.974
130.043
130.111
130.18
130.249
130.317
130.386
130.455
130.523
130.592
130.661
130.729
130.798
130.867
130.935
131.004
131.072
131.141
131.21
131.278
131.347
131.416
131.484
131.553
131.622
131.69
131.759
131.827
131.896
131.965
132.033
132.102
132.171
132.239
132.308
132.376
132.445
132.514
132.582
132.651
132.72
132.788
132.857
132.925
132.994
133.063
133.131
133.2
133.268
133.337
133.406
133.474
133.543
133.611
133.68
133.749
133.817
133.886
133.954
134.023
134.092
134.16
134.229
134.297
134.366
134.434
134.503
134.572
134.64
134.709
134.777
134.846
134.914
134.983
135.052
135.12
135.189
135.257
135.326
135.394
135.463
135.531
135.6
135.669
135.737
135.806
135.874
135.943
136.011
136.08
136.148
136.217
136.286
136.354
136.423
136.491
136.56
136.628
136.697
136.765
136.834
136.902
136.971
137.039
137.108
137.176
137.245
137.313
137.382
137.451
137.519
137.588
137.656
137.725
137.793
137.862
137.93
137.999
138.067
138.136
138.204
138.273
138.341
138.41
138.478
138.547
138.615
138.684
138.752
138.821
138.889
138.958
139.026
139.095
139.163
139.231
139.3
139.368
139.437
139.505
139.574
139.642
139.711
139.779
139.848
139.916
139.985
140.053
140.122
140.19
140.259
140.327
140.395
140.464
140.532
140.601
140.669
140.738
140.806
140.875
140.943
141.012
141.08
141.148
141.217
141.285
141.354
141.422
141.491
141.559
141.627
141.696
141.764
141.833
141.901
141.97
142.038
142.106
142.175
142.243
142.312
142.38
142.449
142.517
142.585
142.654
142.722
142.791
142.859
142.927
142.996
143.064
143.133
143.201
143.269
143.338
143.406
143.475
143.543
143.611
143.68
143.748
143.816
143.885
143.953
144.022
144.09
144.158
144.227
144.295
144.364
144.432
144.5
144.569
144.637
144.705
144.774
144.842
144.91
144.979
145.047
145.116
145.184
145.252
145.321
145.389
145.457
145.526
145.594
145.662
145.731
145.799
145.867
145.936
146.004
146.072
146.141
146.209
146.277
146.346
146.414
146.482
146.551
146.619
146.687
146.756
146.824
146.892
146.961
147.029
147.097
147.166
147.234
147.302
147.37
147.439
147.507
147.575
147.644
147.712
147.78
147.849
147.917
147.985
148.053
148.122
148.19
148.258
148.327
148.395
148.463
148.532
148.6
148.668
148.736
148.805
148.873
148.941
149.009
149.078
149.146
149.214
149.283
149.351
149.419
149.487
149.556
149.624
149.692
149.76
149.829
149.897
149.965
150.033
150.102
150.17
150.238
150.306
150.375
150.443
150.511
150.579
150.648
150.716
150.784
150.852
150.92
150.989
151.057
151.125
151.193
151.262
151.33
151.398
151.466
151.534
151.603
151.671
151.739
151.807
151.876
151.944
152.012
152.08
152.148
152.217
152.285
152.353
152.421
152.489
152.558
152.626
152.694
152.762
152.83
152.898
152.967
153.035
153.103
153.171
153.239
153.308
153.376
153.444
153.512
153.58
153.648
153.717
153.785
153.853
153.921
153.989
154.057
154.126
154.194
154.262
154.33
154.398
154.466
154.534
154.603
154.671
154.739
154.807
154.875
154.943
155.011
155.08
155.148
155.216
155.284
155.352
155.42
155.488
155.556
155.625
155.693
155.761
155.829
155.897
155.965
156.033
156.101
156.169
156.238
156.306
156.374
156.442
156.51
156.578
156.646
156.714
156.782
156.851
156.919
156.987
157.055
157.123
157.191
157.259
157.327
157.395
157.463
157.531
157.599
157.668
157.736
157.804
157.872
157.94
158.008
158.076
158.144
158.212
158.28
158.348
158.416
158.484
158.552
158.62
158.688
158.756
158.825
158.893
158.961
159.029
159.097
159.165
159.233
159.301
159.369
159.437
159.505
159.573
159.641
159.709
159.777
159.845
159.913
159.981
160.049
160.117
160.185
160.253
160.321
160.389
160.457
160.525
160.593
160.661
160.729
160.797
160.865
160.933
161.001
161.069
161.137
161.205
161.273
161.341
161.409
161.477
161.545
161.613
161.681
161.749
161.817
161.885
161.953
162.021
162.089
162.157
162.225
162.293
162.361
162.429
162.497
162.565
162.633
162.701
162.769
162.836
162.904
162.972
163.04
163.108
163.176
163.244
163.312
163.38
163.448
163.516
163.584
163.652
163.72
163.788
163.856
163.923
163.991
164.059
164.127
164.195
164.263
164.331
164.399
164.467
164.535
164.603
164.671
164.738
164.806
164.874
164.942
165.01
165.078
165.146
165.214
165.282
165.35
165.417
165.485
165.553
165.621
165.689
165.757
165.825
165.893
165.96
166.028
166.096
166.164
166.232
166.3
166.368
166.436
166.503
166.571
166.639
166.707
166.775
166.843
166.911
166.978
167.046
167.114
167.182
167.25
167.318
167.385
167.453
167.521
167.589
167.657
167.725
167.792
167.86
167.928
167.996
168.064
168.132
168.199
168.267
168.335
168.403
168.471
168.538
168.606
168.674
168.742
168.81
168.878
168.945
169.013
169.081
169.149
169.216
169.284
169.352
169.42
169.488
169.555
169.623
169.691
169.759
169.827
169.894
169.962
170.03
170.098
170.165
170.233
170.301
170.369
170.436
170.504
170.572
170.64
170.708
170.775
170.843
170.911
170.979
171.046
171.114
171.182
171.25
171.317
171.385
171.453
171.52
171.588
171.656
171.724
171.791
171.859
171.927
171.995
172.062
172.13
172.198
172.265
172.333
172.401
172.469
172.536
172.604
172.672
172.739
172.807
172.875
172.942
173.01
173.078
173.146
173.213
173.281
173.349
173.416
173.484
173.552
173.619
173.687
173.755
173.822
173.89
173.958
174.025
174.093
174.161
174.228
174.296
174.364
174.431
174.499
174.567
174.634
174.702
174.77
174.837
174.905
174.973
175.04
175.108
175.176
175.243
175.311
175.378
175.446
175.514
175.581
175.649
175.717
175.784
175.852
175.919
175.987
176.055
176.122
176.19
176.258
176.325
176.393
176.46
176.528
176.596
176.663
176.731
176.798
176.866
176.934
177.001
177.069
177.136
177.204
177.272
177.339
177.407
177.474
177.542
177.609
177.677
177.745
177.812
177.88
177.947
178.015
178.082
178.15
178.218
178.285
178.353
178.42
178.488
178.555
178.623
178.69
178.758
178.825
178.893
178.961
179.028
179.096
179.163
179.231
179.298
179.366
179.433
179.501
179.568
179.636
179.703
179.771
179.838
179.906
179.973
180.041
180.108
180.176
180.243
180.311
180.378
180.446
180.513
180.581
180.648
180.716
180.783
180.851
180.918
180.986
181.053
181.121
181.188
181.256
181.323
181.391
181.458
181.526
181.593
181.661
181.728
181.796
181.863
181.93
181.998
182.065
182.133
182.2
182.268
182.335
182.403
182.47
182.538
182.605
182.672
182.74
182.807
182.875
182.942
183.01
183.077
183.144
183.212
183.279
183.347
183.414
183.482
183.549
183.616
183.684
183.751
183.819
183.886
183.953
184.021
184.088
184.156
184.223
184.29
184.358
184.425
184.493
184.56
184.627
184.695
184.762
184.829
184.897
184.964
185.032
185.099
185.166
185.234
185.301
185.368
185.436
185.503
185.571
185.638
185.705
185.773
185.84
185.907
185.975
186.042
186.109
186.177
186.244
186.311
186.379
186.446
186.513
186.581
186.648
186.715
186.783
186.85
186.917
186.985
187.052
187.119
187.187
187.254
187.321
187.388
187.456
187.523
187.59
187.658
187.725
187.792
187.86
187.927
187.994
188.061
188.129
188.196
188.263
188.331
188.398
188.465
188.532
188.6
188.667
188.734
188.802
188.869
188.936
189.003
189.071
189.138
189.205
189.272
189.34
189.407
189.474
189.541
189.609
189.676
189.743
189.81
189.878
189.945
190.012
190.079
190.146
190.214
190.281
190.348
190.415
190.483
190.55
190.617
190.684
190.751
190.819
190.886
190.953
191.02
191.087
191.155
191.222
191.289
191.356
191.423
191.491
191.558
191.625
191.692
191.759
191.827
191.894
191.961
192.028
192.095
192.162
192.23
192.297
192.364
192.431
192.498
192.565
192.633
192.7
192.767
192.834
192.901
192.968
193.035
193.103
193.17
193.237
193.304
193.371
193.438
193.505
193.573
193.64
193.707
193.774
193.841
193.908
193.975
194.042
194.109
194.177
194.244
194.311
194.378
194.445
194.512
194.579
194.646
194.713
194.781
194.848
194.915
194.982
195.049
195.116
195.183
195.25
195.317
195.384
195.451
195.518
195.585
195.653
195.72
195.787
195.854
195.921
195.988
196.055
196.122
196.189
196.256
196.323
196.39
196.457
196.524
196.591
196.658
196.725
196.792
196.859
196.926
196.993
197.06
197.128
197.195
197.262
197.329
197.396
197.463
197.53
197.597
197.664
197.731
197.798
197.865
197.932
197.999
198.066
198.133
198.2
198.267
198.334
198.401
198.468
198.535
198.602
198.669
198.735
198.802
198.869
198.936
199.003
199.07
199.137
199.204
199.271
199.338
199.405
199.472
199.539
199.606
199.673
199.74
199.807
199.874
199.941
200.008
200.075
200.141
200.208
200.275
200.342
200.409
200.476
200.543
200.61
200.677
200.744
200.811
200.878
200.945
201.011
201.078
201.145
201.212
201.279
201.346
201.413
201.48
201.547
201.613
201.68
201.747
201.814
201.881
201.948
202.015
202.082
202.149
202.215
202.282
202.349
202.416
202.483
202.55
202.617
202.683
202.75
202.817
202.884
202.951
203.018
203.084
203.151
203.218
203.285
203.352
203.419
203.485
203.552
203.619
203.686
203.753
203.82
203.886
203.953
204.02
204.087
204.154
204.22
204.287
204.354
204.421
204.488
204.554
204.621
204.688
204.755
204.822
204.888
204.955
205.022
205.089
205.156
205.222
205.289
205.356
205.423
205.489
205.556
205.623
205.69
205.756
205.823
205.89
205.957
206.023
206.09
206.157
206.224
206.29
206.357
206.424
206.491
206.557
206.624
206.691
206.758
206.824
206.891
206.958
207.024
207.091
207.158
207.225
207.291
207.358
207.425
207.491
207.558
207.625
207.691
207.758
207.825
207.892
207.958
208.025
208.092
208.158
208.225
208.292
208.358
208.425
208.492
208.558
208.625
208.692
208.758
208.825
208.892
208.958
209.025
209.092
209.158
209.225
209.292
209.358
209.425
209.491
209.558
209.625
209.691
209.758
209.825
209.891
209.958
210.024
210.091
210.158
210.224
210.291
210.358
210.424
210.491
210.557
210.624
210.691
210.757
210.824
210.89
210.957
211.024
211.09
211.157
211.223
211.29
211.356
211.423
211.49
211.556
211.623
211.689
211.756
211.822
211.889
211.956
212.022
212.089
212.155
212.222
212.288
212.355
212.421
212.488
212.554
212.621
212.688
212.754
212.821
212.887
212.954
213.02
213.087
213.153
213.22
213.286
213.353
213.419
213.486
213.552
213.619
213.685
213.752
213.818
213.885
213.951
214.018
214.084
214.151
214.217
214.284
214.35
214.417
214.483
214.55
214.616
214.683
214.749
214.815
214.882
214.948
215.015
215.081
215.148
215.214
215.281
215.347
215.414
215.48
215.546
215.613
215.679
215.746
215.812
215.879
215.945
216.011
216.078
216.144
216.211
216.277
216.344
216.41
216.476
216.543
216.609
216.676
216.742
216.808
216.875
216.941
217.007
217.074
217.14
217.207
217.273
217.339
217.406
217.472
217.539
217.605
217.671
217.738
217.804
217.87
217.937
218.003
218.069
218.136
218.202
218.268
218.335
218.401
218.467
218.534
218.6
218.666
218.733
218.799
218.865
218.932
218.998
219.064
219.131
219.197
219.263
219.33
219.396
219.462
219.529
219.595
219.661
219.728
219.794
219.86
219.926
219.993
220.059
220.125
220.192
220.258
220.324
220.39
220.457
220.523
220.589
220.655
220.722
220.788
220.854
220.92
220.987
221.053
221.119
221.185
221.252
221.318
221.384
221.45
221.517
221.583
221.649
221.715
221.782
221.848
221.914
221.98
222.046
222.113
222.179
222.245
222.311
222.377
222.444
222.51
222.576
222.642
222.708
222.775
222.841
222.907
222.973
223.039
223.106
223.172
223.238
223.304
223.37
223.436
223.503
223.569
223.635
223.701
223.767
223.833
223.9
223.966
224.032
224.098
224.164
224.23
224.296
224.363
224.429
224.495
224.561
224.627
224.693
224.759
224.825
224.892
224.958
225.024
225.09
225.156
225.222
225.288
225.354
225.42
225.486
225.553
225.619
225.685
225.751
225.817
225.883
225.949
226.015
226.081
226.147
226.213
226.279
226.345
226.412
226.478
226.544
226.61
226.676
226.742
226.808
226.874
226.94
227.006
227.072
227.138
227.204
227.27
227.336
227.402
227.468
227.534
227.6
227.666
227.732
227.798
227.864
227.93
227.996
228.062
228.128
228.194
228.26
228.326
228.392
228.458
228.524
228.59
228.656
228.722
228.788
228.854
228.92
228.986
229.052
229.118
229.184
229.25
229.316
229.382
229.448
229.514
229.58
229.646
229.711
229.777
229.843
229.909
229.975
230.041
230.107
230.173
230.239
230.305
230.371
230.437
230.503
230.568
230.634
230.7
230.766
230.832
230.898
230.964
231.03
231.096
231.162
231.227
231.293
231.359
231.425
231.491
231.557
231.623
231.689
231.754
231.82
231.886
231.952
232.018
232.084
232.15
232.215
232.281
232.347
232.413
232.479
232.545
232.61
232.676
232.742
232.808
232.874
232.94
233.005
233.071
233.137
233.203
233.269
233.334
233.4
233.466
233.532
233.598
233.663
233.729
233.795
233.861
233.927
233.992
234.058
234.124
234.19
234.255
234.321
234.387
234.453
234.518
234.584
234.65
234.716
234.782
234.847
234.913
234.979
235.044
235.11
235.176
235.242
235.307
235.373
235.439
235.505
235.57
235.636
235.702
235.767
235.833
235.899
235.965
236.03
236.096
236.162
236.227
236.293
236.359
236.424
236.49
236.556
236.621
236.687
236.753
236.818
236.884
236.95
237.015
237.081
237.147
237.212
237.278
237.344
237.409
237.475
237.541
237.606
237.672
237.738
237.803
237.869
237.935
238
238.066
238.131
238.197
238.263
238.328
238.394
238.459
238.525
238.591
238.656
238.722
238.787
238.853
238.919
238.984
239.05
239.115
239.181
239.247
239.312
239.378
239.443
239.509
239.574
239.64
239.705
239.771
239.837
239.902
239.968
240.033
240.099
240.164
240.23
240.295
240.361
240.426
240.492
240.557
240.623
240.689
240.754
240.82
240.885
240.951
241.016
241.082
241.147
241.213
241.278
241.344
241.409
241.475
241.54
241.605
241.671
241.736
241.802
241.867
241.933
241.998
242.064
242.129
242.195
242.26
242.326
242.391
242.456
242.522
242.587
242.653
242.718
242.784
242.849
242.915
242.98
243.045
243.111
243.176
243.242
243.307
243.372
243.438
243.503
243.569
243.634
243.699
243.765
243.83
243.896
243.961
244.026
244.092
244.157
244.223
244.288
244.353
244.419
244.484
244.549
244.615
244.68
244.745
244.811
244.876
244.941
245.007
245.072
245.137
245.203
245.268
245.333
245.399
245.464
245.529
245.595
245.66
245.725
245.791
245.856
245.921
245.987
246.052
246.117
246.182
246.248
246.313
246.378
246.444
246.509
246.574
246.639
246.705
246.77
246.835
246.9
246.966
247.031
247.096
247.161
247.227
247.292
247.357
247.422
247.488
247.553
247.618
247.683
247.749
247.814
247.879
247.944
248.009
248.075
248.14
248.205
248.27
248.335
248.401
248.466
248.531
248.596
248.661
248.727
248.792
248.857
248.922
248.987
249.052
249.118
249.183
249.248
249.313
249.378
249.443
249.509
249.574
249.639
249.704
249.769
249.834
249.899
249.964
250.03
250.095
250.16
250.225
250.29
250.355
250.42
250.485
250.55
250.616
250.681
250.746
250.811
250.876
250.941
251.006
251.071
251.136
251.201
251.266
251.331
251.397
251.462
251.527
251.592
251.657
251.722
251.787
251.852
251.917
251.982
252.047
252.112
252.177
252.242
252.307
252.372
252.437
252.502
252.567
252.632
252.697
252.762
252.827
252.892
252.957
253.022
253.087
253.152
253.217
253.282
253.347
253.412
253.477
253.542
253.607
253.672
253.737
253.802
253.867
253.932
253.997
254.061
254.126
254.191
254.256
254.321
254.386
254.451
254.516
254.581
254.646
254.711
254.776
254.841
254.905
254.97
255.035
255.1
255.165
255.23
255.295
255.36
255.425
255.489
255.554
255.619
255.684
255.749
255.814
255.879
255.943
256.008
256.073
256.138
256.203
256.268
256.332
256.397
256.462
256.527
256.592
256.657
256.721
256.786
256.851
256.916
256.981
257.045
257.11
257.175
257.24
257.304
257.369
257.434
257.499
257.564
257.628
257.693
257.758
257.823
257.887
257.952
258.017
258.082
258.146
258.211
258.276
258.341