/*--------------------------------*- C++ -*----------------------------------*\
  =========                 |
  \\      /  F ield         | OpenFOAM: The Open Source CFD Toolbox
   \\    /   O peration     | Website:  https://openfoam.org
    \\  /    A nd           | Version:  9
     \\/     M anipulation  |
\*---------------------------------------------------------------------------*/
FoamFile
{
    format      ascii;
    class       volScalarField;
    location    "0.027";
    object      T;
}
// * * * * * * * * * * * * * * * * * * * * * * * * * * * * * * * * * * * * * //

dimensions      [0 0 0 1 0 0 0];

internalField   nonuniform List<scalar> 
10000
(
228.582
228.584
228.589
228.594
228.598
228.603
228.608
228.613
228.617
228.622
228.626
228.631
228.636
228.641
228.645
228.649
228.654
228.658
228.663
228.668
228.673
228.678
228.682
228.686
228.689
228.693
228.698
228.702
228.707
228.713
228.718
228.723
228.727
228.731
228.735
228.737
228.739
228.741
228.742
228.743
228.743
228.743
228.743
228.743
228.743
228.743
228.743
228.742
228.742
228.742
228.741
228.741
228.74
228.74
228.739
228.739
228.739
228.738
228.738
228.737
228.737
228.737
228.736
228.736
228.735
228.735
228.735
228.734
228.734
228.733
228.733
228.732
228.732
228.732
228.731
228.731
228.73
228.73
228.73
228.729
228.729
228.728
228.728
228.728
228.727
228.727
228.726
228.726
228.725
228.725
228.725
228.724
228.724
228.723
228.723
228.723
228.722
228.722
228.721
228.721
228.72
228.72
228.72
228.719
228.719
228.718
228.718
228.718
228.717
228.717
228.716
228.716
228.715
228.715
228.715
228.714
228.714
228.713
228.713
228.712
228.712
228.712
228.711
228.711
228.71
228.71
228.71
228.709
228.709
228.708
228.708
228.707
228.707
228.707
228.706
228.706
228.705
228.705
228.704
228.704
228.704
228.703
228.703
228.702
228.702
228.701
228.701
228.701
228.7
228.7
228.699
228.699
228.698
228.698
228.698
228.697
228.697
228.696
228.696
228.695
228.695
228.695
228.694
228.694
228.693
228.693
228.692
228.692
228.692
228.691
228.691
228.69
228.69
228.689
228.689
228.689
228.688
228.688
228.687
228.687
228.686
228.686
228.685
228.685
228.685
228.684
228.684
228.683
228.683
228.682
228.682
228.682
228.681
228.681
228.68
228.68
228.679
228.679
228.678
228.678
228.678
228.677
228.677
228.676
228.676
228.675
228.675
228.674
228.674
228.674
228.673
228.673
228.672
228.672
228.671
228.671
228.67
228.67
228.67
228.669
228.669
228.668
228.668
228.667
228.667
228.666
228.666
228.666
228.665
228.665
228.664
228.664
228.663
228.663
228.662
228.662
228.662
228.661
228.661
228.66
228.66
228.659
228.659
228.658
228.658
228.658
228.657
228.657
228.656
228.656
228.655
228.655
228.654
228.654
228.653
228.653
228.653
228.652
228.652
228.651
228.651
228.65
228.65
228.649
228.649
228.648
228.648
228.648
228.647
228.647
228.646
228.646
228.645
228.645
228.644
228.644
228.643
228.643
228.642
228.642
228.642
228.641
228.641
228.64
228.64
228.639
228.639
228.638
228.638
228.637
228.637
228.636
228.636
228.636
228.635
228.635
228.634
228.634
228.633
228.633
228.632
228.632
228.631
228.631
228.63
228.63
228.63
228.629
228.629
228.628
228.628
228.627
228.627
228.626
228.626
228.625
228.625
228.624
228.624
228.623
228.623
228.623
228.622
228.622
228.621
228.621
228.62
228.62
228.619
228.619
228.618
228.618
228.617
228.617
228.616
228.616
228.615
228.615
228.615
228.614
228.614
228.613
228.613
228.612
228.612
228.611
228.611
228.61
228.61
228.609
228.609
228.608
228.608
228.607
228.607
228.606
228.606
228.605
228.605
228.605
228.604
228.604
228.603
228.603
228.602
228.602
228.601
228.601
228.6
228.6
228.599
228.599
228.598
228.598
228.597
228.597
228.596
228.596
228.595
228.595
228.594
228.594
228.593
228.593
228.592
228.592
228.591
228.591
228.591
228.59
228.59
228.589
228.589
228.588
228.588
228.587
228.587
228.586
228.586
228.585
228.585
228.584
228.584
228.583
228.583
228.582
228.582
228.581
228.581
228.58
228.58
228.579
228.579
228.578
228.578
228.577
228.577
228.576
228.576
228.575
228.575
228.574
228.574
228.573
228.573
228.572
228.572
228.571
228.571
228.57
228.57
228.569
228.569
228.568
228.568
228.567
228.567
228.566
228.566
228.565
228.565
228.564
228.564
228.563
228.563
228.562
228.562
228.561
228.561
228.56
228.56
228.559
228.559
228.558
228.558
228.557
228.557
228.556
228.556
228.555
228.555
228.554
228.554
228.553
228.553
228.552
228.552
228.551
228.551
228.55
228.55
228.549
228.549
228.548
228.548
228.547
228.547
228.546
228.546
228.545
228.545
228.544
228.544
228.543
228.543
228.542
228.542
228.541
228.541
228.54
228.54
228.539
228.539
228.538
228.538
228.537
228.537
228.536
228.536
228.535
228.535
228.534
228.534
228.533
228.533
228.532
228.532
228.531
228.531
228.53
228.529
228.529
228.528
228.528
228.527
228.527
228.526
228.526
228.525
228.525
228.524
228.524
228.523
228.523
228.522
228.522
228.521
228.521
228.52
228.52
228.519
228.519
228.518
228.518
228.517
228.517
228.516
228.516
228.515
228.514
228.514
228.513
228.513
228.512
228.512
228.511
228.511
228.51
228.51
228.509
228.509
228.508
228.508
228.507
228.507
228.506
228.506
228.505
228.504
228.504
228.503
228.503
228.502
228.502
228.501
228.501
228.5
228.5
228.499
228.499
228.498
228.498
228.497
228.497
228.496
228.496
228.495
228.494
228.494
228.493
228.493
228.492
228.492
228.491
228.491
228.49
228.49
228.489
228.489
228.488
228.488
228.487
228.486
228.486
228.485
228.485
228.484
228.484
228.483
228.483
228.482
228.482
228.481
228.481
228.48
228.479
228.479
228.478
228.478
228.477
228.477
228.476
228.476
228.475
228.475
228.474
228.474
228.473
228.472
228.472
228.471
228.471
228.47
228.47
228.469
228.469
228.468
228.468
228.467
228.466
228.466
228.465
228.465
228.464
228.464
228.463
228.463
228.462
228.462
228.461
228.46
228.46
228.459
228.459
228.458
228.458
228.457
228.457
228.456
228.456
228.455
228.454
228.454
228.453
228.453
228.452
228.452
228.451
228.451
228.45
228.45
228.449
228.448
228.448
228.447
228.447
228.446
228.446
228.445
228.445
228.444
228.443
228.443
228.442
228.442
228.441
228.441
228.44
228.44
228.439
228.438
228.438
228.437
228.437
228.436
228.436
228.435
228.435
228.434
228.433
228.433
228.432
228.432
228.431
228.431
228.43
228.429
228.429
228.428
228.428
228.427
228.427
228.426
228.426
228.425
228.424
228.424
228.423
228.423
228.422
228.422
228.421
228.42
228.42
228.419
228.419
228.418
228.418
228.417
228.417
228.416
228.415
228.415
228.414
228.414
228.413
228.413
228.412
228.411
228.411
228.41
228.41
228.409
228.409
228.408
228.407
228.407
228.406
228.406
228.405
228.405
228.404
228.403
228.403
228.402
228.402
228.401
228.401
228.4
228.399
228.399
228.398
228.398
228.397
228.397
228.396
228.395
228.395
228.394
228.394
228.393
228.393
228.392
228.391
228.391
228.39
228.39
228.389
228.388
228.388
228.387
228.387
228.386
228.386
228.385
228.384
228.384
228.383
228.383
228.382
228.382
228.381
228.38
228.38
228.379
228.379
228.378
228.377
228.377
228.376
228.376
228.375
228.375
228.374
228.373
228.373
228.372
228.372
228.371
228.37
228.37
228.369
228.369
228.368
228.368
228.367
228.366
228.366
228.365
228.365
228.364
228.363
228.363
228.362
228.362
228.361
228.36
228.36
228.359
228.359
228.358
228.357
228.357
228.356
228.356
228.355
228.355
228.354
228.353
228.353
228.352
228.352
228.351
228.35
228.35
228.349
228.349
228.348
228.347
228.347
228.346
228.346
228.345
228.344
228.344
228.343
228.343
228.342
228.341
228.341
228.34
228.34
228.339
228.338
228.338
228.337
228.337
228.336
228.335
228.335
228.334
228.334
228.333
228.332
228.332
228.331
228.331
228.33
228.329
228.329
228.328
228.328
228.327
228.326
228.326
228.325
228.325
228.324
228.323
228.323
228.322
228.322
228.321
228.32
228.32
228.319
228.319
228.318
228.317
228.317
228.316
228.315
228.315
228.314
228.314
228.313
228.312
228.312
228.311
228.311
228.31
228.309
228.309
228.308
228.308
228.307
228.306
228.306
228.305
228.304
228.304
228.303
228.303
228.302
228.301
228.301
228.3
228.3
228.299
228.298
228.298
228.297
228.296
228.296
228.295
228.295
228.294
228.293
228.293
228.292
228.292
228.291
228.29
228.29
228.289
228.288
228.288
228.287
228.287
228.286
228.285
228.285
228.284
228.283
228.283
228.282
228.282
228.281
228.28
228.28
228.279
228.279
228.278
228.277
228.277
228.276
228.275
228.275
228.274
228.274
228.273
228.272
228.272
228.271
228.27
228.27
228.269
228.268
228.268
228.267
228.267
228.266
228.265
228.265
228.264
228.263
228.263
228.262
228.262
228.261
228.26
228.26
228.259
228.258
228.258
228.257
228.257
228.256
228.255
228.255
228.254
228.253
228.253
228.252
228.251
228.251
228.25
228.25
228.249
228.248
228.248
228.247
228.246
228.246
228.245
228.244
228.244
228.243
228.243
228.242
228.241
228.241
228.24
228.239
228.239
228.238
228.237
228.237
228.236
228.235
228.235
228.234
228.234
228.233
228.232
228.232
228.231
228.23
228.23
228.229
228.228
228.228
228.227
228.226
228.226
228.225
228.225
228.224
228.223
228.223
228.222
228.221
228.221
228.22
228.219
228.219
228.218
228.217
228.217
228.216
228.216
228.215
228.214
228.213
228.213
228.212
228.212
228.211
228.21
228.21
228.209
228.208
228.208
228.207
228.207
228.206
228.205
228.204
228.204
228.203
228.203
228.202
228.201
228.2
228.2
228.199
228.199
228.198
228.197
228.196
228.196
228.195
228.195
228.194
228.193
228.193
228.192
228.191
228.191
228.19
228.189
228.189
228.188
228.187
228.187
228.186
228.185
228.185
228.184
228.183
228.183
228.182
228.181
228.181
228.18
228.179
228.179
228.178
228.177
228.177
228.176
228.175
228.175
228.174
228.173
228.173
228.172
228.171
228.171
228.17
228.169
228.169
228.168
228.167
228.167
228.166
228.165
228.165
228.164
228.163
228.163
228.162
228.161
228.161
228.16
228.159
228.159
228.158
228.157
228.157
228.156
228.155
228.155
228.154
228.153
228.153
228.152
228.151
228.151
228.15
228.149
228.149
228.148
228.147
228.147
228.146
228.145
228.145
228.144
228.143
228.143
228.142
228.141
228.141
228.14
228.139
228.139
228.138
228.137
228.136
228.136
228.135
228.134
228.134
228.133
228.132
228.132
228.131
228.13
228.13
228.129
228.128
228.128
228.127
228.126
228.126
228.125
228.124
228.124
228.123
228.122
228.121
228.121
228.12
228.119
228.119
228.118
228.117
228.117
228.116
228.115
228.115
228.114
228.113
228.113
228.112
228.111
228.111
228.11
228.109
228.108
228.108
228.107
228.106
228.106
228.105
228.104
228.104
228.103
228.102
228.102
228.101
228.1
228.099
228.099
228.098
228.097
228.097
228.096
228.095
228.095
228.094
228.093
228.093
228.092
228.091
228.09
228.09
228.089
228.088
228.088
228.087
228.086
228.086
228.085
228.084
228.083
228.083
228.082
228.081
228.081
228.08
228.079
228.079
228.078
228.077
228.076
228.076
228.075
228.074
228.074
228.073
228.072
228.072
228.071
228.07
228.069
228.069
228.068
228.067
228.067
228.066
228.065
228.065
228.064
228.063
228.062
228.062
228.061
228.06
228.06
228.059
228.058
228.057
228.057
228.056
228.055
228.055
228.054
228.053
228.052
228.052
228.051
228.05
228.05
228.049
228.048
228.048
228.047
228.046
228.045
228.045
228.044
228.043
228.043
228.042
228.041
228.04
228.04
228.039
228.038
228.038
228.037
228.036
228.035
228.035
228.034
228.033
228.033
228.032
228.031
228.03
228.03
228.029
228.028
228.027
228.027
228.026
228.025
228.025
228.024
228.023
228.022
228.022
228.021
228.02
228.02
228.019
228.018
228.017
228.017
228.016
228.015
228.014
228.014
228.013
228.012
228.012
228.011
228.01
228.009
228.009
228.008
228.007
228.007
228.006
228.005
228.004
228.004
228.003
228.002
228.001
228.001
228
227.999
227.999
227.998
227.997
227.996
227.996
227.995
227.994
227.993
227.993
227.992
227.991
227.99
227.99
227.989
227.988
227.988
227.987
227.986
227.985
227.985
227.984
227.983
227.982
227.982
227.981
227.98
227.979
227.979
227.978
227.977
227.977
227.976
227.975
227.974
227.974
227.973
227.972
227.971
227.971
227.97
227.969
227.968
227.968
227.967
227.966
227.965
227.965
227.964
227.963
227.962
227.962
227.961
227.96
227.96
227.959
227.958
227.957
227.957
227.956
227.955
227.954
227.954
227.953
227.952
227.951
227.951
227.95
227.949
227.948
227.948
227.947
227.946
227.945
227.945
227.944
227.943
227.942
227.942
227.941
227.94
227.939
227.939
227.938
227.937
227.936
227.936
227.935
227.934
227.933
227.933
227.932
227.931
227.93
227.93
227.929
227.928
227.927
227.927
227.926
227.925
227.924
227.924
227.923
227.922
227.921
227.921
227.92
227.919
227.918
227.918
227.917
227.916
227.915
227.914
227.914
227.913
227.912
227.911
227.911
227.91
227.909
227.908
227.908
227.907
227.906
227.905
227.905
227.904
227.903
227.902
227.902
227.901
227.9
227.899
227.899
227.898
227.897
227.896
227.895
227.895
227.894
227.893
227.892
227.892
227.891
227.89
227.889
227.889
227.888
227.887
227.886
227.885
227.885
227.884
227.883
227.882
227.882
227.881
227.88
227.879
227.879
227.878
227.877
227.876
227.875
227.875
227.874
227.873
227.872
227.872
227.871
227.87
227.869
227.869
227.868
227.867
227.866
227.865
227.865
227.864
227.863
227.862
227.862
227.861
227.86
227.859
227.858
227.858
227.857
227.856
227.855
227.855
227.854
227.853
227.852
227.851
227.851
227.85
227.849
227.848
227.848
227.847
227.846
227.845
227.844
227.844
227.843
227.842
227.841
227.841
227.84
227.839
227.838
227.837
227.837
227.836
227.835
227.834
227.833
227.833
227.832
227.831
227.83
227.83
227.829
227.828
227.827
227.826
227.826
227.825
227.824
227.823
227.822
227.822
227.821
227.82
227.819
227.818
227.818
227.817
227.816
227.815
227.815
227.814
227.813
227.812
227.811
227.811
227.81
227.809
227.808
227.807
227.807
227.806
227.805
227.804
227.803
227.803
227.802
227.801
227.8
227.799
227.799
227.798
227.797
227.796
227.795
227.795
227.794
227.793
227.792
227.791
227.791
227.79
227.789
227.788
227.787
227.787
227.786
227.785
227.784
227.783
227.783
227.782
227.781
227.78
227.779
227.779
227.778
227.777
227.776
227.775
227.775
227.774
227.773
227.772
227.771
227.771
227.77
227.769
227.768
227.767
227.767
227.766
227.765
227.764
227.763
227.763
227.762
227.761
227.76
227.759
227.759
227.758
227.757
227.756
227.755
227.754
227.754
227.753
227.752
227.751
227.75
227.75
227.749
227.748
227.747
227.746
227.746
227.745
227.744
227.743
227.742
227.741
227.741
227.74
227.739
227.738
227.737
227.737
227.736
227.735
227.734
227.733
227.732
227.732
227.731
227.73
227.729
227.728
227.728
227.727
227.726
227.725
227.724
227.723
227.723
227.722
227.721
227.72
227.719
227.719
227.718
227.717
227.716
227.715
227.714
227.714
227.713
227.712
227.711
227.71
227.709
227.709
227.708
227.707
227.706
227.705
227.704
227.704
227.703
227.702
227.701
227.7
227.7
227.699
227.698
227.697
227.696
227.695
227.695
227.694
227.693
227.692
227.691
227.69
227.69
227.689
227.688
227.687
227.686
227.685
227.685
227.684
227.683
227.682
227.681
227.68
227.68
227.679
227.678
227.677
227.676
227.675
227.675
227.674
227.673
227.672
227.671
227.67
227.67
227.669
227.668
227.667
227.666
227.665
227.664
227.664
227.663
227.662
227.661
227.66
227.659
227.659
227.658
227.657
227.656
227.655
227.654
227.654
227.653
227.652
227.651
227.65
227.649
227.648
227.648
227.647
227.646
227.645
227.644
227.643
227.643
227.642
227.641
227.64
227.639
227.638
227.637
227.637
227.636
227.635
227.634
227.633
227.632
227.632
227.631
227.63
227.629
227.628
227.627
227.626
227.626
227.625
227.624
227.623
227.622
227.621
227.62
227.62
227.619
227.618
227.617
227.616
227.615
227.615
227.614
227.613
227.612
227.611
227.61
227.609
227.609
227.608
227.607
227.606
227.605
227.604
227.603
227.603
227.602
227.601
227.6
227.599
227.598
227.597
227.596
227.596
227.595
227.594
227.593
227.592
227.591
227.59
227.59
227.589
227.588
227.587
227.586
227.585
227.584
227.584
227.583
227.582
227.581
227.58
227.579
227.578
227.577
227.577
227.576
227.575
227.574
227.573
227.572
227.571
227.571
227.57
227.569
227.568
227.567
227.566
227.565
227.564
227.564
227.563
227.562
227.561
227.56
227.559
227.558
227.558
227.557
227.556
227.555
227.554
227.553
227.552
227.551
227.551
227.55
227.549
227.548
227.547
227.546
227.545
227.544
227.544
227.543
227.542
227.541
227.54
227.539
227.538
227.537
227.536
227.536
227.535
227.534
227.533
227.532
227.531
227.53
227.529
227.529
227.528
227.527
227.526
227.525
227.524
227.523
227.522
227.522
227.521
227.52
227.519
227.518
227.517
227.516
227.515
227.514
227.514
227.513
227.512
227.511
227.51
227.509
227.508
227.507
227.506
227.506
227.505
227.504
227.503
227.502
227.501
227.5
227.499
227.498
227.498
227.497
227.496
227.495
227.494
227.493
227.492
227.491
227.49
227.49
227.489
227.488
227.487
227.486
227.485
227.484
227.483
227.482
227.482
227.481
227.48
227.479
227.478
227.477
227.476
227.475
227.474
227.473
227.473
227.472
227.471
227.47
227.469
227.468
227.467
227.466
227.465
227.464
227.464
227.463
227.462
227.461
227.46
227.459
227.458
227.457
227.456
227.455
227.455
227.454
227.453
227.452
227.451
227.45
227.449
227.448
227.447
227.446
227.445
227.445
227.444
227.443
227.442
227.441
227.44
227.439
227.438
227.437
227.436
227.436
227.435
227.434
227.433
227.432
227.431
227.43
227.429
227.428
227.427
227.426
227.425
227.425
227.424
227.423
227.422
227.421
227.42
227.419
227.418
227.417
227.416
227.415
227.415
227.414
227.413
227.412
227.411
227.41
227.409
227.408
227.407
227.406
227.405
227.404
227.404
227.403
227.402
227.401
227.4
227.399
227.398
227.397
227.396
227.395
227.394
227.393
227.393
227.392
227.391
227.39
227.389
227.388
227.387
227.386
227.385
227.384
227.383
227.382
227.381
227.381
227.38
227.379
227.378
227.377
227.376
227.375
227.374
227.373
227.372
227.371
227.37
227.369
227.368
227.368
227.367
227.366
227.365
227.364
227.363
227.362
227.361
227.36
227.359
227.358
227.357
227.356
227.355
227.355
227.354
227.353
227.352
227.351
227.35
227.349
227.348
227.347
227.346
227.345
227.344
227.343
227.342
227.341
227.341
227.34
227.339
227.338
227.337
227.336
227.335
227.334
227.333
227.332
227.331
227.33
227.329
227.328
227.327
227.326
227.326
227.325
227.324
227.323
227.322
227.321
227.32
227.319
227.318
227.317
227.316
227.315
227.314
227.313
227.312
227.311
227.31
227.309
227.309
227.308
227.307
227.306
227.305
227.304
227.303
227.302
227.301
227.3
227.299
227.298
227.297
227.296
227.295
227.294
227.293
227.292
227.291
227.291
227.29
227.289
227.288
227.287
227.286
227.285
227.284
227.283
227.282
227.281
227.28
227.279
227.278
227.277
227.276
227.275
227.274
227.273
227.272
227.271
227.271
227.27
227.269
227.268
227.267
227.266
227.265
227.264
227.263
227.262
227.261
227.26
227.259
227.258
227.257
227.256
227.255
227.254
227.253
227.252
227.251
227.25
227.249
227.248
227.248
227.247
227.246
227.245
227.244
227.243
227.242
227.241
227.24
227.239
227.238
227.237
227.236
227.235
227.234
227.233
227.232
227.231
227.23
227.229
227.228
227.227
227.226
227.225
227.224
227.223
227.222
227.221
227.22
227.22
227.219
227.218
227.217
227.216
227.215
227.214
227.213
227.212
227.211
227.21
227.209
227.208
227.207
227.206
227.205
227.204
227.203
227.202
227.201
227.2
227.199
227.198
227.197
227.196
227.195
227.194
227.193
227.192
227.191
227.19
227.189
227.188
227.187
227.186
227.185
227.184
227.183
227.182
227.181
227.181
227.18
227.179
227.178
227.177
227.176
227.175
227.174
227.173
227.172
227.171
227.17
227.169
227.168
227.167
227.166
227.165
227.164
227.163
227.162
227.161
227.16
227.159
227.158
227.157
227.156
227.155
227.154
227.153
227.152
227.151
227.15
227.149
227.148
227.147
227.146
227.145
227.144
227.143
227.142
227.141
227.14
227.139
227.138
227.137
227.136
227.135
227.134
227.133
227.132
227.131
227.13
227.129
227.128
227.127
227.126
227.125
227.124
227.123
227.122
227.121
227.12
227.119
227.118
227.117
227.116
227.115
227.114
227.113
227.112
227.111
227.11
227.109
227.108
227.107
227.106
227.105
227.104
227.103
227.102
227.101
227.1
227.099
227.098
227.097
227.096
227.095
227.094
227.093
227.092
227.091
227.09
227.089
227.088
227.087
227.086
227.085
227.084
227.083
227.082
227.081
227.08
227.079
227.078
227.077
227.076
227.075
227.074
227.073
227.072
227.071
227.07
227.069
227.068
227.067
227.066
227.065
227.064
227.063
227.062
227.061
227.06
227.059
227.058
227.057
227.056
227.055
227.054
227.053
227.052
227.051
227.05
227.049
227.048
227.047
227.046
227.045
227.044
227.043
227.042
227.041
227.04
227.039
227.038
227.037
227.036
227.035
227.034
227.033
227.031
227.03
227.029
227.028
227.027
227.026
227.025
227.024
227.023
227.022
227.021
227.02
227.019
227.018
227.017
227.016
227.015
227.014
227.013
227.012
227.011
227.01
227.009
227.008
227.007
227.006
227.005
227.004
227.003
227.002
227.001
227
226.999
226.998
226.997
226.996
226.995
226.994
226.993
226.992
226.99
226.989
226.988
226.987
226.986
226.985
226.984
226.983
226.982
226.981
226.98
226.979
226.978
226.977
226.976
226.975
226.974
226.973
226.972
226.971
226.97
226.969
226.968
226.967
226.966
226.965
226.964
226.963
226.962
226.96
226.959
226.958
226.957
226.956
226.955
226.954
226.953
226.952
226.951
226.95
226.949
226.948
226.947
226.946
226.945
226.944
226.943
226.942
226.941
226.94
226.939
226.938
226.937
226.936
226.934
226.933
226.932
226.931
226.93
226.929
226.928
226.927
226.926
226.925
226.924
226.923
226.922
226.921
226.92
226.919
226.918
226.917
226.916
226.915
226.914
226.912
226.911
226.91
226.909
226.908
226.907
226.906
226.905
226.904
226.903
226.902
226.901
226.9
226.899
226.898
226.897
226.896
226.895
226.894
226.892
226.891
226.89
226.889
226.888
226.887
226.886
226.885
226.884
226.883
226.882
226.881
226.88
226.879
226.878
226.877
226.876
226.874
226.873
226.872
226.871
226.87
226.869
226.868
226.867
226.866
226.865
226.864
226.863
226.862
226.861
226.86
226.859
226.857
226.856
226.855
226.854
226.853
226.852
226.851
226.85
226.849
226.848
226.847
226.846
226.845
226.844
226.843
226.842
226.84
226.839
226.838
226.837
226.836
226.835
226.834
226.833
226.832
226.831
226.83
226.829
226.828
226.827
226.825
226.824
226.823
226.822
226.821
226.82
226.819
226.818
226.817
226.816
226.815
226.814
226.813
226.812
226.81
226.809
226.808
226.807
226.806
226.805
226.804
226.803
226.802
226.801
226.8
226.799
226.798
226.796
226.795
226.794
226.793
226.792
226.791
226.79
226.789
226.788
226.787
226.786
226.785
226.783
226.782
226.781
226.78
226.779
226.778
226.777
226.776
226.775
226.774
226.773
226.772
226.77
226.769
226.768
226.767
226.766
226.765
226.764
226.763
226.762
226.761
226.76
226.759
226.757
226.756
226.755
226.754
226.753
226.752
226.751
226.75
226.749
226.748
226.747
226.745
226.744
226.743
226.742
226.741
226.74
226.739
226.738
226.737
226.736
226.735
226.733
226.732
226.731
226.73
226.729
226.728
226.727
226.726
226.725
226.724
226.722
226.721
226.72
226.719
226.718
226.717
226.716
226.715
226.714
226.713
226.712
226.71
226.709
226.708
226.707
226.706
226.705
226.704
226.703
226.702
226.701
226.699
226.698
226.697
226.696
226.695
226.694
226.693
226.692
226.691
226.689
226.688
226.687
226.686
226.685
226.684
226.683
226.682
226.681
226.68
226.678
226.677
226.676
226.675
226.674
226.673
226.672
226.671
226.67
226.668
226.667
226.666
226.665
226.664
226.663
226.662
226.661
226.66
226.658
226.657
226.656
226.655
226.654
226.653
226.652
226.651
226.65
226.648
226.647
226.646
226.645
226.644
226.643
226.642
226.641
226.64
226.638
226.637
226.636
226.635
226.634
226.633
226.632
226.631
226.629
226.628
226.627
226.626
226.625
226.624
226.623
226.622
226.621
226.619
226.618
226.617
226.616
226.615
226.614
226.613
226.612
226.61
226.609
226.608
226.607
226.606
226.605
226.604
226.603
226.601
226.6
226.599
226.598
226.597
226.596
226.595
226.594
226.592
226.591
226.59
226.589
226.588
226.587
226.586
226.585
226.583
226.582
226.581
226.58
226.579
226.578
226.577
226.576
226.574
226.573
226.572
226.571
226.57
226.569
226.568
226.567
226.565
226.564
226.563
226.562
226.561
226.56
226.559
226.557
226.556
226.555
226.554
226.553
226.552
226.551
226.55
226.548
226.547
226.546
226.545
226.544
226.543
226.542
226.54
226.539
226.538
226.537
226.536
226.535
226.534
226.532
226.531
226.53
226.529
226.528
226.527
226.526
226.524
226.523
226.522
226.521
226.52
226.519
226.518
226.516
226.515
226.514
226.513
226.512
226.511
226.51
226.508
226.507
226.506
226.505
226.504
226.503
226.502
226.5
226.499
226.498
226.497
226.496
226.495
226.494
226.492
226.491
226.49
226.489
226.488
226.487
226.486
226.484
226.483
226.482
226.481
226.48
226.479
226.477
226.476
226.475
226.474
226.473
226.472
226.471
226.469
226.468
226.467
226.466
226.465
226.464
226.463
226.461
226.46
226.459
226.458
226.457
226.456
226.454
226.453
226.452
226.451
226.45
226.449
226.447
226.446
226.445
226.444
226.443
226.442
226.441
226.439
226.438
226.437
226.436
226.435
226.434
226.432
226.431
226.43
226.429
226.428
226.427
226.425
226.424
226.423
226.422
226.421
226.42
226.418
226.417
226.416
226.415
226.414
226.413
226.411
226.41
226.409
226.408
226.407
226.406
226.405
226.403
226.402
226.401
226.4
226.399
226.398
226.396
226.395
226.394
226.393
226.392
226.39
226.389
226.388
226.387
226.386
226.385
226.383
226.382
226.381
226.38
226.379
226.378
226.376
226.375
226.374
226.373
226.372
226.371
226.369
226.368
226.367
226.366
226.365
226.364
226.362
226.361
226.36
226.359
226.358
226.357
226.355
226.354
226.353
226.352
226.351
226.349
226.348
226.347
226.346
226.345
226.344
226.342
226.341
226.34
226.339
226.338
226.336
226.335
226.334
226.333
226.332
226.331
226.329
226.328
226.327
226.326
226.325
226.324
226.322
226.321
226.32
226.319
226.318
226.316
226.315
226.314
226.313
226.312
226.31
226.309
226.308
226.307
226.306
226.305
226.303
226.302
226.301
226.3
226.299
226.297
226.296
226.295
226.294
226.293
226.292
226.29
226.289
226.288
226.287
226.286
226.284
226.283
226.282
226.281
226.28
226.278
226.277
226.276
226.275
226.274
226.272
226.271
226.27
226.269
226.268
226.267
226.265
226.264
226.263
226.262
226.261
226.259
226.258
226.257
226.256
226.255
226.253
226.252
226.251
226.25
226.249
226.247
226.246
226.245
226.244
226.243
226.241
226.24
226.239
226.238
226.237
226.235
226.234
226.233
226.232
226.231
226.229
226.228
226.227
226.226
226.225
226.223
226.222
226.221
226.22
226.219
226.217
226.216
226.215
226.214
226.213
226.211
226.21
226.209
226.208
226.207
226.205
226.204
226.203
226.202
226.201
226.199
226.198
226.197
226.196
226.195
226.193
226.192
226.191
226.19
226.189
226.187
226.186
226.185
226.184
226.183
226.181
226.18
226.179
226.178
226.177
226.175
226.174
226.173
226.172
226.17
226.169
226.168
226.167
226.166
226.164
226.163
226.162
226.161
226.16
226.158
226.157
226.156
226.155
226.154
226.152
226.151
226.15
226.149
226.147
226.146
226.145
226.144
226.143
226.141
226.14
226.139
226.138
226.137
226.135
226.134
226.133
226.132
226.13
226.129
226.128
226.127
226.126
226.124
226.123
226.122
226.121
226.12
226.118
226.117
226.116
226.115
226.113
226.112
226.111
226.11
226.109
226.107
226.106
226.105
226.104
226.102
226.101
226.1
226.099
226.098
226.096
226.095
226.094
226.093
226.091
226.09
226.089
226.088
226.087
226.085
226.084
226.083
226.082
226.08
226.079
226.078
226.077
226.076
226.074
226.073
226.072
226.071
226.069
226.068
226.067
226.066
226.065
226.063
226.062
226.061
226.06
226.058
226.057
226.056
226.055
226.054
226.052
226.051
226.05
226.049
226.047
226.046
226.045
226.044
226.043
226.041
226.04
226.039
226.038
226.036
226.035
226.034
226.033
226.031
226.03
226.029
226.028
226.027
226.025
226.024
226.023
226.022
226.02
226.019
226.018
226.017
226.015
226.014
226.013
226.012
226.011
226.009
226.008
226.007
226.006
226.004
226.003
226.002
226.001
225.999
225.998
225.997
225.996
225.995
225.993
225.992
225.991
225.99
225.988
225.987
225.986
225.985
225.983
225.982
225.981
225.98
225.978
225.977
225.976
225.975
225.974
225.972
225.971
225.97
225.969
225.967
225.966
225.965
225.964
225.962
225.961
225.96
225.959
225.957
225.956
225.955
225.954
225.953
225.951
225.95
225.949
225.948
225.946
225.945
225.944
225.943
225.941
225.94
225.939
225.938
225.936
225.935
225.934
225.933
225.931
225.93
225.929
225.928
225.926
225.925
225.924
225.923
225.922
225.92
225.919
225.918
225.917
225.915
225.914
225.913
225.912
225.91
225.909
225.908
225.907
225.905
225.904
225.903
225.902
225.9
225.899
225.898
225.897
225.895
225.894
225.893
225.892
225.89
225.889
225.888
225.887
225.885
225.884
225.883
225.882
225.881
225.879
225.878
225.877
225.876
225.874
225.873
225.872
225.871
225.869
225.868
225.867
225.866
225.864
225.863
225.862
225.861
225.859
225.858
225.857
225.856
225.854
225.853
225.852
225.851
225.849
225.848
225.847
225.846
225.844
225.843
225.842
225.841
225.839
225.838
225.837
225.836
225.834
225.833
225.832
225.831
225.829
225.828
225.827
225.826
225.824
225.823
225.822
225.821
225.819
225.818
225.817
225.816
225.814
225.813
225.812
225.811
225.809
225.808
225.807
225.806
225.805
225.803
225.802
225.801
225.8
225.798
225.797
225.796
225.795
225.793
225.792
225.791
225.79
225.788
225.787
225.786
225.785
225.783
225.782
225.781
225.78
225.778
225.777
225.776
225.775
225.773
225.772
225.771
225.77
225.768
225.767
225.766
225.765
225.763
225.762
225.761
225.76
225.758
225.757
225.756
225.755
225.753
225.752
225.751
225.75
225.748
225.747
225.746
225.745
225.743
225.742
225.741
225.74
225.738
225.737
225.736
225.735
225.733
225.732
225.731
225.73
225.728
225.727
225.726
225.725
225.723
225.722
225.721
225.72
225.718
225.717
225.716
225.715
225.713
225.712
225.711
225.71
225.708
225.707
225.706
225.705
225.703
225.702
225.701
225.7
225.699
225.697
225.696
225.695
225.694
225.692
225.691
225.69
225.689
225.687
225.686
225.685
225.684
225.682
225.681
225.68
225.679
225.677
225.676
225.675
225.674
225.672
225.671
225.67
225.669
225.667
225.666
225.665
225.664
225.662
225.661
225.66
225.659
225.657
225.656
225.655
225.654
225.653
225.651
225.65
225.649
225.648
225.646
225.645
225.644
225.643
225.641
225.64
225.639
225.638
225.636
225.635
225.634
225.633
225.631
225.63
225.629
225.628
225.627
225.625
225.624
225.623
225.622
225.62
225.619
225.618
225.617
225.615
225.614
225.613
225.612
225.61
225.609
225.608
225.607
225.606
225.604
225.603
225.602
225.601
225.599
225.598
225.597
225.596
225.594
225.593
225.592
225.591
225.59
225.588
225.587
225.586