/*--------------------------------*- C++ -*----------------------------------*\
  =========                 |
  \\      /  F ield         | OpenFOAM: The Open Source CFD Toolbox
   \\    /   O peration     | Website:  https://openfoam.org
    \\  /    A nd           | Version:  9
     \\/     M anipulation  |
\*---------------------------------------------------------------------------*/
FoamFile
{
    format      ascii;
    class       volScalarField;
    location    "0.038";
    object      ddt0(rho,K);
}
// * * * * * * * * * * * * * * * * * * * * * * * * * * * * * * * * * * * * * //

dimensions      [1 -1 -3 0 0 0 0];

internalField   nonuniform List<scalar> 
1000
(
383.462
299.657
211.625
138.157
66.8773
-8.45478
-87.5242
-168.812
-251.695
-336.413
-423.505
-513.395
-606.106
-701.129
-797.743
-895.717
-995.645
-1098.47
-1204.66
-1313.84
-1425.1
-1537.5
-1650.72
-1765.26
-1882.08
-2001.9
-2124.92
-2251.18
-2380.59
-2512.49
-2646.26
-2781.7
-2918.27
-3055.23
-3192.68
-3331.58
-3473.11
-3617.87
-3766.25
-3918.93
-4075.86
-4236.76
-4401.58
-4569.71
-4740.47
-4913.25
-5087.44
-5262.7
-5438.79
-5615.56
-5793.19
-5972.99
-6157.06
-6345.85
-6539.96
-6741.4
-6935.42
-7132.31
-7325.25
-7530.66
-7727.42
-7933.72
-8140.35
-8343.38
-8560.46
-8766.43
-8983.36
-9204.37
-9415.68
-9645.06
-9867.44
-10089.3
-10327.3
-10550.3
-10781.7
-11026.6
-11254.8
-11496.5
-11746.7
-11979.1
-12229.5
-12488.1
-12726.9
-12983.7
-13251.3
-13497
-13758.7
-14036.5
-14289.4
-14550.9
-14837.8
-15102.5
-15363.6
-15658.7
-15940.9
-16201.9
-16496.5
-16798
-17065.4
-17351.4
-17669.9
-17957.7
-18233.8
-18554.3
-18871.2
-19148.5
-19452.4
-19792.3
-20095.7
-20381.9
-20718.5
-21060.8
-21354.4
-21662.7
-22022.1
-22357.1
-22652.1
-22987.9
-23361.1
-23689.5
-23994.7
-24355
-24733.5
-25057.8
-25377.7
-25757.1
-26139.7
-26467.1
-26802.5
-27197.9
-27585
-27918.6
-28267.3
-28674.3
-29069.2
-29411
-29770.9
-30188.7
-30593.9
-30945.5
-31312.9
-31739.4
-32158.7
-32521.8
-32893.9
-33328.3
-33765.3
-34143.3
-34516.5
-34954.1
-35410.4
-35808.6
-36182
-36615.8
-37091.9
-37519.5
-37897.8
-38319.1
-38807
-39271.8
-39666.1
-40069.5
-40552.9
-41055.3
-41485.3
-41878.1
-42337.6
-42862.3
-43345.7
-43752.5
-44178.5
-44694.2
-45229.1
-45685.1
-46094.6
-46570.5
-47124.8
-47649.6
-48087
-48521.4
-49046.2
-49618.9
-50127.6
-50563.7
-51034.5
-51598.9
-52178.2
-52675.7
-53123.2
-53632.4
-54227.1
-54807.5
-55300
-55766.1
-56311.8
-56931
-57513.9
-58007.5
-58494.2
-59072.8
-59715.2
-60304.9
-60803.8
-61308.2
-61914.4
-62581.2
-63186.5
-63695.2
-64211.8
-64837.2
-65531.3
-66162.8
-66685.7
-67219.9
-67843
-68568.9
-69242.6
-69792.5
-70341.1
-70954.9
-71668.4
-72423
-73034.5
-73561.7
-74169.8
-74915
-75710.8
-76342.7
-76899.6
-77540.4
-78270.1
-79073.8
-79765.2
-80400.8
-81043.8
-81679
-82509.6
-83384.3
-83969.1
-84607.6
-85354.4
-86037.8
-86902.6
-87750.8
-88361.2
-89035.7
-89818.6
-90495.4
-91401.4
-92288.7
-92917.3
-93630.6
-94226.1
-94891.2
-95793.3
-96594.2
-97403.6
-98573.5
-99508.1
-100481
-101408
-102317
-103159
-103966
-104851
-105763
-106675
-107584
-108465
-109352
-110281
-111252
-112206
-113135
-114059
-115001
-115995
-117029
-118041
-119009
-119971
-120968
-122029
-123118
-124190
-125218
-126220
-127250
-128339
-129459
-130565
-131640
-132708
-133812
-134967
-136142
-137284
-138387
-139486
-140620
-141798
-142991
-144170
-145307
-146432
-147595
-148812
-150055
-151274
-152440
-153564
-154708
-155909
-157151
-158378
-159556
-160699
-161846
-163035
-164256
-165459
-166615
-167735
-168849
-169992
-171173
-172351
-173476
-174544
-175597
-176678
-177803
-178942
-180034
-181051
-182019
-183001
-184022
-185063
-186090
-187062
-187972
-188861
-189782
-190733
-191674
-192570
-193402
-194195
-195011
-195875
-196744
-197570
-198339
-199057
-199759
-200506
-201306
-202100
-202838
-203513
-204150
-204791
-205485
-206213
-206909
-207554
-208164
-208762
-209387
-210066
-210754
-211384
-211952
-212500
-213062
-213669
-214332
-215000
-215604
-216142
-216670
-217228
-217831
-218473
-219111
-219695
-220225
-220758
-221341
-221966
-222598
-223198
-223745
-224255
-224786
-225385
-226035
-226685
-227288
-227840
-228368
-228911
-229502
-230142
-230785
-231381
-231926
-232469
-233056
-233694
-234352
-234980
-235560
-236096
-236630
-237210
-237853
-238531
-239186
-239785
-240336
-240885
-241483
-242140
-242811
-243443
-244022
-244581
-245162
-245786
-246454
-247144
-247808
-248405
-248955
-249521
-250149
-250828
-251514
-252171
-252785
-253370
-253962
-254602
-255294
-255992
-256652
-257258
-257837
-258433
-259078
-259778
-260496
-261188
-261824
-262423
-263029
-263683
-264389
-265109
-265798
-266430
-267031
-267648
-268318
-269037
-269776
-270490
-271149
-271767
-272388
-273055
-273772
-274506
-275221
-275897
-276538
-277172
-277838
-278561
-279323
-280073
-280766
-281405
-282031
-282694
-283419
-284184
-284944
-285653
-286308
-286949
-287629
-288369
-289146
-289912
-290635
-291312
-291974
-292655
-293376
-294142
-294918
-295672
-296379
-297050
-297728
-298454
-299239
-300042
-300818
-301540
-302225
-302912
-303638
-304412
-305210
-306001
-306752
-307460
-308152
-308867
-309636
-310449
-311272
-312054
-312783
-313486
-314200
-314968
-315782
-316616
-317422
-318177
-318896
-319613
-320374
-321183
-322023
-322849
-323632
-324378
-325110
-325870
-326674
-327517
-328365
-329184
-329952
-330692
-331442
-332238
-333088
-333957
-334796
-335579
-336324
-337073
-337873
-338724
-339601
-340460
-341278
-342059
-342833
-343629
-344462
-345334
-346216
-347082
-347906
-348691
-349472
-350281
-351147
-352055
-352957
-353821
-354619
-355399
-356195
-357056
-357978
-358904
-359805
-360624
-361418
-362207
-363064
-363985
-364933
-365856
-366705
-367506
-368304
-369152
-370085
-371044
-371995
-372874
-373681
-374498
-375325
-376277
-377230
-378216
-379116
-379951
-380786
-381611
-382571
-383510
-384525
-385428
-386306
-387153
-387987
-388965
-389873
-390944
-391813
-392771
-393590
-394456
-395436
-396314
-397457
-398271
-399337
-400102
-401025
-401985
-402855
-404057
-404825
-406001
-406679
-407710
-408573
-409538
-410714
-411506
-412787
-413321
-414579
-415165
-416404
-417353
-418356
-419569
-420147
-421474
-421926
-423349
-424084
-425352
-426370
-427174
-428363
-428894
-430279
-430968
-432344
-433268
-434281
-435332
-436045
-437283
-438049
-439414
-440274
-441506
-442323
-443362
-444318
-445261
-446561
-447377
-448787
-449462
-450756
-451460
-452705
-453683
-454735
-456080
-456737
-458206
-458787
-460146
-460962
-462317
-463181
-464520
-465431
-466412
-467750
-468303
-470035
-470585
-472121
-473054
-474035
-475367
-476031
-477592
-478273
-479797
-480720
-481817
-483172
-483810
-485457
-486083
-487633
-488614
-489718
-491122
-491846
-493373
-494162
-495611
-496572
-497878
-499178
-499937
-501749
-502209
-503959
-504849
-506104
-507610
-508262
-510238
-510750
-512275
-513664
-514435
-516129
-517259
-518447
-519799
-521171
-522175
-523641
-525008
-526003
-527705
-528856
-530140
-531600
-532973
-534025
-535713
-537033
-538082
-539993
-541136
-542424
-544077
-545582
-546506
-548460
-549995
-550724
-553092
-554328
-555270
-557604
-558826
-559862
-562132
-563482
-564549
-566781
-568229
-569447
-571393
-573136
-574392
-576069
-578140
-579360
-580965
-583109
-584455
-585996
-588054
-589658
-591080
-593059
-594871
-596232
-598145
-600065
-601460
-603272
-605260
-606706
-608410
-610449
-611915
-613560
-615609
-617071
-618720
-620712
-622178
-623841
-625714
-627233
-628860
-630576
-632191
-633801
-635259
-637037
-638594
-639894
-641582
-643331
-644302
-646059
-647612
-648852
-650041
-651978
-652790
-654403
-655494
-657130
-657882
-659616
-660275
-662083
-662640
-664137
-664982
-666564
-666849
-668501
-669382
-670338
-671004
-672577
-673150
-673914
-675104
-676059
-676633
-677532
-678785
-679190
-680080
-681065
-681960
-682394
-683386
-684425
-684997
-685606
-686736
-687514
-688198
-688857
-689989
-690725
-691382
-692265
-693289
-693923
-694856
-695747
-696666
-697415
-698453
-699383
-700297
-701113
-702266
-703179
-704155
-705122
-706223
-707145
-708360
-709356
-710365
-711426
-712815
-713795
-714828
-716003
-717448
-718495
-719604
-720828
-722293
-723443
-724649
-725903
-727379
-728575
-729938
-731218
-732640
-733974
-735486
-736716
-738104
-739561
-741182
-742496
-743807
-745257
-746991
-748447
-749836
-751166
-752945
-754552
-756148
-757386
-759169
-760880
-762689
-764213
-765870
-767715
-769689
-771574
-773416
-775388
-777648
-779857
-782140
-784377
-786870
-789540
-792350
-795154
-797996
-800988
-804164
-807543
-810912
-814326
-817703
-821248
-824820
-828525
-832057
-835535
-838858
-842197
-845446
-848630
-851589
-854289
-856869
-859113
-861524
-863417
-865325
-866734
-868342
-869480
-870880
-871798
-872754
-873363
-874370
-874946
-875775
-876325
-877068
-877484
-878384
-879020
-879845
-880334
-881239
-881896
-882866
-883609
-884634
-885304
-886375
-887251
-888435
-889352
-890515
-891347
-892593
-893617
-894933
-895944
-897329
-899514
)
;

boundaryField
{
    sides
    {
        type            calculated;
        value           nonuniform List<scalar> 2(-899514 383.462);
    }
    empty
    {
        type            empty;
    }
}


// ************************************************************************* //
