/*--------------------------------*- C++ -*----------------------------------*\
  =========                 |
  \\      /  F ield         | OpenFOAM: The Open Source CFD Toolbox
   \\    /   O peration     | Website:  https://openfoam.org
    \\  /    A nd           | Version:  9
     \\/     M anipulation  |
\*---------------------------------------------------------------------------*/
FoamFile
{
    format      ascii;
    class       volVectorField;
    location    "0.038";
    object      U;
}
// * * * * * * * * * * * * * * * * * * * * * * * * * * * * * * * * * * * * * //

dimensions      [0 1 -1 0 0 0 0];

internalField   nonuniform List<vector> 
1000
(
(19.6546 0 0)
(19.9887 0 0)
(20.4136 0 0)
(20.7571 0 0)
(21.0591 0 0)
(21.3608 0 0)
(21.6704 0 0)
(21.9832 0 0)
(22.2957 0 0)
(22.6075 0 0)
(22.9191 0 0)
(23.2307 0 0)
(23.5425 0 0)
(23.8543 0 0)
(24.1661 0 0)
(24.4778 0 0)
(24.7896 0 0)
(25.1015 0 0)
(25.4134 0 0)
(25.7253 0 0)
(26.0372 0 0)
(26.3491 0 0)
(26.6609 0 0)
(26.9728 0 0)
(27.2847 0 0)
(27.5967 0 0)
(27.9087 0 0)
(28.2207 0 0)
(28.5328 0 0)
(28.8449 0 0)
(29.157 0 0)
(29.469 0 0)
(29.781 0 0)
(30.0931 0 0)
(30.4051 0 0)
(30.7171 0 0)
(31.0292 0 0)
(31.3413 0 0)
(31.6535 0 0)
(31.9657 0 0)
(32.2779 0 0)
(32.5901 0 0)
(32.9024 0 0)
(33.2146 0 0)
(33.5269 0 0)
(33.8392 0 0)
(34.1514 0 0)
(34.4637 0 0)
(34.7759 0 0)
(35.0882 0 0)
(35.4004 0 0)
(35.7127 0 0)
(36.025 0 0)
(36.3373 0 0)
(36.6495 0 0)
(36.9619 0 0)
(37.2743 0 0)
(37.5866 0 0)
(37.8989 0 0)
(38.2112 0 0)
(38.5235 0 0)
(38.8358 0 0)
(39.1481 0 0)
(39.4604 0 0)
(39.7728 0 0)
(40.0851 0 0)
(40.3974 0 0)
(40.7097 0 0)
(41.022 0 0)
(41.3344 0 0)
(41.6467 0 0)
(41.959 0 0)
(42.2714 0 0)
(42.5837 0 0)
(42.896 0 0)
(43.2084 0 0)
(43.5207 0 0)
(43.833 0 0)
(44.1454 0 0)
(44.4576 0 0)
(44.7699 0 0)
(45.0823 0 0)
(45.3945 0 0)
(45.7068 0 0)
(46.0191 0 0)
(46.3314 0 0)
(46.6437 0 0)
(46.956 0 0)
(47.2682 0 0)
(47.5804 0 0)
(47.8927 0 0)
(48.2049 0 0)
(48.5171 0 0)
(48.8294 0 0)
(49.1416 0 0)
(49.4537 0 0)
(49.7659 0 0)
(50.0781 0 0)
(50.3902 0 0)
(50.7023 0 0)
(51.0145 0 0)
(51.3265 0 0)
(51.6386 0 0)
(51.9507 0 0)
(52.2627 0 0)
(52.5747 0 0)
(52.8867 0 0)
(53.1987 0 0)
(53.5107 0 0)
(53.8226 0 0)
(54.1345 0 0)
(54.4464 0 0)
(54.7583 0 0)
(55.0701 0 0)
(55.382 0 0)
(55.6937 0 0)
(56.0055 0 0)
(56.3172 0 0)
(56.6289 0 0)
(56.9406 0 0)
(57.2522 0 0)
(57.5639 0 0)
(57.8755 0 0)
(58.187 0 0)
(58.4985 0 0)
(58.81 0 0)
(59.1214 0 0)
(59.4328 0 0)
(59.7441 0 0)
(60.0555 0 0)
(60.3667 0 0)
(60.6779 0 0)
(60.9891 0 0)
(61.3003 0 0)
(61.6114 0 0)
(61.9224 0 0)
(62.2334 0 0)
(62.5444 0 0)
(62.8553 0 0)
(63.1661 0 0)
(63.4769 0 0)
(63.7877 0 0)
(64.0984 0 0)
(64.409 0 0)
(64.7195 0 0)
(65.0301 0 0)
(65.3405 0 0)
(65.6509 0 0)
(65.9612 0 0)
(66.2715 0 0)
(66.5817 0 0)
(66.8917 0 0)
(67.2018 0 0)
(67.5118 0 0)
(67.8217 0 0)
(68.1315 0 0)
(68.4412 0 0)
(68.7508 0 0)
(69.0605 0 0)
(69.3699 0 0)
(69.6793 0 0)
(69.9886 0 0)
(70.2979 0 0)
(70.607 0 0)
(70.9161 0 0)
(71.225 0 0)
(71.5338 0 0)
(71.8426 0 0)
(72.1513 0 0)
(72.4598 0 0)
(72.7682 0 0)
(73.0765 0 0)
(73.3848 0 0)
(73.6928 0 0)
(74.0008 0 0)
(74.3086 0 0)
(74.6164 0 0)
(74.924 0 0)
(75.2315 0 0)
(75.5388 0 0)
(75.846 0 0)
(76.1531 0 0)
(76.46 0 0)
(76.7668 0 0)
(77.0734 0 0)
(77.3799 0 0)
(77.6863 0 0)
(77.9924 0 0)
(78.2984 0 0)
(78.6043 0 0)
(78.91 0 0)
(79.2155 0 0)
(79.5208 0 0)
(79.826 0 0)
(80.131 0 0)
(80.4358 0 0)
(80.7403 0 0)
(81.0447 0 0)
(81.3489 0 0)
(81.6529 0 0)
(81.9567 0 0)
(82.2602 0 0)
(82.5636 0 0)
(82.8667 0 0)
(83.1696 0 0)
(83.4722 0 0)
(83.7746 0 0)
(84.0768 0 0)
(84.3787 0 0)
(84.6803 0 0)
(84.9817 0 0)
(85.2829 0 0)
(85.5837 0 0)
(85.8842 0 0)
(86.1845 0 0)
(86.4845 0 0)
(86.7842 0 0)
(87.0835 0 0)
(87.3825 0 0)
(87.6812 0 0)
(87.9796 0 0)
(88.2777 0 0)
(88.5754 0 0)
(88.8726 0 0)
(89.1696 0 0)
(89.4662 0 0)
(89.7624 0 0)
(90.0582 0 0)
(90.3536 0 0)
(90.6487 0 0)
(90.9431 0 0)
(91.2372 0 0)
(91.531 0 0)
(91.8243 0 0)
(92.1171 0 0)
(92.4094 0 0)
(92.7013 0 0)
(92.9926 0 0)
(93.2836 0 0)
(93.5741 0 0)
(93.8639 0 0)
(94.1532 0 0)
(94.442 0 0)
(94.7304 0 0)
(95.0183 0 0)
(95.3056 0 0)
(95.5922 0 0)
(95.8782 0 0)
(96.1637 0 0)
(96.4488 0 0)
(96.7334 0 0)
(97.0173 0 0)
(97.3008 0 0)
(97.584 0 0)
(97.8668 0 0)
(98.1492 0 0)
(98.4305 0 0)
(98.7106 0 0)
(98.9892 0 0)
(99.2667 0 0)
(99.5432 0 0)
(99.8188 0 0)
(100.094 0 0)
(100.368 0 0)
(100.641 0 0)
(100.913 0 0)
(101.184 0 0)
(101.455 0 0)
(101.724 0 0)
(101.993 0 0)
(102.26 0 0)
(102.527 0 0)
(102.793 0 0)
(103.057 0 0)
(103.321 0 0)
(103.583 0 0)
(103.844 0 0)
(104.105 0 0)
(104.364 0 0)
(104.621 0 0)
(104.878 0 0)
(105.133 0 0)
(105.388 0 0)
(105.641 0 0)
(105.892 0 0)
(106.142 0 0)
(106.391 0 0)
(106.639 0 0)
(106.885 0 0)
(107.13 0 0)
(107.373 0 0)
(107.615 0 0)
(107.856 0 0)
(108.095 0 0)
(108.332 0 0)
(108.568 0 0)
(108.803 0 0)
(109.035 0 0)
(109.267 0 0)
(109.496 0 0)
(109.724 0 0)
(109.951 0 0)
(110.176 0 0)
(110.399 0 0)
(110.62 0 0)
(110.84 0 0)
(111.058 0 0)
(111.274 0 0)
(111.489 0 0)
(111.702 0 0)
(111.913 0 0)
(112.122 0 0)
(112.33 0 0)
(112.536 0 0)
(112.74 0 0)
(112.942 0 0)
(113.143 0 0)
(113.342 0 0)
(113.54 0 0)
(113.735 0 0)
(113.929 0 0)
(114.121 0 0)
(114.312 0 0)
(114.5 0 0)
(114.688 0 0)
(114.873 0 0)
(115.057 0 0)
(115.24 0 0)
(115.42 0 0)
(115.6 0 0)
(115.777 0 0)
(115.954 0 0)
(116.129 0 0)
(116.302 0 0)
(116.474 0 0)
(116.645 0 0)
(116.814 0 0)
(116.982 0 0)
(117.149 0 0)
(117.315 0 0)
(117.479 0 0)
(117.643 0 0)
(117.805 0 0)
(117.966 0 0)
(118.126 0 0)
(118.286 0 0)
(118.444 0 0)
(118.601 0 0)
(118.758 0 0)
(118.914 0 0)
(119.069 0 0)
(119.223 0 0)
(119.377 0 0)
(119.53 0 0)
(119.682 0 0)
(119.834 0 0)
(119.985 0 0)
(120.135 0 0)
(120.286 0 0)
(120.435 0 0)
(120.585 0 0)
(120.734 0 0)
(120.882 0 0)
(121.03 0 0)
(121.178 0 0)
(121.326 0 0)
(121.473 0 0)
(121.62 0 0)
(121.767 0 0)
(121.914 0 0)
(122.06 0 0)
(122.207 0 0)
(122.353 0 0)
(122.499 0 0)
(122.645 0 0)
(122.791 0 0)
(122.937 0 0)
(123.082 0 0)
(123.228 0 0)
(123.373 0 0)
(123.519 0 0)
(123.664 0 0)
(123.81 0 0)
(123.955 0 0)
(124.101 0 0)
(124.246 0 0)
(124.391 0 0)
(124.537 0 0)
(124.682 0 0)
(124.828 0 0)
(124.973 0 0)
(125.118 0 0)
(125.264 0 0)
(125.409 0 0)
(125.555 0 0)
(125.7 0 0)
(125.846 0 0)
(125.992 0 0)
(126.137 0 0)
(126.283 0 0)
(126.429 0 0)
(126.574 0 0)
(126.72 0 0)
(126.866 0 0)
(127.012 0 0)
(127.158 0 0)
(127.303 0 0)
(127.449 0 0)
(127.595 0 0)
(127.742 0 0)
(127.888 0 0)
(128.034 0 0)
(128.18 0 0)
(128.326 0 0)
(128.473 0 0)
(128.619 0 0)
(128.765 0 0)
(128.912 0 0)
(129.058 0 0)
(129.205 0 0)
(129.351 0 0)
(129.498 0 0)
(129.645 0 0)
(129.791 0 0)
(129.938 0 0)
(130.085 0 0)
(130.232 0 0)
(130.379 0 0)
(130.526 0 0)
(130.673 0 0)
(130.82 0 0)
(130.967 0 0)
(131.114 0 0)
(131.261 0 0)
(131.408 0 0)
(131.556 0 0)
(131.703 0 0)
(131.85 0 0)
(131.998 0 0)
(132.145 0 0)
(132.293 0 0)
(132.44 0 0)
(132.588 0 0)
(132.736 0 0)
(132.883 0 0)
(133.031 0 0)
(133.179 0 0)
(133.327 0 0)
(133.475 0 0)
(133.623 0 0)
(133.771 0 0)
(133.919 0 0)
(134.067 0 0)
(134.215 0 0)
(134.363 0 0)
(134.511 0 0)
(134.66 0 0)
(134.808 0 0)
(134.956 0 0)
(135.105 0 0)
(135.253 0 0)
(135.402 0 0)
(135.55 0 0)
(135.699 0 0)
(135.848 0 0)
(135.996 0 0)
(136.145 0 0)
(136.294 0 0)
(136.443 0 0)
(136.592 0 0)
(136.741 0 0)
(136.89 0 0)
(137.039 0 0)
(137.188 0 0)
(137.337 0 0)
(137.486 0 0)
(137.635 0 0)
(137.784 0 0)
(137.934 0 0)
(138.083 0 0)
(138.232 0 0)
(138.382 0 0)
(138.531 0 0)
(138.681 0 0)
(138.83 0 0)
(138.98 0 0)
(139.129 0 0)
(139.279 0 0)
(139.429 0 0)
(139.579 0 0)
(139.728 0 0)
(139.878 0 0)
(140.028 0 0)
(140.178 0 0)
(140.328 0 0)
(140.478 0 0)
(140.628 0 0)
(140.778 0 0)
(140.928 0 0)
(141.078 0 0)
(141.229 0 0)
(141.379 0 0)
(141.529 0 0)
(141.68 0 0)
(141.83 0 0)
(141.98 0 0)
(142.131 0 0)
(142.281 0 0)
(142.432 0 0)
(142.582 0 0)
(142.733 0 0)
(142.884 0 0)
(143.034 0 0)
(143.185 0 0)
(143.336 0 0)
(143.487 0 0)
(143.638 0 0)
(143.788 0 0)
(143.939 0 0)
(144.09 0 0)
(144.241 0 0)
(144.392 0 0)
(144.544 0 0)
(144.695 0 0)
(144.846 0 0)
(144.997 0 0)
(145.148 0 0)
(145.3 0 0)
(145.451 0 0)
(145.602 0 0)
(145.754 0 0)
(145.905 0 0)
(146.057 0 0)
(146.208 0 0)
(146.36 0 0)
(146.511 0 0)
(146.663 0 0)
(146.815 0 0)
(146.966 0 0)
(147.118 0 0)
(147.27 0 0)
(147.422 0 0)
(147.574 0 0)
(147.726 0 0)
(147.878 0 0)
(148.03 0 0)
(148.182 0 0)
(148.334 0 0)
(148.486 0 0)
(148.638 0 0)
(148.79 0 0)
(148.942 0 0)
(149.095 0 0)
(149.247 0 0)
(149.399 0 0)
(149.552 0 0)
(149.704 0 0)
(149.857 0 0)
(150.009 0 0)
(150.162 0 0)
(150.314 0 0)
(150.467 0 0)
(150.62 0 0)
(150.772 0 0)
(150.925 0 0)
(151.078 0 0)
(151.231 0 0)
(151.383 0 0)
(151.536 0 0)
(151.689 0 0)
(151.842 0 0)
(151.995 0 0)
(152.148 0 0)
(152.301 0 0)
(152.455 0 0)
(152.608 0 0)
(152.761 0 0)
(152.914 0 0)
(153.067 0 0)
(153.221 0 0)
(153.374 0 0)
(153.527 0 0)
(153.681 0 0)
(153.834 0 0)
(153.988 0 0)
(154.141 0 0)
(154.295 0 0)
(154.449 0 0)
(154.602 0 0)
(154.756 0 0)
(154.91 0 0)
(155.064 0 0)
(155.217 0 0)
(155.371 0 0)
(155.525 0 0)
(155.679 0 0)
(155.833 0 0)
(155.987 0 0)
(156.141 0 0)
(156.295 0 0)
(156.449 0 0)
(156.603 0 0)
(156.758 0 0)
(156.912 0 0)
(157.066 0 0)
(157.221 0 0)
(157.375 0 0)
(157.529 0 0)
(157.684 0 0)
(157.838 0 0)
(157.993 0 0)
(158.147 0 0)
(158.302 0 0)
(158.457 0 0)
(158.611 0 0)
(158.766 0 0)
(158.921 0 0)
(159.075 0 0)
(159.23 0 0)
(159.385 0 0)
(159.54 0 0)
(159.695 0 0)
(159.85 0 0)
(160.005 0 0)
(160.16 0 0)
(160.315 0 0)
(160.47 0 0)
(160.625 0 0)
(160.781 0 0)
(160.936 0 0)
(161.091 0 0)
(161.247 0 0)
(161.402 0 0)
(161.557 0 0)
(161.713 0 0)
(161.868 0 0)
(162.024 0 0)
(162.179 0 0)
(162.335 0 0)
(162.491 0 0)
(162.646 0 0)
(162.802 0 0)
(162.958 0 0)
(163.114 0 0)
(163.269 0 0)
(163.425 0 0)
(163.581 0 0)
(163.737 0 0)
(163.893 0 0)
(164.049 0 0)
(164.205 0 0)
(164.361 0 0)
(164.518 0 0)
(164.674 0 0)
(164.83 0 0)
(164.986 0 0)
(165.143 0 0)
(165.299 0 0)
(165.455 0 0)
(165.612 0 0)
(165.768 0 0)
(165.925 0 0)
(166.081 0 0)
(166.238 0 0)
(166.395 0 0)
(166.551 0 0)
(166.708 0 0)
(166.865 0 0)
(167.021 0 0)
(167.178 0 0)
(167.335 0 0)
(167.492 0 0)
(167.649 0 0)
(167.806 0 0)
(167.963 0 0)
(168.12 0 0)
(168.277 0 0)
(168.434 0 0)
(168.591 0 0)
(168.749 0 0)
(168.906 0 0)
(169.063 0 0)
(169.22 0 0)
(169.378 0 0)
(169.535 0 0)
(169.692 0 0)
(169.85 0 0)
(170.007 0 0)
(170.165 0 0)
(170.322 0 0)
(170.48 0 0)
(170.638 0 0)
(170.795 0 0)
(170.953 0 0)
(171.111 0 0)
(171.268 0 0)
(171.426 0 0)
(171.584 0 0)
(171.742 0 0)
(171.899 0 0)
(172.057 0 0)
(172.215 0 0)
(172.373 0 0)
(172.531 0 0)
(172.689 0 0)
(172.847 0 0)
(173.005 0 0)
(173.163 0 0)
(173.321 0 0)
(173.479 0 0)
(173.637 0 0)
(173.794 0 0)
(173.952 0 0)
(174.11 0 0)
(174.268 0 0)
(174.426 0 0)
(174.584 0 0)
(174.742 0 0)
(174.9 0 0)
(175.058 0 0)
(175.216 0 0)
(175.374 0 0)
(175.531 0 0)
(175.689 0 0)
(175.847 0 0)
(176.004 0 0)
(176.162 0 0)
(176.319 0 0)
(176.477 0 0)
(176.634 0 0)
(176.791 0 0)
(176.948 0 0)
(177.106 0 0)
(177.263 0 0)
(177.419 0 0)
(177.576 0 0)
(177.733 0 0)
(177.889 0 0)
(178.045 0 0)
(178.201 0 0)
(178.357 0 0)
(178.513 0 0)
(178.669 0 0)
(178.824 0 0)
(178.979 0 0)
(179.134 0 0)
(179.289 0 0)
(179.443 0 0)
(179.597 0 0)
(179.751 0 0)
(179.904 0 0)
(180.058 0 0)
(180.21 0 0)
(180.363 0 0)
(180.515 0 0)
(180.667 0 0)
(180.818 0 0)
(180.969 0 0)
(181.119 0 0)
(181.269 0 0)
(181.419 0 0)
(181.568 0 0)
(181.716 0 0)
(181.864 0 0)
(182.012 0 0)
(182.158 0 0)
(182.305 0 0)
(182.45 0 0)
(182.595 0 0)
(182.739 0 0)
(182.883 0 0)
(183.025 0 0)
(183.167 0 0)
(183.309 0 0)
(183.449 0 0)
(183.589 0 0)
(183.727 0 0)
(183.865 0 0)
(184.002 0 0)
(184.139 0 0)
(184.274 0 0)
(184.408 0 0)
(184.541 0 0)
(184.674 0 0)
(184.805 0 0)
(184.935 0 0)
(185.065 0 0)
(185.193 0 0)
(185.32 0 0)
(185.446 0 0)
(185.571 0 0)
(185.695 0 0)
(185.817 0 0)
(185.939 0 0)
(186.059 0 0)
(186.178 0 0)
(186.296 0 0)
(186.413 0 0)
(186.529 0 0)
(186.644 0 0)
(186.757 0 0)
(186.869 0 0)
(186.98 0 0)
(187.09 0 0)
(187.199 0 0)
(187.306 0 0)
(187.413 0 0)
(187.518 0 0)
(187.622 0 0)
(187.726 0 0)
(187.828 0 0)
(187.929 0 0)
(188.029 0 0)
(188.128 0 0)
(188.226 0 0)
(188.324 0 0)
(188.42 0 0)
(188.516 0 0)
(188.611 0 0)
(188.705 0 0)
(188.798 0 0)
(188.891 0 0)
(188.983 0 0)
(189.075 0 0)
(189.166 0 0)
(189.257 0 0)
(189.347 0 0)
(189.437 0 0)
(189.527 0 0)
(189.617 0 0)
(189.706 0 0)
(189.795 0 0)
(189.885 0 0)
(189.974 0 0)
(190.064 0 0)
(190.153 0 0)
(190.243 0 0)
(190.334 0 0)
(190.424 0 0)
(190.515 0 0)
(190.607 0 0)
(190.699 0 0)
(190.791 0 0)
(190.884 0 0)
(190.978 0 0)
(191.073 0 0)
(191.168 0 0)
(191.265 0 0)
(191.362 0 0)
(191.46 0 0)
(191.559 0 0)
(191.659 0 0)
(191.761 0 0)
(191.863 0 0)
(191.966 0 0)
(192.071 0 0)
(192.177 0 0)
(192.284 0 0)
(192.392 0 0)
(192.502 0 0)
(192.613 0 0)
(192.725 0 0)
(192.838 0 0)
(192.953 0 0)
(193.069 0 0)
(193.186 0 0)
(193.305 0 0)
(193.425 0 0)
(193.547 0 0)
(193.669 0 0)
(193.793 0 0)
(193.919 0 0)
(194.045 0 0)
(194.173 0 0)
(194.302 0 0)
(194.433 0 0)
(194.564 0 0)
(194.697 0 0)
(194.831 0 0)
(194.966 0 0)
(195.103 0 0)
(195.24 0 0)
(195.379 0 0)
(195.519 0 0)
(195.66 0 0)
(195.802 0 0)
(195.945 0 0)
(196.089 0 0)
(196.234 0 0)
(196.379 0 0)
(196.526 0 0)
(196.674 0 0)
(196.823 0 0)
(196.972 0 0)
(197.122 0 0)
(197.273 0 0)
(197.425 0 0)
(197.578 0 0)
(197.731 0 0)
(197.885 0 0)
(198.04 0 0)
(198.195 0 0)
(198.351 0 0)
(198.508 0 0)
(198.665 0 0)
(198.823 0 0)
(198.981 0 0)
(199.14 0 0)
(199.299 0 0)
(199.459 0 0)
(199.619 0 0)
(199.78 0 0)
(199.941 0 0)
(200.103 0 0)
(200.265 0 0)
(200.427 0 0)
(200.59 0 0)
(200.753 0 0)
(200.916 0 0)
(201.08 0 0)
(201.244 0 0)
(201.408 0 0)
(201.573 0 0)
(201.737 0 0)
(201.902 0 0)
(202.067 0 0)
(202.232 0 0)
(202.397 0 0)
(202.561 0 0)
(202.726 0 0)
(202.89 0 0)
(203.054 0 0)
(203.218 0 0)
(203.381 0 0)
(203.543 0 0)
(203.704 0 0)
(203.864 0 0)
(204.023 0 0)
(204.18 0 0)
(204.335 0 0)
(204.488 0 0)
(204.639 0 0)
(204.788 0 0)
(204.933 0 0)
(205.076 0 0)
(205.215 0 0)
(205.35 0 0)
(205.482 0 0)
(205.61 0 0)
(205.733 0 0)
(205.852 0 0)
(205.967 0 0)
(206.077 0 0)
(206.183 0 0)
(206.285 0 0)
(206.382 0 0)
(206.476 0 0)
(206.565 0 0)
(206.651 0 0)
(206.735 0 0)
(206.815 0 0)
(206.893 0 0)
(206.969 0 0)
(207.044 0 0)
(207.117 0 0)
(207.19 0 0)
(207.263 0 0)
(207.336 0 0)
(207.41 0 0)
(207.484 0 0)
(207.56 0 0)
(207.637 0 0)
(207.716 0 0)
(207.797 0 0)
(207.88 0 0)
(207.965 0 0)
(208.052 0 0)
(208.141 0 0)
(208.232 0 0)
(208.326 0 0)
(208.422 0 0)
(208.52 0 0)
(208.62 0 0)
(208.722 0 0)
(208.826 0 0)
(208.932 0 0)
(209.04 0 0)
(209.15 0 0)
(209.261 0 0)
(209.375 0 0)
(209.49 0 0)
(209.606 0 0)
(209.724 0 0)
(209.844 0 0)
(209.966 0 0)
(210.088 0 0)
(210.213 0 0)
(210.34 0 0)
(210.471 0 0)
(210.758 0 0)
)
;

boundaryField
{
    sides
    {
        type            zeroGradient;
    }
    empty
    {
        type            empty;
    }
}


// ************************************************************************* //
