/*--------------------------------*- C++ -*----------------------------------*\
  =========                 |
  \\      /  F ield         | OpenFOAM: The Open Source CFD Toolbox
   \\    /   O peration     | Website:  https://openfoam.org
    \\  /    A nd           | Version:  9
     \\/     M anipulation  |
\*---------------------------------------------------------------------------*/
FoamFile
{
    format      ascii;
    class       volVectorField;
    location    "0.038";
    object      U_0;
}
// * * * * * * * * * * * * * * * * * * * * * * * * * * * * * * * * * * * * * //

dimensions      [0 1 -1 0 0 0 0];

internalField   nonuniform List<vector> 
1000
(
(19.6508 0 0)
(19.985 0 0)
(20.41 0 0)
(20.7536 0 0)
(21.0557 0 0)
(21.3576 0 0)
(21.6672 0 0)
(21.9801 0 0)
(22.2927 0 0)
(22.6046 0 0)
(22.9163 0 0)
(23.2281 0 0)
(23.54 0 0)
(23.8519 0 0)
(24.1637 0 0)
(24.4756 0 0)
(24.7875 0 0)
(25.0995 0 0)
(25.4115 0 0)
(25.7235 0 0)
(26.0355 0 0)
(26.3475 0 0)
(26.6595 0 0)
(26.9714 0 0)
(27.2835 0 0)
(27.5955 0 0)
(27.9076 0 0)
(28.2198 0 0)
(28.5319 0 0)
(28.8441 0 0)
(29.1563 0 0)
(29.4685 0 0)
(29.7806 0 0)
(30.0927 0 0)
(30.4049 0 0)
(30.717 0 0)
(31.0292 0 0)
(31.3414 0 0)
(31.6536 0 0)
(31.9659 0 0)
(32.2783 0 0)
(32.5906 0 0)
(32.903 0 0)
(33.2153 0 0)
(33.5277 0 0)
(33.8401 0 0)
(34.1525 0 0)
(34.4648 0 0)
(34.7772 0 0)
(35.0895 0 0)
(35.4019 0 0)
(35.7143 0 0)
(36.0266 0 0)
(36.339 0 0)
(36.6514 0 0)
(36.9638 0 0)
(37.2763 0 0)
(37.5888 0 0)
(37.9011 0 0)
(38.2136 0 0)
(38.526 0 0)
(38.8384 0 0)
(39.1508 0 0)
(39.4632 0 0)
(39.7757 0 0)
(40.0881 0 0)
(40.4005 0 0)
(40.713 0 0)
(41.0254 0 0)
(41.3378 0 0)
(41.6503 0 0)
(41.9627 0 0)
(42.2752 0 0)
(42.5876 0 0)
(42.9 0 0)
(43.2125 0 0)
(43.5249 0 0)
(43.8373 0 0)
(44.1498 0 0)
(44.4621 0 0)
(44.7746 0 0)
(45.087 0 0)
(45.3994 0 0)
(45.7118 0 0)
(46.0242 0 0)
(46.3365 0 0)
(46.6489 0 0)
(46.9613 0 0)
(47.2737 0 0)
(47.586 0 0)
(47.8984 0 0)
(48.2107 0 0)
(48.523 0 0)
(48.8354 0 0)
(49.1477 0 0)
(49.4599 0 0)
(49.7722 0 0)
(50.0845 0 0)
(50.3967 0 0)
(50.709 0 0)
(51.0212 0 0)
(51.3334 0 0)
(51.6456 0 0)
(51.9578 0 0)
(52.2699 0 0)
(52.582 0 0)
(52.8941 0 0)
(53.2063 0 0)
(53.5183 0 0)
(53.8303 0 0)
(54.1424 0 0)
(54.4544 0 0)
(54.7664 0 0)
(55.0783 0 0)
(55.3903 0 0)
(55.7022 0 0)
(56.014 0 0)
(56.3259 0 0)
(56.6377 0 0)
(56.9495 0 0)
(57.2612 0 0)
(57.5729 0 0)
(57.8847 0 0)
(58.1963 0 0)
(58.5079 0 0)
(58.8195 0 0)
(59.1311 0 0)
(59.4425 0 0)
(59.754 0 0)
(60.0655 0 0)
(60.3768 0 0)
(60.6882 0 0)
(60.9995 0 0)
(61.3107 0 0)
(61.622 0 0)
(61.9331 0 0)
(62.2442 0 0)
(62.5553 0 0)
(62.8663 0 0)
(63.1773 0 0)
(63.4882 0 0)
(63.7991 0 0)
(64.1099 0 0)
(64.4206 0 0)
(64.7312 0 0)
(65.0419 0 0)
(65.3525 0 0)
(65.6629 0 0)
(65.9734 0 0)
(66.2838 0 0)
(66.5941 0 0)
(66.9043 0 0)
(67.2144 0 0)
(67.5245 0 0)
(67.8346 0 0)
(68.1445 0 0)
(68.4543 0 0)
(68.7641 0 0)
(69.0738 0 0)
(69.3834 0 0)
(69.6929 0 0)
(70.0024 0 0)
(70.3117 0 0)
(70.621 0 0)
(70.9302 0 0)
(71.2392 0 0)
(71.5482 0 0)
(71.8571 0 0)
(72.1659 0 0)
(72.4745 0 0)
(72.783 0 0)
(73.0915 0 0)
(73.3999 0 0)
(73.708 0 0)
(74.0161 0 0)
(74.3241 0 0)
(74.632 0 0)
(74.9397 0 0)
(75.2473 0 0)
(75.5548 0 0)
(75.8621 0 0)
(76.1694 0 0)
(76.4764 0 0)
(76.7833 0 0)
(77.0901 0 0)
(77.3967 0 0)
(77.7032 0 0)
(78.0095 0 0)
(78.3156 0 0)
(78.6216 0 0)
(78.9274 0 0)
(79.2331 0 0)
(79.5385 0 0)
(79.8438 0 0)
(80.1489 0 0)
(80.4539 0 0)
(80.7586 0 0)
(81.0631 0 0)
(81.3674 0 0)
(81.6716 0 0)
(81.9755 0 0)
(82.2792 0 0)
(82.5827 0 0)
(82.8859 0 0)
(83.1889 0 0)
(83.4918 0 0)
(83.7943 0 0)
(84.0966 0 0)
(84.3986 0 0)
(84.7005 0 0)
(85.002 0 0)
(85.3033 0 0)
(85.6042 0 0)
(85.905 0 0)
(86.2054 0 0)
(86.5055 0 0)
(86.8054 0 0)
(87.1049 0 0)
(87.404 0 0)
(87.7029 0 0)
(88.0014 0 0)
(88.2997 0 0)
(88.5975 0 0)
(88.895 0 0)
(89.1921 0 0)
(89.4889 0 0)
(89.7852 0 0)
(90.0812 0 0)
(90.3768 0 0)
(90.672 0 0)
(90.9667 0 0)
(91.2609 0 0)
(91.5549 0 0)
(91.8484 0 0)
(92.1413 0 0)
(92.4338 0 0)
(92.7258 0 0)
(93.0174 0 0)
(93.3086 0 0)
(93.5992 0 0)
(93.8893 0 0)
(94.1787 0 0)
(94.4677 0 0)
(94.7563 0 0)
(95.0444 0 0)
(95.3318 0 0)
(95.6187 0 0)
(95.9049 0 0)
(96.1906 0 0)
(96.4759 0 0)
(96.7606 0 0)
(97.0447 0 0)
(97.3284 0 0)
(97.6116 0 0)
(97.8947 0 0)
(98.1773 0 0)
(98.4589 0 0)
(98.7393 0 0)
(99.0183 0 0)
(99.296 0 0)
(99.5728 0 0)
(99.8487 0 0)
(100.124 0 0)
(100.398 0 0)
(100.671 0 0)
(100.944 0 0)
(101.215 0 0)
(101.486 0 0)
(101.756 0 0)
(102.024 0 0)
(102.292 0 0)
(102.559 0 0)
(102.825 0 0)
(103.09 0 0)
(103.354 0 0)
(103.616 0 0)
(103.878 0 0)
(104.138 0 0)
(104.398 0 0)
(104.656 0 0)
(104.913 0 0)
(105.169 0 0)
(105.423 0 0)
(105.676 0 0)
(105.928 0 0)
(106.179 0 0)
(106.428 0 0)
(106.676 0 0)
(106.922 0 0)
(107.168 0 0)
(107.411 0 0)
(107.653 0 0)
(107.894 0 0)
(108.134 0 0)
(108.371 0 0)
(108.608 0 0)
(108.842 0 0)
(109.076 0 0)
(109.307 0 0)
(109.537 0 0)
(109.766 0 0)
(109.992 0 0)
(110.217 0 0)
(110.441 0 0)
(110.663 0 0)
(110.883 0 0)
(111.101 0 0)
(111.318 0 0)
(111.533 0 0)
(111.746 0 0)
(111.957 0 0)
(112.167 0 0)
(112.375 0 0)
(112.582 0 0)
(112.786 0 0)
(112.989 0 0)
(113.19 0 0)
(113.389 0 0)
(113.587 0 0)
(113.783 0 0)
(113.977 0 0)
(114.17 0 0)
(114.361 0 0)
(114.55 0 0)
(114.737 0 0)
(114.923 0 0)
(115.107 0 0)
(115.29 0 0)
(115.471 0 0)
(115.651 0 0)
(115.829 0 0)
(116.005 0 0)
(116.181 0 0)
(116.354 0 0)
(116.527 0 0)
(116.698 0 0)
(116.867 0 0)
(117.036 0 0)
(117.203 0 0)
(117.369 0 0)
(117.533 0 0)
(117.697 0 0)
(117.86 0 0)
(118.021 0 0)
(118.181 0 0)
(118.341 0 0)
(118.499 0 0)
(118.657 0 0)
(118.814 0 0)
(118.97 0 0)
(119.125 0 0)
(119.279 0 0)
(119.433 0 0)
(119.586 0 0)
(119.739 0 0)
(119.891 0 0)
(120.042 0 0)
(120.193 0 0)
(120.343 0 0)
(120.493 0 0)
(120.642 0 0)
(120.791 0 0)
(120.94 0 0)
(121.088 0 0)
(121.236 0 0)
(121.384 0 0)
(121.531 0 0)
(121.678 0 0)
(121.825 0 0)
(121.972 0 0)
(122.119 0 0)
(122.265 0 0)
(122.411 0 0)
(122.558 0 0)
(122.704 0 0)
(122.85 0 0)
(122.995 0 0)
(123.141 0 0)
(123.287 0 0)
(123.432 0 0)
(123.578 0 0)
(123.723 0 0)
(123.869 0 0)
(124.014 0 0)
(124.16 0 0)
(124.305 0 0)
(124.451 0 0)
(124.596 0 0)
(124.742 0 0)
(124.887 0 0)
(125.033 0 0)
(125.178 0 0)
(125.324 0 0)
(125.469 0 0)
(125.615 0 0)
(125.76 0 0)
(125.906 0 0)
(126.051 0 0)
(126.197 0 0)
(126.343 0 0)
(126.488 0 0)
(126.634 0 0)
(126.78 0 0)
(126.926 0 0)
(127.072 0 0)
(127.218 0 0)
(127.364 0 0)
(127.51 0 0)
(127.656 0 0)
(127.802 0 0)
(127.948 0 0)
(128.094 0 0)
(128.24 0 0)
(128.387 0 0)
(128.533 0 0)
(128.679 0 0)
(128.826 0 0)
(128.972 0 0)
(129.119 0 0)
(129.265 0 0)
(129.412 0 0)
(129.559 0 0)
(129.705 0 0)
(129.852 0 0)
(129.999 0 0)
(130.146 0 0)
(130.293 0 0)
(130.44 0 0)
(130.587 0 0)
(130.734 0 0)
(130.881 0 0)
(131.028 0 0)
(131.175 0 0)
(131.322 0 0)
(131.47 0 0)
(131.617 0 0)
(131.764 0 0)
(131.912 0 0)
(132.059 0 0)
(132.207 0 0)
(132.354 0 0)
(132.502 0 0)
(132.65 0 0)
(132.797 0 0)
(132.945 0 0)
(133.093 0 0)
(133.241 0 0)
(133.389 0 0)
(133.537 0 0)
(133.685 0 0)
(133.833 0 0)
(133.981 0 0)
(134.129 0 0)
(134.277 0 0)
(134.425 0 0)
(134.574 0 0)
(134.722 0 0)
(134.87 0 0)
(135.019 0 0)
(135.167 0 0)
(135.316 0 0)
(135.464 0 0)
(135.613 0 0)
(135.762 0 0)
(135.91 0 0)
(136.059 0 0)
(136.208 0 0)
(136.357 0 0)
(136.506 0 0)
(136.654 0 0)
(136.803 0 0)
(136.952 0 0)
(137.102 0 0)
(137.251 0 0)
(137.4 0 0)
(137.549 0 0)
(137.698 0 0)
(137.848 0 0)
(137.997 0 0)
(138.146 0 0)
(138.296 0 0)
(138.445 0 0)
(138.595 0 0)
(138.744 0 0)
(138.894 0 0)
(139.043 0 0)
(139.193 0 0)
(139.343 0 0)
(139.493 0 0)
(139.642 0 0)
(139.792 0 0)
(139.942 0 0)
(140.092 0 0)
(140.242 0 0)
(140.392 0 0)
(140.542 0 0)
(140.692 0 0)
(140.842 0 0)
(140.992 0 0)
(141.143 0 0)
(141.293 0 0)
(141.443 0 0)
(141.593 0 0)
(141.744 0 0)
(141.894 0 0)
(142.045 0 0)
(142.195 0 0)
(142.346 0 0)
(142.496 0 0)
(142.647 0 0)
(142.798 0 0)
(142.948 0 0)
(143.099 0 0)
(143.25 0 0)
(143.401 0 0)
(143.552 0 0)
(143.702 0 0)
(143.853 0 0)
(144.004 0 0)
(144.155 0 0)
(144.306 0 0)
(144.458 0 0)
(144.609 0 0)
(144.76 0 0)
(144.911 0 0)
(145.062 0 0)
(145.214 0 0)
(145.365 0 0)
(145.516 0 0)
(145.668 0 0)
(145.819 0 0)
(145.971 0 0)
(146.122 0 0)
(146.274 0 0)
(146.425 0 0)
(146.577 0 0)
(146.729 0 0)
(146.881 0 0)
(147.032 0 0)
(147.184 0 0)
(147.336 0 0)
(147.488 0 0)
(147.64 0 0)
(147.792 0 0)
(147.944 0 0)
(148.096 0 0)
(148.248 0 0)
(148.4 0 0)
(148.552 0 0)
(148.704 0 0)
(148.857 0 0)
(149.009 0 0)
(149.161 0 0)
(149.314 0 0)
(149.466 0 0)
(149.618 0 0)
(149.771 0 0)
(149.923 0 0)
(150.076 0 0)
(150.228 0 0)
(150.381 0 0)
(150.534 0 0)
(150.686 0 0)
(150.839 0 0)
(150.992 0 0)
(151.145 0 0)
(151.298 0 0)
(151.451 0 0)
(151.604 0 0)
(151.757 0 0)
(151.91 0 0)
(152.063 0 0)
(152.216 0 0)
(152.369 0 0)
(152.522 0 0)
(152.675 0 0)
(152.828 0 0)
(152.982 0 0)
(153.135 0 0)
(153.288 0 0)
(153.442 0 0)
(153.595 0 0)
(153.749 0 0)
(153.902 0 0)
(154.056 0 0)
(154.209 0 0)
(154.363 0 0)
(154.517 0 0)
(154.67 0 0)
(154.824 0 0)
(154.978 0 0)
(155.132 0 0)
(155.286 0 0)
(155.44 0 0)
(155.594 0 0)
(155.747 0 0)
(155.902 0 0)
(156.056 0 0)
(156.21 0 0)
(156.364 0 0)
(156.518 0 0)
(156.672 0 0)
(156.826 0 0)
(156.981 0 0)
(157.135 0 0)
(157.289 0 0)
(157.444 0 0)
(157.598 0 0)
(157.753 0 0)
(157.907 0 0)
(158.062 0 0)
(158.216 0 0)
(158.371 0 0)
(158.526 0 0)
(158.681 0 0)
(158.835 0 0)
(158.99 0 0)
(159.145 0 0)
(159.3 0 0)
(159.455 0 0)
(159.61 0 0)
(159.765 0 0)
(159.92 0 0)
(160.075 0 0)
(160.23 0 0)
(160.385 0 0)
(160.54 0 0)
(160.695 0 0)
(160.851 0 0)
(161.006 0 0)
(161.161 0 0)
(161.317 0 0)
(161.472 0 0)
(161.628 0 0)
(161.783 0 0)
(161.939 0 0)
(162.094 0 0)
(162.25 0 0)
(162.405 0 0)
(162.561 0 0)
(162.717 0 0)
(162.873 0 0)
(163.028 0 0)
(163.184 0 0)
(163.34 0 0)
(163.496 0 0)
(163.652 0 0)
(163.808 0 0)
(163.964 0 0)
(164.12 0 0)
(164.276 0 0)
(164.433 0 0)
(164.589 0 0)
(164.745 0 0)
(164.901 0 0)
(165.058 0 0)
(165.214 0 0)
(165.37 0 0)
(165.527 0 0)
(165.683 0 0)
(165.84 0 0)
(165.996 0 0)
(166.153 0 0)
(166.31 0 0)
(166.466 0 0)
(166.623 0 0)
(166.78 0 0)
(166.936 0 0)
(167.093 0 0)
(167.25 0 0)
(167.407 0 0)
(167.564 0 0)
(167.721 0 0)
(167.878 0 0)
(168.035 0 0)
(168.192 0 0)
(168.349 0 0)
(168.506 0 0)
(168.664 0 0)
(168.821 0 0)
(168.978 0 0)
(169.136 0 0)
(169.293 0 0)
(169.45 0 0)
(169.608 0 0)
(169.765 0 0)
(169.923 0 0)
(170.08 0 0)
(170.238 0 0)
(170.395 0 0)
(170.553 0 0)
(170.711 0 0)
(170.868 0 0)
(171.026 0 0)
(171.184 0 0)
(171.341 0 0)
(171.499 0 0)
(171.657 0 0)
(171.815 0 0)
(171.973 0 0)
(172.131 0 0)
(172.289 0 0)
(172.447 0 0)
(172.604 0 0)
(172.762 0 0)
(172.92 0 0)
(173.078 0 0)
(173.236 0 0)
(173.394 0 0)
(173.552 0 0)
(173.71 0 0)
(173.868 0 0)
(174.026 0 0)
(174.184 0 0)
(174.342 0 0)
(174.5 0 0)
(174.658 0 0)
(174.816 0 0)
(174.974 0 0)
(175.132 0 0)
(175.29 0 0)
(175.448 0 0)
(175.606 0 0)
(175.764 0 0)
(175.921 0 0)
(176.079 0 0)
(176.237 0 0)
(176.394 0 0)
(176.552 0 0)
(176.709 0 0)
(176.866 0 0)
(177.024 0 0)
(177.181 0 0)
(177.338 0 0)
(177.495 0 0)
(177.651 0 0)
(177.808 0 0)
(177.965 0 0)
(178.121 0 0)
(178.277 0 0)
(178.433 0 0)
(178.589 0 0)
(178.745 0 0)
(178.9 0 0)
(179.055 0 0)
(179.21 0 0)
(179.365 0 0)
(179.519 0 0)
(179.674 0 0)
(179.827 0 0)
(179.981 0 0)
(180.134 0 0)
(180.287 0 0)
(180.44 0 0)
(180.592 0 0)
(180.744 0 0)
(180.895 0 0)
(181.046 0 0)
(181.197 0 0)
(181.347 0 0)
(181.496 0 0)
(181.646 0 0)
(181.794 0 0)
(181.942 0 0)
(182.09 0 0)
(182.237 0 0)
(182.383 0 0)
(182.528 0 0)
(182.673 0 0)
(182.818 0 0)
(182.961 0 0)
(183.104 0 0)
(183.246 0 0)
(183.388 0 0)
(183.528 0 0)
(183.668 0 0)
(183.807 0 0)
(183.945 0 0)
(184.082 0 0)
(184.219 0 0)
(184.354 0 0)
(184.489 0 0)
(184.622 0 0)
(184.754 0 0)
(184.886 0 0)
(185.016 0 0)
(185.146 0 0)
(185.274 0 0)
(185.401 0 0)
(185.528 0 0)
(185.653 0 0)
(185.777 0 0)
(185.9 0 0)
(186.021 0 0)
(186.142 0 0)
(186.261 0 0)
(186.379 0 0)
(186.496 0 0)
(186.612 0 0)
(186.727 0 0)
(186.841 0 0)
(186.953 0 0)
(187.064 0 0)
(187.174 0 0)
(187.283 0 0)
(187.391 0 0)
(187.497 0 0)
(187.603 0 0)
(187.707 0 0)
(187.811 0 0)
(187.913 0 0)
(188.014 0 0)
(188.115 0 0)
(188.214 0 0)
(188.312 0 0)
(188.41 0 0)
(188.506 0 0)
(188.602 0 0)
(188.697 0 0)
(188.791 0 0)
(188.885 0 0)
(188.978 0 0)
(189.07 0 0)
(189.162 0 0)
(189.253 0 0)
(189.344 0 0)
(189.435 0 0)
(189.525 0 0)
(189.615 0 0)
(189.704 0 0)
(189.794 0 0)
(189.883 0 0)
(189.973 0 0)
(190.062 0 0)
(190.152 0 0)
(190.241 0 0)
(190.331 0 0)
(190.421 0 0)
(190.512 0 0)
(190.603 0 0)
(190.694 0 0)
(190.786 0 0)
(190.879 0 0)
(190.972 0 0)
(191.066 0 0)
(191.161 0 0)
(191.256 0 0)
(191.352 0 0)
(191.45 0 0)
(191.548 0 0)
(191.647 0 0)
(191.747 0 0)
(191.848 0 0)
(191.95 0 0)
(192.054 0 0)
(192.158 0 0)
(192.264 0 0)
(192.371 0 0)
(192.479 0 0)
(192.589 0 0)
(192.699 0 0)
(192.811 0 0)
(192.925 0 0)
(193.039 0 0)
(193.155 0 0)
(193.273 0 0)
(193.391 0 0)
(193.511 0 0)
(193.633 0 0)
(193.755 0 0)
(193.879 0 0)
(194.004 0 0)
(194.131 0 0)
(194.259 0 0)
(194.388 0 0)
(194.518 0 0)
(194.65 0 0)
(194.782 0 0)
(194.916 0 0)
(195.052 0 0)
(195.188 0 0)
(195.325 0 0)
(195.464 0 0)
(195.604 0 0)
(195.745 0 0)
(195.887 0 0)
(196.029 0 0)
(196.173 0 0)
(196.318 0 0)
(196.464 0 0)
(196.611 0 0)
(196.758 0 0)
(196.907 0 0)
(197.056 0 0)
(197.207 0 0)
(197.358 0 0)
(197.51 0 0)
(197.662 0 0)
(197.816 0 0)
(197.97 0 0)
(198.124 0 0)
(198.28 0 0)
(198.436 0 0)
(198.592 0 0)
(198.749 0 0)
(198.907 0 0)
(199.065 0 0)
(199.224 0 0)
(199.384 0 0)
(199.543 0 0)
(199.704 0 0)
(199.864 0 0)
(200.026 0 0)
(200.187 0 0)
(200.349 0 0)
(200.512 0 0)
(200.674 0 0)
(200.837 0 0)
(201.001 0 0)
(201.164 0 0)
(201.328 0 0)
(201.493 0 0)
(201.657 0 0)
(201.822 0 0)
(201.987 0 0)
(202.151 0 0)
(202.316 0 0)
(202.481 0 0)
(202.646 0 0)
(202.811 0 0)
(202.975 0 0)
(203.139 0 0)
(203.303 0 0)
(203.466 0 0)
(203.628 0 0)
(203.79 0 0)
(203.95 0 0)
(204.109 0 0)
(204.266 0 0)
(204.422 0 0)
(204.575 0 0)
(204.726 0 0)
(204.875 0 0)
(205.021 0 0)
(205.164 0 0)
(205.303 0 0)
(205.439 0 0)
(205.571 0 0)
(205.7 0 0)
(205.823 0 0)
(205.943 0 0)
(206.058 0 0)
(206.169 0 0)
(206.276 0 0)
(206.378 0 0)
(206.475 0 0)
(206.569 0 0)
(206.659 0 0)
(206.746 0 0)
(206.829 0 0)
(206.91 0 0)
(206.988 0 0)
(207.064 0 0)
(207.139 0 0)
(207.213 0 0)
(207.286 0 0)
(207.359 0 0)
(207.432 0 0)
(207.505 0 0)
(207.58 0 0)
(207.656 0 0)
(207.733 0 0)
(207.811 0 0)
(207.892 0 0)
(207.975 0 0)
(208.059 0 0)
(208.146 0 0)
(208.235 0 0)
(208.327 0 0)
(208.42 0 0)
(208.516 0 0)
(208.613 0 0)
(208.713 0 0)
(208.815 0 0)
(208.919 0 0)
(209.025 0 0)
(209.133 0 0)
(209.243 0 0)
(209.354 0 0)
(209.467 0 0)
(209.582 0 0)
(209.699 0 0)
(209.817 0 0)
(209.937 0 0)
(210.058 0 0)
(210.181 0 0)
(210.306 0 0)
(210.432 0 0)
(210.563 0 0)
(210.85 0 0)
)
;

boundaryField
{
    sides
    {
        type            zeroGradient;
    }
    empty
    {
        type            empty;
    }
}


// ************************************************************************* //
