/*--------------------------------*- C++ -*----------------------------------*\
  =========                 |
  \\      /  F ield         | OpenFOAM: The Open Source CFD Toolbox
   \\    /   O peration     | Website:  https://openfoam.org
    \\  /    A nd           | Version:  9
     \\/     M anipulation  |
\*---------------------------------------------------------------------------*/
FoamFile
{
    format      ascii;
    class       volScalarField;
    location    "0.047";
    object      T;
}
// * * * * * * * * * * * * * * * * * * * * * * * * * * * * * * * * * * * * * //

dimensions      [0 0 0 1 0 0 0];

internalField   nonuniform List<scalar> 
1000
(
177.338
177.335
177.331
177.328
177.327
177.326
177.324
177.323
177.321
177.32
177.318
177.317
177.316
177.315
177.313
177.312
177.311
177.31
177.309
177.309
177.308
177.307
177.307
177.306
177.305
177.305
177.305
177.305
177.305
177.306
177.307
177.309
177.31
177.312
177.315
177.317
177.32
177.323
177.326
177.329
177.332
177.335
177.338
177.342
177.345
177.349
177.353
177.357
177.361
177.364
177.368
177.371
177.374
177.377
177.381
177.384
177.387
177.391
177.395
177.398
177.402
177.406
177.409
177.413
177.416
177.42
177.424
177.428
177.433
177.438
177.444
177.449
177.454
177.458
177.461
177.464
177.467
177.469
177.472
177.474
177.476
177.478
177.48
177.481
177.483
177.484
177.485
177.486
177.487
177.489
177.49
177.492
177.494
177.497
177.5
177.504
177.509
177.514
177.519
177.524
177.529
177.534
177.539
177.545
177.551
177.557
177.563
177.569
177.576
177.582
177.588
177.594
177.6
177.605
177.611
177.617
177.623
177.63
177.637
177.644
177.652
177.661
177.67
177.68
177.691
177.702
177.713
177.723
177.734
177.745
177.756
177.767
177.777
177.786
177.796
177.807
177.82
177.836
177.857
177.884
177.916
177.952
177.989
178.027
178.065
178.106
178.154
178.215
178.162
177.949
177.914
178.143
178.233
178.083
177.977
178.112
178.253
178.194
178.09
178.124
178.231
178.257
178.275
178.293
178.311
178.33
178.348
178.367
178.386
178.405
178.425
178.444
178.464
178.485
178.505
178.525
178.546
178.567
178.589
178.61
178.632
178.654
178.675
178.698
178.72
178.743
178.766
178.789
178.813
178.836
178.86
178.884
178.909
178.934
178.96
178.985
179.009
179.034
179.059
179.083
179.107
179.131
179.156
179.18
179.204
179.229
179.253
179.278
179.304
179.331
179.36
179.391
179.424
179.457
179.491
179.526
179.561
179.596
179.632
179.668
179.704
179.741
179.776
179.812
179.847
179.882
179.916
179.95
179.984
180.017
180.05
180.082
180.115
180.147
180.18
180.213
180.247
180.281
180.316
180.352
180.389
180.427
180.466
180.509
180.556
180.608
180.67
180.733
180.558
180.428
180.378
180.416
180.734
180.817
180.87
180.927
180.994
180.914
180.738
180.705
180.722
180.865
180.902
180.923
180.94
180.938
180.923
181.029
181.074
181.091
181.085
181.086
181.192
181.221
181.218
181.21
181.324
181.361
181.365
181.341
181.446
181.504
181.513
181.479
181.57
181.661
181.672
181.614
181.704
181.845
181.851
181.751
181.84
182.044
182.033
181.882
181.952
182.204
182.197
182.048
182.067
182.222
182.249
182.223
182.176
182.252
182.348
182.339
182.272
182.506
182.62
182.494
182.377
182.543
182.79
182.855
182.91
182.97
183.036
182.919
182.772
182.745
182.826
182.9
182.848
182.878
183.157
183.16
182.982
182.924
183.148
183.297
183.347
183.389
183.429
183.468
183.507
183.546
183.583
183.621
183.66
183.699
183.739
183.78
183.824
183.869
183.918
183.973
184.04
184.093
183.883
183.782
183.745
183.84
183.98
184.013
183.933
183.924
184.253
184.369
184.407
184.163
184.084
184.042
184.095
184.34
184.404
184.435
184.32
184.264
184.541
184.631
184.445
184.345
184.667
184.852
184.717
184.513
184.452
184.813
185.013
184.949
184.688
184.648
184.967
185.099
185.162
185.225
185.297
185.265
185.049
185.024
185.079
185.082
185.031
185.369
185.526
185.612
185.643
185.332
185.207
185.367
185.66
185.659
185.433
185.427
185.736
185.786
185.604
185.546
185.816
185.937
185.987
186.033
186.078
186.124
186.171
186.22
186.271
186.327
186.391
186.464
186.47
186.223
186.168
186.151
186.31
186.381
186.349
186.269
186.618
186.814
186.802
186.485
186.384
186.478
186.881
186.963
186.742
186.583
186.785
187.072
187.057
186.797
186.774
187.16
187.264
187.063
186.927
186.876
187.297
187.499
187.428
187.162
187.072
187.263
187.644
187.709
187.441
187.293
187.352
187.793
187.897
187.678
187.492
187.543
187.977
188.076
187.85
187.673
187.8
188.191
188.244
187.978
187.847
188.121
188.405
188.375
188.102
188.06
188.463
188.615
188.451
188.249
188.372
188.752
188.794
188.538
188.422
188.735
188.988
188.936
188.685
188.625
189.027
189.222
189.125
188.889
188.87
189.244
189.339
189.215
189.139
189.213
189.337
189.379
189.398
189.373
189.495
189.615
189.656
189.681
189.662
189.72
189.887
189.934
189.961
189.947
189.986
190.154
190.197
190.203
190.188
190.36
190.435
190.455
190.429
190.556
190.678
190.709
190.692
190.75
190.925
190.967
190.968
190.966
191.164
191.231
191.248
191.221
191.387
191.503
191.534
191.51
191.604
191.783
191.827
191.823
191.836
192.06
192.128
192.144
192.116
192.314
192.437
192.47
192.443
192.552
192.754
192.802
192.8
192.811
193.067
193.146
193.167
193.135
193.352
193.503
193.543
193.52
193.626
193.87
193.93
193.936
193.935
194.225
194.33
194.362
194.328
194.54
194.739
194.791
194.781
194.848
195.15
195.228
195.249
195.223
195.511
195.665
195.711
195.687
195.817
196.094
196.161
196.175
196.154
196.459
196.596
196.638
196.615
196.721
197.011
197.082
197.109
197.07
197.309
197.517
197.579
197.603
197.567
197.847
198.042
198.11
198.15
198.127
198.253
198.573
198.664
198.723
198.762
198.736
198.892
199.167
199.237
199.261
199.228
199.496
199.664
199.71
199.687
199.802
200.061
200.118
200.103
200.183
200.452
200.511
200.498
200.562
200.828
200.886
200.87
200.947
201.197
201.248
201.226
201.327
201.555
201.601
201.575
201.693
201.907
201.952
201.927
202.033
202.26
202.312
202.306
202.33
202.596
202.673
202.695
202.661
202.871
203.025
203.068
203.057
203.094
203.353
203.425
203.454
203.42
203.568
203.761
203.814
203.833
203.797
203.994
204.149
204.199
204.222
204.184
204.339
204.524
204.581
204.616
204.613
204.603
204.848
204.942
204.986
205.008
204.974
205.093
205.262
205.305
205.313
205.292
205.478
205.564
205.583
205.555
205.698
205.808
205.832
205.806
205.927
206.044
206.067
206.038
206.135
206.242
206.263
206.238
206.284
206.411
206.438
206.434
206.41
206.541
206.596
206.616
206.595
206.591
206.732
206.765
206.784
206.777
206.733
206.842
206.911
206.934
206.962
206.954
206.903
206.993
207.07
207.068
207.064
207.082
207.026
207.051
207.213
207.22
207.212
207.162
207.142
207.197
207.299
207.285
207.211
207.226
207.38
207.384
207.362
207.24
207.284
207.474
207.466
207.373
207.322
207.417
207.551
207.577
207.441
207.352
207.552
207.72
207.697
207.499
207.441
207.731
207.884
207.827
207.591
207.533
207.865
208.042
207.997
207.714
207.636
207.94
208.155
208.18
207.871
207.746
207.934
208.217
208.296
208.068
207.865
207.88
208.26
208.392
208.451
208.114
207.928
208.15
208.498
208.504
208.101
207.961
208.267
208.602
208.619
208.184
208.023
208.265
208.652
208.667
208.235
208.072
208.284
208.715
208.814
208.402
208.144
208.203
208.705
208.815
208.407
208.162
208.276
208.758
208.826
208.376
208.171
208.297
208.794
208.905
208.478
208.21
208.223
208.751
208.904
208.527
208.227
208.25
208.77
208.901
208.485
208.211
208.267
208.788
208.903
208.465
208.203
208.22
208.765
208.923
208.549
208.228
208.155
208.665
208.926
208.73
208.289
208.157
208.48
208.902
208.926
208.407
208.22
208.257
208.829
208.998
208.638
208.283
208.168
208.601
208.951
208.908
208.372
208.205
208.318
208.872
209.001
208.558
208.259
208.176
208.695
208.978
208.801
208.311
208.168
208.44
208.915
208.973
208.441
208.219
208.199
208.786
209.002
208.705
208.29
208.156
208.521
208.948
208.953
208.403
208.219
208.217
208.82
209.024
208.71
208.319
208.182
208.389
208.941
209.05
208.582
208.333
208.207
208.418
208.967
209.079
208.64
208.396
208.287
208.227
208.806
209.075
208.899
208.453
208.342
208.223
208.562
209.037
209.096
208.569
208.368
208.243
208.449
209.013
209.119
208.649
208.405
208.287
208.298
208.936
209.154
208.91
208.398
208.259
208.637
209.066
208.995
208.45
208.334
208.8
209.075
208.731
208.381
208.534
209.028
208.976
208.448
208.325
208.814
209.109
208.797
208.392
208.248
208.565
209.084
209.163
208.604
208.352
208.23
208.7
209.118
209.118
208.517
208.326
208.243
208.833
209.15
209.034
208.453
208.294
208.292
208.951
209.174
208.869
208.392
208.235
208.408
209.034
209.158
208.663
208.337
208.194
208.399
208.966
209.078
208.532
208.312
208.402
208.477
)
;

boundaryField
{
    sides
    {
        type            zeroGradient;
    }
    empty
    {
        type            empty;
    }
}


// ************************************************************************* //
