/*--------------------------------*- C++ -*----------------------------------*\
  =========                 |
  \\      /  F ield         | OpenFOAM: The Open Source CFD Toolbox
   \\    /   O peration     | Website:  https://openfoam.org
    \\  /    A nd           | Version:  9
     \\/     M anipulation  |
\*---------------------------------------------------------------------------*/
FoamFile
{
    format      ascii;
    class       volScalarField;
    location    "0.011";
    object      p;
}
// * * * * * * * * * * * * * * * * * * * * * * * * * * * * * * * * * * * * * //

dimensions      [1 -1 -2 0 0 0 0];

internalField   nonuniform List<scalar> 
10000
(
100000
100000
100000
100000
100000
100000
100000
100000
100000
100000
100000
100000
100000
100000
100000
100000
100000
100000
100000
100000
100000
100000
100000
100000
100000
100000
100000
100000
100000
100000
100000
100000
100000
100000
100000
100000
100000
100000
100000
100000
100000
100000
100000
100000
100000
100000
100000
100000
100000
100000
100000
100000
100000
100000
100000
100000
100000
100000
100000
100000
100000
100000
100000
100000
100000
100000
100000
100000
100000
100000
100000
100000
100000
100000
100000
100000
100000
100000
100000
100000
100000
100000
100000
100000
100000
100000
100000
100000
100000
100000
100000
100000
100000
100000
100000
100000
100000
100000
100000
100000
100000
100000
100000
100000
100000
100000
100000
100000
100000
100000
100000
100000
100000
100000
100000
100000
100000
100000
100000
100000
100000
100000
100000
100000
100000
100000
100000
100000
100000
100000
100000
100000
100000
100000
100000
100000
100000
100000
100000
100000
100000
100000
100000
100000
100000
100000
100000
100000
100000
100000
100000
100000
100000
100000
100000
100000
100000
100000
100000
100000
100000
100000
100000
100000
100000
100000
100000
100000
100000
100000
100000
100000
100000
100000
100000
100000
100000
100000
100000
100000
100000
100000
100000
100000
100000
100000
100000
100000
100000
100000
100000
100000
100000
100000
100000
100000
100000
100000
100000
100000
100000
100000
100000
100000
100000
100000
100000
100000
100000
100000
100000
100000
100000
100000
100000
100000
100000
100000
100000
100000
100000
100000
100000
100000
100000
100000
100000
100000
100000
100000
100000
100000
100000
100000
100000
100000
100000
100000
100000
100000
100000
100000
100000
100000
100000
100000
100000
100000
100000
100000
100000
100000
100000
100000
100000
100000
100000
100000
100000
100000
100000
100000
100000
100000
100000
100000
100000
100000
100000
100000
100000
100000
100000
100000
100000
100000
100000
100000
100000
100000
100000
100000
100000
100000
100000
100000
100000
100000
100000
100000
100000
100000
100000
100000
100000
100000
100000
100000
100000
100000
100000
100000
100000
100000
100000
100000
100000
100000
100000
100000
100000
100000
100000
100000
100000
100000
100000
100000
100000
100000
100000
100000
100000
100000
100000
100000
100000
100000
100000
100000
100000
100000
100000
100000
100000
100000
100000
100000
100000
100000
100000
100000
100000
100000
100000
100000
100000
100000
100000
100000
100000
100000
100000
100000
100000
100000
100000
100000
100000
100000
100000
100000
100000
100000
100000
100000
100000
100000
100000
100000
100000
100000
100000
100000
100000
100000
100000
100000
100000
100000
100000
100000
100000
100000
100000
100000
100000
100000
100000
100000
100000
100000
100000
100000
100000
100000
100000
100000
100000
100000
100000
100000
100000
100000
100000
100000
100000
100000
100000
100000
100000
100000
100000
100000
100000
100000
100000
100000
100000
100000
100000
100000
100000
100000
100000
100000
100000
100000
100000
100000
100000
100000
100000
100000
100000
100000
100000
100000
100000
100000
100000
100000
100000
100000
100000
100000
100000
100000
100000
100000
100000
100000
100000
100000
100000
100000
100000
100000
100000
100000
100000
100000
100000
100000
100000
100000
100000
100000
100000
100000
100000
100000
100000
100000
100000
100000
100000
100000
100000
100000
100000
100000
100000
100000
100000
100000
100000
100000
100000
100000
100000
100000
100000
100000
100000
100000
100000
100000
100000
100000
100000
100000
100000
100000
100000
100000
100000
100000
100000
100000
100000
100000
100000
100000
100000
100000
100000
100000
100000
100000
100000
100000
100000
100000
100000
100000
100000
100000
100000
100000
100000
100000
100000
100000
100000
100000
100000
100000
100000
100000
100000
100000
100000
100000
100000
100000
100000
100000
100000
100000
100000
100000
100000
100000
100000
100000
100000
100000
100000
100000
100000
100000
100000
100000
100000
100000
100000
100000
100000
100000
100000
100000
100000
100000
100000
100000
100000
100000
100000
100000
100000
100000
100000
100000
100000
100000
100000
100000
100000
100000
100000
100000
100000
100000
100000
100000
100000
100000
100000
100000
100000
100000
100000
100000
100000
100000
100000
100000
100000
100000
100000
100000
100000
100000
100000
100000
100000
100000
100000
100000
100000
100000
100000
100000
100000
100000
100000
100000
100000
100000
100000
100000
100000
100000
100000
100000
100000
100000
100000
100000
100000
100000
100000
100000
100000
100000
100000
100000
100000
100000
100000
100000
100000
100000
100000
100000
100000
100000
100000
100000
100000
100000
100000
100000
100000
100000
100000
100000
100000
100000
100000
100000
100000
100000
100000
100000
100000
100000
100000
100000
100000
100000
100000
100000
100000
100000
100000
100000
100000
100000
100000
100000
100000
100000
100000
100000
100000
100000
100000
100000
100000
100000
100000
100000
100000
100000
99999.9
99999.9
99999.9
99999.9
99999.9
99999.9
99999.9
99999.9
99999.9
99999.9
99999.9
99999.8
99999.8
99999.8
99999.8
99999.8
99999.7
99999.7
99999.7
99999.7
99999.6
99999.6
99999.6
99999.5
99999.5
99999.4
99999.4
99999.3
99999.2
99999.2
99999.1
99999
99998.9
99998.8
99998.7
99998.6
99998.5
99998.4
99998.2
99998.1
99997.9
99997.7
99997.6
99997.4
99997.2
99996.9
99996.7
99996.4
99996.1
99995.8
99995.5
99995.2
99994.8
99994.4
99994
99993.5
99993
99992.5
99992
99991.4
99990.8
99990.2
99989.5
99988.7
99988
99987.1
99986.3
99985.3
99984.4
99983.3
99982.2
99981.1
99979.9
99978.6
99977.3
99975.8
99974.4
99972.8
99971.1
99969.4
99967.6
99965.7
99963.7
99961.6
99959.4
99957.1
99954.7
99952.2
99949.6
99946.9
99944
99941.1
99938
99934.8
99931.4
99927.9
99924.3
99920.5
99916.6
99912.6
99908.4
99904
99899.5
99894.8
99890
99885
99879.8
99874.5
99869
99863.3
99857.5
99851.4
99845.2
99838.8
99832.2
99825.4
99818.4
99811.3
99803.9
99796.3
99788.6
99780.6
99772.5
99764.1
99755.6
99746.8
99737.8
99728.7
99719.3
99709.7
99699.9
99689.9
99679.7
99669.3
99658.7
99647.9
99636.9
99625.6
99614.2
99602.5
99590.7
99578.6
99566.4
99553.9
99541.3
99528.4
99515.4
99502.1
99488.7
99475
99461.2
99447.2
99432.9
99418.5
99403.9
99389.1
99374.2
99359
99343.7
99328.2
99312.5
99296.6
99280.6
99264.4
99248
99231.5
99214.8
99197.9
99180.9
99163.7
99146.4
99128.9
99111.2
99093.4
99075.4
99057.3
99039.1
99020.7
99002.2
98983.5
98964.7
98945.8
98926.7
98907.5
98888.2
98868.8
98849.2
98829.5
98809.7
98789.7
98769.7
98749.5
98729.3
98708.9
98688.4
98667.8
98647.1
98626.3
98605.4
98584.3
98563.2
98542
98520.7
98499.4
98477.9
98456.3
98434.6
98412.9
98391.1
98369.2
98347.2
98325.1
98302.9
98280.7
98258.4
98236
98213.6
98191.1
98168.5
98145.8
98123.1
98100.3
98077.4
98054.5
98031.5
98008.4
97985.3
97962.2
97938.9
97915.6
97892.3
97868.9
97845.4
97821.9
97798.4
97774.8
97751.1
97727.4
97703.7
97679.9
97656
97632.1
97608.2
97584.2
97560.2
97536.1
97512
97487.8
97463.7
97439.4
97415.2
97390.9
97366.5
97342.1
97317.7
97293.3
97268.8
97244.3
97219.8
97195.2
97170.6
97145.9
97121.3
97096.6
97071.8
97047.1
97022.3
96997.5
96972.6
96947.8
96922.9
96898
96873
96848
96823.1
96798
96773
96747.9
96722.9
96697.8
96672.6
96647.5
96622.3
96597.1
96571.9
96546.7
96521.5
96496.2
96470.9
96445.6
96420.3
96395
96369.6
96344.2
96318.9
96293.5
96268.1
96242.6
96217.2
96191.7
96166.3
96140.8
96115.3
96089.8
96064.2
96038.7
96013.1
95987.6
95962
95936.4
95910.8
95885.2
95859.6
95834
95808.3
95782.7
95757
95731.3
95705.6
95679.9
95654.2
95628.5
95602.8
95577.1
95551.4
95525.6
95499.9
95474.1
95448.3
95422.6
95396.8
95371
95345.2
95319.4
95293.6
95267.8
95241.9
95216.1
95190.3
95164.4
95138.6
95112.7
95086.9
95061
95035.1
95009.3
94983.4
94957.5
94931.6
94905.7
94879.9
94854
94828.1
94802.1
94776.2
94750.3
94724.4
94698.5
94672.6
94646.6
94620.7
94594.8
94568.8
94542.9
94517
94491
94465.1
94439.1
94413.2
94387.2
94361.3
94335.3
94309.4
94283.4
94257.4
94231.5
94205.5
94179.5
94153.6
94127.6
94101.6
94075.7
94049.7
94023.7
93997.8
93971.8
93945.8
93919.8
93893.9
93867.9
93841.9
93816
93790
93764
93738
93712.1
93686.1
93660.1
93634.1
93608.2
93582.2
93556.2
93530.2
93504.3
93478.3
93452.3
93426.4
93400.4
93374.4
93348.5
93322.5
93296.5
93270.6
93244.6
93218.6
93192.7
93166.7
93140.8
93114.8
93088.9
93062.9
93037
93011
92985.1
92959.1
92933.2
92907.2
92881.3
92855.4
92829.4
92803.5
92777.6
92751.6
92725.7
92699.8
92673.8
92647.9
92622
92596.1
92570.2
92544.3
92518.4
92492.4
92466.5
92440.6
92414.7
92388.8
92363
92337.1
92311.2
92285.3
92259.4
92233.5
92207.6
92181.8
92155.9
92130
92104.2
92078.3
92052.4
92026.6
92000.7
91974.9
91949
91923.2
91897.3
91871.5
91845.7
91819.8
91794
91768.2
91742.4
91716.6
91690.7
91664.9
91639.1
91613.3
91587.5
91561.7
91535.9
91510.1
91484.3
91458.6
91432.8
91407
91381.2
91355.5
91329.7
91303.9
91278.2
91252.4
91226.7
91200.9
91175.2
91149.5
91123.7
91098
91072.3
91046.6
91020.8
90995.1
90969.4
90943.7
90918
90892.3
90866.6
90840.9
90815.2
90789.6
90763.9
90738.2
90712.5
90686.9
90661.2
90635.6
90609.9
90584.3
90558.6
90533
90507.3
90481.7
90456.1
90430.5
90404.8
90379.2
90353.6
90328
90302.4
90276.8
90251.2
90225.6
90200.1
90174.5
90148.9
90123.3
90097.8
90072.2
90046.7
90021.1
89995.6
89970
89944.5
89919
89893.4
89867.9
89842.4
89816.9
89791.4
89765.9
89740.4
89714.9
89689.4
89663.9
89638.4
89612.9
89587.5
89562
89536.5
89511.1
89485.6
89460.2
89434.7
89409.3
89383.9
89358.4
89333
89307.6
89282.2
89256.8
89231.4
89206
89180.6
89155.2
89129.8
89104.4
89079.1
89053.7
89028.3
89003
88977.6
88952.3
88926.9
88901.6
88876.2
88850.9
88825.6
88800.3
88775
88749.7
88724.3
88699
88673.8
88648.5
88623.2
88597.9
88572.6
88547.4
88522.1
88496.8
88471.6
88446.3
88421.1
88395.9
88370.6
88345.4
88320.2
88294.9
88269.7
88244.5
88219.3
88194.1
88168.9
88143.8
88118.6
88093.4
88068.2
88043.1
88017.9
87992.7
87967.6
87942.4
87917.3
87892.2
87867
87841.9
87816.8
87791.7
87766.6
87741.5
87716.4
87691.3
87666.2
87641.1
87616
87591
87565.9
87540.8
87515.8
87490.7
87465.7
87440.6
87415.6
87390.6
87365.6
87340.5
87315.5
87290.5
87265.5
87240.5
87215.5
87190.5
87165.6
87140.6
87115.6
87090.6
87065.7
87040.7
87015.8
86990.8
86965.9
86941
86916
86891.1
86866.2
86841.3
86816.4
86791.5
86766.6
86741.7
86716.8
86691.9
86667.1
86642.2
86617.3
86592.5
86567.6
86542.8
86517.9
86493.1
86468.3
86443.5
86418.6
86393.8
86369
86344.2
86319.4
86294.6
86269.8
86245.1
86220.3
86195.5
86170.8
86146
86121.2
86096.5
86071.8
86047
86022.3
85997.6
85972.8
85948.1
85923.4
85898.7
85874
85849.3
85824.6
85800
85775.3
85750.6
85725.9
85701.3
85676.6
85652
85627.3
85602.7
85578.1
85553.4
85528.8
85504.2
85479.6
85455
85430.4
85405.8
85381.2
85356.6
85332.1
85307.5
85282.9
85258.4
85233.8
85209.3
85184.7
85160.2
85135.6
85111.1
85086.6
85062.1
85037.6
85013.1
84988.6
84964.1
84939.6
84915.1
84890.6
84866.2
84841.7
84817.2
84792.8
84768.3
84743.9
84719.5
84695
84670.6
84646.2
84621.8
84597.4
84573
84548.6
84524.2
84499.8
84475.4
84451
84426.6
84402.3
84377.9
84353.6
84329.2
84304.9
84280.5
84256.2
84231.9
84207.6
84183.3
84159
84134.6
84110.4
84086.1
84061.8
84037.5
84013.2
83989
83964.7
83940.4
83916.2
83891.9
83867.7
83843.5
83819.2
83795
83770.8
83746.6
83722.4
83698.2
83674
83649.8
83625.6
83601.4
83577.2
83553.1
83528.9
83504.8
83480.6
83456.5
83432.3
83408.2
83384.1
83359.9
83335.8
83311.7
83287.6
83263.5
83239.4
83215.3
83191.2
83167.2
83143.1
83119
83095
83070.9
83046.9
83022.8
82998.8
82974.7
82950.7
82926.7
82902.7
82878.7
82854.7
82830.7
82806.7
82782.7
82758.7
82734.7
82710.8
82686.8
82662.8
82638.9
82614.9
82591
82567.1
82543.1
82519.2
82495.3
82471.4
82447.5
82423.6
82399.7
82375.8
82351.9
82328
82304.1
82280.3
82256.4
82232.6
82208.7
82184.9
82161
82137.2
82113.4
82089.5
82065.7
82041.9
82018.1
81994.3
81970.5
81946.7
81922.9
81899.2
81875.4
81851.6
81827.9
81804.1
81780.3
81756.6
81732.9
81709.1
81685.4
81661.7
81638
81614.3
81590.6
81566.9
81543.2
81519.5
81495.8
81472.1
81448.4
81424.8
81401.1
81377.5
81353.8
81330.2
81306.5
81282.9
81259.3
81235.7
81212.1
81188.4
81164.8
81141.2
81117.7
81094.1
81070.5
81046.9
81023.3
80999.8
80976.2
80952.7
80929.1
80905.6
80882.1
80858.5
80835
80811.5
80788
80764.5
80741
80717.5
80694
80670.5
80647
80623.5
80600.1
80576.6
80553.2
80529.7
80506.3
80482.8
80459.4
80436
80412.5
80389.1
80365.7
80342.3
80318.9
80295.5
80272.1
80248.8
80225.4
80202
80178.6
80155.3
80131.9
80108.6
80085.2
80061.9
80038.6
80015.2
79991.9
79968.6
79945.3
79922
79898.7
79875.4
79852.1
79828.8
79805.6
79782.3
79759
79735.8
79712.5
79689.3
79666
79642.8
79619.6
79596.3
79573.1
79549.9
79526.7
79503.5
79480.3
79457.1
79433.9
79410.7
79387.6
79364.4
79341.2
79318.1
79294.9
79271.8
79248.6
79225.5
79202.4
79179.3
79156.1
79133
79109.9
79086.8
79063.7
79040.6
79017.6
78994.5
78971.4
78948.3
78925.3
78902.2
78879.2
78856.1
78833.1
78810.1
78787
78764
78741
78718
78695
78672
78649
78626
78603
78580
78557.1
78534.1
78511.1
78488.2
78465.2
78442.3
78419.4
78396.4
78373.5
78350.6
78327.7
78304.7
78281.8
78258.9
78236
78213.2
78190.3
78167.4
78144.5
78121.7
78098.8
78076
78053.1
78030.3
78007.4
77984.6
77961.8
77938.9
77916.1
77893.3
77870.5
77847.7
77824.9
77802.1
77779.4
77756.6
77733.8
77711.1
77688.3
77665.5
77642.8
77620.1
77597.3
77574.6
77551.9
77529.1
77506.4
77483.7
77461
77438.3
77415.6
77392.9
77370.3
77347.6
77324.9
77302.2
77279.6
77256.9
77234.3
77211.6
77189
77166.4
77143.8
77121.1
77098.5
77075.9
77053.3
77030.7
77008.1
76985.5
76963
76940.4
76917.8
76895.3
76872.7
76850.1
76827.6
76805.1
76782.5
76760
76737.5
76714.9
76692.4
76669.9
76647.4
76624.9
76602.4
76579.9
76557.5
76535
76512.5
76490.1
76467.6
76445.1
76422.7
76400.3
76377.8
76355.4
76333
76310.5
76288.1
76265.7
76243.3
76220.9
76198.5
76176.1
76153.8
76131.4
76109
76086.7
76064.3
76041.9
76019.6
75997.3
75974.9
75952.6
75930.3
75907.9
75885.6
75863.3
75841
75818.7
75796.4
75774.1
75751.9
75729.6
75707.3
75685
75662.8
75640.5
75618.3
75596
75573.8
75551.6
75529.3
75507.1
75484.9
75462.7
75440.5
75418.3
75396.1
75373.9
75351.7
75329.6
75307.4
75285.2
75263.1
75240.9
75218.8
75196.6
75174.5
75152.3
75130.2
75108.1
75086
75063.9
75041.8
75019.7
74997.6
74975.5
74953.4
74931.3
74909.3
74887.2
74865.1
74843.1
74821
74799
74776.9
74754.9
74732.9
74710.8
74688.8
74666.8
74644.8
74622.8
74600.8
74578.8
74556.8
74534.9
74512.9
74490.9
74469
74447
74425.1
74403.1
74381.2
74359.2
74337.3
74315.4
74293.5
74271.5
74249.6
74227.7
74205.8
74183.9
74162.1
74140.2
74118.3
74096.4
74074.6
74052.7
74030.9
74009
73987.2
73965.3
73943.5
73921.7
73899.9
73878
73856.2
73834.4
73812.6
73790.8
73769
73747.3
73725.5
73703.7
73682
73660.2
73638.4
73616.7
73594.9
73573.2
73551.5
73529.7
73508
73486.3
73464.6
73442.9
73421.2
73399.5
73377.8
73356.1
73334.4
73312.8
73291.1
73269.4
73247.8
73226.1
73204.5
73182.8
73161.2
73139.6
73117.9
73096.3
73074.7
73053.1
73031.5
73009.9
72988.3
72966.7
72945.1
72923.6
72902
72880.4
72858.9
72837.3
72815.8
72794.2
72772.7
72751.1
72729.6
72708.1
72686.6
72665.1
72643.6
72622.1
72600.6
72579.1
72557.6
72536.1
72514.6
72493.2
72471.7
72450.3
72428.8
72407.4
72385.9
72364.5
72343
72321.6
72300.2
72278.8
72257.4
72236
72214.6
72193.2
72171.8
72150.4
72129
72107.7
72086.3
72064.9
72043.6
72022.2
72000.9
71979.6
71958.2
71936.9
71915.6
71894.2
71872.9
71851.6
71830.3
71809
71787.7
71766.5
71745.2
71723.9
71702.6
71681.4
71660.1
71638.9
71617.6
71596.4
71575.1
71553.9
71532.7
71511.4
71490.2
71469
71447.8
71426.6
71405.4
71384.2
71363
71341.9
71320.7
71299.5
71278.4
71257.2
71236.1
71214.9
71193.8
71172.6
71151.5
71130.4
71109.3
71088.1
71067
71045.9
71024.8
71003.7
70982.6
70961.6
70940.5
70919.4
70898.3
70877.3
70856.2
70835.2
70814.1
70793.1
70772.1
70751
70730
70709
70688
70667
70646
70625
70604
70583
70562
70541
70520.1
70499.1
70478.1
70457.2
70436.2
70415.3
70394.3
70373.4
70352.5
70331.6
70310.6
70289.7
70268.8
70247.9
70227
70206.1
70185.2
70164.4
70143.5
70122.6
70101.7
70080.9
70060
70039.2
70018.3
69997.5
69976.7
69955.8
69935
69914.2
69893.4
69872.6
69851.8
69831
69810.2
69789.4
69768.6
69747.8
69727.1
69706.3
69685.5
69664.8
69644
69623.3
69602.6
69581.8
69561.1
69540.4
69519.7
69498.9
69478.2
69457.5
69436.8
69416.1
69395.5
69374.8
69354.1
69333.4
69312.8
69292.1
69271.5
69250.8
69230.2
69209.5
69188.9
69168.3
69147.6
69127
69106.4
69085.8
69065.2
69044.6
69024
69003.4
68982.8
68962.3
68941.7
68921.1
68900.6
68880
68859.5
68838.9
68818.4
68797.8
68777.3
68756.8
68736.3
68715.7
68695.2
68674.7
68654.2
68633.7
68613.3
68592.8
68572.3
68551.8
68531.4
68510.9
68490.4
68470
68449.5
68429.1
68408.7
68388.2
68367.8
68347.4
68327
68306.6
68286.2
68265.8
68245.4
68225
68204.6
68184.2
68163.8
68143.5
68123.1
68102.8
68082.4
68062.1
68041.7
68021.4
68001
67980.7
67960.4
67940.1
67919.8
67899.5
67879.2
67858.9
67838.6
67818.3
67798
67777.7
67757.5
67737.2
67716.9
67696.7
67676.4
67656.2
67636
67615.7
67595.5
67575.3
67555
67534.8
67514.6
67494.4
67474.2
67454
67433.8
67413.7
67393.5
67373.3
67353.1
67333
67312.8
67292.7
67272.5
67252.4
67232.3
67212.1
67192
67171.9
67151.8
67131.7
67111.5
67091.4
67071.4
67051.3
67031.2
67011.1
66991
66971
66950.9
66930.8
66910.8
66890.7
66870.7
66850.7
66830.6
66810.6
66790.6
66770.5
66750.5
66730.5
66710.5
66690.5
66670.5
66650.5
66630.6
66610.6
66590.6
66570.7
66550.7
66530.7
66510.8
66490.8
66470.9
66451
66431
66411.1
66391.2
66371.3
66351.4
66331.4
66311.5
66291.7
66271.8
66251.9
66232
66212.1
66192.3
66172.4
66152.5
66132.7
66112.8
66093
66073.1
66053.3
66033.5
66013.7
65993.8
65974
65954.2
65934.4
65914.6
65894.8
65875
65855.2
65835.5
65815.7
65795.9
65776.2
65756.4
65736.6
65716.9
65697.2
65677.4
65657.7
65638
65618.2
65598.5
65578.8
65559.1
65539.4
65519.7
65500
65480.3
65460.6
65441
65421.3
65401.6
65382
65362.3
65342.6
65323
65303.4
65283.7
65264.1
65244.5
65224.8
65205.2
65185.6
65166
65146.4
65126.8
65107.2
65087.6
65068.1
65048.5
65028.9
65009.3
64989.8
64970.2
64950.7
64931.1
64911.6
64892
64872.5
64853
64833.5
64813.9
64794.4
64774.9
64755.4
64735.9
64716.4
64697
64677.5
64658
64638.5
64619.1
64599.6
64580.1
64560.7
64541.2
64521.8
64502.4
64482.9
64463.5
64444.1
64424.7
64405.3
64385.9
64366.5
64347.1
64327.7
64308.3
64288.9
64269.5
64250.2
64230.8
64211.4
64192.1
64172.7
64153.4
64134
64114.7
64095.4
64076
64056.7
64037.4
64018.1
63998.8
63979.5
63960.2
63940.9
63921.6
63902.3
63883.1
63863.8
63844.5
63825.3
63806
63786.7
63767.5
63748.3
63729
63709.8
63690.6
63671.3
63652.1
63632.9
63613.7
63594.5
63575.3
63556.1
63536.9
63517.7
63498.6
63479.4
63460.2
63441.1
63421.9
63402.8
63383.6
63364.5
63345.3
63326.2
63307.1
63287.9
63268.8
63249.7
63230.6
63211.5
63192.4
63173.3
63154.2
63135.1
63116.1
63097
63077.9
63058.9
63039.8
63020.7
63001.7
62982.6
62963.6
62944.6
62925.5
62906.5
62887.5
62868.5
62849.5
62830.5
62811.5
62792.5
62773.5
62754.5
62735.5
62716.5
62697.6
62678.6
62659.7
62640.7
62621.7
62602.8
62583.9
62564.9
62546
62527.1
62508.1
62489.2
62470.3
62451.4
62432.5
62413.6
62394.7
62375.8
62357
62338.1
62319.2
62300.3
62281.5
62262.6
62243.8
62224.9
62206.1
62187.2
62168.4
62149.6
62130.7
62111.9
62093.1
62074.3
62055.5
62036.7
62017.9
61999.1
61980.3
61961.6
61942.8
61924
61905.2
61886.5
61867.7
61849
61830.2
61811.5
61792.8
61774
61755.3
61736.6
61717.9
61699.1
61680.4
61661.7
61643
61624.4
61605.7
61587
61568.3
61549.6
61531
61512.3
61493.6
61475
61456.3
61437.7
61419.1
61400.4
61381.8
61363.2
61344.5
61325.9
61307.3
61288.7
61270.1
61251.5
61232.9
61214.3
61195.8
61177.2
61158.6
61140.1
61121.5
61102.9
61084.4
61065.8
61047.3
61028.8
61010.2
60991.7
60973.2
60954.7
60936.1
60917.6
60899.1
60880.6
60862.1
60843.6
60825.2
60806.7
60788.2
60769.7
60751.3
60732.8
60714.4
60695.9
60677.5
60659
60640.6
60622.1
60603.7
60585.3
60566.9
60548.5
60530.1
60511.7
60493.3
60474.9
60456.5
60438.1
60419.7
60401.3
60383
60364.6
60346.2
60327.9
60309.5
60291.2
60272.8
60254.5
60236.2
60217.9
60199.5
60181.2
60162.9
60144.6
60126.3
60108
60089.7
60071.4
60053.1
60034.9
60016.6
59998.3
59980
59961.8
59943.5
59925.3
59907
59888.8
59870.6
59852.3
59834.1
59815.9
59797.7
59779.4
59761.2
59743
59724.8
59706.6
59688.5
59670.3
59652.1
59633.9
59615.7
59597.6
59579.4
59561.3
59543.1
59525
59506.8
59488.7
59470.6
59452.4
59434.3
59416.2
59398.1
59380
59361.9
59343.8
59325.7
59307.6
59289.5
59271.4
59253.4
59235.3
59217.2
59199.2
59181.1
59163
59145
59127
59108.9
59090.9
59072.9
59054.8
59036.8
59018.8
59000.8
58982.8
58964.8
58946.8
58928.8
58910.8
58892.8
58874.9
58856.9
58838.9
58821
58803
58785.1
58767.1
58749.2
58731.2
58713.3
58695.4
58677.4
58659.5
58641.6
58623.7
58605.8
58587.9
58570
58552.1
58534.2
58516.3
58498.5
58480.6
58462.7
58444.8
58427
58409.1
58391.3
58373.4
58355.6
58337.8
58319.9
58302.1
58284.3
58266.5
58248.7
58230.8
58213
58195.2
58177.5
58159.7
58141.9
58124.1
58106.3
58088.6
58070.8
58053
58035.3
58017.5
57999.8
57982
57964.3
57946.6
57928.8
57911.1
57893.4
57875.7
57858
57840.3
57822.6
57804.9
57787.2
57769.5
57751.8
57734.1
57716.5
57698.8
57681.1
57663.5
57645.8
57628.2
57610.5
57592.9
57575.2
57557.6
57540
57522.4
57504.7
57487.1
57469.5
57451.9
57434.3
57416.7
57399.1
57381.6
57364
57346.4
57328.8
57311.3
57293.7
57276.1
57258.6
57241
57223.5
57206
57188.4
57170.9
57153.4
57135.9
57118.3
57100.8
57083.3
57065.8
57048.3
57030.8
57013.3
56995.9
56978.4
56960.9
56943.4
56926
56908.5
56891.1
56873.6
56856.2
56838.7
56821.3
56803.8
56786.4
56769
56751.6
56734.2
56716.7
56699.3
56681.9
56664.5
56647.1
56629.8
56612.4
56595
56577.6
56560.3
56542.9
56525.5
56508.2
56490.8
56473.5
56456.1
56438.8
56421.5
56404.1
56386.8
56369.5
56352.2
56334.9
56317.6
56300.3
56283
56265.7
56248.4
56231.1
56213.8
56196.6
56179.3
56162
56144.8
56127.5
56110.3
56093
56075.8
56058.5
56041.3
56024.1
56006.9
55989.6
55972.4
55955.2
55938
55920.8
55903.6
55886.4
55869.2
55852.1
55834.9
55817.7
55800.5
55783.4
55766.2
55749.1
55731.9
55714.8
55697.6
55680.5
55663.4
55646.2
55629.1
55612
55594.9
55577.8
55560.7
55543.6
55526.5
55509.4
55492.3
55475.2
55458.1
55441
55424
55406.9
55389.9
55372.8
55355.7
55338.7
55321.7
55304.6
55287.6
55270.6
55253.5
55236.5
55219.5
55202.5
55185.5
55168.5
55151.5
55134.5
55117.5
55100.5
55083.5
55066.6
55049.6
55032.6
55015.7
54998.7
54981.8
54964.8
54947.9
54930.9
54914
54897.1
54880.1
54863.2
54846.3
54829.4
54812.5
54795.6
54778.7
54761.8
54744.9
54728
54711.1
54694.2
54677.4
54660.5
54643.6
54626.8
54609.9
54593.1
54576.2
54559.4
54542.6
54525.7
54508.9
54492.1
54475.3
54458.4
54441.6
54424.8
54408
54391.2
54374.4
54357.7
54340.9
54324.1
54307.3
54290.6
54273.8
54257
54240.3
54223.5
54206.8
54190
54173.3
54156.6
54139.8
54123.1
54106.4
54089.7
54073
54056.3
54039.5
54022.8
54006.2
53989.5
53972.8
53956.1
53939.4
53922.8
53906.1
53889.4
53872.8
53856.1
53839.5
53822.8
53806.2
53789.5
53772.9
53756.3
53739.7
53723
53706.4
53689.8
53673.2
53656.6
53640
53623.4
53606.8
53590.2
53573.7
53557.1
53540.5
53524
53507.4
53490.8
53474.3
53457.7
53441.2
53424.6
53408.1
53391.6
53375.1
53358.5
53342
53325.5
53309
53292.5
53276
53259.5
53243
53226.5
53210
53193.6
53177.1
53160.6
53144.1
53127.7
53111.2
53094.8
53078.3
53061.9
53045.4
53029
53012.6
52996.2
52979.7
52963.3
52946.9
52930.5
52914.1
52897.7
52881.3
52864.9
52848.5
52832.1
52815.8
52799.4
52783
52766.7
52750.3
52733.9
52717.6
52701.2
52684.9
52668.6
52652.2
52635.9
52619.6
52603.2
52586.9
52570.6
52554.3
52538
52521.7
52505.4
52489.1
52472.8
52456.6
52440.3
52424
52407.7
52391.5
52375.2
52359
52342.7
52326.5
52310.2
52294
52277.7
52261.5
52245.3
52229.1
52212.8
52196.6
52180.4
52164.2
52148
52131.8
52115.6
52099.4
52083.3
52067.1
52050.9
52034.7
52018.6
52002.4
51986.3
51970.1
51954
51937.8
51921.7
51905.5
51889.4
51873.3
51857.2
51841
51824.9
51808.8
51792.7
51776.6
51760.5
51744.4
51728.3
51712.3
51696.2
51680.1
51664
51648
51631.9
51615.8
51599.8
51583.7
51567.7
51551.7
51535.6
51519.6
51503.6
51487.5
51471.5
51455.5
51439.5
51423.5
51407.5
51391.5
51375.5
51359.5
51343.5
51327.5
51311.6
51295.6
51279.6
51263.7
51247.7
51231.7
51215.8
51199.8
51183.9
51168
51152
51136.1
51120.2
51104.3
51088.3
51072.4
51056.5
51040.6
51024.7
51008.8
50992.9
50977
50961.2
50945.3
50929.4
50913.5
50897.7
50881.8
50866
50850.1
50834.3
50818.4
50802.6
50786.7
50770.9
50755.1
50739.3
50723.4
50707.6
50691.8
50676
50660.2
50644.4
50628.6
50612.8
50597
50581.3
50565.5
50549.7
50533.9
50518.2
50502.4
50486.7
50470.9
50455.2
50439.4
50423.7
50407.9
50392.2
50376.5
50360.8
50345.1
50329.3
50313.6
50297.9
50282.2
50266.5
50250.8
50235.1
50219.5
50203.8
50188.1
50172.4
50156.8
50141.1
50125.4
50109.8
50094.1
50078.5
50062.9
50047.2
50031.6
50016
50000.3
49984.7
49969.1
49953.5
49937.9
49922.3
49906.7
49891.1
49875.5
49859.9
49844.3
49828.7
49813.2
49797.6
49782
49766.5
49750.9
49735.4
49719.8
49704.3
49688.7
49673.2
49657.6
49642.1
49626.6
49611.1
49595.6
49580
49564.5
49549
49533.5
49518
49502.5
49487.1
49471.6
49456.1
49440.6
49425.2
49409.7
49394.2
49378.8
49363.3
49347.9
49332.4
49317
49301.5
49286.1
49270.7
49255.3
49239.8
49224.4
49209
49193.6
49178.2
49162.8
49147.4
49132
49116.6
49101.2
49085.9
49070.5
49055.1
49039.7
49024.4
49009
48993.7
48978.3
48963
48947.6
48932.3
48917
48901.6
48886.3
48871
48855.7
48840.4
48825.1
48809.7
48794.4
48779.2
48763.9
48748.6
48733.3
48718
48702.7
48687.5
48672.2
48656.9
48641.7
48626.4
48611.2
48595.9
48580.7
48565.4
48550.2
48535
48519.7
48504.5
48489.3
48474.1
48458.9
48443.7
48428.5
48413.3
48398.1
48382.9
48367.7
48352.5
48337.4
48322.2
48307
48291.8
48276.7
48261.5
48246.4
48231.2
48216.1
48200.9
48185.8
48170.7
48155.6
48140.4
48125.3
48110.2
48095.1
48080
48064.9
48049.8
48034.7
48019.6
48004.5
47989.4
47974.3
47959.3
47944.2
47929.1
47914.1
47899
47884
47868.9
47853.9
47838.8
47823.8
47808.7
47793.7
47778.7
47763.7
47748.6
47733.6
47718.6
47703.6
47688.6
47673.6
47658.6
47643.6
47628.7
47613.7
47598.7
47583.7
47568.8
47553.8
47538.8
47523.9
47508.9
47494
47479
47464.1
47449.1
47434.2
47419.3
47404.4
47389.4
47374.5
47359.6
47344.7
47329.8
47314.9
47300
47285.1
47270.2
47255.3
47240.5
47225.6
47210.7
47195.8
47181
47166.1
47151.3
47136.4
47121.6
47106.7
47091.9
47077
47062.2
47047.4
47032.6
47017.7
47002.9
46988.1
46973.3
46958.5
46943.7
46928.9
46914.1
46899.3
46884.5
46869.8
46855
46840.2
46825.5
46810.7
46795.9
46781.2
46766.4
46751.7
46736.9
46722.2
46707.5
46692.7
46678
46663.3
46648.6
46633.8
46619.1
46604.4
46589.7
46575
46560.3
46545.6
46531
46516.3
46501.6
46486.9
46472.2
46457.6
46442.9
46428.3
46413.6
46398.9
46384.3
46369.7
46355
46340.4
46325.8
46311.1
46296.5
46281.9
46267.3
46252.7
46238
46223.4
46208.8
46194.2
46179.7
46165.1
46150.5
46135.9
46121.3
46106.8
46092.2
46077.6
46063.1
46048.5
46034
46019.4
46004.9
45990.3
45975.8
45961.3
45946.7
45932.2
45917.7
45903.2
45888.7
45874.2
45859.6
45845.1
45830.6
45816.2
45801.7
45787.2
45772.7
45758.2
45743.8
45729.3
45714.8
45700.4
45685.9
45671.4
45657
45642.6
45628.1
45613.7
45599.2
45584.8
45570.4
45556
45541.5
45527.1
45512.7
45498.3
45483.9
45469.5
45455.1
45440.7
45426.4
45412
45397.6
45383.2
45368.8
45354.5
45340.1
45325.8
45311.4
45297.1
45282.7
45268.4
45254
45239.7
45225.4
45211
45196.7
45182.4
45168.1
45153.8
45139.5
45125.2
45110.9
45096.6
45082.3
45068
45053.7
45039.4
45025.1
45010.9
44996.6
44982.3
44968.1
44953.8
44939.6
44925.3
44911.1
44896.8
44882.6
44868.4
44854.1
44839.9
44825.7
44811.5
44797.2
44783
44768.8
44754.6
44740.4
44726.2
44712
44697.9
44683.7
44669.5
44655.3
44641.1
44627
44612.8
44598.7
44584.5
44570.4
44556.2
44542.1
44527.9
44513.8
44499.7
44485.5
44471.4
44457.3
44443.2
44429
44414.9
44400.8
44386.7
44372.6
44358.5
44344.5
44330.4
44316.3
44302.2
44288.1
44274.1
44260
44245.9
44231.9
44217.8
44203.8
44189.7
44175.7
44161.6
44147.6
44133.6
44119.5
44105.5
44091.5
44077.5
44063.5
44049.5
44035.5
44021.5
44007.5
43993.5
43979.5
43965.5
43951.5
43937.5
43923.6
43909.6
43895.6
43881.7
43867.7
43853.7
43839.8
43825.8
43811.9
43798
43784
43770.1
43756.2
43742.2
43728.3
43714.4
43700.5
43686.6
43672.7
43658.8
43644.9
43631
43617.1
43603.2
43589.3
43575.5
43561.6
43547.7
43533.8
43520
43506.1
43492.3
43478.4
43464.6
43450.7
43436.9
43423
43409.2
43395.4
43381.6
43367.7
43353.9
43340.1
43326.3
43312.5
43298.7
43284.9
43271.1
43257.3
43243.5
43229.7
43216
43202.2
43188.4
43174.6
43160.9
43147.1
43133.4
43119.6
43105.9
43092.1
43078.4
43064.6
43050.9
43037.2
43023.5
43009.7
42996
42982.3
42968.6
42954.9
42941.2
42927.5
42913.8
42900.1
42886.4
42872.7
42859
42845.4
42831.7
42818
42804.4
42790.7
42777
42763.4
42749.7
42736.1
42722.4
42708.8
42695.2
42681.5
42667.9
42654.3
42640.7
42627.1
42613.4
42599.8
42586.2
42572.6
42559
42545.4
42531.8
42518.3
42504.7
42491.1
42477.5
42464
42450.4
42436.8
42423.3
42409.7
42396.2
42382.6
42369.1
42355.5
42342
42328.5
42314.9
42301.4
42287.9
42274.4
42260.8
42247.3
42233.8
42220.3
42206.8
42193.3
42179.8
42166.3
42152.9
42139.4
42125.9
42112.4
42099
42085.5
42072
42058.6
42045.1
42031.7
42018.2
42004.8
41991.3
41977.9
41964.5
41951
41937.6
41924.2
41910.8
41897.4
41884
41870.5
41857.1
41843.7
41830.4
41817
41803.6
41790.2
41776.8
41763.4
41750.1
41736.7
41723.3
41710
41696.6
41683.3
41669.9
41656.6
41643.2
41629.9
41616.5
41603.2
41589.9
41576.6
41563.2
41549.9
41536.6
41523.3
41510
41496.7
41483.4
41470.1
41456.8
41443.5
41430.2
41417
41403.7
41390.4
41377.1
41363.9
41350.6
41337.4
41324.1
41310.9
41297.6
41284.4
41271.1
41257.9
41244.7
41231.4
41218.2
41205
41191.8
41178.6
41165.3
41152.1
41138.9
41125.7
41112.5
41099.4
41086.2
41073
41059.8
41046.6