/*--------------------------------*- C++ -*----------------------------------*\
  =========                 |
  \\      /  F ield         | OpenFOAM: The Open Source CFD Toolbox
   \\    /   O peration     | Website:  https://openfoam.org
    \\  /    A nd           | Version:  9
     \\/     M anipulation  |
\*---------------------------------------------------------------------------*/
FoamFile
{
    format      ascii;
    class       volScalarField;
    location    "0.014";
    object      mag(U);
}
// * * * * * * * * * * * * * * * * * * * * * * * * * * * * * * * * * * * * * //

dimensions      [0 1 -1 0 0 0 0];

internalField   nonuniform List<scalar> 
100
(
9.27786
21.4308
26.7415
34.8226
41.1582
47.9537
54.1014
60.2184
66.0863
71.8493
77.5166
83.1262
88.7023
94.2624
99.8182
105.376
110.94
116.511
122.09
127.675
133.27
138.86
144.47
150.051
155.666
161.238
166.83
172.431
177.966
183.559
189.067
194.576
200.113
205.566
210.993
216.428
221.778
227.083
232.334
237.509
242.577
247.57
252.442
257.144
261.662
266.003
270.149
274.001
277.517
280.708
283.5
286.013
288.177
289.706
290.89
291.966
292.68
293.202
293.515
293.573
293.589
293.61
293.654
293.746
293.833
293.853
293.848
293.828
293.803
293.803
293.826
293.847
293.838
293.832
293.83
293.818
293.798
293.767
293.742
293.72
293.672
293.591
293.479
293.339
293.15
292.888
292.826
292.955
293.018
292.698
291.657
289.787
287.344
283.799
277.558
266.287
244.241
223.5
223.825
225.05
)
;

boundaryField
{
    sides
    {
        type            calculated;
        value           nonuniform List<scalar> 2(225.05 9.27786);
    }
    empty
    {
        type            empty;
    }
}


// ************************************************************************* //
