/*--------------------------------*- C++ -*----------------------------------*\
  =========                 |
  \\      /  F ield         | OpenFOAM: The Open Source CFD Toolbox
   \\    /   O peration     | Website:  https://openfoam.org
    \\  /    A nd           | Version:  9
     \\/     M anipulation  |
\*---------------------------------------------------------------------------*/
FoamFile
{
    format      ascii;
    class       volVectorField;
    location    "0.014";
    object      U;
}
// * * * * * * * * * * * * * * * * * * * * * * * * * * * * * * * * * * * * * //

dimensions      [0 1 -1 0 0 0 0];

internalField   nonuniform List<vector> 
100
(
(9.27786 0 0)
(21.4308 0 0)
(26.7415 0 0)
(34.8226 0 0)
(41.1582 0 0)
(47.9537 0 0)
(54.1014 0 0)
(60.2184 0 0)
(66.0863 0 0)
(71.8493 0 0)
(77.5166 0 0)
(83.1262 0 0)
(88.7023 0 0)
(94.2624 0 0)
(99.8182 0 0)
(105.376 0 0)
(110.94 0 0)
(116.511 0 0)
(122.09 0 0)
(127.675 0 0)
(133.27 0 0)
(138.86 0 0)
(144.47 0 0)
(150.051 0 0)
(155.666 0 0)
(161.238 0 0)
(166.83 0 0)
(172.431 0 0)
(177.966 0 0)
(183.559 0 0)
(189.067 0 0)
(194.576 0 0)
(200.113 0 0)
(205.566 0 0)
(210.993 0 0)
(216.428 0 0)
(221.778 0 0)
(227.083 0 0)
(232.334 0 0)
(237.509 0 0)
(242.577 0 0)
(247.57 0 0)
(252.442 0 0)
(257.144 0 0)
(261.662 0 0)
(266.003 0 0)
(270.149 0 0)
(274.001 0 0)
(277.517 0 0)
(280.708 0 0)
(283.5 0 0)
(286.013 0 0)
(288.177 0 0)
(289.706 0 0)
(290.89 0 0)
(291.966 0 0)
(292.68 0 0)
(293.202 0 0)
(293.515 0 0)
(293.573 0 0)
(293.589 0 0)
(293.61 0 0)
(293.654 0 0)
(293.746 0 0)
(293.833 0 0)
(293.853 0 0)
(293.848 0 0)
(293.828 0 0)
(293.803 0 0)
(293.803 0 0)
(293.826 0 0)
(293.847 0 0)
(293.838 0 0)
(293.832 0 0)
(293.83 0 0)
(293.818 0 0)
(293.798 0 0)
(293.767 0 0)
(293.742 0 0)
(293.72 0 0)
(293.672 0 0)
(293.591 0 0)
(293.479 0 0)
(293.339 0 0)
(293.15 0 0)
(292.888 0 0)
(292.826 0 0)
(292.955 0 0)
(293.018 0 0)
(292.698 0 0)
(291.657 0 0)
(289.787 0 0)
(287.344 0 0)
(283.799 0 0)
(277.558 0 0)
(266.287 0 0)
(244.241 0 0)
(223.5 0 0)
(223.825 0 0)
(225.05 0 0)
)
;

boundaryField
{
    sides
    {
        type            zeroGradient;
    }
    empty
    {
        type            empty;
    }
}


// ************************************************************************* //
