/*--------------------------------*- C++ -*----------------------------------*\
  =========                 |
  \\      /  F ield         | OpenFOAM: The Open Source CFD Toolbox
   \\    /   O peration     | Website:  https://openfoam.org
    \\  /    A nd           | Version:  9
     \\/     M anipulation  |
\*---------------------------------------------------------------------------*/
FoamFile
{
    format      ascii;
    class       volScalarField;
    location    "0.028";
    object      mag(U);
}
// * * * * * * * * * * * * * * * * * * * * * * * * * * * * * * * * * * * * * //

dimensions      [0 1 -1 0 0 0 0];

internalField   nonuniform List<scalar> 
1000
(
167.964
168.431
168.702
168.997
169.286
169.576
169.865
170.155
170.445
170.734
171.024
171.315
171.605
171.895
172.186
172.477
172.767
173.058
173.349
173.639
173.93
174.22
174.511
174.802
175.092
175.383
175.674
175.965
176.256
176.547
176.837
177.128
177.419
177.71
178.001
178.291
178.582
178.873
179.164
179.455
179.745
180.036
180.326
180.616
180.906
181.196
181.485
181.775
182.065
182.354
182.644
182.934
183.224
183.514
183.804
184.095
184.386
184.677
184.968
185.259
185.55
185.841
186.132
186.423
186.713
187.003
187.292
187.582
187.872
188.162
188.453
188.743
189.034
189.324
189.615
189.905
190.196
190.486
190.777
191.067
191.357
191.647
191.938
192.228
192.518
192.808
193.098
193.388
193.678
193.968
194.258
194.548
194.838
195.128
195.418
195.708
195.998
196.288
196.578
196.868
197.158
197.448
197.738
198.027
198.317
198.607
198.897
199.187
199.477
199.767
200.056
200.345
200.634
200.923
201.212
201.501
201.79
202.079
202.369
202.658
202.948
203.237
203.527
203.816
204.105
204.395
204.685
204.975
205.265
205.555
205.844
206.134
206.424
206.713
207.003
207.293
207.583
207.873
208.164
208.454
208.743
209.033
209.323
209.612
209.902
210.192
210.482
210.772
211.062
211.352
211.642
211.932
212.222
212.511
212.801
213.091
213.381
213.671
213.96
214.25
214.54
214.83
215.12
215.41
215.699
215.989
216.279
216.569
216.859
217.149
217.438
217.728
218.018
218.308
218.598
218.888
219.178
219.468
219.758
220.048
220.338
220.627
220.917
221.207
221.497
221.787
222.076
222.366
222.656
222.946
223.236
223.525
223.815
224.105
224.395
224.685
224.974
225.264
225.554
225.844
226.134
226.424
226.713
227.003
227.293
227.583
227.873
228.163
228.452
228.742
229.032
229.322
229.612
229.902
230.192
230.481
230.771
231.061
231.351
231.641
231.93
232.22
232.51
232.8
233.089
233.379
233.669
233.959
234.248
234.538
234.827
235.117
235.406
235.696
235.985
236.275
236.565
236.854
237.144
237.434
237.724
238.014
238.303
238.593
238.883
239.173
239.463
239.753
240.043
240.332
240.622
240.912
241.201
241.491
241.781
242.07
242.36
242.649
242.939
243.228
243.518
243.807
244.097
244.387
244.676
244.966
245.256
245.546
245.835
246.125
246.415
246.705
246.994
247.284
247.573
247.863
248.153
248.442
248.732
249.021
249.311
249.6
249.89
250.179
250.469
250.759
251.049
251.339
251.63
251.92
252.21
252.5
252.79
253.079
253.369
253.658
253.947
254.236
254.526
254.815
255.104
255.394
255.683
255.973
256.262
256.551
256.841
257.13
257.42
257.71
258
258.289
258.578
258.867
259.157
259.448
259.738
260.027
260.316
260.604
260.893
261.184
261.475
261.766
262.055
262.342
262.629
262.918
263.211
263.504
263.795
264.082
264.367
264.653
264.942
265.237
265.535
265.826
266.11
266.392
266.675
266.964
267.266
267.569
267.856
268.137
268.416
268.697
268.987
269.299
269.602
269.884
270.161
270.439
270.719
271.014
271.335
271.629
271.908
272.184
272.46
272.743
273.049
273.367
273.652
273.928
274.204
274.482
274.771
275.091
275.392
275.671
275.947
276.224
276.506
276.81
277.127
277.412
277.689
277.966
278.245
278.533
278.852
279.152
279.431
279.709
279.987
280.267
280.565
280.883
281.171
281.45
281.729
282.008
282.292
282.597
282.904
283.187
283.468
283.748
284.031
284.326
284.63
284.917
285.2
285.486
285.784
286.084
286.368
286.649
286.93
287.213
287.509
287.814
288.099
288.38
288.661
288.942
289.227
289.528
289.821
290.102
290.38
290.658
290.936
291.22
291.512
291.788
292.057
292.321
292.583
292.843
293.105
293.36
293.6
293.829
294.046
294.255
294.456
294.644
294.815
294.967
295.093
295.194
295.282
295.354
295.413
295.457
295.484
295.5
295.503
295.484
295.467
295.457
295.444
295.423
295.39
295.35
295.302
295.264
295.237
295.211
295.185
295.152
295.109
295.077
295.051
295.027
295.002
294.966
294.916
294.875
294.84
294.81
294.785
294.76
294.73
294.72
294.724
294.744
294.778
294.815
294.843
294.879
294.911
294.935
294.951
294.958
294.95
294.945
294.947
294.948
294.949
294.945
294.928
294.907
294.896
294.886
294.874
294.86
294.84
294.807
294.782
294.764
294.745
294.723
294.697
294.661
294.617
294.592
294.577
294.566
294.559
294.552
294.534
294.529
294.547
294.573
294.598
294.62
294.634
294.627
294.627
294.636
294.644
294.651
294.654
294.652
294.631
294.612
294.608
294.606
294.604
294.601
294.592
294.568
294.533
294.515
294.501
294.489
294.473
294.442
294.401
294.378
294.359
294.341
294.326
294.314
294.304
294.29
294.253
294.23
294.233
294.246
294.268
294.296
294.32
294.338
294.349
294.34
294.316
294.317
294.322
294.328
294.337
294.344
294.346
294.346
294.34
294.317
294.304
294.3
294.297
294.292
294.287
294.278
294.268
294.256
294.238
294.191
294.136
294.115
294.099
294.083
294.069
294.058
294.05
294.044
294.035
294.009
293.993
294.003
294.02
294.041
294.062
294.079
294.091
294.098
294.093
294.065
294.055
294.057
294.06
294.063
294.065
294.066
294.065
294.059
294.048
294.041
294.036
294.03
294.019
293.989
293.938
293.918
293.908
293.899
293.892
293.887
293.878
293.866
293.854
293.836
293.8
293.78
293.776
293.778
293.783
293.793
293.803
293.799
293.787
293.795
293.805
293.815
293.833
293.877
293.898
293.902
293.903
293.897
293.856
293.817
293.812
293.812
293.812
293.828
293.842
293.84
293.835
293.823
293.78
293.733
293.719
293.711
293.706
293.715
293.729
293.723
293.714
293.701
293.667
293.607
293.594
293.597
293.604
293.619
293.639
293.652
293.661
293.667
293.657
293.639
293.639
293.643
293.646
293.651
293.657
293.658
293.659
293.658
293.644
293.635
293.632
293.628
293.625
293.627
293.628
293.625
293.622
293.614
293.595
293.536
293.486
293.472
293.464
293.458
293.456
293.47
293.48
293.48
293.48
293.481
293.468
293.429
293.426
293.433
293.441
293.455
293.504
293.573
293.59
293.595
293.596
293.584
293.523
293.466
293.458
293.458
293.46
293.472
293.494
293.495
293.49
293.482
293.455
293.391
293.369
293.364
293.36
293.361
293.4
293.486
293.502
293.5
293.496
293.487
293.445
293.368
293.351
293.353
293.36
293.374
293.396
293.407
293.412
293.413
293.4
293.354
293.34
293.342
293.345
293.353
293.384
293.441
293.453
293.454
293.453
293.448
293.418
293.369
293.355
293.348
293.343
293.34
293.347
293.383
293.412
293.412
293.406
293.399
293.392
293.387
293.378
293.34
293.222
293.171
293.167
293.169
293.177
293.2
293.287
293.384
293.403
293.407
293.407
293.395
293.329
293.251
293.24
293.241
293.244
293.255
293.3
293.331
293.334
293.334
293.331
293.315
293.283
293.272
293.265
293.261
293.261
293.271
293.279
293.277
293.272
293.264
293.252
293.244
293.242
293.243
293.247
293.255
293.263
293.267
293.27
293.274
293.279
293.285
293.29
293.294
293.3
293.303
293.303
293.304
293.304
293.304
293.303
293.303
293.303
293.301
293.299
293.297
293.296
293.295
293.292
293.281
293.274
293.267
293.263
293.26
293.26
293.262
293.26
293.257
293.252
293.248
293.246
293.247
293.25
293.256
293.262
293.268
293.272
293.274
293.277
293.281
293.286
293.289
293.292
293.295
293.296
293.295
293.295
293.296
293.298
293.3
293.301
293.301
293.299
293.296
293.295
293.294
293.294
293.294
293.292
293.288
293.283
293.281
293.283
293.283
293.283
293.282
293.28
293.277
293.275
293.275
293.278
293.284
293.29
293.294
293.296
293.293
293.249
293.057
292.272
289.946
287.603
286.552
286.132
285.98
285.93
285.919
285.925
285.928
285.93
285.929
285.93
285.933
285.936
285.937
285.933
285.93
285.925
285.925
285.928
285.93
285.935
285.936
285.935
285.936
285.935
285.937
285.938
285.938
285.938
285.938
285.938
285.941
285.945
285.949
285.954
285.955
285.953
285.953
285.951
285.952
285.957
285.966
285.973
285.977
285.98
285.983
285.984
285.988
285.993
285.995
285.996
285.996
285.995
285.991
285.988
285.988
285.985
285.964
285.893
285.649
284.823
283.03
281.455
280.667
280.301
280.138
280.085
280.063
280.06
280.069
280.068
280.066
280.063
280.047
280.043
280.041
280.041
280.052
280.057
280.06
280.06
280.059
280.058
280.057
280.059
280.059
280.06
280.06
280.056
280.052
280.05
280.048
280.048
280.049
280.051
280.053
280.058
280.065
280.066
280.065
)
;

boundaryField
{
    sides
    {
        type            calculated;
        value           nonuniform List<scalar> 2(280.065 167.964);
    }
    empty
    {
        type            empty;
    }
}


// ************************************************************************* //
