/*--------------------------------*- C++ -*----------------------------------*\
  =========                 |
  \\      /  F ield         | OpenFOAM: The Open Source CFD Toolbox
   \\    /   O peration     | Website:  https://openfoam.org
    \\  /    A nd           | Version:  9
     \\/     M anipulation  |
\*---------------------------------------------------------------------------*/
FoamFile
{
    format      ascii;
    class       volScalarField;
    location    "0.028";
    object      p;
}
// * * * * * * * * * * * * * * * * * * * * * * * * * * * * * * * * * * * * * //

dimensions      [1 -1 -2 0 0 0 0];

internalField   nonuniform List<scalar> 
1000
(
54110
54005.3
53942
53873.6
53806.7
53739.5
53672.6
53605.6
53538.8
53472
53405.2
53338.4
53271.7
53205
53138.4
53071.8
53005.3
52938.9
52872.5
52806.3
52740.1
52673.9
52607.9
52541.9
52475.9
52410
52344.2
52278.4
52212.7
52147.1
52081.5
52016
51950.6
51885.3
51820
51754.8
51689.7
51624.6
51559.6
51494.7
51429.8
51365.1
51300.5
51236
51171.6
51107.3
51043.1
50978.9
50914.8
50850.8
50786.9
50723
50659.1
50595.3
50531.4
50467.6
50403.9
50340.1
50276.4
50212.7
50149.1
50085.7
50022.3
49959.1
49896
49833
49770.1
49707.3
49644.5
49581.8
49519.1
49456.4
49393.8
49331.2
49268.7
49206.2
49143.9
49081.6
49019.4
48957.3
48895.2
48833.3
48771.4
48709.6
48647.9
48586.2
48524.6
48463.1
48401.6
48340.2
48278.8
48217.6
48156.4
48095.2
48034.2
47973.2
47912.3
47851.4
47790.6
47729.8
47669.2
47608.6
47548.1
47487.6
47427.2
47366.9
47306.6
47246.4
47186.3
47126.2
47066.4
47006.6
46946.9
46887.3
46827.8
46768.3
46708.8
46649.4
46589.9
46530.6
46471.3
46412.1
46353
46294
46235
46176
46117.1
46058.2
45999.3
45940.5
45881.8
45823.2
45764.7
45706.2
45647.8
45589.4
45531
45472.7
45414.5
45356.3
45298.3
45240.3
45182.4
45124.6
45066.8
45009
44951.3
44893.7
44836.1
44778.6
44721.1
44663.7
44606.4
44549.1
44491.9
44434.7
44377.7
44320.7
44263.7
44206.8
44150
44093.2
44036.5
43979.8
43923.2
43866.7
43810.2
43753.8
43697.5
43641.2
43585
43528.9
43472.8
43416.7
43360.8
43304.9
43249
43193.2
43137.5
43081.9
43026.3
42970.8
42915.3
42859.9
42804.5
42749.2
42694
42638.8
42583.7
42528.7
42473.7
42418.7
42363.9
42309
42254.3
42199.6
42145
42090.4
42035.9
41981.4
41927.1
41872.7
41818.5
41764.3
41710.1
41656.1
41602.1
41548.1
41494.2
41440.4
41386.6
41332.9
41279.3
41225.7
41172.2
41118.7
41065.3
41011.9
40958.7
40905.4
40852.3
40799.1
40746.1
40693.1
40640.1
40587.2
40534.3
40481.5
40428.8
40376.1
40323.5
40271
40218.5
40166.1
40113.7
40061.4
40009.1
39956.9
39904.8
39852.8
39800.8
39748.9
39697
39645.2
39593.5
39541.8
39490.2
39438.6
39387.1
39335.6
39284.2
39232.8
39181.5
39130.2
39079
39027.9
38976.8
38925.8
38874.8
38823.9
38773
38722.2
38671.5
38620.8
38570.2
38519.6
38469.2
38418.7
38368.4
38318.1
38267.8
38217.6
38167.5
38117.4
38067.3
38017.3
37967.4
37917.6
37867.8
37818
37768.3
37718.7
37669.1
37619.5
37570
37520.5
37471.1
37421.7
37372.3
37323.1
37273.8
37224.7
37175.7
37126.7
37077.8
37029
36980.3
36931.6
36882.9
36834.3
36785.8
36737.3
36688.9
36640.5
36592.1
36543.8
36495.5
36447.3
36399.2
36351.2
36303.2
36255.2
36207.1
36159.2
36111.5
36063.9
36016.3
35968.6
35920.8
35873.1
35825.6
35778.3
35731.3
35684.2
35636.7
35589.2
35541.7
35494.5
35447.9
35401.5
35354.8
35307.6
35260.1
35212.7
35165.9
35120.1
35074.7
35028.4
34981.1
34933.5
34886.1
34839.7
34795.3
34751.1
34704.6
34657.1
34609.4
34562.2
34516.3
34473.8
34429.9
34383
34335.4
34287.9
34241
34196.2
34155.4
34110.6
34063.5
34016.1
33969
33922.7
33880
33839.1
33793.1
33746.2
33699.3
33652.7
33607.6
33567.4
33524.2
33477.9
33431.3
33384.9
33339.2
33296.8
33256.4
33211.2
33165.1
33119.1
33073.3
33028.9
32989.1
32946.4
32900.9
32855.2
32809.6
32764.5
32721.8
32682.3
32638.4
32593.2
32548
32503.1
32458.8
32417.7
32376.7
32332.5
32287.9
32243.5
32199.4
32157.2
32116.2
32072.8
32029.1
31985.7
31944.1
31902.9
31859.4
31815.7
31772.1
31728.8
31687.3
31647.2
31604.4
31561.2
31518.1
31475.1
31432.9
31393
31352.1
31309.8
31267.5
31225.5
31183.9
31143.6
31104.9
31064.7
31024.5
30984.5
30945.5
30907.4
30871.4
30836
30800.7
30766.4
30732.9
30701.5
30672.2
30645.3
30620.5
30598.1
30577.8
30559.7
30545.9
30535.5
30528.5
30523.6
30519.7
30516.8
30514
30510
30507.7
30507.5
30508.2
30510.1
30513.3
30516.5
30518.4
30520.8
30523.7
30526.5
30529.2
30531.2
30532.1
30534.3
30537.1
30539.9
30542.5
30544.6
30545.9
30549.4
30553.6
30557.3
30560
30560.8
30559
30558.4
30557.5
30554.4
30549
30541.4
30532
30525.2
30520.2
30516.5
30513.7
30511.2
30507.8
30505.5
30504.6
30503.9
30503.3
30502.4
30500.2
30497.9
30498
30498.9
30500.1
30501.3
30501.9
30500.6
30500.8
30502.5
30504.8
30507.4
30510
30511.3
30511.1
30512.8
30514.6
30515.8
30516.4
30515.9
30512.6
30508.7
30505.4
30501.7
30498
30494.4
30490.7
30485.2
30481.4
30479.4
30477.8
30476.7
30475.7
30474.5
30471.2
30468.4
30467.8
30467.6
30467.5
30467.6
30467.5
30466.1
30463.7
30464.1
30465.1
30466
30466.5
30465.1
30462.9
30464.1
30466.3
30468.7
30470.8
30472.3
30473.1
30472.5
30468
30464.7
30463.6
30461.7
30458.8
30455.8
30452.6
30449.8
30447.3
30443.2
30437.7
30435.9
30434.9
30434.2
30434.1
30434
30433.7
30433.5
30432.7
30429.8
30428.5
30428.6
30429
30429.7
30430.8
30432.1
30433.5
30434.6
30434.8
30430.8
30426
30426.3
30428.1
30430.2
30432.1
30433.6
30434.7
30435.1
30434.4
30430.6
30426.9
30424.9
30422.4
30419.5
30416.8
30414.5
30412.6
30411
30408.6
30403.4
30400.9
30400
30399.4
30398.9
30398.5
30398.2
30398
30397.5
30396.4
30396.3
30396.4
30396.7
30396.5
30394.3
30389.7
30389.6
30390.7
30391.9
30393.2
30395.1
30396.7
30398.4
30399.9
30400.1
30397.1
30395.3
30395.1
30394.7
30393.8
30392.2
30389.7
30385
30379.1
30376.6
30374.9
30373.9
30374.5
30379.3
30381.4
30381.2
30380.7
30379.2
30373.1
30367.3
30366.5
30366.5
30367.2
30370.2
30373.2
30374
30374.4
30374.1
30369.8
30365.5
30365.8
30366.9
30368.4
30371.9
30376.1
30377.7
30379
30379.4
30376.2
30368.8
30367.1
30366.4
30365.4
30364.4
30363.9
30362.5
30361
30359.3
30355.6
30351.1
30349.6
30349
30348.7
30349
30349.3
30349.2
30348.9
30348.3
30346.2
30344.9
30344.9
30345.4
30346.2
30347.6
30348.9
30349.4
30349.9
30350.3
30349.6
30343.8
30339.2
30339.5
30340.4
30341.4
30342.8
30346.1
30348.4
30348.9
30348.8
30347.8
30343.8
30335.6
30332.3
30330.9
30330.1
30330.4
30335.6
30343.3
30344.1
30343.6
30343
30341
30332.4
30324.6
30323.5
30323.3
30323.5
30325.1
30328.2
30329.1
30329.8
30330
30327.6
30319.8
30317.5
30317.6
30318.4
30320.5
30328
30341.8
30345.7
30346.6
30347
30346.3
30341
30330.6
30328.1
30327.4
30326.5
30325.5
30325.7
30325
30324.3
30323.5
30321
30314.1
30311.2
30310.4
30310
30310.5
30314.6
30322.3
30324
30324.3
30324.3
30323.6
30319.7
30313.5
30312.6
30313.1
30313.9
30314.6
30316.1
30321.5
30326.3
30327.6
30328.7
30329.7
30330.6
30330.8
30329.9
30324.8
30308.7
30301.4
30300.2
30299.7
30299.3
30300.4
30309.7
30320.8
30322.2
30321.9
30321.5
30319.5
30310.1
30299
30296.8
30296.3
30296.2
30297.7
30304.2
30308.9
30309.8
30309.9
30309.7
30307.8
30304
30303.5
30304.1
30304.8
30305.6
30307.6
30309.1
30309.6
30310.2
30311
30311
30310.9
30310.9
30310.8
30310.6
30310.5
30310.4
30310.1
30309.6
30309
30308
30307.1
30306.5
30306.3
30306.8
30307.1
30307.2
30307.1
30306.8
30306.1
30305.4
30305.2
30305.3
30305.7
30306.2
30306.5
30306.6
30306.6
30306.3
30305.3
30305.4
30306.2
30306.9
30307.3
30307.8
30308.4
30308.7
30309.3
30309.9
30310.2
30310.3
30310.2
30309.7
30308.8
30308.1
30308
30308
30307.8
30307.6
30307.1
30306.4
30305.8
30305.6
30305.9
30306.2
30306.4
30306.4
30306.3
30305.9
30305.7
30305.8
30306.4
30307.2
30307.7
30308
30308
30307.9
30307.9
30308
30308.7
30309.6
30310.7
30311.7
30312
30312.2
30312.4
30312.7
30313
30313
30312.8
30312.4
30311.3
30310.3
30309.9
30310.3
30312.4
30319
30345.4
30451.4
30767.1
31080.8
31236.8
31290.9
31308.9
31316
31318.6
31320.1
31320.3
31320.5
31320
31319.4
31319.1
31319.4
31319.8
31319.9
31320
31319.3
31318.8
31318.4
31318.1
31318.4
31318.7
31319
31319.2
31318.9
31318.5
31318.1
31317.6
31317.5
31317.6
31317.7
31317.9
31317.9
31317.4
31316.9
31316.4
31315.8
31315.5
31315.1
31314.7
31314.4
31314.2
31314
31313.7
31313.5
31313.4
31312.8
31312
31310.9
31309.7
31309
31308.8
31308.9
31309.3
31310
31311.3
31313
31316.2
31326.3
31360.1
31474.2
31723.1
31938
32055
32104.4
32124.6
32134.8
32139.1
32141.6
32143.6
32143.3
32143
32142.4
32140.2
32139.5
32139.3
32139.2
32140.6
32141.4
32141.7
32141.7
32141.5
32141.4
32141.3
32141.5
32141.5
32141.6
32141.6
32141
32140.5
32140.1
32139.9
32139.9
32139.9
32140.2
32140.5
32141.3
32142.2
32142.3
32142.3
)
;

boundaryField
{
    sides
    {
        type            zeroGradient;
    }
    empty
    {
        type            empty;
    }
}


// ************************************************************************* //
