/*--------------------------------*- C++ -*----------------------------------*\
  =========                 |
  \\      /  F ield         | OpenFOAM: The Open Source CFD Toolbox
   \\    /   O peration     | Website:  https://openfoam.org
    \\  /    A nd           | Version:  9
     \\/     M anipulation  |
\*---------------------------------------------------------------------------*/
FoamFile
{
    format      ascii;
    class       volScalarField;
    location    "0.028";
    object      rho;
}
// * * * * * * * * * * * * * * * * * * * * * * * * * * * * * * * * * * * * * //

dimensions      [1 -3 0 0 0 0 0];

internalField   nonuniform List<scalar> 
1000
(
0.644525
0.643634
0.643096
0.642513
0.641943
0.641371
0.640801
0.64023
0.63966
0.63909
0.63852
0.63795
0.63738
0.636811
0.636241
0.635672
0.635103
0.634535
0.633967
0.6334
0.632833
0.632266
0.6317
0.631134
0.630569
0.630003
0.629438
0.628874
0.628309
0.627745
0.627182
0.626619
0.626056
0.625494
0.624933
0.624371
0.62381
0.623249
0.622689
0.622129
0.62157
0.621012
0.620454
0.619897
0.619341
0.618785
0.61823
0.617675
0.617121
0.616567
0.616013
0.61546
0.614906
0.614353
0.6138
0.613247
0.612693
0.61214
0.611587
0.611034
0.610482
0.60993
0.60938
0.60883
0.608281
0.607733
0.607185
0.606638
0.606091
0.605544
0.604998
0.604451
0.603905
0.603358
0.602813
0.602267
0.601722
0.601178
0.600634
0.600091
0.599548
0.599006
0.598464
0.597923
0.597382
0.596841
0.596301
0.595761
0.595222
0.594683
0.594144
0.593606
0.593068
0.592531
0.591994
0.591457
0.590921
0.590385
0.58985
0.589315
0.58878
0.588246
0.587713
0.587179
0.586646
0.586114
0.585581
0.58505
0.584518
0.583988
0.583458
0.582929
0.582401
0.581874
0.581347
0.580819
0.580292
0.579765
0.579238
0.578712
0.578185
0.57766
0.577135
0.576611
0.576086
0.575562
0.575038
0.574514
0.57399
0.573466
0.572944
0.572422
0.5719
0.571379
0.570858
0.570337
0.569816
0.569295
0.568775
0.568256
0.567737
0.567219
0.566701
0.566184
0.565667
0.565149
0.564633
0.564116
0.5636
0.563085
0.56257
0.562055
0.56154
0.561026
0.560513
0.559999
0.559487
0.558974
0.558462
0.55795
0.557439
0.556928
0.556418
0.555907
0.555398
0.554889
0.55438
0.553872
0.553364
0.552856
0.552349
0.551843
0.551337
0.550832
0.550327
0.549823
0.549319
0.548816
0.548314
0.547813
0.547313
0.546813
0.546314
0.545816
0.545318
0.544821
0.544323
0.543827
0.54333
0.542833
0.542336
0.541839
0.541342
0.540844
0.540346
0.539848
0.539349
0.53885
0.538351
0.537852
0.537353
0.536854
0.536355
0.535857
0.53536
0.534863
0.534367
0.533872
0.533377
0.532882
0.532389
0.531896
0.531403
0.530911
0.530419
0.529927
0.529436
0.528945
0.528454
0.527963
0.527473
0.526983
0.526494
0.526004
0.525515
0.525026
0.524538
0.52405
0.523562
0.523075
0.522588
0.522102
0.521616
0.52113
0.520645
0.52016
0.519675
0.519191
0.518707
0.518224
0.517741
0.517259
0.516777
0.516295
0.515814
0.515333
0.514852
0.514372
0.513892
0.513412
0.512933
0.512454
0.511975
0.511497
0.511019
0.510541
0.510063
0.509586
0.50911
0.508633
0.508157
0.507682
0.507207
0.506732
0.506258
0.505784
0.50531
0.504837
0.504365
0.503892
0.50342
0.502949
0.502477
0.502006
0.501535
0.501065
0.500595
0.500125
0.499656
0.499187
0.498719
0.49825
0.497782
0.497314
0.496847
0.49638
0.495912
0.495446
0.494979
0.494513
0.494047
0.493582
0.493117
0.492653
0.49219
0.491727
0.491265
0.490803
0.490341
0.48988
0.489418
0.488958
0.488497
0.488037
0.487577
0.487117
0.486657
0.486198
0.48574
0.485282
0.484825
0.484366
0.483908
0.48345
0.482995
0.48254
0.482085
0.481629
0.481172
0.480715
0.480261
0.479808
0.479358
0.478906
0.478451
0.477995
0.477539
0.477087
0.476639
0.476194
0.475745
0.475291
0.474834
0.474378
0.473928
0.473487
0.47305
0.472603
0.472147
0.471688
0.471232
0.470784
0.470355
0.469928
0.469479
0.46902
0.468559
0.468102
0.467658
0.467247
0.466822
0.466367
0.465907
0.465446
0.464991
0.464557
0.464161
0.463726
0.463268
0.462808
0.46235
0.4619
0.461485
0.461087
0.46064
0.460183
0.459725
0.459272
0.458832
0.45844
0.458018
0.457567
0.457112
0.456659
0.456212
0.455797
0.455403
0.454961
0.45451
0.454059
0.453611
0.453176
0.452785
0.452366
0.45192
0.451472
0.451025
0.450582
0.450162
0.449774
0.449342
0.448898
0.448453
0.448011
0.447575
0.44717
0.446766
0.446331
0.445891
0.445453
0.445018
0.444601
0.444196
0.443767
0.443335
0.442906
0.442494
0.442087
0.441657
0.441224
0.440792
0.440363
0.439951
0.439553
0.439129
0.4387
0.438272
0.437845
0.437425
0.437029
0.436622
0.436202
0.435781
0.435362
0.434948
0.434547
0.434161
0.43376
0.433359
0.43296
0.43257
0.43219
0.431831
0.431477
0.431125
0.430782
0.430447
0.430133
0.42984
0.42957
0.429322
0.429098
0.428895
0.428713
0.428575
0.42847
0.4284
0.428351
0.428312
0.428283
0.428255
0.428215
0.428192
0.42819
0.428197
0.428217
0.428248
0.42828
0.428299
0.428324
0.428353
0.428381
0.428408
0.428428
0.428437
0.42846
0.428488
0.428515
0.428542
0.428563
0.428575
0.428611
0.428653
0.42869
0.428717
0.428725
0.428707
0.428702
0.428692
0.428661
0.428607
0.42853
0.428436
0.428369
0.428319
0.428281
0.428253
0.428229
0.428194
0.428172
0.428162
0.428155
0.428149
0.428141
0.428118
0.428096
0.428096
0.428105
0.428117
0.42813
0.428136
0.428123
0.428125
0.428142
0.428165
0.428191
0.428217
0.42823
0.428228
0.428245
0.428263
0.428275
0.428281
0.428277
0.428243
0.428204
0.428172
0.428134
0.428097
0.428061
0.428024
0.427969
0.427931
0.42791
0.427895
0.427884
0.427874
0.427862
0.427829
0.4278
0.427794
0.427792
0.427792
0.427793
0.427792
0.427777
0.427754
0.427758
0.427768
0.427777
0.427782
0.427768
0.427746
0.427758
0.427781
0.427804
0.427825
0.42784
0.427848
0.427842
0.427797
0.427765
0.427753
0.427734
0.427706
0.427675
0.427643
0.427615
0.42759
0.427549
0.427494
0.427476
0.427466
0.427459
0.427457
0.427457
0.427454
0.427452
0.427444
0.427415
0.427402
0.427403
0.427407
0.427414
0.427426
0.427439
0.427452
0.427464
0.427465
0.427426
0.427377
0.427381
0.427398
0.427419
0.427439
0.427454
0.427464
0.427469
0.427462
0.427424
0.427387
0.427367
0.427342
0.427313
0.427286
0.427263
0.427244
0.427228
0.427204
0.427152
0.427126
0.427118
0.427112
0.427106
0.427103
0.4271
0.427098
0.427092
0.427082
0.427081
0.427082
0.427084
0.427083
0.427061
0.427015
0.427013
0.427025
0.427037
0.42705
0.427069
0.427086
0.427103
0.427117
0.42712
0.427089
0.427072
0.42707
0.427066
0.427056
0.427041
0.427016
0.426968
0.42691
0.426884
0.426868
0.426857
0.426864
0.426912
0.426932
0.426931
0.426926
0.426911
0.42685
0.426792
0.426783
0.426784
0.426791
0.426821
0.426851
0.426859
0.426863
0.42686
0.426817
0.426773
0.426777
0.426788
0.426803
0.426838
0.42688
0.426897
0.426909
0.426913
0.426882
0.426808
0.42679
0.426783
0.426773
0.426764
0.426758
0.426745
0.42673
0.426712
0.426675
0.42663
0.426615
0.426609
0.426606
0.426609
0.426613
0.426611
0.426609
0.426602
0.426582
0.426568
0.426569
0.426573
0.426581
0.426596
0.426608
0.426614
0.426619
0.426623
0.426616
0.426558
0.426512
0.426514
0.426524
0.426534
0.426548
0.426581
0.426605
0.426609
0.426608
0.426598
0.426559
0.426476
0.426443
0.426429
0.42642
0.426424
0.426476
0.426553
0.426562
0.426557
0.42655
0.42653
0.426445
0.426367
0.426355
0.426353
0.426355
0.426371
0.426403
0.426412
0.426418
0.42642
0.426396
0.426318
0.426295
0.426297
0.426305
0.426326
0.426401
0.426539
0.426578
0.426588
0.426591
0.426584
0.426531
0.426427
0.426402
0.426395
0.426386
0.426377
0.426378
0.426372
0.426365
0.426356
0.426331
0.426262
0.426233
0.426225
0.426222
0.426226
0.426268
0.426345
0.426363
0.426365
0.426365
0.426358
0.426319
0.426256
0.426247
0.426253
0.42626
0.426268
0.426284
0.426339
0.426386
0.426399
0.42641
0.426421
0.426428
0.426431
0.426422
0.42637
0.426209
0.426137
0.426125
0.42612
0.426116
0.426127
0.42622
0.426331
0.426345
0.426342
0.426338
0.426318
0.426223
0.426112
0.426091
0.426086
0.426086
0.426101
0.426167
0.426212
0.42622
0.426221
0.426219
0.426201
0.426164
0.42616
0.426167
0.426173
0.42618
0.426199
0.426214
0.426219
0.426226
0.426235
0.426236
0.426236
0.426236
0.426234
0.42623
0.426229
0.426228
0.426225
0.426221
0.426216
0.426207
0.426198
0.426191
0.426188
0.426192
0.426195
0.426196
0.426196
0.426195
0.426189
0.426181
0.426179
0.426179
0.426182
0.426187
0.426191
0.426192
0.426192
0.426189
0.426179
0.42618
0.426188
0.426195
0.426201
0.426207
0.426213
0.426215
0.426219
0.426224
0.426227
0.426229
0.426229
0.426225
0.426218
0.426211
0.426209
0.426207
0.426204
0.426201
0.426197
0.426192
0.426188
0.426186
0.426189
0.42619
0.426191
0.426192
0.42619
0.426188
0.426187
0.426188
0.426194
0.426201
0.426206
0.426208
0.426208
0.426207
0.426208
0.42621
0.426217
0.426227
0.426238
0.426249
0.426252
0.426252
0.426253
0.426255
0.426258
0.426259
0.426259
0.426256
0.426248
0.426238
0.426233
0.426236
0.426255
0.426319
0.426583
0.427646
0.430815
0.43394
0.43541
0.436075
0.436309
0.436338
0.436287
0.436279
0.436287
0.436317
0.436352
0.436353
0.436344
0.43632
0.436304
0.436306
0.436317
0.436333
0.436336
0.43633
0.436315
0.436302
0.436303
0.436308
0.436321
0.436328
0.436325
0.436318
0.436306
0.436301
0.436302
0.436307
0.436314
0.436314
0.436308
0.436299
0.43629
0.436282
0.436283
0.436285
0.436284
0.43628
0.436278
0.436272
0.436267
0.436265
0.436265
0.436263
0.436256
0.436244
0.436231
0.436223
0.436221
0.436223
0.436229
0.436236
0.436247
0.436262
0.436293
0.436394
0.43673
0.437866
0.440343
0.442454
0.443614
0.44416
0.44433
0.44438
0.444425
0.444468
0.444512
0.444518
0.444511
0.444486
0.44445
0.444443
0.444449
0.444463
0.444483
0.444488
0.444483
0.444477
0.444474
0.444477
0.444484
0.444487
0.444486
0.444482
0.444478
0.444471
0.444468
0.44447
0.44447
0.44447
0.444469
0.444468
0.44447
0.444479
0.44449
0.444493
0.444494
)
;

boundaryField
{
    sides
    {
        type            calculated;
        value           nonuniform List<scalar> 2(0.444494 0.644525);
    }
    empty
    {
        type            empty;
    }
}


// ************************************************************************* //
