/*--------------------------------*- C++ -*----------------------------------*\
  =========                 |
  \\      /  F ield         | OpenFOAM: The Open Source CFD Toolbox
   \\    /   O peration     | Website:  https://openfoam.org
    \\  /    A nd           | Version:  9
     \\/     M anipulation  |
\*---------------------------------------------------------------------------*/
FoamFile
{
    format      ascii;
    class       volScalarField;
    location    "0.028";
    object      T;
}
// * * * * * * * * * * * * * * * * * * * * * * * * * * * * * * * * * * * * * //

dimensions      [0 0 0 1 0 0 0];

internalField   nonuniform List<scalar> 
1000
(
292.417
292.255
292.157
292.051
291.947
291.842
291.738
291.634
291.53
291.426
291.322
291.218
291.113
291.009
290.905
290.8
290.696
290.592
290.487
290.383
290.279
290.175
290.071
289.966
289.862
289.758
289.654
289.55
289.445
289.341
289.237
289.133
289.029
288.925
288.821
288.717
288.613
288.509
288.405
288.301
288.197
288.093
287.989
287.886
287.782
287.678
287.575
287.471
287.368
287.264
287.161
287.058
286.954
286.851
286.747
286.643
286.539
286.436
286.332
286.228
286.124
286.021
285.917
285.813
285.71
285.607
285.504
285.4
285.297
285.194
285.091
284.987
284.884
284.781
284.677
284.574
284.471
284.367
284.264
284.161
284.058
283.955
283.852
283.748
283.645
283.542
283.439
283.337
283.234
283.131
283.028
282.925
282.822
282.719
282.616
282.513
282.411
282.308
282.205
282.102
281.999
281.897
281.794
281.691
281.589
281.486
281.383
281.281
281.178
281.076
280.973
280.871
280.769
280.667
280.565
280.462
280.36
280.258
280.155
280.053
279.951
279.849
279.746
279.644
279.542
279.44
279.337
279.235
279.133
279.03
278.928
278.826
278.724
278.622
278.52
278.417
278.315
278.213
278.111
278.008
277.906
277.804
277.702
277.6
277.498
277.396
277.294
277.192
277.09
276.988
276.886
276.783
276.681
276.579
276.477
276.375
276.273
276.171
276.069
275.967
275.865
275.763
275.661
275.559
275.457
275.355
275.253
275.151
275.049
274.947
274.845
274.743
274.64
274.538
274.436
274.333
274.23
274.128
274.025
273.921
273.818
273.715
273.611
273.507
273.403
273.3
273.196
273.092
272.988
272.885
272.782
272.679
272.576
272.474
272.372
272.271
272.17
272.069
271.969
271.868
271.768
271.669
271.569
271.469
271.369
271.269
271.168
271.068
270.968
270.867
270.767
270.666
270.565
270.465
270.364
270.263
270.163
270.062
269.962
269.862
269.761
269.661
269.561
269.461
269.36
269.26
269.16
269.06
268.959
268.859
268.759
268.659
268.559
268.459
268.358
268.258
268.158
268.058
267.958
267.858
267.758
267.658
267.559
267.459
267.359
267.259
267.159
267.06
266.96
266.86
266.76
266.66
266.561
266.461
266.361
266.262
266.162
266.062
265.963
265.863
265.763
265.664
265.564
265.465
265.365
265.266
265.166
265.067
264.968
264.868
264.769
264.67
264.57
264.471
264.372
264.272
264.173
264.074
263.975
263.876
263.776
263.677
263.578
263.479
263.38
263.281
263.181
263.082
262.983
262.884
262.785
262.686
262.587
262.488
262.389
262.29
262.191
262.093
261.994
261.895
261.796
261.698
261.599
261.5
261.402
261.303
261.204
261.106
261.007
260.909
260.81
260.711
260.613
260.514
260.416
260.317
260.219
260.121
260.022
259.923
259.825
259.727
259.629
259.531
259.432
259.333
259.234
259.136
259.039
258.942
258.844
258.745
258.646
258.546
258.448
258.352
258.257
258.159
258.059
257.959
257.859
257.761
257.667
257.573
257.475
257.374
257.273
257.172
257.075
256.984
256.891
256.791
256.689
256.587
256.487
256.391
256.304
256.207
256.106
256.004
255.903
255.803
255.711
255.623
255.524
255.422
255.321
255.22
255.122
255.035
254.941
254.84
254.739
254.638
254.538
254.445
254.357
254.258
254.157
254.056
253.956
253.858
253.771
253.677
253.577
253.476
253.376
253.276
253.182
253.094
252.997
252.897
252.797
252.697
252.598
252.507
252.416
252.317
252.218
252.118
252.02
251.925
251.833
251.736
251.638
251.541
251.447
251.354
251.256
251.158
251.059
250.962
250.868
250.777
250.68
250.582
250.484
250.386
250.29
250.199
250.106
250.01
249.913
249.817
249.722
249.63
249.541
249.449
249.356
249.265
249.175
249.087
249.004
248.922
248.841
248.762
248.684
248.612
248.544
248.481
248.424
248.372
248.325
248.283
248.251
248.226
248.21
248.199
248.19
248.183
248.176
248.167
248.162
248.161
248.163
248.167
248.175
248.182
248.186
248.192
248.199
248.205
248.211
248.216
248.218
248.223
248.23
248.236
248.242
248.247
248.25
248.258
248.268
248.277
248.283
248.284
248.28
248.279
248.277
248.27
248.257
248.239
248.218
248.202
248.19
248.181
248.175
248.169
248.161
248.156
248.154
248.152
248.151
248.149
248.143
248.138
248.138
248.14
248.143
248.146
248.147
248.144
248.145
248.149
248.154
248.16
248.166
248.169
248.168
248.172
248.177
248.179
248.181
248.18
248.172
248.163
248.155
248.147
248.138
248.129
248.121
248.108
248.099
248.094
248.091
248.088
248.086
248.083
248.075
248.069
248.067
248.067
248.067
248.067
248.067
248.063
248.058
248.059
248.061
248.063
248.064
248.061
248.056
248.058
248.064
248.069
248.074
248.077
248.079
248.078
248.067
248.06
248.057
248.053
248.046
248.039
248.031
248.025
248.019
248.01
247.997
247.992
247.99
247.988
247.988
247.988
247.987
247.987
247.985
247.978
247.975
247.975
247.976
247.978
247.98
247.983
247.986
247.989
247.989
247.98
247.969
247.97
247.974
247.979
247.983
247.987
247.989
247.99
247.988
247.979
247.971
247.966
247.96
247.954
247.947
247.942
247.937
247.934
247.928
247.916
247.91
247.908
247.906
247.905
247.904
247.904
247.903
247.902
247.899
247.899
247.899
247.9
247.899
247.894
247.883
247.883
247.886
247.888
247.891
247.896
247.9
247.904
247.907
247.907
247.9
247.896
247.896
247.895
247.893
247.889
247.883
247.872
247.858
247.852
247.848
247.846
247.847
247.859
247.863
247.863
247.862
247.858
247.844
247.83
247.828
247.829
247.83
247.837
247.844
247.846
247.847
247.846
247.836
247.826
247.827
247.829
247.833
247.841
247.85
247.854
247.857
247.858
247.851
247.833
247.829
247.828
247.825
247.823
247.822
247.819
247.815
247.811
247.802
247.792
247.788
247.787
247.786
247.787
247.788
247.787
247.787
247.785
247.78
247.777
247.777
247.778
247.78
247.783
247.786
247.787
247.789
247.789
247.788
247.774
247.764
247.764
247.766
247.769
247.772
247.779
247.785
247.786
247.786
247.783
247.774
247.755
247.747
247.744
247.742
247.743
247.755
247.773
247.775
247.773
247.772
247.767
247.747
247.729
247.726
247.726
247.726
247.73
247.737
247.739
247.741
247.741
247.736
247.717
247.712
247.712
247.714
247.719
247.736
247.768
247.777
247.78
247.78
247.779
247.767
247.742
247.736
247.735
247.732
247.73
247.731
247.729
247.727
247.725
247.719
247.703
247.697
247.695
247.694
247.695
247.704
247.722
247.726
247.727
247.727
247.725
247.716
247.702
247.7
247.701
247.702
247.704
247.707
247.72
247.731
247.734
247.736
247.739
247.741
247.742
247.74
247.728
247.69
247.673
247.67
247.668
247.667
247.67
247.692
247.718
247.721
247.721
247.72
247.715
247.693
247.667
247.662
247.66
247.66
247.663
247.678
247.69
247.692
247.693
247.692
247.687
247.677
247.676
247.677
247.679
247.682
247.687
247.691
247.692
247.693
247.694
247.693
247.692
247.692
247.693
247.694
247.694
247.693
247.692
247.691
247.688
247.686
247.684
247.683
247.682
247.684
247.685
247.685
247.685
247.683
247.681
247.679
247.679
247.68
247.681
247.682
247.682
247.683
247.683
247.682
247.68
247.68
247.682
247.683
247.683
247.684
247.685
247.687
247.689
247.691
247.692
247.692
247.691
247.689
247.686
247.684
247.685
247.685
247.686
247.685
247.684
247.681
247.679
247.678
247.679
247.68
247.681
247.681
247.681
247.68
247.679
247.679
247.68
247.682
247.684
247.685
247.685
247.684
247.684
247.684
247.685
247.687
247.689
247.691
247.692
247.694
247.695
247.696
247.697
247.696
247.695
247.693
247.689
247.687
247.686
247.688
247.694
247.71
247.773
248.02
248.748
249.475
249.881
249.932
249.941
249.981
250.031
250.047
250.045
250.029
250.005
250
250.003
250.018
250.031
250.031
250.026
250.01
250.005
250.005
250.011
250.021
250.023
250.022
250.017
250.01
250.009
250.009
250.012
250.014
250.014
250.013
250.01
250.01
250.009
250.011
250.012
250.011
250.009
250.005
250.002
250.001
250.002
250.003
250.004
250.004
250.002
249.999
249.996
249.994
249.992
249.991
249.99
249.99
249.991
249.992
249.995
250
250.009
250.032
250.108
250.367
250.928
251.422
251.683
251.762
251.823
251.875
251.883
251.879
251.87
251.864
251.865
251.874
251.877
251.876
251.871
251.862
251.862
251.866
251.871
251.874
251.874
251.871
251.867
251.867
251.867
251.87
251.873
251.872
251.869
251.866
251.864
251.864
251.865
251.867
251.869
251.87
251.87
251.87
251.869
)
;

boundaryField
{
    sides
    {
        type            zeroGradient;
    }
    empty
    {
        type            empty;
    }
}


// ************************************************************************* //
