/*--------------------------------*- C++ -*----------------------------------*\
  =========                 |
  \\      /  F ield         | OpenFOAM: The Open Source CFD Toolbox
   \\    /   O peration     | Website:  https://openfoam.org
    \\  /    A nd           | Version:  9
     \\/     M anipulation  |
\*---------------------------------------------------------------------------*/
FoamFile
{
    format      ascii;
    class       volScalarField;
    location    "0.008";
    object      mag(U);
}
// * * * * * * * * * * * * * * * * * * * * * * * * * * * * * * * * * * * * * //

dimensions      [0 1 -1 0 0 0 0];

internalField   nonuniform List<scalar> 
1000
(
9.91936e-13
9.48175e-13
1.1524e-12
1.16698e-12
1.19616e-12
1.13781e-12
1.12322e-12
1.02111e-12
1.19616e-12
8.46063e-13
9.77349e-13
7.73127e-13
6.41841e-13
6.85603e-13
7.5854e-13
8.75238e-13
7.73127e-13
8.89825e-13
9.91936e-13
1.09405e-12
1.12322e-12
1.2691e-12
1.35662e-12
1.53167e-12
1.79424e-12
1.838e-12
1.89635e-12
2.0714e-12
2.26103e-12
2.12975e-12
2.69865e-12
2.1881e-12
2.45067e-12
2.50902e-12
2.5236e-12
2.66948e-12
2.11516e-12
2.39232e-12
2.08598e-12
2.12975e-12
2.11516e-12
2.10057e-12
2.17351e-12
2.12975e-12
2.23186e-12
1.88176e-12
2.0714e-12
1.86717e-12
2.0714e-12
1.838e-12
1.89635e-12
1.64836e-12
1.85259e-12
1.85259e-12
2.04222e-12
2.33397e-12
2.27562e-12
2.26103e-12
2.77159e-12
2.43608e-12
3.09251e-12
2.71324e-12
3.41343e-12
2.8737e-12
3.42802e-12
3.23838e-12
3.34049e-12
3.35508e-12
3.23838e-12
3.61765e-12
3.04875e-12
4.05527e-12
3.25297e-12
3.50095e-12
2.97581e-12
3.53013e-12
2.90287e-12
3.39884e-12
3.09251e-12
3.35508e-12
3.4426e-12
3.13627e-12
3.31132e-12
3.29673e-12
2.90287e-12
3.66141e-12
2.757e-12
3.98233e-12
3.12168e-12
4.21573e-12
3.36967e-12
4.08444e-12
3.69059e-12
3.89481e-12
3.93857e-12
3.69059e-12
4.12821e-12
3.82187e-12
4.02609e-12
3.82187e-12
3.64683e-12
3.93857e-12
3.61765e-12
4.11362e-12
3.88022e-12
5.35354e-12
5.23684e-12
7.76044e-12
1.00361e-11
1.54625e-11
2.29896e-11
3.63516e-11
5.81012e-11
9.34171e-11
1.51402e-10
2.44614e-10
3.9552e-10
6.37757e-10
1.02422e-09
1.64069e-09
2.61773e-09
4.16303e-09
6.59266e-09
1.04007e-08
1.63435e-08
2.5578e-08
3.98699e-08
6.18926e-08
9.56847e-08
1.47312e-07
2.25846e-07
3.44786e-07
5.24127e-07
7.93337e-07
1.19563e-06
1.79409e-06
2.68027e-06
3.98645e-06
5.90273e-06
8.70085e-06
1.27672e-05
1.86484e-05
2.7113e-05
3.92366e-05
5.65149e-05
8.10169e-05
0.000115588
0.000164116
0.000231888
0.000326042
0.000456158
0.00063502
0.000879565
0.0012121
0.00166179
0.00226653
0.00307521
0.00415043
0.0055718
0.0074398
0.00988024
0.0130495
0.0171402
0.0223879
0.0290782
0.0375538
0.0482231
0.0615673
0.0781487
0.0986172
0.123717
0.154289
0.191276
0.235722
0.288767
0.351642
0.42566
0.512201
0.612694
0.7286
0.861387
1.0125
1.18335
1.37528
1.58951
1.82718
2.08927
2.37661
2.68988
3.02955
3.39595
3.78922
4.20933
4.6561
5.12918
5.62811
6.1523
6.70107
7.27363
7.86917
8.48678
9.12554
9.78453
10.4628
11.1594
11.8733
12.6038
13.3498
14.1105
14.8852
15.6729
16.473
17.2847
18.1074
18.9404
19.7831
20.635
21.4954
22.3641
23.2404
24.1239
25.0142
25.911
26.8139
27.7226
28.6368
29.5561
30.4804
31.4093
32.3426
33.2802
34.2217
35.1671
36.1162
37.0687
38.0245
38.9834
39.9454
40.9103
41.8779
42.8481
43.8209
44.7961
45.7736
46.7533
47.7351
48.7189
49.7047
50.6923
51.6818
52.6729
53.6657
54.6601
55.656
56.6533
57.652
58.6521
59.6534
60.656
61.6598
62.6646
63.6706
64.6777
65.6857
66.6947
67.7047
68.7156
69.7273
70.7398
71.7532
72.7673
73.7822
74.7977
75.814
76.8309
77.8485
78.8667
79.8855
80.9048
81.9247
82.9452
83.9661
84.9876
86.0095
87.0319
88.0548
89.078
90.1017
91.1258
92.1503
93.1751
94.2003
95.2259
96.2518
97.278
98.3045
99.3313
100.358
101.386
102.414
103.441
104.47
105.498
106.527
107.556
108.585
109.614
110.644
111.673
112.703
113.733
114.763
115.794
116.824
117.855
118.886
119.917
120.948
121.979
123.011
124.042
125.074
126.105
127.137
128.169
129.201
130.233
131.265
132.297
133.33
134.362
135.394
136.427
137.459
138.492
139.524
140.557
141.589
142.622
143.655
144.687
145.72
146.753
147.785
148.818
149.851
150.883
151.916
152.949
153.981
155.014
156.046
157.079
158.111
159.144
160.176
161.208
162.241
163.273
164.305
165.337
166.369
167.401
168.432
169.464
170.496
171.527
172.559
173.59
174.621
175.652
176.683
177.714
178.744
179.775
180.805
181.835
182.865
183.895
184.925
185.954
186.984
188.013
189.041
190.07
191.099
192.127
193.155
194.182
195.21
196.237
197.264
198.291
199.317
200.343
201.369
202.394
203.419
204.444
205.468
206.492
207.516
208.539
209.562
210.584
211.606
212.627
213.648
214.668
215.688
216.708
217.726
218.744
219.762
220.779
221.795
222.811
223.826
224.84
225.853
226.866
227.877
228.888
229.898
230.907
231.915
232.922
233.927
234.932
235.936
236.938
237.939
238.938
239.936
240.933
241.928
242.922
243.913
244.903
245.891
246.878
247.862
248.843
249.823
250.8
251.774
252.746
253.715
254.681
255.644
256.604
257.56
258.512
259.461
260.405
261.345
262.28
263.211
264.136
265.056
265.97
266.878
267.78
268.675
269.562
270.442
271.313
272.177
273.03
273.875
274.709
275.532
276.344
277.144
277.931
278.705
279.464
280.209
280.938
281.65
282.345
283.023
283.681
284.32
284.938
285.535
286.109
286.662
287.19
287.695
288.176
288.631
289.062
289.467
289.846
290.2
290.529
290.833
291.112
291.368
291.6
291.81
291.999
292.168
292.318
292.45
292.566
292.667
292.754
292.829
292.892
292.946
292.991
293.029
293.06
293.086
293.106
293.123
293.137
293.148
293.156
293.163
293.169
293.173
293.176
293.179
293.181
293.183
293.184
293.185
293.186
293.187
293.188
293.188
293.189
293.189
293.19
293.19
293.19
293.19
293.19
293.19
293.19
293.191
293.191
293.191
293.191
293.191
293.191
293.192
293.192
293.192
293.192
293.193
293.193
293.193
293.193
293.194
293.194
293.194
293.194
293.194
293.195
293.195
293.195
293.195
293.196
293.196
293.196
293.196
293.196
293.196
293.197
293.197
293.197
293.197
293.197
293.197
293.198
293.198
293.198
293.198
293.198
293.198
293.198
293.199
293.199
293.199
293.199
293.199
293.199
293.199
293.199
293.199
293.199
293.199
293.199
293.199
293.199
293.199
293.199
293.199
293.199
293.198
293.198
293.198
293.198
293.198
293.197
293.197
293.197
293.197
293.197
293.197
293.197
293.196
293.196
293.196
293.196
293.196
293.196
293.196
293.196
293.196
293.196
293.196
293.196
293.196
293.196
293.196
293.196
293.197
293.197
293.197
293.197
293.197
293.197
293.197
293.197
293.197
293.197
293.197
293.197
293.197
293.197
293.197
293.197
293.197
293.197
293.197
293.197
293.197
293.197
293.197
293.197
293.197
293.197
293.197
293.197
293.197
293.197
293.197
293.197
293.197
293.197
293.197
293.197
293.197
293.197
293.197
293.197
293.197
293.197
293.197
293.197
293.197
293.197
293.197
293.197
293.197
293.197
293.197
293.197
293.197
293.197
293.197
293.197
293.197
293.197
293.197
293.197
293.197
293.197
293.197
293.197
293.197
293.197
293.197
293.197
293.197
293.197
293.197
293.197
293.197
293.197
293.197
293.197
293.197
293.196
293.197
293.196
293.197
293.196
293.196
293.196
293.196
293.196
293.196
293.196
293.195
293.194
293.192
293.191
293.188
293.185
293.182
293.178
293.174
293.171
293.167
293.164
293.162
293.161
293.161
293.161
293.163
293.165
293.168
293.171
293.174
293.178
293.181
293.184
293.186
293.188
293.19
293.191
293.193
293.193
293.194
293.194
293.195
293.195
293.195
293.195
293.195
293.195
293.195
293.195
293.195
293.195
293.195
293.195
293.195
293.195
293.194
293.194
293.194
293.194
293.194
293.194
293.194
293.194
293.194
293.194
293.194
293.194
293.194
293.194
293.194
293.194
293.194
293.194
293.194
293.194
293.193
293.193
293.193
293.193
293.193
293.193
293.193
293.194
293.194
293.194
293.193
293.193
293.193
293.193
293.193
293.193
293.193
293.193
293.193
293.192
293.192
293.192
293.192
293.192
293.192
293.192
293.192
293.192
293.193
293.193
293.193
293.193
293.193
293.192
293.192
293.192
293.192
293.192
293.192
293.191
293.191
293.191
293.191
293.191
293.191
293.191
293.191
293.191
293.191
293.191
293.191
293.191
293.191
293.191
293.191
293.191
293.191
293.19
293.19
293.19
293.19
293.189
293.189
293.189
293.189
293.189
293.189
293.189
293.189
293.189
293.189
293.189
293.189
293.189
293.189
293.189
293.189
293.188
293.188
293.188
293.187
293.187
293.186
293.186
293.186
293.186
293.186
293.186
293.186
293.186
293.186
293.186
293.186
293.186
293.186
293.186
293.186
293.185
293.185
293.184
293.184
293.183
293.183
293.183
293.182
293.182
293.182
293.182
293.182
293.182
293.182
293.182
293.182
293.182
293.182
293.182
293.182
293.181
293.181
293.18
293.18
293.179
293.179
293.178
293.178
293.177
293.177
293.176
293.176
293.176
293.176
293.176
293.176
293.176
293.176
293.176
293.176
293.177
293.176
293.176
293.174
293.171
293.168
293.165
293.158
293.145
293.121
293.082
292.985
292.793
292.385
291.602
289.92
285.974
276.839
255.852
212.061
143.488
72.6725
27.3235
8.33989
2.25646
0.575681
0.143892
0.0357643
0.00887713
0.00220273
0.000546535
0.000135603
3.36449e-05
8.34772e-06
2.07118e-06
5.13887e-07
1.27503e-07
3.1635e-08
7.84928e-09
1.94735e-09
4.83176e-10
1.19529e-10
2.97873e-11
6.98733e-12
1.56084e-12
2.91746e-14
2.62572e-13
3.7927e-13
3.93858e-13
1.45873e-13
3.20921e-13
8.75239e-14
3.35508e-13
1.75048e-13
2.33397e-13
2.91746e-13
6.71017e-13
4.08445e-13
3.35508e-13
3.7927e-13
3.06334e-13
4.66794e-13
1.75048e-13
2.1881e-13
5.83493e-14
4.3762e-13
2.62572e-13
6.27255e-13
1.45873e-13
5.10556e-13
3.20921e-13
7.00191e-13
4.95969e-13
6.12667e-13
1.16699e-13
3.35508e-13
2.77159e-13
7.58541e-13
)
;

boundaryField
{
    sides
    {
        type            calculated;
        value           nonuniform List<scalar> 2(7.58541e-13 9.91936e-13);
    }
    empty
    {
        type            empty;
    }
}


// ************************************************************************* //
