/*--------------------------------*- C++ -*----------------------------------*\
  =========                 |
  \\      /  F ield         | OpenFOAM: The Open Source CFD Toolbox
   \\    /   O peration     | Website:  https://openfoam.org
    \\  /    A nd           | Version:  9
     \\/     M anipulation  |
\*---------------------------------------------------------------------------*/
FoamFile
{
    format      ascii;
    class       volScalarField;
    location    "0.008";
    object      p;
}
// * * * * * * * * * * * * * * * * * * * * * * * * * * * * * * * * * * * * * //

dimensions      [1 -1 -2 0 0 0 0];

internalField   nonuniform List<scalar> 
1000
(
100000
100000
100000
100000
100000
100000
100000
100000
100000
100000
100000
100000
100000
100000
100000
100000
100000
100000
100000
100000
100000
100000
100000
100000
100000
100000
100000
100000
100000
100000
100000
100000
100000
100000
100000
100000
100000
100000
100000
100000
100000
100000
100000
100000
100000
100000
100000
100000
100000
100000
100000
100000
100000
100000
100000
100000
100000
100000
100000
100000
100000
100000
100000
100000
100000
100000
100000
100000
100000
100000
100000
100000
100000
100000
100000
100000
100000
100000
100000
100000
100000
100000
100000
100000
100000
100000
100000
100000
100000
100000
100000
100000
100000
100000
100000
100000
100000
100000
100000
100000
100000
100000
100000
100000
100000
100000
100000
100000
100000
100000
100000
100000
100000
100000
100000
100000
100000
100000
100000
100000
100000
100000
100000
100000
100000
100000
100000
100000
100000
100000
100000
100000
100000
100000
100000
100000
100000
100000
100000
100000
100000
100000
100000
100000
100000
100000
100000
99999.9
99999.9
99999.9
99999.8
99999.8
99999.7
99999.6
99999.4
99999.2
99998.9
99998.5
99997.9
99997.2
99996.3
99995.2
99993.6
99991.7
99989.2
99986
99982.1
99977.1
99970.9
99963.3
99954
99942.6
99928.8
99912.3
99892.5
99869.1
99841.5
99809.2
99771.8
99728.6
99679.2
99622.9
99559.3
99487.9
99408.2
99319.9
99222.5
99115.9
98999.7
98873.9
98738.3
98593
98437.9
98273.2
98099.1
97915.7
97723.4
97522.4
97313
97095.7
96870.7
96638.5
96399.5
96154
95902.4
95645.1
95382.6
95115
94842.9
94566.5
94286.1
94002.1
93714.7
93424.2
93130.8
92834.9
92536.5
92236
91933.5
91629.2
91323.3
91015.9
90707.2
90397.2
90086.3
89774.4
89461.7
89148.2
88834.1
88519.5
88204.5
87889
87573.3
87257.3
86941.2
86624.9
86308.6
85992.3
85676.1
85359.9
85044
84728.1
84412.6
84097.2
83782.2
83467.5
83153.2
82839.3
82525.8
82212.8
81900.2
81588.2
81276.6
80965.6
80655.2
80345.4
80036.2
79727.6
79419.6
79112.3
78805.7
78499.7
78194.5
77889.9
77586.1
77283.1
76980.7
76679.2
76378.3
76078.3
75779.1
75480.6
75182.9
74886.1
74590
74294.8
74000.4
73706.8
73414.1
73122.1
72831.1
72540.9
72251.5
71963
71675.3
71388.5
71102.6
70817.5
70533.3
70250
69967.5
69686
69405.2
69125.4
68846.5
68568.4
68291.2
68014.9
67739.5
67464.9
67191.3
66918.5
66646.6
66375.6
66105.5
65836.3
65567.9
65300.5
65033.9
64768.2
64503.4
64239.5
63976.4
63714.3
63453
63192.6
62933.1
62674.5
62416.7
62159.9
61903.9
61648.8
61394.5
61141.1
60888.7
60637
60386.3
60136.4
59887.4
59639.3
59392
59145.6
58900
58655.4
58411.6
58168.6
57926.5
57685.2
57444.9
57205.3
56966.6
56728.8
56491.8
56255.7
56020.4
55786
55552.4
55319.6
55087.7
54856.6
54626.4
54397
54168.4
53940.7
53713.8
53487.7
53262.5
53038
52814.4
52591.7
52369.7
52148.6
51928.3
51708.8
51490.1
51272.2
51055.2
50838.9
50623.5
50408.8
50195
49982
49769.8
49558.3
49347.7
49137.9
48928.9
48720.6
48513.2
48306.6
48100.7
47895.6
47691.4
47487.9
47285.2
47083.2
46882.1
46681.8
46482.2
46283.4
46085.4
45888.2
45691.7
45496
45301.1
45107
44913.7
44721.1
44529.3
44338.2
44148
43958.5
43769.8
43581.8
43394.7
43208.2
43022.6
42837.8
42653.7
42470.3
42287.8
42106
41925
41744.8
41565.4
41386.7
41208.8
41031.7
40855.4
40679.8
40505
40331.1
40157.9
39985.5
39813.9
39643.1
39473.1
39303.9
39135.5
38967.9
38801.2
38635.3
38470.2
38305.9
38142.5
37980
37818.2
37657.4
37497.4
37338.4
37180.2
37022.9
36866.5
36711.1
36556.6
36403.1
36250.5
36098.9
35948.3
35798.8
35650.3
35502.8
35356.5
35211.2
35067.1
34924.1
34782.4
34641.8
34502.5
34364.5
34227.8
34092.5
33958.6
33826.2
33695.2
33565.8
33438
33311.9
33187.5
33064.9
32944.1
32825.2
32708.4
32593.6
32480.9
32370.5
32262.4
32156.7
32053.4
31952.8
31854.8
31759.6
31667.3
31577.9
31491.6
31408.4
31328.4
31251.7
31178.3
31108.4
31042
30979.1
30919.7
30863.9
30811.6
30762.9
30717.7
30676
30637.6
30602.5
30570.6
30541.7
30515.7
30492.5
30471.9
30453.7
30437.8
30423.9
30411.9
30401.6
30392.8
30385.4
30379.2
30374
30369.6
30366.1
30363.2
30360.8
30359
30357.4
30356.2
30355.3
30354.5
30353.9
30353.4
30353.1
30352.8
30352.5
30352.3
30352.2
30352
30351.9
30351.8
30351.7
30351.7
30351.6
30351.5
30351.5
30351.5
30351.4
30351.4
30351.4
30351.4
30351.4
30351.4
30351.4
30351.3
30351.3
30351.3
30351.2
30351.2
30351.2
30351.1
30351.1
30351.1
30351
30351
30351
30350.9
30350.9
30350.9
30350.8
30350.8
30350.8
30350.7
30350.7
30350.7
30350.6
30350.6
30350.6
30350.6
30350.5
30350.5
30350.5
30350.5
30350.4
30350.4
30350.4
30350.4
30350.3
30350.3
30350.3
30350.3
30350.2
30350.2
30350.2
30350.2
30350.1
30350.1
30350.1
30350.1
30350.1
30350.1
30350.1
30350
30350
30350
30350
30350.1
30350.1
30350.1
30350.1
30350.1
30350.1
30350.2
30350.2
30350.2
30350.2
30350.3
30350.3
30350.3
30350.3
30350.3
30350.3
30350.4
30350.4
30350.4
30350.4
30350.4
30350.4
30350.4
30350.4
30350.4
30350.4
30350.3
30350.3
30350.3
30350.3
30350.3
30350.3
30350.3
30350.3
30350.3
30350.3
30350.3
30350.3
30350.2
30350.2
30350.2
30350.2
30350.2
30350.2
30350.2
30350.2
30350.2
30350.2
30350.2
30350.2
30350.2
30350.2
30350.2
30350.1
30350.1
30350.1
30350.1
30350.1
30350.1
30350.1
30350.1
30350.1
30350.1
30350.1
30350.1
30350.1
30350.1
30350.1
30350
30350
30350
30350
30350
30350
30350
30350
30350
30350
30350
30350
30350
30350
30350
30350
30349.9
30349.9
30349.9
30349.9
30349.9
30349.9
30349.9
30349.9
30349.9
30349.9
30349.9
30349.9
30349.9
30349.9
30349.9
30349.9
30349.8
30349.8
30349.8
30349.8
30349.8
30349.8
30349.8
30349.8
30349.8
30349.8
30349.8
30349.8
30349.8
30349.8
30349.7
30349.7
30349.7
30349.7
30349.6
30349.6
30349.5
30349.4
30349.3
30349.3
30349.2
30349.1
30349
30349
30348.9
30348.9
30348.9
30348.9
30349
30349
30349.1
30349.2
30349.3
30349.5
30349.6
30349.6
30349.7
30349.8
30349.8
30349.8
30349.8
30349.8
30349.8
30349.8
30349.8
30349.7
30349.7
30349.7
30349.6
30349.6
30349.5
30349.5
30349.5
30349.5
30349.5
30349.4
30349.4
30349.4
30349.4
30349.4
30349.4
30349.4
30349.4
30349.4
30349.4
30349.4
30349.4
30349.3
30349.3
30349.3
30349.3
30349.3
30349.3
30349.3
30349.3
30349.3
30349.3
30349.3
30349.3
30349.3
30349.3
30349.3
30349.3
30349.3
30349.3
30349.2
30349.2
30349.2
30349.2
30349.2
30349.2
30349.2
30349.2
30349.1
30349.1
30349.1
30349.1
30349.1
30349.1
30349.1
30349.1
30349.1
30349.2
30349.1
30349.1
30349.1
30349.1
30349.1
30349.1
30349.1
30349.1
30349
30349
30349
30349
30349
30349
30349
30349
30349
30349
30349
30349
30349
30349
30349
30349
30349
30349
30349
30348.9
30348.9
30348.9
30348.9
30348.9
30348.8
30348.8
30348.8
30348.8
30348.8
30348.8
30348.8
30348.8
30348.8
30348.8
30348.8
30348.8
30348.8
30348.8
30348.8
30348.7
30348.7
30348.7
30348.6
30348.6
30348.6
30348.6
30348.5
30348.5
30348.5
30348.5
30348.5
30348.5
30348.5
30348.6
30348.6
30348.6
30348.5
30348.5
30348.5
30348.5
30348.4
30348.4
30348.3
30348.3
30348.2
30348.2
30348.1
30348.1
30348.1
30348.1
30348.1
30348.1
30348.1
30348.2
30348.2
30348.2
30348.2
30348.2
30348.1
30348.1
30348
30348
30347.9
30347.9
30347.8
30347.8
30347.7
30347.7
30347.7
30347.7
30347.7
30347.6
30347.6
30347.6
30347.6
30347.6
30347.6
30347.6
30347.6
30347.6
30347.6
30347.5
30347.5
30347.4
30347.3
30347.2
30347.2
30347.1
30347
30346.9
30346.8
30346.7
30346.7
30346.7
30346.6
30346.3
30345.6
30344.2
30341.6
30336.2
30325.9
30305.4
30260.2
30168.3
29965.7
29500.7
28437.1
26121.5
21791.5
16887.1
13104.5
11084.8
10312.6
10081.5
10020.5
10005.1
10001.3
10000.3
10000.1
10000
10000
10000
10000
10000
10000
10000
10000
10000
10000
10000
10000
10000
10000
10000
10000
10000
10000
10000
10000
10000
10000
10000
10000
10000
10000
10000
10000
10000
10000
10000
10000
10000
10000
10000
10000
10000
10000
10000
10000
10000
10000
10000
10000
10000
10000
10000
10000
)
;

boundaryField
{
    sides
    {
        type            zeroGradient;
    }
    empty
    {
        type            empty;
    }
}


// ************************************************************************* //
