/*--------------------------------*- C++ -*----------------------------------*\
  =========                 |
  \\      /  F ield         | OpenFOAM: The Open Source CFD Toolbox
   \\    /   O peration     | Website:  https://openfoam.org
    \\  /    A nd           | Version:  9
     \\/     M anipulation  |
\*---------------------------------------------------------------------------*/
FoamFile
{
    format      ascii;
    class       volVectorField;
    location    "0.025";
    object      ddt0(rho,U);
}
// * * * * * * * * * * * * * * * * * * * * * * * * * * * * * * * * * * * * * //

dimensions      [1 -2 -2 0 0 0 0];

internalField   nonuniform List<vector> 
10000
(
(28.8709 0 0)
(25.2544 0 0)
(23.0637 0 0)
(21.0819 0 0)
(18.9174 0 0)
(16.6606 0 0)
(14.4035 0 0)
(12.1714 0 0)
(9.95371 0 0)
(7.73498 0 0)
(5.50644 0 0)
(3.27014 0 0)
(1.03481 0 0)
(-1.19232 0 0)
(-3.41007 0 0)
(-5.62357 0 0)
(-7.84146 0 0)
(-10.0698 0 0)
(-12.3081 0 0)
(-14.5509 0 0)
(-16.7905 0 0)
(-19.0199 0 0)
(-21.2373 0 0)
(-23.4448 0 0)
(-25.6476 0 0)
(-27.8531 0 0)
(-30.0671 0 0)
(-32.2932 0 0)
(-34.5326 0 0)
(-36.7842 0 0)
(-39.0454 0 0)
(-41.3122 0 0)
(-43.5808 0 0)
(-45.8482 0 0)
(-48.112 0 0)
(-50.3696 0 0)
(-52.62 0 0)
(-54.8634 0 0)
(-57.1033 0 0)
(-59.3423 0 0)
(-61.5752 0 0)
(-63.806 0 0)
(-66.0446 0 0)
(-68.2975 0 0)
(-70.537 0 0)
(-72.7569 0 0)
(-74.9834 0 0)
(-77.2155 0 0)
(-79.4439 0 0)
(-81.6688 0 0)
(-83.8972 0 0)
(-86.1281 0 0)
(-88.3586 0 0)
(-90.5883 0 0)
(-92.8178 0 0)
(-95.0475 0 0)
(-97.2772 0 0)
(-99.5073 0 0)
(-101.737 0 0)
(-103.967 0 0)
(-106.197 0 0)
(-108.426 0 0)
(-110.656 0 0)
(-112.885 0 0)
(-115.114 0 0)
(-117.343 0 0)
(-119.573 0 0)
(-121.802 0 0)
(-124.031 0 0)
(-126.261 0 0)
(-128.49 0 0)
(-130.72 0 0)
(-132.949 0 0)
(-135.178 0 0)
(-137.408 0 0)
(-139.637 0 0)
(-141.866 0 0)
(-144.096 0 0)
(-146.325 0 0)
(-148.555 0 0)
(-150.784 0 0)
(-153.013 0 0)
(-155.243 0 0)
(-157.472 0 0)
(-159.701 0 0)
(-161.93 0 0)
(-164.16 0 0)
(-166.39 0 0)
(-168.619 0 0)
(-170.848 0 0)
(-173.077 0 0)
(-175.306 0 0)
(-177.536 0 0)
(-179.766 0 0)
(-181.995 0 0)
(-184.224 0 0)
(-186.452 0 0)
(-188.681 0 0)
(-190.909 0 0)
(-193.139 0 0)
(-195.368 0 0)
(-197.598 0 0)
(-199.828 0 0)
(-202.057 0 0)
(-204.286 0 0)
(-206.515 0 0)
(-208.745 0 0)
(-210.974 0 0)
(-213.203 0 0)
(-215.433 0 0)
(-217.663 0 0)
(-219.892 0 0)
(-222.121 0 0)
(-224.351 0 0)
(-226.58 0 0)
(-228.809 0 0)
(-231.038 0 0)
(-233.267 0 0)
(-235.496 0 0)
(-237.725 0 0)
(-239.954 0 0)
(-242.183 0 0)
(-244.412 0 0)
(-246.641 0 0)
(-248.87 0 0)
(-251.099 0 0)
(-253.328 0 0)
(-255.557 0 0)
(-257.787 0 0)
(-260.016 0 0)
(-262.244 0 0)
(-264.473 0 0)
(-266.703 0 0)
(-268.932 0 0)
(-271.161 0 0)
(-273.39 0 0)
(-275.619 0 0)
(-277.847 0 0)
(-280.076 0 0)
(-282.306 0 0)
(-284.535 0 0)
(-286.764 0 0)
(-288.993 0 0)
(-291.222 0 0)
(-293.451 0 0)
(-295.679 0 0)
(-297.908 0 0)
(-300.136 0 0)
(-302.365 0 0)
(-304.593 0 0)
(-306.822 0 0)
(-309.051 0 0)
(-311.281 0 0)
(-313.51 0 0)
(-315.739 0 0)
(-317.968 0 0)
(-320.197 0 0)
(-322.425 0 0)
(-324.654 0 0)
(-326.883 0 0)
(-329.112 0 0)
(-331.341 0 0)
(-333.57 0 0)
(-335.799 0 0)
(-338.028 0 0)
(-340.257 0 0)
(-342.486 0 0)
(-344.714 0 0)
(-346.943 0 0)
(-349.172 0 0)
(-351.4 0 0)
(-353.629 0 0)
(-355.857 0 0)
(-358.086 0 0)
(-360.314 0 0)
(-362.543 0 0)
(-364.772 0 0)
(-367 0 0)
(-369.229 0 0)
(-371.457 0 0)
(-373.685 0 0)
(-375.914 0 0)
(-378.142 0 0)
(-380.371 0 0)
(-382.599 0 0)
(-384.828 0 0)
(-387.056 0 0)
(-389.284 0 0)
(-391.513 0 0)
(-393.741 0 0)
(-395.97 0 0)
(-398.198 0 0)
(-400.427 0 0)
(-402.655 0 0)
(-404.883 0 0)
(-407.111 0 0)
(-409.339 0 0)
(-411.566 0 0)
(-413.794 0 0)
(-416.022 0 0)
(-418.25 0 0)
(-420.478 0 0)
(-422.706 0 0)
(-424.934 0 0)
(-427.162 0 0)
(-429.39 0 0)
(-431.619 0 0)
(-433.847 0 0)
(-436.075 0 0)
(-438.303 0 0)
(-440.531 0 0)
(-442.758 0 0)
(-444.986 0 0)
(-447.214 0 0)
(-449.442 0 0)
(-451.67 0 0)
(-453.898 0 0)
(-456.126 0 0)
(-458.354 0 0)
(-460.582 0 0)
(-462.81 0 0)
(-465.038 0 0)
(-467.266 0 0)
(-469.494 0 0)
(-471.722 0 0)
(-473.95 0 0)
(-476.178 0 0)
(-478.406 0 0)
(-480.634 0 0)
(-482.862 0 0)
(-485.09 0 0)
(-487.318 0 0)
(-489.547 0 0)
(-491.775 0 0)
(-494.003 0 0)
(-496.232 0 0)
(-498.46 0 0)
(-500.689 0 0)
(-502.917 0 0)
(-505.146 0 0)
(-507.374 0 0)
(-509.603 0 0)
(-511.832 0 0)
(-514.061 0 0)
(-516.29 0 0)
(-518.519 0 0)
(-520.748 0 0)
(-522.977 0 0)
(-525.206 0 0)
(-527.434 0 0)
(-529.663 0 0)
(-531.892 0 0)
(-534.121 0 0)
(-536.351 0 0)
(-538.58 0 0)
(-540.809 0 0)
(-543.039 0 0)
(-545.268 0 0)
(-547.497 0 0)
(-549.727 0 0)
(-551.956 0 0)
(-554.185 0 0)
(-556.415 0 0)
(-558.644 0 0)
(-560.873 0 0)
(-563.102 0 0)
(-565.331 0 0)
(-567.56 0 0)
(-569.789 0 0)
(-572.018 0 0)
(-574.247 0 0)
(-576.475 0 0)
(-578.704 0 0)
(-580.933 0 0)
(-583.161 0 0)
(-585.39 0 0)
(-587.618 0 0)
(-589.847 0 0)
(-592.075 0 0)
(-594.303 0 0)
(-596.531 0 0)
(-598.759 0 0)
(-600.986 0 0)
(-603.214 0 0)
(-605.441 0 0)
(-607.669 0 0)
(-609.896 0 0)
(-612.123 0 0)
(-614.35 0 0)
(-616.577 0 0)
(-618.803 0 0)
(-621.03 0 0)
(-623.257 0 0)
(-625.483 0 0)
(-627.71 0 0)
(-629.937 0 0)
(-632.163 0 0)
(-634.39 0 0)
(-636.616 0 0)
(-638.842 0 0)
(-641.068 0 0)
(-643.294 0 0)
(-645.52 0 0)
(-647.746 0 0)
(-649.972 0 0)
(-652.198 0 0)
(-654.424 0 0)
(-656.65 0 0)
(-658.876 0 0)
(-661.102 0 0)
(-663.329 0 0)
(-665.555 0 0)
(-667.781 0 0)
(-670.007 0 0)
(-672.234 0 0)
(-674.46 0 0)
(-676.686 0 0)
(-678.912 0 0)
(-681.139 0 0)
(-683.365 0 0)
(-685.592 0 0)
(-687.818 0 0)
(-690.044 0 0)
(-692.271 0 0)
(-694.497 0 0)
(-696.724 0 0)
(-698.95 0 0)
(-701.177 0 0)
(-703.403 0 0)
(-705.63 0 0)
(-707.856 0 0)
(-710.083 0 0)
(-712.31 0 0)
(-714.537 0 0)
(-716.763 0 0)
(-718.99 0 0)
(-721.217 0 0)
(-723.444 0 0)
(-725.67 0 0)
(-727.897 0 0)
(-730.124 0 0)
(-732.351 0 0)
(-734.577 0 0)
(-736.804 0 0)
(-739.03 0 0)
(-741.257 0 0)
(-743.484 0 0)
(-745.71 0 0)
(-747.937 0 0)
(-750.163 0 0)
(-752.39 0 0)
(-754.617 0 0)
(-756.843 0 0)
(-759.07 0 0)
(-761.296 0 0)
(-763.523 0 0)
(-765.749 0 0)
(-767.976 0 0)
(-770.202 0 0)
(-772.428 0 0)
(-774.655 0 0)
(-776.881 0 0)
(-779.107 0 0)
(-781.333 0 0)
(-783.56 0 0)
(-785.786 0 0)
(-788.013 0 0)
(-790.239 0 0)
(-792.465 0 0)
(-794.692 0 0)
(-796.918 0 0)
(-799.144 0 0)
(-801.371 0 0)
(-803.597 0 0)
(-805.823 0 0)
(-808.049 0 0)
(-810.276 0 0)
(-812.502 0 0)
(-814.728 0 0)
(-816.954 0 0)
(-819.18 0 0)
(-821.406 0 0)
(-823.633 0 0)
(-825.859 0 0)
(-828.085 0 0)
(-830.311 0 0)
(-832.536 0 0)
(-834.762 0 0)
(-836.988 0 0)
(-839.214 0 0)
(-841.44 0 0)
(-843.666 0 0)
(-845.892 0 0)
(-848.118 0 0)
(-850.344 0 0)
(-852.57 0 0)
(-854.796 0 0)
(-857.022 0 0)
(-859.248 0 0)
(-861.474 0 0)
(-863.7 0 0)
(-865.925 0 0)
(-868.151 0 0)
(-870.377 0 0)
(-872.602 0 0)
(-874.828 0 0)
(-877.054 0 0)
(-879.279 0 0)
(-881.505 0 0)
(-883.731 0 0)
(-885.956 0 0)
(-888.182 0 0)
(-890.407 0 0)
(-892.632 0 0)
(-894.858 0 0)
(-897.083 0 0)
(-899.309 0 0)
(-901.534 0 0)
(-903.759 0 0)
(-905.985 0 0)
(-908.21 0 0)
(-910.435 0 0)
(-912.661 0 0)
(-914.886 0 0)
(-917.112 0 0)
(-919.337 0 0)
(-921.562 0 0)
(-923.788 0 0)
(-926.013 0 0)
(-928.238 0 0)
(-930.464 0 0)
(-932.689 0 0)
(-934.914 0 0)
(-937.139 0 0)
(-939.365 0 0)
(-941.59 0 0)
(-943.815 0 0)
(-946.04 0 0)
(-948.265 0 0)
(-950.49 0 0)
(-952.716 0 0)
(-954.941 0 0)
(-957.166 0 0)
(-959.391 0 0)
(-961.616 0 0)
(-963.841 0 0)
(-966.065 0 0)
(-968.29 0 0)
(-970.515 0 0)
(-972.74 0 0)
(-974.965 0 0)
(-977.19 0 0)
(-979.415 0 0)
(-981.64 0 0)
(-983.865 0 0)
(-986.089 0 0)
(-988.314 0 0)
(-990.539 0 0)
(-992.764 0 0)
(-994.989 0 0)
(-997.213 0 0)
(-999.438 0 0)
(-1001.66 0 0)
(-1003.89 0 0)
(-1006.11 0 0)
(-1008.34 0 0)
(-1010.56 0 0)
(-1012.79 0 0)
(-1015.01 0 0)
(-1017.23 0 0)
(-1019.46 0 0)
(-1021.68 0 0)
(-1023.91 0 0)
(-1026.13 0 0)
(-1028.36 0 0)
(-1030.58 0 0)
(-1032.8 0 0)
(-1035.03 0 0)
(-1037.25 0 0)
(-1039.48 0 0)
(-1041.7 0 0)
(-1043.93 0 0)
(-1046.15 0 0)
(-1048.37 0 0)
(-1050.6 0 0)
(-1052.82 0 0)
(-1055.05 0 0)
(-1057.27 0 0)
(-1059.49 0 0)
(-1061.72 0 0)
(-1063.94 0 0)
(-1066.17 0 0)
(-1068.39 0 0)
(-1070.62 0 0)
(-1072.84 0 0)
(-1075.06 0 0)
(-1077.29 0 0)
(-1079.51 0 0)
(-1081.74 0 0)
(-1083.96 0 0)
(-1086.18 0 0)
(-1088.41 0 0)
(-1090.63 0 0)
(-1092.85 0 0)
(-1095.08 0 0)
(-1097.3 0 0)
(-1099.53 0 0)
(-1101.75 0 0)
(-1103.97 0 0)
(-1106.2 0 0)
(-1108.42 0 0)
(-1110.64 0 0)
(-1112.87 0 0)
(-1115.09 0 0)
(-1117.31 0 0)
(-1119.54 0 0)
(-1121.76 0 0)
(-1123.99 0 0)
(-1126.21 0 0)
(-1128.43 0 0)
(-1130.66 0 0)
(-1132.88 0 0)
(-1135.1 0 0)
(-1137.33 0 0)
(-1139.55 0 0)
(-1141.77 0 0)
(-1144 0 0)
(-1146.22 0 0)
(-1148.44 0 0)
(-1150.67 0 0)
(-1152.89 0 0)
(-1155.11 0 0)
(-1157.34 0 0)
(-1159.56 0 0)
(-1161.78 0 0)
(-1164 0 0)
(-1166.23 0 0)
(-1168.45 0 0)
(-1170.67 0 0)
(-1172.9 0 0)
(-1175.12 0 0)
(-1177.34 0 0)
(-1179.57 0 0)
(-1181.79 0 0)
(-1184.01 0 0)
(-1186.23 0 0)
(-1188.46 0 0)
(-1190.68 0 0)
(-1192.9 0 0)
(-1195.13 0 0)
(-1197.35 0 0)
(-1199.57 0 0)
(-1201.79 0 0)
(-1204.02 0 0)
(-1206.24 0 0)
(-1208.46 0 0)
(-1210.68 0 0)
(-1212.91 0 0)
(-1215.13 0 0)
(-1217.35 0 0)
(-1219.58 0 0)
(-1221.8 0 0)
(-1224.02 0 0)
(-1226.24 0 0)
(-1228.47 0 0)
(-1230.69 0 0)
(-1232.91 0 0)
(-1235.13 0 0)
(-1237.35 0 0)
(-1239.58 0 0)
(-1241.8 0 0)
(-1244.02 0 0)
(-1246.24 0 0)
(-1248.47 0 0)
(-1250.69 0 0)
(-1252.91 0 0)
(-1255.13 0 0)
(-1257.36 0 0)
(-1259.58 0 0)
(-1261.8 0 0)
(-1264.02 0 0)
(-1266.24 0 0)
(-1268.47 0 0)
(-1270.69 0 0)
(-1272.91 0 0)
(-1275.13 0 0)
(-1277.35 0 0)
(-1279.58 0 0)
(-1281.8 0 0)
(-1284.02 0 0)
(-1286.24 0 0)
(-1288.46 0 0)
(-1290.69 0 0)
(-1292.91 0 0)
(-1295.13 0 0)
(-1297.35 0 0)
(-1299.57 0 0)
(-1301.79 0 0)
(-1304.02 0 0)
(-1306.24 0 0)
(-1308.46 0 0)
(-1310.68 0 0)
(-1312.9 0 0)
(-1315.12 0 0)
(-1317.34 0 0)
(-1319.57 0 0)
(-1321.79 0 0)
(-1324.01 0 0)
(-1326.23 0 0)
(-1328.45 0 0)
(-1330.67 0 0)
(-1332.89 0 0)
(-1335.12 0 0)
(-1337.34 0 0)
(-1339.56 0 0)
(-1341.78 0 0)
(-1344 0 0)
(-1346.22 0 0)
(-1348.44 0 0)
(-1350.66 0 0)
(-1352.89 0 0)
(-1355.11 0 0)
(-1357.33 0 0)
(-1359.55 0 0)
(-1361.77 0 0)
(-1363.99 0 0)
(-1366.21 0 0)
(-1368.43 0 0)
(-1370.65 0 0)
(-1372.87 0 0)
(-1375.09 0 0)
(-1377.32 0 0)
(-1379.54 0 0)
(-1381.76 0 0)
(-1383.98 0 0)
(-1386.2 0 0)
(-1388.42 0 0)
(-1390.64 0 0)
(-1392.86 0 0)
(-1395.08 0 0)
(-1397.3 0 0)
(-1399.52 0 0)
(-1401.74 0 0)
(-1403.96 0 0)
(-1406.18 0 0)
(-1408.4 0 0)
(-1410.62 0 0)
(-1412.84 0 0)
(-1415.07 0 0)
(-1417.29 0 0)
(-1419.51 0 0)
(-1421.73 0 0)
(-1423.95 0 0)
(-1426.17 0 0)
(-1428.39 0 0)
(-1430.61 0 0)
(-1432.83 0 0)
(-1435.05 0 0)
(-1437.27 0 0)
(-1439.49 0 0)
(-1441.71 0 0)
(-1443.93 0 0)
(-1446.15 0 0)
(-1448.37 0 0)
(-1450.59 0 0)
(-1452.81 0 0)
(-1455.03 0 0)
(-1457.25 0 0)
(-1459.47 0 0)
(-1461.69 0 0)
(-1463.91 0 0)
(-1466.13 0 0)
(-1468.35 0 0)
(-1470.57 0 0)
(-1472.79 0 0)
(-1475.01 0 0)
(-1477.22 0 0)
(-1479.44 0 0)
(-1481.66 0 0)
(-1483.88 0 0)
(-1486.1 0 0)
(-1488.32 0 0)
(-1490.54 0 0)
(-1492.76 0 0)
(-1494.98 0 0)
(-1497.2 0 0)
(-1499.42 0 0)
(-1501.64 0 0)
(-1503.86 0 0)
(-1506.08 0 0)
(-1508.3 0 0)
(-1510.52 0 0)
(-1512.74 0 0)
(-1514.95 0 0)
(-1517.17 0 0)
(-1519.39 0 0)
(-1521.61 0 0)
(-1523.83 0 0)
(-1526.05 0 0)
(-1528.27 0 0)
(-1530.49 0 0)
(-1532.71 0 0)
(-1534.93 0 0)
(-1537.14 0 0)
(-1539.36 0 0)
(-1541.58 0 0)
(-1543.8 0 0)
(-1546.02 0 0)
(-1548.24 0 0)
(-1550.46 0 0)
(-1552.68 0 0)
(-1554.89 0 0)
(-1557.11 0 0)
(-1559.33 0 0)
(-1561.55 0 0)
(-1563.77 0 0)
(-1565.99 0 0)
(-1568.21 0 0)
(-1570.42 0 0)
(-1572.64 0 0)
(-1574.86 0 0)
(-1577.08 0 0)
(-1579.3 0 0)
(-1581.52 0 0)
(-1583.73 0 0)
(-1585.95 0 0)
(-1588.17 0 0)
(-1590.39 0 0)
(-1592.61 0 0)
(-1594.83 0 0)
(-1597.04 0 0)
(-1599.26 0 0)
(-1601.48 0 0)
(-1603.7 0 0)
(-1605.92 0 0)
(-1608.13 0 0)
(-1610.35 0 0)
(-1612.57 0 0)
(-1614.79 0 0)
(-1617 0 0)
(-1619.22 0 0)
(-1621.44 0 0)
(-1623.66 0 0)
(-1625.88 0 0)
(-1628.09 0 0)
(-1630.31 0 0)
(-1632.53 0 0)
(-1634.75 0 0)
(-1636.96 0 0)
(-1639.18 0 0)
(-1641.4 0 0)
(-1643.62 0 0)
(-1645.83 0 0)
(-1648.05 0 0)
(-1650.27 0 0)
(-1652.49 0 0)
(-1654.7 0 0)
(-1656.92 0 0)
(-1659.14 0 0)
(-1661.36 0 0)
(-1663.57 0 0)
(-1665.79 0 0)
(-1668.01 0 0)
(-1670.22 0 0)
(-1672.44 0 0)
(-1674.66 0 0)
(-1676.88 0 0)
(-1679.09 0 0)
(-1681.31 0 0)
(-1683.53 0 0)
(-1685.74 0 0)
(-1687.96 0 0)
(-1690.18 0 0)
(-1692.39 0 0)
(-1694.61 0 0)
(-1696.83 0 0)
(-1699.04 0 0)
(-1701.26 0 0)
(-1703.48 0 0)
(-1705.69 0 0)
(-1707.91 0 0)
(-1710.13 0 0)
(-1712.34 0 0)
(-1714.56 0 0)
(-1716.78 0 0)
(-1718.99 0 0)
(-1721.21 0 0)
(-1723.43 0 0)
(-1725.64 0 0)
(-1727.86 0 0)
(-1730.07 0 0)
(-1732.29 0 0)
(-1734.51 0 0)
(-1736.72 0 0)
(-1738.94 0 0)
(-1741.16 0 0)
(-1743.37 0 0)
(-1745.59 0 0)
(-1747.8 0 0)
(-1750.02 0 0)
(-1752.24 0 0)
(-1754.45 0 0)
(-1756.67 0 0)
(-1758.88 0 0)
(-1761.1 0 0)
(-1763.32 0 0)
(-1765.53 0 0)
(-1767.75 0 0)
(-1769.96 0 0)
(-1772.18 0 0)
(-1774.39 0 0)
(-1776.61 0 0)
(-1778.82 0 0)
(-1781.04 0 0)
(-1783.26 0 0)
(-1785.47 0 0)
(-1787.69 0 0)
(-1789.9 0 0)
(-1792.12 0 0)
(-1794.33 0 0)
(-1796.55 0 0)
(-1798.76 0 0)
(-1800.98 0 0)
(-1803.19 0 0)
(-1805.41 0 0)
(-1807.62 0 0)
(-1809.84 0 0)
(-1812.05 0 0)
(-1814.27 0 0)
(-1816.48 0 0)
(-1818.7 0 0)
(-1820.91 0 0)
(-1823.13 0 0)
(-1825.34 0 0)
(-1827.56 0 0)
(-1829.77 0 0)
(-1831.99 0 0)
(-1834.2 0 0)
(-1836.42 0 0)
(-1838.63 0 0)
(-1840.85 0 0)
(-1843.06 0 0)
(-1845.28 0 0)
(-1847.49 0 0)
(-1849.7 0 0)
(-1851.92 0 0)
(-1854.13 0 0)
(-1856.35 0 0)
(-1858.56 0 0)
(-1860.78 0 0)
(-1862.99 0 0)
(-1865.21 0 0)
(-1867.42 0 0)
(-1869.63 0 0)
(-1871.85 0 0)
(-1874.06 0 0)
(-1876.28 0 0)
(-1878.49 0 0)
(-1880.7 0 0)
(-1882.92 0 0)
(-1885.13 0 0)
(-1887.35 0 0)
(-1889.56 0 0)
(-1891.77 0 0)
(-1893.99 0 0)
(-1896.2 0 0)
(-1898.41 0 0)
(-1900.63 0 0)
(-1902.84 0 0)
(-1905.05 0 0)
(-1907.27 0 0)
(-1909.48 0 0)
(-1911.69 0 0)
(-1913.91 0 0)
(-1916.12 0 0)
(-1918.33 0 0)
(-1920.55 0 0)
(-1922.76 0 0)
(-1924.97 0 0)
(-1927.19 0 0)
(-1929.4 0 0)
(-1931.61 0 0)
(-1933.83 0 0)
(-1936.04 0 0)
(-1938.25 0 0)
(-1940.47 0 0)
(-1942.68 0 0)
(-1944.89 0 0)
(-1947.1 0 0)
(-1949.32 0 0)
(-1951.53 0 0)
(-1953.74 0 0)
(-1955.95 0 0)
(-1958.17 0 0)
(-1960.38 0 0)
(-1962.59 0 0)
(-1964.8 0 0)
(-1967.02 0 0)
(-1969.23 0 0)
(-1971.44 0 0)
(-1973.65 0 0)
(-1975.86 0 0)
(-1978.08 0 0)
(-1980.29 0 0)
(-1982.5 0 0)
(-1984.71 0 0)
(-1986.92 0 0)
(-1989.14 0 0)
(-1991.35 0 0)
(-1993.56 0 0)
(-1995.77 0 0)
(-1997.98 0 0)
(-2000.2 0 0)
(-2002.41 0 0)
(-2004.62 0 0)
(-2006.83 0 0)
(-2009.04 0 0)
(-2011.25 0 0)
(-2013.46 0 0)
(-2015.68 0 0)
(-2017.89 0 0)
(-2020.1 0 0)
(-2022.31 0 0)
(-2024.52 0 0)
(-2026.73 0 0)
(-2028.94 0 0)
(-2031.15 0 0)
(-2033.37 0 0)
(-2035.58 0 0)
(-2037.79 0 0)
(-2040 0 0)
(-2042.21 0 0)
(-2044.42 0 0)
(-2046.63 0 0)
(-2048.84 0 0)
(-2051.05 0 0)
(-2053.26 0 0)
(-2055.47 0 0)
(-2057.68 0 0)
(-2059.89 0 0)
(-2062.1 0 0)
(-2064.31 0 0)
(-2066.52 0 0)
(-2068.73 0 0)
(-2070.94 0 0)
(-2073.16 0 0)
(-2075.37 0 0)
(-2077.58 0 0)
(-2079.79 0 0)
(-2082 0 0)
(-2084.21 0 0)
(-2086.42 0 0)
(-2088.63 0 0)
(-2090.84 0 0)
(-2093.04 0 0)
(-2095.25 0 0)
(-2097.46 0 0)
(-2099.67 0 0)
(-2101.88 0 0)
(-2104.09 0 0)
(-2106.3 0 0)
(-2108.51 0 0)
(-2110.72 0 0)
(-2112.93 0 0)
(-2115.14 0 0)
(-2117.35 0 0)
(-2119.56 0 0)
(-2121.77 0 0)
(-2123.98 0 0)
(-2126.19 0 0)
(-2128.39 0 0)
(-2130.6 0 0)
(-2132.81 0 0)
(-2135.02 0 0)
(-2137.23 0 0)
(-2139.44 0 0)
(-2141.65 0 0)
(-2143.86 0 0)
(-2146.07 0 0)
(-2148.27 0 0)
(-2150.48 0 0)
(-2152.69 0 0)
(-2154.9 0 0)
(-2157.11 0 0)
(-2159.32 0 0)
(-2161.52 0 0)
(-2163.73 0 0)
(-2165.94 0 0)
(-2168.15 0 0)
(-2170.36 0 0)
(-2172.57 0 0)
(-2174.77 0 0)
(-2176.98 0 0)
(-2179.19 0 0)
(-2181.4 0 0)
(-2183.6 0 0)
(-2185.81 0 0)
(-2188.02 0 0)
(-2190.23 0 0)
(-2192.44 0 0)
(-2194.64 0 0)
(-2196.85 0 0)
(-2199.06 0 0)
(-2201.27 0 0)
(-2203.47 0 0)
(-2205.68 0 0)
(-2207.89 0 0)
(-2210.09 0 0)
(-2212.3 0 0)
(-2214.51 0 0)
(-2216.72 0 0)
(-2218.92 0 0)
(-2221.13 0 0)
(-2223.34 0 0)
(-2225.54 0 0)
(-2227.75 0 0)
(-2229.96 0 0)
(-2232.16 0 0)
(-2234.37 0 0)
(-2236.58 0 0)
(-2238.78 0 0)
(-2240.99 0 0)
(-2243.2 0 0)
(-2245.4 0 0)
(-2247.61 0 0)
(-2249.82 0 0)
(-2252.02 0 0)
(-2254.23 0 0)
(-2256.44 0 0)
(-2258.64 0 0)
(-2260.85 0 0)
(-2263.05 0 0)
(-2265.26 0 0)
(-2267.47 0 0)
(-2269.67 0 0)
(-2271.88 0 0)
(-2274.08 0 0)
(-2276.29 0 0)
(-2278.49 0 0)
(-2280.7 0 0)
(-2282.91 0 0)
(-2285.11 0 0)
(-2287.32 0 0)
(-2289.52 0 0)
(-2291.73 0 0)
(-2293.93 0 0)
(-2296.14 0 0)
(-2298.34 0 0)
(-2300.55 0 0)
(-2302.75 0 0)
(-2304.96 0 0)
(-2307.16 0 0)
(-2309.37 0 0)
(-2311.57 0 0)
(-2313.78 0 0)
(-2315.98 0 0)
(-2318.19 0 0)
(-2320.39 0 0)
(-2322.6 0 0)
(-2324.8 0 0)
(-2327.01 0 0)
(-2329.21 0 0)
(-2331.42 0 0)
(-2333.62 0 0)
(-2335.83 0 0)
(-2338.03 0 0)
(-2340.23 0 0)
(-2342.44 0 0)
(-2344.64 0 0)
(-2346.85 0 0)
(-2349.05 0 0)
(-2351.25 0 0)
(-2353.46 0 0)
(-2355.66 0 0)
(-2357.87 0 0)
(-2360.07 0 0)
(-2362.27 0 0)
(-2364.48 0 0)
(-2366.68 0 0)
(-2368.88 0 0)
(-2371.09 0 0)
(-2373.29 0 0)
(-2375.49 0 0)
(-2377.7 0 0)
(-2379.9 0 0)
(-2382.1 0 0)
(-2384.31 0 0)
(-2386.51 0 0)
(-2388.71 0 0)
(-2390.92 0 0)
(-2393.12 0 0)
(-2395.32 0 0)
(-2397.53 0 0)
(-2399.73 0 0)
(-2401.93 0 0)
(-2404.13 0 0)
(-2406.34 0 0)
(-2408.54 0 0)
(-2410.74 0 0)
(-2412.94 0 0)
(-2415.15 0 0)
(-2417.35 0 0)
(-2419.55 0 0)
(-2421.75 0 0)
(-2423.96 0 0)
(-2426.16 0 0)
(-2428.36 0 0)
(-2430.56 0 0)
(-2432.76 0 0)
(-2434.97 0 0)
(-2437.17 0 0)
(-2439.37 0 0)
(-2441.57 0 0)
(-2443.77 0 0)
(-2445.98 0 0)
(-2448.18 0 0)
(-2450.38 0 0)
(-2452.58 0 0)
(-2454.78 0 0)
(-2456.98 0 0)
(-2459.19 0 0)
(-2461.39 0 0)
(-2463.59 0 0)
(-2465.79 0 0)
(-2467.99 0 0)
(-2470.19 0 0)
(-2472.39 0 0)
(-2474.59 0 0)
(-2476.79 0 0)
(-2479 0 0)
(-2481.2 0 0)
(-2483.4 0 0)
(-2485.6 0 0)
(-2487.8 0 0)
(-2490 0 0)
(-2492.2 0 0)
(-2494.4 0 0)
(-2496.6 0 0)
(-2498.8 0 0)
(-2501 0 0)
(-2503.2 0 0)
(-2505.4 0 0)
(-2507.6 0 0)
(-2509.8 0 0)
(-2512 0 0)
(-2514.2 0 0)
(-2516.4 0 0)
(-2518.6 0 0)
(-2520.8 0 0)
(-2523 0 0)
(-2525.2 0 0)
(-2527.4 0 0)
(-2529.6 0 0)
(-2531.8 0 0)
(-2534 0 0)
(-2536.2 0 0)
(-2538.4 0 0)
(-2540.6 0 0)
(-2542.8 0 0)
(-2544.99 0 0)
(-2547.2 0 0)
(-2549.39 0 0)
(-2551.6 0 0)
(-2553.78 0 0)
(-2556.01 0 0)
(-2558.17 0 0)
(-2560.41 0 0)
(-2562.56 0 0)
(-2564.82 0 0)
(-2566.94 0 0)
(-2569.23 0 0)
(-2571.32 0 0)
(-2573.65 0 0)
(-2575.71 0 0)
(-2578.06 0 0)
(-2580.08 0 0)
(-2582.47 0 0)
(-2584.47 0 0)
(-2586.87 0 0)
(-2588.89 0 0)
(-2591.23 0 0)
(-2593.31 0 0)
(-2595.57 0 0)
(-2597.8 0 0)
(-2599.94 0 0)
(-2602.14 0 0)
(-2604.36 0 0)
(-2606.55 0 0)
(-2608.74 0 0)
(-2610.94 0 0)
(-2613.14 0 0)
(-2615.34 0 0)
(-2617.54 0 0)
(-2619.75 0 0)
(-2621.94 0 0)
(-2624.13 0 0)
(-2626.32 0 0)
(-2628.52 0 0)
(-2630.71 0 0)
(-2632.92 0 0)
(-2635.09 0 0)
(-2637.36 0 0)
(-2639.42 0 0)
(-2641.83 0 0)
(-2643.73 0 0)
(-2646.32 0 0)
(-2648.04 0 0)
(-2650.78 0 0)
(-2652.39 0 0)
(-2655.17 0 0)
(-2656.83 0 0)
(-2659.46 0 0)
(-2661.36 0 0)
(-2663.66 0 0)
(-2665.99 0 0)
(-2667.83 0 0)
(-2670.56 0 0)
(-2672.09 0 0)
(-2675.04 0 0)
(-2676.46 0 0)
(-2679.37 0 0)
(-2681.01 0 0)
(-2683.5 0 0)
(-2685.7 0 0)
(-2687.59 0 0)
(-2690.36 0 0)
(-2691.78 0 0)
(-2694.87 0 0)
(-2696.16 0 0)
(-2699.11 0 0)
(-2700.83 0 0)
(-2703.18 0 0)
(-2705.62 0 0)
(-2707.19 0 0)
(-2710.24 0 0)
(-2711.45 0 0)
(-2714.62 0 0)
(-2716.03 0 0)
(-2718.68 0 0)
(-2720.83 0 0)
(-2722.63 0 0)
(-2725.57 0 0)
(-2726.81 0 0)
(-2730.05 0 0)
(-2731.3 0 0)
(-2734.14 0 0)
(-2736.12 0 0)
(-2738.05 0 0)
(-2740.93 0 0)
(-2742.13 0 0)
(-2745.41 0 0)
(-2746.62 0 0)
(-2749.57 0 0)
(-2751.4 0 0)
(-2753.47 0 0)
(-2756.24 0 0)
(-2757.48 0 0)
(-2760.84 0 0)
(-2761.93 0 0)
(-2764.93 0 0)
(-2766.77 0 0)
(-2768.74 0 0)
(-2771.7 0 0)
(-2772.76 0 0)
(-2776.21 0 0)
(-2777.32 0 0)
(-2780.13 0 0)
(-2782.34 0 0)
(-2783.87 0 0)
(-2787.23 0 0)
(-2788.06 0 0)
(-2791.44 0 0)
(-2792.95 0 0)
(-2795.09 0 0)
(-2798.05 0 0)
(-2798.99 0 0)
(-2802.6 0 0)
(-2803.61 0 0)
(-2806.37 0 0)
(-2808.79 0 0)
(-2810.03 0 0)
(-2813.62 0 0)
(-2814.38 0 0)
(-2817.62 0 0)
(-2819.47 0 0)
(-2821.16 0 0)
(-2824.54 0 0)
(-2825.23 0 0)
(-2828.79 0 0)
(-2830.19 0 0)
(-2832.32 0 0)
(-2835.42 0 0)
(-2836.14 0 0)
(-2839.88 0 0)
(-2840.95 0 0)
(-2843.44 0 0)
(-2846.31 0 0)
(-2847.1 0 0)
(-2850.88 0 0)
(-2851.79 0 0)
(-2854.56 0 0)
(-2857.08 0 0)
(-2858.14 0 0)
(-2861.89 0 0)
(-2862.61 0 0)
(-2865.64 0 0)
(-2867.94 0 0)
(-2869.11 0 0)
(-2872.88 0 0)
(-2873.51 0 0)
(-2876.65 0 0)
(-2878.86 0 0)
(-2880.05 0 0)
(-2883.87 0 0)
(-2884.43 0 0)
(-2887.59 0 0)
(-2889.86 0 0)
(-2890.93 0 0)
(-2894.85 0 0)
(-2895.41 0 0)
(-2898.45 0 0)
(-2900.93 0 0)
(-2901.78 0 0)
(-2905.81 0 0)
(-2906.44 0 0)
(-2909.22 0 0)
(-2912.06 0 0)
(-2912.62 0 0)
(-2916.71 0 0)
(-2917.57 0 0)
(-2919.92 0 0)
(-2923.21 0 0)
(-2923.52 0 0)
(-2927.52 0 0)
(-2928.79 0 0)
(-2930.55 0 0)
(-2934.33 0 0)
(-2934.5 0 0)
(-2938.19 0 0)
(-2940.1 0 0)
(-2941.2 0 0)
(-2945.33 0 0)
(-2945.64 0 0)
(-2948.77 0 0)
(-2951.36 0 0)
(-2952.01 0 0)
(-2956.2 0 0)
(-2956.85 0 0)
(-2959.37 0 0)
(-2962.57 0 0)
(-2962.87 0 0)
(-2966.93 0 0)
(-2968.17 0 0)
(-2969.92 0 0)
(-2973.72 0 0)
(-2973.88 0 0)
(-2977.52 0 0)
(-2979.57 0 0)
(-2980.49 0 0)
(-2984.74 0 0)
(-2985.09 0 0)
(-2987.93 0 0)
(-2991.01 0 0)
(-2991.19 0 0)
(-2995.46 0 0)
(-2996.59 0 0)
(-2998.22 0 0)
(-3002.31 0 0)
(-3002.25 0 0)
(-3005.81 0 0)
(-3008.26 0 0)
(-3008.68 0 0)
(-3013.17 0 0)
(-3013.77 0 0)
(-3015.95 0 0)
(-3019.74 0 0)
(-3019.6 0 0)
(-3023.55 0 0)
(-3025.51 0 0)
(-3026.26 0 0)
(-3030.75 0 0)
(-3031.04 0 0)
(-3033.64 0 0)
(-3037.13 0 0)
(-3037.03 0 0)
(-3041.18 0 0)
(-3042.85 0 0)
(-3043.8 0 0)
(-3048.26 0 0)
(-3048.45 0 0)
(-3051.17 0 0)
(-3054.59 0 0)
(-3054.5 0 0)
(-3058.66 0 0)
(-3060.35 0 0)
(-3061.25 0 0)
(-3065.72 0 0)
(-3065.99 0 0)
(-3068.57 0 0)
(-3072.11 0 0)
(-3072 0 0)
(-3076.03 0 0)
(-3077.95 0 0)
(-3078.64 0 0)
(-3083.16 0 0)
(-3083.6 0 0)
(-3085.85 0 0)
(-3089.71 0 0)
(-3089.51 0 0)
(-3093.29 0 0)
(-3095.69 0 0)
(-3095.95 0 0)
(-3100.55 0 0)
(-3101.38 0 0)
(-3102.96 0 0)
(-3107.33 0 0)
(-3107.15 0 0)
(-3110.32 0 0)
(-3113.55 0 0)
(-3113.33 0 0)
(-3117.69 0 0)
(-3119.37 0 0)
(-3120.03 0 0)
(-3124.75 0 0)
(-3125.08 0 0)
(-3127.19 0 0)
(-3131.31 0 0)
(-3131 0 0)
(-3134.55 0 0)
(-3137.41 0 0)
(-3137.33 0 0)
(-3141.82 0 0)
(-3143.21 0 0)
(-3144.14 0 0)
(-3148.76 0 0)
(-3148.98 0 0)
(-3151.3 0 0)
(-3155.26 0 0)
(-3154.97 0 0)
(-3158.61 0 0)
(-3161.36 0 0)
(-3161.33 0 0)
(-3165.82 0 0)
(-3167.23 0 0)
(-3168.08 0 0)
(-3172.77 0 0)
(-3173.05 0 0)
(-3175.15 0 0)
(-3179.36 0 0)
(-3179.02 0 0)
(-3182.37 0 0)
(-3185.61 0 0)
(-3185.27 0 0)
(-3189.56 0 0)
(-3191.62 0 0)
(-3191.84 0 0)
(-3196.57 0 0)
(-3197.53 0 0)
(-3198.7 0 0)
(-3203.32 0 0)
(-3203.49 0 0)
(-3205.76 0 0)
(-3209.78 0 0)
(-3209.6 0 0)
(-3212.91 0 0)
(-3216.01 0 0)
(-3215.93 0 0)
(-3220.01 0 0)
(-3222.06 0 0)
(-3222.5 0 0)
(-3226.98 0 0)
(-3228.04 0 0)
(-3229.28 0 0)
(-3233.76 0 0)
(-3234.06 0 0)
(-3236.21 0 0)
(-3240.33 0 0)
(-3240.17 0 0)
(-3243.21 0 0)
(-3246.72 0 0)
(-3246.43 0 0)
(-3250.21 0 0)
(-3252.96 0 0)
(-3252.86 0 0)
(-3257.15 0 0)
(-3259.11 0 0)
(-3259.46 0 0)
(-3263.98 0 0)
(-3265.22 0 0)
(-3266.2 0 0)
(-3270.69 0 0)
(-3271.35 0 0)
(-3273.03 0 0)
(-3277.27 0 0)
(-3277.53 0 0)
(-3279.92 0 0)
(-3283.73 0 0)
(-3283.78 0 0)
(-3286.84 0 0)
(-3290.1 0 0)
(-3290.12 0 0)
(-3293.73 0 0)
(-3296.41 0 0)
(-3296.56 0 0)
(-3300.58 0 0)
(-3302.67 0 0)
(-3303.09 0 0)
(-3307.36 0 0)
(-3308.92 0 0)
(-3309.68 0 0)
(-3314.07 0 0)
(-3315.18 0 0)
(-3316.34 0 0)
(-3320.71 0 0)
(-3321.45 0 0)
(-3323.05 0 0)
(-3327.28 0 0)
(-3327.76 0 0)
(-3329.77 0 0)
(-3333.79 0 0)
(-3334.12 0 0)
(-3336.51 0 0)
(-3340.25 0 0)
(-3340.5 0 0)
(-3343.26 0 0)
(-3346.67 0 0)
(-3346.92 0 0)
(-3350 0 0)
(-3353.07 0 0)
(-3353.37 0 0)
(-3356.73 0 0)
(-3359.46 0 0)
(-3359.84 0 0)
(-3363.43 0 0)
(-3365.86 0 0)
(-3366.32 0 0)
(-3370.09 0 0)
(-3372.27 0 0)
(-3372.83 0 0)
(-3376.72 0 0)
(-3378.7 0 0)
(-3379.36 0 0)
(-3383.3 0 0)
(-3385.13 0 0)
(-3385.94 0 0)
(-3389.85 0 0)
(-3391.56 0 0)
(-3392.53 0 0)
(-3396.39 0 0)
(-3397.98 0 0)
(-3399.13 0 0)
(-3402.93 0 0)
(-3404.39 0 0)
(-3405.74 0 0)
(-3409.47 0 0)
(-3410.81 0 0)
(-3412.32 0 0)
(-3416.02 0 0)
(-3417.24 0 0)
(-3418.88 0 0)
(-3422.56 0 0)
(-3423.7 0 0)
(-3425.43 0 0)
(-3429.1 0 0)
(-3430.17 0 0)
(-3431.97 0 0)
(-3435.62 0 0)
(-3436.68 0 0)
(-3438.5 0 0)
(-3442.12 0 0)
(-3443.2 0 0)
(-3445.02 0 0)
(-3448.61 0 0)
(-3449.71 0 0)
(-3451.56 0 0)
(-3455.1 0 0)
(-3456.23 0 0)
(-3458.1 0 0)
(-3461.58 0 0)
(-3462.75 0 0)
(-3464.63 0 0)
(-3468.08 0 0)
(-3469.27 0 0)
(-3471.14 0 0)
(-3474.58 0 0)
(-3475.78 0 0)
(-3477.66 0 0)
(-3481.08 0 0)
(-3482.3 0 0)
(-3484.15 0 0)
(-3487.59 0 0)
(-3488.85 0 0)
(-3490.62 0 0)
(-3494.09 0 0)
(-3495.42 0 0)
(-3497.07 0 0)
(-3500.58 0 0)
(-3502.01 0 0)
(-3503.55 0 0)
(-3507.02 0 0)
(-3508.6 0 0)
(-3510.05 0 0)
(-3513.44 0 0)
(-3515.19 0 0)
(-3516.58 0 0)
(-3519.87 0 0)
(-3521.74 0 0)
(-3523.11 0 0)
(-3526.33 0 0)
(-3528.26 0 0)
(-3529.62 0 0)
(-3532.81 0 0)
(-3534.8 0 0)
(-3536.11 0 0)
(-3539.27 0 0)
(-3541.39 0 0)
(-3542.57 0 0)
(-3545.7 0 0)
(-3548.01 0 0)
(-3549.08 0 0)
(-3552.08 0 0)
(-3554.6 0 0)
(-3555.65 0 0)
(-3558.44 0 0)
(-3561.14 0 0)
(-3562.26 0 0)
(-3564.82 0 0)
(-3567.63 0 0)
(-3568.85 0 0)
(-3571.27 0 0)
(-3574.11 0 0)
(-3575.41 0 0)
(-3577.73 0 0)
(-3580.61 0 0)
(-3581.95 0 0)
(-3584.15 0 0)
(-3587.14 0 0)
(-3588.52 0 0)
(-3590.53 0 0)
(-3593.67 0 0)
(-3595.13 0 0)
(-3596.91 0 0)
(-3600.11 0 0)
(-3601.81 0 0)
(-3603.34 0 0)
(-3606.47 0 0)
(-3608.48 0 0)
(-3609.84 0 0)
(-3612.81 0 0)
(-3615.07 0 0)
(-3616.41 0 0)
(-3619.18 0 0)
(-3621.59 0 0)
(-3622.98 0 0)
(-3625.59 0 0)
(-3628.11 0 0)
(-3629.51 0 0)
(-3632.01 0 0)
(-3634.66 0 0)
(-3636.03 0 0)
(-3638.4 0 0)
(-3641.22 0 0)
(-3642.61 0 0)
(-3644.73 0 0)
(-3647.72 0 0)
(-3649.28 0 0)
(-3651.07 0 0)
(-3654.13 0 0)
(-3655.97 0 0)
(-3657.53 0 0)
(-3660.46 0 0)
(-3662.6 0 0)
(-3664.07 0 0)
(-3666.79 0 0)
(-3669.15 0 0)
(-3670.63 0 0)
(-3673.19 0 0)
(-3675.66 0 0)
(-3677.17 0 0)
(-3679.6 0 0)
(-3682.19 0 0)
(-3683.71 0 0)
(-3685.98 0 0)
(-3688.74 0 0)
(-3690.29 0 0)
(-3692.3 0 0)
(-3695.23 0 0)
(-3696.96 0 0)
(-3698.66 0 0)
(-3701.59 0 0)
(-3703.66 0 0)
(-3705.15 0 0)
(-3707.86 0 0)
(-3710.27 0 0)
(-3711.74 0 0)
(-3714.2 0 0)
(-3716.75 0 0)
(-3718.34 0 0)
(-3720.6 0 0)
(-3723.21 0 0)
(-3724.9 0 0)
(-3727.01 0 0)
(-3729.71 0 0)
(-3731.46 0 0)
(-3733.38 0 0)
(-3736.18 0 0)
(-3738.1 0 0)
(-3739.77 0 0)
(-3742.52 0 0)
(-3744.78 0 0)
(-3746.27 0 0)
(-3748.8 0 0)
(-3751.35 0 0)
(-3752.89 0 0)
(-3755.13 0 0)
(-3757.79 0 0)
(-3759.53 0 0)
(-3761.52 0 0)
(-3764.21 0 0)
(-3766.12 0 0)
(-3767.96 0 0)
(-3770.63 0 0)
(-3772.7 0 0)
(-3774.41 0 0)
(-3777 0 0)
(-3779.31 0 0)
(-3780.91 0 0)
(-3783.31 0 0)
(-3785.87 0 0)
(-3787.5 0 0)
(-3789.63 0 0)
(-3792.32 0 0)
(-3794.15 0 0)
(-3796.01 0 0)
(-3798.68 0 0)
(-3800.78 0 0)
(-3802.49 0 0)
(-3805.03 0 0)
(-3807.32 0 0)
(-3809.03 0 0)
(-3811.38 0 0)
(-3813.84 0 0)
(-3815.57 0 0)
(-3817.74 0 0)
(-3820.34 0 0)
(-3822.16 0 0)
(-3824.1 0 0)
(-3826.75 0 0)
(-3828.8 0 0)
(-3830.52 0 0)
(-3833.06 0 0)
(-3835.41 0 0)
(-3837.07 0 0)
(-3839.36 0 0)
(-3841.9 0 0)
(-3843.68 0 0)
(-3845.73 0 0)
(-3848.3 0 0)
(-3850.28 0 0)
(-3852.16 0 0)
(-3854.69 0 0)
(-3856.84 0 0)
(-3858.63 0 0)
(-3861.05 0 0)
(-3863.4 0 0)
(-3865.14 0 0)
(-3867.37 0 0)
(-3869.91 0 0)
(-3871.74 0 0)
(-3873.72 0 0)
(-3876.31 0 0)
(-3878.37 0 0)
(-3880.16 0 0)
(-3882.62 0 0)
(-3884.95 0 0)
(-3886.69 0 0)
(-3888.95 0 0)
(-3891.42 0 0)
(-3893.28 0 0)
(-3895.32 0 0)
(-3897.83 0 0)
(-3899.86 0 0)
(-3901.74 0 0)
(-3904.21 0 0)
(-3906.42 0 0)
(-3908.22 0 0)
(-3910.55 0 0)
(-3912.95 0 0)
(-3914.77 0 0)
(-3916.87 0 0)
(-3919.4 0 0)
(-3921.37 0 0)
(-3923.26 0 0)
(-3925.75 0 0)
(-3927.97 0 0)
(-3929.76 0 0)
(-3932.05 0 0)
(-3934.47 0 0)
(-3936.33 0 0)
(-3938.41 0 0)
(-3940.88 0 0)
(-3942.91 0 0)
(-3944.84 0 0)
(-3947.25 0 0)
(-3949.45 0 0)
(-3951.31 0 0)
(-3953.61 0 0)
(-3955.96 0 0)
(-3957.84 0 0)
(-3959.94 0 0)
(-3962.42 0 0)
(-3964.43 0 0)
(-3966.32 0 0)
(-3968.76 0 0)
(-3971.01 0 0)
(-3972.84 0 0)
(-3975.06 0 0)
(-3977.48 0 0)
(-3979.42 0 0)
(-3981.43 0 0)
(-3983.86 0 0)
(-3985.97 0 0)
(-3987.89 0 0)
(-3990.21 0 0)
(-3992.48 0 0)
(-3994.38 0 0)
(-3996.58 0 0)
(-3998.96 0 0)
(-4000.9 0 0)
(-4002.94 0 0)
(-4005.37 0 0)
(-4007.5 0 0)
(-4009.35 0 0)
(-4011.67 0 0)
(-4014.04 0 0)
(-4015.93 0 0)
(-4017.99 0 0)
(-4020.41 0 0)
(-4022.51 0 0)
(-4024.44 0 0)
(-4026.76 0 0)
(-4028.99 0 0)
(-4030.94 0 0)
(-4033.14 0 0)
(-4035.46 0 0)
(-4037.43 0 0)
(-4039.5 0 0)
(-4041.9 0 0)
(-4044 0 0)
(-4045.9 0 0)
(-4048.21 0 0)
(-4050.54 0 0)
(-4052.45 0 0)
(-4054.51 0 0)
(-4056.93 0 0)
(-4059.03 0 0)
(-4060.97 0 0)
(-4063.25 0 0)
(-4065.5 0 0)
(-4067.48 0 0)
(-4069.64 0 0)
(-4071.95 0 0)
(-4073.96 0 0)
(-4076.02 0 0)
(-4078.37 0 0)
(-4080.51 0 0)
(-4082.42 0 0)
(-4084.69 0 0)
(-4087.03 0 0)
(-4088.98 0 0)
(-4091.01 0 0)
(-4093.38 0 0)
(-4095.55 0 0)
(-4097.48 0 0)
(-4099.7 0 0)
(-4101.99 0 0)
(-4104 0 0)
(-4106.11 0 0)
(-4108.4 0 0)
(-4110.49 0 0)
(-4112.5 0 0)
(-4114.8 0 0)
(-4117 0 0)
(-4118.94 0 0)
(-4121.12 0 0)
(-4123.47 0 0)
(-4125.52 0 0)
(-4127.47 0 0)
(-4129.79 0 0)
(-4132.04 0 0)
(-4134 0 0)
(-4136.11 0 0)
(-4138.42 0 0)
(-4140.52 0 0)
(-4142.55 0 0)
(-4144.81 0 0)
(-4146.97 0 0)
(-4148.98 0 0)
(-4151.19 0 0)
(-4153.47 0 0)
(-4155.47 0 0)
(-4157.51 0 0)
(-4159.85 0 0)
(-4162.02 0 0)
(-4163.97 0 0)
(-4166.14 0 0)
(-4168.47 0 0)
(-4170.52 0 0)
(-4172.53 0 0)
(-4174.8 0 0)
(-4176.99 0 0)
(-4179.01 0 0)
(-4181.18 0 0)
(-4183.42 0 0)
(-4185.46 0 0)
(-4187.56 0 0)
(-4189.85 0 0)
(-4191.97 0 0)
(-4193.95 0 0)
(-4196.16 0 0)
(-4198.46 0 0)
(-4200.48 0 0)
(-4202.51 0 0)
(-4204.79 0 0)
(-4206.99 0 0)
(-4208.99 0 0)
(-4211.14 0 0)
(-4213.39 0 0)
(-4215.47 0 0)
(-4217.55 0 0)
(-4219.79 0 0)
(-4221.94 0 0)
(-4223.95 0 0)
(-4226.14 0 0)
(-4228.41 0 0)
(-4230.44 0 0)
(-4232.49 0 0)
(-4234.76 0 0)
(-4236.96 0 0)
(-4238.95 0 0)
(-4241.09 0 0)
(-4243.35 0 0)
(-4245.45 0 0)
(-4247.5 0 0)
(-4249.72 0 0)
(-4251.91 0 0)
(-4253.93 0 0)
(-4256.08 0 0)
(-4258.33 0 0)
(-4260.42 0 0)
(-4262.45 0 0)
(-4264.68 0 0)
(-4266.9 0 0)
(-4268.92 0 0)
(-4271.03 0 0)
(-4273.28 0 0)
(-4275.4 0 0)
(-4277.44 0 0)
(-4279.64 0 0)
(-4281.85 0 0)
(-4283.89 0 0)
(-4285.99 0 0)
(-4288.24 0 0)
(-4290.38 0 0)
(-4292.39 0 0)
(-4294.58 0 0)
(-4296.81 0 0)
(-4298.88 0 0)
(-4300.95 0 0)
(-4303.17 0 0)
(-4305.34 0 0)
(-4307.38 0 0)
(-4309.54 0 0)