/*--------------------------------*- C++ -*----------------------------------*\
  =========                 |
  \\      /  F ield         | OpenFOAM: The Open Source CFD Toolbox
   \\    /   O peration     | Website:  https://openfoam.org
    \\  /    A nd           | Version:  9
     \\/     M anipulation  |
\*---------------------------------------------------------------------------*/
FoamFile
{
    format      ascii;
    class       surfaceScalarField;
    location    "0.025";
    object      ddtCorrDdt0(phi);
}
// * * * * * * * * * * * * * * * * * * * * * * * * * * * * * * * * * * * * * //

dimensions      [1 0 -2 0 0 0 0];

internalField   nonuniform List<scalar> 
9999
(
106.594
97.6812
88.7645
79.8591
70.9628
62.0521
53.1201
44.1938
35.2988
26.4209
17.5252
8.59752
-0.346574
-9.27546
-18.1631
-27.0153
-35.8691
-44.7586
-53.6956
-62.6689
-71.6426
-80.5815
-89.4694
-98.3043
-107.109
-115.916
-124.75
-133.634
-142.574
-151.57
-160.611
-169.676
-178.754
-187.83
-196.892
-205.927
-214.933
-223.911
-232.882
-241.841
-250.749
-259.671
-268.652
-277.681
-286.591
-295.482
-304.402
-313.333
-322.228
-331.132
-340.055
-348.978
-357.899
-366.816
-375.734
-384.653
-393.572
-402.493
-411.412
-420.332
-429.251
-438.168
-447.086
-456.002
-464.918
-473.836
-482.752
-491.67
-500.588
-509.504
-518.422
-527.34
-536.257
-545.174
-554.093
-563.01
-571.926
-580.845
-589.764
-598.679
-607.596
-616.515
-625.434
-634.35
-643.265
-652.183
-661.103
-670.021
-678.936
-687.851
-696.768
-705.688
-714.608
-723.527
-732.442
-741.355
-750.268
-759.182
-768.098
-777.016
-785.935
-794.854
-803.772
-812.689
-821.606
-830.522
-839.439
-848.357
-857.275
-866.193
-875.112
-884.029
-892.947
-901.864
-910.781
-919.696
-928.612
-937.528
-946.444
-955.36
-964.276
-973.192
-982.109
-991.025
-999.941
-1008.86
-1017.77
-1026.69
-1035.61
-1044.52
-1053.44
-1062.35
-1071.27
-1080.19
-1089.1
-1098.02
-1106.93
-1115.85
-1124.77
-1133.68
-1142.6
-1151.52
-1160.43
-1169.35
-1178.26
-1187.18
-1196.09
-1205
-1213.92
-1222.83
-1231.75
-1240.67
-1249.58
-1258.5
-1267.42
-1276.33
-1285.25
-1294.16
-1303.08
-1311.99
-1320.91
-1329.82
-1338.74
-1347.65
-1356.57
-1365.49
-1374.4
-1383.32
-1392.23
-1401.15
-1410.06
-1418.97
-1427.89
-1436.8
-1445.72
-1454.63
-1463.55
-1472.46
-1481.37
-1490.29
-1499.2
-1508.11
-1517.03
-1525.94
-1534.86
-1543.77
-1552.68
-1561.6
-1570.51
-1579.42
-1588.34
-1597.25
-1606.16
-1615.08
-1623.99
-1632.9
-1641.81
-1650.72
-1659.63
-1668.55
-1677.46
-1686.37
-1695.28
-1704.19
-1713.11
-1722.02
-1730.93
-1739.84
-1748.76
-1757.67
-1766.58
-1775.49
-1784.4
-1793.31
-1802.22
-1811.14
-1820.05
-1828.96
-1837.87
-1846.79
-1855.7
-1864.61
-1873.52
-1882.43
-1891.35
-1900.26
-1909.17
-1918.08
-1926.99
-1935.91
-1944.82
-1953.73
-1962.64
-1971.56
-1980.47
-1989.39
-1998.3
-2007.21
-2016.13
-2025.04
-2033.96
-2042.87
-2051.79
-2060.7
-2069.62
-2078.54
-2087.45
-2096.37
-2105.28
-2114.2
-2123.11
-2132.03
-2140.95
-2149.86
-2158.78
-2167.7
-2176.61
-2185.53
-2194.45
-2203.37
-2212.28
-2221.2
-2230.12
-2239.04
-2247.95
-2256.87
-2265.78
-2274.7
-2283.62
-2292.53
-2301.45
-2310.36
-2319.28
-2328.19
-2337.1
-2346.02
-2354.93
-2363.84
-2372.76
-2381.67
-2390.58
-2399.49
-2408.4
-2417.31
-2426.22
-2435.13
-2444.04
-2452.95
-2461.85
-2470.76
-2479.67
-2488.57
-2497.48
-2506.39
-2515.29
-2524.2
-2533.11
-2542.01
-2550.92
-2559.82
-2568.73
-2577.63
-2586.53
-2595.44
-2604.34
-2613.25
-2622.15
-2631.05
-2639.96
-2648.86
-2657.77
-2666.67
-2675.58
-2684.48
-2693.39
-2702.29
-2711.2
-2720.1
-2729.01
-2737.91
-2746.82
-2755.73
-2764.63
-2773.54
-2782.44
-2791.35
-2800.25
-2809.16
-2818.07
-2826.97
-2835.88
-2844.79
-2853.69
-2862.6
-2871.51
-2880.41
-2889.32
-2898.23
-2907.14
-2916.04
-2924.95
-2933.86
-2942.76
-2951.67
-2960.58
-2969.48
-2978.39
-2987.29
-2996.2
-3005.11
-3014.01
-3022.92
-3031.83
-3040.73
-3049.64
-3058.54
-3067.45
-3076.36
-3085.26
-3094.17
-3103.07
-3111.98
-3120.88
-3129.79
-3138.69
-3147.6
-3156.5
-3165.41
-3174.32
-3183.22
-3192.13
-3201.03
-3209.94
-3218.84
-3227.75
-3236.65
-3245.56
-3254.46
-3263.37
-3272.27
-3281.17
-3290.08
-3298.98
-3307.89
-3316.79
-3325.69
-3334.6
-3343.5
-3352.41
-3361.31
-3370.21
-3379.12
-3388.02
-3396.93
-3405.83
-3414.73
-3423.64
-3432.54
-3441.44
-3450.35
-3459.25
-3468.15
-3477.06
-3485.96
-3494.86
-3503.76
-3512.67
-3521.57
-3530.47
-3539.37
-3548.28
-3557.18
-3566.08
-3574.98
-3583.88
-3592.78
-3601.69
-3610.59
-3619.49
-3628.39
-3637.29
-3646.19
-3655.09
-3664
-3672.9
-3681.8
-3690.7
-3699.6
-3708.5
-3717.4
-3726.31
-3735.21
-3744.11
-3753.01
-3761.91
-3770.81
-3779.71
-3788.61
-3797.51
-3806.41
-3815.31
-3824.21
-3833.11
-3842.01
-3850.91
-3859.81
-3868.71
-3877.61
-3886.51
-3895.41
-3904.31
-3913.21
-3922.11
-3931.01
-3939.91
-3948.81
-3957.71
-3966.61
-3975.51
-3984.4
-3993.3
-4002.2
-4011.1
-4020
-4028.9
-4037.8
-4046.69
-4055.59
-4064.49
-4073.39
-4082.28
-4091.18
-4100.08
-4108.98
-4117.87
-4126.77
-4135.67
-4144.56
-4153.46
-4162.36
-4171.25
-4180.15
-4189.05
-4197.95
-4206.84
-4215.74
-4224.64
-4233.53
-4242.43
-4251.33
-4260.22
-4269.12
-4278.01
-4286.91
-4295.81
-4304.7
-4313.6
-4322.49
-4331.39
-4340.28
-4349.18
-4358.08
-4366.97
-4375.87
-4384.76
-4393.66
-4402.55
-4411.45
-4420.34
-4429.23
-4438.13
-4447.02
-4455.92
-4464.81
-4473.71
-4482.6
-4491.5
-4500.39
-4509.28
-4518.18
-4527.07
-4535.97
-4544.86
-4553.75
-4562.65
-4571.54
-4580.43
-4589.33
-4598.22
-4607.11
-4616
-4624.9
-4633.79
-4642.68
-4651.57
-4660.47
-4669.36
-4678.25
-4687.14
-4696.03
-4704.92
-4713.82
-4722.71
-4731.6
-4740.49
-4749.38
-4758.27
-4767.17
-4776.06
-4784.95
-4793.84
-4802.73
-4811.62
-4820.51
-4829.4
-4838.29
-4847.19
-4856.08
-4864.97
-4873.86
-4882.75
-4891.64
-4900.53
-4909.42
-4918.31
-4927.2
-4936.09
-4944.98
-4953.87
-4962.75
-4971.64
-4980.53
-4989.42
-4998.31
-5007.2
-5016.09
-5024.98
-5033.87
-5042.75
-5051.64
-5060.53
-5069.42
-5078.31
-5087.2
-5096.09
-5104.97
-5113.86
-5122.75
-5131.64
-5140.52
-5149.41
-5158.3
-5167.19
-5176.07
-5184.96
-5193.85
-5202.73
-5211.62
-5220.51
-5229.39
-5238.28
-5247.16
-5256.05
-5264.93
-5273.82
-5282.71
-5291.59
-5300.48
-5309.36
-5318.25
-5327.13
-5336.02
-5344.9
-5353.79
-5362.67
-5371.56
-5380.44
-5389.33
-5398.21
-5407.1
-5415.98
-5424.87
-5433.75
-5442.64
-5451.52
-5460.4
-5469.29
-5478.17
-5487.05
-5495.94
-5504.82
-5513.7
-5522.59
-5531.47
-5540.35
-5549.24
-5558.12
-5567
-5575.88
-5584.77
-5593.65
-5602.53
-5611.41
-5620.29
-5629.18
-5638.06
-5646.94
-5655.82
-5664.7
-5673.58
-5682.47
-5691.35
-5700.23
-5709.11
-5717.99
-5726.87
-5735.75
-5744.63
-5753.51
-5762.39
-5771.27
-5780.15
-5789.03
-5797.91
-5806.79
-5815.67
-5824.55
-5833.43
-5842.31
-5851.19
-5860.07
-5868.95
-5877.82
-5886.7
-5895.58
-5904.46
-5913.34
-5922.22
-5931.1
-5939.97
-5948.85
-5957.73
-5966.61
-5975.49
-5984.36
-5993.24
-6002.12
-6011
-6019.87
-6028.75
-6037.63
-6046.5
-6055.38
-6064.26
-6073.13
-6082.01
-6090.89
-6099.76
-6108.64
-6117.51
-6126.39
-6135.26
-6144.14
-6153.02
-6161.89
-6170.77
-6179.64
-6188.52
-6197.39
-6206.27
-6215.14
-6224.02
-6232.89
-6241.76
-6250.64
-6259.51
-6268.39
-6277.26
-6286.13
-6295.01
-6303.88
-6312.76
-6321.63
-6330.5
-6339.37
-6348.25
-6357.12
-6365.99
-6374.87
-6383.74
-6392.61
-6401.48
-6410.35
-6419.23
-6428.1
-6436.97
-6445.84
-6454.71
-6463.58
-6472.46
-6481.33
-6490.2
-6499.07
-6507.94
-6516.81
-6525.68
-6534.55
-6543.42
-6552.29
-6561.16
-6570.03
-6578.9
-6587.77
-6596.64
-6605.51
-6614.38
-6623.25
-6632.12
-6640.99
-6649.86
-6658.73
-6667.59
-6676.46
-6685.33
-6694.2
-6703.07
-6711.94
-6720.8
-6729.67
-6738.54
-6747.41
-6756.27
-6765.14
-6774.01
-6782.88
-6791.74
-6800.61
-6809.48
-6818.34
-6827.21
-6836.08
-6844.94
-6853.81
-6862.67
-6871.54
-6880.41
-6889.27
-6898.14
-6907
-6915.87
-6924.73
-6933.6
-6942.46
-6951.33
-6960.19
-6969.06
-6977.92
-6986.78
-6995.65
-7004.51
-7013.38
-7022.24
-7031.1
-7039.97
-7048.83
-7057.69
-7066.56
-7075.42
-7084.28
-7093.14
-7102.01
-7110.87
-7119.73
-7128.59
-7137.45
-7146.32
-7155.18
-7164.04
-7172.9
-7181.76
-7190.62
-7199.48
-7208.35
-7217.21
-7226.07
-7234.93
-7243.79
-7252.65
-7261.51
-7270.37
-7279.23
-7288.09
-7296.95
-7305.81
-7314.67
-7323.52
-7332.38
-7341.24
-7350.1
-7358.96
-7367.82
-7376.68
-7385.53
-7394.39
-7403.25
-7412.11
-7420.96
-7429.82
-7438.68
-7447.54
-7456.39
-7465.25
-7474.11
-7482.96
-7491.82
-7500.68
-7509.53
-7518.39
-7527.24
-7536.1
-7544.95
-7553.81
-7562.66
-7571.52
-7580.37
-7589.23
-7598.08
-7606.94
-7615.79
-7624.64
-7633.5
-7642.35
-7651.21
-7660.06
-7668.91
-7677.77
-7686.62
-7695.47
-7704.32
-7713.18
-7722.03
-7730.88
-7739.73
-7748.58
-7757.44
-7766.29
-7775.14
-7783.99
-7792.84
-7801.69
-7810.54
-7819.39
-7828.24
-7837.09
-7845.94
-7854.79
-7863.64
-7872.49
-7881.34
-7890.19
-7899.03
-7907.88
-7916.73
-7925.58
-7934.43
-7943.28
-7952.12
-7960.97
-7969.82
-7978.67
-7987.51
-7996.36
-8005.21
-8014.05
-8022.9
-8031.74
-8040.59
-8049.44
-8058.28
-8067.13
-8075.97
-8084.82
-8093.66
-8102.51
-8111.35
-8120.19
-8129.04
-8137.88
-8146.73
-8155.57
-8164.41
-8173.26
-8182.1
-8190.94
-8199.78
-8208.63
-8217.47
-8226.31
-8235.15
-8243.99
-8252.84
-8261.68
-8270.52
-8279.36
-8288.2
-8297.04
-8305.88
-8314.72
-8323.56
-8332.4
-8341.24
-8350.08
-8358.92
-8367.76
-8376.6
-8385.44
-8394.28
-8403.12
-8411.95
-8420.79
-8429.63
-8438.47
-8447.3
-8456.14
-8464.98
-8473.82
-8482.65
-8491.49
-8500.33
-8509.16
-8518
-8526.83
-8535.67
-8544.5
-8553.34
-8562.17
-8571.01
-8579.84
-8588.68
-8597.51
-8606.35
-8615.18
-8624.01
-8632.85
-8641.68
-8650.51
-8659.35
-8668.18
-8677.01
-8685.85
-8694.68
-8703.51
-8712.34
-8721.17
-8730
-8738.84
-8747.67
-8756.5
-8765.33
-8774.16
-8782.99
-8791.82
-8800.65
-8809.48
-8818.31
-8827.14
-8835.97
-8844.79
-8853.62
-8862.45
-8871.28
-8880.11
-8888.94
-8897.76
-8906.59
-8915.42
-8924.24
-8933.07
-8941.9
-8950.72
-8959.55
-8968.38
-8977.2
-8986.03
-8994.85
-9003.68
-9012.5
-9021.33
-9030.15
-9038.98
-9047.8
-9056.63
-9065.45
-9074.28
-9083.1
-9091.92
-9100.75
-9109.57
-9118.39
-9127.21
-9136.04
-9144.86
-9153.68
-9162.5
-9171.32
-9180.14
-9188.97
-9197.79
-9206.61
-9215.43
-9224.25
-9233.07
-9241.89
-9250.71
-9259.53
-9268.35
-9277.16
-9285.98
-9294.8
-9303.62
-9312.44
-9321.26
-9330.07
-9338.89
-9347.71
-9356.53
-9365.34
-9374.16
-9382.98
-9391.79
-9400.61
-9409.43
-9418.24
-9427.06
-9435.87
-9444.69
-9453.5
-9462.32
-9471.13
-9479.95
-9488.76
-9497.57
-9506.39
-9515.2
-9524.01
-9532.83
-9541.64
-9550.45
-9559.26
-9568.08
-9576.89
-9585.7
-9594.51
-9603.32
-9612.13
-9620.94
-9629.75
-9638.56
-9647.37
-9656.18
-9664.99
-9673.8
-9682.61
-9691.42
-9700.23
-9709.04
-9717.85
-9726.66
-9735.46
-9744.27
-9753.08
-9761.89
-9770.69
-9779.5
-9788.31
-9797.12
-9805.92
-9814.73
-9823.53
-9832.34
-9841.14
-9849.95
-9858.76
-9867.56
-9876.36
-9885.17
-9893.97
-9902.78
-9911.58
-9920.38
-9929.19
-9937.99
-9946.79
-9955.6
-9964.4
-9973.2
-9982
-9990.8
-9999.6
-10008.4
-10017.2
-10026
-10034.8
-10043.6
-10052.4
-10061.2
-10070
-10078.8
-10087.6
-10096.4
-10105.2
-10114
-10122.8
-10131.6
-10140.4
-10149.2
-10158
-10166.8
-10175.6
-10184.4
-10193.2
-10202
-10210.8
-10219.6
-10228.4
-10237.2
-10245.9
-10254.8
-10263.5
-10272.4
-10281.1
-10289.9
-10298.7
-10307.5
-10316.3
-10325.1
-10333.9
-10342.7
-10351.5
-10360.2
-10369.1
-10377.7
-10386.8
-10395.4
-10404.2
-10413
-10421.8
-10430.6
-10439.3
-10448.2
-10457
-10465.8
-10474.6
-10483.4
-10492.1
-10500.9
-10509.7
-10518.5
-10527.3
-10536
-10544.9
-10553.5
-10562.5
-10571.1
-10580.1
-10588.7
-10597.6
-10606.3
-10615.1
-10624
-10632.6
-10641.6
-10650
-10659.4
-10667.6
-10676.8
-10685.3
-10694.3
-10703
-10711.7
-10720.8
-10729
-10738.4
-10746.6
-10755.9
-10764.3
-10773.4
-10782.1
-10790.5
-10799.9
-10808
-10817.7
-10825.6
-10834.8
-10843.4
-10852.1
-10861.3
-10869.4
-10879
-10887
-10896.4
-10904.8
-10913.7
-10922.7
-10930.9
-10940.6
-10948.2
-10958.1
-10966.1
-10975
-10984.1
-10992.4
-11001.9
-11009.7
-11019.4
-11027.4
-11036.7
-11045.6
-11053.7
-11063.4
-11071
-11080.9
-11088.9
-11097.9
-11107.1
-11114.9
-11124.9
-11132.4
-11142.2
-11150.6
-11159
-11168.8
-11176.2
-11186.2
-11194.1
-11203.2
-11212.4
-11219.9
-11230.4
-11237.6
-11247.3
-11256
-11264
-11274.2
-11281.3
-11291.4
-11299.5
-11308
-11317.9
-11325.1
-11335.4
-11343.1
-11352
-11361.7
-11368.6
-11379.7
-11386.7
-11395.9
-11405.4
-11412.7
-11423.2
-11430.4
-11440.1
-11449
-11456.5
-11467.2
-11474.1
-11484
-11492.8
-11500.3
-11511
-11517.8
-11527.8
-11536.6
-11544
-11554.9
-11561.6
-11571.5
-11580.5
-11587.7
-11598.8
-11605.4
-11615.2
-11624.5
-11631.3
-11642.6
-11649.4
-11658.7
-11668.6
-11675
-11686.2
-11693.5
-11702.1
-11712.6
-11718.7
-11729.8
-11737.7
-11745.4
-11756.5
-11762.7
-11773
-11782
-11788.8
-11800.2
-11806.8
-11816.4
-11826.1
-11832.4
-11843.9
-11850.9
-11859.6
-11870.2
-11876.2
-11887.3
-11895.2
-11902.8
-11914.2
-11920.1
-11930.5
-11939.7
-11946
-11957.9
-11964.4
-11973.3
-11984.1
-11989.6
-12001
-12009.1
-12016.1
-12028.1
-12033.9
-12043.7
-12053.9
-12059.4
-12071.4
-12078.7
-12086.3
-12098.1
-12103.5
-12114
-12123.6
-12129.4
-12141.5
-12148.3
-12156.4
-12168.1
-12173.3
-12184.1
-12193.4
-12199.3
-12211.5
-12218.2
-12226.3
-12238
-12243.2
-12253.9
-12263.4
-12269.1
-12281.4
-12288.2
-12296.1
-12307.9
-12313.2
-12323.6
-12333.5
-12338.9
-12351.1
-12358.4
-12365.6
-12378
-12383.3
-12393
-12403.9
-12408.7
-12420.6
-12429
-12434.9
-12447.7
-12453.8
-12462
-12474.1
-12478.8
-12489.6
-12499.7
-12504.5
-12517
-12524.6
-12531.1
-12543.9
-12549.5
-12558.3
-12570.1
-12574.7
-12585.8
-12595.5
-12600.6
-12613.1
-12620.5
-12627.2
-12639.9
-12645.4
-12654.3
-12666.1
-12670.6
-12681.7
-12691.6
-12696.4
-12709
-12716.8
-12722.8
-12735.9
-12741.7
-12749.6
-12762.4
-12766.9
-12776.8
-12788.2
-12792.5
-12804
-12813.6
-12818.5
-12831.1
-12838.8
-12845
-12857.8
-12863.9
-12871.9
-12884.1
-12889.1
-12899
-12910
-12914.6
-12926.1
-12935.6
-12940.5
-12953.1
-12961
-12966.8
-12979.9
-12986.3
-12993.3
-13006.3
-13011.7
-13020
-13032.5
-13037.1
-13046.9
-13058.4
-13062.8
-13073.8
-13084.1
-13088.8
-13100.6
-13109.6
-13114.9
-13127.3
-13135
-13141.2
-13153.9
-13160.5
-13167.7
-13180.3
-13185.9
-13194.3
-13206.5
-13211.5
-13220.9
-13232.6
-13237.2
-13247.5
-13258.5
-13263
-13274.1
-13284.3
-13289
-13300.7
-13310.1
-13315.1
-13327.1
-13335.8
-13341.3
-13353.5
-13361.5
-13367.5
-13379.9
-13387.2
-13393.8
-13406.1
-13412.9
-13420.2
-13432.4
-13438.6
-13446.5
-13458.6
-13464.4
-13472.8
-13484.7
-13490.2
-13499.1
-13510.8
-13516.1
-13525.3
-13536.9
-13542.1
-13551.6
-13562.8
-13568.2
-13577.8
-13588.7
-13594.2
-13604.1
-13614.6
-13620.2
-13630.4
-13640.6
-13646.3
-13656.7
-13666.5
-13672.3
-13682.9
-13692.5
-13698.3
-13709.1
-13718.6
-13724.3
-13735.2
-13744.6
-13750.3
-13761.2
-13770.6
-13776.4
-13787.3
-13796.7
-13802.6
-13813.3
-13822.7
-13828.7
-13839.4
-13848.7
-13854.8
-13865.4
-13874.7
-13880.8
-13891.4
-13900.7
-13906.9
-13917.5
-13926.8
-13932.9
-13943.5
-13952.9
-13958.9
-13969.4
-13979
-13985
-13995.3
-14005.2
-14011.1
-14021.1
-14031.3
-14037.3
-14047
-14057.3
-14063.5
-14072.9
-14083.2
-14089.7
-14098.9
-14109.2
-14115.8
-14124.9
-14135.2
-14141.8
-14150.8
-14161.3
-14167.9
-14176.5
-14187.4
-14194.2
-14202.3
-14213.4
-14220.5
-14228.2
-14239.1
-14246.8
-14254.2
-14264.9
-14273
-14280.2
-14290.8
-14299
-14306.3
-14316.7
-14325.1
-14332.2
-14342.6
-14351.3
-14358.1
-14368.4
-14377.6
-14384.1
-14394
-14403.8
-14410.3
-14419.6
-14429.9
-14436.6
-14445.3
-14455.8
-14463
-14471.2
-14481.5
-14489.1
-14497.1
-14507.4
-14515.2
-14523
-14533.3
-14541.4
-14548.9
-14559.2
-14567.7
-14574.7
-14584.9
-14594
-14600.7
-14610.4
-14620.2
-14627
-14636
-14646.1
-14653.3
-14661.7
-14671.9
-14679.6
-14687.6
-14697.7
-14705.7
-14713.6
-14723.6
-14731.8
-14739.4
-14749.4
-14758.1
-14765.2
-14775.1
-14784.4
-14791.2
-14800.5
-14810.5
-14817.6
-14826
-14836.3
-14844
-14851.9
-14861.9
-14870.2
-14877.9
-14887.6
-14896.2
-14903.8
-14913.4
-14922.4
-14929.7
-14939.1
-14948.6
-14955.8
-14964.6
-14974.6
-14982.1
-14990.2
-15000.3
-15008.5
-15016
-15025.8
-15034.6
-15042.1
-15051.5
-15060.7
-15068.2
-15077.2
-15086.6
-15094.2
-15102.8
-15112.6
-15120.4
-15128.4
-15138.4
-15146.7
-15154.2
-15163.9
-15172.9
-15180.3
-15189.4
-15198.9
-15206.5
-15215
-15224.7
-15232.7
-15240.8
-15250.4
-15258.8
-15266.6
-15276.1
-15285
-15292.5
-15301.7
-15311.1
-15318.6
-15327.2
-15336.9
-15345
-15352.9
-15362.5
-15371.2
-15378.8
-15388.1
-15397.2
-15404.9
-15413.7
-15423.1
-15430.9
-15439.4
-15448.9
-15457.1
-15465
-15474.6
-15483.3
-15490.9
-15500.1
-15509.3
-15517
-15525.6
-15535.1
-15543.3
-15551.3
-15560.7
-15569.4
-15577.2
-15586.3
-15595.4
-15603.2
-15611.9
-15621.3
-15629.3
-15637.5
-15647
-15655.4
-15663.3
-15672.5
-15681.5
-15689.3
-15698
-15707.4
-15715.5
-15723.6
-15733
-15741.6
-15749.5
-15758.6
-15767.6
-15775.5
-15784.2
-15793.4
-15801.5
-15809.8
-15819.1
-15827.6
-15835.6
-15844.7
-15853.7
-15861.5
-15870.2
-15879.5
-15887.7
-15895.8
-15905.1
-15913.8
-15921.7
-15930.6
-15939.7
-15947.7
-15956.2
-15965.4
-15973.7
-15981.9
-15991.1
-15999.7
-16007.7
-16016.6
-16025.7
-16033.7
-16042
-16051.4
-16059.9
-16067.8
-16076.8
-16085.8
-16093.9
-16102.4
-16111.5
-16119.9
-16128.2
-16137.2
-16145.8
-16153.9
-16162.8
-16171.8
-16179.8
-16188.2
-16197.5
-16206
-16213.9
-16222.9
-16231.9
-16240
-16248.4
-16257.5
-16266
-16274.2
-16283.2
-16291.8
-16300
-16308.8
-16317.8
-16325.9
-16334.2
-16343.4
-16352
-16360
-16368.8
-16377.9
-16386.1
-16394.4
-16403.4
-16412
-16420.2
-16429
-16437.8
-16446
-16454.6
-16463.6
-16471.9
-16480.1
-16489.2
-16498
-16506
-16514.5
-16523.7
-16532.1
-16540.2
-16549.1
-16557.9
-16566.1
-16574.7
-16583.6
-16591.9
-16600.3
-16609.3
-16617.9
-16626
-16634.7
-16643.8
-16652
-16660.2
-16669.2
-16678
-16686.1
-16694.7
-16703.6
-16712
-16720.4
-16729.2
-16737.8
-16746
-16754.8
-16763.6
-16771.9
-16780.2
-16789.3
-16797.9
-16806
-16814.6
-16823.6
-16832
-16840.3
-16849.1
-16857.7
-16866
-16874.7
-16883.5
-16891.8
-16900.2
-16909.1
-16917.7
-16925.9
-16934.5
-16943.4
-16951.8
-16960.1
-16968.9
-16977.6
-16985.9
-16994.4
-17003.3
-17011.7
-17020
-17028.8
-17037.5
-17045.7
-17054.3
-17063.2
-17071.6
-17079.9
-17088.6
-17097.4
-17105.7
-17114.2
-17123
-17131.5
-17139.8
-17148.5
-17157.2
-17165.5
-17173.9
-17182.8
-17191.4
-17199.7
-17208.2
-17217
-17225.4
-17233.8
-17242.6
-17251.2
-17259.5
-17268.1
-17276.9
-17285.3
-17293.6
-17302.3
-17311.1
-17319.4
-17327.8
-17336.5
-17345.1
-17353.5
-17362.1
-17370.8
-17379.1
-17387.6
-17396.4
-17405
-17413.2
-17421.7
-17430.6
-17439.1
-17447.4
-17456
-17464.7
-17473.1
-17481.6
-17490.2
-17498.7
-17507.1
-17515.8
-17524.5
-17532.8
-17541.2
-17549.9
-17558.6
-17566.9
-17575.3
-17584.1
-17592.6
-17601
-17609.6
-17618.2
-17626.6
-17635.1
-17643.8
-17652.3
-17660.6
-17669.2
-17678
-17686.4
-17694.7
-17703.3
-17712
-17720.5
-17728.9
-17737.5
-17746
-17754.4
-17763.1
-17771.7
-17780.1
-17788.4
-17797.2
-17805.8
-17814.1
-17822.5
-17831.2
-17839.8
-17848.2
-17856.7
-17865.3
-17873.8
-17882.3
-17890.9
-17899.4
-17907.7
-17916.3
-17925
-17933.5
-17941.8
-17950.3
-17959
-17967.5
-17975.9
-17984.4
-17993
-18001.5
-18010
-18018.6
-18027.1
-18035.4
-18044
-18052.7
-18061.1
-18069.4
-18078
-18086.7
-18095.1
-18103.5
-18112.1
-18120.6
-18129.1
-18137.6
-18146.2
-18154.6
-18163
-18171.6
-18180.2
-18188.6
-18197
-18205.6
-18214.2
-18222.6
-18231
-18239.6
-18248.2
-18256.6
-18265.1
-18273.7
-18282.1
-18290.5
-18299.1
-18307.7
-18316.1
-18324.5
-18333.1
-18341.7
-18350.1
-18358.5
-18367.1
-18375.6
-18384
-18392.5
-18401.1
-18409.5
-18417.9
-18426.5
-18435.1
-18443.4
-18451.8
-18460.5
-18469
-18477.4
-18485.8
-18494.4
-18502.9
-18511.4
-18519.8
-18528.4
-18536.8
-18545.2
-18553.8
-18562.4
-18570.8
-18579.1
-18587.7
-18596.3
-18604.7
-18613.1
-18621.6
-18630.1
-18638.6
-18647.1
-18655.6
-18664
-18672.4
-18681
-18689.6
-18698
-18706.3
-18714.9
-18723.4
-18731.9
-18740.3
-18748.8
-18757.3
-18765.7
-18774.2
-18782.8
-18791.2
-18799.6
-18808
-18816.6
-18825.1
-18833.5
-18841.9
-18850.5
-18858.9
-18867.4
-18875.9
-18884.4
-18892.8
-18901.2
-18909.7
-18918.3
-18926.7
-18935.1
-18943.6
-18952.1
-18960.5
-18968.9
-18977.5
-18985.9
-18994.3
-19002.8
-19011.3
-19019.8
-19028.2
-19036.6
-19045.1
-19053.6
-19062
-19070.5
-19079
-19087.4
-19095.8
-19104.3
-19112.9
-19121.3
-19129.6
-19138.1
-19146.6
-19155.1
-19163.5
-19172
-19180.4
-19188.8
-19197.3
-19205.8
-19214.3
-19222.6
-19231
-19239.6
-19248.1
-19256.5
-19264.9
-19273.4
-19281.8
-19290.2
-19298.7
-19307.2
-19315.6
-19323.9
-19332.4
-19341
-19349.4
-19357.8
-19366.2
-19374.7
-19383.1
-19391.6
-19400.1
-19408.5
-19416.8
-19425.3
-19433.8
-19442.3
-19450.7
-19459
-19467.5
-19476
-19484.4
-19492.9
-19501.3
-19509.7
-19518.1
-19526.6
-19535.1
-19543.5
-19551.8
-19560.2
-19568.8
-19577.3
-19585.7
-19594
-19602.4
-19610.9
-19619.3
-19627.8
-19636.3
-19644.6
-19653
-19661.4
-19670
-19678.4
-19686.8
-19695.1
-19703.6
-19712
-19720.5
-19729
-19737.3
-19745.7
-19754.1
-19762.6
-19771.1
-19779.5
-19787.8
-19796.2
-19804.7
-19813.1
-19821.6
-19830
-19838.3
-19846.7
-19855.1
-19863.7
-19872.1
-19880.5
-19888.8
-19897.2
-19905.7
-19914.1
-19922.5
-19930.9
-19939.3
-19947.7
-19956.1
-19964.6
-19973
-19981.4
-19989.7
-19998.2
-20006.7
-20015.1
-20023.4
-20031.8
-20040.2
-20048.6
-20057.1
-20065.5
-20073.9
-20082.3
-20090.6
-20099.1
-20107.6
-20115.9
-20124.3
-20132.7
-20141.1
-20149.5
-20157.9
-20166.4
-20174.7
-20183.1
-20191.5
-20199.9
-20208.4
-20216.7
-20225.1
-20233.5
-20241.9
-20250.3
-20258.7
-20267.1
-20275.5
-20283.9
-20292.3
-20300.7
-20309.1
-20317.5
-20325.8
-20334.2
-20342.6
-20351
-20359.4
-20367.8
-20376.2
-20384.6
-20392.9
-20401.4
-20409.8
-20418.1
-20426.5
-20434.9
-20443.3
-20451.7
-20460
-20468.4
-20476.9
-20485.2
-20493.6
-20502
-20510.3
-20518.7
-20527.1
-20535.5
-20543.9
-20552.3
-20560.6
-20569
-20577.4
-20585.8
-20594.2
-20602.5
-20610.9
-20619.2
-20627.6
-20636.1
-20644.5
-20652.8
-20661.1
-20669.5
-20677.9
-20686.3
-20694.7
-20703.1
-20711.4
-20719.7
-20728.1
-20736.5
-20745
-20753.3
-20761.6
-20769.9
-20778.3
-20786.7
-20795.1
-20803.5
-20811.9
-20820.2
-20828.5
-20836.9
-20845.3
-20853.7
-20862
-20870.3
-20878.7
-20887
-20895.5
-20903.9
-20912.2
-20920.5
-20928.8
-20937.2
-20945.6
-20954
-20962.4
-20970.7
-20979
-20987.3
-20995.7
-21004.1
-21012.5
-21020.9
-21029.2
-21037.4
-21045.8
-21054.2
-21062.6
-21071
-21079.3
-21087.6
-21095.9
-21104.3
-21112.7
-21121.1
-21129.4
-21137.7
-21146
-21154.4
-21162.8
-21171.1
-21179.5
-21187.8
-21196.1
-21204.4
-21212.8
-21221.2
-21229.6
-21237.9
-21246.2
-21254.5
-21262.8
-21271.2
-21279.6
-21287.9
-21296.3
-21304.5
-21312.8
-21321.2
-21329.6
-21337.9
-21346.3
-21354.6
-21362.9
-21371.2
-21379.6
-21387.9
-21396.3
-21404.6
-21412.9
-21421.2
-21429.5
-21437.9
-21446.2
-21454.6
-21462.9
-21471.2
-21479.5
-21487.9
-21496.2
-21504.5
-21512.9
-21521.2
-21529.5
-21537.8
-21546.1
-21554.5
-21562.8
-21571.1
-21579.5
-21587.8
-21596.1
-21604.4
-21612.7
-21621.1
-21629.4
-21637.7
-21646
-21654.3
-21662.6
-21670.9
-21679.3
-21687.6
-21695.9
-21704.2
-21712.5
-21720.8
-21729.1
-21737.5
-21745.8
-21754.1
-21762.4
-21770.7
-21779
-21787.3
-21795.6
-21804
-21812.3
-21820.6
-21828.9
-21837.2
-21845.5
-21853.8
-21862.1
-21870.4
-21878.8
-21887.1
-21895.3
-21903.6
-21911.9
-21920.2
-21928.6
-21936.9
-21945.2
-21953.4
-21961.7
-21970
-21978.3
-21986.7
-21995
-22003.3
-22011.5
-22019.8
-22028.1
-22036.4
-22044.7
-22053
-22061.3
-22069.6
-22077.9
-22086.2
-22094.5
-22102.8
-22111.1
-22119.4
-22127.7
-22135.9
-22144.2
-22152.5
-22160.8
-22169.1
-22177.4
-22185.7
-22193.9
-22202.2
-22210.5
-22218.8
-22227.1
-22235.4
-22243.7
-22251.9
-22260.2
-22268.5
-22276.8
-22285.1
-22293.4
-22301.6
-22309.9
-22318.2
-22326.5
-22334.8
-22343
-22351.3
-22359.6
-22367.8
-22376.1
-22384.4
-22392.7
-22401
-22409.2
-22417.5
-22425.8
-22434
-22442.3
-22450.6
-22458.9
-22467.2
-22475.4
-22483.7
-22491.9
-22500.2
-22508.5
-22516.8
-22525
-22533.3
-22541.6
-22549.8
-22558
-22566.3
-22574.6
-22582.9
-22591.1
-22599.4
-22607.7
-22615.9
-22624.1
-22632.4
-22640.7
-22649
-22657.2
-22665.5
-22673.7
-22682
-22690.2
-22698.5
-22706.8
-22715
-22723.3
-22731.5
-22739.8
-22748
-22756.2
-22764.5
-22772.8
-22781.1
-22789.3
-22797.5
-22805.8
-22814
-22822.3
-22830.5
-22838.8
-22847
-22855.3
-22863.5
-22871.8
-22880
-22888.2
-22896.5
-22904.7
-22913
-22921.2
-22929.5
-22937.7
-22945.9
-22954.2
-22962.4
-22970.7
-22978.9
-22987.1
-22995.4
-23003.6
-23011.9
-23020.1
-23028.3
-23036.6
-23044.8
-23053
-23061.3
-23069.5
-23077.7
-23086
-23094.2
-23102.4
-23110.7
-23118.9
-23127.1
-23135.4
-23143.6
-23151.8
-23160
-23168.3
-23176.5
-23184.7
-23192.9
-23201.2
-23209.4
-23217.6
-23225.8
-23234
-23242.3
-23250.5
-23258.7
-23267
-23275.2
-23283.4
-23291.6
-23299.8
-23308
-23316.3
-23324.5
-23332.7
-23340.9
-23349.1
-23357.3
-23365.5
-23373.8
-23382
-23390.2
-23398.4
-23406.6
-23414.9
-23423.1
-23431.3
-23439.5
-23447.7
-23455.9
-23464.1
-23472.3
-23480.5
-23488.7
-23496.9
-23505.1
-23513.3
-23521.5
-23529.7
-23537.9
-23546.2
-23554.4
-23562.6
-23570.8
-23579
-23587.2
-23595.3
-23603.5
-23611.7
-23620
-23628.1
-23636.3
-23644.5
-23652.7
-23660.9
-23669.1
-23677.3
-23685.5
-23693.7
-23701.9
-23710.1
-23718.3
-23726.5
-23734.7
-23742.9
-23751.1
-23759.2
-23767.4
-23775.6
-23783.8
-23792
-23800.2
-23808.4
-23816.6
-23824.7
-23832.9
-23841.1
-23849.3
-23857.5
-23865.6
-23873.8
-23882
-23890.2
-23898.4
-23906.6
-23914.7
-23922.9
-23931.1
-23939.3
-23947.4
-23955.6
-23963.8
-23972
-23980.1
-23988.3
-23996.5
-24004.7
-24012.8
-24021
-24029.2
-24037.4
-24045.5
-24053.7
-24061.9
-24070
-24078.2
-24086.4
-24094.5
-24102.7
-24110.9
-24119
-24127.2
-24135.4
-24143.5
-24151.7
-24159.8
-24168
-24176.2
-24184.4
-24192.5
-24200.7
-24208.8
-24217
-24225.1
-24233.3
-24241.5
-24249.6
-24257.8
-24265.9
-24274.1
-24282.2
-24290.3
-24298.5
-24306.6
-24314.8
-24323
-24331.1
-24339.3
-24347.5
-24355.6
-24363.7
-24371.9
-24380
-24388.2
-24396.3
-24404.5
-24412.6
-24420.8
-24428.9
-24437
-24445.2
-24453.3
-24461.5
-24469.6
-24477.8
-24485.9
-24494
-24502.2
-24510.3
-24518.4
-24526.6
-24534.7
-24542.8
-24551
-24559.1
-24567.3
-24575.4
-24583.5
-24591.7
-24599.8
-24607.9
-24616.1
-24624.2
-24632.3
-24640.5
-24648.6
-24656.7
-24664.8
-24673
-24681.1
-24689.2
-24697.3
-24705.5
-24713.6
-24721.7
-24729.8
-24737.9
-24746.1
-24754.2
-24762.3
-24770.4
-24778.5
-24786.7
-24794.8
-24802.9
-24811
-24819.1
-24827.2
-24835.4
-24843.5
-24851.6
-24859.7
-24867.8
-24875.9
-24884.1
-24892.2
-24900.3
-24908.4
-24916.5
-24924.6
-24932.7
-24940.8
-24948.9
-24957
-24965.2
-24973.3
-24981.4
-24989.5
-24997.6
-25005.7
-25013.8
-25021.9
-25029.9
-25038
-25046.1
-25054.3
-25062.4
-25070.5
-25078.6
-25086.7
-25094.8
-25102.9
-25110.9
-25119
-25127.1
-25135.2
-25143.3
-25151.4
-25159.5
-25167.7
-25175.8
-25183.9
-25191.9
-25200
-25208.1
-25216.1
-25224.2
-25232.3
-25240.4
-25248.5
-25256.6
-25264.7
-25272.8
-25280.9
-25288.9
-25297
-25305.1
-25313.1
-25321.2
-25329.3
-25337.4
-25345.5
-25353.6
-25361.7
-25369.8
-25377.8
-25385.9
-25393.9
-25402
-25410.1
-25418.1
-25426.2
-25434.3
-25442.4
-25450.5
-25458.6
-25466.6
-25474.7
-25482.7
-25490.8
-25498.8
-25506.9
-25515
-25523.1
-25531.2
-25539.3
-25547.4
-25555.4
-25563.5
-25571.5
-25579.5
-25587.6
-25595.6
-25603.6
-25611.7
-25619.8
-25627.9
-25636
-25644.1
-25652.1
-25660.2
-25668.2
-25676.2
-25684.2
-25692.3
-25700.3
-25708.3
-25716.4
-25724.5
-25732.6
-25740.7
-25748.8
-25756.8
-25764.9
-25772.9
-25780.9
-25788.9
-25796.9
-25804.9
-25813
-25821.1
-25829.1
-25837.2
-25845.3
-25853.3
-25861.4
-25869.4
-25877.4
-25885.4
-25893.5
-25901.5
-25909.5
-25917.6
-25925.6
-25933.7
-25941.7
-25949.8
-25957.8
-25965.8
-25973.9
-25981.9
-25989.9
-25997.9
-26005.9
-26013.9
-26022
-26030
-26038.1
-26046.1
-26054.2
-26062.2
-26070.2
-26078.2
-26086.2
-26094.2
-26102.2
-26110.3
-26118.3
-26126.3
-26134.3
-26142.4
-26150.4
-26158.5
-26166.5
-26174.5
-26182.5
-26190.5
-26198.5
-26206.5
-26214.5
-26222.5
-26230.5
-26238.5
-26246.5
-26254.6
-26262.6
-26270.7
-26278.7
-26286.7
-26294.7
-26302.7
-26310.7
-26318.7
-26326.7
-26334.7
-26342.7
-26350.7
-26358.7
-26366.7
-26374.7
-26382.7
-26390.7
-26398.8
-26406.8
-26414.7
-26422.7
-26430.7
-26438.7
-26446.7
-26454.7
-26462.7
-26470.7
-26478.7
-26486.7
-26494.7
-26502.7
-26510.7
-26518.7
-26526.7
-26534.7
-26542.6
-26550.6
-26558.6
-26566.6
-26574.6
-26582.5
-26590.5
-26598.5
-26606.5
-26614.5
-26622.5
-26630.5
-26638.5
-26646.5
-26654.5
-26662.4
-26670.4
-26678.4
-26686.4
-26694.3
-26702.3
-26710.2
-26718.2
-26726.2
-26734.2
-26742.2
-26750.1
-26758.1
-26766.1
-26774.1
-26782.1
-26790.1
-26798.1
-26806
-26814
-26821.9
-26829.8
-26837.8
-26845.7
-26853.7
-26861.6
-26869.6
-26877.5
-26885.5
-26893.5
-26901.5
-26909.5
-26917.5
-26925.5
-26933.5
-26941.5
-26949.4
-26957.4
-26965.3
-26973.3
-26981.2
-26989.1
-26997
-27004.9
-27012.9
-27020.8
-27028.8
-27036.7
-27044.7
-27052.7
-27060.6
-27068.6
-27076.6
-27084.6
-27092.5
-27100.4
-27108.4
-27116.3
-27124.2
-27132.1
-27140
-27148
-27155.9
-27163.8
-27171.8
-27179.7
-27187.7
-27195.7
-27203.6
-27211.6
-27219.6
-27227.6
-27235.5
-27243.5
-27251.4
-27259.3
-27267.2
-27275.1
-27283
-27290.9
-27298.8
-27306.8
-27314.7
-27322.6
-27330.5
-27338.4
-27346.4
-27354.3
-27362.3
-27370.2
-27378.2
-27386.1
-27394.1
-27402
-27409.9
-27417.8
-27425.7
-27433.6
-27441.5
-27449.4
-27457.3
-27465.2
-27473.1
-27481
-27488.9
-27496.9
-27504.8
-27512.7
-27520.7
-27528.6
-27536.6
-27544.5
-27552.4
-27560.4
-27568.3
-27576.2
-27584.1
-27592.1
-27600
-27607.9
-27615.7
-27623.6
-27631.5
-27639.4
-27647.3
-27655.2
-27663.1
-27671
-27678.9
-27686.8
-27694.7
-27702.6
-27710.5
-27718.4
-27726.3
-27734.2
-27742.1
-27750
-27757.9
-27765.8
-27773.7
-27781.6
-27789.5
-27797.3
-27805.2
-27813.1
-27821
-27828.8
-27836.7
-27844.5
-27852.4
-27860.3
-27868.1
-27876
-27883.9
-27891.7
-27899.6
-27907.4
-27915.3
-27923.2
-27931
-27938.9
-27946.7
-27954.6
-27962.4
-27970.3
-27978.1
-27986
-27993.8
-28001.7
-28009.5
-28017.4
-28025.3
-28033.1
-28041
-28048.8
-28056.7
-28064.6
-28072.5
-28080.3
-28088.2
-28096.1
-28104
-28111.9
-28119.8
-28127.7
-28135.6
-28143.5
-28151.4
-28159.3
-28167.3
-28175.2
-28183.1
-28191
-28198.9
-28206.8
-28214.7
-28222.6
-28230.4
-28238.3
-28246.2
-28254.1
-28262
-28269.8
-28277.7
-28285.5
-28293.4
-28301.2
-28309.1
-28316.9
-28324.8