/*--------------------------------*- C++ -*----------------------------------*\
  =========                 |
  \\      /  F ield         | OpenFOAM: The Open Source CFD Toolbox
   \\    /   O peration     | Website:  https://openfoam.org
    \\  /    A nd           | Version:  9
     \\/     M anipulation  |
\*---------------------------------------------------------------------------*/
FoamFile
{
    format      ascii;
    class       volScalarField;
    location    "0.025";
    object      rho_0;
}
// * * * * * * * * * * * * * * * * * * * * * * * * * * * * * * * * * * * * * //

dimensions      [1 -3 0 0 0 0 0];

internalField   nonuniform List<scalar> 
10000
(
0.389727
0.389718
0.389706
0.389695
0.389683
0.389671
0.389659
0.389648
0.389637
0.389625
0.389613
0.389601
0.38959
0.389579
0.389568
0.389557
0.389545
0.389533
0.389521
0.389509
0.389498
0.389488
0.389478
0.389468
0.389457
0.389446
0.389433
0.389421
0.389408
0.389395
0.389384
0.389373
0.389364
0.389356
0.38935
0.389344
0.389339
0.389336
0.389332
0.389329
0.389326
0.389323
0.38932
0.389318
0.389315
0.389313
0.389311
0.389309
0.389307
0.389305
0.389303
0.389301
0.389299
0.389296
0.389294
0.389292
0.38929
0.389288
0.389286
0.389284
0.389281
0.389279
0.389277
0.389275
0.389273
0.389271
0.389268
0.389266
0.389264
0.389262
0.38926
0.389258
0.389255
0.389253
0.389251
0.389249
0.389247
0.389244
0.389242
0.38924
0.389238
0.389236
0.389234
0.389231
0.389229
0.389227
0.389225
0.389223
0.38922
0.389218
0.389216
0.389214
0.389212
0.389209
0.389207
0.389205
0.389203
0.389201
0.389198
0.389196
0.389194
0.389192
0.38919
0.389187
0.389185
0.389183
0.389181
0.389178
0.389176
0.389174
0.389172
0.38917
0.389167
0.389165
0.389163
0.389161
0.389158
0.389156
0.389154
0.389152
0.38915
0.389147
0.389145
0.389143
0.389141
0.389138
0.389136
0.389134
0.389132
0.389129
0.389127
0.389125
0.389123
0.38912
0.389118
0.389116
0.389114
0.389111
0.389109
0.389107
0.389105
0.389102
0.3891
0.389098
0.389096
0.389093
0.389091
0.389089
0.389087
0.389084
0.389082
0.38908
0.389078
0.389075
0.389073
0.389071
0.389069
0.389066
0.389064
0.389062
0.389059
0.389057
0.389055
0.389053
0.38905
0.389048
0.389046
0.389043
0.389041
0.389039
0.389037
0.389034
0.389032
0.38903
0.389027
0.389025
0.389023
0.389021
0.389018
0.389016
0.389014
0.389011
0.389009
0.389007
0.389004
0.389002
0.389
0.388998
0.388995
0.388993
0.388991
0.388988
0.388986
0.388984
0.388981
0.388979
0.388977
0.388974
0.388972
0.38897
0.388967
0.388965
0.388963
0.38896
0.388958
0.388956
0.388954
0.388951
0.388949
0.388947
0.388944
0.388942
0.38894
0.388937
0.388935
0.388932
0.38893
0.388928
0.388925
0.388923
0.388921
0.388918
0.388916
0.388914
0.388911
0.388909
0.388907
0.388904
0.388902
0.3889
0.388897
0.388895
0.388893
0.38889
0.388888
0.388885
0.388883
0.388881
0.388878
0.388876
0.388874
0.388871
0.388869
0.388867
0.388864
0.388862
0.388859
0.388857
0.388855
0.388852
0.38885
0.388848
0.388845
0.388843
0.38884
0.388838
0.388836
0.388833
0.388831
0.388828
0.388826
0.388824
0.388821
0.388819
0.388816
0.388814
0.388812
0.388809
0.388807
0.388804
0.388802
0.3888
0.388797
0.388795
0.388792
0.38879
0.388788
0.388785
0.388783
0.38878
0.388778
0.388776
0.388773
0.388771
0.388768
0.388766
0.388763
0.388761
0.388759
0.388756
0.388754
0.388751
0.388749
0.388747
0.388744
0.388742
0.388739
0.388737
0.388734
0.388732
0.388729
0.388727
0.388725
0.388722
0.38872
0.388717
0.388715
0.388712
0.38871
0.388707
0.388705
0.388703
0.3887
0.388698
0.388695
0.388693
0.38869
0.388688
0.388685
0.388683
0.38868
0.388678
0.388676
0.388673
0.388671
0.388668
0.388666
0.388663
0.388661
0.388658
0.388656
0.388653
0.388651
0.388648
0.388646
0.388643
0.388641
0.388638
0.388636
0.388634
0.388631
0.388629
0.388626
0.388624
0.388621
0.388619
0.388616
0.388614
0.388611
0.388609
0.388606
0.388604
0.388601
0.388599
0.388596
0.388594
0.388591
0.388589
0.388586
0.388584
0.388581
0.388579
0.388576
0.388574
0.388571
0.388569
0.388566
0.388564
0.388561
0.388559
0.388556
0.388553
0.388551
0.388548
0.388546
0.388543
0.388541
0.388538
0.388536
0.388533
0.388531
0.388528
0.388526
0.388523
0.388521
0.388518
0.388516
0.388513
0.38851
0.388508
0.388505
0.388503
0.3885
0.388498
0.388495
0.388493
0.38849
0.388488
0.388485
0.388482
0.38848
0.388477
0.388475
0.388472
0.38847
0.388467
0.388465
0.388462
0.388459
0.388457
0.388454
0.388452
0.388449
0.388447
0.388444
0.388441
0.388439
0.388436
0.388434
0.388431
0.388429
0.388426
0.388423
0.388421
0.388418
0.388416
0.388413
0.388411
0.388408
0.388405
0.388403
0.3884
0.388398
0.388395
0.388392
0.38839
0.388387
0.388385
0.388382
0.388379
0.388377
0.388374
0.388372
0.388369
0.388366
0.388364
0.388361
0.388359
0.388356
0.388353
0.388351
0.388348
0.388346
0.388343
0.38834
0.388338
0.388335
0.388332
0.38833
0.388327
0.388325
0.388322
0.388319
0.388317
0.388314
0.388311
0.388309
0.388306
0.388304
0.388301
0.388298
0.388296
0.388293
0.38829
0.388288
0.388285
0.388282
0.38828
0.388277
0.388275
0.388272
0.388269
0.388267
0.388264
0.388261
0.388259
0.388256
0.388253
0.388251
0.388248
0.388245
0.388243
0.38824
0.388237
0.388235
0.388232
0.388229
0.388227
0.388224
0.388221
0.388219
0.388216
0.388213
0.388211
0.388208
0.388205
0.388203
0.3882
0.388197
0.388195
0.388192
0.388189
0.388187
0.388184
0.388181
0.388178
0.388176
0.388173
0.38817
0.388168
0.388165
0.388162
0.38816
0.388157
0.388154
0.388152
0.388149
0.388146
0.388143
0.388141
0.388138
0.388135
0.388133
0.38813
0.388127
0.388124
0.388122
0.388119
0.388116
0.388114
0.388111
0.388108
0.388105
0.388103
0.3881
0.388097
0.388095
0.388092
0.388089
0.388086
0.388084
0.388081
0.388078
0.388075
0.388073
0.38807
0.388067
0.388065
0.388062
0.388059
0.388056
0.388054
0.388051
0.388048
0.388045
0.388043
0.38804
0.388037
0.388034
0.388032
0.388029
0.388026
0.388023
0.388021
0.388018
0.388015
0.388012
0.38801
0.388007
0.388004
0.388001
0.387998
0.387996
0.387993
0.38799
0.387987
0.387985
0.387982
0.387979
0.387976
0.387974
0.387971
0.387968
0.387965
0.387962
0.38796
0.387957
0.387954
0.387951
0.387949
0.387946
0.387943
0.38794
0.387937
0.387935
0.387932
0.387929
0.387926
0.387923
0.387921
0.387918
0.387915
0.387912
0.387909
0.387907
0.387904
0.387901
0.387898
0.387895
0.387893
0.38789
0.387887
0.387884
0.387881
0.387878
0.387876
0.387873
0.38787
0.387867
0.387864
0.387862
0.387859
0.387856
0.387853
0.38785
0.387847
0.387845
0.387842
0.387839
0.387836
0.387833
0.38783
0.387828
0.387825
0.387822
0.387819
0.387816
0.387813
0.387811
0.387808
0.387805
0.387802
0.387799
0.387796
0.387793
0.387791
0.387788
0.387785
0.387782
0.387779
0.387776
0.387773
0.387771
0.387768
0.387765
0.387762
0.387759
0.387756
0.387753
0.387751
0.387748
0.387745
0.387742
0.387739
0.387736
0.387733
0.38773
0.387728
0.387725
0.387722
0.387719
0.387716
0.387713
0.38771
0.387707
0.387704
0.387702
0.387699
0.387696
0.387693
0.38769
0.387687
0.387684
0.387681
0.387678
0.387675
0.387673
0.38767
0.387667
0.387664
0.387661
0.387658
0.387655
0.387652
0.387649
0.387646
0.387643
0.387641
0.387638
0.387635
0.387632
0.387629
0.387626
0.387623
0.38762
0.387617
0.387614
0.387611
0.387608
0.387606
0.387603
0.3876
0.387597
0.387594
0.387591
0.387588
0.387585
0.387582
0.387579
0.387576
0.387573
0.38757
0.387567
0.387564
0.387561
0.387558
0.387556
0.387553
0.38755
0.387547
0.387544
0.387541
0.387538
0.387535
0.387532
0.387529
0.387526
0.387523
0.38752
0.387517
0.387514
0.387511
0.387508
0.387505
0.387502
0.387499
0.387496
0.387493
0.38749
0.387487
0.387484
0.387481
0.387478
0.387475
0.387472
0.387469
0.387467
0.387464
0.387461
0.387458
0.387455
0.387452
0.387449
0.387446
0.387443
0.38744
0.387437
0.387434
0.387431
0.387428
0.387425
0.387422
0.387419
0.387416
0.387413
0.38741
0.387407
0.387404
0.387401
0.387398
0.387395
0.387391
0.387388
0.387385
0.387382
0.387379
0.387376
0.387373
0.38737
0.387367
0.387364
0.387361
0.387358
0.387355
0.387352
0.387349
0.387346
0.387343
0.38734
0.387337
0.387334
0.387331
0.387328
0.387325
0.387322
0.387319
0.387316
0.387313
0.38731
0.387307
0.387304
0.3873
0.387297
0.387294
0.387291
0.387288
0.387285
0.387282
0.387279
0.387276
0.387273
0.38727
0.387267
0.387264
0.387261
0.387258
0.387255
0.387252
0.387248
0.387245
0.387242
0.387239
0.387236
0.387233
0.38723
0.387227
0.387224
0.387221
0.387218
0.387215
0.387212
0.387208
0.387205
0.387202
0.387199
0.387196
0.387193
0.38719
0.387187
0.387184
0.387181
0.387177
0.387174
0.387171
0.387168
0.387165
0.387162
0.387159
0.387156
0.387153
0.38715
0.387146
0.387143
0.38714
0.387137
0.387134
0.387131
0.387128
0.387125
0.387122
0.387118
0.387115
0.387112
0.387109
0.387106
0.387103
0.3871
0.387097
0.387093
0.38709
0.387087
0.387084
0.387081
0.387078
0.387075
0.387071
0.387068
0.387065
0.387062
0.387059
0.387056
0.387053
0.387049
0.387046
0.387043
0.38704
0.387037
0.387034
0.387031
0.387027
0.387024
0.387021
0.387018
0.387015
0.387012
0.387008
0.387005
0.387002
0.386999
0.386996
0.386993
0.386989
0.386986
0.386983
0.38698
0.386977
0.386974
0.38697
0.386967
0.386964
0.386961
0.386958
0.386954
0.386951
0.386948
0.386945
0.386942
0.386938
0.386935
0.386932
0.386929
0.386926
0.386923
0.386919
0.386916
0.386913
0.38691
0.386907
0.386903
0.3869
0.386897
0.386894
0.386891
0.386887
0.386884
0.386881
0.386878
0.386874
0.386871
0.386868
0.386865
0.386862
0.386858
0.386855
0.386852
0.386849
0.386845
0.386842
0.386839
0.386836
0.386833
0.386829
0.386826
0.386823
0.38682
0.386816
0.386813
0.38681
0.386807
0.386803
0.3868
0.386797
0.386794
0.38679
0.386787
0.386784
0.386781
0.386777
0.386774
0.386771
0.386768
0.386764
0.386761
0.386758
0.386755
0.386751
0.386748
0.386745
0.386742
0.386738
0.386735
0.386732
0.386729
0.386725
0.386722
0.386719
0.386715
0.386712
0.386709
0.386706
0.386702
0.386699
0.386696
0.386693
0.386689
0.386686
0.386683
0.386679
0.386676
0.386673
0.38667
0.386666
0.386663
0.38666
0.386656
0.386653
0.38665
0.386646
0.386643
0.38664
0.386637
0.386633
0.38663
0.386627
0.386623
0.38662
0.386617
0.386613
0.38661
0.386607
0.386603
0.3866
0.386597
0.386594
0.38659
0.386587
0.386584
0.38658
0.386577
0.386574
0.38657
0.386567
0.386564
0.38656
0.386557
0.386554
0.38655
0.386547
0.386544
0.38654
0.386537
0.386534
0.38653
0.386527
0.386524
0.38652
0.386517
0.386514
0.38651
0.386507
0.386503
0.3865
0.386497
0.386493
0.38649
0.386487
0.386483
0.38648
0.386477
0.386473
0.38647
0.386467
0.386463
0.38646
0.386456
0.386453
0.38645
0.386446
0.386443
0.38644
0.386436
0.386433
0.386429
0.386426
0.386423
0.386419
0.386416
0.386413
0.386409
0.386406
0.386402
0.386399
0.386396
0.386392
0.386389
0.386385
0.386382
0.386379
0.386375
0.386372
0.386368
0.386365
0.386362
0.386358
0.386355
0.386351
0.386348
0.386345
0.386341
0.386338
0.386334
0.386331
0.386328
0.386324
0.386321
0.386317
0.386314
0.38631
0.386307
0.386304
0.3863
0.386297
0.386293
0.38629
0.386286
0.386283
0.38628
0.386276
0.386273
0.386269
0.386266
0.386262
0.386259
0.386256
0.386252
0.386249
0.386245
0.386242
0.386238
0.386235
0.386231
0.386228
0.386225
0.386221
0.386218
0.386214
0.386211
0.386207
0.386204
0.3862
0.386197
0.386193
0.38619
0.386186
0.386183
0.38618
0.386176
0.386173
0.386169
0.386166
0.386162
0.386159
0.386155
0.386152
0.386148
0.386145
0.386141
0.386138
0.386134
0.386131
0.386127
0.386124
0.38612
0.386117
0.386113
0.38611
0.386106
0.386103
0.386099
0.386096
0.386092
0.386089
0.386085
0.386082
0.386078
0.386075
0.386071
0.386068
0.386064
0.386061
0.386057
0.386054
0.38605
0.386047
0.386043
0.38604
0.386036
0.386033
0.386029
0.386026
0.386022
0.386018
0.386015
0.386011
0.386008
0.386004
0.386001
0.385997
0.385994
0.385991
0.385987
0.385984
0.38598
0.385977
0.385973
0.385969
0.385966
0.385962
0.385959
0.385955
0.385952
0.385948
0.385945
0.385941
0.385937
0.385934
0.38593
0.385927
0.385923
0.38592
0.385916
0.385912
0.385909
0.385905
0.385902
0.385898
0.385895
0.385891
0.385888
0.385884
0.38588
0.385877
0.385873
0.38587
0.385866
0.385863
0.385859
0.385855
0.385852
0.385848
0.385845
0.385841
0.385837
0.385834
0.38583
0.385827
0.385823
0.38582
0.385816
0.385812
0.385809
0.385805
0.385802
0.385797
0.385794
0.38579
0.385787
0.385784
0.385779
0.385776
0.385772
0.385769
0.385765
0.385761
0.385758
0.385754
0.385751
0.385747
0.385743
0.38574
0.385736
0.385733
0.385729
0.385725
0.385722
0.385718
0.385715
0.385711
0.385707
0.385704
0.3857
0.385697
0.385693
0.385689
0.385686
0.385682
0.385678
0.385674
0.385671
0.385667
0.385663
0.38566
0.385656
0.385653
0.385649
0.385645
0.385642
0.385638
0.385634
0.385631
0.385627
0.385624
0.38562
0.385616
0.385613
0.385608
0.385605
0.385601
0.385598
0.385594
0.38559
0.385587
0.385583
0.385579
0.385576
0.385572
0.385568
0.385565
0.385561
0.385558
0.385553
0.38555
0.385546
0.385542
0.385539
0.385535
0.385531
0.385528
0.385524
0.385521
0.385517
0.385513
0.38551
0.385505
0.385502
0.385498
0.385494
0.385491
0.385487
0.385483
0.38548
0.385476
0.385472
0.385469
0.385465
0.385461
0.385457
0.385454
0.38545
0.385446
0.385443
0.385439
0.385435
0.385432
0.385427
0.385424
0.38542
0.385416
0.385413
0.385409
0.385405
0.385402
0.385397
0.385394
0.38539
0.385386
0.385383
0.385379
0.385375
0.385372
0.385368
0.385364
0.38536
0.385356
0.385353
0.385349
0.385345
0.385342
0.385338
0.385334
0.38533
0.385326
0.385323
0.385319
0.385315
0.385312
0.385307
0.385304
0.3853
0.385296
0.385293
0.385289
0.385285
0.385282
0.385277
0.385274
0.38527
0.385266
0.385263
0.385259
0.385255
0.385251
0.385247
0.385243
0.38524
0.385236
0.385232
0.385228
0.385224
0.385221
0.385217
0.385213
0.38521
0.385205
0.385202
0.385198
0.385194
0.38519
0.385187
0.385182
0.385179
0.385175
0.385171
0.385168
0.385163
0.38516
0.385156
0.385152
0.385148
0.385145
0.38514
0.385137
0.385133
0.385129
0.385126
0.385121
0.385118
0.385114
0.38511
0.385106
0.385103
0.385098
0.385095
0.385091
0.385087
0.385083
0.385079
0.385075
0.385072
0.385068
0.385064
0.38506
0.385056
0.385052
0.385049
0.385044
0.385041
0.385037
0.385033
0.385029
0.385025
0.385021
0.385018
0.385014
0.38501
0.385006
0.385002
0.384998
0.384995
0.38499
0.384987
0.384983
0.384979
0.384975
0.384971
0.384967
0.384964
0.38496
0.384955
0.384952
0.384948
0.384944
0.38494
0.384936
0.384932
0.384929
0.384925
0.384921
0.384917
0.384913
0.384909
0.384905
0.384901
0.384897
0.384894
0.384889
0.384886
0.384882
0.384878
0.384874
0.38487
0.384866
0.384862
0.384858
0.384854
0.38485
0.384847
0.384842
0.384839
0.384835
0.384831
0.384827
0.384823
0.384819
0.384815
0.384811
0.384807
0.384803
0.384799
0.384795
0.384792
0.384787
0.384783
0.38478
0.384776
0.384772
0.384768
0.384764
0.38476
0.384756
0.384752
0.384748
0.384744
0.38474
0.384736
0.384732
0.384728
0.384724
0.38472
0.384716
0.384712
0.384709
0.384704
0.384701
0.384697
0.384693
0.384689
0.384685
0.384681
0.384677
0.384673
0.384669
0.384665
0.384661
0.384657
0.384653
0.384649
0.384645
0.384641
0.384637
0.384633
0.384629
0.384625
0.384621
0.384617
0.384613
0.384609
0.384605
0.384601
0.384597
0.384593
0.384589
0.384585
0.384581
0.384577
0.384573
0.384569
0.384565
0.384561
0.384557
0.384553
0.384549
0.384545
0.384541
0.384537
0.384533
0.384529
0.384525
0.384521
0.384517
0.384513
0.384509
0.384505
0.384501
0.384497
0.384493
0.384489
0.384484
0.384481
0.384476
0.384472
0.384468
0.384464
0.38446
0.384456
0.384452
0.384448
0.384444
0.38444
0.384436
0.384432
0.384428
0.384424
0.38442
0.384416
0.384412
0.384408
0.384404
0.384399
0.384395
0.384391
0.384387
0.384383
0.384379
0.384375
0.384371
0.384367
0.384363
0.384359
0.384355
0.384351
0.384347
0.384343
0.384338
0.384334
0.38433
0.384326
0.384322
0.384318
0.384314
0.38431
0.384306
0.384302
0.384298
0.384293
0.384289
0.384285
0.384281
0.384277
0.384273
0.384269
0.384265
0.384261
0.384257
0.384252
0.384248
0.384244
0.38424
0.384236
0.384232
0.384228
0.384224
0.384219
0.384215
0.384211
0.384207
0.384203
0.384199
0.384195
0.384191
0.384187
0.384182
0.384178
0.384174
0.38417
0.384166
0.384162
0.384158
0.384153
0.384149
0.384145
0.384141
0.384137
0.384133
0.384129
0.384124
0.38412
0.384116
0.384112
0.384108
0.384104
0.3841
0.384095
0.384091
0.384087
0.384083
0.384079
0.384075
0.38407
0.384066
0.384062
0.384058
0.384054
0.38405
0.384045
0.384041
0.384037
0.384033
0.384029
0.384025
0.38402
0.384016
0.384012
0.384008
0.384004
0.384
0.383995
0.383991
0.383987
0.383983
0.383979
0.383974
0.38397
0.383966
0.383962
0.383958
0.383953
0.383949
0.383945
0.383941
0.383937
0.383932
0.383928
0.383924
0.38392
0.383916
0.383911
0.383907
0.383903
0.383899
0.383894
0.38389
0.383886
0.383882
0.383878
0.383873
0.383869
0.383865
0.383861
0.383856
0.383852
0.383848
0.383844
0.383839
0.383835
0.383831
0.383827
0.383823
0.383818
0.383814
0.38381
0.383806
0.383801
0.383797
0.383793
0.383789
0.383784
0.38378
0.383776
0.383772
0.383767
0.383763
0.383759
0.383755
0.38375
0.383746
0.383742
0.383737
0.383733
0.383729
0.383725
0.38372
0.383716
0.383712
0.383708
0.383703
0.383699
0.383695
0.38369
0.383686
0.383682
0.383678
0.383673
0.383669
0.383665
0.38366
0.383656
0.383652
0.383648
0.383643
0.383639
0.383635
0.38363
0.383626
0.383622
0.383618
0.383613
0.383609
0.383605
0.3836
0.383596
0.383592
0.383587
0.383583
0.383579
0.383574
0.38357
0.383566
0.383561
0.383557
0.383553
0.383549
0.383544
0.38354
0.383536
0.383531
0.383527
0.383523
0.383518
0.383514
0.38351
0.383505
0.383501
0.383497
0.383492
0.383488
0.383484
0.383479
0.383475
0.383471
0.383466
0.383462
0.383457
0.383453
0.383449
0.383444
0.38344
0.383436
0.383431
0.383427
0.383423
0.383418
0.383414
0.38341
0.383405
0.383401
0.383396
0.383392
0.383388
0.383383
0.383379
0.383375
0.38337
0.383366
0.383361
0.383357
0.383353
0.383348
0.383344
0.38334
0.383335
0.383331
0.383326
0.383322
0.383318
0.383313
0.383309
0.383304
0.3833
0.383296
0.383291
0.383287
0.383282
0.383278
0.383274
0.383269
0.383265
0.38326
0.383256
0.383252
0.383247
0.383243
0.383238
0.383234
0.38323
0.383225
0.383221
0.383216
0.383212
0.383207
0.383203
0.383199
0.383194
0.38319
0.383185
0.383181
0.383176
0.383172
0.383168
0.383163
0.383159
0.383154
0.38315
0.383145
0.383141
0.383136
0.383132
0.383128
0.383123
0.383119
0.383114
0.38311
0.383105
0.383101
0.383096
0.383092
0.383088
0.383083
0.383079
0.383074
0.38307
0.383065
0.383061
0.383056
0.383052
0.383047
0.383043
0.383038
0.383034
0.383029
0.383025
0.38302
0.383016
0.383012
0.383007
0.383003
0.382998
0.382994
0.382989
0.382985
0.38298
0.382976
0.382971
0.382967
0.382962
0.382958
0.382953
0.382949
0.382944
0.38294
0.382935
0.382931
0.382926
0.382922
0.382917
0.382913
0.382908
0.382904
0.382899
0.382895
0.38289
0.382886
0.382881
0.382877
0.382872
0.382867
0.382863
0.382858
0.382854
0.382849
0.382845
0.38284
0.382836
0.382831
0.382827
0.382822
0.382818
0.382813
0.382809
0.382804
0.3828
0.382795
0.38279
0.382786
0.382781
0.382777
0.382772
0.382768
0.382763
0.382759
0.382754
0.382749
0.382745
0.38274
0.382736
0.382731
0.382727
0.382722
0.382718
0.382713
0.382708
0.382704
0.382699
0.382695
0.38269
0.382686
0.382681
0.382676
0.382672
0.382667
0.382663
0.382658
0.382653
0.382649
0.382644
0.38264
0.382635
0.382631
0.382626
0.382621
0.382617
0.382612
0.382608
0.382603
0.382598
0.382594
0.382589
0.382585
0.38258
0.382575
0.382571
0.382566
0.382562
0.382557
0.382552
0.382548
0.382543
0.382538
0.382534
0.382529
0.382525
0.38252
0.382515
0.382511
0.382506
0.382502
0.382497
0.382492
0.382488
0.382483
0.382478
0.382474
0.382469
0.382464
0.38246
0.382455
0.382451
0.382446
0.382441
0.382437
0.382432
0.382427
0.382423
0.382418
0.382413
0.382409
0.382404
0.382399
0.382395
0.38239
0.382385
0.382381
0.382376
0.382371
0.382367
0.382362
0.382357
0.382353
0.382348
0.382343
0.382339
0.382334
0.382329
0.382325
0.38232
0.382315
0.382311
0.382306
0.382301
0.382297
0.382292
0.382287
0.382283
0.382278
0.382273
0.382269
0.382264
0.382259
0.382254
0.38225
0.382245
0.38224
0.382236
0.382231
0.382226
0.382222
0.382217
0.382212
0.382207
0.382203
0.382198
0.382193
0.382189
0.382184
0.382179
0.382174
0.38217
0.382165
0.38216
0.382156
0.382151
0.382146
0.382141
0.382137
0.382132
0.382127
0.382122
0.382118
0.382113
0.382108
0.382104
0.382099
0.382094
0.382089
0.382085
0.38208
0.382075
0.38207
0.382066
0.382061
0.382056
0.382051
0.382047
0.382042
0.382037
0.382032
0.382028
0.382023
0.382018
0.382013
0.382009
0.382004
0.381999
0.381994
0.381989
0.381985
0.38198
0.381975
0.38197
0.381966
0.381961
0.381956
0.381951
0.381947
0.381942
0.381937
0.381932
0.381927
0.381923
0.381918
0.381913
0.381908
0.381903
0.381899
0.381894
0.381889
0.381884
0.381879
0.381875
0.38187
0.381865
0.38186
0.381855
0.381851
0.381846
0.381841
0.381836
0.381831
0.381827
0.381822
0.381817
0.381812
0.381807
0.381802
0.381798
0.381793
0.381788
0.381783
0.381778
0.381774
0.381769
0.381764
0.381759
0.381754
0.381749
0.381745
0.38174
0.381735
0.38173
0.381725
0.38172
0.381716
0.381711
0.381706
0.381701
0.381696
0.381691
0.381686
0.381682
0.381677
0.381672
0.381667
0.381662
0.381657
0.381652
0.381648
0.381643
0.381638
0.381633
0.381628
0.381623
0.381618
0.381614
0.381609
0.381604
0.381599
0.381594
0.381589
0.381584
0.381579
0.381575
0.38157
0.381565
0.38156
0.381555
0.38155
0.381545
0.38154
0.381535
0.381531
0.381526
0.381521
0.381516
0.381511
0.381506
0.381501
0.381496
0.381491
0.381486
0.381482
0.381477
0.381472
0.381467
0.381462
0.381457
0.381452
0.381447
0.381442
0.381437
0.381432
0.381427
0.381423
0.381418
0.381413
0.381408
0.381403
0.381398
0.381393
0.381388
0.381383
0.381378
0.381373
0.381368
0.381363
0.381358
0.381354
0.381349
0.381344
0.381339
0.381334
0.381329
0.381324
0.381319
0.381314
0.381309
0.381304
0.381299
0.381294
0.381289
0.381284
0.381279
0.381274
0.381269
0.381264
0.381259
0.381254
0.381249
0.381244
0.38124
0.381235
0.38123
0.381225
0.38122
0.381215
0.38121
0.381205
0.3812
0.381195
0.38119
0.381185
0.38118
0.381175
0.38117
0.381165
0.38116
0.381155
0.38115
0.381145
0.38114
0.381135
0.38113
0.381125
0.38112
0.381115
0.38111
0.381105
0.3811
0.381095
0.38109
0.381085
0.38108
0.381075
0.38107
0.381065
0.38106
0.381055
0.38105
0.381045
0.38104
0.381035
0.38103
0.381025
0.38102
0.381015
0.381009
0.381004
0.380999
0.380994
0.380989
0.380984
0.380979
0.380974
0.380969
0.380964
0.380959
0.380954
0.380949
0.380944
0.380939
0.380934
0.380929
0.380924
0.380919
0.380914
0.380909
0.380904
0.380898
0.380893
0.380888
0.380883
0.380878
0.380873
0.380868
0.380863
0.380858
0.380853
0.380848
0.380843
0.380838
0.380833
0.380828
0.380822
0.380817
0.380812
0.380807
0.380802
0.380797
0.380792
0.380787
0.380782
0.380777
0.380772
0.380766
0.380761
0.380756
0.380751
0.380746
0.380741
0.380736
0.380731
0.380726
0.380721
0.380715
0.38071
0.380705
0.3807
0.380695
0.38069
0.380685
0.38068
0.380675
0.380669
0.380664
0.380659
0.380654
0.380649
0.380644
0.380639
0.380634
0.380628
0.380623
0.380618
0.380613
0.380608
0.380603
0.380598
0.380593
0.380587
0.380582
0.380577
0.380572
0.380567
0.380562
0.380557
0.380551
0.380546
0.380541
0.380536
0.380531
0.380526
0.38052
0.380515
0.38051
0.380505
0.3805
0.380495
0.380489
0.380484
0.380479
0.380474
0.380469
0.380464
0.380458
0.380453
0.380448
0.380443
0.380438
0.380433
0.380427
0.380422
0.380417
0.380412
0.380407
0.380402
0.380396
0.380391
0.380386
0.380381
0.380376
0.38037
0.380365
0.38036
0.380355
0.38035
0.380344
0.380339
0.380334
0.380329
0.380324
0.380318
0.380313
0.380308
0.380303
0.380298
0.380292
0.380287
0.380282
0.380277
0.380271
0.380266
0.380261
0.380256
0.380251
0.380245
0.38024
0.380235
0.38023
0.380224
0.380219
0.380214
0.380209
0.380203
0.380198
0.380193
0.380188
0.380182
0.380177
0.380172
0.380167
0.380162
0.380156
0.380151
0.380146
0.380141
0.380135
0.38013
0.380125
0.38012
0.380114
0.380109
0.380104
0.380098
0.380093
0.380088
0.380083
0.380077
0.380072
0.380067
0.380062
0.380056
0.380051
0.380046
0.38004
0.380035
0.38003
0.380025
0.380019
0.380014
0.380009
0.380004
0.379998
0.379993
0.379988
0.379982
0.379977
0.379972
0.379966
0.379961
0.379956
0.379951
0.379945
0.37994
0.379935
0.379929
0.379924
0.379919
0.379913
0.379908
0.379903
0.379898
0.379892
0.379887
0.379882
0.379876
0.379871
0.379866
0.37986
0.379855
0.37985
0.379844
0.379839
0.379834
0.379828
0.379823
0.379818
0.379812
0.379807
0.379802
0.379796
0.379791
0.379786
0.37978
0.379775
0.37977
0.379764
0.379759
0.379754
0.379748
0.379743
0.379738
0.379732
0.379727
0.379722
0.379716
0.379711
0.379705
0.3797
0.379695
0.379689
0.379684
0.379679
0.379673
0.379668
0.379663
0.379657
0.379652
0.379646
0.379641
0.379636
0.37963
0.379625
0.37962
0.379614
0.379609
0.379603
0.379598
0.379593
0.379587
0.379582
0.379576
0.379571
0.379566
0.37956
0.379555
0.379549
0.379544
0.379539
0.379533
0.379528
0.379522
0.379517
0.379512
0.379506
0.379501
0.379495
0.37949
0.379485
0.379479
0.379474
0.379468
0.379463
0.379458
0.379452
0.379447
0.379441
0.379436
0.37943
0.379425
0.37942
0.379414
0.379409
0.379403
0.379398
0.379392
0.379387
0.379382
0.379376
0.379371
0.379365
0.37936
0.379354
0.379349
0.379343
0.379338
0.379333
0.379327
0.379322
0.379316
0.379311
0.379305
0.3793
0.379294
0.379289
0.379283
0.379278
0.379273
0.379267
0.379262
0.379256
0.379251
0.379245
0.37924
0.379234
0.379229
0.379223
0.379218
0.379212
0.379207
0.379201
0.379196
0.37919
0.379185
0.379179
0.379174
0.379168
0.379163
0.379158
0.379152
0.379147
0.379141
0.379136
0.37913
0.379125
0.379119
0.379114
0.379108
0.379103
0.379097
0.379092
0.379086
0.379081
0.379075
0.379069
0.379064
0.379058
0.379053
0.379047
0.379042
0.379036
0.379031
0.379025
0.37902
0.379014
0.379009
0.379003
0.378998
0.378992
0.378987
0.378981
0.378976
0.37897
0.378965
0.378959
0.378953
0.378948
0.378942
0.378937
0.378931
0.378926
0.37892
0.378915
0.378909
0.378904
0.378898
0.378892
0.378887
0.378881
0.378876
0.37887
0.378865
0.378859
0.378854
0.378848
0.378842
0.378837
0.378831
0.378826
0.37882
0.378815
0.378809
0.378803
0.378798
0.378792
0.378787
0.378781
0.378776
0.37877
0.378764
0.378759
0.378753
0.378748
0.378742
0.378737
0.378731
0.378725
0.37872
0.378714
0.378709
0.378703
0.378697
0.378692
0.378686
0.378681
0.378675
0.378669
0.378664
0.378658
0.378653
0.378647
0.378641
0.378636
0.37863
0.378624
0.378619
0.378613
0.378608
0.378602
0.378596
0.378591
0.378585
0.37858
0.378574
0.378568
0.378563
0.378557
0.378551
0.378546
0.37854
0.378534
0.378529
0.378523
0.378518
0.378512
0.378506
0.378501
0.378495
0.378489
0.378484
0.378478
0.378472
0.378467
0.378461
0.378455
0.37845
0.378444
0.378439
0.378433
0.378427
0.378422
0.378416
0.37841
0.378405
0.378399
0.378393
0.378388
0.378382
0.378376
0.378371
0.378365
0.378359
0.378354
0.378348
0.378342
0.378336
0.378331
0.378325
0.378319
0.378314
0.378308
0.378302
0.378297
0.378291
0.378285
0.37828
0.378274
0.378268
0.378263
0.378257
0.378251
0.378245
0.37824
0.378234
0.378228
0.378223
0.378217
0.378211
0.378206
0.3782
0.378194
0.378188
0.378183
0.378177
0.378171
0.378166
0.37816
0.378154
0.378148
0.378143
0.378137
0.378131
0.378125
0.37812
0.378114
0.378108
0.378103
0.378097
0.378091
0.378085
0.37808
0.378074
0.378068
0.378062
0.378057
0.378051
0.378045
0.378039
0.378034
0.378028
0.378022
0.378016
0.378011
0.378005
0.377999
0.377993
0.377988
0.377982
0.377976
0.37797
0.377965
0.377959
0.377953
0.377947
0.377942
0.377936
0.37793
0.377924
0.377918
0.377913
0.377907
0.377901
0.377895
0.37789
0.377884
0.377878
0.377872
0.377866
0.377861
0.377855
0.377849
0.377843
0.377838
0.377832
0.377826
0.37782
0.377814
0.377809
0.377803
0.377797
0.377791
0.377785
0.37778
0.377774
0.377768
0.377762
0.377756
0.377751
0.377745
0.377739
0.377733
0.377727
0.377722
0.377716
0.37771
0.377704
0.377698
0.377692
0.377687
0.377681
0.377675
0.377669
0.377663
0.377657
0.377652
0.377646
0.37764
0.377634
0.377628
0.377622
0.377617
0.377611
0.377605
0.377599
0.377593
0.377587
0.377582
0.377576
0.37757
0.377564
0.377558
0.377552
0.377546
0.377541
0.377535
0.377529
0.377523
0.377517
0.377511
0.377506
0.3775
0.377494
0.377488
0.377482
0.377476
0.37747
0.377464
0.377459
0.377453
0.377447
0.377441
0.377435
0.377429
0.377423
0.377417
0.377412
0.377406
0.3774
0.377394
0.377388
0.377382
0.377376
0.37737
0.377364
0.377359
0.377353
0.377347
0.377341
0.377335
0.377329
0.377323
0.377317
0.377311
0.377306
0.3773
0.377294
0.377288
0.377282
0.377276
0.37727
0.377264
0.377258
0.377252
0.377246
0.37724
0.377235
0.377229
0.377223
0.377217
0.377211
0.377205
0.377199
0.377193
0.377187
0.377181
0.377175
0.377169
0.377163
0.377158
0.377152
0.377146
0.37714
0.377134
0.377128
0.377122
0.377116
0.37711
0.377104
0.377098
0.377092
0.377086
0.37708
0.377074
0.377068
0.377062
0.377056
0.377051
0.377045
0.377039
0.377033
0.377027
0.377021
0.377015
0.377009
0.377003
0.376997
0.376991
0.376985
0.376979
0.376973
0.376967
0.376961
0.376955
0.376949
0.376943
0.376937
0.376931
0.376925
0.376919
0.376913
0.376907
0.376901
0.376895
0.376889
0.376883
0.376877
0.376871
0.376865
0.376859
0.376853
0.376847
0.376841
0.376835
0.376829
0.376823
0.376817
0.376811
0.376805
0.376799
0.376793
0.376787
0.376781
0.376775
0.376769
0.376763
0.376757
0.376751
0.376745
0.376739
0.376733
0.376727
0.376721
0.376715
0.376709
0.376703
0.376697
0.376691
0.376685
0.376679
0.376673
0.376667
0.376661
0.376655
0.376649
0.376643
0.376637
0.376631
0.376625
0.376619
0.376613
0.376606
0.3766
0.376594
0.376588
0.376582
0.376576
0.37657
0.376564
0.376558
0.376552
0.376546
0.37654
0.376534
0.376528
0.376522
0.376516
0.37651
0.376504
0.376497
0.376491
0.376485
0.376479
0.376473
0.376467
0.376461
0.376455
0.376449
0.376443
0.376437
0.376431
0.376425
0.376419
0.376412
0.376406
0.3764
0.376394
0.376388
0.376382
0.376376
0.37637
0.376364
0.376358
0.376352
0.376345
0.376339
0.376333
0.376327
0.376321
0.376315
0.376309
0.376303
0.376297
0.376291
0.376284
0.376278
0.376272
0.376266
0.37626
0.376254
0.376248
0.376242
0.376236
0.376229
0.376223
0.376217
0.376211
0.376205
0.376199
0.376193
0.376187
0.376181
0.376174
0.376168
0.376162
0.376156
0.37615
0.376144
0.376138
0.376131
0.376125
0.376119
0.376113
0.376107
0.376101
0.376095
0.376088
0.376082
0.376076
0.37607
0.376064
0.376058
0.376052
0.376045
0.376039
0.376033
0.376027
0.376021
0.376015
0.376008
0.376002
0.375996
0.37599
0.375984
0.375978
0.375972
0.375965
0.375959
0.375953
0.375947
0.375941
0.375934
0.375928
0.375922
0.375916
0.37591
0.375904
0.375897
0.375891
0.375885
0.375879
0.375873
0.375866