/*--------------------------------*- C++ -*----------------------------------*\
  =========                 |
  \\      /  F ield         | OpenFOAM: The Open Source CFD Toolbox
   \\    /   O peration     | Website:  https://openfoam.org
    \\  /    A nd           | Version:  9
     \\/     M anipulation  |
\*---------------------------------------------------------------------------*/
FoamFile
{
    format      ascii;
    class       volVectorField;
    location    "0.025";
    object      U;
}
// * * * * * * * * * * * * * * * * * * * * * * * * * * * * * * * * * * * * * //

dimensions      [0 1 -1 0 0 0 0];

internalField   nonuniform List<vector> 
10000
(
(4.0746 0 0)
(4.1481 0 0)
(4.21348 0 0)
(4.26823 0 0)
(4.3211 0 0)
(4.37523 0 0)
(4.43015 0 0)
(4.48512 0 0)
(4.53996 0 0)
(4.59474 0 0)
(4.64952 0 0)
(4.70432 0 0)
(4.75913 0 0)
(4.81394 0 0)
(4.86873 0 0)
(4.92353 0 0)
(4.97832 0 0)
(5.03312 0 0)
(5.08793 0 0)
(5.14274 0 0)
(5.19755 0 0)
(5.25236 0 0)
(5.30716 0 0)
(5.36195 0 0)
(5.41674 0 0)
(5.47154 0 0)
(5.52634 0 0)
(5.58115 0 0)
(5.63596 0 0)
(5.69078 0 0)
(5.7456 0 0)
(5.80042 0 0)
(5.85524 0 0)
(5.91006 0 0)
(5.96488 0 0)
(6.01969 0 0)
(6.07451 0 0)
(6.12932 0 0)
(6.18413 0 0)
(6.23894 0 0)
(6.29375 0 0)
(6.34856 0 0)
(6.40337 0 0)
(6.45818 0 0)
(6.51299 0 0)
(6.5678 0 0)
(6.62261 0 0)
(6.67742 0 0)
(6.73223 0 0)
(6.78704 0 0)
(6.84186 0 0)
(6.89667 0 0)
(6.95148 0 0)
(7.00629 0 0)
(7.06111 0 0)
(7.11592 0 0)
(7.17073 0 0)
(7.22555 0 0)
(7.28036 0 0)
(7.33518 0 0)
(7.38999 0 0)
(7.44481 0 0)
(7.49963 0 0)
(7.55444 0 0)
(7.60926 0 0)
(7.66408 0 0)
(7.71889 0 0)
(7.77371 0 0)
(7.82853 0 0)
(7.88335 0 0)
(7.93817 0 0)
(7.99299 0 0)
(8.04781 0 0)
(8.10263 0 0)
(8.15745 0 0)
(8.21227 0 0)
(8.26709 0 0)
(8.32191 0 0)
(8.37673 0 0)
(8.43156 0 0)
(8.48638 0 0)
(8.5412 0 0)
(8.59602 0 0)
(8.65085 0 0)
(8.70567 0 0)
(8.7605 0 0)
(8.81532 0 0)
(8.87015 0 0)
(8.92497 0 0)
(8.9798 0 0)
(9.03462 0 0)
(9.08945 0 0)
(9.14428 0 0)
(9.19911 0 0)
(9.25393 0 0)
(9.30876 0 0)
(9.36359 0 0)
(9.41842 0 0)
(9.47325 0 0)
(9.52808 0 0)
(9.58291 0 0)
(9.63774 0 0)
(9.69257 0 0)
(9.7474 0 0)
(9.80223 0 0)
(9.85706 0 0)
(9.91189 0 0)
(9.96673 0 0)
(10.0216 0 0)
(10.0764 0 0)
(10.1312 0 0)
(10.1861 0 0)
(10.2409 0 0)
(10.2957 0 0)
(10.3506 0 0)
(10.4054 0 0)
(10.4602 0 0)
(10.5151 0 0)
(10.5699 0 0)
(10.6247 0 0)
(10.6796 0 0)
(10.7344 0 0)
(10.7893 0 0)
(10.8441 0 0)
(10.8989 0 0)
(10.9538 0 0)
(11.0086 0 0)
(11.0635 0 0)
(11.1183 0 0)
(11.1731 0 0)
(11.228 0 0)
(11.2828 0 0)
(11.3377 0 0)
(11.3925 0 0)
(11.4473 0 0)
(11.5022 0 0)
(11.557 0 0)
(11.6119 0 0)
(11.6667 0 0)
(11.7216 0 0)
(11.7764 0 0)
(11.8312 0 0)
(11.8861 0 0)
(11.9409 0 0)
(11.9958 0 0)
(12.0506 0 0)
(12.1055 0 0)
(12.1603 0 0)
(12.2152 0 0)
(12.27 0 0)
(12.3249 0 0)
(12.3797 0 0)
(12.4346 0 0)
(12.4894 0 0)
(12.5443 0 0)
(12.5991 0 0)
(12.654 0 0)
(12.7088 0 0)
(12.7637 0 0)
(12.8185 0 0)
(12.8734 0 0)
(12.9282 0 0)
(12.9831 0 0)
(13.0379 0 0)
(13.0928 0 0)
(13.1476 0 0)
(13.2025 0 0)
(13.2573 0 0)
(13.3122 0 0)
(13.367 0 0)
(13.4219 0 0)
(13.4768 0 0)
(13.5316 0 0)
(13.5865 0 0)
(13.6413 0 0)
(13.6962 0 0)
(13.751 0 0)
(13.8059 0 0)
(13.8608 0 0)
(13.9156 0 0)
(13.9705 0 0)
(14.0253 0 0)
(14.0802 0 0)
(14.1351 0 0)
(14.1899 0 0)
(14.2448 0 0)
(14.2996 0 0)
(14.3545 0 0)
(14.4094 0 0)
(14.4642 0 0)
(14.5191 0 0)
(14.5739 0 0)
(14.6288 0 0)
(14.6837 0 0)
(14.7385 0 0)
(14.7934 0 0)
(14.8483 0 0)
(14.9031 0 0)
(14.958 0 0)
(15.0129 0 0)
(15.0677 0 0)
(15.1226 0 0)
(15.1775 0 0)
(15.2323 0 0)
(15.2872 0 0)
(15.3421 0 0)
(15.3969 0 0)
(15.4518 0 0)
(15.5067 0 0)
(15.5615 0 0)
(15.6164 0 0)
(15.6713 0 0)
(15.7262 0 0)
(15.781 0 0)
(15.8359 0 0)
(15.8908 0 0)
(15.9456 0 0)
(16.0005 0 0)
(16.0554 0 0)
(16.1103 0 0)
(16.1651 0 0)
(16.22 0 0)
(16.2749 0 0)
(16.3298 0 0)
(16.3846 0 0)
(16.4395 0 0)
(16.4944 0 0)
(16.5493 0 0)
(16.6041 0 0)
(16.659 0 0)
(16.7139 0 0)
(16.7688 0 0)
(16.8236 0 0)
(16.8785 0 0)
(16.9334 0 0)
(16.9883 0 0)
(17.0432 0 0)
(17.098 0 0)
(17.1529 0 0)
(17.2078 0 0)
(17.2627 0 0)
(17.3176 0 0)
(17.3724 0 0)
(17.4273 0 0)
(17.4822 0 0)
(17.5371 0 0)
(17.592 0 0)
(17.6469 0 0)
(17.7017 0 0)
(17.7566 0 0)
(17.8115 0 0)
(17.8664 0 0)
(17.9213 0 0)
(17.9762 0 0)
(18.031 0 0)
(18.0859 0 0)
(18.1408 0 0)
(18.1957 0 0)
(18.2506 0 0)
(18.3055 0 0)
(18.3604 0 0)
(18.4153 0 0)
(18.4701 0 0)
(18.525 0 0)
(18.5799 0 0)
(18.6348 0 0)
(18.6897 0 0)
(18.7446 0 0)
(18.7995 0 0)
(18.8544 0 0)
(18.9093 0 0)
(18.9642 0 0)
(19.019 0 0)
(19.0739 0 0)
(19.1288 0 0)
(19.1837 0 0)
(19.2386 0 0)
(19.2935 0 0)
(19.3484 0 0)
(19.4033 0 0)
(19.4582 0 0)
(19.5131 0 0)
(19.568 0 0)
(19.6229 0 0)
(19.6778 0 0)
(19.7327 0 0)
(19.7876 0 0)
(19.8425 0 0)
(19.8974 0 0)
(19.9523 0 0)
(20.0072 0 0)
(20.0621 0 0)
(20.117 0 0)
(20.1719 0 0)
(20.2268 0 0)
(20.2817 0 0)
(20.3366 0 0)
(20.3915 0 0)
(20.4464 0 0)
(20.5013 0 0)
(20.5562 0 0)
(20.6111 0 0)
(20.666 0 0)
(20.7209 0 0)
(20.7758 0 0)
(20.8307 0 0)
(20.8856 0 0)
(20.9405 0 0)
(20.9954 0 0)
(21.0503 0 0)
(21.1052 0 0)
(21.1601 0 0)
(21.215 0 0)
(21.2699 0 0)
(21.3248 0 0)
(21.3797 0 0)
(21.4346 0 0)
(21.4896 0 0)
(21.5445 0 0)
(21.5994 0 0)
(21.6543 0 0)
(21.7092 0 0)
(21.7641 0 0)
(21.819 0 0)
(21.8739 0 0)
(21.9288 0 0)
(21.9837 0 0)
(22.0387 0 0)
(22.0936 0 0)
(22.1485 0 0)
(22.2034 0 0)
(22.2583 0 0)
(22.3132 0 0)
(22.3681 0 0)
(22.4231 0 0)
(22.478 0 0)
(22.5329 0 0)
(22.5878 0 0)
(22.6427 0 0)
(22.6976 0 0)
(22.7526 0 0)
(22.8075 0 0)
(22.8624 0 0)
(22.9173 0 0)
(22.9722 0 0)
(23.0271 0 0)
(23.0821 0 0)
(23.137 0 0)
(23.1919 0 0)
(23.2468 0 0)
(23.3017 0 0)
(23.3567 0 0)
(23.4116 0 0)
(23.4665 0 0)
(23.5214 0 0)
(23.5763 0 0)
(23.6313 0 0)
(23.6862 0 0)
(23.7411 0 0)
(23.796 0 0)
(23.851 0 0)
(23.9059 0 0)
(23.9608 0 0)
(24.0157 0 0)
(24.0707 0 0)
(24.1256 0 0)
(24.1805 0 0)
(24.2354 0 0)
(24.2904 0 0)
(24.3453 0 0)
(24.4002 0 0)
(24.4551 0 0)
(24.5101 0 0)
(24.565 0 0)
(24.6199 0 0)
(24.6749 0 0)
(24.7298 0 0)
(24.7847 0 0)
(24.8397 0 0)
(24.8946 0 0)
(24.9495 0 0)
(25.0044 0 0)
(25.0594 0 0)
(25.1143 0 0)
(25.1692 0 0)
(25.2242 0 0)
(25.2791 0 0)
(25.334 0 0)
(25.389 0 0)
(25.4439 0 0)
(25.4988 0 0)
(25.5538 0 0)
(25.6087 0 0)
(25.6637 0 0)
(25.7186 0 0)
(25.7735 0 0)
(25.8285 0 0)
(25.8834 0 0)
(25.9383 0 0)
(25.9933 0 0)
(26.0482 0 0)
(26.1032 0 0)
(26.1581 0 0)
(26.213 0 0)
(26.268 0 0)
(26.3229 0 0)
(26.3779 0 0)
(26.4328 0 0)
(26.4877 0 0)
(26.5427 0 0)
(26.5976 0 0)
(26.6526 0 0)
(26.7075 0 0)
(26.7624 0 0)
(26.8174 0 0)
(26.8723 0 0)
(26.9273 0 0)
(26.9822 0 0)
(27.0372 0 0)
(27.0921 0 0)
(27.1471 0 0)
(27.202 0 0)
(27.257 0 0)
(27.3119 0 0)
(27.3668 0 0)
(27.4218 0 0)
(27.4767 0 0)
(27.5317 0 0)
(27.5866 0 0)
(27.6416 0 0)
(27.6965 0 0)
(27.7515 0 0)
(27.8064 0 0)
(27.8614 0 0)
(27.9163 0 0)
(27.9713 0 0)
(28.0262 0 0)
(28.0812 0 0)
(28.1361 0 0)
(28.1911 0 0)
(28.246 0 0)
(28.301 0 0)
(28.356 0 0)
(28.4109 0 0)
(28.4659 0 0)
(28.5208 0 0)
(28.5758 0 0)
(28.6307 0 0)
(28.6857 0 0)
(28.7406 0 0)
(28.7956 0 0)
(28.8506 0 0)
(28.9055 0 0)
(28.9605 0 0)
(29.0154 0 0)
(29.0704 0 0)
(29.1253 0 0)
(29.1803 0 0)
(29.2353 0 0)
(29.2902 0 0)
(29.3452 0 0)
(29.4001 0 0)
(29.4551 0 0)
(29.5101 0 0)
(29.565 0 0)
(29.62 0 0)
(29.675 0 0)
(29.7299 0 0)
(29.7849 0 0)
(29.8398 0 0)
(29.8948 0 0)
(29.9498 0 0)
(30.0047 0 0)
(30.0597 0 0)
(30.1147 0 0)
(30.1696 0 0)
(30.2246 0 0)
(30.2796 0 0)
(30.3345 0 0)
(30.3895 0 0)
(30.4445 0 0)
(30.4994 0 0)
(30.5544 0 0)
(30.6094 0 0)
(30.6643 0 0)
(30.7193 0 0)
(30.7743 0 0)
(30.8292 0 0)
(30.8842 0 0)
(30.9392 0 0)
(30.9942 0 0)
(31.0491 0 0)
(31.1041 0 0)
(31.1591 0 0)
(31.214 0 0)
(31.269 0 0)
(31.324 0 0)
(31.379 0 0)
(31.4339 0 0)
(31.4889 0 0)
(31.5439 0 0)
(31.5989 0 0)
(31.6538 0 0)
(31.7088 0 0)
(31.7638 0 0)
(31.8188 0 0)
(31.8737 0 0)
(31.9287 0 0)
(31.9837 0 0)
(32.0387 0 0)
(32.0936 0 0)
(32.1486 0 0)
(32.2036 0 0)
(32.2586 0 0)
(32.3136 0 0)
(32.3685 0 0)
(32.4235 0 0)
(32.4785 0 0)
(32.5335 0 0)
(32.5885 0 0)
(32.6434 0 0)
(32.6984 0 0)
(32.7534 0 0)
(32.8084 0 0)
(32.8634 0 0)
(32.9184 0 0)
(32.9733 0 0)
(33.0283 0 0)
(33.0833 0 0)
(33.1383 0 0)
(33.1933 0 0)
(33.2483 0 0)
(33.3033 0 0)
(33.3582 0 0)
(33.4132 0 0)
(33.4682 0 0)
(33.5232 0 0)
(33.5782 0 0)
(33.6332 0 0)
(33.6882 0 0)
(33.7432 0 0)
(33.7981 0 0)
(33.8531 0 0)
(33.9081 0 0)
(33.9631 0 0)
(34.0181 0 0)
(34.0731 0 0)
(34.1281 0 0)
(34.1831 0 0)
(34.2381 0 0)
(34.2931 0 0)
(34.3481 0 0)
(34.4031 0 0)
(34.458 0 0)
(34.513 0 0)
(34.568 0 0)
(34.623 0 0)
(34.678 0 0)
(34.733 0 0)
(34.788 0 0)
(34.843 0 0)
(34.898 0 0)
(34.953 0 0)
(35.008 0 0)
(35.063 0 0)
(35.118 0 0)
(35.173 0 0)
(35.228 0 0)
(35.283 0 0)
(35.338 0 0)
(35.393 0 0)
(35.448 0 0)
(35.503 0 0)
(35.558 0 0)
(35.613 0 0)
(35.668 0 0)
(35.723 0 0)
(35.778 0 0)
(35.833 0 0)
(35.888 0 0)
(35.943 0 0)
(35.998 0 0)
(36.053 0 0)
(36.108 0 0)
(36.163 0 0)
(36.218 0 0)
(36.273 0 0)
(36.328 0 0)
(36.3831 0 0)
(36.4381 0 0)
(36.4931 0 0)
(36.5481 0 0)
(36.6031 0 0)
(36.6581 0 0)
(36.7131 0 0)
(36.7681 0 0)
(36.8231 0 0)
(36.8781 0 0)
(36.9331 0 0)
(36.9881 0 0)
(37.0432 0 0)
(37.0982 0 0)
(37.1532 0 0)
(37.2082 0 0)
(37.2632 0 0)
(37.3182 0 0)
(37.3732 0 0)
(37.4282 0 0)
(37.4833 0 0)
(37.5383 0 0)
(37.5933 0 0)
(37.6483 0 0)
(37.7033 0 0)
(37.7583 0 0)
(37.8133 0 0)
(37.8684 0 0)
(37.9234 0 0)
(37.9784 0 0)
(38.0334 0 0)
(38.0884 0 0)
(38.1434 0 0)
(38.1985 0 0)
(38.2535 0 0)
(38.3085 0 0)
(38.3635 0 0)
(38.4185 0 0)
(38.4736 0 0)
(38.5286 0 0)
(38.5836 0 0)
(38.6386 0 0)
(38.6936 0 0)
(38.7487 0 0)
(38.8037 0 0)
(38.8587 0 0)
(38.9137 0 0)
(38.9688 0 0)
(39.0238 0 0)
(39.0788 0 0)
(39.1338 0 0)
(39.1889 0 0)
(39.2439 0 0)
(39.2989 0 0)
(39.3539 0 0)
(39.409 0 0)
(39.464 0 0)
(39.519 0 0)
(39.574 0 0)
(39.6291 0 0)
(39.6841 0 0)
(39.7391 0 0)
(39.7942 0 0)
(39.8492 0 0)
(39.9042 0 0)
(39.9592 0 0)
(40.0143 0 0)
(40.0693 0 0)
(40.1243 0 0)
(40.1794 0 0)
(40.2344 0 0)
(40.2894 0 0)
(40.3445 0 0)
(40.3995 0 0)
(40.4545 0 0)
(40.5096 0 0)
(40.5646 0 0)
(40.6196 0 0)
(40.6747 0 0)
(40.7297 0 0)
(40.7847 0 0)
(40.8398 0 0)
(40.8948 0 0)
(40.9498 0 0)
(41.0049 0 0)
(41.0599 0 0)
(41.115 0 0)
(41.17 0 0)
(41.225 0 0)
(41.2801 0 0)
(41.3351 0 0)
(41.3901 0 0)
(41.4452 0 0)
(41.5002 0 0)
(41.5553 0 0)
(41.6103 0 0)
(41.6653 0 0)
(41.7204 0 0)
(41.7754 0 0)
(41.8305 0 0)
(41.8855 0 0)
(41.9406 0 0)
(41.9956 0 0)
(42.0506 0 0)
(42.1057 0 0)
(42.1607 0 0)
(42.2158 0 0)
(42.2708 0 0)
(42.3259 0 0)
(42.3809 0 0)
(42.436 0 0)
(42.491 0 0)
(42.5461 0 0)
(42.6011 0 0)
(42.6561 0 0)
(42.7112 0 0)
(42.7662 0 0)
(42.8213 0 0)
(42.8763 0 0)
(42.9314 0 0)
(42.9864 0 0)
(43.0415 0 0)
(43.0965 0 0)
(43.1516 0 0)
(43.2066 0 0)
(43.2617 0 0)
(43.3167 0 0)
(43.3718 0 0)
(43.4269 0 0)
(43.4819 0 0)
(43.537 0 0)
(43.592 0 0)
(43.6471 0 0)
(43.7021 0 0)
(43.7572 0 0)
(43.8122 0 0)
(43.8673 0 0)
(43.9223 0 0)
(43.9774 0 0)
(44.0325 0 0)
(44.0875 0 0)
(44.1426 0 0)
(44.1976 0 0)
(44.2527 0 0)
(44.3077 0 0)
(44.3628 0 0)
(44.4179 0 0)
(44.4729 0 0)
(44.528 0 0)
(44.583 0 0)
(44.6381 0 0)
(44.6932 0 0)
(44.7482 0 0)
(44.8033 0 0)
(44.8584 0 0)
(44.9134 0 0)
(44.9685 0 0)
(45.0235 0 0)
(45.0786 0 0)
(45.1337 0 0)
(45.1887 0 0)
(45.2438 0 0)
(45.2989 0 0)
(45.3539 0 0)
(45.409 0 0)
(45.4641 0 0)
(45.5191 0 0)
(45.5742 0 0)
(45.6293 0 0)
(45.6843 0 0)
(45.7394 0 0)
(45.7945 0 0)
(45.8495 0 0)
(45.9046 0 0)
(45.9597 0 0)
(46.0147 0 0)
(46.0698 0 0)
(46.1249 0 0)
(46.18 0 0)
(46.235 0 0)
(46.2901 0 0)
(46.3452 0 0)
(46.4002 0 0)
(46.4553 0 0)
(46.5104 0 0)
(46.5655 0 0)
(46.6205 0 0)
(46.6756 0 0)
(46.7307 0 0)
(46.7858 0 0)
(46.8408 0 0)
(46.8959 0 0)
(46.951 0 0)
(47.0061 0 0)
(47.0611 0 0)
(47.1162 0 0)
(47.1713 0 0)
(47.2264 0 0)
(47.2814 0 0)
(47.3365 0 0)
(47.3916 0 0)
(47.4467 0 0)
(47.5018 0 0)
(47.5568 0 0)
(47.6119 0 0)
(47.667 0 0)
(47.7221 0 0)
(47.7772 0 0)
(47.8322 0 0)
(47.8873 0 0)
(47.9424 0 0)
(47.9975 0 0)
(48.0526 0 0)
(48.1077 0 0)
(48.1627 0 0)
(48.2178 0 0)
(48.2729 0 0)
(48.328 0 0)
(48.3831 0 0)
(48.4382 0 0)
(48.4933 0 0)
(48.5483 0 0)
(48.6034 0 0)
(48.6585 0 0)
(48.7136 0 0)
(48.7687 0 0)
(48.8238 0 0)
(48.8789 0 0)
(48.934 0 0)
(48.989 0 0)
(49.0441 0 0)
(49.0992 0 0)
(49.1543 0 0)
(49.2094 0 0)
(49.2645 0 0)
(49.3196 0 0)
(49.3747 0 0)
(49.4298 0 0)
(49.4849 0 0)
(49.54 0 0)
(49.5951 0 0)
(49.6501 0 0)
(49.7052 0 0)
(49.7603 0 0)
(49.8154 0 0)
(49.8705 0 0)
(49.9256 0 0)
(49.9807 0 0)
(50.0358 0 0)
(50.0909 0 0)
(50.146 0 0)
(50.2011 0 0)
(50.2562 0 0)
(50.3113 0 0)
(50.3664 0 0)
(50.4215 0 0)
(50.4766 0 0)
(50.5317 0 0)
(50.5868 0 0)
(50.6419 0 0)
(50.697 0 0)
(50.7521 0 0)
(50.8072 0 0)
(50.8623 0 0)
(50.9174 0 0)
(50.9725 0 0)
(51.0276 0 0)
(51.0827 0 0)
(51.1378 0 0)
(51.1929 0 0)
(51.248 0 0)
(51.3031 0 0)
(51.3582 0 0)
(51.4133 0 0)
(51.4684 0 0)
(51.5236 0 0)
(51.5787 0 0)
(51.6338 0 0)
(51.6889 0 0)
(51.744 0 0)
(51.7991 0 0)
(51.8542 0 0)
(51.9093 0 0)
(51.9644 0 0)
(52.0195 0 0)
(52.0746 0 0)
(52.1297 0 0)
(52.1849 0 0)
(52.24 0 0)
(52.2951 0 0)
(52.3502 0 0)
(52.4053 0 0)
(52.4604 0 0)
(52.5155 0 0)
(52.5706 0 0)
(52.6258 0 0)
(52.6809 0 0)
(52.736 0 0)
(52.7911 0 0)
(52.8462 0 0)
(52.9013 0 0)
(52.9564 0 0)
(53.0116 0 0)
(53.0667 0 0)
(53.1218 0 0)
(53.1769 0 0)
(53.232 0 0)
(53.2871 0 0)
(53.3423 0 0)
(53.3974 0 0)
(53.4525 0 0)
(53.5076 0 0)
(53.5627 0 0)
(53.6179 0 0)
(53.673 0 0)
(53.7281 0 0)
(53.7832 0 0)
(53.8383 0 0)
(53.8935 0 0)
(53.9486 0 0)
(54.0037 0 0)
(54.0588 0 0)
(54.114 0 0)
(54.1691 0 0)
(54.2242 0 0)
(54.2793 0 0)
(54.3344 0 0)
(54.3896 0 0)
(54.4447 0 0)
(54.4998 0 0)
(54.555 0 0)
(54.6101 0 0)
(54.6652 0 0)
(54.7203 0 0)
(54.7755 0 0)
(54.8306 0 0)
(54.8857 0 0)
(54.9408 0 0)
(54.996 0 0)
(55.0511 0 0)
(55.1062 0 0)
(55.1614 0 0)
(55.2165 0 0)
(55.2716 0 0)
(55.3268 0 0)
(55.3819 0 0)
(55.437 0 0)
(55.4922 0 0)
(55.5473 0 0)
(55.6024 0 0)
(55.6576 0 0)
(55.7127 0 0)
(55.7678 0 0)
(55.823 0 0)
(55.8781 0 0)
(55.9332 0 0)
(55.9884 0 0)
(56.0435 0 0)
(56.0986 0 0)
(56.1538 0 0)
(56.2089 0 0)
(56.264 0 0)
(56.3192 0 0)
(56.3743 0 0)
(56.4295 0 0)
(56.4846 0 0)
(56.5397 0 0)
(56.5949 0 0)
(56.65 0 0)
(56.7052 0 0)
(56.7603 0 0)
(56.8154 0 0)
(56.8706 0 0)
(56.9257 0 0)
(56.9809 0 0)
(57.036 0 0)
(57.0911 0 0)
(57.1463 0 0)
(57.2014 0 0)
(57.2566 0 0)
(57.3117 0 0)
(57.3669 0 0)
(57.422 0 0)
(57.4772 0 0)
(57.5323 0 0)
(57.5874 0 0)
(57.6426 0 0)
(57.6977 0 0)
(57.7529 0 0)
(57.808 0 0)
(57.8632 0 0)
(57.9183 0 0)
(57.9735 0 0)
(58.0286 0 0)
(58.0838 0 0)
(58.1389 0 0)
(58.1941 0 0)
(58.2492 0 0)
(58.3044 0 0)
(58.3595 0 0)
(58.4147 0 0)
(58.4698 0 0)
(58.525 0 0)
(58.5801 0 0)
(58.6353 0 0)
(58.6904 0 0)
(58.7456 0 0)
(58.8008 0 0)
(58.8559 0 0)
(58.9111 0 0)
(58.9662 0 0)
(59.0214 0 0)
(59.0765 0 0)
(59.1317 0 0)
(59.1868 0 0)
(59.242 0 0)
(59.2972 0 0)
(59.3523 0 0)
(59.4075 0 0)
(59.4626 0 0)
(59.5178 0 0)
(59.5729 0 0)
(59.6281 0 0)
(59.6833 0 0)
(59.7384 0 0)
(59.7936 0 0)
(59.8487 0 0)
(59.9039 0 0)
(59.9591 0 0)
(60.0142 0 0)
(60.0694 0 0)
(60.1246 0 0)
(60.1797 0 0)
(60.2349 0 0)
(60.29 0 0)
(60.3452 0 0)
(60.4004 0 0)
(60.4555 0 0)
(60.5107 0 0)
(60.5659 0 0)
(60.621 0 0)
(60.6762 0 0)
(60.7314 0 0)
(60.7865 0 0)
(60.8417 0 0)
(60.8969 0 0)
(60.952 0 0)
(61.0072 0 0)
(61.0624 0 0)
(61.1175 0 0)
(61.1727 0 0)
(61.2279 0 0)
(61.2831 0 0)
(61.3382 0 0)
(61.3934 0 0)
(61.4486 0 0)
(61.5037 0 0)
(61.5589 0 0)
(61.6141 0 0)
(61.6693 0 0)
(61.7244 0 0)
(61.7796 0 0)
(61.8348 0 0)
(61.8899 0 0)
(61.9451 0 0)
(62.0003 0 0)
(62.0555 0 0)
(62.1106 0 0)
(62.1658 0 0)
(62.221 0 0)
(62.2762 0 0)
(62.3314 0 0)
(62.3865 0 0)
(62.4417 0 0)
(62.4969 0 0)
(62.5521 0 0)
(62.6072 0 0)
(62.6624 0 0)
(62.7176 0 0)
(62.7728 0 0)
(62.828 0 0)
(62.8831 0 0)
(62.9383 0 0)
(62.9935 0 0)
(63.0487 0 0)
(63.1039 0 0)
(63.1591 0 0)
(63.2142 0 0)
(63.2694 0 0)
(63.3246 0 0)
(63.3798 0 0)
(63.435 0 0)
(63.4902 0 0)
(63.5453 0 0)
(63.6005 0 0)
(63.6557 0 0)
(63.7109 0 0)
(63.7661 0 0)
(63.8213 0 0)
(63.8765 0 0)
(63.9316 0 0)
(63.9868 0 0)
(64.042 0 0)
(64.0972 0 0)
(64.1524 0 0)
(64.2076 0 0)
(64.2628 0 0)
(64.318 0 0)
(64.3732 0 0)
(64.4283 0 0)
(64.4835 0 0)
(64.5387 0 0)
(64.5939 0 0)
(64.6491 0 0)
(64.7043 0 0)
(64.7595 0 0)
(64.8147 0 0)
(64.8699 0 0)
(64.9251 0 0)
(64.9803 0 0)
(65.0355 0 0)
(65.0907 0 0)
(65.1459 0 0)
(65.2011 0 0)
(65.2562 0 0)
(65.3114 0 0)
(65.3666 0 0)
(65.4218 0 0)
(65.477 0 0)
(65.5322 0 0)
(65.5874 0 0)
(65.6426 0 0)
(65.6978 0 0)
(65.753 0 0)
(65.8082 0 0)
(65.8634 0 0)
(65.9186 0 0)
(65.9738 0 0)
(66.029 0 0)
(66.0842 0 0)
(66.1394 0 0)
(66.1946 0 0)
(66.2498 0 0)
(66.305 0 0)
(66.3602 0 0)
(66.4154 0 0)
(66.4706 0 0)
(66.5259 0 0)
(66.5811 0 0)
(66.6363 0 0)
(66.6915 0 0)
(66.7467 0 0)
(66.8019 0 0)
(66.8571 0 0)
(66.9123 0 0)
(66.9675 0 0)
(67.0227 0 0)
(67.0779 0 0)
(67.1331 0 0)
(67.1883 0 0)
(67.2435 0 0)
(67.2987 0 0)
(67.354 0 0)
(67.4092 0 0)
(67.4644 0 0)
(67.5196 0 0)
(67.5748 0 0)
(67.63 0 0)
(67.6852 0 0)
(67.7404 0 0)
(67.7956 0 0)
(67.8509 0 0)
(67.9061 0 0)
(67.9613 0 0)
(68.0165 0 0)
(68.0717 0 0)
(68.1269 0 0)
(68.1821 0 0)
(68.2374 0 0)
(68.2926 0 0)
(68.3478 0 0)
(68.403 0 0)
(68.4582 0 0)
(68.5134 0 0)
(68.5687 0 0)
(68.6239 0 0)
(68.6791 0 0)
(68.7343 0 0)
(68.7895 0 0)
(68.8447 0 0)
(68.9 0 0)
(68.9552 0 0)
(69.0104 0 0)
(69.0656 0 0)
(69.1208 0 0)
(69.1761 0 0)
(69.2313 0 0)
(69.2865 0 0)
(69.3417 0 0)
(69.397 0 0)
(69.4522 0 0)
(69.5074 0 0)
(69.5626 0 0)
(69.6179 0 0)
(69.6731 0 0)
(69.7283 0 0)
(69.7835 0 0)
(69.8388 0 0)
(69.894 0 0)
(69.9492 0 0)
(70.0044 0 0)
(70.0597 0 0)
(70.1149 0 0)
(70.1701 0 0)
(70.2253 0 0)
(70.2806 0 0)
(70.3358 0 0)
(70.391 0 0)
(70.4463 0 0)
(70.5015 0 0)
(70.5567 0 0)
(70.6119 0 0)
(70.6672 0 0)
(70.7224 0 0)
(70.7776 0 0)
(70.8329 0 0)
(70.8881 0 0)
(70.9433 0 0)
(70.9986 0 0)
(71.0538 0 0)
(71.109 0 0)
(71.1643 0 0)
(71.2195 0 0)
(71.2747 0 0)
(71.33 0 0)
(71.3852 0 0)
(71.4404 0 0)
(71.4957 0 0)
(71.5509 0 0)
(71.6062 0 0)
(71.6614 0 0)
(71.7166 0 0)
(71.7719 0 0)
(71.8271 0 0)
(71.8823 0 0)
(71.9376 0 0)
(71.9928 0 0)
(72.0481 0 0)
(72.1033 0 0)
(72.1585 0 0)
(72.2138 0 0)
(72.269 0 0)
(72.3243 0 0)
(72.3795 0 0)
(72.4348 0 0)
(72.49 0 0)
(72.5452 0 0)
(72.6005 0 0)
(72.6557 0 0)
(72.711 0 0)
(72.7662 0 0)
(72.8215 0 0)
(72.8767 0 0)
(72.9319 0 0)
(72.9872 0 0)
(73.0424 0 0)
(73.0977 0 0)
(73.1529 0 0)
(73.2082 0 0)
(73.2634 0 0)
(73.3187 0 0)
(73.3739 0 0)
(73.4292 0 0)
(73.4844 0 0)
(73.5397 0 0)
(73.5949 0 0)
(73.6502 0 0)
(73.7054 0 0)
(73.7607 0 0)
(73.8159 0 0)
(73.8712 0 0)
(73.9264 0 0)
(73.9817 0 0)
(74.0369 0 0)
(74.0922 0 0)
(74.1474 0 0)
(74.2027 0 0)
(74.2579 0 0)
(74.3132 0 0)
(74.3684 0 0)
(74.4237 0 0)
(74.479 0 0)
(74.5342 0 0)
(74.5895 0 0)
(74.6447 0 0)
(74.7 0 0)
(74.7552 0 0)
(74.8105 0 0)
(74.8658 0 0)
(74.921 0 0)
(74.9763 0 0)
(75.0315 0 0)
(75.0868 0 0)
(75.142 0 0)
(75.1973 0 0)
(75.2526 0 0)
(75.3078 0 0)
(75.3631 0 0)
(75.4183 0 0)
(75.4736 0 0)
(75.5289 0 0)
(75.5841 0 0)
(75.6394 0 0)
(75.6947 0 0)
(75.7499 0 0)
(75.8052 0 0)
(75.8605 0 0)
(75.9157 0 0)
(75.971 0 0)
(76.0262 0 0)
(76.0815 0 0)
(76.1368 0 0)
(76.192 0 0)
(76.2473 0 0)
(76.3026 0 0)
(76.3578 0 0)
(76.4131 0 0)
(76.4684 0 0)
(76.5236 0 0)
(76.5789 0 0)
(76.6342 0 0)
(76.6895 0 0)
(76.7447 0 0)
(76.8 0 0)
(76.8553 0 0)
(76.9105 0 0)
(76.9658 0 0)
(77.0211 0 0)
(77.0763 0 0)
(77.1316 0 0)
(77.1869 0 0)
(77.2422 0 0)
(77.2974 0 0)
(77.3527 0 0)
(77.408 0 0)
(77.4633 0 0)
(77.5185 0 0)
(77.5738 0 0)
(77.6291 0 0)
(77.6844 0 0)
(77.7396 0 0)
(77.7949 0 0)
(77.8502 0 0)
(77.9055 0 0)
(77.9607 0 0)
(78.016 0 0)
(78.0713 0 0)
(78.1266 0 0)
(78.1819 0 0)
(78.2371 0 0)
(78.2924 0 0)
(78.3477 0 0)
(78.403 0 0)
(78.4583 0 0)
(78.5135 0 0)
(78.5688 0 0)
(78.6241 0 0)
(78.6794 0 0)
(78.7347 0 0)
(78.7899 0 0)
(78.8452 0 0)
(78.9005 0 0)
(78.9558 0 0)
(79.0111 0 0)
(79.0664 0 0)
(79.1216 0 0)
(79.1769 0 0)
(79.2322 0 0)
(79.2875 0 0)
(79.3428 0 0)
(79.3981 0 0)
(79.4534 0 0)
(79.5086 0 0)
(79.5639 0 0)
(79.6192 0 0)
(79.6745 0 0)
(79.7298 0 0)
(79.7851 0 0)
(79.8404 0 0)
(79.8957 0 0)
(79.951 0 0)
(80.0062 0 0)
(80.0615 0 0)
(80.1168 0 0)
(80.1721 0 0)
(80.2274 0 0)
(80.2827 0 0)
(80.338 0 0)
(80.3933 0 0)
(80.4486 0 0)
(80.5039 0 0)
(80.5592 0 0)
(80.6145 0 0)
(80.6698 0 0)
(80.725 0 0)
(80.7803 0 0)
(80.8356 0 0)
(80.8909 0 0)
(80.9462 0 0)
(81.0015 0 0)
(81.0568 0 0)
(81.1121 0 0)
(81.1674 0 0)
(81.2227 0 0)
(81.278 0 0)
(81.3333 0 0)
(81.3886 0 0)
(81.4439 0 0)
(81.4992 0 0)
(81.5545 0 0)
(81.6098 0 0)
(81.6651 0 0)
(81.7204 0 0)
(81.7757 0 0)
(81.831 0 0)
(81.8863 0 0)
(81.9416 0 0)
(81.9969 0 0)
(82.0522 0 0)
(82.1075 0 0)
(82.1628 0 0)
(82.2181 0 0)
(82.2734 0 0)
(82.3287 0 0)
(82.3841 0 0)
(82.4394 0 0)
(82.4947 0 0)
(82.55 0 0)
(82.6053 0 0)
(82.6606 0 0)
(82.7159 0 0)
(82.7712 0 0)
(82.8265 0 0)
(82.8818 0 0)
(82.9371 0 0)
(82.9924 0 0)
(83.0477 0 0)
(83.1031 0 0)
(83.1584 0 0)
(83.2137 0 0)
(83.269 0 0)
(83.3243 0 0)
(83.3796 0 0)
(83.4349 0 0)
(83.4902 0 0)
(83.5455 0 0)
(83.6009 0 0)
(83.6562 0 0)
(83.7115 0 0)
(83.7668 0 0)
(83.8221 0 0)
(83.8774 0 0)
(83.9327 0 0)
(83.9881 0 0)
(84.0434 0 0)
(84.0987 0 0)
(84.154 0 0)
(84.2093 0 0)
(84.2646 0 0)
(84.32 0 0)
(84.3753 0 0)
(84.4306 0 0)
(84.4859 0 0)
(84.5412 0 0)
(84.5965 0 0)
(84.6519 0 0)
(84.7072 0 0)
(84.7625 0 0)
(84.8178 0 0)
(84.8731 0 0)
(84.9285 0 0)
(84.9838 0 0)
(85.0391 0 0)
(85.0944 0 0)
(85.1498 0 0)
(85.2051 0 0)
(85.2604 0 0)
(85.3157 0 0)
(85.371 0 0)
(85.4264 0 0)
(85.4817 0 0)
(85.537 0 0)
(85.5923 0 0)
(85.6477 0 0)
(85.703 0 0)
(85.7583 0 0)
(85.8137 0 0)
(85.869 0 0)
(85.9243 0 0)
(85.9796 0 0)
(86.035 0 0)
(86.0903 0 0)
(86.1456 0 0)
(86.2009 0 0)
(86.2563 0 0)
(86.3116 0 0)
(86.3669 0 0)
(86.4223 0 0)
(86.4776 0 0)
(86.5329 0 0)
(86.5883 0 0)
(86.6436 0 0)
(86.6989 0 0)
(86.7543 0 0)
(86.8096 0 0)
(86.8649 0 0)
(86.9203 0 0)
(86.9756 0 0)
(87.0309 0 0)
(87.0863 0 0)
(87.1416 0 0)
(87.1969 0 0)
(87.2523 0 0)
(87.3076 0 0)
(87.3629 0 0)
(87.4183 0 0)
(87.4736 0 0)
(87.529 0 0)
(87.5843 0 0)
(87.6396 0 0)
(87.695 0 0)
(87.7503 0 0)
(87.8056 0 0)
(87.861 0 0)
(87.9163 0 0)
(87.9717 0 0)
(88.027 0 0)
(88.0823 0 0)
(88.1377 0 0)
(88.193 0 0)
(88.2484 0 0)
(88.3037 0 0)
(88.3591 0 0)
(88.4144 0 0)
(88.4697 0 0)
(88.5251 0 0)
(88.5804 0 0)
(88.6358 0 0)
(88.6911 0 0)
(88.7465 0 0)
(88.8018 0 0)
(88.8572 0 0)
(88.9125 0 0)
(88.9678 0 0)
(89.0232 0 0)
(89.0785 0 0)
(89.1339 0 0)
(89.1892 0 0)
(89.2446 0 0)
(89.2999 0 0)
(89.3553 0 0)
(89.4106 0 0)
(89.466 0 0)
(89.5213 0 0)
(89.5767 0 0)
(89.632 0 0)
(89.6874 0 0)
(89.7427 0 0)
(89.7981 0 0)
(89.8534 0 0)
(89.9088 0 0)
(89.9641 0 0)
(90.0195 0 0)
(90.0748 0 0)
(90.1302 0 0)
(90.1855 0 0)
(90.2409 0 0)
(90.2963 0 0)
(90.3516 0 0)
(90.407 0 0)
(90.4623 0 0)
(90.5177 0 0)
(90.573 0 0)
(90.6284 0 0)
(90.6837 0 0)
(90.7391 0 0)
(90.7945 0 0)
(90.8498 0 0)
(90.9052 0 0)
(90.9605 0 0)
(91.0159 0 0)
(91.0713 0 0)
(91.1266 0 0)
(91.182 0 0)
(91.2373 0 0)
(91.2927 0 0)
(91.3481 0 0)
(91.4034 0 0)
(91.4588 0 0)
(91.5141 0 0)
(91.5695 0 0)
(91.6249 0 0)
(91.6802 0 0)
(91.7356 0 0)
(91.791 0 0)
(91.8463 0 0)
(91.9017 0 0)
(91.9571 0 0)
(92.0124 0 0)
(92.0678 0 0)
(92.1232 0 0)
(92.1785 0 0)
(92.2339 0 0)
(92.2893 0 0)
(92.3446 0 0)
(92.4 0 0)
(92.4554 0 0)
(92.5107 0 0)
(92.5661 0 0)
(92.6215 0 0)
(92.6768 0 0)
(92.7322 0 0)
(92.7876 0 0)
(92.8429 0 0)
(92.8983 0 0)
(92.9537 0 0)
(93.0091 0 0)
(93.0644 0 0)
(93.1198 0 0)
(93.1752 0 0)
(93.2305 0 0)
(93.2859 0 0)
(93.3413 0 0)
(93.3967 0 0)
(93.452 0 0)
(93.5074 0 0)
(93.5628 0 0)
(93.6182 0 0)
(93.6735 0 0)
(93.7289 0 0)
(93.7843 0 0)
(93.8397 0 0)
(93.895 0 0)
(93.9504 0 0)
(94.0058 0 0)
(94.0612 0 0)
(94.1166 0 0)
(94.1719 0 0)
(94.2273 0 0)
(94.2827 0 0)
(94.3381 0 0)
(94.3934 0 0)
(94.4488 0 0)
(94.5042 0 0)
(94.5596 0 0)
(94.615 0 0)
(94.6704 0 0)
(94.7257 0 0)
(94.7811 0 0)
(94.8365 0 0)
(94.8919 0 0)
(94.9473 0 0)
(95.0026 0 0)
(95.058 0 0)
(95.1134 0 0)
(95.1688 0 0)
(95.2242 0 0)
(95.2796 0 0)
(95.335 0 0)
(95.3903 0 0)
(95.4457 0 0)
(95.5011 0 0)
(95.5565 0 0)
(95.6119 0 0)
(95.6673 0 0)
(95.7227 0 0)
(95.7781 0 0)
(95.8334 0 0)
(95.8888 0 0)
(95.9442 0 0)
(95.9996 0 0)
(96.055 0 0)
(96.1104 0 0)
(96.1658 0 0)
(96.2212 0 0)
(96.2766 0 0)
(96.332 0 0)
(96.3874 0 0)
(96.4427 0 0)
(96.4981 0 0)
(96.5535 0 0)
(96.6089 0 0)
(96.6643 0 0)
(96.7197 0 0)
(96.7751 0 0)
(96.8305 0 0)
(96.8859 0 0)
(96.9413 0 0)
(96.9967 0 0)
(97.0521 0 0)
(97.1075 0 0)
(97.1629 0 0)
(97.2183 0 0)
(97.2737 0 0)
(97.3291 0 0)
(97.3845 0 0)
(97.4399 0 0)
(97.4953 0 0)
(97.5507 0 0)
(97.6061 0 0)
(97.6615 0 0)
(97.7169 0 0)
(97.7723 0 0)
(97.8277 0 0)
(97.8831 0 0)
(97.9385 0 0)
(97.9939 0 0)
(98.0493 0 0)
(98.1047 0 0)
(98.1601 0 0)
(98.2155 0 0)
(98.2709 0 0)
(98.3263 0 0)
(98.3817 0 0)
(98.4371 0 0)
(98.4925 0 0)
(98.5479 0 0)
(98.6033 0 0)
(98.6587 0 0)
(98.7141 0 0)
(98.7695 0 0)
(98.8249 0 0)
(98.8804 0 0)
(98.9358 0 0)
(98.9912 0 0)
(99.0466 0 0)
(99.102 0 0)
(99.1574 0 0)
(99.2128 0 0)
(99.2682 0 0)
(99.3236 0 0)
(99.379 0 0)
(99.4344 0 0)
(99.4899 0 0)
(99.5453 0 0)
(99.6007 0 0)
(99.6561 0 0)
(99.7115 0 0)
(99.7669 0 0)
(99.8223 0 0)
(99.8777 0 0)
(99.9332 0 0)
(99.9886 0 0)
(100.044 0 0)
(100.099 0 0)
(100.155 0 0)
(100.21 0 0)
(100.266 0 0)
(100.321 0 0)
(100.376 0 0)
(100.432 0 0)
(100.487 0 0)
(100.543 0 0)
(100.598 0 0)
(100.654 0 0)
(100.709 0 0)
(100.764 0 0)
(100.82 0 0)
(100.875 0 0)
(100.931 0 0)
(100.986 0 0)
(101.042 0 0)
(101.097 0 0)
(101.152 0 0)
(101.208 0 0)
(101.263 0 0)
(101.319 0 0)
(101.374 0 0)
(101.429 0 0)
(101.485 0 0)
(101.54 0 0)
(101.596 0 0)
(101.651 0 0)
(101.707 0 0)
(101.762 0 0)
(101.817 0 0)
(101.873 0 0)
(101.928 0 0)
(101.984 0 0)
(102.039 0 0)
(102.095 0 0)
(102.15 0 0)
(102.205 0 0)
(102.261 0 0)
(102.316 0 0)
(102.372 0 0)
(102.427 0 0)
(102.483 0 0)
(102.538 0 0)
(102.593 0 0)
(102.649 0 0)
(102.704 0 0)
(102.76 0 0)
(102.815 0 0)
(102.871 0 0)
(102.926 0 0)
(102.981 0 0)
(103.037 0 0)
(103.092 0 0)
(103.148 0 0)
(103.203 0 0)
(103.259 0 0)
(103.314 0 0)
(103.369 0 0)
(103.425 0 0)
(103.48 0 0)
(103.536 0 0)
(103.591 0 0)
(103.647 0 0)
(103.702 0 0)
(103.758 0 0)
(103.813 0 0)
(103.868 0 0)
(103.924 0 0)
(103.979 0 0)
(104.035 0 0)
(104.09 0 0)
(104.146 0 0)
(104.201 0 0)
(104.256 0 0)
(104.312 0 0)
(104.367 0 0)
(104.423 0 0)
(104.478 0 0)
(104.534 0 0)
(104.589 0 0)
(104.645 0 0)
(104.7 0 0)
(104.755 0 0)
(104.811 0 0)
(104.866 0 0)
(104.922 0 0)
(104.977 0 0)
(105.033 0 0)
(105.088 0 0)
(105.144 0 0)
(105.199 0 0)
(105.254 0 0)
(105.31 0 0)
(105.365 0 0)
(105.421 0 0)
(105.476 0 0)
(105.532 0 0)
(105.587 0 0)
(105.643 0 0)
(105.698 0 0)
(105.754 0 0)
(105.809 0 0)
(105.864 0 0)
(105.92 0 0)
(105.975 0 0)
(106.031 0 0)
(106.086 0 0)
(106.142 0 0)
(106.197 0 0)
(106.253 0 0)
(106.308 0 0)
(106.363 0 0)
(106.419 0 0)
(106.474 0 0)
(106.53 0 0)
(106.585 0 0)
(106.641 0 0)
(106.696 0 0)
(106.752 0 0)
(106.807 0 0)
(106.863 0 0)
(106.918 0 0)
(106.973 0 0)
(107.029 0 0)
(107.084 0 0)
(107.14 0 0)
(107.195 0 0)
(107.251 0 0)
(107.306 0 0)
(107.362 0 0)
(107.417 0 0)
(107.473 0 0)
(107.528 0 0)
(107.584 0 0)
(107.639 0 0)
(107.694 0 0)
(107.75 0 0)
(107.805 0 0)
(107.861 0 0)
(107.916 0 0)
(107.972 0 0)
(108.027 0 0)
(108.083 0 0)
(108.138 0 0)
(108.194 0 0)
(108.249 0 0)
(108.305 0 0)
(108.36 0 0)
(108.415 0 0)
(108.471 0 0)
(108.526 0 0)
(108.582 0 0)
(108.637 0 0)
(108.693 0 0)
(108.748 0 0)
(108.804 0 0)
(108.859 0 0)
(108.915 0 0)
(108.97 0 0)
(109.026 0 0)
(109.081 0 0)
(109.137 0 0)
(109.192 0 0)
(109.247 0 0)
(109.303 0 0)
(109.358 0 0)
(109.414 0 0)
(109.469 0 0)
(109.525 0 0)
(109.58 0 0)
(109.636 0 0)
(109.691 0 0)
(109.747 0 0)
(109.802 0 0)
(109.858 0 0)
(109.913 0 0)
(109.969 0 0)
(110.024 0 0)
(110.08 0 0)
(110.135 0 0)
(110.191 0 0)
(110.246 0 0)
(110.301 0 0)
(110.357 0 0)
(110.412 0 0)
(110.468 0 0)
(110.523 0 0)
(110.579 0 0)
(110.634 0 0)
(110.69 0 0)
(110.745 0 0)
(110.801 0 0)
(110.856 0 0)
(110.912 0 0)
(110.967 0 0)
(111.023 0 0)
(111.078 0 0)
(111.134 0 0)
(111.189 0 0)
(111.245 0 0)
(111.3 0 0)
(111.356 0 0)
(111.411 0 0)
(111.467 0 0)
(111.522 0 0)
(111.578 0 0)
(111.633 0 0)
(111.689 0 0)
(111.744 0 0)
(111.799 0 0)
(111.855 0 0)
(111.91 0 0)
(111.966 0 0)
(112.021 0 0)
(112.077 0 0)
(112.132 0 0)
(112.188 0 0)
(112.243 0 0)
(112.299 0 0)
(112.354 0 0)
(112.41 0 0)
(112.465 0 0)
(112.521 0 0)
(112.576 0 0)
(112.632 0 0)
(112.687 0 0)
(112.743 0 0)
(112.798 0 0)
(112.854 0 0)
(112.909 0 0)
(112.965 0 0)
(113.02 0 0)
(113.076 0 0)
(113.131 0 0)
(113.187 0 0)
(113.242 0 0)
(113.298 0 0)
(113.353 0 0)
(113.409 0 0)
(113.464 0 0)
(113.52 0 0)
(113.575 0 0)
(113.631 0 0)
(113.686 0 0)
(113.742 0 0)
(113.797 0 0)
(113.853 0 0)
(113.908 0 0)
(113.964 0 0)
(114.019 0 0)
(114.075 0 0)
(114.13 0 0)
(114.186 0 0)
(114.241 0 0)
(114.297 0 0)
(114.352 0 0)
(114.408 0 0)
(114.463 0 0)
(114.519 0 0)
(114.574 0 0)
(114.63 0 0)
(114.685 0 0)
(114.741 0 0)
(114.796 0 0)
(114.852 0 0)
(114.907 0 0)
(114.963 0 0)
(115.018 0 0)
(115.074 0 0)
(115.129 0 0)
(115.185 0 0)
(115.24 0 0)
(115.296 0 0)
(115.351 0 0)
(115.407 0 0)
(115.462 0 0)
(115.518 0 0)
(115.573 0 0)
(115.629 0 0)
(115.684 0 0)
(115.74 0 0)
(115.795 0 0)
(115.851 0 0)
(115.906 0 0)
(115.962 0 0)
(116.017 0 0)
(116.073 0 0)
(116.128 0 0)
(116.184 0 0)
(116.239 0 0)
(116.295 0 0)
(116.35 0 0)
(116.406 0 0)
(116.461 0 0)
(116.517 0 0)
(116.573 0 0)
(116.628 0 0)
(116.684 0 0)
(116.739 0 0)
(116.795 0 0)
(116.85 0 0)
(116.906 0 0)
(116.961 0 0)
(117.017 0 0)
(117.072 0 0)
(117.128 0 0)
(117.183 0 0)
(117.239 0 0)
(117.294 0 0)
(117.35 0 0)
(117.405 0 0)
(117.461 0 0)
(117.516 0 0)
(117.572 0 0)
(117.627 0 0)
(117.683 0 0)
(117.738 0 0)
(117.794 0 0)
(117.849 0 0)
(117.905 0 0)
(117.96 0 0)
(118.016 0 0)
(118.072 0 0)
(118.127 0 0)
(118.183 0 0)
(118.238 0 0)
(118.294 0 0)
(118.349 0 0)
(118.405 0 0)
(118.46 0 0)
(118.516 0 0)
(118.571 0 0)
(118.627 0 0)
(118.682 0 0)
(118.738 0 0)
(118.793 0 0)
(118.849 0 0)
(118.904 0 0)
(118.96 0 0)
(119.015 0 0)
(119.071 0 0)
(119.127 0 0)
(119.182 0 0)
(119.238 0 0)
(119.293 0 0)
(119.349 0 0)
(119.404 0 0)
(119.46 0 0)
(119.515 0 0)
(119.571 0 0)
(119.626 0 0)
(119.682 0 0)
(119.737 0 0)
(119.793 0 0)
(119.848 0 0)
(119.904 0 0)
(119.96 0 0)
(120.015 0 0)
(120.071 0 0)
(120.126 0 0)
(120.182 0 0)
(120.237 0 0)
(120.293 0 0)
(120.348 0 0)
(120.404 0 0)
(120.459 0 0)
(120.515 0 0)
(120.57 0 0)
(120.626 0 0)