/*--------------------------------*- C++ -*----------------------------------*\
  =========                 |
  \\      /  F ield         | OpenFOAM: The Open Source CFD Toolbox
   \\    /   O peration     | Website:  https://openfoam.org
    \\  /    A nd           | Version:  9
     \\/     M anipulation  |
\*---------------------------------------------------------------------------*/
FoamFile
{
    format      ascii;
    class       volVectorField;
    location    "0.025";
    object      U_0;
}
// * * * * * * * * * * * * * * * * * * * * * * * * * * * * * * * * * * * * * //

dimensions      [0 1 -1 0 0 0 0];

internalField   nonuniform List<vector> 
10000
(
(4.0743 0 0)
(4.14781 0 0)
(4.21319 0 0)
(4.26794 0 0)
(4.32082 0 0)
(4.37494 0 0)
(4.42987 0 0)
(4.48485 0 0)
(4.53969 0 0)
(4.59447 0 0)
(4.64925 0 0)
(4.70406 0 0)
(4.75887 0 0)
(4.81368 0 0)
(4.86847 0 0)
(4.92327 0 0)
(4.97807 0 0)
(5.03287 0 0)
(5.08768 0 0)
(5.1425 0 0)
(5.19731 0 0)
(5.25212 0 0)
(5.30692 0 0)
(5.36172 0 0)
(5.41651 0 0)
(5.47131 0 0)
(5.52612 0 0)
(5.58093 0 0)
(5.63574 0 0)
(5.69056 0 0)
(5.74538 0 0)
(5.80021 0 0)
(5.85503 0 0)
(5.90985 0 0)
(5.96467 0 0)
(6.01949 0 0)
(6.07431 0 0)
(6.12912 0 0)
(6.18394 0 0)
(6.23875 0 0)
(6.29356 0 0)
(6.34837 0 0)
(6.40319 0 0)
(6.458 0 0)
(6.51282 0 0)
(6.56763 0 0)
(6.62244 0 0)
(6.67725 0 0)
(6.73207 0 0)
(6.78688 0 0)
(6.8417 0 0)
(6.89651 0 0)
(6.95133 0 0)
(7.00614 0 0)
(7.06096 0 0)
(7.11577 0 0)
(7.17059 0 0)
(7.22541 0 0)
(7.28023 0 0)
(7.33504 0 0)
(7.38986 0 0)
(7.44468 0 0)
(7.4995 0 0)
(7.55432 0 0)
(7.60914 0 0)
(7.66396 0 0)
(7.71878 0 0)
(7.7736 0 0)
(7.82842 0 0)
(7.88324 0 0)
(7.93806 0 0)
(7.99288 0 0)
(8.04771 0 0)
(8.10253 0 0)
(8.15735 0 0)
(8.21218 0 0)
(8.267 0 0)
(8.32183 0 0)
(8.37665 0 0)
(8.43148 0 0)
(8.4863 0 0)
(8.54113 0 0)
(8.59595 0 0)
(8.65078 0 0)
(8.70561 0 0)
(8.76043 0 0)
(8.81526 0 0)
(8.87009 0 0)
(8.92492 0 0)
(8.97975 0 0)
(9.03457 0 0)
(9.0894 0 0)
(9.14423 0 0)
(9.19906 0 0)
(9.25389 0 0)
(9.30872 0 0)
(9.36356 0 0)
(9.41839 0 0)
(9.47322 0 0)
(9.52805 0 0)
(9.58288 0 0)
(9.63772 0 0)
(9.69255 0 0)
(9.74738 0 0)
(9.80222 0 0)
(9.85705 0 0)
(9.91189 0 0)
(9.96672 0 0)
(10.0216 0 0)
(10.0764 0 0)
(10.1312 0 0)
(10.1861 0 0)
(10.2409 0 0)
(10.2957 0 0)
(10.3506 0 0)
(10.4054 0 0)
(10.4603 0 0)
(10.5151 0 0)
(10.5699 0 0)
(10.6248 0 0)
(10.6796 0 0)
(10.7345 0 0)
(10.7893 0 0)
(10.8441 0 0)
(10.899 0 0)
(10.9538 0 0)
(11.0087 0 0)
(11.0635 0 0)
(11.1183 0 0)
(11.1732 0 0)
(11.228 0 0)
(11.2829 0 0)
(11.3377 0 0)
(11.3926 0 0)
(11.4474 0 0)
(11.5023 0 0)
(11.5571 0 0)
(11.6119 0 0)
(11.6668 0 0)
(11.7216 0 0)
(11.7765 0 0)
(11.8313 0 0)
(11.8862 0 0)
(11.941 0 0)
(11.9959 0 0)
(12.0507 0 0)
(12.1056 0 0)
(12.1604 0 0)
(12.2153 0 0)
(12.2701 0 0)
(12.325 0 0)
(12.3798 0 0)
(12.4347 0 0)
(12.4895 0 0)
(12.5444 0 0)
(12.5992 0 0)
(12.6541 0 0)
(12.7089 0 0)
(12.7638 0 0)
(12.8187 0 0)
(12.8735 0 0)
(12.9284 0 0)
(12.9832 0 0)
(13.0381 0 0)
(13.0929 0 0)
(13.1478 0 0)
(13.2026 0 0)
(13.2575 0 0)
(13.3124 0 0)
(13.3672 0 0)
(13.4221 0 0)
(13.4769 0 0)
(13.5318 0 0)
(13.5866 0 0)
(13.6415 0 0)
(13.6964 0 0)
(13.7512 0 0)
(13.8061 0 0)
(13.8609 0 0)
(13.9158 0 0)
(13.9707 0 0)
(14.0255 0 0)
(14.0804 0 0)
(14.1353 0 0)
(14.1901 0 0)
(14.245 0 0)
(14.2998 0 0)
(14.3547 0 0)
(14.4096 0 0)
(14.4644 0 0)
(14.5193 0 0)
(14.5742 0 0)
(14.629 0 0)
(14.6839 0 0)
(14.7388 0 0)
(14.7936 0 0)
(14.8485 0 0)
(14.9034 0 0)
(14.9582 0 0)
(15.0131 0 0)
(15.068 0 0)
(15.1228 0 0)
(15.1777 0 0)
(15.2326 0 0)
(15.2875 0 0)
(15.3423 0 0)
(15.3972 0 0)
(15.4521 0 0)
(15.5069 0 0)
(15.5618 0 0)
(15.6167 0 0)
(15.6716 0 0)
(15.7264 0 0)
(15.7813 0 0)
(15.8362 0 0)
(15.8911 0 0)
(15.9459 0 0)
(16.0008 0 0)
(16.0557 0 0)
(16.1106 0 0)
(16.1654 0 0)
(16.2203 0 0)
(16.2752 0 0)
(16.3301 0 0)
(16.3849 0 0)
(16.4398 0 0)
(16.4947 0 0)
(16.5496 0 0)
(16.6045 0 0)
(16.6593 0 0)
(16.7142 0 0)
(16.7691 0 0)
(16.824 0 0)
(16.8789 0 0)
(16.9337 0 0)
(16.9886 0 0)
(17.0435 0 0)
(17.0984 0 0)
(17.1533 0 0)
(17.2082 0 0)
(17.263 0 0)
(17.3179 0 0)
(17.3728 0 0)
(17.4277 0 0)
(17.4826 0 0)
(17.5375 0 0)
(17.5923 0 0)
(17.6472 0 0)
(17.7021 0 0)
(17.757 0 0)
(17.8119 0 0)
(17.8668 0 0)
(17.9217 0 0)
(17.9766 0 0)
(18.0314 0 0)
(18.0863 0 0)
(18.1412 0 0)
(18.1961 0 0)
(18.251 0 0)
(18.3059 0 0)
(18.3608 0 0)
(18.4157 0 0)
(18.4706 0 0)
(18.5255 0 0)
(18.5803 0 0)
(18.6352 0 0)
(18.6901 0 0)
(18.745 0 0)
(18.7999 0 0)
(18.8548 0 0)
(18.9097 0 0)
(18.9646 0 0)
(19.0195 0 0)
(19.0744 0 0)
(19.1293 0 0)
(19.1842 0 0)
(19.2391 0 0)
(19.294 0 0)
(19.3489 0 0)
(19.4038 0 0)
(19.4587 0 0)
(19.5136 0 0)
(19.5685 0 0)
(19.6234 0 0)
(19.6783 0 0)
(19.7332 0 0)
(19.7881 0 0)
(19.843 0 0)
(19.8979 0 0)
(19.9528 0 0)
(20.0077 0 0)
(20.0626 0 0)
(20.1175 0 0)
(20.1724 0 0)
(20.2273 0 0)
(20.2822 0 0)
(20.3371 0 0)
(20.392 0 0)
(20.4469 0 0)
(20.5018 0 0)
(20.5567 0 0)
(20.6116 0 0)
(20.6665 0 0)
(20.7214 0 0)
(20.7763 0 0)
(20.8312 0 0)
(20.8861 0 0)
(20.941 0 0)
(20.9959 0 0)
(21.0508 0 0)
(21.1058 0 0)
(21.1607 0 0)
(21.2156 0 0)
(21.2705 0 0)
(21.3254 0 0)
(21.3803 0 0)
(21.4352 0 0)
(21.4901 0 0)
(21.545 0 0)
(21.6 0 0)
(21.6549 0 0)
(21.7098 0 0)
(21.7647 0 0)
(21.8196 0 0)
(21.8745 0 0)
(21.9294 0 0)
(21.9843 0 0)
(22.0393 0 0)
(22.0942 0 0)
(22.1491 0 0)
(22.204 0 0)
(22.2589 0 0)
(22.3138 0 0)
(22.3688 0 0)
(22.4237 0 0)
(22.4786 0 0)
(22.5335 0 0)
(22.5884 0 0)
(22.6433 0 0)
(22.6983 0 0)
(22.7532 0 0)
(22.8081 0 0)
(22.863 0 0)
(22.9179 0 0)
(22.9729 0 0)
(23.0278 0 0)
(23.0827 0 0)
(23.1376 0 0)
(23.1926 0 0)
(23.2475 0 0)
(23.3024 0 0)
(23.3573 0 0)
(23.4122 0 0)
(23.4672 0 0)
(23.5221 0 0)
(23.577 0 0)
(23.6319 0 0)
(23.6869 0 0)
(23.7418 0 0)
(23.7967 0 0)
(23.8516 0 0)
(23.9066 0 0)
(23.9615 0 0)
(24.0164 0 0)
(24.0714 0 0)
(24.1263 0 0)
(24.1812 0 0)
(24.2361 0 0)
(24.2911 0 0)
(24.346 0 0)
(24.4009 0 0)
(24.4559 0 0)
(24.5108 0 0)
(24.5657 0 0)
(24.6207 0 0)
(24.6756 0 0)
(24.7305 0 0)
(24.7855 0 0)
(24.8404 0 0)
(24.8953 0 0)
(24.9503 0 0)
(25.0052 0 0)
(25.0601 0 0)
(25.1151 0 0)
(25.17 0 0)
(25.2249 0 0)
(25.2799 0 0)
(25.3348 0 0)
(25.3897 0 0)
(25.4447 0 0)
(25.4996 0 0)
(25.5546 0 0)
(25.6095 0 0)
(25.6644 0 0)
(25.7194 0 0)
(25.7743 0 0)
(25.8293 0 0)
(25.8842 0 0)
(25.9391 0 0)
(25.9941 0 0)
(26.049 0 0)
(26.104 0 0)
(26.1589 0 0)
(26.2138 0 0)
(26.2688 0 0)
(26.3237 0 0)
(26.3787 0 0)
(26.4336 0 0)
(26.4886 0 0)
(26.5435 0 0)
(26.5984 0 0)
(26.6534 0 0)
(26.7083 0 0)
(26.7633 0 0)
(26.8182 0 0)
(26.8732 0 0)
(26.9281 0 0)
(26.9831 0 0)
(27.038 0 0)
(27.093 0 0)
(27.1479 0 0)
(27.2029 0 0)
(27.2578 0 0)
(27.3128 0 0)
(27.3677 0 0)
(27.4227 0 0)
(27.4776 0 0)
(27.5326 0 0)
(27.5875 0 0)
(27.6425 0 0)
(27.6974 0 0)
(27.7524 0 0)
(27.8073 0 0)
(27.8623 0 0)
(27.9172 0 0)
(27.9722 0 0)
(28.0271 0 0)
(28.0821 0 0)
(28.137 0 0)
(28.192 0 0)
(28.247 0 0)
(28.3019 0 0)
(28.3569 0 0)
(28.4118 0 0)
(28.4668 0 0)
(28.5217 0 0)
(28.5767 0 0)
(28.6317 0 0)
(28.6866 0 0)
(28.7416 0 0)
(28.7965 0 0)
(28.8515 0 0)
(28.9065 0 0)
(28.9614 0 0)
(29.0164 0 0)
(29.0713 0 0)
(29.1263 0 0)
(29.1813 0 0)
(29.2362 0 0)
(29.2912 0 0)
(29.3461 0 0)
(29.4011 0 0)
(29.4561 0 0)
(29.511 0 0)
(29.566 0 0)
(29.621 0 0)
(29.6759 0 0)
(29.7309 0 0)
(29.7859 0 0)
(29.8408 0 0)
(29.8958 0 0)
(29.9508 0 0)
(30.0057 0 0)
(30.0607 0 0)
(30.1157 0 0)
(30.1706 0 0)
(30.2256 0 0)
(30.2806 0 0)
(30.3355 0 0)
(30.3905 0 0)
(30.4455 0 0)
(30.5004 0 0)
(30.5554 0 0)
(30.6104 0 0)
(30.6654 0 0)
(30.7203 0 0)
(30.7753 0 0)
(30.8303 0 0)
(30.8852 0 0)
(30.9402 0 0)
(30.9952 0 0)
(31.0502 0 0)
(31.1051 0 0)
(31.1601 0 0)
(31.2151 0 0)
(31.2701 0 0)
(31.325 0 0)
(31.38 0 0)
(31.435 0 0)
(31.49 0 0)
(31.545 0 0)
(31.5999 0 0)
(31.6549 0 0)
(31.7099 0 0)
(31.7649 0 0)
(31.8198 0 0)
(31.8748 0 0)
(31.9298 0 0)
(31.9848 0 0)
(32.0398 0 0)
(32.0947 0 0)
(32.1497 0 0)
(32.2047 0 0)
(32.2597 0 0)
(32.3147 0 0)
(32.3697 0 0)
(32.4246 0 0)
(32.4796 0 0)
(32.5346 0 0)
(32.5896 0 0)
(32.6446 0 0)
(32.6996 0 0)
(32.7545 0 0)
(32.8095 0 0)
(32.8645 0 0)
(32.9195 0 0)
(32.9745 0 0)
(33.0295 0 0)
(33.0845 0 0)
(33.1394 0 0)
(33.1944 0 0)
(33.2494 0 0)
(33.3044 0 0)
(33.3594 0 0)
(33.4144 0 0)
(33.4694 0 0)
(33.5244 0 0)
(33.5794 0 0)
(33.6344 0 0)
(33.6893 0 0)
(33.7443 0 0)
(33.7993 0 0)
(33.8543 0 0)
(33.9093 0 0)
(33.9643 0 0)
(34.0193 0 0)
(34.0743 0 0)
(34.1293 0 0)
(34.1843 0 0)
(34.2393 0 0)
(34.2943 0 0)
(34.3493 0 0)
(34.4043 0 0)
(34.4593 0 0)
(34.5143 0 0)
(34.5693 0 0)
(34.6243 0 0)
(34.6793 0 0)
(34.7343 0 0)
(34.7892 0 0)
(34.8442 0 0)
(34.8992 0 0)
(34.9542 0 0)
(35.0092 0 0)
(35.0642 0 0)
(35.1192 0 0)
(35.1743 0 0)
(35.2293 0 0)
(35.2843 0 0)
(35.3393 0 0)
(35.3943 0 0)
(35.4493 0 0)
(35.5043 0 0)
(35.5593 0 0)
(35.6143 0 0)
(35.6693 0 0)
(35.7243 0 0)
(35.7793 0 0)
(35.8343 0 0)
(35.8893 0 0)
(35.9443 0 0)
(35.9993 0 0)
(36.0543 0 0)
(36.1093 0 0)
(36.1643 0 0)
(36.2193 0 0)
(36.2743 0 0)
(36.3294 0 0)
(36.3844 0 0)
(36.4394 0 0)
(36.4944 0 0)
(36.5494 0 0)
(36.6044 0 0)
(36.6594 0 0)
(36.7144 0 0)
(36.7694 0 0)
(36.8245 0 0)
(36.8795 0 0)
(36.9345 0 0)
(36.9895 0 0)
(37.0445 0 0)
(37.0995 0 0)
(37.1545 0 0)
(37.2095 0 0)
(37.2646 0 0)
(37.3196 0 0)
(37.3746 0 0)
(37.4296 0 0)
(37.4846 0 0)
(37.5396 0 0)
(37.5947 0 0)
(37.6497 0 0)
(37.7047 0 0)
(37.7597 0 0)
(37.8147 0 0)
(37.8697 0 0)
(37.9248 0 0)
(37.9798 0 0)
(38.0348 0 0)
(38.0898 0 0)
(38.1448 0 0)
(38.1999 0 0)
(38.2549 0 0)
(38.3099 0 0)
(38.3649 0 0)
(38.42 0 0)
(38.475 0 0)
(38.53 0 0)
(38.585 0 0)
(38.64 0 0)
(38.6951 0 0)
(38.7501 0 0)
(38.8051 0 0)
(38.8601 0 0)
(38.9152 0 0)
(38.9702 0 0)
(39.0252 0 0)
(39.0803 0 0)
(39.1353 0 0)
(39.1903 0 0)
(39.2453 0 0)
(39.3004 0 0)
(39.3554 0 0)
(39.4104 0 0)
(39.4655 0 0)
(39.5205 0 0)
(39.5755 0 0)
(39.6305 0 0)
(39.6856 0 0)
(39.7406 0 0)
(39.7956 0 0)
(39.8507 0 0)
(39.9057 0 0)
(39.9607 0 0)
(40.0158 0 0)
(40.0708 0 0)
(40.1258 0 0)
(40.1809 0 0)
(40.2359 0 0)
(40.2909 0 0)
(40.346 0 0)
(40.401 0 0)
(40.456 0 0)
(40.5111 0 0)
(40.5661 0 0)
(40.6212 0 0)
(40.6762 0 0)
(40.7312 0 0)
(40.7863 0 0)
(40.8413 0 0)
(40.8963 0 0)
(40.9514 0 0)
(41.0064 0 0)
(41.0615 0 0)
(41.1165 0 0)
(41.1715 0 0)
(41.2266 0 0)
(41.2816 0 0)
(41.3367 0 0)
(41.3917 0 0)
(41.4467 0 0)
(41.5018 0 0)
(41.5568 0 0)
(41.6119 0 0)
(41.6669 0 0)
(41.722 0 0)
(41.777 0 0)
(41.8321 0 0)
(41.8871 0 0)
(41.9421 0 0)
(41.9972 0 0)
(42.0522 0 0)
(42.1073 0 0)
(42.1623 0 0)
(42.2174 0 0)
(42.2724 0 0)
(42.3275 0 0)
(42.3825 0 0)
(42.4376 0 0)
(42.4926 0 0)
(42.5477 0 0)
(42.6027 0 0)
(42.6578 0 0)
(42.7128 0 0)
(42.7679 0 0)
(42.8229 0 0)
(42.878 0 0)
(42.933 0 0)
(42.9881 0 0)
(43.0431 0 0)
(43.0982 0 0)
(43.1532 0 0)
(43.2083 0 0)
(43.2634 0 0)
(43.3184 0 0)
(43.3735 0 0)
(43.4285 0 0)
(43.4836 0 0)
(43.5386 0 0)
(43.5937 0 0)
(43.6487 0 0)
(43.7038 0 0)
(43.7589 0 0)
(43.8139 0 0)
(43.869 0 0)
(43.924 0 0)
(43.9791 0 0)
(44.0342 0 0)
(44.0892 0 0)
(44.1443 0 0)
(44.1993 0 0)
(44.2544 0 0)
(44.3095 0 0)
(44.3645 0 0)
(44.4196 0 0)
(44.4746 0 0)
(44.5297 0 0)
(44.5848 0 0)
(44.6398 0 0)
(44.6949 0 0)
(44.75 0 0)
(44.805 0 0)
(44.8601 0 0)
(44.9152 0 0)
(44.9702 0 0)
(45.0253 0 0)
(45.0803 0 0)
(45.1354 0 0)
(45.1905 0 0)
(45.2455 0 0)
(45.3006 0 0)
(45.3557 0 0)
(45.4108 0 0)
(45.4658 0 0)
(45.5209 0 0)
(45.576 0 0)
(45.631 0 0)
(45.6861 0 0)
(45.7412 0 0)
(45.7962 0 0)
(45.8513 0 0)
(45.9064 0 0)
(45.9615 0 0)
(46.0165 0 0)
(46.0716 0 0)
(46.1267 0 0)
(46.1818 0 0)
(46.2368 0 0)
(46.2919 0 0)
(46.347 0 0)
(46.402 0 0)
(46.4571 0 0)
(46.5122 0 0)
(46.5673 0 0)
(46.6224 0 0)
(46.6774 0 0)
(46.7325 0 0)
(46.7876 0 0)
(46.8427 0 0)
(46.8977 0 0)
(46.9528 0 0)
(47.0079 0 0)
(47.063 0 0)
(47.1181 0 0)
(47.1731 0 0)
(47.2282 0 0)
(47.2833 0 0)
(47.3384 0 0)
(47.3935 0 0)
(47.4485 0 0)
(47.5036 0 0)
(47.5587 0 0)
(47.6138 0 0)
(47.6689 0 0)
(47.724 0 0)
(47.779 0 0)
(47.8341 0 0)
(47.8892 0 0)
(47.9443 0 0)
(47.9994 0 0)
(48.0545 0 0)
(48.1096 0 0)
(48.1646 0 0)
(48.2197 0 0)
(48.2748 0 0)
(48.3299 0 0)
(48.385 0 0)
(48.4401 0 0)
(48.4952 0 0)
(48.5503 0 0)
(48.6053 0 0)
(48.6604 0 0)
(48.7155 0 0)
(48.7706 0 0)
(48.8257 0 0)
(48.8808 0 0)
(48.9359 0 0)
(48.991 0 0)
(49.0461 0 0)
(49.1012 0 0)
(49.1563 0 0)
(49.2114 0 0)
(49.2665 0 0)
(49.3215 0 0)
(49.3766 0 0)
(49.4317 0 0)
(49.4868 0 0)
(49.5419 0 0)
(49.597 0 0)
(49.6521 0 0)
(49.7072 0 0)
(49.7623 0 0)
(49.8174 0 0)
(49.8725 0 0)
(49.9276 0 0)
(49.9827 0 0)
(50.0378 0 0)
(50.0929 0 0)
(50.148 0 0)
(50.2031 0 0)
(50.2582 0 0)
(50.3133 0 0)
(50.3684 0 0)
(50.4235 0 0)
(50.4786 0 0)
(50.5337 0 0)
(50.5888 0 0)
(50.6439 0 0)
(50.699 0 0)
(50.7541 0 0)
(50.8092 0 0)
(50.8643 0 0)
(50.9194 0 0)
(50.9745 0 0)
(51.0297 0 0)
(51.0848 0 0)
(51.1399 0 0)
(51.195 0 0)
(51.2501 0 0)
(51.3052 0 0)
(51.3603 0 0)
(51.4154 0 0)
(51.4705 0 0)
(51.5256 0 0)
(51.5807 0 0)
(51.6358 0 0)
(51.6909 0 0)
(51.7461 0 0)
(51.8012 0 0)
(51.8563 0 0)
(51.9114 0 0)
(51.9665 0 0)
(52.0216 0 0)
(52.0767 0 0)
(52.1318 0 0)
(52.187 0 0)
(52.2421 0 0)
(52.2972 0 0)
(52.3523 0 0)
(52.4074 0 0)
(52.4625 0 0)
(52.5176 0 0)
(52.5728 0 0)
(52.6279 0 0)
(52.683 0 0)
(52.7381 0 0)
(52.7932 0 0)
(52.8483 0 0)
(52.9035 0 0)
(52.9586 0 0)
(53.0137 0 0)
(53.0688 0 0)
(53.1239 0 0)
(53.1791 0 0)
(53.2342 0 0)
(53.2893 0 0)
(53.3444 0 0)
(53.3995 0 0)
(53.4547 0 0)
(53.5098 0 0)
(53.5649 0 0)
(53.62 0 0)
(53.6752 0 0)
(53.7303 0 0)
(53.7854 0 0)
(53.8405 0 0)
(53.8956 0 0)
(53.9508 0 0)
(54.0059 0 0)
(54.061 0 0)
(54.1161 0 0)
(54.1713 0 0)
(54.2264 0 0)
(54.2815 0 0)
(54.3367 0 0)
(54.3918 0 0)
(54.4469 0 0)
(54.502 0 0)
(54.5572 0 0)
(54.6123 0 0)
(54.6674 0 0)
(54.7226 0 0)
(54.7777 0 0)
(54.8328 0 0)
(54.888 0 0)
(54.9431 0 0)
(54.9982 0 0)
(55.0533 0 0)
(55.1085 0 0)
(55.1636 0 0)
(55.2187 0 0)
(55.2739 0 0)
(55.329 0 0)
(55.3841 0 0)
(55.4393 0 0)
(55.4944 0 0)
(55.5496 0 0)
(55.6047 0 0)
(55.6598 0 0)
(55.715 0 0)
(55.7701 0 0)
(55.8252 0 0)
(55.8804 0 0)
(55.9355 0 0)
(55.9906 0 0)
(56.0458 0 0)
(56.1009 0 0)
(56.1561 0 0)
(56.2112 0 0)
(56.2663 0 0)
(56.3215 0 0)
(56.3766 0 0)
(56.4318 0 0)
(56.4869 0 0)
(56.5421 0 0)
(56.5972 0 0)
(56.6523 0 0)
(56.7075 0 0)
(56.7626 0 0)
(56.8178 0 0)
(56.8729 0 0)
(56.9281 0 0)
(56.9832 0 0)
(57.0383 0 0)
(57.0935 0 0)
(57.1486 0 0)
(57.2038 0 0)
(57.2589 0 0)
(57.3141 0 0)
(57.3692 0 0)
(57.4244 0 0)
(57.4795 0 0)
(57.5347 0 0)
(57.5898 0 0)
(57.645 0 0)
(57.7001 0 0)
(57.7553 0 0)
(57.8104 0 0)
(57.8656 0 0)
(57.9207 0 0)
(57.9759 0 0)
(58.031 0 0)
(58.0862 0 0)
(58.1413 0 0)
(58.1965 0 0)
(58.2516 0 0)
(58.3068 0 0)
(58.3619 0 0)
(58.4171 0 0)
(58.4722 0 0)
(58.5274 0 0)
(58.5826 0 0)
(58.6377 0 0)
(58.6929 0 0)
(58.748 0 0)
(58.8032 0 0)
(58.8583 0 0)
(58.9135 0 0)
(58.9687 0 0)
(59.0238 0 0)
(59.079 0 0)
(59.1341 0 0)
(59.1893 0 0)
(59.2444 0 0)
(59.2996 0 0)
(59.3548 0 0)
(59.4099 0 0)
(59.4651 0 0)
(59.5203 0 0)
(59.5754 0 0)
(59.6306 0 0)
(59.6857 0 0)
(59.7409 0 0)
(59.7961 0 0)
(59.8512 0 0)
(59.9064 0 0)
(59.9616 0 0)
(60.0167 0 0)
(60.0719 0 0)
(60.1271 0 0)
(60.1822 0 0)
(60.2374 0 0)
(60.2926 0 0)
(60.3477 0 0)
(60.4029 0 0)
(60.4581 0 0)
(60.5132 0 0)
(60.5684 0 0)
(60.6236 0 0)
(60.6787 0 0)
(60.7339 0 0)
(60.7891 0 0)
(60.8442 0 0)
(60.8994 0 0)
(60.9546 0 0)
(61.0097 0 0)
(61.0649 0 0)
(61.1201 0 0)
(61.1753 0 0)
(61.2304 0 0)
(61.2856 0 0)
(61.3408 0 0)
(61.396 0 0)
(61.4511 0 0)
(61.5063 0 0)
(61.5615 0 0)
(61.6167 0 0)
(61.6718 0 0)
(61.727 0 0)
(61.7822 0 0)
(61.8374 0 0)
(61.8925 0 0)
(61.9477 0 0)
(62.0029 0 0)
(62.0581 0 0)
(62.1132 0 0)
(62.1684 0 0)
(62.2236 0 0)
(62.2788 0 0)
(62.334 0 0)
(62.3891 0 0)
(62.4443 0 0)
(62.4995 0 0)
(62.5547 0 0)
(62.6099 0 0)
(62.665 0 0)
(62.7202 0 0)
(62.7754 0 0)
(62.8306 0 0)
(62.8858 0 0)
(62.941 0 0)
(62.9961 0 0)
(63.0513 0 0)
(63.1065 0 0)
(63.1617 0 0)
(63.2169 0 0)
(63.2721 0 0)
(63.3273 0 0)
(63.3824 0 0)
(63.4376 0 0)
(63.4928 0 0)
(63.548 0 0)
(63.6032 0 0)
(63.6584 0 0)
(63.7136 0 0)
(63.7688 0 0)
(63.824 0 0)
(63.8791 0 0)
(63.9343 0 0)
(63.9895 0 0)
(64.0447 0 0)
(64.0999 0 0)
(64.1551 0 0)
(64.2103 0 0)
(64.2655 0 0)
(64.3207 0 0)
(64.3759 0 0)
(64.4311 0 0)
(64.4863 0 0)
(64.5414 0 0)
(64.5966 0 0)
(64.6518 0 0)
(64.707 0 0)
(64.7622 0 0)
(64.8174 0 0)
(64.8726 0 0)
(64.9278 0 0)
(64.983 0 0)
(65.0382 0 0)
(65.0934 0 0)
(65.1486 0 0)
(65.2038 0 0)
(65.259 0 0)
(65.3142 0 0)
(65.3694 0 0)
(65.4246 0 0)
(65.4798 0 0)
(65.535 0 0)
(65.5902 0 0)
(65.6454 0 0)
(65.7006 0 0)
(65.7558 0 0)
(65.811 0 0)
(65.8662 0 0)
(65.9214 0 0)
(65.9766 0 0)
(66.0318 0 0)
(66.087 0 0)
(66.1422 0 0)
(66.1974 0 0)
(66.2526 0 0)
(66.3078 0 0)
(66.3631 0 0)
(66.4183 0 0)
(66.4735 0 0)
(66.5287 0 0)
(66.5839 0 0)
(66.6391 0 0)
(66.6943 0 0)
(66.7495 0 0)
(66.8047 0 0)
(66.8599 0 0)
(66.9151 0 0)
(66.9703 0 0)
(67.0255 0 0)
(67.0808 0 0)
(67.136 0 0)
(67.1912 0 0)
(67.2464 0 0)
(67.3016 0 0)
(67.3568 0 0)
(67.412 0 0)
(67.4672 0 0)
(67.5225 0 0)
(67.5777 0 0)
(67.6329 0 0)
(67.6881 0 0)
(67.7433 0 0)
(67.7985 0 0)
(67.8537 0 0)
(67.909 0 0)
(67.9642 0 0)
(68.0194 0 0)
(68.0746 0 0)
(68.1298 0 0)
(68.185 0 0)
(68.2403 0 0)
(68.2955 0 0)
(68.3507 0 0)
(68.4059 0 0)
(68.4611 0 0)
(68.5164 0 0)
(68.5716 0 0)
(68.6268 0 0)
(68.682 0 0)
(68.7372 0 0)
(68.7925 0 0)
(68.8477 0 0)
(68.9029 0 0)
(68.9581 0 0)
(69.0134 0 0)
(69.0686 0 0)
(69.1238 0 0)
(69.179 0 0)
(69.2342 0 0)
(69.2895 0 0)
(69.3447 0 0)
(69.3999 0 0)
(69.4551 0 0)
(69.5104 0 0)
(69.5656 0 0)
(69.6208 0 0)
(69.6761 0 0)
(69.7313 0 0)
(69.7865 0 0)
(69.8417 0 0)
(69.897 0 0)
(69.9522 0 0)
(70.0074 0 0)
(70.0627 0 0)
(70.1179 0 0)
(70.1731 0 0)
(70.2283 0 0)
(70.2836 0 0)
(70.3388 0 0)
(70.394 0 0)
(70.4493 0 0)
(70.5045 0 0)
(70.5597 0 0)
(70.615 0 0)
(70.6702 0 0)
(70.7254 0 0)
(70.7807 0 0)
(70.8359 0 0)
(70.8911 0 0)
(70.9464 0 0)
(71.0016 0 0)
(71.0568 0 0)
(71.1121 0 0)
(71.1673 0 0)
(71.2226 0 0)
(71.2778 0 0)
(71.333 0 0)
(71.3883 0 0)
(71.4435 0 0)
(71.4987 0 0)
(71.554 0 0)
(71.6092 0 0)
(71.6645 0 0)
(71.7197 0 0)
(71.7749 0 0)
(71.8302 0 0)
(71.8854 0 0)
(71.9407 0 0)
(71.9959 0 0)
(72.0512 0 0)
(72.1064 0 0)
(72.1616 0 0)
(72.2169 0 0)
(72.2721 0 0)
(72.3274 0 0)
(72.3826 0 0)
(72.4379 0 0)
(72.4931 0 0)
(72.5484 0 0)
(72.6036 0 0)
(72.6588 0 0)
(72.7141 0 0)
(72.7693 0 0)
(72.8246 0 0)
(72.8798 0 0)
(72.9351 0 0)
(72.9903 0 0)
(73.0456 0 0)
(73.1008 0 0)
(73.1561 0 0)
(73.2113 0 0)
(73.2666 0 0)
(73.3218 0 0)
(73.3771 0 0)
(73.4323 0 0)
(73.4876 0 0)
(73.5428 0 0)
(73.5981 0 0)
(73.6533 0 0)
(73.7086 0 0)
(73.7638 0 0)
(73.8191 0 0)
(73.8744 0 0)
(73.9296 0 0)
(73.9849 0 0)
(74.0401 0 0)
(74.0954 0 0)
(74.1506 0 0)
(74.2059 0 0)
(74.2611 0 0)
(74.3164 0 0)
(74.3717 0 0)
(74.4269 0 0)
(74.4822 0 0)
(74.5374 0 0)
(74.5927 0 0)
(74.6479 0 0)
(74.7032 0 0)
(74.7585 0 0)
(74.8137 0 0)
(74.869 0 0)
(74.9242 0 0)
(74.9795 0 0)
(75.0348 0 0)
(75.09 0 0)
(75.1453 0 0)
(75.2006 0 0)
(75.2558 0 0)
(75.3111 0 0)
(75.3663 0 0)
(75.4216 0 0)
(75.4769 0 0)
(75.5321 0 0)
(75.5874 0 0)
(75.6427 0 0)
(75.6979 0 0)
(75.7532 0 0)
(75.8085 0 0)
(75.8637 0 0)
(75.919 0 0)
(75.9743 0 0)
(76.0295 0 0)
(76.0848 0 0)
(76.1401 0 0)
(76.1953 0 0)
(76.2506 0 0)
(76.3059 0 0)
(76.3612 0 0)
(76.4164 0 0)
(76.4717 0 0)
(76.527 0 0)
(76.5822 0 0)
(76.6375 0 0)
(76.6928 0 0)
(76.7481 0 0)
(76.8033 0 0)
(76.8586 0 0)
(76.9139 0 0)
(76.9691 0 0)
(77.0244 0 0)
(77.0797 0 0)
(77.135 0 0)
(77.1902 0 0)
(77.2455 0 0)
(77.3008 0 0)
(77.3561 0 0)
(77.4113 0 0)
(77.4666 0 0)
(77.5219 0 0)
(77.5772 0 0)
(77.6325 0 0)
(77.6877 0 0)
(77.743 0 0)
(77.7983 0 0)
(77.8536 0 0)
(77.9089 0 0)
(77.9641 0 0)
(78.0194 0 0)
(78.0747 0 0)
(78.13 0 0)
(78.1853 0 0)
(78.2405 0 0)
(78.2958 0 0)
(78.3511 0 0)
(78.4064 0 0)
(78.4617 0 0)
(78.517 0 0)
(78.5722 0 0)
(78.6275 0 0)
(78.6828 0 0)
(78.7381 0 0)
(78.7934 0 0)
(78.8487 0 0)
(78.9039 0 0)
(78.9592 0 0)
(79.0145 0 0)
(79.0698 0 0)
(79.1251 0 0)
(79.1804 0 0)
(79.2357 0 0)
(79.291 0 0)
(79.3462 0 0)
(79.4015 0 0)
(79.4568 0 0)
(79.5121 0 0)
(79.5674 0 0)
(79.6227 0 0)
(79.678 0 0)
(79.7333 0 0)
(79.7886 0 0)
(79.8439 0 0)
(79.8992 0 0)
(79.9544 0 0)
(80.0097 0 0)
(80.065 0 0)
(80.1203 0 0)
(80.1756 0 0)
(80.2309 0 0)
(80.2862 0 0)
(80.3415 0 0)
(80.3968 0 0)
(80.4521 0 0)
(80.5074 0 0)
(80.5627 0 0)
(80.618 0 0)
(80.6733 0 0)
(80.7286 0 0)
(80.7839 0 0)
(80.8392 0 0)
(80.8945 0 0)
(80.9498 0 0)
(81.0051 0 0)
(81.0604 0 0)
(81.1157 0 0)
(81.171 0 0)
(81.2263 0 0)
(81.2816 0 0)
(81.3369 0 0)
(81.3922 0 0)
(81.4475 0 0)
(81.5028 0 0)
(81.5581 0 0)
(81.6134 0 0)
(81.6687 0 0)
(81.724 0 0)
(81.7793 0 0)
(81.8346 0 0)
(81.8899 0 0)
(81.9452 0 0)
(82.0005 0 0)
(82.0558 0 0)
(82.1111 0 0)
(82.1664 0 0)
(82.2217 0 0)
(82.2771 0 0)
(82.3324 0 0)
(82.3877 0 0)
(82.443 0 0)
(82.4983 0 0)
(82.5536 0 0)
(82.6089 0 0)
(82.6642 0 0)
(82.7195 0 0)
(82.7748 0 0)
(82.8301 0 0)
(82.8855 0 0)
(82.9408 0 0)
(82.9961 0 0)
(83.0514 0 0)
(83.1067 0 0)
(83.162 0 0)
(83.2173 0 0)
(83.2726 0 0)
(83.328 0 0)
(83.3833 0 0)
(83.4386 0 0)
(83.4939 0 0)
(83.5492 0 0)
(83.6045 0 0)
(83.6598 0 0)
(83.7152 0 0)
(83.7705 0 0)
(83.8258 0 0)
(83.8811 0 0)
(83.9364 0 0)
(83.9917 0 0)
(84.0471 0 0)
(84.1024 0 0)
(84.1577 0 0)
(84.213 0 0)
(84.2683 0 0)
(84.3237 0 0)
(84.379 0 0)
(84.4343 0 0)
(84.4896 0 0)
(84.5449 0 0)
(84.6003 0 0)
(84.6556 0 0)
(84.7109 0 0)
(84.7662 0 0)
(84.8216 0 0)
(84.8769 0 0)
(84.9322 0 0)
(84.9875 0 0)
(85.0429 0 0)
(85.0982 0 0)
(85.1535 0 0)
(85.2088 0 0)
(85.2642 0 0)
(85.3195 0 0)
(85.3748 0 0)
(85.4301 0 0)
(85.4855 0 0)
(85.5408 0 0)
(85.5961 0 0)
(85.6514 0 0)
(85.7068 0 0)
(85.7621 0 0)
(85.8174 0 0)
(85.8728 0 0)
(85.9281 0 0)
(85.9834 0 0)
(86.0388 0 0)
(86.0941 0 0)
(86.1494 0 0)
(86.2048 0 0)
(86.2601 0 0)
(86.3154 0 0)
(86.3707 0 0)
(86.4261 0 0)
(86.4814 0 0)
(86.5367 0 0)
(86.5921 0 0)
(86.6474 0 0)
(86.7028 0 0)
(86.7581 0 0)
(86.8134 0 0)
(86.8688 0 0)
(86.9241 0 0)
(86.9794 0 0)
(87.0348 0 0)
(87.0901 0 0)
(87.1454 0 0)
(87.2008 0 0)
(87.2561 0 0)
(87.3115 0 0)
(87.3668 0 0)
(87.4221 0 0)
(87.4775 0 0)
(87.5328 0 0)
(87.5882 0 0)
(87.6435 0 0)
(87.6988 0 0)
(87.7542 0 0)
(87.8095 0 0)
(87.8649 0 0)
(87.9202 0 0)
(87.9756 0 0)
(88.0309 0 0)
(88.0862 0 0)
(88.1416 0 0)
(88.1969 0 0)
(88.2523 0 0)
(88.3076 0 0)
(88.363 0 0)
(88.4183 0 0)
(88.4737 0 0)
(88.529 0 0)
(88.5843 0 0)
(88.6397 0 0)
(88.695 0 0)
(88.7504 0 0)
(88.8057 0 0)
(88.8611 0 0)
(88.9164 0 0)
(88.9718 0 0)
(89.0271 0 0)
(89.0825 0 0)
(89.1378 0 0)
(89.1932 0 0)
(89.2485 0 0)
(89.3039 0 0)
(89.3592 0 0)
(89.4146 0 0)
(89.4699 0 0)
(89.5253 0 0)
(89.5806 0 0)
(89.636 0 0)
(89.6914 0 0)
(89.7467 0 0)
(89.8021 0 0)
(89.8574 0 0)
(89.9128 0 0)
(89.9681 0 0)
(90.0235 0 0)
(90.0788 0 0)
(90.1342 0 0)
(90.1896 0 0)
(90.2449 0 0)
(90.3003 0 0)
(90.3556 0 0)
(90.411 0 0)
(90.4663 0 0)
(90.5217 0 0)
(90.5771 0 0)
(90.6324 0 0)
(90.6878 0 0)
(90.7431 0 0)
(90.7985 0 0)
(90.8539 0 0)
(90.9092 0 0)
(90.9646 0 0)
(91.0199 0 0)
(91.0753 0 0)
(91.1307 0 0)
(91.186 0 0)
(91.2414 0 0)
(91.2968 0 0)
(91.3521 0 0)
(91.4075 0 0)
(91.4628 0 0)
(91.5182 0 0)
(91.5736 0 0)
(91.6289 0 0)
(91.6843 0 0)
(91.7397 0 0)
(91.795 0 0)
(91.8504 0 0)
(91.9058 0 0)
(91.9611 0 0)
(92.0165 0 0)
(92.0719 0 0)
(92.1273 0 0)
(92.1826 0 0)
(92.238 0 0)
(92.2934 0 0)
(92.3487 0 0)
(92.4041 0 0)
(92.4595 0 0)
(92.5148 0 0)
(92.5702 0 0)
(92.6256 0 0)
(92.681 0 0)
(92.7363 0 0)
(92.7917 0 0)
(92.8471 0 0)
(92.9024 0 0)
(92.9578 0 0)
(93.0132 0 0)
(93.0686 0 0)
(93.1239 0 0)
(93.1793 0 0)
(93.2347 0 0)
(93.2901 0 0)
(93.3454 0 0)
(93.4008 0 0)
(93.4562 0 0)
(93.5116 0 0)
(93.567 0 0)
(93.6223 0 0)
(93.6777 0 0)
(93.7331 0 0)
(93.7885 0 0)
(93.8438 0 0)
(93.8992 0 0)
(93.9546 0 0)
(94.01 0 0)
(94.0654 0 0)
(94.1208 0 0)
(94.1761 0 0)
(94.2315 0 0)
(94.2869 0 0)
(94.3423 0 0)
(94.3977 0 0)
(94.453 0 0)
(94.5084 0 0)
(94.5638 0 0)
(94.6192 0 0)
(94.6746 0 0)
(94.73 0 0)
(94.7853 0 0)
(94.8407 0 0)
(94.8961 0 0)
(94.9515 0 0)
(95.0069 0 0)
(95.0623 0 0)
(95.1177 0 0)
(95.1731 0 0)
(95.2284 0 0)
(95.2838 0 0)
(95.3392 0 0)
(95.3946 0 0)
(95.45 0 0)
(95.5054 0 0)
(95.5608 0 0)
(95.6162 0 0)
(95.6716 0 0)
(95.7269 0 0)
(95.7823 0 0)
(95.8377 0 0)
(95.8931 0 0)
(95.9485 0 0)
(96.0039 0 0)
(96.0593 0 0)
(96.1147 0 0)
(96.1701 0 0)
(96.2255 0 0)
(96.2809 0 0)
(96.3363 0 0)
(96.3917 0 0)
(96.4471 0 0)
(96.5025 0 0)
(96.5579 0 0)
(96.6132 0 0)
(96.6686 0 0)
(96.724 0 0)
(96.7794 0 0)
(96.8348 0 0)
(96.8902 0 0)
(96.9456 0 0)
(97.001 0 0)
(97.0564 0 0)
(97.1118 0 0)
(97.1672 0 0)
(97.2226 0 0)
(97.278 0 0)
(97.3334 0 0)
(97.3888 0 0)
(97.4442 0 0)
(97.4996 0 0)
(97.555 0 0)
(97.6104 0 0)
(97.6658 0 0)
(97.7212 0 0)
(97.7766 0 0)
(97.8321 0 0)
(97.8875 0 0)
(97.9429 0 0)
(97.9983 0 0)
(98.0537 0 0)
(98.1091 0 0)
(98.1645 0 0)
(98.2199 0 0)
(98.2753 0 0)
(98.3307 0 0)
(98.3861 0 0)
(98.4415 0 0)
(98.4969 0 0)
(98.5523 0 0)
(98.6077 0 0)
(98.6632 0 0)
(98.7186 0 0)
(98.774 0 0)
(98.8294 0 0)
(98.8848 0 0)
(98.9402 0 0)
(98.9956 0 0)
(99.051 0 0)
(99.1064 0 0)
(99.1618 0 0)
(99.2173 0 0)
(99.2727 0 0)
(99.3281 0 0)
(99.3835 0 0)
(99.4389 0 0)
(99.4943 0 0)
(99.5497 0 0)
(99.6052 0 0)
(99.6606 0 0)
(99.716 0 0)
(99.7714 0 0)
(99.8268 0 0)
(99.8822 0 0)
(99.9376 0 0)
(99.9931 0 0)
(100.048 0 0)
(100.104 0 0)
(100.159 0 0)
(100.215 0 0)
(100.27 0 0)
(100.326 0 0)
(100.381 0 0)
(100.436 0 0)
(100.492 0 0)
(100.547 0 0)
(100.603 0 0)
(100.658 0 0)
(100.714 0 0)
(100.769 0 0)
(100.824 0 0)
(100.88 0 0)
(100.935 0 0)
(100.991 0 0)
(101.046 0 0)
(101.101 0 0)
(101.157 0 0)
(101.212 0 0)
(101.268 0 0)
(101.323 0 0)
(101.379 0 0)
(101.434 0 0)
(101.489 0 0)
(101.545 0 0)
(101.6 0 0)
(101.656 0 0)
(101.711 0 0)
(101.767 0 0)
(101.822 0 0)
(101.877 0 0)
(101.933 0 0)
(101.988 0 0)
(102.044 0 0)
(102.099 0 0)
(102.155 0 0)
(102.21 0 0)
(102.265 0 0)
(102.321 0 0)
(102.376 0 0)
(102.432 0 0)
(102.487 0 0)
(102.543 0 0)
(102.598 0 0)
(102.653 0 0)
(102.709 0 0)
(102.764 0 0)
(102.82 0 0)
(102.875 0 0)
(102.931 0 0)
(102.986 0 0)
(103.042 0 0)
(103.097 0 0)
(103.152 0 0)
(103.208 0 0)
(103.263 0 0)
(103.319 0 0)
(103.374 0 0)
(103.43 0 0)
(103.485 0 0)
(103.54 0 0)
(103.596 0 0)
(103.651 0 0)
(103.707 0 0)
(103.762 0 0)
(103.818 0 0)
(103.873 0 0)
(103.929 0 0)
(103.984 0 0)
(104.039 0 0)
(104.095 0 0)
(104.15 0 0)
(104.206 0 0)
(104.261 0 0)
(104.317 0 0)
(104.372 0 0)
(104.428 0 0)
(104.483 0 0)
(104.538 0 0)
(104.594 0 0)
(104.649 0 0)
(104.705 0 0)
(104.76 0 0)
(104.816 0 0)
(104.871 0 0)
(104.927 0 0)
(104.982 0 0)
(105.037 0 0)
(105.093 0 0)
(105.148 0 0)
(105.204 0 0)
(105.259 0 0)
(105.315 0 0)
(105.37 0 0)
(105.426 0 0)
(105.481 0 0)
(105.536 0 0)
(105.592 0 0)
(105.647 0 0)
(105.703 0 0)
(105.758 0 0)
(105.814 0 0)
(105.869 0 0)
(105.925 0 0)
(105.98 0 0)
(106.036 0 0)
(106.091 0 0)
(106.146 0 0)
(106.202 0 0)
(106.257 0 0)
(106.313 0 0)
(106.368 0 0)
(106.424 0 0)
(106.479 0 0)
(106.535 0 0)
(106.59 0 0)
(106.646 0 0)
(106.701 0 0)
(106.756 0 0)
(106.812 0 0)
(106.867 0 0)
(106.923 0 0)
(106.978 0 0)
(107.034 0 0)
(107.089 0 0)
(107.145 0 0)
(107.2 0 0)
(107.256 0 0)
(107.311 0 0)
(107.367 0 0)
(107.422 0 0)
(107.477 0 0)
(107.533 0 0)
(107.588 0 0)
(107.644 0 0)
(107.699 0 0)
(107.755 0 0)
(107.81 0 0)
(107.866 0 0)
(107.921 0 0)
(107.977 0 0)
(108.032 0 0)
(108.088 0 0)
(108.143 0 0)
(108.199 0 0)
(108.254 0 0)
(108.309 0 0)
(108.365 0 0)
(108.42 0 0)
(108.476 0 0)
(108.531 0 0)
(108.587 0 0)
(108.642 0 0)
(108.698 0 0)
(108.753 0 0)
(108.809 0 0)
(108.864 0 0)
(108.92 0 0)
(108.975 0 0)
(109.031 0 0)
(109.086 0 0)
(109.141 0 0)
(109.197 0 0)
(109.252 0 0)
(109.308 0 0)
(109.363 0 0)
(109.419 0 0)
(109.474 0 0)
(109.53 0 0)
(109.585 0 0)
(109.641 0 0)
(109.696 0 0)
(109.752 0 0)
(109.807 0 0)
(109.863 0 0)
(109.918 0 0)
(109.974 0 0)
(110.029 0 0)
(110.085 0 0)
(110.14 0 0)
(110.196 0 0)
(110.251 0 0)
(110.306 0 0)
(110.362 0 0)
(110.417 0 0)
(110.473 0 0)
(110.528 0 0)
(110.584 0 0)
(110.639 0 0)
(110.695 0 0)
(110.75 0 0)
(110.806 0 0)
(110.861 0 0)
(110.917 0 0)
(110.972 0 0)
(111.028 0 0)
(111.083 0 0)
(111.139 0 0)
(111.194 0 0)
(111.25 0 0)
(111.305 0 0)
(111.361 0 0)
(111.416 0 0)
(111.472 0 0)
(111.527 0 0)
(111.583 0 0)
(111.638 0 0)
(111.694 0 0)
(111.749 0 0)
(111.805 0 0)
(111.86 0 0)
(111.916 0 0)
(111.971 0 0)
(112.027 0 0)
(112.082 0 0)
(112.138 0 0)
(112.193 0 0)
(112.248 0 0)
(112.304 0 0)
(112.359 0 0)
(112.415 0 0)
(112.47 0 0)
(112.526 0 0)
(112.581 0 0)
(112.637 0 0)
(112.692 0 0)
(112.748 0 0)
(112.803 0 0)
(112.859 0 0)
(112.914 0 0)
(112.97 0 0)
(113.025 0 0)
(113.081 0 0)
(113.136 0 0)
(113.192 0 0)
(113.247 0 0)
(113.303 0 0)
(113.358 0 0)
(113.414 0 0)
(113.469 0 0)
(113.525 0 0)
(113.58 0 0)
(113.636 0 0)
(113.691 0 0)
(113.747 0 0)
(113.802 0 0)
(113.858 0 0)
(113.913 0 0)
(113.969 0 0)
(114.024 0 0)
(114.08 0 0)
(114.135 0 0)
(114.191 0 0)
(114.246 0 0)
(114.302 0 0)
(114.357 0 0)
(114.413 0 0)
(114.468 0 0)
(114.524 0 0)
(114.579 0 0)
(114.635 0 0)
(114.69 0 0)
(114.746 0 0)
(114.801 0 0)
(114.857 0 0)
(114.912 0 0)
(114.968 0 0)
(115.023 0 0)
(115.079 0 0)
(115.135 0 0)
(115.19 0 0)
(115.246 0 0)
(115.301 0 0)
(115.357 0 0)
(115.412 0 0)
(115.468 0 0)
(115.523 0 0)
(115.579 0 0)
(115.634 0 0)
(115.69 0 0)
(115.745 0 0)
(115.801 0 0)
(115.856 0 0)
(115.912 0 0)
(115.967 0 0)
(116.023 0 0)
(116.078 0 0)
(116.134 0 0)
(116.189 0 0)
(116.245 0 0)
(116.3 0 0)
(116.356 0 0)
(116.411 0 0)
(116.467 0 0)
(116.522 0 0)
(116.578 0 0)
(116.633 0 0)
(116.689 0 0)
(116.744 0 0)
(116.8 0 0)
(116.855 0 0)
(116.911 0 0)
(116.966 0 0)
(117.022 0 0)
(117.078 0 0)
(117.133 0 0)
(117.189 0 0)
(117.244 0 0)
(117.3 0 0)
(117.355 0 0)
(117.411 0 0)
(117.466 0 0)
(117.522 0 0)
(117.577 0 0)
(117.633 0 0)
(117.688 0 0)
(117.744 0 0)
(117.799 0 0)
(117.855 0 0)
(117.91 0 0)
(117.966 0 0)
(118.021 0 0)
(118.077 0 0)
(118.132 0 0)
(118.188 0 0)
(118.244 0 0)
(118.299 0 0)
(118.355 0 0)
(118.41 0 0)
(118.466 0 0)
(118.521 0 0)
(118.577 0 0)
(118.632 0 0)
(118.688 0 0)
(118.743 0 0)
(118.799 0 0)
(118.854 0 0)
(118.91 0 0)
(118.965 0 0)
(119.021 0 0)
(119.076 0 0)
(119.132 0 0)
(119.188 0 0)
(119.243 0 0)
(119.299 0 0)
(119.354 0 0)
(119.41 0 0)
(119.465 0 0)
(119.521 0 0)
(119.576 0 0)
(119.632 0 0)
(119.687 0 0)
(119.743 0 0)
(119.798 0 0)
(119.854 0 0)
(119.909 0 0)
(119.965 0 0)
(120.021 0 0)
(120.076 0 0)
(120.132 0 0)
(120.187 0 0)
(120.243 0 0)
(120.298 0 0)
(120.354 0 0)
(120.409 0 0)