/*--------------------------------*- C++ -*----------------------------------*\
  =========                 |
  \\      /  F ield         | OpenFOAM: The Open Source CFD Toolbox
   \\    /   O peration     | Website:  https://openfoam.org
    \\  /    A nd           | Version:  9
     \\/     M anipulation  |
\*---------------------------------------------------------------------------*/
FoamFile
{
    format      ascii;
    class       volScalarField;
    location    "0.007";
    object      mag(U);
}
// * * * * * * * * * * * * * * * * * * * * * * * * * * * * * * * * * * * * * //

dimensions      [0 1 -1 0 0 0 0];

internalField   nonuniform List<scalar> 
10000
(
1.9936e-13
6.27254e-13
7.22071e-13
1.0357e-12
1.40767e-12
1.65566e-12
1.71401e-12
1.91823e-12
1.97658e-12
1.96199e-12
2.05681e-12
2.26833e-12
2.45796e-12
2.59654e-12
2.74241e-12
2.91746e-12
3.01957e-12
3.20191e-12
3.05604e-12
3.28944e-12
3.41343e-12
3.55201e-12
3.4499e-12
3.34779e-12
3.41343e-12
3.23838e-12
3.19462e-12
3.23838e-12
3.38425e-12
3.4426e-12
3.54471e-12
3.72706e-12
3.81458e-12
3.96775e-12
4.02609e-12
3.85105e-12
3.87293e-12
3.95316e-12
3.85105e-12
3.77811e-12
3.59577e-12
3.42802e-12
3.42802e-12
3.4426e-12
3.49366e-12
3.39884e-12
3.28214e-12
3.27485e-12
3.20921e-12
2.82994e-12
2.50172e-12
2.36314e-12
2.24644e-12
2.17351e-12
2.20998e-12
1.89635e-12
1.78694e-12
1.59731e-12
1.50249e-12
1.6046e-12
1.34933e-12
1.42226e-12
1.15969e-12
9.26294e-13
7.14778e-13
6.85603e-13
5.61611e-13
4.30325e-13
3.50095e-13
2.77159e-13
6.56429e-14
8.02302e-14
1.38579e-13
3.35508e-13
4.88675e-13
5.47024e-13
6.92897e-13
8.89825e-13
9.77349e-13
1.07217e-12
1.1524e-12
1.20345e-12
1.21075e-12
1.37121e-12
1.62648e-12
1.7213e-12
1.82341e-12
1.74318e-12
1.838e-12
1.92552e-12
1.91094e-12
1.73589e-12
1.56084e-12
1.29098e-12
1.16698e-12
8.97119e-13
6.34548e-13
5.90786e-13
3.50095e-13
1.16698e-13
1.89635e-13
3.50095e-13
6.1996e-13
7.14778e-13
9.11706e-13
1.13052e-12
1.25451e-12
1.36391e-12
1.45873e-12
1.50249e-12
1.73589e-12
1.86717e-12
2.02763e-12
2.1881e-12
2.37044e-12
2.37044e-12
2.56007e-12
2.66218e-12
2.74971e-12
2.9904e-12
3.15086e-12
3.28214e-12
3.39884e-12
3.62494e-12
3.57389e-12
3.69788e-12
3.79999e-12
3.62494e-12
3.74894e-12
3.87293e-12
3.88022e-12
3.98963e-12
4.07715e-12
3.84375e-12
3.7854e-12
3.69788e-12
3.69059e-12
3.42802e-12
3.09251e-12
3.02686e-12
2.71324e-12
2.19539e-12
1.88906e-12
1.69942e-12
1.46602e-12
1.1524e-12
8.82532e-13
4.95968e-13
1.38579e-13
4.37619e-14
2.55278e-13
4.95968e-13
7.14778e-13
9.62762e-13
1.15969e-12
1.30556e-12
1.52437e-12
1.9547e-12
2.36314e-12
2.64759e-12
2.96122e-12
3.20191e-12
3.34049e-12
3.66871e-12
3.66141e-12
3.676e-12
3.68329e-12
3.7927e-12
3.9021e-12
4.03339e-12
4.16467e-12
4.30325e-12
4.37619e-12
4.51477e-12
4.7044e-12
4.72629e-12
4.76275e-12
4.65335e-12
4.595e-12
4.31784e-12
4.20114e-12
4.28867e-12
4.23032e-12
4.19385e-12
4.05527e-12
4.00421e-12
3.96045e-12
4.03339e-12
3.99692e-12
3.94586e-12
3.94586e-12
4.17197e-12
4.18656e-12
4.10633e-12
4.15738e-12
4.21573e-12
4.3689e-12
4.19385e-12
4.0188e-12
3.77811e-12
3.72706e-12
3.61036e-12
3.40613e-12
3.37696e-12
3.20191e-12
3.23838e-12
3.20921e-12
2.90287e-12
2.79347e-12
2.57466e-12
2.32667e-12
2.23915e-12
2.21727e-12
2.10786e-12
1.97658e-12
1.77236e-12
1.42956e-12
1.40767e-12
1.21075e-12
9.40881e-13
8.89825e-13
7.22071e-13
7.65833e-13
7.14778e-13
6.56429e-13
6.1996e-13
6.71016e-13
6.05373e-13
4.95968e-13
4.37619e-13
2.62571e-13
2.91746e-13
2.84452e-13
3.20921e-13
2.91746e-13
1.67754e-13
4.52819e-25
1.31286e-13
3.35508e-13
7.07484e-13
1.08675e-12
1.3785e-12
1.59002e-12
1.88906e-12
2.31209e-12
2.61113e-12
2.81535e-12
3.00498e-12
3.11439e-12
3.17274e-12
3.36237e-12
3.71976e-12
3.82187e-12
4.06986e-12
4.33972e-12
4.21573e-12
4.10633e-12
4.12821e-12
4.07715e-12
4.07715e-12
4.2449e-12
4.26679e-12
4.20114e-12
4.17197e-12
4.14279e-12
4.11362e-12
3.99692e-12
3.93857e-12
3.84375e-12
3.69788e-12
3.61765e-12
3.55201e-12
3.42802e-12
3.31861e-12
3.19462e-12
3.00498e-12
2.85911e-12
2.8664e-12
2.82994e-12
2.54548e-12
2.34856e-12
2.20998e-12
2.01305e-12
1.83071e-12
1.64107e-12
1.44414e-12
1.10863e-12
1.06487e-12
9.77349e-13
7.0019e-13
5.32436e-13
4.52206e-13
2.47984e-13
2.04222e-13
4.23032e-13
5.98079e-13
9.11706e-13
1.27639e-12
1.64107e-12
1.79424e-12
2.12975e-12
2.34856e-12
2.65489e-12
2.92475e-12
3.0998e-12
3.37696e-12
3.61036e-12
3.84375e-12
4.17197e-12
4.41266e-12
4.61688e-12
4.77734e-12
5.01803e-12
5.20767e-12
5.17849e-12
5.25872e-12
5.47024e-12
5.71822e-12
5.81304e-12
5.95891e-12
6.06832e-12
5.98079e-12
5.91515e-12
5.90786e-12
6.00997e-12
5.94432e-12
5.65258e-12
5.33895e-12
5.1639e-12
4.8284e-12
5.02532e-12
4.95239e-12
4.68252e-12
4.44913e-12
4.15738e-12
3.88752e-12
3.74894e-12
3.65412e-12
3.36237e-12
3.18003e-12
2.89558e-12
2.63301e-12
2.31938e-12
2.24644e-12
2.2975e-12
2.25374e-12
2.17351e-12
2.12975e-12
2.05681e-12
2.12975e-12
2.04952e-12
1.94011e-12
2.02034e-12
1.96929e-12
1.91823e-12
1.71401e-12
1.56813e-12
1.43685e-12
1.29098e-12
1.22533e-12
9.84643e-13
7.80421e-13
5.47024e-13
3.50095e-13
1.45873e-14
2.84452e-13
5.03262e-13
5.10556e-13
5.68905e-13
7.07484e-13
9.04413e-13
1.09405e-12
1.30556e-12
1.38579e-12
1.54625e-12
1.67754e-12
1.78694e-12
1.86717e-12
1.99117e-12
1.98387e-12
2.04952e-12
2.1881e-12
2.54548e-12
2.89558e-12
2.91017e-12
3.20921e-12
3.39155e-12
3.38425e-12
3.43531e-12
3.4499e-12
3.73435e-12
3.76352e-12
3.76352e-12
3.87293e-12
3.88022e-12
3.84375e-12
3.7927e-12
4.03339e-12
3.95316e-12
3.96045e-12
3.72706e-12
3.53013e-12
3.58118e-12
3.31861e-12
3.22379e-12
3.2165e-12
3.22379e-12
3.15086e-12
2.88099e-12
2.59654e-12
2.56007e-12
2.37773e-12
2.25374e-12
1.99846e-12
1.78694e-12
1.45144e-12
1.21804e-12
9.9923e-13
7.29365e-13
5.76198e-13
4.08444e-13
2.9904e-13
1.02111e-13
1.89635e-13
4.81381e-13
6.92897e-13
8.24182e-13
1.05029e-12
1.32744e-12
1.42956e-12
1.39309e-12
1.39309e-12
1.42226e-12
1.6119e-12
1.58272e-12
1.73589e-12
1.59002e-12
1.2691e-12
1.30556e-12
1.38579e-12
1.22533e-12
9.84643e-13
1.07946e-12
1.07217e-12
9.84643e-13
8.89825e-13
9.11706e-13
7.5854e-13
6.34548e-13
5.32436e-13
3.06333e-13
1.67754e-13
5.83492e-14
3.64683e-14
3.28214e-13
4.37619e-13
7.65833e-13
9.9923e-13
1.2691e-12
1.39309e-12
1.56813e-12
1.75777e-12
2.03493e-12
2.33397e-12
2.43608e-12
2.53819e-12
2.65489e-12
2.84452e-12
3.0998e-12
3.3332e-12
3.20191e-12
3.23838e-12
3.30402e-12
3.45719e-12
3.52283e-12
3.70517e-12
3.64683e-12
3.72706e-12
3.64683e-12
3.62494e-12
3.76352e-12
3.73435e-12
3.66141e-12
3.68329e-12
3.4499e-12
3.50095e-12
3.69059e-12
3.48636e-12
3.73435e-12
3.69059e-12
3.63224e-12
3.74164e-12
3.676e-12
3.76352e-12
3.71247e-12
3.7927e-12
3.7927e-12
3.63224e-12
3.68329e-12
3.71976e-12
3.63224e-12
3.83646e-12
3.88752e-12
3.71976e-12
3.81458e-12
3.85834e-12
3.85834e-12
3.85105e-12
4.09903e-12
3.97504e-12
3.89481e-12
3.9094e-12
4.07715e-12
4.20844e-12
4.46371e-12
4.65335e-12
4.84298e-12
4.81381e-12
4.83569e-12
4.79922e-12
4.68252e-12
4.8211e-12
4.88675e-12
5.19308e-12
5.22955e-12
5.21496e-12
5.12744e-12
5.14202e-12
5.06179e-12
5.1639e-12
5.10556e-12
5.27331e-12
5.24413e-12
5.1712e-12
5.17849e-12
5.32436e-12
5.10556e-12
4.9378e-12
4.97427e-12
4.98886e-12
4.7117e-12
4.43454e-12
4.22302e-12
3.9094e-12
3.60306e-12
3.48636e-12
3.22379e-12
2.85911e-12
2.48713e-12
2.1881e-12
1.94011e-12
1.4952e-12
1.32015e-12
1.18157e-12
9.48175e-13
7.43952e-13
6.41841e-13
5.47024e-13
2.91746e-13
2.26103e-13
7.29365e-14
7.29365e-14
4.37619e-14
1.02111e-13
2.11516e-13
1.16698e-13
2.91746e-14
5.83492e-14
2.1881e-14
2.1881e-13
2.84452e-13
3.35508e-13
6.05373e-13
7.80421e-13
8.16889e-13
1.04299e-12
1.24721e-12
1.12322e-12
1.41497e-12
1.56084e-12
1.7213e-12
2.03493e-12
2.13704e-12
2.21727e-12
2.39961e-12
2.61113e-12
2.88099e-12
3.23109e-12
3.34779e-12
3.50825e-12
3.676e-12
3.91669e-12
4.03339e-12
4.31784e-12
4.38348e-12
4.62417e-12
4.86486e-12
5.26602e-12
5.39001e-12
5.50671e-12
5.95891e-12
6.15584e-12
6.19231e-12
6.37465e-12
6.65181e-12
6.79039e-12
6.92897e-12
7.03837e-12
7.1186e-12
7.13319e-12
7.17695e-12
7.25718e-12
7.26448e-12
7.15507e-12
7.1259e-12
7.0019e-12
6.96544e-12
6.91438e-12
6.85603e-12
6.84874e-12
6.92897e-12
6.89979e-12
7.03108e-12
7.01649e-12
7.03837e-12
7.03837e-12
7.11131e-12
6.80498e-12
6.71016e-12
6.62263e-12
6.44029e-12
6.41841e-12
6.30901e-12
6.40382e-12
6.16313e-12
5.93703e-12
5.84951e-12
5.47753e-12
5.12014e-12
4.90863e-12
4.68252e-12
4.41266e-12
4.26679e-12
4.2449e-12
4.01151e-12
3.54471e-12
3.23838e-12
2.9904e-12
2.74241e-12
2.67677e-12
2.46525e-12
2.59654e-12
2.53819e-12
2.61842e-12
2.60383e-12
2.42879e-12
2.43608e-12
2.31209e-12
2.03493e-12
1.80153e-12
1.74318e-12
1.73589e-12
1.67754e-12
1.62648e-12
1.58272e-12
1.48061e-12
1.48061e-12
1.30556e-12
1.29827e-12
9.91936e-13
9.04413e-13
7.87714e-13
5.76198e-13
4.52206e-13
2.9904e-13
2.47984e-13
2.11516e-13
1.75048e-13
7.29365e-14
9.48175e-14
2.11516e-13
2.91746e-13
4.08444e-13
5.17849e-13
5.68905e-13
7.36659e-13
1.0357e-12
1.08675e-12
1.18157e-12
1.21075e-12
1.29827e-12
1.19616e-12
1.07217e-12
1.05029e-12
1.05029e-12
9.91936e-13
9.84643e-13
7.87714e-13
5.32436e-13
3.93857e-13
4.01151e-13
2.9904e-13
3.06333e-13
2.47984e-13
7.29365e-14
2.1881e-14
1.02111e-13
4.37619e-14
2.69865e-13
4.01151e-13
6.27254e-13
7.73127e-13
1.01382e-12
1.12322e-12
1.23992e-12
1.34933e-12
1.45144e-12
1.47332e-12
1.56813e-12
1.56813e-12
1.74318e-12
1.80883e-12
1.90364e-12
1.77965e-12
1.84529e-12
1.80153e-12
1.87447e-12
1.80153e-12
1.96199e-12
2.02763e-12
2.00575e-12
2.1881e-12
2.1808e-12
1.90364e-12
1.91823e-12
2.00575e-12
2.02034e-12
1.83071e-12
1.74318e-12
1.67754e-12
1.77965e-12
1.71401e-12
1.90364e-12
1.97658e-12
1.838e-12
1.96929e-12
1.87447e-12
1.85259e-12
1.75777e-12
1.80153e-12
1.83071e-12
1.7213e-12
1.69213e-12
1.77236e-12
1.82341e-12
1.89635e-12
1.77236e-12
1.67754e-12
1.63378e-12
1.64836e-12
1.67754e-12
1.75048e-12
2.0641e-12
2.24644e-12
2.42879e-12
2.66948e-12
2.91746e-12
3.0998e-12
3.23838e-12
3.36237e-12
3.20921e-12
3.37696e-12
3.69059e-12
3.79999e-12
3.82187e-12
4.14279e-12
4.39078e-12
4.51477e-12
4.63876e-12
4.75546e-12
5.00344e-12
5.15661e-12
5.13473e-12
5.31707e-12
5.50671e-12
5.78386e-12
6.03185e-12
6.30171e-12
6.47676e-12
6.7758e-12
6.95085e-12
6.84874e-12
7.09672e-12
7.27177e-12
7.352e-12
7.66563e-12
7.88444e-12
8.05219e-12
8.21265e-12
8.6138e-12
8.67215e-12
8.86178e-12
9.11706e-12
9.23376e-12
9.26294e-12
9.59115e-12
9.71514e-12
1.00215e-11
1.03059e-11
1.03059e-11
1.03935e-11
1.05029e-11
1.0481e-11
1.04226e-11
1.0357e-11
1.02403e-11
9.94125e-12
9.71514e-12
9.54009e-12
9.36505e-12
8.92743e-12
8.57004e-12
8.42417e-12
8.08866e-12
7.66563e-12
7.1186e-12
7.0019e-12
6.90709e-12
6.94355e-12
6.86332e-12
6.69557e-12
6.57887e-12
6.59346e-12
6.58617e-12
6.36006e-12
6.0829e-12
6.06102e-12
5.92244e-12
5.81304e-12
5.72552e-12
5.66717e-12
5.58694e-12
5.42648e-12
5.17849e-12
5.03991e-12
5.01803e-12
5.09826e-12
4.91592e-12
4.90133e-12
4.84298e-12
4.64606e-12
4.49289e-12
4.17197e-12
3.88022e-12
3.58848e-12
3.4499e-12
3.25297e-12
3.15815e-12
2.9904e-12
2.99769e-12
3.12898e-12
3.19462e-12
3.42802e-12
3.52283e-12
3.73435e-12
4.01151e-12
4.21573e-12
4.09174e-12
4.20844e-12
4.26679e-12
4.33972e-12
4.52936e-12
4.58771e-12
4.91592e-12
5.06909e-12
5.33895e-12
5.33166e-12
5.54317e-12
5.65987e-12
5.82763e-12
5.80575e-12
5.69634e-12
5.6234e-12
5.42648e-12
5.24413e-12
5.04721e-12
4.63147e-12
4.25949e-12
3.99692e-12
3.69788e-12
3.40613e-12
3.20921e-12
2.79347e-12
2.72053e-12
2.28291e-12
1.9474e-12
1.85259e-12
1.29827e-12
1.34933e-12
1.23263e-12
1.07217e-12
9.11706e-13
9.55468e-13
8.82532e-13
8.67944e-13
6.92897e-13
8.89825e-13
9.9923e-13
1.08675e-12
1.27639e-12
1.47332e-12
1.75048e-12
2.02763e-12
2.24644e-12
2.4142e-12
2.36314e-12
2.58195e-12
2.80076e-12
2.99769e-12
3.19462e-12
3.28944e-12
3.4426e-12
3.66141e-12
3.87293e-12
3.94586e-12
4.15009e-12
4.17197e-12
4.39807e-12
4.52206e-12
4.63876e-12
4.76275e-12
4.97427e-12
5.22955e-12
5.47024e-12
5.65258e-12
5.72552e-12
5.96621e-12
6.11208e-12
6.36736e-12
6.46947e-12
6.61534e-12
6.59346e-12
6.37465e-12
6.41112e-12
6.38194e-12
6.34548e-12
6.17043e-12
6.03185e-12
5.90056e-12
5.94432e-12
5.77657e-12
5.89327e-12
5.80575e-12
5.58694e-12
5.64529e-12
5.52859e-12
5.44106e-12
5.22225e-12
4.98886e-12
4.72629e-12
4.69711e-12
4.44183e-12
4.25949e-12
4.14279e-12
3.81458e-12
3.41343e-12
3.25297e-12
3.19462e-12
3.00498e-12
2.84452e-12
2.77159e-12
2.66948e-12
2.35585e-12
2.23915e-12
2.15892e-12
1.91823e-12
1.74318e-12
1.67025e-12
1.67754e-12
1.6119e-12
1.4952e-12
1.41497e-12
1.32015e-12
1.28368e-12
1.10134e-12
1.02111e-12
9.84643e-13
9.9923e-13
1.04299e-12
1.09405e-12
1.28368e-12
1.4879e-12
1.56084e-12
1.7286e-12
1.96199e-12
2.09328e-12
2.20268e-12
2.50172e-12
2.70594e-12
2.85182e-12
3.10709e-12
3.27485e-12
3.53742e-12
3.77811e-12
3.81458e-12
3.72706e-12
4.01151e-12
4.19385e-12
4.30325e-12
4.38348e-12
4.56582e-12
4.72629e-12
4.93051e-12
5.12744e-12
5.2879e-12
5.52129e-12
5.7474e-12
5.77657e-12
5.90786e-12
5.92244e-12
6.00267e-12
6.22148e-12
6.32359e-12
6.45488e-12
6.433e-12
6.46947e-12
6.76851e-12
7.0092e-12
6.94355e-12
6.95085e-12
7.01649e-12
7.04567e-12
7.11131e-12
7.04567e-12
7.21342e-12
7.27177e-12
7.30824e-12
7.38847e-12
7.53434e-12
7.54163e-12
7.54893e-12
7.76774e-12
7.84797e-12
7.76774e-12
7.93549e-12
7.86255e-12
7.88444e-12
7.90632e-12
7.80421e-12
7.76044e-12
7.65833e-12
7.73127e-12
7.78232e-12
7.84067e-12
7.93549e-12
7.98655e-12
8.05948e-12
8.11054e-12
8.27829e-12
8.30017e-12
8.40958e-12
8.52628e-12
8.46793e-12
8.67944e-12
8.57004e-12
8.43875e-12
8.35123e-12
8.19077e-12
7.89173e-12
7.54163e-12
7.36659e-12
7.17695e-12
7.08213e-12
6.79039e-12
6.6591e-12
6.49864e-12
6.22148e-12
6.05373e-12
6.0902e-12
5.99538e-12
5.90056e-12
5.92244e-12
5.81304e-12
5.75469e-12
5.78386e-12
5.61611e-12
5.41918e-12
5.33166e-12
5.50671e-12
5.46294e-12
5.22955e-12
5.09097e-12
4.98886e-12
5.03262e-12
4.94509e-12
4.86486e-12
4.88675e-12
4.8211e-12
4.75546e-12
4.84298e-12
4.68252e-12
4.54394e-12
4.60959e-12
4.60959e-12
4.50748e-12
4.4783e-12
4.44183e-12
4.595e-12
4.55124e-12
4.39807e-12
4.52936e-12
4.61688e-12
4.52936e-12
4.7044e-12
4.56582e-12
4.81381e-12
5.06909e-12
5.09826e-12
5.10556e-12
5.41918e-12
5.81304e-12
6.01726e-12
6.33089e-12
6.6664e-12
6.67369e-12
6.86332e-12
7.11131e-12
7.2353e-12
7.37388e-12
7.57081e-12
7.68751e-12
7.78232e-12
7.77503e-12
7.97925e-12
7.88444e-12
8.00843e-12
7.97196e-12
8.12513e-12
8.06678e-12
8.09595e-12
8.12513e-12
8.0449e-12
7.80421e-12
7.67292e-12
7.38117e-12
7.02379e-12
6.52052e-12
6.27254e-12
6.03914e-12
5.66717e-12
5.6234e-12
5.47753e-12
5.2879e-12
5.06179e-12
4.69711e-12
4.55124e-12
4.43454e-12
4.28137e-12
4.22302e-12
4.15009e-12
4.00421e-12
3.80729e-12
3.88752e-12
3.80729e-12
3.85105e-12
3.53013e-12
3.20191e-12
3.23109e-12
3.12168e-12
3.07063e-12
2.90287e-12
2.65489e-12
2.44337e-12
2.64759e-12
2.69865e-12
2.70594e-12
2.66218e-12
2.42149e-12
2.5236e-12
2.53819e-12
2.53819e-12
2.64759e-12
2.66218e-12
2.80076e-12
3.05604e-12
3.02686e-12
2.91017e-12
3.12898e-12
3.27485e-12
3.29673e-12
3.26026e-12
3.2165e-12
3.30402e-12
3.42802e-12
3.55201e-12
3.87293e-12
3.92398e-12
4.15738e-12
4.48559e-12
4.56582e-12
4.68982e-12
4.98156e-12
5.10556e-12
5.39001e-12
5.73281e-12
5.76198e-12
6.03185e-12
6.11208e-12
6.30901e-12
6.42571e-12
6.69557e-12
6.92167e-12
7.05296e-12
7.26448e-12
7.2353e-12
7.42494e-12
7.45411e-12
7.72398e-12
7.84797e-12
8.23453e-12
8.43875e-12
8.37311e-12
8.41687e-12
8.54086e-12
8.54086e-12
8.56275e-12
8.62839e-12
8.51898e-12
8.47522e-12
8.25641e-12
8.3804e-12
8.24912e-12
8.271e-12
8.01572e-12
8.0449e-12
8.11054e-12
8.25641e-12
8.22724e-12
8.48252e-12
8.43875e-12
8.40228e-12
8.42417e-12
8.33664e-12
8.45334e-12
8.54816e-12
8.39499e-12
8.13971e-12
8.16159e-12
8.16159e-12
8.12513e-12
8.23453e-12
8.28559e-12
8.32935e-12
8.33664e-12
8.11054e-12
8.21265e-12
8.45334e-12
8.52628e-12
8.57004e-12
8.64298e-12
8.53357e-12
8.32205e-12
8.32935e-12
8.27829e-12
8.02302e-12
7.84067e-12
7.59269e-12
7.22071e-12
6.91438e-12
6.46947e-12
6.28713e-12
5.79116e-12
5.53588e-12
5.39001e-12
5.20767e-12
4.89404e-12
4.84298e-12
4.64606e-12
4.35431e-12
3.99692e-12
3.94586e-12
3.66871e-12
3.51554e-12
3.35508e-12
3.31132e-12
3.19462e-12
3.23109e-12
3.28214e-12
3.09251e-12
2.93205e-12
2.91746e-12
2.62571e-12
2.47255e-12
2.26833e-12
2.15163e-12
1.93282e-12
2.07869e-12
1.88176e-12
1.84529e-12
1.89635e-12
1.7213e-12
1.73589e-12
1.81612e-12
1.70671e-12
1.69942e-12
1.69942e-12
1.6119e-12
1.53896e-12
1.45144e-12
1.51708e-12
1.4952e-12
1.57543e-12
1.54625e-12
1.34933e-12
1.25451e-12
1.40038e-12
1.28368e-12
1.3785e-12
1.34203e-12
1.73589e-12
1.98387e-12
2.28291e-12
2.48713e-12
2.80806e-12
2.91746e-12
3.14356e-12
3.34049e-12
3.58848e-12
3.85834e-12
4.06256e-12
4.3689e-12
4.52206e-12
4.63876e-12
4.71899e-12
4.69711e-12
4.92321e-12
5.14202e-12
5.38271e-12
5.47024e-12
5.6234e-12
5.64529e-12
5.72552e-12
5.82033e-12
5.92244e-12
6.09749e-12
6.04644e-12
5.9735e-12
5.98809e-12
5.98809e-12
6.04644e-12
6.06832e-12
5.90786e-12
5.90786e-12
5.84221e-12
5.84951e-12
5.8568e-12
5.8568e-12
5.78386e-12
5.90786e-12
5.92244e-12
5.72552e-12
5.57964e-12
5.26602e-12
4.92321e-12
4.68982e-12
4.33972e-12
4.16467e-12
4.00421e-12
3.9021e-12
3.80729e-12
3.66871e-12
3.73435e-12
3.5593e-12
3.57389e-12
3.31861e-12
3.28944e-12
3.28214e-12
3.43531e-12
3.61036e-12
3.7854e-12
3.85834e-12
4.22302e-12
4.40536e-12
4.55124e-12
4.87945e-12
5.17849e-12
5.55776e-12
5.84221e-12
5.96621e-12
6.11937e-12
6.17772e-12
6.33818e-12
6.46947e-12
6.72475e-12
6.79768e-12
7.06025e-12
7.19154e-12
7.34471e-12
7.32282e-12
7.33741e-12
7.65833e-12
7.72398e-12
7.64375e-12
7.9282e-12
8.1543e-12
8.30747e-12
8.16889e-12
8.3804e-12
8.57733e-12
8.59921e-12
8.70862e-12
8.71591e-12
8.58463e-12
8.72321e-12
8.77426e-12
8.69403e-12
8.72321e-12
8.67944e-12
8.36582e-12
8.52628e-12
8.41687e-12
8.30747e-12
8.07407e-12
7.86985e-12
7.73856e-12
7.54163e-12
7.68021e-12
7.42494e-12
7.50517e-12
7.44682e-12
7.49058e-12
7.52705e-12
7.30094e-12
7.0019e-12
6.99461e-12
6.64452e-12
6.52782e-12
6.433e-12
6.40382e-12
6.433e-12
6.29442e-12
6.11208e-12
5.98079e-12
5.89327e-12
5.87139e-12
5.88598e-12
5.75469e-12
5.47024e-12
5.21496e-12
5.22955e-12
5.12744e-12
5.0545e-12
4.81381e-12
4.77734e-12
4.8211e-12
4.8284e-12
4.90133e-12
4.91592e-12
4.90863e-12
4.99615e-12
5.06179e-12
5.20767e-12
5.04721e-12
4.68982e-12
4.4783e-12
4.35431e-12
4.16467e-12
4.14279e-12
3.82917e-12
3.63224e-12
3.54471e-12
3.4499e-12
3.23838e-12
3.07792e-12
3.06333e-12
2.82994e-12
3.07063e-12
3.12168e-12
3.22379e-12
3.34049e-12
3.36967e-12
3.20921e-12
3.01228e-12
2.94663e-12
2.81535e-12
2.62571e-12
2.60383e-12
2.37773e-12
2.31209e-12
2.27562e-12
2.13704e-12
2.12245e-12
1.99117e-12
1.83071e-12
2.02034e-12
1.93282e-12
2.07869e-12
1.91094e-12
1.76506e-12
1.62648e-12
1.39309e-12
1.42226e-12
1.30556e-12
9.62762e-13
9.70055e-13
7.29365e-13
6.56429e-13
3.86563e-13
3.64683e-13
3.57389e-13
4.01151e-13
5.10556e-13
5.68905e-13
4.81381e-13
5.10556e-13
4.595e-13
4.595e-13
4.01151e-13
2.69865e-13
3.13627e-13
2.26103e-13
1.82341e-13
3.15516e-25
1.6046e-13
3.64683e-14
1.31286e-13
4.37619e-14
2.9904e-13
3.20921e-13
4.23032e-13
7.51246e-13
7.29365e-13
7.5854e-13
8.16889e-13
9.84643e-13
9.48175e-13
1.04299e-12
1.09405e-12
1.28368e-12
1.01382e-12
9.62762e-13
8.75238e-13
7.43952e-13
7.95008e-13
7.36659e-13
8.82532e-13
7.73127e-13
6.56429e-13
5.90786e-13
5.83492e-13
5.76198e-13
5.32436e-13
5.10556e-13
5.54317e-13
6.27254e-13
6.27254e-13
5.17849e-13
4.37619e-13
4.95968e-13
3.64683e-13
3.71976e-13
3.71976e-13
2.62571e-13
7.29365e-14
1.67754e-13
1.67754e-13
2.1881e-14
2.62571e-13
3.13627e-13
4.66794e-13
4.15738e-13
4.44913e-13
5.83492e-13
6.34548e-13
6.41841e-13
7.22071e-13
9.19e-13
9.04413e-13
8.53357e-13
8.75238e-13
7.07484e-13
5.76198e-13
2.91746e-13
2.91746e-14
2.62571e-13
3.42802e-13
5.25143e-13
7.95008e-13
1.07217e-12
1.32744e-12
1.67025e-12
1.91094e-12
2.32667e-12
2.56736e-12
2.93205e-12
3.31132e-12
3.66141e-12
3.96775e-12
4.20844e-12
4.41266e-12
4.52936e-12
4.61688e-12
4.7117e-12
4.72629e-12
5.01803e-12
5.03991e-12
5.14932e-12
5.30248e-12
5.52859e-12
5.59423e-12
5.53588e-12
5.71093e-12
5.60882e-12
5.61611e-12
5.60152e-12
5.60152e-12
5.63799e-12
5.89327e-12
5.80575e-12
5.92974e-12
6.07561e-12
6.10479e-12
6.29442e-12
6.52782e-12
6.55699e-12
6.90709e-12
6.83415e-12
6.97273e-12
7.1186e-12
7.11131e-12
7.25718e-12
7.39576e-12
7.352e-12
7.59998e-12
7.59998e-12
7.97925e-12
8.1543e-12
8.51169e-12
8.6138e-12
8.75238e-12
8.67944e-12
8.69403e-12
8.79614e-12
9.03683e-12
9.19e-12
9.3067e-12
9.40881e-12
9.70785e-12
9.94125e-12
9.9923e-12
9.8756e-12
1.02913e-11
1.0408e-11
1.0532e-11
1.07071e-11
1.07071e-11
1.06196e-11
1.07508e-11
1.07654e-11
1.06998e-11
1.06779e-11
1.07727e-11
1.10572e-11
1.08967e-11
1.10572e-11
1.12322e-11
1.12833e-11
1.12906e-11
1.16042e-11
1.17574e-11
1.18449e-11
1.19251e-11
1.17282e-11
1.19032e-11
1.20418e-11
1.19105e-11
1.15604e-11
1.14802e-11
1.12395e-11
1.09842e-11
1.09624e-11
1.07435e-11
1.04591e-11
1.00579e-11
9.67138e-12
9.4234e-12
9.33587e-12
9.01495e-12
9.24835e-12
9.19e-12
8.97848e-12
8.92743e-12
8.7305e-12
8.54086e-12
8.43146e-12
8.19077e-12
7.78232e-12
7.71668e-12
7.68021e-12
7.4687e-12
7.31553e-12
7.08213e-12
7.05296e-12
6.84874e-12
6.86332e-12
6.85603e-12
6.56429e-12
6.52052e-12
6.1996e-12
6.06832e-12
6.06102e-12
5.80575e-12
5.65258e-12
5.71093e-12
5.68905e-12
5.54317e-12
5.36083e-12
5.24413e-12
5.36813e-12
5.20037e-12
5.04721e-12
5.21496e-12
5.22225e-12
5.2879e-12
5.33166e-12
5.09826e-12
4.95239e-12
4.68252e-12
4.68252e-12
4.53665e-12
4.20114e-12
4.15738e-12
4.15738e-12
3.96045e-12
3.89481e-12
3.84375e-12
3.76352e-12
3.63953e-12
3.61036e-12
3.40613e-12
3.26756e-12
3.07063e-12
2.96122e-12
2.72053e-12
2.77159e-12
2.80076e-12
2.77888e-12
2.71324e-12
2.62571e-12
2.56736e-12
2.50172e-12
2.39961e-12
2.34126e-12
2.24644e-12
2.20268e-12
2.26103e-12
2.1881e-12
2.21727e-12
2.28291e-12
1.9474e-12
1.85259e-12
1.54625e-12
1.6119e-12
1.61919e-12
1.55355e-12
1.4952e-12
1.4879e-12
1.2691e-12
1.2618e-12
1.10863e-12
9.9923e-13
1.02111e-12
8.3877e-13
7.22071e-13
5.76198e-13
6.41841e-13
5.25143e-13
2.9904e-13
4.37619e-14
1.16698e-13
1.45873e-14
9.48175e-14
2.77159e-13
2.55278e-13
2.47984e-13
3.86563e-13
3.57389e-13
4.15738e-13
5.68905e-13
6.71016e-13
5.68905e-13
6.27254e-13
8.09595e-13
9.04413e-13
1.19616e-12
1.36391e-12
1.42226e-12
1.48061e-12
1.76506e-12
1.91823e-12
2.2975e-12
2.54548e-12
2.81535e-12
3.04875e-12
3.16544e-12
3.49366e-12
3.73435e-12
3.95316e-12
4.04798e-12
4.20114e-12
4.2449e-12
4.20114e-12
4.09174e-12
4.38348e-12
4.42725e-12
4.52936e-12
4.74087e-12
4.90863e-12
4.98156e-12
5.19308e-12
5.24413e-12
5.2806e-12
5.49212e-12
5.68175e-12
5.72552e-12
5.75469e-12
5.79116e-12
5.89327e-12
5.67446e-12
5.46294e-12
5.49212e-12
5.38271e-12
5.24413e-12
5.00344e-12
4.74817e-12
4.51477e-12
4.32513e-12
4.03339e-12
3.87293e-12
3.70517e-12
3.37696e-12
3.4426e-12
3.31861e-12
3.37696e-12
3.12898e-12
2.90287e-12
2.80076e-12
2.70594e-12
2.63301e-12
2.72783e-12
2.76429e-12
2.47984e-12
2.30479e-12
2.09328e-12
1.81612e-12
1.44414e-12
1.28368e-12
1.05758e-12
8.53357e-13
5.54317e-13
5.61611e-13
4.74087e-13
4.15738e-13
3.93857e-13
3.71976e-13
3.64683e-13
3.35508e-13
3.42802e-13
2.69865e-13
1.38579e-13
8.75238e-14
3.64683e-14
1.67754e-13
1.23992e-13
1.96929e-13
2.04222e-13
2.55278e-13
1.31286e-13
1.09405e-13
4.58603e-25
2.91746e-14
6.56429e-14
2.91746e-14
1.16698e-13
2.1881e-13
5.3973e-13
7.14778e-13
1.05029e-12
1.1451e-12
1.48061e-12
1.69942e-12
1.90364e-12
1.93282e-12
2.04952e-12
2.09328e-12
2.32667e-12
2.64759e-12
2.72783e-12
2.84452e-12
2.77888e-12
2.9904e-12
3.24567e-12
3.31132e-12
3.58118e-12
3.84375e-12
4.06256e-12
4.04068e-12
4.29596e-12
4.45642e-12
4.44913e-12
4.41995e-12
4.54394e-12
4.60229e-12
4.67523e-12
4.7044e-12
4.66064e-12
4.80652e-12
4.78463e-12
4.77005e-12
4.74087e-12
4.67523e-12
4.60959e-12
4.77005e-12
4.83569e-12
4.77734e-12
4.68982e-12
4.71899e-12
4.84298e-12
4.95968e-12
5.01074e-12
5.06909e-12
5.29519e-12
5.39001e-12
5.55047e-12
5.76198e-12
5.79845e-12
6.09749e-12
6.24336e-12
6.12667e-12
6.33818e-12
6.28713e-12
6.25066e-12
6.49864e-12
6.56429e-12
6.5497e-12
6.71745e-12
6.76121e-12
6.76851e-12
6.76121e-12
6.62263e-12
6.65181e-12
6.74663e-12
6.91438e-12
7.21342e-12
7.45411e-12
7.65104e-12
7.74586e-12
7.78962e-12
7.80421e-12
7.86985e-12
7.64375e-12
7.47599e-12
7.50517e-12
7.35929e-12
7.13319e-12
6.84874e-12
6.38924e-12
6.10479e-12
5.8568e-12
5.43377e-12
5.30978e-12
4.76275e-12
4.28137e-12
4.04068e-12
3.71247e-12
3.28214e-12
2.88099e-12
2.66218e-12
2.59654e-12
2.50902e-12
2.4069e-12
2.1881e-12
2.23915e-12
2.31938e-12
2.14433e-12
1.838e-12
1.56084e-12
1.59731e-12
1.45144e-12
1.35662e-12
1.3785e-12
1.41497e-12
1.44414e-12
1.38579e-12
1.45873e-12
1.40767e-12
1.47332e-12
1.35662e-12
1.2618e-12
1.1451e-12
1.29098e-12
1.25451e-12
1.32744e-12
1.18886e-12
1.24721e-12
1.13781e-12
1.24721e-12
1.18157e-12
1.22533e-12
1.10134e-12
1.10134e-12
9.62762e-13
1.01382e-12
9.40881e-13
1.23992e-12
1.10134e-12
1.16698e-12
1.18886e-12
1.2618e-12
1.2691e-12
1.42226e-12
1.43685e-12
1.53896e-12
1.79424e-12
1.9547e-12
2.04222e-12
2.48713e-12
2.72053e-12
3.08521e-12
3.15815e-12
3.15086e-12
3.02686e-12
3.02686e-12
3.11439e-12
3.07063e-12
3.30402e-12
3.43531e-12
3.71247e-12
3.63224e-12
3.53013e-12
3.56659e-12
3.65412e-12
3.74164e-12
3.75623e-12
3.91669e-12
3.94586e-12
3.98233e-12
3.9021e-12
3.58118e-12
3.50825e-12
3.22379e-12
3.07063e-12
2.77888e-12
2.43608e-12
2.12975e-12
1.7286e-12
1.44414e-12
9.84643e-13
7.0019e-13
5.61611e-13
2.04222e-13
1.31286e-13
7.29365e-15
2.62571e-13
2.84452e-13
3.20921e-13
3.7927e-13
3.42802e-13
4.08444e-13
3.20921e-13
4.08444e-13
5.03262e-13
6.41841e-13
5.98079e-13
8.3877e-13
9.91936e-13
1.12322e-12
1.1451e-12
1.15969e-12
1.35662e-12
1.4952e-12
1.42956e-12
1.42956e-12
1.59731e-12
1.70671e-12
1.64836e-12
1.57543e-12
1.42226e-12
1.44414e-12
1.47332e-12
1.61919e-12
1.57543e-12
1.69942e-12
1.66295e-12
1.61919e-12
1.64836e-12
1.57543e-12
1.41497e-12
1.23992e-12
1.05029e-12
9.77349e-13
1.04299e-12
1.04299e-12
9.91936e-13
9.26294e-13
7.95008e-13
5.90786e-13
5.17849e-13
3.42802e-13
1.82341e-13
1.96929e-13
5.83492e-14
2.4069e-13
4.44913e-13
6.85603e-13
8.16889e-13
1.02111e-12
1.23992e-12
1.3785e-12
1.64836e-12
1.75048e-12
1.838e-12
1.9547e-12
2.13704e-12
2.20268e-12
2.45067e-12
2.6403e-12
2.90287e-12
2.91017e-12
2.92475e-12
2.9831e-12
2.80076e-12
2.38502e-12
1.93282e-12
1.35662e-12
5.90786e-13
4.30325e-13
1.85988e-12
3.61036e-12
5.61611e-12
8.22724e-12
1.12979e-11
1.49885e-11
1.9474e-11
2.48276e-11
3.13846e-11
3.9269e-11
4.87216e-11
6.05811e-11
7.47891e-11
9.19583e-11
1.12811e-10
1.38062e-10
1.68782e-10
2.05849e-10
2.505e-10
3.0451e-10
3.6938e-10
4.47845e-10
5.42035e-10
6.55779e-10
7.92346e-10
9.56497e-10
1.1536e-09
1.39039e-09
1.67394e-09
2.01373e-09
2.42033e-09
2.90665e-09
3.48806e-09
4.18249e-09
5.01091e-09
5.99897e-09
7.1764e-09
8.57815e-09
1.02459e-08
1.22281e-08
1.45827e-08
1.73777e-08
2.06923e-08
2.46201e-08
2.92713e-08
3.47744e-08
4.12806e-08
4.89665e-08
5.80385e-08
6.87388e-08
8.13492e-08
9.61991e-08
1.13672e-07
1.34215e-07
1.58348e-07
1.86676e-07
2.19902e-07
2.58841e-07
3.04437e-07
3.57788e-07
4.20161e-07
4.93023e-07
5.78069e-07
6.77255e-07
7.92839e-07
9.27423e-07
1.084e-06
1.26602e-06
1.47744e-06
1.7228e-06
2.00733e-06
2.337e-06
2.71867e-06
3.16015e-06
3.67042e-06
4.2597e-06
4.93965e-06
5.72358e-06
6.62662e-06
7.66602e-06
8.86135e-06
1.02349e-05
1.18118e-05
1.36207e-05
1.5694e-05
1.80684e-05
2.07852e-05
2.38912e-05
2.74391e-05
3.14883e-05
3.61058e-05
4.13668e-05
4.73558e-05
5.41677e-05
6.19089e-05
7.06986e-05
8.06703e-05
9.19729e-05
0.000104773
0.000119257
0.000135631
0.000154126
0.000174999
0.000198534
0.000225048
0.000254891
0.000288453
0.000326163
0.000368495
0.000415975
0.00046918
0.000528749
0.000595382
0.000669851
0.000753001
0.000845762
0.000949151
0.00106428
0.00119237
0.00133475
0.00149286
0.00166829
0.00186275
0.00207812
0.00231641
0.00257983
0.00287076
0.00319177
0.00354564
0.00393539
0.00436423
0.00483565
0.00535341
0.00592151
0.00654426
0.00722629
0.00797252
0.00878823
0.00967905
0.010651
0.0117103
0.012864
0.014119
0.0154831
0.0169643
0.018571
0.0203124
0.0221977
0.0242371
0.0264409
0.0288201
0.0313861
0.0341511
0.0371274
0.0403283
0.0437672
0.0474583
0.0514164
0.0556565
0.0601945
0.0650464
0.0702292
0.0757599
0.0816563
0.0879365
0.0946191
0.101723
0.109268
0.117273
0.125758
0.134745
0.144253
0.154303
0.164916
0.176113
0.187916
0.200346
0.213424
0.227171
0.241609
0.256759
0.272641
0.289275
0.306684
0.324885
0.3439
0.363747
0.384445
0.406013
0.428468
0.451828
0.476108
0.501325
0.527494
0.55463
0.582746
0.611856
0.641971
0.673102
0.705261
0.738457
0.772699
0.807995
0.844352
0.881776
0.920272
0.959845
1.0005
1.04223
1.08506
1.12896
1.17396
1.22004
1.2672
1.31545
1.36477
1.41517
1.46664
1.51918
1.57278
1.62743
1.68313
1.73987
1.79765
1.85644
1.91625
1.97707
2.03888
2.10167
2.16544
2.23017
2.29586
2.36249
2.43004
2.49851
2.56789
2.63816
2.70931
2.78132
2.85419
2.9279
3.00244
3.07779
3.15395
3.23089
3.30862
3.3871
3.46633
3.54631
3.627
3.70841
3.79051
3.8733
3.95677
4.04089
4.12566
4.21107
4.2971
4.38374
4.47099
4.55882
4.64723
4.7362
4.82573
4.9158
5.00641
5.09753
5.18917
5.2813
5.37393
5.46704
5.56062
5.65466
5.74915
5.84408
5.93944
6.03523
6.13144
6.22805
6.32505
6.42245
6.52023
6.61838
6.7169
6.81578
6.91501
7.01458
7.11449
7.21472
7.31528
7.41615
7.51733
7.61882
7.7206
7.82267
7.92503
8.02766
8.13056
8.23374
8.33717
8.44086
8.5448
8.64898
8.75341
8.85807
8.96296
9.06807
9.17341
9.27897
9.38473
9.49071
9.59689
9.70327
9.80984
9.91661
10.0236
10.1307
10.238
10.3455
10.4532
10.561
10.669
10.7772
10.8855
10.994
11.1027
11.2115
11.3204
11.4295
11.5387
11.6481
11.7576
11.8673
11.977
12.0869
12.197
12.3071
12.4174
12.5278
12.6383
12.749
12.8597
12.9706
13.0816
13.1926
13.3038
13.4151
13.5265
13.638
13.7496
13.8613
13.9731
14.0849
14.1969
14.309
14.4211
14.5334
14.6457
14.7581
14.8706
14.9831
15.0958
15.2085
15.3213
15.4342
15.5472
15.6602
15.7733
15.8865
15.9997
16.113
16.2264
16.3398
16.4533
16.5669
16.6805
16.7943
16.908
17.0218
17.1357
17.2497
17.3637
17.4777
17.5918
17.706
17.8202
17.9345
18.0488
18.1632
18.2776
18.3921
18.5066
18.6212
18.7358
18.8505
18.9652
19.08
19.1948
19.3096
19.4245
19.5395
19.6545
19.7695
19.8845
19.9997
20.1148
20.23
20.3452
20.4605
20.5758
20.6911
20.8065
20.9219
21.0374
21.1528
21.2684
21.3839