/*--------------------------------*- C++ -*----------------------------------*\
  =========                 |
  \\      /  F ield         | OpenFOAM: The Open Source CFD Toolbox
   \\    /   O peration     | Website:  https://openfoam.org
    \\  /    A nd           | Version:  9
     \\/     M anipulation  |
\*---------------------------------------------------------------------------*/
FoamFile
{
    format      ascii;
    class       volScalarField;
    location    "0.007";
    object      p;
}
// * * * * * * * * * * * * * * * * * * * * * * * * * * * * * * * * * * * * * //

dimensions      [1 -1 -2 0 0 0 0];

internalField   nonuniform List<scalar> 
10000
(
100000
100000
100000
100000
100000
100000
100000
100000
100000
100000
100000
100000
100000
100000
100000
100000
100000
100000
100000
100000
100000
100000
100000
100000
100000
100000
100000
100000
100000
100000
100000
100000
100000
100000
100000
100000
100000
100000
100000
100000
100000
100000
100000
100000
100000
100000
100000
100000
100000
100000
100000
100000
100000
100000
100000
100000
100000
100000
100000
100000
100000
100000
100000
100000
100000
100000
100000
100000
100000
100000
100000
100000
100000
100000
100000
100000
100000
100000
100000
100000
100000
100000
100000
100000
100000
100000
100000
100000
100000
100000
100000
100000
100000
100000
100000
100000
100000
100000
100000
100000
100000
100000
100000
100000
100000
100000
100000
100000
100000
100000
100000
100000
100000
100000
100000
100000
100000
100000
100000
100000
100000
100000
100000
100000
100000
100000
100000
100000
100000
100000
100000
100000
100000
100000
100000
100000
100000
100000
100000
100000
100000
100000
100000
100000
100000
100000
100000
100000
100000
100000
100000
100000
100000
100000
100000
100000
100000
100000
100000
100000
100000
100000
100000
100000
100000
100000
100000
100000
100000
100000
100000
100000
100000
100000
100000
100000
100000
100000
100000
100000
100000
100000
100000
100000
100000
100000
100000
100000
100000
100000
100000
100000
100000
100000
100000
100000
100000
100000
100000
100000
100000
100000
100000
100000
100000
100000
100000
100000
100000
100000
100000
100000
100000
100000
100000
100000
100000
100000
100000
100000
100000
100000
100000
100000
100000
100000
100000
100000
100000
100000
100000
100000
100000
100000
100000
100000
100000
100000
100000
100000
100000
100000
100000
100000
100000
100000
100000
100000
100000
100000
100000
100000
100000
100000
100000
100000
100000
100000
100000
100000
100000
100000
100000
100000
100000
100000
100000
100000
100000
100000
100000
100000
100000
100000
100000
100000
100000
100000
100000
100000
100000
100000
100000
100000
100000
100000
100000
100000
100000
100000
100000
100000
100000
100000
100000
100000
100000
100000
100000
100000
100000
100000
100000
100000
100000
100000
100000
100000
100000
100000
100000
100000
100000
100000
100000
100000
100000
100000
100000
100000
100000
100000
100000
100000
100000
100000
100000
100000
100000
100000
100000
100000
100000
100000
100000
100000
100000
100000
100000
100000
100000
100000
100000
100000
100000
100000
100000
100000
100000
100000
100000
100000
100000
100000
100000
100000
100000
100000
100000
100000
100000
100000
100000
100000
100000
100000
100000
100000
100000
100000
100000
100000
100000
100000
100000
100000
100000
100000
100000
100000
100000
100000
100000
100000
100000
100000
100000
100000
100000
100000
100000
100000
100000
100000
100000
100000
100000
100000
100000
100000
100000
100000
100000
100000
100000
100000
100000
100000
100000
100000
100000
100000
100000
100000
100000
100000
100000
100000
100000
100000
100000
100000
100000
100000
100000
100000
100000
100000
100000
100000
100000
100000
100000
100000
100000
100000
100000
100000
100000
100000
100000
100000
100000
100000
100000
100000
100000
100000
100000
100000
100000
100000
100000
100000
100000
100000
100000
100000
100000
100000
100000
100000
100000
100000
100000
100000
100000
100000
100000
100000
100000
100000
100000
100000
100000
100000
100000
100000
100000
100000
100000
100000
100000
100000
100000
100000
100000
100000
100000
100000
100000
100000
100000
100000
100000
100000
100000
100000
100000
100000
100000
100000
100000
100000
100000
100000
100000
100000
100000
100000
100000
100000
100000
100000
100000
100000
100000
100000
100000
100000
100000
100000
100000
100000
100000
100000
100000
100000
100000
100000
100000
100000
100000
100000
100000
100000
100000
100000
100000
100000
100000
100000
100000
100000
100000
100000
100000
100000
100000
100000
100000
100000
100000
100000
100000
100000
100000
100000
100000
100000
100000
100000
100000
100000
100000
100000
100000
100000
100000
100000
100000
100000
100000
100000
100000
100000
100000
100000
100000
100000
100000
100000
100000
100000
100000
100000
100000
100000
100000
100000
100000
100000
100000
100000
100000
100000
100000
100000
100000
100000
100000
100000
100000
100000
100000
100000
100000
100000
100000
100000
100000
100000
100000
100000
100000
100000
100000
100000
100000
100000
100000
100000
100000
100000
100000
100000
100000
100000
100000
100000
100000
100000
100000
100000
100000
100000
100000
100000
100000
100000
100000
100000
100000
100000
100000
100000
100000
100000
100000
100000
100000
100000
100000
100000
100000
100000
100000
100000
100000
100000
100000
100000
100000
100000
100000
100000
100000
100000
100000
100000
100000
100000
100000
100000
100000
100000
100000
100000
100000
100000
100000
100000
100000
100000
100000
100000
100000
100000
100000
100000
100000
100000
100000
100000
100000
100000
100000
100000
100000
100000
100000
100000
100000
100000
100000
100000
100000
100000
100000
100000
100000
100000
100000
100000
100000
100000
100000
100000
100000
100000
100000
100000
100000
100000
100000
100000
100000
100000
100000
100000
100000
100000
100000
100000
100000
100000
100000
100000
100000
100000
100000
100000
100000
100000
100000
100000
100000
100000
100000
100000
100000
100000
100000
100000
100000
100000
100000
100000
100000
100000
100000
100000
100000
100000
100000
100000
100000
100000
100000
100000
100000
100000
100000
100000
100000
100000
100000
100000
100000
100000
100000
100000
100000
100000
100000
100000
100000
100000
100000
100000
100000
100000
100000
100000
100000
100000
100000
100000
100000
100000
100000
100000
100000
100000
100000
100000
100000
100000
100000
100000
100000
100000
100000
100000
100000
100000
100000
100000
100000
100000
100000
100000
100000
100000
100000
100000
100000
100000
100000
100000
100000
100000
100000
100000
100000
100000
100000
100000
100000
100000
100000
100000
100000
100000
100000
100000
100000
100000
100000
100000
100000
100000
100000
100000
100000
100000
100000
100000
100000
100000
100000
100000
100000
100000
100000
100000
100000
100000
100000
100000
100000
100000
100000
100000
100000
100000
100000
100000
100000
100000
100000
100000
100000
100000
100000
100000
100000
100000
100000
100000
100000
100000
100000
100000
100000
100000
100000
100000
100000
100000
100000
100000
100000
100000
100000
100000
100000
100000
100000
100000
100000
100000
100000
100000
100000
100000
100000
100000
100000
100000
100000
100000
100000
100000
100000
100000
100000
100000
100000
100000
100000
100000
100000
100000
100000
100000
100000
100000
100000
100000
100000
100000
100000
100000
100000
100000
100000
100000
100000
100000
100000
100000
100000
100000
100000
100000
100000
100000
100000
100000
100000
100000
100000
100000
100000
100000
100000
100000
100000
100000
100000
100000
100000
100000
100000
100000
100000
100000
100000
100000
100000
100000
100000
100000
100000
100000
100000
100000
100000
100000
100000
100000
100000
100000
100000
100000
100000
100000
100000
100000
100000
100000
100000
100000
100000
100000
100000
100000
100000
100000
100000
100000
100000
100000
100000
100000
100000
100000
100000
100000
100000
100000
100000
100000
100000
100000
100000
100000
100000
100000
100000
100000
100000
100000
100000
100000
100000
100000
100000
100000
100000
100000
100000
100000
100000
100000
100000
100000
100000
100000
100000
100000
100000
100000
100000
100000
100000
100000
100000
100000
100000
100000
100000
100000
100000
100000
100000
100000
100000
100000
100000
100000
100000
100000
100000
100000
100000
100000
100000
100000
100000
100000
100000
100000
100000
100000
100000
100000
100000
100000
100000
100000
100000
100000
100000
100000
100000
100000
100000
100000
100000
100000
100000
100000
100000
100000
100000
100000
100000
100000
100000
100000
100000
100000
100000
100000
100000
100000
100000
100000
100000
100000
100000
100000
100000
100000
100000
100000
100000
100000
100000
100000
100000
100000
100000
100000
100000
100000
100000
100000
100000
100000
100000
100000
100000
100000
100000
100000
100000
100000
100000
100000
100000
100000
100000
100000
100000
100000
100000
100000
100000
100000
100000
100000
100000
100000
100000
100000
100000
100000
100000
100000
100000
100000
100000
100000
100000
100000
100000
100000
100000
100000
100000
100000
100000
100000
100000
100000
100000
100000
100000
100000
100000
100000
100000
100000
100000
100000
100000
100000
100000
100000
100000
100000
100000
100000
100000
100000
100000
100000
100000
100000
100000
100000
100000
100000
100000
100000
100000
100000
100000
100000
100000
100000
100000
100000
100000
100000
100000
100000
100000
100000
100000
100000
100000
100000
100000
100000
100000
100000
100000
100000
100000
100000
100000
100000
100000
100000
100000
100000
100000
100000
100000
100000
100000
100000
100000
100000
100000
100000
100000
100000
100000
100000
100000
100000
100000
100000
100000
100000
100000
100000
100000
100000
100000
100000
100000
100000
100000
100000
100000
100000
100000
100000
100000
100000
100000
100000
100000
100000
100000
100000
100000
100000
100000
100000
100000
100000
100000
100000
100000
100000
100000
100000
100000
100000
100000
100000
100000
100000
100000
100000
100000
100000
100000
100000
100000
100000
100000
100000
100000
100000
100000
100000
100000
100000
100000
100000
100000
100000
100000
100000
100000
100000
100000
100000
100000
100000
100000
100000
100000
100000
100000
100000
100000
100000
100000
100000
100000
100000
100000
100000
100000
100000
100000
100000
100000
100000
100000
100000
100000
100000
100000
100000
100000
100000
100000
100000
100000
100000
100000
100000
100000
100000
100000
100000
100000
100000
100000
100000
100000
100000
100000
100000
100000
100000
100000
100000
100000
100000
100000
100000
100000
100000
100000
100000
100000
100000
100000
100000
100000
100000
100000
100000
100000
100000
100000
100000
100000
100000
100000
100000
100000
100000
100000
100000
100000
100000
100000
100000
100000
100000
100000
100000
100000
100000
100000
100000
100000
100000
100000
100000
100000
100000
100000
100000
100000
100000
100000
100000
100000
100000
100000
100000
100000
100000
100000
100000
100000
100000
100000
100000
100000
100000
100000
100000
100000
100000
100000
100000
100000
100000
100000
100000
100000
100000
100000
100000
100000
100000
100000
100000
100000
100000
100000
100000
100000
100000
100000
100000
100000
100000
100000
100000
100000
100000
100000
100000
100000
100000
100000
100000
100000
100000
100000
100000
100000
100000
100000
100000
100000
100000
100000
100000
100000
100000
100000
100000
100000
100000
100000
100000
100000
100000
100000
100000
100000
100000
100000
100000
100000
100000
100000
100000
100000
100000
100000
100000
100000
100000
100000
100000
100000
100000
100000
100000
100000
100000
100000
100000
100000
100000
100000
100000
100000
100000
100000
100000
100000
100000
100000
100000
100000
100000
100000
100000
100000
100000
100000
100000
100000
100000
100000
100000
100000
100000
100000
100000
100000
100000
100000
100000
100000
100000
100000
100000
100000
100000
100000
100000
100000
100000
100000
100000
100000
100000
100000
100000
100000
100000
100000
100000
100000
100000
100000
100000
100000
100000
100000
100000
100000
100000
100000
100000
100000
100000
100000
100000
100000
100000
100000
100000
100000
100000
100000
100000
100000
100000
100000
100000
100000
100000
100000
100000
100000
100000
100000
100000
100000
100000
100000
100000
100000
100000
100000
100000
100000
100000
100000
100000
100000
100000
100000
100000
100000
100000
100000
100000
100000
100000
100000
100000
100000
100000
100000
100000
100000
100000
100000
100000
100000
100000
100000
100000
100000
100000
100000
100000
100000
100000
100000
100000
100000
100000
100000
100000
100000
100000
100000
100000
100000
100000
100000
100000
100000
100000
100000
100000
100000
100000
100000
100000
100000
100000
100000
100000
100000
100000
100000
100000
100000
100000
100000
100000
100000
100000
100000
100000
100000
100000
100000
100000
100000
100000
100000
100000
100000
100000
100000
100000
100000
100000
100000
100000
100000
100000
100000
100000
100000
100000
100000
100000
100000
100000
100000
100000
100000
100000
100000
100000
100000
100000
100000
100000
100000
100000
100000
100000
100000
100000
100000
100000
100000
100000
100000
100000
100000
100000
100000
100000
100000
100000
100000
100000
100000
100000
100000
100000
100000
100000
100000
100000
100000
100000
100000
100000
100000
100000
100000
100000
100000
100000
100000
100000
100000
100000
100000
100000
100000
100000
100000
100000
100000
100000
100000
100000
100000
100000
100000
100000
100000
100000
100000
100000
100000
100000
100000
100000
100000
100000
100000
100000
100000
100000
100000
100000
100000
100000
100000
100000
100000
100000
100000
100000
100000
100000
100000
100000
100000
100000
100000
100000
100000
100000
100000
100000
100000
100000
100000
100000
100000
100000
100000
100000
100000
100000
100000
100000
100000
100000
100000
100000
100000
100000
100000
100000
100000
100000
100000
100000
100000
100000
100000
100000
100000
100000
100000
100000
100000
100000
100000
100000
100000
100000
100000
100000
100000
100000
100000
100000
100000
100000
100000
100000
100000
100000
100000
100000
100000
100000
100000
100000
100000
100000
100000
100000
100000
100000
100000
100000
100000
100000
100000
100000
100000
100000
100000
100000
100000
100000
100000
100000
100000
100000
100000
100000
100000
100000
100000
100000
100000
100000
100000
100000
100000
100000
100000
100000
100000
100000
100000
100000
100000
100000
100000
100000
100000
100000
100000
100000
100000
100000
100000
100000
100000
100000
100000
100000
100000
100000
100000
100000
100000
100000
100000
100000
100000
100000
100000
100000
100000
100000
100000
100000
100000
100000
100000
100000
100000
100000
100000
100000
100000
100000
100000
100000
100000
100000
100000
100000
100000
100000
100000
100000
100000
100000
100000
100000
100000
100000
100000
100000
100000
100000
100000
100000
100000
100000
100000
100000
100000
100000
100000
100000
100000
100000
100000
100000
100000
100000
100000
100000
100000
100000
100000
100000
100000
100000
100000
100000
100000
100000
100000
100000
100000
100000
100000
100000
100000
100000
100000
100000
100000
100000
100000
100000
100000
100000
100000
100000
100000
100000
100000
100000
100000
100000
100000
100000
100000
100000
100000
100000
100000
100000
100000
100000
100000
100000
100000
100000
100000
100000
100000
100000
100000
100000
100000
100000
100000
100000
100000
100000
100000
100000
100000
100000
100000
100000
100000
100000
100000
100000
100000
100000
100000
100000
100000
100000
100000
100000
100000
100000
100000
100000
100000
100000
100000
100000
100000
100000
100000
100000
100000
100000
100000
100000
100000
100000
100000
100000
100000
100000
100000
100000
100000
100000
100000
100000
100000
100000
100000
100000
100000
100000
100000
100000
100000
100000
100000
100000
100000
100000
100000
100000
100000
100000
100000
100000
100000
100000
100000
100000
100000
100000
100000
100000
100000
100000
100000
100000
100000
100000
100000
100000
100000
100000
100000
100000
100000
100000
100000
100000
100000
100000
100000
100000
100000
100000
100000
100000
100000
100000
100000
100000
100000
100000
100000
100000
100000
100000
100000
100000
100000
100000
100000
100000
100000
100000
100000
100000
100000
100000
100000
100000
100000
100000
100000
100000
100000
100000
100000
100000
100000
100000
100000
100000
100000
100000
100000
100000
100000
100000
100000
100000
100000
100000
100000
100000
100000
100000
100000
100000
100000
100000
100000
100000
100000
100000
100000
100000
100000
100000
100000
100000
100000
100000
100000
99999.9
99999.9
99999.9
99999.9
99999.9
99999.9
99999.9
99999.9
99999.9
99999.8
99999.8
99999.8
99999.8
99999.7
99999.7
99999.7
99999.6
99999.6
99999.6
99999.5
99999.4
99999.4
99999.3
99999.2
99999.1
99999
99998.9
99998.8
99998.7
99998.5
99998.4
99998.2
99998
99997.8
99997.6
99997.3
99997
99996.7
99996.4
99996
99995.6
99995.2
99994.7
99994.2
99993.7
99993.1
99992.4
99991.7
99990.9
99990.1
99989.2
99988.3
99987.2
99986.1
99984.9
99983.6
99982.3
99980.8
99979.2
99977.5
99975.7
99973.8
99971.7
99969.5
99967.1
99964.6
99962
99959.2
99956.2
99953
99949.7
99946.1
99942.4
99938.4
99934.2
99929.8
99925.2
99920.3
99915.1
99909.7
99904.1
99898.1
99891.9
99885.4
99878.6
99871.5
99864.1
99856.4
99848.3
99840
99831.2
99822.2
99812.8
99803
99792.9
99782.4
99771.5
99760.3
99748.7
99736.7
99724.3
99711.5
99698.4
99684.8
99670.8
99656.5
99641.7
99626.6
99611
99595.1
99578.7
99562
99544.8
99527.2
99509.3
99490.9
99472.2
99453
99433.5
99413.5
99393.2
99372.5
99351.4
99329.9
99308
99285.8
99263.2
99240.3
99216.9
99193.2
99169.2
99144.8
99120.1
99095
99069.6
99043.9
99017.9
98991.5
98964.8
98937.8
98910.5
98882.9
98855
98826.8
98798.3
98769.6
98740.5
98711.2
98681.7
98651.8
98621.8
98591.4
98560.8
98530
98499
98467.7
98436.2
98404.4
98372.5
98340.3
98308
98275.4
98242.6
98209.7
98176.5
98143.2
98109.6
98075.9
98042.1
98008
97973.8
97939.4
97904.9
97870.2
97835.4
97800.4
97765.3
97730
97694.6
97659
97623.3
97587.5
97551.6
97515.5
97479.4
97443.1
97406.7
97370.1
97333.5
97296.8
97260
97223
97186
97148.9
97111.6
97074.3
97036.9
96999.4
96961.8
96924.2
96886.4
96848.6
96810.7
96772.8
96734.7
96696.6
96658.4
96620.2
96581.9
96543.5
96505
96466.5
96428
96389.4
96350.7
96312
96273.2
96234.3
96195.5
96156.5
96117.5
96078.5
96039.4
96000.3
95961.2
95921.9
95882.7
95843.4
95804.1
95764.7
95725.3
95685.9
95646.4
95606.9
95567.4
95527.8
95488.2
95448.6
95408.9
95369.3
95329.5
95289.8
95250
95210.2
95170.4
95130.6
95090.7
95050.8
95010.9
94971
94931.1
94891.1
94851.1
94811.1
94771.1
94731
94691
94650.9
94610.8
94570.7
94530.6
94490.5
94450.3
94410.2
94370
94329.8
94289.6
94249.4
94209.2
94169
94128.8
94088.5
94048.3
94008
93967.7
93927.5
93887.2
93846.9
93806.6
93766.3
93726
93685.7
93645.3
93605
93564.7
93524.4
93484
93443.7
93403.3
93363
93322.6
93282.3
93241.9
93201.6
93161.2
93120.9
93080.5
93040.1
92999.8
92959.4
92919
92878.7
92838.3
92798
92757.6
92717.2
92676.9
92636.5
92596.2
92555.8
92515.5
92475.1
92434.8
92394.4
92354.1
92313.7
92273.4
92233.1
92192.7
92152.4
92112.1
92071.8
92031.4
91991.1
91950.8
91910.5
91870.2
91829.9
91789.7
91749.4
91709.1
91668.8
91628.6
91588.3
91548
91507.8
91467.5
91427.3
91387.1
91346.9
91306.6
91266.4
91226.2
91186
91145.8
91105.7
91065.5
91025.3
90985.1
90945
90904.8
90864.7
90824.6
90784.4
90744.3
90704.2
90664.1
90624
90583.9
90543.9
90503.8
90463.7
90423.7
90383.7
90343.6
90303.6
90263.6
90223.6
90183.6
90143.6
90103.6
90063.6
90023.7
89983.7
89943.8
89903.9
89863.9
89824
89784.1
89744.2
89704.3
89664.5
89624.6
89584.7
89544.9
89505.1
89465.2
89425.4
89385.6
89345.8
89306.1
89266.3
89226.5
89186.8
89147
89107.3
89067.6
89027.9
88988.2
88948.5
88908.8
88869.2
88829.5
88789.9
88750.2
88710.6
88671
88631.4
88591.8
88552.2
88512.7
88473.1
88433.6
88394
88354.5
88315
88275.5
88236
88196.6
88157.1
88117.6
88078.2
88038.8
87999.4
87960
87920.6
87881.2
87841.8
87802.5
87763.1
87723.8
87684.5
87645.2
87605.9
87566.6
87527.3
87488
87448.8
87409.6
87370.3
87331.1
87291.9
87252.7
87213.6
87174.4
87135.3
87096.1
87057
87017.9
86978.8
86939.7
86900.6
86861.5
86822.5
86783.5
86744.4
86705.4
86666.4
86627.4
86588.5
86549.5
86510.5
86471.6
86432.7
86393.8
86354.9
86316
86277.1
86238.2
86199.4
86160.6
86121.7
86082.9
86044.1
86005.3
85966.6
85927.8
85889.1
85850.3
85811.6
85772.9
85734.2
85695.5
85656.9
85618.2
85579.6
85540.9
85502.3
85463.7
85425.1
85386.6
85348
85309.4
85270.9
85232.4
85193.9
85155.4
85116.9
85078.4
85040
85001.5
84963.1
84924.7
84886.2
84847.9
84809.5
84771.1
84732.8
84694.4
84656.1
84617.8
84579.5
84541.2
84502.9
84464.7
84426.4
84388.2
84350
84311.8
84273.6
84235.4
84197.2
84159.1
84120.9
84082.8
84044.7
84006.6
83968.5
83930.4
83892.4
83854.3
83816.3
83778.3
83740.3
83702.3
83664.3
83626.3
83588.4
83550.4
83512.5
83474.6
83436.7
83398.8
83361
83323.1
83285.3
83247.4
83209.6
83171.8
83134
83096.2
83058.5
83020.7
82983
82945.3
82907.6
82869.9
82832.2
82794.5
82756.9
82719.2
82681.6
82644
82606.4
82568.8
82531.3
82493.7
82456.1
82418.6
82381.1
82343.6
82306.1
82268.6
82231.2
82193.7
82156.3
82118.9
82081.5
82044.1
82006.7
81969.3
81932
81894.6
81857.3
81820
81782.7
81745.4
81708.1
81670.9
81633.6
81596.4
81559.2
81522
81484.8
81447.6
81410.5
81373.3
81336.2
81299.1
81261.9
81224.9
81187.8
81150.7
81113.7
81076.6
81039.6
81002.6
80965.6
80928.6
80891.6
80854.7
80817.7
80780.8
80743.9
80707
80670.1
80633.2
80596.4
80559.5
80522.7
80485.9
80449.1
80412.3
80375.5
80338.7
80302
80265.3
80228.5
80191.8
80155.1
80118.4
80081.8
80045.1
80008.5
79971.9
79935.2
79898.6
79862.1
79825.5
79788.9
79752.4
79715.9
79679.3
79642.8
79606.3
79569.9
79533.4
79497
79460.5
79424.1
79387.7
79351.3
79314.9
79278.6
79242.2
79205.9
79169.5
79133.2
79096.9
79060.7
79024.4
78988.1
78951.9
78915.7
78879.4
78843.2
78807.1
78770.9
78734.7
78698.6
78662.4
78626.3
78590.2
78554.1
78518.1
78482
78445.9
78409.9
78373.9
78337.9
78301.9
78265.9
78229.9
78194
78158
78122.1
78086.2
78050.3
78014.4
77978.5
77942.7
77906.8
77871
77835.2
77799.4
77763.6
77727.8
77692
77656.3
77620.6
77584.8
77549.1
77513.4
77477.8
77442.1
77406.4
77370.8
77335.2
77299.6
77264
77228.4
77192.8
77157.2
77121.7
77086.2
77050.6
77015.1
76979.7
76944.2
76908.7
76873.3
76837.8
76802.4
76767
76731.6
76696.2
76660.9
76625.5
76590.2
76554.8
76519.5
76484.2
76448.9
76413.7
76378.4
76343.2
76307.9
76272.7
76237.5
76202.3
76167.1
76132
76096.8
76061.7
76026.6
75991.5
75956.4
75921.3
75886.2
75851.2
75816.1
75781.1
75746.1
75711.1
75676.1
75641.1
75606.2
75571.2
75536.3
75501.4
75466.5
75431.6
75396.7
75361.8
75327
75292.1
75257.3
75222.5
75187.7
75152.9
75118.2
75083.4
75048.7
75013.9
74979.2
74944.5
74909.8
74875.1
74840.5
74805.8
74771.2
74736.6
74702
74667.4
74632.8
74598.2
74563.7
74529.1
74494.6
74460.1
74425.6
74391.1
74356.6
74322.2
74287.7
74253.3
74218.9
74184.4
74150.1
74115.7
74081.3
74047
74012.6
73978.3
73944
73909.7
73875.4
73841.1
73806.9
73772.6
73738.4
73704.2
73670
73635.8
73601.6
73567.4
73533.3
73499.1
73465
73430.9
73396.8
73362.7
73328.6
73294.6
73260.5
73226.5
73192.5
73158.5
73124.5
73090.5
73056.5
73022.6
72988.7
72954.7
72920.8
72886.9
72853
72819.2
72785.3
72751.5
72717.6
72683.8
72650
72616.2
72582.4
72548.7
72514.9
72481.2
72447.5
72413.7
72380
72346.4
72312.7
72279
72245.4
72211.7
72178.1
72144.5
72110.9
72077.4
72043.8
72010.2
71976.7
71943.2
71909.7
71876.2
71842.7
71809.2
71775.7
71742.3
71708.8
71675.4
71642
71608.6
71575.2
71541.9
71508.5
71475.2
71441.8
71408.5
71375.2
71341.9
71308.7
71275.4
71242.2
71208.9
71175.7
71142.5
71109.3
71076.1
71042.9
71009.8
70976.6
70943.5
70910.4
70877.3
70844.2
70811.1
70778
70745
70711.9
70678.9
70645.9
70612.9
70579.9
70546.9
70514
70481
70448.1
70415.2
70382.3
70349.4
70316.5
70283.6
70250.8
70217.9
70185.1
70152.3
70119.5
70086.7
70053.9
70021.1
69988.4
69955.6
69922.9
69890.2
69857.5
69824.8
69792.1
69759.5
69726.8
69694.2
69661.6
69629
69596.4
69563.8
69531.2
69498.7
69466.1
69433.6
69401.1
69368.6
69336.1
69303.6
69271.1
69238.7
69206.2
69173.8
69141.4
69109
69076.6
69044.2
69011.8
68979.5
68947.2
68914.8
68882.5
68850.2
68817.9
68785.7
68753.4
68721.2
68688.9
68656.7
68624.5
68592.3
68560.1
68527.9
68495.8
68463.6
68431.5
68399.4
68367.3
68335.2
68303.1
68271
68239
68207
68174.9
68142.9
68110.9
68078.9
68046.9
68015
67983
67951.1
67919.2
67887.2
67855.3
67823.5
67791.6
67759.7
67727.9
67696
67664.2
67632.4
67600.6
67568.8
67537
67505.3
67473.5
67441.8
67410.1
67378.4
67346.7
67315
67283.3
67251.6
67220
67188.4
67156.7
67125.1
67093.5
67062
67030.4
66998.8
66967.3
66935.8
66904.2
66872.7
66841.2
66809.8
66778.3
66746.8
66715.4
66684
66652.5
66621.1
66589.7
66558.4
66527
66495.6
66464.3
66433
66401.7
66370.4
66339.1
66307.8
66276.5
66245.3
66214
66182.8
66151.6
66120.4
66089.2
66058
66026.8
65995.7
65964.5
65933.4
65902.3
65871.2
65840.1
65809
65778
65746.9
65715.9
65684.9
65653.8
65622.8
65591.8
65560.9
65529.9
65498.9
65468
65437.1
65406.2
65375.3
65344.4
65313.5
65282.6
65251.8
65220.9
65190.1
65159.3
65128.5
65097.7
65066.9
65036.2
65005.4
64974.7
64943.9
64913.2
64882.5
64851.8
64821.2
64790.5
64759.8
64729.2
64698.6
64668
64637.3
64606.8
64576.2
64545.6
64515.1
64484.5
64454
64423.5
64393
64362.5
64332
64301.5
64271.1
64240.6
64210.2
64179.8
64149.4
64119
64088.6
64058.2
64027.9
63997.5
63967.2
63936.9
63906.6
63876.3
63846
63815.7
63785.5
63755.2
63725
63694.8
63664.6
63634.4
63604.2
63574
63543.9
63513.7
63483.6
63453.5
63423.3
63393.3
63363.2
63333.1
63303
63273
63242.9
63212.9
63182.9
63152.9
63122.9
63093
63063
63033
63003.1
62973.2
62943.3
62913.4
62883.5
62853.6
62823.7
62793.9
62764
62734.2
62704.4
62674.6
62644.8
62615
62585.2
62555.5
62525.7
62496
62466.3
62436.6
62406.9
62377.2
62347.5
62317.9
62288.2
62258.6
62229
62199.4
62169.8
62140.2
62110.6
62081
62051.5
62022
61992.4
61962.9
61933.4
61903.9
61874.5
61845
61815.5
61786.1
61756.7
61727.3
61697.8
61668.5
61639.1
61609.7
61580.4
61551
61521.7
61492.4
61463
61433.8
61404.5
61375.2
61345.9
61316.7
61287.4
61258.2
61229
61199.8
61170.6
61141.4
61112.3
61083.1
61054
61024.9
60995.7
60966.6
60937.5
60908.5
60879.4
60850.3
60821.3
60792.3
60763.2
60734.2
60705.2
60676.3
60647.3
60618.3
60589.4
60560.4
60531.5
60502.6
60473.7
60444.8
60415.9
60387.1
60358.2
60329.4
60300.5
60271.7
60242.9
60214.1
60185.3
60156.6
60127.8
60099
60070.3
60041.6
60012.9
59984.2
59955.5
59926.8
59898.1
59869.5
59840.8
59812.2
59783.6
59755
59726.4
59697.8
59669.2
59640.7
59612.1
59583.6
59555.1
59526.6
59498.1
59469.6
59441.1
59412.6
59384.2
59355.7
59327.3
59298.9
59270.5
59242.1
59213.7
59185.3
59157
59128.6
59100.3
59072
59043.7
59015.4
58987.1
58958.8
58930.5
58902.3
58874
58845.8
58817.6
58789.4
58761.2
58733
58704.8
58676.7
58648.5
58620.4
58592.3
58564.1
58536
58507.9
58479.9
58451.8
58423.7
58395.7
58367.7
58339.6
58311.6
58283.6
58255.7
58227.7
58199.7
58171.8
58143.8
58115.9
58088
58060.1
58032.2
58004.3
57976.4
57948.6
57920.7
57892.9
57865.1
57837.2
57809.4
57781.7
57753.9
57726.1
57698.3
57670.6
57642.9
57615.2
57587.4
57559.7
57532.1
57504.4
57476.7
57449.1
57421.4
57393.8
57366.2
57338.6
57311
57283.4
57255.8
57228.3
57200.7
57173.2
57145.6
57118.1
57090.6
57063.1
57035.7
57008.2
56980.7
56953.3
56925.8
56898.4
56871
56843.6
56816.2
56788.8
56761.5
56734.1
56706.8
56679.4
56652.1
56624.8
56597.5
56570.2
56542.9
56515.7
56488.4
56461.2
56434
56406.7
56379.5
56352.3
56325.1
56298
56270.8
56243.7
56216.5
56189.4
56162.3
56135.2
56108.1
56081
56053.9
56026.9
55999.8
55972.8
55945.7
55918.7
55891.7
55864.7
55837.7
55810.8
55783.8
55756.9
55729.9
55703
55676.1
55649.2
55622.3
55595.4
55568.5
55541.7
55514.8
55488
55461.2
55434.4
55407.6
55380.8
55354
55327.2
55300.5
55273.7
55247
55220.2
55193.5
55166.8
55140.1
55113.5
55086.8
55060.1
55033.5
55006.8
54980.2
54953.6
54927
54900.4
54873.8
54847.3
54820.7
54794.2
54767.6
54741.1
54714.6
54688.1
54661.6
54635.1
54608.6
54582.2
54555.7
54529.3
54502.9
54476.5
54450.1
54423.7
54397.3
54370.9
54344.6
54318.2
54291.9
54265.6
54239.3
54213
54186.7
54160.3
54134.1
54107.8
54081.5
54055.3
54029.1
54002.9
53976.9
53950.8
53924.9
53899.1
53873.3
53847.5
53821.7
53795.6
53769.2
53742.6
53715.9
53689.3
53662.9
53636.6
53610.5
53584.7
53559.4
53534.6
53510.3
53486.7
53463.7
53441.1
53418.6
53395.6
53371.1
53344.8
53316.8
53287.6
53258.2
53229.2
53200.9
53173.2
53146.4
53120.4
53095.4
53071.6
53049
53027.6
53007.4
52988.1
52969.4
52950.5
52930.5
52908.5
52883.9
52856.8
52827.6
52796.9
52765.6
52734.6
52704.2
52674.4
52645.4
52617.2
52589.9
52563.4
52538
52513.6
52490.2
52467.8
52446.3
52425.6
52405.5
52385.7
52365.7
52345.1
52323.1
52299.5
52274
52246.9
52218.4
52189
52159.1
52129.4
52099.9
52070.8
52041.9
52013.4
51985
51957
51929.2
51901.6
51874.2
51847.1
51820.1
51793.3
51766.6
51740.1
51713.7
51687.5
51661.4
51635.4
51609.6
51583.8
51558.2
51532.6
51507.2
51481.8
51456.4
51431.1
51405.7
51380.2
51354.7
51329.3
51303.8
51278.6
51253.4
51228.5
51203.7
51179.2
51154.9
51130.9
51106.9
51082.9
51058.8
51034.3
51009.2
50983.7
50957.9
50932.3
50907.1
50882.2
50857.7
50833.6
50810
50786.8
50763.8
50741
50718
50694.4
50670.1
50644.8
50619
50592.9
50567.2
50541.9
50517.1
50492.8
50469.1
50445.8
50423
50400.4
50377.9
50355.3
50332.1
50308
50283.1
50257.3
50231.3
50205.5
50180.1
50155.1
50130.6
50106.6
50083
50059.9
50037
50014.3
49991.5
49968.4
49944.7
49920.2
49895
49869.3
49843.6
49818.2
49793.1
49768.4
49744.1
49720.1
49696.6
49673.3
49650.2
49627.2
49604.1
49580.6
49556.6
49532
49506.8
49481.4
49456.1
49431
49406.1
49381.6
49357.5
49333.6
49310
49286.7
49263.5
49240.4
49217.1
49193.6
49169.5
49145
49120
49094.8
49069.7
49044.8
49020.2
48995.9
48971.8
48948
48924.5
48901.2
48878
48854.9
48831.7
48808.2
48784.3
48759.9
48735.1
48710.2
48685.3
48660.6
48636.1
48611.9
48587.9
48564.2
48540.8
48517.5
48494.4
48471.4
48448.4
48425.2
48401.5
48377.4
48352.8
48328
48303.2
48278.6
48254.2
48230
48206.1
48182.5
48159.1
48136
48113.1
48090.2
48067.4
48044.5
48021.2
47997.4
47973.1
47948.5
47923.8
47899.2
47874.8
47850.7
47826.8
47803.2
47779.9
47756.8
47734
47711.4
47688.8
47666.3
47643.4
47620.2
47596.3
47572
47547.4
47522.8
47498.3
47474.1
47450.1
47426.4
47403.1
47380
47357.3
47334.8
47312.5
47290.3
47268
47245.4
47222.2
47198.5
47174.2
47149.6
47125
47100.5
47076.4
47052.5
47029
47005.8
46983
46960.6
46938.4
46916.4