/*--------------------------------*- C++ -*----------------------------------*\
  =========                 |
  \\      /  F ield         | OpenFOAM: The Open Source CFD Toolbox
   \\    /   O peration     | Website:  https://openfoam.org
    \\  /    A nd           | Version:  9
     \\/     M anipulation  |
\*---------------------------------------------------------------------------*/
FoamFile
{
    format      ascii;
    class       volScalarField;
    location    "0.004";
    object      p;
}
// * * * * * * * * * * * * * * * * * * * * * * * * * * * * * * * * * * * * * //

dimensions      [0 2 -2 0 0 0 0];

internalField   nonuniform List<scalar> 
100
(
1.2784e-22
1.29765e-22
1.3104e-22
1.31367e-22
1.31986e-22
1.32594e-22
1.31891e-22
1.29855e-22
1.28549e-22
1.30143e-22
1.33988e-22
1.35893e-22
1.31941e-22
1.2499e-22
1.25058e-22
1.37168e-22
1.4934e-22
1.42402e-22
1.15401e-22
9.24802e-23
9.88566e-23
1.33891e-22
1.70786e-22
1.82769e-22
1.68735e-22
1.50024e-22
1.44072e-22
1.49124e-22
1.54294e-22
1.54601e-22
1.52578e-22
1.51325e-22
1.52445e-22
1.68998e-22
2.12327e-22
1.15777e-22
-5.8103e-22
-9.60725e-22
5.30957e-21
2.07302e-20
-1.15035e-20
-2.18432e-19
-2.86164e-19
1.57102e-18
5.57744e-18
-5.15451e-18
-6.33102e-17
-5.47762e-17
5.47773e-17
6.33113e-17
5.1559e-18
-5.57595e-18
-1.56969e-18
2.87054e-19
2.18845e-19
1.17715e-20
-2.01411e-20
-4.19457e-21
2.4198e-21
2.04438e-21
1.14446e-21
8.76148e-22
8.98377e-22
9.80923e-22
1.0255e-21
1.01981e-21
1.00247e-21
9.98229e-22
1.00188e-21
1.00326e-21
1.00145e-21
1.00152e-21
1.00663e-21
1.01169e-21
1.00573e-21
9.87034e-22
9.73058e-22
9.85048e-22
1.02175e-21
1.05654e-21
1.06311e-21
1.04104e-21
1.01467e-21
1.00695e-21
1.01717e-21
1.0282e-21
1.02967e-21
1.02555e-21
1.02305e-21
1.0235e-21
1.02451e-21
1.02473e-21
1.0245e-21
1.02438e-21
1.0244e-21
1.02443e-21
1.02443e-21
1.02442e-21
1.02442e-21
1.02442e-21
)
;

boundaryField
{
    inlet
    {
        type            zeroGradient;
    }
    outlet
    {
        type            zeroGradient;
    }
    lowerWall
    {
        type            empty;
    }
    upperWall
    {
        type            empty;
    }
    frontAndBack
    {
        type            empty;
    }
}


// ************************************************************************* //
