/*--------------------------------*- C++ -*----------------------------------*\
  =========                 |
  \\      /  F ield         | OpenFOAM: The Open Source CFD Toolbox
   \\    /   O peration     | Website:  https://openfoam.org
    \\  /    A nd           | Version:  9
     \\/     M anipulation  |
\*---------------------------------------------------------------------------*/
FoamFile
{
    format      ascii;
    class       volVectorField;
    location    "0.004";
    object      U;
}
// * * * * * * * * * * * * * * * * * * * * * * * * * * * * * * * * * * * * * //

dimensions      [0 1 -1 0 0 0 0];

internalField   nonuniform List<vector> 
100
(
(3.31612e-23 0 0)
(3.31195e-23 0 0)
(3.30952e-23 0 0)
(3.31032e-23 0 0)
(3.31269e-23 0 0)
(3.31318e-23 0 0)
(3.30966e-23 0 0)
(3.3058e-23 0 0)
(3.30803e-23 0 0)
(3.31577e-23 0 0)
(3.31995e-23 0 0)
(3.31382e-23 0 0)
(3.30118e-23 0 0)
(3.29497e-23 0 0)
(3.3092e-23 0 0)
(3.33841e-23 0 0)
(3.34342e-23 0 0)
(3.2951e-23 0 0)
(3.24222e-23 0 0)
(3.26861e-23 0 0)
(3.35914e-23 0 0)
(3.39996e-23 0 0)
(3.3445e-23 0 0)
(3.27551e-23 0 0)
(3.27077e-23 0 0)
(3.3071e-23 0 0)
(3.32662e-23 0 0)
(3.31929e-23 0 0)
(3.30887e-23 0 0)
(3.3072e-23 0 0)
(3.30933e-23 0 0)
(3.31099e-23 0 0)
(3.31101e-23 0 0)
(3.31603e-23 0 0)
(3.37397e-23 0 0)
(3.42227e-23 0 0)
(2.74398e-23 0 0)
(8.93111e-24 0 0)
(4.64024e-23 0 0)
(3.00756e-22 0 0)
(3.94121e-22 0 0)
(-1.89737e-21 0 0)
(-6.94114e-21 0 0)
(5.89559e-21 0 0)
(7.73626e-20 0 0)
(8.15792e-20 0 0)
(-6.03076e-19 0 0)
(4.36496e-19 0 0)
(4.36496e-19 0 0)
(-6.03076e-19 0 0)
(8.15818e-20 0 0)
(7.73649e-20 0 0)
(5.89211e-21 0 0)
(-6.94996e-21 0 0)
(-1.90403e-21 0 0)
(3.9573e-22 0 0)
(3.09337e-22 0 0)
(5.43722e-23 0 0)
(9.74783e-24 0 0)
(2.27574e-23 0 0)
(3.07748e-23 0 0)
(3.42726e-23 0 0)
(3.4935e-23 0 0)
(3.36029e-23 0 0)
(3.26487e-23 0 0)
(3.27999e-23 0 0)
(3.31523e-23 0 0)
(3.32073e-23 0 0)
(3.31282e-23 0 0)
(3.30864e-23 0 0)
(3.30689e-23 0 0)
(3.30889e-23 0 0)
(3.31934e-23 0 0)
(3.32663e-23 0 0)
(3.30706e-23 0 0)
(3.27075e-23 0 0)
(3.27562e-23 0 0)
(3.34467e-23 0 0)
(3.39974e-23 0 0)
(3.35841e-23 0 0)
(3.26851e-23 0 0)
(3.24397e-23 0 0)
(3.29714e-23 0 0)
(3.34194e-23 0 0)
(3.33333e-23 0 0)
(3.30685e-23 0 0)
(3.30011e-23 0 0)
(3.30846e-23 0 0)
(3.31382e-23 0 0)
(3.31267e-23 0 0)
(3.31064e-23 0 0)
(3.31041e-23 0 0)
(3.3109e-23 0 0)
(3.31108e-23 0 0)
(3.31101e-23 0 0)
(3.31095e-23 0 0)
(3.31095e-23 0 0)
(3.31097e-23 0 0)
(3.31097e-23 0 0)
(3.31097e-23 0 0)
)
;

boundaryField
{
    inlet
    {
        type            zeroGradient;
    }
    outlet
    {
        type            zeroGradient;
    }
    lowerWall
    {
        type            empty;
    }
    upperWall
    {
        type            empty;
    }
    frontAndBack
    {
        type            empty;
    }
}


// ************************************************************************* //
