/*--------------------------------*- C++ -*----------------------------------*\
  =========                 |
  \\      /  F ield         | OpenFOAM: The Open Source CFD Toolbox
   \\    /   O peration     | Website:  https://openfoam.org
    \\  /    A nd           | Version:  9
     \\/     M anipulation  |
\*---------------------------------------------------------------------------*/
FoamFile
{
    format      ascii;
    class       volScalarField;
    location    "0.004";
    object      ddt0(rho,K);
}
// * * * * * * * * * * * * * * * * * * * * * * * * * * * * * * * * * * * * * //

dimensions      [1 -1 -3 0 0 0 0];

internalField   nonuniform List<scalar> 
1000
(
-2.68636e-21
-8.4445e-21
-6.90806e-21
-2.48846e-21
-3.62214e-21
-2.2296e-21
1.49364e-22
2.29913e-22
4.40067e-21
6.06004e-21
3.22958e-21
-5.04275e-21
3.46187e-21
1.53855e-20
1.67458e-20
-6.37169e-21
6.11008e-23
3.21608e-21
1.01882e-20
1.32182e-20
6.35298e-21
-3.10492e-21
2.97327e-23
2.42038e-21
4.86584e-21
-8.9214e-21
-2.25325e-20
-1.5162e-20
-1.58452e-20
-8.33233e-21
2.43592e-21
1.15457e-22
-2.5993e-21
-1.61681e-21
2.98381e-21
1.75304e-20
1.91533e-20
2.4528e-20
3.13648e-20
1.88213e-20
6.13569e-21
-1.48941e-20
-1.82337e-20
-1.69809e-21
-1.26044e-21
-5.06013e-21
-3.73841e-21
-3.64921e-21
-9.29065e-22
-3.41039e-22
-6.793e-22
1.91217e-21
4.92225e-21
7.29497e-21
7.11132e-21
-4.97291e-21
-9.92045e-21
-2.97968e-20
-4.74833e-20
-2.24641e-20
-5.23052e-21
-3.68145e-21
-2.12712e-21
3.8694e-21
1.4428e-21
5.19176e-23
-2.55691e-22
4.11176e-21
1.44757e-20
1.6703e-20
1.4328e-20
1.26688e-22
-1.00721e-20
-1.04433e-20
-1.71879e-20
-1.14833e-20
-1.34772e-20
-1.15856e-21
3.5319e-21
6.1162e-21
2.24227e-20
2.9848e-20
1.5342e-20
-2.63156e-21
-1.4522e-20
-1.48981e-20
-6.48408e-21
-5.82155e-21
-1.46781e-21
9.33509e-22
1.6017e-21
4.07806e-21
4.37493e-21
-1.60131e-21
2.82491e-21
1.06056e-20
2.6915e-20
3.46864e-20
1.13186e-20
3.65213e-21
3.29051e-21
1.81566e-20
-3.4998e-21
-3.06501e-20
-2.27822e-20
-2.43719e-20
-1.95619e-20
-2.65607e-21
-1.51839e-22
5.70586e-22
-1.31871e-21
-5.11097e-21
-1.26232e-21
-3.28374e-21
-4.22139e-21
-4.74675e-22
1.16083e-21
4.00009e-22
-2.61254e-21
-2.63512e-22
4.19694e-22
-3.63792e-21
4.39837e-21
2.73965e-21
-1.51246e-21
3.82893e-23
1.1932e-22
-2.97969e-21
-2.45694e-21
-2.68343e-21
3.44435e-22
1.54587e-21
-1.71912e-21
1.4147e-20
1.28061e-20
1.88214e-20
3.10291e-21
-6.72924e-21
-1.17845e-20
-1.93279e-20
-1.56005e-20
-1.13777e-20
-1.63687e-21
-8.82262e-21
-7.39554e-21
-1.18291e-21
4.58238e-21
2.17556e-20
3.11388e-20
2.11178e-20
1.34561e-21
-1.57612e-21
-1.99234e-21
-5.50078e-22
-2.09665e-21
-9.50269e-22
-4.08642e-22
-3.91691e-21
-2.14671e-21
4.26594e-24
1.20536e-21
-5.32567e-22
-3.34835e-21
-3.98171e-22
1.09245e-22
-5.69985e-21
-3.87885e-21
-3.01735e-22
2.55535e-21
9.09976e-21
2.21231e-21
-1.16561e-20
-1.37596e-20
-3.34697e-21
1.1257e-20
9.22679e-21
2.42429e-21
-1.97547e-21
1.76748e-21
4.76263e-21
1.44806e-20
1.29134e-20
1.0329e-20
2.22935e-21
-3.1886e-22
-1.42619e-21
-2.60017e-22
5.81144e-21
-8.10042e-24
-1.71457e-22
7.23261e-21
4.58382e-21
1.70919e-21
-5.44003e-21
-2.0385e-20
-9.74551e-21
-4.81788e-21
1.74023e-22
-1.98957e-21
1.28905e-21
1.8355e-21
4.73302e-22
-6.55375e-21
-1.54836e-20
-5.08816e-21
5.40251e-21
2.23635e-21
-1.21865e-22
-3.64433e-21
-1.48156e-22
7.08463e-21
9.10582e-21
1.33952e-20
1.78929e-21
-2.08254e-21
-1.13612e-21
2.23344e-21
7.58558e-22
-1.20425e-21
-3.8432e-21
-1.01424e-20
-1.3125e-20
-4.50398e-21
-3.21085e-21
-2.01578e-21
-2.83291e-21
1.54534e-21
-5.56786e-21
-1.17418e-20
-8.42234e-21
-1.64385e-20
-1.14066e-20
-1.60759e-21
8.46538e-21
1.5467e-20
1.11452e-20
3.68511e-21
-3.13328e-21
8.72464e-22
1.45026e-22
-3.44546e-21
-5.70579e-21
-1.01172e-20
1.98498e-21
-5.40161e-21
-1.27524e-21
1.53615e-21
1.29958e-20
1.21146e-20
9.3091e-21
1.04377e-20
3.45834e-21
7.81009e-23
4.04167e-23
-4.91186e-23
2.6428e-21
1.57087e-21
8.19311e-22
-6.28287e-22
-7.76073e-21
-6.58735e-21
8.25662e-22
7.42936e-22
1.99981e-21
-1.67158e-21
-2.39648e-21
-1.68337e-20
-1.57027e-20
1.57064e-20
2.98496e-20
2.63935e-20
1.34015e-20
1.24032e-21
-3.00476e-21
-4.85466e-21
-9.39541e-21
-1.53518e-20
-6.05016e-21
8.68276e-22
3.91469e-21
1.43124e-21
-2.55543e-21
1.91915e-21
5.31525e-21
6.11159e-21
1.21634e-20
4.84219e-21
-1.21672e-21
-4.91469e-21
7.1051e-22
2.93758e-22
-1.18261e-22
4.76329e-21
9.19262e-21
6.52584e-21
4.91371e-21
-1.84682e-21
-6.90396e-21
-7.04865e-21
1.81942e-21
9.97043e-21
1.89665e-20
-2.3969e-22
-2.47099e-20
6.25096e-20
8.9556e-19
6.84411e-18
4.27853e-17
2.49497e-16
1.41023e-15
7.77612e-15
4.21172e-14
2.23551e-13
1.16296e-12
5.92528e-12
2.95636e-11
1.44384e-10
6.89978e-10
3.22487e-09
1.47351e-08
6.57876e-08
2.86858e-07
1.22091e-06
5.06928e-06
2.05204e-05
8.09315e-05
0.000310767
0.00116093
0.0042158
0.0148684
0.0508796
0.168754
0.54187
1.68232
5.04294
14.5728
40.5268
108.257
277.199
678.856
1586.31
3528.27
7451.47
14908.5
28201.6
50363.4
84843.3
134844
202420
287623
388065
499311
616271
734676
851720
965939
1.07678e+06
1.18415e+06
1.28819e+06
1.38907e+06
1.48695e+06
1.58198e+06
1.67428e+06
1.76394e+06
1.85104e+06
1.93563e+06
2.01775e+06
2.09743e+06
2.17469e+06
2.24951e+06
2.32192e+06
2.39189e+06
2.45942e+06
2.5245e+06
2.58712e+06
2.64727e+06
2.70493e+06
2.76011e+06
2.81279e+06
2.86298e+06
2.91067e+06
2.95588e+06
2.99862e+06
3.03889e+06
3.07672e+06
3.11213e+06
3.14514e+06
3.17578e+06
3.20409e+06
3.23009e+06
3.25381e+06
3.27531e+06
3.29461e+06
3.31176e+06
3.3268e+06
3.33977e+06
3.35072e+06
3.35968e+06
3.3667e+06
3.37182e+06
3.3751e+06
3.37656e+06
3.37626e+06
3.37424e+06
3.37053e+06
3.36519e+06
3.35825e+06
3.34976e+06
3.33975e+06
3.32827e+06
3.31535e+06
3.30104e+06
3.28538e+06
3.26839e+06
3.25013e+06
3.23063e+06
3.20992e+06
3.18805e+06
3.16504e+06
3.14093e+06
3.11576e+06
3.08958e+06
3.06235e+06
3.0343e+06
3.00499e+06
2.97559e+06
2.94345e+06
2.91456e+06
2.87666e+06
2.85321e+06
2.80335e+06
2.79143e+06
2.72831e+06
2.71868e+06
2.66878e+06
2.61501e+06
2.62971e+06
2.51485e+06
2.54971e+06
2.48034e+06
2.40145e+06
2.45149e+06
2.33038e+06
2.29093e+06
2.33673e+06
2.19833e+06
2.16223e+06
2.21888e+06
2.08207e+06
2.00995e+06
2.08832e+06
1.99212e+06
1.85454e+06
1.92099e+06
1.92003e+06
1.74165e+06
1.70774e+06
1.79943e+06
1.70332e+06
1.53194e+06
1.5685e+06
1.64263e+06
1.50237e+06
1.34333e+06
1.40181e+06
1.47666e+06
1.33293e+06
1.15851e+06
1.20137e+06
1.30508e+06
1.20266e+06
996203
968674
1.09807e+06
1.09595e+06
892307
746883
825688
942937
855876
630199
540056
658652
760009
650054
425216
329942
447087
589095
516185
256035
107747
239125
424777
386449
167757
-2749.76
8533.43
175533
308182
210351
-40711.4
-177535
-11331
126053
226448
164519
-174867
-189827
-19783.8
30814.9
58420.5
147117
53488.2
-78945.8
-39502.2
-47524.1
-13330.5
44900.9
41593.7
28826.5
-59729.5
-74432.2
-15004.6
79644.8
30402.5
3455.02
108236
-72836.9
-54056
75263.1
153712
-88149.4
-146943
47791.3
141789
-49525.6
-67244.6
58386.4
83824.4
-104391
-29302.6
161520
95092.1
-102084
-73782.9
119320
121283
-75061.5
-73354.3
58701
124390
-15521.5
-93726.9
-9334.47
67423.7
11271.5
-62250
54476.2
129324
30854.2
-33779.8
5582.25
78521.7
30395.9
-24201.8
73176.2
44664.2
-23559.6
-6943.05
56594.8
107357
-6159.49
25185.9
47473.1
30310.4
24394.9
54658.9
62898.9
57737.8
30599.6
55321.8
109170
41194.5
14058.3
42704.7
59195.4
104692
105021
94710.7
153311
86162.1
15303.9
69190.6
81836.2
114089
84091.6
242760
368522
276259
217981
242153
183107
104690
47605.8
93060.7
23503
-125022
132020
51936.1
2.84881e+06
6.19348e+06
3.16507e+07
3.37527e+07
2.73249e+07
2.21217e+07
1.77537e+07
1.39832e+07
1.06729e+07
7.82332e+06
5.62619e+06
4.12826e+06
3.10739e+06
2.16678e+06
1.26656e+06
698670
497301
552875
515414
155742
-215939
-90302.1
126224
109945
40682.6
-46724.8
-61219
-3968.98
-279.187
-48423.9
-46904.5
-19851.7
-12243.5
-12659.9
-3371.11
-2692.38
-3449.08
-10004.8
651.795
16761.6
7155.23
-5394.33
-12140.9
-4916.17
22518
10433
-17913.8
-6673.4
20349.6
5256.14
-18661.6
5311.84
13654.3
-4435.82
221.662
7236.07
3263.82
121.243
4925.4
16918.8
18428.1
-3487.21
-10318.1
21528.8
31899.4
-9283.1
-19024.2
10932.1
28126.6
3256.71
-8932.32
5333.46
-32690.1
3842.01
57745.4
58634.6
-16605.3
64686.3
80878.5
-6304.77
244265
-46359.6
82910.4
289736
-99343.9
234448
404050
31433.1
836569
516477
265523
2.36288e+06
-143923
1.71265e+06
2.56432e+06
-511237
4.12544e+06
3.8571e+06
-612452
1.1863e+07
2.40335e+06
8.26331e+06
2.28113e+07
-1.18085e+07
5.37133e+07
5.9127e+06
9.67466e+07
3.50493e+08
6.77876e+07
2.48931e+06
61123.3
1199.93
21.6593
0.386227
0.00687144
0.000122059
2.1657e-06
3.84087e-08
6.81226e-10
1.20867e-11
2.14588e-13
3.8159e-15
6.903e-17
1.43094e-18
4.78712e-20
4.96177e-23
-7.8494e-22
-3.73371e-24
1.6639e-22
-1.17953e-22
4.04633e-22
-2.19548e-22
-9.43909e-22
-3.59834e-22
-4.33083e-22
-2.22439e-22
1.88149e-22
7.61067e-24
-4.05631e-23
-4.68878e-23
1.91151e-22
1.21118e-22
-8.8501e-23
-7.63407e-23
5.67194e-23
5.39611e-22
1.13037e-21
6.22767e-22
2.67708e-22
-1.12055e-23
-2.12592e-22
1.13125e-22
1.27552e-22
-1.98029e-22
-1.03215e-22
4.47905e-23
3.84308e-23
7.15011e-23
-4.27333e-22
-4.50803e-22
-1.16308e-22
-8.14471e-23
1.40473e-22
2.36059e-22
-7.23134e-23
-8.06878e-22
-5.68054e-22
2.20023e-22
2.18057e-22
-5.98546e-23
1.8043e-22
-1.24773e-22
-8.22919e-25
1.30353e-22
-6.74538e-23
2.14536e-23
-6.45622e-24
-7.04126e-23
5.30443e-24
6.76195e-23
7.09147e-22
4.67027e-22
5.04859e-22
1.82652e-22
5.03252e-22
5.1458e-23
-2.8209e-22
-2.0632e-22
-2.1706e-22
9.20653e-23
-1.60279e-23
-1.6605e-22
-6.66842e-22
-2.64154e-23
2.01716e-22
3.49353e-22
5.65466e-22
3.21755e-22
-2.02333e-22
-1.46388e-22
-4.80044e-23
-5.34718e-23
-3.15307e-23
-7.96076e-22
9.81474e-25
1.34025e-22
-3.26744e-22
3.83426e-22
1.13853e-22
-2.85626e-22
-1.36239e-22
-4.64522e-23
-5.24805e-23
-3.02168e-22
5.80396e-24
-2.85952e-23
-1.66076e-23
-1.24593e-23
-1.22552e-23
-3.72291e-22
-5.70693e-22
-2.09595e-22
-2.88311e-24
1.56567e-22
9.07297e-23
-4.40943e-24
-1.17155e-22
5.56165e-23
-4.21279e-22
-3.83067e-22
1.77889e-22
8.76638e-22
8.86087e-22
2.75915e-22
-4.22156e-22
-4.56835e-22
-1.59402e-22
-4.28397e-24
-1.60601e-23
2.67704e-24
2.28765e-22
-1.44608e-22
3.63614e-22
9.8079e-22
1.46619e-22
-7.58264e-24
-1.87263e-22
-5.61663e-22
-4.99493e-22
-4.99694e-22
-7.19891e-22
-8.12071e-22
-2.94293e-22
-1.28018e-22
-1.50989e-23
1.00895e-22
5.06002e-22
4.38571e-22
7.91794e-24
4.30905e-22
2.1488e-22
5.71293e-22
1.04418e-21
5.90574e-22
1.40011e-22
-1.07408e-22
-2.6221e-22
1.14606e-22
2.13852e-22
-1.96992e-24
-3.76783e-24
-1.23641e-21
-2.02875e-21
-2.61406e-22
-1.08651e-23
9.6973e-22
1.93249e-22
-1.41754e-22
1.02845e-21
3.17686e-22
2.57038e-22
-5.41986e-22
-1.78546e-21
-1.16835e-21
-2.82921e-21
-5.85517e-22
1.34452e-21
9.95842e-22
5.98308e-22
-4.53404e-22
-8.63518e-22
-1.72291e-23
1.17261e-21
1.74237e-21
6.22151e-23
6.61294e-22
1.42159e-23
1.64065e-22
-2.67918e-24
1.34211e-22
1.54147e-22
8.59545e-23
1.46905e-22
1.58574e-22
-5.80152e-23
-9.06427e-22
-6.44454e-22
-2.15871e-22
-2.64493e-22
1.11198e-21
1.44762e-21
2.63048e-22
2.84225e-22
-4.54414e-23
7.24796e-23
7.95724e-22
-6.03539e-22
-2.20075e-21
-1.5773e-21
-1.15504e-21
-8.39296e-22
-6.57532e-23
1.12655e-22
6.88586e-23
-4.48843e-22
-1.47881e-21
-1.26527e-21
-1.72021e-21
-3.36928e-22
-4.89154e-22
8.61996e-23
1.26046e-21
9.23861e-22
3.9832e-22
-2.35699e-22
-9.31283e-23
1.21707e-22
9.93225e-24
5.92794e-22
6.96942e-22
2.3039e-22
1.74053e-23
1.24649e-22
4.29561e-22
8.82602e-22
1.46319e-22
-4.54986e-22
2.12823e-22
3.22724e-22
-1.01042e-22
-1.7444e-22
1.01968e-21
2.39928e-22
-3.99884e-22
8.18543e-22
4.68879e-22
4.67019e-22
7.74388e-23
-3.78792e-22
-2.62398e-22
-3.49015e-22
-4.67904e-22
-4.46743e-22
4.38587e-22
3.95594e-22
1.65412e-22
5.54137e-22
2.97519e-22
1.3643e-23
2.94548e-23
2.95921e-22
-3.91106e-22
-2.36362e-22
-4.53701e-23
-1.00253e-23
3.02696e-23
7.0322e-25
-4.31025e-24
-8.60594e-23
-3.45877e-22
7.97406e-23
6.26284e-23
4.31139e-23
1.12361e-22
-6.65994e-23
6.46876e-22
1.36276e-22
-7.1003e-23
-1.08924e-21
-1.60282e-22
)
;

boundaryField
{
    sides
    {
        type            calculated;
        value           nonuniform List<scalar> 2(-1.60282e-22 -2.68636e-21);
    }
    empty
    {
        type            empty;
    }
}


// ************************************************************************* //
