/*--------------------------------*- C++ -*----------------------------------*\
  =========                 |
  \\      /  F ield         | OpenFOAM: The Open Source CFD Toolbox
   \\    /   O peration     | Website:  https://openfoam.org
    \\  /    A nd           | Version:  9
     \\/     M anipulation  |
\*---------------------------------------------------------------------------*/
FoamFile
{
    format      ascii;
    class       surfaceScalarField;
    location    "0.004";
    object      ddtCorrDdt0(phi);
}
// * * * * * * * * * * * * * * * * * * * * * * * * * * * * * * * * * * * * * //

dimensions      [1 0 -2 0 0 0 0];

internalField   nonuniform List<scalar> 
999
(
-4.29721e-08
-4.41473e-08
-2.65225e-08
-4.60595e-08
-9.46091e-08
-2.05044e-08
-2.77201e-09
3.62535e-08
4.17294e-08
4.83223e-08
-2.20093e-08
-1.18065e-08
3.63085e-08
5.87031e-08
-7.99218e-09
-1.70353e-08
9.24022e-09
6.67636e-09
1.85948e-08
2.35448e-08
-3.02932e-09
-2.36056e-08
2.0191e-08
-5.19832e-10
6.17718e-09
-6.17866e-08
-8.29752e-08
-6.54711e-08
-8.50729e-08
-2.72316e-09
2.07599e-08
2.22156e-10
-2.51e-08
1.09015e-08
5.13959e-08
7.40809e-08
3.7466e-08
8.08531e-08
5.10977e-08
1.9113e-08
-1.55407e-09
-4.42814e-08
-4.33014e-08
2.20731e-08
-3.92123e-08
-1.43174e-08
-3.82633e-08
-3.21166e-08
1.62225e-08
-1.08888e-08
1.11157e-08
4.5248e-08
3.60855e-08
1.72496e-08
3.23671e-08
-5.38189e-08
-4.209e-09
-1.14318e-07
-4.36285e-08
-5.10834e-08
1.79795e-08
-3.54278e-08
9.85888e-09
4.8124e-08
-2.35078e-09
3.82351e-08
3.21191e-08
6.86445e-08
1.52433e-08
5.94737e-08
1.51538e-08
-4.64495e-09
-3.83817e-08
-2.21101e-08
-4.52946e-08
-7.37208e-08
-3.11823e-08
2.29586e-08
1.09054e-08
5.18168e-08
9.60364e-08
8.13308e-08
3.17104e-09
-1.05401e-08
-5.38533e-08
-5.34523e-09
-2.1315e-08
-8.23271e-09
9.50487e-09
4.24485e-09
2.94655e-08
2.03685e-09
1.17763e-08
-1.35244e-08
3.1687e-08
6.62763e-08
8.59123e-08
7.58751e-08
-1.45363e-08
1.46916e-08
-2.00309e-09
4.34246e-08
-4.75947e-08
-6.17209e-08
-2.74317e-08
-1.0145e-07
-2.55153e-08
-1.99084e-09
-3.60454e-09
1.78384e-08
-4.9492e-08
-1.08011e-08
-3.12733e-10
-4.80112e-08
-2.22176e-08
-7.49189e-09
1.51755e-08
-1.881e-08
-9.34974e-09
4.14506e-08
4.77608e-08
1.03071e-07
2.33335e-08
-2.1037e-08
1.19014e-08
4.599e-09
-6.9443e-09
-2.28185e-08
-5.32987e-08
4.20156e-08
4.15225e-09
6.15807e-08
6.47404e-08
1.08727e-07
3.14984e-08
3.48848e-08
-1.55164e-08
-1.33053e-08
-1.00758e-07
-5.51074e-08
-8.54332e-08
-1.58574e-08
-3.54888e-08
-5.09187e-08
-6.30071e-09
2.92422e-08
1.88655e-08
9.6015e-08
1.20244e-07
7.61207e-08
-3.6461e-08
1.17659e-09
-2.81159e-08
-2.9468e-08
-2.46995e-08
-3.08553e-08
-1.87543e-08
-3.206e-08
-2.24572e-08
1.013e-08
2.06915e-08
2.98577e-08
9.48027e-09
-7.49656e-09
2.28267e-08
2.75823e-08
2.13498e-08
-6.12341e-09
3.90759e-08
2.38151e-08
-6.28806e-09
-3.68921e-08
-2.02376e-08
1.25637e-08
3.78267e-08
3.71964e-08
4.8773e-08
1.67866e-08
-5.02373e-09
-2.38788e-08
-1.03899e-07
-1.7039e-08
-4.93455e-08
3.38842e-08
-1.24002e-09
-6.19926e-09
3.3705e-09
4.01683e-08
4.08732e-08
3.62008e-08
6.66058e-08
-2.25035e-08
2.62917e-08
-5.62416e-08
-4.79348e-08
-1.74979e-08
2.76242e-09
6.26459e-09
-9.89381e-09
1.33041e-08
2.27688e-10
5.0415e-09
-8.61871e-08
-4.45759e-08
-6.31418e-09
2.75499e-08
1.45248e-09
-9.10325e-10
-4.10717e-08
4.2768e-08
2.12189e-08
7.68555e-08
8.28434e-08
1.26149e-07
8.61051e-08
5.42423e-08
3.5287e-08
2.54697e-08
-4.51258e-08
-5.10742e-08
-5.44586e-08
-1.39607e-07
-7.91243e-08
-8.38108e-08
1.66934e-09
-1.29664e-08
6.00034e-08
6.58378e-08
5.20048e-08
3.93127e-08
6.91615e-08
1.14106e-08
-1.10777e-08
-4.34127e-08
-5.66443e-08
-3.38658e-08
-1.23748e-07
-7.29076e-08
-4.98483e-08
4.68204e-08
2.56937e-08
1.32449e-07
3.67334e-08
7.38735e-08
1.53659e-08
-4.00249e-09
-2.7071e-08
-2.95302e-08
-1.06278e-08
-6.97556e-08
-5.02646e-08
-2.20229e-08
1.65406e-08
2.12794e-08
-2.28664e-09
-2.43165e-09
1.99864e-08
4.85069e-11
2.936e-08
5.55317e-08
6.11857e-08
5.24556e-09
1.07188e-08
1.63237e-08
-2.58696e-08
8.03445e-09
-7.27352e-08
1.0132e-08
5.08527e-08
4.78865e-08
4.19816e-08
6.1862e-08
-4.33614e-08
-1.27922e-09
-3.92441e-08
-9.44449e-08
-1.30861e-07
-5.54945e-08
-5.21946e-08
-4.11966e-08
1.89426e-08
7.09529e-08
8.6397e-08
3.06739e-08
8.57761e-08
6.38408e-08
2.03973e-08
-4.81849e-08
-1.05193e-07
-3.20657e-08
5.93485e-09
1.21337e-09
3.35097e-08
1.01394e-08
2.06805e-08
-1.28031e-08
2.03739e-09
-7.2103e-08
-5.51565e-08
-2.02397e-08
-9.41448e-08
-2.69676e-08
4.00856e-08
2.41375e-07
4.70216e-07
1.29543e-06
3.19868e-06
7.66898e-06
1.81939e-05
4.25292e-05
9.87461e-05
0.00022708
0.000516953
0.0011646
0.00259611
0.00572552
0.012489
0.0269391
0.0574471
0.121081
0.252171
0.518796
1.05403
2.1141
4.18467
8.17148
15.7351
29.8662
55.8503
102.845
186.381
332.212
581.995
1001.33
1690.53
2797.89
4534.61
7188.47
11131.5
16814
24736.8
35390.7
49163.4
66218.9
86374.6
109016
133092
157217
179871
199643
215425
226731
233894
237706
239053
238704
237233
235040
232385
229440
226314
223078
219778
216447
213103
209760
206425
203105
199802
196517
193252
190005
186779
183571
180381
177211
174058
170924
167809
164712
161635
158577
155539
152523
149529
146558
143610
140688
137791
134921
132078
129263
126478
123723
120998
118305
115644
113016
110420
107858
105330
102836
100376
97950.5
95560.1
93204.5
90883.9
88598.3
86347.7
84132.2
81951.6
79806
77695.1
75619
73577.5
71570.4
69597.6
67658.9
65754.2
63883.1
62045.8
60241
58471.4
56729.3
55032.3
53340.5
51735.6
50061.4
48586.8
46898.9
45537.5
43953.2
42428.6
41398
39218.8
38757.2
36852.8
35412.1
35182.2
32377.9
32252
31339
28448
29163
27904.9
24901.8
25971.7
25095.6
21595.1
22413.2
22851.8
19061.3
18411.9
20472.1
17915
14719.7
16608.6
17400.1
13377.5
11764.6
14617
14339.7
9953.84
9071.53
12285.6
12020.3
7515.24
6197.31
9572.41
10517
6354.28
3458.65
6048.82
9028.65
6667.45
2068.9
1963.33
5964.59
7349.13
3451.16
-444.753
928.133
5167.56
5926.38
1824.93
-2012.63
-786.51
3882.01
5718.75
1714.37
-3343.43
-2765.71
2540.91
5354.56
2403.6
-2407.48
-3983.78
-887.353
3864.53
4785.92
452.138
-4529.62
-3883.66
1077.42
3635.32
5408.6
-809.255
-4902.4
-2417.17
199.239
1509.22
2512.36
2911.77
-1090.96
-1143.14
-910.753
-1527.02
1320.83
681.678
1523.47
-940.856
-1815.02
-241.319
1511.21
4025.77
-4419.5
3242
169.241
-2890.85
845.136
5527.98
1513.8
-8099.64
-581.836
5927.41
1331.69
-3527.89
317.446
3929.92
-1406.86
-1901.47
2513.4
3991.34
-1318.99
-3449.96
1153.57
5781.37
428.979
-2754.92
-214.341
5461.77
2316.36
-5154.65
-954.933
1611.11
1525.87
-3144.93
-709.034
5229.05
2408.55
-2243.01
-252.952
1146.42
3200.46
-2705.76
553.036
2329.64
-632.415
-394.318
537.483
4204.6
1022.19
0.666504
2117.68
894.669
406.514
915.189
1636.05
1508.25
1405.07
-340.871
3037.46
2245
-173.869
855.414
1357.15
2059.47
3316.85
1785.02
3103.67
4476.38
-586.503
1112.77
2367.41
2433.82
2659.38
3179.72
11348.6
9124.22
4160.63
6706.1
5920.36
3953.36
748.374
3964.87
2994.02
709.583
2707.48
7811.51
52233.5
87342.8
553305
890643
812710
670488
550782
438584
339263
255191
183194
133752
100601
71911.2
47082.8
24892.6
16827.7
14785.2
15991.4
9618.37
-5445.25
-3768.9
2264.52
2546.59
1372.18
-212.83
-2003.22
-713.428
261.822
-695.036
-1318.94
-701.342
-270.637
-487.278
-220.632
-47.9734
-138.683
-177.054
-408.894
531.643
228.06
-68.2047
-314.63
-427.584
519.837
214.419
-334.098
-851.991
690.679
185.762
-476.492
-431.203
735.593
21.4152
-152.83
247.208
154.038
-6.10289
49.7897
266.508
652.453
167.054
-787.006
80.2155
942.612
340.42
-650.775
-83.1515
878.923
224.38
-750.278
435.909
-1170.59
-554.33
634.598
2379.21
-281.766
-203.067
3818.87
-1137.57
2434.86
845.404
-10497.4
10663
-354.387
-5910.01
18574.1
-4417.15
8129.78
9694.02
-5032.8
25516.7
14919
-81168.2
142177
-52932
-7972.56
150667
-77869.6
71010.9
221517
-372596
770125
-16066.5
-615275
2.667e+06
-4.63229e+06
1.00519e+07
6.72414e+06
1.98196e+06
343339
46390.7
6157.72
820.978
109.577
14.616
1.94778
0.259402
0.0345393
0.00459942
0.000612634
8.1637e-05
1.08897e-05
1.44972e-06
1.85949e-07
6.82309e-09
-3.58614e-09
-3.1979e-09
2.55159e-09
5.94887e-09
6.74092e-09
-1.98081e-09
-2.65267e-09
-4.71699e-09
-6.92132e-10
-2.34754e-09
-2.56559e-09
6.47573e-09
4.00415e-09
-5.76396e-10
1.10462e-09
-2.14818e-10
3.12196e-09
-2.11516e-09
6.12373e-10
2.51027e-09
9.20326e-09
4.32925e-09
2.41669e-09
-1.07452e-09
-2.88874e-09
-2.60257e-09
-3.73877e-09
-6.05412e-10
2.07524e-09
2.44599e-09
2.6781e-09
-8.00999e-10
2.3052e-09
-6.79639e-09
8.14822e-10
-2.85765e-09
1.42413e-09
6.97526e-10
3.51674e-09
-4.04104e-09
-6.20888e-09
-2.3135e-09
5.02084e-09
5.61799e-09
4.45898e-09
3.24374e-09
3.96697e-10
-3.41648e-09
2.22158e-10
-5.1263e-09
-1.75795e-09
-2.55162e-10
-7.18214e-10
-5.81174e-10
2.51976e-09
5.09985e-09
4.95861e-09
-6.58049e-10
-6.86397e-09
-4.44537e-09
-3.8874e-10
3.587e-09
2.29421e-09
7.50504e-10
-3.41207e-11
-1.31682e-09
2.31876e-09
3.68831e-09
-2.88463e-09
1.72759e-09
-6.33629e-09
-2.79323e-09
-5.67221e-09
-4.64729e-09
-1.76529e-09
-7.76402e-10
-4.03276e-10
6.39609e-09
3.9782e-09
-4.821e-09
4.40082e-09
-9.44374e-10
-2.50311e-09
3.74798e-11
1.72047e-09
5.94256e-09
5.4608e-09
-5.19998e-09
-3.61715e-09
-6.23246e-09
-3.00516e-09
4.99155e-09
2.47693e-09
2.65957e-09
4.20428e-09
6.09338e-10
2.1332e-09
-5.67212e-10
-3.20517e-09
3.70265e-10
-8.72583e-10
7.4868e-10
9.52817e-11
2.36735e-09
1.40779e-09
-1.87857e-09
-6.32912e-09
-3.89713e-10
-2.08417e-09
6.63201e-09
7.90481e-10
1.5472e-09
-9.92692e-10
-1.19363e-10
1.40377e-10
-1.80768e-10
7.16985e-11
-3.84592e-09
-1.9915e-09
8.84336e-10
-1.06971e-09
3.14946e-09
2.39791e-09
3.15408e-09
2.37324e-09
2.8277e-09
5.10667e-09
-1.22909e-09
1.84506e-09
-2.14505e-09
-1.58952e-09
-3.29268e-09
-8.95528e-10
1.13259e-10
-1.83646e-09
2.99197e-10
-5.72661e-09
-4.99501e-09
-2.59525e-09
1.3032e-09
2.80366e-09
-8.63719e-10
1.85254e-09
-2.10111e-10
-1.56004e-09
-1.23404e-10
8.76278e-09
-1.26123e-09
1.38669e-09
1.03371e-10
-5.75256e-09
3.93833e-09
-3.75341e-09
-4.8979e-09
2.62217e-09
-2.82128e-09
7.26709e-09
4.40074e-09
8.76814e-09
8.79566e-09
-2.89703e-09
-2.6378e-09
-4.3414e-09
-1.01321e-08
-6.74907e-09
-2.15965e-09
5.91501e-10
3.81522e-09
9.79827e-10
-2.65154e-09
1.96766e-09
-1.66568e-09
2.45795e-09
-1.16612e-09
-3.21632e-10
-4.80008e-09
-2.05687e-09
-4.48455e-09
-5.7691e-09
-5.33052e-09
-7.37282e-09
1.51662e-09
-3.53288e-09
1.85694e-09
7.61781e-09
5.81029e-09
2.84362e-09
1.07685e-09
-1.47213e-10
-2.78308e-12
-2.36321e-09
7.45103e-09
6.91529e-09
4.04453e-09
8.26547e-09
4.36248e-09
-2.35346e-09
-1.05587e-08
-6.74176e-09
-1.15303e-08
-5.67786e-09
-6.30369e-09
-5.83339e-09
-9.23545e-10
-5.05106e-09
8.48676e-09
7.0089e-09
5.74698e-11
1.24692e-09
-4.83597e-09
-9.26655e-10
-6.05468e-10
2.33149e-09
-4.51534e-09
-3.593e-09
-2.81783e-09
-1.46586e-09
6.35854e-09
6.0783e-09
4.77828e-09
-6.72268e-10
-5.94706e-09
-1.17394e-08
-2.99705e-09
5.45876e-09
4.5853e-09
4.53765e-09
-5.5833e-09
3.73617e-09
9.95741e-10
2.558e-09
3.07549e-09
-2.11557e-09
-7.12525e-10
-2.95056e-09
-2.25749e-09
-1.95827e-09
-1.39439e-09
1.17903e-09
2.65622e-09
-2.05862e-10
4.43699e-09
2.95548e-09
1.00456e-09
-1.3293e-08
1.14683e-09
-2.18874e-09
-1.3139e-09
-9.92697e-10
3.13916e-09
3.01193e-09
-8.43405e-11
2.38036e-10
2.40692e-09
2.88901e-09
-2.94973e-09
-4.3192e-11
2.78982e-09
-8.13859e-10
2.28504e-09
7.60348e-09
4.37196e-09
8.06968e-09
5.11291e-09
)
;

boundaryField
{
    sides
    {
        type            calculated;
        value           nonuniform List<scalar> 2(4.97288e-09 2.5801e-08);
    }
    empty
    {
        type            empty;
        value           nonuniform List<scalar> 0();
    }
}


// ************************************************************************* //
