/*--------------------------------*- C++ -*----------------------------------*\
  =========                 |
  \\      /  F ield         | OpenFOAM: The Open Source CFD Toolbox
   \\    /   O peration     | Website:  https://openfoam.org
    \\  /    A nd           | Version:  9
     \\/     M anipulation  |
\*---------------------------------------------------------------------------*/
FoamFile
{
    format      ascii;
    class       volScalarField;
    location    "0.004";
    object      p_0;
}
// * * * * * * * * * * * * * * * * * * * * * * * * * * * * * * * * * * * * * //

dimensions      [1 -1 -2 0 0 0 0];

internalField   nonuniform List<scalar> 
1000
(
100000
100000
100000
100000
100000
100000
100000
100000
100000
100000
100000
100000
100000
100000
100000
100000
100000
100000
100000
100000
100000
100000
100000
100000
100000
100000
100000
100000
100000
100000
100000
100000
100000
100000
100000
100000
100000
100000
100000
100000
100000
100000
100000
100000
100000
100000
100000
100000
100000
100000
100000
100000
100000
100000
100000
100000
100000
100000
100000
100000
100000
100000
100000
100000
100000
100000
100000
100000
100000
100000
100000
100000
100000
100000
100000
100000
100000
100000
100000
100000
100000
100000
100000
100000
100000
100000
100000
100000
100000
100000
100000
100000
100000
100000
100000
100000
100000
100000
100000
100000
100000
100000
100000
100000
100000
100000
100000
100000
100000
100000
100000
100000
100000
100000
100000
100000
100000
100000
100000
100000
100000
100000
100000
100000
100000
100000
100000
100000
100000
100000
100000
100000
100000
100000
100000
100000
100000
100000
100000
100000
100000
100000
100000
100000
100000
100000
100000
100000
100000
100000
100000
100000
100000
100000
100000
100000
100000
100000
100000
100000
100000
100000
100000
100000
100000
100000
100000
100000
100000
100000
100000
100000
100000
100000
100000
100000
100000
100000
100000
100000
100000
100000
100000
100000
100000
100000
100000
100000
100000
100000
100000
100000
100000
100000
100000
100000
100000
100000
100000
100000
100000
100000
100000
100000
100000
100000
100000
100000
100000
100000
100000
100000
100000
100000
100000
100000
100000
100000
100000
100000
100000
100000
100000
100000
100000
100000
100000
100000
100000
100000
100000
100000
100000
100000
100000
100000
100000
100000
100000
100000
100000
100000
100000
100000
100000
100000
100000
100000
100000
100000
100000
100000
100000
100000
100000
100000
100000
100000
100000
100000
100000
100000
100000
100000
100000
100000
100000
100000
100000
100000
100000
100000
100000
100000
100000
100000
100000
100000
100000
100000
100000
100000
100000
100000
100000
100000
100000
100000
100000
100000
100000
100000
100000
100000
100000
100000
100000
100000
100000
100000
100000
100000
100000
100000
100000
100000
100000
100000
100000
100000
100000
100000
100000
100000
100000
100000
100000
100000
100000
100000
100000
100000
100000
100000
100000
100000
100000
99999.9
99999.8
99999.7
99999.5
99999
99998.2
99996.8
99994.3
99990.2
99983.3
99972.2
99954.4
99926.9
99885.3
99823.9
99735.9
99613.3
99447.7
99231
98956.5
98619.9
98220.3
97760.4
97246.6
96687.9
96094.8
95477.1
94842.9
94198.4
93547.7
92893.9
92238.9
91583.8
90929.5
90276.6
89625.5
88976.3
88329.3
87684.5
87042.1
86402.1
85764.6
85129.6
84497.2
83867.4
83240.1
82615.6
81993.7
81374.6
80758.3
80144.9
79534.3
78926.6
78321.9
77720.3
77121.7
76526.2
75933.8
75344.6
74758.7
74176
73596.6
73020.6
72447.8
71878.5
71312.5
70750
70190.9
69635.3
69083.1
68534.4
67989.1
67447.4
66909.1
66374.4
65843.1
65315.4
64791.1
64270.3
63753.1
63239.3
62729
62222.2
61718.8
61218.9
60722.5
60229.5
59739.9
59253.8
58771.1
58291.8
57815.9
57343.4
56874.3
56408.5
55946.1
55487.1
55031.4
54579
54129.9
53684.1
53241.7
52802.5
52366.6
51933.9
51504.6
51078.3
50655.4
50236
49819.4
49406.2
48996.1
48589.2
48185.5
47785
47387.7
46993.5
46602.5
46214.6
45829.9
45448.3
45069.9
44694.7
44322.6
43953.7
43588
43225.4
42866
42509.8
42156.9
41807.1
41460.6
41117.4
40777.4
40440.7
40107.3
39777.4
39450.9
39127.7
38808.1
38492.2
38179.7
37870.9
37565.8
37264.7
36967.5
36674.2
36385
36100.1
35819.7
35543.7
35272.3
35005.7
34744.4
34488.2
34237.4
33992.2
33753.1
33520.3
33294
33074.4
32861.9
32657
32460
32271.3
32091
31919.6
31757.5
31605
31462.4
31329.9
31207.6
31095.6
30994.2
30903
30822.3
30751.1
30689.1
30637.8
30591
30557.3
30528.5
30503.7
30486
30472.2
30461.9
30453.2
30450.8
30447.2
30446.4
30447
30446.8
30447.4
30447.6
30448.7
30451.3
30452.5
30453
30452.5
30455.5
30455.2
30456.5
30460
30460.9
30459.8
30460.7
30465.7
30467.3
30465.8
30466.6
30469.4
30470.5
30469.9
30471.3
30473.8
30473.1
30471.5
30472.7
30476.1
30475.7
30473.8
30474.5
30477.1
30477.8
30476.2
30475.9
30478.3
30479.5
30479.1
30478.6
30480.1
30481.4
30479.8
30479.1
30480.4
30481.1
30481
30480.1
30481.7
30481.6
30480.9
30481.5
30482.4
30482.6
30481.5
30481.9
30482.9
30482.3
30482.1
30482.3
30482.3
30482.2
30482
30481.7
30482.4
30481.9
30481.8
30482.3
30482.3
30482.1
30482
30481.7
30482.3
30482.2
30481.5
30482.5
30482.3
30481.6
30481.2
30481.5
30482.7
30481
30480.2
30481.6
30481.4
30480.9
30480.9
30482
30481.2
30480.5
30481
30482.2
30489.6
30488.3
30522.5
30455.8
30445.6
30459.5
30484.2
30486.1
30484.4
30482
30481.7
30483.8
30485.6
30483.7
30480.1
30480.5
30484.2
30486.2
30484.7
30479.7
30476.4
30481.3
30485.1
30483.4
30481.3
30480.4
30480.5
30481.4
30481.3
30480.7
30481
30481.8
30481.9
30481.9
30482
30481.9
30481.8
30481.8
30481.8
30481.9
30481.6
30481.3
30481.3
30481.3
30481.4
30480.9
30480.2
30480.1
30480.3
30479.6
30479
30479.1
30479.1
30478.6
30478.6
30478.7
30478.6
30478.6
30478.6
30478.7
30478.7
30478.4
30478.5
30479.2
30479.2
30479
30479.2
30480.1
30480.1
30479.6
30478.5
30478.5
30477.6
30478.1
30478.4
30478.4
30477.6
30478.4
30478.8
30476.5
30475.5
30471.5
30465
30468.9
30462.3
30464.1
30472.1
30464.1
30470
30464.4
30451.9
30447.9
30422.9
30375.4
30404.5
30309.4
30338.5
30330.1
30252
30301.8
30230.1
29998.6
30155.1
29644.2
29606.3
29658.8
28053
29481.2
22443.3
13121.9
10591.7
10086.8
10011.7
10001.6
10000.2
10000
10000
10000
10000
10000
10000
10000
10000
10000
10000
10000
10000
10000
10000
10000
10000
10000
10000
10000
10000
10000
10000
10000
10000
10000
10000
10000
10000
10000
10000
10000
10000
10000
10000
10000
10000
10000
10000
10000
10000
10000
10000
10000
10000
10000
10000
10000
10000
10000
10000
10000
10000
10000
10000
10000
10000
10000
10000
10000
10000
10000
10000
10000
10000
10000
10000
10000
10000
10000
10000
10000
10000
10000
10000
10000
10000
10000
10000
10000
10000
10000
10000
10000
10000
10000
10000
10000
10000
10000
10000
10000
10000
10000
10000
10000
10000
10000
10000
10000
10000
10000
10000
10000
10000
10000
10000
10000
10000
10000
10000
10000
10000
10000
10000
10000
10000
10000
10000
10000
10000
10000
10000
10000
10000
10000
10000
10000
10000
10000
10000
10000
10000
10000
10000
10000
10000
10000
10000
10000
10000
10000
10000
10000
10000
10000
10000
10000
10000
10000
10000
10000
10000
10000
10000
10000
10000
10000
10000
10000
10000
10000
10000
10000
10000
10000
10000
10000
10000
10000
10000
10000
10000
10000
10000
10000
10000
10000
10000
10000
10000
10000
10000
10000
10000
10000
10000
10000
10000
10000
10000
10000
10000
10000
10000
10000
10000
10000
10000
10000
10000
10000
10000
10000
10000
10000
10000
10000
10000
10000
10000
10000
10000
10000
10000
10000
10000
10000
10000
10000
10000
10000
10000
10000
10000
10000
10000
10000
10000
10000
10000
10000
10000
10000
10000
10000
10000
10000
10000
10000
10000
10000
10000
10000
10000
10000
10000
10000
10000
10000
10000
10000
10000
10000
10000
10000
10000
10000
10000
10000
10000
10000
10000
10000
10000
10000
10000
10000
10000
10000
10000
10000
10000
10000
10000
10000
10000
)
;

boundaryField
{
    sides
    {
        type            zeroGradient;
    }
    empty
    {
        type            empty;
    }
}


// ************************************************************************* //
