/*--------------------------------*- C++ -*----------------------------------*\
  =========                 |
  \\      /  F ield         | OpenFOAM: The Open Source CFD Toolbox
   \\    /   O peration     | Website:  https://openfoam.org
    \\  /    A nd           | Version:  9
     \\/     M anipulation  |
\*---------------------------------------------------------------------------*/
FoamFile
{
    format      ascii;
    class       volVectorField;
    location    "0.019";
    object      ddt0(rho,U);
}
// * * * * * * * * * * * * * * * * * * * * * * * * * * * * * * * * * * * * * //

dimensions      [1 -2 -2 0 0 0 0];

internalField   nonuniform List<vector> 
10000
(
(104.197 0 0)
(91.7911 0 0)
(88.6662 0 0)
(82.2002 0 0)
(75.0781 0 0)
(68.3648 0 0)
(61.8807 0 0)
(55.4075 0 0)
(48.9061 0 0)
(42.407 0 0)
(35.9229 0 0)
(29.4415 0 0)
(22.9509 0 0)
(16.4516 0 0)
(9.95548 0 0)
(3.47066 0 0)
(-3.01589 0 0)
(-9.50892 0 0)
(-16.0015 0 0)
(-22.4927 0 0)
(-28.9848 0 0)
(-35.4768 0 0)
(-41.9677 0 0)
(-48.46 0 0)
(-54.9528 0 0)
(-61.4441 0 0)
(-67.9347 0 0)
(-74.4259 0 0)
(-80.918 0 0)
(-87.4103 0 0)
(-93.9026 0 0)
(-100.395 0 0)
(-106.887 0 0)
(-113.379 0 0)
(-119.871 0 0)
(-126.363 0 0)
(-132.855 0 0)
(-139.347 0 0)
(-145.839 0 0)
(-152.331 0 0)
(-158.823 0 0)
(-165.315 0 0)
(-171.807 0 0)
(-178.299 0 0)
(-184.791 0 0)
(-191.283 0 0)
(-197.775 0 0)
(-204.267 0 0)
(-210.759 0 0)
(-217.251 0 0)
(-223.743 0 0)
(-230.236 0 0)
(-236.728 0 0)
(-243.22 0 0)
(-249.712 0 0)
(-256.204 0 0)
(-262.696 0 0)
(-269.189 0 0)
(-275.681 0 0)
(-282.173 0 0)
(-288.665 0 0)
(-295.157 0 0)
(-301.65 0 0)
(-308.142 0 0)
(-314.634 0 0)
(-321.126 0 0)
(-327.619 0 0)
(-334.111 0 0)
(-340.603 0 0)
(-347.096 0 0)
(-353.588 0 0)
(-360.08 0 0)
(-366.572 0 0)
(-373.065 0 0)
(-379.557 0 0)
(-386.049 0 0)
(-392.542 0 0)
(-399.034 0 0)
(-405.527 0 0)
(-412.019 0 0)
(-418.511 0 0)
(-425.004 0 0)
(-431.496 0 0)
(-437.988 0 0)
(-444.481 0 0)
(-450.973 0 0)
(-457.466 0 0)
(-463.958 0 0)
(-470.45 0 0)
(-476.943 0 0)
(-483.435 0 0)
(-489.928 0 0)
(-496.42 0 0)
(-502.912 0 0)
(-509.405 0 0)
(-515.897 0 0)
(-522.39 0 0)
(-528.882 0 0)
(-535.375 0 0)
(-541.867 0 0)
(-548.36 0 0)
(-554.852 0 0)
(-561.345 0 0)
(-567.837 0 0)
(-574.329 0 0)
(-580.822 0 0)
(-587.314 0 0)
(-593.807 0 0)
(-600.299 0 0)
(-606.791 0 0)
(-613.284 0 0)
(-619.776 0 0)
(-626.269 0 0)
(-632.761 0 0)
(-639.253 0 0)
(-645.746 0 0)
(-652.238 0 0)
(-658.731 0 0)
(-665.223 0 0)
(-671.715 0 0)
(-678.208 0 0)
(-684.7 0 0)
(-691.193 0 0)
(-697.685 0 0)
(-704.178 0 0)
(-710.67 0 0)
(-717.162 0 0)
(-723.654 0 0)
(-730.147 0 0)
(-736.639 0 0)
(-743.131 0 0)
(-749.623 0 0)
(-756.116 0 0)
(-762.608 0 0)
(-769.1 0 0)
(-775.593 0 0)
(-782.085 0 0)
(-788.577 0 0)
(-795.07 0 0)
(-801.562 0 0)
(-808.054 0 0)
(-814.547 0 0)
(-821.039 0 0)
(-827.531 0 0)
(-834.023 0 0)
(-840.516 0 0)
(-847.008 0 0)
(-853.5 0 0)
(-859.992 0 0)
(-866.485 0 0)
(-872.977 0 0)
(-879.469 0 0)
(-885.961 0 0)
(-892.453 0 0)
(-898.945 0 0)
(-905.437 0 0)
(-911.93 0 0)
(-918.422 0 0)
(-924.914 0 0)
(-931.406 0 0)
(-937.898 0 0)
(-944.39 0 0)
(-950.882 0 0)
(-957.374 0 0)
(-963.866 0 0)
(-970.358 0 0)
(-976.85 0 0)
(-983.342 0 0)
(-989.834 0 0)
(-996.326 0 0)
(-1002.82 0 0)
(-1009.31 0 0)
(-1015.8 0 0)
(-1022.29 0 0)
(-1028.79 0 0)
(-1035.28 0 0)
(-1041.77 0 0)
(-1048.26 0 0)
(-1054.75 0 0)
(-1061.24 0 0)
(-1067.74 0 0)
(-1074.23 0 0)
(-1080.72 0 0)
(-1087.21 0 0)
(-1093.7 0 0)
(-1100.19 0 0)
(-1106.69 0 0)
(-1113.18 0 0)
(-1119.67 0 0)
(-1126.16 0 0)
(-1132.65 0 0)
(-1139.14 0 0)
(-1145.63 0 0)
(-1152.13 0 0)
(-1158.62 0 0)
(-1165.11 0 0)
(-1171.6 0 0)
(-1178.09 0 0)
(-1184.58 0 0)
(-1191.07 0 0)
(-1197.57 0 0)
(-1204.06 0 0)
(-1210.55 0 0)
(-1217.04 0 0)
(-1223.53 0 0)
(-1230.02 0 0)
(-1236.51 0 0)
(-1243 0 0)
(-1249.49 0 0)
(-1255.99 0 0)
(-1262.48 0 0)
(-1268.97 0 0)
(-1275.46 0 0)
(-1281.95 0 0)
(-1288.44 0 0)
(-1294.93 0 0)
(-1301.42 0 0)
(-1307.91 0 0)
(-1314.4 0 0)
(-1320.89 0 0)
(-1327.39 0 0)
(-1333.88 0 0)
(-1340.37 0 0)
(-1346.86 0 0)
(-1353.35 0 0)
(-1359.84 0 0)
(-1366.33 0 0)
(-1372.82 0 0)
(-1379.31 0 0)
(-1385.8 0 0)
(-1392.29 0 0)
(-1398.78 0 0)
(-1405.27 0 0)
(-1411.76 0 0)
(-1418.25 0 0)
(-1424.74 0 0)
(-1431.23 0 0)
(-1437.72 0 0)
(-1444.21 0 0)
(-1450.7 0 0)
(-1457.19 0 0)
(-1463.68 0 0)
(-1470.17 0 0)
(-1476.66 0 0)
(-1483.15 0 0)
(-1489.64 0 0)
(-1496.13 0 0)
(-1502.62 0 0)
(-1509.11 0 0)
(-1515.6 0 0)
(-1522.09 0 0)
(-1528.58 0 0)
(-1535.07 0 0)
(-1541.56 0 0)
(-1548.05 0 0)
(-1554.54 0 0)
(-1561.03 0 0)
(-1567.51 0 0)
(-1574 0 0)
(-1580.49 0 0)
(-1586.98 0 0)
(-1593.47 0 0)
(-1599.96 0 0)
(-1606.45 0 0)
(-1612.94 0 0)
(-1619.43 0 0)
(-1625.91 0 0)
(-1632.4 0 0)
(-1638.89 0 0)
(-1645.38 0 0)
(-1651.87 0 0)
(-1658.36 0 0)
(-1664.85 0 0)
(-1671.33 0 0)
(-1677.82 0 0)
(-1684.31 0 0)
(-1690.8 0 0)
(-1697.29 0 0)
(-1703.78 0 0)
(-1710.26 0 0)
(-1716.75 0 0)
(-1723.24 0 0)
(-1729.73 0 0)
(-1736.22 0 0)
(-1742.7 0 0)
(-1749.19 0 0)
(-1755.68 0 0)
(-1762.17 0 0)
(-1768.65 0 0)
(-1775.14 0 0)
(-1781.63 0 0)
(-1788.12 0 0)
(-1794.6 0 0)
(-1801.09 0 0)
(-1807.58 0 0)
(-1814.06 0 0)
(-1820.55 0 0)
(-1827.04 0 0)
(-1833.52 0 0)
(-1840.01 0 0)
(-1846.5 0 0)
(-1852.98 0 0)
(-1859.47 0 0)
(-1865.96 0 0)
(-1872.44 0 0)
(-1878.93 0 0)
(-1885.42 0 0)
(-1891.9 0 0)
(-1898.39 0 0)
(-1904.88 0 0)
(-1911.36 0 0)
(-1917.85 0 0)
(-1924.33 0 0)
(-1930.82 0 0)
(-1937.3 0 0)
(-1943.79 0 0)
(-1950.28 0 0)
(-1956.76 0 0)
(-1963.25 0 0)
(-1969.73 0 0)
(-1976.22 0 0)
(-1982.7 0 0)
(-1989.19 0 0)
(-1995.67 0 0)
(-2002.16 0 0)
(-2008.64 0 0)
(-2015.13 0 0)
(-2021.61 0 0)
(-2028.1 0 0)
(-2034.58 0 0)
(-2041.07 0 0)
(-2047.55 0 0)
(-2054.04 0 0)
(-2060.52 0 0)
(-2067 0 0)
(-2073.49 0 0)
(-2079.97 0 0)
(-2086.46 0 0)
(-2092.94 0 0)
(-2099.42 0 0)
(-2105.91 0 0)
(-2112.39 0 0)
(-2118.87 0 0)
(-2125.36 0 0)
(-2131.84 0 0)
(-2138.32 0 0)
(-2144.81 0 0)
(-2151.29 0 0)
(-2157.77 0 0)
(-2164.26 0 0)
(-2170.74 0 0)
(-2177.22 0 0)
(-2183.71 0 0)
(-2190.19 0 0)
(-2196.67 0 0)
(-2203.15 0 0)
(-2209.64 0 0)
(-2216.12 0 0)
(-2222.6 0 0)
(-2229.08 0 0)
(-2235.56 0 0)
(-2242.05 0 0)
(-2248.53 0 0)
(-2255.01 0 0)
(-2261.49 0 0)
(-2267.97 0 0)
(-2274.45 0 0)
(-2280.94 0 0)
(-2287.42 0 0)
(-2293.9 0 0)
(-2300.38 0 0)
(-2306.86 0 0)
(-2313.34 0 0)
(-2319.82 0 0)
(-2326.3 0 0)
(-2332.78 0 0)
(-2339.26 0 0)
(-2345.74 0 0)
(-2352.23 0 0)
(-2358.71 0 0)
(-2365.19 0 0)
(-2371.67 0 0)
(-2378.15 0 0)
(-2384.63 0 0)
(-2391.11 0 0)
(-2397.59 0 0)
(-2404.07 0 0)
(-2410.55 0 0)
(-2417.02 0 0)
(-2423.5 0 0)
(-2429.98 0 0)
(-2436.46 0 0)
(-2442.94 0 0)
(-2449.42 0 0)
(-2455.9 0 0)
(-2462.38 0 0)
(-2468.86 0 0)
(-2475.34 0 0)
(-2481.81 0 0)
(-2488.29 0 0)
(-2494.77 0 0)
(-2501.25 0 0)
(-2507.73 0 0)
(-2514.21 0 0)
(-2520.68 0 0)
(-2527.16 0 0)
(-2533.64 0 0)
(-2540.12 0 0)
(-2546.59 0 0)
(-2553.07 0 0)
(-2559.55 0 0)
(-2566.03 0 0)
(-2572.5 0 0)
(-2578.98 0 0)
(-2585.46 0 0)
(-2591.93 0 0)
(-2598.41 0 0)
(-2604.89 0 0)
(-2611.36 0 0)
(-2617.84 0 0)
(-2624.32 0 0)
(-2630.79 0 0)
(-2637.27 0 0)
(-2643.75 0 0)
(-2650.22 0 0)
(-2656.7 0 0)
(-2663.17 0 0)
(-2669.65 0 0)
(-2676.12 0 0)
(-2682.6 0 0)
(-2689.07 0 0)
(-2695.55 0 0)
(-2702.03 0 0)
(-2708.5 0 0)
(-2714.97 0 0)
(-2721.45 0 0)
(-2727.92 0 0)
(-2734.4 0 0)
(-2740.87 0 0)
(-2747.35 0 0)
(-2753.82 0 0)
(-2760.3 0 0)
(-2766.77 0 0)
(-2773.24 0 0)
(-2779.72 0 0)
(-2786.19 0 0)
(-2792.66 0 0)
(-2799.14 0 0)
(-2805.61 0 0)
(-2812.08 0 0)
(-2818.56 0 0)
(-2825.03 0 0)
(-2831.5 0 0)
(-2837.98 0 0)
(-2844.45 0 0)
(-2850.92 0 0)
(-2857.39 0 0)
(-2863.87 0 0)
(-2870.34 0 0)
(-2876.81 0 0)
(-2883.28 0 0)
(-2889.76 0 0)
(-2896.23 0 0)
(-2902.7 0 0)
(-2909.17 0 0)
(-2915.64 0 0)
(-2922.11 0 0)
(-2928.58 0 0)
(-2935.06 0 0)
(-2941.53 0 0)
(-2948 0 0)
(-2954.47 0 0)
(-2960.94 0 0)
(-2967.41 0 0)
(-2973.88 0 0)
(-2980.35 0 0)
(-2986.82 0 0)
(-2993.29 0 0)
(-2999.76 0 0)
(-3006.23 0 0)
(-3012.7 0 0)
(-3019.17 0 0)
(-3025.64 0 0)
(-3032.11 0 0)
(-3038.58 0 0)
(-3045.05 0 0)
(-3051.51 0 0)
(-3057.98 0 0)
(-3064.45 0 0)
(-3070.92 0 0)
(-3077.39 0 0)
(-3083.86 0 0)
(-3090.33 0 0)
(-3096.79 0 0)
(-3103.26 0 0)
(-3109.73 0 0)
(-3116.2 0 0)
(-3122.67 0 0)
(-3129.13 0 0)
(-3135.6 0 0)
(-3142.07 0 0)
(-3148.53 0 0)
(-3155 0 0)
(-3161.47 0 0)
(-3167.93 0 0)
(-3174.4 0 0)
(-3180.87 0 0)
(-3187.33 0 0)
(-3193.8 0 0)
(-3200.27 0 0)
(-3206.73 0 0)
(-3213.2 0 0)
(-3219.66 0 0)
(-3226.13 0 0)
(-3232.59 0 0)
(-3239.06 0 0)
(-3245.52 0 0)
(-3251.99 0 0)
(-3258.45 0 0)
(-3264.92 0 0)
(-3271.38 0 0)
(-3277.85 0 0)
(-3284.31 0 0)
(-3290.78 0 0)
(-3297.24 0 0)
(-3303.71 0 0)
(-3310.17 0 0)
(-3316.63 0 0)
(-3323.1 0 0)
(-3329.56 0 0)
(-3336.02 0 0)
(-3342.49 0 0)
(-3348.95 0 0)
(-3355.41 0 0)
(-3361.87 0 0)
(-3368.34 0 0)
(-3374.8 0 0)
(-3381.26 0 0)
(-3387.72 0 0)
(-3394.19 0 0)
(-3400.65 0 0)
(-3407.11 0 0)
(-3413.57 0 0)
(-3420.03 0 0)
(-3426.49 0 0)
(-3432.96 0 0)
(-3439.42 0 0)
(-3445.88 0 0)
(-3452.34 0 0)
(-3458.8 0 0)
(-3465.26 0 0)
(-3471.72 0 0)
(-3478.18 0 0)
(-3484.64 0 0)
(-3491.1 0 0)
(-3497.56 0 0)
(-3504.02 0 0)
(-3510.48 0 0)
(-3516.94 0 0)
(-3523.4 0 0)
(-3529.86 0 0)
(-3536.32 0 0)
(-3542.77 0 0)
(-3549.23 0 0)
(-3555.69 0 0)
(-3562.15 0 0)
(-3568.61 0 0)
(-3575.07 0 0)
(-3581.52 0 0)
(-3587.98 0 0)
(-3594.44 0 0)
(-3600.9 0 0)
(-3607.36 0 0)
(-3613.81 0 0)
(-3620.27 0 0)
(-3626.73 0 0)
(-3633.18 0 0)
(-3639.64 0 0)
(-3646.1 0 0)
(-3652.55 0 0)
(-3659.01 0 0)
(-3665.46 0 0)
(-3671.92 0 0)
(-3678.38 0 0)
(-3684.83 0 0)
(-3691.29 0 0)
(-3697.74 0 0)
(-3704.2 0 0)
(-3710.65 0 0)
(-3717.11 0 0)
(-3723.56 0 0)
(-3730.02 0 0)
(-3736.47 0 0)
(-3742.93 0 0)
(-3749.38 0 0)
(-3755.83 0 0)
(-3762.29 0 0)
(-3768.74 0 0)
(-3775.19 0 0)
(-3781.65 0 0)
(-3788.1 0 0)
(-3794.55 0 0)
(-3801.01 0 0)
(-3807.46 0 0)
(-3813.91 0 0)
(-3820.36 0 0)
(-3826.82 0 0)
(-3833.27 0 0)
(-3839.72 0 0)
(-3846.17 0 0)
(-3852.62 0 0)
(-3859.08 0 0)
(-3865.53 0 0)
(-3871.98 0 0)
(-3878.43 0 0)
(-3884.88 0 0)
(-3891.33 0 0)
(-3897.78 0 0)
(-3904.23 0 0)
(-3910.68 0 0)
(-3917.13 0 0)
(-3923.58 0 0)
(-3930.03 0 0)
(-3936.48 0 0)
(-3942.93 0 0)
(-3949.38 0 0)
(-3955.83 0 0)
(-3962.28 0 0)
(-3968.73 0 0)
(-3975.17 0 0)
(-3981.62 0 0)
(-3988.07 0 0)
(-3994.52 0 0)
(-4000.97 0 0)
(-4007.42 0 0)
(-4013.86 0 0)
(-4020.31 0 0)
(-4026.76 0 0)
(-4033.2 0 0)
(-4039.65 0 0)
(-4046.1 0 0)
(-4052.54 0 0)
(-4058.99 0 0)
(-4065.44 0 0)
(-4071.88 0 0)
(-4078.33 0 0)
(-4084.78 0 0)
(-4091.22 0 0)
(-4097.67 0 0)
(-4104.11 0 0)
(-4110.56 0 0)
(-4117 0 0)
(-4123.45 0 0)
(-4129.89 0 0)
(-4136.34 0 0)
(-4142.78 0 0)
(-4149.22 0 0)
(-4155.67 0 0)
(-4162.11 0 0)
(-4168.56 0 0)
(-4175 0 0)
(-4181.44 0 0)
(-4187.89 0 0)
(-4194.33 0 0)
(-4200.77 0 0)
(-4207.21 0 0)
(-4213.66 0 0)
(-4220.1 0 0)
(-4226.54 0 0)
(-4232.98 0 0)
(-4239.42 0 0)
(-4245.87 0 0)
(-4252.31 0 0)
(-4258.75 0 0)
(-4265.19 0 0)
(-4271.63 0 0)
(-4278.07 0 0)
(-4284.51 0 0)
(-4290.95 0 0)
(-4297.39 0 0)
(-4303.83 0 0)
(-4310.27 0 0)
(-4316.71 0 0)
(-4323.15 0 0)
(-4329.59 0 0)
(-4336.03 0 0)
(-4342.47 0 0)
(-4348.91 0 0)
(-4355.35 0 0)
(-4361.78 0 0)
(-4368.22 0 0)
(-4374.66 0 0)
(-4381.1 0 0)
(-4387.54 0 0)
(-4393.97 0 0)
(-4400.41 0 0)
(-4406.85 0 0)
(-4413.28 0 0)
(-4419.72 0 0)
(-4426.16 0 0)
(-4432.59 0 0)
(-4439.03 0 0)
(-4445.47 0 0)
(-4451.9 0 0)
(-4458.34 0 0)
(-4464.77 0 0)
(-4471.21 0 0)
(-4477.64 0 0)
(-4484.08 0 0)
(-4490.51 0 0)
(-4496.95 0 0)
(-4503.38 0 0)
(-4509.82 0 0)
(-4516.25 0 0)
(-4522.69 0 0)
(-4529.12 0 0)
(-4535.55 0 0)
(-4541.99 0 0)
(-4548.42 0 0)
(-4554.85 0 0)
(-4561.28 0 0)
(-4567.72 0 0)
(-4574.15 0 0)
(-4580.58 0 0)
(-4587.01 0 0)
(-4593.45 0 0)
(-4599.88 0 0)
(-4606.31 0 0)
(-4612.74 0 0)
(-4619.17 0 0)
(-4625.6 0 0)
(-4632.03 0 0)
(-4638.46 0 0)
(-4644.89 0 0)
(-4651.32 0 0)
(-4657.75 0 0)
(-4664.18 0 0)
(-4670.61 0 0)
(-4677.04 0 0)
(-4683.47 0 0)
(-4689.9 0 0)
(-4696.33 0 0)
(-4702.76 0 0)
(-4709.19 0 0)
(-4715.61 0 0)
(-4722.04 0 0)
(-4728.47 0 0)
(-4734.9 0 0)
(-4741.33 0 0)
(-4747.75 0 0)
(-4754.18 0 0)
(-4760.61 0 0)
(-4767.03 0 0)
(-4773.46 0 0)
(-4779.89 0 0)
(-4786.31 0 0)
(-4792.74 0 0)
(-4799.17 0 0)
(-4805.59 0 0)
(-4812.02 0 0)
(-4818.44 0 0)
(-4824.87 0 0)
(-4831.29 0 0)
(-4837.72 0 0)
(-4844.14 0 0)
(-4850.56 0 0)
(-4856.99 0 0)
(-4863.41 0 0)
(-4869.84 0 0)
(-4876.26 0 0)
(-4882.68 0 0)
(-4889.11 0 0)
(-4895.53 0 0)
(-4901.95 0 0)
(-4908.37 0 0)
(-4914.8 0 0)
(-4921.22 0 0)
(-4927.64 0 0)
(-4934.06 0 0)
(-4940.48 0 0)
(-4946.9 0 0)
(-4953.33 0 0)
(-4959.75 0 0)
(-4966.17 0 0)
(-4972.59 0 0)
(-4979.01 0 0)
(-4985.43 0 0)
(-4991.85 0 0)
(-4998.27 0 0)
(-5004.69 0 0)
(-5011.11 0 0)
(-5017.52 0 0)
(-5023.94 0 0)
(-5030.36 0 0)
(-5036.78 0 0)
(-5043.2 0 0)
(-5049.62 0 0)
(-5056.03 0 0)
(-5062.45 0 0)
(-5068.87 0 0)
(-5075.29 0 0)
(-5081.7 0 0)
(-5088.12 0 0)
(-5094.54 0 0)
(-5100.95 0 0)
(-5107.37 0 0)
(-5113.78 0 0)
(-5120.2 0 0)
(-5126.62 0 0)
(-5133.03 0 0)
(-5139.45 0 0)
(-5145.86 0 0)
(-5152.27 0 0)
(-5158.69 0 0)
(-5165.1 0 0)
(-5171.52 0 0)
(-5177.93 0 0)
(-5184.34 0 0)
(-5190.76 0 0)
(-5197.17 0 0)
(-5203.58 0 0)
(-5210 0 0)
(-5216.41 0 0)
(-5222.82 0 0)
(-5229.23 0 0)
(-5235.64 0 0)
(-5242.06 0 0)
(-5248.47 0 0)
(-5254.88 0 0)
(-5261.29 0 0)
(-5267.7 0 0)
(-5274.11 0 0)
(-5280.52 0 0)
(-5286.93 0 0)
(-5293.34 0 0)
(-5299.75 0 0)
(-5306.16 0 0)
(-5312.57 0 0)
(-5318.98 0 0)
(-5325.39 0 0)
(-5331.79 0 0)
(-5338.2 0 0)
(-5344.61 0 0)
(-5351.02 0 0)
(-5357.43 0 0)
(-5363.83 0 0)
(-5370.24 0 0)
(-5376.65 0 0)
(-5383.05 0 0)
(-5389.46 0 0)
(-5395.87 0 0)
(-5402.27 0 0)
(-5408.68 0 0)
(-5415.08 0 0)
(-5421.49 0 0)
(-5427.89 0 0)
(-5434.3 0 0)
(-5440.7 0 0)
(-5447.11 0 0)
(-5453.51 0 0)
(-5459.92 0 0)
(-5466.32 0 0)
(-5472.72 0 0)
(-5479.13 0 0)
(-5485.53 0 0)
(-5491.93 0 0)
(-5498.34 0 0)
(-5504.74 0 0)
(-5511.14 0 0)
(-5517.54 0 0)
(-5523.94 0 0)
(-5530.35 0 0)
(-5536.75 0 0)
(-5543.15 0 0)
(-5549.55 0 0)
(-5555.95 0 0)
(-5562.35 0 0)
(-5568.75 0 0)
(-5575.15 0 0)
(-5581.55 0 0)
(-5587.95 0 0)
(-5594.35 0 0)
(-5600.75 0 0)
(-5607.14 0 0)
(-5613.54 0 0)
(-5619.94 0 0)
(-5626.34 0 0)
(-5632.74 0 0)
(-5639.13 0 0)
(-5645.53 0 0)
(-5651.93 0 0)
(-5658.32 0 0)
(-5664.72 0 0)
(-5671.12 0 0)
(-5677.51 0 0)
(-5683.91 0 0)
(-5690.3 0 0)
(-5696.7 0 0)
(-5703.1 0 0)
(-5709.49 0 0)
(-5715.88 0 0)
(-5722.28 0 0)
(-5728.67 0 0)
(-5735.07 0 0)
(-5741.46 0 0)
(-5747.85 0 0)
(-5754.25 0 0)
(-5760.64 0 0)
(-5767.03 0 0)
(-5773.42 0 0)
(-5779.82 0 0)
(-5786.21 0 0)
(-5792.6 0 0)
(-5798.99 0 0)
(-5805.38 0 0)
(-5811.77 0 0)
(-5818.16 0 0)
(-5824.55 0 0)
(-5830.94 0 0)
(-5837.33 0 0)
(-5843.72 0 0)
(-5850.11 0 0)
(-5856.5 0 0)
(-5862.89 0 0)
(-5869.28 0 0)
(-5875.67 0 0)
(-5882.06 0 0)
(-5888.45 0 0)
(-5894.83 0 0)
(-5901.22 0 0)
(-5907.61 0 0)
(-5913.99 0 0)
(-5920.38 0 0)
(-5926.77 0 0)
(-5933.15 0 0)
(-5939.54 0 0)
(-5945.92 0 0)
(-5952.31 0 0)
(-5958.7 0 0)
(-5965.08 0 0)
(-5971.46 0 0)
(-5977.85 0 0)
(-5984.23 0 0)
(-5990.62 0 0)
(-5997 0 0)
(-6003.38 0 0)
(-6009.77 0 0)
(-6016.15 0 0)
(-6022.53 0 0)
(-6028.91 0 0)
(-6035.3 0 0)
(-6041.68 0 0)
(-6048.06 0 0)
(-6054.44 0 0)
(-6060.82 0 0)
(-6067.2 0 0)
(-6073.58 0 0)
(-6079.96 0 0)
(-6086.34 0 0)
(-6092.72 0 0)
(-6099.1 0 0)
(-6105.48 0 0)
(-6111.86 0 0)
(-6118.24 0 0)
(-6124.62 0 0)
(-6131 0 0)
(-6137.37 0 0)
(-6143.75 0 0)
(-6150.13 0 0)
(-6156.5 0 0)
(-6162.88 0 0)
(-6169.26 0 0)
(-6175.63 0 0)
(-6182.01 0 0)
(-6188.39 0 0)
(-6194.76 0 0)
(-6201.14 0 0)
(-6207.51 0 0)
(-6213.89 0 0)
(-6220.26 0 0)
(-6226.63 0 0)
(-6233.01 0 0)
(-6239.38 0 0)
(-6245.75 0 0)
(-6252.13 0 0)
(-6258.5 0 0)
(-6264.87 0 0)
(-6271.24 0 0)
(-6277.62 0 0)
(-6283.99 0 0)
(-6290.36 0 0)
(-6296.73 0 0)
(-6303.1 0 0)
(-6309.47 0 0)
(-6315.84 0 0)
(-6322.21 0 0)
(-6328.58 0 0)
(-6334.95 0 0)
(-6341.32 0 0)
(-6347.69 0 0)
(-6354.06 0 0)
(-6360.43 0 0)
(-6366.79 0 0)
(-6373.16 0 0)
(-6379.53 0 0)
(-6385.9 0 0)
(-6392.26 0 0)
(-6398.63 0 0)
(-6405 0 0)
(-6411.36 0 0)
(-6417.73 0 0)
(-6424.09 0 0)
(-6430.46 0 0)
(-6436.82 0 0)
(-6443.19 0 0)
(-6449.55 0 0)
(-6455.92 0 0)
(-6462.28 0 0)
(-6468.64 0 0)
(-6475.01 0 0)
(-6481.37 0 0)
(-6487.73 0 0)
(-6494.09 0 0)
(-6500.46 0 0)
(-6506.82 0 0)
(-6513.18 0 0)
(-6519.54 0 0)
(-6525.9 0 0)
(-6532.26 0 0)
(-6538.62 0 0)
(-6544.98 0 0)
(-6551.34 0 0)
(-6557.7 0 0)
(-6564.06 0 0)
(-6570.42 0 0)
(-6576.78 0 0)
(-6583.14 0 0)
(-6589.49 0 0)
(-6595.85 0 0)
(-6602.21 0 0)
(-6608.57 0 0)
(-6614.92 0 0)
(-6621.28 0 0)
(-6627.64 0 0)
(-6633.99 0 0)
(-6640.35 0 0)
(-6646.7 0 0)
(-6653.06 0 0)
(-6659.41 0 0)
(-6665.77 0 0)
(-6672.12 0 0)
(-6678.48 0 0)
(-6684.83 0 0)
(-6691.18 0 0)
(-6697.54 0 0)
(-6703.89 0 0)
(-6710.24 0 0)
(-6716.59 0 0)
(-6722.95 0 0)
(-6729.3 0 0)
(-6735.65 0 0)
(-6742 0 0)
(-6748.35 0 0)
(-6754.7 0 0)
(-6761.05 0 0)
(-6767.4 0 0)
(-6773.75 0 0)
(-6780.1 0 0)
(-6786.45 0 0)
(-6792.8 0 0)
(-6799.14 0 0)
(-6805.49 0 0)
(-6811.84 0 0)
(-6818.19 0 0)
(-6824.53 0 0)
(-6830.88 0 0)
(-6837.23 0 0)
(-6843.57 0 0)
(-6849.92 0 0)
(-6856.26 0 0)
(-6862.61 0 0)
(-6868.95 0 0)
(-6875.3 0 0)
(-6881.64 0 0)
(-6887.99 0 0)
(-6894.33 0 0)
(-6900.67 0 0)
(-6907.02 0 0)
(-6913.36 0 0)
(-6919.7 0 0)
(-6926.05 0 0)
(-6932.39 0 0)
(-6938.73 0 0)
(-6945.07 0 0)
(-6951.41 0 0)
(-6957.75 0 0)
(-6964.09 0 0)
(-6970.43 0 0)
(-6976.77 0 0)
(-6983.11 0 0)
(-6989.45 0 0)
(-6995.79 0 0)
(-7002.13 0 0)
(-7008.46 0 0)
(-7014.8 0 0)
(-7021.14 0 0)
(-7027.48 0 0)
(-7033.81 0 0)
(-7040.15 0 0)
(-7046.49 0 0)
(-7052.82 0 0)
(-7059.16 0 0)
(-7065.49 0 0)
(-7071.83 0 0)
(-7078.16 0 0)
(-7084.5 0 0)
(-7090.83 0 0)
(-7097.16 0 0)
(-7103.5 0 0)
(-7109.83 0 0)
(-7116.16 0 0)
(-7122.5 0 0)
(-7128.83 0 0)
(-7135.16 0 0)
(-7141.49 0 0)
(-7147.82 0 0)
(-7154.15 0 0)
(-7160.48 0 0)
(-7166.81 0 0)
(-7173.14 0 0)
(-7179.47 0 0)
(-7185.8 0 0)
(-7192.13 0 0)
(-7198.46 0 0)
(-7204.79 0 0)
(-7211.12 0 0)
(-7217.44 0 0)
(-7223.77 0 0)
(-7230.1 0 0)
(-7236.42 0 0)
(-7242.75 0 0)
(-7249.08 0 0)
(-7255.4 0 0)
(-7261.73 0 0)
(-7268.05 0 0)
(-7274.38 0 0)
(-7280.7 0 0)
(-7287.03 0 0)
(-7293.35 0 0)
(-7299.67 0 0)
(-7306 0 0)
(-7312.32 0 0)
(-7318.64 0 0)
(-7324.96 0 0)
(-7331.28 0 0)
(-7337.61 0 0)
(-7343.93 0 0)
(-7350.25 0 0)
(-7356.57 0 0)
(-7362.89 0 0)
(-7369.21 0 0)
(-7375.53 0 0)
(-7381.85 0 0)
(-7388.16 0 0)
(-7394.48 0 0)
(-7400.8 0 0)
(-7407.12 0 0)
(-7413.44 0 0)
(-7419.75 0 0)
(-7426.07 0 0)
(-7432.38 0 0)
(-7438.7 0 0)
(-7445.02 0 0)
(-7451.33 0 0)
(-7457.65 0 0)
(-7463.96 0 0)
(-7470.28 0 0)
(-7476.59 0 0)
(-7482.9 0 0)
(-7489.22 0 0)
(-7495.53 0 0)
(-7501.84 0 0)
(-7508.15 0 0)
(-7514.47 0 0)
(-7520.78 0 0)
(-7527.09 0 0)
(-7533.4 0 0)
(-7539.71 0 0)
(-7546.02 0 0)
(-7552.33 0 0)
(-7558.64 0 0)
(-7564.95 0 0)
(-7571.26 0 0)
(-7577.57 0 0)
(-7583.87 0 0)
(-7590.18 0 0)
(-7596.49 0 0)
(-7602.8 0 0)
(-7609.1 0 0)
(-7615.41 0 0)
(-7621.72 0 0)
(-7628.02 0 0)
(-7634.33 0 0)
(-7640.63 0 0)
(-7646.94 0 0)
(-7653.24 0 0)
(-7659.54 0 0)
(-7665.85 0 0)
(-7672.15 0 0)
(-7678.45 0 0)
(-7684.76 0 0)
(-7691.06 0 0)
(-7697.36 0 0)
(-7703.66 0 0)
(-7709.96 0 0)
(-7716.26 0 0)
(-7722.56 0 0)
(-7728.86 0 0)
(-7735.16 0 0)
(-7741.46 0 0)
(-7747.76 0 0)
(-7754.06 0 0)
(-7760.36 0 0)
(-7766.66 0 0)
(-7772.95 0 0)
(-7779.25 0 0)
(-7785.55 0 0)
(-7791.84 0 0)
(-7798.14 0 0)
(-7804.44 0 0)
(-7810.73 0 0)
(-7817.03 0 0)
(-7823.32 0 0)
(-7829.62 0 0)
(-7835.91 0 0)
(-7842.2 0 0)
(-7848.5 0 0)
(-7854.79 0 0)
(-7861.08 0 0)
(-7867.37 0 0)
(-7873.67 0 0)
(-7879.96 0 0)
(-7886.25 0 0)
(-7892.54 0 0)
(-7898.83 0 0)
(-7905.12 0 0)
(-7911.41 0 0)
(-7917.7 0 0)
(-7923.99 0 0)
(-7930.28 0 0)
(-7936.56 0 0)
(-7942.85 0 0)
(-7949.14 0 0)
(-7955.43 0 0)
(-7961.71 0 0)
(-7968 0 0)
(-7974.29 0 0)
(-7980.57 0 0)
(-7986.86 0 0)
(-7993.14 0 0)
(-7999.43 0 0)
(-8005.71 0 0)
(-8011.99 0 0)
(-8018.28 0 0)
(-8024.56 0 0)
(-8030.84 0 0)
(-8037.12 0 0)
(-8043.41 0 0)
(-8049.69 0 0)
(-8055.97 0 0)
(-8062.25 0 0)
(-8068.53 0 0)
(-8074.81 0 0)
(-8081.09 0 0)
(-8087.37 0 0)
(-8093.65 0 0)
(-8099.93 0 0)
(-8106.2 0 0)
(-8112.48 0 0)
(-8118.76 0 0)
(-8125.04 0 0)
(-8131.31 0 0)
(-8137.59 0 0)
(-8143.86 0 0)
(-8150.14 0 0)
(-8156.41 0 0)
(-8162.69 0 0)
(-8168.96 0 0)
(-8175.24 0 0)
(-8181.51 0 0)
(-8187.78 0 0)
(-8194.06 0 0)
(-8200.33 0 0)
(-8206.6 0 0)
(-8212.87 0 0)
(-8219.14 0 0)
(-8225.41 0 0)
(-8231.68 0 0)
(-8237.95 0 0)
(-8244.22 0 0)
(-8250.49 0 0)
(-8256.76 0 0)
(-8263.03 0 0)
(-8269.3 0 0)
(-8275.57 0 0)
(-8281.83 0 0)
(-8288.1 0 0)
(-8294.37 0 0)
(-8300.63 0 0)
(-8306.9 0 0)
(-8313.16 0 0)
(-8319.43 0 0)
(-8325.69 0 0)
(-8331.96 0 0)
(-8338.22 0 0)
(-8344.49 0 0)
(-8350.75 0 0)
(-8357.01 0 0)
(-8363.27 0 0)
(-8369.54 0 0)
(-8375.8 0 0)
(-8382.06 0 0)
(-8388.32 0 0)
(-8394.58 0 0)
(-8400.84 0 0)
(-8407.1 0 0)
(-8413.36 0 0)
(-8419.62 0 0)
(-8425.87 0 0)
(-8432.13 0 0)
(-8438.39 0 0)
(-8444.65 0 0)
(-8450.9 0 0)
(-8457.16 0 0)
(-8463.42 0 0)
(-8469.67 0 0)
(-8475.93 0 0)
(-8482.18 0 0)
(-8488.43 0 0)
(-8494.69 0 0)
(-8500.94 0 0)
(-8507.19 0 0)
(-8513.45 0 0)
(-8519.7 0 0)
(-8525.95 0 0)
(-8532.2 0 0)
(-8538.45 0 0)
(-8544.7 0 0)
(-8550.95 0 0)
(-8557.2 0 0)
(-8563.45 0 0)
(-8569.7 0 0)
(-8575.95 0 0)
(-8582.2 0 0)
(-8588.45 0 0)
(-8594.69 0 0)
(-8600.94 0 0)
(-8607.19 0 0)
(-8613.43 0 0)
(-8619.68 0 0)
(-8625.93 0 0)
(-8632.17 0 0)
(-8638.41 0 0)
(-8644.66 0 0)
(-8650.9 0 0)
(-8657.15 0 0)
(-8663.39 0 0)
(-8669.63 0 0)
(-8675.87 0 0)
(-8682.11 0 0)
(-8688.36 0 0)
(-8694.6 0 0)
(-8700.84 0 0)
(-8707.08 0 0)
(-8713.32 0 0)
(-8719.55 0 0)
(-8725.79 0 0)
(-8732.03 0 0)
(-8738.27 0 0)
(-8744.51 0 0)
(-8750.74 0 0)
(-8756.98 0 0)
(-8763.22 0 0)
(-8769.45 0 0)
(-8775.69 0 0)
(-8781.92 0 0)
(-8788.16 0 0)
(-8794.39 0 0)
(-8800.62 0 0)
(-8806.86 0 0)
(-8813.09 0 0)
(-8819.32 0 0)
(-8825.55 0 0)
(-8831.79 0 0)
(-8838.02 0 0)
(-8844.25 0 0)
(-8850.48 0 0)
(-8856.71 0 0)
(-8862.94 0 0)
(-8869.16 0 0)
(-8875.39 0 0)
(-8881.62 0 0)
(-8887.85 0 0)
(-8894.08 0 0)
(-8900.3 0 0)
(-8906.53 0 0)
(-8912.75 0 0)
(-8918.98 0 0)
(-8925.2 0 0)
(-8931.43 0 0)
(-8937.65 0 0)
(-8943.88 0 0)
(-8950.1 0 0)
(-8956.32 0 0)
(-8962.55 0 0)
(-8968.77 0 0)
(-8974.99 0 0)
(-8981.21 0 0)
(-8987.43 0 0)
(-8993.65 0 0)
(-8999.87 0 0)
(-9006.09 0 0)
(-9012.31 0 0)
(-9018.53 0 0)
(-9024.75 0 0)
(-9030.96 0 0)
(-9037.18 0 0)
(-9043.4 0 0)
(-9049.61 0 0)
(-9055.83 0 0)
(-9062.04 0 0)
(-9068.26 0 0)
(-9074.47 0 0)
(-9080.69 0 0)
(-9086.9 0 0)
(-9093.11 0 0)
(-9099.33 0 0)
(-9105.54 0 0)
(-9111.75 0 0)
(-9117.96 0 0)
(-9124.17 0 0)
(-9130.38 0 0)
(-9136.59 0 0)
(-9142.8 0 0)
(-9149.01 0 0)
(-9155.22 0 0)
(-9161.43 0 0)
(-9167.64 0 0)
(-9173.84 0 0)
(-9180.05 0 0)
(-9186.26 0 0)
(-9192.46 0 0)
(-9198.67 0 0)
(-9204.87 0 0)
(-9211.08 0 0)
(-9217.28 0 0)
(-9223.48 0 0)
(-9229.69 0 0)
(-9235.89 0 0)
(-9242.09 0 0)
(-9248.29 0 0)
(-9254.5 0 0)
(-9260.7 0 0)
(-9266.9 0 0)
(-9273.1 0 0)
(-9279.3 0 0)
(-9285.49 0 0)
(-9291.69 0 0)
(-9297.89 0 0)
(-9304.09 0 0)
(-9310.29 0 0)
(-9316.48 0 0)
(-9322.68 0 0)
(-9328.87 0 0)
(-9335.07 0 0)
(-9341.26 0 0)
(-9347.46 0 0)
(-9353.65 0 0)
(-9359.85 0 0)
(-9366.04 0 0)
(-9372.23 0 0)
(-9378.42 0 0)
(-9384.62 0 0)
(-9390.81 0 0)
(-9397 0 0)
(-9403.19 0 0)
(-9409.38 0 0)
(-9415.57 0 0)
(-9421.75 0 0)
(-9427.94 0 0)
(-9434.13 0 0)
(-9440.32 0 0)
(-9446.5 0 0)
(-9452.69 0 0)
(-9458.88 0 0)
(-9465.06 0 0)
(-9471.25 0 0)
(-9477.43 0 0)
(-9483.62 0 0)
(-9489.8 0 0)
(-9495.98 0 0)
(-9502.16 0 0)
(-9508.35 0 0)
(-9514.53 0 0)
(-9520.71 0 0)
(-9526.89 0 0)
(-9533.07 0 0)
(-9539.25 0 0)
(-9545.43 0 0)
(-9551.61 0 0)
(-9557.79 0 0)
(-9563.96 0 0)
(-9570.14 0 0)
(-9576.32 0 0)
(-9582.49 0 0)
(-9588.67 0 0)
(-9594.84 0 0)
(-9601.02 0 0)
(-9607.19 0 0)
(-9613.37 0 0)
(-9619.54 0 0)
(-9625.71 0 0)
(-9631.89 0 0)
(-9638.06 0 0)
(-9644.23 0 0)
(-9650.4 0 0)
(-9656.57 0 0)
(-9662.74 0 0)
(-9668.91 0 0)
(-9675.08 0 0)
(-9681.25 0 0)
(-9687.41 0 0)
(-9693.58 0 0)
(-9699.75 0 0)
(-9705.91 0 0)
(-9712.08 0 0)
(-9718.25 0 0)
(-9724.41 0 0)
(-9730.58 0 0)
(-9736.74 0 0)
(-9742.9 0 0)
(-9749.07 0 0)
(-9755.23 0 0)
(-9761.39 0 0)
(-9767.55 0 0)
(-9773.71 0 0)
(-9779.87 0 0)
(-9786.03 0 0)
(-9792.19 0 0)
(-9798.35 0 0)
(-9804.51 0 0)
(-9810.67 0 0)
(-9816.82 0 0)
(-9822.98 0 0)
(-9829.14 0 0)
(-9835.29 0 0)
(-9841.45 0 0)
(-9847.6 0 0)
(-9853.76 0 0)
(-9859.91 0 0)
(-9866.06 0 0)
(-9872.22 0 0)
(-9878.37 0 0)
(-9884.52 0 0)
(-9890.67 0 0)
(-9896.82 0 0)
(-9902.97 0 0)
(-9909.12 0 0)
(-9915.27 0 0)
(-9921.42 0 0)
(-9927.57 0 0)
(-9933.71 0 0)
(-9939.86 0 0)
(-9946.01 0 0)
(-9952.15 0 0)
(-9958.3 0 0)
(-9964.44 0 0)
(-9970.59 0 0)
(-9976.73 0 0)
(-9982.88 0 0)
(-9989.02 0 0)
(-9995.16 0 0)
(-10001.3 0 0)
(-10007.4 0 0)
(-10013.6 0 0)
(-10019.7 0 0)
(-10025.9 0 0)
(-10032 0 0)
(-10038.1 0 0)
(-10044.3 0 0)
(-10050.4 0 0)
(-10056.6 0 0)
(-10062.7 0 0)
(-10068.8 0 0)
(-10075 0 0)
(-10081.1 0 0)
(-10087.2 0 0)
(-10093.4 0 0)
(-10099.5 0 0)
(-10105.6 0 0)
(-10111.8 0 0)
(-10117.9 0 0)
(-10124 0 0)
(-10130.2 0 0)
(-10136.3 0 0)
(-10142.4 0 0)
(-10148.5 0 0)
(-10154.7 0 0)
(-10160.8 0 0)
(-10166.9 0 0)
(-10173.1 0 0)
(-10179.2 0 0)
(-10185.3 0 0)
(-10191.4 0 0)
(-10197.6 0 0)
(-10203.7 0 0)
(-10209.8 0 0)
(-10215.9 0 0)
(-10222.1 0 0)
(-10228.2 0 0)
(-10234.3 0 0)
(-10240.4 0 0)
(-10246.5 0 0)
(-10252.7 0 0)
(-10258.8 0 0)
(-10264.9 0 0)
(-10271 0 0)
(-10277.1 0 0)
(-10283.2 0 0)
(-10289.4 0 0)
(-10295.5 0 0)
(-10301.6 0 0)
(-10307.7 0 0)
(-10313.8 0 0)
(-10319.9 0 0)
(-10326 0 0)
(-10332.2 0 0)
(-10338.3 0 0)
(-10344.4 0 0)
(-10350.5 0 0)
(-10356.6 0 0)
(-10362.7 0 0)
(-10368.8 0 0)
(-10374.9 0 0)
(-10381 0 0)
(-10387.1 0 0)
(-10393.3 0 0)
(-10399.4 0 0)
(-10405.5 0 0)
(-10411.6 0 0)
(-10417.7 0 0)
(-10423.8 0 0)
(-10429.9 0 0)
(-10436 0 0)
(-10442.1 0 0)
(-10448.2 0 0)
(-10454.3 0 0)
(-10460.4 0 0)
(-10466.5 0 0)
(-10472.6 0 0)
(-10478.7 0 0)
(-10484.8 0 0)
(-10490.9 0 0)
(-10497 0 0)
(-10503.1 0 0)
(-10509.2 0 0)
(-10515.3 0 0)
(-10521.4 0 0)
(-10527.5 0 0)
(-10533.5 0 0)
(-10539.6 0 0)
(-10545.7 0 0)
(-10551.8 0 0)
(-10557.9 0 0)
(-10564 0 0)
(-10570.1 0 0)
(-10576.2 0 0)
(-10582.3 0 0)
(-10588.4 0 0)
(-10594.4 0 0)
(-10600.5 0 0)
(-10606.6 0 0)
(-10612.7 0 0)
(-10618.8 0 0)
(-10624.9 0 0)
(-10631 0 0)
(-10637 0 0)
(-10643.1 0 0)
(-10649.2 0 0)
(-10655.3 0 0)
(-10661.4 0 0)
(-10667.4 0 0)
(-10673.5 0 0)
(-10679.6 0 0)
(-10685.7 0 0)
(-10691.8 0 0)
(-10697.8 0 0)
(-10703.9 0 0)
(-10710 0 0)
(-10716.1 0 0)
(-10722.1 0 0)
(-10728.2 0 0)
(-10734.3 0 0)
(-10740.4 0 0)
(-10746.4 0 0)
(-10752.5 0 0)
(-10758.6 0 0)
(-10764.6 0 0)
(-10770.7 0 0)
(-10776.8 0 0)
(-10782.8 0 0)
(-10788.9 0 0)
(-10795 0 0)
(-10801 0 0)
(-10807.1 0 0)
(-10813.2 0 0)
(-10819.2 0 0)
(-10825.3 0 0)
(-10831.4 0 0)
(-10837.4 0 0)
(-10843.5 0 0)
(-10849.5 0 0)
(-10855.6 0 0)
(-10861.6 0 0)
(-10867.7 0 0)
(-10873.8 0 0)
(-10879.8 0 0)
(-10885.9 0 0)
(-10891.9 0 0)
(-10898 0 0)
(-10904 0 0)
(-10910.1 0 0)
(-10916.1 0 0)
(-10922.2 0 0)
(-10928.3 0 0)
(-10934.3 0 0)
(-10940.4 0 0)
(-10946.4 0 0)
(-10952.5 0 0)
(-10958.5 0 0)
(-10964.6 0 0)
(-10970.7 0 0)
(-10976.7 0 0)
(-10982.8 0 0)
(-10988.8 0 0)
(-10994.9 0 0)
(-11001 0 0)
(-11007 0 0)
(-11013.1 0 0)
(-11019.1 0 0)
(-11025.2 0 0)
(-11031.2 0 0)
(-11037.3 0 0)
(-11043.2 0 0)
(-11049.4 0 0)
(-11055.3 0 0)
(-11061.5 0 0)
(-11067.3 0 0)
(-11073.7 0 0)
(-11079.2 0 0)
(-11085.9 0 0)
(-11091.2 0 0)
(-11098.1 0 0)
(-11103 0 0)
(-11110.3 0 0)
(-11114.9 0 0)
(-11122.6 0 0)
(-11126.7 0 0)
(-11134.8 0 0)
(-11138.6 0 0)
(-11146.9 0 0)
(-11150.7 0 0)
(-11158.8 0 0)
(-11163.1 0 0)
(-11170.3 0 0)
(-11176 0 0)
(-11181.7 0 0)
(-11187.9 0 0)
(-11194.2 0 0)
(-11200 0 0)
(-11206 0 0)
(-11212.2 0 0)
(-11218 0 0)
(-11223.9 0 0)
(-11230 0 0)
(-11236.2 0 0)
(-11242.2 0 0)
(-11248.2 0 0)
(-11254.2 0 0)
(-11260.3 0 0)
(-11266.2 0 0)
(-11272.2 0 0)
(-11278.1 0 0)
(-11284.3 0 0)
(-11290.3 0 0)
(-11296.5 0 0)
(-11301.9 0 0)
(-11309.1 0 0)
(-11313 0 0)
(-11322.1 0 0)
(-11323.9 0 0)
(-11335.3 0 0)
(-11335 0 0)
(-11348 0 0)
(-11346.8 0 0)
(-11359.6 0 0)
(-11359.9 0 0)
(-11369.8 0 0)
(-11374.3 0 0)
(-11379.3 0 0)
(-11388 0 0)
(-11390.1 0 0)
(-11401.5 0 0)
(-11401 0 0)
(-11413.6 0 0)
(-11413.3 0 0)
(-11424.9 0 0)
(-11426.1 0 0)
(-11436 0 0)
(-11439.3 0 0)
(-11446.7 0 0)
(-11452.9 0 0)
(-11456.9 0 0)
(-11466.8 0 0)
(-11466.7 0 0)
(-11480.7 0 0)
(-11477.4 0 0)
(-11492.8 0 0)
(-11491 0 0)
(-11501.8 0 0)
(-11507 0 0)
(-11509.5 0 0)
(-11522.2 0 0)
(-11519.1 0 0)
(-11535 0 0)
(-11532.2 0 0)
(-11545.2 0 0)
(-11546.3 0 0)
(-11554.8 0 0)
(-11560.5 0 0)
(-11564.2 0 0)
(-11575 0 0)
(-11573.8 0 0)
(-11589.1 0 0)
(-11584.7 0 0)
(-11600.6 0 0)
(-11599.2 0 0)
(-11607.6 0 0)
(-11617.1 0 0)
(-11614.1 0 0)
(-11632.2 0 0)
(-11626.1 0 0)
(-11641.7 0 0)
(-11641.7 0 0)
(-11649.9 0 0)
(-11656.8 0 0)
(-11659 0 0)
(-11671.4 0 0)
(-11668.3 0 0)
(-11685.5 0 0)
(-11679.9 0 0)
(-11694.7 0 0)
(-11697.7 0 0)
(-11699.2 0 0)
(-11716 0 0)
(-11707.8 0 0)
(-11727.4 0 0)
(-11723.4 0 0)
(-11733.8 0 0)
(-11741.2 0 0)
(-11740.7 0 0)
(-11756.6 0 0)
(-11750.9 0 0)
(-11768.3 0 0)
(-11764.9 0 0)
(-11776.3 0 0)
(-11782.2 0 0)
(-11781.9 0 0)
(-11799.8 0 0)
(-11790.8 0 0)
(-11810.5 0 0)
(-11808.1 0 0)
(-11814.6 0 0)
(-11827.2 0 0)
(-11822 0 0)
(-11840.4 0 0)
(-11835 0 0)
(-11849.6 0 0)
(-11850.8 0 0)
(-11856 0 0)
(-11869.5 0 0)
(-11861.6 0 0)
(-11884.2 0 0)
(-11876.3 0 0)
(-11887.9 0 0)
(-11898 0 0)
(-11892.8 0 0)
(-11912 0 0)
(-11905.9 0 0)
(-11921.7 0 0)
(-11920.5 0 0)
(-11928.5 0 0)
(-11940.6 0 0)
(-11931.6 0 0)
(-11956.4 0 0)
(-11947.3 0 0)
(-11958.6 0 0)
(-11969.5 0 0)
(-11963.7 0 0)
(-11983.6 0 0)
(-11976.2 0 0)
(-11993 0 0)
(-11992.9 0 0)
(-11996.8 0 0)
(-12014 0 0)
(-12002.5 0 0)
(-12025.6 0 0)
(-12020.7 0 0)
(-12027.8 0 0)
(-12042.1 0 0)
(-12032.9 0 0)
(-12055.8 0 0)
(-12048 0 0)
(-12060.5 0 0)
(-12068.6 0 0)
(-12064.1 0 0)
(-12086.2 0 0)
(-12074.3 0 0)
(-12093.3 0 0)
(-12096.7 0 0)
(-12093.1 0 0)
(-12116.1 0 0)
(-12104.5 0 0)
(-12122.9 0 0)
(-12123.3 0 0)
(-12126.6 0 0)
(-12144.6 0 0)
(-12130.8 0 0)
(-12156.1 0 0)
(-12152.5 0 0)
(-12154.2 0 0)
(-12173.8 0 0)
(-12163 0 0)
(-12184.7 0 0)
(-12178.5 0 0)
(-12187.8 0 0)
(-12203.4 0 0)
(-12188.7 0 0)
(-12216 0 0)
(-12209.4 0 0)
(-12215.6 0 0)
(-12231.6 0 0)
(-12220.2 0 0)
(-12245.7 0 0)
(-12236.8 0 0)
(-12246.2 0 0)
(-12261.5 0 0)
(-12248.5 0 0)
(-12275.6 0 0)
(-12266.4 0 0)
(-12274.5 0 0)
(-12291.6 0 0)
(-12278.4 0 0)
(-12303.9 0 0)
(-12296.2 0 0)
(-12304.4 0 0)
(-12321 0 0)
(-12306.4 0 0)
(-12333.4 0 0)
(-12327.1 0 0)
(-12331.4 0 0)
(-12351.4 0 0)
(-12337.1 0 0)
(-12361.1 0 0)
(-12357.3 0 0)