/*--------------------------------*- C++ -*----------------------------------*\
  =========                 |
  \\      /  F ield         | OpenFOAM: The Open Source CFD Toolbox
   \\    /   O peration     | Website:  https://openfoam.org
    \\  /    A nd           | Version:  9
     \\/     M anipulation  |
\*---------------------------------------------------------------------------*/
FoamFile
{
    format      ascii;
    class       volScalarField;
    location    "0.019";
    object      ddt0(p);
}
// * * * * * * * * * * * * * * * * * * * * * * * * * * * * * * * * * * * * * //

dimensions      [1 -1 -3 0 0 0 0];

internalField   nonuniform List<scalar> 
10000
(
-5.02174e+06
-5.0217e+06
-5.0217e+06
-5.02168e+06
-5.02166e+06
-5.02165e+06
-5.02163e+06
-5.02161e+06
-5.0216e+06
-5.02158e+06
-5.02156e+06
-5.02155e+06
-5.02153e+06
-5.02151e+06
-5.02149e+06
-5.02148e+06
-5.02146e+06
-5.02144e+06
-5.02142e+06
-5.0214e+06
-5.02139e+06
-5.02137e+06
-5.02135e+06
-5.02133e+06
-5.02131e+06
-5.02129e+06
-5.02127e+06
-5.02126e+06
-5.02124e+06
-5.02122e+06
-5.0212e+06
-5.02118e+06
-5.02116e+06
-5.02114e+06
-5.02112e+06
-5.0211e+06
-5.02108e+06
-5.02106e+06
-5.02104e+06
-5.02102e+06
-5.021e+06
-5.02098e+06
-5.02096e+06
-5.02094e+06
-5.02092e+06
-5.02089e+06
-5.02087e+06
-5.02085e+06
-5.02083e+06
-5.02081e+06
-5.02079e+06
-5.02077e+06
-5.02074e+06
-5.02072e+06
-5.0207e+06
-5.02068e+06
-5.02066e+06
-5.02063e+06
-5.02061e+06
-5.02059e+06
-5.02056e+06
-5.02054e+06
-5.02052e+06
-5.0205e+06
-5.02047e+06
-5.02045e+06
-5.02043e+06
-5.0204e+06
-5.02038e+06
-5.02035e+06
-5.02033e+06
-5.02031e+06
-5.02028e+06
-5.02026e+06
-5.02023e+06
-5.02021e+06
-5.02018e+06
-5.02016e+06
-5.02013e+06
-5.02011e+06
-5.02008e+06
-5.02006e+06
-5.02003e+06
-5.02001e+06
-5.01998e+06
-5.01996e+06
-5.01993e+06
-5.01991e+06
-5.01988e+06
-5.01985e+06
-5.01983e+06
-5.0198e+06
-5.01977e+06
-5.01975e+06
-5.01972e+06
-5.01969e+06
-5.01967e+06
-5.01964e+06
-5.01961e+06
-5.01959e+06
-5.01956e+06
-5.01953e+06
-5.0195e+06
-5.01948e+06
-5.01945e+06
-5.01942e+06
-5.01939e+06
-5.01936e+06
-5.01933e+06
-5.01931e+06
-5.01928e+06
-5.01925e+06
-5.01922e+06
-5.01919e+06
-5.01916e+06
-5.01913e+06
-5.0191e+06
-5.01907e+06
-5.01905e+06
-5.01902e+06
-5.01899e+06
-5.01896e+06
-5.01893e+06
-5.0189e+06
-5.01887e+06
-5.01884e+06
-5.01881e+06
-5.01877e+06
-5.01874e+06
-5.01871e+06
-5.01868e+06
-5.01865e+06
-5.01862e+06
-5.01859e+06
-5.01856e+06
-5.01853e+06
-5.01849e+06
-5.01846e+06
-5.01843e+06
-5.0184e+06
-5.01837e+06
-5.01834e+06
-5.0183e+06
-5.01827e+06
-5.01824e+06
-5.01821e+06
-5.01817e+06
-5.01814e+06
-5.01811e+06
-5.01807e+06
-5.01804e+06
-5.01801e+06
-5.01797e+06
-5.01794e+06
-5.01791e+06
-5.01787e+06
-5.01784e+06
-5.01781e+06
-5.01777e+06
-5.01774e+06
-5.0177e+06
-5.01767e+06
-5.01763e+06
-5.0176e+06
-5.01756e+06
-5.01753e+06
-5.0175e+06
-5.01746e+06
-5.01742e+06
-5.01739e+06
-5.01735e+06
-5.01732e+06
-5.01728e+06
-5.01725e+06
-5.01721e+06
-5.01717e+06
-5.01714e+06
-5.0171e+06
-5.01707e+06
-5.01703e+06
-5.01699e+06
-5.01696e+06
-5.01692e+06
-5.01688e+06
-5.01685e+06
-5.01681e+06
-5.01677e+06
-5.01673e+06
-5.0167e+06
-5.01666e+06
-5.01662e+06
-5.01658e+06
-5.01654e+06
-5.01651e+06
-5.01647e+06
-5.01643e+06
-5.01639e+06
-5.01635e+06
-5.01631e+06
-5.01628e+06
-5.01624e+06
-5.0162e+06
-5.01616e+06
-5.01612e+06
-5.01608e+06
-5.01604e+06
-5.016e+06
-5.01596e+06
-5.01592e+06
-5.01588e+06
-5.01584e+06
-5.0158e+06
-5.01576e+06
-5.01572e+06
-5.01568e+06
-5.01564e+06
-5.0156e+06
-5.01556e+06
-5.01552e+06
-5.01547e+06
-5.01543e+06
-5.01539e+06
-5.01535e+06
-5.01531e+06
-5.01527e+06
-5.01523e+06
-5.01518e+06
-5.01514e+06
-5.0151e+06
-5.01506e+06
-5.01501e+06
-5.01497e+06
-5.01493e+06
-5.01489e+06
-5.01484e+06
-5.0148e+06
-5.01476e+06
-5.01471e+06
-5.01467e+06
-5.01463e+06
-5.01458e+06
-5.01454e+06
-5.0145e+06
-5.01445e+06
-5.01441e+06
-5.01436e+06
-5.01432e+06
-5.01428e+06
-5.01423e+06
-5.01419e+06
-5.01414e+06
-5.0141e+06
-5.01405e+06
-5.01401e+06
-5.01396e+06
-5.01392e+06
-5.01387e+06
-5.01382e+06
-5.01378e+06
-5.01373e+06
-5.01369e+06
-5.01364e+06
-5.01359e+06
-5.01355e+06
-5.0135e+06
-5.01346e+06
-5.01341e+06
-5.01336e+06
-5.01332e+06
-5.01327e+06
-5.01322e+06
-5.01317e+06
-5.01313e+06
-5.01308e+06
-5.01303e+06
-5.01298e+06
-5.01294e+06
-5.01289e+06
-5.01284e+06
-5.01279e+06
-5.01274e+06
-5.01269e+06
-5.01265e+06
-5.0126e+06
-5.01255e+06
-5.0125e+06
-5.01245e+06
-5.0124e+06
-5.01235e+06
-5.0123e+06
-5.01225e+06
-5.0122e+06
-5.01215e+06
-5.0121e+06
-5.01205e+06
-5.012e+06
-5.01195e+06
-5.0119e+06
-5.01185e+06
-5.0118e+06
-5.01175e+06
-5.0117e+06
-5.01165e+06
-5.0116e+06
-5.01155e+06
-5.01149e+06
-5.01144e+06
-5.01139e+06
-5.01134e+06
-5.01129e+06
-5.01124e+06
-5.01118e+06
-5.01113e+06
-5.01108e+06
-5.01103e+06
-5.01097e+06
-5.01092e+06
-5.01087e+06
-5.01082e+06
-5.01076e+06
-5.01071e+06
-5.01066e+06
-5.0106e+06
-5.01055e+06
-5.0105e+06
-5.01044e+06
-5.01039e+06
-5.01033e+06
-5.01028e+06
-5.01022e+06
-5.01017e+06
-5.01012e+06
-5.01006e+06
-5.01001e+06
-5.00995e+06
-5.0099e+06
-5.00984e+06
-5.00979e+06
-5.00973e+06
-5.00968e+06
-5.00962e+06
-5.00956e+06
-5.00951e+06
-5.00945e+06
-5.0094e+06
-5.00934e+06
-5.00928e+06
-5.00923e+06
-5.00917e+06
-5.00911e+06
-5.00906e+06
-5.009e+06
-5.00894e+06
-5.00888e+06
-5.00883e+06
-5.00877e+06
-5.00871e+06
-5.00865e+06
-5.0086e+06
-5.00854e+06
-5.00848e+06
-5.00842e+06
-5.00836e+06
-5.00831e+06
-5.00825e+06
-5.00819e+06
-5.00813e+06
-5.00807e+06
-5.00801e+06
-5.00795e+06
-5.00789e+06
-5.00783e+06
-5.00777e+06
-5.00771e+06
-5.00765e+06
-5.00759e+06
-5.00753e+06
-5.00747e+06
-5.00741e+06
-5.00735e+06
-5.00729e+06
-5.00723e+06
-5.00717e+06
-5.00711e+06
-5.00705e+06
-5.00699e+06
-5.00693e+06
-5.00686e+06
-5.0068e+06
-5.00674e+06
-5.00668e+06
-5.00662e+06
-5.00656e+06
-5.00649e+06
-5.00643e+06
-5.00637e+06
-5.00631e+06
-5.00624e+06
-5.00618e+06
-5.00612e+06
-5.00606e+06
-5.00599e+06
-5.00593e+06
-5.00587e+06
-5.0058e+06
-5.00574e+06
-5.00567e+06
-5.00561e+06
-5.00555e+06
-5.00548e+06
-5.00542e+06
-5.00535e+06
-5.00529e+06
-5.00522e+06
-5.00516e+06
-5.0051e+06
-5.00503e+06
-5.00497e+06
-5.0049e+06
-5.00483e+06
-5.00477e+06
-5.0047e+06
-5.00464e+06
-5.00457e+06
-5.00451e+06
-5.00444e+06
-5.00437e+06
-5.00431e+06
-5.00424e+06
-5.00417e+06
-5.00411e+06
-5.00404e+06
-5.00397e+06
-5.00391e+06
-5.00384e+06
-5.00377e+06
-5.0037e+06
-5.00364e+06
-5.00357e+06
-5.0035e+06
-5.00343e+06
-5.00337e+06
-5.0033e+06
-5.00323e+06
-5.00316e+06
-5.00309e+06
-5.00302e+06
-5.00295e+06
-5.00289e+06
-5.00282e+06
-5.00275e+06
-5.00268e+06
-5.00261e+06
-5.00254e+06
-5.00247e+06
-5.0024e+06
-5.00233e+06
-5.00226e+06
-5.00219e+06
-5.00212e+06
-5.00205e+06
-5.00198e+06
-5.00191e+06
-5.00184e+06
-5.00177e+06
-5.00169e+06
-5.00162e+06
-5.00155e+06
-5.00148e+06
-5.00141e+06
-5.00134e+06
-5.00127e+06
-5.00119e+06
-5.00112e+06
-5.00105e+06
-5.00098e+06
-5.00091e+06
-5.00083e+06
-5.00076e+06
-5.00069e+06
-5.00061e+06
-5.00054e+06
-5.00047e+06
-5.0004e+06
-5.00032e+06
-5.00025e+06
-5.00018e+06
-5.0001e+06
-5.00003e+06
-4.99995e+06
-4.99988e+06
-4.99981e+06
-4.99973e+06
-4.99966e+06
-4.99958e+06
-4.99951e+06
-4.99943e+06
-4.99936e+06
-4.99928e+06
-4.99921e+06
-4.99913e+06
-4.99906e+06
-4.99898e+06
-4.9989e+06
-4.99883e+06
-4.99875e+06
-4.99868e+06
-4.9986e+06
-4.99852e+06
-4.99845e+06
-4.99837e+06
-4.99829e+06
-4.99822e+06
-4.99814e+06
-4.99806e+06
-4.99799e+06
-4.99791e+06
-4.99783e+06
-4.99775e+06
-4.99768e+06
-4.9976e+06
-4.99752e+06
-4.99744e+06
-4.99736e+06
-4.99729e+06
-4.99721e+06
-4.99713e+06
-4.99705e+06
-4.99697e+06
-4.99689e+06
-4.99681e+06
-4.99673e+06
-4.99666e+06
-4.99658e+06
-4.9965e+06
-4.99642e+06
-4.99634e+06
-4.99626e+06
-4.99618e+06
-4.9961e+06
-4.99602e+06
-4.99594e+06
-4.99586e+06
-4.99577e+06
-4.99569e+06
-4.99561e+06
-4.99553e+06
-4.99545e+06
-4.99537e+06
-4.99529e+06
-4.99521e+06
-4.99512e+06
-4.99504e+06
-4.99496e+06
-4.99488e+06
-4.9948e+06
-4.99471e+06
-4.99463e+06
-4.99455e+06
-4.99447e+06
-4.99438e+06
-4.9943e+06
-4.99422e+06
-4.99413e+06
-4.99405e+06
-4.99397e+06
-4.99388e+06
-4.9938e+06
-4.99372e+06
-4.99363e+06
-4.99355e+06
-4.99347e+06
-4.99338e+06
-4.9933e+06
-4.99321e+06
-4.99313e+06
-4.99304e+06
-4.99296e+06
-4.99287e+06
-4.99279e+06
-4.9927e+06
-4.99262e+06
-4.99253e+06
-4.99245e+06
-4.99236e+06
-4.99227e+06
-4.99219e+06
-4.9921e+06
-4.99202e+06
-4.99193e+06
-4.99184e+06
-4.99176e+06
-4.99167e+06
-4.99158e+06
-4.9915e+06
-4.99141e+06
-4.99132e+06
-4.99123e+06
-4.99115e+06
-4.99106e+06
-4.99097e+06
-4.99088e+06
-4.99079e+06
-4.99071e+06
-4.99062e+06
-4.99053e+06
-4.99044e+06
-4.99035e+06
-4.99026e+06
-4.99018e+06
-4.99009e+06
-4.99e+06
-4.98991e+06
-4.98982e+06
-4.98973e+06
-4.98964e+06
-4.98955e+06
-4.98946e+06
-4.98937e+06
-4.98928e+06
-4.98919e+06
-4.9891e+06
-4.98901e+06
-4.98892e+06
-4.98883e+06
-4.98874e+06
-4.98865e+06
-4.98855e+06
-4.98846e+06
-4.98837e+06
-4.98828e+06
-4.98819e+06
-4.9881e+06
-4.98801e+06
-4.98791e+06
-4.98782e+06
-4.98773e+06
-4.98764e+06
-4.98754e+06
-4.98745e+06
-4.98736e+06
-4.98727e+06
-4.98717e+06
-4.98708e+06
-4.98699e+06
-4.98689e+06
-4.9868e+06
-4.98671e+06
-4.98661e+06
-4.98652e+06
-4.98642e+06
-4.98633e+06
-4.98624e+06
-4.98614e+06
-4.98605e+06
-4.98595e+06
-4.98586e+06
-4.98576e+06
-4.98567e+06
-4.98557e+06
-4.98548e+06
-4.98538e+06
-4.98529e+06
-4.98519e+06
-4.9851e+06
-4.985e+06
-4.9849e+06
-4.98481e+06
-4.98471e+06
-4.98462e+06
-4.98452e+06
-4.98442e+06
-4.98433e+06
-4.98423e+06
-4.98413e+06
-4.98403e+06
-4.98394e+06
-4.98384e+06
-4.98374e+06
-4.98365e+06
-4.98355e+06
-4.98345e+06
-4.98335e+06
-4.98325e+06
-4.98316e+06
-4.98306e+06
-4.98296e+06
-4.98286e+06
-4.98276e+06
-4.98266e+06
-4.98256e+06
-4.98246e+06
-4.98237e+06
-4.98227e+06
-4.98217e+06
-4.98207e+06
-4.98197e+06
-4.98187e+06
-4.98177e+06
-4.98167e+06
-4.98157e+06
-4.98147e+06
-4.98137e+06
-4.98127e+06
-4.98117e+06
-4.98106e+06
-4.98096e+06
-4.98086e+06
-4.98076e+06
-4.98066e+06
-4.98056e+06
-4.98046e+06
-4.98036e+06
-4.98025e+06
-4.98015e+06
-4.98005e+06
-4.97995e+06
-4.97985e+06
-4.97974e+06
-4.97964e+06
-4.97954e+06
-4.97943e+06
-4.97933e+06
-4.97923e+06
-4.97913e+06
-4.97902e+06
-4.97892e+06
-4.97882e+06
-4.97871e+06
-4.97861e+06
-4.9785e+06
-4.9784e+06
-4.9783e+06
-4.97819e+06
-4.97809e+06
-4.97798e+06
-4.97788e+06
-4.97777e+06
-4.97767e+06
-4.97756e+06
-4.97746e+06
-4.97735e+06
-4.97725e+06
-4.97714e+06
-4.97704e+06
-4.97693e+06
-4.97682e+06
-4.97672e+06
-4.97661e+06
-4.97651e+06
-4.9764e+06
-4.97629e+06
-4.97619e+06
-4.97608e+06
-4.97597e+06
-4.97587e+06
-4.97576e+06
-4.97565e+06
-4.97554e+06
-4.97544e+06
-4.97533e+06
-4.97522e+06
-4.97511e+06
-4.97501e+06
-4.9749e+06
-4.97479e+06
-4.97468e+06
-4.97457e+06
-4.97446e+06
-4.97436e+06
-4.97425e+06
-4.97414e+06
-4.97403e+06
-4.97392e+06
-4.97381e+06
-4.9737e+06
-4.97359e+06
-4.97348e+06
-4.97337e+06
-4.97326e+06
-4.97315e+06
-4.97304e+06
-4.97293e+06
-4.97282e+06
-4.97271e+06
-4.9726e+06
-4.97249e+06
-4.97238e+06
-4.97227e+06
-4.97215e+06
-4.97204e+06
-4.97193e+06
-4.97182e+06
-4.97171e+06
-4.9716e+06
-4.97148e+06
-4.97137e+06
-4.97126e+06
-4.97115e+06
-4.97104e+06
-4.97092e+06
-4.97081e+06
-4.9707e+06
-4.97058e+06
-4.97047e+06
-4.97036e+06
-4.97024e+06
-4.97013e+06
-4.97002e+06
-4.9699e+06
-4.96979e+06
-4.96968e+06
-4.96956e+06
-4.96945e+06
-4.96933e+06
-4.96922e+06
-4.9691e+06
-4.96899e+06
-4.96887e+06
-4.96876e+06
-4.96864e+06
-4.96853e+06
-4.96841e+06
-4.9683e+06
-4.96818e+06
-4.96807e+06
-4.96795e+06
-4.96783e+06
-4.96772e+06
-4.9676e+06
-4.96749e+06
-4.96737e+06
-4.96725e+06
-4.96714e+06
-4.96702e+06
-4.9669e+06
-4.96679e+06
-4.96667e+06
-4.96655e+06
-4.96643e+06
-4.96632e+06
-4.9662e+06
-4.96608e+06
-4.96596e+06
-4.96584e+06
-4.96573e+06
-4.96561e+06
-4.96549e+06
-4.96537e+06
-4.96525e+06
-4.96513e+06
-4.96501e+06
-4.96489e+06
-4.96477e+06
-4.96466e+06
-4.96454e+06
-4.96442e+06
-4.9643e+06
-4.96418e+06
-4.96406e+06
-4.96394e+06
-4.96382e+06
-4.9637e+06
-4.96358e+06
-4.96345e+06
-4.96333e+06
-4.96321e+06
-4.96309e+06
-4.96297e+06
-4.96285e+06
-4.96273e+06
-4.96261e+06
-4.96249e+06
-4.96236e+06
-4.96224e+06
-4.96212e+06
-4.962e+06
-4.96187e+06
-4.96175e+06
-4.96163e+06
-4.96151e+06
-4.96138e+06
-4.96126e+06
-4.96114e+06
-4.96102e+06
-4.96089e+06
-4.96077e+06
-4.96065e+06
-4.96052e+06
-4.9604e+06
-4.96027e+06
-4.96015e+06
-4.96003e+06
-4.9599e+06
-4.95978e+06
-4.95965e+06
-4.95953e+06
-4.9594e+06
-4.95928e+06
-4.95915e+06
-4.95903e+06
-4.9589e+06
-4.95878e+06
-4.95865e+06
-4.95853e+06
-4.9584e+06
-4.95827e+06
-4.95815e+06
-4.95802e+06
-4.9579e+06
-4.95777e+06
-4.95764e+06
-4.95752e+06
-4.95739e+06
-4.95726e+06
-4.95713e+06
-4.95701e+06
-4.95688e+06
-4.95675e+06
-4.95662e+06
-4.9565e+06
-4.95637e+06
-4.95624e+06
-4.95611e+06
-4.95599e+06
-4.95586e+06
-4.95573e+06
-4.9556e+06
-4.95547e+06
-4.95534e+06
-4.95521e+06
-4.95508e+06
-4.95495e+06
-4.95483e+06
-4.9547e+06
-4.95457e+06
-4.95444e+06
-4.95431e+06
-4.95418e+06
-4.95405e+06
-4.95392e+06
-4.95379e+06
-4.95366e+06
-4.95352e+06
-4.95339e+06
-4.95326e+06
-4.95313e+06
-4.953e+06
-4.95287e+06
-4.95274e+06
-4.95261e+06
-4.95247e+06
-4.95234e+06
-4.95221e+06
-4.95208e+06
-4.95195e+06
-4.95181e+06
-4.95168e+06
-4.95155e+06
-4.95142e+06
-4.95128e+06
-4.95115e+06
-4.95102e+06
-4.95088e+06
-4.95075e+06
-4.95062e+06
-4.95048e+06
-4.95035e+06
-4.95022e+06
-4.95008e+06
-4.94995e+06
-4.94981e+06
-4.94968e+06
-4.94955e+06
-4.94941e+06
-4.94928e+06
-4.94914e+06
-4.94901e+06
-4.94887e+06
-4.94874e+06
-4.9486e+06
-4.94846e+06
-4.94833e+06
-4.94819e+06
-4.94806e+06
-4.94792e+06
-4.94779e+06
-4.94765e+06
-4.94751e+06
-4.94738e+06
-4.94724e+06
-4.9471e+06
-4.94697e+06
-4.94683e+06
-4.94669e+06
-4.94655e+06
-4.94642e+06
-4.94628e+06
-4.94614e+06
-4.946e+06
-4.94587e+06
-4.94573e+06
-4.94559e+06
-4.94545e+06
-4.94531e+06
-4.94517e+06
-4.94503e+06
-4.9449e+06
-4.94476e+06
-4.94462e+06
-4.94448e+06
-4.94434e+06
-4.9442e+06
-4.94406e+06
-4.94392e+06
-4.94378e+06
-4.94364e+06
-4.9435e+06
-4.94336e+06
-4.94322e+06
-4.94308e+06
-4.94294e+06
-4.9428e+06
-4.94266e+06
-4.94251e+06
-4.94237e+06
-4.94223e+06
-4.94209e+06
-4.94195e+06
-4.94181e+06
-4.94167e+06
-4.94152e+06
-4.94138e+06
-4.94124e+06
-4.9411e+06
-4.94095e+06
-4.94081e+06
-4.94067e+06
-4.94053e+06
-4.94038e+06
-4.94024e+06
-4.9401e+06
-4.93995e+06
-4.93981e+06
-4.93967e+06
-4.93952e+06
-4.93938e+06
-4.93923e+06
-4.93909e+06
-4.93895e+06
-4.9388e+06
-4.93866e+06
-4.93851e+06
-4.93837e+06
-4.93822e+06
-4.93808e+06
-4.93793e+06
-4.93779e+06
-4.93764e+06
-4.9375e+06
-4.93735e+06
-4.9372e+06
-4.93706e+06
-4.93691e+06
-4.93677e+06
-4.93662e+06
-4.93647e+06
-4.93633e+06
-4.93618e+06
-4.93603e+06
-4.93589e+06
-4.93574e+06
-4.93559e+06
-4.93544e+06
-4.9353e+06
-4.93515e+06
-4.935e+06
-4.93485e+06
-4.9347e+06
-4.93456e+06
-4.93441e+06
-4.93426e+06
-4.93411e+06
-4.93396e+06
-4.93381e+06
-4.93366e+06
-4.93351e+06
-4.93337e+06
-4.93322e+06
-4.93307e+06
-4.93292e+06
-4.93277e+06
-4.93262e+06
-4.93247e+06
-4.93232e+06
-4.93217e+06
-4.93202e+06
-4.93187e+06
-4.93172e+06
-4.93156e+06
-4.93141e+06
-4.93126e+06
-4.93111e+06
-4.93096e+06
-4.93081e+06
-4.93066e+06
-4.9305e+06
-4.93035e+06
-4.9302e+06
-4.93005e+06
-4.9299e+06
-4.92974e+06
-4.92959e+06
-4.92944e+06
-4.92929e+06
-4.92913e+06
-4.92898e+06
-4.92883e+06
-4.92867e+06
-4.92852e+06
-4.92837e+06
-4.92821e+06
-4.92806e+06
-4.92791e+06
-4.92775e+06
-4.9276e+06
-4.92744e+06
-4.92729e+06
-4.92713e+06
-4.92698e+06
-4.92682e+06
-4.92667e+06
-4.92651e+06
-4.92636e+06
-4.9262e+06
-4.92605e+06
-4.92589e+06
-4.92574e+06
-4.92558e+06
-4.92542e+06
-4.92527e+06
-4.92511e+06
-4.92495e+06
-4.9248e+06
-4.92464e+06
-4.92448e+06
-4.92433e+06
-4.92417e+06
-4.92401e+06
-4.92386e+06
-4.9237e+06
-4.92354e+06
-4.92338e+06
-4.92323e+06
-4.92307e+06
-4.92291e+06
-4.92275e+06
-4.92259e+06
-4.92243e+06
-4.92228e+06
-4.92212e+06
-4.92196e+06
-4.9218e+06
-4.92164e+06
-4.92148e+06
-4.92132e+06
-4.92116e+06
-4.921e+06
-4.92084e+06
-4.92068e+06
-4.92052e+06
-4.92036e+06
-4.9202e+06
-4.92004e+06
-4.91988e+06
-4.91972e+06
-4.91956e+06
-4.9194e+06
-4.91923e+06
-4.91907e+06
-4.91891e+06
-4.91875e+06
-4.91859e+06
-4.91843e+06
-4.91826e+06
-4.9181e+06
-4.91794e+06
-4.91778e+06
-4.91762e+06
-4.91745e+06
-4.91729e+06
-4.91713e+06
-4.91696e+06
-4.9168e+06
-4.91664e+06
-4.91647e+06
-4.91631e+06
-4.91615e+06
-4.91598e+06
-4.91582e+06
-4.91566e+06
-4.91549e+06
-4.91533e+06
-4.91516e+06
-4.915e+06
-4.91483e+06
-4.91467e+06
-4.9145e+06
-4.91434e+06
-4.91417e+06
-4.91401e+06
-4.91384e+06
-4.91368e+06
-4.91351e+06
-4.91334e+06
-4.91318e+06
-4.91301e+06
-4.91284e+06
-4.91268e+06
-4.91251e+06
-4.91234e+06
-4.91218e+06
-4.91201e+06
-4.91184e+06
-4.91168e+06
-4.91151e+06
-4.91134e+06
-4.91117e+06
-4.91101e+06
-4.91084e+06
-4.91067e+06
-4.9105e+06
-4.91033e+06
-4.91016e+06
-4.91e+06
-4.90983e+06
-4.90966e+06
-4.90949e+06
-4.90932e+06
-4.90915e+06
-4.90898e+06
-4.90881e+06
-4.90864e+06
-4.90847e+06
-4.9083e+06
-4.90813e+06
-4.90796e+06
-4.90779e+06
-4.90762e+06
-4.90745e+06
-4.90728e+06
-4.90711e+06
-4.90694e+06
-4.90677e+06
-4.9066e+06
-4.90642e+06
-4.90625e+06
-4.90608e+06
-4.90591e+06
-4.90574e+06
-4.90557e+06
-4.90539e+06
-4.90522e+06
-4.90505e+06
-4.90488e+06
-4.9047e+06
-4.90453e+06
-4.90436e+06
-4.90418e+06
-4.90401e+06
-4.90384e+06
-4.90366e+06
-4.90349e+06
-4.90332e+06
-4.90314e+06
-4.90297e+06
-4.90279e+06
-4.90262e+06
-4.90244e+06
-4.90227e+06
-4.90209e+06
-4.90192e+06
-4.90174e+06
-4.90157e+06
-4.90139e+06
-4.90122e+06
-4.90104e+06
-4.90087e+06
-4.90069e+06
-4.90052e+06
-4.90034e+06
-4.90016e+06
-4.89999e+06
-4.89981e+06
-4.89963e+06
-4.89946e+06
-4.89928e+06
-4.8991e+06
-4.89893e+06
-4.89875e+06
-4.89857e+06
-4.89839e+06
-4.89822e+06
-4.89804e+06
-4.89786e+06
-4.89768e+06
-4.8975e+06
-4.89732e+06
-4.89715e+06
-4.89697e+06
-4.89679e+06
-4.89661e+06
-4.89643e+06
-4.89625e+06
-4.89607e+06
-4.89589e+06
-4.89571e+06
-4.89553e+06
-4.89535e+06
-4.89517e+06
-4.89499e+06
-4.89481e+06
-4.89463e+06
-4.89445e+06
-4.89427e+06
-4.89409e+06
-4.89391e+06
-4.89373e+06
-4.89355e+06
-4.89337e+06
-4.89318e+06
-4.893e+06
-4.89282e+06
-4.89264e+06
-4.89246e+06
-4.89227e+06
-4.89209e+06
-4.89191e+06
-4.89173e+06
-4.89154e+06
-4.89136e+06
-4.89118e+06
-4.89099e+06
-4.89081e+06
-4.89063e+06
-4.89044e+06
-4.89026e+06
-4.89008e+06
-4.88989e+06
-4.88971e+06
-4.88952e+06
-4.88934e+06
-4.88916e+06
-4.88897e+06
-4.88879e+06
-4.8886e+06
-4.88842e+06
-4.88823e+06
-4.88805e+06
-4.88786e+06
-4.88767e+06
-4.88749e+06
-4.8873e+06
-4.88712e+06
-4.88693e+06
-4.88674e+06
-4.88656e+06
-4.88637e+06
-4.88618e+06
-4.886e+06
-4.88581e+06
-4.88562e+06
-4.88544e+06
-4.88525e+06
-4.88506e+06
-4.88487e+06
-4.88469e+06
-4.8845e+06
-4.88431e+06
-4.88412e+06
-4.88393e+06
-4.88374e+06
-4.88356e+06
-4.88337e+06
-4.88318e+06
-4.88299e+06
-4.8828e+06
-4.88261e+06
-4.88242e+06
-4.88223e+06
-4.88204e+06
-4.88185e+06
-4.88166e+06
-4.88147e+06
-4.88128e+06
-4.88109e+06
-4.8809e+06
-4.88071e+06
-4.88052e+06
-4.88033e+06
-4.88014e+06
-4.87994e+06
-4.87975e+06
-4.87956e+06
-4.87937e+06
-4.87918e+06
-4.87899e+06
-4.87879e+06
-4.8786e+06
-4.87841e+06
-4.87822e+06
-4.87802e+06
-4.87783e+06
-4.87764e+06
-4.87745e+06
-4.87725e+06
-4.87706e+06
-4.87687e+06
-4.87667e+06
-4.87648e+06
-4.87628e+06
-4.87609e+06
-4.8759e+06
-4.8757e+06
-4.87551e+06
-4.87531e+06
-4.87512e+06
-4.87492e+06
-4.87473e+06
-4.87453e+06
-4.87434e+06
-4.87414e+06
-4.87395e+06
-4.87375e+06
-4.87356e+06
-4.87336e+06
-4.87316e+06
-4.87297e+06
-4.87277e+06
-4.87257e+06
-4.87238e+06
-4.87218e+06
-4.87198e+06
-4.87179e+06
-4.87159e+06
-4.87139e+06
-4.87119e+06
-4.871e+06
-4.8708e+06
-4.8706e+06
-4.8704e+06
-4.8702e+06
-4.87001e+06
-4.86981e+06
-4.86961e+06
-4.86941e+06
-4.86921e+06
-4.86901e+06
-4.86881e+06
-4.86861e+06
-4.86841e+06
-4.86821e+06
-4.86801e+06
-4.86781e+06
-4.86761e+06
-4.86741e+06
-4.86721e+06
-4.86701e+06
-4.86681e+06
-4.86661e+06
-4.86641e+06
-4.86621e+06
-4.86601e+06
-4.86581e+06
-4.86561e+06
-4.8654e+06
-4.8652e+06
-4.865e+06
-4.8648e+06
-4.8646e+06
-4.86439e+06
-4.86419e+06
-4.86399e+06
-4.86379e+06
-4.86358e+06
-4.86338e+06
-4.86318e+06
-4.86297e+06
-4.86277e+06
-4.86257e+06
-4.86236e+06
-4.86216e+06
-4.86196e+06
-4.86175e+06
-4.86155e+06
-4.86134e+06
-4.86114e+06
-4.86093e+06
-4.86073e+06
-4.86052e+06
-4.86032e+06
-4.86011e+06
-4.85991e+06
-4.8597e+06
-4.8595e+06
-4.85929e+06
-4.85908e+06
-4.85888e+06
-4.85867e+06
-4.85847e+06
-4.85826e+06
-4.85805e+06
-4.85785e+06
-4.85764e+06
-4.85743e+06
-4.85722e+06
-4.85702e+06
-4.85681e+06
-4.8566e+06
-4.85639e+06
-4.85619e+06
-4.85598e+06
-4.85577e+06
-4.85556e+06
-4.85535e+06
-4.85514e+06
-4.85493e+06
-4.85473e+06
-4.85452e+06
-4.85431e+06
-4.8541e+06
-4.85389e+06
-4.85368e+06
-4.85347e+06
-4.85326e+06
-4.85305e+06
-4.85284e+06
-4.85263e+06
-4.85242e+06
-4.85221e+06
-4.85199e+06
-4.85178e+06
-4.85157e+06
-4.85136e+06
-4.85115e+06
-4.85094e+06
-4.85073e+06
-4.85051e+06
-4.8503e+06
-4.85009e+06
-4.84988e+06
-4.84967e+06
-4.84945e+06
-4.84924e+06
-4.84903e+06
-4.84881e+06
-4.8486e+06
-4.84839e+06
-4.84817e+06
-4.84796e+06
-4.84775e+06
-4.84753e+06
-4.84732e+06
-4.8471e+06
-4.84689e+06
-4.84667e+06
-4.84646e+06
-4.84625e+06
-4.84603e+06
-4.84582e+06
-4.8456e+06
-4.84538e+06
-4.84517e+06
-4.84495e+06
-4.84474e+06
-4.84452e+06
-4.84431e+06
-4.84409e+06
-4.84387e+06
-4.84366e+06
-4.84344e+06
-4.84322e+06
-4.84301e+06
-4.84279e+06
-4.84257e+06
-4.84235e+06
-4.84214e+06
-4.84192e+06
-4.8417e+06
-4.84148e+06
-4.84126e+06
-4.84105e+06
-4.84083e+06
-4.84061e+06
-4.84039e+06
-4.84017e+06
-4.83995e+06
-4.83973e+06
-4.83951e+06
-4.83929e+06
-4.83907e+06
-4.83885e+06
-4.83863e+06
-4.83841e+06
-4.83819e+06
-4.83797e+06
-4.83775e+06
-4.83753e+06
-4.83731e+06
-4.83709e+06
-4.83687e+06
-4.83665e+06
-4.83642e+06
-4.8362e+06
-4.83598e+06
-4.83576e+06
-4.83554e+06
-4.83532e+06
-4.83509e+06
-4.83487e+06
-4.83465e+06
-4.83442e+06
-4.8342e+06
-4.83398e+06
-4.83375e+06
-4.83353e+06
-4.83331e+06
-4.83308e+06
-4.83286e+06
-4.83264e+06
-4.83241e+06
-4.83219e+06
-4.83196e+06
-4.83174e+06
-4.83151e+06
-4.83129e+06
-4.83106e+06
-4.83084e+06
-4.83061e+06
-4.83039e+06
-4.83016e+06
-4.82994e+06
-4.82971e+06
-4.82948e+06
-4.82926e+06
-4.82903e+06
-4.8288e+06
-4.82858e+06
-4.82835e+06
-4.82812e+06
-4.8279e+06
-4.82767e+06
-4.82744e+06
-4.82721e+06
-4.82698e+06
-4.82676e+06
-4.82653e+06
-4.8263e+06
-4.82607e+06
-4.82584e+06
-4.82561e+06
-4.82539e+06
-4.82516e+06
-4.82493e+06
-4.8247e+06
-4.82447e+06
-4.82424e+06
-4.82401e+06
-4.82378e+06
-4.82355e+06
-4.82332e+06
-4.82309e+06
-4.82286e+06
-4.82263e+06
-4.82239e+06
-4.82216e+06
-4.82193e+06
-4.8217e+06
-4.82147e+06
-4.82124e+06
-4.82101e+06
-4.82077e+06
-4.82054e+06
-4.82031e+06
-4.82008e+06
-4.81984e+06
-4.81961e+06
-4.81938e+06
-4.81914e+06
-4.81891e+06
-4.81868e+06
-4.81844e+06
-4.81821e+06
-4.81798e+06
-4.81774e+06
-4.81751e+06
-4.81727e+06
-4.81704e+06
-4.8168e+06
-4.81657e+06
-4.81633e+06
-4.8161e+06
-4.81586e+06
-4.81563e+06
-4.81539e+06
-4.81516e+06
-4.81492e+06
-4.81469e+06
-4.81445e+06
-4.81421e+06
-4.81398e+06
-4.81374e+06
-4.81351e+06
-4.81327e+06
-4.81303e+06
-4.8128e+06
-4.81256e+06
-4.81232e+06
-4.81209e+06
-4.81185e+06
-4.81162e+06
-4.81138e+06
-4.81114e+06
-4.81091e+06
-4.81067e+06
-4.81043e+06
-4.81019e+06
-4.80996e+06
-4.80972e+06
-4.80948e+06
-4.80924e+06
-4.809e+06
-4.80876e+06
-4.80852e+06
-4.80828e+06
-4.80803e+06
-4.80779e+06
-4.80754e+06
-4.8073e+06
-4.80705e+06
-4.80681e+06
-4.80656e+06
-4.80631e+06
-4.80606e+06
-4.80581e+06
-4.80556e+06
-4.80531e+06
-4.80507e+06
-4.80482e+06
-4.80457e+06
-4.80432e+06
-4.80408e+06
-4.80383e+06
-4.80358e+06
-4.80334e+06
-4.8031e+06
-4.80285e+06
-4.80261e+06
-4.80237e+06
-4.80213e+06
-4.80189e+06
-4.80165e+06
-4.80141e+06
-4.80117e+06
-4.80093e+06
-4.80069e+06
-4.80045e+06
-4.80021e+06
-4.79996e+06
-4.79972e+06
-4.79948e+06
-4.79924e+06
-4.79899e+06
-4.79875e+06
-4.7985e+06
-4.79821e+06
-4.79798e+06
-4.79776e+06
-4.79757e+06
-4.79728e+06
-4.79701e+06
-4.79676e+06
-4.7965e+06
-4.79624e+06
-4.79599e+06
-4.79576e+06
-4.79553e+06
-4.79528e+06
-4.79502e+06
-4.79477e+06
-4.7945e+06
-4.79424e+06
-4.79399e+06
-4.79376e+06
-4.79352e+06
-4.79327e+06
-4.79302e+06
-4.79276e+06
-4.7925e+06
-4.79224e+06
-4.79199e+06
-4.79174e+06
-4.7915e+06
-4.79125e+06
-4.791e+06
-4.79075e+06
-4.79049e+06
-4.79024e+06
-4.78993e+06
-4.78972e+06
-4.78942e+06
-4.78933e+06
-4.789e+06
-4.78869e+06
-4.78848e+06
-4.78821e+06
-4.78791e+06
-4.78768e+06
-4.78745e+06
-4.78719e+06
-4.78694e+06
-4.78669e+06
-4.78642e+06
-4.78615e+06
-4.78589e+06
-4.78563e+06
-4.78539e+06
-4.78514e+06
-4.78489e+06
-4.78463e+06
-4.78433e+06
-4.78418e+06
-4.78381e+06
-4.78355e+06
-4.78338e+06
-4.78311e+06
-4.78281e+06
-4.78259e+06
-4.78232e+06
-4.78203e+06
-4.78177e+06
-4.78152e+06
-4.78127e+06
-4.78101e+06
-4.78076e+06
-4.7805e+06
-4.78023e+06
-4.77996e+06
-4.7797e+06
-4.77944e+06
-4.77918e+06
-4.77894e+06
-4.77867e+06
-4.77841e+06
-4.77816e+06
-4.77788e+06
-4.77761e+06
-4.77735e+06
-4.77709e+06
-4.77683e+06
-4.77658e+06
-4.77632e+06
-4.77605e+06
-4.77578e+06
-4.77552e+06
-4.77525e+06
-4.77498e+06
-4.77472e+06
-4.77446e+06
-4.7742e+06
-4.77394e+06
-4.77367e+06
-4.77341e+06
-4.77314e+06
-4.77287e+06
-4.7726e+06
-4.77234e+06
-4.77208e+06
-4.77181e+06
-4.77155e+06
-4.77128e+06
-4.77101e+06
-4.77074e+06
-4.77047e+06
-4.77021e+06
-4.76994e+06
-4.76967e+06
-4.76941e+06
-4.76914e+06
-4.76887e+06
-4.7686e+06
-4.76834e+06
-4.76806e+06
-4.7678e+06
-4.76753e+06
-4.76725e+06
-4.76699e+06
-4.76671e+06
-4.76644e+06
-4.76617e+06
-4.76591e+06
-4.76564e+06
-4.76536e+06
-4.7651e+06
-4.76482e+06
-4.76455e+06
-4.76428e+06
-4.764e+06
-4.76373e+06
-4.76346e+06
-4.76319e+06
-4.76292e+06
-4.76264e+06
-4.76237e+06
-4.76209e+06
-4.76183e+06
-4.76155e+06
-4.76128e+06
-4.761e+06
-4.76073e+06
-4.76045e+06
-4.76017e+06
-4.7599e+06
-4.75962e+06
-4.75935e+06
-4.75908e+06
-4.7588e+06
-4.75853e+06
-4.75825e+06
-4.75797e+06
-4.75769e+06
-4.75741e+06
-4.75714e+06
-4.75686e+06
-4.75658e+06
-4.75631e+06
-4.75603e+06
-4.75576e+06
-4.75547e+06
-4.7552e+06
-4.75492e+06
-4.75463e+06
-4.75435e+06
-4.75406e+06
-4.7538e+06
-4.75352e+06
-4.75323e+06
-4.75297e+06
-4.75267e+06
-4.7524e+06
-4.75212e+06
-4.75182e+06
-4.75157e+06
-4.75127e+06
-4.75096e+06
-4.75071e+06
-4.75043e+06
-4.75013e+06
-4.74984e+06
-4.74957e+06
-4.74929e+06
-4.749e+06
-4.74873e+06
-4.74845e+06
-4.74816e+06
-4.74786e+06
-4.74756e+06
-4.74728e+06
-4.74699e+06
-4.74673e+06
-4.74646e+06
-4.74617e+06
-4.74589e+06
-4.74558e+06
-4.74528e+06
-4.74499e+06
-4.7447e+06
-4.74443e+06
-4.74415e+06
-4.74387e+06
-4.74358e+06
-4.74328e+06
-4.74299e+06
-4.74269e+06
-4.7424e+06
-4.74212e+06
-4.74183e+06
-4.74155e+06
-4.74126e+06
-4.74097e+06
-4.74068e+06
-4.74038e+06
-4.74009e+06
-4.7398e+06
-4.7395e+06
-4.73921e+06
-4.73892e+06
-4.73863e+06
-4.73833e+06
-4.73804e+06
-4.73775e+06
-4.73745e+06
-4.73716e+06
-4.73687e+06
-4.73657e+06
-4.73628e+06
-4.73598e+06
-4.73569e+06
-4.7354e+06
-4.7351e+06
-4.7348e+06
-4.73451e+06
-4.73421e+06
-4.73391e+06
-4.73361e+06
-4.73332e+06
-4.73302e+06
-4.73272e+06
-4.73243e+06
-4.73212e+06
-4.73182e+06
-4.73153e+06
-4.73123e+06
-4.73093e+06
-4.73063e+06
-4.73033e+06
-4.73003e+06
-4.72973e+06
-4.72943e+06
-4.72913e+06
-4.72882e+06
-4.72852e+06
-4.72822e+06
-4.72792e+06
-4.72762e+06
-4.72731e+06
-4.72701e+06
-4.72671e+06
-4.7264e+06
-4.7261e+06
-4.72579e+06
-4.72549e+06
-4.72519e+06
-4.72488e+06
-4.72458e+06
-4.72427e+06
-4.72396e+06
-4.72366e+06
-4.72335e+06
-4.72304e+06
-4.72273e+06
-4.72242e+06
-4.72212e+06
-4.72181e+06
-4.7215e+06
-4.72119e+06
-4.72088e+06
-4.72057e+06
-4.72027e+06
-4.71995e+06
-4.71964e+06
-4.71933e+06
-4.71902e+06
-4.71871e+06
-4.7184e+06
-4.71808e+06
-4.71777e+06
-4.71746e+06
-4.71715e+06
-4.71683e+06
-4.71652e+06
-4.71621e+06
-4.71589e+06
-4.71557e+06
-4.71526e+06
-4.71494e+06
-4.71463e+06
-4.71431e+06
-4.71399e+06
-4.71368e+06
-4.71336e+06
-4.71304e+06
-4.71273e+06
-4.71241e+06
-4.71209e+06
-4.71177e+06
-4.71145e+06
-4.71113e+06
-4.71081e+06
-4.71049e+06
-4.71017e+06
-4.70985e+06
-4.70953e+06
-4.7092e+06
-4.70888e+06
-4.70856e+06
-4.70824e+06
-4.70791e+06
-4.70759e+06
-4.70726e+06
-4.70694e+06
-4.70662e+06
-4.70629e+06
-4.70596e+06
-4.70564e+06
-4.70531e+06
-4.70499e+06
-4.70466e+06
-4.70433e+06
-4.704e+06
-4.70367e+06
-4.70334e+06
-4.70302e+06
-4.70268e+06
-4.70235e+06
-4.70202e+06
-4.70169e+06
-4.70136e+06
-4.70103e+06
-4.7007e+06
-4.70037e+06
-4.70003e+06
-4.6997e+06
-4.69936e+06
-4.69903e+06
-4.69869e+06
-4.69836e+06
-4.69802e+06
-4.69769e+06
-4.69735e+06
-4.69701e+06
-4.69668e+06
-4.69634e+06
-4.696e+06
-4.69566e+06
-4.69532e+06
-4.69498e+06
-4.69464e+06
-4.6943e+06
-4.69396e+06
-4.69362e+06
-4.69327e+06
-4.69293e+06
-4.69259e+06
-4.69225e+06
-4.6919e+06
-4.69156e+06
-4.69121e+06
-4.69087e+06
-4.69052e+06
-4.69017e+06
-4.68983e+06
-4.68948e+06
-4.68913e+06
-4.68878e+06
-4.68843e+06
-4.68808e+06
-4.68773e+06
-4.68738e+06
-4.68703e+06
-4.68668e+06
-4.68632e+06
-4.68597e+06
-4.68562e+06
-4.68526e+06
-4.68491e+06
-4.68455e+06
-4.6842e+06
-4.68384e+06
-4.68349e+06
-4.68313e+06
-4.68277e+06
-4.68241e+06
-4.68206e+06
-4.6817e+06
-4.68134e+06
-4.68098e+06
-4.68061e+06
-4.68025e+06
-4.67989e+06
-4.67953e+06
-4.67916e+06
-4.6788e+06
-4.67843e+06
-4.67807e+06
-4.6777e+06
-4.67733e+06
-4.67697e+06
-4.6766e+06
-4.67623e+06
-4.67586e+06
-4.67549e+06
-4.67512e+06
-4.67475e+06
-4.67438e+06
-4.67401e+06
-4.67363e+06
-4.67326e+06
-4.67289e+06
-4.67251e+06
-4.67213e+06
-4.67176e+06
-4.67138e+06
-4.671e+06
-4.67063e+06
-4.67025e+06
-4.66987e+06
-4.66949e+06
-4.6691e+06
-4.66872e+06
-4.66834e+06
-4.66796e+06
-4.66757e+06
-4.66719e+06
-4.6668e+06
-4.66642e+06
-4.66603e+06
-4.66564e+06
-4.66525e+06
-4.66487e+06
-4.66447e+06
-4.66408e+06
-4.66369e+06
-4.6633e+06
-4.66291e+06
-4.66251e+06
-4.66212e+06
-4.66172e+06
-4.66133e+06
-4.66093e+06
-4.66053e+06
-4.66013e+06
-4.65973e+06
-4.65933e+06
-4.65893e+06
-4.65853e+06
-4.65813e+06
-4.65773e+06
-4.65732e+06
-4.65692e+06
-4.65651e+06
-4.6561e+06
-4.6557e+06
-4.65529e+06
-4.65488e+06
-4.65447e+06
-4.65406e+06
-4.65364e+06
-4.65323e+06
-4.65282e+06
-4.6524e+06
-4.65199e+06
-4.65157e+06
-4.65115e+06
-4.65074e+06
-4.65032e+06
-4.6499e+06
-4.64948e+06
-4.64906e+06
-4.64863e+06
-4.64821e+06
-4.64778e+06
-4.64736e+06
-4.64693e+06
-4.6465e+06
-4.64608e+06
-4.64565e+06
-4.64522e+06
-4.64479e+06
-4.64435e+06
-4.64392e+06
-4.64348e+06
-4.64305e+06
-4.64261e+06
-4.64217e+06
-4.64174e+06