/*--------------------------------*- C++ -*----------------------------------*\
  =========                 |
  \\      /  F ield         | OpenFOAM: The Open Source CFD Toolbox
   \\    /   O peration     | Website:  https://openfoam.org
    \\  /    A nd           | Version:  9
     \\/     M anipulation  |
\*---------------------------------------------------------------------------*/
FoamFile
{
    format      ascii;
    class       volScalarField;
    location    "0.019";
    object      ddt0(rho,K);
}
// * * * * * * * * * * * * * * * * * * * * * * * * * * * * * * * * * * * * * //

dimensions      [1 -1 -3 0 0 0 0];

internalField   nonuniform List<scalar> 
10000
(
322.409
319.287
326.569
325.124
322.157
319.657
316.944
313.491
309.227
304.231
298.527
292.077
284.851
276.856
268.142
258.719
248.543
237.607
225.935
213.53
200.381
186.495
171.874
156.508
140.402
123.562
105.987
87.6697
68.6101
48.8101
28.2715
6.99419
-15.0214
-37.7759
-61.2696
-85.502
-110.474
-136.185
-162.635
-189.824
-217.752
-246.42
-275.827
-305.972
-336.858
-368.483
-400.846
-433.949
-467.791
-502.373
-537.694
-573.754
-610.553
-648.092
-686.37
-725.388
-765.145
-805.642
-846.877
-888.852
-931.566
-975.02
-1019.21
-1064.15
-1109.82
-1156.23
-1203.38
-1251.27
-1299.9
-1349.27
-1399.38
-1450.23
-1501.81
-1554.14
-1607.21
-1661.01
-1715.56
-1770.85
-1826.87
-1883.64
-1941.14
-1999.38
-2058.37
-2118.09
-2178.55
-2239.76
-2301.7
-2364.38
-2427.8
-2491.96
-2556.86
-2622.5
-2688.88
-2756
-2823.86
-2892.46
-2961.8
-3031.88
-3102.7
-3174.26
-3246.56
-3319.6
-3393.37
-3467.89
-3543.15
-3619.14
-3695.88
-3773.35
-3851.57
-3930.52
-4010.22
-4090.66
-4171.83
-4253.74
-4336.4
-4419.8
-4503.93
-4588.81
-4674.42
-4760.77
-4847.87
-4935.7
-5024.28
-5113.59
-5203.65
-5294.44
-5385.98
-5478.25
-5571.26
-5665.01
-5759.51
-5854.74
-5950.71
-6047.43
-6144.88
-6243.08
-6342.01
-6441.69
-6542.11
-6643.26
-6745.15
-6847.79
-6951.16
-7055.28
-7160.13
-7265.73
-7372.06
-7479.14
-7586.95
-7695.51
-7804.8
-7914.84
-8025.62
-8137.13
-8249.39
-8362.38
-8476.12
-8590.6
-8705.81
-8821.77
-8938.47
-9055.9
-9174.08
-9293
-9412.66
-9533.05
-9654.19
-9776.07
-9898.69
-10022
-10146.1
-10271
-10396.6
-10522.9
-10649.9
-10777.7
-10906.3
-11035.6
-11165.6
-11296.3
-11427.8
-11560.1
-11693.1
-11826.8
-11961.3
-12096.5
-12232.4
-12369.1
-12506.5
-12644.7
-12783.6
-12923.2
-13063.6
-13204.7
-13346.6
-13489.2
-13632.5
-13776.6
-13921.5
-14067
-14213.3
-14360.4
-14508.2
-14656.7
-14806
-14956
-15106.7
-15258.2
-15410.4
-15563.4
-15717.1
-15871.6
-16026.8
-16182.7
-16339.4
-16496.8
-16654.9
-16813.8
-16973.5
-17133.8
-17295
-17456.8
-17619.4
-17782.7
-17946.8
-18111.6
-18277.2
-18443.5
-18610.5
-18778.3
-18946.8
-19116.1
-19286.1
-19456.8
-19628.3
-19800.5
-19973.5
-20147.2
-20321.6
-20496.8
-20672.7
-20849.4
-21026.8
-21204.9
-21383.8
-21563.4
-21743.8
-21924.9
-22106.7
-22289.3
-22472.6
-22656.7
-22841.5
-23027
-23213.3
-23400.3
-23588.1
-23776.6
-23965.9
-24155.8
-24346.6
-24538
-24730.2
-24923.2
-25116.9
-25311.3
-25506.5
-25702.4
-25899
-26096.4
-26294.5
-26493.4
-26693
-26893.4
-27094.5
-27296.3
-27498.9
-27702.2
-27906.2
-28111
-28316.5
-28522.8
-28729.8
-28937.6
-29146
-29355.3
-29565.2
-29776
-29987.4
-30199.6
-30412.5
-30626.2
-30840.6
-31055.7
-31271.6
-31488.3
-31705.6
-31923.7
-32142.6
-32362.2
-32582.5
-32803.6
-33025.4
-33247.9
-33471.2
-33695.2
-33920
-34145.5
-34371.8
-34598.8
-34826.5
-35055
-35284.2
-35514.1
-35744.8
-35976.2
-36208.4
-36441.3
-36674.9
-36909.3
-37144.4
-37380.3
-37616.9
-37854.3
-38092.3
-38331.2
-38570.7
-38811
-39052.1
-39293.9
-39536.4
-39779.6
-40023.6
-40268.4
-40513.9
-40760.1
-41007
-41254.7
-41503.2
-41752.4
-42002.3
-42252.9
-42504.3
-42756.5
-43009.3
-43263
-43517.3
-43772.4
-44028.2
-44284.8
-44542.1
-44800.2
-45059
-45318.5
-45578.8
-45839.8
-46101.5
-46364
-46627.3
-46891.2
-47155.9
-47421.4
-47687.6
-47954.5
-48222.1
-48490.5
-48759.7
-49029.6
-49300.2
-49571.6
-49843.7
-50116.5
-50390.1
-50664.4
-50939.5
-51215.3
-51491.8
-51769.1
-52047.1
-52325.8
-52605.3
-52885.6
-53166.5
-53448.2
-53730.7
-54013.9
-54297.8
-54582.5
-54867.9
-55154
-55440.9
-55728.5
-56016.9
-56306
-56595.8
-56886.4
-57177.7
-57469.8
-57762.6
-58056.1
-58350.4
-58645.4
-58941.2
-59237.7
-59534.9
-59832.9
-60131.6
-60431
-60731.2
-61032.1
-61333.8
-61636.2
-61939.4
-62243.2
-62547.9
-62853.2
-63159.3
-63466.1
-63773.7
-64082
-64391.1
-64700.9
-65011.4
-65322.7
-65634.7
-65947.4
-66260.9
-66575.1
-66890.1
-67205.8
-67522.2
-67839.4
-68157.3
-68476
-68795.4
-69115.5
-69436.4
-69758
-70080.4
-70403.4
-70727.3
-71051.8
-71377.1
-71703.2
-72030
-72357.5
-72685.7
-73014.7
-73344.5
-73674.9
-74006.1
-74338.1
-74670.8
-75004.2
-75338.4
-75673.3
-76008.9
-76345.3
-76682.4
-77020.3
-77358.8
-77698.2
-78038.3
-78379.1
-78720.6
-79062.9
-79405.9
-79749.7
-80094.2
-80439.4
-80785.4
-81132.1
-81479.6
-81827.8
-82176.7
-82526.3
-82876.8
-83227.9
-83579.8
-83932.4
-84285.7
-84639.8
-84994.7
-85350.2
-85706.5
-86063.6
-86421.4
-86779.9
-87139.2
-87499.1
-87859.9
-88221.4
-88583.6
-88946.5
-89310.2
-89674.6
-90039.8
-90405.7
-90772.3
-91139.7
-91507.8
-91876.6
-92246.2
-92616.5
-92987.6
-93359.4
-93731.9
-94105.2
-94479.2
-94854
-95229.4
-95605.7
-95982.6
-96360.3
-96738.8
-97117.9
-97497.8
-97878.5
-98259.9
-98642
-99024.9
-99408.5
-99792.8
-100178
-100564
-100950
-101337
-101726
-102114
-102504
-102894
-103285
-103677
-104069
-104462
-104856
-105251
-105646
-106042
-106439
-106837
-107235
-107634
-108034
-108435
-108836
-109238
-109641
-110044
-110448
-110853
-111259
-111665
-112073
-112481
-112889
-113299
-113709
-114120
-114531
-114944
-115357
-115770
-116185
-116600
-117016
-117433
-117850
-118269
-118688
-119107
-119528
-119949
-120371
-120794
-121217
-121641
-122066
-122491
-122918
-123345
-123773
-124201
-124630
-125060
-125491
-125923
-126355
-126788
-127221
-127656
-128091
-128527
-128964
-129401
-129839
-130278
-130717
-131158
-131599
-132041
-132483
-132926
-133370
-133815
-134261
-134707
-135154
-135601
-136050
-136499
-136949
-137399
-137851
-138303
-138756
-139209
-139663
-140118
-140574
-141031
-141488
-141946
-142404
-142864
-143324
-143785
-144247
-144709
-145172
-145636
-146100
-146566
-147032
-147499
-147966
-148434
-148903
-149373
-149844
-150315
-150787
-151259
-151733
-152207
-152682
-153157
-153634
-154111
-154588
-155067
-155546
-156026
-156507
-156988
-157471
-157954
-158437
-158922
-159407
-159893
-160379
-160867
-161355
-161844
-162333
-162823
-163314
-163806
-164299
-164792
-165286
-165781
-166276
-166772
-167269
-167767
-168265
-168764
-169264
-169765
-170266
-170768
-171271
-171774
-172278
-172783
-173289
-173795
-174303
-174811
-175319
-175829
-176339
-176849
-177361
-177873
-178386
-178900
-179415
-179930
-180446
-180963
-181480
-181998
-182517
-183037
-183557
-184078
-184600
-185123
-185646
-186170
-186695
-187220
-187746
-188273
-188801
-189329
-189859
-190389
-190919
-191450
-191983
-192515
-193049
-193583
-194118
-194654
-195191
-195728
-196266
-196804
-197344
-197884
-198425
-198966
-199509
-200052
-200596
-201140
-201686
-202232
-202778
-203326
-203874
-204423
-204973
-205523
-206074
-206626
-207179
-207732
-208286
-208841
-209396
-209953
-210510
-211067
-211626
-212185
-212745
-213306
-213867
-214429
-214992
-215556
-216120
-216685
-217251
-217817
-218385
-218953
-219521
-220091
-220661
-221232
-221803
-222376
-222949
-223523
-224097
-224673
-225249
-225825
-226403
-226981
-227560
-228140
-228720
-229301
-229883
-230466
-231049
-231633
-232218
-232803
-233390
-233977
-234564
-235153
-235742
-236332
-236922
-237514
-238106
-238699
-239292
-239886
-240481
-241077
-241674
-242271
-242869
-243468
-244067
-244667
-245268
-245869
-246472
-247075
-247679
-248283
-248888
-249494
-250101
-250708
-251317
-251925
-252535
-253145
-253756
-254368
-254981
-255594
-256208
-256823
-257438
-258054
-258671
-259289
-259907
-260526
-261146
-261767
-262388
-263010
-263633
-264256
-264880
-265505
-266131
-266757
-267384
-268012
-268641
-269270
-269900
-270531
-271162
-271795
-272427
-273061
-273696
-274331
-274967
-275603
-276240
-276878
-277517
-278157
-278797
-279438
-280079
-280722
-281365
-282009
-282653
-283299
-283945
-284592
-285239
-285887
-286536
-287186
-287836
-288487
-289139
-289792
-290445
-291099
-291754
-292409
-293066
-293723
-294380
-295039
-295698
-296358
-297018
-297680
-298342
-299004
-299668
-300332
-300997
-301663
-302329
-302996
-303664
-304333
-305002
-305672
-306343
-307014
-307686
-308359
-309033
-309707
-310382
-311058
-311735
-312412
-313090
-313769
-314448
-315129
-315809
-316491
-317173
-317857
-318540
-319225
-319910
-320596
-321283
-321970
-322658
-323347
-324037
-324727
-325418
-326110
-326803
-327496
-328190
-328885
-329580
-330276
-330973
-331671
-332369
-333068
-333768
-334468
-335169
-335871
-336574
-337277
-337981
-338686
-339392
-340098
-340805
-341513
-342221
-342931
-343640
-344351
-345062
-345774
-346487
-347201
-347915
-348630
-349346
-350062
-350779
-351497
-352216
-352935
-353655
-354376
-355097
-355819
-356542
-357266
-357990
-358715
-359441
-360168
-360895
-361623
-362352
-363081
-363811
-364542
-365274
-366006
-366739
-367473
-368207
-368942
-369678
-370415
-371152
-371890
-372629
-373369
-374109
-374850
-375592
-376334
-377077
-377821
-378566
-379311
-380057
-380804
-381551
-382299
-383048
-383798
-384548
-385299
-386051
-386804
-387557
-388311
-389066
-389821
-390577
-391334
-392091
-392850
-393609
-394368
-395129
-395890
-396652
-397414
-398178
-398942
-399707
-400472
-401238
-402005
-402773
-403541
-404310
-405080
-405851
-406622
-407394
-408166
-408940
-409714
-410489
-411264
-412041
-412818
-413595
-414374
-415153
-415933
-416713
-417495
-418277
-419059
-419843
-420627
-421412
-422198
-422984
-423771
-424559
-425347
-426136
-426926
-427717
-428508
-429300
-430093
-430887
-431681
-432476
-433272
-434068
-434865
-435663
-436461
-437261
-438061
-438861
-439663
-440465
-441268
-442071
-442876
-443681
-444486
-445293
-446100
-446908
-447716
-448526
-449336
-450146
-450958
-451770
-452583
-453396
-454211
-455026
-455842
-456658
-457475
-458293
-459112
-459931
-460751
-461572
-462393
-463215
-464038
-464862
-465686
-466511
-467337
-468164
-468991
-469819
-470647
-471477
-472307
-473137
-473969
-474801
-475634
-476468
-477302
-478137
-478973
-479809
-480647
-481484
-482323
-483162
-484002
-484843
-485685
-486527
-487370
-488213
-489058
-489903
-490749
-491595
-492442
-493290
-494139
-494988
-495838
-496689
-497540
-498393
-499246
-500099
-500954
-501809
-502664
-503521
-504378
-505236
-506094
-506954
-507814
-508675
-509536
-510398
-511261
-512125
-512989
-513854
-514720
-515586
-516453
-517321
-518190
-519059
-519929
-520800
-521671
-522543
-523416
-524290
-525164
-526039
-526915
-527791
-528668
-529546
-530424
-531304
-532184
-533064
-533946
-534828
-535711
-536594
-537478
-538363
-539249
-540135
-541022
-541910
-542799
-543688
-544578
-545468
-546360
-547252
-548144
-549038
-549932
-550827
-551722
-552619
-553516
-554413
-555312
-556211
-557111
-558011
-558912
-559814
-560717
-561620
-562524
-563429
-564335
-565241
-566148
-567055
-567964
-568873
-569783
-570693
-571604
-572516
-573429
-574342
-575256
-576171
-577086
-578002
-578919
-579836
-580755
-581674
-582593
-583514
-584435
-585356
-586279
-587202
-588126
-589051
-589976
-590902
-591829
-592756
-593684
-594613
-595543
-596473
-597404
-598335
-599268
-600201
-601135
-602069
-603004
-603940
-604877
-605814
-606752
-607691
-608630
-609570
-610511
-611453
-612395
-613338
-614281
-615226
-616171
-617116
-618063
-619010
-619958
-620907
-621856
-622806
-623756
-624708
-625660
-626613
-627566
-628520
-629475
-630431
-631387
-632344
-633302
-634260
-635219
-636179
-637140
-638101
-639063
-640026
-640989
-641953
-642918
-643883
-644849
-645816
-646784
-647752
-648721
-649690
-650661
-651632
-652604
-653576
-654549
-655523
-656498
-657473
-658449
-659425
-660403
-661381
-662360
-663339
-664319
-665300
-666282
-667264
-668247
-669231
-670215
-671200
-672186
-673172
-674159
-675147
-676136
-677125
-678115
-679106
-680097
-681089
-682082
-683075
-684069
-685064
-686060
-687056
-688053
-689051
-690049
-691048
-692048
-693048
-694049
-695051
-696054
-697057
-698061
-699066
-700071
-701077
-702084
-703091
-704099
-705108
-706117
-707128
-708139
-709150
-710162
-711175
-712189
-713203
-714219
-715234
-716251
-717268
-718286
-719304
-720324
-721344
-722364
-723385
-724408
-725430
-726454
-727478
-728503
-729528
-730554
-731581
-732609
-733637
-734666
-735696
-736726
-737757
-738789
-739821
-740855
-741888
-742923
-743958
-744994
-746031
-747068
-748106
-749145
-750184
-751224
-752265
-753306
-754348
-755391
-756435
-757479
-758524
-759570
-760616
-761663
-762711
-763759
-764808
-765858
-766908
-767959
-769011
-770064
-771117
-772171
-773226
-774281
-775337
-776394
-777451
-778509
-779568
-780627
-781687
-782748
-783810
-784872
-785935
-786998
-788063
-789127
-790193
-791259
-792326
-793394
-794463
-795532
-796601
-797672
-798743
-799815
-800887
-801961
-803035
-804109
-805184
-806260
-807337
-808414
-809492
-810571
-811651
-812731
-813812
-814893
-815975
-817058
-818142
-819226
-820311
-821396
-822482
-823569
-824657
-825745
-826834
-827924
-829015
-830106
-831197
-832290
-833383
-834477
-835571
-836666
-837762
-838859
-839956
-841054
-842153
-843252
-844352
-845453
-846554
-847656
-848759
-849862
-850966
-852071
-853176
-854283
-855389
-856497
-857605
-858714
-859823
-860934
-862045
-863156
-864268
-865381
-866495
-867609
-868724
-869840
-870956
-872073
-873191
-874309
-875429
-876548
-877669
-878790
-879912
-881034
-882157
-883281
-884406
-885531
-886657
-887783
-888911
-890039
-891167
-892296
-893426
-894557
-895688
-896820
-897953
-899086
-900220
-901355
-902491
-903627
-904763
-905901
-907039
-908178
-909317
-910457
-911598
-912739
-913882
-915024
-916168
-917312
-918457
-919603
-920749
-921896
-923043
-924192
-925340
-926490
-927640
-928791
-929943
-931095
-932248
-933402
-934556
-935711
-936867
-938023
-939180
-940338
-941496
-942655
-943815
-944975
-946136
-947298
-948460
-949624
-950787
-951952
-953117
-954283
-955449
-956616
-957784
-958952
-960121
-961291
-962462
-963633
-964805
-965977
-967150
-968324
-969498
-970674
-971849
-973026
-974203
-975381
-976559
-977739
-978918
-980099
-981280
-982462
-983644
-984828
-986012
-987196
-988381
-989567
-990754
-991941
-993129
-994317
-995506
-996696
-997887
-999078
-1.00027e+06
-1.00146e+06
-1.00266e+06
-1.00385e+06
-1.00504e+06
-1.00624e+06
-1.00743e+06
-1.00863e+06
-1.00983e+06
-1.01103e+06
-1.01222e+06
-1.01342e+06
-1.01462e+06
-1.01582e+06
-1.01703e+06
-1.01823e+06
-1.01943e+06
-1.02063e+06
-1.02184e+06
-1.02304e+06
-1.02425e+06
-1.02545e+06
-1.02666e+06
-1.02787e+06
-1.02907e+06
-1.03028e+06
-1.03149e+06
-1.0327e+06
-1.03391e+06
-1.03512e+06
-1.03633e+06
-1.03755e+06
-1.03876e+06
-1.03997e+06
-1.04119e+06
-1.0424e+06
-1.04362e+06
-1.04484e+06
-1.04605e+06
-1.04727e+06
-1.04849e+06
-1.04971e+06
-1.05093e+06
-1.05215e+06
-1.05337e+06
-1.05459e+06
-1.05581e+06
-1.05704e+06
-1.05826e+06
-1.05948e+06
-1.06071e+06
-1.06193e+06
-1.06316e+06
-1.06439e+06
-1.06561e+06
-1.06684e+06
-1.06807e+06
-1.0693e+06
-1.07053e+06
-1.07176e+06
-1.07299e+06
-1.07422e+06
-1.07546e+06
-1.07669e+06
-1.07792e+06
-1.07916e+06
-1.08039e+06
-1.08163e+06
-1.08286e+06
-1.0841e+06
-1.08534e+06
-1.08658e+06
-1.08781e+06
-1.08905e+06
-1.09029e+06
-1.09154e+06
-1.09278e+06
-1.09402e+06
-1.09526e+06
-1.09651e+06
-1.09775e+06
-1.099e+06
-1.10025e+06
-1.1015e+06
-1.10274e+06
-1.10399e+06
-1.10524e+06
-1.1065e+06
-1.10775e+06
-1.109e+06
-1.11025e+06
-1.11151e+06
-1.11276e+06
-1.11402e+06
-1.11527e+06
-1.11653e+06
-1.11778e+06
-1.11904e+06
-1.12029e+06
-1.12156e+06
-1.1228e+06
-1.12408e+06
-1.12532e+06
-1.1266e+06
-1.12783e+06
-1.12913e+06
-1.13034e+06
-1.13166e+06
-1.13284e+06
-1.1342e+06
-1.13535e+06
-1.13674e+06
-1.13787e+06
-1.13928e+06
-1.14039e+06
-1.14181e+06
-1.14292e+06
-1.14434e+06
-1.14548e+06
-1.14684e+06
-1.14809e+06
-1.14933e+06
-1.1506e+06
-1.15191e+06
-1.15317e+06
-1.15444e+06
-1.15573e+06
-1.15698e+06
-1.15825e+06
-1.15953e+06
-1.16083e+06
-1.1621e+06
-1.16338e+06
-1.16466e+06
-1.16594e+06
-1.16721e+06
-1.16849e+06
-1.16977e+06
-1.17106e+06
-1.17234e+06
-1.17364e+06
-1.17488e+06
-1.17626e+06
-1.17739e+06
-1.17889e+06
-1.17987e+06
-1.18155e+06
-1.18239e+06
-1.18418e+06
-1.18495e+06
-1.18673e+06
-1.18761e+06
-1.18917e+06
-1.19037e+06
-1.19157e+06
-1.19305e+06
-1.19409e+06
-1.19578e+06
-1.19659e+06
-1.19837e+06
-1.19921e+06
-1.2009e+06
-1.20185e+06
-1.20344e+06
-1.20455e+06
-1.20595e+06
-1.20726e+06
-1.20842e+06
-1.21e+06
-1.21085e+06
-1.21274e+06
-1.21337e+06
-1.21536e+06
-1.2161e+06
-1.21776e+06
-1.219e+06
-1.22005e+06
-1.22185e+06
-1.22248e+06
-1.22453e+06
-1.2252e+06
-1.22701e+06
-1.22797e+06
-1.22947e+06
-1.23075e+06
-1.23189e+06
-1.23356e+06
-1.23435e+06
-1.23635e+06
-1.23691e+06
-1.23895e+06
-1.23973e+06
-1.24122e+06
-1.24279e+06
-1.24345e+06
-1.24566e+06
-1.24609e+06
-1.24812e+06
-1.24901e+06
-1.25049e+06
-1.25187e+06
-1.25292e+06
-1.25471e+06
-1.25537e+06
-1.25752e+06
-1.258e+06
-1.25997e+06
-1.26108e+06
-1.26208e+06
-1.2642e+06
-1.26448e+06
-1.26682e+06
-1.26741e+06
-1.26908e+06
-1.27051e+06
-1.27136e+06
-1.27343e+06
-1.2739e+06
-1.27608e+06
-1.27672e+06
-1.27845e+06
-1.27979e+06
-1.28066e+06
-1.28288e+06
-1.2831e+06
-1.28547e+06
-1.28619e+06
-1.28756e+06
-1.2894e+06
-1.2899e+06
-1.29218e+06
-1.29267e+06
-1.29466e+06
-1.29564e+06
-1.29693e+06
-1.29884e+06
-1.29914e+06
-1.30174e+06
-1.30205e+06
-1.30382e+06
-1.30547e+06
-1.30599e+06
-1.30833e+06
-1.30878e+06
-1.31086e+06
-1.31167e+06
-1.31318e+06
-1.315e+06
-1.31522e+06
-1.318e+06
-1.31822e+06
-1.31997e+06
-1.3217e+06
-1.32217e+06
-1.32459e+06
-1.32493e+06
-1.32711e+06
-1.32801e+06
-1.32921e+06
-1.33143e+06
-1.33146e+06
-1.33412e+06
-1.33466e+06
-1.33611e+06
-1.33811e+06
-1.33833e+06
-1.34098e+06
-1.3413e+06
-1.34316e+06
-1.34469e+06
-1.34526e+06
-1.34787e+06
-1.34787e+06
-1.35024e+06
-1.35141e+06
-1.35205e+06
-1.35473e+06
-1.35476e+06
-1.35708e+06
-1.35803e+06
-1.3592e+06
-1.3615e+06
-1.36136e+06
-1.36422e+06
-1.36486e+06
-1.36591e+06
-1.36835e+06
-1.36843e+06
-1.37103e+06
-1.37147e+06
-1.37311e+06
-1.37523e+06
-1.37502e+06
-1.37805e+06
-1.37847e+06
-1.37987e+06
-1.38203e+06
-1.38208e+06
-1.38497e+06
-1.38521e+06
-1.38687e+06
-1.38898e+06
-1.38889e+06
-1.39193e+06
-1.39214e+06
-1.3937e+06
-1.39596e+06
-1.39587e+06
-1.39878e+06
-1.39911e+06
-1.40067e+06
-1.4029e+06
-1.40269e+06
-1.40573e+06
-1.40617e+06
-1.40744e+06
-1.40994e+06
-1.40975e+06
-1.41257e+06
-1.4132e+06
-1.41431e+06
-1.41698e+06
-1.41668e+06
-1.41937e+06
-1.42046e+06
-1.42115e+06
-1.42387e+06
-1.42384e+06
-1.42627e+06
-1.4275e+06
-1.42795e+06
-1.43097e+06
-1.43101e+06
-1.43293e+06
-1.43468e+06
-1.43503e+06
-1.4379e+06
-1.43808e+06
-1.43973e+06
-1.44198e+06
-1.44198e+06
-1.44467e+06
-1.4454e+06
-1.44659e+06
-1.44907e+06
-1.44902e+06
-1.45152e+06
-1.45275e+06
-1.45339e+06
-1.4561e+06
-1.45627e+06
-1.4583e+06
-1.46004e+06
-1.46032e+06
-1.46309e+06
-1.46359e+06
-1.46504e+06
-1.46733e+06
-1.4674e+06
-1.46988e+06
-1.47099e+06
-1.4719e+06
-1.47446e+06
-1.47457e+06
-1.47668e+06
-1.47848e+06
-1.4788e+06
-1.48136e+06
-1.482e+06
-1.48353e+06
-1.48577e+06
-1.48583e+06
-1.48822e+06
-1.48958e+06
-1.49035e+06
-1.49282e+06
-1.49315e+06
-1.49506e+06
-1.49705e+06
-1.49729e+06
-1.49974e+06
-1.5007e+06
-1.50187e+06
-1.50428e+06
-1.50452e+06
-1.50657e+06
-1.50825e+06
-1.50876e+06
-1.51131e+06
-1.51206e+06
-1.51336e+06
-1.5156e+06
-1.51594e+06
-1.51818e+06
-1.51966e+06
-1.52023e+06
-1.5227e+06
-1.52345e+06
-1.52497e+06
-1.52709e+06
-1.52738e+06
-1.52959e+06
-1.5311e+06
-1.53185e+06
-1.53422e+06
-1.53487e+06
-1.53641e+06
-1.5386e+06
-1.539e+06
-1.54109e+06
-1.54254e+06
-1.54336e+06
-1.54578e+06
-1.54648e+06
-1.54787e+06
-1.55007e+06
-1.55061e+06
-1.55265e+06
-1.55413e+06
-1.55485e+06
-1.55726e+06
-1.55815e+06
-1.55942e+06
-1.56162e+06
-1.5622e+06
-1.56413e+06
-1.56579e+06
-1.56643e+06
-1.56875e+06
-1.56987e+06
-1.57097e+06
-1.5732e+06
-1.57386e+06
-1.5756e+06
-1.57752e+06
-1.57812e+06
-1.58023e+06
-1.58155e+06
-1.5825e+06
-1.58483e+06
-1.58568e+06
-1.58707e+06
-1.58915e+06
-1.58982e+06
-1.59176e+06
-1.59339e+06
-1.59411e+06
-1.59632e+06
-1.5975e+06
-1.59864e+06
-1.60085e+06
-1.60163e+06
-1.6032e+06
-1.60516e+06
-1.60587e+06
-1.60786e+06
-1.60938e+06
-1.61023e+06
-1.61243e+06
-1.61353e+06
-1.61475e+06
-1.6169e+06
-1.61771e+06
-1.61935e+06
-1.62124e+06
-1.62199e+06
-1.62396e+06
-1.62547e+06
-1.62637e+06
-1.62853e+06
-1.62968e+06
-1.63089e+06
-1.633e+06
-1.63388e+06
-1.63547e+06
-1.63739e+06
-1.63819e+06
-1.64007e+06
-1.64165e+06
-1.64254e+06
-1.64464e+06
-1.64592e+06
-1.64706e+06
-1.64917e+06
-1.65016e+06
-1.65158e+06
-1.65357e+06
-1.65444e+06
-1.6562e+06
-1.65795e+06
-1.65882e+06
-1.66078e+06
-1.66222e+06
-1.66323e+06
-1.6653e+06
-1.6665e+06
-1.66775e+06
-1.66982e+06
-1.67081e+06
-1.67233e+06
-1.67423e+06
-1.67513e+06
-1.67688e+06
-1.67858e+06
-1.67952e+06
-1.68147e+06
-1.68295e+06
-1.684e+06
-1.68602e+06
-1.68724e+06
-1.68847e+06
-1.69048e+06
-1.69156e+06
-1.69304e+06
-1.69498e+06
-1.69596e+06
-1.69763e+06
-1.69938e+06
-1.70033e+06
-1.70216e+06
-1.70372e+06
-1.70475e+06
-1.70671e+06
-1.7081e+06
-1.70926e+06
-1.71125e+06
-1.71246e+06
-1.71378e+06
-1.71574e+06
-1.71682e+06
-1.71831e+06
-1.72019e+06
-1.72121e+06
-1.72286e+06
-1.72461e+06
-1.72562e+06
-1.72741e+06
-1.72902e+06
-1.73008e+06
-1.73197e+06
-1.73342e+06
-1.73457e+06
-1.7365e+06
-1.73781e+06
-1.73906e+06
-1.74098e+06
-1.74218e+06
-1.74357e+06
-1.74547e+06
-1.7466e+06
-1.74812e+06
-1.74995e+06
-1.75104e+06
-1.75268e+06
-1.75442e+06
-1.75549e+06
-1.75723e+06
-1.75886e+06
-1.75995e+06
-1.76176e+06
-1.76329e+06
-1.76444e+06
-1.7663e+06
-1.76773e+06
-1.76895e+06
-1.77084e+06
-1.77217e+06
-1.77347e+06
-1.77535e+06
-1.77661e+06
-1.77799e+06
-1.77985e+06
-1.78105e+06
-1.78252e+06
-1.78433e+06
-1.78549e+06
-1.78704e+06
-1.7888e+06
-1.78994e+06
-1.79157e+06
-1.79327e+06
-1.79441e+06
-1.79609e+06
-1.79773e+06
-1.79888e+06
-1.80062e+06
-1.80219e+06
-1.80336e+06
-1.80514e+06
-1.80665e+06
-1.80785e+06
-1.80966e+06
-1.81111e+06
-1.81235e+06
-1.81417e+06
-1.81557e+06
-1.81685e+06
-1.81867e+06
-1.82003e+06
-1.82136e+06
-1.82318e+06
-1.82449e+06
-1.82587e+06
-1.82767e+06
-1.82896e+06
-1.83038e+06
-1.83217e+06
-1.83343e+06
-1.83489e+06
-1.83666e+06
-1.8379e+06
-1.8394e+06
-1.84114e+06
-1.84237e+06
-1.8439e+06
-1.84562e+06
-1.84685e+06
-1.84841e+06
-1.85011e+06
-1.85132e+06
-1.85291e+06
-1.85458e+06
-1.8558e+06
-1.85741e+06
-1.85906e+06
-1.86028e+06
-1.86191e+06
-1.86354e+06
-1.86476e+06
-1.8664e+06
-1.86801e+06
-1.86924e+06
-1.87089e+06
-1.87249e+06
-1.87372e+06
-1.87538e+06
-1.87696e+06
-1.8782e+06
-1.87987e+06
-1.88143e+06
-1.88268e+06
-1.88435e+06
-1.8859e+06
-1.88716e+06
-1.88883e+06
-1.89037e+06
-1.89163e+06
-1.89331e+06
-1.89484e+06
-1.89611e+06
-1.89778e+06
-1.8993e+06
-1.90058e+06
-1.90224e+06
-1.90377e+06
-1.90504e+06
-1.90671e+06
-1.90823e+06
-1.90951e+06
-1.91117e+06
-1.91269e+06
-1.91397e+06
-1.91563e+06
-1.91715e+06
-1.91843e+06
-1.92008e+06
-1.9216e+06
-1.92289e+06
-1.92453e+06
-1.92606e+06
-1.92734e+06
-1.92897e+06
-1.93051e+06
-1.93179e+06
-1.93342e+06
-1.93495e+06
-1.93624e+06
-1.93785e+06
-1.9394e+06
-1.94068e+06
-1.94228e+06
-1.94384e+06
-1.94512e+06
-1.94671e+06
-1.94827e+06
-1.94956e+06
-1.95113e+06
-1.9527e+06
-1.95399e+06
-1.95555e+06
-1.95713e+06
-1.95842e+06
-1.95996e+06
-1.96155e+06
-1.96284e+06
-1.96436e+06
-1.96596e+06
-1.96726e+06
-1.96876e+06
-1.97037e+06
-1.97167e+06
-1.97316e+06
-1.97477e+06
-1.97608e+06
-1.97754e+06
-1.97916e+06
-1.98049e+06
-1.98192e+06
-1.98354e+06
-1.98488e+06
-1.9863e+06
-1.98792e+06
-1.98928e+06
-1.99067e+06
-1.99229e+06
-1.99366e+06
-1.99503e+06
-1.99664e+06
-1.99803e+06
-1.99939e+06
-2.00099e+06
-2.0024e+06
-2.00374e+06
-2.00533e+06
-2.00676e+06
-2.00808e+06
-2.00966e+06
-2.01111e+06
-2.01242e+06
-2.01397e+06
-2.01546e+06
-2.01675e+06
-2.01828e+06
-2.01978e+06
-2.02108e+06
-2.02258e+06
-2.0241e+06
-2.02539e+06
-2.02687e+06
-2.0284e+06
-2.0297e+06
-2.03114e+06
-2.03268e+06
-2.034e+06
-2.0354e+06
-2.03695e+06
-2.03828e+06
-2.03966e+06
-2.04121e+06
-2.04255e+06
-2.0439e+06
-2.04544e+06
-2.04681e+06
-2.04813e+06
-2.04966e+06
-2.05105e+06
-2.05235e+06
-2.05386e+06
-2.05527e+06
-2.05656e+06
-2.05804e+06
-2.05948e+06
-2.06075e+06
-2.0622e+06
-2.06366e+06
-2.06493e+06
-2.06634e+06
-2.06781e+06
-2.06909e+06
-2.07047e+06
-2.07195e+06
-2.07323e+06
-2.07458e+06
-2.07605e+06
-2.07736e+06
-2.07866e+06
-2.08013e+06
-2.08145e+06
-2.08273e+06
-2.08418e+06
-2.08552e+06
-2.08678e+06
-2.0882e+06
-2.08956e+06
-2.09079e+06
-2.09219e+06
-2.09357e+06
-2.09479e+06
-2.09614e+06
-2.09754e+06
-2.09876e+06
-2.10007e+06
-2.10147e+06
-2.1027e+06
-2.10397e+06
-2.10536e+06
-2.1066e+06
-2.10783e+06
-2.1092e+06
-2.11046e+06
-2.11165e+06
-2.113e+06
-2.11427e+06
-2.11544e+06
-2.11674e+06
-2.11804e+06
-2.11918e+06
-2.12045e+06
-2.12174e+06
-2.12288e+06
-2.1241e+06
-2.12539e+06
-2.12653e+06
-2.12769e+06
-2.12897e+06
-2.13012e+06
-2.13123e+06
-2.13248e+06
-2.13364e+06
-2.13472e+06
-2.13592e+06
-2.13709e+06
-2.13813e+06
-2.13929e+06
-2.14045e+06
-2.14148e+06
-2.14258e+06
-2.14373e+06
-2.14474e+06
-2.14578e+06
-2.14691e+06
-2.14792e+06
-2.1489e+06
-2.14999e+06
-2.15099e+06
-2.15192e+06
-2.15296e+06
-2.15395e+06
-2.15484e+06
-2.15581e+06
-2.15679e+06
-2.15764e+06
-2.15855e+06
-2.1595e+06
-2.16032e+06
-2.16115e+06
-2.16206e+06
-2.16286e+06
-2.16361e+06
-2.16446e+06
-2.16524e+06
-2.16592e+06
-2.1667e+06
-2.16744e+06
-2.16806e+06
-2.16874e+06
-2.16945e+06
-2.17001e+06
-2.1706e+06
-2.17124e+06
-2.17175e+06
-2.17224e+06
-2.17279e+06
-2.17326e+06
-2.17364e+06
-2.1741e+06
-2.17451e+06
-2.17479e+06
-2.17513e+06
-2.17546e+06
-2.17566e+06
-2.17586e+06
-2.1761e+06
-2.1762e+06
-2.17627e+06
-2.17638e+06
-2.1764e+06
-2.17631e+06
-2.17628e+06
-2.17618e+06
-2.17596e+06
-2.17575e+06
-2.17553e+06
-2.17515e+06
-2.17476e+06
-2.17437e+06
-2.17384e+06
-2.17324e+06
-2.17266e+06
-2.17196e+06
-2.17114e+06
-2.17034e+06
-2.16944e+06
-2.16839e+06
-2.16733e+06
-2.1662e+06
-2.16491e+06
-2.16355e+06
-2.16216e+06
-2.1606e+06
-2.15892e+06
-2.15721e+06
-2.15535e+06
-2.15332e+06
-2.15124e+06
-2.14905e+06
-2.14664e+06
-2.14414e+06
-2.14154e+06
-2.13873e+06
-2.13576e+06
-2.1327e+06
-2.12942e+06
-2.12594e+06
-2.12235e+06
-2.11856e+06
-2.1145e+06
-2.1103e+06
-2.10592e+06
-2.10125e+06
-2.09637e+06
-2.09131e+06
-2.08595e+06
-2.08031e+06
-2.07449e+06
-2.06836e+06
-2.06189e+06
-2.0552e+06
-2.04821e+06
-2.04085e+06
-2.03319e+06
-2.02524e+06
-2.01689e+06
-2.00817e+06
-1.99916e+06
-1.98973e+06
-1.97986e+06
-1.96966e+06
-1.95906e+06
-1.94796e+06
-1.93647e+06
-1.92458e+06
-1.91217e+06
-1.89929e+06
-1.88601e+06
-1.8722e+06
-1.85786e+06
-1.84308e+06
-1.82779e+06
-1.81193e+06
-1.79556e+06
-1.77871e+06
-1.76126e+06
-1.74326e+06
-1.72477e+06
-1.7057e+06
-1.68603e+06
-1.66586e+06
-1.64514e+06
-1.6238e+06
-1.60193e+06
-1.57954e+06
-1.55655e+06
-1.533e+06
-1.50897e+06
-1.48437e+06
-1.45921e+06
-1.43358e+06
-1.40745e+06
-1.38077e+06
-1.35364e+06
-1.32607e+06
-1.29801e+06
-1.26951e+06
-1.24065e+06
-1.21138e+06
-1.18169e+06
-1.1517e+06
-1.12139e+06
-1.09074e+06
-1.05983e+06
-1.02871e+06
-997336
-965756
-934068
-902239
-870274
-838275
-806270
-774214
-742200
-710292
-678456
-646723
-615200
-583875
-552733
-521878
-491339
-461086
-431169
-401679
-372572
-343866
-315647
-287923
-260656
-233919
-207761
-182127
-157052
-132601
-108754
-85475.2
-62846.2
-40869.2
-19494.7
1245.42
21302.3
40726.6
59537.3
77668
95146.9
112020
128257
143829
158809
173195
186947
200105
212718
224748
236194
247132
257549
267422
276800
285729
294164
302131
309692
316834
323540
329869
335853
341447
346693
351639
356272
360573
364614
368401
371906
375162
378219
381048
383645
386073
388328
390386
392278
394051
395662
397121
398478
399727
400838
401851
402796
403632
404372
405057
405679
406204
406679
407118
407488
407794
408081
408329
408512
408673
408819
408920
408978
409040
409076
409070
409053
409039
408990
408916
408853
408775
408668
408556
408458
408330
408188
408058
407924
407762
407605
407461
407295
407118
406955
406793
406604
406425
406257
406075
405878
405702
405525
405326
405134
404956
404766
404561
404377
404192
403991
403790
403610
403415
403208
403018
402832
402629
402425
402242
402045
401839
401644
401459
401254
401051
400863
400670
400462
400265
400080
399875
399672
399481
399290
399081
398884
398696
398496
398289
398098
397907
397700
397501
397311
397115
396906
396714
396522
396319
396115
395927
395731
395523
395328
395138
394937
394730
394542
394346
394141
393941
393753
393552
393347
393154
392962
392758
392555
392367
392168
391964
391766
391577
391373
391170
390979
390784
390579
390379
390190
389989
389785
389590
389399
389193
388993
388801
388605
388399
388203
388012
387809
387607
387412
387220
387013
386815
386623
386425
386219
386025
385832
385629
385427
385234
385039
384833
384636
384443
384245
384039
383845
383651
383449
383246
383054
382858
382652
382455
382262
382063
381858
381665
381469
381267
381065
380873
380675
380471
380274
380080
379881
379676
379483
379287
379086
378883
378691
378493
378290
378091
377898
377698
377494
377300
377104
376903
376700
376508
376309
376107
375907
375715
375515
375312
375115
374920
374720
374517
374323
374125
373924
373723
373530
373331
373128
372930
372736
372536
372333
372138
371941
371740
371538
371345
371146
370945
370745
370551
370351
370149
369952
369757
369556
369354
369159
368961
368760
368559
368366
368166
367965
367766
367571
367371
367169
366973
366776
366576
366373
366179
365981
365780
365579
365385
365185
364984
364785
364590
364390
364188
363992
363794
363595
363392
363198
362999
362799
362598
362403
362204
362002
361804
361608
361409
361206
361010
360812
360613
360411
360215
360017
359817
359616
359420
359222
359020
358822
358625
358427
358224
358027
357830
357631
357429
357232
357035
356835
356634
356437
356240
356038
355839
355641
355445
355242
355044
354846
354649
354446
354249
354052
353852
353651
353453
353257
353056
352856
352658
352462
352260
352061
351863
351666
351464
351265
351068
350869
350669
350469
350273
350073
349873
349673
349478
349277
349077
348879
348682
348482
348281
348084
347886
347686
347485