/*--------------------------------*- C++ -*----------------------------------*\
  =========                 |
  \\      /  F ield         | OpenFOAM: The Open Source CFD Toolbox
   \\    /   O peration     | Website:  https://openfoam.org
    \\  /    A nd           | Version:  9
     \\/     M anipulation  |
\*---------------------------------------------------------------------------*/
FoamFile
{
    format      ascii;
    class       volScalarField;
    location    "0.019";
    object      p_0;
}
// * * * * * * * * * * * * * * * * * * * * * * * * * * * * * * * * * * * * * //

dimensions      [1 -1 -2 0 0 0 0];

internalField   nonuniform List<scalar> 
10000
(
46200.6
46200.2
46199.9
46199.6
46199.3
46199
46198.7
46198.4
46198.1
46197.8
46197.6
46197.3
46197
46196.7
46196.4
46196.1
46195.8
46195.5
46195.2
46194.9
46194.6
46194.3
46194
46193.7
46193.4
46193.1
46192.8
46192.4
46192.1
46191.8
46191.5
46191.2
46190.9
46190.6
46190.3
46190
46189.7
46189.4
46189.1
46188.8
46188.5
46188.2
46187.8
46187.5
46187.2
46186.9
46186.6
46186.3
46186
46185.7
46185.3
46185
46184.7
46184.4
46184.1
46183.8
46183.5
46183.1
46182.8
46182.5
46182.2
46181.9
46181.5
46181.2
46180.9
46180.6
46180.3
46179.9
46179.6
46179.3
46179
46178.7
46178.3
46178
46177.7
46177.4
46177
46176.7
46176.4
46176.1
46175.7
46175.4
46175.1
46174.8
46174.4
46174.1
46173.8
46173.4
46173.1
46172.8
46172.4
46172.1
46171.8
46171.4
46171.1
46170.8
46170.5
46170.1
46169.8
46169.4
46169.1
46168.8
46168.4
46168.1
46167.8
46167.4
46167.1
46166.8
46166.4
46166.1
46165.7
46165.4
46165.1
46164.7
46164.4
46164
46163.7
46163.3
46163
46162.7
46162.3
46162
46161.6
46161.3
46160.9
46160.6
46160.2
46159.9
46159.5
46159.2
46158.9
46158.5
46158.2
46157.8
46157.5
46157.1
46156.8
46156.4
46156
46155.7
46155.3
46155
46154.6
46154.3
46153.9
46153.6
46153.2
46152.9
46152.5
46152.2
46151.8
46151.4
46151.1
46150.7
46150.4
46150
46149.6
46149.3
46148.9
46148.6
46148.2
46147.8
46147.5
46147.1
46146.7
46146.4
46146
46145.7
46145.3
46144.9
46144.6
46144.2
46143.8
46143.5
46143.1
46142.7
46142.4
46142
46141.6
46141.2
46140.9
46140.5
46140.1
46139.8
46139.4
46139
46138.6
46138.3
46137.9
46137.5
46137.2
46136.8
46136.4
46136
46135.7
46135.3
46134.9
46134.5
46134.1
46133.8
46133.4
46133
46132.6
46132.2
46131.9
46131.5
46131.1
46130.7
46130.3
46130
46129.6
46129.2
46128.8
46128.4
46128
46127.6
46127.3
46126.9
46126.5
46126.1
46125.7
46125.3
46124.9
46124.5
46124.2
46123.8
46123.4
46123
46122.6
46122.2
46121.8
46121.4
46121
46120.6
46120.2
46119.8
46119.5
46119.1
46118.7
46118.3
46117.9
46117.5
46117.1
46116.7
46116.3
46115.9
46115.5
46115.1
46114.7
46114.3
46113.9
46113.5
46113.1
46112.7
46112.3
46111.9
46111.5
46111.1
46110.7
46110.3
46109.8
46109.4
46109
46108.6
46108.2
46107.8
46107.4
46107
46106.6
46106.2
46105.8
46105.4
46105
46104.5
46104.1
46103.7
46103.3
46102.9
46102.5
46102.1
46101.7
46101.2
46100.8
46100.4
46100
46099.6
46099.2
46098.7
46098.3
46097.9
46097.5
46097.1
46096.7
46096.2
46095.8
46095.4
46095
46094.5
46094.1
46093.7
46093.3
46092.9
46092.4
46092
46091.6
46091.2
46090.7
46090.3
46089.9
46089.5
46089
46088.6
46088.2
46087.7
46087.3
46086.9
46086.5
46086
46085.6
46085.2
46084.7
46084.3
46083.9
46083.4
46083
46082.6
46082.1
46081.7
46081.3
46080.8
46080.4
46080
46079.5
46079.1
46078.6
46078.2
46077.8
46077.3
46076.9
46076.4
46076
46075.6
46075.1
46074.7
46074.2
46073.8
46073.4
46072.9
46072.5
46072
46071.6
46071.1
46070.7
46070.2
46069.8
46069.3
46068.9
46068.4
46068
46067.5
46067.1
46066.7
46066.2
46065.7
46065.3
46064.8
46064.4
46063.9
46063.5
46063
46062.6
46062.1
46061.7
46061.2
46060.8
46060.3
46059.8
46059.4
46058.9
46058.5
46058
46057.6
46057.1
46056.6
46056.2
46055.7
46055.3
46054.8
46054.3
46053.9
46053.4
46052.9
46052.5
46052
46051.6
46051.1
46050.6
46050.2
46049.7
46049.2
46048.8
46048.3
46047.8
46047.4
46046.9
46046.4
46045.9
46045.5
46045
46044.5
46044.1
46043.6
46043.1
46042.6
46042.2
46041.7
46041.2
46040.7
46040.3
46039.8
46039.3
46038.8
46038.4
46037.9
46037.4
46036.9
46036.5
46036
46035.5
46035
46034.5
46034.1
46033.6
46033.1
46032.6
46032.1
46031.6
46031.2
46030.7
46030.2
46029.7
46029.2
46028.7
46028.2
46027.8
46027.3
46026.8
46026.3
46025.8
46025.3
46024.8
46024.3
46023.8
46023.4
46022.9
46022.4
46021.9
46021.4
46020.9
46020.4
46019.9
46019.4
46018.9
46018.4
46017.9
46017.4
46016.9
46016.4
46015.9
46015.4
46014.9
46014.4
46013.9
46013.4
46012.9
46012.4
46011.9
46011.4
46010.9
46010.4
46009.9
46009.4
46008.9
46008.4
46007.9
46007.4
46006.9
46006.4
46005.9
46005.4
46004.9
46004.4
46003.9
46003.3
46002.8
46002.3
46001.8
46001.3
46000.8
46000.3
45999.8
45999.3
45998.7
45998.2
45997.7
45997.2
45996.7
45996.2
45995.7
45995.1
45994.6
45994.1
45993.6
45993.1
45992.6
45992
45991.5
45991
45990.5
45990
45989.4
45988.9
45988.4
45987.9
45987.3
45986.8
45986.3
45985.8
45985.3
45984.7
45984.2
45983.7
45983.1
45982.6
45982.1
45981.6
45981
45980.5
45980
45979.4
45978.9
45978.4
45977.9
45977.3
45976.8
45976.3
45975.7
45975.2
45974.7
45974.1
45973.6
45973.1
45972.5
45972
45971.5
45970.9
45970.4
45969.8
45969.3
45968.8
45968.2
45967.7
45967.1
45966.6
45966.1
45965.5
45965
45964.4
45963.9
45963.3
45962.8
45962.3
45961.7
45961.2
45960.6
45960.1
45959.5
45959
45958.4
45957.9
45957.3
45956.8
45956.2
45955.7
45955.1
45954.6
45954
45953.5
45952.9
45952.4
45951.8
45951.3
45950.7
45950.2
45949.6
45949.1
45948.5
45948
45947.4
45946.8
45946.3
45945.7
45945.2
45944.6
45944
45943.5
45942.9
45942.4
45941.8
45941.2
45940.7
45940.1
45939.6
45939
45938.4
45937.9
45937.3
45936.7
45936.2
45935.6
45935
45934.5
45933.9
45933.3
45932.8
45932.2
45931.6
45931.1
45930.5
45929.9
45929.3
45928.8
45928.2
45927.6
45927.1
45926.5
45925.9
45925.3
45924.8
45924.2
45923.6
45923
45922.5
45921.9
45921.3
45920.7
45920.2
45919.6
45919
45918.4
45917.8
45917.3
45916.7
45916.1
45915.5
45914.9
45914.3
45913.8
45913.2
45912.6
45912
45911.4
45910.8
45910.2
45909.7
45909.1
45908.5
45907.9
45907.3
45906.7
45906.1
45905.5
45905
45904.4
45903.8
45903.2
45902.6
45902
45901.4
45900.8
45900.2
45899.6
45899
45898.4
45897.8
45897.2
45896.6
45896
45895.4
45894.9
45894.3
45893.7
45893.1
45892.5
45891.9
45891.3
45890.7
45890.1
45889.4
45888.8
45888.2
45887.6
45887
45886.4
45885.8
45885.2
45884.6
45884
45883.4
45882.8
45882.2
45881.6
45881
45880.4
45879.8
45879.1
45878.5
45877.9
45877.3
45876.7
45876.1
45875.5
45874.9
45874.2
45873.6
45873
45872.4
45871.8
45871.2
45870.6
45869.9
45869.3
45868.7
45868.1
45867.5
45866.8
45866.2
45865.6
45865
45864.4
45863.7
45863.1
45862.5
45861.9
45861.3
45860.6
45860
45859.4
45858.8
45858.1
45857.5
45856.9
45856.3
45855.6
45855
45854.4
45853.7
45853.1
45852.5
45851.9
45851.2
45850.6
45850
45849.3
45848.7
45848.1
45847.4
45846.8
45846.2
45845.5
45844.9
45844.3
45843.6
45843
45842.3
45841.7
45841.1
45840.4
45839.8
45839.2
45838.5
45837.9
45837.2
45836.6
45835.9
45835.3
45834.7
45834
45833.4
45832.7
45832.1
45831.4
45830.8
45830.2
45829.5
45828.9
45828.2
45827.6
45826.9
45826.3
45825.6
45825
45824.3
45823.7
45823
45822.4
45821.7
45821.1
45820.4
45819.8
45819.1
45818.4
45817.8
45817.1
45816.5
45815.8
45815.2
45814.5
45813.9
45813.2
45812.5
45811.9
45811.2
45810.6
45809.9
45809.2
45808.6
45807.9
45807.3
45806.6
45805.9
45805.3
45804.6
45803.9
45803.3
45802.6
45801.9
45801.3
45800.6
45799.9
45799.3
45798.6
45797.9
45797.3
45796.6
45795.9
45795.3
45794.6
45793.9
45793.2
45792.6
45791.9
45791.2
45790.6
45789.9
45789.2
45788.5
45787.9
45787.2
45786.5
45785.8
45785.2
45784.5
45783.8
45783.1
45782.4
45781.8
45781.1
45780.4
45779.7
45779
45778.4
45777.7
45777
45776.3
45775.6
45774.9
45774.3
45773.6
45772.9
45772.2
45771.5
45770.8
45770.1
45769.4
45768.8
45768.1
45767.4
45766.7
45766
45765.3
45764.6
45763.9
45763.2
45762.5
45761.8
45761.2
45760.5
45759.8
45759.1
45758.4
45757.7
45757
45756.3
45755.6
45754.9
45754.2
45753.5
45752.8
45752.1
45751.4
45750.7
45750
45749.3
45748.6
45747.9
45747.2
45746.5
45745.8
45745.1
45744.4
45743.7
45743
45742.3
45741.5
45740.8
45740.1
45739.4
45738.7
45738
45737.3
45736.6
45735.9
45735.2
45734.5
45733.7
45733
45732.3
45731.6
45730.9
45730.2
45729.5
45728.7
45728
45727.3
45726.6
45725.9
45725.2
45724.4
45723.7
45723
45722.3
45721.6
45720.9
45720.1
45719.4
45718.7
45718
45717.2
45716.5
45715.8
45715.1
45714.4
45713.6
45712.9
45712.2
45711.4
45710.7
45710
45709.3
45708.5
45707.8
45707.1
45706.4
45705.6
45704.9
45704.2
45703.4
45702.7
45702
45701.2
45700.5
45699.8
45699
45698.3
45697.6
45696.8
45696.1
45695.4
45694.6
45693.9
45693.1
45692.4
45691.7
45690.9
45690.2
45689.4
45688.7
45688
45687.2
45686.5
45685.7
45685
45684.3
45683.5
45682.8
45682
45681.3
45680.5
45679.8
45679
45678.3
45677.5
45676.8
45676
45675.3
45674.5
45673.8
45673
45672.3
45671.5
45670.8
45670
45669.3
45668.5
45667.8
45667
45666.3
45665.5
45664.8
45664
45663.2
45662.5
45661.7
45661
45660.2
45659.5
45658.7
45657.9
45657.2
45656.4
45655.7
45654.9
45654.1
45653.4
45652.6
45651.8
45651.1
45650.3
45649.5
45648.8
45648
45647.2
45646.5
45645.7
45644.9
45644.2
45643.4
45642.6
45641.9
45641.1
45640.3
45639.6
45638.8
45638
45637.2
45636.5
45635.7
45634.9
45634.1
45633.4
45632.6
45631.8
45631
45630.3
45629.5
45628.7
45627.9
45627.2
45626.4
45625.6
45624.8
45624
45623.3
45622.5
45621.7
45620.9
45620.1
45619.3
45618.6
45617.8
45617
45616.2
45615.4
45614.6
45613.8
45613.1
45612.3
45611.5
45610.7
45609.9
45609.1
45608.3
45607.5
45606.7
45605.9
45605.2
45604.4
45603.6
45602.8
45602
45601.2
45600.4
45599.6
45598.8
45598
45597.2
45596.4
45595.6
45594.8
45594
45593.2
45592.4
45591.6
45590.8
45590
45589.2
45588.4
45587.6
45586.8
45586
45585.2
45584.4
45583.6
45582.8
45582
45581.2
45580.4
45579.6
45578.8
45577.9
45577.1
45576.3
45575.5
45574.7
45573.9
45573.1
45572.3
45571.5
45570.7
45569.8
45569
45568.2
45567.4
45566.6
45565.8
45565
45564.1
45563.3
45562.5
45561.7
45560.9
45560.1
45559.2
45558.4
45557.6
45556.8
45556
45555.1
45554.3
45553.5
45552.7
45551.8
45551
45550.2
45549.4
45548.5
45547.7
45546.9
45546.1
45545.2
45544.4
45543.6
45542.8
45541.9
45541.1
45540.3
45539.4
45538.6
45537.8
45536.9
45536.1
45535.3
45534.4
45533.6
45532.8
45531.9
45531.1
45530.3
45529.4
45528.6
45527.8
45526.9
45526.1
45525.2
45524.4
45523.6
45522.7
45521.9
45521
45520.2
45519.4
45518.5
45517.7
45516.8
45516
45515.1
45514.3
45513.5
45512.6
45511.8
45510.9
45510.1
45509.2
45508.4
45507.5
45506.7
45505.8
45505
45504.1
45503.3
45502.4
45501.6
45500.7
45499.9
45499
45498.2
45497.3
45496.5
45495.6
45494.7
45493.9
45493
45492.2
45491.3
45490.5
45489.6
45488.7
45487.9
45487
45486.2
45485.3
45484.4
45483.6
45482.7
45481.9
45481
45480.1
45479.3
45478.4
45477.5
45476.7
45475.8
45474.9
45474.1
45473.2
45472.3
45471.5
45470.6
45469.7
45468.9
45468
45467.1
45466.2
45465.4
45464.5
45463.6
45462.8
45461.9
45461
45460.1
45459.3
45458.4
45457.5
45456.6
45455.7
45454.9
45454
45453.1
45452.2
45451.4
45450.5
45449.6
45448.7
45447.8
45447
45446.1
45445.2
45444.3
45443.4
45442.5
45441.6
45440.8
45439.9
45439
45438.1
45437.2
45436.3
45435.4
45434.6
45433.7
45432.8
45431.9
45431
45430.1
45429.2
45428.3
45427.4
45426.5
45425.6
45424.7
45423.9
45423
45422.1
45421.2
45420.3
45419.4
45418.5
45417.6
45416.7
45415.8
45414.9
45414
45413.1
45412.2
45411.3
45410.4
45409.5
45408.6
45407.7
45406.8
45405.9
45405
45404.1
45403.1
45402.2
45401.3
45400.4
45399.5
45398.6
45397.7
45396.8
45395.9
45395
45394.1
45393.2
45392.2
45391.3
45390.4
45389.5
45388.6
45387.7
45386.8
45385.9
45384.9
45384
45383.1
45382.2
45381.3
45380.4
45379.4
45378.5
45377.6
45376.7
45375.8
45374.8
45373.9
45373
45372.1
45371.2
45370.2
45369.3
45368.4
45367.5
45366.5
45365.6
45364.7
45363.8
45362.8
45361.9
45361
45360.1
45359.1
45358.2
45357.3
45356.3
45355.4
45354.5
45353.5
45352.6
45351.7
45350.7
45349.8
45348.9
45347.9
45347
45346.1
45345.1
45344.2
45343.3
45342.3
45341.4
45340.4
45339.5
45338.6
45337.6
45336.7
45335.8
45334.8
45333.9
45332.9
45332
45331
45330.1
45329.2
45328.2
45327.3
45326.3
45325.4
45324.4
45323.5
45322.5
45321.6
45320.6
45319.7
45318.7
45317.8
45316.8
45315.9
45314.9
45314
45313
45312.1
45311.1
45310.2
45309.2
45308.3
45307.3
45306.3
45305.4
45304.4
45303.5
45302.5
45301.6
45300.6
45299.6
45298.7
45297.7
45296.8
45295.8
45294.8
45293.9
45292.9
45292
45291
45290
45289.1
45288.1
45287.1
45286.2
45285.2
45284.2
45283.3
45282.3
45281.3
45280.4
45279.4
45278.4
45277.5
45276.5
45275.5
45274.5
45273.6
45272.6
45271.6
45270.6
45269.7
45268.7
45267.7
45266.7
45265.8
45264.8
45263.8
45262.8
45261.9
45260.9
45259.9
45258.9
45257.9
45257
45256
45255
45254
45253
45252.1
45251.1
45250.1
45249.1
45248.1
45247.1
45246.1
45245.2
45244.2
45243.2
45242.2
45241.2
45240.2
45239.2
45238.2
45237.3
45236.3
45235.3
45234.3
45233.3
45232.3
45231.3
45230.3
45229.3
45228.3
45227.3
45226.3
45225.3
45224.3
45223.3
45222.3
45221.3
45220.3
45219.3
45218.3
45217.3
45216.3
45215.3
45214.3
45213.3
45212.3
45211.3
45210.3
45209.3
45208.3
45207.3
45206.3
45205.3
45204.3
45203.3
45202.3
45201.3
45200.3
45199.3
45198.2
45197.2
45196.2
45195.2
45194.2
45193.2
45192.2
45191.2
45190.2
45189.1
45188.1
45187.1
45186.1
45185.1
45184.1
45183
45182
45181
45180
45179
45178
45176.9
45175.9
45174.9
45173.9
45172.9
45171.8
45170.8
45169.8
45168.8
45167.7
45166.7
45165.7
45164.7
45163.6
45162.6
45161.6
45160.6
45159.5
45158.5
45157.5
45156.4
45155.4
45154.4
45153.3
45152.3
45151.3
45150.3
45149.2
45148.2
45147.2
45146.1
45145.1
45144
45143
45142
45140.9
45139.9
45138.9
45137.8
45136.8
45135.7
45134.7
45133.7
45132.6
45131.6
45130.5
45129.5
45128.5
45127.4
45126.4
45125.3
45124.3
45123.2
45122.2
45121.1
45120.1
45119
45118
45117
45115.9
45114.9
45113.8
45112.8
45111.7
45110.7
45109.6
45108.5
45107.5
45106.4
45105.4
45104.3
45103.3
45102.2
45101.2
45100.1
45099.1
45098
45096.9
45095.9
45094.8
45093.8
45092.7
45091.6
45090.6
45089.5
45088.5
45087.4
45086.3
45085.3
45084.2
45083.1
45082.1
45081
45080
45078.9
45077.8
45076.8
45075.7
45074.6
45073.5
45072.5
45071.4
45070.3
45069.3
45068.2
45067.1
45066.1
45065
45063.9
45062.8
45061.8
45060.7
45059.6
45058.5
45057.5
45056.4
45055.3
45054.2
45053.1
45052.1
45051
45049.9
45048.8
45047.7
45046.7
45045.6
45044.5
45043.4
45042.3
45041.3
45040.2
45039.1
45038
45036.9
45035.8
45034.7
45033.7
45032.6
45031.5
45030.4
45029.3
45028.2
45027.1
45026
45024.9
45023.8
45022.8
45021.7
45020.6
45019.5
45018.4
45017.3
45016.2
45015.1
45014
45012.9
45011.8
45010.7
45009.6
45008.5
45007.4
45006.3
45005.2
45004.1
45003
45001.9
45000.8
44999.7
44998.6
44997.5
44996.4
44995.3
44994.2
44993.1
44992
44990.9
44989.8
44988.7
44987.5
44986.4
44985.3
44984.2
44983.1
44982
44980.9
44979.8
44978.7
44977.6
44976.4
44975.3
44974.2
44973.1
44972
44970.9
44969.7
44968.6
44967.5
44966.4
44965.3
44964.2
44963
44961.9
44960.8
44959.7
44958.6
44957.4
44956.3
44955.2
44954.1
44952.9
44951.8
44950.7
44949.6
44948.4
44947.3
44946.2
44945.1
44943.9
44942.8
44941.7
44940.5
44939.4
44938.3
44937.2
44936
44934.9
44933.8
44932.6
44931.5
44930.4
44929.2
44928.1
44927
44925.8
44924.7
44923.5
44922.4
44921.3
44920.1
44919
44917.9
44916.7
44915.6
44914.4
44913.3
44912.1
44911
44909.9
44908.7
44907.6
44906.4
44905.3
44904.1
44903
44901.8
44900.7
44899.6
44898.4
44897.3
44896.1
44895
44893.8
44892.7
44891.5
44890.4
44889.2
44888
44886.9
44885.7
44884.6
44883.4
44882.3
44881.1
44880
44878.8
44877.6
44876.5
44875.3
44874.2
44873
44871.9
44870.7
44869.5
44868.4
44867.2
44866
44864.9
44863.7
44862.6
44861.4
44860.2
44859.1
44857.9
44856.7
44855.6
44854.4
44853.2
44852.1
44850.9
44849.7
44848.5
44847.4
44846.2
44845
44843.9
44842.7
44841.5
44840.3
44839.2
44838
44836.8
44835.6
44834.5
44833.3
44832.1
44830.9
44829.7
44828.6
44827.4
44826.2
44825
44823.8
44822.7
44821.5
44820.3
44819.1
44817.9
44816.8
44815.6
44814.4
44813.2
44812
44810.8
44809.6
44808.4
44807.3
44806.1
44804.9
44803.7
44802.5
44801.3
44800.1
44798.9
44797.7
44796.5
44795.3
44794.1
44793
44791.8
44790.6
44789.4
44788.2
44787
44785.8
44784.6
44783.4
44782.2
44781
44779.8
44778.6
44777.4
44776.2
44775
44773.8
44772.6
44771.4
44770.2
44769
44767.7
44766.5
44765.3
44764.1
44762.9
44761.7
44760.5
44759.3
44758.1
44756.9
44755.7
44754.4
44753.2
44752
44750.8
44749.6
44748.4
44747.2
44746
44744.7
44743.5
44742.3
44741.1
44739.9
44738.6
44737.4
44736.2
44735
44733.8
44732.5
44731.3
44730.1
44728.9
44727.7
44726.4
44725.2
44724
44722.8
44721.5
44720.3
44719.1
44717.9
44716.6
44715.4
44714.2
44712.9
44711.7
44710.5
44709.2
44708
44706.8
44705.5
44704.3
44703.1
44701.8
44700.6
44699.4
44698.1
44696.9
44695.7
44694.4
44693.2
44692
44690.7
44689.5
44688.2
44687
44685.7
44684.5
44683.3
44682
44680.8
44679.5
44678.3
44677
44675.8
44674.6
44673.3
44672.1
44670.8
44669.6
44668.3
44667.1
44665.8
44664.6
44663.3
44662.1
44660.8
44659.6
44658.3
44657
44655.8
44654.5
44653.3
44652
44650.8
44649.5
44648.2
44647
44645.7
44644.5
44643.2
44642
44640.7
44639.4
44638.2
44636.9
44635.6
44634.4
44633.1
44631.8
44630.6
44629.3
44628
44626.8
44625.5
44624.2
44623
44621.7
44620.4
44619.2
44617.9
44616.6
44615.3
44614.1
44612.8
44611.5
44610.3
44609
44607.7
44606.4
44605.2
44603.9
44602.6
44601.3
44600
44598.8
44597.5
44596.2
44594.9
44593.6
44592.4
44591.1
44589.8
44588.5
44587.2
44585.9
44584.6
44583.4
44582.1
44580.8
44579.5
44578.2
44576.9
44575.6
44574.3
44573
44571.8
44570.5
44569.2
44567.9
44566.6
44565.3
44564
44562.7
44561.4
44560.1
44558.8
44557.5
44556.2
44554.9
44553.6
44552.3
44551
44549.7
44548.4
44547.1
44545.8
44544.5
44543.2
44541.9
44540.6
44539.3
44538
44536.7
44535.4
44534
44532.7
44531.4
44530.1
44528.8
44527.5
44526.2
44524.9
44523.6
44522.2
44520.9
44519.6
44518.3
44517
44515.7
44514.3
44513
44511.7
44510.4
44509.1
44507.8
44506.4
44505.1
44503.8
44502.5
44501.1
44499.8
44498.5
44497.2
44495.8
44494.5
44493.2
44491.9
44490.5
44489.2
44487.9
44486.5
44485.2
44483.9
44482.6
44481.2
44479.9
44478.6
44477.2
44475.9
44474.5
44473.2
44471.9
44470.5
44469.2
44467.9
44466.5
44465.2
44463.8
44462.5
44461.2
44459.8
44458.5
44457.1
44455.8
44454.4
44453.1
44451.7
44450.4
44449.1
44447.7
44446.4
44445
44443.7
44442.3
44441
44439.6
44438.2
44436.9
44435.5
44434.2
44432.8
44431.5
44430.1
44428.8
44427.4
44426
44424.7
44423.3
44422
44420.6
44419.2
44417.9
44416.5
44415.1
44413.8
44412.4
44411.1
44409.7
44408.3
44407
44405.6
44404.2
44402.8
44401.5
44400.1
44398.7
44397.4
44396
44394.6
44393.2
44391.9
44390.5
44389.1
44387.7
44386.4
44385
44383.6
44382.2
44380.8
44379.5
44378.1
44376.7
44375.3
44373.9
44372.5
44371.1
44369.8
44368.4
44367
44365.6
44364.2
44362.8
44361.4
44360
44358.6
44357.2
44355.9
44354.5
44353.1
44351.7
44350.3
44348.9
44347.5
44346.1
44344.7
44343.3
44341.9
44340.5
44339.1
44337.7
44336.3
44334.9
44333.5
44332.1
44330.6
44329.2
44327.8
44326.4
44325
44323.6
44322.2
44320.8
44319.4
44317.9
44316.5
44315.1
44313.7
44312.3
44310.9
44309.5
44308
44306.6
44305.2
44303.8
44302.3
44300.9
44299.5
44298.1
44296.7
44295.2
44293.8
44292.4
44290.9
44289.5
44288.1
44286.6
44285.2
44283.8
44282.4
44280.9
44279.5
44278
44276.6
44275.2
44273.7
44272.3
44270.9
44269.4
44268
44266.5
44265.1
44263.6
44262.2
44260.8
44259.3
44257.9
44256.4
44255
44253.5
44252.1
44250.6
44249.2
44247.7
44246.2
44244.8
44243.3
44241.9
44240.4
44239
44237.5
44236
44234.6
44233.1
44231.7
44230.2
44228.7
44227.3
44225.8
44224.3
44222.9
44221.4
44219.9
44218.4
44217
44215.5
44214
44212.5
44211.1
44209.6
44208.1
44206.6
44205.2
44203.7
44202.2
44200.7
44199.2
44197.7
44196.3
44194.8
44193.3
44191.8
44190.3
44188.8
44187.3
44185.8
44184.3
44182.8
44181.4
44179.9
44178.4
44176.9
44175.4
44173.9
44172.4
44170.9
44169.4
44167.9
44166.3
44164.8
44163.3
44161.8
44160.3
44158.8
44157.3
44155.8
44154.3
44152.8
44151.2
44149.7
44148.2
44146.7
44145.2
44143.6
44142.1
44140.6
44139.1
44137.5
44136
44134.5
44133
44131.4
44129.9
44128.4
44126.8
44125.3
44123.8
44122.2
44120.7
44119.1
44117.6
44116.1
44114.5
44113
44111.4
44109.9
44108.3
44106.8
44105.2
44103.7
44102.1
44100.6
44099
44097.5
44095.9
44094.3
44092.8
44091.2
44089.7
44088.1
44086.5
44085
44083.4
44081.8
44080.2
44078.7
44077.1
44075.5
44073.9
44072.4
44070.8
44069.2
44067.6
44066
44064.4
44062.9
44061.3
44059.7
44058.1
44056.5
44054.9
44053.3
44051.7
44050.1
44048.5
44046.9
44045.3
44043.7
44042.1
44040.4
44038.8
44037.2
44035.6
44034
44032.4
44030.7
44029.1
44027.5
44025.9
44024.2
44022.6
44021
44019.3
44017.7
44016
44014.4
44012.8
44011.1
44009.5
44007.8
44006.1
44004.5
44002.8
44001.2
43999.5
43997.8
43996.2
43994.5
43992.8
43991.1
43989.5
43987.8
43986.1
43984.4
43982.7
43981
43979.3
43977.6
43975.9
43974.2
43972.5
43970.8
43969.1
43967.3
43965.6
43963.9
43962.2
43960.4
43958.7
43956.9
43955.2
43953.4
43951.7
43949.9
43948.2
43946.4
43944.6
43942.8
43941.1
43939.3
43937.5
43935.7
43933.9
43932.1
43930.2
43928.4
43926.6
43924.8
43922.9
43921.1
43919.2
43917.4
43915.5
43913.6
43911.7
43909.9
43908
43906.1
43904.1
43902.2
43900.3
43898.4
43896.4
43894.4
43892.5
43890.5
43888.5
43886.5
43884.5
43882.5
43880.4
43878.4
43876.3
43874.3
43872.2
43870.1
43868
43865.8
43863.7
43861.5
43859.3
43857.1
43854.9
43852.7
43850.4
43848.2
43845.9
43843.6
43841.2
43838.9
43836.5
43834.1
43831.6
43829.2
43826.7
43824.2
43821.6
43819.1
43816.5
43813.8
43811.2
43808.5
43805.7
43803
43800.1
43797.3
43794.4
43791.5
43788.5
43785.5
43782.5
43779.4
43776.2
43773
43769.8
43766.5
43763.1
43759.7
43756.3
43752.8
43749.2
43745.6
43741.9
43738.2
43734.4
43730.6
43726.6
43722.7
43718.6
43714.5
43710.3
43706.1
43701.8
43697.4
43692.9
43688.4
43683.8
43679.2
43674.4
43669.6
43664.8
43659.8
43654.8
43649.7
43644.5
43639.3
43634
43628.6
43623.1
43617.6
43612
43606.3
43600.6
43594.7
43588.8
43582.9
43576.9
43570.8
43564.6
43558.4
43552.1
43545.7
43539.3
43532.8
43526.3
43519.7
43513.1
43506.4
43499.6
43492.8
43485.9
43479
43472
43465
43457.9
43450.8
43443.7
43436.5
43429.2
43422
43414.7
43407.3
43399.9
43392.5
43385.1
43377.6
43370.1
43362.6
43355
43347.4
43339.8
43332.2
43324.6
43316.9
43309.2
43301.5
43293.8
43286
43278.3
43270.5
43262.7
43254.9
43247.1
43239.3
43231.5
43223.6
43215.8
43207.9
43200.1
43192.2
43184.3
43176.4
43168.5
43160.6
43152.8
43144.8
43136.9
43129
43121.1
43113.2
43105.3
43097.4
43089.4
43081.5
43073.6
43065.7
43057.7
43049.8
43041.9
43034
43026
43018.1
43010.2
43002.2
42994.3
42986.4
42978.4
42970.5
42962.6
42954.7
42946.7
42938.8
42930.9
42922.9
42915
42907.1
42899.2
42891.3
42883.3
42875.4
42867.5
42859.6
42851.7
42843.7
42835.8
42827.9
42820
42812.1
42804.2
42796.3
42788.4
42780.5
42772.5
42764.6
42756.7
42748.8
42740.9
42733
42725.1
42717.2
42709.3
42701.5
42693.6
42685.7
42677.8
42669.9
42662
42654.1
42646.2
42638.3
42630.5
42622.6
42614.7
42606.8
42598.9
42591.1
42583.2
42575.3
42567.4
42559.6
42551.7
42543.8
42536
42528.1
42520.2
42512.4
42504.5
42496.6
42488.8
42480.9
42473.1
42465.2
42457.3
42449.5
42441.6
42433.8
42425.9
42418.1
42410.2
42402.4
42394.5
42386.7
42378.8
42371
42363.2
42355.3
42347.5
42339.6
42331.8
42324
42316.1
42308.3
42300.5
42292.7
42284.8
42277
42269.2
42261.3
42253.5
42245.7
42237.9
42230.1
42222.2
42214.4
42206.6
42198.8
42191
42183.2
42175.4
42167.5
42159.7
42151.9
42144.1
42136.3
42128.5
42120.7
42112.9
42105.1
42097.3
42089.5
42081.7
42073.9
42066.1
42058.3
42050.6
42042.8
42035
42027.2
42019.4
42011.6
42003.8
41996.1
41988.3
41980.5
41972.7
41964.9
41957.2
41949.4
41941.6
41933.8
41926.1
41918.3
41910.5
41902.8
41895
41887.2
41879.5
41871.7
41863.9
41856.2
41848.4
41840.7
41832.9
41825.2
41817.4
41809.7
41801.9
41794.2
41786.4
41778.7
41770.9
41763.2
41755.4
41747.7
41739.9
41732.2
41724.5
41716.7
41709
41701.3
41693.5
41685.8
41678.1
41670.3
41662.6
41654.9
41647.1
41639.4
41631.7
41624
41616.3
41608.5
41600.8
41593.1
41585.4
41577.7
41570
41562.2
41554.5
41546.8
41539.1
41531.4
41523.7
41516
41508.3
41500.6
41492.9
41485.2
41477.5
41469.8
41462.1
41454.4
41446.7
41439
41431.3
41423.6
41415.9
41408.2
41400.6
41392.9
41385.2
41377.5
41369.8
41362.1
41354.5
41346.8
41339.1
41331.4
41323.8
41316.1
41308.4
41300.7
41293.1
41285.4
41277.7
41270.1
41262.4
41254.7
41247.1
41239.4
41231.8
41224.1
41216.5
41208.8
41201.1
41193.5
41185.8
41178.2
41170.5
41162.9
41155.2
41147.6
41139.9
41132.3
41124.7
41117
41109.4
41101.7
41094.1
41086.5
41078.8
41071.2
41063.6
41055.9
41048.3
41040.7
41033.1
41025.4
41017.8
41010.2
41002.6
40994.9
40987.3
40979.7
40972.1
40964.5
40956.8
40949.2
40941.6
40934
40926.4
40918.8
40911.2
40903.6
40896
40888.4
40880.8
40873.2
40865.6
40858
40850.4
40842.8
40835.2
40827.6
40820
40812.4
40804.8
40797.2
40789.6
40782
40774.4
40766.9
40759.3
40751.7
40744.1
40736.5
40729
40721.4
40713.8
40706.2
40698.7
40691.1
40683.5
40675.9
40668.4
40660.8
40653.2
40645.7
40638.1
40630.5
40623
40615.4
40607.9
40600.3
40592.8
40585.2
40577.6
40570.1
40562.5
40555
40547.4
40539.9
40532.3
40524.8
40517.3
40509.7
40502.2
40494.6
40487.1
40479.5
40472
40464.5
40456.9
40449.4
40441.9
40434.3
40426.8
40419.3
40411.8
40404.2
40396.7
40389.2
40381.7
40374.1
40366.6
40359.1
40351.6
40344.1
40336.6
40329
40321.5
40314
40306.5
40299
40291.5
40284
40276.5
40269
40261.5
40254
40246.5
40239
40231.5
40224
40216.5
40209
40201.5
40194
40186.5
40179
40171.5
40164
40156.6
40149.1
40141.6
40134.1
40126.6
40119.1
40111.7
40104.2
40096.7
40089.2
40081.8
40074.3
40066.8
40059.3
40051.9
40044.4
40036.9
40029.5
40022
40014.5
40007.1
39999.6
39992.2
39984.7
39977.3
39969.8
39962.3
39954.9
39947.4
39940
39932.5
39925.1
39917.6
39910.2
39902.7
39895.3
39887.9
39880.4
39873
39865.5
39858.1
39850.7
39843.2
39835.8
39828.4
39820.9
39813.5
39806.1
39798.6
39791.2
39783.8
39776.4
39768.9
39761.5
39754.1
39746.7
39739.3
39731.8
39724.4
39717
39709.6
39702.2
39694.8
39687.4
39680
39672.6
39665.1
39657.7
39650.3
39642.9
39635.5
39628.1
39620.7
39613.3
39605.9
39598.5
39591.1
39583.8
39576.4
39569
39561.6
39554.2
39546.8
39539.4
39532
39524.7
39517.3
39509.9
39502.5
39495.1
39487.8
39480.4
39473
39465.6
39458.3
39450.9
39443.5
39436.1
39428.8
39421.4
39414
39406.7
39399.3
39392
39384.6
39377.2
39369.9
39362.5
39355.2
39347.8
39340.5
39333.1
39325.8
39318.4
39311.1
39303.7
39296.4
39289
39281.7
39274.3
39267
39259.6
39252.3
39245
39237.6
39230.3
39223
39215.6
39208.3
39201
39193.6
39186.3
39179
39171.7
39164.3
39157
39149.7
39142.4
39135
39127.7
39120.4
39113.1
39105.8
39098.5
39091.1
39083.8
39076.5
39069.2
39061.9
39054.6
39047.3
39040
39032.7
39025.4
39018.1
39010.8
39003.5
38996.2
38988.9
38981.6
38974.3
38967
38959.7
38952.4
38945.1
38937.9
38930.6
38923.3
38916
38908.7
38901.4
38894.1
38886.9
38879.6
38872.3
38865
38857.8
38850.5
38843.2
38835.9
38828.7
38821.4
38814.1
38806.9
38799.6
38792.3
38785.1
38777.8
38770.6
38763.3
38756
38748.8
38741.5
38734.3
38727
38719.8
38712.5
38705.3
38698
38690.8
38683.5
38676.3
38669
38661.8
38654.6
38647.3
38640.1
38632.8
38625.6
38618.4
38611.1
38603.9
38596.7
38589.4
38582.2
38575
38567.7
38560.5
38553.3
38546.1
38538.9
38531.6
38524.4
38517.2
38510
38502.8
38495.5
38488.3
38481.1
38473.9
38466.7
38459.5
38452.3
38445.1
38437.9
38430.7
38423.5
38416.3
38409
38401.8
38394.7
38387.5
38380.3
38373.1
38365.9
38358.7
38351.5
38344.3
38337.1
38329.9
38322.7
38315.5
38308.4
38301.2
38294
38286.8
38279.6
38272.5
38265.3
38258.1
38250.9
38243.7
38236.6
38229.4
38222.2
38215.1
38207.9
38200.7
38193.6
38186.4
38179.2
38172.1
38164.9
38157.8
38150.6
38143.4
38136.3
38129.1
38122
38114.8
38107.7
38100.5
38093.4
38086.2
38079.1
38071.9
38064.8
38057.6
38050.5
38043.4
38036.2
38029.1
38021.9
38014.8
38007.7
38000.5
37993.4
37986.3
37979.1
37972
37964.9
37957.8
37950.6
37943.5
37936.4
37929.3
37922.1
37915
37907.9
37900.8
37893.7
37886.6
37879.4
37872.3
37865.2
37858.1
37851
37843.9
37836.8
37829.7
37822.6
37815.5
37808.4
37801.3
37794.2
37787.1
37780
37772.9
37765.8
37758.7
37751.6
37744.5
37737.4
37730.3
37723.2
37716.1
37709.1
37702
37694.9
37687.8
37680.7
37673.6
37666.6
37659.5
37652.4
37645.3
37638.3
37631.2
37624.1
37617.1
37610
37602.9
37595.8
37588.8
37581.7
37574.7
37567.6
37560.5
37553.5
37546.4
37539.4
37532.3
37525.2
37518.2
37511.1
37504.1
37497
37490
37482.9
37475.9
37468.8
37461.8
37454.8
37447.7
37440.7
37433.6
37426.6
37419.6
37412.5
37405.5
37398.5
37391.4
37384.4
37377.4
37370.3
37363.3
37356.3
37349.2
37342.2
37335.2
37328.2
37321.2
37314.1
37307.1
37300.1
37293.1
37286.1
37279.1
37272
37265
37258
37251
37244
37237
37230
37223
37216
37209
37202
37195
37188
37181
37174
37167
37160
37153
37146
37139
37132
37125
37118
37111.1
37104.1
37097.1
37090.1
37083.1
37076.1
37069.2
37062.2
37055.2
37048.2
37041.3
37034.3
37027.3
37020.3
37013.4
37006.4
36999.4
36992.5
36985.5
36978.5
36971.6
36964.6
36957.7
36950.7
36943.7
36936.8
36929.8
36922.9
36915.9
36909
36902
36895.1
36888.1
36881.2
36874.2
36867.3
36860.3
36853.4
36846.5
36839.5
36832.6
36825.6
36818.7
36811.8
36804.8
36797.9
36791
36784
36777.1
36770.2
36763.2
36756.3
36749.4
36742.5
36735.5
36728.6
36721.7
36714.8
36707.9
36701
36694
36687.1
36680.2
36673.3
36666.4
36659.5
36652.6
36645.7
36638.7
36631.8
36624.9
36618
36611.1
36604.2
36597.3
36590.4
36583.5
36576.6
36569.7
36562.9
36556
36549.1
36542.2
36535.3
36528.4
36521.5
36514.6
36507.7
36500.9
36494
36487.1
36480.2
36473.3
36466.5
36459.6
36452.7
36445.8
36439
36432.1
36425.2
36418.4
36411.5
36404.6
36397.8
36390.9
36384
36377.2
36370.3
36363.4
36356.6
36349.7
36342.9
36336
36329.2
36322.3
36315.5
36308.6
36301.8
36294.9
36288.1
36281.2
36274.4
36267.5
36260.7
36253.8
36247
36240.2
36233.3
36226.5
36219.6
36212.8
36206
36199.1
36192.3
36185.5
36178.7
36171.8
36165
36158.2
36151.4
36144.5
36137.7
36130.9
36124.1
36117.3
36110.4
36103.6
36096.8
36090
36083.2
36076.4
36069.6
36062.8
36055.9
36049.1
36042.3
36035.5
36028.7
36021.9
36015.1
36008.3
36001.5
35994.7
35987.9
35981.1
35974.3
35967.6
35960.8
35954
35947.2
35940.4
35933.6
35926.8
35920
35913.3
35906.5
35899.7
35892.9
35886.1
35879.4
35872.6
35865.8
35859
35852.3
35845.5
35838.7
35832
35825.2
35818.4
35811.7
35804.9
35798.1
35791.4
35784.6
35777.8
35771.1
35764.3
35757.6
35750.8
35744.1
35737.3
35730.6
35723.8
35717.1
35710.3
35703.6
35696.8
35690.1
35683.3
35676.6
35669.8
35663.1
35656.4
35649.6
35642.9
35636.2
35629.4
35622.7
35616
35609.2
35602.5
35595.8
35589.1
35582.3
35575.6
35568.9
35562.2
35555.4
35548.7
35542
35535.3
35528.6
35521.8
35515.1
35508.4
35501.7
35495
35488.3
35481.6
35474.9