/*--------------------------------*- C++ -*----------------------------------*\
  =========                 |
  \\      /  F ield         | OpenFOAM: The Open Source CFD Toolbox
   \\    /   O peration     | Website:  https://openfoam.org
    \\  /    A nd           | Version:  9
     \\/     M anipulation  |
\*---------------------------------------------------------------------------*/
FoamFile
{
    format      ascii;
    class       surfaceScalarField;
    location    "0.019";
    object      phi;
}
// * * * * * * * * * * * * * * * * * * * * * * * * * * * * * * * * * * * * * //

dimensions      [1 0 -1 0 0 0 0];

internalField   nonuniform List<scalar> 
9999
(
5.07043
5.24867
5.42692
5.60514
5.78332
5.96149
6.13968
6.31792
6.49619
6.67451
6.85285
7.0312
7.20956
7.38792
7.56628
7.74466
7.92303
8.1014
8.27977
8.45814
8.63651
8.81487
8.99324
9.17161
9.34998
9.52834
9.70671
9.88507
10.0634
10.2418
10.4202
10.5985
10.7769
10.9553
11.1336
11.312
11.4904
11.6687
11.8471
12.0254
12.2038
12.3822
12.5605
12.7389
12.9172
13.0956
13.274
13.4523
13.6307
13.809
13.9874
14.1657
14.3441
14.5225
14.7008
14.8792
15.0575
15.2359
15.4142
15.5926
15.7709
15.9493
16.1276
16.306
16.4843
16.6627
16.841
17.0194
17.1977
17.3761
17.5544
17.7328
17.9111
18.0895
18.2678
18.4462
18.6245
18.8029
18.9812
19.1596
19.3379
19.5162
19.6946
19.8729
20.0513
20.2296
20.4079
20.5863
20.7646
20.943
21.1213
21.2996
21.478
21.6563
21.8346
22.013
22.1913
22.3696
22.548
22.7263
22.9046
23.083
23.2613
23.4396
23.618
23.7963
23.9746
24.1529
24.3313
24.5096
24.6879
24.8662
25.0446
25.2229
25.4012
25.5795
25.7579
25.9362
26.1145
26.2928
26.4711
26.6495
26.8278
27.0061
27.1844
27.3627
27.541
27.7194
27.8977
28.076
28.2543
28.4326
28.6109
28.7892
28.9675
29.1458
29.3241
29.5025
29.6808
29.8591
30.0374
30.2157
30.394
30.5723
30.7506
30.9289
31.1072
31.2855
31.4638
31.6421
31.8204
31.9987
32.177
32.3553
32.5335
32.7118
32.8901
33.0684
33.2467
33.425
33.6033
33.7816
33.9599
34.1382
34.3164
34.4947
34.673
34.8513
35.0296
35.2079
35.3861
35.5644
35.7427
35.921
36.0992
36.2775
36.4558
36.6341
36.8123
36.9906
37.1689
37.3472
37.5254
37.7037
37.882
38.0602
38.2385
38.4168
38.595
38.7733
38.9516
39.1298
39.3081
39.4863
39.6646
39.8429
40.0211
40.1994
40.3776
40.5559
40.7341
40.9124
41.0906
41.2689
41.4471
41.6254
41.8036
41.9819
42.1601
42.3384
42.5166
42.6948
42.8731
43.0513
43.2296
43.4078
43.586
43.7643
43.9425
44.1208
44.299
44.4772
44.6554
44.8337
45.0119
45.1901
45.3684
45.5466
45.7248
45.903
46.0813
46.2595
46.4377
46.6159
46.7941
46.9724
47.1506
47.3288
47.507
47.6852
47.8634
48.0416
48.2198
48.398
48.5763
48.7545
48.9327
49.1109
49.2891
49.4673
49.6455
49.8237
50.0019
50.1801
50.3583
50.5365
50.7146
50.8928
51.071
51.2492
51.4274
51.6056
51.7838
51.962
52.1402
52.3183
52.4965
52.6747
52.8529
53.0311
53.2092
53.3874
53.5656
53.7437
53.9219
54.1001
54.2783
54.4564
54.6346
54.8128
54.9909
55.1691
55.3472
55.5254
55.7036
55.8817
56.0599
56.238
56.4162
56.5943
56.7725
56.9506
57.1288
57.3069
57.4851
57.6632
57.8414
58.0195
58.1977
58.3758
58.5539
58.7321
58.9102
59.0883
59.2665
59.4446
59.6227
59.8009
59.979
60.1571
60.3352
60.5134
60.6915
60.8696
61.0477
61.2258
61.404
61.5821
61.7602
61.9383
62.1164
62.2945
62.4726
62.6507
62.8288
63.0069
63.185
63.3631
63.5412
63.7193
63.8974
64.0755
64.2536
64.4317
64.6098
64.7879
64.966
65.1441
65.3221
65.5002
65.6783
65.8564
66.0345
66.2125
66.3906
66.5687
66.7468
66.9248
67.1029
67.281
67.459
67.6371
67.8152
67.9932
68.1713
68.3493
68.5274
68.7055
68.8835
69.0616
69.2396
69.4177
69.5957
69.7738
69.9518
70.1298
70.3079
70.4859
70.664
70.842
71.02
71.1981
71.3761
71.5541
71.7322
71.9102
72.0882
72.2662
72.4443
72.6223
72.8003
72.9783
73.1563
73.3343
73.5123
73.6904
73.8684
74.0464
74.2244
74.4024
74.5804
74.7584
74.9364
75.1144
75.2924
75.4704
75.6484
75.8263
76.0043
76.1823
76.3603
76.5383
76.7163
76.8943
77.0722
77.2502
77.4282
77.6062
77.7841
77.9621
78.1401
78.318
78.496
78.6739
78.8519
79.0299
79.2078
79.3858
79.5637
79.7417
79.9196
80.0976
80.2755
80.4535
80.6314
80.8094
80.9873
81.1652
81.3432
81.5211
81.699
81.877
82.0549
82.2328
82.4107
82.5887
82.7666
82.9445
83.1224
83.3003
83.4782
83.6561
83.8341
84.012
84.1899
84.3678
84.5457
84.7236
84.9015
85.0794
85.2573
85.4351
85.613
85.7909
85.9688
86.1467
86.3246
86.5025
86.6803
86.8582
87.0361
87.214
87.3918
87.5697
87.7476
87.9254
88.1033
88.2811
88.459
88.6369
88.8147
88.9926
89.1704
89.3483
89.5261
89.704
89.8818
90.0596
90.2375
90.4153
90.5931
90.771
90.9488
91.1266
91.3045
91.4823
91.6601
91.8379
92.0157
92.1936
92.3714
92.5492
92.727
92.9048
93.0826
93.2604
93.4382
93.616
93.7938
93.9716
94.1494
94.3272
94.505
94.6828
94.8605
95.0383
95.2161
95.3939
95.5717
95.7494
95.9272
96.105
96.2827
96.4605
96.6383
96.816
96.9938
97.1715
97.3493
97.527
97.7048
97.8825
98.0603
98.238
98.4158
98.5935
98.7712
98.949
99.1267
99.3044
99.4822
99.6599
99.8376
100.015
100.193
100.371
100.548
100.726
100.904
101.082
101.259
101.437
101.615
101.792
101.97
102.148
102.326
102.503
102.681
102.859
103.036
103.214
103.392
103.569
103.747
103.925
104.102
104.28
104.458
104.635
104.813
104.991
105.168
105.346
105.524
105.701
105.879
106.056
106.234
106.412
106.589
106.767
106.945
107.122
107.3
107.478
107.655
107.833
108.01
108.188
108.366
108.543
108.721
108.898
109.076
109.254
109.431
109.609
109.786
109.964
110.142
110.319
110.497
110.674
110.852
111.029
111.207
111.385
111.562
111.74
111.917
112.095
112.272
112.45
112.628
112.805
112.983
113.16
113.338
113.515
113.693
113.87
114.048
114.225
114.403
114.58
114.758
114.935
115.113
115.29
115.468
115.646
115.823
116.001
116.178
116.356
116.533
116.71
116.888
117.065
117.243
117.42
117.598
117.775
117.953
118.13
118.308
118.485
118.663
118.84
119.018
119.195
119.373
119.55
119.727
119.905
120.082
120.26
120.437
120.615
120.792
120.97
121.147
121.324
121.502
121.679
121.857
122.034
122.211
122.389
122.566
122.744
122.921
123.098
123.276
123.453
123.631
123.808
123.985
124.163
124.34
124.518
124.695
124.872
125.05
125.227
125.404
125.582
125.759
125.936
126.114
126.291
126.468
126.646
126.823
127
127.178
127.355
127.532
127.71
127.887
128.064
128.242
128.419
128.596
128.774
128.951
129.128
129.306
129.483
129.66
129.837
130.015
130.192
130.369
130.547
130.724
130.901
131.078
131.256
131.433
131.61
131.787
131.965
132.142
132.319
132.496
132.674
132.851
133.028
133.205
133.383
133.56
133.737
133.914
134.091
134.269
134.446
134.623
134.8
134.977
135.155
135.332
135.509
135.686
135.863
136.041
136.218
136.395
136.572
136.749
136.926
137.104
137.281
137.458
137.635
137.812
137.989
138.167
138.344
138.521
138.698
138.875
139.052
139.229
139.407
139.584
139.761
139.938
140.115
140.292
140.469
140.646
140.823
141.001
141.178
141.355
141.532
141.709
141.886
142.063
142.24
142.417
142.594
142.771
142.948
143.125
143.302
143.48
143.657
143.834
144.011
144.188
144.365
144.542
144.719
144.896
145.073
145.25
145.427
145.604
145.781
145.958
146.135
146.312
146.489
146.666
146.843
147.02
147.197
147.374
147.551
147.728
147.905
148.082
148.259
148.436
148.613
148.79
148.967
149.143
149.32
149.497
149.674
149.851
150.028
150.205
150.382
150.559
150.736
150.913
151.09
151.267
151.444
151.62
151.797
151.974
152.151
152.328
152.505
152.682
152.859
153.035
153.212
153.389
153.566
153.743
153.92
154.097
154.274
154.45
154.627
154.804
154.981
155.158
155.335
155.511
155.688
155.865
156.042
156.219
156.395
156.572
156.749
156.926
157.103
157.279
157.456
157.633
157.81
157.987
158.163
158.34
158.517
158.694
158.87
159.047
159.224
159.401
159.577
159.754
159.931
160.108
160.284
160.461
160.638
160.814
160.991
161.168
161.345
161.521
161.698
161.875
162.051
162.228
162.405
162.581
162.758
162.935
163.111
163.288
163.465
163.641
163.818
163.995
164.171
164.348
164.525
164.701
164.878
165.055
165.231
165.408
165.585
165.761
165.938
166.114
166.291
166.468
166.644
166.821
166.997
167.174
167.351
167.527
167.704
167.88
168.057
168.233
168.41
168.586
168.763
168.94
169.116
169.293
169.469
169.646
169.822
169.999
170.175
170.352
170.528
170.705
170.881
171.058
171.234
171.411
171.587
171.764
171.94
172.117
172.293
172.47
172.646
172.823
172.999
173.176
173.352
173.529
173.705
173.881
174.058
174.234
174.411
174.587
174.764
174.94
175.116
175.293
175.469
175.646
175.822
175.998
176.175
176.351
176.528
176.704
176.88
177.057
177.233
177.409
177.586
177.762
177.938
178.115
178.291
178.468
178.644
178.82
178.997
179.173
179.349
179.525
179.702
179.878
180.054
180.231
180.407
180.583
180.76
180.936
181.112
181.288
181.465
181.641
181.817
181.993
182.17
182.346
182.522
182.698
182.875
183.051
183.227
183.403
183.58
183.756
183.932
184.108
184.284
184.461
184.637
184.813
184.989
185.165
185.342
185.518
185.694
185.87
186.046
186.222
186.399
186.575
186.751
186.927
187.103
187.279
187.455
187.632
187.808
187.984
188.16
188.336
188.512
188.688
188.864
189.04
189.216
189.393
189.569
189.745
189.921
190.097
190.273
190.449
190.625
190.801
190.977
191.153
191.329
191.505
191.681
191.857
192.033
192.209
192.385
192.561
192.737
192.913
193.089
193.265
193.441
193.617
193.793
193.969
194.145
194.321
194.497
194.673
194.849
195.025
195.201
195.377
195.553
195.729
195.905
196.081
196.256
196.432
196.608
196.784
196.96
197.136
197.312
197.488
197.664
197.839
198.015
198.191
198.367
198.543
198.719
198.895
199.07
199.246
199.422
199.598
199.774
199.95
200.125
200.301
200.477
200.653
200.829
201.004
201.18
201.356
201.532
201.708
201.883
202.059
202.235
202.411
202.586
202.762
202.938
203.114
203.289
203.465
203.641
203.816
203.992
204.168
204.344
204.519
204.695
204.871
205.046
205.222
205.398
205.573
205.749
205.925
206.1
206.276
206.452
206.627
206.803
206.979
207.154
207.33
207.506
207.681
207.857
208.032
208.208
208.384
208.559
208.735
208.91
209.086
209.261
209.437
209.613
209.788
209.964
210.139
210.315
210.49
210.666
210.841
211.017
211.192
211.368
211.544
211.719
211.895
212.07
212.246
212.421
212.597
212.772
212.947
213.123
213.298
213.474
213.649
213.825
214
214.176
214.351
214.527
214.702
214.877
215.053
215.228
215.404
215.579
215.754
215.93
216.105
216.281
216.456
216.631
216.807
216.982
217.157
217.333
217.508
217.683
217.859
218.034
218.209
218.385
218.56
218.735
218.911
219.086
219.261
219.437
219.612
219.787
219.962
220.138
220.313
220.488
220.664
220.839
221.014
221.189
221.365
221.54
221.715
221.89
222.065
222.241
222.416
222.591
222.766
222.941
223.117
223.292
223.467
223.642
223.817
223.992
224.168
224.343
224.518
224.693
224.868
225.043
225.218
225.394
225.569
225.744
225.919
226.094
226.269
226.444
226.619
226.794
226.969
227.145
227.32
227.495
227.67
227.845
228.02
228.195
228.37
228.545
228.72
228.895
229.07
229.245
229.42
229.595
229.77
229.945
230.12
230.295
230.47
230.645
230.82
230.995
231.17
231.345
231.52
231.695
231.869
232.044
232.219
232.394
232.569
232.744
232.919
233.094
233.269
233.444
233.618
233.793
233.968
234.143
234.318
234.493
234.668
234.842
235.017
235.192
235.367
235.542
235.717
235.891
236.066
236.241
236.416
236.591
236.765
236.94
237.115
237.29
237.464
237.639
237.814
237.989
238.163
238.338
238.513
238.688
238.862
239.037
239.212
239.386
239.561
239.736
239.91
240.085
240.26
240.434
240.609
240.784
240.958
241.133
241.308
241.482
241.657
241.832
242.006
242.181
242.355
242.53
242.705
242.879
243.054
243.228
243.403
243.578
243.752
243.927
244.101
244.276
244.45
244.625
244.799
244.974
245.148
245.323
245.497
245.672
245.846
246.021
246.195
246.37
246.544
246.719
246.893
247.068
247.242
247.417
247.591
247.765
247.94
248.114
248.289
248.463
248.638
248.812
248.986
249.161
249.335
249.509
249.684
249.858
250.033
250.207
250.381
250.556
250.73
250.904
251.079
251.253
251.427
251.601
251.776
251.95
252.124
252.299
252.473
252.647
252.821
252.996
253.17
253.344
253.518
253.693
253.867
254.041
254.215
254.39
254.564
254.738
254.912
255.086
255.261
255.435
255.609
255.783
255.957
256.131
256.306
256.48
256.654
256.828
257.002
257.176
257.35
257.524
257.699
257.873
258.047
258.221
258.395
258.569
258.743
258.917
259.091
259.265
259.439
259.613
259.787
259.961
260.135
260.309
260.483
260.657
260.831
261.005
261.179
261.353
261.527
261.701
261.875
262.049
262.223
262.397
262.571
262.745
262.919
263.093
263.267
263.44
263.614
263.788
263.962
264.136
264.31
264.484
264.658
264.831
265.005
265.179
265.353
265.527
265.701
265.874
266.048
266.222
266.396
266.57
266.743
266.917
267.091
267.265
267.439
267.612
267.786
267.96
268.134
268.307
268.481
268.655
268.828
269.002
269.176
269.35
269.523
269.697
269.871
270.044
270.218
270.392
270.565
270.739
270.912
271.086
271.26
271.433
271.607
271.781
271.954
272.128
272.301
272.475
272.648
272.822
272.996
273.169
273.343
273.516
273.69
273.863
274.037
274.21
274.384
274.557
274.731
274.904
275.078
275.251
275.425
275.598
275.772
275.945
276.119
276.292
276.465
276.639
276.812
276.986
277.159
277.333
277.506
277.679
277.853
278.026
278.199
278.373
278.546
278.72
278.893
279.066
279.24
279.413
279.586
279.76
279.933
280.106
280.279
280.453
280.626
280.799
280.972
281.146
281.319
281.492
281.665
281.839
282.012
282.185
282.358
282.532
282.705
282.878
283.051
283.224
283.398
283.571
283.744
283.917
284.09
284.263
284.436
284.61
284.783
284.956
285.129
285.302
285.475
285.648
285.821
285.994
286.167
286.34
286.513
286.687
286.86
287.033
287.206
287.379
287.552
287.725
287.898
288.071
288.244
288.417
288.59
288.763
288.936
289.108
289.281
289.454
289.627
289.8
289.973
290.146
290.319
290.492
290.665
290.838
291.01
291.183
291.356
291.529
291.702
291.875
292.048
292.22
292.393
292.566
292.739
292.912
293.084
293.257
293.43
293.603
293.776
293.948
294.121
294.294
294.467
294.639
294.812
294.985
295.157
295.33
295.503
295.676
295.848
296.021
296.194
296.366
296.539
296.712
296.884
297.057
297.229
297.402
297.575
297.747
297.92
298.093
298.265
298.438
298.61
298.783
298.955
299.128
299.3
299.473
299.646
299.818
299.991
300.163
300.336
300.508
300.681
300.853
301.025
301.198
301.37
301.543
301.715
301.888
302.06
302.233
302.405
302.577
302.75
302.922
303.095
303.267
303.439
303.612
303.784
303.956
304.129
304.301
304.473
304.646
304.818
304.99
305.163
305.335
305.507
305.68
305.852
306.024
306.196
306.369
306.541
306.713
306.885
307.058
307.23
307.402
307.574
307.746
307.918
308.091
308.263
308.435
308.607
308.779
308.951
309.124
309.296
309.468
309.64
309.812
309.984
310.156
310.328
310.5
310.672
310.845
311.017
311.189
311.361
311.533
311.705
311.877
312.049
312.221
312.393
312.565
312.737
312.909
313.081
313.253
313.424
313.596
313.768
313.94
314.112
314.284
314.456
314.628
314.8
314.972
315.144
315.315
315.487
315.659
315.831
316.003
316.175
316.346
316.518
316.69
316.862
317.034
317.205
317.377
317.549
317.721
317.892
318.064
318.236
318.408
318.579
318.751
318.923
319.094
319.266
319.438
319.609
319.781
319.953
320.124
320.296
320.468
320.639
320.811
320.983
321.154
321.326
321.497
321.669
321.841
322.012
322.184
322.355
322.527
322.698
322.87
323.041
323.213
323.384
323.556
323.727
323.899
324.07
324.242
324.413
324.585
324.756
324.927
325.099
325.27
325.442
325.613
325.784
325.956
326.127
326.299
326.47
326.641
326.813
326.984
327.155
327.327
327.498
327.669
327.841
328.012
328.183
328.354
328.526
328.697
328.868
329.039
329.211
329.382
329.553
329.724
329.895
330.067
330.238
330.409
330.58
330.751
330.923
331.094
331.265
331.436
331.607
331.778
331.949
332.12
332.291
332.463
332.634
332.805
332.976
333.147
333.318
333.489
333.66
333.831
334.002
334.173
334.344
334.515
334.686
334.857
335.028
335.199
335.37
335.54
335.712
335.882
336.053
336.224
336.395
336.566
336.737
336.908
337.079
337.249
337.42
337.591
337.762
337.933
338.103
338.274
338.445
338.616
338.787
338.957
339.128
339.299
339.47
339.64
339.811
339.982
340.152
340.323
340.494
340.665
340.835
341.006
341.177
341.347
341.518
341.688
341.859
342.03
342.2
342.371
342.541
342.712
342.883
343.053
343.224
343.394
343.565
343.735
343.906
344.076
344.247
344.417
344.588
344.758
344.929
345.099
345.27
345.44
345.611
345.781
345.951
346.122
346.292
346.463
346.633
346.803
346.974
347.144
347.314
347.485
347.655
347.825
347.996
348.166
348.336
348.506
348.677
348.847
349.017
349.188
349.358
349.528
349.698
349.869
350.039
350.209
350.379
350.549
350.719
350.89
351.06
351.23
351.4
351.57
351.74
351.91
352.081
352.25
352.421
352.591
352.761
352.931
353.101
353.271
353.441
353.611
353.781
353.951
354.121
354.291
354.461
354.631
354.801
354.971
355.141
355.31
355.48
355.65
355.82
355.99
356.16
356.33
356.5
356.669
356.839
357.009
357.179
357.349
357.519
357.689
357.858
358.028
358.198
358.367
358.537
358.707
358.877
359.047
359.216
359.386
359.556
359.725
359.895
360.065
360.234
360.404
360.573
360.743
360.913
361.082
361.252
361.422
361.591
361.761
361.93
362.1
362.269
362.439
362.609
362.778
362.947
363.117
363.286
363.456
363.625
363.795
363.964
364.134
364.303
364.473
364.642
364.811
364.981
365.15
365.32
365.489
365.658
365.828
365.997
366.166
366.335
366.505
366.674
366.843
367.013
367.182
367.351
367.52
367.69
367.859
368.028
368.197
368.366
368.536
368.705
368.874
369.043
369.212
369.381
369.55
369.72
369.889
370.058
370.227
370.396
370.565
370.734
370.903
371.072
371.241
371.41
371.579
371.748
371.917
372.086
372.255
372.424
372.593
372.762
372.931
373.1
373.269
373.437
373.606
373.775
373.944
374.113
374.282
374.451
374.619
374.788
374.957
375.126
375.295
375.463
375.632
375.801
375.97
376.138
376.307
376.476
376.644
376.813
376.982
377.15
377.319
377.488
377.656
377.825
377.993
378.162
378.331
378.499
378.668
378.836
379.005
379.173
379.342
379.511
379.679
379.847
380.016
380.184
380.353
380.521
380.69
380.858
381.027
381.195
381.363
381.532
381.7
381.868
382.037
382.205
382.374
382.542
382.71
382.878
383.047
383.215
383.383
383.551
383.72
383.888
384.056
384.224
384.392
384.561
384.729
384.897
385.065
385.233
385.401
385.569
385.738
385.906
386.074
386.242
386.41
386.578
386.746
386.914
387.082
387.25
387.418
387.586
387.754
387.922
388.09
388.258
388.426
388.593
388.761
388.929
389.097
389.265
389.433
389.601
389.768
389.936
390.104
390.272
390.439
390.607
390.775
390.943
391.11
391.278
391.446
391.613
391.781
391.949
392.116
392.284
392.452
392.619
392.787
392.954
393.122
393.29
393.457
393.625
393.792
393.96
394.127
394.295
394.462
394.63
394.797
394.964
395.132
395.299
395.467
395.634
395.801
395.969
396.136
396.304
396.471
396.638
396.805
396.973
397.14
397.307
397.474
397.642
397.809
397.976
398.143
398.31
398.478
398.645
398.812
398.979
399.146
399.313
399.48
399.647
399.814
399.981
400.148
400.315
400.482
400.649
400.816
400.983
401.15
401.317
401.484
401.651
401.818
401.985
402.151
402.318
402.485
402.652
402.819
402.985
403.152
403.319
403.486
403.652
403.819
403.986
404.153
404.319
404.486
404.653
404.819
404.986
405.152
405.319
405.485
405.652
405.819
405.985
406.152
406.318
406.484
406.651
406.817
406.984
407.15
407.317
407.483
407.649
407.816
407.982
408.148
408.315
408.481
408.647
408.813
408.98
409.146
409.312
409.478
409.644
409.811
409.977
410.143
410.309
410.475
410.641
410.807
410.973
411.139
411.305
411.471
411.637
411.803
411.969
412.135
412.301
412.467
412.633
412.799
412.964
413.13
413.296
413.462
413.628
413.793
413.959
414.125
414.291
414.456
414.622
414.788
414.953
415.119
415.285
415.45
415.616
415.781
415.947
416.112
416.278
416.443
416.609
416.774
416.94
417.105
417.27
417.436
417.601
417.766
417.932
418.097
418.262
418.427
418.593
418.758
418.923
419.088
419.253
419.419
419.584
419.749
419.914
420.079
420.244
420.409
420.574
420.739
420.904
421.069
421.234
421.399
421.564
421.729
421.893
422.058
422.223
422.388
422.553
422.717
422.882
423.047
423.211
423.376
423.541
423.705
423.87
424.034
424.199
424.364
424.528
424.692
424.857
425.021
425.186
425.35
425.515
425.679
425.843
426.008
426.172
426.336
426.5
426.665
426.829
426.993
427.157
427.321
427.485
427.649
427.813
427.977
428.141
428.305
428.469
428.633
428.797
428.961
429.125
429.289
429.452
429.616
429.78
429.944
430.107
430.271
430.435
430.598
430.762
430.925
431.089
431.252
431.416
431.579
431.743
431.906
432.07
432.233
432.396
432.559
432.723
432.886
433.049
433.212
433.375
433.538
433.701
433.864
434.027
434.19
434.353
434.516
434.679
434.842
435.005
435.167
435.33
435.493
435.656
435.818
435.981
436.143
436.306
436.468
436.631
436.793
436.955
437.118
437.28
437.442
437.604
437.767
437.929
438.091
438.253
438.415
438.577
438.739
438.9
439.062
439.224
439.386
439.547
439.709
439.87
440.032
440.193
440.355
440.516
440.677
440.839
441
441.161
441.322
441.483
441.644
441.805
441.966
442.126
442.287
442.448
442.608
442.769
442.929
443.09
443.25
443.41
443.57
443.73
443.89
444.05
444.21
444.37
444.529
444.689
444.848
445.008
445.167
445.326
445.485
445.644
445.803
445.962
446.121
446.279
446.438
446.596
446.754
446.912
447.07
447.228
447.386
447.543
447.701
447.858
448.015
448.172
448.329
448.485
448.642
448.798
448.954
449.11
449.266
449.422
449.577
449.732
449.887
450.042
450.196
450.35
450.504
450.658
450.812
450.965
451.118
451.27
451.423
451.575
451.727
451.878
452.029
452.18
452.33
452.48
452.63
452.779
452.928
453.076
453.224
453.371
453.518
453.665
453.81
453.956
454.101
454.245
454.389
454.532
454.674
454.816
454.957
455.098
455.238
455.377
455.515
455.653
455.789
455.925
456.061
456.195
456.328
456.461
456.592
456.723
456.852
456.981
457.109
457.235
457.361
457.485
457.608
457.73
457.851
457.971
458.089
458.207
458.323
458.438
458.551
458.663
458.774
458.884
458.992
459.099
459.204
459.308
459.411
459.512
459.611
459.71
459.807
459.902
459.996
460.089
460.18
460.269
460.357
460.444
460.529
460.613
460.696
460.777
460.856
460.934
461.011
461.086
461.161
461.233
461.305
461.375
461.444
461.511
461.577
461.643
461.706
461.769
461.831
461.891
461.951
462.009
462.066
462.123
462.178
462.232
462.286
462.338
462.39
462.441
462.491
462.54
462.589
462.637
462.684
462.73
462.776
462.821
462.866
462.91
462.953
462.996
463.039
463.081
463.123
463.164
463.205
463.245
463.285
463.325
463.364
463.403
463.442
463.48
463.518
463.556
463.594
463.632
463.669
463.706
463.743
463.78
463.816
463.853
463.889
463.925
463.961
463.997
464.033
464.069
464.104
464.14
464.175
464.21
464.246
464.281
464.316
464.351
464.386
464.421
464.456
464.49
464.525
464.56
464.595
464.629
464.664
464.698
464.733
464.767
464.802
464.836
464.87
464.905
464.939
464.973
465.008
465.042
465.076
465.11
465.144
465.179
465.213
465.247
465.281
465.315
465.349
465.383
465.417
465.451
465.485
465.519
465.553
465.586
465.62
465.654
465.688
465.722
465.756
465.789
465.823
465.857
465.891
465.924
465.958
465.992
466.025
466.059
466.092
466.126
466.159
466.193
466.227
466.26
466.293
466.327
466.36
466.394
466.427
466.461
466.494
466.527
466.561
466.594
466.627
466.66
466.694
466.727
466.76
466.793
466.827
466.86
466.893
466.926
466.959
466.992
467.025
467.058
467.091
467.124
467.157
467.19
467.223
467.256
467.289
467.322
467.355
467.388
467.421
467.453
467.486
467.519
467.552
467.585
467.617
467.65
467.683
467.715
467.748
467.781
467.813
467.846
467.878
467.911
467.944
467.976
468.009
468.041
468.074
468.106
468.138
468.171
468.203
468.236
468.268
468.3
468.333
468.365
468.397
468.43
468.462
468.494
468.526
468.559
468.591
468.623
468.655
468.687
468.719
468.751
468.783
468.815
468.847
468.879
468.911
468.943
468.975
469.007
469.039
469.071
469.103
469.135
469.167
469.199
469.23
469.262
469.294
469.326
469.357
469.389
469.421
469.453
469.484
469.516
469.548
469.579
469.611
469.642
469.674
469.705
469.737
469.768
469.8
469.831
469.863
469.894
469.926
469.957
469.988
470.02
470.051
470.082
470.114
470.145
470.176
470.208
470.239
470.27
470.301
470.332
470.364
470.395
470.426
470.457
470.488
470.519
470.55
470.581
470.612
470.643
470.674
470.705
470.736
470.767
470.798
470.829
470.86
470.89
470.921
470.952
470.983
471.014
471.044
471.075
471.106
471.137
471.167
471.198
471.229
471.259
471.29
471.32
471.351
471.381
471.412
471.443
471.473
471.504
471.534
471.564
471.595
471.625
471.656
471.686
471.716
471.747
471.777
471.807
471.838
471.868
471.898
471.928
471.959
471.989
472.019
472.049
472.079
472.109
472.14
472.17
472.2
472.23
472.26
472.29
472.32
472.35
472.38
472.41
472.44
472.47
472.499
472.529
472.559
472.589
472.619
472.649
472.678
472.708
472.738
472.768
472.797
472.827
472.857
472.886
472.916
472.946
472.975
473.005
473.034
473.064
473.093
473.123
473.152
473.182
473.211
473.241
473.27
473.3
473.329
473.358
473.388
473.417
473.446
473.476
473.505
473.534
473.564
473.593
473.622
473.651
473.68
473.71
473.739
473.768
473.797
473.826
473.855
473.884
473.913
473.942
473.971
474
474.029
474.058
474.087
474.116
474.145
474.174
474.202
474.231
474.26
474.289
474.318
474.346
474.375
474.404
474.433
474.461
474.49
474.519
474.547
474.576
474.605
474.633
474.662
474.69
474.719
474.747
474.776
474.804
474.833
474.861
474.89
474.918
474.946
474.975
475.003
475.032
475.06
475.088
475.116
475.145
475.173
475.201
475.229
475.258
475.286
475.314
475.342
475.37
475.398
475.426
475.455
475.483
475.511
475.539
475.567
475.595
475.623
475.651
475.678
475.706
475.734
475.762
475.79
475.818
475.846
475.874
475.901
475.929
475.957
475.985
476.012
476.04
476.068
476.095
476.123
476.151
476.178
476.206
476.234
476.261
476.289
476.316
476.344
476.371
476.399
476.426
476.454
476.481
476.508
476.536
476.563
476.591
476.618
476.645
476.672
476.7
476.727
476.754
476.782
476.809
476.836
476.863
476.89
476.917
476.945
476.972
476.999
477.026
477.053
477.08
477.107
477.134
477.161
477.188
477.215
477.242
477.269
477.296
477.323
477.349
477.376
477.403
477.43
477.457
477.484
477.51
477.537
477.564
477.59
477.617
477.644
477.67
477.697
477.724
477.75
477.777
477.804
477.83
477.857
477.883
477.91
477.936
477.963
477.989
478.015
478.042
478.068
478.095
478.121
478.147
478.174
478.2
478.226
478.253
478.279
478.305
478.331
478.358
478.384
478.41
478.436
478.462
478.488
478.514
478.541
478.567
478.593
478.619
478.645
478.671
478.697
478.723
478.749
478.775
478.801
478.826
478.852
478.878
478.904
478.93
478.956
478.981
479.007
479.033
479.059
479.084
479.11
479.136
479.162
479.187
479.213
479.238
479.264
479.29
479.315
479.341
479.366
479.392
479.417
479.443
479.468
479.494
479.519
479.545
479.57
479.595
479.621
479.646
479.671
479.697
479.722
479.747
479.773
479.798
479.823
479.848
479.874
479.899
479.924
479.949
479.974
479.999
480.024
480.049
480.075
480.1
480.125
480.15
480.175
480.2
480.225
480.249
480.274
480.299
480.324
480.349
480.374
480.399
480.424
480.448
480.473
480.498
480.523
480.547
480.572
480.597
480.622
480.646
480.671
480.695
480.72
480.745
480.769
480.794
480.818
480.843
480.867
480.892
480.916
480.941
480.965
480.99
481.014
481.039
481.063
481.087
481.112
481.136
481.16
481.185
481.209
481.233
481.257
481.282
481.306
481.33
481.354
481.378
481.403
481.427
481.451
481.475
481.499
481.523
481.547
481.571
481.595
481.619
481.643
481.667
481.691
481.715
481.739
481.763
481.787
481.81
481.834
481.858
481.882
481.906
481.93
481.953
481.977
482.001
482.024
482.048
482.072
482.095
482.119
482.143
482.166
482.19
482.213
482.237
482.261
482.284
482.308
482.331
482.355
482.378
482.401
482.425
482.448
482.472
482.495
482.518
482.542
482.565
482.588
482.612
482.635
482.658
482.681
482.705
482.728
482.751
482.774
482.797
482.821
482.844
482.867
482.89
482.913
482.936
482.959
482.982
483.005
483.028
483.051
483.074
483.097
483.12
483.143
483.166
483.188
483.211
483.234
483.257
483.28
483.303
483.325
483.348
483.371
483.394
483.416
483.439
483.462
483.484
483.507
483.53
483.552
483.575
483.597
483.62
483.642
483.665
483.687
483.71
483.732
483.755
483.777
483.8
483.822
483.845
483.867
483.889
483.912
483.934
483.956
483.979
484.001
484.023
484.045
484.068
484.09
484.112
484.134
484.156
484.178
484.201
484.223
484.245
484.267
484.289
484.311
484.333
484.355
484.377
484.399
484.421
484.443
484.465
484.487
484.509
484.531
484.552
484.574
484.596
484.618
484.64
484.661
484.683
484.705
484.727
484.748
484.77
484.792
484.813
484.835
484.857
484.878
484.9
484.922
484.943
484.965
484.986
485.008
485.029
485.051
485.072
485.094
485.115
485.136
485.158
485.179
485.201
485.222
485.243
485.265
485.286
485.307
485.329
485.35
485.371
485.392
485.413
485.435
485.456
485.477
485.498
485.519
485.54
485.561
485.583
485.604
485.625
485.646
485.667
485.688
485.709
485.73
485.751
485.772
485.792
485.813
485.834
485.855
485.876
485.897
485.918
485.938
485.959
485.98
486.001
486.021
486.042
486.063
486.084
486.104
486.125
486.146
486.166
486.187
486.207
486.228
486.249
486.269
486.29
486.31
486.331
486.351
486.372
486.392
486.412
486.433
486.453
486.474
486.494
486.514
486.535
486.555
486.575
486.596
486.616
486.636
486.656
486.677
486.697
486.717
486.737
486.757
486.777
486.797
486.818
486.838
486.858
486.878
486.898
486.918
486.938
486.958
486.978
486.998
487.018
487.038
487.058
487.078
487.097
487.117
487.137
487.157
487.177
487.197
487.216
487.236
487.256
487.276
487.295
487.315
487.335
487.354
487.374
487.394
487.413
487.433
487.453
487.472
487.492
487.511
487.531
487.55
487.57
487.589
487.609
487.628
487.648
487.667
487.686
487.706
487.725
487.745
487.764
487.783
487.802
487.822
487.841
487.86
487.88
487.899
487.918
487.937
487.956
487.976
487.995
488.014
488.033
488.052
488.071
488.09
488.109
488.128
488.147
488.166
488.185
488.204
488.223
488.242
488.261
488.28
488.299
488.318
488.337
488.355
488.374
488.393
488.412
488.431
488.449
488.468
488.487
488.506
488.524
488.543
488.562
488.58
488.599
488.618
488.636
488.655
488.673
488.692
488.71
488.729
488.748
488.766
488.784
488.803
488.821
488.84
488.858
488.877
488.895
488.913
488.932
488.95
488.968
488.987
489.005
489.023
489.042
489.06
489.078
489.096
489.114
489.133
489.151
489.169
489.187
489.205
489.223
489.241
489.259
489.277
489.296
489.314
489.332
489.35
489.368
489.385
489.403
489.421
489.439
489.457
489.475
489.493
489.511
489.529
489.546
489.564
489.582
489.6
489.618
489.635
489.653
489.671
489.688
489.706
489.724
489.741
489.759
489.777
489.794
489.812
489.829
489.847
489.865
489.882
489.9
489.917
489.935
489.952