/*--------------------------------*- C++ -*----------------------------------*\
  =========                 |
  \\      /  F ield         | OpenFOAM: The Open Source CFD Toolbox
   \\    /   O peration     | Website:  https://openfoam.org
    \\  /    A nd           | Version:  9
     \\/     M anipulation  |
\*---------------------------------------------------------------------------*/
FoamFile
{
    format      ascii;
    class       volScalarField;
    location    "0.019";
    object      rho;
}
// * * * * * * * * * * * * * * * * * * * * * * * * * * * * * * * * * * * * * //

dimensions      [1 -3 0 0 0 0 0];

internalField   nonuniform List<scalar> 
10000
(
0.575011
0.574995
0.574974
0.574954
0.574931
0.574905
0.574882
0.574863
0.574849
0.57484
0.574833
0.574829
0.574825
0.574821
0.574818
0.574816
0.574813
0.574811
0.574808
0.574805
0.574803
0.5748
0.574797
0.574795
0.574792
0.574789
0.574786
0.574784
0.574781
0.574778
0.574776
0.574773
0.57477
0.574768
0.574765
0.574762
0.574759
0.574757
0.574754
0.574751
0.574748
0.574746
0.574743
0.57474
0.574737
0.574735
0.574732
0.574729
0.574726
0.574724
0.574721
0.574718
0.574715
0.574712
0.57471
0.574707
0.574704
0.574701
0.574698
0.574696
0.574693
0.57469
0.574687
0.574684
0.574681
0.574679
0.574676
0.574673
0.57467
0.574667
0.574664
0.574661
0.574659
0.574656
0.574653
0.57465
0.574647
0.574644
0.574641
0.574638
0.574636
0.574633
0.57463
0.574627
0.574624
0.574621
0.574618
0.574615
0.574612
0.574609
0.574606
0.574603
0.5746
0.574597
0.574595
0.574592
0.574589
0.574586
0.574583
0.57458
0.574577
0.574574
0.574571
0.574568
0.574565
0.574562
0.574559
0.574556
0.574553
0.57455
0.574547
0.574544
0.574541
0.574538
0.574535
0.574532
0.574529
0.574526
0.574523
0.574519
0.574516
0.574513
0.57451
0.574507
0.574504
0.574501
0.574498
0.574495
0.574492
0.574489
0.574486
0.574483
0.57448
0.574476
0.574473
0.57447
0.574467
0.574464
0.574461
0.574458
0.574455
0.574451
0.574448
0.574445
0.574442
0.574439
0.574436
0.574433
0.574429
0.574426
0.574423
0.57442
0.574417
0.574414
0.57441
0.574407
0.574404
0.574401
0.574398
0.574394
0.574391
0.574388
0.574385
0.574382
0.574378
0.574375
0.574372
0.574369
0.574365
0.574362
0.574359
0.574356
0.574352
0.574349
0.574346
0.574343
0.574339
0.574336
0.574333
0.574329
0.574326
0.574323
0.57432
0.574316
0.574313
0.57431
0.574306
0.574303
0.5743
0.574296
0.574293
0.57429
0.574286
0.574283
0.57428
0.574276
0.574273
0.57427
0.574266
0.574263
0.57426
0.574256
0.574253
0.57425
0.574246
0.574243
0.574239
0.574236
0.574233
0.574229
0.574226
0.574222
0.574219
0.574216
0.574212
0.574209
0.574205
0.574202
0.574198
0.574195
0.574192
0.574188
0.574185
0.574181
0.574178
0.574174
0.574171
0.574167
0.574164
0.57416
0.574157
0.574153
0.57415
0.574147
0.574143
0.57414
0.574136
0.574132
0.574129
0.574125
0.574122
0.574118
0.574115
0.574111
0.574108
0.574104
0.574101
0.574097
0.574094
0.57409
0.574087
0.574083
0.574079
0.574076
0.574072
0.574069
0.574065
0.574062
0.574058
0.574054
0.574051
0.574047
0.574044
0.57404
0.574036
0.574033
0.574029
0.574025
0.574022
0.574018
0.574015
0.574011
0.574007
0.574004
0.574
0.573996
0.573993
0.573989
0.573985
0.573982
0.573978
0.573974
0.573971
0.573967
0.573963
0.57396
0.573956
0.573952
0.573948
0.573945
0.573941
0.573937
0.573934
0.57393
0.573926
0.573922
0.573919
0.573915
0.573911
0.573907
0.573904
0.5739
0.573896
0.573892
0.573889
0.573885
0.573881
0.573877
0.573873
0.57387
0.573866
0.573862
0.573858
0.573854
0.573851
0.573847
0.573843
0.573839
0.573835
0.573832
0.573828
0.573824
0.57382
0.573816
0.573812
0.573808
0.573805
0.573801
0.573797
0.573793
0.573789
0.573785
0.573781
0.573777
0.573774
0.57377
0.573766
0.573762
0.573758
0.573754
0.57375
0.573746
0.573742
0.573738
0.573734
0.573731
0.573727
0.573723
0.573719
0.573715
0.573711
0.573707
0.573703
0.573699
0.573695
0.573691
0.573687
0.573683
0.573679
0.573675
0.573671
0.573667
0.573663
0.573659
0.573655
0.573651
0.573647
0.573643
0.573639
0.573635
0.573631
0.573627
0.573623
0.573619
0.573615
0.573611
0.573607
0.573603
0.573599
0.573595
0.57359
0.573586
0.573582
0.573578
0.573574
0.57357
0.573566
0.573562
0.573558
0.573554
0.573549
0.573545
0.573541
0.573537
0.573533
0.573529
0.573525
0.573521
0.573516
0.573512
0.573508
0.573504
0.5735
0.573496
0.573492
0.573487
0.573483
0.573479
0.573475
0.573471
0.573466
0.573462
0.573458
0.573454
0.57345
0.573445
0.573441
0.573437
0.573433
0.573429
0.573424
0.57342
0.573416
0.573412
0.573407
0.573403
0.573399
0.573395
0.57339
0.573386
0.573382
0.573378
0.573373
0.573369
0.573365
0.57336
0.573356
0.573352
0.573347
0.573343
0.573339
0.573335
0.57333
0.573326
0.573322
0.573317
0.573313
0.573309
0.573304
0.5733
0.573296
0.573291
0.573287
0.573282
0.573278
0.573274
0.573269
0.573265
0.573261
0.573256
0.573252
0.573247
0.573243
0.573239
0.573234
0.57323
0.573225
0.573221
0.573217
0.573212
0.573208
0.573203
0.573199
0.573194
0.57319
0.573185
0.573181
0.573177
0.573172
0.573168
0.573163
0.573159
0.573154
0.57315
0.573145
0.573141
0.573136
0.573132
0.573127
0.573123
0.573118
0.573114
0.573109
0.573105
0.5731
0.573096
0.573091
0.573087
0.573082
0.573077
0.573073
0.573068
0.573064
0.573059
0.573055
0.57305
0.573046
0.573041
0.573036
0.573032
0.573027
0.573023
0.573018
0.573013
0.573009
0.573004
0.573
0.572995
0.57299
0.572986
0.572981
0.572976
0.572972
0.572967
0.572962
0.572958
0.572953
0.572948
0.572944
0.572939
0.572934
0.57293
0.572925
0.57292
0.572916
0.572911
0.572906
0.572902
0.572897
0.572892
0.572888
0.572883
0.572878
0.572873
0.572869
0.572864
0.572859
0.572854
0.57285
0.572845
0.57284
0.572835
0.572831
0.572826
0.572821
0.572816
0.572812
0.572807
0.572802
0.572797
0.572792
0.572788
0.572783
0.572778
0.572773
0.572768
0.572764
0.572759
0.572754
0.572749
0.572744
0.572739
0.572735
0.57273
0.572725
0.57272
0.572715
0.57271
0.572705
0.572701
0.572696
0.572691
0.572686
0.572681
0.572676
0.572671
0.572666
0.572661
0.572657
0.572652
0.572647
0.572642
0.572637
0.572632
0.572627
0.572622
0.572617
0.572612
0.572607
0.572602
0.572597
0.572592
0.572587
0.572582
0.572578
0.572573
0.572568
0.572563
0.572558
0.572553
0.572548
0.572543
0.572538
0.572533
0.572528
0.572523
0.572518
0.572513
0.572507
0.572502
0.572497
0.572492
0.572487
0.572482
0.572477
0.572472
0.572467
0.572462
0.572457
0.572452
0.572447
0.572442
0.572437
0.572432
0.572426
0.572421
0.572416
0.572411
0.572406
0.572401
0.572396
0.572391
0.572386
0.57238
0.572375
0.57237
0.572365
0.57236
0.572355
0.57235
0.572344
0.572339
0.572334
0.572329
0.572324
0.572319
0.572313
0.572308
0.572303
0.572298
0.572293
0.572287
0.572282
0.572277
0.572272
0.572267
0.572261
0.572256
0.572251
0.572246
0.57224
0.572235
0.57223
0.572225
0.572219
0.572214
0.572209
0.572204
0.572198
0.572193
0.572188
0.572182
0.572177
0.572172
0.572167
0.572161
0.572156
0.572151
0.572145
0.57214
0.572135
0.572129
0.572124
0.572119
0.572113
0.572108
0.572103
0.572097
0.572092
0.572087
0.572081
0.572076
0.57207
0.572065
0.57206
0.572054
0.572049
0.572044
0.572038
0.572033
0.572027
0.572022
0.572017
0.572011
0.572006
0.572
0.571995
0.571989
0.571984
0.571979
0.571973
0.571968
0.571962
0.571957
0.571951
0.571946
0.57194
0.571935
0.571929
0.571924
0.571918
0.571913
0.571907
0.571902
0.571896
0.571891
0.571885
0.57188
0.571874
0.571869
0.571863
0.571858
0.571852
0.571847
0.571841
0.571836
0.57183
0.571824
0.571819
0.571813
0.571808
0.571802
0.571797
0.571791
0.571785
0.57178
0.571774
0.571769
0.571763
0.571757
0.571752
0.571746
0.571741
0.571735
0.571729
0.571724
0.571718
0.571712
0.571707
0.571701
0.571696
0.57169
0.571684
0.571679
0.571673
0.571667
0.571662
0.571656
0.57165
0.571644
0.571639
0.571633
0.571627
0.571622
0.571616
0.57161
0.571605
0.571599
0.571593
0.571587
0.571582
0.571576
0.57157
0.571564
0.571559
0.571553
0.571547
0.571541
0.571536
0.57153
0.571524
0.571518
0.571512
0.571507
0.571501
0.571495
0.571489
0.571483
0.571478
0.571472
0.571466
0.57146
0.571454
0.571449
0.571443
0.571437
0.571431
0.571425
0.571419
0.571414
0.571408
0.571402
0.571396
0.57139
0.571384
0.571378
0.571372
0.571367
0.571361
0.571355
0.571349
0.571343
0.571337
0.571331
0.571325
0.571319
0.571313
0.571307
0.571301
0.571296
0.57129
0.571284
0.571278
0.571272
0.571266
0.57126
0.571254
0.571248
0.571242
0.571236
0.57123
0.571224
0.571218
0.571212
0.571206
0.5712
0.571194
0.571188
0.571182
0.571176
0.57117
0.571164
0.571158
0.571152
0.571146
0.57114
0.571134
0.571128
0.571122
0.571115
0.571109
0.571103
0.571097
0.571091
0.571085
0.571079
0.571073
0.571067
0.571061
0.571055
0.571049
0.571042
0.571036
0.57103
0.571024
0.571018
0.571012
0.571006
0.570999
0.570993
0.570987
0.570981
0.570975
0.570969
0.570963
0.570956
0.57095
0.570944
0.570938
0.570932
0.570925
0.570919
0.570913
0.570907
0.570901
0.570894
0.570888
0.570882
0.570876
0.57087
0.570863
0.570857
0.570851
0.570845
0.570838
0.570832
0.570826
0.57082
0.570813
0.570807
0.570801
0.570794
0.570788
0.570782
0.570776
0.570769
0.570763
0.570757
0.57075
0.570744
0.570738
0.570731
0.570725
0.570719
0.570712
0.570706
0.5707
0.570693
0.570687
0.570681
0.570674
0.570668
0.570662
0.570655
0.570649
0.570643
0.570636
0.57063
0.570623
0.570617
0.570611
0.570604
0.570598
0.570591
0.570585
0.570578
0.570572
0.570566
0.570559
0.570553
0.570546
0.57054
0.570533
0.570527
0.570521
0.570514
0.570508
0.570501
0.570495
0.570488
0.570482
0.570475
0.570469
0.570462
0.570456
0.570449
0.570443
0.570436
0.57043
0.570423
0.570417
0.57041
0.570404
0.570397
0.57039
0.570384
0.570377
0.570371
0.570364
0.570358
0.570351
0.570345
0.570338
0.570331
0.570325
0.570318
0.570312
0.570305
0.570298
0.570292
0.570285
0.570279
0.570272
0.570265
0.570259
0.570252
0.570245
0.570239
0.570232
0.570225
0.570219
0.570212
0.570206
0.570199
0.570192
0.570186
0.570179
0.570172
0.570165
0.570159
0.570152
0.570145
0.570139
0.570132
0.570125
0.570119
0.570112
0.570105
0.570098
0.570092
0.570085
0.570078
0.570071
0.570065
0.570058
0.570051
0.570044
0.570038
0.570031
0.570024
0.570017
0.570011
0.570004
0.569997
0.56999
0.569983
0.569977
0.56997
0.569963
0.569956
0.569949
0.569942
0.569936
0.569929
0.569922
0.569915
0.569908
0.569901
0.569895
0.569888
0.569881
0.569874
0.569867
0.56986
0.569853
0.569846
0.56984
0.569833
0.569826
0.569819
0.569812
0.569805
0.569798
0.569791
0.569784
0.569777
0.56977
0.569763
0.569757
0.56975
0.569743
0.569736
0.569729
0.569722
0.569715
0.569708
0.569701
0.569694
0.569687
0.56968
0.569673
0.569666
0.569659
0.569652
0.569645
0.569638
0.569631
0.569624
0.569617
0.56961
0.569603
0.569596
0.569589
0.569582
0.569575
0.569568
0.569561
0.569553
0.569546
0.569539
0.569532
0.569525
0.569518
0.569511
0.569504
0.569497
0.56949
0.569483
0.569475
0.569468
0.569461
0.569454
0.569447
0.56944
0.569433
0.569426
0.569418
0.569411
0.569404
0.569397
0.56939
0.569383
0.569375
0.569368
0.569361
0.569354
0.569347
0.56934
0.569332
0.569325
0.569318
0.569311
0.569304
0.569296
0.569289
0.569282
0.569275
0.569267
0.56926
0.569253
0.569246
0.569238
0.569231
0.569224
0.569217
0.569209
0.569202
0.569195
0.569188
0.56918
0.569173
0.569166
0.569158
0.569151
0.569144
0.569136
0.569129
0.569122
0.569115
0.569107
0.5691
0.569093
0.569085
0.569078
0.569071
0.569063
0.569056
0.569048
0.569041
0.569034
0.569026
0.569019
0.569012
0.569004
0.568997
0.568989
0.568982
0.568975
0.568967
0.56896
0.568952
0.568945
0.568938
0.56893
0.568923
0.568915
0.568908
0.5689
0.568893
0.568885
0.568878
0.56887
0.568863
0.568856
0.568848
0.568841
0.568833
0.568826
0.568818
0.568811
0.568803
0.568796
0.568788
0.568781
0.568773
0.568766
0.568758
0.56875
0.568743
0.568735
0.568728
0.56872
0.568713
0.568705
0.568698
0.56869
0.568682
0.568675
0.568667
0.56866
0.568652
0.568645
0.568637
0.568629
0.568622
0.568614
0.568607
0.568599
0.568591
0.568584
0.568576
0.568568
0.568561
0.568553
0.568545
0.568538
0.56853
0.568522
0.568515
0.568507
0.568499
0.568492
0.568484
0.568476
0.568469
0.568461
0.568453
0.568446
0.568438
0.56843
0.568422
0.568415
0.568407
0.568399
0.568392
0.568384
0.568376
0.568368
0.568361
0.568353
0.568345
0.568337
0.56833
0.568322
0.568314
0.568306
0.568298
0.568291
0.568283
0.568275
0.568267
0.568259
0.568252
0.568244
0.568236
0.568228
0.56822
0.568212
0.568205
0.568197
0.568189
0.568181
0.568173
0.568165
0.568158
0.56815
0.568142
0.568134
0.568126
0.568118
0.56811
0.568102
0.568094
0.568087
0.568079
0.568071
0.568063
0.568055
0.568047
0.568039
0.568031
0.568023
0.568015
0.568007
0.567999
0.567991
0.567983
0.567975
0.567967
0.567959
0.567952
0.567944
0.567936
0.567928
0.56792
0.567912
0.567904
0.567896
0.567888
0.56788
0.567871
0.567863
0.567855
0.567847
0.567839
0.567831
0.567823
0.567815
0.567807
0.567799
0.567791
0.567783
0.567775
0.567767
0.567759
0.567751
0.567743
0.567734
0.567726
0.567718
0.56771
0.567702
0.567694
0.567686
0.567678
0.56767
0.567661
0.567653
0.567645
0.567637
0.567629
0.567621
0.567613
0.567604
0.567596
0.567588
0.56758
0.567572
0.567563
0.567555
0.567547
0.567539
0.567531
0.567523
0.567514
0.567506
0.567498
0.56749
0.567481
0.567473
0.567465
0.567457
0.567448
0.56744
0.567432
0.567424
0.567415
0.567407
0.567399
0.567391
0.567382
0.567374
0.567366
0.567357
0.567349
0.567341
0.567333
0.567324
0.567316
0.567308
0.567299
0.567291
0.567283
0.567274
0.567266
0.567258
0.567249
0.567241
0.567232
0.567224
0.567216
0.567207
0.567199
0.567191
0.567182
0.567174
0.567165
0.567157
0.567149
0.56714
0.567132
0.567123
0.567115
0.567107
0.567098
0.56709
0.567081
0.567073
0.567064
0.567056
0.567047
0.567039
0.567031
0.567022
0.567014
0.567005
0.566997
0.566988
0.56698
0.566971
0.566963
0.566954
0.566946
0.566937
0.566929
0.56692
0.566912
0.566903
0.566894
0.566886
0.566877
0.566869
0.56686
0.566852
0.566843
0.566835
0.566826
0.566817
0.566809
0.5668
0.566792
0.566783
0.566775
0.566766
0.566757
0.566749
0.56674
0.566731
0.566723
0.566714
0.566706
0.566697
0.566688
0.56668
0.566671
0.566662
0.566654
0.566645
0.566636
0.566628
0.566619
0.56661
0.566602
0.566593
0.566584
0.566576
0.566567
0.566558
0.566549
0.566541
0.566532
0.566523
0.566515
0.566506
0.566497
0.566488
0.56648
0.566471
0.566462
0.566453
0.566445
0.566436
0.566427
0.566418
0.566409
0.566401
0.566392
0.566383
0.566374
0.566366
0.566357
0.566348
0.566339
0.56633
0.566321
0.566313
0.566304
0.566295
0.566286
0.566277
0.566268
0.56626
0.566251
0.566242
0.566233
0.566224
0.566215
0.566206
0.566197
0.566188
0.56618
0.566171
0.566162
0.566153
0.566144
0.566135
0.566126
0.566117
0.566108
0.566099
0.56609
0.566081
0.566072
0.566064
0.566055
0.566046
0.566037
0.566028
0.566019
0.56601
0.566001
0.565992
0.565983
0.565974
0.565965
0.565956
0.565947
0.565938
0.565929
0.56592
0.565911
0.565902
0.565893
0.565884
0.565874
0.565865
0.565856
0.565847
0.565838
0.565829
0.56582
0.565811
0.565802
0.565793
0.565784
0.565775
0.565766
0.565756
0.565747
0.565738
0.565729
0.56572
0.565711
0.565702
0.565693
0.565683
0.565674
0.565665
0.565656
0.565647
0.565638
0.565628
0.565619
0.56561
0.565601
0.565592
0.565583
0.565573
0.565564
0.565555
0.565546
0.565537
0.565527
0.565518
0.565509
0.5655
0.56549
0.565481
0.565472
0.565463
0.565453
0.565444
0.565435
0.565426
0.565416
0.565407
0.565398
0.565389
0.565379
0.56537
0.565361
0.565351
0.565342
0.565333
0.565323
0.565314
0.565305
0.565295
0.565286
0.565277
0.565267
0.565258
0.565249
0.565239
0.56523
0.565221
0.565211
0.565202
0.565193
0.565183
0.565174
0.565164
0.565155
0.565146
0.565136
0.565127
0.565117
0.565108
0.565098
0.565089
0.56508
0.56507
0.565061
0.565051
0.565042
0.565032
0.565023
0.565013
0.565004
0.564995
0.564985
0.564976
0.564966
0.564957
0.564947
0.564938
0.564928
0.564919
0.564909
0.5649
0.56489
0.564881
0.564871
0.564861
0.564852
0.564842
0.564833
0.564823
0.564814
0.564804
0.564795
0.564785
0.564775
0.564766
0.564756
0.564747
0.564737
0.564727
0.564718
0.564708
0.564699
0.564689
0.564679
0.56467
0.56466
0.56465
0.564641
0.564631
0.564622
0.564612
0.564602
0.564593
0.564583
0.564573
0.564564
0.564554
0.564544
0.564535
0.564525
0.564515
0.564505
0.564496
0.564486
0.564476
0.564467
0.564457
0.564447
0.564437
0.564428
0.564418
0.564408
0.564398
0.564389
0.564379
0.564369
0.564359
0.56435
0.56434
0.56433
0.56432
0.56431
0.564301
0.564291
0.564281
0.564271
0.564261
0.564251
0.564242
0.564232
0.564222
0.564212
0.564202
0.564192
0.564183
0.564173
0.564163
0.564153
0.564143
0.564133
0.564123
0.564114
0.564104
0.564094
0.564084
0.564074
0.564064
0.564054
0.564044
0.564034
0.564024
0.564014
0.564005
0.563994
0.563985
0.563974
0.563965
0.563954
0.563945
0.563934
0.563925
0.563914
0.563905
0.563894
0.563886
0.563874
0.563866
0.563854
0.563846
0.563834
0.563826
0.563814
0.563805
0.563794
0.563785
0.563774
0.563765
0.563754
0.563745
0.563734
0.563725
0.563714
0.563705
0.563694
0.563685
0.563673
0.563665
0.563653
0.563644
0.563633
0.563624
0.563613
0.563604
0.563593
0.563583
0.563573
0.563562
0.563553
0.563542
0.563533
0.563521
0.563513
0.563501
0.563492
0.563481
0.563471
0.563461
0.563451
0.563441
0.56343
0.563421
0.56341
0.5634
0.563389
0.56338
0.563369
0.563359
0.563349
0.563338
0.563329
0.563317
0.563308
0.563297
0.563288
0.563277
0.563267
0.563257
0.563246
0.563236
0.563225
0.563216
0.563204
0.563195
0.563184
0.563174
0.563164
0.563153
0.563144
0.563132
0.563123
0.563112
0.563102
0.563092
0.563081
0.563071
0.56306
0.56305
0.563039
0.563029
0.563019
0.563008
0.562998
0.562987
0.562978
0.562966
0.562957
0.562946
0.562935
0.562926
0.562914
0.562905
0.562893
0.562884
0.562873
0.562862
0.562852
0.562841
0.562832
0.56282
0.56281
0.5628
0.562789
0.562779
0.562767
0.562758
0.562747
0.562736
0.562726
0.562715
0.562706
0.562694
0.562684
0.562673
0.562663
0.562653
0.562641
0.562632
0.56262
0.56261
0.5626
0.562588
0.562579
0.562567
0.562558
0.562546
0.562536
0.562526
0.562514
0.562505
0.562493
0.562483
0.562473
0.562461
0.562452
0.56244
0.56243
0.562419
0.562408
0.562398
0.562386
0.562377
0.562366
0.562355
0.562345
0.562333
0.562324
0.562312
0.562301
0.562291
0.562279
0.56227
0.562258
0.562248
0.562238
0.562226
0.562216
0.562204
0.562195
0.562184
0.562172
0.562163
0.56215
0.562141
0.56213
0.562118
0.562109
0.562096
0.562087
0.562076
0.562064
0.562055
0.562042
0.562033
0.562021
0.56201
0.562001
0.561988
0.561979
0.561967
0.561956
0.561946
0.561934
0.561924
0.561913
0.561902
0.561892
0.56188
0.56187
0.561858
0.561847
0.561837
0.561825
0.561815
0.561804
0.561792
0.561783
0.56177
0.56176
0.561749
0.561738
0.561728
0.561716
0.561705
0.561695
0.561683
0.561673
0.561661
0.56165
0.56164
0.561628
0.561618
0.561606
0.561595
0.561585
0.561573
0.561563
0.561551
0.56154
0.56153
0.561518
0.561507
0.561496
0.561484
0.561474
0.561462
0.561451
0.561441
0.561429
0.561419
0.561407
0.561396
0.561385
0.561373
0.561363
0.561352
0.56134
0.56133
0.561318
0.561307
0.561296
0.561284
0.561274
0.561262
0.561251
0.56124
0.561228
0.561218
0.561207
0.561195
0.561184
0.561173
0.561162
0.561151
0.561139
0.561128
0.561117
0.561105
0.561095
0.561083
0.561072
0.561061
0.561049
0.561038
0.561027
0.561015
0.561005
0.560993
0.560982
0.56097
0.560959
0.560948
0.560936
0.560925
0.560914
0.560902
0.560891
0.56088
0.560868
0.560857
0.560846
0.560834
0.560823
0.560811
0.5608
0.560789
0.560777
0.560766
0.560755
0.560743
0.560732
0.56072
0.560709
0.560698
0.560686
0.560675
0.560663
0.560652
0.560641
0.560629
0.560618
0.560606
0.560594
0.560583
0.560572
0.56056
0.560549
0.560537
0.560526
0.560514
0.560502
0.560491
0.56048
0.560468
0.560457
0.560445
0.560433
0.560422
0.56041
0.560399
0.560387
0.560375
0.560364
0.560353
0.560341
0.56033
0.560318
0.560306
0.560295
0.560283
0.560272
0.56026
0.560248
0.560237
0.560225
0.560213
0.560202
0.56019
0.560178
0.560167
0.560155
0.560143
0.560132
0.56012
0.560109
0.560097
0.560085
0.560073
0.560061
0.56005
0.560038
0.560026
0.560015
0.560003
0.559991
0.55998
0.559968
0.559956
0.559944
0.559932
0.559921
0.559909
0.559897
0.559885
0.559874
0.559861
0.55985
0.559838
0.559826
0.559815
0.559803
0.559791
0.559779
0.559767
0.559755
0.559744
0.559731
0.55972
0.559708
0.559696
0.559684
0.559672
0.55966
0.559649
0.559636
0.559624
0.559613
0.559601
0.559589
0.559577
0.559565
0.559553
0.559541
0.559529
0.559517
0.559505
0.559493
0.559481
0.559469
0.559457
0.559445
0.559433
0.559421
0.559409
0.559397
0.559385
0.559373
0.559361
0.559349
0.559337
0.559325
0.559313
0.559301
0.559289
0.559277
0.559265
0.559252
0.559241
0.559228
0.559216
0.559204
0.559192
0.55918
0.559168
0.559156
0.559143
0.559131
0.559119
0.559107
0.559095
0.559083
0.559071
0.559058
0.559046
0.559034
0.559022
0.559009
0.558997
0.558985
0.558973
0.558961
0.558948
0.558936
0.558924
0.558912
0.558899
0.558887
0.558875
0.558863
0.55885
0.558838
0.558826
0.558814
0.558801
0.558789
0.558777
0.558764
0.558752
0.55874
0.558727
0.558715
0.558703
0.55869
0.558678
0.558665
0.558653
0.558641
0.558628
0.558616
0.558604
0.558591
0.558579
0.558566
0.558554
0.558541
0.558529
0.558516
0.558504
0.558492
0.558479
0.558467
0.558454
0.558442
0.558429
0.558417
0.558404
0.558392
0.558379
0.558366
0.558354
0.558341
0.558329
0.558316
0.558304
0.558291
0.558279
0.558266
0.558253
0.558241
0.558228
0.558216
0.558203
0.55819
0.558178
0.558165
0.558152
0.55814
0.558127
0.558115
0.558102
0.558089
0.558076
0.558064
0.558051
0.558038
0.558026
0.558013
0.558
0.557987
0.557975
0.557962
0.557949
0.557936
0.557924
0.557911
0.557898
0.557885
0.557872
0.55786
0.557847
0.557834
0.557821
0.557808
0.557796
0.557783
0.55777
0.557757
0.557744
0.557731
0.557718
0.557705
0.557693
0.55768
0.557667
0.557654
0.557641
0.557628
0.557615
0.557602
0.557589
0.557576
0.557563
0.55755
0.557537
0.557524
0.557511
0.557498
0.557485
0.557472
0.557459
0.557446
0.557433
0.55742
0.557407
0.557394
0.557381
0.557367
0.557354
0.557341
0.557328
0.557315
0.557302
0.557289
0.557276
0.557263
0.557249
0.557236
0.557223
0.55721
0.557197
0.557183
0.55717
0.557157
0.557144
0.55713
0.557117
0.557104
0.557091
0.557077
0.557064
0.557051
0.557038
0.557024
0.557011
0.556998
0.556984
0.556971
0.556958
0.556944
0.556931
0.556917
0.556904
0.556891
0.556877
0.556864
0.55685
0.556837
0.556824
0.55681
0.556797
0.556783
0.55677
0.556756
0.556743
0.556729
0.556716
0.556702
0.556689
0.556675
0.556662
0.556648
0.556634
0.556621
0.556607
0.556594
0.55658
0.556566
0.556553
0.556539
0.556526
0.556512
0.556498
0.556485
0.556471
0.556457
0.556443
0.55643
0.556416
0.556402
0.556388
0.556375
0.556361
0.556347
0.556333
0.55632
0.556306
0.556292
0.556278
0.556264
0.55625
0.556237
0.556223
0.556209
0.556195
0.556181
0.556167
0.556153
0.556139
0.556125
0.556111
0.556097
0.556083
0.556069
0.556055
0.556041
0.556027
0.556013
0.555999
0.555985
0.555971
0.555957
0.555943
0.555929
0.555914
0.5559
0.555886
0.555872
0.555858
0.555844
0.555829
0.555815
0.555801
0.555787
0.555772
0.555758
0.555744
0.55573
0.555715
0.555701
0.555686
0.555672
0.555658
0.555643
0.555629
0.555614
0.5556
0.555586
0.555571
0.555557
0.555542
0.555528
0.555513
0.555499
0.555484
0.555469
0.555455
0.55544
0.555425
0.555411
0.555396
0.555381
0.555367
0.555352
0.555337
0.555322
0.555308
0.555293
0.555278
0.555263
0.555248
0.555233
0.555218
0.555204
0.555189
0.555174
0.555159
0.555144
0.555129
0.555113
0.555098
0.555083
0.555068
0.555053
0.555038
0.555022
0.555007
0.554992
0.554977
0.554961
0.554946
0.55493
0.554915
0.5549
0.554884
0.554869
0.554853
0.554837
0.554822
0.554806
0.55479
0.554775
0.554759
0.554743
0.554727
0.554711
0.554696
0.55468
0.554664
0.554648
0.554631
0.554615
0.554599
0.554583
0.554567
0.55455
0.554534
0.554517
0.554501
0.554484
0.554468
0.554451
0.554434
0.554418
0.554401
0.554384
0.554367
0.55435
0.554333
0.554316
0.554298
0.554281
0.554264
0.554246
0.554228
0.554211
0.554193
0.554175
0.554157
0.554139
0.554121
0.554103
0.554084
0.554066
0.554047
0.554028
0.55401
0.553991
0.553971
0.553952
0.553933
0.553913
0.553893
0.553874
0.553854
0.553833
0.553813
0.553792
0.553772
0.553751
0.55373
0.553708
0.553687
0.553665
0.553643
0.55362
0.553598
0.553575
0.553552
0.553529
0.553505
0.553481
0.553457
0.553433
0.553408
0.553383
0.553357
0.553332
0.553305
0.553279
0.553252
0.553225
0.553197
0.553169
0.55314
0.553111
0.553082
0.553052
0.553022
0.552991
0.55296
0.552928
0.552895
0.552863
0.552829
0.552795
0.552761
0.552726
0.55269
0.552654
0.552618
0.55258
0.552542
0.552504
0.552465
0.552425
0.552385
0.552344
0.552302
0.55226
0.552217
0.552173
0.552129
0.552084
0.552038
0.551992
0.551945
0.551897
0.551849
0.5518
0.551751
0.551701
0.55165
0.551598
0.551546
0.551493
0.55144
0.551386
0.551331
0.551276
0.55122
0.551164
0.551107
0.551049
0.550991
0.550932
0.550873
0.550813
0.550753
0.550692
0.550631
0.550569
0.550507
0.550444
0.550381
0.550317
0.550253
0.550189
0.550124
0.550059
0.549993
0.549928
0.549861
0.549795
0.549728
0.549661
0.549594
0.549526
0.549458
0.54939
0.549321
0.549253
0.549184
0.549115
0.549046
0.548976
0.548906
0.548837
0.548767
0.548697
0.548626
0.548556
0.548486
0.548415
0.548344
0.548274
0.548203
0.548132
0.548061
0.547989
0.547918
0.547847
0.547776
0.547704
0.547633
0.547561
0.54749
0.547418
0.547347
0.547275
0.547203
0.547132
0.54706
0.546988
0.546916
0.546845
0.546773
0.546701
0.546629
0.546557
0.546485
0.546413
0.546342
0.54627
0.546198
0.546126
0.546054
0.545982
0.54591
0.545838
0.545767
0.545695
0.545623
0.545551
0.545479
0.545407
0.545335
0.545263
0.545192
0.54512
0.545048
0.544976
0.544904
0.544832
0.54476
0.544689
0.544617
0.544545
0.544473
0.544401
0.54433
0.544258
0.544186
0.544114
0.544042
0.543971
0.543899
0.543827
0.543755
0.543684
0.543612
0.54354
0.543469
0.543397
0.543325
0.543254
0.543182
0.54311
0.543039
0.542967
0.542895
0.542824
0.542752
0.54268
0.542609
0.542537
0.542465
0.542394
0.542322
0.542251
0.542179
0.542108
0.542036
0.541964
0.541893
0.541821
0.54175
0.541678
0.541607
0.541535
0.541464
0.541392
0.541321
0.541249
0.541178
0.541106
0.541035
0.540964
0.540892
0.540821
0.540749
0.540678
0.540607
0.540535
0.540464
0.540392
0.540321
0.54025
0.540178
0.540107
0.540036
0.539964
0.539893
0.539822
0.53975
0.539679
0.539608
0.539536
0.539465
0.539394
0.539323
0.539251
0.53918
0.539109
0.539038
0.538966
0.538895
0.538824
0.538753
0.538681
0.53861
0.538539
0.538468
0.538397
0.538326
0.538254
0.538183
0.538112
0.538041
0.53797
0.537899
0.537828
0.537757
0.537686
0.537614
0.537543
0.537472
0.537401
0.53733
0.537259
0.537188
0.537117
0.537046
0.536975
0.536904
0.536833
0.536762
0.536691
0.53662
0.536549
0.536478
0.536407
0.536336
0.536265
0.536194
0.536123
0.536052
0.535982
0.535911
0.53584
0.535769
0.535698
0.535627
0.535556
0.535485
0.535415
0.535344
0.535273
0.535202
0.535131
0.53506
0.53499
0.534919
0.534848
0.534777
0.534707
0.534636
0.534565
0.534494
0.534424
0.534353
0.534282
0.534211
0.534141
0.53407
0.533999
0.533929
0.533858
0.533787
0.533716
0.533646
0.533575
0.533505
0.533434
0.533363
0.533293
0.533222
0.533151
0.533081
0.53301
0.53294
0.532869
0.532799
0.532728
0.532657
0.532587
0.532516
0.532446
0.532375
0.532305
0.532234
0.532164
0.532093
0.532023
0.531952
0.531882
0.531811
0.531741
0.53167
0.5316
0.53153
0.531459
0.531389
0.531318
0.531248
0.531178
0.531107
0.531037
0.530966
0.530896
0.530826
0.530755
0.530685
0.530615
0.530544
0.530474
0.530404
0.530333
0.530263
0.530193
0.530123
0.530052
0.529982
0.529912
0.529842
0.529771
0.529701
0.529631
0.529561
0.52949
0.52942
0.52935
0.52928
0.52921
0.529139
0.529069
0.528999
0.528929
0.528859
0.528789
0.528719
0.528648
0.528578
0.528508
0.528438
0.528368
0.528298
0.528228
0.528158
0.528088
0.528018
0.527948
0.527878
0.527808
0.527738
0.527668
0.527598
0.527528
0.527458
0.527388
0.527318
0.527248
0.527178
0.527108
0.527038
0.526968
0.526898
0.526828
0.526758
0.526688
0.526618
0.526548
0.526478
0.526409
0.526339
0.526269
0.526199
0.526129
0.526059
0.525989
0.52592
0.52585
0.52578
0.52571
0.52564
0.525571
0.525501
0.525431
0.525361
0.525291
0.525222
0.525152
0.525082
0.525013
0.524943
0.524873
0.524803
0.524734
0.524664
0.524594
0.524525
0.524455
0.524385
0.524316
0.524246
0.524176
0.524107
0.524037
0.523967
0.523898
0.523828
0.523759
0.523689
0.52362
0.52355
0.52348
0.523411
0.523341
0.523272
0.523202
0.523133
0.523063
0.522994
0.522924
0.522855
0.522785
0.522716
0.522646
0.522577
0.522507
0.522438
0.522368
0.522299
0.52223
0.52216
0.522091
0.522021
0.521952
0.521882
0.521813
0.521744
0.521674
0.521605
0.521536
0.521466
0.521397
0.521328
0.521258
0.521189
0.52112
0.52105
0.520981
0.520912
0.520843
0.520773
0.520704
0.520635
0.520565
0.520496
0.520427
0.520358
0.520289
0.520219
0.52015
0.520081
0.520012
0.519943
0.519873
0.519804
0.519735
0.519666
0.519597
0.519528
0.519459
0.519389
0.51932
0.519251
0.519182
0.519113
0.519044
0.518975
0.518906
0.518837
0.518768
0.518699
0.51863
0.518561
0.518492
0.518423
0.518354
0.518285
0.518216
0.518147
0.518078
0.518009
0.51794
0.517871
0.517802
0.517733
0.517664
0.517595
0.517526
0.517457
0.517388
0.517319
0.51725
0.517182
0.517113
0.517044
0.516975
0.516906
0.516837
0.516768
0.5167
0.516631
0.516562
0.516493
0.516424
0.516356
0.516287
0.516218
0.516149
0.51608
0.516012
0.515943
0.515874
0.515806
0.515737
0.515668
0.515599
0.515531
0.515462
0.515393
0.515325
0.515256
0.515187
0.515119
0.51505
0.514981
0.514913
0.514844
0.514775
0.514707
0.514638
0.51457
0.514501
0.514432
0.514364
0.514295
0.514227
0.514158
0.51409
0.514021
0.513953
0.513884
0.513816
0.513747
0.513679
0.51361
0.513542
0.513473
0.513405
0.513336
0.513268
0.513199
0.513131
0.513062
0.512994
0.512926
0.512857
0.512789
0.51272
0.512652
0.512584
0.512515
0.512447
0.512379
0.51231
0.512242
0.512174
0.512105
0.512037
0.511969
0.5119
0.511832
0.511764
0.511695
0.511627
0.511559
0.511491
0.511422
0.511354
0.511286
0.511218
0.511149
0.511081
0.511013
0.510945
0.510877
0.510808
0.51074
0.510672
0.510604
0.510536
0.510468
0.510399
0.510331
0.510263
0.510195
0.510127
0.510059
0.509991
0.509923
0.509855
0.509787
0.509718
0.50965
0.509582
0.509514
0.509446
0.509378
0.50931
0.509242
0.509174
0.509106
0.509038
0.50897
0.508902
0.508834
0.508766
0.508698
0.50863
0.508563
0.508495
0.508427
0.508359
0.508291
0.508223
0.508155
0.508087
0.508019
0.507951
0.507884
0.507816
0.507748
0.50768
0.507612
0.507544
0.507477
0.507409
0.507341
0.507273
0.507205
0.507138
0.50707
0.507002
0.506934
0.506867
0.506799
0.506731
0.506663