/*--------------------------------*- C++ -*----------------------------------*\
  =========                 |
  \\      /  F ield         | OpenFOAM: The Open Source CFD Toolbox
   \\    /   O peration     | Website:  https://openfoam.org
    \\  /    A nd           | Version:  9
     \\/     M anipulation  |
\*---------------------------------------------------------------------------*/
FoamFile
{
    format      ascii;
    class       volScalarField;
    location    "0.003";
    object      p;
}
// * * * * * * * * * * * * * * * * * * * * * * * * * * * * * * * * * * * * * //

dimensions      [0 2 -2 0 0 0 0];

internalField   nonuniform List<scalar> 
100
(
1.69766e-21
1.71812e-21
1.72131e-21
1.72493e-21
1.76583e-21
1.80772e-21
1.76412e-21
1.63484e-21
1.55688e-21
1.65352e-21
1.87371e-21
2.0078e-21
1.84397e-21
1.44625e-21
1.34601e-21
2.00198e-21
2.76578e-21
2.2512e-21
4.09315e-22
-9.28893e-22
-1.90079e-22
2.45435e-21
5.35863e-21
6.55482e-21
5.83538e-21
4.75941e-21
4.45421e-21
4.74803e-21
4.89068e-21
4.94683e-21
4.79395e-21
4.90109e-21
4.85934e-21
5.07277e-21
4.51161e-21
4.05067e-21
4.5964e-21
7.70805e-21
1.21062e-20
1.71056e-20
-2.21677e-20
-2.18438e-19
-2.64036e-19
1.6164e-18
5.63858e-18
-5.09382e-18
-6.32525e-17
-5.47151e-17
5.4848e-17
6.33903e-17
5.24353e-18
-5.48491e-18
-1.47948e-18
3.67427e-19
2.8579e-19
7.61394e-20
6.22675e-20
1.05834e-19
1.36608e-19
1.45935e-19
1.36595e-19
1.25691e-19
1.24198e-19
1.27932e-19
1.29177e-19
1.28764e-19
1.28141e-19
1.28341e-19
1.28303e-19
1.28412e-19
1.28259e-19
1.28315e-19
1.28458e-19
1.28752e-19
1.28446e-19
1.2737e-19
1.26651e-19
1.2785e-19
1.30749e-19
1.33382e-19
1.34127e-19
1.32834e-19
1.31034e-19
1.30473e-19
1.31107e-19
1.31691e-19
1.3169e-19
1.31486e-19
1.31419e-19
1.31456e-19
1.31482e-19
1.31481e-19
1.31475e-19
1.31474e-19
1.31475e-19
1.31475e-19
1.31475e-19
1.31475e-19
1.31475e-19
1.31475e-19
)
;

boundaryField
{
    inlet
    {
        type            zeroGradient;
    }
    outlet
    {
        type            zeroGradient;
    }
    lowerWall
    {
        type            empty;
    }
    upperWall
    {
        type            empty;
    }
    frontAndBack
    {
        type            empty;
    }
}


// ************************************************************************* //
