/*--------------------------------*- C++ -*----------------------------------*\
  =========                 |
  \\      /  F ield         | OpenFOAM: The Open Source CFD Toolbox
   \\    /   O peration     | Website:  https://openfoam.org
    \\  /    A nd           | Version:  9
     \\/     M anipulation  |
\*---------------------------------------------------------------------------*/
FoamFile
{
    format      ascii;
    class       volScalarField;
    location    "0.003";
    object      Ux;
}
// * * * * * * * * * * * * * * * * * * * * * * * * * * * * * * * * * * * * * //

dimensions      [0 1 -1 0 0 0 0];

internalField   nonuniform List<scalar> 
100
(
3.39228e-23
3.32508e-23
3.26439e-23
3.27481e-23
3.39401e-23
3.47421e-23
3.26837e-23
2.93281e-23
3.05129e-23
3.67949e-23
3.9668e-23
3.42701e-23
2.70686e-23
2.48784e-23
3.03122e-23
4.61696e-23
5.73164e-23
2.91915e-23
-2.0823e-23
-6.92121e-24
7.74658e-23
1.12269e-22
5.53958e-23
3.47526e-24
9.14566e-24
3.56447e-23
4.11336e-23
3.43059e-23
3.31065e-23
2.95981e-23
3.76737e-23
2.59448e-23
4.35073e-23
2.36422e-23
4.7881e-23
-5.0389e-24
4.75172e-23
6.39086e-23
1.50516e-22
4.64105e-23
7.15718e-23
-1.70699e-21
-6.12829e-21
6.09446e-21
7.70908e-20
8.14738e-20
-6.02871e-19
4.36506e-19
4.36497e-19
-6.0291e-19
8.17131e-20
7.72989e-20
5.79063e-21
-6.93607e-21
-2.14417e-21
1.86779e-22
6.41374e-22
8.93368e-22
1.52751e-22
-3.24476e-22
-2.16082e-22
1.46768e-22
9.00661e-23
5.19558e-23
-6.9717e-24
4.71808e-23
2.3733e-23
4.35835e-23
2.59457e-23
3.76672e-23
2.95968e-23
3.31057e-23
3.43074e-23
4.11398e-23
3.5643e-23
9.12271e-24
3.47419e-24
5.54755e-23
1.1229e-22
7.71654e-23
-7.18858e-24
-2.00179e-23
3.0773e-23
5.68595e-23
4.23757e-23
2.77989e-23
2.87693e-23
3.34445e-23
3.427e-23
3.32908e-23
3.29036e-23
3.30341e-23
3.3133e-23
3.31265e-23
3.31085e-23
3.31068e-23
3.31092e-23
3.31099e-23
3.31096e-23
3.31095e-23
)
;

boundaryField
{
    inlet
    {
        type            calculated;
        value           uniform 3.39228e-23;
    }
    outlet
    {
        type            calculated;
        value           uniform 3.31095e-23;
    }
    lowerWall
    {
        type            empty;
    }
    upperWall
    {
        type            empty;
    }
    frontAndBack
    {
        type            empty;
    }
}


// ************************************************************************* //
