/*--------------------------------*- C++ -*----------------------------------*\
  =========                 |
  \\      /  F ield         | OpenFOAM: The Open Source CFD Toolbox
   \\    /   O peration     | Website:  https://openfoam.org
    \\  /    A nd           | Version:  9
     \\/     M anipulation  |
\*---------------------------------------------------------------------------*/
FoamFile
{
    format      ascii;
    class       volScalarField;
    location    "0.023";
    object      ddt0(rho,K);
}
// * * * * * * * * * * * * * * * * * * * * * * * * * * * * * * * * * * * * * //

dimensions      [1 -1 -3 0 0 0 0];

internalField   nonuniform List<scalar> 
100
(
9536.96
-1476.57
-10233.4
-21770.7
-35457.4
-50728.4
-67874.8
-87030.5
-107948
-130829
-155492
-181526
-210289
-240394
-271792
-305513
-340193
-378786
-416030
-454459
-500253
-544711
-583761
-631423
-683759
-730755
-775476
-827779
-883638
-934224
-978488
-1.03098e+06
-1.08888e+06
-1.14681e+06
-1.17814e+06
-1.22543e+06
-1.26762e+06
-1.33544e+06
-1.36107e+06
-1.37547e+06
-1.39617e+06
-1.41142e+06
-1.48222e+06
-1.44027e+06
-1.40921e+06
-1.35169e+06
-1.30815e+06
-1.35611e+06
-1.22995e+06
-1.09934e+06
-962633
-833130
-855363
-750962
-562849
-452109
-310919
-249802
-308977
-227111
-147366
-89087.6
-31971.6
-20523.4
-43235.5
-36658.6
-25232.5
-24465.9
-17183.2
6134.54
10679.5
85837.5
-31169.4
-61811.8
98500.6
-44920.3
-155387
64496.7
266177
-96098.7
-227799
-61118.1
-117006
-173379
125636
1.01612e+06
-118222
-1.25122e+06
-291949
1.634e+06
621639
-1.81983e+06
-575518
1.88039e+06
700684
-1.84546e+06
-25719.3
1.58245e+06
-839418
-403116
)
;

boundaryField
{
    sides
    {
        type            calculated;
        value           nonuniform List<scalar> 2(-403116 9536.96);
    }
    empty
    {
        type            empty;
    }
}


// ************************************************************************* //
