/*--------------------------------*- C++ -*----------------------------------*\
  =========                 |
  \\      /  F ield         | OpenFOAM: The Open Source CFD Toolbox
   \\    /   O peration     | Website:  https://openfoam.org
    \\  /    A nd           | Version:  9
     \\/     M anipulation  |
\*---------------------------------------------------------------------------*/
FoamFile
{
    format      ascii;
    class       volVectorField;
    location    "0.023";
    object      U_0;
}
// * * * * * * * * * * * * * * * * * * * * * * * * * * * * * * * * * * * * * //

dimensions      [0 1 -1 0 0 0 0];

internalField   nonuniform List<vector> 
100
(
(36.5622 0 0)
(42.935 0 0)
(49.1876 0 0)
(54.1026 0 0)
(59.2242 0 0)
(64.3965 0 0)
(69.553 0 0)
(74.7049 0 0)
(79.8662 0 0)
(85.02 0 0)
(90.1976 0 0)
(95.3546 0 0)
(100.529 0 0)
(105.709 0 0)
(110.875 0 0)
(116.064 0 0)
(121.224 0 0)
(126.415 0 0)
(131.593 0 0)
(136.731 0 0)
(141.916 0 0)
(147.108 0 0)
(152.231 0 0)
(157.358 0 0)
(162.537 0 0)
(167.678 0 0)
(172.755 0 0)
(177.851 0 0)
(182.968 0 0)
(188.032 0 0)
(193.034 0 0)
(198.04 0 0)
(203.052 0 0)
(208.005 0 0)
(212.87 0 0)
(217.711 0 0)
(222.529 0 0)
(227.278 0 0)
(231.942 0 0)
(236.5 0 0)
(241.005 0 0)
(245.407 0 0)
(249.698 0 0)
(253.862 0 0)
(257.857 0 0)
(261.721 0 0)
(265.362 0 0)
(268.84 0 0)
(272.142 0 0)
(275.169 0 0)
(277.968 0 0)
(280.453 0 0)
(282.694 0 0)
(284.759 0 0)
(286.52 0 0)
(288.019 0 0)
(289.277 0 0)
(290.227 0 0)
(291.02 0 0)
(291.696 0 0)
(292.171 0 0)
(292.494 0 0)
(292.675 0 0)
(292.762 0 0)
(292.811 0 0)
(292.846 0 0)
(292.868 0 0)
(292.878 0 0)
(292.871 0 0)
(292.861 0 0)
(292.854 0 0)
(292.837 0 0)
(292.82 0 0)
(292.81 0 0)
(292.787 0 0)
(292.751 0 0)
(292.726 0 0)
(292.693 0 0)
(292.621 0 0)
(292.555 0 0)
(292.535 0 0)
(292.514 0 0)
(292.483 0 0)
(292.47 0 0)
(292.444 0 0)
(292.321 0 0)
(292.181 0 0)
(292.193 0 0)
(292.25 0 0)
(292.123 0 0)
(291.876 0 0)
(291.817 0 0)
(291.906 0 0)
(291.789 0 0)
(291.514 0 0)
(291.461 0 0)
(291.523 0 0)
(291.409 0 0)
(291.317 0 0)
(291.332 0 0)
)
;

boundaryField
{
    sides
    {
        type            zeroGradient;
    }
    empty
    {
        type            empty;
    }
}


// ************************************************************************* //
