/*--------------------------------*- C++ -*----------------------------------*\
  =========                 |
  \\      /  F ield         | OpenFOAM: The Open Source CFD Toolbox
   \\    /   O peration     | Website:  https://openfoam.org
    \\  /    A nd           | Version:  9
     \\/     M anipulation  |
\*---------------------------------------------------------------------------*/
FoamFile
{
    format      ascii;
    class       volScalarField;
    location    "0.034";
    object      T;
}
// * * * * * * * * * * * * * * * * * * * * * * * * * * * * * * * * * * * * * //

dimensions      [0 0 0 1 0 0 0];

internalField   nonuniform List<scalar> 
1000
(
284.445
284.314
284.234
284.148
284.063
283.978
283.893
283.809
283.724
283.639
283.554
283.469
283.385
283.3
283.215
283.131
283.046
282.961
282.877
282.792
282.707
282.623
282.538
282.453
282.369
282.284
282.199
282.115
282.031
281.946
281.862
281.778
281.693
281.609
281.525
281.441
281.356
281.272
281.188
281.103
281.019
280.935
280.851
280.766
280.682
280.598
280.514
280.429
280.345
280.261
280.176
280.092
280.008
279.924
279.839
279.755
279.671
279.587
279.503
279.418
279.334
279.25
279.166
279.081
278.997
278.913
278.829
278.745
278.661
278.577
278.493
278.409
278.325
278.241
278.157
278.073
277.989
277.905
277.821
277.737
277.653
277.569
277.485
277.401
277.317
277.233
277.149
277.065
276.981
276.897
276.814
276.73
276.646
276.562
276.478
276.394
276.311
276.227
276.143
276.059
275.976
275.892
275.808
275.724
275.641
275.557
275.473
275.39
275.306
275.222
275.139
275.055
274.971
274.888
274.804
274.721
274.637
274.554
274.47
274.387
274.303
274.22
274.136
274.053
273.969
273.886
273.802
273.719
273.635
273.552
273.469
273.385
273.302
273.218
273.135
273.052
272.969
272.885
272.802
272.719
272.635
272.552
272.469
272.386
272.303
272.219
272.136
272.053
271.97
271.887
271.804
271.72
271.637
271.554
271.471
271.388
271.305
271.222
271.139
271.056
270.973
270.89
270.807
270.724
270.641
270.558
270.475
270.392
270.309
270.226
270.143
270.061
269.978
269.895
269.812
269.729
269.646
269.564
269.482
269.398
269.314
269.23
269.15
269.071
268.987
268.9
268.814
268.734
268.663
268.581
268.491
268.402
268.316
268.245
268.174
268.086
267.995
267.905
267.82
267.756
267.681
267.591
267.499
267.408
267.324
267.262
267.188
267.097
267.005
266.914
266.826
266.757
266.694
266.606
266.514
266.422
266.332
266.247
266.186
266.116
266.026
265.934
265.842
265.751
265.666
265.603
265.538
265.449
265.357
265.265
265.175
265.087
265.016
264.959
264.875
264.785
264.694
264.604
264.518
264.45
264.385
264.298
264.208
264.119
264.031
263.959
263.892
263.806
263.716
263.627
263.54
263.465
263.4
263.316
263.227
263.137
263.049
262.965
262.899
262.826
262.738
262.649
262.56
262.472
262.387
262.322
262.251
262.164
262.075
261.985
261.897
261.81
261.732
261.672
261.592
261.504
261.415
261.326
261.239
261.155
261.088
261.017
260.931
260.843
260.755
260.668
260.583
260.512
260.443
260.358
260.27
260.183
260.096
260.012
259.942
259.87
259.785
259.698
259.611
259.524
259.443
259.375
259.298
259.211
259.125
259.038
258.953
258.876
258.807
258.725
258.638
258.552
258.466
258.383
258.312
258.236
258.151
258.065
257.979
257.894
257.818
257.746
257.663
257.577
257.491
257.405
257.325
257.253
257.171
257.085
256.999
256.912
256.829
256.754
256.674
256.588
256.501
256.414
256.328
256.249
256.172
256.088
256.002
255.918
255.835
255.756
255.675
255.595
255.518
255.441
255.359
255.277
255.194
255.113
255.033
254.96
254.884
254.803
254.721
254.638
254.556
254.475
254.402
254.325
254.242
254.159
254.075
253.992
253.912
253.838
253.759
253.676
253.593
253.511
253.429
253.35
253.276
253.196
253.114
253.032
252.95
252.869
252.793
252.716
252.635
252.553
252.471
252.39
252.31
252.235
252.155
252.073
251.992
251.91
251.83
251.753
251.675
251.595
251.514
251.433
251.352
251.273
251.197
251.118
251.038
250.958
250.878
250.799
250.722
250.645
250.567
250.488
250.41
250.333
250.256
250.183
250.109
250.034
249.96
249.888
249.817
249.748
249.682
249.616
249.553
249.49
249.431
249.376
249.324
249.278
249.236
249.199
249.167
249.139
249.118
249.102
249.09
249.082
249.076
249.071
249.066
249.064
249.065
249.068
249.074
249.082
249.089
249.093
249.098
249.104
249.111
249.118
249.125
249.13
249.131
249.134
249.141
249.15
249.159
249.169
249.177
249.179
249.179
249.183
249.186
249.187
249.186
249.178
249.16
249.139
249.123
249.11
249.099
249.09
249.082
249.071
249.064
249.061
249.059
249.057
249.055
249.052
249.045
249.044
249.045
249.047
249.049
249.051
249.051
249.048
249.051
249.055
249.061
249.067
249.072
249.074
249.073
249.077
249.081
249.084
249.086
249.086
249.08
249.069
249.06
249.051
249.043
249.035
249.028
249.017
249.006
249
248.997
248.994
248.992
248.99
248.983
248.977
248.975
248.975
248.975
248.975
248.975
248.97
248.968
248.97
248.972
248.975
248.978
248.98
248.977
248.977
248.981
248.986
248.99
248.993
248.993
248.989
248.984
248.983
248.98
248.972
248.959
248.945
248.936
248.931
248.926
248.923
248.92
248.918
248.915
248.913
248.91
248.901
248.894
248.893
248.892
248.891
248.889
248.884
248.882
248.883
248.885
248.887
248.888
248.886
248.883
248.885
248.888
248.892
248.895
248.896
248.892
248.892
248.894
248.896
248.896
248.896
248.892
248.884
248.871
248.862
248.854
248.846
248.836
248.83
248.827
248.825
248.824
248.822
248.82
248.815
248.806
248.801
248.8
248.8
248.8
248.798
248.79
248.787
248.788
248.79
248.793
248.796
248.799
248.802
248.805
248.808
248.811
248.811
248.802
248.797
248.797
248.798
248.798
248.797
248.794
248.788
248.775
248.761
248.755
248.751
248.748
248.745
248.743
248.739
248.729
248.723
248.721
248.72
248.719
248.719
248.718
248.718
248.714
248.704
248.701
248.702
248.704
248.705
248.707
248.71
248.712
248.715
248.717
248.719
248.72
248.716
248.707
248.698
248.691
248.689
248.688
248.686
248.682
248.679
248.675
248.672
248.669
248.666
248.663
248.661
248.66
248.659
248.657
248.653
248.644
248.627
248.62
248.618
248.617
248.618
248.618
248.619
248.62
248.621
248.621
248.618
248.612
248.611
248.613
248.615
248.616
248.616
248.611
248.608
248.609
248.61
248.61
248.61
248.607
248.597
248.589
248.584
248.581
248.578
248.575
248.571
248.561
248.555
248.553
248.552
248.551
248.549
248.547
248.539
248.534
248.533
248.533
248.533
248.533
248.532
248.526
248.522
248.522
248.522
248.523
248.524
248.524
248.519
248.516
248.516
248.518
248.519
248.519
248.517
248.51
248.505
248.502
248.5
248.496
248.492
248.488
248.479
248.472
248.47
248.469
248.467
248.466
248.463
248.458
248.45
248.448
248.448
248.447
248.447
248.445
248.442
248.437
248.432
248.426
248.422
248.422
248.423
248.424
248.425
248.427
248.428
248.43
248.432
248.432
248.431
248.42
248.402
248.398
248.397
248.395
248.393
248.391
248.389
248.387
248.386
248.385
248.384
248.384
248.383
248.382
248.38
248.378
248.37
248.35
248.343
248.342
248.342
248.342
248.342
248.343
248.343
248.344
248.345
248.346
248.346
248.342
248.327
248.32
248.321
248.322
248.323
248.324
248.325
248.325
248.324
248.323
248.321
248.316
248.301
248.287
248.284
248.282
248.28
248.279
248.279
248.279
248.28
248.28
248.28
248.279
248.279
248.278
248.278
248.275
248.263
248.248
248.246
248.246
248.246
248.247
248.248
248.249
248.25
248.251
248.252
248.251
248.246
248.233
248.229
248.229
248.229
248.229
248.228
248.226
248.225
248.223
248.222
248.219
248.209
248.195
248.191
248.19
248.189
248.189
248.189
248.189
248.189
248.188
248.188
248.187
248.186
248.177
248.164
248.162
248.162
248.162
248.163
248.163
248.164
248.165
248.166
248.167
248.167
248.165
248.155
248.142
248.14
248.14
248.14
248.139
248.138
248.137
248.14
248.15
248.195
248.388
249.046
249.798
250.279
250.378
250.38
250.402
250.445
250.455
250.444
250.43
250.402
250.389
250.389
250.397
250.416
250.425
250.424
250.419
250.406
250.399
250.399
250.397
250.379
250.372
250.368
250.36
250.357
250.361
250.366
250.372
250.374
250.372
250.361
250.339
250.333
250.334
250.337
250.341
250.342
250.341
250.336
250.328
250.317
250.311
250.311
250.311
250.309
250.308
250.308
250.305
250.305
250.305
250.3
250.301
250.318
250.374
250.558
251.046
251.605
251.906
252.059
252.152
252.145
252.127
252.115
252.118
252.134
252.152
252.156
252.154
252.144
252.128
252.116
252.115
252.119
252.123
252.124
252.126
252.125
252.122
252.12
252.108
252.098
252.096
252.093
252.09
252.091
252.099
252.107
252.11
252.111
252.11
252.106
252.096
252.07
252.06
252.059
252.059
252.06
252.061
252.065
252.068
252.069
252.071
252.073
252.073
252.073
252.07
252.061
252.037
252.028
252.027
252.027
252.028
252.028
252.03
252.042
)
;

boundaryField
{
    sides
    {
        type            zeroGradient;
    }
    empty
    {
        type            empty;
    }
}


// ************************************************************************* //
