/*--------------------------------*- C++ -*----------------------------------*\
  =========                 |
  \\      /  F ield         | OpenFOAM: The Open Source CFD Toolbox
   \\    /   O peration     | Website:  https://openfoam.org
    \\  /    A nd           | Version:  9
     \\/     M anipulation  |
\*---------------------------------------------------------------------------*/
FoamFile
{
    format      ascii;
    class       volVectorField;
    location    "0.034";
    object      U;
}
// * * * * * * * * * * * * * * * * * * * * * * * * * * * * * * * * * * * * * //

dimensions      [0 1 -1 0 0 0 0];

internalField   nonuniform List<vector> 
1000
(
(195.771 0 0)
(196.156 0 0)
(196.381 0 0)
(196.625 0 0)
(196.864 0 0)
(197.104 0 0)
(197.344 0 0)
(197.584 0 0)
(197.824 0 0)
(198.064 0 0)
(198.304 0 0)
(198.544 0 0)
(198.784 0 0)
(199.024 0 0)
(199.264 0 0)
(199.504 0 0)
(199.744 0 0)
(199.984 0 0)
(200.224 0 0)
(200.464 0 0)
(200.704 0 0)
(200.944 0 0)
(201.184 0 0)
(201.424 0 0)
(201.665 0 0)
(201.905 0 0)
(202.145 0 0)
(202.384 0 0)
(202.624 0 0)
(202.863 0 0)
(203.102 0 0)
(203.341 0 0)
(203.58 0 0)
(203.819 0 0)
(204.059 0 0)
(204.298 0 0)
(204.538 0 0)
(204.778 0 0)
(205.017 0 0)
(205.257 0 0)
(205.496 0 0)
(205.736 0 0)
(205.975 0 0)
(206.215 0 0)
(206.454 0 0)
(206.694 0 0)
(206.933 0 0)
(207.173 0 0)
(207.413 0 0)
(207.653 0 0)
(207.893 0 0)
(208.133 0 0)
(208.373 0 0)
(208.612 0 0)
(208.852 0 0)
(209.092 0 0)
(209.331 0 0)
(209.571 0 0)
(209.811 0 0)
(210.051 0 0)
(210.291 0 0)
(210.531 0 0)
(210.771 0 0)
(211.011 0 0)
(211.251 0 0)
(211.491 0 0)
(211.731 0 0)
(211.97 0 0)
(212.21 0 0)
(212.45 0 0)
(212.69 0 0)
(212.929 0 0)
(213.169 0 0)
(213.409 0 0)
(213.649 0 0)
(213.889 0 0)
(214.129 0 0)
(214.369 0 0)
(214.609 0 0)
(214.849 0 0)
(215.089 0 0)
(215.329 0 0)
(215.568 0 0)
(215.808 0 0)
(216.048 0 0)
(216.288 0 0)
(216.528 0 0)
(216.768 0 0)
(217.008 0 0)
(217.248 0 0)
(217.488 0 0)
(217.727 0 0)
(217.967 0 0)
(218.207 0 0)
(218.447 0 0)
(218.687 0 0)
(218.927 0 0)
(219.167 0 0)
(219.407 0 0)
(219.646 0 0)
(219.886 0 0)
(220.126 0 0)
(220.366 0 0)
(220.606 0 0)
(220.846 0 0)
(221.086 0 0)
(221.326 0 0)
(221.565 0 0)
(221.805 0 0)
(222.045 0 0)
(222.285 0 0)
(222.525 0 0)
(222.764 0 0)
(223.004 0 0)
(223.244 0 0)
(223.484 0 0)
(223.724 0 0)
(223.963 0 0)
(224.203 0 0)
(224.443 0 0)
(224.683 0 0)
(224.922 0 0)
(225.162 0 0)
(225.402 0 0)
(225.642 0 0)
(225.881 0 0)
(226.121 0 0)
(226.361 0 0)
(226.6 0 0)
(226.84 0 0)
(227.08 0 0)
(227.32 0 0)
(227.559 0 0)
(227.799 0 0)
(228.039 0 0)
(228.278 0 0)
(228.518 0 0)
(228.758 0 0)
(228.997 0 0)
(229.237 0 0)
(229.477 0 0)
(229.716 0 0)
(229.956 0 0)
(230.196 0 0)
(230.435 0 0)
(230.675 0 0)
(230.914 0 0)
(231.154 0 0)
(231.394 0 0)
(231.633 0 0)
(231.873 0 0)
(232.112 0 0)
(232.352 0 0)
(232.592 0 0)
(232.831 0 0)
(233.071 0 0)
(233.311 0 0)
(233.55 0 0)
(233.79 0 0)
(234.029 0 0)
(234.269 0 0)
(234.508 0 0)
(234.748 0 0)
(234.988 0 0)
(235.227 0 0)
(235.467 0 0)
(235.707 0 0)
(235.946 0 0)
(236.186 0 0)
(236.425 0 0)
(236.665 0 0)
(236.905 0 0)
(237.145 0 0)
(237.384 0 0)
(237.623 0 0)
(237.862 0 0)
(238.102 0 0)
(238.343 0 0)
(238.584 0 0)
(238.822 0 0)
(239.056 0 0)
(239.294 0 0)
(239.542 0 0)
(239.794 0 0)
(240.03 0 0)
(240.255 0 0)
(240.482 0 0)
(240.73 0 0)
(241.006 0 0)
(241.248 0 0)
(241.467 0 0)
(241.685 0 0)
(241.913 0 0)
(242.187 0 0)
(242.464 0 0)
(242.688 0 0)
(242.902 0 0)
(243.116 0 0)
(243.351 0 0)
(243.644 0 0)
(243.911 0 0)
(244.127 0 0)
(244.338 0 0)
(244.55 0 0)
(244.786 0 0)
(245.087 0 0)
(245.355 0 0)
(245.57 0 0)
(245.779 0 0)
(245.99 0 0)
(246.211 0 0)
(246.491 0 0)
(246.792 0 0)
(247.017 0 0)
(247.227 0 0)
(247.437 0 0)
(247.649 0 0)
(247.883 0 0)
(248.186 0 0)
(248.465 0 0)
(248.683 0 0)
(248.893 0 0)
(249.102 0 0)
(249.314 0 0)
(249.544 0 0)
(249.843 0 0)
(250.136 0 0)
(250.358 0 0)
(250.569 0 0)
(250.777 0 0)
(250.989 0 0)
(251.21 0 0)
(251.485 0 0)
(251.802 0 0)
(252.038 0 0)
(252.252 0 0)
(252.464 0 0)
(252.678 0 0)
(252.905 0 0)
(253.189 0 0)
(253.483 0 0)
(253.71 0 0)
(253.925 0 0)
(254.141 0 0)
(254.365 0 0)
(254.633 0 0)
(254.923 0 0)
(255.152 0 0)
(255.368 0 0)
(255.584 0 0)
(255.806 0 0)
(256.068 0 0)
(256.361 0 0)
(256.593 0 0)
(256.81 0 0)
(257.026 0 0)
(257.243 0 0)
(257.476 0 0)
(257.764 0 0)
(258.032 0 0)
(258.255 0 0)
(258.471 0 0)
(258.687 0 0)
(258.905 0 0)
(259.138 0 0)
(259.425 0 0)
(259.702 0 0)
(259.927 0 0)
(260.143 0 0)
(260.357 0 0)
(260.575 0 0)
(260.796 0 0)
(261.05 0 0)
(261.355 0 0)
(261.602 0 0)
(261.822 0 0)
(262.039 0 0)
(262.256 0 0)
(262.476 0 0)
(262.709 0 0)
(262.994 0 0)
(263.268 0 0)
(263.494 0 0)
(263.714 0 0)
(263.933 0 0)
(264.154 0 0)
(264.384 0 0)
(264.657 0 0)
(264.936 0 0)
(265.165 0 0)
(265.386 0 0)
(265.607 0 0)
(265.829 0 0)
(266.061 0 0)
(266.337 0 0)
(266.606 0 0)
(266.834 0 0)
(267.056 0 0)
(267.278 0 0)
(267.502 0 0)
(267.742 0 0)
(268.024 0 0)
(268.277 0 0)
(268.502 0 0)
(268.725 0 0)
(268.949 0 0)
(269.176 0 0)
(269.43 0 0)
(269.71 0 0)
(269.946 0 0)
(270.17 0 0)
(270.394 0 0)
(270.619 0 0)
(270.855 0 0)
(271.127 0 0)
(271.385 0 0)
(271.613 0 0)
(271.838 0 0)
(272.063 0 0)
(272.293 0 0)
(272.549 0 0)
(272.819 0 0)
(273.053 0 0)
(273.279 0 0)
(273.505 0 0)
(273.733 0 0)
(273.977 0 0)
(274.248 0 0)
(274.49 0 0)
(274.718 0 0)
(274.944 0 0)
(275.172 0 0)
(275.409 0 0)
(275.674 0 0)
(275.925 0 0)
(276.154 0 0)
(276.381 0 0)
(276.609 0 0)
(276.841 0 0)
(277.093 0 0)
(277.353 0 0)
(277.588 0 0)
(277.819 0 0)
(278.05 0 0)
(278.288 0 0)
(278.534 0 0)
(278.775 0 0)
(279.014 0 0)
(279.266 0 0)
(279.514 0 0)
(279.746 0 0)
(279.976 0 0)
(280.205 0 0)
(280.436 0 0)
(280.673 0 0)
(280.933 0 0)
(281.182 0 0)
(281.414 0 0)
(281.645 0 0)
(281.875 0 0)
(282.106 0 0)
(282.344 0 0)
(282.605 0 0)
(282.854 0 0)
(283.086 0 0)
(283.317 0 0)
(283.548 0 0)
(283.779 0 0)
(284.019 0 0)
(284.28 0 0)
(284.524 0 0)
(284.756 0 0)
(284.987 0 0)
(285.218 0 0)
(285.451 0 0)
(285.695 0 0)
(285.952 0 0)
(286.189 0 0)
(286.422 0 0)
(286.654 0 0)
(286.886 0 0)
(287.122 0 0)
(287.373 0 0)
(287.62 0 0)
(287.854 0 0)
(288.087 0 0)
(288.32 0 0)
(288.554 0 0)
(288.795 0 0)
(289.047 0 0)
(289.285 0 0)
(289.518 0 0)
(289.751 0 0)
(289.985 0 0)
(290.221 0 0)
(290.468 0 0)
(290.712 0 0)
(290.947 0 0)
(291.181 0 0)
(291.414 0 0)
(291.648 0 0)
(291.886 0 0)
(292.134 0 0)
(292.371 0 0)
(292.604 0 0)
(292.837 0 0)
(293.069 0 0)
(293.303 0 0)
(293.543 0 0)
(293.783 0 0)
(294.014 0 0)
(294.243 0 0)
(294.47 0 0)
(294.698 0 0)
(294.926 0 0)
(295.158 0 0)
(295.382 0 0)
(295.601 0 0)
(295.816 0 0)
(296.027 0 0)
(296.236 0 0)
(296.443 0 0)
(296.647 0 0)
(296.842 0 0)
(297.03 0 0)
(297.207 0 0)
(297.375 0 0)
(297.537 0 0)
(297.688 0 0)
(297.826 0 0)
(297.949 0 0)
(298.053 0 0)
(298.136 0 0)
(298.199 0 0)
(298.251 0 0)
(298.291 0 0)
(298.321 0 0)
(298.339 0 0)
(298.348 0 0)
(298.346 0 0)
(298.331 0 0)
(298.318 0 0)
(298.306 0 0)
(298.29 0 0)
(298.265 0 0)
(298.231 0 0)
(298.192 0 0)
(298.145 0 0)
(298.107 0 0)
(298.078 0 0)
(298.051 0 0)
(298.025 0 0)
(297.998 0 0)
(297.968 0 0)
(297.926 0 0)
(297.888 0 0)
(297.86 0 0)
(297.83 0 0)
(297.797 0 0)
(297.762 0 0)
(297.727 0 0)
(297.683 0 0)
(297.645 0 0)
(297.626 0 0)
(297.616 0 0)
(297.61 0 0)
(297.61 0 0)
(297.622 0 0)
(297.639 0 0)
(297.673 0 0)
(297.718 0 0)
(297.757 0 0)
(297.789 0 0)
(297.812 0 0)
(297.824 0 0)
(297.816 0 0)
(297.813 0 0)
(297.817 0 0)
(297.821 0 0)
(297.823 0 0)
(297.822 0 0)
(297.812 0 0)
(297.788 0 0)
(297.777 0 0)
(297.769 0 0)
(297.76 0 0)
(297.749 0 0)
(297.735 0 0)
(297.708 0 0)
(297.674 0 0)
(297.654 0 0)
(297.636 0 0)
(297.617 0 0)
(297.595 0 0)
(297.57 0 0)
(297.532 0 0)
(297.491 0 0)
(297.47 0 0)
(297.455 0 0)
(297.444 0 0)
(297.437 0 0)
(297.429 0 0)
(297.415 0 0)
(297.404 0 0)
(297.423 0 0)
(297.449 0 0)
(297.474 0 0)
(297.496 0 0)
(297.512 0 0)
(297.513 0 0)
(297.505 0 0)
(297.512 0 0)
(297.52 0 0)
(297.526 0 0)
(297.529 0 0)
(297.527 0 0)
(297.511 0 0)
(297.493 0 0)
(297.489 0 0)
(297.486 0 0)
(297.483 0 0)
(297.478 0 0)
(297.466 0 0)
(297.439 0 0)
(297.415 0 0)
(297.402 0 0)
(297.391 0 0)
(297.379 0 0)
(297.366 0 0)
(297.347 0 0)
(297.312 0 0)
(297.281 0 0)
(297.262 0 0)
(297.246 0 0)
(297.232 0 0)
(297.22 0 0)
(297.205 0 0)
(297.179 0 0)
(297.16 0 0)
(297.155 0 0)
(297.159 0 0)
(297.17 0 0)
(297.176 0 0)
(297.179 0 0)
(297.196 0 0)
(297.212 0 0)
(297.226 0 0)
(297.237 0 0)
(297.246 0 0)
(297.253 0 0)
(297.259 0 0)
(297.263 0 0)
(297.261 0 0)
(297.241 0 0)
(297.223 0 0)
(297.218 0 0)
(297.215 0 0)
(297.211 0 0)
(297.201 0 0)
(297.177 0 0)
(297.162 0 0)
(297.153 0 0)
(297.144 0 0)
(297.134 0 0)
(297.12 0 0)
(297.095 0 0)
(297.066 0 0)
(297.05 0 0)
(297.036 0 0)
(297.022 0 0)
(297.006 0 0)
(296.984 0 0)
(296.948 0 0)
(296.928 0 0)
(296.918 0 0)
(296.913 0 0)
(296.91 0 0)
(296.91 0 0)
(296.915 0 0)
(296.921 0 0)
(296.923 0 0)
(296.935 0 0)
(296.947 0 0)
(296.951 0 0)
(296.94 0 0)
(296.939 0 0)
(296.943 0 0)
(296.948 0 0)
(296.952 0 0)
(296.955 0 0)
(296.956 0 0)
(296.949 0 0)
(296.921 0 0)
(296.909 0 0)
(296.905 0 0)
(296.901 0 0)
(296.896 0 0)
(296.884 0 0)
(296.853 0 0)
(296.832 0 0)
(296.823 0 0)
(296.816 0 0)
(296.808 0 0)
(296.8 0 0)
(296.791 0 0)
(296.782 0 0)
(296.772 0 0)
(296.762 0 0)
(296.749 0 0)
(296.728 0 0)
(296.681 0 0)
(296.648 0 0)
(296.639 0 0)
(296.634 0 0)
(296.633 0 0)
(296.635 0 0)
(296.642 0 0)
(296.651 0 0)
(296.642 0 0)
(296.631 0 0)
(296.641 0 0)
(296.652 0 0)
(296.66 0 0)
(296.666 0 0)
(296.669 0 0)
(296.665 0 0)
(296.639 0 0)
(296.625 0 0)
(296.625 0 0)
(296.626 0 0)
(296.628 0 0)
(296.628 0 0)
(296.626 0 0)
(296.621 0 0)
(296.603 0 0)
(296.565 0 0)
(296.551 0 0)
(296.544 0 0)
(296.539 0 0)
(296.534 0 0)
(296.527 0 0)
(296.52 0 0)
(296.512 0 0)
(296.504 0 0)
(296.495 0 0)
(296.483 0 0)
(296.467 0 0)
(296.437 0 0)
(296.394 0 0)
(296.356 0 0)
(296.325 0 0)
(296.313 0 0)
(296.312 0 0)
(296.317 0 0)
(296.327 0 0)
(296.339 0 0)
(296.351 0 0)
(296.363 0 0)
(296.374 0 0)
(296.383 0 0)
(296.391 0 0)
(296.397 0 0)
(296.401 0 0)
(296.403 0 0)
(296.402 0 0)
(296.394 0 0)
(296.368 0 0)
(296.317 0 0)
(296.298 0 0)
(296.293 0 0)
(296.291 0 0)
(296.289 0 0)
(296.286 0 0)
(296.282 0 0)
(296.278 0 0)
(296.273 0 0)
(296.265 0 0)
(296.247 0 0)
(296.216 0 0)
(296.202 0 0)
(296.192 0 0)
(296.183 0 0)
(296.172 0 0)
(296.157 0 0)
(296.125 0 0)
(296.105 0 0)
(296.097 0 0)
(296.092 0 0)
(296.089 0 0)
(296.086 0 0)
(296.082 0 0)
(296.066 0 0)
(296.06 0 0)
(296.067 0 0)
(296.075 0 0)
(296.081 0 0)
(296.085 0 0)
(296.083 0 0)
(296.064 0 0)
(296.056 0 0)
(296.058 0 0)
(296.059 0 0)
(296.06 0 0)
(296.059 0 0)
(296.052 0 0)
(296.029 0 0)
(296.014 0 0)
(296.011 0 0)
(296.009 0 0)
(296.007 0 0)
(296.002 0 0)
(295.992 0 0)
(295.966 0 0)
(295.944 0 0)
(295.937 0 0)
(295.932 0 0)
(295.926 0 0)
(295.919 0 0)
(295.907 0 0)
(295.878 0 0)
(295.852 0 0)
(295.842 0 0)
(295.835 0 0)
(295.83 0 0)
(295.825 0 0)
(295.817 0 0)
(295.794 0 0)
(295.777 0 0)
(295.777 0 0)
(295.783 0 0)
(295.792 0 0)
(295.799 0 0)
(295.8 0 0)
(295.782 0 0)
(295.771 0 0)
(295.771 0 0)
(295.773 0 0)
(295.776 0 0)
(295.778 0 0)
(295.776 0 0)
(295.762 0 0)
(295.74 0 0)
(295.734 0 0)
(295.732 0 0)
(295.73 0 0)
(295.727 0 0)
(295.722 0 0)
(295.711 0 0)
(295.691 0 0)
(295.667 0 0)
(295.639 0 0)
(295.62 0 0)
(295.612 0 0)
(295.607 0 0)
(295.604 0 0)
(295.599 0 0)
(295.594 0 0)
(295.588 0 0)
(295.582 0 0)
(295.577 0 0)
(295.571 0 0)
(295.561 0 0)
(295.525 0 0)
(295.47 0 0)
(295.459 0 0)
(295.46 0 0)
(295.464 0 0)
(295.47 0 0)
(295.478 0 0)
(295.486 0 0)
(295.493 0 0)
(295.499 0 0)
(295.502 0 0)
(295.504 0 0)
(295.506 0 0)
(295.508 0 0)
(295.51 0 0)
(295.511 0 0)
(295.508 0 0)
(295.485 0 0)
(295.42 0 0)
(295.394 0 0)
(295.389 0 0)
(295.386 0 0)
(295.385 0 0)
(295.384 0 0)
(295.382 0 0)
(295.379 0 0)
(295.376 0 0)
(295.372 0 0)
(295.367 0 0)
(295.36 0 0)
(295.34 0 0)
(295.285 0 0)
(295.258 0 0)
(295.249 0 0)
(295.243 0 0)
(295.239 0 0)
(295.236 0 0)
(295.234 0 0)
(295.234 0 0)
(295.236 0 0)
(295.239 0 0)
(295.241 0 0)
(295.235 0 0)
(295.197 0 0)
(295.164 0 0)
(295.163 0 0)
(295.167 0 0)
(295.171 0 0)
(295.173 0 0)
(295.174 0 0)
(295.176 0 0)
(295.179 0 0)
(295.183 0 0)
(295.185 0 0)
(295.186 0 0)
(295.187 0 0)
(295.187 0 0)
(295.184 0 0)
(295.173 0 0)
(295.131 0 0)
(295.081 0 0)
(295.07 0 0)
(295.067 0 0)
(295.065 0 0)
(295.063 0 0)
(295.059 0 0)
(295.055 0 0)
(295.051 0 0)
(295.048 0 0)
(295.044 0 0)
(295.037 0 0)
(295.015 0 0)
(294.967 0 0)
(294.948 0 0)
(294.943 0 0)
(294.942 0 0)
(294.943 0 0)
(294.947 0 0)
(294.952 0 0)
(294.956 0 0)
(294.959 0 0)
(294.96 0 0)
(294.957 0 0)
(294.933 0 0)
(294.895 0 0)
(294.89 0 0)
(294.891 0 0)
(294.892 0 0)
(294.893 0 0)
(294.893 0 0)
(294.893 0 0)
(294.893 0 0)
(294.894 0 0)
(294.895 0 0)
(294.894 0 0)
(294.887 0 0)
(294.856 0 0)
(294.811 0 0)
(294.8 0 0)
(294.797 0 0)
(294.796 0 0)
(294.795 0 0)
(294.794 0 0)
(294.791 0 0)
(294.788 0 0)
(294.783 0 0)
(294.779 0 0)
(294.775 0 0)
(294.764 0 0)
(294.727 0 0)
(294.683 0 0)
(294.674 0 0)
(294.671 0 0)
(294.671 0 0)
(294.675 0 0)
(294.678 0 0)
(294.678 0 0)
(294.67 0 0)
(294.631 0 0)
(294.47 0 0)
(293.818 0 0)
(291.684 0 0)
(289.173 0 0)
(287.975 0 0)
(287.513 0 0)
(287.34 0 0)
(287.275 0 0)
(287.263 0 0)
(287.215 0 0)
(287.161 0 0)
(287.152 0 0)
(287.142 0 0)
(287.143 0 0)
(287.145 0 0)
(287.146 0 0)
(287.147 0 0)
(287.152 0 0)
(287.156 0 0)
(287.165 0 0)
(287.169 0 0)
(287.165 0 0)
(287.156 0 0)
(287.115 0 0)
(287.035 0 0)
(287.017 0 0)
(287.016 0 0)
(287.015 0 0)
(287.023 0 0)
(287.037 0 0)
(287.043 0 0)
(287.048 0 0)
(287.05 0 0)
(287.049 0 0)
(287.033 0 0)
(286.984 0 0)
(286.967 0 0)
(286.966 0 0)
(286.969 0 0)
(286.976 0 0)
(286.987 0 0)
(286.992 0 0)
(286.994 0 0)
(286.987 0 0)
(286.956 0 0)
(286.937 0 0)
(286.939 0 0)
(286.943 0 0)
(286.949 0 0)
(286.959 0 0)
(286.968 0 0)
(286.97 0 0)
(286.969 0 0)
(286.96 0 0)
(286.927 0 0)
(286.892 0 0)
(286.832 0 0)
(286.657 0 0)
(286.077 0 0)
(284.538 0 0)
(282.815 0 0)
(281.825 0 0)
(281.36 0 0)
(281.139 0 0)
(280.96 0 0)
(280.886 0 0)
(280.86 0 0)
(280.853 0 0)
(280.86 0 0)
(280.876 0 0)
(280.891 0 0)
(280.895 0 0)
(280.889 0 0)
(280.864 0 0)
(280.816 0 0)
(280.799 0 0)
(280.798 0 0)
(280.802 0 0)
(280.811 0 0)
(280.83 0 0)
(280.834 0 0)
(280.831 0 0)
(280.818 0 0)
(280.766 0 0)
(280.732 0 0)
(280.728 0 0)
(280.727 0 0)
(280.729 0 0)
(280.74 0 0)
(280.759 0 0)
(280.771 0 0)
(280.775 0 0)
(280.776 0 0)
(280.776 0 0)
(280.771 0 0)
(280.745 0 0)
(280.663 0 0)
(280.623 0 0)
(280.618 0 0)
(280.618 0 0)
(280.621 0 0)
(280.634 0 0)
(280.653 0 0)
(280.661 0 0)
(280.664 0 0)
(280.666 0 0)
(280.667 0 0)
(280.667 0 0)
(280.666 0 0)
(280.659 0 0)
(280.631 0 0)
(280.554 0 0)
(280.52 0 0)
(280.514 0 0)
(280.512 0 0)
(280.511 0 0)
(280.511 0 0)
(280.515 0 0)
(280.55 0 0)
)
;

boundaryField
{
    sides
    {
        type            zeroGradient;
    }
    empty
    {
        type            empty;
    }
}


// ************************************************************************* //
