/*--------------------------------*- C++ -*----------------------------------*\
  =========                 |
  \\      /  F ield         | OpenFOAM: The Open Source CFD Toolbox
   \\    /   O peration     | Website:  https://openfoam.org
    \\  /    A nd           | Version:  9
     \\/     M anipulation  |
\*---------------------------------------------------------------------------*/
FoamFile
{
    format      ascii;
    class       volScalarField;
    location    "0.027";
    object      mag(U);
}
// * * * * * * * * * * * * * * * * * * * * * * * * * * * * * * * * * * * * * //

dimensions      [0 1 -1 0 0 0 0];

internalField   nonuniform List<scalar> 
100
(
34.6991
39.7241
45.9524
49.5677
54.0317
58.4895
62.8734
67.2473
71.6241
76.0367
80.3831
84.8046
89.168
93.5582
97.9902
102.327
106.714
111.171
115.513
119.858
124.282
128.727
133.043
137.366
141.759
146.207
150.508
154.783
159.093
163.486
167.797
171.992
176.187
180.422
184.677
188.734
192.626
196.477
200.378
204.185
207.9
211.613
215.342
219.109
222.919
226.725
230.366
233.87
237.248
240.313
243.089
245.838
248.551
251.048
253.425
255.704
257.505
259.247
260.974
262.592
264.318
266.239
268.154
269.953
271.563
273.106
274.676
276.161
277.587
278.924
280.178
281.421
282.639
283.804
284.925
285.957
286.854
287.565
288.14
288.618
288.97
289.211
289.333
289.342
289.189
288.649
287.224
284.089
277.524
263.942
235.448
200.761
171.187
179.863
197.381
214.179
220.603
224.511
226.343
225.174
)
;

boundaryField
{
    sides
    {
        type            calculated;
        value           nonuniform List<scalar> 2(225.174 34.6991);
    }
    empty
    {
        type            empty;
    }
}


// ************************************************************************* //
