/*--------------------------------*- C++ -*----------------------------------*\
  =========                 |
  \\      /  F ield         | OpenFOAM: The Open Source CFD Toolbox
   \\    /   O peration     | Website:  https://openfoam.org
    \\  /    A nd           | Version:  9
     \\/     M anipulation  |
\*---------------------------------------------------------------------------*/
FoamFile
{
    format      ascii;
    class       surfaceScalarField;
    location    "0.027";
    object      phi;
}
// * * * * * * * * * * * * * * * * * * * * * * * * * * * * * * * * * * * * * //

dimensions      [1 0 -1 0 0 0 0];

internalField   nonuniform List<scalar> 
99
(
62.9199
69.7437
76.5295
83.2936
90.0328
96.757
103.47
110.147
116.788
123.4
129.964
136.506
142.998
149.463
155.907
162.28
168.634
174.996
181.289
187.499
193.74
199.991
206.145
212.199
218.274
224.402
230.456
236.378
242.245
248.196
254.145
259.96
265.652
271.335
277.07
282.688
288.132
293.443
298.755
304.111
309.515
314.876
320.194
325.452
330.787
336.2
341.572
346.759
351.949
357.59
362.608
368.137
373.608
378.7
383.482
388.239
393.327
398.719
404.105
409.332
414.235
419.284
424.735
430.167
435.296
440.138
444.777
449.266
453.654
458.125
462.641
466.969
470.987
474.688
478.148
481.436
484.537
487.359
489.767
491.704
493.229
494.36
495.147
495.776
496.376
496.767
496.77
496.014
493.777
488.512
474.327
449.511
458.673
463.908
466.082
472.621
478.251
481.74
482.056
)
;

boundaryField
{
    sides
    {
        type            calculated;
        value           nonuniform List<scalar> 2(477.12 -56.0077);
    }
    empty
    {
        type            empty;
        value           nonuniform List<scalar> 0();
    }
}


// ************************************************************************* //
