/*--------------------------------*- C++ -*----------------------------------*\
  =========                 |
  \\      /  F ield         | OpenFOAM: The Open Source CFD Toolbox
   \\    /   O peration     | Website:  https://openfoam.org
    \\  /    A nd           | Version:  9
     \\/     M anipulation  |
\*---------------------------------------------------------------------------*/
FoamFile
{
    format      ascii;
    class       volScalarField;
    location    "0.041";
    object      ddt0(rho,e);
}
// * * * * * * * * * * * * * * * * * * * * * * * * * * * * * * * * * * * * * //

dimensions      [1 -1 -3 0 0 0 0];

internalField   nonuniform List<scalar> 
10000
(
700280
700247
700195
700143
700090
700039
699989
699937
699884
699831
699783
699734
699680
699625
699575
699529
699481
699426
699369
699319
699275
699230
699175
699114
699060
699017
698977
698927
698865
698802
698753
698718
698681
698627
698559
698493
698447
698418
698387
698336
698263
698189
698136
698109
698090
698051
697982
697896
697823
697783
697771
697759
697717
697638
697541
697461
697422
697420
697423
697395
697320
697212
697109
697048
697039
697059
697068
697028
696932
696805
696692
696630
696631
696670
696701
696681
696592
696453
696308
696206
696178
696216
696282
696324
696299
696193
696031
695860
695735
695690
695729
695818
695905
695935
695877
695732
695534
695339
695201
695156
695205
695320
695447
695529
695521
695411
695214
694977
694757
694607
694561
694621
694760
694929
695071
695134
695090
694936
694697
694420
694161
693973
693891
693924
694060
694260
694473
694647
694735
694711
694570
694327
694021
693699
693412
693205
693107
693130
693265
693486
693752
694019
694239
694375
694401
694307
694100
693801
693443
693066
692712
692418
692214
692120
692144
692281
692515
692819
693162
693512
693832
694094
694272
694350
694317
694173
693927
693593
693190
692743
692275
691812
691380
691001
690693
690471
690345
690322
690403
690587
690869
691241
691693
692213
692789
693407
694056
694722
695393
696055
696692
697296
697853
698352
698785
699145
699428
699636
699774
699850
699879
699880
699888
699912
699976
700181
700827
701517
701560
701620
701658
701685
701706
701717
701722
701724
701722
701718
701714
701708
701702
701697
701691
701685
701679
701675
701671
701667
701662
701657
701653
701649
701646
701643
701641
701638
701635
701632
701629
701627
701624
701621
701618
701616
701614
701612
701609
701606
701603
701600
701597
701594
701592
701590
701587
701584
701582
701579
701577
701574
701571
701569
701566
701564
701561
701559
701556
701553
701550
701547
701545
701542
701539
701537
701534
701532
701529
701526
701524
701521
701518
701515
701513
701510
701508
701505
701502
701499
701496
701493
701490
701488
701485
701482
701480
701477
701474
701472
701469
701466
701463
701461
701458
701455
701452
701450
701446
701443
701440
701437
701434
701432
701429
701426
701424
701421
701418
701415
701413
701410
701407
701404
701402
701399
701396
701393
701390
701387
701384
701380
701377
701374
701371
701369
701366
701363
701360
701357
701355
701352
701349
701346
701344
701341
701338
701335
701332
701329
701325
701322
701319
701316
701313
701310
701307
701304
701301
701298
701295
701292
701289
701287
701284
701281
701278
701275
701272
701269
701265
701262
701259
701256
701253
701250
701246
701243
701240
701237
701234
701231
701228
701225
701222
701219
701216
701213
701210
701207
701204
701200
701197
701194
701191
701188
701185
701181
701178
701175
701172
701169
701166
701162
701159
701156
701153
701150
701147
701144
701140
701137
701134
701131
701127
701124
701121
701118
701114
701111
701108
701105
701101
701098
701095
701092
701088
701085
701082
701079
701075
701072
701069
701065
701062
701059
701055
701052
701049
701045
701042
701039
701036
701032
701029
701026
701022
701019
701016
701012
701009
701005
701002
700998
700995
700992
700988
700985
700981
700978
700974
700971
700968
700964
700961
700958
700954
700951
700948
700944
700941
700937
700934
700930
700926
700923
700919
700916
700912
700909
700905
700902
700898
700895
700891
700888
700884
700881
700878
700874
700871
700867
700864
700860
700856
700852
700849
700845
700841
700838
700834
700830
700827
700823
700820
700816
700813
700809
700806
700802
700799
700795
700791
700788
700784
700780
700777
700773
700769
700765
700762
700757
700754
700749
700748
700741
700741
700733
700736
700723
700731
700712
700729
700699
700728
700683
700730
700665
700733
700647
700735
700631
700732
700624
700717
700633
700683
700660
700648
700654
700653
700641
700638
700642
700633
700629
700623
700627
700608
700635
700573
700665
700520
700705
700466
700734
700436
700727
700455
700664
700531
700547
700644
700422
700739
700342
700755
700367
700656
700502
700473
700673
700311
700765
700277
700696
700416
700477
700642
700262
700770
700222
700672
700417
700392
700684
700174
700764
700229
700551
700521
700226
700755
700119
700667
700357
700314
700689
700074
700727
700228
700393
700610
700058
700750
700137
700441
700546
700043
700753
700079
700449
700516
700012
700749
700051
700413
700526
699960
700737
700057
700332
700573
699897
700703
700109
700203
700644
699849
700621
700217
700041
700707
699847
700472
700374
699873
700717
699934
700247
700555
699759
700620
700129
699970
700688
699773
700376
700405
699737
700667
699977
700019
700641
699685
700412
700328
699698
700663
699914
699981
700628
699636
700360
700331
699631
700617
699923
699898
700606
699633
700261
700346
699588
700528
699983
699777
700583
699678
700085
700426
699546
700370
700130
699609
700528
699815
699820
700515
699582
700089
700349
699485
700329
700093
699530
700476
699819
699688
700501
699587
699904
700413
699440
700126
700241
699390
700308
700023
699430
700425
699799
699536
700471
699599
699681
700449
699438
699843
700374
699322
700002
700261
699252
700146
700120
699224
700269
699964
699234
700366
699802
699274
700431
699645
699339
700465
699500
699420
700471
699371
699506
700455
699263
699589
700422
699177
699666
700378
699107
699732
700329
699051
699787
700281
699008
699828
700234
698975
699858
700190
698950
699875
700152
698930
699880
700121
698916
699871
700097
698909
699849
700079
698906
699817
700068
698905
699775
700066
698909
699720
700070
698917
699656
700078
698930
699584
700089
698948
699503
700102
698973
699413
700117
699008
699312
700126
699058
699203
700127
699125
699088
700115
699212
698970
700083
699322
698854
700021
699455
698752
699920
699604
698680
699778
699755
698650
699596
699895
698671
699382
700005
698754
699149
700065
698898
698918
700057
699095
698717
699970
699325
698573
699803
699559
698506
699569
699768
698530
699286
699921
698652
698985
699984
698861
698707
699937
699133
698497
699773
699426
698391
699504
699691
698416
699163
699874
698580
698800
699927
698868
698484
699812
699230
698290
699531
699581
698278
699130
699829
698465
698696
699892
698814
698340
699732
699239
698163
699368
699618
698229
698888
699824
698532
698428
699770
698986
698136
699453
699437
698115
698963
699723
698376
698460
699729
698828
698120
699437
699304
698068
698941
699616
698324
698417
699631
698790
698068
699327
699273
698033
698815
699561
698328
698304
699514
698819
698013
699139
699283
698067
698592
699497
698438
698115
699347
698948
697930
698888
699338
698128
698330
699398
698611
697947
699071
699127
697943
698504
699382
698327
697997
699205
698884
697835
698670
699279
698121
698069
699250
698688
697762
698780
699178
697948
698139
699251
698514
697732
698825
699082
697835
698153
699242
698387
697685
698844
698997
697756
698138
699200
698323
697626
698807
698958
697694
698083
699151
698292
697573
698718
698941
697674
697973
699098
698306
697504
698599
698934
697694
697837
699005
698371
697442
698434
698939
697740
697690
698880
698459
697413
698219
698937
697836
697530
698717
698558
697425
697977
698890
697985
697387
698493
698660
697490
697724
698782
698164
697304
698207
698731
697627
697477
698601
698352
697303
697880
698719
697842
697280
698325
698516
697402
697551
698593
698099
697191
697959
698601
697614
697268
698334
698340
697254
697554
698538
697920
697106
697942
698491
697486
697200
698269
698236
697154
697476
698442
697842
697022
697818
698413
697437
697083
698131
698190
697119
697307
698311
697855
696943
697610
698332
697477
696946
697898
698191
697151
697084
698116
697923
696929
697319
698204
697603
696832
697583
698163
697276
696871
697812
698005
697007
697003
697977
697760
696823
697200
698040
697484
696733
697416
698007
697203
696745
697605
697889
696959
696827
697754
697700
696774
696961
697834
697481
696650
697123
697847
697246
696599
697277
697799
697021
696604
697417
697691
696827
696654
697521
697549
696664
696740
697584
697381
696547
696836
697609
697200
696470
696941
697590
697025
696425
697039
697539
696855
696416
697120
697463
696701
696425
697189
697362
696569
696451
697234
697254
696451
696488
697259
697138
696356
696523
697269
697018
696279
696560
697257
696905
696212
696594
697233
696793
696163
696616
697200
696690
696119
696633
697153
696598
696083
696640
697102
696510
696056
696637
697047
696432
696028
696629
696986
696363
696002
696610
696927
696296
695980
696585
696865
696237
695952
696558
696803
696182
695925
696521
696747
696129
695894
696482
696691
696085
695857
696439
696637
696041
695819
696389
696591
696000
695777
696336
696543
695967
695727
696278
696501
695936
695678
696210
696462
695912
695626
696139
696419
695896
695572
696061
696377
695882
695522
695974
696333
695875
695473
695883
696282
695876
695429
695785
696225
695878
695395
695682
696159
695881
695369
695581
696080
695885
695351
695481
695993
695883
695345
695383
695896
695875
695347
695296
695786
695858
695355
695218
695673
695826
695370
695150
695556
695783
695383
695096
695437
695730
695396
695051
695320
695662
695409
695017
695203
695583
695416
694997
695089
695492
695418
694987
694983
695385
695413
694988
694885
695267
695395
695004
694798
695137
695360
695030
694732
694994
695304
695060
694691
694849
695217
695091
694677
694712
695100
695105
694693
694594
694959
695091
694728
694506
694801
695044
694769
694457
694642
694958
694803
694441
694500
694837
694816
694453
694383
694695
694794
694481
694299
694545
694737
694506
694250
694400
694651
694519
694225
694271
694540
694516
694216
694160
694414
694489
694223
694069
694277
694439
694236
694004
694133
694362
694249
693968
693991
694251
694252
693963
693869
694107
694228
693985
693780
693946
694160
694017
693735
693783
694045
694032
693739
693647
693887
694007
693771
693561
693710
693927
693804
693531
693549
693792
693806
693541
693430
693627
693759
693567
693361
693463
693658
693579
693335
693321
693523
693556
693336
693214
693370
693495
693343
693148
693215
693395
693340
693117
693078
693258
693312
693114
692973
693098
693243
693123
692912
692939
693124
693118
692896
692804
692965
693072
692910
692718
692790
692968
692919
692691
692635
692811
692887
692703
692533
692628
692794
692717
692495
692462
692639
692693
692502
692351
692454
692603
692514
692305
692286
692451
692489
692304
692171
692270
692400
692309
692117
692105
692251
692277
692105
691988
692079
692187
692098
691925
691919
692047
692059
691900
691797
691883
691973
691881
691723
691723
691841
691842
691687
691593
691678
691760
691666
691511
691511
691628
691629
691473
691375
691456
691546
691457
691295
691280
691399
691418
691267
691150
691214
691317
691251
691084
691042
691151
691195
691063
690928
690962
691068
691036
690877
690805
690890
690954
690853
690710
690709
690806
690804
690665
690571
690626
690697
690628
690488
690458
690538
690557
690441
690333
690361
690431
690389
690256
690202
690266
690300
690205
690086
690090
690162
690142
690015
689936
689985
690038
689965
689832
689803
689878
689893
689777
689662
689682
689758
689726
689587
689509
689565
689620
689544
689405
689370
689443
689463
689353
689233
689239
689309
689288
689162
689074
689109
689159
689101
688975
688926
688974
688993
688905
688796
688784
688831
688812
688707
688626
688643
688675
688621
688510
688463
688497
688506
688422
688320
688304
688344
688323
688219
688135
688147
688180
688130
688016
687957
687987
688005
687928
687815
687781
687821
687819
687722
687617
687606
687646
687623
687513
687424
687430
687462
687417
687302
687233
687250
687269
687203
687092
687043
687067
687067
686983
686882
686852
686876
686857
686761
686672
686658
686678
686639
686538
686462
686460
686471
686414
686312
686252
686258
686256
686182
686084
686040
686051
686033
685947
685854
685824
685836
685804
685708
685622
685605
685614
685568
685466
685388
685380
685385
685327
685221
685151
685150
685148
685079
684972
684911
684913
684904
684827
684721
684667
684669
684652
684569
684467
684418
684418
684393
684306
684210
684166
684161
684126
684037
683948
683909
683898
683852
683761
683680
683646
683629
683572
683480
683406
683378
683355
683288
683193
683125
683102
683074
682998
682900
682836
682818
682787
682704
682601
682541
682525
682492
682405
682299
682238
682223
682190
682100
681991
681929
681911
681878
681788
681680
681614
681592
681556
681468
681363
681294
681266
681225
681139
681038
680968
680934
680886
680800
680703
680636
680595
680539
680452
680359
680295
680251
680187
680095
680004
679944
679899
679830
679730
679638
679582
679538
679467
679360
679263
679206
679167
679095
678985
678881
678819
678782
678714
678603
678492
678424
678384
678321
678213
678098
678020
677974
677913
677812
677696
677611
677555
677493
677396
677284
677194
677130
677061
676965
676859
676768
676698
676621
676522
676418
676330
676257
676174
676069
675962
675876
675805
675719
675608
675494
675406
675338
675254
675139
675016
674922
674853
674775
674660
674531
674425
674353
674279
674169
674036
673920
673839
673765
673662
673530
673405
673313
673235
673137
673009
672880
672777
672691
672593
672470
672342
672230
672135
672033
671912
671785
671670
671568
671459
671336
671209
671094
670989
670874
670744
670613
670498
670392
670276
670140
670000
669879
669775
669662
669523
669373
669242
669134
669025
668889
668734
668589
668472
668364
668234
668078
667923
667793
667680
667555
667404
667243
667100
666977
666853
666707
666547
666396
666263
666135
665989
665994
665882
665861
665746
665568
665312
665155
664959
664792
664626
664449
664278
664114
663958
663800
663631
663460
663299
663148
662994
662826
662647
662479
662326
662174
662005
661821
661642
661479
661326
661160
660977
660787
660611
660450
660286
660105
659909
659721
659549
659381
659201
659006
658810
658625
658448
658266
658071
657871
657677
657491
657301
657104
656901
656702
656509
656312
656108
655899
655694
655496
655295
655085
654867
654654
654450
654248
654035
653809
653584
653371
653164
652950
652721
652486
652259
652045
651829
651601
651359
651119
650892
650670
650442
650199
649950
649709
649477
649243
648999
648746
648494
648250
648008
647759
647502
647244
646990
646738
646482
646218
645953
645692
645432
645168
644896
644621
644352
644086
643817
643537
643251
642968
642695
642422
642139
641844
641547
641260
640980
640694
640396
640089
639785
639491
639201
638901
638589
638273
637963
637659
637354
637038
636715
636393
636075
635759
635437
635108
634777
634448
634120
633787
633449
633109
632771
632433
632090
631741
631389
631039
630693
630344
629985
629620
629256
628898
628542
628178
627803
627423
627049
626681
626312
625931
625541
625150
624766
624385
623999
623603
623200
622798
622402
622006
621603
621192
620777
620365
619955
619541
619121
618697
618272
617848
617421
616989
616553
616116
615680
615242
614798
614348
613897
613448
613000
612546
612083
611617
611152
610691
610227
609756
609276
608795
608316
607841
607361
606872
606376
605880
605388
604896
604398
603892
603381
602871
602364
601855
601339
600816
600291
599767
599244
598716
598182
597643
597105
596566
596025
595478
594927
594374
593821
593266
592707
592141
591574
591007
590439
589867
589289
588706
588123
587542
586959
586369
585773
585173
584576
583980
583380
582773
582159
581544
580931
580320
579703
579079
578449
577819
577191
576563
575930
575289
574645
574001
573358
572712
572062
571406
570749
570091
569433
568770
568104
567434
566764
566093
565419
564741
564059
563376
562693
562010
561321
560627
559931
559236
558542
557845
557142
556435
555726
555020
554314
553605
552889
552170
551451
550734
550017
549296
548569
547839
547110
546384
545656
544924
544188
543450
542713
541978
541240
540499
539755
539011
538268
537524
536778
536029
535280
534531
533782
533032
532280
531526
530772
530020
529268
528513
527756
526998
526242
525489
524735
523977
523218
522459
521703
520949
520195
519437
518678
517920
517166
516414
515661
514905
514149
513395
512644
511895
511146
510395
509644
508896
508151
507408
506665
505921
505178
504438
503701
502965
502230
501496
500764
500035
499308
498582
497857
497135
496417
495701
494987
494273
493560
492852
492149
491450
490751
490052
489355
488662
487976
487294
486613
485933
485254
484580
483912
483249
482588
481928
481271
480618
479970
479328
478689
478052
477418
476788
476163
475543
474927
474314
473706
473102
472502
471906
471314
470727
470145
469569
468996
468426
467860
467299
466746
466199
465654
465112
464573
464041
463516
462998
462483
461971
461462
460958
460463
459974
459489
459008
458529
458056
457590
457131
456676
456226
455780
455338
454903
454473
454048
453629
453214
452805
452401
452001
451607
451217
450834
450457
450084
449715
449350
448991
448638
448292
447951
447613
447278
446947
446624
446308
445998
445690
445385
445084
444789
444501
444220
443942
443667
443395
443128
442867
442612
442362
442115
441872
441634
441399
441170
440945
440725
440509
440298
440090
439885
439684
439488
439298
439112
438929
438749
438571
438397
438229
438067
437909
437752
437596
437444
437297
437155
437018
436884
436750
436619
436491
436368
436250
436135
436022
435911
435802
435697
435595
435497
435402
435309
435219
435131
435045
434962
434882
434806
434733
434661
434590
434520
434454
434391
434333
434276
434220
434164
434109
434058
434012
433968
433925
433883
433840
433799
433763
433729
433698
433667
433636
433607
433579
433553
433531
433510
433490
433470
433452
433434
433418
433405
433394
433383
433374
433364
433355
433347
433342
433339
433338
433337
433334
433331
433331
433333
433338
433343
433348
433352
433356
433362
433370
433381
433391
433401
433411
433421
433432
433446
433460
433475
433490
433504
433520
433535
433552
433570
433589
433608
433628
433646
433664
433684
433706
433729
433752
433773
433795
433815
433838
433863
433889
433914
433938
433962
433985
434010
434037
434065
434092
434118
434144
434170
434196
434224
434254
434282
434310
434338
434366
434394
434422
434452
434484
434514
434543
434571
434600
434630
434660
434693
434725
434755
434783
434812
434844
434877
434910
434940
434970
435001
435033
435064
435096
435128
435162
435194
435224
435255
435287
435320
435353
435386
435418
435450
435483
435514
435547
435580
435613
435647
435680
435712
435744
435776
435809
435843
435877
435910
435942
435975
436007
436041
436075
436109
436142
436174
436207
436239
436273
436307
436341
436374
436407
436440
436473
436507
436540
436574
436608
436641
436674
436707
436741
436774
436808
436842
436875
436909
436942
436975
437008
437042
437076
437110
437144
437176
437209
437243
437277
437311
437345
437378
437411
437444
437477
437512
437545
437579
437613
437646
437680
437713
437746
437780
437814
437848
437881
437915
437948
437981
438014
438048
438083
438116
438150
438183
438216
438249
438283
438317
438351
438385
438418
438451
438484
438518
438552
438586
438619
438653
438686
438720
438753
438787
438820
438854
438887
438921
438955
438988
439022
439055
439089
439122
439156
439189
439223
439256
439289
439324
439357
439391
439424
439458
439491
439524
439558
439592
439625
439659
439692
439726
439760
439792
439827
439859
439894
439928
439961
439994
440028
440061
440094
440128
440162
440196
440229
440262
440296
440329
440363
440397
440431
440464
440497
440530
440564
440597
440631
440665
440698
440733
440765
440799
440832
440865
440899
440933
440967
441000
441034
441066
441100
441133
441167
441202
441234
441269
441301
441334
441367
441401
441436
441469
441503
441536
441569
441602
441636
441670
441703
441737
441771
441804
441837
441870
441903
441937
441971
442005
442039
442072
442104
442138
442171
442205
442239
442273
442307
442339
442372
442405
442439
442472
442508
442541
442574
442607
442639
442674
442706
442741
442774
442809
442842
442874
442908
442940
442975
443008
443043
443076
443109
443142
443174
443209
443241
443277
443309
443344
443377
443408
443443
443475
443510
443543
443578
443611
443643
443677
443709
443743
443776
443811
443844
443878
443910
443943
443977
444009
444044
444078
444112
444145
444177
444210
444243
444277
444311
444346
444379
444412
444444
444477
444510
444544
444579
444612
444646
444679
444711
444744
444777
444811
444845
444879
444913
444946
444978
445011
445044
445078
445112
445146
445180
445212
445245
445277
445311
445345
445379
445413
445446
445479
445511
445544
445578
445612
445646
445680
445713
445746
445778
445812
445844
445879
445912
445947
445979
446012
446045
446078
446112
446145
446180
446213
446247
446279
446312
446345
446379
446412
446446
446480
446513
446546
446579
446612
446645
446680
446713
446747
446780
446813
446846
446879
446912
446946
446980
447013
447047
447079
447113
447146
447179
447213
447247
447281
447314
447347
447379
447413
447447
447480
447514
447548
447581
447614
447647
447680
447713
447748
447781
447815
447848
447881
447914
447947
447981
448015
448049
448082
448116
448149
448182
448215
448248
448283
448316
448350
448383
448417
448449
448483
448516
448550
448584
448618
448651
448684
448717
448751
448784
448818
448852
448886
448919
448953
448985
449018
449052
449086
449120
449153
449188
449220
449254
449287
449321
449354
449388
449423
449455
449489
449522
449556
449589
449623
449657
449690
449725
449758
449791
449824
449858
449892
449925
449960
449993
450026
450060
450093
450127
450160
450194
450228
450262
450296
450329
450362
450396
450430
450464
450498
450532
450565
450598
450632
450665
450699
450733
450767
450801
450835
450868
450902
450935
450969
451003
451037
451070
451104
451138
451171
451205
451239
451273
451306
451341
451375
451408
451442
451475
451509
451543
451577
451611
451644
451678
451712
451745
451779
451813
451847
451881
451915
451948
451982
452015
452050
452083
452118
452151
452185
452219
452253
452286
452320
452354
452388
452422
452456
452490
452523
452557
452591
452625
452659
452693
452727
452760
452794
452828
452862
452896
452930
452964
452998
453032
453065
453099
453133
453167
453201
453235
453269
453303
453336
453370
453404
453437
453472
453506
453541
453574
453608
453641
453675
453709
453743
453777
453811
453846
453879
453913
453946
453980
454014
454048
454082
454117
454151
454184
454218
454252
454285
454319
454354
454388
454422
454456
454490
454523
454557
454591
454625
454659
454693
454727
454761
454795
454829
454862
454896
454930
454965
454998
455033
455066
455100
455134
455167
455202
455235
455270
455303
455338
455371
455406
455439
455473
455507
455541
455575
455609
455643
455677
455711
455744
455778
455812
455847
455880
455914
455948
455982
456016
456049
456084
456117
456152
456185
456220
456253
456287
456321
456355
456389
456422
456457
456490
456525
456558
456592
456626
456660
456693
456727
456762
456795
456829
456863
456897
456930
456965
456998
457032
457066
457100
457134
457167
457202
457235
457269
457303
457337
457370
457405
457438
457472
457506
457540
457574
457607
457641
457675
457709
457742
457777
457810
457844
457878
457911
457946
457979
458013
458047
458080
458114
458148
458182
458215
458249
458283
458317
458350
458384
458418
458452
458486
458519
458553
458586
458621
458654
458688
458721
458755
458789
458822
458856
458890
458924
458957
458991
459025
459059
459092
459126
459159
459193
459227
459261
459294
459328
459361
459395
459429
459462
459496
459529
459564
459597
459630
459664
459697
459731
459764
459799
459832
459866
459899
459933
459966
459999
460033
460067
460101
460134
460168
460202
460235
460268
460302
460335
460369
460403
460436
460470
460504
460537
460570
460603
460637
460671
460705
460738
460772
460806
460839
460872
460905
460939
460972
461006
461040
461074
461107
461140
461173
461207
461240
461274
461308
461342
461375
461409
461442
461475
461508
461541
461575
461609
461643
461677
461710
461743
461776
461809
461843
461876
461910
461944
461978
462011
462045
462077
462110
462144
462177
462211
462245
462279
462312
462346
462378
462411
462445
462478
462512
462546
462580
462613
462647
462679
462713
462746
462779
462813
462847
462881
462914
462948
462981
463014
463047
463080
463114
463148
463182
463215
463249
463282
463315
463348
463382
463415
463449
463483
463516
463550
463583
463616
463649
463683
463716
463750
463784
463818
463851
463884
463917
463950
463984
464018
464051
464085
464119
464152
464185
464219
464252
464285
464319
464353
464387
464420
464454
464487
464520
464553
464586
464620
464654
464688
464722
464756
464789
464822
464855
464888
464922
464956
464990
465024
465057
465091
465124
465157
465190
465224
465257
465292
465325
465360
465393
465426
465459
465493
465526
465560
465593
465627
465661
465695
465728
465761
465795
465828
465862
465895
465930
465963
465997
466031
466064
466097
466131
466164
466198
466232
466266
466299
466333
466366
466400
466433
466467
466501
466535
466569
466602
466636
466669
466703
466736
466770
466803
466838
466872
466906
466939
466973
467006
467040
467073
467107
467141
467175
467209
467242
467277
467309
467343
467376
467410
467444
467478
467512
467546
467580
467613
467647
467680
467714
467747
467782
467816
467850
467883
467917
467950
467984
468018
468051
468085
468119
468154
468187
468221
468255
468288
468322
468355
468389
468423
468457
468491
468525
468559
468592
468626
468660
468693
468727
468761
468795
468829
468863
468897
468931
468964
468998
469032
469066
469100
469134
469168
469201
469235
469269
469303
469336
469370
469404
469438
469472
469506
469540
469573
469607
469641
469675
469709
469743
469777
469811
469845
469879
469912
469946
469980
470014
470048
470082
470116
470150
470184
470217
470251
470285
470319
470353
470387
470421
470455
470489
470522
470556
470590
470624
470658
470692
470726
470759
470794
470827
470862
470895
470929
470963
470997
471032
471065
471100
471133
471168
471201
471235
471269
471303
471337
471370
471405
471438
471473
471506
471541
471574
471608
471642
471676
471711
471744
471779
471811
471846
471880
471914
471948
471982
472016
472049
472084
472117
472152
472185
472220
472254
472287
472322
472355
472390
472423
472458
472491
472525
472559
472593
472627
472661
472695
472729
472763
472797
472831
472865
472899
472933
472967
473001
473035
473069
473103
473137
473171
473205
473239
473273
473307
473341
473375
473409
473443
473477
473511
473545
473579
473613
473647
473681
473714
473749
473782
473817
473850
473885
473919
473953
473987
474020
474055
474088
474122
474156
474191
474224
474259
474293
474326
474360
474393
474428
474461
474496
474530
474564
474598
474632
474666
474699
474734
474767
474802
474835
474870
474904
474938
474972
475005
475040
475072
475107
475140
475175
475209
475243
475277
475311
475345
475378
475413
475446
475480
475514
475548
475582
475616
475650
475684
475718
475751
475785
475819
475853
475887
475921
475955
475990
476023
476057
476091
476124
476158
476192
476226
476260
476294
476328
476362
476396
476429
476463
476497
476530
476564
476599
476633
476667
476701
476735
476768
476801
476835
476869
476903
476937
476971
477006
477039
477073
477107
477140
477174
477207
477241
477275
477309
477344
477378
477411
477445
477478
477512
477545
477579
477613
477647
477682
477716
477750
477783
477817
477850
477883
477917
477951
477985
478019
478053
478087
478121
478154
478188
478221
478255
478288
478322
478357
478391
478425
478459
478492
478526
478559
478592
478626
478660
478694
478728
478762
478796
478830
478863
478897
478930
478963
478997
479031
479065
479099
479133
479167
479201
479234
479267
479301
479334
479368
479402
479436
479470
479504
479538
479571
479605
479638
479671
479705
479739
479773
479807
479841
479874
479908
479942
479975
480009
480042
480076
480110
480144
480177
480211
480245
480279
480312
480346
480379
480413
480447
480480
480514
480548
480582
480615
480649
480682
480716
480750
480783
480817
480851
480885
480918
480952
480986
481020
481053
481087
481120
481154
481188
481222
481255
481289
481323
481356
481390
481423
481457
481490
481524
481558
481592
481626
481660
481693
481727
481760
481794
481827
481861
481895
481929
481962
481996
482030
482063
482097
482130
482164
482198
482232
482265
482299
482333
482367
482400
482434
482468
482501
482535
482568
482602
482636
482670
482704
482738
482771
482805
482838
482872
482905
482939
482973
483006
483041
483074
483108
483141
483176
483209
483243
483276
483310
483343
483377
483411
483445
483479
483512
483546
483580
483613
483647
483680
483714
483748
483782
483815
483849
483883
483917
483951
483984
484018
484051
484085
484119
484153
484186
484220
484254
484288
484321
484355
484389
484422
484456
484490
484524
484558
484591
484625
484659
484693
484726
484760
484794
484827
484861
484895
484929
484963
484996
485030
485064
485098
485131
485165
485199
485232
485266
485300
485334
485368
485402
485436
485469
485503
485536
485570
485603
485638
485671
485705
485739
485773
485807
485840
485874
485908
485942
485975
486009
486043
486076
486111
486144
486179
486212
486246
486280
486313
486347
486380
486414
486448
486482
486516
486550
486584
486618
486652
486685
486719
486752
486786
486820
486854
486888
486922
486956
486989
487023
487057
487091
487124
487158
487192
487225
487260
487293
487328
487361
487395
487429
487462
487496
487530
487564
487597
487631
487665
487699
487733
487767
487801
487834
487868
487902
487936
487969
488003
488037
488071
488105
488139
488173
488206
488240
488274
488308
488341
488375
488409
488443
488477
488511
488545
488579
488612
488646
488680
488714
488748
488782
488816
488850
488884
488917
488951
488985
489019
489052
489086
489120
489154
489188
489222
489256
489290
489323
489357
489391