/*--------------------------------*- C++ -*----------------------------------*\
  =========                 |
  \\      /  F ield         | OpenFOAM: The Open Source CFD Toolbox
   \\    /   O peration     | Website:  https://openfoam.org
    \\  /    A nd           | Version:  9
     \\/     M anipulation  |
\*---------------------------------------------------------------------------*/
FoamFile
{
    format      ascii;
    class       volVectorField;
    location    "0.041";
    object      ddt0(rho,U);
}
// * * * * * * * * * * * * * * * * * * * * * * * * * * * * * * * * * * * * * //

dimensions      [1 -2 -2 0 0 0 0];

internalField   nonuniform List<vector> 
10000
(
(-11.7096 0 0)
(-12.1589 0 0)
(-12.6279 0 0)
(-13.0089 0 0)
(-13.3603 0 0)
(-13.718 0 0)
(-14.0834 0 0)
(-14.4504 0 0)
(-14.8163 0 0)
(-15.1813 0 0)
(-15.5461 0 0)
(-15.9111 0 0)
(-16.2762 0 0)
(-16.6416 0 0)
(-17.0072 0 0)
(-17.3729 0 0)
(-17.7386 0 0)
(-18.104 0 0)
(-18.4693 0 0)
(-18.8348 0 0)
(-19.2004 0 0)
(-19.566 0 0)
(-19.9313 0 0)
(-20.2966 0 0)
(-20.6621 0 0)
(-21.028 0 0)
(-21.3938 0 0)
(-21.7592 0 0)
(-22.124 0 0)
(-22.4886 0 0)
(-22.8533 0 0)
(-23.2183 0 0)
(-23.5833 0 0)
(-23.9479 0 0)
(-24.3124 0 0)
(-24.6772 0 0)
(-25.0425 0 0)
(-25.4082 0 0)
(-25.7738 0 0)
(-26.1388 0 0)
(-26.5034 0 0)
(-26.8681 0 0)
(-27.2334 0 0)
(-27.5995 0 0)
(-27.9657 0 0)
(-28.3313 0 0)
(-28.696 0 0)
(-29.0601 0 0)
(-29.4245 0 0)
(-29.7896 0 0)
(-30.1551 0 0)
(-30.5205 0 0)
(-30.8849 0 0)
(-31.2484 0 0)
(-31.6115 0 0)
(-31.9754 0 0)
(-32.3404 0 0)
(-32.7065 0 0)
(-33.0726 0 0)
(-33.4377 0 0)
(-33.8017 0 0)
(-34.1649 0 0)
(-34.5285 0 0)
(-34.8935 0 0)
(-35.2602 0 0)
(-35.6276 0 0)
(-35.9945 0 0)
(-36.3596 0 0)
(-36.7227 0 0)
(-37.0847 0 0)
(-37.447 0 0)
(-37.8109 0 0)
(-38.1767 0 0)
(-38.5438 0 0)
(-38.9104 0 0)
(-39.2754 0 0)
(-39.6381 0 0)
(-39.9991 0 0)
(-40.3601 0 0)
(-40.7228 0 0)
(-41.088 0 0)
(-41.4555 0 0)
(-41.8239 0 0)
(-42.1916 0 0)
(-42.5572 0 0)
(-42.9203 0 0)
(-43.2817 0 0)
(-43.6428 0 0)
(-44.0051 0 0)
(-44.3697 0 0)
(-44.7367 0 0)
(-45.1052 0 0)
(-45.4735 0 0)
(-45.8399 0 0)
(-46.2034 0 0)
(-46.5639 0 0)
(-46.9226 0 0)
(-47.2813 0 0)
(-47.6421 0 0)
(-48.0061 0 0)
(-48.3736 0 0)
(-48.7432 0 0)
(-49.1133 0 0)
(-49.4819 0 0)
(-49.8478 0 0)
(-50.2104 0 0)
(-50.5702 0 0)
(-50.9285 0 0)
(-51.2871 0 0)
(-51.6479 0 0)
(-52.0119 0 0)
(-52.3796 0 0)
(-52.7501 0 0)
(-53.1218 0 0)
(-53.4925 0 0)
(-53.8601 0 0)
(-54.2234 0 0)
(-54.5825 0 0)
(-54.9387 0 0)
(-55.2936 0 0)
(-55.6493 0 0)
(-56.0076 0 0)
(-56.3701 0 0)
(-56.7372 0 0)
(-57.1087 0 0)
(-57.4829 0 0)
(-57.8576 0 0)
(-58.2307 0 0)
(-58.6 0 0)
(-58.9644 0 0)
(-59.3238 0 0)
(-59.6793 0 0)
(-60.0329 0 0)
(-60.3862 0 0)
(-60.741 0 0)
(-61.0987 0 0)
(-61.4603 0 0)
(-61.8267 0 0)
(-62.1974 0 0)
(-62.5713 0 0)
(-62.9466 0 0)
(-63.3216 0 0)
(-63.6948 0 0)
(-64.0651 0 0)
(-64.4315 0 0)
(-64.7937 0 0)
(-65.1518 0 0)
(-65.5062 0 0)
(-65.8577 0 0)
(-66.2076 0 0)
(-66.5582 0 0)
(-66.9117 0 0)
(-67.2695 0 0)
(-67.6318 0 0)
(-67.9986 0 0)
(-68.3694 0 0)
(-68.7442 0 0)
(-69.1222 0 0)
(-69.5016 0 0)
(-69.8807 0 0)
(-70.2583 0 0)
(-70.6336 0 0)
(-71.0054 0 0)
(-71.3731 0 0)
(-71.7371 0 0)
(-72.0975 0 0)
(-72.4537 0 0)
(-72.8055 0 0)
(-73.1533 0 0)
(-73.4983 0 0)
(-73.8429 0 0)
(-74.1889 0 0)
(-74.5365 0 0)
(-74.8855 0 0)
(-75.2372 0 0)
(-75.5931 0 0)
(-75.9534 0 0)
(-76.3176 0 0)
(-76.686 0 0)
(-77.0591 0 0)
(-77.4362 0 0)
(-77.8164 0 0)
(-78.2005 0 0)
(-78.5883 0 0)
(-78.98 0 0)
(-79.3753 0 0)
(-79.7714 0 0)
(-80.1657 0 0)
(-80.5589 0 0)
(-80.953 0 0)
(-81.3479 0 0)
(-81.7402 0 0)
(-82.1295 0 0)
(-82.5179 0 0)
(-82.9032 0 0)
(-83.2845 0 0)
(-83.6633 0 0)
(-84.0384 0 0)
(-84.4102 0 0)
(-84.7795 0 0)
(-85.1458 0 0)
(-85.5097 0 0)
(-85.8728 0 0)
(-86.2409 0 0)
(-86.6172 0 0)
(-86.9903 0 0)
(-87.3917 0 0)
(-87.792 0 0)
(-88.1538 0 0)
(-88.523 0 0)
(-88.884 0 0)
(-89.248 0 0)
(-89.6176 0 0)
(-89.9861 0 0)
(-90.353 0 0)
(-90.7201 0 0)
(-91.0855 0 0)
(-91.4515 0 0)
(-91.8185 0 0)
(-92.1837 0 0)
(-92.549 0 0)
(-92.9164 0 0)
(-93.2826 0 0)
(-93.6468 0 0)
(-94.0123 0 0)
(-94.3799 0 0)
(-94.747 0 0)
(-95.1126 0 0)
(-95.4762 0 0)
(-95.8393 0 0)
(-96.204 0 0)
(-96.5701 0 0)
(-96.936 0 0)
(-97.3022 0 0)
(-97.669 0 0)
(-98.0353 0 0)
(-98.4008 0 0)
(-98.7665 0 0)
(-99.1329 0 0)
(-99.4994 0 0)
(-99.8654 0 0)
(-100.231 0 0)
(-100.596 0 0)
(-100.963 0 0)
(-101.33 0 0)
(-101.697 0 0)
(-102.062 0 0)
(-102.427 0 0)
(-102.792 0 0)
(-103.156 0 0)
(-103.522 0 0)
(-103.887 0 0)
(-104.254 0 0)
(-104.62 0 0)
(-104.986 0 0)
(-105.352 0 0)
(-105.718 0 0)
(-106.084 0 0)
(-106.45 0 0)
(-106.816 0 0)
(-107.181 0 0)
(-107.547 0 0)
(-107.913 0 0)
(-108.28 0 0)
(-108.646 0 0)
(-109.012 0 0)
(-109.378 0 0)
(-109.743 0 0)
(-110.108 0 0)
(-110.473 0 0)
(-110.839 0 0)
(-111.205 0 0)
(-111.571 0 0)
(-111.937 0 0)
(-112.303 0 0)
(-112.669 0 0)
(-113.035 0 0)
(-113.401 0 0)
(-113.767 0 0)
(-114.132 0 0)
(-114.498 0 0)
(-114.864 0 0)
(-115.23 0 0)
(-115.596 0 0)
(-115.962 0 0)
(-116.328 0 0)
(-116.693 0 0)
(-117.058 0 0)
(-117.424 0 0)
(-117.789 0 0)
(-118.155 0 0)
(-118.521 0 0)
(-118.887 0 0)
(-119.253 0 0)
(-119.619 0 0)
(-119.985 0 0)
(-120.352 0 0)
(-120.717 0 0)
(-121.083 0 0)
(-121.449 0 0)
(-121.815 0 0)
(-122.181 0 0)
(-122.547 0 0)
(-122.913 0 0)
(-123.279 0 0)
(-123.644 0 0)
(-124.009 0 0)
(-124.374 0 0)
(-124.74 0 0)
(-125.105 0 0)
(-125.471 0 0)
(-125.836 0 0)
(-126.202 0 0)
(-126.569 0 0)
(-126.935 0 0)
(-127.301 0 0)
(-127.667 0 0)
(-128.033 0 0)
(-128.399 0 0)
(-128.765 0 0)
(-129.131 0 0)
(-129.497 0 0)
(-129.863 0 0)
(-130.229 0 0)
(-130.595 0 0)
(-130.96 0 0)
(-131.326 0 0)
(-131.691 0 0)
(-132.056 0 0)
(-132.421 0 0)
(-132.787 0 0)
(-133.152 0 0)
(-133.518 0 0)
(-133.884 0 0)
(-134.25 0 0)
(-134.616 0 0)
(-134.982 0 0)
(-135.348 0 0)
(-135.714 0 0)
(-136.08 0 0)
(-136.447 0 0)
(-136.813 0 0)
(-137.179 0 0)
(-137.545 0 0)
(-137.911 0 0)
(-138.277 0 0)
(-138.642 0 0)
(-139.007 0 0)
(-139.373 0 0)
(-139.738 0 0)
(-140.103 0 0)
(-140.468 0 0)
(-140.834 0 0)
(-141.2 0 0)
(-141.566 0 0)
(-141.932 0 0)
(-142.298 0 0)
(-142.664 0 0)
(-143.03 0 0)
(-143.396 0 0)
(-143.762 0 0)
(-144.128 0 0)
(-144.494 0 0)
(-144.86 0 0)
(-145.226 0 0)
(-145.592 0 0)
(-145.958 0 0)
(-146.323 0 0)
(-146.689 0 0)
(-147.054 0 0)
(-147.42 0 0)
(-147.785 0 0)
(-148.151 0 0)
(-148.516 0 0)
(-148.882 0 0)
(-149.248 0 0)
(-149.613 0 0)
(-149.979 0 0)
(-150.345 0 0)
(-150.711 0 0)
(-151.077 0 0)
(-151.443 0 0)
(-151.809 0 0)
(-152.176 0 0)
(-152.542 0 0)
(-152.908 0 0)
(-153.273 0 0)
(-153.639 0 0)
(-154.005 0 0)
(-154.37 0 0)
(-154.736 0 0)
(-155.101 0 0)
(-155.467 0 0)
(-155.833 0 0)
(-156.198 0 0)
(-156.564 0 0)
(-156.93 0 0)
(-157.295 0 0)
(-157.661 0 0)
(-158.027 0 0)
(-158.393 0 0)
(-158.759 0 0)
(-159.125 0 0)
(-159.491 0 0)
(-159.857 0 0)
(-160.223 0 0)
(-160.589 0 0)
(-160.955 0 0)
(-161.32 0 0)
(-161.686 0 0)
(-162.051 0 0)
(-162.417 0 0)
(-162.783 0 0)
(-163.148 0 0)
(-163.514 0 0)
(-163.88 0 0)
(-164.246 0 0)
(-164.611 0 0)
(-164.977 0 0)
(-165.343 0 0)
(-165.709 0 0)
(-166.075 0 0)
(-166.441 0 0)
(-166.807 0 0)
(-167.173 0 0)
(-167.539 0 0)
(-167.905 0 0)
(-168.27 0 0)
(-168.636 0 0)
(-169.001 0 0)
(-169.367 0 0)
(-169.733 0 0)
(-170.098 0 0)
(-170.464 0 0)
(-170.83 0 0)
(-171.196 0 0)
(-171.561 0 0)
(-171.927 0 0)
(-172.293 0 0)
(-172.659 0 0)
(-173.025 0 0)
(-173.391 0 0)
(-173.757 0 0)
(-174.123 0 0)
(-174.489 0 0)
(-174.855 0 0)
(-175.221 0 0)
(-175.587 0 0)
(-175.952 0 0)
(-176.318 0 0)
(-176.683 0 0)
(-177.049 0 0)
(-177.414 0 0)
(-177.78 0 0)
(-178.146 0 0)
(-178.511 0 0)
(-178.877 0 0)
(-179.243 0 0)
(-179.609 0 0)
(-179.975 0 0)
(-180.341 0 0)
(-180.707 0 0)
(-181.073 0 0)
(-181.439 0 0)
(-181.806 0 0)
(-182.171 0 0)
(-182.537 0 0)
(-182.903 0 0)
(-183.269 0 0)
(-183.634 0 0)
(-184 0 0)
(-184.365 0 0)
(-184.731 0 0)
(-185.097 0 0)
(-185.462 0 0)
(-185.828 0 0)
(-186.194 0 0)
(-186.559 0 0)
(-186.925 0 0)
(-187.291 0 0)
(-187.657 0 0)
(-188.023 0 0)
(-188.389 0 0)
(-188.755 0 0)
(-189.121 0 0)
(-189.488 0 0)
(-189.854 0 0)
(-190.22 0 0)
(-190.585 0 0)
(-190.951 0 0)
(-191.317 0 0)
(-191.683 0 0)
(-192.048 0 0)
(-192.414 0 0)
(-192.78 0 0)
(-193.145 0 0)
(-193.511 0 0)
(-193.877 0 0)
(-194.242 0 0)
(-194.608 0 0)
(-194.974 0 0)
(-195.34 0 0)
(-195.706 0 0)
(-196.072 0 0)
(-196.438 0 0)
(-196.804 0 0)
(-197.17 0 0)
(-197.536 0 0)
(-197.902 0 0)
(-198.268 0 0)
(-198.634 0 0)
(-199 0 0)
(-199.366 0 0)
(-199.732 0 0)
(-200.097 0 0)
(-200.463 0 0)
(-200.829 0 0)
(-201.194 0 0)
(-201.56 0 0)
(-201.926 0 0)
(-202.291 0 0)
(-202.657 0 0)
(-203.023 0 0)
(-203.388 0 0)
(-203.755 0 0)
(-204.12 0 0)
(-204.487 0 0)
(-204.852 0 0)
(-205.22 0 0)
(-205.584 0 0)
(-205.952 0 0)
(-206.316 0 0)
(-206.685 0 0)
(-207.047 0 0)
(-207.417 0 0)
(-207.778 0 0)
(-208.15 0 0)
(-208.509 0 0)
(-208.882 0 0)
(-209.24 0 0)
(-209.614 0 0)
(-209.971 0 0)
(-210.345 0 0)
(-210.704 0 0)
(-211.074 0 0)
(-211.439 0 0)
(-211.804 0 0)
(-212.17 0 0)
(-212.537 0 0)
(-212.903 0 0)
(-213.269 0 0)
(-213.635 0 0)
(-214.001 0 0)
(-214.367 0 0)
(-214.732 0 0)
(-215.099 0 0)
(-215.464 0 0)
(-215.832 0 0)
(-216.193 0 0)
(-216.567 0 0)
(-216.922 0 0)
(-217.303 0 0)
(-217.65 0 0)
(-218.037 0 0)
(-218.379 0 0)
(-218.769 0 0)
(-219.113 0 0)
(-219.497 0 0)
(-219.853 0 0)
(-220.219 0 0)
(-220.594 0 0)
(-220.943 0 0)
(-221.335 0 0)
(-221.668 0 0)
(-222.069 0 0)
(-222.403 0 0)
(-222.793 0 0)
(-223.146 0 0)
(-223.51 0 0)
(-223.894 0 0)
(-224.23 0 0)
(-224.633 0 0)
(-224.959 0 0)
(-225.361 0 0)
(-225.703 0 0)
(-226.075 0 0)
(-226.455 0 0)
(-226.789 0 0)
(-227.199 0 0)
(-227.519 0 0)
(-227.922 0 0)
(-228.267 0 0)
(-228.632 0 0)
(-229.023 0 0)
(-229.346 0 0)
(-229.762 0 0)
(-230.084 0 0)
(-230.478 0 0)
(-230.841 0 0)
(-231.182 0 0)
(-231.594 0 0)
(-231.906 0 0)
(-232.318 0 0)
(-232.658 0 0)
(-233.021 0 0)
(-233.42 0 0)
(-233.733 0 0)
(-234.154 0 0)
(-234.48 0 0)
(-234.862 0 0)
(-235.245 0 0)
(-235.564 0 0)
(-235.991 0 0)
(-236.304 0 0)
(-236.697 0 0)
(-237.073 0 0)
(-237.396 0 0)
(-237.824 0 0)
(-238.129 0 0)
(-238.529 0 0)
(-238.901 0 0)
(-239.224 0 0)
(-239.655 0 0)
(-239.96 0 0)
(-240.358 0 0)
(-240.734 0 0)
(-241.051 0 0)
(-241.486 0 0)
(-241.792 0 0)
(-242.183 0 0)
(-242.569 0 0)
(-242.876 0 0)
(-243.316 0 0)
(-243.632 0 0)
(-244.006 0 0)
(-244.409 0 0)
(-244.706 0 0)
(-245.142 0 0)
(-245.472 0 0)
(-245.823 0 0)
(-246.249 0 0)
(-246.537 0 0)
(-246.962 0 0)
(-247.318 0 0)
(-247.639 0 0)
(-248.083 0 0)
(-248.378 0 0)
(-248.772 0 0)
(-249.165 0 0)
(-249.461 0 0)
(-249.906 0 0)
(-250.227 0 0)
(-250.58 0 0)
(-251.012 0 0)
(-251.294 0 0)
(-251.716 0 0)
(-252.085 0 0)
(-252.392 0 0)
(-252.843 0 0)
(-253.146 0 0)
(-253.519 0 0)
(-253.943 0 0)
(-254.222 0 0)
(-254.654 0 0)
(-255.01 0 0)
(-255.321 0 0)
(-255.778 0 0)
(-256.073 0 0)
(-256.446 0 0)
(-256.871 0 0)
(-257.148 0 0)
(-257.583 0 0)
(-257.944 0 0)
(-258.246 0 0)
(-258.705 0 0)
(-259.006 0 0)
(-259.372 0 0)
(-259.804 0 0)
(-260.079 0 0)
(-260.507 0 0)
(-260.879 0 0)
(-261.175 0 0)
(-261.632 0 0)
(-261.947 0 0)
(-262.292 0 0)
(-262.735 0 0)
(-263.017 0 0)
(-263.425 0 0)
(-263.824 0 0)
(-264.106 0 0)
(-264.551 0 0)
(-264.893 0 0)
(-265.21 0 0)
(-265.664 0 0)
(-265.963 0 0)
(-266.331 0 0)
(-266.764 0 0)
(-267.041 0 0)
(-267.457 0 0)
(-267.848 0 0)
(-268.132 0 0)
(-268.581 0 0)
(-268.924 0 0)
(-269.237 0 0)
(-269.695 0 0)
(-269.998 0 0)
(-270.353 0 0)
(-270.798 0 0)
(-271.075 0 0)
(-271.473 0 0)
(-271.889 0 0)
(-272.162 0 0)
(-272.597 0 0)
(-272.975 0 0)
(-273.259 0 0)
(-273.715 0 0)
(-274.052 0 0)
(-274.362 0 0)
(-274.826 0 0)
(-275.131 0 0)
(-275.473 0 0)
(-275.931 0 0)
(-276.212 0 0)
(-276.588 0 0)
(-277.03 0 0)
(-277.297 0 0)
(-277.704 0 0)
(-278.123 0 0)
(-278.386 0 0)
(-278.821 0 0)
(-279.213 0 0)
(-279.48 0 0)
(-279.936 0 0)
(-280.299 0 0)
(-280.577 0 0)
(-281.049 0 0)
(-281.385 0 0)
(-281.68 0 0)
(-282.16 0 0)
(-282.47 0 0)
(-282.785 0 0)
(-283.267 0 0)
(-283.555 0 0)
(-283.892 0 0)
(-284.372 0 0)
(-284.641 0 0)
(-285.001 0 0)
(-285.474 0 0)
(-285.73 0 0)
(-286.111 0 0)
(-286.573 0 0)
(-286.819 0 0)
(-287.22 0 0)
(-287.671 0 0)
(-287.912 0 0)
(-288.329 0 0)
(-288.768 0 0)
(-289.005 0 0)
(-289.437 0 0)
(-289.864 0 0)
(-290.101 0 0)
(-290.544 0 0)
(-290.961 0 0)
(-291.198 0 0)
(-291.65 0 0)
(-292.058 0 0)
(-292.296 0 0)
(-292.755 0 0)
(-293.155 0 0)
(-293.395 0 0)
(-293.858 0 0)
(-294.253 0 0)
(-294.494 0 0)
(-294.96 0 0)
(-295.351 0 0)
(-295.594 0 0)
(-296.061 0 0)
(-296.45 0 0)
(-296.694 0 0)
(-297.16 0 0)
(-297.55 0 0)
(-297.795 0 0)
(-298.258 0 0)
(-298.65 0 0)
(-298.896 0 0)
(-299.355 0 0)
(-299.752 0 0)
(-299.999 0 0)
(-300.452 0 0)
(-300.855 0 0)
(-301.102 0 0)
(-301.547 0 0)
(-301.958 0 0)
(-302.205 0 0)
(-302.642 0 0)
(-303.062 0 0)
(-303.309 0 0)
(-303.736 0 0)
(-304.165 0 0)
(-304.413 0 0)
(-304.828 0 0)
(-305.269 0 0)
(-305.518 0 0)
(-305.919 0 0)
(-306.372 0 0)
(-306.625 0 0)
(-307.009 0 0)
(-307.474 0 0)
(-307.734 0 0)
(-308.099 0 0)
(-308.576 0 0)
(-308.846 0 0)
(-309.189 0 0)
(-309.676 0 0)
(-309.961 0 0)
(-310.279 0 0)
(-310.772 0 0)
(-311.078 0 0)
(-311.37 0 0)
(-311.864 0 0)
(-312.196 0 0)
(-312.465 0 0)
(-312.952 0 0)
(-313.315 0 0)
(-313.564 0 0)
(-314.034 0 0)
(-314.433 0 0)
(-314.668 0 0)
(-315.114 0 0)
(-315.548 0 0)
(-315.779 0 0)
(-316.191 0 0)
(-316.658 0 0)
(-316.897 0 0)
(-317.268 0 0)
(-317.76 0 0)
(-318.022 0 0)
(-318.349 0 0)
(-318.854 0 0)
(-319.15 0 0)
(-319.437 0 0)
(-319.94 0 0)
(-320.28 0 0)
(-320.532 0 0)
(-321.018 0 0)
(-321.406 0 0)
(-321.638 0 0)
(-322.09 0 0)
(-322.527 0 0)
(-322.754 0 0)
(-323.159 0 0)
(-323.637 0 0)
(-323.88 0 0)
(-324.231 0 0)
(-324.736 0 0)
(-325.013 0 0)
(-325.311 0 0)
(-325.821 0 0)
(-326.149 0 0)
(-326.402 0 0)
(-326.895 0 0)
(-327.283 0 0)
(-327.508 0 0)
(-327.961 0 0)
(-328.408 0 0)
(-328.63 0 0)
(-329.024 0 0)
(-329.518 0 0)
(-329.766 0 0)
(-330.092 0 0)
(-330.61 0 0)
(-330.911 0 0)
(-331.174 0 0)
(-331.682 0 0)
(-332.055 0 0)
(-332.276 0 0)
(-332.741 0 0)
(-333.187 0 0)
(-333.4 0 0)
(-333.796 0 0)
(-334.299 0 0)
(-334.544 0 0)
(-334.859 0 0)
(-335.386 0 0)
(-335.697 0 0)
(-335.942 0 0)
(-336.449 0 0)
(-336.845 0 0)
(-337.054 0 0)
(-337.499 0 0)
(-337.974 0 0)
(-338.193 0 0)
(-338.55 0 0)
(-339.073 0 0)
(-339.349 0 0)
(-339.621 0 0)
(-340.141 0 0)
(-340.507 0 0)
(-340.722 0 0)
(-341.19 0 0)
(-341.645 0 0)
(-341.857 0 0)
(-342.236 0 0)
(-342.751 0 0)
(-343.014 0 0)
(-343.301 0 0)
(-343.823 0 0)
(-344.175 0 0)
(-344.399 0 0)
(-344.87 0 0)
(-345.317 0 0)
(-345.534 0 0)
(-345.914 0 0)
(-346.424 0 0)
(-346.693 0 0)
(-346.978 0 0)
(-347.495 0 0)
(-347.856 0 0)
(-348.079 0 0)
(-348.54 0 0)
(-348.996 0 0)
(-349.218 0 0)
(-349.585 0 0)
(-350.097 0 0)
(-350.382 0 0)
(-350.656 0 0)
(-351.159 0 0)
(-351.543 0 0)
(-351.768 0 0)
(-352.2 0 0)
(-352.675 0 0)
(-352.917 0 0)
(-353.249 0 0)
(-353.764 0 0)
(-354.084 0 0)
(-354.332 0 0)
(-354.816 0 0)
(-355.237 0 0)
(-355.461 0 0)
(-355.855 0 0)
(-356.351 0 0)
(-356.624 0 0)
(-356.914 0 0)
(-357.419 0 0)
(-357.793 0 0)
(-358.02 0 0)
(-358.457 0 0)
(-358.931 0 0)
(-359.172 0 0)
(-359.502 0 0)
(-360.017 0 0)
(-360.346 0 0)
(-360.589 0 0)
(-361.06 0 0)
(-361.502 0 0)
(-361.73 0 0)
(-362.094 0 0)
(-362.606 0 0)
(-362.906 0 0)
(-363.162 0 0)
(-363.656 0 0)
(-364.073 0 0)
(-364.291 0 0)
(-364.685 0 0)
(-365.189 0 0)
(-365.467 0 0)
(-365.741 0 0)
(-366.245 0 0)
(-366.644 0 0)
(-366.861 0 0)
(-367.27 0 0)
(-367.772 0 0)
(-368.036 0 0)
(-368.319 0 0)
(-368.832 0 0)
(-369.219 0 0)
(-369.435 0 0)
(-369.853 0 0)
(-370.353 0 0)
(-370.613 0 0)
(-370.897 0 0)
(-371.413 0 0)
(-371.8 0 0)
(-372.013 0 0)
(-372.431 0 0)
(-372.933 0 0)
(-373.195 0 0)
(-373.475 0 0)
(-373.988 0 0)
(-374.384 0 0)
(-374.595 0 0)
(-375.003 0 0)
(-375.513 0 0)
(-375.782 0 0)
(-376.052 0 0)
(-376.559 0 0)
(-376.97 0 0)
(-377.184 0 0)
(-377.573 0 0)
(-378.089 0 0)
(-378.378 0 0)
(-378.631 0 0)
(-379.127 0 0)
(-379.559 0 0)
(-379.777 0 0)
(-380.142 0 0)
(-380.662 0 0)
(-380.977 0 0)
(-381.215 0 0)
(-381.688 0 0)
(-382.148 0 0)
(-382.377 0 0)
(-382.709 0 0)
(-383.23 0 0)
(-383.579 0 0)
(-383.804 0 0)
(-384.245 0 0)
(-384.731 0 0)
(-384.985 0 0)
(-385.279 0 0)
(-385.791 0 0)
(-386.181 0 0)
(-386.402 0 0)
(-386.803 0 0)
(-387.308 0 0)
(-387.598 0 0)
(-387.858 0 0)
(-388.345 0 0)
(-388.782 0 0)
(-389.01 0 0)
(-389.361 0 0)
(-389.877 0 0)
(-390.214 0 0)
(-390.449 0 0)
(-390.894 0 0)
(-391.373 0 0)
(-391.629 0 0)
(-391.927 0 0)
(-392.433 0 0)
(-392.827 0 0)
(-393.053 0 0)
(-393.443 0 0)
(-393.949 0 0)
(-394.254 0 0)
(-394.507 0 0)
(-394.978 0 0)
(-395.431 0 0)
(-395.673 0 0)
(-395.999 0 0)
(-396.509 0 0)
(-396.879 0 0)
(-397.108 0 0)
(-397.518 0 0)
(-398.018 0 0)
(-398.307 0 0)
(-398.571 0 0)
(-399.052 0 0)
(-399.494 0 0)
(-399.732 0 0)
(-400.066 0 0)
(-400.578 0 0)
(-400.943 0 0)
(-401.171 0 0)
(-401.586 0 0)
(-402.084 0 0)
(-402.374 0 0)
(-402.637 0 0)
(-403.114 0 0)
(-403.563 0 0)
(-403.804 0 0)
(-404.129 0 0)
(-404.639 0 0)
(-405.017 0 0)
(-405.246 0 0)
(-405.643 0 0)
(-406.147 0 0)
(-406.457 0 0)
(-406.707 0 0)
(-407.168 0 0)
(-407.635 0 0)
(-407.891 0 0)
(-408.192 0 0)
(-408.691 0 0)
(-409.1 0 0)
(-409.332 0 0)
(-409.695 0 0)
(-410.205 0 0)
(-410.55 0 0)
(-410.787 0 0)
(-411.212 0 0)
(-411.702 0 0)
(-411.992 0 0)
(-412.26 0 0)
(-412.733 0 0)
(-413.182 0 0)
(-413.434 0 0)
(-413.751 0 0)
(-414.25 0 0)
(-414.647 0 0)
(-414.883 0 0)
(-415.255 0 0)
(-415.759 0 0)
(-416.101 0 0)
(-416.345 0 0)
(-416.769 0 0)
(-417.255 0 0)
(-417.55 0 0)
(-417.82 0 0)
(-418.285 0 0)
(-418.737 0 0)
(-418.999 0 0)
(-419.309 0 0)
(-419.799 0 0)
(-420.209 0 0)
(-420.453 0 0)
(-420.808 0 0)
(-421.307 0 0)
(-421.671 0 0)
(-421.916 0 0)
(-422.314 0 0)
(-422.807 0 0)
(-423.129 0 0)
(-423.387 0 0)
(-423.825 0 0)
(-424.297 0 0)
(-424.586 0 0)
(-424.869 0 0)
(-425.335 0 0)
(-425.78 0 0)
(-426.044 0 0)
(-426.359 0 0)
(-426.844 0 0)
(-427.254 0 0)
(-427.506 0 0)
(-427.855 0 0)
(-428.349 0 0)
(-428.724 0 0)
(-428.974 0 0)
(-429.357 0 0)
(-429.848 0 0)
(-430.192 0 0)
(-430.448 0 0)
(-430.862 0 0)
(-431.342 0 0)
(-431.657 0 0)
(-431.928 0 0)
(-432.367 0 0)
(-432.831 0 0)
(-433.124 0 0)
(-433.413 0 0)
(-433.873 0 0)
(-434.316 0 0)
(-434.592 0 0)
(-434.904 0 0)
(-435.376 0 0)
(-435.797 0 0)
(-436.062 0 0)
(-436.397 0 0)
(-436.879 0 0)
(-437.276 0 0)
(-437.536 0 0)
(-437.893 0 0)
(-438.378 0 0)
(-438.754 0 0)
(-439.013 0 0)
(-439.392 0 0)
(-439.875 0 0)
(-440.231 0 0)
(-440.493 0 0)
(-440.891 0 0)
(-441.371 0 0)
(-441.708 0 0)
(-441.976 0 0)
(-442.391 0 0)
(-442.864 0 0)
(-443.187 0 0)
(-443.461 0 0)
(-443.89 0 0)
(-444.356 0 0)
(-444.666 0 0)
(-444.949 0 0)
(-445.389 0 0)
(-445.847 0 0)
(-446.147 0 0)
(-446.439 0 0)
(-446.887 0 0)
(-447.336 0 0)
(-447.63 0 0)
(-447.93 0 0)
(-448.385 0 0)
(-448.825 0 0)
(-449.113 0 0)
(-449.422 0 0)
(-449.881 0 0)
(-450.315 0 0)
(-450.6 0 0)
(-450.916 0 0)
(-451.378 0 0)
(-451.804 0 0)
(-452.087 0 0)
(-452.41 0 0)
(-452.873 0 0)
(-453.294 0 0)
(-453.576 0 0)
(-453.905 0 0)
(-454.369 0 0)
(-454.784 0 0)
(-455.067 0 0)
(-455.4 0 0)
(-455.864 0 0)
(-456.274 0 0)
(-456.558 0 0)
(-456.896 0 0)
(-457.359 0 0)
(-457.766 0 0)
(-458.05 0 0)
(-458.391 0 0)
(-458.853 0 0)
(-459.259 0 0)
(-459.544 0 0)
(-459.887 0 0)
(-460.348 0 0)
(-460.753 0 0)
(-461.04 0 0)
(-461.383 0 0)
(-461.843 0 0)
(-462.248 0 0)
(-462.536 0 0)
(-462.878 0 0)
(-463.337 0 0)
(-463.744 0 0)
(-464.033 0 0)
(-464.374 0 0)
(-464.832 0 0)
(-465.241 0 0)
(-465.532 0 0)
(-465.87 0 0)
(-466.326 0 0)
(-466.739 0 0)
(-467.032 0 0)
(-467.366 0 0)
(-467.819 0 0)
(-468.237 0 0)
(-468.535 0 0)
(-468.863 0 0)
(-469.313 0 0)
(-469.736 0 0)
(-470.038 0 0)
(-470.361 0 0)
(-470.805 0 0)
(-471.236 0 0)
(-471.543 0 0)
(-471.859 0 0)
(-472.298 0 0)
(-472.735 0 0)
(-473.05 0 0)
(-473.359 0 0)
(-473.791 0 0)
(-474.234 0 0)
(-474.558 0 0)
(-474.862 0 0)
(-475.283 0 0)
(-475.732 0 0)
(-476.067 0 0)
(-476.366 0 0)
(-476.776 0 0)
(-477.229 0 0)
(-477.577 0 0)
(-477.872 0 0)
(-478.27 0 0)
(-478.726 0 0)
(-479.086 0 0)
(-479.381 0 0)
(-479.765 0 0)
(-480.221 0 0)
(-480.596 0 0)
(-480.892 0 0)
(-481.263 0 0)
(-481.716 0 0)
(-482.105 0 0)
(-482.405 0 0)
(-482.762 0 0)
(-483.21 0 0)
(-483.612 0 0)
(-483.92 0 0)
(-484.264 0 0)
(-484.705 0 0)
(-485.118 0 0)
(-485.435 0 0)
(-485.769 0 0)
(-486.2 0 0)
(-486.624 0 0)
(-486.951 0 0)
(-487.276 0 0)
(-487.697 0 0)
(-488.128 0 0)
(-488.468 0 0)
(-488.786 0 0)
(-489.194 0 0)
(-489.632 0 0)
(-489.985 0 0)
(-490.298 0 0)
(-490.692 0 0)
(-491.134 0 0)
(-491.501 0 0)
(-491.813 0 0)
(-492.192 0 0)
(-492.635 0 0)
(-493.018 0 0)
(-493.331 0 0)
(-493.695 0 0)
(-494.134 0 0)
(-494.534 0 0)
(-494.852 0 0)
(-495.2 0 0)
(-495.633 0 0)
(-496.048 0 0)
(-496.376 0 0)
(-496.709 0 0)
(-497.131 0 0)
(-497.56 0 0)
(-497.901 0 0)
(-498.223 0 0)
(-498.629 0 0)
(-499.067 0 0)
(-499.427 0 0)
(-499.742 0 0)
(-500.129 0 0)
(-500.571 0 0)
(-500.952 0 0)
(-501.267 0 0)
(-501.633 0 0)
(-502.072 0 0)
(-502.473 0 0)
(-502.796 0 0)
(-503.142 0 0)
(-503.571 0 0)
(-503.99 0 0)
(-504.328 0 0)
(-504.659 0 0)
(-505.07 0 0)
(-505.502 0 0)
(-505.859 0 0)
(-506.182 0 0)
(-506.574 0 0)
(-507.01 0 0)
(-507.388 0 0)
(-507.711 0 0)
(-508.082 0 0)
(-508.514 0 0)
(-508.912 0 0)
(-509.244 0 0)
(-509.597 0 0)
(-510.019 0 0)
(-510.432 0 0)
(-510.777 0 0)
(-511.118 0 0)
(-511.525 0 0)
(-511.948 0 0)
(-512.309 0 0)
(-512.645 0 0)
(-513.035 0 0)
(-513.461 0 0)
(-513.84 0 0)
(-514.175 0 0)
(-514.549 0 0)
(-514.973 0 0)
(-515.369 0 0)
(-515.708 0 0)
(-516.067 0 0)
(-516.484 0 0)
(-516.894 0 0)
(-517.245 0 0)
(-517.591 0 0)
(-517.996 0 0)
(-518.417 0 0)
(-518.782 0 0)
(-519.12 0 0)
(-519.508 0 0)
(-519.935 0 0)
(-520.319 0 0)
(-520.656 0 0)
(-521.025 0 0)
(-521.449 0 0)
(-521.853 0 0)
(-522.198 0 0)
(-522.549 0 0)
(-522.961 0 0)
(-523.381 0 0)
(-523.742 0 0)
(-524.081 0 0)
(-524.474 0 0)
(-524.902 0 0)
(-525.285 0 0)
(-525.622 0 0)
(-525.992 0 0)
(-526.418 0 0)
(-526.823 0 0)
(-527.17 0 0)
(-527.521 0 0)
(-527.931 0 0)
(-528.353 0 0)
(-528.719 0 0)
(-529.059 0 0)
(-529.449 0 0)
(-529.876 0 0)
(-530.264 0 0)
(-530.606 0 0)
(-530.975 0 0)
(-531.394 0 0)
(-531.803 0 0)
(-532.157 0 0)
(-532.51 0 0)
(-532.914 0 0)
(-533.334 0 0)
(-533.708 0 0)
(-534.054 0 0)
(-534.439 0 0)
(-534.86 0 0)
(-535.253 0 0)
(-535.604 0 0)
(-535.971 0 0)
(-536.385 0 0)
(-536.794 0 0)
(-537.156 0 0)
(-537.512 0 0)
(-537.911 0 0)
(-538.33 0 0)
(-538.709 0 0)
(-539.06 0 0)
(-539.442 0 0)
(-539.861 0 0)
(-540.259 0 0)
(-540.614 0 0)
(-540.979 0 0)
(-541.39 0 0)
(-541.803 0 0)
(-542.172 0 0)
(-542.526 0 0)
(-542.92 0 0)
(-543.341 0 0)
(-543.73 0 0)
(-544.082 0 0)
(-544.456 0 0)
(-544.873 0 0)
(-545.282 0 0)
(-545.644 0 0)
(-546.002 0 0)
(-546.404 0 0)
(-546.825 0 0)
(-547.207 0 0)
(-547.559 0 0)
(-547.94 0 0)
(-548.362 0 0)
(-548.766 0 0)
(-549.125 0 0)
(-549.487 0 0)
(-549.895 0 0)
(-550.315 0 0)
(-550.693 0 0)
(-551.047 0 0)
(-551.433 0 0)
(-551.856 0 0)
(-552.257 0 0)
(-552.616 0 0)
(-552.983 0 0)
(-553.393 0 0)
(-553.811 0 0)
(-554.188 0 0)
(-554.545 0 0)
(-554.934 0 0)
(-555.356 0 0)
(-555.756 0 0)
(-556.117 0 0)
(-556.487 0 0)
(-556.898 0 0)
(-557.314 0 0)
(-557.692 0 0)
(-558.052 0 0)
(-558.444 0 0)
(-558.864 0 0)
(-559.262 0 0)
(-559.627 0 0)
(-560.001 0 0)
(-560.411 0 0)
(-560.825 0 0)
(-561.204 0 0)
(-561.569 0 0)
(-561.963 0 0)
(-562.38 0 0)
(-562.778 0 0)
(-563.145 0 0)
(-563.523 0 0)
(-563.934 0 0)
(-564.345 0 0)
(-564.725 0 0)
(-565.094 0 0)
(-565.49 0 0)
(-565.907 0 0)
(-566.304 0 0)
(-566.673 0 0)
(-567.054 0 0)
(-567.465 0 0)
(-567.877 0 0)
(-568.258 0 0)
(-568.628 0 0)
(-569.025 0 0)
(-569.444 0 0)
(-569.841 0 0)
(-570.212 0 0)
(-570.593 0 0)
(-571.005 0 0)
(-571.419 0 0)
(-571.802 0 0)
(-572.172 0 0)
(-572.568 0 0)
(-572.988 0 0)
(-573.391 0 0)
(-573.763 0 0)
(-574.142 0 0)
(-574.553 0 0)
(-574.971 0 0)
(-575.359 0 0)
(-575.729 0 0)
(-576.122 0 0)
(-576.541 0 0)
(-576.95 0 0)
(-577.327 0 0)
(-577.703 0 0)
(-578.11 0 0)
(-578.531 0 0)
(-578.926 0 0)
(-579.299 0 0)
(-579.688 0 0)
(-580.105 0 0)
(-580.518 0 0)
(-580.902 0 0)
(-581.278 0 0)
(-581.681 0 0)
(-582.101 0 0)
(-582.503 0 0)
(-582.881 0 0)
(-583.267 0 0)
(-583.68 0 0)
(-584.096 0 0)
(-584.487 0 0)
(-584.866 0 0)
(-585.264 0 0)
(-585.683 0 0)
(-586.09 0 0)
(-586.474 0 0)
(-586.859 0 0)
(-587.269 0 0)
(-587.686 0 0)
(-588.084 0 0)
(-588.465 0 0)
(-588.861 0 0)
(-589.278 0 0)
(-589.69 0 0)
(-590.079 0 0)
(-590.463 0 0)
(-590.87 0 0)
(-591.29 0 0)
(-591.693 0 0)
(-592.077 0 0)
(-592.47 0 0)
(-592.886 0 0)
(-593.303 0 0)
(-593.698 0 0)
(-594.081 0 0)
(-594.484 0 0)
(-594.906 0 0)
(-595.317 0 0)
(-595.705 0 0)
(-596.093 0 0)
(-596.506 0 0)
(-596.929 0 0)
(-597.332 0 0)
(-597.716 0 0)
(-598.112 0 0)
(-598.532 0 0)
(-598.953 0 0)
(-599.349 0 0)
(-599.734 0 0)
(-600.139 0 0)
(-600.563 0 0)
(-600.978 0 0)
(-601.37 0 0)
(-601.759 0 0)
(-602.172 0 0)
(-602.598 0 0)
(-603.006 0 0)
(-603.395 0 0)
(-603.792 0 0)
(-604.212 0 0)
(-604.634 0 0)
(-605.037 0 0)
(-605.427 0 0)
(-605.832 0 0)
(-606.255 0 0)
(-606.673 0 0)
(-607.071 0 0)
(-607.466 0 0)
(-607.879 0 0)
(-608.303 0 0)
(-608.715 0 0)
(-609.111 0 0)
(-609.512 0 0)
(-609.932 0 0)
(-610.354 0 0)
(-610.761 0 0)
(-611.157 0 0)
(-611.565 0 0)
(-611.989 0 0)
(-612.409 0 0)
(-612.811 0 0)
(-613.21 0 0)
(-613.626 0 0)
(-614.052 0 0)
(-614.467 0 0)
(-614.866 0 0)
(-615.27 0 0)
(-615.692 0 0)
(-616.118 0 0)
(-616.529 0 0)
(-616.928 0 0)
(-617.338 0 0)
(-617.764 0 0)
(-618.189 0 0)
(-618.596 0 0)
(-618.997 0 0)
(-619.412 0 0)
(-619.842 0 0)
(-620.265 0 0)
(-620.669 0 0)
(-621.072 0 0)
(-621.494 0 0)
(-621.925 0 0)
(-622.345 0 0)
(-622.748 0 0)
(-623.156 0 0)
(-623.582 0 0)
(-624.013 0 0)
(-624.43 0 0)
(-624.834 0 0)
(-625.246 0 0)
(-625.676 0 0)
(-626.106 0 0)
(-626.52 0 0)
(-626.926 0 0)
(-627.345 0 0)
(-627.777 0 0)
(-628.205 0 0)
(-628.617 0 0)
(-629.027 0 0)
(-629.45 0 0)
(-629.884 0 0)
(-630.31 0 0)
(-630.721 0 0)
(-631.134 0 0)
(-631.562 0 0)
(-631.997 0 0)
(-632.421 0 0)
(-632.833 0 0)
(-633.25 0 0)
(-633.682 0 0)
(-634.116 0 0)
(-634.538 0 0)
(-634.952 0 0)
(-635.373 0 0)
(-635.808 0 0)
(-636.242 0 0)
(-636.662 0 0)
(-637.078 0 0)
(-637.505 0 0)
(-637.942 0 0)
(-638.375 0 0)
(-638.794 0 0)
(-639.213 0 0)
(-639.644 0 0)
(-640.083 0 0)
(-640.515 0 0)
(-640.934 0 0)
(-641.356 0 0)
(-641.791 0 0)
(-642.232 0 0)
(-642.662 0 0)
(-643.082 0 0)
(-643.507 0 0)
(-643.946 0 0)
(-644.388 0 0)
(-644.818 0 0)
(-645.239 0 0)
(-645.667 0 0)
(-646.109 0 0)
(-646.551 0 0)
(-646.981 0 0)
(-647.404 0 0)
(-647.836 0 0)
(-648.28 0 0)
(-648.723 0 0)
(-649.153 0 0)
(-649.578 0 0)
(-650.013 0 0)
(-650.46 0 0)
(-650.903 0 0)
(-651.334 0 0)
(-651.762 0 0)
(-652.2 0 0)
(-652.648 0 0)
(-653.092 0 0)
(-653.524 0 0)
(-653.955 0 0)
(-654.396 0 0)
(-654.846 0 0)
(-655.29 0 0)
(-655.724 0 0)
(-656.158 0 0)
(-656.602 0 0)
(-657.053 0 0)
(-657.497 0 0)
(-657.932 0 0)
(-658.37 0 0)
(-658.818 0 0)
(-659.27 0 0)
(-659.714 0 0)
(-660.151 0 0)
(-660.593 0 0)
(-661.044 0 0)
(-661.497 0 0)
(-661.941 0 0)
(-662.38 0 0)
(-662.825 0 0)
(-663.28 0 0)
(-663.734 0 0)
(-664.179 0 0)
(-664.62 0 0)
(-665.068 0 0)
(-665.526 0 0)
(-665.982 0 0)
(-666.428 0 0)
(-666.87 0 0)
(-667.322 0 0)
(-667.783 0 0)
(-668.241 0 0)
(-668.688 0 0)
(-669.133 0 0)
(-669.587 0 0)
(-670.05 0 0)
(-670.511 0 0)
(-670.961 0 0)
(-671.407 0 0)
(-671.863 0 0)
(-672.329 0 0)
(-672.792 0 0)
(-673.244 0 0)
(-673.694 0 0)
(-674.152 0 0)
(-674.62 0 0)
(-675.085 0 0)
(-675.54 0 0)
(-675.993 0 0)
(-676.453 0 0)
(-676.923 0 0)
(-677.39 0 0)
(-677.848 0 0)
(-678.305 0 0)
(-678.768 0 0)
(-679.239 0 0)
(-679.707 0 0)
(-680.169 0 0)
(-680.629 0 0)
(-681.096 0 0)
(-681.568 0 0)
(-682.038 0 0)
(-682.503 0 0)
(-682.966 0 0)
(-683.437 0 0)
(-683.912 0 0)
(-684.383 0 0)
(-684.85 0 0)
(-685.317 0 0)
(-685.791 0 0)
(-686.269 0 0)
(-686.743 0 0)
(-687.211 0 0)
(-687.682 0 0)
(-688.16 0 0)
(-688.641 0 0)
(-689.118 0 0)
(-689.588 0 0)
(-690.061 0 0)
(-690.542 0 0)
(-691.028 0 0)
(-691.508 0 0)
(-691.98 0 0)
(-692.455 0 0)
(-692.939 0 0)
(-693.429 0 0)
(-693.913 0 0)
(-694.389 0 0)
(-694.866 0 0)
(-695.352 0 0)
(-695.845 0 0)
(-696.334 0 0)
(-696.814 0 0)
(-697.293 0 0)
(-697.782 0 0)
(-698.277 0 0)
(-698.77 0 0)
(-699.255 0 0)
(-699.738 0 0)
(-700.229 0 0)
(-700.726 0 0)
(-701.222 0 0)
(-701.712 0 0)
(-702.2 0 0)
(-702.694 0 0)
(-703.193 0 0)
(-703.692 0 0)
(-704.187 0 0)
(-704.68 0 0)
(-705.177 0 0)
(-705.679 0 0)
(-706.181 0 0)
(-706.679 0 0)
(-707.176 0 0)
(-707.678 0 0)
(-708.184 0 0)
(-708.689 0 0)
(-709.19 0 0)
(-709.691 0 0)
(-710.198 0 0)
(-710.708 0 0)
(-711.217 0 0)
(-711.721 0 0)
(-712.225 0 0)
(-712.736 0 0)
(-713.252 0 0)
(-713.765 0 0)
(-714.273 0 0)
(-714.78 0 0)
(-715.294 0 0)
(-715.815 0 0)
(-716.334 0 0)
(-716.847 0 0)
(-717.357 0 0)
(-717.874 0 0)
(-718.398 0 0)
(-718.923 0 0)
(-719.442 0 0)
(-719.956 0 0)
(-720.476 0 0)
(-721.003 0 0)
(-721.533 0 0)
(-722.059 0 0)
(-722.579 0 0)
(-723.101 0 0)
(-723.631 0 0)
(-724.166 0 0)
(-724.697 0 0)
(-725.224 0 0)
(-725.751 0 0)
(-726.284 0 0)
(-726.822 0 0)
(-727.359 0 0)
(-727.892 0 0)
(-728.424 0 0)
(-728.962 0 0)
(-729.504 0 0)
(-730.045 0 0)
(-730.584 0 0)
(-731.123 0 0)
(-731.665 0 0)
(-732.212 0 0)
(-732.758 0 0)
(-733.302 0 0)
(-733.847 0 0)
(-734.395 0 0)
(-734.947 0 0)
(-735.498 0 0)
(-736.047 0 0)
(-736.597 0 0)
(-737.152 0 0)
(-737.71 0 0)
(-738.267 0 0)
(-738.821 0 0)
(-739.376 0 0)
(-739.936 0 0)
(-740.501 0 0)
(-741.065 0 0)
(-741.626 0 0)
(-742.185 0 0)
(-742.75 0 0)
(-743.321 0 0)
(-743.893 0 0)
(-744.461 0 0)
(-745.026 0 0)
(-745.595 0 0)
(-746.172 0 0)
(-746.751 0 0)
(-747.328 0 0)
(-747.9 0 0)
(-748.474 0 0)
(-749.055 0 0)
(-749.64 0 0)
(-750.225 0 0)
(-750.805 0 0)
(-751.385 0 0)
(-751.969 0 0)
(-752.56 0 0)
(-753.151 0 0)
(-753.738 0 0)
(-754.323 0 0)
(-754.912 0 0)
(-755.505 0 0)
(-756.101 0 0)
(-756.6 0 0)
(-757.054 0 0)
(-757.399 0 0)
(-757.928 0 0)
(-758.485 0 0)
(-759.145 0 0)
(-759.871 0 0)
(-760.529 0 0)
(-761.181 0 0)
(-761.84 0 0)
(-762.477 0 0)
(-763.113 0 0)
(-763.744 0 0)
(-764.37 0 0)
(-764.997 0 0)
(-765.622 0 0)
(-766.243 0 0)
(-766.864 0 0)
(-767.488 0 0)
(-768.112 0 0)
(-768.738 0 0)
(-769.363 0 0)
(-769.984 0 0)
(-770.61 0 0)
(-771.241 0 0)
(-771.873 0 0)
(-772.503 0 0)
(-773.13 0 0)
(-773.761 0 0)
(-774.399 0 0)
(-775.04 0 0)
(-775.681 0 0)
(-776.32 0 0)
(-776.959 0 0)
(-777.603 0 0)
(-778.252 0 0)
(-778.901 0 0)
(-779.549 0 0)
(-780.196 0 0)
(-780.848 0 0)
(-781.505 0 0)
(-782.164 0 0)
(-782.823 0 0)
(-783.48 0 0)
(-784.14 0 0)
(-784.804 0 0)
(-785.472 0 0)
(-786.14 0 0)
(-786.809 0 0)
(-787.478 0 0)
(-788.151 0 0)
(-788.828 0 0)