/*--------------------------------*- C++ -*----------------------------------*\
  =========                 |
  \\      /  F ield         | OpenFOAM: The Open Source CFD Toolbox
   \\    /   O peration     | Website:  https://openfoam.org
    \\  /    A nd           | Version:  9
     \\/     M anipulation  |
\*---------------------------------------------------------------------------*/
FoamFile
{
    format      ascii;
    class       volScalarField;
    location    "0.041";
    object      ddt0(rho);
}
// * * * * * * * * * * * * * * * * * * * * * * * * * * * * * * * * * * * * * //

dimensions      [1 -3 -1 0 0 0 0];

internalField   nonuniform List<scalar> 
10000
(
-6.15294
-6.1528
-6.15259
-6.15238
-6.15217
-6.15197
-6.15177
-6.15156
-6.15135
-6.15115
-6.15095
-6.15076
-6.15055
-6.15034
-6.15013
-6.14995
-6.14976
-6.14955
-6.14933
-6.14913
-6.14895
-6.14877
-6.14855
-6.14832
-6.1481
-6.14792
-6.14776
-6.14756
-6.14732
-6.14708
-6.14688
-6.14673
-6.14658
-6.14637
-6.14611
-6.14586
-6.14567
-6.14554
-6.14541
-6.14521
-6.14493
-6.14465
-6.14444
-6.14432
-6.14422
-6.14406
-6.14379
-6.14347
-6.1432
-6.14303
-6.14296
-6.14289
-6.14272
-6.14242
-6.14206
-6.14176
-6.1416
-6.14156
-6.14154
-6.14142
-6.14113
-6.14074
-6.14037
-6.14013
-6.14007
-6.1401
-6.1401
-6.13993
-6.13958
-6.13912
-6.13871
-6.13847
-6.13844
-6.13854
-6.13861
-6.13851
-6.13818
-6.13768
-6.13717
-6.1368
-6.13667
-6.13676
-6.13695
-6.13706
-6.13694
-6.13656
-6.13598
-6.13537
-6.13492
-6.13474
-6.13484
-6.1351
-6.13536
-6.13543
-6.1352
-6.13468
-6.13399
-6.1333
-6.13281
-6.13263
-6.13276
-6.13311
-6.1335
-6.13374
-6.13368
-6.13328
-6.13259
-6.13176
-6.13099
-6.13046
-6.13027
-6.13044
-6.13087
-6.1314
-6.13184
-6.13202
-6.13184
-6.13129
-6.13046
-6.1295
-6.12861
-6.12795
-6.12764
-6.12772
-6.12813
-6.12877
-6.12944
-6.12999
-6.13025
-6.13014
-6.12963
-6.12879
-6.12773
-6.12663
-6.12563
-6.12491
-6.12455
-6.12459
-6.12501
-6.12571
-6.12657
-6.12742
-6.12813
-6.12855
-6.1286
-6.12825
-6.12752
-6.12648
-6.12525
-6.12396
-6.12275
-6.12174
-6.12102
-6.12067
-6.12072
-6.12114
-6.12189
-6.12287
-6.12398
-6.12511
-6.12615
-6.12699
-6.12755
-6.12778
-6.12763
-6.12711
-6.12625
-6.1251
-6.12372
-6.1222
-6.1206
-6.11902
-6.11755
-6.11625
-6.11519
-6.11441
-6.11396
-6.11384
-6.11408
-6.11466
-6.11557
-6.11678
-6.11826
-6.11996
-6.12184
-6.12386
-6.12598
-6.12818
-6.13039
-6.13256
-6.13465
-6.13663
-6.13846
-6.14008
-6.14149
-6.14266
-6.14357
-6.14423
-6.14466
-6.14487
-6.14494
-6.14491
-6.14491
-6.14496
-6.14511
-6.14576
-6.14789
-6.15015
-6.15027
-6.15044
-6.15051
-6.15056
-6.1506
-6.15061
-6.15059
-6.15056
-6.15052
-6.15047
-6.15043
-6.15037
-6.15031
-6.15026
-6.15021
-6.15015
-6.15009
-6.15005
-6.15
-6.14995
-6.14989
-6.14983
-6.14978
-6.14974
-6.14969
-6.14965
-6.1496
-6.14956
-6.14951
-6.14947
-6.14942
-6.14938
-6.14934
-6.14929
-6.14924
-6.1492
-6.14916
-6.14912
-6.14907
-6.14902
-6.14898
-6.14893
-6.14888
-6.14883
-6.14879
-6.14875
-6.1487
-6.14866
-6.14861
-6.14857
-6.14853
-6.14848
-6.14843
-6.14839
-6.14834
-6.1483
-6.14826
-6.14821
-6.14817
-6.14812
-6.14807
-6.14802
-6.14798
-6.14793
-6.14789
-6.14784
-6.1478
-6.14775
-6.14771
-6.14766
-6.14761
-6.14757
-6.14752
-6.14748
-6.14743
-6.14739
-6.14734
-6.1473
-6.14725
-6.1472
-6.14715
-6.1471
-6.14706
-6.14701
-6.14696
-6.14692
-6.14688
-6.14683
-6.14678
-6.14674
-6.14669
-6.14664
-6.1466
-6.14655
-6.14651
-6.14646
-6.14641
-6.14637
-6.14632
-6.14627
-6.14622
-6.14617
-6.14612
-6.14608
-6.14603
-6.14598
-6.14594
-6.14589
-6.14585
-6.1458
-6.14575
-6.14571
-6.14566
-6.14562
-6.14557
-6.14552
-6.14548
-6.14543
-6.14538
-6.14533
-6.14528
-6.14523
-6.14518
-6.14513
-6.14508
-6.14504
-6.14499
-6.14494
-6.1449
-6.14485
-6.1448
-6.14476
-6.14471
-6.14466
-6.14462
-6.14457
-6.14452
-6.14447
-6.14442
-6.14437
-6.14432
-6.14427
-6.14422
-6.14417
-6.14412
-6.14408
-6.14403
-6.14398
-6.14393
-6.14388
-6.14384
-6.14379
-6.14374
-6.14369
-6.14365
-6.1436
-6.14355
-6.1435
-6.14345
-6.1434
-6.14335
-6.1433
-6.14325
-6.1432
-6.14315
-6.1431
-6.14305
-6.143
-6.14295
-6.14291
-6.14286
-6.14281
-6.14276
-6.14271
-6.14266
-6.14262
-6.14257
-6.14252
-6.14247
-6.14242
-6.14237
-6.14232
-6.14227
-6.14221
-6.14216
-6.14211
-6.14207
-6.14202
-6.14197
-6.14192
-6.14187
-6.14182
-6.14177
-6.14172
-6.14167
-6.14162
-6.14157
-6.14152
-6.14147
-6.14142
-6.14137
-6.14131
-6.14126
-6.14121
-6.14116
-6.14111
-6.14106
-6.14101
-6.14096
-6.14091
-6.14086
-6.14081
-6.14076
-6.14071
-6.14066
-6.14061
-6.14055
-6.1405
-6.14045
-6.1404
-6.14035
-6.1403
-6.14025
-6.1402
-6.14014
-6.14009
-6.14004
-6.13999
-6.13994
-6.13989
-6.13984
-6.13979
-6.13973
-6.13968
-6.13963
-6.13958
-6.13953
-6.13948
-6.13943
-6.13937
-6.13932
-6.13927
-6.13922
-6.13916
-6.13911
-6.13906
-6.13901
-6.13895
-6.1389
-6.13885
-6.1388
-6.13875
-6.13869
-6.13864
-6.13859
-6.13854
-6.13849
-6.13844
-6.13838
-6.13833
-6.13828
-6.13823
-6.13817
-6.13812
-6.13806
-6.13801
-6.13796
-6.1379
-6.13785
-6.1378
-6.13774
-6.13769
-6.13764
-6.13758
-6.13753
-6.13748
-6.13743
-6.13738
-6.13732
-6.13727
-6.13722
-6.13716
-6.13711
-6.13706
-6.137
-6.13695
-6.13689
-6.13684
-6.13678
-6.13673
-6.13667
-6.13662
-6.13656
-6.13651
-6.13646
-6.1364
-6.13635
-6.1363
-6.13625
-6.13619
-6.13614
-6.13609
-6.13603
-6.13598
-6.13592
-6.13587
-6.13581
-6.13576
-6.1357
-6.13564
-6.13559
-6.13553
-6.13548
-6.13542
-6.13537
-6.13531
-6.13527
-6.1352
-6.13516
-6.13508
-6.13507
-6.13496
-6.13497
-6.13483
-6.13489
-6.13469
-6.1348
-6.13455
-6.13473
-6.1344
-6.13465
-6.13426
-6.13455
-6.13415
-6.13442
-6.13409
-6.13422
-6.1341
-6.13401
-6.13399
-6.13395
-6.13386
-6.13381
-6.13378
-6.13371
-6.13365
-6.13359
-6.13356
-6.13345
-6.1335
-6.13324
-6.13351
-6.13298
-6.13356
-6.13272
-6.13357
-6.13253
-6.13345
-6.1325
-6.13316
-6.13267
-6.13268
-6.13296
-6.13218
-6.13319
-6.13182
-6.13315
-6.13181
-6.13274
-6.13218
-6.13204
-6.13266
-6.13141
-6.13288
-6.13121
-6.13256
-6.13159
-6.13174
-6.13225
-6.13093
-6.13258
-6.13071
-6.13217
-6.13128
-6.13114
-6.13208
-6.13033
-6.13225
-6.13043
-6.13146
-6.13131
-6.13028
-6.132
-6.12983
-6.13162
-6.13054
-6.13035
-6.13156
-6.12946
-6.13159
-6.12989
-6.1304
-6.13107
-6.12918
-6.13145
-6.12936
-6.13033
-6.13064
-6.12891
-6.13124
-6.12894
-6.13013
-6.13031
-6.12858
-6.13099
-6.12862
-6.12978
-6.13011
-6.12818
-6.13072
-6.12841
-6.12928
-6.13004
-6.12774
-6.13039
-6.12835
-6.12862
-6.13006
-6.12737
-6.12988
-6.12849
-6.12786
-6.13004
-6.12712
-6.12916
-6.12878
-6.12707
-6.12984
-6.12718
-6.12818
-6.12916
-6.12645
-6.12928
-6.1276
-6.12703
-6.12937
-6.12627
-6.12824
-6.12829
-6.12601
-6.12907
-6.12672
-6.12682
-6.12884
-6.12561
-6.12799
-6.12767
-6.12551
-6.12868
-6.12613
-6.12633
-6.12841
-6.12508
-6.12744
-6.1273
-6.12491
-6.12816
-6.12579
-6.12566
-6.12798
-6.12468
-6.12674
-6.12697
-6.12439
-6.12749
-6.12562
-6.12488
-6.12752
-6.12446
-6.12577
-6.12687
-6.12388
-6.12658
-6.12573
-6.12394
-6.12696
-6.12454
-6.1245
-6.12678
-6.12362
-6.12526
-6.12608
-6.12315
-6.12592
-6.12508
-6.12315
-6.12626
-6.12402
-6.12354
-6.1262
-6.12311
-6.12411
-6.12576
-6.12247
-6.12471
-6.12505
-6.12216
-6.12517
-6.12417
-6.12215
-6.12542
-6.12328
-6.12236
-6.12543
-6.12247
-6.1227
-6.12521
-6.12179
-6.12309
-6.12481
-6.12125
-6.12347
-6.12429
-6.12087
-6.12381
-6.12367
-6.12063
-6.12407
-6.123
-6.12052
-6.12425
-6.12232
-6.12051
-6.12432
-6.12164
-6.12057
-6.12428
-6.12101
-6.1207
-6.12416
-6.12043
-6.12083
-6.12395
-6.11993
-6.12096
-6.12369
-6.11949
-6.12107
-6.12339
-6.11911
-6.12114
-6.12308
-6.11877
-6.12118
-6.12277
-6.11848
-6.12116
-6.12247
-6.11822
-6.12111
-6.12217
-6.11798
-6.12102
-6.12189
-6.11776
-6.12088
-6.12164
-6.11757
-6.1207
-6.1214
-6.11739
-6.12048
-6.12119
-6.11723
-6.12022
-6.121
-6.11707
-6.11992
-6.12084
-6.11693
-6.11959
-6.12071
-6.11681
-6.11922
-6.12058
-6.1167
-6.11883
-6.12046
-6.1166
-6.11841
-6.12035
-6.11653
-6.11795
-6.12025
-6.11649
-6.11746
-6.12012
-6.11651
-6.11694
-6.11997
-6.11657
-6.1164
-6.11977
-6.11671
-6.11585
-6.11951
-6.11692
-6.1153
-6.11915
-6.11721
-6.11481
-6.11866
-6.11755
-6.11441
-6.11802
-6.11789
-6.11415
-6.11726
-6.1182
-6.11407
-6.11639
-6.11841
-6.11418
-6.11545
-6.11845
-6.11451
-6.11452
-6.11827
-6.11501
-6.11369
-6.11782
-6.11561
-6.11305
-6.1171
-6.11624
-6.11267
-6.11616
-6.11677
-6.11259
-6.11506
-6.11712
-6.11283
-6.11389
-6.11717
-6.11337
-6.1128
-6.11685
-6.11411
-6.11194
-6.11614
-6.11493
-6.11142
-6.11508
-6.11565
-6.11134
-6.11378
-6.1161
-6.11173
-6.11241
-6.11611
-6.11253
-6.11119
-6.11557
-6.11357
-6.11038
-6.11446
-6.11458
-6.11018
-6.11296
-6.11524
-6.11063
-6.11135
-6.11529
-6.11163
-6.11
-6.11458
-6.11289
-6.10924
-6.11321
-6.11398
-6.10929
-6.11144
-6.1145
-6.11014
-6.10973
-6.11416
-6.11148
-6.10859
-6.11293
-6.11282
-6.10836
-6.11113
-6.11361
-6.10906
-6.10928
-6.11346
-6.1104
-6.10798
-6.11232
-6.11182
-6.10764
-6.11049
-6.11269
-6.10832
-6.10858
-6.11257
-6.10971
-6.10724
-6.11138
-6.11115
-6.10695
-6.1095
-6.11193
-6.10776
-6.10763
-6.11161
-6.10923
-6.10648
-6.11018
-6.11061
-6.10649
-6.10819
-6.11115
-6.10756
-6.10642
-6.11048
-6.10908
-6.10563
-6.10877
-6.11021
-6.10612
-6.10673
-6.11024
-6.10755
-6.10528
-6.10897
-6.1091
-6.10509
-6.10691
-6.10978
-6.1062
-6.10504
-6.10901
-6.10788
-6.10432
-6.10705
-6.10902
-6.1051
-6.10487
-6.10875
-6.10681
-6.10366
-6.107
-6.10827
-6.1041
-6.10468
-6.10833
-6.10582
-6.10315
-6.10673
-6.10753
-6.10331
-6.10431
-6.10788
-6.10497
-6.10257
-6.10637
-6.10683
-6.10263
-6.10384
-6.10732
-6.10434
-6.10195
-6.10583
-6.10627
-6.10199
-6.10323
-6.10674
-6.10381
-6.10135
-6.10511
-6.10579
-6.1015
-6.10244
-6.10613
-6.10343
-6.10069
-6.10428
-6.10534
-6.10114
-6.10155
-6.10539
-6.10321
-6.10005
-6.1033
-6.10492
-6.10086
-6.10063
-6.10454
-6.10307
-6.09952
-6.10215
-6.10448
-6.10074
-6.09966
-6.10356
-6.10296
-6.09912
-6.1009
-6.10388
-6.1008
-6.09874
-6.10237
-6.10286
-6.09889
-6.09961
-6.10308
-6.10095
-6.09802
-6.10097
-6.10265
-6.09891
-6.09834
-6.10203
-6.10113
-6.09757
-6.09943
-6.10217
-6.09918
-6.09724
-6.10066
-6.10123
-6.09745
-6.09788
-6.10129
-6.09958
-6.09649
-6.09898
-6.10106
-6.0977
-6.09648
-6.09997
-6.09993
-6.09624
-6.09718
-6.10039
-6.09827
-6.09548
-6.09821
-6.09997
-6.09656
-6.09553
-6.09904
-6.09886
-6.09518
-6.09619
-6.09935
-6.09728
-6.09448
-6.09706
-6.09898
-6.09566
-6.09441
-6.09784
-6.09797
-6.09433
-6.09489
-6.09818
-6.09659
-6.09348
-6.09563
-6.09797
-6.09505
-6.09321
-6.09632
-6.09723
-6.09369
-6.0934
-6.09678
-6.09607
-6.09268
-6.09391
-6.0968
-6.09472
-6.09208
-6.09452
-6.09639
-6.09336
-6.09194
-6.09501
-6.09559
-6.09218
-6.0921
-6.09528
-6.09449
-6.09129
-6.09248
-6.09522
-6.09329
-6.09071
-6.09292
-6.09482
-6.09207
-6.09047
-6.09327
-6.09415
-6.09097
-6.09046
-6.09349
-6.09324
-6.09008
-6.09063
-6.09347
-6.09222
-6.08938
-6.09088
-6.09323
-6.09115
-6.08892
-6.09111
-6.09278
-6.09011
-6.08865
-6.09129
-6.09213
-6.08918
-6.08853
-6.09135
-6.09137
-6.08834
-6.08852
-6.09127
-6.09052
-6.08766
-6.08855
-6.09106
-6.08962
-6.08711
-6.08861
-6.0907
-6.08874
-6.08666
-6.08864
-6.09023
-6.08788
-6.08634
-6.08861
-6.08968
-6.08707
-6.08607
-6.08854
-6.08905
-6.08633
-6.08585
-6.08839
-6.08838
-6.08563
-6.08568
-6.08817
-6.08769
-6.08501
-6.08549
-6.0879
-6.08699
-6.08445
-6.08531
-6.08756
-6.08631
-6.08392
-6.08512
-6.08717
-6.08563
-6.08345
-6.08488
-6.08675
-6.08497
-6.08299
-6.08463
-6.08629
-6.08436
-6.08256
-6.08434
-6.0858
-6.08375
-6.08216
-6.08401
-6.08531
-6.08317
-6.08175
-6.08367
-6.08478
-6.08263
-6.08135
-6.08329
-6.08427
-6.08208
-6.08095
-6.08289
-6.08374
-6.08157
-6.08054
-6.08248
-6.08321
-6.08106
-6.08012
-6.08203
-6.08271
-6.08056
-6.0797
-6.08157
-6.08219
-6.08009
-6.07924
-6.08111
-6.08169
-6.07961
-6.07879
-6.08061
-6.0812
-6.07915
-6.07832
-6.0801
-6.08071
-6.0787
-6.07782
-6.07957
-6.08023
-6.07827
-6.07732
-6.07901
-6.07977
-6.07785
-6.07681
-6.07844
-6.07928
-6.07745
-6.07629
-6.07784
-6.0788
-6.07707
-6.07578
-6.0772
-6.07832
-6.0767
-6.07527
-6.07655
-6.0778
-6.07636
-6.07478
-6.07588
-6.07726
-6.07602
-6.07432
-6.07519
-6.07669
-6.07568
-6.07388
-6.0745
-6.07608
-6.07534
-6.07347
-6.07381
-6.07543
-6.07498
-6.07309
-6.07313
-6.07475
-6.07459
-6.07274
-6.07248
-6.07403
-6.07418
-6.07241
-6.07186
-6.07329
-6.07371
-6.07209
-6.07127
-6.07253
-6.0732
-6.07177
-6.07072
-6.07177
-6.07265
-6.07144
-6.0702
-6.07101
-6.07206
-6.07112
-6.06972
-6.07025
-6.07142
-6.07077
-6.06927
-6.06949
-6.07074
-6.0704
-6.06887
-6.06876
-6.07001
-6.07
-6.06849
-6.06805
-6.06923
-6.06956
-6.06816
-6.06738
-6.06841
-6.06906
-6.06786
-6.06677
-6.06755
-6.06848
-6.06757
-6.06624
-6.06667
-6.0678
-6.06728
-6.06581
-6.06583
-6.06702
-6.06694
-6.06546
-6.06503
-6.06615
-6.06649
-6.06518
-6.06434
-6.06523
-6.06594
-6.06492
-6.06378
-6.06429
-6.06525
-6.06463
-6.06332
-6.06341
-6.06444
-6.06426
-6.06295
-6.06261
-6.06355
-6.06378
-6.06263
-6.06192
-6.06264
-6.06318
-6.0623
-6.06134
-6.06174
-6.06247
-6.06193
-6.06084
-6.06089
-6.06168
-6.06149
-6.06039
-6.06009
-6.06083
-6.06098
-6.05998
-6.05936
-6.05995
-6.06038
-6.0596
-6.05871
-6.05904
-6.05969
-6.05921
-6.05816
-6.05813
-6.05889
-6.05878
-6.05771
-6.05729
-6.05797
-6.05826
-6.05734
-6.05654
-6.05699
-6.05759
-6.057
-6.05595
-6.056
-6.05676
-6.0566
-6.05551
-6.05509
-6.05578
-6.05607
-6.05517
-6.05435
-6.05473
-6.05534
-6.05482
-6.05379
-6.05374
-6.05443
-6.05436
-6.05336
-6.05288
-6.05342
-6.05374
-6.05298
-6.05217
-6.0524
-6.05293
-6.05255
-6.05162
-6.05145
-6.05201
-6.052
-6.05114
-6.05062
-6.05102
-6.05131
-6.05069
-6.04991
-6.05002
-6.05049
-6.05019
-6.04932
-6.04907
-6.04955
-6.04961
-6.04882
-6.04823
-6.04852
-6.04888
-6.04836
-6.04753
-6.04749
-6.04798
-6.04784
-6.04697
-6.04654
-6.04695
-6.04718
-6.04651
-6.04574
-6.04586
-6.04632
-6.04603
-6.04514
-6.04482
-6.04528
-6.04541
-6.04466
-6.04396
-6.04415
-6.04457
-6.04419
-6.04331
-6.04307
-6.04353
-6.04358
-6.04281
-6.04217
-6.04238
-6.04275
-6.04231
-6.04148
-6.04128
-6.0417
-6.04169
-6.04094
-6.04035
-6.04055
-6.04085
-6.04041
-6.03963
-6.03945
-6.0398
-6.03975
-6.03903
-6.0385
-6.03867
-6.03889
-6.03845
-6.03773
-6.03757
-6.03786
-6.03775
-6.03708
-6.03659
-6.03674
-6.03689
-6.03644
-6.03577
-6.03563
-6.03588
-6.03573
-6.03507
-6.03461
-6.03475
-6.03487
-6.03441
-6.03375
-6.0336
-6.03384
-6.0337
-6.03303
-6.03255
-6.03267
-6.03282
-6.03237
-6.03168
-6.03148
-6.03172
-6.03163
-6.03097
-6.03043
-6.03049
-6.03068
-6.0303
-6.02959
-6.0293
-6.0295
-6.02949
-6.0289
-6.02829
-6.02824
-6.02844
-6.02817
-6.02748
-6.02708
-6.0272
-6.02726
-6.02676
-6.02612
-6.02596
-6.02612
-6.02595
-6.02532
-6.02484
-6.02486
-6.02493
-6.02454
-6.0239
-6.02363
-6.02373
-6.02363
-6.02308
-6.02255
-6.02247
-6.02254
-6.02223
-6.02161
-6.02126
-6.0213
-6.02124
-6.02075
-6.02019
-6.02002
-6.02009
-6.01985
-6.01925
-6.01881
-6.0188
-6.0188
-6.01838
-6.01775
-6.01748
-6.01755
-6.01742
-6.01685
-6.01629
-6.01618
-6.01625
-6.01596
-6.01531
-6.01487
-6.01487
-6.01487
-6.01443
-6.01378
-6.01348
-6.01353
-6.01341
-6.01286
-6.01227
-6.0121
-6.01214
-6.01188
-6.01127
-6.01079
-6.01071
-6.01068
-6.0103
-6.00968
-6.00932
-6.00929
-6.00915
-6.00866
-6.0081
-6.00786
-6.00782
-6.00756
-6.00701
-6.00654
-6.00639
-6.0063
-6.00591
-6.00534
-6.00498
-6.00489
-6.00471
-6.00423
-6.00368
-6.00342
-6.00334
-6.00307
-6.00251
-6.00202
-6.00184
-6.00174
-6.00136
-6.00077
-6.00036
-6.00024
-6.00009
-5.99962
-5.99902
-5.99869
-5.9986
-5.99838
-5.99784
-5.99727
-5.99701
-5.99692
-5.99662
-5.99603
-5.9955
-5.9953
-5.99518
-5.9948
-5.99419
-5.99373
-5.99356
-5.99339
-5.99294
-5.99234
-5.99194
-5.99179
-5.99156
-5.99104
-5.99047
-5.99013
-5.98997
-5.98967
-5.98911
-5.98857
-5.98828
-5.98811
-5.98773
-5.98715
-5.98666
-5.9864
-5.98619
-5.98575
-5.98517
-5.98472
-5.98449
-5.98423
-5.98373
-5.98315
-5.98275
-5.98253
-5.98221
-5.98167
-5.9811
-5.98074
-5.98052
-5.98015
-5.97957
-5.97902
-5.9787
-5.97847
-5.97805
-5.97744
-5.97691
-5.97662
-5.97636
-5.9759
-5.97527
-5.97476
-5.97449
-5.9742
-5.9737
-5.97306
-5.97258
-5.97231
-5.972
-5.97146
-5.97082
-5.97036
-5.97008
-5.96974
-5.96917
-5.96854
-5.96809
-5.9678
-5.96742
-5.96684
-5.96622
-5.96578
-5.96547
-5.96505
-5.96446
-5.96386
-5.96343
-5.96309
-5.96263
-5.96202
-5.96145
-5.96103
-5.96066
-5.96016
-5.95954
-5.95898
-5.95857
-5.95818
-5.95764
-5.957
-5.95646
-5.95606
-5.95565
-5.95507
-5.95442
-5.95388
-5.95349
-5.95306
-5.95245
-5.95178
-5.95124
-5.95085
-5.95041
-5.94978
-5.94909
-5.94854
-5.94815
-5.9477
-5.94705
-5.94635
-5.94579
-5.94538
-5.94492
-5.94427
-5.94355
-5.94298
-5.94255
-5.94207
-5.94142
-5.9407
-5.94011
-5.93965
-5.93915
-5.9385
-5.93779
-5.93719
-5.9367
-5.93617
-5.9355
-5.9348
-5.9342
-5.93368
-5.93311
-5.93244
-5.93174
-5.93114
-5.9306
-5.93
-5.9293
-5.9286
-5.92801
-5.92746
-5.92683
-5.92609
-5.92538
-5.92479
-5.92423
-5.92359
-5.92282
-5.92208
-5.92148
-5.92093
-5.92027
-5.91948
-5.91871
-5.91808
-5.91753
-5.91688
-5.91608
-5.91527
-5.91461
-5.91404
-5.91339
-5.91259
-5.91176
-5.91106
-5.91046
-5.90981
-5.90902
-5.90818
-5.90744
-5.9068
-5.90613
-5.90534
-5.90451
-5.90374
-5.90306
-5.90236
-5.90156
-5.90073
-5.89995
-5.89924
-5.8985
-5.89768
-5.89685
-5.89607
-5.89533
-5.89456
-5.89371
-5.89286
-5.89207
-5.89133
-5.89053
-5.88965
-5.88876
-5.88796
-5.88721
-5.88641
-5.88551
-5.88457
-5.88373
-5.88297
-5.88218
-5.88126
-5.88029
-5.8794
-5.87862
-5.87782
-5.87691
-5.87591
-5.87497
-5.87414
-5.87334
-5.87243
-5.87143
-5.87044
-5.86956
-5.86873
-5.86782
-5.86682
-5.8658
-5.86487
-5.864
-5.86308
-5.86207
-5.86104
-5.86007
-5.85915
-5.8582
-5.85719
-5.85615
-5.85515
-5.85419
-5.8532
-5.85216
-5.8511
-5.85009
-5.8491
-5.84807
-5.84699
-5.84591
-5.84487
-5.84386
-5.84282
-5.8417
-5.84056
-5.83949
-5.83847
-5.83741
-5.83627
-5.83508
-5.83396
-5.8329
-5.83184
-5.83069
-5.82946
-5.82827
-5.82717
-5.82609
-5.82494
-5.82369
-5.82245
-5.82128
-5.82016
-5.81901
-5.81776
-5.81647
-5.81525
-5.81408
-5.81291
-5.81166
-5.81036
-5.80909
-5.80788
-5.80668
-5.80542
-5.8055
-5.80461
-5.80436
-5.80336
-5.80172
-5.79957
-5.79822
-5.7965
-5.79501
-5.79355
-5.79204
-5.79058
-5.78914
-5.78774
-5.78635
-5.78491
-5.78347
-5.78207
-5.78069
-5.77931
-5.77788
-5.7764
-5.77496
-5.77356
-5.77216
-5.7707
-5.76919
-5.76769
-5.76623
-5.76481
-5.76334
-5.7618
-5.76024
-5.75872
-5.75724
-5.75574
-5.75418
-5.75257
-5.75098
-5.74944
-5.7479
-5.74632
-5.74468
-5.74304
-5.74142
-5.73983
-5.73821
-5.73654
-5.73486
-5.73318
-5.73153
-5.72985
-5.72815
-5.72642
-5.7247
-5.72299
-5.72127
-5.71951
-5.71773
-5.71596
-5.7142
-5.71243
-5.71062
-5.70878
-5.70695
-5.70514
-5.70333
-5.70148
-5.69958
-5.69767
-5.6958
-5.69395
-5.69206
-5.69011
-5.68814
-5.68619
-5.68427
-5.68234
-5.68036
-5.67834
-5.67631
-5.67431
-5.67233
-5.67031
-5.66824
-5.66615
-5.66407
-5.66201
-5.65994
-5.65783
-5.65568
-5.65353
-5.65139
-5.64926
-5.64709
-5.64489
-5.64268
-5.64047
-5.63827
-5.63604
-5.63378
-5.6315
-5.62923
-5.62695
-5.62466
-5.62232
-5.61997
-5.61764
-5.6153
-5.61294
-5.61054
-5.60811
-5.60568
-5.60328
-5.60086
-5.59841
-5.5959
-5.59338
-5.59089
-5.58841
-5.5859
-5.58334
-5.58074
-5.57814
-5.57557
-5.57299
-5.57038
-5.56772
-5.56503
-5.56236
-5.55969
-5.55701
-5.55429
-5.55153
-5.54876
-5.546
-5.54324
-5.54045
-5.53762
-5.53477
-5.53192
-5.52907
-5.52619
-5.52327
-5.52035
-5.51742
-5.51447
-5.51151
-5.5085
-5.50548
-5.50246
-5.49944
-5.49639
-5.49331
-5.49019
-5.48706
-5.48394
-5.48082
-5.47766
-5.47445
-5.47122
-5.46799
-5.46477
-5.46153
-5.45825
-5.45492
-5.45158
-5.44824
-5.44491
-5.44155
-5.43814
-5.4347
-5.43125
-5.4278
-5.42435
-5.42085
-5.41732
-5.41377
-5.41021
-5.40664
-5.40305
-5.39943
-5.39578
-5.39212
-5.38844
-5.38474
-5.38102
-5.37726
-5.37349
-5.36971
-5.36591
-5.36208
-5.35821
-5.35433
-5.35044
-5.34654
-5.34261
-5.33864
-5.33464
-5.33063
-5.32662
-5.32259
-5.31852
-5.31441
-5.31028
-5.30614
-5.302
-5.29783
-5.29362
-5.28937
-5.28511
-5.28084
-5.27657
-5.27225
-5.2679
-5.26352
-5.25912
-5.25472
-5.2503
-5.24585
-5.24135
-5.23684
-5.23231
-5.22777
-5.22321
-5.2186
-5.21397
-5.20932
-5.20466
-5.19998
-5.19526
-5.19052
-5.18575
-5.18097
-5.17617
-5.17133
-5.16647
-5.16158
-5.15668
-5.15176
-5.14682
-5.14184
-5.13683
-5.1318
-5.12677
-5.12171
-5.11662
-5.1115
-5.10634
-5.10118
-5.09601
-5.09082
-5.08558
-5.08031
-5.07502
-5.06973
-5.06442
-5.05909
-5.05371
-5.0483
-5.04288
-5.03745
-5.032
-5.02653
-5.02101
-5.01547
-5.00992
-5.00436
-4.99877
-4.99316
-4.98752
-4.98185
-4.97618
-4.97048
-4.96476
-4.95902
-4.95325
-4.94747
-4.94167
-4.93585
-4.93
-4.92413
-4.91824
-4.91234
-4.90643
-4.90049
-4.89452
-4.88853
-4.88253
-4.87652
-4.8705
-4.86444
-4.85836
-4.85226
-4.84616
-4.84005
-4.83392
-4.82776
-4.82158
-4.81538
-4.80919
-4.80298
-4.79676
-4.7905
-4.78423
-4.77795
-4.77167
-4.76538
-4.75906
-4.75273
-4.74638
-4.74002
-4.73367
-4.7273
-4.72091
-4.71451
-4.7081
-4.70168
-4.69526
-4.68883
-4.68238
-4.67593
-4.66947
-4.66301
-4.65654
-4.65005
-4.64356
-4.63707
-4.63058
-4.62409
-4.61758
-4.61107
-4.60455
-4.59804
-4.59153
-4.58502
-4.5785
-4.57197
-4.56544
-4.55892
-4.55241
-4.5459
-4.53938
-4.53285
-4.52634
-4.51983
-4.51334
-4.50685
-4.50035
-4.49385
-4.48736
-4.48089
-4.47443
-4.46797
-4.46151
-4.45506
-4.44862
-4.4422
-4.43579
-4.42939
-4.423
-4.41661
-4.41024
-4.4039
-4.39756
-4.39124
-4.38492
-4.37863
-4.37236
-4.3661
-4.35985
-4.35363
-4.34742
-4.34124
-4.33508
-4.32893
-4.3228
-4.31669
-4.3106
-4.30455
-4.29853
-4.29252
-4.28652
-4.28055
-4.27461
-4.2687
-4.26283
-4.25697
-4.25114
-4.24533
-4.23955
-4.23381
-4.2281
-4.22242
-4.21677
-4.21114
-4.20554
-4.19999
-4.19447
-4.18898
-4.18352
-4.17809
-4.1727
-4.16735
-4.16203
-4.15675
-4.1515
-4.14629
-4.14112
-4.13598
-4.13088
-4.12582
-4.1208
-4.11582
-4.11088
-4.10598
-4.10111
-4.09628
-4.0915
-4.08676
-4.08207
-4.07742
-4.0728
-4.06822
-4.06368
-4.05919
-4.05476
-4.05036
-4.046
-4.04167
-4.0374
-4.03317
-4.02899
-4.02486
-4.02077
-4.01671
-4.01269
-4.00873
-4.00482
-4.00095
-3.99713
-3.99335
-3.98961
-3.98591
-3.98227
-3.97867
-3.97511
-3.9716
-3.96814
-3.96472
-3.96134
-3.95801
-3.95472
-3.95149
-3.9483
-3.94515
-3.94205
-3.93898
-3.93596
-3.93299
-3.93007
-3.9272
-3.92436
-3.92156
-3.9188
-3.91609
-3.91343
-3.91082
-3.90825
-3.90571
-3.90321
-3.90075
-3.89835
-3.89599
-3.89367
-3.89139
-3.88914
-3.88693
-3.88477
-3.88266
-3.88058
-3.87854
-3.87654
-3.87458
-3.87265
-3.87077
-3.86892
-3.86712
-3.86535
-3.86362
-3.86192
-3.86025
-3.85863
-3.85704
-3.85549
-3.85398
-3.8525
-3.85105
-3.84962
-3.84824
-3.84689
-3.84558
-3.84431
-3.84306
-3.84183
-3.84064
-3.83948
-3.83836
-3.83727
-3.83621
-3.83517
-3.83416
-3.83317
-3.83222
-3.83131
-3.83042
-3.82955
-3.82871
-3.82789
-3.8271
-3.82634
-3.8256
-3.82489
-3.8242
-3.82354
-3.8229
-3.82228
-3.82168
-3.82111
-3.82057
-3.82004
-3.81954
-3.81905
-3.81858
-3.81813
-3.81771
-3.81732
-3.81694
-3.81657
-3.81622
-3.81589
-3.81557
-3.81529
-3.81502
-3.81477
-3.81452
-3.81429
-3.81408
-3.81389
-3.81371
-3.81356
-3.81341
-3.81328
-3.81316
-3.81305
-3.81296
-3.81288
-3.81282
-3.81278
-3.81274
-3.81271
-3.81269
-3.81269
-3.8127
-3.81272
-3.81276
-3.8128
-3.81285
-3.81291
-3.81298
-3.81307
-3.81317
-3.81328
-3.81339
-3.81351
-3.81363
-3.81376
-3.81391
-3.81407
-3.81424
-3.81441
-3.81459
-3.81477
-3.81496
-3.81516
-3.81537
-3.81559
-3.81581
-3.81603
-3.81626
-3.81649
-3.81674
-3.81699
-3.81725
-3.81751
-3.81778
-3.81805
-3.81832
-3.8186
-3.81889
-3.81919
-3.81948
-3.81978
-3.82008
-3.82038
-3.82069
-3.82101
-3.82134
-3.82167
-3.82199
-3.82232
-3.82264
-3.82298
-3.82332
-3.82367
-3.82402
-3.82437
-3.82472
-3.82506
-3.82542
-3.82578
-3.82615
-3.82652
-3.82688
-3.82725
-3.82762
-3.82799
-3.82837
-3.82875
-3.82913
-3.82951
-3.82989
-3.83028
-3.83066
-3.83105
-3.83144
-3.83184
-3.83223
-3.83262
-3.83301
-3.83341
-3.83381
-3.83421
-3.83462
-3.83502
-3.83542
-3.83582
-3.83622
-3.83663
-3.83704
-3.83745
-3.83786
-3.83827
-3.83868
-3.83909
-3.8395
-3.83991
-3.84033
-3.84075
-3.84117
-3.84158
-3.84199
-3.84241
-3.84283
-3.84325
-3.84367
-3.84409
-3.84451
-3.84493
-3.84534
-3.84577
-3.84619
-3.84661
-3.84704
-3.84746
-3.84788
-3.84831
-3.84873
-3.84915
-3.84958
-3.85001
-3.85043
-3.85086
-3.85128
-3.85171
-3.85213
-3.85256
-3.853
-3.85342
-3.85385
-3.85427
-3.8547
-3.85513
-3.85556
-3.85599
-3.85642
-3.85685
-3.85727
-3.8577
-3.85813
-3.85856
-3.85899
-3.85942
-3.85985
-3.86028
-3.86071
-3.86114
-3.86157
-3.862
-3.86243
-3.86287
-3.8633
-3.86373
-3.86415
-3.86458
-3.86502
-3.86545
-3.86588
-3.86631
-3.86674
-3.86717
-3.8676
-3.86804
-3.86847
-3.8689
-3.86933
-3.86976
-3.8702
-3.87063
-3.87106
-3.87149
-3.87193
-3.87236
-3.87279
-3.87322
-3.87365
-3.87409
-3.87452
-3.87495
-3.87539
-3.87582
-3.87625
-3.87668
-3.87711
-3.87754
-3.87798
-3.87841
-3.87885
-3.87928
-3.87971
-3.88014
-3.88057
-3.88101
-3.88144
-3.88188
-3.88231
-3.88274
-3.88317
-3.8836
-3.88404
-3.88447
-3.88491
-3.88534
-3.88577
-3.88621
-3.88664
-3.88707
-3.8875
-3.88794
-3.88837
-3.88881
-3.88924
-3.88967
-3.89011
-3.89054
-3.89097
-3.89141
-3.89184
-3.89227
-3.89271
-3.89314
-3.89357
-3.89401
-3.89444
-3.89488
-3.89531
-3.89574
-3.89618
-3.89661
-3.89704
-3.89748
-3.89791
-3.89835
-3.89878
-3.89922
-3.89965
-3.90008
-3.90052
-3.90095
-3.90138
-3.90182
-3.90226
-3.90269
-3.90312
-3.90356
-3.90399
-3.90443
-3.90486
-3.9053
-3.90573
-3.90617
-3.9066
-3.90703
-3.90747
-3.9079
-3.90834
-3.90877
-3.90921
-3.90964
-3.91008
-3.91051
-3.91095
-3.91138
-3.91182
-3.91225
-3.91269
-3.91312
-3.91356
-3.91399
-3.91443
-3.91486
-3.9153
-3.91574
-3.91617
-3.91661
-3.91704
-3.91747
-3.91791
-3.91834
-3.91878
-3.91922
-3.91965
-3.92009
-3.92052
-3.92095
-3.92139
-3.92183
-3.92227
-3.9227
-3.92313
-3.92357
-3.924
-3.92444
-3.92488
-3.92531
-3.92575
-3.92619
-3.92662
-3.92706
-3.92749
-3.92793
-3.92836
-3.9288
-3.92924
-3.92968
-3.93011
-3.93054
-3.93098
-3.93141
-3.93185
-3.93229
-3.93273
-3.93317
-3.9336
-3.93403
-3.93447
-3.93491
-3.93534
-3.93578
-3.93622
-3.93665
-3.93709
-3.93752
-3.93796
-3.9384
-3.93884
-3.93927
-3.93971
-3.94015
-3.94058
-3.94102
-3.94145
-3.94189
-3.94233
-3.94277
-3.9432
-3.94364
-3.94407
-3.94451
-3.94495
-3.94538
-3.94583
-3.94626
-3.9467
-3.94714
-3.94757
-3.94801
-3.94844
-3.94888
-3.94932
-3.94976
-3.95019
-3.95063
-3.95107
-3.9515
-3.95194
-3.95238
-3.95282
-3.95325
-3.95369
-3.95413
-3.95456
-3.955
-3.95543
-3.95588
-3.95632
-3.95676
-3.95719
-3.95763
-3.95806
-3.9585
-3.95894
-3.95938
-3.95982
-3.96026
-3.96069
-3.96113
-3.96156
-3.962
-3.96244
-3.96288
-3.96332
-3.96376
-3.96419
-3.96463
-3.96506
-3.9655
-3.96594
-3.96638
-3.96682
-3.96726
-3.9677
-3.96813
-3.96857
-3.96901
-3.96945
-3.96989
-3.97033
-3.97077
-3.9712
-3.97164
-3.97207
-3.97251
-3.97295
-3.97339
-3.97383
-3.97427
-3.97471
-3.97514
-3.97558
-3.97602
-3.97646
-3.9769
-3.97734
-3.97778
-3.97822
-3.97865
-3.97909
-3.97953
-3.97997
-3.98041
-3.98085
-3.98129
-3.98173
-3.98217
-3.9826
-3.98304
-3.98348
-3.98393
-3.98437
-3.98481
-3.98524
-3.98568
-3.98612
-3.98656
-3.987
-3.98744
-3.98788
-3.98832
-3.98876
-3.9892
-3.98964
-3.99007
-3.99052
-3.99096
-3.9914
-3.99184
-3.99228
-3.99272
-3.99316
-3.9936
-3.99404
-3.99448
-3.99492
-3.99536
-3.9958
-3.99624
-3.99668
-3.99712
-3.99756
-3.998
-3.99845
-3.99889
-3.99933
-3.99976
-4.0002
-4.00065
-4.00109
-4.00153
-4.00197
-4.00242
-4.00285
-4.00329
-4.00373
-4.00418
-4.00462
-4.00506
-4.00551
-4.00595
-4.00639
-4.00683
-4.00727
-4.00771
-4.00815
-4.0086
-4.00904
-4.00948
-4.00992
-4.01036
-4.0108
-4.01125
-4.01169
-4.01214
-4.01258
-4.01302
-4.01346
-4.0139
-4.01435
-4.01479
-4.01523
-4.01568
-4.01612
-4.01657
-4.01701
-4.01745
-4.01789
-4.01834
-4.01878
-4.01923
-4.01967
-4.02011
-4.02056
-4.021
-4.02144
-4.02188
-4.02233
-4.02278
-4.02322
-4.02367
-4.02411
-4.02455
-4.02499
-4.02544
-4.02588
-4.02633
-4.02678
-4.02722
-4.02767
-4.02811
-4.02855
-4.029
-4.02944
-4.02989
-4.03033
-4.03078
-4.03122
-4.03167
-4.03211
-4.03256
-4.03301
-4.03345
-4.0339
-4.03434
-4.03479
-4.03523
-4.03568
-4.03613
-4.03657
-4.03702
-4.03747
-4.03791
-4.03836
-4.03881
-4.03925
-4.0397
-4.04014
-4.04059
-4.04104
-4.04149
-4.04193
-4.04238
-4.04283
-4.04327
-4.04372
-4.04417
-4.04462
-4.04506
-4.04551
-4.04596
-4.04641
-4.04685
-4.0473
-4.04775
-4.0482
-4.04864
-4.04909
-4.04954
-4.04999
-4.05044
-4.05088
-4.05133
-4.05178
-4.05223
-4.05268
-4.05313
-4.05358
-4.05402
-4.05447
-4.05492
-4.05537
-4.05582
-4.05627
-4.05672
-4.05717
-4.05762
-4.05807
-4.05852
-4.05896
-4.05941
-4.05986
-4.06031
-4.06076
-4.06121
-4.06166
-4.06211
-4.06256
-4.06301
-4.06346
-4.06391
-4.06436
-4.06481
-4.06526
-4.06571
-4.06616
-4.06661
-4.06706
-4.06752
-4.06796
-4.06842
-4.06887
-4.06932
-4.06977
-4.07022
-4.07067
-4.07112
-4.07157
-4.07202
-4.07247
-4.07292
-4.07338
-4.07383
-4.07428
-4.07473
-4.07518
-4.07563
-4.07608
-4.07654
-4.07699
-4.07744
-4.07789
-4.07835
-4.0788
-4.07925
-4.0797
-4.08015
-4.0806
-4.08106
-4.08151
-4.08196
-4.08242
-4.08286
-4.08332
-4.08377
-4.08422
-4.08468
-4.08513
-4.08558
-4.08603
-4.08649
-4.08694
-4.08739
-4.08784
-4.0883
-4.08875
-4.0892
-4.08966
-4.09011
-4.09056
-4.09101
-4.09147
-4.09192
-4.09237
-4.09283
-4.09328
-4.09374
-4.09419
-4.09464
-4.09509
-4.09555
-4.096
-4.09646
-4.09691
-4.09736
-4.09782
-4.09827
-4.09873
-4.09918
-4.09963
-4.10008
-4.10054
-4.10099
-4.10145
-4.1019
-4.10236
-4.10281
-4.10326
-4.10372
-4.10417
-4.10463
-4.10508
-4.10554
-4.10599
-4.10645
-4.1069
-4.10735
-4.10781
-4.10826
-4.10872
-4.10917
-4.10963
-4.11008
-4.11054
-4.11099
-4.11145
-4.1119
-4.11236
-4.11281
-4.11327
-4.11372
-4.11417
-4.11463
-4.11508
-4.11554
-4.11599
-4.11645
-4.1169
-4.11736
-4.11781
-4.11827
-4.11872
-4.11918
-4.11964
-4.12009
-4.12055
-4.121
-4.12146
-4.12191
-4.12237
-4.12282
-4.12328
-4.12373
-4.12419
-4.12464
-4.1251
-4.12556
-4.12601
-4.12647
-4.12692
-4.12738
-4.12783
-4.12829
-4.12874
-4.1292
-4.12966
-4.13011
-4.13057
-4.13102
-4.13148
-4.13193
-4.13239
-4.13284
-4.1333
-4.13376
-4.13421
-4.13467
-4.13512
-4.13558
-4.13603
-4.13649
-4.13695
-4.1374
-4.13786
-4.13832
-4.13877
-4.13923
-4.13968
-4.14014
-4.14059
-4.14105
-4.14151
-4.14196
-4.14242
-4.14287
-4.14333
-4.14379
-4.14424
-4.1447
-4.14515
-4.14561
-4.14607
-4.14652
-4.14698
-4.14743
-4.14789
-4.14835
-4.1488
-4.14926
-4.14972
-4.15017
-4.15063
-4.15108
-4.15154
-4.152
-4.15245
-4.15291
-4.15336
-4.15382
-4.15428
-4.15473
-4.15519
-4.15565
-4.1561
-4.15656
-4.15701
-4.15747
-4.15793
-4.15838