/*--------------------------------*- C++ -*----------------------------------*\
  =========                 |
  \\      /  F ield         | OpenFOAM: The Open Source CFD Toolbox
   \\    /   O peration     | Website:  https://openfoam.org
    \\  /    A nd           | Version:  9
     \\/     M anipulation  |
\*---------------------------------------------------------------------------*/
FoamFile
{
    format      ascii;
    class       volScalarField;
    location    "0.041";
    object      mag(U);
}
// * * * * * * * * * * * * * * * * * * * * * * * * * * * * * * * * * * * * * //

dimensions      [0 1 -1 0 0 0 0];

internalField   nonuniform List<scalar> 
10000
(
7.68406
7.71757
7.75793
7.79093
7.82013
7.8493
7.87919
7.90939
7.93955
7.96965
7.99972
8.0298
8.05988
8.08997
8.12006
8.15014
8.18023
8.21031
8.2404
8.27049
8.30057
8.33066
8.36075
8.39083
8.42092
8.45101
8.48109
8.51118
8.54127
8.57136
8.60145
8.63153
8.66162
8.69171
8.7218
8.75189
8.78198
8.81207
8.84215
8.87224
8.90233
8.93242
8.96251
8.9926
9.02269
9.05278
9.08287
9.11296
9.14305
9.17314
9.20323
9.23333
9.26342
9.29351
9.3236
9.35369
9.38378
9.41387
9.44397
9.47406
9.50415
9.53424
9.56433
9.59443
9.62452
9.65461
9.68471
9.7148
9.74489
9.77499
9.80508
9.83517
9.86527
9.89536
9.92546
9.95555
9.98564
10.0157
10.0458
10.0759
10.106
10.1361
10.1662
10.1963
10.2264
10.2565
10.2866
10.3167
10.3468
10.3769
10.407
10.4371
10.4672
10.4973
10.5274
10.5575
10.5876
10.6177
10.6478
10.6779
10.7079
10.738
10.7681
10.7982
10.8283
10.8584
10.8885
10.9186
10.9487
10.9788
11.0089
11.039
11.0691
11.0992
11.1293
11.1594
11.1895
11.2196
11.2497
11.2798
11.3099
11.34
11.3701
11.4002
11.4303
11.4604
11.4905
11.5206
11.5507
11.5808
11.6109
11.641
11.6711
11.7012
11.7313
11.7614
11.7916
11.8217
11.8518
11.8819
11.912
11.9421
11.9722
12.0023
12.0324
12.0625
12.0926
12.1227
12.1528
12.1829
12.213
12.2431
12.2732
12.3033
12.3334
12.3635
12.3936
12.4237
12.4538
12.4839
12.5141
12.5442
12.5743
12.6044
12.6345
12.6646
12.6947
12.7248
12.7549
12.785
12.8151
12.8452
12.8753
12.9054
12.9355
12.9656
12.9958
13.0259
13.056
13.0861
13.1162
13.1463
13.1764
13.2065
13.2366
13.2667
13.2968
13.327
13.3571
13.3872
13.4173
13.4474
13.4775
13.5076
13.5377
13.5678
13.5979
13.6281
13.6582
13.6883
13.7184
13.7485
13.7786
13.8087
13.8388
13.8689
13.899
13.9292
13.9593
13.9894
14.0195
14.0496
14.0797
14.1098
14.1399
14.1701
14.2002
14.2303
14.2604
14.2905
14.3206
14.3507
14.3808
14.411
14.4411
14.4712
14.5013
14.5314
14.5615
14.5916
14.6218
14.6519
14.682
14.7121
14.7422
14.7723
14.8024
14.8326
14.8627
14.8928
14.9229
14.953
14.9831
15.0132
15.0434
15.0735
15.1036
15.1337
15.1638
15.1939
15.2241
15.2542
15.2843
15.3144
15.3445
15.3746
15.4048
15.4349
15.465
15.4951
15.5252
15.5554
15.5855
15.6156
15.6457
15.6758
15.7059
15.7361
15.7662
15.7963
15.8264
15.8565
15.8867
15.9168
15.9469
15.977
16.0071
16.0372
16.0674
16.0975
16.1276
16.1577
16.1878
16.218
16.2481
16.2782
16.3083
16.3385
16.3686
16.3987
16.4288
16.4589
16.4891
16.5192
16.5493
16.5794
16.6095
16.6397
16.6698
16.6999
16.73
16.7602
16.7903
16.8204
16.8505
16.8806
16.9108
16.9409
16.971
17.0011
17.0313
17.0614
17.0915
17.1216
17.1517
17.1819
17.212
17.2421
17.2722
17.3024
17.3325
17.3626
17.3927
17.4229
17.453
17.4831
17.5132
17.5434
17.5735
17.6036
17.6337
17.6639
17.694
17.7241
17.7542
17.7844
17.8145
17.8446
17.8747
17.9049
17.935
17.9651
17.9953
18.0254
18.0555
18.0856
18.1158
18.1459
18.176
18.2061
18.2363
18.2664
18.2965
18.3267
18.3568
18.3869
18.417
18.4472
18.4773
18.5074
18.5375
18.5677
18.5978
18.6279
18.6581
18.6882
18.7183
18.7484
18.7786
18.8087
18.8388
18.869
18.8991
18.9292
18.9594
18.9895
19.0196
19.0497
19.0799
19.11
19.1401
19.1703
19.2004
19.2305
19.2607
19.2908
19.3209
19.3511
19.3812
19.4113
19.4414
19.4716
19.5017
19.5318
19.562
19.5921
19.6222
19.6524
19.6825
19.7126
19.7428
19.7729
19.803
19.8332
19.8633
19.8934
19.9236
19.9537
19.9838
20.014
20.0441
20.0742
20.1044
20.1345
20.1646
20.1948
20.2249
20.255
20.2852
20.3153
20.3454
20.3756
20.4057
20.4358
20.466
20.4961
20.5262
20.5564
20.5865
20.6166
20.6468
20.6769
20.707
20.7372
20.7673
20.7975
20.8276
20.8577
20.8879
20.918
20.9481
20.9783
21.0084
21.0385
21.0687
21.0988
21.1289
21.1591
21.1892
21.2194
21.2495
21.2796
21.3098
21.3399
21.37
21.4002
21.4303
21.4605
21.4906
21.5207
21.5509
21.581
21.6111
21.6413
21.6714
21.7016
21.7317
21.7618
21.792
21.8221
21.8522
21.8824
21.9125
21.9427
21.9728
22.0029
22.0331
22.0632
22.0934
22.1235
22.1536
22.1838
22.2139
22.2441
22.2742
22.3043
22.3345
22.3646
22.3948
22.4249
22.455
22.4852
22.5153
22.5455
22.5756
22.6057
22.6359
22.666
22.6962
22.7263
22.7564
22.7866
22.8167
22.8469
22.877
22.9071
22.9373
22.9674
22.9976
23.0277
23.0579
23.088
23.1181
23.1483
23.1784
23.2086
23.2387
23.2688
23.299
23.3291
23.3593
23.3894
23.4196
23.4497
23.4798
23.51
23.5401
23.5703
23.6004
23.6306
23.6607
23.6908
23.721
23.7511
23.7813
23.8114
23.8416
23.8717
23.9019
23.932
23.9621
23.9923
24.0224
24.0526
24.0827
24.1129
24.143
24.1731
24.2033
24.2334
24.2636
24.2937
24.3239
24.354
24.3842
24.4143
24.4444
24.4746
24.5047
24.5349
24.565
24.5952
24.6253
24.6555
24.6856
24.7158
24.7459
24.776
24.8062
24.8363
24.8665
24.8966
24.9268
24.9569
24.9871
25.0172
25.0474
25.0775
25.1077
25.1378
25.1679
25.1981
25.2282
25.2584
25.2885
25.3187
25.3488
25.379
25.4091
25.4393
25.4694
25.4996
25.5297
25.5599
25.59
25.6202
25.6503
25.6804
25.7106
25.7407
25.7709
25.801
25.8312
25.8613
25.8915
25.9216
25.9518
25.9819
26.0121
26.0422
26.0724
26.1025
26.1327
26.1628
26.193
26.2231
26.2533
26.2834
26.3136
26.3437
26.3739
26.404
26.4341
26.4643
26.4944
26.5246
26.5547
26.5849
26.615
26.6452
26.6753
26.7055
26.7356
26.7658
26.7959
26.8261
26.8562
26.8864
26.9165
26.9467
26.9768
27.007
27.0371
27.0673
27.0974
27.1276
27.1577
27.1879
27.218
27.2482
27.2783
27.3085
27.3386
27.3688
27.3989
27.4291
27.4592
27.4894
27.5195
27.5497
27.5798
27.61
27.6401
27.6703
27.7004
27.7306
27.7607
27.7909
27.821
27.8512
27.8813
27.9115
27.9417
27.9718
28.002
28.0321
28.0623
28.0924
28.1226
28.1527
28.1829
28.213
28.2432
28.2733
28.3035
28.3336
28.3638
28.3939
28.4241
28.4542
28.4844
28.5145
28.5447
28.5748
28.605
28.6351
28.6653
28.6954
28.7256
28.7557
28.7859
28.816
28.8462
28.8764
28.9065
28.9367
28.9668
28.997
29.0271
29.0573
29.0874
29.1176
29.1477
29.1779
29.208
29.2382
29.2683
29.2985
29.3286
29.3588
29.3889
29.4191
29.4492
29.4794
29.5096
29.5397
29.5699
29.6
29.6302
29.6603
29.6905
29.7206
29.7508
29.7809
29.8111
29.8412
29.8714
29.9015
29.9317
29.9618
29.992
30.0222
30.0523
30.0825
30.1126
30.1428
30.1729
30.2031
30.2332
30.2634
30.2935
30.3237
30.3538
30.384
30.4141
30.4443
30.4745
30.5046
30.5348
30.5649
30.5951
30.6252
30.6554
30.6855
30.7157
30.7458
30.776
30.8061
30.8363
30.8664
30.8966
30.9268
30.9569
30.9871
31.0172
31.0474
31.0775
31.1077
31.1378
31.168
31.1981
31.2283
31.2584
31.2886
31.3187
31.3489
31.3791
31.4092
31.4394
31.4695
31.4997
31.5298
31.56
31.5901
31.6203
31.6504
31.6806
31.7107
31.7409
31.7711
31.8012
31.8314
31.8615
31.8917
31.9218
31.952
31.9821
32.0123
32.0424
32.0726
32.1027
32.1329
32.1631
32.1932
32.2234
32.2535
32.2837
32.3138
32.344
32.3741
32.4043
32.4344
32.4646
32.4947
32.5249
32.555
32.5852
32.6154
32.6455
32.6757
32.7058
32.736
32.7661
32.7963
32.8264
32.8566
32.8867
32.9169
32.947
32.9772
33.0073
33.0375
33.0677
33.0978
33.128
33.1581
33.1883
33.2184
33.2486
33.2787
33.3089
33.339
33.3692
33.3993
33.4295
33.4596
33.4898
33.52
33.5501
33.5803
33.6104
33.6406
33.6707
33.7009
33.731
33.7612
33.7913
33.8215
33.8516
33.8818
33.9119
33.9421
33.9722
34.0024
34.0325
34.0627
34.0929
34.123
34.1532
34.1833
34.2135
34.2436
34.2738
34.3039
34.3341
34.3642
34.3944
34.4245
34.4547
34.4848
34.515
34.5451
34.5753
34.6054
34.6356
34.6657
34.6959
34.726
34.7562
34.7864
34.8165
34.8467
34.8768
34.907
34.9371
34.9673
34.9974
35.0276
35.0577
35.0879
35.118
35.1482
35.1783
35.2085
35.2386
35.2688
35.2989
35.3291
35.3592
35.3894
35.4195
35.4497
35.4798
35.51
35.5401
35.5703
35.6004
35.6306
35.6607
35.6909
35.721
35.7512
35.7813
35.8115
35.8416
35.8718
35.9019
35.9321
35.9622
35.9924
36.0225
36.0527
36.0828
36.113
36.1431
36.1733
36.2034
36.2336
36.2637
36.2939
36.324
36.3542
36.3843
36.4145
36.4446
36.4748
36.5049
36.5351
36.5652
36.5954
36.6255
36.6557
36.6858
36.7159
36.7461
36.7762
36.8064
36.8365
36.8667
36.8968
36.927
36.9571
36.9873
37.0174
37.0476
37.0777
37.1079
37.138
37.1682
37.1983
37.2285
37.2586
37.2887
37.3189
37.349
37.3792
37.4093
37.4395
37.4696
37.4998
37.5299
37.5601
37.5902
37.6203
37.6505
37.6806
37.7108
37.7409
37.7711
37.8012
37.8314
37.8615
37.8917
37.9218
37.9519
37.9821
38.0122
38.0424
38.0725
38.1027
38.1328
38.1629
38.1931
38.2232
38.2534
38.2835
38.3137
38.3438
38.374
38.4041
38.4342
38.4644
38.4945
38.5247
38.5548
38.5849
38.6151
38.6452
38.6754
38.7055
38.7357
38.7658
38.7959
38.8261
38.8562
38.8864
38.9165
38.9466
38.9768
39.0069
39.0371
39.0672
39.0973
39.1275
39.1576
39.1878
39.2179
39.248
39.2782
39.3083
39.3385
39.3686
39.3987
39.4289
39.459
39.4892
39.5193
39.5494
39.5796
39.6097
39.6398
39.67
39.7001
39.7303
39.7604
39.7905
39.8207
39.8508
39.8809
39.9111
39.9412
39.9714
40.0015
40.0316
40.0618
40.0919
40.122
40.1522
40.1823
40.2124
40.2426
40.2727
40.3028
40.333
40.3631
40.3932
40.4234
40.4535
40.4836
40.5138
40.5439
40.574
40.6042
40.6343
40.6644
40.6946
40.7247
40.7548
40.785
40.8151
40.8452
40.8754
40.9055
40.9356
40.9658
40.9959
41.026
41.0562
41.0863
41.1164
41.1465
41.1767
41.2068
41.2369
41.2671
41.2972
41.3273
41.3574
41.3876
41.4177
41.4478
41.478
41.5081
41.5382
41.5683
41.5985
41.6286
41.6587
41.6888
41.719
41.7491
41.7792
41.8094
41.8395
41.8696
41.8997
41.9299
41.96
41.9901
42.0202
42.0504
42.0805
42.1106
42.1407
42.1708
42.201
42.2311
42.2612
42.2913
42.3215
42.3516
42.3817
42.4118
42.4419
42.4721
42.5022
42.5323
42.5624
42.5925
42.6227
42.6528
42.6829
42.713
42.7431
42.7733
42.8034
42.8335
42.8636
42.8937
42.9239
42.954
42.9841
43.0142
43.0443
43.0744
43.1046
43.1347
43.1648
43.1949
43.225
43.2551
43.2852
43.3154
43.3455
43.3756
43.4057
43.4358
43.4659
43.496
43.5262
43.5563
43.5864
43.6165
43.6466
43.6767
43.7068
43.7369
43.767
43.7972
43.8273
43.8574
43.8875
43.9176
43.9477
43.9778
44.0079
44.038
44.0681
44.0982
44.1283
44.1585
44.1886
44.2187
44.2488
44.2789
44.309
44.3391
44.3692
44.3993
44.4294
44.4595
44.4896
44.5197
44.5498
44.5799
44.61
44.6401
44.6702
44.7003
44.7304
44.7605
44.7906
44.8207
44.8508
44.8809
44.911
44.9411
44.9712
45.0013
45.0314
45.0615
45.0916
45.1217
45.1518
45.1819
45.212
45.2421
45.2722
45.3023
45.3324
45.3625
45.3926
45.4227
45.4528
45.4828
45.5129
45.543
45.5731
45.6032
45.6333
45.6634
45.6935
45.7236
45.7537
45.7838
45.8138
45.8439
45.874
45.9041
45.9342
45.9643
45.9944
46.0245
46.0545
46.0846
46.1147
46.1448
46.1749
46.205
46.235
46.2651
46.2952
46.3253
46.3554
46.3855
46.4155
46.4456
46.4757
46.5058
46.5359
46.5659
46.596
46.6261
46.6562
46.6863
46.7163
46.7464
46.7765
46.8066
46.8366
46.8667
46.8968
46.9269
46.9569
46.987
47.0171
47.0471
47.0772
47.1073
47.1374
47.1674
47.1975
47.2276
47.2576
47.2877
47.3178
47.3478
47.3779
47.408
47.4381
47.4681
47.4982
47.5282
47.5583
47.5884
47.6184
47.6485
47.6786
47.7086
47.7387
47.7688
47.7988
47.8289
47.8589
47.889
47.9191
47.9491
47.9792
48.0092
48.0393
48.0693
48.0994
48.1295
48.1595
48.1896
48.2196
48.2497
48.2797
48.3098
48.3398
48.3699
48.3999
48.43
48.46
48.4901
48.5201
48.5502
48.5802
48.6103
48.6403
48.6704
48.7004
48.7304
48.7605
48.7905
48.8206
48.8506
48.8807
48.9107
48.9407
48.9708
49.0008
49.0309
49.0609
49.0909
49.121
49.151
49.1811
49.2111
49.2411
49.2712
49.3012
49.3312
49.3613
49.3913
49.4213
49.4514
49.4814
49.5114
49.5414
49.5715
49.6015
49.6315
49.6616
49.6916
49.7216
49.7516
49.7817
49.8117
49.8417
49.8717
49.9017
49.9318
49.9618
49.9918
50.0218
50.0518
50.0819
50.1119
50.1419
50.1719
50.2019
50.2319
50.2619
50.292
50.322
50.352
50.382
50.412
50.442
50.472
50.502
50.532
50.562
50.592
50.6221
50.6521
50.6821
50.7121
50.7421
50.7721
50.8021
50.8321
50.8621
50.8921
50.9221
50.9521
50.9821
51.012
51.042
51.072
51.102
51.132
51.162
51.192
51.222
51.252
51.282
51.312
51.3419
51.3719
51.4019
51.4319
51.4619
51.4919
51.5218
51.5518
51.5818
51.6118
51.6418
51.6717
51.7017
51.7317
51.7617
51.7916
51.8216
51.8516
51.8816
51.9115
51.9415
51.9715
52.0014
52.0314
52.0614
52.0913
52.1213
52.1513
52.1812
52.2112
52.2412
52.2711
52.3011
52.331
52.361
52.3909
52.4209
52.4509
52.4808
52.5108
52.5407
52.5707
52.6006
52.6306
52.6605
52.6905
52.7204
52.7504
52.7803
52.8102
52.8402
52.8701
52.9001
52.93
52.9599
52.9899
53.0198
53.0497
53.0797
53.1096
53.1395
53.1695
53.1994
53.2293
53.2593
53.2892
53.3191
53.349
53.379
53.4089
53.4388
53.4687
53.4986
53.5286
53.5585
53.5884
53.6183
53.6482
53.6781
53.708
53.738
53.7679
53.7978
53.8277
53.8576
53.8875
53.9174
53.9473
53.9772
54.0071
54.037
54.0669
54.0968
54.1267
54.1566
54.1865
54.2164
54.2463
54.2761
54.306
54.3359
54.3658
54.3957
54.4256
54.4555
54.4853
54.5152
54.5451
54.575
54.6048
54.6347
54.6646
54.6945
54.7243
54.7542
54.7841
54.8139
54.8438
54.8737
54.9035
54.9334
54.9632
54.9931
55.023
55.0528
55.0827
55.1125
55.1424
55.1722
55.2021
55.2319
55.2618
55.2916
55.3214
55.3513
55.3811
55.411
55.4408
55.4706
55.5005
55.5303
55.5601
55.59
55.6198
55.6496
55.6794
55.7093
55.7391
55.7689
55.7987
55.8285
55.8584
55.8882
55.918
55.9478
55.9776
56.0074
56.0372
56.067
56.0968
56.1266
56.1564
56.1862
56.216
56.2458
56.2756
56.3054
56.3352
56.365
56.3948
56.4245
56.4543
56.4841
56.5139
56.5437
56.5734
56.6032
56.633
56.6628
56.6925
56.7223
56.7521
56.7818
56.8116
56.8413
56.8711
56.9009
56.9306
56.9604
56.9901
57.0199
57.0496
57.0794
57.1091
57.1388
57.1686
57.1983
57.2281
57.2578
57.2875
57.3173
57.347
57.3767
57.4064
57.4362
57.4659
57.4956
57.5253
57.555
57.5847
57.6144
57.6442
57.6739
57.7036
57.7333
57.763
57.7927
57.8224
57.852
57.8817
57.9114
57.9411
57.9708
58.0005
58.0302
58.0598
58.0895
58.1192
58.1489
58.1785
58.2082
58.2379
58.2675
58.2972
58.3268
58.3565
58.3861
58.4158
58.4454
58.4751
58.5047
58.5344
58.564
58.5936
58.6233
58.6529
58.6825
58.7122
58.7418
58.7714
58.801
58.8306
58.8603
58.8899
58.9195
58.9491
58.9787
59.0083
59.0379
59.0675
59.0971
59.1267
59.1563
59.1858
59.2154
59.245
59.2746
59.3042
59.3337
59.3633
59.3929
59.4224
59.452
59.4816
59.5111
59.5407
59.5702
59.5998
59.6293
59.6588
59.6884
59.7179
59.7474
59.777
59.8065
59.836
59.8655
59.8951
59.9246
59.9541
59.9836
60.0131
60.0426
60.0721
60.1016
60.1311
60.1606
60.1901
60.2196
60.249
60.2785
60.308
60.3375
60.3669
60.3964
60.4258
60.4553
60.4848
60.5142
60.5437
60.5731
60.6025
60.632
60.6614
60.6908
60.7203
60.7497
60.7791
60.8085
60.8379
60.8674
60.8968
60.9262
60.9556
60.985
61.0143
61.0437
61.0731
61.1025
61.1319
61.1612
61.1906
61.22
61.2493
61.2787
61.3081
61.3374
61.3667
61.3961
61.4254
61.4548
61.4841
61.5134
61.5427
61.5721
61.6014
61.6307
61.66
61.6893
61.7186
61.7479
61.7772
61.8065
61.8357
61.865
61.8943
61.9236
61.9528
61.9821
62.0113
62.0406
62.0698
62.0991
62.1283
62.1575
62.1868
62.216
62.2452
62.2744
62.3036
62.3328
62.362
62.3912
62.4204
62.4496
62.4788
62.508
62.5371
62.5663
62.5955
62.6246
62.6538
62.6829
62.7121
62.7412
62.7703
62.7995
62.8286
62.8577
62.8868
62.9159
62.945
62.9741
63.0032
63.0323
63.0614
63.0904
63.1195
63.1486
63.1776
63.2067
63.2357
63.2648
63.2938
63.3228
63.3519
63.3809
63.4099
63.4389
63.4679
63.4969
63.5259
63.5549
63.5839
63.6128
63.6418
63.6708
63.6997
63.7287
63.7576
63.7865
63.8155
63.8444
63.8733
63.9022
63.9311
63.96
63.9889
64.0178
64.0467
64.0755
64.1044
64.1333
64.1621
64.191
64.2198
64.2486
64.2775
64.3063
64.3351
64.3639
64.3927
64.4215
64.4503
64.479
64.5078
64.5366
64.5653
64.5941
64.6228
64.6515
64.6803
64.709
64.7377
64.7664
64.7951
64.8238
64.8525
64.8811
64.9098
64.9384
64.9671
64.9957
65.0244
65.053
65.0816
65.1102
65.1388
65.1674
65.196
65.2246
65.2532
65.2817
65.3103
65.3389
65.3674
65.396
65.4245
65.453
65.4815
65.51
65.5385
65.567
65.5954
65.6239
65.6523
65.6808
65.7092
65.7376
65.766
65.7944
65.8228
65.8512
65.8796
65.908
65.9363
65.9647
65.993
66.0213
66.0497
66.078
66.1063
66.1346
66.1628
66.1911
66.2194
66.2476
66.2758
66.3041
66.3323
66.3605
66.3887
66.4169
66.445
66.4732
66.5014
66.5295
66.5576
66.5858
66.6139
66.642
66.6701
66.6981
66.7262
66.7542
66.7823
66.8103
66.8383
66.8663
66.8943
66.9223
66.9503
66.9783
67.0062
67.0341
67.0621
67.09
67.1179
67.1458
67.1736
67.2015
67.2293
67.2572
67.285
67.3128
67.3406
67.3684
67.3962
67.4239
67.4517
67.4794
67.5071
67.5348
67.5625
67.5902
67.6178
67.6455
67.6731
67.7007
67.7283
67.7559
67.7835
67.8111
67.8386
67.8662
67.8937
67.9212
67.9487
67.9762
68.0036
68.0311
68.0585
68.0859
68.1133
68.1407
68.168
68.1954
68.2227
68.2501
68.2774
68.3047
68.3319
68.3592
68.3864
68.4136
68.4408
68.468
68.4952
68.5224
68.5495
68.5766
68.6037
68.6308
68.6579
68.6849
68.712
68.739
68.766
68.793
68.8199
68.8469
68.8738
68.9007
68.9276
68.9545
68.9813
69.0081
69.035
69.0617
69.0885
69.1153
69.142
69.1687
69.1954
69.2221
69.2488
69.2754
69.302
69.3286
69.3552
69.3817
69.4083
69.4348
69.4613
69.4877
69.5142
69.5406
69.567
69.5934
69.6198
69.6461
69.6724
69.6987
69.725
69.7513
69.7775
69.8037
69.8299
69.856
69.8822
69.9083
69.9344
69.9605
69.9865
70.0125
70.0385
70.0645
70.0904
70.1164
70.1423
70.1681
70.194
70.2198
70.2456
70.2714
70.2971
70.3229
70.3486
70.3742
70.3999
70.4255
70.4511
70.4767
70.5022
70.5277
70.5532
70.5787
70.6041
70.6295
70.6549
70.6802
70.7055
70.7308
70.7561
70.7813
70.8065
70.8317
70.8569
70.882
70.9071
70.9322
70.9572
70.9822
71.0072
71.0321
71.057
71.0819
71.1068
71.1316
71.1564
71.1811
71.2059
71.2306
71.2552
71.2799
71.3045
71.329
71.3536
71.3781
71.4026
71.427
71.4514
71.4758
71.5001
71.5244
71.5487
71.573
71.5972
71.6214
71.6455
71.6696
71.6937
71.7177
71.7417
71.7657
71.7896
71.8135
71.8374
71.8612
71.885
71.9088
71.9325
71.9562
71.9798
72.0034
72.027
72.0505
72.074
72.0975
72.1209
72.1443
72.1676
72.1909
72.2142
72.2374
72.2606
72.2838
72.3069
72.33
72.353
72.376
72.399
72.4219
72.4448
72.4676
72.4905
72.5132
72.5359
72.5586
72.5813
72.6039
72.6264
72.6489
72.6714
72.6939
72.7162
72.7386
72.7609
72.7832
72.8054
72.8276
72.8497
72.8718
72.8939
72.9159
72.9379
72.9598
72.9817
73.0035
73.0253
73.0471
73.0688
73.0905
73.1121
73.1337
73.1552
73.1767
73.1982
73.2196
73.241
73.2623
73.2836
73.3048
73.326
73.3471
73.3682
73.3893
73.4103
73.4312
73.4521
73.473
73.4938
73.5146
73.5353
73.556
73.5767
73.5973
73.6178
73.6383
73.6588
73.6792
73.6996
73.7199
73.7402
73.7604
73.7806
73.8008
73.8208
73.8409
73.8609
73.8809
73.9008
73.9206
73.9405
73.9602
73.98
73.9996
74.0193
74.0389
74.0584
74.0779
74.0974
74.1168
74.1362
74.1555
74.1747
74.194
74.2132
74.2323
74.2514
74.2704
74.2894
74.3084
74.3273
74.3462
74.365
74.3838
74.4025
74.4212
74.4398
74.4584
74.477
74.4955
74.514
74.5324
74.5508
74.5691
74.5874
74.6057
74.6239
74.6421
74.6602
74.6783
74.6963
74.7143
74.7322
74.7502
74.768
74.7859
74.8037
74.8214
74.8391
74.8568
74.8744
74.892
74.9095
74.927
74.9445
74.9619
74.9793
74.9967
75.014
75.0312
75.0485
75.0657
75.0828
75.0999
75.117
75.1341
75.1511
75.168
75.185
75.2019
75.2187
75.2356
75.2524
75.2691
75.2858
75.3025
75.3192
75.3358
75.3524
75.3689
75.3855
75.4019
75.4184
75.4348
75.4512
75.4676
75.4839
75.5002
75.5165
75.5327
75.5489
75.5651
75.5812
75.5973
75.6134
75.6295
75.6455
75.6615
75.6775
75.6934
75.7093
75.7252
75.7411
75.7569
75.7727
75.7885
75.8043
75.82
75.8357
75.8514
75.8671
75.8827
75.8983
75.9139
75.9295
75.9451
75.9606
75.9761
75.9916
76.007
76.0225
76.0379
76.0533
76.0686
76.084
76.0993
76.1147
76.13
76.1452
76.1605
76.1757
76.191
76.2062
76.2214
76.2365
76.2517
76.2668
76.2819
76.297
76.3121
76.3272
76.3423
76.3573
76.3723
76.3873
76.4023
76.4173
76.4323
76.4473
76.4622
76.4771
76.4921
76.507
76.5219
76.5367
76.5516
76.5665
76.5813
76.5961
76.611
76.6258
76.6406
76.6554
76.6702
76.6849
76.6997
76.7144
76.7292
76.7439
76.7586
76.7733
76.7881
76.8028
76.8174
76.8321
76.8468
76.8615
76.8761
76.8908
76.9054
76.9201
76.9347
76.9493
76.9639
76.9785
76.9931
77.0077
77.0223
77.0369
77.0515
77.0661
77.0806
77.0952
77.1098
77.1243
77.1389
77.1534
77.1679
77.1825
77.197
77.2115
77.226
77.2406
77.2551
77.2696
77.2841
77.2986
77.3131
77.3276
77.3421
77.3566
77.371
77.3855
77.4
77.4145
77.4289
77.4434
77.4579
77.4723
77.4868
77.5013
77.5157
77.5302
77.5446
77.5591
77.5735
77.588
77.6024
77.6169
77.6313
77.6457
77.6602
77.6746
77.689
77.7035
77.7179
77.7323
77.7467
77.7612
77.7756
77.79
77.8044
77.8189
77.8333
77.8477
77.8621
77.8765
77.891
77.9054
77.9198
77.9342
77.9486
77.963
77.9774
77.9918
78.0062
78.0207
78.0351
78.0495
78.0639
78.0783
78.0927
78.1071
78.1215
78.1359
78.1503
78.1647
78.1791
78.1935
78.2079
78.2223
78.2367
78.2511
78.2655
78.2799
78.2943
78.3087
78.3231
78.3375
78.3519
78.3663
78.3807
78.3951
78.4095
78.424
78.4384
78.4528
78.4672
78.4816
78.496
78.5104
78.5248
78.5392
78.5536
78.568
78.5824
78.5968
78.6112
78.6256
78.64
78.6544
78.6688
78.6832
78.6976
78.712
78.7264
78.7408
78.7552
78.7696
78.784
78.7984
78.8128
78.8272
78.8416
78.856
78.8704
78.8848
78.8992
78.9136
78.928
78.9424
78.9568
78.9712
78.9856
79
79.0145
79.0289
79.0433
79.0577
79.0721
79.0865
79.1009
79.1153
79.1297
79.1441
79.1585
79.1729
79.1873
79.2018
79.2162
79.2306
79.245
79.2594
79.2738
79.2882
79.3026
79.317
79.3315
79.3459
79.3603
79.3747
79.3891
79.4035
79.4179
79.4323
79.4468
79.4612
79.4756
79.49
79.5044
79.5188
79.5333
79.5477
79.5621
79.5765
79.5909
79.6053
79.6198
79.6342
79.6486
79.663
79.6774
79.6919
79.7063
79.7207
79.7351
79.7495
79.764
79.7784
79.7928
79.8072
79.8216
79.8361
79.8505
79.8649
79.8793
79.8938
79.9082
79.9226
79.937
79.9514
79.9659
79.9803
79.9947
80.0092
80.0236
80.038
80.0524
80.0669
80.0813
80.0957
80.1101
80.1246
80.139
80.1534
80.1679
80.1823
80.1967
80.2111
80.2256
80.24
80.2544
80.2689
80.2833
80.2977
80.3122
80.3266
80.341
80.3555
80.3699
80.3843
80.3988
80.4132
80.4276
80.4421
80.4565
80.4709
80.4854
80.4998
80.5142
80.5287
80.5431
80.5576
80.572
80.5864
80.6009
80.6153
80.6297
80.6442
80.6586
80.6731
80.6875
80.7019
80.7164
80.7308
80.7453
80.7597
80.7741
80.7886
80.803
80.8175
80.8319
80.8464
80.8608
80.8752
80.8897
80.9041
80.9186
80.933
80.9475
80.9619
80.9764
80.9908
81.0053
81.0197
81.0341
81.0486
81.063
81.0775
81.0919
81.1064
81.1208
81.1353
81.1497
81.1642
81.1786
81.1931
81.2075
81.222
81.2364
81.2509
81.2653
81.2798
81.2942
81.3087
81.3231
81.3376
81.352
81.3665
81.381
81.3954
81.4099
81.4243
81.4388
81.4532
81.4677
81.4821
81.4966
81.5111
81.5255
81.54
81.5544
81.5689
81.5833
81.5978
81.6123
81.6267
81.6412
81.6556
81.6701
81.6846
81.699
81.7135
81.7279
81.7424
81.7569
81.7713
81.7858
81.8002
81.8147
81.8292
81.8436
81.8581
81.8726
81.887
81.9015
81.916
81.9304
81.9449
81.9593
81.9738
81.9883
82.0027
82.0172
82.0317
82.0461
82.0606
82.0751
82.0895
82.104
82.1185
82.133
82.1474
82.1619
82.1764
82.1908
82.2053
82.2198
82.2342
82.2487
82.2632
82.2777
82.2921
82.3066
82.3211
82.3355
82.35
82.3645
82.379
82.3934
82.4079
82.4224
82.4369
82.4513
82.4658
82.4803
82.4948
82.5092
82.5237
82.5382
82.5527
82.5672
82.5816
82.5961
82.6106
82.6251
82.6395
82.654
82.6685
82.683
82.6975
82.7119
82.7264
82.7409
82.7554
82.7699
82.7843
82.7988
82.8133
82.8278
82.8423
82.8568
82.8712
82.8857
82.9002
82.9147
82.9292
82.9437
82.9581
82.9726
82.9871
83.0016
83.0161
83.0306
83.0451
83.0596
83.074
83.0885
83.103
83.1175
83.132
83.1465
83.161
83.1755
83.1899
83.2044
83.2189
83.2334
83.2479
83.2624
83.2769
83.2914
83.3059
83.3204
83.3349
83.3493
83.3638
83.3783
83.3928
83.4073
83.4218
83.4363
83.4508
83.4653
83.4798
83.4943
83.5088
83.5233
83.5378
83.5523
83.5668
83.5813
83.5958
83.6103
83.6248
83.6393
83.6537
83.6682
83.6827
83.6972
83.7117
83.7262
83.7407
83.7552
83.7697
83.7842
83.7987
83.8132
83.8277
83.8423
83.8568
83.8713
83.8858
83.9003
83.9148
83.9293
83.9438
83.9583
83.9728
83.9873
84.0018
84.0163
84.0308
84.0453
84.0598
84.0743
84.0888
84.1033
84.1178
84.1323
84.1469
84.1614
84.1759
84.1904
84.2049
84.2194
84.2339
84.2484
84.2629
84.2774
84.2919
84.3065
84.321
84.3355
84.35
84.3645
84.379
84.3935
84.408
84.4225
84.4371
84.4516
84.4661
84.4806
84.4951
84.5096
84.5241
84.5387
84.5532
84.5677
84.5822
84.5967
84.6112
84.6258
84.6403
84.6548
84.6693
84.6838
84.6983
84.7129
84.7274
84.7419
84.7564
84.7709
84.7855
84.8
84.8145
84.829
84.8435
84.8581
84.8726
84.8871
84.9016
84.9161
84.9307
84.9452
84.9597
84.9742
84.9888
85.0033
85.0178
85.0323
85.0469
85.0614
85.0759
85.0904
85.105
85.1195
85.134
85.1485
85.1631
85.1776
85.1921
85.2067
85.2212
85.2357
85.2502
85.2648
85.2793
85.2938
85.3084
85.3229
85.3374
85.352
85.3665
85.381
85.3955
85.4101
85.4246
85.4391
85.4537
85.4682
85.4827
85.4973
85.5118
85.5263
85.5409
85.5554
85.57
85.5845
85.599
85.6136
85.6281
85.6426
85.6572
85.6717
85.6862
85.7008
85.7153
85.7299
85.7444
85.7589
85.7735
85.788
85.8026
85.8171
85.8316
85.8462
85.8607
85.8753
85.8898
85.9043
85.9189
85.9334
85.948
85.9625
85.9771
85.9916
86.0061
86.0207
86.0352
86.0498
86.0643
86.0789
86.0934
86.108
86.1225
86.1371
86.1516
86.1661
86.1807
86.1952
86.2098
86.2243
86.2389
86.2534
86.268
86.2825
86.2971
86.3116
86.3262
86.3407
86.3553
86.3698
86.3844
86.3989
86.4135
86.428
86.4426
86.4572
86.4717
86.4863
86.5008
86.5154
86.5299
86.5445
86.559
86.5736
86.5881
86.6027
86.6173
86.6318
86.6464
86.6609
86.6755
86.69
86.7046
86.7192
86.7337
86.7483
86.7628
86.7774
86.792
86.8065
86.8211
86.8356
86.8502
86.8648
86.8793
86.8939
86.9085
86.923
86.9376
86.9521
86.9667
86.9813
86.9958
87.0104
87.025
87.0395
87.0541
87.0687
87.0832
87.0978
87.1124
87.1269
87.1415
87.1561
87.1706
87.1852
87.1998
87.2143
87.2289
87.2435
87.258
87.2726
87.2872
87.3018
87.3163
87.3309
87.3455
87.36
87.3746
87.3892
87.4038
87.4183
87.4329
87.4475
87.4621
87.4766
87.4912
87.5058
87.5204
87.5349
87.5495
87.5641
87.5787
87.5932
87.6078
87.6224
87.637
87.6515
87.6661
87.6807
87.6953
87.7099
87.7244
87.739
87.7536
87.7682
87.7828
87.7973
87.8119
87.8265
87.8411
87.8557
87.8703
87.8848
87.8994
87.914
87.9286
87.9432
87.9578
87.9723
87.9869
88.0015
88.0161
88.0307
88.0453
88.0599
88.0744
88.089
88.1036
88.1182
88.1328
88.1474
88.162
88.1766
88.1911
88.2057
88.2203
88.2349
88.2495
88.2641
88.2787
88.2933
88.3079
88.3225
88.337
88.3516
88.3662
88.3808
88.3954
88.41
88.4246
88.4392
88.4538
88.4684
88.483
88.4976
88.5122
88.5268
88.5414
88.556
88.5706
88.5852
88.5998
88.6144
88.6289
88.6435
88.6581
88.6727
88.6873
88.7019
88.7165
88.7311
88.7457
88.7603
88.7749
88.7895
88.8041
88.8187
88.8333
88.8479
88.8626
88.8772
88.8918
88.9064
88.921
88.9356
88.9502
88.9648
88.9794
88.994
89.0086
89.0232
89.0378
89.0524
89.067
89.0816
89.0962
89.1108
89.1254
89.1401
89.1547
89.1693
89.1839
89.1985
89.2131
89.2277
89.2423
89.2569
89.2715
89.2861
89.3008
89.3154
89.33
89.3446
89.3592
89.3738
89.3884
89.403
89.4177
89.4323
89.4469
89.4615
89.4761
89.4907
89.5053
89.52
89.5346
89.5492
89.5638
89.5784
89.593
89.6076
89.6223
89.6369
89.6515
89.6661
89.6807
89.6954
89.71
89.7246
89.7392
89.7538
89.7685
89.7831
89.7977
89.8123
89.8269
89.8416
89.8562
89.8708
89.8854
89.9
89.9147
89.9293
89.9439
89.9585
89.9732
89.9878
90.0024
90.017
90.0317
90.0463
90.0609
90.0755
90.0902
90.1048
90.1194
90.134
90.1487
90.1633
90.1779
90.1925
90.2072
90.2218
90.2364
90.2511
90.2657
90.2803
90.2949
90.3096
90.3242
90.3388
90.3535
90.3681
90.3827
90.3974
90.412
90.4266
90.4412
90.4559
90.4705
90.4851
90.4998
90.5144
90.529
90.5437
90.5583
90.573
90.5876
90.6022
90.6169
90.6315
90.6461
90.6608
90.6754
90.69
90.7047
90.7193
90.7339
90.7486
90.7632
90.7779
90.7925
90.8071
90.8218
90.8364
90.8511
90.8657
90.8803
90.895
90.9096
90.9243
90.9389
90.9535
90.9682
90.9828
90.9975
91.0121
91.0267
91.0414
91.056
91.0707
91.0853
91.1
91.1146
91.1293
91.1439
91.1585
91.1732
91.1878
91.2025
91.2171
91.2318
91.2464
91.2611
91.2757
91.2904
91.305
91.3197
91.3343
91.349
91.3636
91.3783
91.3929
91.4076
91.4222
91.4369
91.4515
91.4662
91.4808
91.4955
91.5101
91.5248
91.5394
91.5541
91.5687
91.5834
91.598
91.6127
91.6273
91.642
91.6566
91.6713
91.6859
91.7006
91.7153
91.7299
91.7446
91.7592
91.7739
91.7885
91.8032
91.8178
91.8325
91.8472
91.8618
91.8765
91.8911
91.9058
91.9205
91.9351
91.9498
91.9644
91.9791
91.9938
92.0084
92.0231
92.0377
92.0524
92.0671
92.0817
92.0964
92.111
92.1257
92.1404
92.155
92.1697
92.1844
92.199
92.2137
92.2283
92.243
92.2577
92.2723
92.287
92.3017
92.3163
92.331
92.3457
92.3603
92.375
92.3897
92.4043
92.419
92.4337
92.4484
92.463
92.4777
92.4924
92.507
92.5217
92.5364
92.551
92.5657
92.5804
92.5951
92.6097
92.6244
92.6391
92.6537
92.6684
92.6831
92.6978
92.7124
92.7271
92.7418
92.7565
92.7711
92.7858
92.8005
92.8152
92.8298
92.8445
92.8592
92.8739
92.8885
92.9032
92.9179
92.9326
92.9472
92.9619
92.9766
92.9913
93.006
93.0206
93.0353
93.05
93.0647
93.0794
93.094
93.1087
93.1234
93.1381
93.1528
93.1674
93.1821
93.1968
93.2115
93.2262
93.2409
93.2555
93.2702
93.2849
93.2996
93.3143
93.329
93.3437
93.3583
93.373
93.3877
93.4024
93.4171
93.4318
93.4465
93.4612
93.4758
93.4905
93.5052
93.5199
93.5346
93.5493
93.564
93.5787
93.5934
93.608
93.6227
93.6374
93.6521
93.6668
93.6815
93.6962
93.7109
93.7256
93.7403
93.755
93.7697
93.7844
93.799
93.8137
93.8284
93.8431
93.8578
93.8725
93.8872
93.9019
93.9166
93.9313
93.946
93.9607
93.9754
93.9901
94.0048
94.0195
94.0342
94.0489
94.0636
94.0783
94.093
94.1077
94.1224
94.1371
94.1518
94.1665
94.1812
94.1959
94.2106
94.2253
94.24
94.2547
94.2694
94.2841
94.2988
94.3135
94.3282
94.3429
94.3576
94.3724
94.3871
94.4018
94.4165
94.4312
94.4459
94.4606
94.4753
94.49
94.5047
94.5194
94.5341
94.5488
94.5635
94.5783
94.593
94.6077
94.6224
94.6371
94.6518
94.6665
94.6812
94.6959
94.7107
94.7254
94.7401
94.7548
94.7695
94.7842
94.7989
94.8136
94.8284
94.8431
94.8578
94.8725
94.8872
94.9019
94.9167
94.9314
94.9461
94.9608
94.9755
94.9902
95.005
95.0197
95.0344
95.0491
95.0638
95.0786
95.0933
95.108
95.1227
95.1374
95.1522
95.1669
95.1816
95.1963
95.211
95.2258
95.2405
95.2552
95.2699
95.2847
95.2994
95.3141
95.3288
95.3436
95.3583
95.373
95.3877
95.4025
95.4172
95.4319
95.4466
95.4614
95.4761
95.4908
95.5055
95.5203
95.535