/*--------------------------------*- C++ -*----------------------------------*\
  =========                 |
  \\      /  F ield         | OpenFOAM: The Open Source CFD Toolbox
   \\    /   O peration     | Website:  https://openfoam.org
    \\  /    A nd           | Version:  9
     \\/     M anipulation  |
\*---------------------------------------------------------------------------*/
FoamFile
{
    format      ascii;
    class       volScalarField;
    location    "0.041";
    object      rho_0;
}
// * * * * * * * * * * * * * * * * * * * * * * * * * * * * * * * * * * * * * //

dimensions      [1 -3 0 0 0 0 0];

internalField   nonuniform List<scalar> 
10000
(
0.205535
0.205532
0.205528
0.205524
0.20552
0.205516
0.205512
0.205508
0.205504
0.2055
0.205496
0.205493
0.205489
0.205485
0.205481
0.205477
0.205473
0.205469
0.205465
0.205461
0.205457
0.205453
0.205449
0.205445
0.205441
0.205437
0.205433
0.205429
0.205426
0.205422
0.205418
0.205414
0.20541
0.205406
0.205402
0.205398
0.205394
0.20539
0.205386
0.205382
0.205378
0.205374
0.20537
0.205367
0.205363
0.205359
0.205355
0.205351
0.205347
0.205343
0.205339
0.205335
0.205331
0.205327
0.205323
0.20532
0.205316
0.205312
0.205308
0.205304
0.2053
0.205296
0.205292
0.205288
0.205284
0.20528
0.205277
0.205273
0.205269
0.205265
0.205261
0.205257
0.205253
0.205249
0.205245
0.205242
0.205238
0.205234
0.20523
0.205226
0.205222
0.205218
0.205214
0.20521
0.205207
0.205203
0.205199
0.205195
0.205191
0.205187
0.205183
0.205179
0.205176
0.205172
0.205168
0.205164
0.20516
0.205157
0.205153
0.205149
0.205145
0.205141
0.205137
0.205133
0.205129
0.205126
0.205122
0.205118
0.205114
0.20511
0.205106
0.205102
0.205099
0.205095
0.205091
0.205087
0.205084
0.20508
0.205076
0.205072
0.205068
0.205065
0.205061
0.205057
0.205053
0.205049
0.205045
0.205041
0.205038
0.205034
0.205031
0.205027
0.205023
0.205019
0.205015
0.205011
0.205008
0.205004
0.205
0.204996
0.204992
0.204988
0.204985
0.204981
0.204978
0.204974
0.204971
0.204967
0.204963
0.20496
0.204956
0.204952
0.204948
0.204944
0.20494
0.204936
0.204932
0.204928
0.204924
0.204921
0.204917
0.204914
0.204911
0.204907
0.204904
0.204901
0.204897
0.204894
0.204891
0.204887
0.204883
0.20488
0.204876
0.204872
0.204868
0.204863
0.204859
0.204855
0.204851
0.204847
0.204843
0.204839
0.204835
0.204831
0.204828
0.204825
0.204821
0.204818
0.204816
0.204813
0.20481
0.204808
0.204806
0.204804
0.204802
0.2048
0.204799
0.204797
0.204795
0.204794
0.204792
0.20479
0.204789
0.204787
0.204786
0.204784
0.204783
0.204782
0.20478
0.204779
0.204778
0.204777
0.204776
0.204775
0.204774
0.204773
0.204771
0.20477
0.204769
0.204768
0.204767
0.204766
0.204765
0.204764
0.204762
0.204761
0.20476
0.204759
0.204758
0.204757
0.204756
0.204755
0.204754
0.204752
0.204751
0.20475
0.204749
0.204748
0.204747
0.204746
0.204745
0.204743
0.204742
0.204741
0.20474
0.204739
0.204738
0.204737
0.204735
0.204734
0.204733
0.204732
0.204731
0.20473
0.204729
0.204728
0.204726
0.204725
0.204724
0.204723
0.204722
0.204721
0.20472
0.204719
0.204717
0.204716
0.204715
0.204714
0.204713
0.204712
0.204711
0.20471
0.204708
0.204707
0.204706
0.204705
0.204704
0.204703
0.204702
0.204701
0.204699
0.204698
0.204697
0.204696
0.204695
0.204694
0.204693
0.204692
0.20469
0.204689
0.204688
0.204687
0.204686
0.204685
0.204684
0.204683
0.204681
0.20468
0.204679
0.204678
0.204677
0.204676
0.204675
0.204673
0.204672
0.204671
0.20467
0.204669
0.204668
0.204667
0.204666
0.204664
0.204663
0.204662
0.204661
0.20466
0.204659
0.204658
0.204657
0.204655
0.204654
0.204653
0.204652
0.204651
0.20465
0.204649
0.204648
0.204646
0.204645
0.204644
0.204643
0.204642
0.204641
0.20464
0.204638
0.204637
0.204636
0.204635
0.204634
0.204633
0.204632
0.204631
0.204629
0.204628
0.204627
0.204626
0.204625
0.204624
0.204623
0.204621
0.20462
0.204619
0.204618
0.204617
0.204616
0.204615
0.204614
0.204612
0.204611
0.20461
0.204609
0.204608
0.204607
0.204606
0.204605
0.204603
0.204602
0.204601
0.2046
0.204599
0.204598
0.204597
0.204595
0.204594
0.204593
0.204592
0.204591
0.20459
0.204589
0.204588
0.204586
0.204585
0.204584
0.204583
0.204582
0.204581
0.20458
0.204578
0.204577
0.204576
0.204575
0.204574
0.204573
0.204572
0.204571
0.204569
0.204568
0.204567
0.204566
0.204565
0.204564
0.204563
0.204561
0.20456
0.204559
0.204558
0.204557
0.204556
0.204555
0.204554
0.204552
0.204551
0.20455
0.204549
0.204548
0.204547
0.204546
0.204544
0.204543
0.204542
0.204541
0.20454
0.204539
0.204538
0.204536
0.204535
0.204534
0.204533
0.204532
0.204531
0.20453
0.204529
0.204527
0.204526
0.204525
0.204524
0.204523
0.204522
0.204521
0.204519
0.204518
0.204517
0.204516
0.204515
0.204514
0.204513
0.204511
0.20451
0.204509
0.204508
0.204507
0.204506
0.204505
0.204504
0.204502
0.204501
0.2045
0.204499
0.204498
0.204497
0.204496
0.204494
0.204493
0.204492
0.204491
0.20449
0.204489
0.204488
0.204486
0.204485
0.204484
0.204483
0.204482
0.204481
0.20448
0.204478
0.204477
0.204476
0.204475
0.204474
0.204473
0.204472
0.204471
0.204469
0.204468
0.204467
0.204466
0.204465
0.204464
0.204463
0.204461
0.20446
0.204459
0.204458
0.204457
0.204456
0.204455
0.204453
0.204452
0.204451
0.20445
0.204449
0.204448
0.204447
0.204445
0.204444
0.204443
0.204442
0.204441
0.20444
0.204439
0.204437
0.204436
0.204435
0.204434
0.204433
0.204432
0.204431
0.20443
0.204428
0.204427
0.204426
0.204425
0.204424
0.204423
0.204422
0.20442
0.204419
0.204418
0.204417
0.204416
0.204415
0.204414
0.204412
0.204411
0.20441
0.204409
0.204408
0.204407
0.204406
0.204404
0.204403
0.204402
0.204401
0.2044
0.204399
0.204397
0.204397
0.204395
0.204394
0.204393
0.204392
0.204391
0.20439
0.204388
0.204387
0.204386
0.204385
0.204384
0.204383
0.204382
0.20438
0.204379
0.204378
0.204377
0.204376
0.204375
0.204374
0.204373
0.204371
0.20437
0.204369
0.204368
0.204367
0.204366
0.204364
0.204363
0.204362
0.204361
0.20436
0.204359
0.204358
0.204356
0.204355
0.204354
0.204353
0.204352
0.204351
0.20435
0.204348
0.204347
0.204346
0.204345
0.204344
0.204343
0.204342
0.204341
0.204339
0.204338
0.204337
0.204336
0.204335
0.204334
0.204333
0.204331
0.20433
0.204329
0.204328
0.204327
0.204326
0.204325
0.204323
0.204322
0.204321
0.20432
0.204319
0.204318
0.204316
0.204315
0.204314
0.204313
0.204312
0.204311
0.20431
0.204308
0.204307
0.204306
0.204305
0.204304
0.204303
0.204302
0.2043
0.204299
0.204298
0.204297
0.204296
0.204295
0.204293
0.204292
0.204291
0.20429
0.204289
0.204288
0.204287
0.204285
0.204284
0.204283
0.204282
0.204281
0.20428
0.204279
0.204278
0.204276
0.204275
0.204274
0.204273
0.204272
0.204271
0.204269
0.204268
0.204267
0.204266
0.204265
0.204264
0.204263
0.204261
0.20426
0.204259
0.204258
0.204257
0.204256
0.204255
0.204254
0.204252
0.204251
0.20425
0.204249
0.204248
0.204247
0.204245
0.204244
0.204243
0.204242
0.204241
0.20424
0.204239
0.204237
0.204236
0.204235
0.204234
0.204233
0.204232
0.204231
0.204229
0.204228
0.204227
0.204226
0.204225
0.204224
0.204223
0.204221
0.20422
0.204219
0.204218
0.204217
0.204216
0.204214
0.204213
0.204212
0.204211
0.20421
0.204209
0.204208
0.204207
0.204205
0.204204
0.204203
0.204202
0.204201
0.2042
0.204198
0.204197
0.204196
0.204195
0.204194
0.204193
0.204191
0.20419
0.204189
0.204188
0.204187
0.204186
0.204185
0.204184
0.204182
0.204181
0.20418
0.204179
0.204178
0.204177
0.204175
0.204174
0.204173
0.204172
0.204171
0.20417
0.204169
0.204167
0.204166
0.204165
0.204164
0.204163
0.204162
0.204161
0.204159
0.204158
0.204157
0.204156
0.204155
0.204154
0.204153
0.204151
0.20415
0.204149
0.204148
0.204147
0.204146
0.204144
0.204143
0.204142
0.204141
0.20414
0.204139
0.204138
0.204137
0.204135
0.204134
0.204133
0.204132
0.204131
0.20413
0.204128
0.204127
0.204126
0.204125
0.204124
0.204123
0.204122
0.20412
0.204119
0.204118
0.204117
0.204116
0.204115
0.204113
0.204112
0.204111
0.20411
0.204109
0.204108
0.204107
0.204106
0.204104
0.204103
0.204102
0.204101
0.2041
0.204099
0.204098
0.204096
0.204095
0.204094
0.204093
0.204092
0.204091
0.204089
0.204088
0.204087
0.204086
0.204085
0.204084
0.204083
0.204081
0.20408
0.204079
0.204078
0.204077
0.204076
0.204074
0.204073
0.204072
0.204071
0.20407
0.204069
0.204068
0.204066
0.204065
0.204064
0.204063
0.204062
0.204061
0.20406
0.204059
0.204057
0.204056
0.204055
0.204054
0.204053
0.204052
0.20405
0.204049
0.204048
0.204047
0.204046
0.204045
0.204044
0.204042
0.204041
0.20404
0.204039
0.204038
0.204037
0.204036
0.204034
0.204033
0.204032
0.204031
0.20403
0.204029
0.204027
0.204026
0.204025
0.204024
0.204023
0.204022
0.204021
0.204019
0.204018
0.204017
0.204016
0.204015
0.204014
0.204013
0.204011
0.20401
0.204009
0.204008
0.204007
0.204006
0.204004
0.204003
0.204002
0.204001
0.204
0.203999
0.203998
0.203996
0.203995
0.203994
0.203993
0.203992
0.203991
0.20399
0.203988
0.203987
0.203986
0.203985
0.203984
0.203983
0.203982
0.20398
0.203979
0.203978
0.203977
0.203976
0.203975
0.203974
0.203973
0.203971
0.20397
0.203969
0.203968
0.203967
0.203966
0.203964
0.203963
0.203962
0.203961
0.20396
0.203959
0.203958
0.203956
0.203955
0.203954
0.203953
0.203952
0.203951
0.20395
0.203948
0.203947
0.203946
0.203945
0.203944
0.203943
0.203942
0.20394
0.203939
0.203938
0.203937
0.203936
0.203935
0.203934
0.203932
0.203931
0.20393
0.203929
0.203928
0.203927
0.203926
0.203924
0.203923
0.203922
0.203921
0.20392
0.203919
0.203918
0.203916
0.203915
0.203914
0.203913
0.203912
0.203911
0.20391
0.203908
0.203907
0.203906
0.203905
0.203904
0.203903
0.203902
0.2039
0.203899
0.203898
0.203897
0.203896
0.203895
0.203894
0.203892
0.203891
0.20389
0.203889
0.203888
0.203887
0.203886
0.203884
0.203883
0.203882
0.203881
0.20388
0.203879
0.203878
0.203876
0.203875
0.203874
0.203873
0.203872
0.203871
0.20387
0.203868
0.203867
0.203866
0.203865
0.203864
0.203863
0.203862
0.20386
0.203859
0.203858
0.203857
0.203856
0.203855
0.203854
0.203852
0.203851
0.20385
0.203849
0.203848
0.203847
0.203846
0.203844
0.203843
0.203842
0.203841
0.20384
0.203839
0.203838
0.203836
0.203835
0.203834
0.203833
0.203832
0.203831
0.20383
0.203828
0.203827
0.203826
0.203825
0.203824
0.203823
0.203822
0.20382
0.203819
0.203818
0.203817
0.203816
0.203815
0.203814
0.203812
0.203811
0.20381
0.203809
0.203808
0.203807
0.203806
0.203804
0.203803
0.203802
0.203801
0.2038
0.203799
0.203798
0.203796
0.203795
0.203794
0.203793
0.203792
0.203791
0.20379
0.203789
0.203787
0.203786
0.203785
0.203784
0.203783
0.203782
0.203781
0.203779
0.203778
0.203777
0.203776
0.203775
0.203774
0.203773
0.203771
0.20377
0.203769
0.203768
0.203767
0.203766
0.203765
0.203764
0.203762
0.203761
0.20376
0.203759
0.203758
0.203757
0.203756
0.203754
0.203753
0.203752
0.203751
0.20375
0.203749
0.203748
0.203747
0.203745
0.203744
0.203743
0.203742
0.203741
0.20374
0.203739
0.203738
0.203736
0.203735
0.203734
0.203733
0.203732
0.203731
0.20373
0.203728
0.203727
0.203726
0.203725
0.203724
0.203723
0.203722
0.203721
0.203719
0.203718
0.203717
0.203716
0.203715
0.203714
0.203713
0.203712
0.20371
0.203709
0.203708
0.203707
0.203706
0.203705
0.203704
0.203703
0.203701
0.2037
0.203699
0.203698
0.203697
0.203696
0.203695
0.203694
0.203692
0.203691
0.20369
0.203689
0.203688
0.203687
0.203686
0.203685
0.203683
0.203682
0.203681
0.20368
0.203679
0.203678
0.203677
0.203676
0.203674
0.203673
0.203672
0.203671
0.20367
0.203669
0.203668
0.203667
0.203666
0.203664
0.203663
0.203662
0.203661
0.20366
0.203659
0.203658
0.203657
0.203655
0.203654
0.203653
0.203652
0.203651
0.20365
0.203649
0.203648
0.203646
0.203645
0.203644
0.203643
0.203642
0.203641
0.20364
0.203639
0.203637
0.203636
0.203635
0.203634
0.203633
0.203632
0.203631
0.20363
0.203629
0.203627
0.203626
0.203625
0.203624
0.203623
0.203622
0.203621
0.20362
0.203619
0.203617
0.203616
0.203615
0.203614
0.203613
0.203612
0.203611
0.20361
0.203609
0.203607
0.203606
0.203605
0.203604
0.203603
0.203602
0.203601
0.2036
0.203599
0.203597
0.203596
0.203595
0.203594
0.203593
0.203592
0.203591
0.20359
0.203589
0.203587
0.203586
0.203585
0.203584
0.203583
0.203582
0.203581
0.20358
0.203579
0.203578
0.203576
0.203575
0.203574
0.203573
0.203572
0.203571
0.20357
0.203569
0.203568
0.203567
0.203565
0.203564
0.203563
0.203562
0.203561
0.20356
0.203559
0.203558
0.203557
0.203555
0.203554
0.203553
0.203552
0.203551
0.20355
0.203549
0.203548
0.203547
0.203546
0.203545
0.203543
0.203542
0.203541
0.20354
0.203539
0.203538
0.203537
0.203536
0.203535
0.203534
0.203532
0.203531
0.20353
0.203529
0.203528
0.203527
0.203526
0.203525
0.203524
0.203523
0.203522
0.20352
0.203519
0.203518
0.203517
0.203516
0.203515
0.203514
0.203513
0.203512
0.203511
0.20351
0.203509
0.203507
0.203506
0.203505
0.203504
0.203503
0.203502
0.203501
0.2035
0.203499
0.203498
0.203497
0.203495
0.203494
0.203493
0.203492
0.203491
0.20349
0.203489
0.203488
0.203487
0.203486
0.203485
0.203484
0.203483
0.203481
0.20348
0.203479
0.203478
0.203477
0.203476
0.203475
0.203474
0.203473
0.203472
0.203471
0.20347
0.203469
0.203468
0.203466
0.203465
0.203464
0.203463
0.203462
0.203461
0.20346
0.203459
0.203458
0.203457
0.203456
0.203455
0.203454
0.203453
0.203451
0.20345
0.203449
0.203448
0.203447
0.203446
0.203445
0.203444
0.203443
0.203442
0.203441
0.20344
0.203439
0.203438
0.203437
0.203436
0.203435
0.203433
0.203432
0.203431
0.20343
0.203429
0.203428
0.203427
0.203426
0.203425
0.203424
0.203423
0.203422
0.203421
0.20342
0.203419
0.203418
0.203417
0.203416
0.203414
0.203413
0.203412
0.203411
0.20341
0.203409
0.203408
0.203407
0.203406
0.203405
0.203404
0.203403
0.203402
0.203401
0.2034
0.203399
0.203398
0.203397
0.203396
0.203395
0.203394
0.203393
0.203392
0.20339
0.203389
0.203388
0.203387
0.203386
0.203385
0.203384
0.203383
0.203382
0.203381
0.20338
0.203379
0.203378
0.203377
0.203376
0.203375
0.203374
0.203373
0.203372
0.203371
0.20337
0.203369
0.203368
0.203367
0.203366
0.203365
0.203364
0.203363
0.203362
0.203361
0.20336
0.203359
0.203358
0.203357
0.203356
0.203355
0.203354
0.203353
0.203352
0.20335
0.203349
0.203348
0.203347
0.203346
0.203345
0.203344
0.203343
0.203342
0.203341
0.20334
0.203339
0.203338
0.203337
0.203336
0.203335
0.203334
0.203333
0.203332
0.203331
0.20333
0.203329
0.203328
0.203327
0.203326
0.203325
0.203324
0.203323
0.203322
0.203321
0.20332
0.203319
0.203318
0.203317
0.203316
0.203315
0.203314
0.203313
0.203312
0.203311
0.203311
0.20331
0.203309
0.203308
0.203307
0.203306
0.203305
0.203304
0.203303
0.203302
0.203301
0.2033
0.203299
0.203298
0.203297
0.203296
0.203295
0.203294
0.203293
0.203292
0.203291
0.20329
0.203289
0.203288
0.203287
0.203286
0.203285
0.203284
0.203283
0.203282
0.203281
0.20328
0.203279
0.203278
0.203277
0.203277
0.203276
0.203275
0.203274
0.203273
0.203272
0.203271
0.20327
0.203269
0.203268
0.203267
0.203266
0.203265
0.203264
0.203263
0.203262
0.203261
0.20326
0.20326
0.203259
0.203258
0.203257
0.203256
0.203255
0.203254
0.203253
0.203252
0.203251
0.20325
0.203249
0.203248
0.203247
0.203246
0.203246
0.203245
0.203244
0.203243
0.203242
0.203241
0.20324
0.203239
0.203238
0.203237
0.203236
0.203235
0.203235
0.203234
0.203233
0.203232
0.203231
0.20323
0.203229
0.203228
0.203227
0.203226
0.203226
0.203225
0.203224
0.203223
0.203222
0.203221
0.20322
0.203219
0.203218
0.203218
0.203217
0.203216
0.203215
0.203214
0.203213
0.203212
0.203211
0.20321
0.20321
0.203209
0.203208
0.203207
0.203206
0.203205
0.203204
0.203204
0.203203
0.203202
0.203201
0.2032
0.203199
0.203198
0.203197
0.203197
0.203196
0.203195
0.203194
0.203193
0.203192
0.203192
0.203191
0.20319
0.203189
0.203188
0.203187
0.203186
0.203186
0.203185
0.203184
0.203183
0.203182
0.203181
0.203181
0.20318
0.203179
0.203178
0.203177
0.203177
0.203176
0.203175
0.203174
0.203173
0.203172
0.203172
0.203171
0.20317
0.203169
0.203168
0.203168
0.203167
0.203166
0.203165
0.203164
0.203164
0.203163
0.203162
0.203161
0.20316
0.20316
0.203159
0.203158
0.203157
0.203157
0.203156
0.203155
0.203154
0.203153
0.203153
0.203152
0.203151
0.20315
0.20315
0.203149
0.203148
0.203147
0.203147
0.203146
0.203145
0.203144
0.203144
0.203143
0.203142
0.203141
0.203141
0.20314
0.203139
0.203138
0.203138
0.203137
0.203136
0.203136
0.203135
0.203134
0.203133
0.203133
0.203132
0.203131
0.203131
0.20313
0.203129
0.203128
0.203128
0.203127
0.203126
0.203126
0.203125
0.203124
0.203124
0.203123
0.203122
0.203121
0.203121
0.20312
0.203119
0.203119
0.203118
0.203117
0.203117
0.203116
0.203115
0.203115
0.203114
0.203113
0.203113
0.203112
0.203112
0.203111
0.20311
0.20311
0.203109
0.203108
0.203108
0.203107
0.203106
0.203106
0.203105
0.203105
0.203104
0.203103
0.203103
0.203102
0.203102
0.203101
0.2031
0.2031
0.203099
0.203099
0.203098
0.203097
0.203097
0.203096
0.203096
0.203095
0.203094
0.203094
0.203093
0.203093
0.203092
0.203092
0.203091
0.203091
0.20309
0.203089
0.203089
0.203088
0.203088
0.203087
0.203087
0.203086
0.203086
0.203085
0.203085
0.203084
0.203084
0.203083
0.203083
0.203082
0.203082
0.203081
0.203081
0.20308
0.20308
0.203079
0.203079
0.203078
0.203078
0.203077
0.203077
0.203076
0.203076
0.203075
0.203075
0.203074
0.203074
0.203074
0.203073
0.203073
0.203072
0.203072
0.203071
0.203071
0.203071
0.20307
0.20307
0.203069
0.203069
0.203069
0.203068
0.203068
0.203067
0.203067
0.203067
0.203066
0.203066
0.203065
0.203065
0.203065
0.203064
0.203064
0.203064
0.203063
0.203063
0.203063
0.203062
0.203062
0.203062
0.203061
0.203061
0.203061
0.20306
0.20306
0.20306
0.20306
0.203059
0.203059
0.203059
0.203058
0.203058
0.203058
0.203058
0.203057
0.203057
0.203057
0.203057
0.203056
0.203056
0.203056
0.203056
0.203055
0.203055
0.203055
0.203055
0.203055
0.203054
0.203054
0.203054
0.203054
0.203054
0.203054
0.203053
0.203053
0.203053
0.203053
0.203053
0.203053
0.203053
0.203052
0.203052
0.203052
0.203052
0.203052
0.203052
0.203052
0.203052
0.203052
0.203051
0.203051
0.203051
0.203051
0.203051
0.203051
0.203051
0.203051
0.203051
0.203051
0.203051
0.203051
0.203051
0.203051
0.203051
0.203051
0.203051
0.203051
0.203051
0.203051
0.203051
0.203051
0.203051
0.203051
0.203051
0.203051
0.203051
0.203052
0.203052
0.203052
0.203052
0.203052
0.203052
0.203052
0.203052
0.203052
0.203053
0.203053
0.203053
0.203053
0.203053
0.203053
0.203054
0.203054
0.203054
0.203054
0.203054
0.203055
0.203055
0.203055
0.203055
0.203056
0.203056
0.203056
0.203056
0.203057
0.203057
0.203057
0.203058
0.203058
0.203058
0.203059
0.203059
0.203059
0.20306
0.20306
0.20306
0.203061
0.203061
0.203062
0.203062
0.203062
0.203063
0.203063
0.203064
0.203064
0.203065
0.203065
0.203066
0.203066
0.203067
0.203067
0.203068
0.203068
0.203069
0.203069
0.20307
0.20307
0.203071
0.203071
0.203072
0.203073
0.203073
0.203074
0.203075
0.203075
0.203076
0.203076
0.203077
0.203078
0.203079
0.203079
0.20308
0.203081
0.203081
0.203082
0.203083
0.203084
0.203084
0.203085
0.203086
0.203087
0.203088
0.203088
0.203089
0.20309
0.203091
0.203092
0.203093
0.203094
0.203095
0.203096
0.203096
0.203097
0.203098
0.203099
0.2031
0.203101
0.203102
0.203103
0.203104
0.203105
0.203106
0.203108
0.203109
0.20311
0.203111
0.203112
0.203113
0.203114
0.203115
0.203117
0.203118
0.203119
0.20312
0.203121
0.203123
0.203124
0.203125
0.203126
0.203128
0.203129
0.20313
0.203132
0.203133
0.203134
0.203136
0.203137
0.203139
0.20314
0.203142
0.203143
0.203144
0.203146
0.203147
0.203149
0.203151
0.203152
0.203154
0.203155
0.203157
0.203158
0.20316
0.203162
0.203163
0.203165
0.203167
0.203168
0.20317
0.203172
0.203174
0.203175
0.203177
0.203179
0.203181
0.203183
0.203185
0.203187
0.203188
0.20319
0.203192
0.203194
0.203196
0.203198
0.2032
0.203202
0.203204
0.203206
0.203208
0.203211
0.203213
0.203215
0.203217
0.203219
0.203221
0.203224
0.203226
0.203228
0.20323
0.203233
0.203235
0.203237
0.20324
0.203242
0.203244
0.203247
0.203249
0.203252
0.203254
0.203257
0.203259
0.203262
0.203264
0.203267
0.20327
0.203272
0.203275
0.203278
0.20328
0.203283
0.203286
0.203289
0.203291
0.203294
0.203297
0.2033
0.203303
0.203306
0.203309
0.203312
0.203315
0.203318
0.203321
0.203324
0.203327
0.20333
0.203333
0.203336
0.203339
0.203342
0.203346
0.203349
0.203352
0.203356
0.203359
0.203362
0.203366
0.203369
0.203372
0.203376
0.203379
0.203383
0.203386
0.20339
0.203394
0.203397
0.203401
0.203405
0.203408
0.203412
0.203416
0.203419
0.203423
0.203427
0.203431
0.203435
0.203439
0.203443
0.203447
0.203451
0.203455
0.203459
0.203463
0.203467
0.203471
0.203475
0.20348
0.203484
0.203488
0.203492
0.203497
0.203501
0.203506
0.20351
0.203514
0.203519
0.203523
0.203528
0.203533
0.203537
0.203542
0.203547
0.203551
0.203556
0.203561
0.203566
0.20357
0.203575
0.20358
0.203585
0.20359
0.203595
0.2036
0.203605
0.20361
0.203615
0.20362
0.203626
0.203631
0.203636
0.203641
0.203647
0.203652
0.203657
0.203663
0.203668
0.203674
0.203679
0.203685
0.20369
0.203696
0.203702
0.203707
0.203713
0.203719
0.203725
0.203731
0.203736
0.203742
0.203748
0.203754
0.20376
0.203766
0.203772
0.203778
0.203784
0.203791
0.203797
0.203803
0.203809
0.203816
0.203822
0.203828
0.203835
0.203841
0.203848
0.203854
0.203861
0.203867
0.203874
0.203881
0.203887
0.203894
0.203901
0.203908
0.203914
0.203921
0.203928
0.203935
0.203942
0.203949
0.203956
0.203963
0.20397
0.203977
0.203985
0.203992
0.203999
0.204006
0.204014
0.204021
0.204028
0.204036
0.204043
0.204051
0.204058
0.204066
0.204073
0.204081
0.204089
0.204096
0.204104
0.204112
0.20412
0.204127
0.204135
0.204143
0.204151
0.204159
0.204167
0.204175
0.204183
0.204191
0.204199
0.204207
0.204215
0.204224
0.204232
0.20424
0.204248
0.204257
0.204265
0.204273
0.204282
0.20429
0.204299
0.204307
0.204316
0.204324
0.204333
0.204341
0.20435
0.204359
0.204367
0.204376
0.204385
0.204394
0.204403
0.204411
0.20442
0.204429
0.204438
0.204447
0.204456
0.204465
0.204474
0.204483
0.204492
0.204501
0.20451
0.20452
0.204529
0.204538
0.204547
0.204556
0.204566
0.204575
0.204584
0.204594
0.204603
0.204612
0.204622
0.204631
0.204641
0.20465
0.20466
0.204669
0.204679
0.204688
0.204698
0.204708
0.204717
0.204727
0.204737
0.204746
0.204756
0.204766
0.204776
0.204785
0.204795
0.204805
0.204815
0.204825
0.204834
0.204844
0.204854
0.204864
0.204874
0.204884
0.204894
0.204904
0.204914
0.204924
0.204934
0.204944
0.204954
0.204964
0.204974
0.204984
0.204994
0.205005
0.205015
0.205025
0.205035
0.205045
0.205055
0.205066
0.205076
0.205086
0.205096
0.205107
0.205117
0.205127
0.205138
0.205148
0.205158
0.205169
0.205179
0.205189
0.2052
0.20521
0.20522
0.205231
0.205241
0.205252
0.205262
0.205272
0.205283
0.205293
0.205304
0.205314
0.205325
0.205335
0.205346
0.205356
0.205367
0.205377
0.205388
0.205398
0.205409
0.205419
0.20543
0.205441
0.205451
0.205462
0.205472
0.205483
0.205494
0.205504
0.205515
0.205525
0.205536
0.205547
0.205557
0.205568
0.205579
0.205589
0.2056
0.20561
0.205621
0.205632
0.205642
0.205653
0.205664
0.205675
0.205685
0.205696
0.205707
0.205717
0.205728
0.205739
0.20575
0.20576
0.205771
0.205782
0.205792
0.205803
0.205814
0.205825
0.205835
0.205846
0.205857
0.205868
0.205878
0.205889
0.2059
0.205911
0.205921
0.205932
0.205943
0.205954
0.205965
0.205975
0.205986
0.205997
0.206008
0.206019
0.206029
0.20604
0.206051
0.206062
0.206073
0.206083
0.206094
0.206105
0.206116
0.206127
0.206137
0.206148
0.206159
0.20617
0.206181
0.206192
0.206202
0.206213
0.206224
0.206235
0.206246
0.206257
0.206267
0.206278
0.206289
0.2063
0.206311
0.206322
0.206332
0.206343
0.206354
0.206365
0.206376
0.206387
0.206398
0.206408
0.206419
0.20643
0.206441
0.206452
0.206463
0.206474
0.206484
0.206495
0.206506
0.206517
0.206528
0.206539
0.20655
0.206561
0.206571
0.206582
0.206593
0.206604
0.206615
0.206626
0.206637
0.206648
0.206658
0.206669
0.20668
0.206691
0.206702
0.206713
0.206724
0.206735
0.206745
0.206756
0.206767
0.206778
0.206789
0.2068
0.206811
0.206822
0.206833
0.206844
0.206854
0.206865
0.206876
0.206887
0.206898
0.206909
0.20692
0.206931
0.206942
0.206952
0.206963
0.206974
0.206985
0.206996
0.207007
0.207018
0.207029
0.20704
0.207051
0.207062
0.207072
0.207083
0.207094
0.207105
0.207116
0.207127
0.207138
0.207149
0.20716
0.207171
0.207182
0.207193
0.207203
0.207214
0.207225
0.207236
0.207247
0.207258
0.207269
0.20728
0.207291
0.207302
0.207313
0.207324
0.207335
0.207345
0.207356
0.207367
0.207378
0.207389
0.2074
0.207411
0.207422
0.207433
0.207444
0.207455
0.207466
0.207477
0.207488
0.207498
0.207509
0.20752
0.207531
0.207542
0.207553
0.207564
0.207575
0.207586
0.207597
0.207608
0.207619
0.20763
0.207641
0.207652
0.207663
0.207674
0.207685
0.207695
0.207706
0.207717
0.207728
0.207739
0.20775
0.207761
0.207772
0.207783
0.207794
0.207805
0.207816
0.207827
0.207838
0.207849
0.20786
0.207871
0.207882
0.207893
0.207904
0.207915
0.207926
0.207937
0.207947
0.207958
0.207969
0.20798
0.207991
0.208002
0.208013
0.208024
0.208035
0.208046
0.208057
0.208068
0.208079
0.20809
0.208101
0.208112
0.208123
0.208134
0.208145
0.208156
0.208167
0.208178
0.208189
0.2082
0.208211
0.208222
0.208233
0.208244
0.208255
0.208266
0.208277
0.208288
0.208299
0.20831
0.208321
0.208332
0.208343
0.208354
0.208365
0.208376
0.208387
0.208398
0.208409
0.20842
0.208431
0.208442
0.208453
0.208464
0.208475
0.208486
0.208497
0.208508
0.208519
0.20853
0.208541
0.208552
0.208563
0.208574
0.208585
0.208596
0.208607
0.208618
0.208629
0.20864
0.208651
0.208662
0.208673
0.208684
0.208695
0.208706
0.208717
0.208728
0.208739
0.20875
0.208761
0.208772
0.208783
0.208794
0.208805
0.208816
0.208827
0.208838
0.208849
0.20886
0.208871
0.208882
0.208893
0.208904
0.208915
0.208926
0.208937
0.208948
0.208959
0.20897
0.208981
0.208992
0.209003
0.209014
0.209025
0.209036
0.209047
0.209058
0.209069
0.209081
0.209092
0.209103
0.209114
0.209125
0.209136
0.209147
0.209158
0.209169
0.20918
0.209191
0.209202
0.209213
0.209224
0.209235
0.209246
0.209257
0.209268
0.209279
0.20929
0.209301
0.209312
0.209323
0.209335
0.209346
0.209357
0.209368
0.209379
0.20939
0.209401
0.209412
0.209423
0.209434
0.209445
0.209456
0.209467
0.209478
0.209489
0.2095
0.209511
0.209522
0.209534
0.209545
0.209556
0.209567
0.209578
0.209589
0.2096
0.209611
0.209622
0.209633
0.209644
0.209655
0.209666
0.209677
0.209689
0.2097
0.209711
0.209722
0.209733
0.209744
0.209755
0.209766
0.209777
0.209788
0.209799
0.20981
0.209821
0.209833
0.209844
0.209855
0.209866
0.209877
0.209888
0.209899
0.20991
0.209921
0.209932
0.209943
0.209954
0.209966
0.209977
0.209988
0.209999
0.21001
0.210021
0.210032
0.210043
0.210054
0.210065
0.210077
0.210088
0.210099
0.21011
0.210121
0.210132
0.210143
0.210154
0.210165
0.210176
0.210188
0.210199
0.21021
0.210221
0.210232
0.210243
0.210254
0.210265
0.210276
0.210287
0.210299
0.21031
0.210321
0.210332
0.210343
0.210354
0.210365
0.210376
0.210388
0.210399
0.21041
0.210421
0.210432
0.210443
0.210454
0.210465
0.210476
0.210488
0.210499
0.21051
0.210521
0.210532
0.210543
0.210554
0.210565
0.210577
0.210588
0.210599
0.21061
0.210621
0.210632
0.210643
0.210655
0.210666
0.210677
0.210688
0.210699
0.21071
0.210721
0.210732
0.210744
0.210755
0.210766
0.210777
0.210788
0.210799
0.21081
0.210822
0.210833
0.210844
0.210855
0.210866
0.210877
0.210889
0.2109
0.210911
0.210922
0.210933
0.210944
0.210955
0.210967
0.210978
0.210989
0.211
0.211011
0.211022
0.211033
0.211045
0.211056
0.211067
0.211078
0.211089
0.2111
0.211112
0.211123
0.211134
0.211145
0.211156
0.211167
0.211179
0.21119
0.211201
0.211212
0.211223
0.211234
0.211246
0.211257
0.211268
0.211279
0.21129
0.211301
0.211313
0.211324
0.211335
0.211346
0.211357
0.211369
0.21138
0.211391
0.211402
0.211413
0.211424
0.211436
0.211447
0.211458
0.211469
0.21148
0.211492
0.211503
0.211514
0.211525
0.211536
0.211548
0.211559
0.21157
0.211581
0.211592
0.211603
0.211615
0.211626
0.211637
0.211648
0.211659
0.211671
0.211682
0.211693
0.211704
0.211715
0.211727
0.211738
0.211749
0.21176
0.211771
0.211783
0.211794
0.211805
0.211816
0.211827
0.211839
0.21185
0.211861
0.211872
0.211884
0.211895
0.211906
0.211917
0.211928
0.21194
0.211951
0.211962
0.211973
0.211984
0.211996
0.212007
0.212018
0.212029
0.212041
0.212052
0.212063
0.212074
0.212085
0.212097
0.212108
0.212119
0.21213
0.212142
0.212153
0.212164
0.212175
0.212186
0.212198
0.212209
0.21222
0.212231
0.212243
0.212254
0.212265
0.212276
0.212288
0.212299
0.21231
0.212321
0.212333
0.212344
0.212355
0.212366
0.212377
0.212389
0.2124
0.212411
0.212422
0.212434
0.212445
0.212456
0.212467
0.212479
0.21249
0.212501
0.212512
0.212524
0.212535
0.212546
0.212557
0.212569
0.21258
0.212591
0.212602
0.212614
0.212625
0.212636
0.212647
0.212659
0.21267
0.212681
0.212693
0.212704
0.212715
0.212726
0.212738
0.212749
0.21276
0.212771
0.212783
0.212794
0.212805
0.212816
0.212828
0.212839
0.21285
0.212861
0.212873
0.212884
0.212895
0.212907
0.212918
0.212929
0.21294
0.212952
0.212963
0.212974
0.212986
0.212997
0.213008
0.213019
0.213031
0.213042
0.213053
0.213064
0.213076
0.213087
0.213098
0.21311
0.213121
0.213132
0.213143
0.213155
0.213166
0.213177
0.213189
0.2132
0.213211
0.213223
0.213234
0.213245
0.213256
0.213268
0.213279
0.21329
0.213302
0.213313
0.213324
0.213335
0.213347
0.213358
0.213369
0.213381
0.213392
0.213403
0.213415
0.213426
0.213437
0.213449
0.21346
0.213471
0.213482
0.213494
0.213505
0.213516
0.213528
0.213539
0.21355
0.213562
0.213573
0.213584
0.213596
0.213607
0.213618
0.21363
0.213641
0.213652
0.213663
0.213675
0.213686
0.213697
0.213709
0.21372
0.213731
0.213743
0.213754
0.213765
0.213777
0.213788
0.213799
0.213811
0.213822
0.213833
0.213845
0.213856
0.213867
0.213879
0.21389
0.213901
0.213913
0.213924
0.213935
0.213947
0.213958
0.213969
0.213981
0.213992
0.214003
0.214015
0.214026
0.214037
0.214049
0.21406
0.214071
0.214083
0.214094
0.214105
0.214117
0.214128
0.21414
0.214151
0.214162
0.214174
0.214185
0.214196
0.214208
0.214219
0.21423
0.214242
0.214253
0.214264
0.214276
0.214287
0.214298
0.21431
0.214321
0.214333
0.214344
0.214355
0.214367
0.214378
0.214389
0.214401
0.214412
0.214423
0.214435
0.214446
0.214458
0.214469
0.21448
0.214492
0.214503
0.214514
0.214526
0.214537
0.214549
0.21456
0.214571
0.214583
0.214594
0.214605
0.214617
0.214628
0.21464
0.214651
0.214662
0.214674
0.214685
0.214696
0.214708
0.214719
0.214731
0.214742
0.214753
0.214765
0.214776
0.214788
0.214799
0.21481
0.214822
0.214833
0.214844
0.214856
0.214867
0.214879
0.21489
0.214901
0.214913
0.214924
0.214936
0.214947
0.214958
0.21497
0.214981
0.214993
0.215004