/*--------------------------------*- C++ -*----------------------------------*\
  =========                 |
  \\      /  F ield         | OpenFOAM: The Open Source CFD Toolbox
   \\    /   O peration     | Website:  https://openfoam.org
    \\  /    A nd           | Version:  9
     \\/     M anipulation  |
\*---------------------------------------------------------------------------*/
FoamFile
{
    format      ascii;
    class       volVectorField;
    location    "0.008";
    object      U;
}
// * * * * * * * * * * * * * * * * * * * * * * * * * * * * * * * * * * * * * //

dimensions      [0 1 -1 0 0 0 0];

internalField   nonuniform List<vector> 
100
(
(2.73178e-11 0 0)
(1.69769e-10 0 0)
(8.10437e-10 0 0)
(3.8038e-09 0 0)
(1.73261e-08 0 0)
(7.66146e-08 0 0)
(3.2877e-07 0 0)
(1.36825e-06 0 0)
(5.51858e-06 0 0)
(2.15541e-05 0 0)
(8.1447e-05 0 0)
(0.000297447 0 0)
(0.00104859 0 0)
(0.0035632 0 0)
(0.0116514 0 0)
(0.0365878 0 0)
(0.110067 0 0)
(0.316293 0 0)
(0.865614 0 0)
(2.25181 0 0)
(5.5843 0 0)
(13.0628 0 0)
(25.4869 0 0)
(38.7284 0 0)
(50.5551 0 0)
(61.3339 0 0)
(71.5864 0 0)
(81.591 0 0)
(91.4714 0 0)
(101.282 0 0)
(111.048 0 0)
(120.787 0 0)
(130.509 0 0)
(140.223 0 0)
(149.937 0 0)
(159.655 0 0)
(169.382 0 0)
(179.121 0 0)
(188.875 0 0)
(198.644 0 0)
(208.428 0 0)
(218.223 0 0)
(228.025 0 0)
(237.82 0 0)
(247.587 0 0)
(257.302 0 0)
(266.847 0 0)
(275.974 0 0)
(284.312 0 0)
(290.251 0 0)
(293.083 0 0)
(293.424 0 0)
(292.589 0 0)
(293.167 0 0)
(293.473 0 0)
(293.581 0 0)
(293.695 0 0)
(293.774 0 0)
(293.736 0 0)
(293.632 0 0)
(293.618 0 0)
(293.633 0 0)
(293.583 0 0)
(293.543 0 0)
(293.674 0 0)
(293.763 0 0)
(293.653 0 0)
(293.529 0 0)
(293.486 0 0)
(293.44 0 0)
(293.401 0 0)
(293.44 0 0)
(293.711 0 0)
(295.09 0 0)
(293 0 0)
(287.807 0 0)
(290.463 0 0)
(293.334 0 0)
(296.996 0 0)
(298.168 0 0)
(297.687 0 0)
(293.797 0 0)
(289.994 0 0)
(289.297 0 0)
(289.082 0 0)
(289.25 0 0)
(290.678 0 0)
(295.353 0 0)
(297.74 0 0)
(297.975 0 0)
(297.689 0 0)
(296.74 0 0)
(293.241 0 0)
(274.66 0 0)
(160.676 0 0)
(18.5815 0 0)
(1.40814 0 0)
(0.101587 0 0)
(0.00724138 0 0)
(0.000475057 0 0)
)
;

boundaryField
{
    sides
    {
        type            zeroGradient;
    }
    empty
    {
        type            empty;
    }
}


// ************************************************************************* //
