/*--------------------------------*- C++ -*----------------------------------*\
  =========                 |
  \\      /  F ield         | OpenFOAM: The Open Source CFD Toolbox
   \\    /   O peration     | Website:  https://openfoam.org
    \\  /    A nd           | Version:  9
     \\/     M anipulation  |
\*---------------------------------------------------------------------------*/
FoamFile
{
    format      ascii;
    class       surfaceScalarField;
    location    "0.011";
    object      phi;
}
// * * * * * * * * * * * * * * * * * * * * * * * * * * * * * * * * * * * * * //

dimensions      [1 0 -1 0 0 0 0];

internalField   nonuniform List<scalar> 
999
(
4.92687e-08
8.48753e-08
1.33286e-07
2.01569e-07
2.99453e-07
4.40599e-07
6.44301e-07
9.37844e-07
1.35975e-06
1.96428e-06
2.82753e-06
4.05597e-06
5.79781e-06
8.25873e-06
1.17229e-05
1.65813e-05
2.33699e-05
3.282e-05
4.59256e-05
6.40316e-05
8.89502e-05
0.000123112
0.000169765
0.000233225
0.000319207
0.000435239
0.000591195
0.00079996
0.00107828
0.00144779
0.00193633
0.00257953
0.00342278
0.00452355
0.00595431
0.00780587
0.0101915
0.0132515
0.017159
0.0221261
0.0284113
0.0363277
0.0462521
0.0586353
0.074013
0.0930176
0.116391
0.144996
0.179832
0.222044
0.272937
0.333985
0.406843
0.493346
0.595522
0.715582
0.855922
1.01911
1.20787
1.42508
1.6737
1.95681
2.27751
2.63893
3.04415
3.4962
3.99798
4.55222
5.16147
5.82802
6.55389
7.34083
8.19023
9.10315
10.0803
11.1222
12.2287
13.3996
14.6342
15.9318
17.2911
18.7107
20.189
21.7242
23.3143
24.9573
26.6509
28.393
30.1812
32.0132
33.8867
35.7994
37.749
39.7333
41.75
43.7972
45.8727
47.9746
50.101
52.2501
54.42
56.6093
58.8163
61.0395
63.2775
65.529
67.7927
70.0674
72.3521
74.6456
76.947
79.2553
81.5697
83.8892
86.2133
88.541
90.8718
93.205
95.5399
97.8761
100.213
102.55
104.887
107.223
109.557
111.89
114.222
116.551
118.877
121.2
123.52
125.837
128.149
130.458
132.762
135.062
137.357
139.647
141.932
144.211
146.485
148.754
151.016
153.272
155.523
157.767
160.004
162.235
164.459
166.677
168.887
171.091
173.287
175.477
177.659
179.833
182.001
184.16
186.313
188.457
190.594
192.723
194.844
196.958
199.063
201.161
203.25
205.331
207.405
209.47
211.527
213.576
215.616
217.649
219.673
221.688
223.696
225.695
227.686
229.668
231.642
233.607
235.564
237.513
239.453
241.385
243.308
245.223
247.129
249.027
250.917
252.797
254.67
256.534
258.389
260.236
262.074
263.904
265.726
267.539
269.343
271.139
272.927
274.706
276.477
278.239
279.992
281.738
283.474
285.203
286.923
288.635
290.338
292.033
293.719
295.397
297.067
298.728
300.381
302.026
303.663
305.291
306.911
308.522
310.126
311.721
313.308
314.887
316.457
318.019
319.574
321.12
322.658
324.187
325.709
327.223
328.728
330.226
331.715
333.196
334.67
336.135
337.593
339.042
340.483
341.917
343.343
344.76
346.17
347.572
348.967
350.353
351.732
353.102
354.465
355.821
357.168
358.508
359.84
361.165
362.481
363.791
365.092
366.386
367.672
368.951
370.222
371.486
372.742
373.991
375.232
376.466
377.692
378.911
380.122
381.326
382.523
383.712
384.894
386.069
387.237
388.397
389.55
390.695
391.834
392.965
394.089
395.206
396.316
397.419
398.514
399.603
400.684
401.759
402.826
403.886
404.94
405.986
407.026
408.058
409.084
410.102
411.115
412.119
413.118
414.108
415.095
416.069
417.045
418.003
418.968
419.911
420.862
421.794
422.729
423.653
424.567
425.485
426.379
427.289
428.169
429.064
429.935
430.81
431.677
432.532
433.389
434.232
435.073
435.907
436.733
437.555
438.369
439.177
439.98
440.774
441.564
442.348
443.124
443.896
444.66
445.419
446.171
446.918
447.658
448.392
449.12
449.842
450.558
451.268
451.973
452.671
453.363
454.049
454.73
455.404
456.073
456.736
457.392
458.044
458.689
459.328
459.962
460.59
461.213
461.829
462.44
463.045
463.645
464.239
464.827
465.41
465.987
466.558
467.124
467.685
468.239
468.789
469.333
469.871
470.404
470.932
471.454
471.97
472.482
472.988
473.488
473.983
474.473
474.958
475.437
475.911
476.38
476.843
477.302
477.755
478.203
478.645
479.083
479.515
479.943
480.365
480.782
481.194
481.6
482.002
482.399
482.791
483.177
483.559
483.936
484.308
484.674
485.036
485.393
485.745
486.092
486.434
486.772
487.104
487.432
487.754
488.072
488.386
488.694
488.997
489.296
489.59
489.88
490.164
490.444
490.719
490.989
491.255
491.516
491.773
492.024
492.271
492.514
492.752
492.985
493.213
493.437
493.657
493.872
494.082
494.288
494.489
494.686
494.878
495.065
495.248
495.427
495.601
495.771
495.936
496.097
496.253
496.405
496.552
496.695
496.834
496.968
497.098
497.223
497.344
497.461
497.574
497.682
497.786
497.886
497.982
498.074
498.161
498.244
498.324
498.399
498.471
498.539
498.603
498.663
498.719
498.772
498.822
498.868
498.911
498.951
498.987
499.021
499.052
499.08
499.105
499.128
499.149
499.168
499.184
499.199
499.212
499.223
499.233
499.241
499.249
499.255
499.26
499.264
499.267
499.27
499.272
499.274
499.275
499.276
499.276
499.277
499.277
499.277
499.276
499.276
499.275
499.275
499.274
499.273
499.272
499.272
499.271
499.27
499.269
499.268
499.267
499.266
499.266
499.265
499.264
499.263
499.262
499.261
499.26
499.259
499.258
499.257
499.256
499.255
499.254
499.253
499.252
499.251
499.25
499.249
499.248
499.247
499.246
499.245
499.244
499.243
499.242
499.241
499.24
499.239
499.237
499.236
499.235
499.234
499.233
499.232
499.231
499.23
499.228
499.227
499.226
499.225
499.224
499.222
499.221
499.22
499.219
499.217
499.216
499.215
499.213
499.212
499.211
499.209
499.208
499.207
499.205
499.204
499.203
499.201
499.2
499.198
499.197
499.195
499.194
499.192
499.191
499.189
499.188
499.186
499.185
499.183
499.182
499.18
499.178
499.177
499.175
499.173
499.172
499.17
499.168
499.167
499.165
499.163
499.161
499.16
499.158
499.156
499.154
499.152
499.15
499.149
499.147
499.145
499.143
499.141
499.139
499.137
499.135
499.133
499.131
499.129
499.127
499.125
499.122
499.12
499.118
499.116
499.114
499.111
499.109
499.107
499.105
499.102
499.1
499.097
499.095
499.093
499.09
499.088
499.085
499.082
499.08
499.077
499.075
499.072
499.069
499.066
499.064
499.061
499.058
499.055
499.052
499.049
499.046
499.043
499.04
499.037
499.034
499.031
499.028
499.024
499.021
499.018
499.014
499.011
499.008
499.004
499
498.997
498.993
498.989
498.986
498.982
498.978
498.974
498.97
498.966
498.962
498.958
498.954
498.949
498.945
498.941
498.936
498.932
498.927
498.922
498.918
498.913
498.908
498.903
498.898
498.893
498.887
498.882
498.877
498.871
498.866
498.86
498.854
498.848
498.842
498.836
498.83
498.824
498.817
498.811
498.804
498.797
498.79
498.783
498.776
498.769
498.761
498.754
498.746
498.738
498.73
498.722
498.713
498.704
498.696
498.687
498.677
498.668
498.658
498.649
498.638
498.628
498.618
498.607
498.596
498.584
498.573
498.561
498.549
498.536
498.523
498.51
498.496
498.482
498.468
498.453
498.438
498.422
498.406
498.39
498.373
498.355
498.337
498.318
498.299
498.278
498.258
498.236
498.214
498.191
498.167
498.142
498.116
498.089
498.061
498.032
498.002
497.97
497.937
497.902
497.866
497.828
497.788
497.746
497.701
497.654
497.604
497.55
497.493
497.431
497.366
497.298
497.226
497.152
497.076
496.999
496.92
496.836
496.742
496.631
496.49
496.303
496.047
495.695
495.213
494.562
493.699
492.574
491.141
489.348
487.148
484.499
481.363
477.715
473.537
468.825
463.589
457.853
451.653
445.041
438.078
430.834
423.388
415.821
408.215
400.654
393.213
385.965
378.971
372.287
365.955
360.01
354.476
349.365
344.682
340.425
336.583
333.142
330.08
327.376
325.003
322.935
321.144
319.603
318.285
317.165
316.219
315.425
314.762
314.212
313.758
313.386
313.082
312.835
312.636
312.476
312.348
312.246
312.165
312.101
312.051
312.012
311.981
311.957
311.938
311.923
311.911
311.902
311.895
311.889
311.884
311.881
311.878
311.875
311.873
311.871
311.87
311.868
311.867
311.866
311.866
311.865
311.864
311.864
311.863
311.863
311.862
311.862
311.862
311.861
311.861
311.861
311.861
311.861
311.86
311.86
311.86
311.86
311.86
311.86
311.859
311.859
311.859
311.859
311.859
311.859
311.859
311.858
311.858
311.858
311.858
311.858
311.858
311.858
311.857
311.857
311.857
311.857
311.857
311.857
311.856
311.856
311.856
311.856
311.856
311.856
311.855
311.855
311.855
311.855
311.855
311.855
311.854
311.854
311.854
311.854
311.854
311.854
311.854
311.853
311.853
311.853
311.853
311.853
311.853
311.852
311.852
311.852
311.852
311.852
311.852
311.852
311.852
311.851
311.851
311.851
311.851
311.851
311.851
311.851
311.851
311.851
311.851
311.851
311.851
311.851
311.851
311.85
311.849
311.848
311.846
311.843
311.837
311.829
311.818
311.803
311.783
311.758
311.729
311.695
311.656
311.614
311.57
311.524
311.479
311.435
311.394
311.357
311.325
311.297
311.275
311.257
311.244
311.234
311.227
311.223
311.22
311.218
311.217
311.216
311.216
311.216
311.215
311.215
)
;

boundaryField
{
    sides
    {
        type            calculated;
        value           nonuniform List<scalar> 2(311.215 -2.14016e-08);
    }
    empty
    {
        type            empty;
        value           nonuniform List<scalar> 0();
    }
}


// ************************************************************************* //
