/*--------------------------------*- C++ -*----------------------------------*\
  =========                 |
  \\      /  F ield         | OpenFOAM: The Open Source CFD Toolbox
   \\    /   O peration     | Website:  https://openfoam.org
    \\  /    A nd           | Version:  9
     \\/     M anipulation  |
\*---------------------------------------------------------------------------*/
FoamFile
{
    format      ascii;
    class       volScalarField;
    location    "0.016";
    object      p;
}
// * * * * * * * * * * * * * * * * * * * * * * * * * * * * * * * * * * * * * //

dimensions      [1 -1 -2 0 0 0 0];

internalField   nonuniform List<scalar> 
1000
(
67149.4
67137.3
67129.1
67120.7
67111.6
67102.4
67093.1
67083.6
67074
67064.1
67054
67043.8
67033.3
67022.7
67011.9
67000.9
66989.7
66978.3
66966.7
66954.9
66942.9
66930.7
66918.3
66905.7
66892.8
66879.8
66866.6
66853.1
66839.4
66825.5
66811.4
66797.1
66782.5
66767.7
66752.7
66737.4
66721.9
66706.2
66690.2
66673.9
66657.5
66640.7
66623.7
66606.4
66588.9
66571.1
66553
66534.6
66515.9
66497
66477.7
66458.1
66438.3
66418.1
66397.6
66376.7
66355.6
66334.1
66312.2
66290
66267.4
66244.5
66221.1
66197.4
66173.3
66148.7
66123.8
66098.4
66072.6
66046.3
66019.5
65992.3
65964.6
65936.3
65907.6
65878.3
65848.5
65818.1
65787.1
65755.5
65723.2
65690.4
65656.8
65622.6
65587.7
65552
65515.6
65478.5
65440.5
65401.6
65362
65321.4
65279.9
65237.5
65194.1
65149.7
65104.2
65057.7
65010.1
64961.3
64911.4
64860.2
64807.8
64754.1
64699.1
64642.8
64585
64525.9
64465.2
64403.1
64339.5
64274.2
64207.5
64139
64069
63997.3
63923.9
63848.8
63771.9
63693.3
63613
63530.9
63447.1
63361.5
63274.2
63185.1
63094.3
63001.8
62907.6
62811.8
62714.3
62615.3
62514.6
62412.5
62308.9
62203.9
62097.5
61989.8
61880.9
61770.8
61659.5
61547.2
61433.9
61319.6
61204.4
61088.4
60971.7
60854.3
60736.2
60617.6
60498.4
60378.8
60258.8
60138.4
60017.7
59896.7
59775.5
59654.1
59532.6
59410.9
59289.2
59167.4
59045.7
58923.9
58802.1
58680.4
58558.7
58437.1
58315.7
58194.3
58073.1
57952
57831.1
57710.3
57589.6
57469.2
57348.9
57228.8
57108.9
56989.2
56869.7
56750.3
56631.2
56512.3
56393.6
56275
56156.7
56038.6
55920.7
55803
55685.6
55568.3
55451.2
55334.4
55217.7
55101.3
54985.1
54869.1
54753.3
54637.7
54522.3
54407.1
54292.1
54177.4
54062.8
53948.5
53834.4
53720.5
53606.7
53493.2
53379.9
53266.8
53154
53041.3
52928.8
52816.6
52704.5
52592.7
52481
52369.6
52258.3
52147.3
52036.5
51925.9
51815.4
51705.2
51595.2
51485.4
51375.8
51266.4
51157.2
51048.2
50939.4
50830.8
50722.5
50614.3
50506.3
50398.5
50290.9
50183.5
50076.3
49969.4
49862.6
49756
49649.6
49543.4
49437.4
49331.6
49226.1
49120.7
49015.5
48910.5
48805.7
48701.1
48596.7
48492.4
48388.4
48284.6
48181
48077.6
47974.3
47871.3
47768.5
47665.8
47563.4
47461.1
47359
47257.2
47155.5
47054
46952.7
46851.6
46750.7
46650
46549.5
46449.2
46349.1
46249.1
46149.4
46049.8
45950.4
45851.3
45752.3
45653.5
45554.9
45456.5
45358.2
45260.2
45162.4
45064.7
44967.3
44870
44772.9
44676
44579.3
44482.8
44386.4
44290.3
44194.3
44098.6
44003
43907.6
43812.4
43717.4
43622.6
43527.9
43433.5
43339.2
43245.1
43151.2
43057.5
42964
42870.7
42777.5
42684.5
42591.8
42499.2
42406.8
42314.6
42222.5
42130.7
42039
41947.5
41856.3
41765.2
41674.2
41583.5
41493
41402.6
41312.4
41222.4
41132.6
41043
40953.6
40864.3
40775.3
40686.4
40597.7
40509.2
40420.9
40332.7
40244.8
40157
40069.4
39982.1
39894.9
39807.8
39721
39634.4
39547.9
39461.6
39375.6
39289.7
39204
39118.5
39033.1
38948
38863.1
38778.3
38693.7
38609.4
38525.2
38441.2
38357.4
38273.8
38190.3
38107.1
38024.1
37941.3
37858.6
37776.2
37693.9
37611.9
37530
37448.4
37366.9
37285.7
37204.6
37123.8
37043.1
36962.7
36882.4
36802.4
36722.6
36643
36563.6
36484.4
36405.4
36326.6
36248.1
36169.7
36091.6
36013.7
35936
35858.6
35781.4
35704.4
35627.6
35551.1
35474.8
35398.7
35322.9
35247.3
35171.9
35096.9
35022
34947.4
34873.1
34799
34725.2
34651.7
34578.4
34505.4
34432.7
34360.3
34288.1
34216.3
34144.8
34073.5
34002.6
33932
33861.7
33791.7
33722.1
33652.8
33583.8
33515.2
33447
33379.1
33311.7
33244.6
33177.9
33111.6
33045.7
32980.3
32915.3
32850.7
32786.6
32723
32659.9
32597.2
32535.1
32473.5
32412.5
32352
32292.1
32232.7
32174
32115.9
32058.5
32001.7
31945.6
31890.2
31835.5
31781.6
31728.4
31676
31624.4
31573.7
31523.8
31474.8
31426.7
31379.5
31333.3
31288
31243.7
31200.5
31158.3
31117.1
31077.1
31038.1
31000.3
30963.6
30928.1
30893.7
30860.5
30828.6
30797.8
30768.2
30739.9
30712.8
30686.9
30662.2
30638.7
30616.4
30595.3
30575.4
30556.6
30539
30522.5
30507
30492.6
30479.1
30466.7
30455.2
30444.6
30434.8
30425.9
30417.8
30410.3
30403.6
30397.5
30392
30387
30382.6
30378.6
30375.1
30372
30369.2
30366.8
30364.7
30362.8
30361.2
30359.8
30358.5
30357.5
30356.6
30355.8
30355.1
30354.5
30354
30353.6
30353.3
30353
30352.7
30352.5
30352.3
30352.1
30352
30351.9
30351.8
30351.7
30351.6
30351.6
30351.5
30351.4
30351.4
30351.4
30351.3
30351.3
30351.2
30351.2
30351.2
30351.1
30351.1
30351.1
30351.1
30351
30351
30351
30350.9
30350.9
30350.9
30350.9
30350.8
30350.8
30350.8
30350.8
30350.8
30350.7
30350.7
30350.7
30350.7
30350.7
30350.6
30350.6
30350.6
30350.6
30350.6
30350.6
30350.6
30350.6
30350.6
30350.6
30350.5
30350.5
30350.5
30350.5
30350.5
30350.5
30350.5
30350.5
30350.5
30350.6
30350.6
30350.6
30350.6
30350.6
30350.6
30350.6
30350.6
30350.6
30350.6
30350.6
30350.6
30350.6
30350.6
30350.7
30350.7
30350.7
30350.7
30350.7
30350.7
30350.7
30350.7
30350.7
30350.7
30350.7
30350.7
30350.7
30350.7
30350.7
30350.7
30350.7
30350.7
30350.7
30350.7
30350.7
30350.7
30350.7
30350.7
30350.7
30350.6
30350.6
30350.6
30350.6
30350.6
30350.6
30350.6
30350.6
30350.6
30350.6
30350.6
30350.6
30350.6
30350.6
30350.6
30350.6
30350.6
30350.6
30350.6
30350.6
30350.6
30350.6
30350.6
30350.6
30350.6
30350.5
30350.5
30350.5
30350.5
30350.5
30350.5
30350.5
30350.5
30350.5
30350.5
30350.5
30350.5
30350.5
30350.5
30350.5
30350.5
30350.5
30350.5
30350.5
30350.5
30350.5
30350.5
30350.5
30350.5
30350.5
30350.5
30350.5
30350.5
30350.5
30350.5
30350.5
30350.5
30350.5
30350.4
30350.4
30350.4
30350.4
30350.4
30350.4
30350.4
30350.4
30350.4
30350.4
30350.4
30350.4
30350.4
30350.4
30350.4
30350.4
30350.4
30350.4
30350.4
30350.4
30350.4
30350.4
30350.4
30350.4
30350.4
30350.4
30350.4
30350.4
30350.4
30350.4
30350.4
30350.4
30350.4
30350.4
30350.4
30350.4
30350.4
30350.4
30350.4
30350.4
30350.4
30350.4
30350.4
30350.4
30350.4
30350.3
30350.3
30350.3
30350.3
30350.3
30350.3
30350.3
30350.3
30350.3
30350.3
30350.3
30350.3
30350.3
30350.3
30350.3
30350.3
30350.3
30350.3
30350.3
30350.3
30350.3
30350.3
30350.3
30350.3
30350.3
30350.3
30350.3
30350.3
30350.3
30350.3
30350.3
30350.3
30350.3
30350.3
30350.3
30350.3
30350.3
30350.3
30350.3
30350.3
30350.3
30350.3
30350.3
30350.3
30350.3
30350.3
30350.3
30350.3
30350.3
30350.3
30350.3
30350.3
30350.3
30350.3
30350.3
30350.3
30350.3
30350.3
30350.3
30350.3
30350.3
30350.3
30350.3
30350.2
30350.2
30350.2
30350.2
30350.2
30350.2
30350.2
30350.2
30350.2
30350.2
30350.2
30350.2
30350.2
30350.2
30350.2
30350.2
30350.2
30350.2
30350.2
30350.2
30350.2
30350.2
30350.2
30350.2
30350.2
30350.2
30350.2
30350.2
30350.2
30350.2
30350.2
30350.2
30350.2
30350.2
30350.2
30350.2
30350.2
30350.2
30350.2
30350.2
30350.2
30350.2
30350.2
30350.2
30350.2
30350.2
30350.2
30350.2
30350.2
30350.2
30350.2
30350.2
30350.2
30350.2
30350.2
30350.2
30350.2
30350.2
30350.2
30350.2
30350.2
30350.2
30350.2
30350.2
30350.2
30350.2
30350.2
30350.2
30350.2
30350.2
30350.2
30350.2
30350.2
30350.2
30350.2
30350.2
30350.2
30350.2
30350.2
30350.2
30350.1
30350.1
30350.1
30350.1
30350.1
30350.1
30350.1
30350.1
30350.1
30350.1
30350.1
30350.1
30350.1
30350.1
30350.1
30350.1
30350.1
30350.1
30350.1
30350.1
30350.1
30350.1
30350.1
30350.1
30350.1
30350.1
30350.1
30350.1
30350.1
30350.1
30350.2
30350.2
30350.2
30350.2
30350.2
30350.3
30350.4
30350.4
30350.6
30350.7
30350.9
30351.2
30351.6
30352.1
30352.7
30353.5
30354.5
30355.8
30357.3
30359.2
30361.5
30364.3
30367.5
30371.3
30375.7
30380.8
30386.5
30393
30400.2
30408.1
30416.7
30425.9
30435.8
30446.1
30456.9
30468
30479.4
30490.7
30502
30513.1
30523.8
30534.1
30543.9
30553
30561.4
30569
30575.8
30581.9
30587.2
30591.7
30595.6
30598.8
30601.4
30603.5
30605.2
30606.5
30607.4
30608.2
30608.7
30609
30609.2
30609.3
30609.4
30609.4
30609.3
30609.3
30609.2
30609
30608.9
30608.8
30608.7
30608.5
30608.4
30608.2
30608.1
30607.9
30607.8
30607.6
30607.4
30607.2
30607
30606.8
30606.5
30606.3
30606
30605.8
30605.5
30605.2
30604.9
30604.6
30604.3
30603.9
30603.6
30603.2
30602.8
30602.4
30602
30601.6
30601.4
30601.2
30601.2
30601
)
;

boundaryField
{
    sides
    {
        type            zeroGradient;
    }
    empty
    {
        type            empty;
    }
}


// ************************************************************************* //
