/*--------------------------------*- C++ -*----------------------------------*\
  =========                 |
  \\      /  F ield         | OpenFOAM: The Open Source CFD Toolbox
   \\    /   O peration     | Website:  https://openfoam.org
    \\  /    A nd           | Version:  9
     \\/     M anipulation  |
\*---------------------------------------------------------------------------*/
FoamFile
{
    format      ascii;
    class       volScalarField;
    location    "0.016";
    object      rho;
}
// * * * * * * * * * * * * * * * * * * * * * * * * * * * * * * * * * * * * * //

dimensions      [1 -3 0 0 0 0 0];

internalField   nonuniform List<scalar> 
1000
(
0.750935
0.750689
0.750574
0.750488
0.750416
0.750345
0.750272
0.750196
0.750119
0.750041
0.74996
0.749879
0.749796
0.749711
0.749625
0.749537
0.749448
0.749357
0.749264
0.74917
0.749075
0.748977
0.748879
0.748778
0.748676
0.748572
0.748466
0.748359
0.74825
0.748139
0.748026
0.747912
0.747795
0.747677
0.747557
0.747435
0.747311
0.747186
0.747058
0.746928
0.746796
0.746662
0.746526
0.746388
0.746248
0.746105
0.745961
0.745814
0.745664
0.745513
0.745359
0.745202
0.745043
0.744882
0.744717
0.744551
0.744381
0.744209
0.744034
0.743856
0.743675
0.743491
0.743304
0.743114
0.742921
0.742724
0.742524
0.74232
0.742113
0.741902
0.741688
0.741469
0.741247
0.74102
0.74079
0.740555
0.740315
0.740071
0.739822
0.739568
0.739309
0.739045
0.738776
0.738501
0.73822
0.737934
0.737641
0.737342
0.737037
0.736724
0.736405
0.736079
0.735745
0.735404
0.735054
0.734697
0.734331
0.733956
0.733573
0.73318
0.732777
0.732365
0.731942
0.731509
0.731066
0.730611
0.730145
0.729668
0.729178
0.728676
0.728162
0.727635
0.727096
0.726543
0.725976
0.725396
0.724802
0.724194
0.723572
0.722936
0.722285
0.72162
0.72094
0.720246
0.719537
0.718814
0.718077
0.717325
0.71656
0.715781
0.714988
0.714182
0.713362
0.712531
0.711686
0.71083
0.709962
0.709084
0.708194
0.707294
0.706385
0.705467
0.704539
0.703604
0.70266
0.70171
0.700753
0.699789
0.69882
0.697846
0.696866
0.695883
0.694895
0.693904
0.69291
0.691912
0.690913
0.689911
0.688908
0.687903
0.686896
0.685889
0.684881
0.683873
0.682864
0.681854
0.680845
0.679836
0.678827
0.677818
0.67681
0.675803
0.674796
0.673789
0.672784
0.671779
0.670775
0.669772
0.668771
0.66777
0.66677
0.665771
0.664773
0.663776
0.662781
0.661786
0.660793
0.6598
0.658809
0.657819
0.656831
0.655843
0.654856
0.653871
0.652887
0.651904
0.650922
0.649942
0.648962
0.647984
0.647007
0.646031
0.645057
0.644083
0.643111
0.64214
0.64117
0.640201
0.639234
0.638267
0.637302
0.636338
0.635375
0.634414
0.633452
0.632495
0.631534
0.630582
0.629619
0.628675
0.627706
0.626776
0.625795
0.624884
0.623886
0.622999
0.62198
0.62112
0.62008
0.619242
0.61819
0.617361
0.616315
0.615473
0.614455
0.613582
0.612605
0.611694
0.610756
0.609818
0.608902
0.607958
0.607043
0.606109
0.605186
0.604264
0.603336
0.602419
0.601496
0.600577
0.59966
0.598741
0.597826
0.596911
0.595997
0.595085
0.594173
0.593263
0.592354
0.591446
0.59054
0.589634
0.58873
0.587827
0.586924
0.586024
0.585124
0.584225
0.583328
0.582432
0.581536
0.580642
0.57975
0.578858
0.577967
0.577078
0.57619
0.575303
0.574417
0.573532
0.572648
0.571766
0.570885
0.570005
0.569126
0.568248
0.567371
0.566496
0.565621
0.564748
0.563876
0.563005
0.562135
0.561267
0.560399
0.559533
0.558668
0.557804
0.556941
0.55608
0.555219
0.55436
0.553501
0.552644
0.551789
0.550934
0.55008
0.549228
0.548377
0.547526
0.546678
0.54583
0.544983
0.544138
0.543293
0.54245
0.541608
0.540768
0.539928
0.53909
0.538252
0.537416
0.536581
0.535748
0.534915
0.534084
0.533253
0.532424
0.531597
0.53077
0.529944
0.52912
0.528297
0.527475
0.526654
0.525835
0.525016
0.524199
0.523383
0.522569
0.521755
0.520943
0.520132
0.519322
0.518513
0.517706
0.516899
0.516094
0.515291
0.514488
0.513687
0.512887
0.512088
0.511291
0.510494
0.509699
0.508905
0.508113
0.507322
0.506532
0.505743
0.504956
0.50417
0.503385
0.502601
0.501819
0.501039
0.500259
0.499481
0.498704
0.497929
0.497155
0.496382
0.495611
0.494841
0.494072
0.493305
0.492539
0.491775
0.491012
0.490251
0.489491
0.488733
0.487976
0.48722
0.486466
0.485714
0.484963
0.484214
0.483466
0.48272
0.481976
0.481233
0.480492
0.479752
0.479015
0.478279
0.477544
0.476812
0.476081
0.475352
0.474625
0.473899
0.473176
0.472455
0.471735
0.471018
0.470302
0.469589
0.468878
0.468169
0.467462
0.466757
0.466054
0.465354
0.464656
0.463961
0.463268
0.462578
0.46189
0.461205
0.460522
0.459843
0.459166
0.458492
0.457821
0.457153
0.456488
0.455826
0.455168
0.454513
0.453861
0.453213
0.452569
0.451929
0.451292
0.45066
0.450032
0.449407
0.448788
0.448173
0.447562
0.446957
0.446356
0.44576
0.44517
0.444585
0.444006
0.443433
0.442866
0.442305
0.44175
0.441202
0.440661
0.440127
0.4396
0.43908
0.438569
0.438065
0.437569
0.437082
0.436604
0.436134
0.435674
0.435223
0.434782
0.43435
0.433929
0.433518
0.433118
0.432728
0.43235
0.431982
0.431626
0.431282
0.430949
0.430628
0.430319
0.430022
0.429737
0.429464
0.429204
0.428955
0.428718
0.428493
0.42828
0.428079
0.427889
0.427711
0.427543
0.427386
0.42724
0.427104
0.426977
0.426861
0.426753
0.426653
0.426562
0.426479
0.426403
0.426334
0.426272
0.426215
0.426165
0.426119
0.426078
0.426042
0.42601
0.425981
0.425956
0.425934
0.425914
0.425897
0.425882
0.42587
0.425858
0.425849
0.42584
0.425833
0.425827
0.425821
0.425817
0.425813
0.425809
0.425806
0.425804
0.425801
0.425799
0.425798
0.425796
0.425795
0.425793
0.425792
0.425791
0.42579
0.42579
0.425789
0.425788
0.425787
0.425786
0.425786
0.425785
0.425784
0.425784
0.425783
0.425782
0.425781
0.425781
0.42578
0.425779
0.425779
0.425778
0.425777
0.425777
0.425776
0.425776
0.425775
0.425774
0.425774
0.425773
0.425773
0.425772
0.425771
0.425771
0.42577
0.42577
0.425769
0.425769
0.425768
0.425767
0.425767
0.425766
0.425766
0.425765
0.425765
0.425764
0.425764
0.425764
0.425763
0.425763
0.425762
0.425762
0.425761
0.425761
0.425761
0.42576
0.42576
0.425759
0.425759
0.425759
0.425758
0.425758
0.425757
0.425757
0.425757
0.425756
0.425756
0.425755
0.425755
0.425754
0.425754
0.425754
0.425753
0.425753
0.425752
0.425752
0.425751
0.425751
0.42575
0.42575
0.425749
0.425749
0.425748
0.425747
0.425747
0.425746
0.425746
0.425745
0.425745
0.425744
0.425743
0.425743
0.425742
0.425742
0.425741
0.42574
0.42574
0.425739
0.425739
0.425738
0.425737
0.425737
0.425736
0.425735
0.425735
0.425734
0.425733
0.425733
0.425732
0.425732
0.425731
0.42573
0.425729
0.425729
0.425728
0.425728
0.425727
0.425726
0.425725
0.425725
0.425724
0.425723
0.425723
0.425722
0.425721
0.425721
0.42572
0.425719
0.425718
0.425718
0.425717
0.425716
0.425715
0.425715
0.425714
0.425713
0.425712
0.425712
0.425711
0.42571
0.425709
0.425709
0.425708
0.425707
0.425706
0.425705
0.425705
0.425704
0.425703
0.425702
0.425701
0.4257
0.4257
0.425699
0.425698
0.425697
0.425696
0.425695
0.425694
0.425694
0.425693
0.425692
0.425691
0.42569
0.425689
0.425688
0.425687
0.425686
0.425685
0.425685
0.425684
0.425683
0.425682
0.425681
0.42568
0.425679
0.425678
0.425677
0.425676
0.425675
0.425674
0.425673
0.425672
0.425671
0.42567
0.425669
0.425667
0.425666
0.425665
0.425664
0.425663
0.425662
0.425661
0.42566
0.425659
0.425658
0.425656
0.425655
0.425654
0.425653
0.425652
0.425651
0.425649
0.425648
0.425647
0.425646
0.425644
0.425643
0.425642
0.425641
0.425639
0.425638
0.425637
0.425636
0.425634
0.425633
0.425631
0.42563
0.425629
0.425627
0.425626
0.425625
0.425623
0.425622
0.42562
0.425619
0.425617
0.425616
0.425614
0.425613
0.425611
0.42561
0.425608
0.425607
0.425605
0.425603
0.425602
0.4256
0.425598
0.425597
0.425595
0.425593
0.425592
0.42559
0.425588
0.425586
0.425585
0.425583
0.425581
0.425579
0.425577
0.425575
0.425574
0.425572
0.42557
0.425568
0.425566
0.425564
0.425562
0.42556
0.425558
0.425556
0.425553
0.425551
0.425549
0.425547
0.425545
0.425542
0.42554
0.425538
0.425536
0.425533
0.425531
0.425529
0.425526
0.425524
0.425521
0.425519
0.425516
0.425513
0.425511
0.425508
0.425506
0.425503
0.4255
0.425497
0.425494
0.425492
0.425489
0.425486
0.425483
0.42548
0.425477
0.425474
0.425471
0.425467
0.425464
0.425461
0.425458
0.425454
0.425451
0.425447
0.425444
0.42544
0.425437
0.425433
0.425429
0.425426
0.425422
0.425418
0.425414
0.42541
0.425406
0.425402
0.425398
0.425393
0.425389
0.425385
0.42538
0.425376
0.425371
0.425366
0.425362
0.425357
0.425352
0.425347
0.425342
0.425336
0.425331
0.425325
0.42532
0.425314
0.425309
0.425303
0.425297
0.425291
0.425285
0.425278
0.425272
0.425265
0.425259
0.425252
0.425245
0.425238
0.425231
0.425223
0.425215
0.425208
0.4252
0.425192
0.425183
0.425175
0.425166
0.425157
0.425148
0.425139
0.425129
0.425119
0.425109
0.425099
0.425089
0.425078
0.425067
0.425055
0.425043
0.425031
0.425019
0.425006
0.424993
0.424979
0.424965
0.424951
0.424937
0.424922
0.424906
0.424891
0.424875
0.424859
0.424842
0.424826
0.42481
0.424794
0.424779
0.424765
0.424751
0.42474
0.42473
0.424722
0.424717
0.424714
0.424716
0.424721
0.42473
0.424744
0.424763
0.424788
0.424817
0.424852
0.424893
0.424938
0.424986
0.425038
0.425089
0.425138
0.425181
0.425213
0.425227
0.425214
0.425167
0.425072
0.424916
0.424684
0.424357
0.423917
0.423342
0.42261
0.421697
0.420582
0.419239
0.417649
0.415791
0.413647
0.411204
0.408449
0.40538
0.401993
0.398296
0.394296
0.390011
0.385462
0.380675
0.375682
0.370516
0.365217
0.359823
0.354376
0.348918
0.343489
0.338129
0.332873
0.327756
0.322807
0.318053
0.313515
0.30921
0.305151
0.301347
0.297802
0.294519
0.291491
0.28872
0.286189
0.2839
0.281827
0.279976
0.27831
0.276844
0.275527
0.274393
0.273366
0.272511
0.271715
0.271093
0.270475
0.270045
0.269557
0.269288
0.268887
0.268753
0.268395
)
;

boundaryField
{
    sides
    {
        type            calculated;
        value           nonuniform List<scalar> 2(0.268395 0.750935);
    }
    empty
    {
        type            empty;
    }
}


// ************************************************************************* //
