/*--------------------------------*- C++ -*----------------------------------*\
  =========                 |
  \\      /  F ield         | OpenFOAM: The Open Source CFD Toolbox
   \\    /   O peration     | Website:  https://openfoam.org
    \\  /    A nd           | Version:  9
     \\/     M anipulation  |
\*---------------------------------------------------------------------------*/
FoamFile
{
    format      ascii;
    class       volScalarField;
    location    "0.014";
    object      p;
}
// * * * * * * * * * * * * * * * * * * * * * * * * * * * * * * * * * * * * * //

dimensions      [1 -1 -2 0 0 0 0];

internalField   nonuniform List<scalar> 
10000
(
89343.9
89343.5
89343.3
89343
89342.7
89342.4
89342.1
89341.7
89341.4
89341
89340.7
89340.3
89339.9
89339.5
89339.1
89338.7
89338.3
89337.9
89337.4
89337
89336.5
89336
89335.5
89335
89334.5
89334
89333.5
89332.9
89332.4
89331.8
89331.3
89330.7
89330.1
89329.5
89328.9
89328.2
89327.6
89327
89326.3
89325.6
89324.9
89324.3
89323.6
89322.8
89322.1
89321.4
89320.6
89319.9
89319.1
89318.3
89317.5
89316.7
89315.9
89315.1
89314.2
89313.4
89312.5
89311.7
89310.8
89309.9
89309
89308
89307.1
89306.2
89305.2
89304.2
89303.2
89302.2
89301.2
89300.2
89299.2
89298.1
89297.1
89296
89294.9
89293.8
89292.7
89291.6
89290.4
89289.3
89288.1
89286.9
89285.7
89284.5
89283.3
89282.1
89280.8
89279.6
89278.3
89277
89275.7
89274.4
89273
89271.7
89270.3
89268.9
89267.5
89266.1
89264.7
89263.2
89261.8
89260.3
89258.8
89257.3
89255.8
89254.3
89252.7
89251.1
89249.5
89247.9
89246.3
89244.7
89243
89241.3
89239.6
89237.9
89236.2
89234.4
89232.7
89230.9
89229.1
89227.3
89225.4
89223.6
89221.7
89219.8
89217.9
89215.9
89214
89212
89210
89208
89205.9
89203.8
89201.8
89199.6
89197.5
89195.4
89193.2
89191
89188.8
89186.5
89184.3
89182
89179.6
89177.3
89174.9
89172.5
89170.1
89167.7
89165.2
89162.7
89160.2
89157.7
89155.1
89152.5
89149.9
89147.2
89144.5
89141.8
89139.1
89136.3
89133.5
89130.7
89127.8
89124.9
89122
89119
89116.1
89113
89110
89106.9
89103.8
89100.6
89097.4
89094.2
89091
89087.7
89084.3
89081
89077.6
89074.1
89070.7
89067.1
89063.6
89060
89056.4
89052.7
89049
89045.2
89041.4
89037.6
89033.7
89029.7
89025.8
89021.7
89017.7
89013.5
89009.4
89005.2
89000.9
88996.6
88992.3
88987.8
88983.4
88978.9
88974.3
88969.7
88965
88960.3
88955.5
88950.7
88945.8
88940.9
88935.9
88930.8
88925.7
88920.5
88915.2
88909.9
88904.6
88899.1
88893.6
88888.1
88882.4
88876.7
88871
88865.1
88859.2
88853.2
88847.2
88841.1
88834.9
88828.6
88822.3
88815.9
88809.4
88802.8
88796.1
88789.4
88782.6
88775.7
88768.7
88761.7
88754.5
88747.3
88740
88732.6
88725.1
88717.5
88709.8
88702.1
88694.2
88686.3
88678.2
88670.1
88661.8
88653.5
88645.1
88636.6
88627.9
88619.2
88610.4
88601.4
88592.4
88583.3
88574
88564.7
88555.2
88545.7
88536
88526.2
88516.3
88506.3
88496.2
88486
88475.7
88465.2
88454.7
88444
88433.2
88422.3
88411.3
88400.1
88388.9
88377.5
88366
88354.4
88342.7
88330.8
88318.9
88306.8
88294.6
88282.3
88269.8
88257.3
88244.6
88231.8
88218.9
88205.8
88192.7
88179.4
88166
88152.5
88138.9
88125.2
88111.3
88097.3
88083.2
88069
88054.7
88040.3
88025.7
88011.1
87996.3
87981.4
87966.4
87951.3
87936.1
87920.8
87905.4
87889.8
87874.2
87858.5
87842.6
87826.7
87810.7
87794.6
87778.3
87762
87745.6
87729.1
87712.5
87695.8
87679
87662.2
87645.2
87628.2
87611.1
87593.9
87576.6
87559.3
87541.9
87524.4
87506.8
87489.2
87471.5
87453.7
87435.9
87418
87400
87382
87363.9
87345.8
87327.6
87309.4
87291.1
87272.7
87254.3
87235.9
87217.4
87198.9
87180.3
87161.7
87143
87124.3
87105.6
87086.8
87068
87049.2
87030.3
87011.4
86992.4
86973.5
86954.5
86935.5
86916.4
86897.4
86878.3
86859.2
86840
86820.9
86801.7
86782.5
86763.3
86744.1
86724.9
86705.6
86686.4
86667.1
86647.8
86628.5
86609.2
86589.9
86570.5
86551.2
86531.8
86512.5
86493.1
86473.7
86454.4
86435
86415.6
86396.2
86376.8
86357.4
86338
86318.6
86299.2
86279.8
86260.4
86240.9
86221.5
86202.1
86182.7
86163.3
86143.8
86124.4
86105
86085.6
86066.1
86046.7
86027.3
86007.9
85988.5
85969.1
85949.6
85930.2
85910.8
85891.4
85872
85852.6
85833.2
85813.8
85794.4
85775
85755.6
85736.2
85716.8
85697.4
85678
85658.6
85639.3
85619.9
85600.5
85581.1
85561.8
85542.4
85523
85503.7
85484.3
85465
85445.6
85426.3
85406.9
85387.6
85368.3
85348.9
85329.6
85310.3
85291
85271.6
85252.3
85233
85213.7
85194.4
85175.1
85155.8
85136.5
85117.2
85097.9
85078.6
85059.3
85040.1
85020.8
85001.5
84982.2
84963
84943.7
84924.4
84905.2
84885.9
84866.7
84847.4
84828.2
84809
84789.7
84770.5
84751.3
84732.1
84712.8
84693.6
84674.4
84655.2
84636
84616.8
84597.6
84578.4
84559.2
84540
84520.8
84501.6
84482.5
84463.3
84444.1
84425
84405.8
84386.6
84367.5
84348.3
84329.2
84310
84290.9
84271.7
84252.6
84233.5
84214.3
84195.2
84176.1
84157
84137.9
84118.8
84099.6
84080.5
84061.4
84042.3
84023.2
84004.2
83985.1
83966
83946.9
83927.8
83908.8
83889.7
83870.6
83851.6
83832.5
83813.5
83794.4
83775.4
83756.3
83737.3
83718.2
83699.2
83680.2
83661.1
83642.1
83623.1
83604.1
83585.1
83566.1
83547.1
83528.1
83509.1
83490.1
83471.1
83452.1
83433.1
83414.1
83395.1
83376.2
83357.2
83338.2
83319.3
83300.3
83281.4
83262.4
83243.5
83224.5
83205.6
83186.6
83167.7
83148.8
83129.8
83110.9
83092
83073.1
83054.2
83035.2
83016.3
82997.4
82978.5
82959.6
82940.8
82921.9
82903
82884.1
82865.2
82846.3
82827.5
82808.6
82789.7
82770.9
82752
82733.2
82714.3
82695.5
82676.6
82657.8
82639
82620.1
82601.3
82582.5
82563.7
82544.8
82526
82507.2
82488.4
82469.6
82450.8
82432
82413.2
82394.4
82375.6
82356.8
82338.1
82319.3
82300.5
82281.8
82263
82244.2
82225.5
82206.7
82188
82169.2
82150.5
82131.7
82113
82094.3
82075.5
82056.8
82038.1
82019.4
82000.6
81981.9
81963.2
81944.5
81925.8
81907.1
81888.4
81869.7
81851
81832.4
81813.7
81795
81776.3
81757.7
81739
81720.3
81701.7
81683
81664.4
81645.7
81627.1
81608.4
81589.8
81571.2
81552.5
81533.9
81515.3
81496.7
81478
81459.4
81440.8
81422.2
81403.6
81385
81366.4
81347.8
81329.2
81310.6
81292.1
81273.5
81254.9
81236.3
81217.8
81199.2
81180.7
81162.1
81143.5
81125
81106.4
81087.9
81069.4
81050.8
81032.3
81013.8
80995.2
80976.7
80958.2
80939.7
80921.2
80902.7
80884.2
80865.7
80847.2
80828.7
80810.2
80791.7
80773.2
80754.7
80736.3
80717.8
80699.3
80680.9
80662.4
80643.9
80625.5
80607
80588.6
80570.1
80551.7
80533.3
80514.8
80496.4
80478
80459.5
80441.1
80422.7
80404.3
80385.9
80367.5
80349.1
80330.7
80312.3
80293.9
80275.5
80257.1
80238.7
80220.4
80202
80183.6
80165.3
80146.9
80128.5
80110.2
80091.8
80073.5
80055.1
80036.8
80018.4
80000.1
79981.8
79963.4
79945.1
79926.8
79908.5
79890.2
79871.9
79853.6
79835.2
79816.9
79798.7
79780.4
79762.1
79743.8
79725.5
79707.2
79688.9
79670.7
79652.4
79634.1
79615.9
79597.6
79579.4
79561.1
79542.9
79524.6
79506.4
79488.1
79469.9
79451.7
79433.5
79415.2
79397
79378.8
79360.6
79342.4
79324.2
79306
79287.8
79269.6
79251.4
79233.2
79215
79196.8
79178.6
79160.5
79142.3
79124.1
79106
79087.8
79069.7
79051.5
79033.4
79015.2
78997.1
78978.9
78960.8
78942.7
78924.5
78906.4
78888.3
78870.2
78852
78833.9
78815.8
78797.7
78779.6
78761.5
78743.4
78725.3
78707.3
78689.2
78671.1
78653
78634.9
78616.9
78598.8
78580.7
78562.7
78544.6
78526.6
78508.5
78490.5
78472.4
78454.4
78436.4
78418.3
78400.3
78382.3
78364.3
78346.3
78328.2
78310.2
78292.2
78274.2
78256.2
78238.2
78220.2
78202.2
78184.3
78166.3
78148.3
78130.3
78112.3
78094.4
78076.4
78058.5
78040.5
78022.5
78004.6
77986.6
77968.7
77950.8
77932.8
77914.9
77897
77879
77861.1
77843.2
77825.3
77807.4
77789.4
77771.5
77753.6
77735.7
77717.8
77700
77682.1
77664.2
77646.3
77628.4
77610.5
77592.7
77574.8
77556.9
77539.1
77521.2
77503.4
77485.5
77467.7
77449.8
77432
77414.2
77396.3
77378.5
77360.7
77342.8
77325
77307.2
77289.4
77271.6
77253.8
77236
77218.2
77200.4
77182.6
77164.8
77147
77129.2
77111.5
77093.7
77075.9
77058.1
77040.4
77022.6
77004.9
76987.1
76969.4
76951.6
76933.9
76916.1
76898.4
76880.7
76862.9
76845.2
76827.5
76809.8
76792
76774.3
76756.6
76738.9
76721.2
76703.5
76685.8
76668.1
76650.4
76632.8
76615.1
76597.4
76579.7
76562.1
76544.4
76526.7
76509.1
76491.4
76473.8
76456.1
76438.5
76420.8
76403.2
76385.5
76367.9
76350.3
76332.6
76315
76297.4
76279.8
76262.2
76244.6
76227
76209.4
76191.8
76174.2
76156.6
76139
76121.4
76103.8
76086.2
76068.7
76051.1
76033.5
76016
75998.4
75980.8
75963.3
75945.7
75928.2
75910.7
75893.1
75875.6
75858
75840.5
75823
75805.5
75787.9
75770.4
75752.9
75735.4
75717.9
75700.4
75682.9
75665.4
75647.9
75630.4
75612.9
75595.4
75578
75560.5
75543
75525.6
75508.1
75490.6
75473.2
75455.7
75438.3
75420.8
75403.4
75385.9
75368.5
75351.1
75333.6
75316.2
75298.8
75281.4
75263.9
75246.5
75229.1
75211.7
75194.3
75176.9
75159.5
75142.1
75124.7
75107.3
75090
75072.6
75055.2
75037.8
75020.5
75003.1
74985.7
74968.4
74951
74933.7
74916.3
74899
74881.6
74864.3
74846.9
74829.6
74812.3
74795
74777.6
74760.3
74743
74725.7
74708.4
74691.1
74673.8
74656.5
74639.2
74621.9
74604.6
74587.3
74570
74552.8
74535.5
74518.2
74500.9
74483.7
74466.4
74449.2
74431.9
74414.7
74397.4
74380.2
74362.9
74345.7
74328.5
74311.2
74294
74276.8
74259.6
74242.3
74225.1
74207.9
74190.7
74173.5
74156.3
74139.1
74121.9
74104.7
74087.5
74070.4
74053.2
74036
74018.8
74001.7
73984.5
73967.3
73950.2
73933
73915.9
73898.7
73881.6
73864.4
73847.3
73830.1
73813
73795.9
73778.8
73761.6
73744.5
73727.4
73710.3
73693.2
73676.1
73659
73641.9
73624.8
73607.7
73590.6
73573.5
73556.4
73539.4
73522.3
73505.2
73488.1
73471.1
73454
73437
73419.9
73402.8
73385.8
73368.8
73351.7
73334.7
73317.6
73300.6
73283.6
73266.6
73249.5
73232.5
73215.5
73198.5
73181.5
73164.5
73147.5
73130.5
73113.5
73096.5
73079.5
73062.5
73045.5
73028.6
73011.6
72994.6
72977.7
72960.7
72943.7
72926.8
72909.8
72892.9
72875.9
72859
72842
72825.1
72808.2
72791.2
72774.3
72757.4
72740.5
72723.5
72706.6
72689.7
72672.8
72655.9
72639
72622.1
72605.2
72588.3
72571.4
72554.5
72537.7
72520.8
72503.9
72487
72470.2
72453.3
72436.5
72419.6
72402.7
72385.9
72369
72352.2
72335.4
72318.5
72301.7
72284.9
72268
72251.2
72234.4
72217.6
72200.8
72183.9
72167.1
72150.3
72133.5
72116.7
72099.9
72083.1
72066.4
72049.6
72032.8
72016
71999.2
71982.5
71965.7
71948.9
71932.2
71915.4
71898.7
71881.9
71865.2
71848.4
71831.7
71814.9
71798.2
71781.5
71764.8
71748
71731.3
71714.6
71697.9
71681.2
71664.5
71647.8
71631
71614.4
71597.7
71581
71564.3
71547.6
71530.9
71514.2
71497.6
71480.9
71464.2
71447.6
71430.9
71414.2
71397.6
71380.9
71364.3
71347.6
71331
71314.4
71297.7
71281.1
71264.5
71247.8
71231.2
71214.6
71198
71181.4
71164.8
71148.2
71131.6
71115
71098.4
71081.8
71065.2
71048.6
71032
71015.4
70998.9
70982.3
70965.7
70949.1
70932.6
70916
70899.5
70882.9
70866.4
70849.8
70833.3
70816.7
70800.2
70783.7
70767.1
70750.6
70734.1
70717.6
70701.1
70684.5
70668
70651.5
70635
70618.5
70602
70585.5
70569
70552.6
70536.1
70519.6
70503.1
70486.6
70470.2
70453.7
70437.2
70420.8
70404.3
70387.9
70371.4
70355
70338.5
70322.1
70305.6
70289.2
70272.8
70256.3
70239.9
70223.5
70207.1
70190.7
70174.3
70157.8
70141.4
70125
70108.6
70092.2
70075.9
70059.5
70043.1
70026.7
70010.3
69993.9
69977.6
69961.2
69944.8
69928.5
69912.1
69895.8
69879.4
69863.1
69846.7
69830.4
69814
69797.7
69781.4
69765
69748.7
69732.4
69716.1
69699.7
69683.4
69667.1
69650.8
69634.5
69618.2
69601.9
69585.6
69569.3
69553
69536.7
69520.5
69504.2
69487.9
69471.6
69455.4
69439.1
69422.8
69406.6
69390.3
69374.1
69357.8
69341.6
69325.3
69309.1
69292.9
69276.6
69260.4
69244.2
69228
69211.7
69195.5
69179.3
69163.1
69146.9
69130.7
69114.5
69098.3
69082.1
69065.9
69049.7
69033.5
69017.4
69001.2
68985
68968.8
68952.7
68936.5
68920.3
68904.2
68888
68871.9
68855.7
68839.6
68823.4
68807.3
68791.2
68775
68758.9
68742.8
68726.7
68710.5
68694.4
68678.3
68662.2
68646.1
68630
68613.9
68597.8
68581.7
68565.6
68549.5
68533.4
68517.3
68501.3
68485.2
68469.1
68453.1
68437
68420.9
68404.9
68388.8
68372.8
68356.7
68340.7
68324.6
68308.6
68292.6
68276.5
68260.5
68244.5
68228.4
68212.4
68196.4
68180.4
68164.4
68148.4
68132.4
68116.4
68100.4
68084.4
68068.4
68052.4
68036.4
68020.4
68004.5
67988.5
67972.5
67956.5
67940.6
67924.6
67908.7
67892.7
67876.8
67860.8
67844.9
67828.9
67813
67797
67781.1
67765.2
67749.2
67733.3
67717.4
67701.5
67685.6
67669.7
67653.8
67637.8
67621.9
67606
67590.2
67574.3
67558.4
67542.5
67526.6
67510.7
67494.8
67479
67463.1
67447.2
67431.4
67415.5
67399.7
67383.8
67368
67352.1
67336.3
67320.4
67304.6
67288.8
67272.9
67257.1
67241.3
67225.4
67209.6
67193.8
67178
67162.2
67146.4
67130.6
67114.8
67099
67083.2
67067.4
67051.6
67035.8
67020.1
67004.3
66988.5
66972.7
66957
66941.2
66925.4
66909.7
66893.9
66878.2
66862.4
66846.7
66830.9
66815.2
66799.5
66783.7
66768
66752.3
66736.5
66720.8
66705.1
66689.4
66673.7
66658
66642.3
66626.6
66610.9
66595.2
66579.5
66563.8
66548.1
66532.4
66516.7
66501.1
66485.4
66469.7
66454.1
66438.4
66422.7
66407.1
66391.4
66375.8
66360.1
66344.5
66328.8
66313.2
66297.6
66281.9
66266.3
66250.7
66235.1
66219.4
66203.8
66188.2
66172.6
66157
66141.4
66125.8
66110.2
66094.6
66079
66063.4
66047.8
66032.3
66016.7
66001.1
65985.5
65970
65954.4
65938.8
65923.3
65907.7
65892.2
65876.6
65861.1
65845.5
65830
65814.4
65798.9
65783.4
65767.8
65752.3
65736.8
65721.3
65705.8
65690.2
65674.7
65659.2
65643.7
65628.2
65612.7
65597.2
65581.7
65566.3
65550.8
65535.3
65519.8
65504.3
65488.9
65473.4
65457.9
65442.5
65427
65411.6
65396.1
65380.7
65365.2
65349.8
65334.3
65318.9
65303.4
65288
65272.6
65257.2
65241.7
65226.3
65210.9
65195.5
65180.1
65164.7
65149.3
65133.9
65118.5
65103.1
65087.7
65072.3
65056.9
65041.5
65026.2
65010.8
64995.4
64980
64964.7
64949.3
64933.9
64918.6
64903.2
64887.9
64872.5
64857.2
64841.9
64826.5
64811.2
64795.8
64780.5
64765.2
64749.9
64734.6
64719.2
64703.9
64688.6
64673.3
64658
64642.7
64627.4
64612.1
64596.8
64581.5
64566.2
64551
64535.7
64520.4
64505.1
64489.9
64474.6
64459.3
64444.1
64428.8
64413.6
64398.3
64383.1
64367.8
64352.6
64337.3
64322.1
64306.9
64291.6
64276.4
64261.2
64246
64230.7
64215.5
64200.3
64185.1
64169.9
64154.7
64139.5
64124.3
64109.1
64093.9
64078.7
64063.5
64048.4
64033.2
64018
64002.8
63987.7
63972.5
63957.3
63942.2
63927
63911.9
63896.7
63881.6
63866.4
63851.3
63836.2
63821
63805.9
63790.8
63775.6
63760.5
63745.4
63730.3
63715.2
63700.1
63684.9
63669.8
63654.7
63639.6
63624.5
63609.5
63594.4
63579.3
63564.2
63549.1
63534
63519
63503.9
63488.8
63473.8
63458.7
63443.7
63428.6
63413.5
63398.5
63383.4
63368.4
63353.4
63338.3
63323.3
63308.3
63293.2
63278.2
63263.2
63248.2
63233.2
63218.1
63203.1
63188.1
63173.1
63158.1
63143.1
63128.1
63113.1
63098.2
63083.2
63068.2
63053.2
63038.2
63023.3
63008.3
62993.3
62978.4
62963.4
62948.4
62933.5
62918.5
62903.6
62888.6
62873.7
62858.8
62843.8
62828.9
62814
62799
62784.1
62769.2
62754.3
62739.4
62724.4
62709.5
62694.6
62679.7
62664.8
62649.9
62635
62620.1
62605.3
62590.4
62575.5
62560.6
62545.7
62530.9
62516
62501.1
62486.3
62471.4
62456.5
62441.7
62426.8
62412
62397.1
62382.3
62367.5
62352.6
62337.8
62323
62308.1
62293.3
62278.5
62263.7
62248.9
62234
62219.2
62204.4
62189.6
62174.8
62160
62145.2
62130.4
62115.7
62100.9
62086.1
62071.3
62056.5
62041.8
62027
62012.2
61997.5
61982.7
61967.9
61953.2
61938.4
61923.7
61908.9
61894.2
61879.5
61864.7
61850
61835.3
61820.5
61805.8
61791.1
61776.4
61761.6
61746.9
61732.2
61717.5
61702.8
61688.1
61673.4
61658.7
61644
61629.3
61614.6
61600
61585.3
61570.6
61555.9
61541.3
61526.6
61511.9
61497.3
61482.6
61468
61453.3
61438.7
61424
61409.4
61394.7
61380.1
61365.4
61350.8
61336.2
61321.6
61306.9
61292.3
61277.7
61263.1
61248.5
61233.9
61219.3
61204.7
61190.1
61175.5
61160.9
61146.3
61131.7
61117.1
61102.5
61087.9
61073.4
61058.8
61044.2
61029.7
61015.1
61000.5
60986
60971.4
60956.9
60942.3
60927.8
60913.2
60898.7
60884.2
60869.6
60855.1
60840.6
60826
60811.5
60797
60782.5
60768
60753.5
60739
60724.4
60709.9
60695.4
60681
60666.5
60652
60637.5
60623
60608.5
60594
60579.6
60565.1
60550.6
60536.2
60521.7
60507.2
60492.8
60478.3
60463.9
60449.4
60435
60420.5
60406.1
60391.7
60377.2
60362.8
60348.4
60334
60319.5
60305.1
60290.7
60276.3
60261.9
60247.5
60233.1
60218.7
60204.3
60189.9
60175.5
60161.1
60146.7
60132.3
60117.9
60103.6
60089.2
60074.8
60060.5
60046.1
60031.7
60017.4
60003
59988.7
59974.3
59960
59945.6
59931.3
59916.9
59902.6
59888.3
59873.9
59859.6
59845.3
59831
59816.6
59802.3
59788
59773.7
59759.4
59745.1
59730.8
59716.5
59702.2
59687.9
59673.6
59659.3
59645.1
59630.8
59616.5
59602.2
59587.9
59573.7
59559.4
59545.2
59530.9
59516.6
59502.4
59488.1
59473.9
59459.6
59445.4
59431.2
59416.9
59402.7
59388.5
59374.2
59360
59345.8
59331.6
59317.3
59303.1
59288.9
59274.7
59260.5
59246.3
59232.1
59217.9
59203.7
59189.5
59175.3
59161.2
59147
59132.8
59118.6
59104.5
59090.3
59076.1
59062
59047.8
59033.6
59019.5
59005.3
58991.2
58977
58962.9
58948.8
58934.6
58920.5
58906.3
58892.2
58878.1
58864
58849.9
58835.7
58821.6
58807.5
58793.4
58779.3
58765.2
58751.1
58737
58722.9
58708.8
58694.7
58680.6
58666.6
58652.5
58638.4
58624.3
58610.3
58596.2
58582.1
58568.1
58554
58539.9
58525.9
58511.8
58497.8
58483.8
58469.7
58455.7
58441.6
58427.6
58413.6
58399.5
58385.5
58371.5
58357.5
58343.5
58329.5
58315.4
58301.4
58287.4
58273.4
58259.4
58245.4
58231.4
58217.5
58203.5
58189.5
58175.5
58161.5
58147.5
58133.6
58119.6
58105.6
58091.7
58077.7
58063.8
58049.8
58035.8
58021.9
58007.9
57994
57980.1
57966.1
57952.2
57938.3
57924.3
57910.4
57896.5
57882.6
57868.6
57854.7
57840.8
57826.9
57813
57799.1
57785.2
57771.3
57757.4
57743.5
57729.6
57715.7
57701.8
57688
57674.1
57660.2
57646.3
57632.5
57618.6
57604.7
57590.9
57577
57563.2
57549.3
57535.5
57521.6
57507.8
57493.9
57480.1
57466.3
57452.4
57438.6
57424.8
57411
57397.1
57383.3
57369.5
57355.7
57341.9
57328.1
57314.3
57300.5
57286.7
57272.9
57259.1
57245.3
57231.5
57217.7
57203.9
57190.2
57176.4
57162.6
57148.8
57135.1
57121.3
57107.6
57093.8
57080
57066.3
57052.5
57038.8
57025
57011.3
56997.6
56983.8
56970.1
56956.4
56942.6
56928.9
56915.2
56901.5
56887.8
56874
56860.3
56846.6
56832.9
56819.2
56805.5
56791.8
56778.1
56764.4
56750.8
56737.1
56723.4
56709.7
56696
56682.4
56668.7
56655
56641.4
56627.7
56614
56600.4
56586.7
56573.1
56559.4
56545.8
56532.1
56518.5
56504.9
56491.2
56477.6
56464
56450.4
56436.7
56423.1
56409.5
56395.9
56382.3
56368.7
56355.1
56341.5
56327.9
56314.3
56300.7
56287.1
56273.5
56259.9
56246.3
56232.7
56219.2
56205.6
56192
56178.4
56164.9
56151.3
56137.8
56124.2
56110.6
56097.1
56083.5
56070
56056.5
56042.9
56029.4
56015.8
56002.3
55988.8
55975.2
55961.7
55948.2
55934.7
55921.2
55907.7
55894.1
55880.6
55867.1
55853.6
55840.1
55826.6
55813.1
55799.7
55786.2
55772.7
55759.2
55745.7
55732.2
55718.8
55705.3
55691.8
55678.4
55664.9
55651.4
55638
55624.5
55611.1
55597.6
55584.2
55570.7
55557.3
55543.9
55530.4
55517
55503.6
55490.1
55476.7
55463.3
55449.9
55436.5
55423.1
55409.6
55396.2
55382.8
55369.4
55356
55342.6
55329.2
55315.9
55302.5
55289.1
55275.7
55262.3
55248.9
55235.6
55222.2
55208.8
55195.5
55182.1
55168.8
55155.4
55142
55128.7
55115.3
55102
55088.7
55075.3
55062
55048.6
55035.3
55022
55008.7
54995.3
54982
54968.7
54955.4
54942.1
54928.8
54915.4
54902.1
54888.8
54875.5
54862.2
54849
54835.7
54822.4
54809.1
54795.8
54782.5
54769.3
54756
54742.7
54729.4
54716.2
54702.9
54689.7
54676.4
54663.1
54649.9
54636.6
54623.4
54610.1
54596.9
54583.7
54570.4
54557.2
54544
54530.7
54517.5
54504.3
54491.1
54477.9
54464.7
54451.4
54438.2
54425
54411.8
54398.6
54385.4
54372.2
54359
54345.9
54332.7
54319.5
54306.3
54293.1
54280
54266.8
54253.6
54240.4
54227.3
54214.1
54201
54187.8
54174.7
54161.5
54148.4
54135.2
54122.1
54108.9
54095.8
54082.7
54069.5
54056.4
54043.3
54030.2
54017
54003.9
53990.8
53977.7
53964.6
53951.5
53938.4
53925.3
53912.2
53899.1
53886
53872.9
53859.8
53846.7
53833.6
53820.6
53807.5
53794.4
53781.3
53768.3
53755.2
53742.1
53729.1
53716
53703
53689.9
53676.9
53663.8
53650.8
53637.7
53624.7
53611.7
53598.6
53585.6
53572.6
53559.6
53546.5
53533.5
53520.5
53507.5
53494.5
53481.5
53468.5
53455.5
53442.5
53429.5
53416.5
53403.5
53390.5
53377.5
53364.5
53351.5
53338.6
53325.6
53312.6
53299.6
53286.7
53273.7
53260.7
53247.8
53234.8
53221.9
53208.9
53196
53183
53170.1
53157.1
53144.2
53131.3
53118.3
53105.4
53092.5
53079.6
53066.6
53053.7
53040.8
53027.9
53015
53002.1
52989.2
52976.3
52963.4
52950.5
52937.6
52924.7
52911.8
52898.9
52886
52873.1
52860.3
52847.4
52834.5
52821.6
52808.8
52795.9
52783
52770.2
52757.3
52744.5
52731.6
52718.8
52705.9
52693.1
52680.2
52667.4
52654.6
52641.7
52628.9
52616.1
52603.2
52590.4
52577.6
52564.8
52552
52539.2
52526.4
52513.5
52500.7
52487.9
52475.1
52462.4
52449.6
52436.8
52424
52411.2
52398.4
52385.6
52372.9
52360.1
52347.3
52334.5
52321.8
52309
52296.3
52283.5
52270.7
52258
52245.2
52232.5
52219.7
52207
52194.3
52181.5
52168.8
52156.1
52143.3
52130.6
52117.9
52105.2
52092.4
52079.7
52067
52054.3
52041.6
52028.9
52016.2
52003.5
51990.8
51978.1
51965.4
51952.7
51940
51927.4
51914.7
51902
51889.3
51876.7
51864
51851.3
51838.7
51826
51813.3
51800.7
51788
51775.4
51762.7
51750.1
51737.4
51724.8
51712.2
51699.5
51686.9
51674.3
51661.6
51649
51636.4
51623.8
51611.1
51598.5
51585.9
51573.3
51560.7
51548.1
51535.5
51522.9
51510.3
51497.7
51485.1
51472.5
51459.9
51447.4
51434.8
51422.2
51409.6
51397.1
51384.5
51371.9
51359.4
51346.8
51334.2
51321.7
51309.1
51296.6
51284
51271.5
51258.9
51246.4
51233.9
51221.3
51208.8
51196.3
51183.7
51171.2
51158.7
51146.2
51133.7
51121.1
51108.6
51096.1
51083.6
51071.1
51058.6
51046.1
51033.6
51021.1
51008.6
50996.1
50983.7
50971.2
50958.7
50946.2
50933.8
50921.3
50908.8
50896.3
50883.9
50871.4
50859
50846.5
50834
50821.6
50809.1
50796.7
50784.3
50771.8
50759.4
50746.9
50734.5
50722.1
50709.7
50697.2
50684.8
50672.4
50660
50647.6
50635.1
50622.7
50610.3
50597.9
50585.5
50573.1
50560.7
50548.3
50535.9
50523.6
50511.2
50498.8
50486.4
50474
50461.7
50449.3
50436.9
50424.5
50412.2
50399.8
50387.5
50375.1
50362.7
50350.4
50338
50325.7
50313.4
50301
50288.7
50276.3
50264
50251.7
50239.3
50227
50214.7
50202.4
50190.1
50177.7
50165.4
50153.1
50140.8
50128.5
50116.2
50103.9
50091.6
50079.3
50067
50054.7
50042.4
50030.2
50017.9
50005.6
49993.3
49981.1
49968.8
49956.5
49944.2
49932
49919.7
49907.5
49895.2
49883
49870.7
49858.5
49846.2
49834
49821.7
49809.5
49797.3
49785
49772.8
49760.6
49748.3
49736.1
49723.9
49711.7
49699.5
49687.3
49675
49662.8
49650.6
49638.4
49626.2
49614
49601.8
49589.7
49577.5
49565.3
49553.1
49540.9
49528.7
49516.6
49504.4
49492.2
49480
49467.9
49455.7
49443.6
49431.4
49419.2
49407.1
49394.9
49382.8
49370.6
49358.5
49346.4
49334.2
49322.1
49310
49297.8
49285.7
49273.6
49261.5
49249.3
49237.2
49225.1
49213
49200.9
49188.8
49176.7
49164.6
49152.5
49140.4
49128.3
49116.2
49104.1
49092
49079.9
49067.9
49055.8
49043.7
49031.6
49019.6
49007.5
48995.4
48983.4
48971.3
48959.2
48947.2
48935.1
48923.1
48911
48899
48886.9
48874.9
48862.9
48850.8
48838.8
48826.8
48814.7
48802.7
48790.7
48778.7
48766.7
48754.6
48742.6
48730.6
48718.6
48706.6
48694.6
48682.6
48670.6
48658.6
48646.6
48634.6
48622.7
48610.7
48598.7
48586.7
48574.7
48562.8
48550.8
48538.8
48526.9
48514.9
48502.9
48491
48479
48467.1
48455.1
48443.2
48431.2
48419.3
48407.3
48395.4
48383.5
48371.5
48359.6
48347.7
48335.7
48323.8
48311.9
48300
48288.1
48276.1
48264.2
48252.3
48240.4
48228.5
48216.6
48204.7
48192.8
48180.9
48169
48157.1
48145.3
48133.4
48121.5
48109.6
48097.7
48085.9
48074
48062.1
48050.3
48038.4
48026.5
48014.7
48002.8
47991
47979.1
47967.3
47955.4
47943.6
47931.8
47919.9
47908.1
47896.3
47884.4
47872.6
47860.8
47848.9
47837.1
47825.3
47813.5
47801.7
47789.9
47778.1
47766.3
47754.5
47742.7
47730.9
47719.1
47707.3
47695.5
47683.7
47671.9
47660.1
47648.3
47636.6
47624.8
47613
47601.3
47589.5
47577.7
47566
47554.2
47542.4
47530.7
47518.9
47507.2
47495.4
47483.7
47471.9
47460.2
47448.5
47436.7
47425
47413.3
47401.5
47389.8
47378.1
47366.4
47354.7
47342.9
47331.2
47319.5
47307.8
47296.1
47284.4
47272.7
47261
47249.3
47237.6
47225.9
47214.2
47202.6
47190.9
47179.2
47167.5
47155.8
47144.2
47132.5
47120.8
47109.2
47097.5
47085.9
47074.2
47062.5
47050.9
47039.2
47027.6
47015.9
47004.3
46992.7
46981
46969.4
46957.8
46946.1
46934.5
46922.9
46911.2
46899.6
46888
46876.4
46864.8
46853.2
46841.6
46830
46818.4
46806.8
46795.2
46783.6
46772
46760.4
46748.8
46737.2
46725.6
46714
46702.5
46690.9
46679.3
46667.7
46656.2
46644.6
46633
46621.5
46609.9
46598.4
46586.8
46575.3
46563.7
46552.2
46540.6
46529.1
46517.5
46506
46494.5
46482.9
46471.4
46459.9
46448.4
46436.8
46425.3
46413.8
46402.3
46390.8
46379.3
46367.8
46356.3
46344.8
46333.3
46321.8
46310.3
46298.8
46287.3
46275.8
46264.3
46252.8
46241.3
46229.9
46218.4
46206.9
46195.4
46184
46172.5
46161.1
46149.6
46138.1
46126.7
46115.2
46103.8
46092.3
46080.9
46069.4
46058
46046.6
46035.1
46023.7
46012.3
46000.8
45989.4
45978
45966.6
45955.1
45943.7
45932.3
45920.9
45909.5
45898.1
45886.7
45875.3
45863.9
45852.5
45841.1
45829.7
45818.3
45806.9
45795.5
45784.2
45772.8
45761.4
45750
45738.6
45727.3
45715.9
45704.5
45693.2
45681.8
45670.5
45659.1
45647.8
45636.4
45625.1
45613.7
45602.4
45591
45579.7
45568.4
45557
45545.7
45534.4
45523
45511.7
45500.4
45489.1
45477.8
45466.4
45455.1
45443.8
45432.5
45421.2
45409.9
45398.6
45387.3
45376
45364.7
45353.4
45342.1
45330.9
45319.6
45308.3
45297
45285.7
45274.5
45263.2
45251.9
45240.7
45229.4
45218.1
45206.9
45195.6
45184.4
45173.1
45161.9
45150.6
45139.4
45128.1
45116.9
45105.7
45094.4
45083.2
45072
45060.7
45049.5
45038.3
45027.1
45015.9
45004.7
44993.4
44982.2
44971
44959.8
44948.6
44937.4
44926.2
44915
44903.8
44892.6
44881.4
44870.3
44859.1
44847.9
44836.7
44825.5
44814.4
44803.2
44792
44780.9
44769.7
44758.5
44747.4
44736.2
44725.1
44713.9
44702.8
44691.6
44680.5
44669.3
44658.2
44647
44635.9
44624.8
44613.6
44602.5
44591.4
44580.3
44569.1
44558
44546.9
44535.8
44524.7
44513.6
44502.5
44491.4
44480.3
44469.2
44458.1
44447
44435.9
44424.8
44413.7
44402.6
44391.5
44380.4
44369.4
44358.3
44347.2
44336.1
44325.1
44314
44302.9
44291.9
44280.8
44269.8
44258.7
44247.7
44236.6
44225.6
44214.5
44203.5
44192.4
44181.4
44170.4
44159.3
44148.3
44137.3
44126.2
44115.2
44104.2
44093.2
44082.2
44071.2
44060.1
44049.1
44038.1
44027.1
44016.1
44005.1
43994.1
43983.1
43972.1
43961.1
43950.2
43939.2
43928.2
43917.2
43906.2
43895.3
43884.3
43873.3
43862.3
43851.4
43840.4
43829.4
43818.5
43807.5
43796.6
43785.6
43774.7
43763.7
43752.8
43741.8
43730.9
43720
43709
43698.1
43687.2
43676.2
43665.3
43654.4
43643.5
43632.5
43621.6
43610.7
43599.8
43588.9
43578
43567.1
43556.2
43545.3
43534.4
43523.5
43512.6
43501.7
43490.8
43479.9
43469
43458.1
43447.3
43436.4
43425.5
43414.6
43403.8
43392.9
43382
43371.2
43360.3
43349.5
43338.6
43327.8
43316.9
43306.1
43295.2
43284.4
43273.5
43262.7
43251.8
43241
43230.2
43219.3
43208.5
43197.7
43186.9
43176.1
43165.2
43154.4
43143.6
43132.8
43122
43111.2
43100.4
43089.6
43078.8
43068
43057.2
43046.4
43035.6
43024.8
43014
43003.2
42992.5
42981.7
42970.9
42960.1
42949.4
42938.6
42927.8
42917.1
42906.3
42895.5
42884.8
42874
42863.3
42852.5
42841.8
42831
42820.3
42809.5
42798.8
42788.1
42777.3
42766.6
42755.9
42745.1
42734.4
42723.7
42713
42702.3
42691.5
42680.8
42670.1
42659.4
42648.7
42638
42627.3
42616.6
42605.9
42595.2
42584.5
42573.8
42563.1
42552.5
42541.8
42531.1
42520.4
42509.7
42499.1
42488.4
42477.7
42467.1
42456.4
42445.7
42435.1
42424.4
42413.8
42403.1
42392.5
42381.8
42371.2
42360.5
42349.9
42339.2
42328.6
42318
42307.3
42296.7
42286.1
42275.5
42264.8
42254.2
42243.6
42233
42222.4
42211.7
42201.1
42190.5
42179.9
42169.3
42158.7
42148.1
42137.5
42126.9
42116.4
42105.8
42095.2
42084.6
42074
42063.4
42052.9
42042.3
42031.7
42021.1
42010.6
42000
41989.4
41978.9
41968.3
41957.8
41947.2
41936.7
41926.1
41915.6
41905
41894.5
41883.9
41873.4
41862.9
41852.3
41841.8
41831.3
41820.8
41810.2
41799.7
41789.2
41778.7
41768.2
41757.6
41747.1
41736.6
41726.1
41715.6
41705.1
41694.6
41684.1
41673.6
41663.1
41652.7
41642.2
41631.7
41621.2
41610.7
41600.2
41589.8
41579.3
41568.8
41558.3
41547.9
41537.4
41527
41516.5
41506
41495.6
41485.1
41474.7
41464.2
41453.8
41443.3
41432.9
41422.5
41412
41401.6
41391.2
41380.7
41370.3
41359.9
41349.5
41339
41328.6
41318.2
41307.8
41297.4
41287
41276.6
41266.2
41255.8
41245.4
41235
41224.6
41214.2
41203.8
41193.4
41183
41172.6
41162.2
41151.9
41141.5
41131.1
41120.7
41110.4
41100
41089.6
41079.3
41068.9
41058.5
41048.2
41037.8
41027.5
41017.1
41006.8
40996.4
40986.1
40975.7
40965.4
40955.1
40944.7
40934.4
40924.1
40913.7
40903.4
40893.1
40882.8
40872.5
40862.1
40851.8
40841.5
40831.2
40820.9
40810.6
40800.3
40790
40779.7
40769.4
40759.1
40748.8
40738.5
40728.2
40717.9
40707.7
40697.4
40687.1
40676.8
40666.6
40656.3
40646
40635.8
40625.5
40615.2
40605
40594.7
40584.5
40574.2
40563.9
40553.7
40543.5
40533.2
40523
40512.7
40502.5
40492.3
40482
40471.8
40461.6
40451.3
40441.1
40430.9
40420.7
40410.5
40400.2
40390
40379.8
40369.6
40359.4
40349.2
40339
40328.8
40318.6
40308.4
40298.2
40288
40277.8
40267.7
40257.5
40247.3
40237.1
40226.9
40216.8
40206.6
40196.4
40186.3
40176.1
40165.9
40155.8
40145.6
40135.4
40125.3
40115.1
40105
40094.8
40084.7
40074.6
40064.4
40054.3
40044.1
40034
40023.9
40013.7
40003.6
39993.5
39983.4
39973.3
39963.1
39953
39942.9
39932.8
39922.7
39912.6
39902.5
39892.4
39882.3
39872.2
39862.1
39852
39841.9
39831.8
39821.7
39811.6
39801.5
39791.5
39781.4
39771.3
39761.2
39751.2
39741.1
39731
39721
39710.9
39700.8
39690.8
39680.7
39670.7
39660.6
39650.6
39640.5
39630.5
39620.4
39610.4
39600.4
39590.3
39580.3
39570.3
39560.2
39550.2
39540.2
39530.2
39520.1
39510.1
39500.1
39490.1
39480.1
39470.1
39460.1
39450.1
39440.1
39430.1
39420.1
39410.1
39400.1
39390.1
39380.1
39370.1
39360.1
39350.1
39340.2
39330.2
39320.2
39310.2
39300.3
39290.3
39280.3
39270.4
39260.4
39250.4
39240.5
39230.5
39220.6
39210.6
39200.7
39190.7
39180.8
39170.8
39160.9
39150.9
39141
39131.1
39121.1
39111.2
39101.3
39091.4
39081.4
39071.5
39061.6
39051.7
39041.8
39031.9
39022
39012
39002.1
38992.2
38982.3
38972.4
38962.5
38952.6
38942.8
38932.9
38923
38913.1
38903.2
38893.3
38883.5
38873.6
38863.7
38853.8
38844
38834.1
38824.2
38814.4
38804.5
38794.6
38784.8
38774.9
38765.1
38755.2
38745.4
38735.5
38725.7
38715.9
38706
38696.2
38686.3
38676.5
38666.7
38656.9
38647
38637.2
38627.4
38617.6