/*--------------------------------*- C++ -*----------------------------------*\
  =========                 |
  \\      /  F ield         | OpenFOAM: The Open Source CFD Toolbox
   \\    /   O peration     | Website:  https://openfoam.org
    \\  /    A nd           | Version:  9
     \\/     M anipulation  |
\*---------------------------------------------------------------------------*/
FoamFile
{
    format      ascii;
    class       volScalarField;
    location    "0.014";
    object      rho;
}
// * * * * * * * * * * * * * * * * * * * * * * * * * * * * * * * * * * * * * //

dimensions      [1 -3 0 0 0 0 0];

internalField   nonuniform List<scalar> 
10000
(
0.920496
0.920485
0.920483
0.920481
0.920479
0.920476
0.920474
0.920472
0.920469
0.920467
0.920464
0.920461
0.920458
0.920455
0.920453
0.920449
0.920446
0.920443
0.92044
0.920437
0.920433
0.92043
0.920426
0.920422
0.920419
0.920415
0.920411
0.920407
0.920403
0.920399
0.920395
0.92039
0.920386
0.920382
0.920377
0.920372
0.920368
0.920363
0.920358
0.920353
0.920348
0.920343
0.920338
0.920333
0.920327
0.920322
0.920317
0.920311
0.920305
0.9203
0.920294
0.920288
0.920282
0.920276
0.92027
0.920263
0.920257
0.920251
0.920244
0.920237
0.920231
0.920224
0.920217
0.92021
0.920203
0.920196
0.920189
0.920181
0.920174
0.920166
0.920159
0.920151
0.920143
0.920135
0.920127
0.920119
0.920111
0.920103
0.920094
0.920086
0.920077
0.920069
0.92006
0.920051
0.920042
0.920033
0.920024
0.920015
0.920005
0.919996
0.919986
0.919976
0.919966
0.919956
0.919946
0.919936
0.919926
0.919916
0.919905
0.919895
0.919884
0.919873
0.919862
0.919851
0.91984
0.919828
0.919817
0.919805
0.919794
0.919782
0.91977
0.919758
0.919746
0.919733
0.919721
0.919708
0.919696
0.919683
0.91967
0.919657
0.919643
0.91963
0.919616
0.919603
0.919589
0.919575
0.919561
0.919546
0.919532
0.919517
0.919503
0.919488
0.919473
0.919458
0.919442
0.919427
0.919411
0.919395
0.919379
0.919363
0.919347
0.91933
0.919313
0.919297
0.919279
0.919262
0.919245
0.919227
0.919209
0.919192
0.919173
0.919155
0.919137
0.919118
0.919099
0.91908
0.91906
0.919041
0.919021
0.919001
0.918981
0.918961
0.91894
0.918919
0.918898
0.918877
0.918855
0.918834
0.918812
0.918789
0.918767
0.918744
0.918721
0.918698
0.918675
0.918651
0.918627
0.918603
0.918578
0.918553
0.918528
0.918503
0.918477
0.918452
0.918425
0.918399
0.918372
0.918345
0.918318
0.91829
0.918262
0.918234
0.918205
0.918176
0.918147
0.918117
0.918087
0.918057
0.918026
0.917995
0.917964
0.917932
0.9179
0.917868
0.917835
0.917802
0.917768
0.917734
0.9177
0.917665
0.91763
0.917594
0.917558
0.917522
0.917485
0.917448
0.91741
0.917372
0.917333
0.917294
0.917255
0.917215
0.917174
0.917133
0.917092
0.91705
0.917007
0.916964
0.916921
0.916877
0.916832
0.916787
0.916742
0.916695
0.916649
0.916601
0.916554
0.916505
0.916456
0.916407
0.916356
0.916306
0.916254
0.916202
0.916149
0.916096
0.916042
0.915988
0.915933
0.915877
0.91582
0.915763
0.915705
0.915646
0.915587
0.915527
0.915467
0.915405
0.915343
0.91528
0.915217
0.915152
0.915087
0.915021
0.914955
0.914887
0.914819
0.91475
0.914681
0.91461
0.914539
0.914467
0.914394
0.91432
0.914246
0.91417
0.914094
0.914017
0.913939
0.91386
0.913781
0.9137
0.913619
0.913537
0.913454
0.91337
0.913285
0.9132
0.913113
0.913026
0.912937
0.912848
0.912758
0.912667
0.912576
0.912483
0.912389
0.912295
0.9122
0.912103
0.912006
0.911908
0.91181
0.91171
0.911609
0.911508
0.911406
0.911302
0.911198
0.911093
0.910988
0.910881
0.910774
0.910665
0.910556
0.910446
0.910336
0.910224
0.910112
0.909999
0.909885
0.90977
0.909655
0.909538
0.909421
0.909304
0.909185
0.909066
0.908946
0.908825
0.908704
0.908582
0.908459
0.908336
0.908212
0.908087
0.907962
0.907836
0.90771
0.907583
0.907455
0.907327
0.907198
0.907068
0.906938
0.906808
0.906677
0.906546
0.906414
0.906281
0.906148
0.906015
0.905881
0.905747
0.905612
0.905477
0.905342
0.905206
0.90507
0.904933
0.904796
0.904659
0.904522
0.904384
0.904246
0.904107
0.903968
0.903829
0.90369
0.90355
0.90341
0.90327
0.90313
0.90299
0.902849
0.902708
0.902567
0.902426
0.902284
0.902142
0.902001
0.901859
0.901716
0.901574
0.901432
0.901289
0.901147
0.901004
0.900861
0.900718
0.900575
0.900432
0.900288
0.900145
0.900002
0.899858
0.899714
0.899571
0.899427
0.899283
0.899139
0.898996
0.898852
0.898708
0.898564
0.89842
0.898276
0.898131
0.897987
0.897843
0.897699
0.897555
0.89741
0.897266
0.897122
0.896978
0.896833
0.896689
0.896545
0.8964
0.896256
0.896112
0.895967
0.895823
0.895678
0.895534
0.89539
0.895245
0.895101
0.894957
0.894812
0.894668
0.894524
0.894379
0.894235
0.894091
0.893946
0.893802
0.893658
0.893514
0.893369
0.893225
0.893081
0.892937
0.892792
0.892648
0.892504
0.89236
0.892216
0.892071
0.891927
0.891783
0.891639
0.891495
0.891351
0.891207
0.891063
0.890919
0.890775
0.890631
0.890487
0.890343
0.890199
0.890055
0.889911
0.889767
0.889623
0.889479
0.889335
0.889191
0.889048
0.888904
0.88876
0.888616
0.888472
0.888329
0.888185
0.888041
0.887898
0.887754
0.88761
0.887467
0.887323
0.887179
0.887036
0.886892
0.886748
0.886605
0.886461
0.886318
0.886174
0.886031
0.885887
0.885744
0.885601
0.885457
0.885314
0.88517
0.885027
0.884884
0.88474
0.884597
0.884454
0.88431
0.884167
0.884024
0.883881
0.883737
0.883594
0.883451
0.883308
0.883165
0.883022
0.882879
0.882735
0.882592
0.882449
0.882306
0.882163
0.88202
0.881877
0.881734
0.881591
0.881448
0.881305
0.881163
0.88102
0.880877
0.880734
0.880591
0.880448
0.880305
0.880163
0.88002
0.879877
0.879734
0.879592
0.879449
0.879306
0.879164
0.879021
0.878878
0.878736
0.878593
0.878451
0.878308
0.878165
0.878023
0.87788
0.877738
0.877595
0.877453
0.87731
0.877168
0.877026
0.876883
0.876741
0.876599
0.876456
0.876314
0.876172
0.876029
0.875887
0.875745
0.875603
0.87546
0.875318
0.875176
0.875034
0.874892
0.874749
0.874607
0.874465
0.874323
0.874181
0.874039
0.873897
0.873755
0.873613
0.873471
0.873329
0.873187
0.873045
0.872903
0.872761
0.87262
0.872478
0.872336
0.872194
0.872052
0.87191
0.871769
0.871627
0.871485
0.871343
0.871202
0.87106
0.870918
0.870777
0.870635
0.870493
0.870352
0.87021
0.870069
0.869927
0.869786
0.869644
0.869503
0.869361
0.86922
0.869078
0.868937
0.868795
0.868654
0.868513
0.868371
0.86823
0.868089
0.867947
0.867806
0.867665
0.867524
0.867382
0.867241
0.8671
0.866959
0.866818
0.866676
0.866535
0.866394
0.866253
0.866112
0.865971
0.86583
0.865689
0.865548
0.865407
0.865266
0.865125
0.864984
0.864843
0.864702
0.864561
0.86442
0.86428
0.864139
0.863998
0.863857
0.863716
0.863576
0.863435
0.863294
0.863153
0.863013
0.862872
0.862731
0.862591
0.86245
0.86231
0.862169
0.862028
0.861888
0.861747
0.861607
0.861466
0.861326
0.861185
0.861045
0.860904
0.860764
0.860624
0.860483
0.860343
0.860203
0.860062
0.859922
0.859782
0.859641
0.859501
0.859361
0.859221
0.85908
0.85894
0.8588
0.85866
0.85852
0.85838
0.85824
0.858099
0.857959
0.857819
0.857679
0.857539
0.857399
0.857259
0.857119
0.856979
0.856839
0.8567
0.85656
0.85642
0.85628
0.85614
0.856
0.85586
0.855721
0.855581
0.855441
0.855301
0.855162
0.855022
0.854882
0.854743
0.854603
0.854463
0.854324
0.854184
0.854045
0.853905
0.853766
0.853626
0.853486
0.853347
0.853208
0.853068
0.852929
0.852789
0.85265
0.85251
0.852371
0.852232
0.852092
0.851953
0.851814
0.851675
0.851535
0.851396
0.851257
0.851118
0.850978
0.850839
0.8507
0.850561
0.850422
0.850283
0.850144
0.850005
0.849865
0.849726
0.849587
0.849448
0.849309
0.84917
0.849032
0.848893
0.848754
0.848615
0.848476
0.848337
0.848198
0.848059
0.847921
0.847782
0.847643
0.847504
0.847366
0.847227
0.847088
0.846949
0.846811
0.846672
0.846534
0.846395
0.846256
0.846118
0.845979
0.845841
0.845702
0.845564
0.845425
0.845287
0.845148
0.84501
0.844871
0.844733
0.844595
0.844456
0.844318
0.844179
0.844041
0.843903
0.843765
0.843626
0.843488
0.84335
0.843212
0.843073
0.842935
0.842797
0.842659
0.842521
0.842383
0.842245
0.842107
0.841969
0.841831
0.841692
0.841554
0.841417
0.841279
0.841141
0.841003
0.840865
0.840727
0.840589
0.840451
0.840313
0.840175
0.840038
0.8399
0.839762
0.839624
0.839487
0.839349
0.839211
0.839073
0.838936
0.838798
0.838661
0.838523
0.838385
0.838248
0.83811
0.837973
0.837835
0.837698
0.83756
0.837423
0.837285
0.837148
0.83701
0.836873
0.836736
0.836598
0.836461
0.836323
0.836186
0.836049
0.835912
0.835774
0.835637
0.8355
0.835363
0.835225
0.835088
0.834951
0.834814
0.834677
0.83454
0.834403
0.834266
0.834129
0.833992
0.833854
0.833717
0.83358
0.833444
0.833307
0.83317
0.833033
0.832896
0.832759
0.832622
0.832485
0.832348
0.832212
0.832075
0.831938
0.831801
0.831665
0.831528
0.831391
0.831254
0.831118
0.830981
0.830845
0.830708
0.830571
0.830435
0.830298
0.830162
0.830025
0.829889
0.829752
0.829616
0.829479
0.829343
0.829206
0.82907
0.828933
0.828797
0.828661
0.828524
0.828388
0.828252
0.828116
0.827979
0.827843
0.827707
0.827571
0.827434
0.827298
0.827162
0.827026
0.82689
0.826754
0.826618
0.826482
0.826345
0.826209
0.826073
0.825937
0.825801
0.825665
0.825529
0.825394
0.825258
0.825122
0.824986
0.82485
0.824714
0.824578
0.824443
0.824307
0.824171
0.824035
0.823899
0.823764
0.823628
0.823492
0.823357
0.823221
0.823085
0.82295
0.822814
0.822679
0.822543
0.822407
0.822272
0.822136
0.822001
0.821865
0.82173
0.821595
0.821459
0.821324
0.821188
0.821053
0.820918
0.820782
0.820647
0.820512
0.820376
0.820241
0.820106
0.819971
0.819835
0.8197
0.819565
0.81943
0.819295
0.81916
0.819024
0.818889
0.818754
0.818619
0.818484
0.818349
0.818214
0.818079
0.817944
0.817809
0.817674
0.817539
0.817404
0.81727
0.817135
0.817
0.816865
0.81673
0.816595
0.816461
0.816326
0.816191
0.816056
0.815922
0.815787
0.815652
0.815518
0.815383
0.815248
0.815114
0.814979
0.814845
0.81471
0.814576
0.814441
0.814307
0.814172
0.814038
0.813903
0.813769
0.813634
0.8135
0.813365
0.813231
0.813097
0.812962
0.812828
0.812694
0.81256
0.812425
0.812291
0.812157
0.812023
0.811888
0.811754
0.81162
0.811486
0.811352
0.811218
0.811084
0.81095
0.810816
0.810682
0.810548
0.810414
0.81028
0.810146
0.810012
0.809878
0.809744
0.80961
0.809476
0.809342
0.809208
0.809075
0.808941
0.808807
0.808673
0.808539
0.808406
0.808272
0.808138
0.808005
0.807871
0.807737
0.807604
0.80747
0.807336
0.807203
0.807069
0.806936
0.806802
0.806669
0.806535
0.806402
0.806268
0.806135
0.806001
0.805868
0.805735
0.805601
0.805468
0.805335
0.805201
0.805068
0.804935
0.804801
0.804668
0.804535
0.804402
0.804269
0.804135
0.804002
0.803869
0.803736
0.803603
0.80347
0.803337
0.803204
0.803071
0.802938
0.802805
0.802672
0.802539
0.802406
0.802273
0.80214
0.802007
0.801874
0.801741
0.801608
0.801475
0.801343
0.80121
0.801077
0.800944
0.800812
0.800679
0.800546
0.800413
0.800281
0.800148
0.800015
0.799883
0.79975
0.799618
0.799485
0.799353
0.79922
0.799087
0.798955
0.798822
0.79869
0.798558
0.798425
0.798293
0.79816
0.798028
0.797896
0.797763
0.797631
0.797499
0.797366
0.797234
0.797102
0.79697
0.796837
0.796705
0.796573
0.796441
0.796309
0.796176
0.796044
0.795912
0.79578
0.795648
0.795516
0.795384
0.795252
0.79512
0.794988
0.794856
0.794724
0.794592
0.79446
0.794328
0.794196
0.794065
0.793933
0.793801
0.793669
0.793537
0.793406
0.793274
0.793142
0.79301
0.792879
0.792747
0.792615
0.792484
0.792352
0.79222
0.792089
0.791957
0.791826
0.791694
0.791562
0.791431
0.791299
0.791168
0.791037
0.790905
0.790774
0.790642
0.790511
0.790379
0.790248
0.790117
0.789985
0.789854
0.789723
0.789592
0.78946
0.789329
0.789198
0.789067
0.788935
0.788804
0.788673
0.788542
0.788411
0.78828
0.788149
0.788018
0.787887
0.787755
0.787624
0.787493
0.787362
0.787232
0.787101
0.78697
0.786839
0.786708
0.786577
0.786446
0.786315
0.786184
0.786054
0.785923
0.785792
0.785661
0.785531
0.7854
0.785269
0.785138
0.785008
0.784877
0.784746
0.784616
0.784485
0.784355
0.784224
0.784094
0.783963
0.783832
0.783702
0.783572
0.783441
0.783311
0.78318
0.78305
0.782919
0.782789
0.782659
0.782528
0.782398
0.782268
0.782137
0.782007
0.781877
0.781747
0.781616
0.781486
0.781356
0.781226
0.781096
0.780965
0.780835
0.780705
0.780575
0.780445
0.780315
0.780185
0.780055
0.779925
0.779795
0.779665
0.779535
0.779405
0.779275
0.779145
0.779015
0.778886
0.778756
0.778626
0.778496
0.778366
0.778236
0.778107
0.777977
0.777847
0.777718
0.777588
0.777458
0.777329
0.777199
0.777069
0.77694
0.77681
0.77668
0.776551
0.776421
0.776292
0.776162
0.776033
0.775903
0.775774
0.775644
0.775515
0.775386
0.775256
0.775127
0.774998
0.774868
0.774739
0.77461
0.77448
0.774351
0.774222
0.774093
0.773963
0.773834
0.773705
0.773576
0.773447
0.773318
0.773188
0.773059
0.77293
0.772801
0.772672
0.772543
0.772414
0.772285
0.772156
0.772027
0.771898
0.771769
0.77164
0.771512
0.771383
0.771254
0.771125
0.770996
0.770867
0.770739
0.77061
0.770481
0.770352
0.770224
0.770095
0.769966
0.769838
0.769709
0.76958
0.769452
0.769323
0.769194
0.769066
0.768937
0.768809
0.76868
0.768552
0.768423
0.768295
0.768166
0.768038
0.76791
0.767781
0.767653
0.767524
0.767396
0.767268
0.767139
0.767011
0.766883
0.766755
0.766626
0.766498
0.76637
0.766242
0.766114
0.765985
0.765857
0.765729
0.765601
0.765473
0.765345
0.765217
0.765089
0.764961
0.764833
0.764705
0.764577
0.764449
0.764321
0.764193
0.764065
0.763937
0.763809
0.763681
0.763554
0.763426
0.763298
0.76317
0.763042
0.762915
0.762787
0.762659
0.762532
0.762404
0.762276
0.762149
0.762021
0.761893
0.761766
0.761638
0.761511
0.761383
0.761255
0.761128
0.761
0.760873
0.760746
0.760618
0.760491
0.760363
0.760236
0.760109
0.759981
0.759854
0.759726
0.759599
0.759472
0.759345
0.759217
0.75909
0.758963
0.758836
0.758708
0.758581
0.758454
0.758327
0.7582
0.758073
0.757946
0.757819
0.757692
0.757565
0.757438
0.757311
0.757184
0.757057
0.75693
0.756803
0.756676
0.756549
0.756422
0.756295
0.756168
0.756041
0.755915
0.755788
0.755661
0.755534
0.755407
0.755281
0.755154
0.755027
0.754901
0.754774
0.754647
0.754521
0.754394
0.754267
0.754141
0.754014
0.753888
0.753761
0.753635
0.753508
0.753382
0.753255
0.753129
0.753002
0.752876
0.75275
0.752623
0.752497
0.752371
0.752244
0.752118
0.751992
0.751865
0.751739
0.751613
0.751487
0.75136
0.751234
0.751108
0.750982
0.750856
0.75073
0.750603
0.750477
0.750351
0.750225
0.750099
0.749973
0.749847
0.749721
0.749595
0.749469
0.749343
0.749217
0.749091
0.748966
0.74884
0.748714
0.748588
0.748462
0.748336
0.748211
0.748085
0.747959
0.747833
0.747708
0.747582
0.747456
0.747331
0.747205
0.747079
0.746954
0.746828
0.746702
0.746577
0.746451
0.746326
0.7462
0.746075
0.745949
0.745824
0.745698
0.745573
0.745447
0.745322
0.745197
0.745071
0.744946
0.744821
0.744695
0.74457
0.744445
0.744319
0.744194
0.744069
0.743944
0.743819
0.743693
0.743568
0.743443
0.743318
0.743193
0.743068
0.742943
0.742818
0.742692
0.742567
0.742442
0.742317
0.742192
0.742067
0.741942
0.741818
0.741693
0.741568
0.741443
0.741318
0.741193
0.741068
0.740943
0.740819
0.740694
0.740569
0.740444
0.74032
0.740195
0.74007
0.739946
0.739821
0.739696
0.739572
0.739447
0.739322
0.739198
0.739073
0.738949
0.738824
0.7387
0.738575
0.738451
0.738326
0.738202
0.738077
0.737953
0.737829
0.737704
0.73758
0.737455
0.737331
0.737207
0.737082
0.736958
0.736834
0.73671
0.736585
0.736461
0.736337
0.736213
0.736089
0.735965
0.73584
0.735716
0.735592
0.735468
0.735344
0.73522
0.735096
0.734972
0.734848
0.734724
0.7346
0.734476
0.734352
0.734228
0.734104
0.73398
0.733857
0.733733
0.733609
0.733485
0.733361
0.733237
0.733114
0.73299
0.732866
0.732742
0.732619
0.732495
0.732371
0.732248
0.732124
0.732001
0.731877
0.731753
0.73163
0.731506
0.731383
0.731259
0.731136
0.731012
0.730889
0.730765
0.730642
0.730518
0.730395
0.730272
0.730148
0.730025
0.729902
0.729778
0.729655
0.729532
0.729408
0.729285
0.729162
0.729039
0.728916
0.728792
0.728669
0.728546
0.728423
0.7283
0.728177
0.728054
0.727931
0.727807
0.727684
0.727561
0.727438
0.727315
0.727192
0.72707
0.726947
0.726824
0.726701
0.726578
0.726455
0.726332
0.726209
0.726086
0.725964
0.725841
0.725718
0.725595
0.725473
0.72535
0.725227
0.725105
0.724982
0.724859
0.724737
0.724614
0.724491
0.724369
0.724246
0.724124
0.724001
0.723879
0.723756
0.723634
0.723511
0.723389
0.723266
0.723144
0.723021
0.722899
0.722777
0.722654
0.722532
0.72241
0.722287
0.722165
0.722043
0.72192
0.721798
0.721676
0.721554
0.721432
0.721309
0.721187
0.721065
0.720943
0.720821
0.720699
0.720577
0.720455
0.720333
0.720211
0.720089
0.719967
0.719845
0.719723
0.719601
0.719479
0.719357
0.719235
0.719113
0.718991
0.718869
0.718748
0.718626
0.718504
0.718382
0.71826
0.718139
0.718017
0.717895
0.717773
0.717652
0.71753
0.717408
0.717287
0.717165
0.717044
0.716922
0.7168
0.716679
0.716557
0.716436
0.716314
0.716193
0.716071
0.71595
0.715829
0.715707
0.715586
0.715464
0.715343
0.715222
0.7151
0.714979
0.714858
0.714736
0.714615
0.714494
0.714373
0.714251
0.71413
0.714009
0.713888
0.713767
0.713646
0.713524
0.713403
0.713282
0.713161
0.71304
0.712919
0.712798
0.712677
0.712556
0.712435
0.712314
0.712193
0.712072
0.711951
0.71183
0.71171
0.711589
0.711468
0.711347
0.711226
0.711105
0.710985
0.710864
0.710743
0.710622
0.710502
0.710381
0.71026
0.71014
0.710019
0.709898
0.709778
0.709657
0.709537
0.709416
0.709295
0.709175
0.709054
0.708934
0.708813
0.708693
0.708572
0.708452
0.708332
0.708211
0.708091
0.70797
0.70785
0.70773
0.707609
0.707489
0.707369
0.707249
0.707128
0.707008
0.706888
0.706768
0.706647
0.706527
0.706407
0.706287
0.706167
0.706047
0.705927
0.705807
0.705686
0.705566
0.705446
0.705326
0.705206
0.705086
0.704966
0.704847
0.704727
0.704607
0.704487
0.704367
0.704247
0.704127
0.704007
0.703888
0.703768
0.703648
0.703528
0.703408
0.703289
0.703169
0.703049
0.70293
0.70281
0.70269
0.702571
0.702451
0.702331
0.702212
0.702092
0.701973
0.701853
0.701734
0.701614
0.701495
0.701375
0.701256
0.701136
0.701017
0.700897
0.700778
0.700659
0.700539
0.70042
0.700301
0.700181
0.700062
0.699943
0.699823
0.699704
0.699585
0.699466
0.699347
0.699227
0.699108
0.698989
0.69887
0.698751
0.698632
0.698513
0.698394
0.698274
0.698155
0.698036
0.697917
0.697798
0.697679
0.697561
0.697442
0.697323
0.697204
0.697085
0.696966
0.696847
0.696728
0.696609
0.696491
0.696372
0.696253
0.696134
0.696016
0.695897
0.695778
0.695659
0.695541
0.695422
0.695303
0.695185
0.695066
0.694948
0.694829
0.69471
0.694592
0.694473
0.694355
0.694236
0.694118
0.693999
0.693881
0.693762
0.693644
0.693526
0.693407
0.693289
0.693171
0.693052
0.692934
0.692816
0.692697
0.692579
0.692461
0.692342
0.692224
0.692106
0.691988
0.69187
0.691751
0.691633
0.691515
0.691397
0.691279
0.691161
0.691043
0.690925
0.690807
0.690689
0.690571
0.690453
0.690335
0.690217
0.690099
0.689981
0.689863
0.689745
0.689627
0.689509
0.689392
0.689274
0.689156
0.689038
0.68892
0.688803
0.688685
0.688567
0.688449
0.688332
0.688214
0.688096
0.687979
0.687861
0.687743
0.687626
0.687508
0.687391
0.687273
0.687156
0.687038
0.686921
0.686803
0.686686
0.686568
0.686451
0.686333
0.686216
0.686099
0.685981
0.685864
0.685746
0.685629
0.685512
0.685395
0.685277
0.68516
0.685043
0.684925
0.684808
0.684691
0.684574
0.684457
0.68434
0.684222
0.684105
0.683988
0.683871
0.683754
0.683637
0.68352
0.683403
0.683286
0.683169
0.683052
0.682935
0.682818
0.682701
0.682584
0.682467
0.68235
0.682234
0.682117
0.682
0.681883
0.681766
0.68165
0.681533
0.681416
0.681299
0.681183
0.681066
0.680949
0.680832
0.680716
0.680599
0.680483
0.680366
0.680249
0.680133
0.680016
0.6799
0.679783
0.679667
0.67955
0.679434
0.679317
0.679201
0.679084
0.678968
0.678851
0.678735
0.678619
0.678502
0.678386
0.67827
0.678153
0.678037
0.677921
0.677805
0.677688
0.677572
0.677456
0.67734
0.677224
0.677107
0.676991
0.676875
0.676759
0.676643
0.676527
0.676411
0.676295
0.676179
0.676063
0.675947
0.675831
0.675715
0.675599
0.675483
0.675367
0.675251
0.675135
0.675019
0.674903
0.674788
0.674672
0.674556
0.67444
0.674324
0.674209
0.674093
0.673977
0.673861
0.673746
0.67363
0.673514
0.673399
0.673283
0.673167
0.673052
0.672936
0.672821
0.672705
0.67259
0.672474
0.672358
0.672243
0.672128
0.672012
0.671897
0.671781
0.671666
0.67155
0.671435
0.67132
0.671204
0.671089
0.670974
0.670858
0.670743
0.670628
0.670512
0.670397
0.670282
0.670167
0.670052
0.669936
0.669821
0.669706
0.669591
0.669476
0.669361
0.669246
0.669131
0.669016
0.668901
0.668786
0.668671
0.668556
0.668441
0.668326
0.668211
0.668096
0.667981
0.667866
0.667751
0.667636
0.667521
0.667407
0.667292
0.667177
0.667062
0.666947
0.666833
0.666718
0.666603
0.666489
0.666374
0.666259
0.666144
0.66603
0.665915
0.665801
0.665686
0.665571
0.665457
0.665342
0.665228
0.665113
0.664999
0.664884
0.66477
0.664655
0.664541
0.664427
0.664312
0.664198
0.664083
0.663969
0.663855
0.66374
0.663626
0.663512
0.663398
0.663283
0.663169
0.663055
0.662941
0.662826
0.662712
0.662598
0.662484
0.66237
0.662256
0.662142
0.662027
0.661913
0.661799
0.661685
0.661571
0.661457
0.661343
0.661229
0.661115
0.661001
0.660887
0.660773
0.66066
0.660546
0.660432
0.660318
0.660204
0.66009
0.659977
0.659863
0.659749
0.659635
0.659521
0.659408
0.659294
0.65918
0.659067
0.658953
0.658839
0.658726
0.658612
0.658498
0.658385
0.658271
0.658158
0.658044
0.657931
0.657817
0.657704
0.65759
0.657477
0.657363
0.65725
0.657136
0.657023
0.65691
0.656796
0.656683
0.65657
0.656456
0.656343
0.65623
0.656116
0.656003
0.65589
0.655777
0.655664
0.65555
0.655437
0.655324
0.655211
0.655098
0.654985
0.654872
0.654758
0.654645
0.654532
0.654419
0.654306
0.654193
0.65408
0.653967
0.653854
0.653741
0.653628
0.653516
0.653403
0.65329
0.653177
0.653064
0.652951
0.652838
0.652726
0.652613
0.6525
0.652387
0.652275
0.652162
0.652049
0.651936
0.651824
0.651711
0.651598
0.651486
0.651373
0.651261
0.651148
0.651035
0.650923
0.65081
0.650698
0.650585
0.650473
0.65036
0.650248
0.650135
0.650023
0.649911
0.649798
0.649686
0.649573
0.649461
0.649349
0.649236
0.649124
0.649012
0.6489
0.648787
0.648675
0.648563
0.648451
0.648338
0.648226
0.648114
0.648002
0.64789
0.647778
0.647666
0.647553
0.647441
0.647329
0.647217
0.647105
0.646993
0.646881
0.646769
0.646657
0.646545
0.646433
0.646322
0.64621
0.646098
0.645986
0.645874
0.645762
0.64565
0.645539
0.645427
0.645315
0.645203
0.645091
0.64498
0.644868
0.644756
0.644645
0.644533
0.644421
0.64431
0.644198
0.644086
0.643975
0.643863
0.643752
0.64364
0.643529
0.643417
0.643306
0.643194
0.643083
0.642971
0.64286
0.642748
0.642637
0.642526
0.642414
0.642303
0.642192
0.64208
0.641969
0.641858
0.641746
0.641635
0.641524
0.641413
0.641301
0.64119
0.641079
0.640968
0.640857
0.640745
0.640634
0.640523
0.640412
0.640301
0.64019
0.640079
0.639968
0.639857
0.639746
0.639635
0.639524
0.639413
0.639302
0.639191
0.63908
0.638969
0.638858
0.638748
0.638637
0.638526
0.638415
0.638304
0.638193
0.638083
0.637972
0.637861
0.63775
0.63764
0.637529
0.637418
0.637308
0.637197
0.637086
0.636976
0.636865
0.636755
0.636644
0.636533
0.636423
0.636312
0.636202
0.636091
0.635981
0.63587
0.63576
0.63565
0.635539
0.635429
0.635318
0.635208
0.635098
0.634987
0.634877
0.634767
0.634656
0.634546
0.634436
0.634326
0.634215
0.634105
0.633995
0.633885
0.633775
0.633664
0.633554
0.633444
0.633334
0.633224
0.633114
0.633004
0.632894
0.632784
0.632674
0.632564
0.632454
0.632344
0.632234
0.632124
0.632014
0.631904
0.631794
0.631684
0.631574
0.631464
0.631355
0.631245
0.631135
0.631025
0.630915
0.630806
0.630696
0.630586
0.630476
0.630367
0.630257
0.630147
0.630038
0.629928
0.629819
0.629709
0.629599
0.62949
0.62938
0.629271
0.629161
0.629052
0.628942
0.628833
0.628723
0.628614
0.628504
0.628395
0.628285
0.628176
0.628067
0.627957
0.627848
0.627739
0.627629
0.62752
0.627411
0.627301
0.627192
0.627083
0.626974
0.626865
0.626755
0.626646
0.626537
0.626428
0.626319
0.62621
0.6261
0.625991
0.625882
0.625773
0.625664
0.625555
0.625446
0.625337
0.625228
0.625119
0.62501
0.624901
0.624792
0.624684
0.624575
0.624466
0.624357
0.624248
0.624139
0.62403
0.623922
0.623813
0.623704
0.623595
0.623486
0.623378
0.623269
0.623161
0.623052
0.622943
0.622834
0.622726
0.622617
0.622509
0.622399
0.622292
0.622182
0.622075
0.621965
0.621859
0.621747
0.621642
0.62153
0.621426
0.621313
0.621209
0.621095
0.620993
0.620878
0.620777
0.620661
0.620561
0.620444
0.620345
0.620226
0.620129
0.620009
0.619913
0.619792
0.619697
0.619576
0.619481
0.619359
0.619264
0.619143
0.619048
0.618927
0.618832
0.618711
0.618615
0.618495
0.618399
0.61828
0.618182
0.618065
0.617965
0.61785
0.617749
0.617634
0.617532
0.617419
0.617316
0.617204
0.617099
0.616989
0.616883
0.616774
0.616667
0.616559
0.616451
0.616343
0.616236
0.616128
0.61602
0.615913
0.615805
0.615697
0.61559
0.615482
0.615374
0.615267
0.615159
0.615052
0.614944
0.614837
0.614729
0.614622
0.614514
0.614407
0.614299
0.614192
0.614084
0.613977
0.61387
0.613762
0.613655
0.613548
0.61344
0.613333
0.613226
0.613118
0.613011
0.612904
0.612797
0.612689
0.612582
0.612475
0.612368
0.612261
0.612153
0.612046
0.611939
0.611832
0.611725
0.611618
0.611511
0.611404
0.611297
0.61119
0.611083
0.610976
0.610869
0.610762
0.610655
0.610548
0.610441
0.610334
0.610227
0.610121
0.610014
0.609907
0.6098
0.609693
0.609586
0.60948
0.609373
0.609266
0.609159
0.609053
0.608946
0.608839
0.608733
0.608626
0.608519
0.608413
0.608306
0.6082
0.608093
0.607986
0.60788
0.607773
0.607667
0.60756
0.607454
0.607347
0.607241
0.607134
0.607028
0.606922
0.606815
0.606709
0.606602
0.606496
0.60639
0.606283
0.606177
0.606071
0.605965
0.605858
0.605752
0.605646
0.60554
0.605433
0.605327
0.605221
0.605115
0.605009
0.604903
0.604796
0.60469
0.604584
0.604478
0.604372
0.604266
0.60416
0.604054
0.603948
0.603842
0.603736
0.60363
0.603524
0.603418
0.603312
0.603207
0.603101
0.602995
0.602889
0.602783
0.602677
0.602571
0.602466
0.60236
0.602254
0.602148
0.602043
0.601937
0.601831
0.601726
0.60162
0.601514
0.601409
0.601303
0.601197
0.601092
0.600986
0.600881
0.600775
0.60067
0.600564
0.600459
0.600353
0.600248
0.600142
0.600037
0.599931
0.599826
0.599721
0.599615
0.59951
0.599404
0.599299
0.599194
0.599088
0.598983
0.598878
0.598773
0.598667
0.598562
0.598457
0.598352
0.598246
0.598141
0.598036
0.597931
0.597826
0.597721
0.597616
0.597511
0.597405
0.5973
0.597195
0.59709
0.596985
0.59688
0.596775
0.59667
0.596565
0.596461
0.596356
0.596251
0.596146
0.596041
0.595936
0.595831
0.595726
0.595622
0.595517
0.595412
0.595307
0.595202
0.595098
0.594993
0.594888
0.594784
0.594679
0.594574
0.594469
0.594365
0.59426
0.594156
0.594051
0.593946
0.593842
0.593737
0.593633
0.593528
0.593424
0.593319
0.593215
0.59311
0.593006
0.592901
0.592797
0.592693
0.592588
0.592484
0.592379
0.592275
0.592171
0.592066
0.591962
0.591858
0.591754
0.591649
0.591545
0.591441
0.591337
0.591232
0.591128
0.591024
0.59092
0.590816
0.590712
0.590608
0.590503
0.590399
0.590295
0.590191
0.590087
0.589983
0.589879
0.589775
0.589671
0.589567
0.589463
0.589359
0.589255
0.589152
0.589048
0.588944
0.58884
0.588736
0.588632
0.588528
0.588425
0.588321
0.588217
0.588113
0.58801
0.587906
0.587802
0.587698
0.587595
0.587491
0.587387
0.587284
0.58718
0.587077
0.586973
0.586869
0.586766
0.586662
0.586559
0.586455
0.586352
0.586248
0.586145
0.586041
0.585938
0.585834
0.585731
0.585628
0.585524
0.585421
0.585317
0.585214
0.585111
0.585007
0.584904
0.584801
0.584698
0.584594
0.584491
0.584388
0.584285
0.584182
0.584078
0.583975
0.583872
0.583769
0.583666
0.583563
0.58346
0.583356
0.583253
0.58315
0.583047
0.582944
0.582841
0.582738
0.582635
0.582532
0.582429
0.582326
0.582224
0.582121
0.582018
0.581915
0.581812
0.581709
0.581606
0.581503
0.581401
0.581298
0.581195
0.581092
0.58099
0.580887
0.580784
0.580681
0.580579
0.580476
0.580373
0.580271
0.580168
0.580066
0.579963
0.57986
0.579758
0.579655
0.579553
0.57945
0.579348
0.579245
0.579143
0.57904
0.578938
0.578835
0.578733
0.578631
0.578528
0.578426
0.578323
0.578221
0.578119
0.578016
0.577914
0.577812
0.57771
0.577607
0.577505
0.577403
0.577301
0.577198
0.577096
0.576994
0.576892
0.57679
0.576688
0.576585
0.576483
0.576381
0.576279
0.576177
0.576075
0.575973
0.575871
0.575769
0.575667
0.575565
0.575463
0.575361
0.575259
0.575157
0.575055
0.574954
0.574852
0.57475
0.574648
0.574546
0.574444
0.574343
0.574241
0.574139
0.574037
0.573935
0.573834
0.573732
0.57363
0.573529
0.573427
0.573325
0.573224
0.573122
0.57302
0.572919
0.572817
0.572716
0.572614
0.572513
0.572411
0.57231
0.572208
0.572107
0.572005
0.571904
0.571802
0.571701
0.571599
0.571498
0.571397
0.571295
0.571194
0.571093
0.570991
0.57089
0.570789
0.570687
0.570586
0.570485
0.570384
0.570283
0.570181
0.57008
0.569979
0.569878
0.569777
0.569676
0.569574
0.569473
0.569372
0.569271
0.56917
0.569069
0.568968
0.568867
0.568766
0.568665
0.568564
0.568463
0.568362
0.568261
0.56816
0.568059
0.567959
0.567858
0.567757
0.567656
0.567555
0.567454
0.567354
0.567253
0.567152
0.567051
0.56695
0.56685
0.566749
0.566648
0.566548
0.566447
0.566346
0.566246
0.566145
0.566044
0.565944
0.565843
0.565743
0.565642
0.565542
0.565441
0.565341
0.56524
0.56514
0.565039
0.564939
0.564838
0.564738
0.564637
0.564537
0.564437
0.564336
0.564236
0.564136
0.564035
0.563935
0.563835
0.563734
0.563634
0.563534
0.563434
0.563333
0.563233
0.563133
0.563033
0.562933
0.562833
0.562732
0.562632
0.562532
0.562432
0.562332
0.562232
0.562132
0.562032
0.561932
0.561832
0.561732
0.561632
0.561532
0.561432
0.561332
0.561232
0.561132
0.561032
0.560932
0.560833
0.560733
0.560633
0.560533
0.560433
0.560333
0.560234
0.560134
0.560034
0.559934
0.559835
0.559735
0.559635
0.559536
0.559436
0.559336
0.559237
0.559137
0.559037
0.558938
0.558838
0.558739
0.558639
0.55854
0.55844
0.558341
0.558241
0.558142
0.558042
0.557943
0.557843
0.557744
0.557645
0.557545
0.557446
0.557346
0.557247
0.557148
0.557048
0.556949
0.55685
0.556751
0.556651
0.556552
0.556453
0.556354
0.556254
0.556155
0.556056
0.555957
0.555858
0.555759
0.555659
0.55556
0.555461
0.555362
0.555263
0.555164
0.555065
0.554966
0.554867
0.554768
0.554669
0.55457
0.554471
0.554372
0.554273
0.554174
0.554076
0.553977
0.553878
0.553779
0.55368
0.553581
0.553482
0.553384
0.553285
0.553186
0.553087
0.552989
0.55289
0.552791
0.552693
0.552594
0.552495
0.552397
0.552298
0.552199
0.552101
0.552002
0.551904
0.551805
0.551706
0.551608
0.551509
0.551411
0.551312
0.551214
0.551115
0.551017
0.550919
0.55082
0.550722
0.550623
0.550525
0.550427
0.550328
0.55023
0.550132
0.550033
0.549935
0.549837
0.549739
0.54964
0.549542
0.549444
0.549346