/*--------------------------------*- C++ -*----------------------------------*\
  =========                 |
  \\      /  F ield         | OpenFOAM: The Open Source CFD Toolbox
   \\    /   O peration     | Website:  https://openfoam.org
    \\  /    A nd           | Version:  9
     \\/     M anipulation  |
\*---------------------------------------------------------------------------*/
FoamFile
{
    format      ascii;
    class       surfaceScalarField;
    location    "0.01";
    object      ddtCorrDdt0(phi);
}
// * * * * * * * * * * * * * * * * * * * * * * * * * * * * * * * * * * * * * //

dimensions      [1 0 -2 0 0 0 0];

internalField   nonuniform List<scalar> 
99
(
251.134
560.796
1193.6
2443.81
4781.61
8901.88
15640.9
25614.2
36357.8
46971.2
57084.7
65241.7
70699.3
73350.4
73601
72071.8
69361.9
65939
62127.4
58138.6
54106.6
50116.4
46222.2
42458.5
38847.9
35403.7
32137.3
29042.5
26156.4
23380.7
20932.9
18445.3
16262.3
14531.7
12095.1
10703.6
9802.79
7036.22
6144.22
6704.17
4468.89
1787.26
2764.38
4317.22
2084.54
-1285.14
-800.66
2377.97
3685.22
40.8071
-3195.19
-2482.06
1485.41
2418.74
4527.07
-1401.47
-3120
-821.46
-182.031
2311.98
1788.87
1158.48
713.812
-277.671
662.501
1910.19
2158.9
-854.371
-3592.74
3155.06
11794.6
-10153.7
2602.97
10503.6
-17889.7
29504.1
105517
136417
100786
61083.4
16051.8
14071
-1.71293
131877
11625
-153647
26259.9
21786.5
-71413.8
-9924.27
78785.8
-59848.4
562.608
102852
-35918.9
1360.29
71388.9
10754.8
-10943.2
)
;

boundaryField
{
    sides
    {
        type            calculated;
        value           nonuniform List<scalar> 2(21525.9 -122.861);
    }
    empty
    {
        type            empty;
        value           nonuniform List<scalar> 0();
    }
}


// ************************************************************************* //
