/*--------------------------------*- C++ -*----------------------------------*\
  =========                 |
  \\      /  F ield         | OpenFOAM: The Open Source CFD Toolbox
   \\    /   O peration     | Website:  https://openfoam.org
    \\  /    A nd           | Version:  9
     \\/     M anipulation  |
\*---------------------------------------------------------------------------*/
FoamFile
{
    format      ascii;
    class       surfaceScalarField;
    location    "0.01";
    object      phi_0;
}
// * * * * * * * * * * * * * * * * * * * * * * * * * * * * * * * * * * * * * //

dimensions      [1 0 -1 0 0 0 0];

internalField   nonuniform List<scalar> 
99
(
0.0711028
0.167275
0.375314
0.814266
1.69844
3.39791
6.49454
11.7902
19.9889
31.092
45.2142
62.1052
81.2247
101.889
123.427
145.285
167.051
188.443
209.278
229.44
248.856
267.481
285.29
302.272
318.423
333.745
348.246
361.934
374.836
386.917
398.334
408.784
418.854
427.874
436.158
444.507
451.094
457.527
464.235
469.142
473.129
478.051
482.586
485.024
486.754
489.681
492.931
494.424
494.267
494.175
495.763
497.674
498.046
497.296
495.862
495.033
496.247
496.716
496.711
496.175
495.265
494.748
494.502
494.426
494.431
494.319
493.934
492.896
492.496
492
491.583
491.51
491.931
490.559
487.909
483.62
463.449
413.14
373.889
346.947
331.055
321.255
316.418
310.85
305.555
309.391
311.703
306.284
304.975
309.738
306.799
303.856
307.284
303.829
299.232
304.315
300.828
296.745
304.074
)
;

boundaryField
{
    sides
    {
        type            calculated;
        value           nonuniform List<scalar> 2(300.032 -0.0343222);
    }
    empty
    {
        type            empty;
        value           nonuniform List<scalar> 0();
    }
}


// ************************************************************************* //
