/*--------------------------------*- C++ -*----------------------------------*\
  =========                 |
  \\      /  F ield         | OpenFOAM: The Open Source CFD Toolbox
   \\    /   O peration     | Website:  https://openfoam.org
    \\  /    A nd           | Version:  9
     \\/     M anipulation  |
\*---------------------------------------------------------------------------*/
FoamFile
{
    format      ascii;
    class       surfaceScalarField;
    location    "0.018";
    object      phi;
}
// * * * * * * * * * * * * * * * * * * * * * * * * * * * * * * * * * * * * * //

dimensions      [1 0 -1 0 0 0 0];

internalField   nonuniform List<scalar> 
999
(
15.8106
17.8347
19.8597
21.8844
23.909
25.9337
27.9581
29.9823
32.0064
34.0303
36.0541
38.0776
40.1009
42.1241
44.147
46.1698
48.1923
50.2146
52.2367
54.2586
56.2803
58.3017
60.3229
62.3438
64.3645
66.3849
68.4051
70.4251
72.4447
74.4642
76.4833
78.5022
80.5207
82.539
84.557
86.5747
88.592
90.609
92.6257
94.6421
96.6582
98.674
100.69
102.705
104.72
106.734
108.748
110.762
112.775
114.788
116.801
118.813
120.825
122.836
124.847
126.858
128.868
130.878
132.887
134.896
136.904
138.912
140.92
142.927
144.933
146.939
148.944
150.949
152.954
154.957
156.961
158.964
160.966
162.967
164.968
166.969
168.969
170.968
172.967
174.965
176.962
178.959
180.955
182.951
184.945
186.94
188.933
190.926
192.918
194.909
196.9
198.89
200.879
202.867
204.854
206.841
208.827
210.812
212.797
214.78
216.763
218.745
220.726
222.706
224.685
226.663
228.64
230.617
232.592
234.567
236.54
238.513
240.484
242.455
244.424
246.392
248.36
250.326
252.291
254.255
256.218
258.179
260.14
262.099
264.057
266.014
267.97
269.924
271.877
273.829
275.779
277.728
279.675
281.621
283.566
285.509
287.451
289.391
291.33
293.267
295.202
297.136
299.068
300.998
302.926
304.853
306.778
308.701
310.622
312.541
314.458
316.373
318.286
320.197
322.105
324.012
325.916
327.817
329.716
331.613
333.507
335.398
337.286
339.172
341.055
342.935
344.811
346.685
348.555
350.422
352.285
354.144
356
357.852
359.7
361.543
363.382
365.217
367.046
368.871
370.691
372.505
374.314
376.116
377.913
379.702
381.487
383.26
385.03
386.791
388.548
390.291
392.02
393.744
395.459
397.163
398.851
400.529
402.194
403.846
405.481
407.111
408.706
410.301
411.865
413.411
414.936
416.432
417.922
419.366
420.776
422.172
423.508
424.833
426.098
427.327
428.524
429.651
430.757
431.803
432.799
433.77
434.672
435.545
436.38
437.158
437.92
438.638
439.317
439.986
440.611
441.215
441.812
442.369
442.921
443.465
443.976
444.492
444.998
445.479
445.97
446.451
446.912
447.386
447.849
448.296
448.757
449.209
449.645
450.096
450.539
450.966
451.408
451.843
452.264
452.696
453.126
453.54
453.963
454.388
454.796
455.209
455.628
456.032
456.435
456.848
457.249
457.643
458.048
458.446
458.832
459.228
459.623
460.004
460.388
460.779
461.157
461.53
461.914
462.29
462.656
463.029
463.403
463.765
464.126
464.494
464.855
465.206
465.565
465.924
466.271
466.618
466.971
467.317
467.655
467.998
468.342
468.677
469.008
469.345
469.68
470.004
470.33
470.66
470.983
471.3
471.62
471.941
472.255
472.564
472.877
473.19
473.494
473.796
474.103
474.406
474.702
474.997
475.296
475.591
475.879
476.167
476.458
476.744
477.024
477.305
477.588
477.867
478.139
478.413
478.688
478.958
479.223
479.489
479.756
480.019
480.277
480.534
480.794
481.05
481.3
481.55
481.801
482.05
482.294
482.535
482.778
483.021
483.257
483.491
483.726
483.961
484.191
484.417
484.644
484.871
485.095
485.314
485.533
485.752
485.97
486.183
486.393
486.604
486.814
487.021
487.224
487.427
487.63
487.831
488.028
488.222
488.417
488.611
488.802
488.989
489.175
489.362
489.547
489.728
489.907
490.085
490.263
490.439
490.611
490.781
490.951
491.121
491.287
491.45
491.612
491.774
491.934
492.091
492.245
492.399
492.553
492.704
492.853
492.998
493.144
493.289
493.432
493.571
493.709
493.846
493.982
494.116
494.247
494.376
494.505
494.633
494.759
494.881
495.002
495.122
495.242
495.359
495.473
495.585
495.697
495.808
495.917
496.023
496.127
496.23
496.332
496.433
496.531
496.626
496.721
496.815
496.907
496.997
497.084
497.17
497.255
497.339
497.421
497.5
497.577
497.654
497.729
497.803
497.874
497.942
498.01
498.077
498.142
498.205
498.266
498.324
498.382
498.439
498.494
498.546
498.597
498.646
498.694
498.741
498.785
498.827
498.867
498.907
498.945
498.982
499.016
499.048
499.079
499.109
499.138
499.165
499.19
499.212
499.235
499.256
499.276
499.294
499.31
499.325
499.34
499.354
499.366
499.377
499.386
499.395
499.403
499.411
499.417
499.422
499.427
499.431
499.435
499.439
499.441
499.442
499.444
499.445
499.446
499.448
499.448
499.447
499.447
499.447
499.448
499.447
499.447
499.445
499.444
499.444
499.444
499.443
499.442
499.44
499.439
499.439
499.438
499.437
499.436
499.435
499.434
499.433
499.432
499.432
499.431
499.43
499.43
499.43
499.431
499.431
499.431
499.431
499.431
499.431
499.432
499.432
499.432
499.432
499.432
499.432
499.432
499.432
499.432
499.432
499.431
499.431
499.431
499.431
499.43
499.43
499.43
499.429
499.429
499.429
499.428
499.428
499.428
499.427
499.427
499.427
499.427
499.426
499.426
499.426
499.426
499.425
499.425
499.425
499.424
499.424
499.423
499.423
499.423
499.423
499.422
499.422
499.422
499.421
499.421
499.421
499.42
499.42
499.42
499.419
499.419
499.419
499.418
499.418
499.418
499.417
499.417
499.417
499.416
499.416
499.416
499.415
499.415
499.414
499.414
499.414
499.413
499.413
499.413
499.412
499.412
499.411
499.411
499.411
499.41
499.41
499.409
499.409
499.409
499.408
499.408
499.407
499.407
499.407
499.406
499.406
499.406
499.405
499.405
499.404
499.404
499.403
499.403
499.402
499.402
499.401
499.401
499.4
499.4
499.399
499.399
499.398
499.398
499.398
499.397
499.397
499.396
499.396
499.395
499.395
499.394
499.394
499.394
499.393
499.392
499.391
499.391
499.391
499.39
499.39
499.389
499.388
499.387
499.387
499.386
499.385
499.385
499.385
499.383
499.382
499.383
499.382
499.38
499.38
499.381
499.379
499.375
499.378
499.377
499.373
499.374
499.378
499.376
499.368
499.368
499.372
499.369
499.364
499.373
499.373
499.364
499.358
499.37
499.369
499.358
499.355
499.371
499.368
499.347
499.345
499.368
499.368
499.351
499.335
499.347
499.354
499.34
499.331
499.359
499.356
499.326
499.329
499.364
499.351
499.308
499.326
499.372
499.343
499.274
499.33
499.418
499.34
499.183
499.275
499.506
499.522
499.205
499.119
499.327
499.475
499.46
499.189
499.143
499.361
499.444
499.467
499.446
499.199
499.154
499.344
499.397
499.376
499.186
499.144
499.229
499.243
499.219
499.208
499.183
499.088
499.234
499.347
499.31
499.137
499.166
499.348
499.308
499.082
499.125
499.377
499.337
499.009
499.032
499.419
499.434
498.951
498.844
499.508
499.588
498.882
498.59
499.57
499.846
499.114
498.387
498.94
499.786
499.842
498.698
498.388
499.239
499.552
499.305
498.519
498.763
499.539
499.281
498.278
498.76
499.988
499.223
497.415
498.736
500.997
499.8
496.418
496.968
501.35
502.116
499.894
496.403
496.219
500.581
501.448
501.569
497.136
495.702
498.523
501.678
502.239
498.506
495.625
497.633
501.509
501.846
497.014
495.331
498.699
501.323
501.759
499.272
496.086
496.677
499.848
500.086
498.573
496.342
497.742
499.557
498.882
496.395
497.209
499.726
499.133
495.928
496.29
499.866
499.76
496.242
495.196
499.006
499.038
497.875
496.263
495.822
494.577
492.891
498.983
499.76
499.155
495.951
494.713
494.486
492.661
492.457
499.289
499.424
497.855
494.456
493.356
493.008
490.107
494.081
500.852
501.13
497.945
491.364
492.98
499.35
499.003
494.597
490.615
494.989
496.149
494.078
490.344
495.295
496.713
494.488
490.244
494.718
497.038
495.157
490.618
489.627
495.246
495.31
494.304
492.612
488.178
487.946
499.453
499.603
498.007
490.728
486.336
493.235
494.157
491.914
487.309
491.21
493.982
492.032
487.509
488.009
493.325
491.809
488.275
485.436
491.871
490.863
487.884
483.755
491.681
491.909
489.792
484.578
485.23
493.956
493.342
491.527
489.09
483.536
486.348
492.97
491.991
489.926
485.237
484.304
489.551
488.014
484.198
487.603
489.488
487.295
483.593
490.039
490.654
488.96
484.729
487.063
490.672
489.666
485.304
484.982
491.621
491.608
489.143
483.692
486.971
492.513
492.777
491.706
483.929
482.242
491.169
491.954
490.708
484.68
483.483
487.582
487.305
484.385
483.095
488.522
488.406
483.46
482.787
492
492.911
485.774
481.15
490.957
495.348
491.438
481.349
484.112
496.214
497.294
482.868
479.188
489.499
495.798
496.635
484.131
481.458
482.726
486.596
486.587
483.603
483.006
484.953
484.354
482.363
487.787
490.184
486.059
482.904
482.536
485.316
486.374
484.656
484.438
488.261
488.578
)
;

boundaryField
{
    sides
    {
        type            calculated;
        value           nonuniform List<scalar> 2(484.478 -13.7858);
    }
    empty
    {
        type            empty;
        value           nonuniform List<scalar> 0();
    }
}


// ************************************************************************* //
