/*--------------------------------*- C++ -*----------------------------------*\
  =========                 |
  \\      /  F ield         | OpenFOAM: The Open Source CFD Toolbox
   \\    /   O peration     | Website:  https://openfoam.org
    \\  /    A nd           | Version:  9
     \\/     M anipulation  |
\*---------------------------------------------------------------------------*/
FoamFile
{
    format      ascii;
    class       volScalarField;
    location    "0.027";
    object      p;
}
// * * * * * * * * * * * * * * * * * * * * * * * * * * * * * * * * * * * * * //

dimensions      [1 -1 -2 0 0 0 0];

internalField   nonuniform List<scalar> 
100
(
55150
54075.9
53433
52750.1
52086.6
51427.5
50776.1
50131.5
49493.7
48862.8
48238.6
47621.1
47010.3
46406
45808.2
45216.8
44631.8
44053.1
43480.7
42914.6
42354.7
41801
41253.5
40712.1
40176.9
39647.8
39124.8
38607.9
38097
37592.1
37093.2
36600.3
36113.3
35632.1
35156.8
34687.5
34224.1
33766.9
33316
32871.8
32435.8
32012
31608.6
31248.3
30942
30717.8
30583.7
30516.8
30484
30460.5
30427.6
30390.7
30368.9
30355.4
30345.3
30342.2
30341.9
30338.9
30334.1
30328.1
30319.9
30307.3
30305.2
30313.2
30318.2
30318.5
30315.7
30309.4
30294.2
30277.7
30278.8
30288.3
30295.4
30301.7
30315
30320.2
30319.9
30318.8
30318.5
30322.7
30332.3
30339.6
30344.5
30346.9
30346.4
30337
30318.1
30311.7
30343.4
30587.8
31004
31197.4
31251.1
31269.4
31308.6
31536
31855.5
31996.3
32029.3
32036.2
)
;

boundaryField
{
    sides
    {
        type            zeroGradient;
    }
    empty
    {
        type            empty;
    }
}


// ************************************************************************* //
