/*--------------------------------*- C++ -*----------------------------------*\
  =========                 |
  \\      /  F ield         | OpenFOAM: The Open Source CFD Toolbox
   \\    /   O peration     | Website:  https://openfoam.org
    \\  /    A nd           | Version:  9
     \\/     M anipulation  |
\*---------------------------------------------------------------------------*/
FoamFile
{
    format      ascii;
    class       volScalarField;
    location    "0.027";
    object      T;
}
// * * * * * * * * * * * * * * * * * * * * * * * * * * * * * * * * * * * * * //

dimensions      [0 0 0 1 0 0 0];

internalField   nonuniform List<scalar> 
100
(
294.496
292.839
291.826
290.741
289.676
288.608
287.541
286.474
285.407
284.339
283.269
282.196
281.121
280.041
278.959
277.874
276.788
275.704
274.626
273.556
272.496
271.449
270.414
269.39
268.373
267.363
266.356
265.35
264.345
263.34
262.335
261.333
260.332
259.334
258.338
257.347
256.358
255.374
254.394
253.419
252.453
251.505
250.594
249.773
249.07
248.55
248.242
248.085
248.005
247.948
247.871
247.786
247.739
247.701
247.672
247.665
247.664
247.657
247.646
247.631
247.61
247.575
247.569
247.585
247.598
247.599
247.592
247.576
247.534
247.491
247.493
247.515
247.532
247.545
247.571
247.58
247.578
247.571
247.567
247.577
247.599
247.615
247.624
247.622
247.618
247.591
247.545
247.526
247.599
248.166
249.143
249.545
249.662
249.712
249.81
250.333
251.089
251.326
251.352
251.395
)
;

boundaryField
{
    sides
    {
        type            zeroGradient;
    }
    empty
    {
        type            empty;
    }
}


// ************************************************************************* //
