/*--------------------------------*- C++ -*----------------------------------*\
  =========                 |
  \\      /  F ield         | OpenFOAM: The Open Source CFD Toolbox
   \\    /   O peration     | Website:  https://openfoam.org
    \\  /    A nd           | Version:  9
     \\/     M anipulation  |
\*---------------------------------------------------------------------------*/
FoamFile
{
    format      ascii;
    class       volVectorField;
    location    "0.027";
    object      U;
}
// * * * * * * * * * * * * * * * * * * * * * * * * * * * * * * * * * * * * * //

dimensions      [0 1 -1 0 0 0 0];

internalField   nonuniform List<vector> 
100
(
(161.837 0 0)
(166.601 0 0)
(169.366 0 0)
(172.357 0 0)
(175.293 0 0)
(178.242 0 0)
(181.189 0 0)
(184.136 0 0)
(187.084 0 0)
(190.032 0 0)
(192.98 0 0)
(195.928 0 0)
(198.877 0 0)
(201.826 0 0)
(204.775 0 0)
(207.725 0 0)
(210.674 0 0)
(213.624 0 0)
(216.575 0 0)
(219.525 0 0)
(222.475 0 0)
(225.426 0 0)
(228.376 0 0)
(231.327 0 0)
(234.277 0 0)
(237.227 0 0)
(240.177 0 0)
(243.126 0 0)
(246.074 0 0)
(249.021 0 0)
(251.968 0 0)
(254.913 0 0)
(257.857 0 0)
(260.799 0 0)
(263.739 0 0)
(266.676 0 0)
(269.611 0 0)
(272.543 0 0)
(275.468 0 0)
(278.379 0 0)
(281.265 0 0)
(284.099 0 0)
(286.816 0 0)
(289.339 0 0)
(291.416 0 0)
(292.893 0 0)
(293.72 0 0)
(294.038 0 0)
(294.115 0 0)
(294.162 0 0)
(294.312 0 0)
(294.495 0 0)
(294.558 0 0)
(294.508 0 0)
(294.391 0 0)
(294.268 0 0)
(294.177 0 0)
(294.134 0 0)
(294.113 0 0)
(294.095 0 0)
(294.048 0 0)
(293.93 0 0)
(293.805 0 0)
(293.687 0 0)
(293.624 0 0)
(293.598 0 0)
(293.588 0 0)
(293.571 0 0)
(293.479 0 0)
(293.351 0 0)
(293.289 0 0)
(293.213 0 0)
(293.17 0 0)
(293.18 0 0)
(293.269 0 0)
(293.312 0 0)
(293.324 0 0)
(293.324 0 0)
(293.297 0 0)
(293.208 0 0)
(293.125 0 0)
(293.076 0 0)
(293.046 0 0)
(293.039 0 0)
(293.047 0 0)
(293.116 0 0)
(293.252 0 0)
(293.298 0 0)
(293.063 0 0)
(291.253 0 0)
(288.209 0 0)
(286.781 0 0)
(286.413 0 0)
(286.292 0 0)
(286.007 0 0)
(284.349 0 0)
(282.046 0 0)
(281.067 0 0)
(280.814 0 0)
(280.803 0 0)
)
;

boundaryField
{
    sides
    {
        type            zeroGradient;
    }
    empty
    {
        type            empty;
    }
}


// ************************************************************************* //
