/*--------------------------------*- C++ -*----------------------------------*\
  =========                 |
  \\      /  F ield         | OpenFOAM: The Open Source CFD Toolbox
   \\    /   O peration     | Website:  https://openfoam.org
    \\  /    A nd           | Version:  9
     \\/     M anipulation  |
\*---------------------------------------------------------------------------*/
FoamFile
{
    format      ascii;
    class       volScalarField;
    location    "0.015";
    object      mag(U);
}
// * * * * * * * * * * * * * * * * * * * * * * * * * * * * * * * * * * * * * //

dimensions      [0 1 -1 0 0 0 0];

internalField   nonuniform List<scalar> 
100
(
12.7636
25.7303
31.8639
40.5658
48.0452
55.8121
63.057
70.2204
76.972
83.4873
89.7052
95.6907
101.474
107.098
112.601
118.014
123.369
128.678
133.971
139.233
144.504
149.74
155.004
160.224
165.468
170.706
175.902
181.15
186.309
191.487
196.687
201.805
206.922
212.05
217.094
222.118
227.107
232.033
236.891
241.693
246.396
250.983
255.466
259.824
264.015
268
271.733
275.255
278.558
281.511
284.062
286.323
288.216
289.745
291.066
292.039
292.49
292.846
293.234
293.438
293.535
293.577
293.585
293.59
293.604
293.648
293.723
293.744
293.729
293.699
293.662
293.645
293.64
293.632
293.614
293.597
293.585
293.555
293.495
293.421
293.353
293.273
293.163
293.03
292.864
292.644
292.384
292.043
291.518
291.049
290.635
289.762
287.268
281.474
270.015
247.075
224.231
212.095
213.267
219.946
)
;

boundaryField
{
    sides
    {
        type            calculated;
        value           nonuniform List<scalar> 2(219.946 12.7636);
    }
    empty
    {
        type            empty;
    }
}


// ************************************************************************* //
