/*--------------------------------*- C++ -*----------------------------------*\
  =========                 |
  \\      /  F ield         | OpenFOAM: The Open Source CFD Toolbox
   \\    /   O peration     | Website:  https://openfoam.org
    \\  /    A nd           | Version:  9
     \\/     M anipulation  |
\*---------------------------------------------------------------------------*/
FoamFile
{
    format      ascii;
    class       surfaceScalarField;
    location    "0.015";
    object      phi;
}
// * * * * * * * * * * * * * * * * * * * * * * * * * * * * * * * * * * * * * //

dimensions      [1 0 -1 0 0 0 0];

internalField   nonuniform List<scalar> 
99
(
68.8787
95.0595
120.878
145.991
170.238
193.322
215.116
235.383
254.068
271.187
286.837
301.165
314.332
326.505
337.832
348.447
358.45
367.925
376.931
385.497
393.687
401.436
408.932
415.893
422.739
429.097
435.011
441.068
446.157
451.27
456.478
460.595
464.625
469.09
472.686
475.486
478.725
482.146
484.599
486.299
488.337
490.791
492.733
493.667
494.189
495.236
496.841
497.962
497.905
497.264
497.316
498.301
499.048
498.903
498.61
497.882
496.999
497.612
497.992
497.989
497.864
497.352
496.917
496.674
496.787
496.984
496.716
495.952
494.201
495.021
496.121
495.661
495.234
494.329
491.133
494.534
495.205
494.117
491.012
490.126
495.609
494.866
493.62
491.876
488.7
482.577
494.508
493.987
492.384
488.531
476.075
441.877
401.768
368.029
340.669
317.284
296.472
282.654
277.995
)
;

boundaryField
{
    sides
    {
        type            calculated;
        value           nonuniform List<scalar> 2(278.014 -42.2194);
    }
    empty
    {
        type            empty;
        value           nonuniform List<scalar> 0();
    }
}


// ************************************************************************* //
