/*--------------------------------*- C++ -*----------------------------------*\
  =========                 |
  \\      /  F ield         | OpenFOAM: The Open Source CFD Toolbox
   \\    /   O peration     | Website:  https://openfoam.org
    \\  /    A nd           | Version:  9
     \\/     M anipulation  |
\*---------------------------------------------------------------------------*/
FoamFile
{
    format      ascii;
    class       volScalarField;
    location    "0.015";
    object      T;
}
// * * * * * * * * * * * * * * * * * * * * * * * * * * * * * * * * * * * * * //

dimensions      [0 0 0 1 0 0 0];

internalField   nonuniform List<scalar> 
100
(
323.099
322.415
321.93
321.179
320.448
319.619
318.685
317.616
316.432
315.114
313.687
312.16
310.554
308.883
307.166
305.415
303.642
301.853
300.065
298.254
296.49
294.629
292.981
290.945
289.589
287.246
286.1
283.949
282.166
280.916
278.725
276.981
275.804
273.837
271.833
270.589
269.223
267.217
265.407
264.239
263.041
261.317
259.508
258.177
257.295
256.316
254.829
253.22
252.246
251.897
251.498
250.607
249.514
248.856
248.736
248.821
248.885
248.775
248.433
248.254
248.252
248.346
248.569
248.654
248.658
248.62
248.592
248.596
248.651
248.787
248.93
248.983
249.003
249.017
249.028
249.13
249.381
249.521
249.587
249.583
249.725
249.928
250.237
250.525
250.743
250.848
251.023
251.317
251.716
252.853
256.285
267.212
294.951
327.602
355.604
385.347
412.875
422.197
425.702
427.945
)
;

boundaryField
{
    sides
    {
        type            zeroGradient;
    }
    empty
    {
        type            empty;
    }
}


// ************************************************************************* //
