/*--------------------------------*- C++ -*----------------------------------*\
  =========                 |
  \\      /  F ield         | OpenFOAM: The Open Source CFD Toolbox
   \\    /   O peration     | Website:  https://openfoam.org
    \\  /    A nd           | Version:  9
     \\/     M anipulation  |
\*---------------------------------------------------------------------------*/
FoamFile
{
    format      ascii;
    class       volVectorField;
    location    "0.015";
    object      U;
}
// * * * * * * * * * * * * * * * * * * * * * * * * * * * * * * * * * * * * * //

dimensions      [0 1 -1 0 0 0 0];

internalField   nonuniform List<vector> 
100
(
(12.7636 0 0)
(25.7303 0 0)
(31.8639 0 0)
(40.5658 0 0)
(48.0452 0 0)
(55.8121 0 0)
(63.057 0 0)
(70.2204 0 0)
(76.972 0 0)
(83.4873 0 0)
(89.7052 0 0)
(95.6907 0 0)
(101.474 0 0)
(107.098 0 0)
(112.601 0 0)
(118.014 0 0)
(123.369 0 0)
(128.678 0 0)
(133.971 0 0)
(139.233 0 0)
(144.504 0 0)
(149.74 0 0)
(155.004 0 0)
(160.224 0 0)
(165.468 0 0)
(170.706 0 0)
(175.902 0 0)
(181.15 0 0)
(186.309 0 0)
(191.487 0 0)
(196.687 0 0)
(201.805 0 0)
(206.922 0 0)
(212.05 0 0)
(217.094 0 0)
(222.118 0 0)
(227.107 0 0)
(232.033 0 0)
(236.891 0 0)
(241.693 0 0)
(246.396 0 0)
(250.983 0 0)
(255.466 0 0)
(259.824 0 0)
(264.015 0 0)
(268 0 0)
(271.733 0 0)
(275.255 0 0)
(278.558 0 0)
(281.511 0 0)
(284.062 0 0)
(286.323 0 0)
(288.216 0 0)
(289.745 0 0)
(291.066 0 0)
(292.039 0 0)
(292.49 0 0)
(292.846 0 0)
(293.234 0 0)
(293.438 0 0)
(293.535 0 0)
(293.577 0 0)
(293.585 0 0)
(293.59 0 0)
(293.604 0 0)
(293.648 0 0)
(293.723 0 0)
(293.744 0 0)
(293.729 0 0)
(293.699 0 0)
(293.662 0 0)
(293.645 0 0)
(293.64 0 0)
(293.632 0 0)
(293.614 0 0)
(293.597 0 0)
(293.585 0 0)
(293.555 0 0)
(293.495 0 0)
(293.421 0 0)
(293.353 0 0)
(293.273 0 0)
(293.163 0 0)
(293.03 0 0)
(292.864 0 0)
(292.644 0 0)
(292.384 0 0)
(292.043 0 0)
(291.518 0 0)
(291.049 0 0)
(290.635 0 0)
(289.762 0 0)
(287.268 0 0)
(281.474 0 0)
(270.015 0 0)
(247.075 0 0)
(224.231 0 0)
(212.095 0 0)
(213.267 0 0)
(219.946 0 0)
)
;

boundaryField
{
    sides
    {
        type            zeroGradient;
    }
    empty
    {
        type            empty;
    }
}


// ************************************************************************* //
