/*--------------------------------*- C++ -*----------------------------------*\
  =========                 |
  \\      /  F ield         | OpenFOAM: The Open Source CFD Toolbox
   \\    /   O peration     | Website:  https://openfoam.org
    \\  /    A nd           | Version:  9
     \\/     M anipulation  |
\*---------------------------------------------------------------------------*/
FoamFile
{
    format      ascii;
    class       volScalarField;
    location    "0.03";
    object      p;
}
// * * * * * * * * * * * * * * * * * * * * * * * * * * * * * * * * * * * * * //

dimensions      [1 -1 -2 0 0 0 0];

internalField   nonuniform List<scalar> 
10000
(
51958.8
51949.4
51943.7
51937.5
51931.4
51925.4
51919.3
51913.2
51907.2
51901.1
51895
51888.9
51882.8
51876.8
51870.7
51864.6
51858.6
51852.6
51846.5
51840.5
51834.4
51828.3
51822.2
51816.1
51810
51804
51797.9
51791.8
51785.8
51779.7
51773.7
51767.6
51761.6
51755.5
51749.5
51743.5
51737.4
51731.4
51725.3
51719.3
51713.3
51707.2
51701.2
51695.1
51689.1
51683
51677
51670.9
51664.9
51658.8
51652.8
51646.7
51640.6
51634.6
51628.5
51622.5
51616.4
51610.4
51604.3
51598.3
51592.2
51586.2
51580.1
51574
51568
51561.9
51555.9
51549.8
51543.8
51537.7
51531.7
51525.7
51519.7
51513.6
51507.6
51501.6
51495.5
51489.5
51483.4
51477.4
51471.4
51465.3
51459.3
51453.3
51447.2
51441.2
51435.1
51429.1
51423.1
51417.1
51411
51405
51399
51393
51386.9
51380.9
51374.9
51368.9
51362.8
51356.8
51350.8
51344.8
51338.8
51332.8
51326.8
51320.7
51314.7
51308.7
51302.7
51296.6
51290.6
51284.6
51278.6
51272.5
51266.6
51260.6
51254.6
51248.5
51242.5
51236.4
51230.4
51224.4
51218.5
51212.5
51206.5
51200.5
51194.4
51188.3
51182.3
51176.4
51170.5
51164.6
51158.6
51152.5
51146.3
51140.2
51134.2
51128.3
51122.4
51116.6
51110.6
51104.6
51098.4
51092.3
51086.2
51080.2
51074.2
51068.4
51062.5
51056.6
51050.5
51044.4
51038.3
51032.2
51026.3
51020.5
51014.7
51008.8
51002.7
50996.5
50990.3
50984.2
50978.3
50972.6
50966.9
50961
50954.9
50948.7
50942.4
50936.2
50930.2
50924.4
50918.8
50913.1
50907.1
50900.9
50894.6
50888.5
50882.6
50876.8
50870.9
50864.8
50858.6
50852.6
50846.8
50841.4
50835.9
50829.9
50823.5
50816.9
50810.4
50804.1
50798.5
50793.8
50789.3
50783.4
50776.5
50769.4
50762.4
50755.8
50750.2
50747.4
50743.5
50736.4
50728.8
50721.2
50713.9
50707.3
50702.9
50701.4
50695.9
50688.3
50680.4
50672.8
50665.6
50659.5
50657.3
50654.3
50647.2
50639.4
50631.7
50624.5
50618.3
50615.9
50612.3
50605.1
50597.3
50589.6
50582.4
50576.3
50574.3
50571.6
50564.4
50556.4
50548.3
50540.8
50534
50529.1
50528.3
50523.5
50515.9
50507.9
50500.4
50493.5
50488.8
50486.7
50480.8
50473.2
50465.4
50458
50451.4
50447.8
50446.6
50440.6
50432.8
50424.2
50416.2
50408.8
50402.1
50397.6
50398.3
50394.9
50387.4
50378.8
50370.4
50362.9
50356.2
50351.3
50351.5
50347.6
50340
50331.4
50323
50315.5
50308.8
50304.2
50303.8
50299
50291.4
50282.8
50274.7
50267.5
50261.2
50258.9
50257.7
50251.2
50243.1
50234.1
50226.3
50219.3
50213.6
50213.2
50211.6
50204.5
50196.1
50187
50179.2
50172.3
50167
50167.2
50164.4
50157
50148.3
50139.2
50131.5
50124.8
50119.9
50120.4
50116.9
50109.4
50100.4
50091.3
50083.6
50076.8
50072
50072.8
50070
50062.6
50053.7
50044
50036.1
50029.1
50023.2
50022.5
50023.1
50017.1
50009
49999.8
49991.7
49984.5
49978.2
49975.6
49973.5
49966.8
49959.2
49951.8
49945
49940.5
49937.8
49931.6
49924
49916
49908.6
49901.7
49896.4
49895.5
49891.6
49884.2
49876.3
49868.8
49862
49857
49855
49849.4
49841.8
49833.7
49825.9
49818.9
49813.1
49812.4
49811.7
49805.1
49796.9
49786.8
49778.3
49771
49764.8
49762.3
49763.9
49759.3
49751.5
49742
49732.1
49724.4
49717.6
49712.4
49712.8
49711.9
49705
49696.6
49686.1
49677.2
49669.8
49663.4
49659.5
49662.4
49663.5
49657.3
49649.2
49638.7
49627.7
49619.7
49612.4
49605.8
49601.2
49602.5
49601.5
49594.7
49586.5
49577.4
49569.6
49562.6
49556.7
49555
49552.1
49545.2
49537.6
49530.3
49523.4
49518.1
49513.4
49506.6
49499.3
49492
49485.4
49480.6
49480.5
49476.3
49468.9
49460.3
49451.9
49444.6
49438.3
49435
49435.5
49430.4
49422.8
49414.2
49406.4
49399.4
49393.5
49391.3
49387.2
49380
49372.1
49364.5
49357.4
49351.3
49349.3
49348.4
49341.9
49334
49325
49317.3
49310.4
49305
49304.8
49303.5
49296.8
49288.8
49280.5
49273.2
49266.4
49261.1
49257.3
49251.3
49244.3
49237.5
49231.6
49228.2
49223.2
49216.1
49208.5
49201
49193.9
49187.6
49184.7
49185.4
49180.4
49172.7
49163.4
49154.5
49147.1
49140.7
49136.8
49137.8
49133.7
49126.2
49117.2
49108.1
49100.7
49094.2
49090.3
49092.7
49092.2
49085.5
49077.1
49065.8
49055.1
49047.4
49040.5
49034.8
49033.6
49036.9
49033.5
49026.1
49017.4
49008.2
49000.6
48993.6
48987.3
48983.2
48978.2
48971.3
48964.3
48957.6
48952.5
48950.9
48946.3
48939.1
48931.1
48923.2
48916.1
48909.8
48906.8
48907.2
48902
48894.3
48884.6
48874.9
48867.4
48860.9
48856.5
48858.8
48862.7
48858.1
48850.4
48840.7
48826.9
48815.8
48808
48800.9
48794.4
48789.6
48790.9
48797.4
48795.6
48788.6
48780
48767.9
48755.4
48747.2
48740
48733.6
48729.4
48731.4
48732.1
48726
48718.1
48707.9
48698.1
48690.6
48683.9
48678.5
48678.4
48678.3
48672
48664.1
48654.5
48646.1
48639
48632.7
48629.5
48630.1
48625.2
48617.7
48609.1
48601.3
48594.4
48588.7
48587.7
48587.5
48581.3
48573.4
48563.3
48554
48546.7
48540.2
48535.7
48537
48535.6
48528.8
48520.6
48510.6
48502.2
48495.2
48489
48486.1
48487.4
48483
48475.5
48466.6
48457.6
48450.3
48443.8
48439.1
48439.5
48436.4
48429.3
48421.1
48412.6
48405.4
48398.9
48394.5
48394
48389.3
48382
48373.9
48366.2
48359.4
48353.5
48351.9
48350.4
48343.8
48336
48327.1
48319.5
48312.7
48307.1
48306.2
48304.7
48298
48290.1
48281.1
48273.5
48266.8
48261.1
48260
48257.9
48251.2
48243.3
48234.7
48227.4
48220.9
48216
48216.1
48213.1
48206
48197.7
48188.8
48181.4
48174.9
48170.2
48171.4
48170.7
48164.2
48156.1
48145.5
48135.7
48128.3
48121.8
48116.6
48116.9
48117.8
48112.1
48104.4
48094.8
48085.3
48078
48071.4
48066.1
48066
48064.3
48057.6
48049.7
48040.7
48033.2
48026.7
48021.6
48022.1
48023.5
48017.9
48010.2
48000
47988
47979.7
47972.7
47966.6
47963.4
47966.6
47966.6
47960.2
47952.3
47941.9
47932
47924.6
47918
47912.7
47912.5
47915.5
47911.3
47903.9
47894.9
47882.8
47873
47865.5
47858.5
47851.6
47845.1
47839.7
47838.9
47843.8
47842.5
47835.8
47827.7
47817
47806.9
47799.4
47792.6
47786.8
47784.6
47786.5
47782.6
47775.3
47766.7
47757.3
47749.9
47743.2
47737.5
47736
47735.4
47729.3
47721.8
47713.8
47706.7
47700
47694.7
47691.9
47686.8
47679.8
47672.6
47665.5
47658.9
47653.2
47651.6
47649.7
47643.3
47635.8
47627.7
47620.6
47614.1
47609.3
47609.8
47607.9
47601.2
47593.3
47584.2
47576.5
47569.6
47563
47557.5
47552.4
47546
47539.2
47532.7
47527.1
47525.4
47525.9
47520.7
47513.3
47505
47497.4
47490.7
47484.9
47483.3
47484.3
47479.2
47471.7
47462.4
47450.9
47442.3
47435.2
47428.3
47421.5
47415.3
47410.8
47412.1
47416
47412.2
47405
47396.5
47386.5
47378.5
47371.6
47365.5
47361.8
47362.9
47359.5
47352.5
47343.9
47333.1
47324.6
47317.7
47311.6
47307.8
47310.3
47310.5
47304.4
47296.7
47286.5
47276.2
47268.7
47262
47256.3
47254.2
47256.3
47252.7
47245.6
47237.1
47227.3
47219.7
47212.9
47207
47204.3
47205.4
47201.1
47193.9
47185.6
47177.4
47170.4
47164
47159.2
47158
47153.7
47146.8
47139.3
47132.2
47125.5
47119.7
47117.3
47115.4
47109.1
47101.8
47093.2
47085.6
47078.9
47073
47070.3
47070.9
47066.1
47058.9
47050.2
47041.6
47034.5
47028.2
47023.1
47023.1
47021.6
47015.2
47007.7
47000.1
46993.3
46987.1
46983.4
46981.2
46975.2
46967.9
46959.2
46950.5
46943.4
46937.1
46932.5
46933.5
46935.4
46930.2
46922.8
46913.4
46902.3
46894.1
46887.3
46881.1
46876.9
46878.3
46877.9
46871.7
46864.2
46855.1
46847
46840.1
46833.8
46829
46828.1
46824.3
46817.6
46810.3
46803.2
46796.7
46791.1
46789.2
46786.7
46780.3
46772.8
46764
46756.3
46749.6
46743.7
46740.6
46741.9
46737.9
46730.9
46722.6
46713.2
46705.9
46699.3
46693.6
46691.8
46692.3
46687.2
46680
46671.3
46662.8
46655.9
46649.6
46644.8
46645.2
46644.3
46638
46630.5
46622
46614.7
46608.2
46602.3
46599.1
46595.1
46588.4
46581.1
46572.6
46565
46558.3
46552.4
46549.3
46552.7
46553.5
46547.7
46540.2
46530.2
46518.4
46510.2
46503.4
46497.3
46492.7
46493.8
46496.2
46491.5
46484.4
46475.9
46467.2
46460.1
46453.6
46447.8
46444
46438.9
46432.2
46425.1
46417.4
46410.4
46403.9
46398.3
46396.2
46399.7
46398.1
46391.5
46383.7
46372.7
46361.5
46353.9
46347.3
46341.3
46337.3
46339.1
46339.9
46334.3
46327.1
46318.8
46311.3
46304.7
46298.8
46295.6
46293.7
46287.8
46280.6
46271.5
46261.8
46254.5
46248.1
46242.7
46241.6
46245.8
46243.6
46237
46229.1
46218.1
46207.7
46200.4
46193.8
46188.1
46185.2
46188.1
46187
46180.7
46173.2
46163.4
46154.2
46147.2
46140.7
46135.2
46133.5
46134.5
46129.9
46122.9
46114.7
46106.6
46099.8
46093.6
46088.5
46086.7
46082.8
46076.3
46069.1
46061.8
46055.1
46048.9
46044.1
46044.1
46042.1
46035.6
46028.3
46020
46012.9
46006.3
46000.3
45996.2
45992.6
45986.5
45979.8
45973.1
45966.7
45960.9
45957.9
45956.6
45951.1
45944.2
45936.4
45929
45922.4
45916.3
45912.1
45912.8
45910.4
45904
45896.5
45888.6
45881.7
45875.3
45869.6
45866.8
45863.8
45857.6
45850.9
45844.3
45838
45832.7
45828
45821.9
45815.2
45808.3
45801.3
45794.8
45788.6
45783.8
45784
45785.7
45780.9
45773.9
45765.4
45755.8
45748.5
45742
45736.3
45733.2
45734.1
45730
45723.2
45715
45705.3
45697.7
45691.1
45685.4
45682
45684.3
45683.1
45676.9
45669.5
45660
45651
45644.1
45637.8
45632.3
45630.7
45630.4
45624.9
45617.9
45609.4
45601.2
45594.5
45588.4
45583.7
45584.1
45584.1
45578.3
45571
45561.5
45550.9
45543.4
45536.9
45531.2
45528.1
45531.1
45531.6
45525.9
45518.7
45509.3
45498.3
45490.4
45483.9
45477.8
45473.2
45473.7
45474.8
45469.6
45462.6
45453.9
45444.5
45437.4
45430.9
45425.2
45421.9
45423.6
45421.2
45414.8
45407.6
45400.4
45393.9
45387.7
45382.8
45378
45371.6
45364.8
45356.8
45346.7
45338.6
45332
45325.9
45320.9
45320.7
45327.7
45329
45323.5
45316.4
45307.4
45295.2
45286.1
45279.4
45273
45267.3
45264.1
45266
45264
45257.7
45250.2
45240.7
45232
45225.2
45219
45213.7
45212.2
45213.5
45209.1
45202.3
45194.1
45184.9
45177.6
45171.2
45165.5
45162
45163.1
45160.1
45153.6
45146.1
45137.5
45130.4
45124
45118.4
45115.5
45117.4
45114.7
45108.2
45100.8
45091.6
45083.3
45076.5
45070.1
45063.6
45057.1
45050.6
45044.2
45037.9
45032.3
45028.8
45031.6
45035.1
45030.8
45024.1
45015.8
45003.9
44992.9
44985.7
44979.2
44973.4
44969.1
44970.4
44973.2
44968.9
44962.1
44954
44943.6
44935.3
44928.7
44922.6
44917.3
44915.9
44917.9
44914.1
44907.5
44900.1
44892.5
44885.9
44879.7
44874.1
44869.3
44863.4
44856.9
44850
44842.8
44836.3
44830.1
44824.8
44823
44826.9
44825.7
44819.6
44812.2
44802.1
44789.9
44781.7
44775.2
44769.2
44764.2
44763.7
44767.8
44765.3
44759
44751.5
44741.5
44731.8
44724.8
44718.5
44712.8
44709.2
44710.8
44709.3
44703.2
44696
44686.9
44678.2
44671.6
44665.4
44660.2
44658.6
44661.1
44657.8
44651.3
44643.6
44633.1
44622.9
44615.7
44609.3
44603.1
44597.5
44594.1
44596.9
44600.9
44596.9
44590.3
44582.5
44571.1
44559.6
44552.2
44545.8
44539.9
44535
44534.5
44537.7
44534.3
44527.8
44520.2
44510
44500.9
44494.2
44488
44482.6
44480.4
44484.3
44484.7
44479.1
44472.2
44463.7
44453.6
44446.1
44439.6
44433.3
44427
44420.8
44414.7
44408.7
44402.7
44397
44392.1
44391
44393.6
44390.3
44383.9
44376.4
44366.7
44357.9
44351.3
44345.1
44339.6
44336.8
44338.2
44335
44328.6
44321.2
44312.4
44305.2
44298.9
44293.2
44289.5
44291.6
44293
44288
44281.3
44273.1
44262.6
44254.3
44247.8
44241.4
44235.1
44228.9
44222.6
44216.4
44210.6
44205.8
44205.1
44208.1
44204.9
44198.6
44191.3
44181.8
44173
44166.4
44160.2
44154.6
44151
44152.1
44149.8
44143.6
44136.5
44127.7
44119.9
44113.5
44107.6
44102.7
44102.1
44102.9
44098
44091.3
44083.4
44074.7
44067.9
44061.7
44056.2
44052.8
44052.9
44048.9
44042.4
44035
44026
44018.6
44012.3
44006.4
44001.5
44000.4
43998.6
43992.8
43986.2
43979.4
43973.1
43967.2
43962.4
43960.8
43957
43950.8
43943.9
43935.8
43928.6
43922.3
43916.6
43912.1
43912.6
43912.3
43906.8
43900.1
43891.9
43883.8
43877.4
43871.3
43866.2
43864.7
43866.5
43862.7
43856.3
43848.7
43838.2
43828.1
43821.1
43814.9
43808.7
43802.7
43797.5
43795
43799.1
43801.8
43797.2
43790.6
43782.6
43770.7
43758.7
43751.3
43745
43739.1
43734.2
43733.4
43738.6
43738
43732.2
43725.4
43716.3
43704.2
43695.5
43689.1
43683
43677.6
43674.8
43677.8
43678.2
43672.8
43666.1
43657.6
43646.9
43639
43632.7
43626.8
43621.7
43620.1
43623
43620.4
43614.2
43607.1
43597.7
43588.7
43582.1
43576
43570.5
43566.9
43569.2
43571.8
43567.4
43561
43553.4
43542.5
43530.1
43522.2
43515.9
43509.7
43503.5
43497.4
43491.3
43485.4
43480.4
43478.7
43484
43487.7
43483.4
43476.9
43469.3
43458.1
43445.9
43438.3
43432
43426
43420.7
43417.7
43420.7
43421.7
43416.5
43410
43402
43392.2
43384.8
43378.5
43372.5
43367.4
43365.1
43365.3
43360.7
43354.3
43347.1
43339.7
43333.4
43327.4
43322.2
43319.7
43317.7
43312.2
43305.8
43298.7
43291.7
43285.5
43279.7
43274.6
43272.5
43269.7
43263.9
43257.5
43250.3
43243.5
43237.4
43231.8
43227.6
43228.2
43228.1
43222.7
43216
43207.6
43196.3
43187.8
43181.4
43175.4
43170
43166.4
43168.6
43172
43168
43161.7
43154.3
43143.8
43133.6
43126.7
43120.6
43114.9
43110.4
43110.4
43113.5
43110.1
43103.8
43096.6
43086.9
43077.7
43071.1
43065.1
43059.7
43056.2
43058.2
43059.2
43054.2
43047.7
43039.7
43028.9
43020.2
43013.9
43007.9
43002.5
42999.1
43001.1
43001.1
42995.7
42989.1
42980.8
42968.5
42958.1
42951.3
42945.2
42939.2
42933.4
42928.4
42926.5
42931.9
42937.1
42933.6
42927.4
42920.1
42909.9
42896.1
42887.1
42880.6
42874.6
42869.1
42864.8
42865.4
42870
42867.6
42861.6
42854.7
42845.5
42834.9
42827.6
42821.5
42815.6
42810.7
42808.8
42812.5
42811.7
42806.1
42799.6
42791.5
42781.5
42774
42767.8
42761.8
42755.8
42749.8
42743.8
42738.4
42734.3
42735.1
42735.9
42731.1
42724.7
42717
42706
42696.1
42689.4
42683.4
42677.9
42673.5
42674.1
42681.2
42681.4
42676.1
42669.5
42661.1
42647.9
42635.1
42627.7
42621.6
42615.8
42610.7
42608.3
42612.4
42615.6
42611.3
42605.1
42597.7
42587.1
42576.1
42569
42562.9
42557.1
42552
42549.6
42552.5
42551.8
42546.3
42539.8
42531.7
42522.4
42515.4
42509.4
42503.7
42498.8
42497.3
42498.7
42494.9
42488.8
42482
42475
42468.8
42463
42457.8
42454.4
42450.4
42444.5
42438.2
42430.8
42420.7
42412
42405.6
42399.6
42393.9
42389.1
42387.7
42393.3
42396.9
42392.7
42386.6
42379.3
42368.8
42356.1
42348.1
42342
42336.1
42330.7
42326.9
42328.5
42331.9
42328.2
42322.2
42315.2
42305.6
42295.8
42289
42283
42277.4
42272.5
42271
42273.1
42269.9
42264
42257.2
42248.5
42240.2
42234
42228.1
42222.6
42218.6
42218.6
42216.3
42210.5
42204.1
42196.6
42189.7
42183.7
42178
42173.1
42171
42169
42163.6
42157.5
42150.6
42143.8
42137.7
42132
42126.9
42124.6
42124.5
42119.9
42113.9
42107
42099.7
42093.5
42087.6
42082.2
42077.9
42075.7
42071.3
42065.5
42059.5
42053.7
42048
42043.2
42041.4
42039.2
42033.7
42027.4
42019.9
42009.9
42001.9
41995.7
41989.9
41984.4
41979.8
41979.3
41983.4
41981.2
41975.5
41968.9
41960.2
41949.2
41941.4
41935.4
41929.6
41924.5
41921.6
41924.6
41926.4
41921.8
41915.6
41908.3
41897.9
41888
41881.4
41875.6
41870
41865.3
41863.9
41866.7
41864.1
41858.3
41851.7
41843.1
41833.8
41827.1
41821.2
41815.6
41810.9
41809.4
41810.5
41806.5
41800.5
41793.7
41785.4
41778.3
41772.4
41766.8
41762
41760.3
41763.4
41761.7
41756.1
41749.8
41742.5
41733.2
41725
41718.3
41712
41705.4
41698.2
41691.4
41685.5
41679.6
41673.9
41668.5
41664.2
41664.2
41671.5
41673.5
41668.9
41662.8
41655.4
41644.5
41630.4
41621.9
41615.7
41609.9
41604.5
41600
41599.7
41605.1
41604.8
41599.6
41593.3
41585.7
41575.3
41567
41560.9
41555.1
41549.9
41545.8
41546.6
41548.7
41544.6
41538.6
41531.5
41521.4
41508.2
41499.9
41493.8
41487.9
41482.2
41476.5
41471.1
41466.7
41466.4
41473.3
41475.9
41471.4
41465.4
41458.3
41448.1
41434.7
41426.3
41420.2
41414.4
41408.9
41404.4
41403.3
41408.1
41407.9
41402.7
41396.6
41389.2
41380
41372.7
41366.8
41361.2
41356.1
41352.9
41354
41351.6
41346
41339.5
41331.1
41319.1
41310.3
41304
41298.3
41292.6
41287.2
41282.9
41282.6
41288.6
41289.3
41284.3
41278.2
41270.9
41260.4
41249.8
41243
41237.1
41231.5
41226.3
41222.6
41223.9
41224.9
41220.3
41214.3
41207.4
41198.6
41190.9
41185
41179.3
41174
41170
41170.1
41168.7
41163.4
41157.3
41150
41142.7
41136.7
41131.1
41126
41122.7
41124.8
41126.1
41121.5
41115.5
41108.4
41097.7
41084
41075.6
41069.5
41063.8
41058
41052.3
41046.7
41041.3
41036.8
41035.7
41042.1
41047.5
41044.2
41038.4
41031.9
41023.1
41009.5
40998.4
40991.7
40985.9
40980.2
40974.9
40970.6
40970.2
40973.2
40970.2
40964.5
40958.2
40950.3
40942.5
40936.5
40930.8
40925.6
40921.5
40921.6
40920.9
40915.7
40909.7
40902.3
40892.6
40885
40879.1
40873.5
40868.5
40865.4
40867.8
40868.8
40864.1
40858.2
40851.2
40841.4
40832.1
40825.8
40820.1
40814.6
40809.8
40807.5
40809.8
40807.9
40802.4
40796.3
40789
40781.6
40775.6
40769.9
40764.5
40760
40757
40752.5
40746.9
40741.1
40735
40729
40723.4
40717.9
40713
40710.6
40711
40707
40701.2
40694.7
40686.2
40678.3
40672.3
40666.6
40661.5
40657.5
40657.9
40658.9
40654.5
40648.6
40641.9
40633.4
40626
40620.2
40614.6
40609.6
40606
40607.2
40607
40602.1
40596.2
40589.2
40580
40571.8
40565.7
40560.1
40554.5
40548.8
40543.2
40537.6
40532.1
40526.9
40522.9
40522.9
40525.5
40522.1
40516.5
40510.4
40502.8
40494.4
40488
40482.3
40476.8
40471.6
40467.4
40466.6
40464.2
40458.9
40453
40446.4
40440
40434.3
40428.8
40423.6
40420
40417.7
40413
40407.3
40401.5
40395.2
40389.4
40383.8
40378.4
40373.8
40372.3
40372.8
40368.6
40362.9
40356.8
40350.8
40345.1
40339.7
40334.8
40330.8
40325.8
40320.2
40314.4
40307.5
40298.1
40289.4
40283.3
40277.7
40272.4
40267.9
40266.4
40271.7
40274.9
40270.9
40265.2
40258.7
40249.9
40238.3
40230.5
40224.7
40219.1
40213.8
40209.2
40207.3
40209.9
40208.1
40202.7
40196.8
40189.4
40180.1
40173
40167.3
40161.8
40156.7
40152.7
40153
40153.8
40149.4
40143.8
40137.5
40130.7
40124.8
40119.3
40114
40109.3
40104.8
40099.5
40093.9
40087.8
40080.5
40071.1
40063.8
40058.1
40052.6
40047.5
40043.6
40044.4
40051.1
40051
40046
40040.2
40033.2
40022.9
40011.8
40004.9
39999.2
39993.8
39988.7
39984.9
39985.6
39989.7
39987.2
39981.7
39975.6
39967.9
39956.7
39947.6
39941.5
39935.9
39930.5
39925.4
39921.6
39922
39924.1
39920.4
39914.9
39908.8
39902
39895.9
39890.4
39884.9
39879.8
39875.6
39871.9
39866.8
39861.3
39855.8
39850.3
39844.7
39839.1
39833.4
39827.4
39821.4
39815.8
39810.3
39804.8
39799.4
39794.2
39789.9
39789
39793.5
39793
39788
39782.2
39775.2
39764.8
39753.3
39746.3
39740.7
39735.3
39730.3
39726.5
39727.5
39731.8
39729.2
39723.8
39717.8
39710.2
39699.4
39690.8
39684.9
39679.4
39674.1
39669.4
39666.6
39669.1
39669.5
39664.8
39659.2
39652.8
39645.2
39638.8
39633.3
39627.9
39623
39619.8
39617.6
39612.8
39607.3
39601.2
39593.3
39582.6
39574.5
39568.7
39563.2
39557.8
39552.8
39548.9
39549
39556.1
39558
39553.6
39548
39541.5
39532.5
39519.8
39511.2
39505.3
39499.9
39494.6
39490.1
39488.3
39493.2
39497.2
39493.6
39488.1
39481.9
39473.8
39460.9
39449.4
39442.8
39437.2
39431.7
39426.3
39420.9
39415.5
39410.1
39405
39400.8
39399.9
39405.6
39407.5
39403.2
39397.6
39391.3
39382.7
39371.3
39363.5
39357.8
39352.4
39347.1
39342.5
39340
39342.6
39342.5
39337.7
39332.1
39325.5
39316.7
39308.4
39302.5
39297.1
39291.8
39287.2
39284.8
39286.7
39284.9
39279.8
39274
39267
39257
39247.6
39241.4
39235.9
39230.5
39225.1
39219.8
39214.6
39210.1
39207.9
39211.5
39213.5
39209.4
39203.9
39197.8
39189.8
39180.1
39173.3
39167.8
39162.5
39157.4
39153
39151.6
39152.5
39148.7
39143.2
39137.2
39129.3
39120
39113.5
39108
39102.7
39097.9
39094.4
39095.8
39099.2
39096.1
39090.8
39084.9
39077.9
39068.7
39061.6
39055.9
39050.6
39045.2
39039.9
39034.5
39029.2
39023.8
39018.6
39013.9
39010.5
39011.3
39010.4
39005.5
38999.9
38993.6
38985.2
38977.5
38971.8
38966.4
38961.2
38956.3
38952.7
38952
38948.8
38943.6
38938.1
38932.3
38926.8
38921.5
38916.4
38911.9
38910.1
38909
38904.3
38898.9
38892.8
38884.9
38877.3
38871.6
38866.3
38861.2
38856.9
38855.8
38858
38855.2
38849.9
38844.2
38837.1
38828.6
38822.2
38816.8
38811.6
38806.7
38803.2
38803.8
38803.4
38798.7
38793.2
38786.9
38778
38766.7
38759.5
38753.9
38748.6
38743.3
38738.1
38733.2
38729
38728.2
38733.7
38735.6
38731.5
38726
38720
38712.1
38700.4
38691.2
38685.3
38679.9
38674.7
38669.6
38665.3
38663.5
38665.3
38662.6
38657.4
38651.8
38645.4
38638.7
38633.2
38627.9
38622.9
38618.6
38617.1
38616
38611.3
38605.9
38599.8
38591.8
38583.8
38578
38572.8
38567.7
38563.3
38561.4
38563.7
38561.6
38556.5
38550.9
38544.1
38534.7
38526.6
38520.9
38515.6
38510.5
38506
38503.6
38505.8
38504.6
38499.7
38494.2
38487.8
38479
38470.6
38464.7
38459.5
38454.3
38449.6
38446.4
38447.4
38446.9
38442.2
38436.8
38430.7
38422.7
38415
38409.3
38404.1
38398.9
38394.3
38391.2
38392.2
38390.9
38386
38380.6
38374.6
38368.2
38362.8
38357.5
38352.5
38348.2
38346.2
38344.7
38340
38334.7
38328.7
38321
38310.9
38303.8
38298.3
38293
38287.8
38282.6
38277.4
38272.3
38267.4
38263.3
38262.3
38266.9
38267.3
38262.9
38257.5
38251.6
38243.8
38233.6
38226.5
38221
38215.8
38210.7
38206
38202.4
38202.7
38201.8
38197.1
38191.7
38185.8
38179
38173.2
38168
38162.9
38158.3
38155.2
38157.1
38158.3
38154.2
38148.9
38143
38135.1
38122.3
38111.1
38104.7
38099.3
38094.1
38088.9
38083.8
38078.7
38073.7
38069.4
38067.2
38071.2
38075.6
38072.6
38067.5
38061.9
38055.3
38045.3
38035
38028.7
38023.4
38018.3
38013.3
38009
38007.3
38010.1
38008.8
38004
37998.6
37992.4
37983.9
37975.3
37969.4
37964.2
37959
37954.2
37950.4
37950.1
37950.7
37946.6
37941.4
37935.7
37928.6
37920.2
37914
37908.7
37903.6
37898.6
37894.4
37892.5
37894
37891.2
37886.2
37880.8
37874.8
37867.6
37861.4
37856.1
37851
37845.8
37840.7
37835.6
37830.4
37825.3
37820.2
37815.4
37811.3
37810
37810.8
37807.2
37802
37796.5
37789.8
37781.2
37774.5
37769.2
37764.1
37759.2
37754.9
37753.2
37754.9
37752.2
37747.1
37741.7
37735.3
37726.7
37719.5
37714
37708.9
37703.9
37699.5
37696.9
37698.1
37696.2
37691.3
37686
37680
37672.1
37664.9
37659.4
37654.3
37649.3
37644.8
37641.6
37642
37639.7
37634.8
37629.6
37623.6
37616.6
37610.7
37605.5
37600.4
37595.6
37591.3
37589.4
37587.4
37582.8
37577.7
37572.4
37567
37561.8
37556.7
37551.7
37547
37543
37539
37534.1
37529
37523.9
37518.8
37513.8
37508.8
37504.1
37500.4
37499.2
37496.3
37491.4
37486.2
37480.9
37475.4
37470.3
37465.2
37460.2
37455.6
37451.7
37447.5
37442.5
37437.4
37432.1
37426.3
37419
37411.9
37406.5
37401.4
37396.3
37391.3
37386.6
37382.7
37382
37386.7
37386.9
37382.5
37377.3
37371.7
37364.3
37354.1
37346.5
37341.1
37336.1
37331.1
37326.7
37324
37326.7
37331.4
37328.9
37323.9
37318.6
37312.3
37302.8
37287.1
37275.9
37269.7
37264.5
37259.4
37254.4
37249.4
37244.4
37239.6
37235.5
37233.6
37238.3
37244.9
37242.9
37238.1
37232.9
37227
37218.8
37206.5
37197.9
37192.2
37187.2
37182.2
37177.4
37173.4
37172.3
37175.5
37173.9
37169.1
37163.9
37158.1
37150.2
37140.9
37134.8
37129.6
37124.6
37119.8
37115.5
37113.2
37114.6
37112.5
37107.6
37102.4
37096.7
37089.3
37082.4
37077.1
37072.1
37067.2
37062.7
37059.4
37060.2
37060.7
37056.6
37051.6
37046.4
37040.6
37033.9
37028.2
37023
37017.9
37012.8
37007.6
37001.9
36994.8
36985.3
36978.3
36973
36968
36963.1
36958.4
36954.4
36953.4
36959.1
36962.7
36959.4
36954.4
36949.1
36942.8
36933.3
36921.7
36914.7
36909.5
36904.5
36899.6
36895.3
36892.4
36894.4
36897.4
36894.2
36889.3
36884
36877.8
36868.8
36858.2
36851.7
36846.6
36841.6
36836.7
36832
36828.1
36827.2
36829
36826
36821.1
36816.1
36810.9
36805.8
36800.9
36796.1
36791.8
36789.5
36787.7
36783.3
36778.3
36772.9
36766.2
36755.7
36743.5
36736.6
36731.4
36726.4
36721.5
36716.6
36712.1
36708.4
36708
36714.6
36717.8
36714.3
36709.4
36704.1
36698
36689
36677.3
36670.2
36665
36660.1
36655.2
36650.7
36647.1
36647.4
36650
36647.1
36642.2
36637.1
36631.2
36623
36614.3
36608.5
36603.5
36598.6
36593.8
36589.6
36587.6
36588.9
36586.4
36581.7
36576.6
36570.9
36563.6
36556.3
36550.9
36546
36541.1
36536.5
36532.6
36531.6
36531.7
36527.9
36523
36517.9
36512.1
36505.8
36500.6
36495.7
36490.8
36486.1
36481.7
36478.2
36473.9
36469.1
36464.2
36459.3
36454.2
36448.8
36443.6
36438.6
36433.7
36428.8
36424
36419.1
36414.4
36410.2
36407.9
36407.7
36404.3
36399.5
36394.5
36389.2
36383.6
36378.6
36373.7
36368.9
36364.4
36360.9
36360.9
36360.5
36356.3
36351.4
36346.1
36339.7
36329.9
36319.7
36313.6
36308.5
36303.7
36298.8
36294
36289.1
36284.3
36280
36276.6
36277.3
36281.3
36279.3
36274.7
36269.7
36264.3
36257.4
36248
36241.1
36235.9
36231
36226.2
36221.6
36217.7
36216.4
36216.2
36212.3
36207.5
36202.4
36196.6
36189.6
36183.8
36178.8
36174
36169.2
36164.9
36162.1
36161.2
36157.6
36152.8
36147.9
36142.8
36137.5
36132.6
36127.7
36123
36118.8
36116.3
36116.9
36114.2
36109.5
36104.6
36099
36091.7
36081.6
36074.3
36069
36064.2
36059.3
36054.5
36049.7
36044.9
36040.1
36035.6
36031.9
36031
36034.2
36032.6
36028.1
36023.2
36017.9
36011.4
36002.7
35996.1
35991
35986.2
35981.4
35976.8
35973
35972
35971.6
35967.6
35962.7
35957.7
35952
35945.2
35939.5
35934.6
35929.8
35925.2
35920.9
35918.1
35917
35913.4
35908.6
35903.8
35898.7
35893.2
35888.1
35883.3
35878.5
35873.9
35869.6
35866.6
35863.3
35858.8
35854
35849.3
35844.5
35839.8
35835.2
35831.3
35828
35823.6
35818.8
35814.1
35809.2
35804
35797.9
35791.5
35786.4
35781.6
35776.8
35772
35767.4
35763
35759.6
35759.5
35758.5
35754.2
35749.4
35744.4
35738.8
35732.3
35726.7
35721.9
35717.1
35712.4
35707.9
35704.3
35703.5
35705.6
35702.9
35698.3
35693.5
35688.7
35683.8
35678.7
35672.7
35664.2
35652.1
35644.3
35639
35634.1
35629.4
35624.6
35619.9
35615.2
35610.9
35607.3
35607.1
35612.9
35614.3
35610.5
35605.8
35600.8
35595.2
35587.2
35576.4
35569.4
35564.3
35559.6
35554.9
35550.4
35546.7
35545.6
35547.5
35545
35540.4
35535.6
35530.4
35523.9
35516.8
35511.4
35506.7
35502
35497.4
35493.5
35491.8
35490.9
35486.9
35482.1
35477.2
35471.4
35463.3
35455
35449.5
35444.7
35440
35435.5
35431.6
35430.1
35433.6
35433.8
35429.7
35425
35420
35414.4
35406.5
35396.9
35390.7
35385.8
35381.1
35376.4
35371.7
35367
35362.3
35357.7
35353.6
35350.7
35351.6
35350.7
35346.4
35341.7
35336.8
35331.2
35324.3
35318.3
35313.4
35308.7
35304.1
35299.7
35296.1
35295
35293
35288.7
35284
35279.2
35274
35268.8
35264.1
35259.4
35254.9
35250.9
35248.8
35249.9
35247.7
35243.1
35238.4
35233.1
35226.3
35214.9
35201.8
35194.9
35189.9
35185.2
35180.5
35175.9
35171.3
35167
35163.7
35163.9
35170.3
35171.5
35167.8
35163.1
35158.3
35152.9
35145.6
35136.4
35130.2
35125.3
35120.6
35116
35111.8
35108.7
35109.5
35111.8
35108.7
35104.2
35099.4
35094
35086.9
35074.8
35062.8
35056.5
35051.5
35046.9
35042.2
35037.7
35033.4
35030
35029.8
35035.6
35036.7
35032.9
35028.2
35023.4
35018.1
35011
35001.1
34994.1
34989.1
34984.5
34979.8
34975.3
34971.4
34969.1
34969.7
34967.2
34962.7
34958
34953.1
34947.2
34940.3
34934.9
34930.2
34925.6
34921.1
34916.9
34913.9
34912.7
34909.2
34904.7
34900
34895.2
34889.7
34884.1
34879.2
34874.6
34870
34865.6
34861.8
34859.8
34857.1
34852.8
34848.2
34843.5
34838.8
34834.1
34829.5
34824.9
34820.5
34816.5
34814.1
34811.4
34807.1
34802.5
34797.8
34792.9
34786.9
34779.1
34772.9
34768.1
34763.4
34758.8
34754.2
34749.7
34745.2
34741
34737.9
34738.2
34738.4
34734.6
34730.1
34725.4
34720.3
34714.1
34707.4
34702.4
34697.7
34693.1
34688.7
34684.5
34681.5
34678.7
34674.5
34670
34665.4
34660.6
34655.4
34650.5
34645.8
34641.3
34636.8
34632.8
34630.3
34628.3
34624.3
34619.7
34615
34609.9
34603.4
34595.7
34590.2
34585.5
34581
34576.6
34572.8
34571.1
34574
34573.7
34569.7
34565.1
34560.4
34555
34547.5
34538.2
34532.1
34527.3
34522.7
34518.2
34513.9
34510.2
34508.9
34508.7
34505.1
34500.6
34496
34491.2
34485.8
34480.8
34476.2
34471.7
34467.3
34463.1
34460.2
34457.3
34453.1
34448.5
34443.9
34439
34433.2
34426.1
34420.5
34415.8
34411.3
34406.8
34402.6
34399.1
34398.5
34397.5
34393.6
34389.1
34384.5
34379.9
34375.3
34370.8
34366.3
34361.8
34357.6
34353.5
34349.1
34344.6
34340.1
34335.5
34330.9
34326.3
34321.8
34317.2
34312.8
34308.5
34304.8
34301
34296.6
34292.1
34287.6
34283.1
34278.6
34274.1
34269.6
34265.3
34261.7
34260.3
34262.2
34260.3
34256
34251.4
34246.6
34240.8
34232.1
34217.1
34206.5
34200.8
34196.2
34191.7
34187.2
34182.9
34179.2
34177.5
34181.9
34189
34187.7
34183.5
34179
34174.3
34169
34161.8
34150.6
34142.5
34137.4
34132.8
34128.3
34123.9
34120
34117.4
34118.7
34118.9
34115.1
34110.7
34106.1
34101.1
34094.9
34087
34081.1
34076.5
34072
34067.5
34063.3
34059.6
34058.1
34056.5
34052.5
34048.1
34043.5
34038.7
34033.1
34027.4
34022.7
34018.2
34013.7
34009.5
34005.6
34003.4
34001
33996.9
33992.5
33988
33983.3
33978.3
33973.2
33968.6
33964.1
33959.7
33955.4
33951.5
33948.9
33945.7
33941.5
33937
33932.6
33928.1
33923.7
33919.2
33914.9
33910.7
33906.9
33902.9
33898.5
33894.1
33889.6
33885.1
33880.3
33875.2
33870.5
33866
33861.6
33857.2
33852.9
33849.2
33847.5
33847.7
33844.5
33840.1
33835.7
33831.2
33826.7
33821.9
33816.5
33808.8
33800.5
33795.1
33790.5
33786.1
33781.6
33777.2
33772.8
33768.4
33764
33759.7
33755.7
33752.8
33753.7
33758.5
33757.2
33753.1
33748.7
33744.2
33739.4
33733.6
33724.6
33714.3
33708.2
33703.5
33699.1
33694.6
33690.2
33685.8
33681.4
33677
33672.6
33668.3
33664.4
33661.6
33662.4
33662.8
33659.3
33654.9
33650.5
33645.8
33640.4
33632.8
33624.2
33618.7
33614.1
33609.7
33605.3
33601
33597
33594.1
33595
33598.4
33596.2
33592
33587.7
33583.3
33578.8
33574.3
33569.4
33563.5
33554.4
33543.4
33537.1
33532.4
33527.9
33523.5
33519.2
33514.8
33510.4
33506
33501.7
33497.8
33494.7
33495
33498.8
33497.2
33493.2
33488.8
33484.3
33479.4
33473.4
33464.7
33457.9
33453.2
33448.8
33444.4
33440.1
33436.3
33433.9
33434.1
33431.7
33427.5
33423.1
33418.6
33413.7
33407.6
33401.2
33396.5
33392.1
33387.7
33383.4
33379.5
33376.6
33374.9
33371.3
33367
33362.6
33358.2
33353.5
33348.3
33343.5
33339.1
33334.8
33330.5
33326.3
33322.8
33319.8
33315.9
33311.6
33307.3
33302.9
33298.5
33294.1
33289.8
33285.5
33281.1
33277
33273.2
33270
33266
33261.8
33257.4
33253.1
33248.7
33244.4
33240
33235.7
33231.4
33227.2
33223.5
33220.1
33216.1
33211.8
33207.5
33203.1
33198.8
33194.5
33190.2
33186
33182.2
33179.7
33179.8
33177.5
33173.4
33169.1
33164.8
33160.4
33156
33151.5
33146.5
33139.9
33128.9
33118.7
33113.1
33108.6
33104.2
33099.9
33095.6
33091.4
33087.5
33084.5
33085
33090.7
33090.9
33087.3
33083
33078.6
33074.1
33068.7
33060.9
33051.3
33045.4
33040.9
33036.6
33032.3
33028.1
33024.5
33022.7
33023.2
33020.5
33016.3
33012
33007.6
33002.9
32997
32990.8
32986.1
32981.7
32977.5
32973.2