/*--------------------------------*- C++ -*----------------------------------*\
  =========                 |
  \\      /  F ield         | OpenFOAM: The Open Source CFD Toolbox
   \\    /   O peration     | Website:  https://openfoam.org
    \\  /    A nd           | Version:  9
     \\/     M anipulation  |
\*---------------------------------------------------------------------------*/
FoamFile
{
    format      ascii;
    class       volScalarField;
    location    "0.03";
    object      T;
}
// * * * * * * * * * * * * * * * * * * * * * * * * * * * * * * * * * * * * * //

dimensions      [0 0 0 1 0 0 0];

internalField   nonuniform List<scalar> 
10000
(
288.989
288.974
288.965
288.955
288.945
288.936
288.926
288.916
288.907
288.897
288.887
288.878
288.868
288.858
288.849
288.839
288.829
288.82
288.81
288.801
288.791
288.781
288.772
288.762
288.752
288.742
288.733
288.723
288.713
288.704
288.694
288.685
288.675
288.665
288.656
288.646
288.636
288.627
288.617
288.608
288.598
288.588
288.579
288.569
288.559
288.55
288.54
288.53
288.521
288.511
288.501
288.492
288.482
288.472
288.463
288.453
288.443
288.434
288.424
288.414
288.405
288.395
288.385
288.376
288.366
288.356
288.347
288.337
288.327
288.318
288.308
288.298
288.289
288.279
288.269
288.26
288.25
288.24
288.231
288.221
288.211
288.202
288.192
288.182
288.173
288.163
288.153
288.144
288.134
288.124
288.115
288.105
288.095
288.086
288.076
288.066
288.057
288.047
288.038
288.028
288.018
288.009
287.999
287.989
287.98
287.97
287.96
287.951
287.941
287.931
287.922
287.912
287.902
287.893
287.883
287.873
287.864
287.854
287.844
287.835
287.825
287.815
287.806
287.796
287.787
287.777
287.767
287.757
287.748
287.738
287.729
287.719
287.71
287.7
287.69
287.68
287.67
287.661
287.651
287.642
287.633
287.623
287.613
287.603
287.593
287.584
287.574
287.565
287.555
287.546
287.536
287.526
287.516
287.506
287.497
287.487
287.478
287.469
287.459
287.449
287.439
287.429
287.419
287.41
287.401
287.392
287.382
287.372
287.362
287.352
287.342
287.333
287.324
287.314
287.305
287.295
287.285
287.275
287.265
287.256
287.246
287.236
287.226
287.217
287.207
287.199
287.19
287.18
287.17
287.159
287.149
287.138
287.129
287.122
287.115
287.105
287.094
287.082
287.071
287.06
287.051
287.047
287.04
287.029
287.017
287.004
286.993
286.982
286.975
286.972
286.963
286.951
286.938
286.926
286.914
286.905
286.901
286.896
286.885
286.872
286.86
286.848
286.838
286.834
286.828
286.816
286.804
286.791
286.78
286.77
286.767
286.762
286.751
286.738
286.724
286.712
286.701
286.693
286.692
286.684
286.672
286.659
286.647
286.636
286.628
286.624
286.615
286.603
286.59
286.578
286.567
286.561
286.559
286.55
286.537
286.523
286.51
286.498
286.487
286.48
286.481
286.475
286.463
286.449
286.436
286.423
286.412
286.405
286.405
286.398
286.386
286.372
286.359
286.346
286.335
286.328
286.327
286.32
286.307
286.293
286.28
286.268
286.258
286.254
286.252
286.242
286.228
286.214
286.201
286.19
286.18
286.18
286.177
286.166
286.152
286.137
286.124
286.113
286.105
286.105
286.1
286.088
286.074
286.059
286.047
286.036
286.028
286.028
286.023
286.01
285.996
285.981
285.968
285.957
285.95
285.951
285.946
285.934
285.92
285.904
285.891
285.879
285.87
285.869
285.87
285.86
285.847
285.832
285.818
285.807
285.796
285.792
285.789
285.778
285.765
285.753
285.742
285.735
285.73
285.72
285.708
285.695
285.682
285.671
285.662
285.661
285.655
285.643
285.63
285.617
285.606
285.598
285.595
285.586
285.573
285.56
285.547
285.536
285.526
285.525
285.524
285.513
285.499
285.483
285.469
285.457
285.447
285.443
285.446
285.438
285.425
285.409
285.393
285.381
285.37
285.361
285.362
285.36
285.349
285.335
285.318
285.303
285.291
285.281
285.274
285.279
285.281
285.271
285.257
285.24
285.222
285.209
285.197
285.186
285.178
285.181
285.179
285.168
285.154
285.139
285.126
285.115
285.105
285.102
285.098
285.086
285.074
285.062
285.05
285.042
285.034
285.023
285.011
284.999
284.988
284.98
284.98
284.973
284.961
284.947
284.933
284.921
284.91
284.905
284.906
284.897
284.885
284.871
284.858
284.846
284.837
284.833
284.826
284.814
284.801
284.789
284.777
284.767
284.764
284.762
284.752
284.738
284.724
284.711
284.7
284.691
284.69
284.688
284.677
284.664
284.65
284.638
284.627
284.618
284.612
284.602
284.59
284.579
284.569
284.564
284.556
284.544
284.531
284.519
284.507
284.497
284.492
284.493
284.485
284.472
284.457
284.442
284.43
284.419
284.413
284.414
284.408
284.395
284.38
284.365
284.353
284.342
284.336
284.34
284.339
284.328
284.314
284.295
284.277
284.265
284.253
284.244
284.242
284.247
284.242
284.229
284.215
284.2
284.187
284.175
284.165
284.158
284.15
284.139
284.127
284.116
284.107
284.105
284.097
284.085
284.072
284.059
284.047
284.036
284.031
284.032
284.024
284.011
283.995
283.978
283.966
283.955
283.948
283.952
283.958
283.951
283.938
283.922
283.899
283.88
283.867
283.855
283.845
283.837
283.839
283.85
283.847
283.835
283.821
283.801
283.78
283.766
283.754
283.744
283.737
283.74
283.741
283.731
283.718
283.701
283.684
283.672
283.661
283.652
283.652
283.651
283.641
283.628
283.612
283.598
283.586
283.576
283.57
283.571
283.563
283.551
283.536
283.523
283.512
283.502
283.5
283.5
283.49
283.477
283.46
283.444
283.432
283.421
283.414
283.416
283.414
283.402
283.389
283.372
283.358
283.346
283.336
283.331
283.333
283.326
283.313
283.298
283.283
283.271
283.26
283.252
283.253
283.248
283.236
283.222
283.208
283.196
283.185
283.178
283.177
283.169
283.157
283.143
283.13
283.119
283.109
283.106
283.104
283.093
283.08
283.065
283.052
283.041
283.032
283.03
283.028
283.016
283.003
282.988
282.975
282.964
282.954
282.953
282.949
282.938
282.925
282.91
282.898
282.887
282.879
282.879
282.874
282.862
282.848
282.833
282.821
282.81
282.802
282.804
282.803
282.792
282.778
282.76
282.744
282.732
282.721
282.712
282.713
282.714
282.704
282.692
282.675
282.659
282.647
282.636
282.627
282.627
282.624
282.613
282.6
282.584
282.572
282.561
282.552
282.553
282.556
282.546
282.533
282.516
282.496
282.482
282.47
282.46
282.454
282.46
282.46
282.449
282.436
282.418
282.402
282.389
282.378
282.369
282.369
282.374
282.367
282.354
282.339
282.319
282.302
282.29
282.278
282.266
282.255
282.246
282.245
282.253
282.251
282.239
282.226
282.208
282.191
282.178
282.167
282.157
282.153
282.156
282.15
282.137
282.123
282.107
282.094
282.083
282.073
282.071
282.07
282.06
282.047
282.033
282.021
282.01
282.001
281.996
281.988
281.976
281.964
281.952
281.941
281.931
281.928
281.925
281.914
281.902
281.888
281.876
281.865
281.857
281.858
281.854
281.843
281.83
281.814
281.801
281.79
281.778
281.769
281.761
281.75
281.738
281.727
281.718
281.715
281.716
281.707
281.694
281.68
281.667
281.656
281.646
281.643
281.645
281.636
281.624
281.608
281.588
281.574
281.562
281.55
281.538
281.528
281.52
281.523
281.529
281.523
281.511
281.496
281.479
281.466
281.454
281.444
281.437
281.439
281.433
281.421
281.407
281.388
281.374
281.362
281.352
281.345
281.35
281.35
281.34
281.326
281.309
281.292
281.279
281.268
281.258
281.254
281.258
281.252
281.24
281.225
281.209
281.195
281.184
281.174
281.169
281.171
281.164
281.152
281.137
281.123
281.112
281.101
281.093
281.09
281.083
281.071
281.059
281.046
281.035
281.025
281.021
281.018
281.007
280.995
280.98
280.967
280.956
280.946
280.941
280.942
280.934
280.921
280.907
280.892
280.88
280.869
280.86
280.86
280.858
280.847
280.834
280.821
280.809
280.799
280.792
280.789
280.779
280.766
280.751
280.736
280.724
280.714
280.705
280.707
280.71
280.702
280.689
280.673
280.654
280.64
280.628
280.618
280.61
280.613
280.612
280.602
280.589
280.573
280.559
280.547
280.537
280.528
280.527
280.52
280.509
280.496
280.484
280.473
280.464
280.46
280.456
280.445
280.432
280.417
280.404
280.392
280.382
280.377
280.379
280.372
280.36
280.346
280.33
280.317
280.306
280.296
280.293
280.294
280.285
280.273
280.258
280.244
280.232
280.221
280.213
280.213
280.212
280.201
280.188
280.174
280.161
280.15
280.14
280.134
280.127
280.116
280.103
280.089
280.075
280.064
280.054
280.048
280.054
280.056
280.046
280.033
280.016
279.995
279.981
279.97
279.959
279.951
279.953
279.957
279.949
279.937
279.922
279.907
279.895
279.884
279.874
279.867
279.858
279.847
279.835
279.821
279.809
279.798
279.789
279.785
279.791
279.788
279.777
279.763
279.744
279.725
279.712
279.701
279.69
279.683
279.687
279.688
279.678
279.666
279.651
279.638
279.627
279.617
279.611
279.608
279.598
279.585
279.57
279.553
279.54
279.529
279.52
279.518
279.525
279.522
279.51
279.496
279.478
279.459
279.447
279.436
279.426
279.421
279.426
279.424
279.413
279.4
279.383
279.367
279.355
279.344
279.334
279.331
279.333
279.325
279.313
279.299
279.285
279.273
279.262
279.253
279.25
279.243
279.232
279.22
279.207
279.195
279.185
279.176
279.176
279.173
279.162
279.149
279.134
279.122
279.111
279.1
279.093
279.087
279.076
279.065
279.053
279.042
279.032
279.027
279.025
279.015
279.003
278.989
278.977
278.965
278.955
278.947
278.948
278.944
278.933
278.92
278.906
278.894
278.883
278.874
278.869
278.863
278.853
278.841
278.83
278.818
278.809
278.801
278.791
278.779
278.767
278.755
278.743
278.733
278.724
278.725
278.728
278.719
278.707
278.692
278.676
278.663
278.652
278.641
278.636
278.638
278.631
278.619
278.604
278.587
278.574
278.563
278.553
278.547
278.551
278.549
278.538
278.525
278.508
278.493
278.481
278.47
278.46
278.457
278.457
278.447
278.435
278.42
278.406
278.394
278.384
278.375
278.376
278.376
278.366
278.353
278.337
278.318
278.305
278.294
278.284
278.278
278.284
278.284
278.275
278.262
278.245
278.226
278.213
278.201
278.191
278.182
278.183
278.185
278.176
278.164
278.149
278.132
278.12
278.108
278.098
278.093
278.096
278.091
278.08
278.068
278.055
278.044
278.033
278.024
278.016
278.005
277.993
277.979
277.961
277.947
277.935
277.924
277.916
277.915
277.928
277.93
277.92
277.908
277.892
277.871
277.855
277.843
277.832
277.822
277.816
277.819
277.816
277.805
277.792
277.775
277.76
277.748
277.737
277.728
277.725
277.727
277.72
277.708
277.693
277.677
277.664
277.653
277.643
277.637
277.639
277.633
277.622
277.609
277.594
277.581
277.57
277.56
277.555
277.558
277.554
277.542
277.529
277.513
277.498
277.487
277.475
277.464
277.452
277.441
277.43
277.418
277.409
277.402
277.407
277.414
277.406
277.394
277.38
277.359
277.339
277.327
277.315
277.305
277.297
277.3
277.305
277.297
277.285
277.271
277.252
277.238
277.226
277.215
277.206
277.203
277.207
277.2
277.189
277.176
277.162
277.151
277.14
277.13
277.121
277.111
277.099
277.087
277.075
277.063
277.052
277.043
277.039
277.046
277.044
277.033
277.02
277.003
276.981
276.967
276.955
276.944
276.936
276.935
276.942
276.938
276.926
276.913
276.895
276.878
276.866
276.855
276.845
276.838
276.841
276.838
276.828
276.815
276.799
276.783
276.772
276.761
276.751
276.749
276.753
276.747
276.736
276.722
276.703
276.685
276.673
276.661
276.65
276.64
276.634
276.639
276.646
276.639
276.628
276.614
276.594
276.573
276.56
276.549
276.538
276.529
276.529
276.534
276.528
276.517
276.503
276.485
276.469
276.457
276.446
276.436
276.432
276.44
276.44
276.43
276.418
276.403
276.385
276.371
276.36
276.349
276.338
276.327
276.316
276.305
276.294
276.284
276.276
276.274
276.278
276.272
276.261
276.248
276.23
276.215
276.203
276.192
276.182
276.177
276.18
276.174
276.163
276.149
276.134
276.121
276.11
276.099
276.093
276.097
276.099
276.09
276.078
276.064
276.045
276.03
276.018
276.007
275.996
275.985
275.974
275.962
275.952
275.943
275.942
275.948
275.942
275.931
275.918
275.901
275.885
275.873
275.862
275.852
275.846
275.848
275.844
275.832
275.82
275.804
275.79
275.779
275.768
275.759
275.758
275.76
275.751
275.739
275.725
275.709
275.697
275.686
275.676
275.67
275.67
275.663
275.652
275.638
275.622
275.609
275.598
275.587
275.578
275.576
275.573
275.563
275.551
275.539
275.528
275.517
275.508
275.505
275.499
275.488
275.475
275.461
275.448
275.437
275.426
275.418
275.419
275.419
275.409
275.397
275.382
275.368
275.356
275.345
275.336
275.333
275.336
275.33
275.318
275.305
275.286
275.268
275.255
275.244
275.233
275.222
275.212
275.208
275.215
275.22
275.212
275.2
275.186
275.164
275.143
275.129
275.118
275.108
275.099
275.097
275.107
275.106
275.095
275.083
275.067
275.045
275.029
275.018
275.007
274.997
274.992
274.997
274.998
274.988
274.976
274.961
274.942
274.928
274.916
274.905
274.896
274.893
274.899
274.894
274.883
274.87
274.853
274.837
274.825
274.814
274.804
274.798
274.802
274.806
274.798
274.787
274.773
274.754
274.731
274.717
274.705
274.694
274.683
274.672
274.661
274.65
274.642
274.638
274.648
274.655
274.647
274.635
274.621
274.601
274.579
274.565
274.554
274.543
274.534
274.528
274.534
274.535
274.526
274.514
274.5
274.482
274.469
274.457
274.447
274.437
274.433
274.433
274.425
274.414
274.4
274.387
274.376
274.365
274.355
274.351
274.347
274.337
274.326
274.313
274.3
274.289
274.278
274.269
274.265
274.26
274.25
274.238
274.225
274.213
274.202
274.192
274.184
274.185
274.185
274.175
274.163
274.148
274.127
274.112
274.1
274.089
274.079
274.073
274.077
274.083
274.076
274.064
274.051
274.032
274.013
274.001
273.99
273.979
273.971
273.971
273.977
273.971
273.959
273.946
273.928
273.912
273.9
273.889
273.879
273.873
273.876
273.878
273.869
273.857
273.843
273.823
273.807
273.796
273.785
273.775
273.769
273.772
273.772
273.763
273.751
273.736
273.713
273.694
273.682
273.671
273.66
273.649
273.64
273.637
273.646
273.656
273.649
273.638
273.625
273.606
273.581
273.565
273.553
273.542
273.532
273.524
273.525
273.534
273.529
273.518
273.506
273.489
273.47
273.456
273.445
273.434
273.425
273.422
273.429
273.427
273.417
273.405
273.39
273.372
273.358
273.347
273.336
273.325
273.314
273.303
273.293
273.286
273.287
273.289
273.28
273.268
273.254
273.234
273.216
273.204
273.193
273.183
273.175
273.176
273.189
273.189
273.179
273.167
273.152
273.128
273.104
273.091
273.08
273.069
273.06
273.055
273.063
273.069
273.061
273.049
273.036
273.016
272.996
272.983
272.972
272.961
272.952
272.948
272.953
272.952
272.941
272.93
272.915
272.898
272.885
272.874
272.863
272.854
272.852
272.854
272.847
272.836
272.824
272.811
272.799
272.789
272.779
272.773
272.765
272.755
272.743
272.729
272.711
272.695
272.683
272.672
272.662
272.653
272.65
272.661
272.667
272.66
272.648
272.635
272.615
272.592
272.577
272.566
272.555
272.545
272.538
272.541
272.548
272.541
272.53
272.517
272.499
272.481
272.469
272.458
272.447
272.438
272.435
272.439
272.433
272.422
272.41
272.394
272.379
272.367
272.356
272.346
272.339
272.339
272.335
272.324
272.312
272.298
272.286
272.275
272.264
272.255
272.251
272.247
272.237
272.226
272.213
272.201
272.19
272.179
272.17
272.165
272.165
272.157
272.146
272.133
272.119
272.108
272.097
272.087
272.079
272.075
272.067
272.056
272.045
272.034
272.024
272.015
272.012
272.007
271.997
271.986
271.972
271.953
271.938
271.927
271.916
271.906
271.898
271.897
271.904
271.9
271.89
271.877
271.861
271.841
271.826
271.815
271.805
271.795
271.79
271.795
271.799
271.79
271.779
271.765
271.746
271.727
271.715
271.704
271.694
271.685
271.683
271.688
271.683
271.672
271.66
271.644
271.627
271.614
271.604
271.593
271.584
271.581
271.584
271.576
271.565
271.552
271.537
271.524
271.513
271.502
271.493
271.49
271.496
271.493
271.482
271.471
271.457
271.44
271.425
271.412
271.4
271.388
271.375
271.362
271.351
271.34
271.33
271.32
271.312
271.312
271.325
271.329
271.32
271.309
271.295
271.275
271.249
271.233
271.221
271.21
271.2
271.192
271.191
271.202
271.201
271.191
271.18
271.165
271.146
271.13
271.119
271.108
271.098
271.091
271.092
271.096
271.089
271.077
271.064
271.045
271.021
271.005
270.994
270.983
270.972
270.961
270.951
270.943
270.943
270.956
270.96
270.952
270.941
270.928
270.908
270.883
270.868
270.856
270.845
270.835
270.827
270.825
270.834
270.833
270.824
270.812
270.798
270.781
270.767
270.756
270.746
270.736
270.73
270.732
270.728
270.717
270.705
270.689
270.667
270.651
270.639
270.628
270.617
270.607
270.599
270.599
270.61
270.611
270.602
270.59
270.577
270.557
270.537
270.524
270.513
270.503
270.493
270.486
270.488
270.49
270.482
270.471
270.458
270.441
270.427
270.415
270.405
270.395
270.387
270.388
270.385
270.375
270.363
270.35
270.336
270.325
270.314
270.305
270.298
270.302
270.305
270.296
270.285
270.271
270.251
270.226
270.21
270.198
270.188
270.177
270.166
270.155
270.145
270.137
270.135
270.147
270.157
270.151
270.14
270.127
270.111
270.085
270.064
270.052
270.041
270.03
270.02
270.012
270.011
270.017
270.011
270
269.989
269.974
269.959
269.948
269.937
269.927
269.919
269.919
269.918
269.908
269.897
269.883
269.865
269.85
269.839
269.829
269.819
269.813
269.818
269.82
269.811
269.8
269.786
269.768
269.75
269.739
269.728
269.717
269.708
269.704
269.708
269.705
269.694
269.683
269.669
269.655
269.643
269.633
269.623
269.614
269.608
269.6
269.589
269.578
269.567
269.555
269.545
269.534
269.525
269.52
269.521
269.513
269.503
269.49
269.474
269.459
269.448
269.437
269.427
269.42
269.42
269.422
269.414
269.403
269.39
269.374
269.36
269.349
269.338
269.329
269.322
269.324
269.324
269.314
269.303
269.29
269.272
269.257
269.245
269.235
269.224
269.213
269.203
269.192
269.181
269.172
269.164
269.164
269.169
269.162
269.152
269.14
269.126
269.11
269.097
269.087
269.076
269.066
269.058
269.057
269.052
269.042
269.031
269.018
269.006
268.995
268.985
268.975
268.968
268.964
268.955
268.944
268.933
268.921
268.91
268.899
268.889
268.88
268.877
268.878
268.87
268.859
268.847
268.836
268.825
268.815
268.805
268.798
268.788
268.778
268.766
268.753
268.735
268.719
268.707
268.697
268.686
268.678
268.675
268.685
268.691
268.683
268.672
268.66
268.643
268.621
268.606
268.595
268.584
268.574
268.565
268.562
268.567
268.563
268.553
268.542
268.528
268.51
268.496
268.485
268.475
268.465
268.457
268.458
268.459
268.451
268.44
268.428
268.415
268.404
268.393
268.383
268.374
268.366
268.355
268.345
268.333
268.319
268.301
268.287
268.276
268.265
268.256
268.248
268.25
268.262
268.262
268.253
268.241
268.228
268.208
268.187
268.174
268.163
268.152
268.143
268.135
268.137
268.145
268.14
268.129
268.118
268.103
268.081
268.064
268.052
268.041
268.031
268.021
268.014
268.014
268.018
268.011
268.001
267.989
267.976
267.964
267.953
267.943
267.933
267.925
267.918
267.908
267.897
267.887
267.876
267.865
267.854
267.843
267.832
267.82
267.809
267.799
267.788
267.778
267.768
267.759
267.758
267.766
267.765
267.756
267.744
267.731
267.711
267.688
267.675
267.664
267.654
267.644
267.637
267.638
267.647
267.642
267.631
267.619
267.605
267.584
267.567
267.556
267.545
267.535
267.525
267.52
267.525
267.525
267.516
267.505
267.493
267.478
267.466
267.455
267.444
267.435
267.429
267.424
267.415
267.404
267.392
267.377
267.356
267.34
267.329
267.318
267.308
267.298
267.29
267.29
267.304
267.308
267.299
267.288
267.275
267.258
267.233
267.216
267.205
267.194
267.184
267.175
267.172
267.181
267.188
267.181
267.171
267.158
267.143
267.118
267.095
267.082
267.071
267.061
267.05
267.039
267.029
267.018
267.008
267
266.998
267.009
267.013
267.004
266.993
266.981
266.964
266.942
266.927
266.916
266.905
266.895
266.886
266.881
266.886
266.886
266.876
266.865
266.853
266.835
266.819
266.808
266.797
266.787
266.778
266.773
266.777
266.773
266.763
266.752
266.738
266.719
266.7
266.688
266.678
266.667
266.657
266.646
266.636
266.628
266.623
266.63
266.634
266.626
266.615
266.603
266.588
266.569
266.556
266.545
266.535
266.525
266.516
266.514
266.515
266.508
266.497
266.485
266.47
266.452
266.439
266.429
266.418
266.409
266.402
266.405
266.411
266.405
266.395
266.384
266.37
266.352
266.338
266.327
266.317
266.306
266.296
266.285
266.275
266.265
266.254
266.245
266.238
266.24
266.238
266.229
266.218
266.205
266.189
266.174
266.163
266.153
266.142
266.133
266.126
266.124
266.118
266.108
266.097
266.086
266.075
266.065
266.055
266.046
266.042
266.04
266.031
266.021
266.009
265.993
265.978
265.967
265.957
265.947
265.939
265.936
265.941
265.935
265.925
265.914
265.9
265.883
265.871
265.86
265.85
265.84
265.833
265.834
265.834
265.825
265.814
265.801
265.784
265.762
265.748
265.737
265.726
265.716
265.706
265.696
265.688
265.686
265.697
265.701
265.693
265.682
265.67
265.655
265.632
265.614
265.602
265.592
265.581
265.572
265.563
265.56
265.563
265.558
265.547
265.536
265.524
265.511
265.5
265.49
265.48
265.471
265.468
265.466
265.457
265.446
265.434
265.419
265.403
265.392
265.381
265.371
265.363
265.359
265.363
265.359
265.349
265.338
265.325
265.306
265.29
265.279
265.269
265.259
265.25
265.245
265.249
265.247
265.237
265.227
265.214
265.197
265.18
265.169
265.158
265.148
265.139
265.132
265.134
265.133
265.124
265.113
265.101
265.086
265.07
265.059
265.049
265.039
265.03
265.024
265.026
265.023
265.013
265.003
264.991
264.978
264.967
264.957
264.947
264.939
264.935
264.932
264.922
264.912
264.9
264.885
264.865
264.851
264.84
264.83
264.819
264.809
264.799
264.789
264.779
264.771
264.769
264.778
264.779
264.77
264.759
264.748
264.732
264.712
264.698
264.687
264.677
264.667
264.657
264.65
264.651
264.649
264.64
264.629
264.618
264.604
264.592
264.582
264.572
264.563
264.557
264.561
264.563
264.555
264.544
264.533
264.517
264.492
264.469
264.457
264.446
264.436
264.425
264.415
264.405
264.395
264.387
264.382
264.39
264.399
264.393
264.383
264.372
264.359
264.339
264.318
264.306
264.295
264.285
264.275
264.267
264.263
264.269
264.266
264.257
264.246
264.234
264.217
264.2
264.188
264.178
264.167
264.158
264.15
264.15
264.151
264.143
264.132
264.121
264.107
264.09
264.078
264.067
264.057
264.047
264.039
264.035
264.038
264.032
264.022
264.012
264
263.985
263.973
263.962
263.952
263.942
263.932
263.922
263.911
263.901
263.891
263.881
263.873
263.87
263.872
263.865
263.855
263.844
263.83
263.813
263.8
263.789
263.779
263.769
263.761
263.757
263.761
263.755
263.745
263.734
263.721
263.704
263.69
263.679
263.669
263.659
263.65
263.645
263.647
263.643
263.634
263.623
263.611
263.595
263.581
263.57
263.56
263.549
263.54
263.534
263.535
263.53
263.521
263.51
263.498
263.484
263.472
263.462
263.452
263.442
263.433
263.43
263.426
263.416
263.406
263.396
263.385
263.374
263.364
263.354
263.345
263.337
263.328
263.319
263.309
263.298
263.288
263.278
263.268
263.259
263.251
263.249
263.243
263.233
263.223
263.212
263.201
263.191
263.18
263.171
263.161
263.153
263.145
263.135
263.125
263.114
263.102
263.088
263.073
263.063
263.052
263.042
263.032
263.023
263.015
263.013
263.023
263.023
263.014
263.004
262.993
262.978
262.957
262.942
262.931
262.921
262.911
262.902
262.897
262.902
262.911
262.906
262.896
262.886
262.873
262.854
262.822
262.8
262.787
262.777
262.767
262.756
262.746
262.736
262.727
262.718
262.715
262.724
262.737
262.733
262.724
262.713
262.701
262.685
262.66
262.642
262.631
262.621
262.611
262.601
262.593
262.591
262.597
262.594
262.584
262.574
262.562
262.546
262.527
262.515
262.505
262.494
262.485
262.476
262.471
262.474
262.47
262.46
262.45
262.438
262.423
262.409
262.398
262.388
262.378
262.369
262.363
262.364
262.365
262.357
262.347
262.336
262.324
262.311
262.299
262.289
262.279
262.268
262.258
262.246
262.232
262.213
262.198
262.188
262.177
262.167
262.158
262.15
262.148
262.159
262.167
262.16
262.15
262.139
262.126
262.107
262.083
262.069
262.059
262.049
262.039
262.03
262.024
262.028
262.034
262.028
262.018
262.007
261.995
261.976
261.955
261.942
261.931
261.921
261.911
261.901
261.894
261.892
261.895
261.889
261.879
261.869
261.858
261.848
261.838
261.828
261.82
261.815
261.811
261.802
261.792
261.781
261.768
261.746
261.721
261.707
261.697
261.687
261.677
261.667
261.657
261.65
261.649
261.663
261.669
261.662
261.652
261.641
261.629
261.61
261.587
261.572
261.561
261.551
261.541
261.532
261.525
261.525
261.531
261.525
261.515
261.505
261.492
261.476
261.458
261.446
261.436
261.426
261.416
261.408
261.403
261.406
261.401
261.391
261.381
261.369
261.354
261.34
261.329
261.318
261.308
261.299
261.291
261.289
261.289
261.282
261.271
261.261
261.249
261.236
261.226
261.216
261.206
261.196
261.187
261.18
261.171
261.161
261.151
261.141
261.131
261.12
261.109
261.099
261.089
261.079
261.069
261.059
261.049
261.041
261.036
261.036
261.029
261.019
261.008
260.998
260.986
260.976
260.966
260.956
260.947
260.94
260.94
260.939
260.93
260.92
260.909
260.896
260.876
260.855
260.842
260.832
260.822
260.812
260.802
260.792
260.782
260.773
260.767
260.768
260.776
260.772
260.763
260.752
260.741
260.727
260.708
260.693
260.683
260.673
260.663
260.653
260.645
260.643
260.642
260.634
260.624
260.614
260.602
260.588
260.576
260.565
260.555
260.546
260.537
260.531
260.529
260.522
260.512
260.502
260.491
260.48
260.47
260.46
260.451
260.442
260.437
260.438
260.432
260.423
260.412
260.401
260.386
260.365
260.35
260.339
260.329
260.319
260.309
260.299
260.289
260.28
260.27
260.263
260.261
260.267
260.264
260.255
260.245
260.234
260.22
260.202
260.189
260.178
260.168
260.158
260.149
260.141
260.139
260.138
260.13
260.12
260.109
260.097
260.083
260.072
260.062
260.052
260.042
260.033
260.027
260.025
260.018
260.008
259.998
259.987
259.976
259.965
259.955
259.945
259.936
259.927
259.921
259.914
259.905
259.895
259.885
259.875
259.865
259.856
259.848
259.841
259.832
259.822
259.812
259.802
259.791
259.778
259.765
259.754
259.744
259.734
259.725
259.715
259.706
259.699
259.699
259.697
259.688
259.678
259.667
259.656
259.642
259.631
259.62
259.611
259.601
259.592
259.584
259.582
259.587
259.581
259.572
259.562
259.552
259.541
259.531
259.518
259.501
259.476
259.459
259.448
259.438
259.428
259.418
259.408
259.399
259.39
259.382
259.382
259.394
259.397
259.389
259.379
259.369
259.357
259.34
259.318
259.303
259.293
259.283
259.273
259.264
259.256
259.254
259.258
259.252
259.243
259.233
259.222
259.208
259.194
259.182
259.172
259.163
259.153
259.145
259.141
259.139
259.131
259.121
259.111
259.099
259.082
259.065
259.053
259.043
259.033
259.024
259.016
259.013
259.02
259.02
259.012
259.002
258.992
258.98
258.963
258.943
258.93
258.92
258.91
258.9
258.89
258.881
258.871
258.861
258.853
258.847
258.848
258.847
258.838
258.828
258.817
258.806
258.791
258.779
258.769
258.759
258.749
258.74
258.732
258.73
258.726
258.717
258.707
258.697
258.686
258.675
258.665
258.655
258.646
258.637
258.633
258.635
258.631
258.621
258.611
258.6
258.586
258.562
258.535
258.52
258.51
258.5
258.49
258.48
258.47
258.461
258.455
258.455
258.468
258.471
258.463
258.453
258.443
258.432
258.417
258.397
258.384
258.374
258.364
258.354
258.345
258.339
258.34
258.345
258.339
258.329
258.319
258.308
258.293
258.268
258.242
258.229
258.219
258.209
258.199
258.189
258.18
258.173
258.173
258.185
258.187
258.179
258.17
258.159
258.148
258.133
258.112
258.098
258.087
258.077
258.068
258.058
258.05
258.045
258.046
258.041
258.031
258.021
258.011
257.999
257.984
257.973
257.963
257.953
257.944
257.935
257.928
257.926
257.919
257.909
257.899
257.889
257.877
257.865
257.855
257.845
257.836
257.826
257.818
257.814
257.808
257.799
257.789
257.78
257.77
257.76
257.75
257.74
257.731
257.723
257.717
257.712
257.703
257.693
257.683
257.673
257.66
257.643
257.63
257.62
257.61
257.6
257.591
257.581
257.571
257.563
257.556
257.557
257.557
257.549
257.539
257.53
257.519
257.506
257.492
257.481
257.471
257.461
257.452
257.443
257.436
257.431
257.422
257.412
257.402
257.392
257.381
257.371
257.361
257.351
257.342
257.333
257.328
257.324
257.315
257.305
257.295
257.285
257.271
257.254
257.243
257.233
257.223
257.214
257.206
257.202
257.208
257.208
257.199
257.189
257.179
257.168
257.152
257.132
257.119
257.109
257.099
257.09
257.08
257.072
257.07
257.069
257.062
257.052
257.042
257.032
257.021
257.01
257
256.99
256.981
256.972
256.966
256.96
256.951
256.941
256.931
256.921
256.908
256.893
256.881
256.871
256.862
256.852
256.843
256.836
256.834
256.832
256.824
256.814
256.805
256.795
256.785
256.775
256.766
256.756
256.747
256.738
256.729
256.719
256.71
256.7
256.69
256.68
256.67
256.661
256.651
256.642
256.634
256.626
256.617
256.607
256.597
256.588
256.578
256.568
256.559
256.55
256.542
256.539
256.543
256.539
256.53
256.52
256.51
256.497
256.479
256.447
256.424
256.412
256.402
256.392
256.382
256.373
256.365
256.362
256.371
256.386
256.383
256.375
256.365
256.355
256.344
256.328
256.304
256.287
256.276
256.266
256.256
256.247
256.238
256.233
256.235
256.236
256.228
256.218
256.208
256.198
256.185
256.167
256.155
256.145
256.135
256.126
256.116
256.109
256.105
256.102
256.093
256.084
256.074
256.064
256.052
256.039
256.029
256.02
256.01
256.001
255.993
255.988
255.983
255.974
255.964
255.954
255.945
255.934
255.923
255.913
255.903
255.894
255.884
255.876
255.87
255.863
255.854
255.845
255.835
255.826
255.816
255.806
255.797
255.788
255.78
255.771
255.762
255.752
255.743
255.733
255.722
255.711
255.701
255.692
255.682
255.673
255.663
255.655
255.652
255.652
255.645
255.636
255.626
255.617
255.607
255.597
255.585
255.568
255.55
255.539
255.529
255.519
255.509
255.5
255.49
255.481
255.471
255.462
255.453
255.447
255.449
255.459
255.457
255.448
255.438
255.428
255.418
255.405
255.386
255.364
255.351
255.34
255.331
255.321
255.312
255.302
255.292
255.283
255.273
255.264
255.256
255.25
255.251
255.252
255.245
255.235
255.225
255.215
255.204
255.187
255.168
255.157
255.147
255.137
255.128
255.118
255.11
255.103
255.105
255.112
255.108
255.099
255.089
255.08
255.07
255.06
255.05
255.037
255.017
254.993
254.979
254.969
254.96
254.95
254.94
254.931
254.921
254.912
254.903
254.894
254.887
254.888
254.896
254.893
254.884
254.874
254.865
254.854
254.841
254.822
254.807
254.797
254.787
254.778
254.769
254.76
254.755
254.755
254.75
254.741
254.731
254.722
254.711
254.698
254.684
254.673
254.664
254.654
254.645
254.636
254.63
254.626
254.618
254.609
254.6
254.59
254.58
254.568
254.558
254.548
254.539
254.529
254.52
254.513
254.506
254.498
254.488
254.479
254.469
254.46
254.45
254.441
254.431
254.422
254.413
254.404
254.397
254.389
254.379
254.37
254.36
254.351
254.341
254.332
254.322
254.313
254.304
254.296
254.288
254.279
254.27
254.261
254.251
254.242
254.232
254.223
254.214
254.205
254.2
254.2
254.195
254.186
254.177
254.167
254.158
254.148
254.138
254.127
254.113
254.089
254.066
254.054