/*--------------------------------*- C++ -*----------------------------------*\
  =========                 |
  \\      /  F ield         | OpenFOAM: The Open Source CFD Toolbox
   \\    /   O peration     | Website:  https://openfoam.org
    \\  /    A nd           | Version:  9
     \\/     M anipulation  |
\*---------------------------------------------------------------------------*/
FoamFile
{
    format      ascii;
    class       volScalarField;
    location    "0.042";
    object      p;
}
// * * * * * * * * * * * * * * * * * * * * * * * * * * * * * * * * * * * * * //

dimensions      [1 -1 -2 0 0 0 0];

internalField   nonuniform List<scalar> 
1000
(
45128.9
45069.1
45033
44993.9
44955.5
44917.1
44878.7
44840.3
44801.9
44763.6
44725.3
44687
44648.8
44610.6
44572.4
44534.2
44496.1
44458
44419.9
44381.8
44343.8
44305.8
44267.8
44229.9
44192
44154.1
44116.3
44078.4
44040.6
44002.9
43965.1
43927.4
43889.7
43852.1
43814.4
43776.8
43739.2
43701.7
43664.1
43626.7
43589.2
43551.7
43514.3
43476.9
43439.6
43402.2
43364.9
43327.7
43290.4
43253.2
43216
43178.8
43141.7
43104.5
43067.5
43030.4
42993.4
42956.4
42919.4
42882.4
42845.5
42808.6
42771.7
42734.9
42698
42661.3
42624.5
42587.8
42551
42514.4
42477.7
42441.1
42404.5
42367.9
42331.3
42294.8
42258.3
42221.9
42185.4
42149
42112.6
42076.3
42039.9
42003.6
41967.4
41931.1
41894.9
41858.7
41822.5
41786.4
41750.3
41714.2
41678.1
41642
41606
41570
41534.1
41498.2
41462.3
41426.4
41390.5
41354.7
41318.9
41283.1
41247.4
41211.7
41176
41140.3
41104.6
41069
41033.4
40997.9
40962.3
40926.8
40891.3
40855.9
40820.4
40785
40749.6
40714.3
40679
40643.6
40608.4
40573.1
40537.9
40502.7
40467.5
40432.3
40397.2
40362.1
40327
40292
40256.9
40221.9
40187
40152
40117.1
40082.2
40047.3
40012.5
39977.7
39942.9
39908.1
39873.4
39838.7
39804
39769.3
39734.7
39700.1
39665.5
39630.9
39596.4
39561.9
39527.4
39492.9
39458.5
39424.1
39389.7
39355.3
39321
39286.7
39252.4
39218.2
39183.9
39149.7
39115.5
39081.4
39047.3
39013.2
38979.1
38945
38911
38877
38843
38809.1
38775.2
38741.3
38707.4
38673.6
38639.7
38605.9
38572.1
38538.4
38504.6
38470.9
38437.1
38403.4
38369.8
38336.1
38302.5
38268.9
38235.3
38201.8
38168.3
38134.9
38101.4
38068
38034.7
38001.3
37968
37934.8
37901.5
37868.3
37835.1
37801.9
37768.8
37735.6
37702.5
37669.4
37636.3
37603.3
37570.4
37537.3
37504.1
37471
37438.4
37406.2
37373.2
37339.5
37306
37273.9
37243.1
37210.1
37176
37142
37109.6
37080.1
37047.7
37013.5
36979.4
36946
36916.3
36885.7
36851.8
36817.6
36783.8
36752.1
36723.4
36690.7
36656.7
36622.7
36589.5
36560.1
36529.9
36496.4
36462.5
36428.9
36396.9
36368.6
36336.7
36303
36269.3
36236.1
36205.8
36177
36144.2
36110.6
36077.2
36044.6
36015.7
35985.8
35952.7
35919.3
35886.1
35854
35825.6
35795.2
35762.3
35729.1
35696.3
35665.5
35637.6
35605.9
35572.9
35539.9
35507.3
35477.3
35449.6
35417.5
35384.4
35351.3
35318.3
35285.6
35254.7
35227.7
35196.8
35164
35131.2
35098.4
35065.9
35034.8
35007.9
34977.8
34945.4
34912.8
34879.5
34846.1
34813.6
34781.4
34750.6
34726.8
34706.1
34675.7
34643.5
34611.1
34577.6
34544.3
34512.1
34480.2
34448.9
34420.6
34392.1
34360.6
34328.8
34296.8
34265.1
34233.5
34203.1
34176
34146.4
34115
34083.4
34051.9
34020.5
33989.6
33961.2
33933.2
33902.4
33871.1
33839.8
33808.7
33778
33749.4
33721.5
33690.9
33659.9
33628.9
33598
33567.7
33539.6
33511.1
33480.6
33449.8
33419.1
33388.4
33358.3
33330.4
33301.7
33271.4
33240.9
33210.6
33180.5
33152.2
33123.9
33093.9
33063.6
33033.3
33003.2
32973.8
32946.1
32916.8
32886.8
32856.7
32826.8
32797.2
32769.1
32740.5
32710.8
32681
32651.2
32621.6
32593.1
32565
32535.6
32506.1
32476.6
32447.2
32418.8
32390.6
32361.4
32332
32302.7
32273.5
32244.6
32216.8
32188.4
32159.4
32130.4
32101.5
32072.8
32044.7
32018
31989.9
31961.5
31933.1
31904.7
31876.6
31848.8
31821.6
31794.6
31767.4
31740.3
31713.5
31687.1
31661.3
31636
31610.7
31585.9
31561.3
31537.4
31514.3
31491.9
31470.4
31449.8
31430.3
31411.9
31395.3
31380.6
31367.8
31356.8
31347.6
31339.8
31333.4
31328.8
31325.9
31324.3
31323.5
31322.8
31321.5
31321.6
31323.4
31326.7
31331
31335.2
31339.2
31342.8
31346
31348.1
31348.8
31351.1
31354.1
31357.3
31360.9
31364.5
31366.8
31369.3
31372.9
31375.9
31378.3
31380.1
31381.3
31381.8
31381.5
31378.5
31371
31363.4
31356.6
31350.9
31346.2
31342.1
31337.4
31333.8
31331.8
31330.5
31329.5
31328.7
31327.8
31325.7
31324.8
31325
31325.6
31326.4
31327.2
31327.5
31326.9
31328
31329.8
31332
31334.5
31336.9
31338.1
31338.8
31340.9
31342.9
31344.6
31345.7
31346
31344.1
31342.6
31340.9
31337.6
31333.6
31329.6
31325.3
31320.2
31317.1
31314.9
31313.1
31311.6
31310.2
31307.8
31305.4
31304.6
31304.3
31304.2
31304.1
31303.5
31301.3
31300.5
31301.2
31302.2
31303.4
31304.7
31306.2
31307.8
31309.3
31310
31309
31309.7
31311.4
31312.9
31314.2
31315.2
31315.2
31313.2
31311.6
31310
31307.2
31303.6
31300.1
31296.4
31291.8
31289
31287.2
31285.8
31284.5
31283.2
31280.9
31278.4
31277.5
31277.1
31276.9
31276.7
31276.1
31274.2
31273.7
31274.2
31274.8
31275.5
31276.1
31275.6
31275.3
31276.3
31277.7
31279.1
31280.5
31281.3
31280.8
31281.1
31282.1
31282.8
31283.2
31283
31281.3
31277.7
31274.4
31271.1
31268.2
31265.6
31263
31259.4
31257.3
31256.1
31255
31254.3
31253.4
31252.6
31252
31251.2
31248.9
31246
31245.2
31245.1
31245.3
31245.7
31246.2
31246.8
31247.6
31248.2
31247.7
31246.3
31247.2
31248.9
31250.5
31251.9
31253
31252.3
31250
31250.2
31250.6
31250.7
31250.2
31248.4
31245.4
31239.9
31233.3
31230.5
31228.9
31227.7
31226.8
31226.7
31226.3
31225.8
31225.4
31224.9
31224.4
31223.6
31220.8
31218
31217.6
31217.8
31218.2
31218.7
31219
31218.4
31216.7
31217
31217.9
31219
31220.1
31221.3
31222.3
31222.6
31220.3
31217.7
31217.7
31218
31218.1
31217.7
31216.5
31214.7
31212.9
31210.8
31207.5
31203.9
31202.3
31201.2
31200.4
31199.5
31197.7
31193.3
31191.1
31190.6
31190.3
31190.3
31190.3
31190.5
31190.8
31191.2
31191.6
31191.7
31190.4
31185.7
31184.3
31184.8
31185.7
31186.7
31187.8
31188.8
31189.8
31190.7
31191.5
31192
31191.8
31189
31183.8
31181.9
31180.3
31178.8
31177.5
31176.5
31176.2
31175.9
31175.1
31174.4
31173.8
31173.2
31172
31167.9
31163.4
31162.4
31162.1
31162
31161.9
31161.7
31160.3
31157.7
31157.3
31157.6
31158.1
31158.5
31158.9
31158.8
31156.8
31155.6
31155.9
31156.5
31156.9
31157
31155.7
31153.1
31152.2
31151.6
31150.4
31147.7
31143.2
31141
31139.8
31139
31138.4
31137.8
31137.2
31136.7
31136.1
31135.2
31132.9
31131
31130.5
31130.2
31130
31129.3
31127.2
31125.6
31125.6
31126
31126.4
31126.9
31127.5
31128
31128.6
31129.2
31129.8
31130
31128.2
31123.5
31122.5
31122.5
31122.7
31122.8
31122.6
31122
31120.9
31119.1
31115.6
31111.5
31108.6
31105.1
31101.8
31100.6
31100.1
31099.6
31099.3
31099
31098.8
31098.7
31098.5
31097.8
31094.6
31092.2
31091.8
31091.9
31092.1
31092.2
31092.1
31090.2
31087.9
31087.8
31088.1
31088.5
31089
31089.3
31088.8
31086.2
31085.1
31084.9
31084.8
31084.4
31083.5
31081.5
31077.6
31075.8
31074.9
31074.1
31073.5
31073.1
31072.8
31072.6
31072.2
31071.1
31067.4
31061.9
31060.4
31060
31059.9
31060
31060.1
31060.3
31060.3
31060
31058.2
31056.2
31056.1
31056.5
31056.9
31057.4
31057.8
31058.1
31058.1
31056.4
31051.3
31049.6
31049.4
31049.3
31049.1
31048.5
31047.9
31047.3
31046.8
31046
31044.2
31038.6
31034.8
31034
31033.7
31033.5
31033.5
31033.4
31033.4
31033.6
31033.6
31033.6
31033.7
31033.9
31034.1
31034.1
31033.6
31030.6
31022.7
31020.2
31020.1
31020.4
31020.8
31021.3
31021.7
31022.1
31022.4
31022.6
31022.5
31021.7
31019
31018.8
31025
31053
31176.2
31528.2
31837.6
31968.7
32020.5
32030.8
32031.1
32029.2
32027.3
32026.8
32026.7
32026.7
32026.7
32026.7
32027.6
32027.9
32027.6
32026.9
32023.6
32015.6
32013
32012.5
32012.7
32014.5
32014.6
32014.6
32014
32010.4
32005.8
32004.1
32003.3
32003.2
32004.2
32005.3
32005.6
32005.3
32004.5
32001.6
31993
31988.8
31987.7
31987.3
31986.8
31986.8
31987.5
31987.1
31987.3
31988
31990.6
32007.9
32075.5
32277.2
32538.5
32696.8
32769.5
32795.7
32806.8
32811.9
32815.9
32818.6
32819
32816.4
32811.3
32810.4
32810.4
32811.5
32812.1
32811.7
32808.3
32803.7
32803.1
32803.2
32803.9
32804.2
32803.7
32800.9
32797.5
32796.8
32796.5
32796.3
32795.7
32793
32788.9
32788.1
32788.1
32788.7
32790.2
32790.5
32790.4
32789.4
32785.4
32782.5
32782
32781.7
32781.6
32781.2
32779.6
32776.2
32775.3
32775.1
32775.1
32775.1
32774.8
32772.6
32768.7
32768
32768.2
32768.5
32769.3
32769.9
32770.3
32770.2
32768.3
32761.4
32758.4
32758.3
32758.7
32759.2
32759.6
32759.9
32759.7
32757.2
32755.4
32755.4
32755.8
32756.4
32757
32757.4
32757.7
32756.9
32752.9
32750.8
32750.9
32751.4
32752
32753
32753.9
)
;

boundaryField
{
    sides
    {
        type            zeroGradient;
    }
    empty
    {
        type            empty;
    }
}


// ************************************************************************* //
