/*--------------------------------*- C++ -*----------------------------------*\
  =========                 |
  \\      /  F ield         | OpenFOAM: The Open Source CFD Toolbox
   \\    /   O peration     | Website:  https://openfoam.org
    \\  /    A nd           | Version:  9
     \\/     M anipulation  |
\*---------------------------------------------------------------------------*/
FoamFile
{
    format      ascii;
    class       volScalarField;
    location    "0.042";
    object      rho;
}
// * * * * * * * * * * * * * * * * * * * * * * * * * * * * * * * * * * * * * //

dimensions      [1 -3 0 0 0 0 0];

internalField   nonuniform List<scalar> 
1000
(
0.566144
0.565608
0.565284
0.564934
0.56459
0.564245
0.5639
0.563556
0.563212
0.562868
0.562524
0.56218
0.561836
0.561493
0.56115
0.560806
0.560463
0.560121
0.559778
0.559435
0.559093
0.558751
0.558409
0.558067
0.557726
0.557384
0.557043
0.556702
0.556361
0.55602
0.55568
0.555339
0.554999
0.554659
0.554319
0.553979
0.553639
0.5533
0.552961
0.552621
0.552282
0.551944
0.551605
0.551267
0.550928
0.55059
0.550252
0.549914
0.549577
0.549239
0.548902
0.548565
0.548228
0.547891
0.547554
0.547218
0.546881
0.546545
0.546209
0.545873
0.545537
0.545202
0.544867
0.544531
0.544196
0.543861
0.543527
0.543192
0.542858
0.542523
0.542189
0.541856
0.541522
0.541188
0.540855
0.540521
0.540188
0.539855
0.539523
0.53919
0.538858
0.538526
0.538193
0.537862
0.53753
0.537198
0.536867
0.536536
0.536205
0.535874
0.535543
0.535212
0.534882
0.534551
0.534221
0.533891
0.533561
0.533232
0.532902
0.532573
0.532244
0.531915
0.531586
0.531257
0.530929
0.530601
0.530272
0.529944
0.529616
0.529288
0.528961
0.528633
0.528306
0.527979
0.527652
0.527325
0.526999
0.526672
0.526346
0.52602
0.525694
0.525368
0.525042
0.524717
0.524391
0.524066
0.523741
0.523416
0.523091
0.522767
0.522442
0.522118
0.521794
0.52147
0.521146
0.520823
0.520499
0.520176
0.519853
0.51953
0.519207
0.518884
0.518562
0.518239
0.517917
0.517595
0.517273
0.516951
0.51663
0.516308
0.515987
0.515666
0.515345
0.515024
0.514704
0.514383
0.514063
0.513743
0.513423
0.513103
0.512783
0.512463
0.512144
0.511825
0.511506
0.511187
0.510868
0.510549
0.510231
0.509913
0.509595
0.509277
0.508959
0.508641
0.508324
0.508007
0.50769
0.507373
0.507056
0.506739
0.506422
0.506106
0.505789
0.505473
0.505157
0.504841
0.504525
0.504209
0.503893
0.503577
0.503262
0.502947
0.502632
0.502317
0.502003
0.501688
0.501374
0.501061
0.500747
0.500434
0.50012
0.499807
0.499494
0.499182
0.498869
0.498557
0.498244
0.497932
0.49762
0.497307
0.496996
0.496686
0.496374
0.49606
0.495747
0.495439
0.495135
0.494823
0.494505
0.494188
0.493884
0.493593
0.49328
0.492957
0.492636
0.492329
0.492049
0.491742
0.491418
0.491094
0.490778
0.490496
0.490205
0.489884
0.48956
0.489238
0.488938
0.488665
0.488354
0.488031
0.487708
0.487392
0.487112
0.486825
0.486506
0.486183
0.485863
0.485559
0.485289
0.484985
0.484664
0.484343
0.484027
0.483737
0.483463
0.48315
0.482829
0.48251
0.482199
0.481923
0.481637
0.481321
0.481001
0.480683
0.480376
0.480105
0.479814
0.479499
0.479182
0.478868
0.478572
0.478305
0.478001
0.477684
0.477368
0.477056
0.476768
0.476502
0.476194
0.475877
0.475558
0.475241
0.474927
0.474631
0.474371
0.474073
0.473758
0.473442
0.473127
0.472814
0.472515
0.472256
0.471966
0.471654
0.471339
0.471018
0.470696
0.470383
0.470073
0.469775
0.469545
0.469345
0.469052
0.468741
0.468428
0.468104
0.467782
0.467471
0.467162
0.466859
0.466586
0.46631
0.466005
0.465697
0.465387
0.465079
0.464774
0.464479
0.464216
0.463929
0.463625
0.463318
0.463012
0.462707
0.462407
0.462132
0.46186
0.46156
0.461256
0.460952
0.460649
0.46035
0.460072
0.459801
0.459503
0.459201
0.458899
0.458598
0.458302
0.458029
0.457751
0.457453
0.457153
0.456853
0.456554
0.45626
0.455987
0.455707
0.455411
0.455113
0.454816
0.454522
0.454245
0.453969
0.453675
0.453378
0.453082
0.452787
0.452499
0.452228
0.451941
0.451646
0.451352
0.451058
0.450768
0.450492
0.450212
0.44992
0.449627
0.449335
0.449044
0.448763
0.448487
0.448199
0.447908
0.447617
0.447329
0.447049
0.446772
0.446484
0.446195
0.445906
0.445618
0.445333
0.445059
0.444779
0.444493
0.444207
0.443921
0.443638
0.443361
0.443097
0.44282
0.442539
0.442258
0.441976
0.441699
0.441424
0.441155
0.440887
0.440618
0.44035
0.440085
0.439824
0.439568
0.439317
0.439067
0.43882
0.438576
0.438339
0.43811
0.437888
0.437675
0.43747
0.437276
0.437094
0.436929
0.436783
0.436656
0.436547
0.436455
0.436378
0.436314
0.436269
0.436241
0.436225
0.436217
0.43621
0.436198
0.436199
0.436216
0.43625
0.436292
0.436335
0.436374
0.436411
0.436442
0.436464
0.436471
0.436494
0.436523
0.436556
0.436592
0.436628
0.436651
0.436677
0.436712
0.436742
0.436766
0.436785
0.436796
0.436802
0.436799
0.436769
0.436695
0.436619
0.436552
0.436496
0.436449
0.436409
0.436362
0.436326
0.436307
0.436294
0.436285
0.436278
0.436269
0.436248
0.436239
0.436241
0.436247
0.436255
0.436264
0.436268
0.436262
0.436273
0.436291
0.436313
0.436338
0.436362
0.436375
0.436383
0.436403
0.436423
0.43644
0.436452
0.436455
0.436437
0.436422
0.436405
0.436373
0.436333
0.436294
0.436251
0.436201
0.436171
0.436149
0.436132
0.436117
0.436103
0.43608
0.436056
0.436049
0.436046
0.436045
0.436045
0.43604
0.436018
0.436011
0.436017
0.436028
0.43604
0.436054
0.436069
0.436085
0.436101
0.436109
0.436099
0.436107
0.436123
0.436139
0.436153
0.436162
0.436163
0.436144
0.436128
0.436113
0.436086
0.43605
0.436016
0.43598
0.435935
0.435908
0.435891
0.435877
0.435865
0.435852
0.43583
0.435806
0.435797
0.435794
0.435793
0.435792
0.435786
0.435769
0.435764
0.435769
0.435777
0.435785
0.435791
0.435787
0.435785
0.435796
0.43581
0.435826
0.435841
0.43585
0.435845
0.43585
0.43586
0.435869
0.435874
0.435873
0.435857
0.435823
0.435792
0.435762
0.435736
0.435714
0.43569
0.435657
0.435642
0.435636
0.435633
0.435634
0.435633
0.435631
0.435628
0.435623
0.435605
0.435585
0.435586
0.435589
0.435593
0.435596
0.435598
0.435599
0.435602
0.435605
0.435596
0.435578
0.435583
0.435595
0.435608
0.43562
0.435628
0.435619
0.435594
0.435595
0.435599
0.435601
0.435596
0.435579
0.435552
0.4355
0.435436
0.43541
0.435395
0.435386
0.43538
0.43538
0.435378
0.435373
0.435367
0.435361
0.435354
0.435344
0.435315
0.435286
0.435282
0.435283
0.435287
0.435291
0.435295
0.435289
0.435272
0.435275
0.435285
0.435297
0.435308
0.43532
0.43533
0.435334
0.435311
0.435285
0.435285
0.435287
0.435288
0.435285
0.435273
0.435255
0.435236
0.435215
0.435182
0.435147
0.435131
0.43512
0.435112
0.435103
0.435086
0.435042
0.43502
0.435014
0.435012
0.435011
0.435012
0.435014
0.435017
0.435021
0.435024
0.435025
0.435012
0.434966
0.434952
0.434957
0.434966
0.434976
0.434987
0.434997
0.435007
0.435016
0.435024
0.435029
0.435027
0.434999
0.434947
0.434928
0.434912
0.434898
0.434885
0.434875
0.434872
0.434868
0.434861
0.434854
0.434848
0.434842
0.43483
0.434789
0.434745
0.434735
0.434731
0.43473
0.434729
0.434727
0.434713
0.434687
0.434684
0.434687
0.434691
0.434696
0.4347
0.434699
0.434678
0.434666
0.43467
0.434675
0.43468
0.434681
0.434668
0.434642
0.434633
0.434627
0.434615
0.434588
0.434543
0.434521
0.43451
0.434502
0.434495
0.434489
0.434484
0.434478
0.434473
0.434464
0.434441
0.434422
0.434417
0.434414
0.434411
0.434405
0.434384
0.434368
0.434368
0.434372
0.434376
0.434381
0.434387
0.434392
0.434398
0.434404
0.43441
0.434412
0.434394
0.434347
0.434337
0.434337
0.434339
0.43434
0.434338
0.434332
0.434321
0.434302
0.434268
0.434227
0.434198
0.434163
0.43413
0.434118
0.434113
0.434108
0.434105
0.434102
0.4341
0.434099
0.434097
0.43409
0.434059
0.434034
0.434031
0.434031
0.434033
0.434035
0.434033
0.434015
0.433992
0.43399
0.433994
0.433998
0.434003
0.434006
0.434001
0.433975
0.433963
0.433962
0.433961
0.433956
0.433947
0.433928
0.433889
0.433871
0.433862
0.433855
0.433849
0.433845
0.433842
0.43384
0.433836
0.433825
0.433788
0.433732
0.433717
0.433713
0.433712
0.433713
0.433714
0.433716
0.433716
0.433713
0.433695
0.433675
0.433675
0.433678
0.433683
0.433687
0.433692
0.433695
0.433695
0.433678
0.433627
0.43361
0.433608
0.433607
0.433604
0.433598
0.433592
0.433586
0.433581
0.433573
0.433555
0.4335
0.433462
0.433454
0.433451
0.43345
0.433449
0.433449
0.433449
0.43345
0.43345
0.43345
0.433451
0.433453
0.433454
0.433455
0.43345
0.43342
0.433341
0.433316
0.433315
0.433318
0.433323
0.433327
0.433332
0.433336
0.433339
0.43334
0.433339
0.433332
0.433305
0.433303
0.433365
0.433644
0.434872
0.43836
0.441475
0.442809
0.443182
0.443279
0.443312
0.443357
0.443371
0.443363
0.443327
0.443282
0.443276
0.443283
0.443322
0.443355
0.443352
0.443331
0.443273
0.443177
0.443155
0.443161
0.443184
0.443209
0.443208
0.443197
0.443179
0.443136
0.443097
0.443093
0.443092
0.443092
0.443098
0.443098
0.443095
0.443091
0.443088
0.443069
0.442988
0.442942
0.442928
0.442919
0.442913
0.442915
0.442926
0.44293
0.442932
0.442935
0.442957
0.443125
0.44379
0.44578
0.448365
0.449949
0.450593
0.450868
0.451018
0.451076
0.451091
0.451101
0.451105
0.451088
0.451051
0.451044
0.451042
0.451044
0.451044
0.45104
0.451012
0.450974
0.450969
0.450968
0.45097
0.450969
0.450965
0.450942
0.450914
0.450908
0.450904
0.450898
0.450888
0.450858
0.45082
0.450815
0.450816
0.450823
0.450835
0.450837
0.450835
0.450827
0.450793
0.450767
0.450761
0.450757
0.450753
0.450747
0.45073
0.450698
0.45069
0.450689
0.450689
0.450689
0.450685
0.450663
0.450625
0.45062
0.450623
0.450628
0.450635
0.45064
0.450643
0.450642
0.450622
0.450554
0.450524
0.450524
0.450528
0.450532
0.450537
0.450541
0.45054
0.450517
0.450499
0.450499
0.450502
0.450507
0.450512
0.450517
0.45052
0.450512
0.450473
0.450453
0.450453
0.450457
0.450463
0.450473
0.450481
)
;

boundaryField
{
    sides
    {
        type            calculated;
        value           nonuniform List<scalar> 2(0.450481 0.566144);
    }
    empty
    {
        type            empty;
    }
}


// ************************************************************************* //
