/*--------------------------------*- C++ -*----------------------------------*\
  =========                 |
  \\      /  F ield         | OpenFOAM: The Open Source CFD Toolbox
   \\    /   O peration     | Website:  https://openfoam.org
    \\  /    A nd           | Version:  9
     \\/     M anipulation  |
\*---------------------------------------------------------------------------*/
FoamFile
{
    format      ascii;
    class       volScalarField;
    location    "0.021";
    object      ddt0(rho,K);
}
// * * * * * * * * * * * * * * * * * * * * * * * * * * * * * * * * * * * * * //

dimensions      [1 -1 -3 0 0 0 0];

internalField   nonuniform List<scalar> 
100
(
16160.8
2114.2
-7329.91
-22498.1
-40354.3
-60780
-84183.8
-110516
-139671
-171748
-206583
-244538
-285181
-327640
-373972
-421920
-470838
-523054
-576513
-634958
-687970
-744024
-810531
-864303
-911423
-972566
-1.03768e+06
-1.07086e+06
-1.10827e+06
-1.15969e+06
-1.20074e+06
-1.19603e+06
-1.19112e+06
-1.20603e+06
-1.20196e+06
-1.11879e+06
-1.03193e+06
-979917
-923510
-784925
-627744
-516959
-470198
-405368
-277896
-146305
-93287.6
-123407
-129770
-56580.4
14874.5
62547.8
12952.2
-67297.6
-62118.7
9311.34
23016.2
66116.9
52918.6
-72150.3
-45528.7
-21127.6
-2493.25
32148.9
22823.3
7441.41
-8305.29
1903.72
8902.76
-40505.1
27513.7
30659.2
-43262.4
-17754.6
245.239
45465.8
24944.4
-159503
51690.5
370429
243995
-532803
-184038
-27308.3
-117328
-234368
647178
601739
-422793
-334697
23249.4
-70472
-429560
1.10481e+06
1.00442e+06
-2.26185e+06
-197737
2.0019e+06
109154
-1.0641e+06
)
;

boundaryField
{
    sides
    {
        type            calculated;
        value           nonuniform List<scalar> 2(-1.0641e+06 16160.8);
    }
    empty
    {
        type            empty;
    }
}


// ************************************************************************* //
