/*--------------------------------*- C++ -*----------------------------------*\
  =========                 |
  \\      /  F ield         | OpenFOAM: The Open Source CFD Toolbox
   \\    /   O peration     | Website:  https://openfoam.org
    \\  /    A nd           | Version:  9
     \\/     M anipulation  |
\*---------------------------------------------------------------------------*/
FoamFile
{
    format      ascii;
    class       surfaceScalarField;
    location    "0.021";
    object      ddtCorrDdt0(phi);
}
// * * * * * * * * * * * * * * * * * * * * * * * * * * * * * * * * * * * * * //

dimensions      [1 0 -2 0 0 0 0];

internalField   nonuniform List<scalar> 
99
(
-1514.13
-2895.33
-4298.19
-5694.46
-7074.2
-8437.14
-9786.19
-11124.6
-12453.2
-13777.6
-15093.2
-16411.2
-17696.9
-18948.8
-20223.5
-21443
-22635.7
-23780.3
-24954.6
-26118.3
-27029.7
-28056
-29221.7
-29851.1
-30489.8
-31299.1
-32192.3
-32053.5
-32070.5
-33035.8
-32541.9
-31736.5
-30468.7
-30979.6
-29085.8
-26395.4
-23887.8
-23107
-20585.9
-16761.1
-13235.9
-11640.8
-10797
-8579.62
-5245.53
-2929.71
-3033.28
-3736.48
-2921.12
-764.057
591.777
904.849
-1227.76
-1850.03
-808.013
550.769
928.904
1851.25
-480.795
-1397.33
-487.328
-272.32
645.613
1078.83
-3.09731
854.813
-1757.23
2162.07
-6242.58
404.706
1801.21
-4183.31
-607.867
-137.994
1119.76
6388.01
-25755.7
-2377.25
26105.3
16595.6
-3076.74
-68575.3
-2989.39
-3126.65
-36005.8
-6921.26
144857
21938.8
-138528
-3329.33
819.416
-61301.1
-8178.82
277369
-124712
-61626.8
341485
46619.5
-299275
)
;

boundaryField
{
    sides
    {
        type            calculated;
        value           nonuniform List<scalar> 2(-25148 111.63);
    }
    empty
    {
        type            empty;
        value           nonuniform List<scalar> 0();
    }
}


// ************************************************************************* //
