/*--------------------------------*- C++ -*----------------------------------*\
  =========                 |
  \\      /  F ield         | OpenFOAM: The Open Source CFD Toolbox
   \\    /   O peration     | Website:  https://openfoam.org
    \\  /    A nd           | Version:  9
     \\/     M anipulation  |
\*---------------------------------------------------------------------------*/
FoamFile
{
    format      ascii;
    class       volScalarField;
    location    "0.021";
    object      mag(U);
}
// * * * * * * * * * * * * * * * * * * * * * * * * * * * * * * * * * * * * * //

dimensions      [0 1 -1 0 0 0 0];

internalField   nonuniform List<scalar> 
100
(
33.3493
40.74
47.3825
52.9062
58.6245
64.3719
70.1143
75.8637
81.6228
87.3882
93.1644
98.9356
104.727
110.497
116.285
122.074
127.856
133.652
139.419
145.221
150.983
156.707
162.482
168.219
173.871
179.539
185.21
190.772
196.284
201.796
207.219
212.51
217.724
222.87
227.868
232.681
237.338
241.844
246.152
250.227
254.081
257.74
261.195
264.441
267.487
270.351
273.027
275.521
277.854
280.019
282.024
283.853
285.484
286.955
288.285
289.424
290.387
291.189
291.75
292.203
292.593
292.832
292.972
293.026
293.031
293.033
293.033
293.032
293.018
292.99
292.959
292.93
292.902
292.868
292.84
292.817
292.785
292.761
292.742
292.685
292.583
292.534
292.546
292.523
292.475
292.452
292.39
292.213
292.038
291.986
291.948
291.846
291.767
291.649
291.374
291.269
291.407
291.367
291.183
291.237
)
;

boundaryField
{
    sides
    {
        type            calculated;
        value           nonuniform List<scalar> 2(291.237 33.3493);
    }
    empty
    {
        type            empty;
    }
}


// ************************************************************************* //
