/*--------------------------------*- C++ -*----------------------------------*\
  =========                 |
  \\      /  F ield         | OpenFOAM: The Open Source CFD Toolbox
   \\    /   O peration     | Website:  https://openfoam.org
    \\  /    A nd           | Version:  9
     \\/     M anipulation  |
\*---------------------------------------------------------------------------*/
FoamFile
{
    format      ascii;
    class       volScalarField;
    location    "0.021";
    object      p_0;
}
// * * * * * * * * * * * * * * * * * * * * * * * * * * * * * * * * * * * * * //

dimensions      [1 -1 -2 0 0 0 0];

internalField   nonuniform List<scalar> 
100
(
43517.5
43317.8
43065.4
42879
42685.5
42489.6
42294.5
42099.6
41905
41710.3
41516.5
41322
41131.3
40936.1
40749.3
40554.8
40367.9
40174.6
39985.3
39797.7
39603.7
39415.6
39229.3
39034.9
38840.8
38652.8
38456.7
38255.9
38060.1
37853.5
37645.2
37424.8
37211.4
36974.7
36735
36478
36217.5
35934.6
35643
35331.1
35012.6
34685
34351
34012.6
33675.8
33344
33018.1
32706.8
32408.2
32125.2
31859.5
31616.4
31387.6
31193.5
31016.5
30859.5
30728.7
30623.8
30524.1
30472.3
30424.7
30389.1
30375
30365.6
30365.5
30366.1
30367
30370.3
30369.9
30374.7
30381.7
30382.5
30387.3
30393.6
30403.1
30407.6
30405.3
30422.2
30437.9
30424.7
30402.4
30412.7
30469.7
30479.8
30489
30524.1
30533.3
30454.8
30454.1
30538.2
30560.4
30567.8
30616.5
30633.3
30486.7
30601.5
30780.4
30560.1
30458.6
30657.9
)
;

boundaryField
{
    sides
    {
        type            zeroGradient;
    }
    empty
    {
        type            empty;
    }
}


// ************************************************************************* //
