/*--------------------------------*- C++ -*----------------------------------*\
  =========                 |
  \\      /  F ield         | OpenFOAM: The Open Source CFD Toolbox
   \\    /   O peration     | Website:  https://openfoam.org
    \\  /    A nd           | Version:  9
     \\/     M anipulation  |
\*---------------------------------------------------------------------------*/
FoamFile
{
    format      ascii;
    class       volScalarField;
    location    "0.021";
    object      T;
}
// * * * * * * * * * * * * * * * * * * * * * * * * * * * * * * * * * * * * * //

dimensions      [0 0 0 1 0 0 0];

internalField   nonuniform List<scalar> 
100
(
273.891
273.75
273.615
273.363
273.013
272.634
272.258
271.889
271.524
271.16
270.806
270.425
270.117
269.668
269.442
268.956
268.708
268.271
267.959
267.665
267.16
266.879
266.646
266.12
265.725
265.539
265.14
264.598
264.362
264.127
263.53
262.994
262.798
262.491
261.737
261.063
260.796
260.455
259.669
258.688
258.115
257.803
257.211
256.141
255.124
254.606
254.313
253.74
252.736
251.796
251.31
251.152
250.911
250.348
249.599
249.116
248.989
249.016
249.005
248.88
248.553
248.408
248.417
248.493
248.631
248.676
248.671
248.638
248.618
248.623
248.686
248.794
248.844
248.863
248.879
248.886
248.89
248.96
249.095
249.144
249.121
249.114
249.279
249.343
249.424
249.58
249.717
249.599
249.591
249.851
249.994
250.086
250.267
250.465
250.249
250.41
251.066
250.851
250.702
251.326
)
;

boundaryField
{
    sides
    {
        type            zeroGradient;
    }
    empty
    {
        type            empty;
    }
}


// ************************************************************************* //
