/*--------------------------------*- C++ -*----------------------------------*\
  =========                 |
  \\      /  F ield         | OpenFOAM: The Open Source CFD Toolbox
   \\    /   O peration     | Website:  https://openfoam.org
    \\  /    A nd           | Version:  9
     \\/     M anipulation  |
\*---------------------------------------------------------------------------*/
FoamFile
{
    format      ascii;
    class       volVectorField;
    location    "0.021";
    object      U;
}
// * * * * * * * * * * * * * * * * * * * * * * * * * * * * * * * * * * * * * //

dimensions      [0 1 -1 0 0 0 0];

internalField   nonuniform List<vector> 
100
(
(33.3493 0 0)
(40.74 0 0)
(47.3825 0 0)
(52.9062 0 0)
(58.6245 0 0)
(64.3719 0 0)
(70.1143 0 0)
(75.8637 0 0)
(81.6228 0 0)
(87.3882 0 0)
(93.1644 0 0)
(98.9356 0 0)
(104.727 0 0)
(110.497 0 0)
(116.285 0 0)
(122.074 0 0)
(127.856 0 0)
(133.652 0 0)
(139.419 0 0)
(145.221 0 0)
(150.983 0 0)
(156.707 0 0)
(162.482 0 0)
(168.219 0 0)
(173.871 0 0)
(179.539 0 0)
(185.21 0 0)
(190.772 0 0)
(196.284 0 0)
(201.796 0 0)
(207.219 0 0)
(212.51 0 0)
(217.724 0 0)
(222.87 0 0)
(227.868 0 0)
(232.681 0 0)
(237.338 0 0)
(241.844 0 0)
(246.152 0 0)
(250.227 0 0)
(254.081 0 0)
(257.74 0 0)
(261.195 0 0)
(264.441 0 0)
(267.487 0 0)
(270.351 0 0)
(273.027 0 0)
(275.521 0 0)
(277.854 0 0)
(280.019 0 0)
(282.024 0 0)
(283.853 0 0)
(285.484 0 0)
(286.955 0 0)
(288.285 0 0)
(289.424 0 0)
(290.387 0 0)
(291.189 0 0)
(291.75 0 0)
(292.203 0 0)
(292.593 0 0)
(292.832 0 0)
(292.972 0 0)
(293.026 0 0)
(293.031 0 0)
(293.033 0 0)
(293.033 0 0)
(293.032 0 0)
(293.018 0 0)
(292.99 0 0)
(292.959 0 0)
(292.93 0 0)
(292.902 0 0)
(292.868 0 0)
(292.84 0 0)
(292.817 0 0)
(292.785 0 0)
(292.761 0 0)
(292.742 0 0)
(292.685 0 0)
(292.583 0 0)
(292.534 0 0)
(292.546 0 0)
(292.523 0 0)
(292.475 0 0)
(292.452 0 0)
(292.39 0 0)
(292.213 0 0)
(292.038 0 0)
(291.986 0 0)
(291.948 0 0)
(291.846 0 0)
(291.767 0 0)
(291.649 0 0)
(291.374 0 0)
(291.269 0 0)
(291.407 0 0)
(291.367 0 0)
(291.183 0 0)
(291.237 0 0)
)
;

boundaryField
{
    sides
    {
        type            zeroGradient;
    }
    empty
    {
        type            empty;
    }
}


// ************************************************************************* //
