/*--------------------------------*- C++ -*----------------------------------*\
  =========                 |
  \\      /  F ield         | OpenFOAM: The Open Source CFD Toolbox
   \\    /   O peration     | Website:  https://openfoam.org
    \\  /    A nd           | Version:  9
     \\/     M anipulation  |
\*---------------------------------------------------------------------------*/
FoamFile
{
    format      ascii;
    class       volScalarField;
    location    "0.029";
    object      T;
}
// * * * * * * * * * * * * * * * * * * * * * * * * * * * * * * * * * * * * * //

dimensions      [0 0 0 1 0 0 0];

internalField   nonuniform List<scalar> 
10000
(
290.484
290.468
290.459
290.449
290.439
290.428
290.418
290.408
290.398
290.388
290.378
290.368
290.358
290.348
290.338
290.328
290.318
290.308
290.298
290.288
290.278
290.268
290.258
290.248
290.238
290.228
290.218
290.208
290.198
290.188
290.178
290.168
290.158
290.148
290.138
290.128
290.118
290.108
290.098
290.088
290.078
290.068
290.058
290.047
290.037
290.027
290.017
290.007
289.997
289.987
289.977
289.967
289.957
289.947
289.937
289.927
289.917
289.907
289.897
289.887
289.877
289.867
289.857
289.847
289.837
289.827
289.817
289.806
289.796
289.786
289.776
289.766
289.756
289.746
289.736
289.726
289.716
289.706
289.696
289.686
289.676
289.666
289.656
289.646
289.636
289.626
289.616
289.606
289.596
289.586
289.576
289.566
289.556
289.546
289.536
289.526
289.516
289.506
289.496
289.486
289.476
289.466
289.456
289.446
289.436
289.426
289.416
289.406
289.396
289.386
289.376
289.366
289.356
289.346
289.336
289.326
289.316
289.306
289.296
289.286
289.276
289.266
289.256
289.246
289.236
289.226
289.216
289.206
289.196
289.186
289.176
289.166
289.156
289.146
289.136
289.126
289.116
289.106
289.096
289.086
289.076
289.066
289.056
289.046
289.035
289.025
289.015
289.006
288.996
288.986
288.976
288.965
288.955
288.944
288.935
288.926
288.917
288.906
288.895
288.884
288.874
288.866
288.858
288.848
288.836
288.824
288.812
288.802
288.795
288.789
288.779
288.767
288.755
288.743
288.731
288.722
288.716
288.71
288.698
288.686
288.674
288.662
288.652
288.645
288.64
288.63
288.617
288.604
288.592
288.581
288.573
288.571
288.562
288.549
288.536
288.523
288.511
288.5
288.496
288.494
288.482
288.469
288.454
288.442
288.43
288.42
288.419
288.414
288.401
288.387
288.373
288.361
288.35
288.347
288.343
288.331
288.317
288.303
288.29
288.279
288.273
288.273
288.264
288.251
288.235
288.221
288.209
288.198
288.194
288.193
288.183
288.169
288.155
288.142
288.131
288.125
288.121
288.11
288.097
288.084
288.071
288.06
288.055
288.054
288.043
288.03
288.015
288.002
287.989
287.977
287.967
287.966
287.969
287.961
287.947
287.932
287.916
287.903
287.891
287.879
287.871
287.872
287.867
287.854
287.839
287.824
287.811
287.799
287.791
287.792
287.786
287.773
287.758
287.743
287.73
287.719
287.714
287.715
287.705
287.691
287.676
287.662
287.65
287.64
287.639
287.638
287.626
287.611
287.595
287.581
287.569
287.558
287.557
287.558
287.548
287.534
287.518
287.503
287.49
287.479
287.474
287.476
287.467
287.453
287.437
287.422
287.41
287.399
287.395
287.397
287.387
287.374
287.357
287.341
287.328
287.317
287.308
287.309
287.313
287.304
287.29
287.273
287.255
287.242
287.229
287.218
287.211
287.214
287.209
287.196
287.181
287.165
287.152
287.141
287.135
287.136
287.126
287.113
287.097
287.082
287.07
287.061
287.06
287.059
287.048
287.033
287.015
287
286.988
286.977
286.974
286.98
286.974
286.96
286.944
286.926
286.912
286.9
286.89
286.89
286.891
286.88
286.866
286.848
286.832
286.82
286.809
286.805
286.808
286.801
286.787
286.77
286.754
286.741
286.729
286.722
286.725
286.72
286.707
286.692
286.676
286.663
286.651
286.644
286.646
286.641
286.628
286.614
286.601
286.588
286.577
286.567
286.556
286.544
286.533
286.526
286.526
286.519
286.506
286.49
286.476
286.463
286.453
286.45
286.449
286.438
286.424
286.409
286.396
286.384
286.377
286.378
286.371
286.358
286.344
286.331
286.319
286.309
286.301
286.29
286.278
286.266
286.256
286.253
286.249
286.237
286.223
286.207
286.194
286.183
286.177
286.179
286.171
286.158
286.141
286.122
286.109
286.097
286.089
286.092
286.101
286.094
286.081
286.064
286.041
286.023
286.01
285.998
285.988
285.986
285.992
285.986
285.973
285.956
285.938
285.925
285.913
285.903
285.903
285.903
285.892
285.877
285.861
285.847
285.835
285.826
285.826
285.823
285.811
285.796
285.78
285.766
285.755
285.747
285.75
285.745
285.732
285.716
285.7
285.686
285.675
285.667
285.669
285.663
285.651
285.636
285.62
285.608
285.597
285.591
285.591
285.582
285.568
285.552
285.538
285.526
285.516
285.516
285.515
285.503
285.489
285.472
285.458
285.446
285.437
285.436
285.433
285.421
285.406
285.391
285.378
285.367
285.36
285.363
285.357
285.344
285.327
285.31
285.296
285.285
285.278
285.282
285.284
285.273
285.259
285.239
285.218
285.204
285.192
285.182
285.179
285.185
285.179
285.166
285.15
285.131
285.117
285.105
285.096
285.096
285.102
285.095
285.081
285.064
285.043
285.027
285.015
285.004
285
285.005
285.001
284.989
284.973
284.954
284.94
284.928
284.918
284.916
284.921
284.915
284.902
284.885
284.864
284.847
284.835
284.823
284.816
284.819
284.825
284.817
284.803
284.786
284.764
284.749
284.736
284.725
284.717
284.721
284.722
284.712
284.698
284.68
284.664
284.651
284.64
284.634
284.636
284.63
284.617
284.602
284.586
284.573
284.562
284.555
284.557
284.549
284.536
284.52
284.505
284.493
284.482
284.478
284.482
284.475
284.463
284.447
284.431
284.418
284.406
284.396
284.389
284.379
284.366
284.354
284.342
284.333
284.334
284.33
284.318
284.304
284.288
284.275
284.263
284.256
284.259
284.258
284.247
284.233
284.213
284.196
284.183
284.172
284.164
284.167
284.165
284.153
284.139
284.121
284.106
284.094
284.084
284.08
284.083
284.074
284.061
284.045
284.029
284.016
284.005
283.998
284.001
283.996
283.983
283.968
283.952
283.939
283.928
283.921
283.924
283.921
283.909
283.894
283.873
283.854
283.84
283.828
283.817
283.809
283.811
283.82
283.815
283.802
283.787
283.766
283.749
283.736
283.725
283.716
283.718
283.718
283.707
283.693
283.676
283.66
283.648
283.637
283.632
283.636
283.63
283.617
283.601
283.582
283.569
283.557
283.548
283.55
283.557
283.55
283.537
283.52
283.495
283.475
283.461
283.449
283.439
283.436
283.446
283.449
283.439
283.425
283.407
283.384
283.369
283.357
283.346
283.339
283.343
283.343
283.332
283.318
283.299
283.284
283.271
283.26
283.253
283.256
283.253
283.241
283.226
283.209
283.195
283.183
283.173
283.169
283.166
283.156
283.142
283.129
283.117
283.107
283.103
283.098
283.086
283.072
283.057
283.044
283.032
283.024
283.027
283.031
283.022
283.008
282.99
282.968
282.952
282.94
282.929
282.923
282.928
282.928
282.917
282.903
282.884
282.866
282.853
282.842
282.832
282.832
282.834
282.825
282.812
282.796
282.783
282.771
282.761
282.759
282.758
282.747
282.732
282.713
282.696
282.683
282.672
282.665
282.668
282.67
282.66
282.646
282.628
282.61
282.597
282.585
282.576
282.575
282.579
282.57
282.557
282.54
282.521
282.508
282.496
282.486
282.483
282.487
282.48
282.467
282.453
282.438
282.426
282.416
282.411
282.409
282.397
282.384
282.367
282.353
282.341
282.33
282.326
282.33
282.324
282.311
282.295
282.275
282.261
282.249
282.239
282.235
282.24
282.235
282.222
282.207
282.188
282.173
282.161
282.15
282.144
282.149
282.145
282.133
282.118
282.1
282.087
282.075
282.065
282.062
282.065
282.057
282.044
282.028
282.01
281.997
281.985
281.975
281.974
281.971
281.96
281.946
281.928
281.914
281.902
281.892
281.89
281.896
281.891
281.878
281.863
281.843
281.827
281.814
281.803
281.795
281.797
281.797
281.786
281.773
281.755
281.74
281.728
281.717
281.71
281.713
281.709
281.697
281.683
281.668
281.656
281.644
281.635
281.63
281.62
281.607
281.594
281.581
281.569
281.559
281.557
281.565
281.562
281.549
281.534
281.511
281.487
281.472
281.46
281.449
281.444
281.452
281.459
281.451
281.438
281.421
281.398
281.38
281.368
281.356
281.347
281.346
281.353
281.348
281.335
281.32
281.3
281.284
281.271
281.26
281.252
281.253
281.255
281.245
281.232
281.215
281.2
281.187
281.176
281.168
281.168
281.162
281.15
281.136
281.123
281.111
281.101
281.098
281.099
281.089
281.076
281.059
281.038
281.023
281.011
280.999
280.987
280.977
280.972
280.98
280.984
280.974
280.961
280.944
280.924
280.909
280.897
280.886
280.878
280.879
280.878
280.866
280.853
280.837
280.823
280.811
280.801
280.798
280.798
280.788
280.775
280.759
280.744
280.732
280.721
280.714
280.716
280.711
280.699
280.684
280.668
280.655
280.643
280.633
280.63
280.627
280.616
280.603
280.589
280.577
280.566
280.556
280.552
280.544
280.532
280.52
280.509
280.499
280.499
280.495
280.483
280.468
280.448
280.43
280.417
280.406
280.398
280.401
280.41
280.404
280.392
280.377
280.354
280.334
280.321
280.309
280.299
280.296
280.304
280.304
280.292
280.279
280.26
280.24
280.226
280.214
280.204
280.199
280.205
280.204
280.193
280.18
280.163
280.147
280.134
280.123
280.112
280.108
280.103
280.091
280.079
280.068
280.057
280.052
280.048
280.036
280.023
280.005
279.983
279.969
279.957
279.946
279.941
279.95
279.962
279.955
279.943
279.928
279.905
279.882
279.868
279.856
279.845
279.837
279.839
279.845
279.837
279.825
279.809
279.79
279.775
279.763
279.752
279.744
279.746
279.745
279.734
279.721
279.705
279.692
279.681
279.671
279.666
279.661
279.649
279.636
279.622
279.609
279.598
279.589
279.59
279.596
279.588
279.575
279.558
279.531
279.506
279.492
279.48
279.469
279.462
279.468
279.487
279.488
279.478
279.464
279.446
279.417
279.396
279.383
279.371
279.36
279.352
279.355
279.364
279.358
279.346
279.331
279.31
279.293
279.28
279.268
279.258
279.254
279.259
279.253
279.241
279.227
279.209
279.196
279.184
279.173
279.167
279.17
279.164
279.152
279.137
279.121
279.108
279.097
279.087
279.086
279.09
279.083
279.071
279.055
279.036
279.021
279.008
278.996
278.984
278.973
278.961
278.949
278.939
278.933
278.939
278.946
278.937
278.925
278.909
278.886
278.867
278.854
278.842
278.832
278.827
278.833
278.834
278.824
278.811
278.793
278.774
278.761
278.749
278.738
278.732
278.736
278.733
278.722
278.708
278.69
278.676
278.663
278.653
278.644
278.646
278.642
278.631
278.617
278.6
278.586
278.574
278.563
278.557
278.559
278.554
278.542
278.528
278.511
278.497
278.485
278.474
278.468
278.47
278.465
278.453
278.439
278.423
278.41
278.398
278.388
278.384
278.382
278.372
278.359
278.345
278.332
278.32
278.31
278.306
278.309
278.302
278.29
278.276
278.26
278.247
278.235
278.224
278.214
278.205
278.194
278.182
278.172
278.163
278.163
278.163
278.152
278.139
278.121
278.099
278.085
278.073
278.062
278.055
278.061
278.07
278.063
278.051
278.036
278.014
277.994
277.981
277.97
277.959
277.954
277.959
277.96
277.949
277.936
277.918
277.899
277.885
277.874
277.863
277.857
277.861
277.86
277.848
277.835
277.817
277.799
277.787
277.775
277.765
277.762
277.768
277.764
277.752
277.738
277.722
277.708
277.696
277.685
277.679
277.681
277.673
277.661
277.646
277.622
277.6
277.586
277.575
277.564
277.555
277.557
277.574
277.58
277.571
277.558
277.542
277.518
277.493
277.479
277.467
277.455
277.446
277.442
277.45
277.451
277.441
277.428
277.411
277.393
277.379
277.367
277.356
277.348
277.35
277.351
277.341
277.329
277.314
277.3
277.287
277.275
277.263
277.251
277.237
277.222
277.209
277.198
277.187
277.18
277.185
277.198
277.193
277.181
277.167
277.147
277.122
277.106
277.094
277.083
277.073
277.069
277.077
277.076
277.066
277.053
277.036
277.019
277.006
276.995
276.985
276.981
276.987
276.984
276.973
276.959
276.941
276.921
276.907
276.895
276.884
276.872
276.86
276.849
276.839
276.832
276.836
276.842
276.834
276.822
276.807
276.787
276.769
276.757
276.745
276.735
276.729
276.734
276.731
276.72
276.707
276.69
276.673
276.661
276.65
276.64
276.637
276.64
276.632
276.62
276.605
276.588
276.575
276.563
276.553
276.547
276.549
276.544
276.532
276.519
276.506
276.494
276.484
276.477
276.475
276.465
276.452
276.437
276.414
276.394
276.382
276.37
276.359
276.351
276.354
276.371
276.375
276.365
276.352
276.336
276.311
276.289
276.275
276.263
276.252
276.243
276.24
276.245
276.24
276.228
276.214
276.195
276.178
276.166
276.155
276.146
276.146
276.156
276.152
276.141
276.127
276.107
276.082
276.067
276.055
276.044
276.035
276.033
276.044
276.043
276.032
276.019
276.002
275.98
275.966
275.954
275.943
275.934
275.932
275.935
275.928
275.916
275.901
275.885
275.871
275.86
275.849
275.843
275.846
275.841
275.83
275.816
275.797
275.779
275.766
275.755
275.745
275.742
275.749
275.748
275.737
275.724
275.705
275.683
275.668
275.656
275.645
275.636
275.636
275.643
275.638
275.626
275.612
275.594
275.577
275.564
275.553
275.543
275.538
275.544
275.542
275.531
275.518
275.501
275.485
275.473
275.461
275.45
275.442
275.434
275.424
275.412
275.401
275.389
275.378
275.37
275.371
275.369
275.358
275.345
275.329
275.314
275.302
275.291
275.281
275.278
275.28
275.271
275.259
275.244
275.227
275.214
275.203
275.193
275.187
275.189
275.183
275.172
275.158
275.14
275.126
275.114
275.103
275.094
275.093
275.095
275.086
275.074
275.059
275.043
275.031
275.02
275.011
275.008
275.014
275.009
274.997
274.984
274.963
274.94
274.925
274.913
274.901
274.89
274.878
274.868
274.862
274.867
274.877
274.871
274.86
274.846
274.827
274.805
274.791
274.779
274.768
274.759
274.757
274.763
274.759
274.747
274.734
274.716
274.697
274.685
274.673
274.663
274.655
274.658
274.658
274.648
274.635
274.62
274.605
274.593
274.581
274.572
274.57
274.574
274.567
274.555
274.541
274.519
274.497
274.483
274.471
274.46
274.448
274.437
274.428
274.424
274.433
274.441
274.434
274.422
274.408
274.387
274.363
274.349
274.337
274.326
274.316
274.313
274.322
274.325
274.316
274.304
274.288
274.267
274.248
274.236
274.224
274.213
274.204
274.202
274.202
274.193
274.181
274.168
274.155
274.144
274.133
274.126
274.126
274.121
274.109
274.096
274.08
274.066
274.054
274.044
274.036
274.036
274.032
274.021
274.007
273.987
273.965
273.951
273.939
273.929
273.921
273.926
273.943
273.943
273.932
273.919
273.902
273.875
273.851
273.837
273.826
273.815
273.806
273.803
273.813
273.817
273.808
273.796
273.781
273.759
273.739
273.726
273.715
273.704
273.695
273.694
273.7
273.694
273.683
273.67
273.653
273.639
273.627
273.616
273.607
273.607
273.611
273.604
273.592
273.578
273.557
273.534
273.52
273.508
273.497
273.486
273.474
273.463
273.453
273.446
273.451
273.466
273.464
273.453
273.44
273.423
273.395
273.373
273.36
273.349
273.338
273.329
273.33
273.345
273.35
273.341
273.329
273.314
273.292
273.268
273.253
273.242
273.23
273.219
273.207
273.196
273.185
273.173
273.163
273.155
273.156
273.168
273.166
273.156
273.143
273.127
273.104
273.086
273.074
273.062
273.052
273.043
273.044
273.052
273.047
273.035
273.022
273.004
272.983
272.97
272.958
272.947
272.938
272.937
272.943
272.939
272.927
272.914
272.897
272.878
272.865
272.854
272.842
272.831
272.821
272.812
272.803
272.793
272.783
272.774
272.771
272.775
272.768
272.756
272.743
272.725
272.708
272.696
272.685
272.675
272.67
272.675
272.675
272.665
272.653
272.637
272.614
272.596
272.584
272.572
272.562
272.554
272.555
272.562
272.557
272.545
272.533
272.518
272.505
272.494
272.482
272.472
272.463
272.453
272.441
272.43
272.419
272.407
272.397
272.388
272.387
272.387
272.377
272.365
272.35
272.332
272.317
272.305
272.295
272.285
272.281
272.282
272.274
272.262
272.248
272.231
272.218
272.206
272.196
272.189
272.193
272.198
272.19
272.178
272.164
272.143
272.121
272.107
272.096
272.085
272.076
272.075
272.084
272.083
272.072
272.059
272.043
272.022
272.007
271.996
271.985
271.975
271.97
271.976
271.977
271.967
271.955
271.94
271.919
271.9
271.887
271.876
271.865
271.853
271.842
271.831
271.82
271.812
271.811
271.823
271.825
271.815
271.803
271.788
271.766
271.744
271.73
271.719
271.708
271.698
271.692
271.696
271.694
271.683
271.671
271.655
271.638
271.625
271.614
271.604
271.598
271.602
271.607
271.598
271.586
271.572
271.55
271.527
271.513
271.501
271.491
271.481
271.479
271.49
271.491
271.482
271.469
271.454
271.431
271.41
271.397
271.386
271.375
271.366
271.364
271.374
271.372
271.362
271.35
271.334
271.311
271.294
271.282
271.27
271.26
271.252
271.252
271.259
271.252
271.241
271.227
271.209
271.191
271.178
271.167
271.156
271.147
271.145
271.148
271.142
271.13
271.117
271.102
271.089
271.078
271.067
271.058
271.056
271.059
271.051
271.039
271.026
271.009
270.993
270.981
270.969
270.958
270.946
270.933
270.921
270.91
270.898
270.887
270.877
270.87
270.873
270.882
270.877
270.866
270.853
270.837
270.815
270.8
270.789
270.777
270.767
270.759
270.76
270.76
270.751
270.739
270.725
270.708
270.695
270.683
270.673
270.663
270.66
270.666
270.662
270.651
270.639
270.625
270.611
270.599
270.587
270.576
270.564
270.551
270.535
270.517
270.505
270.493
270.482
270.473
270.468
270.476
270.488
270.482
270.471
270.458
270.44
270.414
270.395
270.383
270.372
270.361
270.352
270.351
270.361
270.359
270.349
270.337
270.321
270.299
270.281
270.269
270.257
270.247
270.238
270.237
270.243
270.238
270.226
270.214
270.197
270.177
270.164
270.153
270.141
270.131
270.125
270.127
270.123
270.112
270.099
270.086
270.074
270.063
270.053
270.045
270.038
270.028
270.017
270.004
269.99
269.977
269.965
269.955
269.946
269.946
269.952
269.946
269.935
269.922
269.904
269.88
269.865
269.853
269.842
269.833
269.827
269.833
269.838
269.83
269.818
269.805
269.785
269.763
269.75
269.739
269.728
269.718
269.713
269.719
269.72
269.71
269.698
269.684
269.664
269.648
269.636
269.625
269.614
269.606
269.605
269.608
269.6
269.589
269.576
269.559
269.544
269.532
269.521
269.511
269.503
269.504
269.5
269.49
269.478
269.464
269.45
269.438
269.427
269.417
269.411
269.41
269.402
269.391
269.379
269.364
269.351
269.34
269.329
269.32
269.316
269.317
269.308
269.297
269.284
269.27
269.258
269.247
269.236
269.227
269.221
269.216
269.206
269.195
269.184
269.172
269.161
269.15
269.138
269.126
269.112
269.099
269.087
269.076
269.066
269.058
269.059
269.071
269.071
269.061
269.049
269.034
269.012
268.99
268.976
268.965
268.954
268.944
268.937
268.939
268.956
268.958
268.949
268.937
268.924
268.905
268.873
268.847
268.833
268.822
268.811
268.8
268.789
268.778
268.767
268.757
268.749
268.751
268.769
268.775
268.767
268.755
268.742
268.723
268.694
268.675
268.663
268.652
268.641
268.632
268.627
268.634
268.64
268.632
268.621
268.608
268.59
268.566
268.552
268.54
268.529
268.519
268.511
268.511
268.518
268.511
268.5
268.488
268.472
268.452
268.439
268.428
268.417
268.407
268.401
268.405
268.406
268.396
268.385
268.371
268.357
268.345
268.334
268.324
268.316
268.315
268.308
268.297
268.284
268.268
268.242
268.222
268.209
268.198
268.187
268.177
268.169
268.168
268.185
268.196
268.189
268.178
268.165
268.148
268.121
268.097
268.083
268.072
268.061
268.052
268.044
268.048
268.061
268.059
268.049
268.037
268.023
268
267.977
267.964
267.952
267.941
267.931
267.922
267.918
267.922
267.917
267.906
267.894
267.881
267.869
267.858
267.847
267.839
267.838
267.846
267.842
267.831
267.819
267.803
267.775
267.747
267.733
267.721
267.71
267.699
267.688
267.678
267.667
267.659
267.657
267.671
267.682
267.676
267.665
267.653
267.636
267.61
267.586
267.573
267.562
267.551
267.541
267.534
267.536
267.547
267.544
267.533
267.521
267.506
267.484
267.464
267.452
267.441
267.43
267.421
267.414
267.419
267.422
267.413
267.402
267.389
267.371
267.352
267.34
267.328
267.318
267.308
267.301
267.304
267.304
267.295
267.283
267.271
267.255
267.242
267.231
267.22
267.21
267.202
267.198
267.19
267.18
267.169
267.157
267.146
267.135
267.125
267.114
267.105
267.095
267.085
267.074
267.063
267.052
267.042
267.034
267.032
267.027
267.017
267.005
266.993
266.981
266.97
266.959
266.949
266.942
266.944
266.944
266.934
266.923
266.912
266.899
266.884
266.869
266.854
266.84
266.826
266.814
266.803
266.793
266.782
266.771
266.762
266.755
266.76
266.769
266.764
266.753
266.741
266.726
266.704
266.686
266.674
266.663
266.653
266.643
266.637
266.64
266.64
266.63
266.619
266.606
266.588
266.572
266.56
266.549
266.539
266.53
266.526
266.529
266.522
266.512
266.5
266.485
266.47
266.458
266.447
266.437
266.428
266.425
266.432
266.43
266.419
266.408
266.395
266.375
266.354
266.341
266.33
266.319
266.308
266.297
266.287
266.276
266.265
266.255
266.245
266.238
266.242
266.249
266.242
266.231
266.219
266.204
266.182
266.166
266.155
266.144
266.134
266.124
266.12
266.125
266.122
266.112
266.1
266.087
266.068
266.054
266.042
266.032
266.021
266.013
266.01
266.012
266.004
265.993
265.981
265.967
265.952
265.941
265.93
265.92
265.911
265.907
265.904
265.894
265.883
265.871
265.859
265.848
265.837
265.827
265.819
265.817
265.811
265.801
265.79
265.777
265.762
265.748
265.737
265.726
265.716
265.705
265.694
265.684
265.674
265.668
265.669
265.666
265.655
265.644
265.632
265.617
265.605
265.594
265.583
265.573
265.563
265.555
265.555
265.554
265.545
265.534
265.523
265.512
265.501
265.492
265.483
265.473
265.462
265.451
265.438
265.419
265.397
265.384
265.373
265.362
265.351
265.342
265.334
265.337
265.355
265.357
265.348
265.337
265.325
265.307
265.28
265.26
265.248
265.237
265.226
265.217
265.209
265.211
265.22
265.215
265.205
265.193
265.179
265.159
265.142
265.13
265.119
265.109
265.1
265.096
265.103
265.102
265.092
265.081
265.068
265.048
265.022
265.006
264.995
264.984
264.974
264.965
264.96
264.968
264.977
264.971
264.96
264.949
264.935
264.914
264.896
264.884
264.874
264.863
264.852
264.842
264.831
264.82
264.81
264.8
264.792
264.794
264.797
264.789
264.778
264.766
264.751
264.732
264.719
264.708
264.698
264.688
264.679
264.679
264.682
264.674
264.664
264.652
264.636
264.619
264.607
264.596
264.586
264.577
264.572
264.58
264.586
264.579
264.568
264.556
264.54
264.512
264.481
264.465
264.454
264.443
264.432
264.422
264.411
264.401
264.391
264.384
264.388
264.405
264.408
264.399
264.388
264.375
264.359
264.333
264.315
264.303
264.293
264.282
264.273
264.267
264.274
264.286
264.282
264.271
264.26
264.246
264.224
264.19
264.171
264.158
264.148
264.137
264.126
264.116
264.106
264.098
264.097
264.112
264.119
264.111
264.1
264.089
264.074
264.051
264.029
264.017
264.006
263.995
263.985
263.976
263.972
263.978
263.976
263.967
263.955
263.943
263.925
263.907
263.895
263.885
263.874
263.864
263.857
263.857
263.858
263.849
263.838
263.826
263.811
263.794
263.782
263.771
263.761
263.751
263.744
263.744
263.742
263.732
263.722
263.71
263.695
263.682
263.671
263.661
263.651
263.643
263.642
263.642
263.634
263.623
263.611
263.596
263.577
263.564
263.553
263.542
263.531
263.521
263.51
263.5
263.489
263.479
263.471
263.468
263.474
263.47
263.46
263.449
263.436
263.419
263.402
263.39
263.379
263.369
263.359
263.352
263.353
263.351
263.341
263.33
263.318
263.301
263.284
263.272
263.262
263.251
263.242
263.237
263.243
263.242
263.233
263.222
263.209
263.191
263.165
263.148
263.137
263.126
263.116
263.107
263.104
263.114
263.124
263.118
263.108
263.096
263.083
263.061
263.036
263.022
263.011
263.001
262.991
262.981
262.975
262.977
262.979
262.97
262.96
262.948
262.934
262.918
262.906
262.895
262.885
262.875
262.869
262.87
262.869
262.859
262.848
262.836
262.819
262.797
262.784
262.773
262.762
262.752
262.742
262.736
262.739
262.737
262.728
262.717
262.705
262.693
262.681
262.671
262.661
262.651
262.645
262.643
262.634
262.624
262.612
262.599
262.584
262.571
262.561
262.55
262.541
262.533
262.532
262.528
262.517
262.507
262.494
262.477
262.463
262.452
262.442
262.432
262.425
262.426
262.44
262.44
262.43
262.42
262.407
262.39
262.357
262.322
262.306
262.294
262.284
262.273
262.263
262.253
262.244
262.241
262.253
262.274
262.273
262.264
262.253
262.241
262.225
262.198
262.172
262.159
262.148
262.137
262.127
262.118
262.112
262.118
262.126
262.12
262.11
262.099
262.085
262.066
262.045
262.032
262.021
262.011
262.001
261.992
261.987
261.991
261.988
261.979
261.968
261.956
261.94
261.922
261.91
261.9
261.889
261.879
261.871
261.869
261.871
261.863
261.853
261.841
261.828
261.812
261.799
261.788
261.778
261.768
261.759
261.754
261.753
261.745
261.734
261.723
261.711
261.699
261.689
261.678
261.668
261.659
261.654
261.649
261.639
261.629
261.618
261.606
261.592
261.581
261.57
261.56
261.549
261.539
261.53
261.525
261.526
261.521
261.511
261.501
261.489
261.476
261.463
261.453
261.442
261.432
261.421
261.411
261.4
261.388
261.374
261.361
261.35
261.34
261.33
261.32
261.311
261.306
261.313
261.325
261.32
261.31
261.299
261.288
261.271
261.247
261.228
261.217
261.206
261.195
261.185
261.175
261.164
261.154
261.144
261.133
261.123
261.113
261.106
261.105
261.113
261.109
261.099
261.088
261.076
261.06
261.037
261.021
261.01
260.999
260.989
260.979
260.969
260.96
260.957
260.966
260.968
260.96
260.949
260.938
260.926
260.909
260.894
260.883
260.872
260.862
260.852
260.841
260.83
260.817
260.8
260.786
260.775
260.764
260.754
260.744
260.735
260.731
260.74
260.749
260.743
260.733
260.722
260.71
260.691
260.666
260.65
260.639
260.629
260.619
260.609
260.602
260.603
260.609
260.603
260.593
260.582
260.57
260.553
260.533
260.521
260.51
260.5
260.49
260.481
260.476
260.478
260.474
260.464
260.454
260.442
260.427
260.411
260.4
260.389
260.379
260.369
260.361
260.358
260.356
260.347
260.336
260.325
260.313
260.299
260.288
260.277
260.267
260.257
260.25
260.247
260.241
260.231
260.221
260.21
260.197
260.185
260.175
260.164
260.154
260.145
260.139
260.134
260.125
260.114
260.104
260.093
260.082
260.072
260.062
260.052
260.042
260.037
260.038
260.032
260.023
260.012
260.002
259.991
259.978
259.967
259.956
259.945
259.935
259.922
259.906
259.883
259.867
259.856
259.845
259.835
259.825
259.817
259.813
259.824
259.839
259.835
259.826
259.815
259.804
259.788
259.763
259.739
259.726
259.715
259.705
259.695
259.686
259.68
259.683
259.688
259.681
259.671
259.661
259.648
259.631
259.612
259.6
259.59
259.579
259.57
259.561
259.555
259.559
259.558
259.549
259.539
259.528
259.515
259.499
259.486
259.475
259.465
259.454
259.444
259.434
259.423
259.412
259.401
259.39
259.38
259.37
259.36
259.35
259.341
259.337
259.342
259.338
259.329
259.318
259.307
259.293
259.273
259.259
259.248
259.238
259.228
259.219
259.211
259.211
259.217
259.212
259.202
259.192
259.181
259.169
259.153
259.132
259.119
259.108
259.098
259.088
259.077
259.067
259.057
259.047
259.037
259.027
259.017
259.008
259.003
259.008
259.011
259.003
258.993
258.982
258.97
258.953
258.932
258.918
258.908
258.898
258.887
258.878
258.869
258.863
258.865
258.859
258.85
258.839
258.829
258.817
258.805
258.795
258.784
258.774
258.764
258.753
258.743
258.732
258.722
258.712
258.701
258.691
258.682
258.674
258.671
258.668
258.658
258.648
258.638
258.625
258.609
258.596
258.585
258.575
258.565
258.556
258.549
258.552
258.553
258.544
258.534
258.523
258.511
258.492
258.474
258.463
258.452
258.442
258.432
258.424
258.419
258.421
258.417
258.407
258.397
258.386
258.372
258.356
258.345
258.334
258.324
258.314
258.305
258.3
258.301
258.295
258.285
258.275
258.264
258.251
258.233
258.219
258.208
258.198
258.188
258.178
258.168
258.159
258.152
258.152
258.151
258.142
258.132
258.121
258.109
258.094
258.081
258.071
258.061
258.051
258.041
258.034
258.032
258.025
258.015
258.005
257.994
257.98
257.963
257.949
257.939
257.929
257.919
257.91
257.905
257.909
257.909
257.901
257.89
257.88
257.867
257.849
257.831
257.819
257.809
257.799
257.789
257.781
257.775
257.779
257.775
257.766
257.756
257.745
257.732
257.716
257.702
257.691
257.681
257.671
257.662
257.653
257.65
257.65
257.641
257.631
257.621
257.611
257.599
257.587
257.576
257.566
257.556
257.546
257.535
257.525
257.513
257.5
257.488
257.478
257.468
257.458
257.448
257.439
257.434
257.438
257.436
257.427
257.417
257.407
257.395
257.378
257.361
257.349
257.339
257.329
257.319
257.31
257.303
257.303
257.299
257.289
257.279
257.268
257.257
257.244
257.234
257.223
257.213
257.204
257.195
257.192
257.192
257.184
257.174
257.164
257.153
257.139
257.119
257.102
257.09
257.08
257.07
257.06
257.05
257.04
257.03
257.02
257.011
257.005
257.007
257.011
257.004
256.994
256.984
256.973
256.959
256.943
256.93
256.92
256.91
256.9
256.891
256.883
256.881
256.876
256.866
256.856
256.845
256.832
256.814
256.796
256.785
256.775
256.765
256.755
256.746
256.741
256.747
256.748
256.74
256.73
256.72
256.708
256.693
256.675
256.662
256.652
256.642
256.632
256.623
256.614
256.611
256.609
256.6
256.59
256.58
256.569
256.559
256.548
256.538
256.529
256.52
256.514
256.516
256.514
256.506
256.496
256.485
256.473
256.455
256.424
256.4
256.387
256.377
256.367
256.357
256.347
256.337
256.328
256.32
256.318
256.332
256.34
256.334
256.324
256.314
256.303
256.29
256.269
256.245
256.232
256.222
256.212
256.202
256.192
256.185
256.183
256.188
256.182
256.172
256.162
256.151
256.139
256.121
256.106
256.095
256.085
256.075
256.065
256.056
256.052
256.052
256.045
256.035
256.025
256.014
256.002
255.986
255.974
255.964
255.954
255.944
255.935
255.927
255.925
255.92
255.911
255.901
255.891
255.88
255.87
255.859
255.849
255.84
255.831
255.824
255.824
255.82
255.811
255.801
255.791
255.779
255.763
255.738
255.72
255.708
255.698
255.688
255.678
255.668
255.659
255.649
255.642
255.639
255.649
255.65
255.642
255.632
255.622
255.611
255.6
255.585
255.572
255.561
255.551
255.541
255.532
255.522
255.512
255.501
255.491
255.478
255.461
255.443
255.431
255.421
255.411
255.401
255.392
255.385
255.385
255.397
255.396
255.387
255.378
255.367
255.356
255.341
255.319
255.303
255.292
255.282
255.272
255.262
255.254
255.249
255.252
255.248
255.239
255.229
255.219
255.208
255.193
255.177
255.166
255.156
255.147
255.137
255.128
255.122
255.119
255.111
255.101
255.092
255.081
255.07
255.057
255.046
255.036
255.026
255.017
255.007
255
254.994
254.985
254.976
254.966
254.956
254.945
254.934
254.924
254.914
254.904
254.894
254.886
254.879
254.877
254.87
254.86
254.851
254.841
254.831
254.822
254.815
254.806
254.797
254.787
254.777
254.767
254.755
254.74
254.717
254.699
254.688
254.678
254.668
254.658
254.649
254.641
254.637
254.646
254.654
254.647
254.638
254.628
254.618
254.606
254.589
254.566
254.552
254.541
254.531
254.521
254.512
254.503
254.498
254.5
254.495
254.486
254.476
254.466
254.455
254.441
254.427
254.416
254.406
254.396
254.386