/*--------------------------------*- C++ -*----------------------------------*\
  =========                 |
  \\      /  F ield         | OpenFOAM: The Open Source CFD Toolbox
   \\    /   O peration     | Website:  https://openfoam.org
    \\  /    A nd           | Version:  9
     \\/     M anipulation  |
\*---------------------------------------------------------------------------*/
FoamFile
{
    format      ascii;
    class       surfaceScalarField;
    location    "0.019";
    object      phi;
}
// * * * * * * * * * * * * * * * * * * * * * * * * * * * * * * * * * * * * * //

dimensions      [1 0 -1 0 0 0 0];

internalField   nonuniform List<scalar> 
999
(
15.6285
17.3854
19.1433
20.9028
22.6632
24.4236
26.1845
27.9459
29.7071
31.468
33.2288
34.9895
36.7501
38.5104
40.2707
42.0308
43.7908
45.5505
47.3102
49.0696
50.8289
52.588
54.347
56.1057
57.8643
59.6226
61.3808
63.1387
64.8965
66.654
68.4113
70.1684
71.9252
73.6818
75.4382
77.1943
78.9502
80.7058
82.4611
84.2162
85.971
87.7255
89.4798
91.2337
92.9874
94.7407
96.4938
98.2465
99.9989
101.751
103.503
105.254
107.005
108.756
110.507
112.257
114.006
115.756
117.504
119.253
121.001
122.749
124.496
126.243
127.99
129.736
131.482
133.227
134.972
136.716
138.46
140.204
141.947
143.69
145.432
147.173
148.915
150.655
152.395
154.135
155.874
157.613
159.351
161.088
162.825
164.562
166.298
168.033
169.768
171.502
173.235
174.968
176.701
178.432
180.163
181.894
183.624
185.353
187.081
188.809
190.537
192.263
193.989
195.714
197.438
199.162
200.885
202.607
204.328
206.049
207.769
209.488
211.206
212.924
214.641
216.357
218.072
219.786
221.499
223.212
224.923
226.634
228.344
230.053
231.76
233.467
235.174
236.879
238.583
240.286
241.988
243.689
245.389
247.088
248.786
250.482
252.178
253.873
255.566
257.259
258.95
260.64
262.328
264.016
265.702
267.387
269.071
270.754
272.435
274.115
275.793
277.47
279.146
280.82
282.493
284.165
285.835
287.503
289.17
290.836
292.5
294.162
295.823
297.482
299.139
300.795
302.449
304.101
305.752
307.4
309.048
310.692
312.335
313.976
315.614
317.252
318.887
320.519
322.149
323.778
325.404
327.029
328.65
330.27
331.887
333.502
335.114
336.725
338.331
339.938
341.537
343.138
344.735
346.327
347.92
349.506
351.091
352.673
354.252
355.827
357.399
358.968
360.533
362.094
363.653
365.207
366.758
368.304
369.847
371.386
372.92
374.451
375.976
377.498
379.015
380.527
382.034
383.536
385.033
386.524
388.011
389.492
390.967
392.436
393.899
395.356
396.806
398.251
399.688
401.118
402.542
403.957
405.366
406.767
408.159
409.544
410.92
412.288
413.646
414.996
416.336
417.667
418.987
420.298
421.598
422.887
424.165
425.432
426.688
427.931
429.163
430.382
431.588
432.781
433.961
435.127
436.28
437.418
438.542
439.651
440.745
441.824
442.888
443.935
444.967
445.983
446.982
447.964
448.93
449.879
450.81
451.725
452.622
453.501
454.363
455.208
456.035
456.844
457.636
458.41
459.167
459.906
460.628
461.333
462.02
462.691
463.346
463.984
464.606
465.211
465.802
466.377
466.937
467.482
468.013
468.53
469.034
469.524
470.002
470.467
470.92
471.362
471.792
472.212
472.621
473.02
473.41
473.79
474.162
474.525
474.881
475.228
475.569
475.902
476.228
476.549
476.863
477.172
477.475
477.773
478.065
478.354
478.637
478.917
479.192
479.464
479.732
479.996
480.258
480.515
480.77
481.022
481.271
481.517
481.761
482.002
482.241
482.477
482.711
482.943
483.173
483.4
483.626
483.849
484.07
484.29
484.508
484.723
484.937
485.149
485.359
485.568
485.775
485.979
486.183
486.384
486.584
486.782
486.979
487.173
487.366
487.558
487.748
487.936
488.122
488.307
488.49
488.672
488.852
489.03
489.207
489.382
489.556
489.728
489.898
490.067
490.234
490.4
490.564
490.727
490.888
491.047
491.205
491.361
491.515
491.668
491.82
491.97
492.118
492.265
492.41
492.554
492.696
492.837
492.976
493.113
493.249
493.384
493.516
493.648
493.778
493.906
494.032
494.158
494.281
494.403
494.524
494.643
494.76
494.876
494.991
495.104
495.215
495.325
495.433
495.54
495.645
495.749
495.851
495.952
496.051
496.148
496.244
496.339
496.432
496.523
496.613
496.702
496.789
496.874
496.958
497.04
497.121
497.2
497.278
497.354
497.429
497.502
497.574
497.644
497.712
497.779
497.845
497.909
497.971
498.032
498.092
498.15
498.206
498.261
498.314
498.366
498.416
498.465
498.513
498.558
498.603
498.646
498.687
498.727
498.766
498.803
498.839
498.873
498.906
498.937
498.967
498.996
499.024
499.05
499.075
499.098
499.121
499.142
499.162
499.181
499.199
499.215
499.231
499.246
499.259
499.272
499.284
499.295
499.305
499.314
499.323
499.33
499.338
499.344
499.35
499.355
499.36
499.365
499.368
499.372
499.375
499.378
499.38
499.382
499.384
499.386
499.387
499.388
499.389
499.39
499.39
499.391
499.391
499.392
499.392
499.392
499.392
499.392
499.392
499.392
499.392
499.392
499.392
499.392
499.392
499.391
499.391
499.391
499.391
499.391
499.39
499.39
499.39
499.39
499.389
499.389
499.389
499.389
499.388
499.388
499.388
499.387
499.387
499.387
499.387
499.386
499.386
499.386
499.385
499.385
499.385
499.385
499.384
499.384
499.384
499.383
499.383
499.383
499.382
499.382
499.382
499.382
499.381
499.381
499.381
499.38
499.38
499.38
499.379
499.379
499.379
499.378
499.378
499.378
499.377
499.377
499.377
499.376
499.376
499.375
499.375
499.375
499.374
499.374
499.374
499.373
499.373
499.373
499.372
499.372
499.371
499.371
499.371
499.37
499.37
499.37
499.369
499.369
499.368
499.368
499.368
499.367
499.367
499.367
499.366
499.366
499.365
499.365
499.365
499.364
499.364
499.363
499.363
499.363
499.362
499.362
499.361
499.361
499.361
499.36
499.36
499.359
499.359
499.359
499.358
499.358
499.357
499.357
499.356
499.356
499.356
499.355
499.355
499.354
499.354
499.353
499.353
499.353
499.352
499.352
499.351
499.351
499.35
499.35
499.349
499.349
499.348
499.348
499.347
499.347
499.347
499.346
499.346
499.345
499.345
499.344
499.344
499.343
499.343
499.342
499.342
499.341
499.341
499.34
499.34
499.339
499.339
499.338
499.338
499.337
499.337
499.336
499.336
499.335
499.334
499.334
499.333
499.333
499.332
499.332
499.331
499.331
499.33
499.33
499.329
499.328
499.328
499.327
499.327
499.326
499.326
499.325
499.324
499.324
499.323
499.323
499.322
499.321
499.321
499.32
499.32
499.319
499.318
499.318
499.317
499.316
499.316
499.315
499.315
499.314
499.313
499.313
499.312
499.311
499.311
499.31
499.309
499.309
499.308
499.307
499.307
499.306
499.305
499.304
499.304
499.303
499.302
499.302
499.301
499.3
499.299
499.299
499.298
499.297
499.297
499.296
499.295
499.294
499.294
499.293
499.292
499.291
499.29
499.29
499.289
499.288
499.287
499.286
499.286
499.285
499.284
499.283
499.282
499.282
499.281
499.28
499.279
499.278
499.277
499.276
499.276
499.275
499.274
499.273
499.272
499.271
499.27
499.269
499.268
499.267
499.266
499.265
499.265
499.264
499.263
499.262
499.261
499.26
499.259
499.258
499.257
499.256
499.255
499.254
499.253
499.252
499.251
499.249
499.248
499.247
499.246
499.245
499.244
499.243
499.242
499.241
499.24
499.239
499.237
499.236
499.235
499.234
499.233
499.232
499.23
499.229
499.228
499.227
499.225
499.224
499.223
499.222
499.22
499.219
499.218
499.217
499.215
499.214
499.213
499.211
499.21
499.209
499.207
499.206
499.204
499.203
499.202
499.2
499.199
499.197
499.196
499.194
499.193
499.191
499.19
499.188
499.187
499.185
499.183
499.182
499.18
499.179
499.177
499.175
499.174
499.172
499.17
499.169
499.167
499.165
499.163
499.162
499.16
499.158
499.156
499.154
499.152
499.151
499.149
499.147
499.145
499.143
499.141
499.139
499.137
499.135
499.133
499.131
499.129
499.126
499.124
499.122
499.12
499.118
499.115
499.113
499.111
499.109
499.106
499.104
499.101
499.099
499.097
499.094
499.092
499.089
499.087
499.084
499.081
499.079
499.076
499.073
499.07
499.067
499.064
499.061
499.058
499.055
499.052
499.048
499.045
499.041
499.037
499.033
499.029
499.024
499.019
499.014
499.008
499.003
498.996
498.99
498.983
498.975
498.967
498.959
498.95
498.94
498.93
498.92
498.909
498.898
498.886
498.874
498.861
498.848
498.835
498.822
498.808
498.795
498.782
498.768
498.755
498.742
498.729
498.718
498.705
498.694
498.683
498.673
498.662
498.653
498.643
498.634
498.625
498.616
498.609
498.601
498.593
498.585
498.578
498.57
498.562
498.555
498.548
498.54
498.533
498.524
498.516
498.508
498.5
498.491
498.483
498.474
498.465
498.455
498.446
498.437
498.427
498.417
498.407
498.397
498.387
498.376
498.365
498.354
498.343
498.331
498.318
498.305
498.291
498.277
498.262
498.248
498.234
498.22
498.206
498.191
498.177
498.161
498.147
498.129
498.112
498.095
498.076
498.056
498.036
498.016
497.994
497.971
497.948
497.924
497.899
)
;

boundaryField
{
    sides
    {
        type            calculated;
        value           nonuniform List<scalar> 2(497.871 -13.8701);
    }
    empty
    {
        type            empty;
        value           nonuniform List<scalar> 0();
    }
}


// ************************************************************************* //
