/*--------------------------------*- C++ -*----------------------------------*\
  =========                 |
  \\      /  F ield         | OpenFOAM: The Open Source CFD Toolbox
   \\    /   O peration     | Website:  https://openfoam.org
    \\  /    A nd           | Version:  9
     \\/     M anipulation  |
\*---------------------------------------------------------------------------*/
FoamFile
{
    format      ascii;
    class       surfaceScalarField;
    location    "0.014";
    object      phi;
}
// * * * * * * * * * * * * * * * * * * * * * * * * * * * * * * * * * * * * * //

dimensions      [1 0 -1 0 0 0 0];

internalField   nonuniform List<scalar> 
999
(
10.2539
13.7583
17.2599
20.7567
24.2476
27.7316
31.2073
34.6735
38.1289
41.5724
45.0026
48.4182
51.8179
55.2005
58.5644
61.9085
65.2312
68.5313
71.8073
75.0579
78.2816
81.477
84.6429
87.7777
90.8802
93.9492
96.9832
99.9811
102.942
105.864
108.747
111.59
114.392
117.152
119.87
122.545
125.177
127.766
130.311
132.813
135.273
137.69
140.065
142.399
144.692
146.946
149.162
151.34
153.483
155.591
157.667
159.711
161.724
163.71
165.668
167.601
169.51
171.397
173.262
175.109
176.936
178.747
180.542
182.322
184.089
185.842
187.584
189.315
191.035
192.745
194.447
196.139
197.824
199.5
201.17
202.832
204.487
206.136
207.778
209.414
211.044
212.668
214.286
215.899
217.505
219.106
220.702
222.292
223.876
225.455
227.028
228.597
230.159
231.716
233.268
234.815
236.356
237.891
239.422
240.946
242.466
243.98
245.489
246.992
248.49
249.983
251.47
252.952
254.429
255.9
257.366
258.826
260.281
261.731
263.176
264.615
266.049
267.477
268.9
270.318
271.73
273.138
274.539
275.936
277.327
278.713
280.094
281.469
282.839
284.204
285.564
286.918
288.267
289.611
290.949
292.283
293.611
294.933
296.251
297.563
298.871
300.173
301.469
302.761
304.047
305.329
306.605
307.876
309.141
310.402
311.658
312.908
314.153
315.393
316.628
317.858
319.083
320.303
321.518
322.727
323.932
325.132
326.326
327.516
328.7
329.88
331.054
332.223
333.388
334.547
335.702
336.851
337.996
339.136
340.271
341.4
342.525
343.645
344.76
345.87
346.976
348.076
349.172
350.263
351.348
352.429
353.506
354.577
355.644
356.705
357.762
358.815
359.862
360.905
361.943
362.976
364.004
365.028
366.047
367.061
368.071
369.076
370.076
371.072
372.062
373.049
374.03
375.007
375.98
376.947
377.91
378.869
379.823
380.772
381.717
382.657
383.593
384.524
385.451
386.373
387.29
388.203
389.112
390.016
390.916
391.811
392.702
393.588
394.47
395.347
396.22
397.089
397.953
398.813
399.668
400.519
401.366
402.208
403.046
403.88
404.709
405.534
406.355
407.171
407.984
408.791
409.595
410.394
411.19
411.98
412.767
413.549
414.328
415.101
415.873
416.635
417.4
418.154
418.911
419.655
420.405
421.141
421.882
422.612
423.341
424.067
424.783
425.505
426.209
426.926
427.622
428.329
429.02
429.714
430.402
431.084
431.767
432.441
433.114
433.782
434.445
435.106
435.762
436.414
437.063
437.707
438.348
438.984
439.617
440.246
440.871
441.493
442.11
442.723
443.333
443.939
444.541
445.14
445.734
446.325
446.912
447.495
448.075
448.65
449.222
449.791
450.355
450.916
451.473
452.027
452.576
453.123
453.665
454.204
454.739
455.27
455.798
456.322
456.843
457.36
457.874
458.383
458.89
459.392
459.892
460.387
460.879
461.368
461.853
462.334
462.812
463.287
463.758
464.225
464.689
465.15
465.607
466.06
466.511
466.957
467.401
467.841
468.277
468.71
469.14
469.566
469.989
470.409
470.825
471.238
471.647
472.054
472.457
472.856
473.252
473.645
474.035
474.421
474.804
475.184
475.561
475.934
476.304
476.671
477.034
477.395
477.752
478.106
478.457
478.804
479.148
479.49
479.828
480.162
480.494
480.823
481.148
481.47
481.789
482.105
482.418
482.728
483.035
483.338
483.639
483.936
484.231
484.522
484.81
485.095
485.378
485.657
485.933
486.206
486.476
486.743
487.007
487.268
487.526
487.781
488.033
488.282
488.529
488.772
489.012
489.249
489.484
489.715
489.944
490.169
490.392
490.612
490.828
491.042
491.253
491.462
491.667
491.869
492.069
492.265
492.459
492.65
492.838
493.023
493.206
493.385
493.562
493.736
493.907
494.075
494.24
494.403
494.562
494.719
494.873
495.024
495.173
495.319
495.461
495.601
495.739
495.873
496.005
496.134
496.26
496.383
496.504
496.621
496.736
496.849
496.958
497.065
497.169
497.27
497.369
497.464
497.557
497.648
497.735
497.82
497.902
497.982
498.058
498.133
498.204
498.273
498.339
498.403
498.464
498.522
498.578
498.632
498.683
498.731
498.777
498.821
498.863
498.902
498.939
498.974
499.006
499.037
499.065
499.092
499.117
499.14
499.161
499.18
499.198
499.214
499.229
499.243
499.255
499.266
499.276
499.284
499.292
499.299
499.305
499.31
499.315
499.319
499.322
499.325
499.327
499.329
499.331
499.332
499.333
499.334
499.335
499.335
499.335
499.336
499.335
499.335
499.335
499.335
499.335
499.334
499.334
499.334
499.333
499.333
499.332
499.332
499.331
499.331
499.33
499.33
499.329
499.329
499.328
499.327
499.327
499.326
499.326
499.325
499.325
499.324
499.324
499.323
499.323
499.322
499.321
499.321
499.32
499.32
499.319
499.318
499.318
499.317
499.317
499.316
499.315
499.315
499.314
499.314
499.313
499.312
499.312
499.311
499.31
499.31
499.309
499.308
499.308
499.307
499.306
499.306
499.305
499.304
499.304
499.303
499.302
499.302
499.301
499.3
499.299
499.299
499.298
499.297
499.297
499.296
499.295
499.294
499.293
499.293
499.292
499.291
499.29
499.29
499.289
499.288
499.287
499.286
499.286
499.285
499.284
499.283
499.282
499.281
499.281
499.28
499.279
499.278
499.277
499.276
499.275
499.275
499.274
499.273
499.272
499.271
499.27
499.269
499.268
499.267
499.266
499.265
499.265
499.264
499.263
499.262
499.261
499.26
499.259
499.258
499.257
499.256
499.255
499.254
499.253
499.252
499.251
499.25
499.249
499.248
499.246
499.245
499.244
499.243
499.242
499.241
499.24
499.239
499.238
499.237
499.235
499.234
499.233
499.232
499.231
499.23
499.228
499.227
499.226
499.225
499.223
499.222
499.221
499.22
499.218
499.217
499.216
499.214
499.213
499.212
499.21
499.209
499.208
499.206
499.205
499.204
499.202
499.201
499.199
499.198
499.196
499.195
499.194
499.192
499.191
499.189
499.187
499.186
499.184
499.183
499.181
499.18
499.178
499.176
499.175
499.173
499.171
499.17
499.168
499.166
499.165
499.163
499.161
499.159
499.157
499.156
499.154
499.152
499.15
499.148
499.146
499.144
499.142
499.14
499.138
499.136
499.134
499.132
499.13
499.128
499.126
499.124
499.122
499.119
499.117
499.115
499.113
499.111
499.108
499.106
499.104
499.101
499.099
499.096
499.094
499.091
499.089
499.086
499.084
499.081
499.079
499.076
499.073
499.071
499.068
499.065
499.062
499.059
499.057
499.054
499.051
499.048
499.045
499.042
499.039
499.035
499.032
499.029
499.026
499.022
499.019
499.016
499.012
499.009
499.005
499.002
498.998
498.994
498.991
498.987
498.983
498.979
498.975
498.971
498.967
498.963
498.959
498.955
498.951
498.946
498.942
498.937
498.933
498.928
498.923
498.919
498.914
498.909
498.904
498.899
498.894
498.888
498.883
498.878
498.872
498.866
498.861
498.855
498.849
498.843
498.837
498.831
498.824
498.818
498.811
498.805
498.798
498.791
498.784
498.777
498.769
498.762
498.754
498.746
498.738
498.73
498.722
498.713
498.704
498.696
498.686
498.677
498.668
498.658
498.648
498.638
498.627
498.617
498.606
498.595
498.583
498.572
498.559
498.547
498.534
498.521
498.508
498.494
498.48
498.465
498.45
498.435
498.419
498.403
498.386
498.368
498.35
498.332
498.313
498.293
498.272
498.251
498.229
498.206
498.183
498.158
498.132
498.106
498.078
498.049
498.019
497.988
497.955
497.92
497.884
497.846
497.805
497.763
497.718
497.67
497.62
497.567
497.511
497.454
497.394
497.332
497.268
497.199
497.124
497.04
496.942
496.822
496.671
496.476
496.222
495.89
495.458
494.9
494.188
493.29
492.176
490.811
489.162
487.197
484.886
482.205
479.132
475.652
471.759
467.452
462.74
457.639
452.176
446.383
440.3
433.976
427.461
420.81
414.082
407.332
400.619
393.997
387.516
381.223
375.157
369.353
363.84
358.638
353.764
349.226
345.029
341.17
337.644
334.441
331.549
328.951
326.631
324.569
322.748
321.146
319.745
318.525
317.468
316.555
315.771
315.1
314.527
314.04
313.627
313.277
312.981
312.73
312.518
312.339
312.186
312.056
311.944
311.849
311.766
311.694
311.631
311.576
311.528
311.486
311.449
311.417
311.388
311.363
311.342
311.323
311.307
311.294
311.283
311.273
311.265
311.259
311.254
311.25
311.246
311.244
311.242
311.24
311.239
311.238
311.237
311.236
311.236
311.236
311.235
311.235
311.235
311.235
311.234
311.234
311.234
311.234
311.234
311.234
311.234
311.233
311.233
311.233
311.233
311.233
311.233
311.233
311.233
311.232
311.232
311.232
311.232
)
;

boundaryField
{
    sides
    {
        type            calculated;
        value           nonuniform List<scalar> 2(311.232 -6.7491);
    }
    empty
    {
        type            empty;
        value           nonuniform List<scalar> 0();
    }
}


// ************************************************************************* //
