/*--------------------------------*- C++ -*----------------------------------*\
  =========                 |
  \\      /  F ield         | OpenFOAM: The Open Source CFD Toolbox
   \\    /   O peration     | Website:  https://openfoam.org
    \\  /    A nd           | Version:  9
     \\/     M anipulation  |
\*---------------------------------------------------------------------------*/
FoamFile
{
    format      ascii;
    class       volVectorField;
    location    "0.027";
    object      U;
}
// * * * * * * * * * * * * * * * * * * * * * * * * * * * * * * * * * * * * * //

dimensions      [0 1 -1 0 0 0 0];

internalField   nonuniform List<vector> 
100
(
(40.0648 0 0)
(44.9975 0 0)
(50.5038 0 0)
(54.6523 0 0)
(58.7857 0 0)
(63.0499 0 0)
(67.338 0 0)
(71.5993 0 0)
(75.8695 0 0)
(80.1301 0 0)
(84.3878 0 0)
(88.6611 0 0)
(92.9135 0 0)
(97.1829 0 0)
(101.442 0 0)
(105.69 0 0)
(109.96 0 0)
(114.212 0 0)
(118.441 0 0)
(122.692 0 0)
(126.949 0 0)
(131.168 0 0)
(135.371 0 0)
(139.594 0 0)
(143.821 0 0)
(148.013 0 0)
(152.172 0 0)
(156.339 0 0)
(160.514 0 0)
(164.658 0 0)
(168.761 0 0)
(172.85 0 0)
(176.934 0 0)
(180.999 0 0)
(185.022 0 0)
(188.998 0 0)
(192.95 0 0)
(196.875 0 0)
(200.759 0 0)
(204.584 0 0)
(208.332 0 0)
(212.005 0 0)
(215.621 0 0)
(219.213 0 0)
(222.799 0 0)
(226.36 0 0)
(229.863 0 0)
(233.259 0 0)
(236.476 0 0)
(239.53 0 0)
(242.502 0 0)
(245.386 0 0)
(248.152 0 0)
(250.811 0 0)
(253.377 0 0)
(255.84 0 0)
(258.194 0 0)
(260.439 0 0)
(262.578 0 0)
(264.631 0 0)
(266.611 0 0)
(268.514 0 0)
(270.336 0 0)
(272.087 0 0)
(273.779 0 0)
(275.426 0 0)
(277.032 0 0)
(278.584 0 0)
(280.065 0 0)
(281.466 0 0)
(282.787 0 0)
(284.03 0 0)
(285.191 0 0)
(286.26 0 0)
(287.226 0 0)
(288.08 0 0)
(288.819 0 0)
(289.446 0 0)
(289.966 0 0)
(290.385 0 0)
(290.716 0 0)
(290.967 0 0)
(291.147 0 0)
(291.273 0 0)
(291.357 0 0)
(291.41 0 0)
(291.442 0 0)
(291.462 0 0)
(291.479 0 0)
(291.495 0 0)
(291.506 0 0)
(291.518 0 0)
(291.524 0 0)
(291.523 0 0)
(291.522 0 0)
(291.524 0 0)
(291.527 0 0)
(291.532 0 0)
(291.538 0 0)
(291.544 0 0)
)
;

boundaryField
{
    sides
    {
        type            zeroGradient;
    }
    empty
    {
        type            empty;
    }
}


// ************************************************************************* //
