/*--------------------------------*- C++ -*----------------------------------*\
  =========                 |
  \\      /  F ield         | OpenFOAM: The Open Source CFD Toolbox
   \\    /   O peration     | Website:  https://openfoam.org
    \\  /    A nd           | Version:  9
     \\/     M anipulation  |
\*---------------------------------------------------------------------------*/
FoamFile
{
    format      ascii;
    class       volVectorField;
    location    "0.032";
    object      U;
}
// * * * * * * * * * * * * * * * * * * * * * * * * * * * * * * * * * * * * * //

dimensions      [0 1 -1 0 0 0 0];

internalField   nonuniform List<vector> 
10000
(
(2.19703 0 0)
(2.24758 0 0)
(2.30627 0 0)
(2.34324 0 0)
(2.38026 0 0)
(2.41908 0 0)
(2.45987 0 0)
(2.50157 0 0)
(2.54358 0 0)
(2.58453 0 0)
(2.62456 0 0)
(2.66476 0 0)
(2.70537 0 0)
(2.74631 0 0)
(2.78739 0 0)
(2.82843 0 0)
(2.86929 0 0)
(2.91016 0 0)
(2.95109 0 0)
(2.99208 0 0)
(3.03311 0 0)
(3.07417 0 0)
(3.11526 0 0)
(3.15638 0 0)
(3.19754 0 0)
(3.23872 0 0)
(3.27992 0 0)
(3.32117 0 0)
(3.36247 0 0)
(3.4038 0 0)
(3.44515 0 0)
(3.4865 0 0)
(3.52788 0 0)
(3.56928 0 0)
(3.61073 0 0)
(3.65221 0 0)
(3.69372 0 0)
(3.73524 0 0)
(3.77678 0 0)
(3.81836 0 0)
(3.85996 0 0)
(3.9016 0 0)
(3.94325 0 0)
(3.98493 0 0)
(4.02663 0 0)
(4.06835 0 0)
(4.11009 0 0)
(4.15186 0 0)
(4.19364 0 0)
(4.23544 0 0)
(4.27725 0 0)
(4.31907 0 0)
(4.36091 0 0)
(4.40275 0 0)
(4.44461 0 0)
(4.48647 0 0)
(4.52834 0 0)
(4.57021 0 0)
(4.61208 0 0)
(4.65395 0 0)
(4.69581 0 0)
(4.73768 0 0)
(4.77954 0 0)
(4.82139 0 0)
(4.86323 0 0)
(4.90506 0 0)
(4.94687 0 0)
(4.98868 0 0)
(5.03047 0 0)
(5.07224 0 0)
(5.11399 0 0)
(5.15572 0 0)
(5.19743 0 0)
(5.23912 0 0)
(5.28078 0 0)
(5.32242 0 0)
(5.36403 0 0)
(5.40562 0 0)
(5.44718 0 0)
(5.48871 0 0)
(5.53021 0 0)
(5.57168 0 0)
(5.61312 0 0)
(5.65454 0 0)
(5.69592 0 0)
(5.73727 0 0)
(5.77859 0 0)
(5.81987 0 0)
(5.86113 0 0)
(5.90236 0 0)
(5.94355 0 0)
(5.98472 0 0)
(6.02585 0 0)
(6.06696 0 0)
(6.10804 0 0)
(6.14908 0 0)
(6.19011 0 0)
(6.2311 0 0)
(6.27207 0 0)
(6.31301 0 0)
(6.35393 0 0)
(6.39483 0 0)
(6.4357 0 0)
(6.47656 0 0)
(6.51739 0 0)
(6.55821 0 0)
(6.59901 0 0)
(6.63979 0 0)
(6.68056 0 0)
(6.72132 0 0)
(6.76206 0 0)
(6.8028 0 0)
(6.84353 0 0)
(6.88425 0 0)
(6.92496 0 0)
(6.96568 0 0)
(7.00639 0 0)
(7.04709 0 0)
(7.0878 0 0)
(7.12852 0 0)
(7.16923 0 0)
(7.20996 0 0)
(7.25069 0 0)
(7.29142 0 0)
(7.33217 0 0)
(7.37293 0 0)
(7.41371 0 0)
(7.4545 0 0)
(7.4953 0 0)
(7.53612 0 0)
(7.57696 0 0)
(7.61782 0 0)
(7.65871 0 0)
(7.69961 0 0)
(7.74054 0 0)
(7.78149 0 0)
(7.82247 0 0)
(7.86347 0 0)
(7.9045 0 0)
(7.94556 0 0)
(7.98665 0 0)
(8.02777 0 0)
(8.06891 0 0)
(8.11009 0 0)
(8.1513 0 0)
(8.19254 0 0)
(8.23381 0 0)
(8.27512 0 0)
(8.31645 0 0)
(8.35782 0 0)
(8.39922 0 0)
(8.44065 0 0)
(8.48211 0 0)
(8.5236 0 0)
(8.56512 0 0)
(8.60667 0 0)
(8.64825 0 0)
(8.68985 0 0)
(8.73149 0 0)
(8.77314 0 0)
(8.81483 0 0)
(8.85653 0 0)
(8.89826 0 0)
(8.94001 0 0)
(8.98178 0 0)
(9.02357 0 0)
(9.06537 0 0)
(9.10719 0 0)
(9.14902 0 0)
(9.19087 0 0)
(9.23273 0 0)
(9.27459 0 0)
(9.31646 0 0)
(9.35834 0 0)
(9.40022 0 0)
(9.44211 0 0)
(9.48399 0 0)
(9.52587 0 0)
(9.56775 0 0)
(9.60962 0 0)
(9.65149 0 0)
(9.69335 0 0)
(9.7352 0 0)
(9.77704 0 0)
(9.81887 0 0)
(9.86068 0 0)
(9.90248 0 0)
(9.94426 0 0)
(9.98601 0 0)
(10.0278 0 0)
(10.0695 0 0)
(10.1112 0 0)
(10.1528 0 0)
(10.1945 0 0)
(10.2361 0 0)
(10.2777 0 0)
(10.3193 0 0)
(10.3608 0 0)
(10.4024 0 0)
(10.4438 0 0)
(10.4853 0 0)
(10.5267 0 0)
(10.5681 0 0)
(10.6095 0 0)
(10.6509 0 0)
(10.6922 0 0)
(10.7335 0 0)
(10.7747 0 0)
(10.8159 0 0)
(10.8571 0 0)
(10.8983 0 0)
(10.9395 0 0)
(10.9806 0 0)
(11.0217 0 0)
(11.0627 0 0)
(11.1038 0 0)
(11.1448 0 0)
(11.1858 0 0)
(11.2267 0 0)
(11.2677 0 0)
(11.3086 0 0)
(11.3495 0 0)
(11.3904 0 0)
(11.4312 0 0)
(11.4721 0 0)
(11.5129 0 0)
(11.5537 0 0)
(11.5945 0 0)
(11.6353 0 0)
(11.6761 0 0)
(11.7169 0 0)
(11.7577 0 0)
(11.7984 0 0)
(11.8392 0 0)
(11.8799 0 0)
(11.9207 0 0)
(11.9614 0 0)
(12.0022 0 0)
(12.0429 0 0)
(12.0837 0 0)
(12.1245 0 0)
(12.1652 0 0)
(12.206 0 0)
(12.2468 0 0)
(12.2876 0 0)
(12.3284 0 0)
(12.3692 0 0)
(12.4101 0 0)
(12.4509 0 0)
(12.4918 0 0)
(12.5327 0 0)
(12.5736 0 0)
(12.6145 0 0)
(12.6555 0 0)
(12.6964 0 0)
(12.7374 0 0)
(12.7785 0 0)
(12.8195 0 0)
(12.8606 0 0)
(12.9017 0 0)
(12.9428 0 0)
(12.9839 0 0)
(13.0251 0 0)
(13.0663 0 0)
(13.1076 0 0)
(13.1488 0 0)
(13.1901 0 0)
(13.2314 0 0)
(13.2728 0 0)
(13.3142 0 0)
(13.3556 0 0)
(13.397 0 0)
(13.4385 0 0)
(13.48 0 0)
(13.5215 0 0)
(13.563 0 0)
(13.6046 0 0)
(13.6462 0 0)
(13.6878 0 0)
(13.7295 0 0)
(13.7711 0 0)
(13.8128 0 0)
(13.8545 0 0)
(13.8963 0 0)
(13.938 0 0)
(13.9798 0 0)
(14.0215 0 0)
(14.0633 0 0)
(14.1051 0 0)
(14.1469 0 0)
(14.1888 0 0)
(14.2306 0 0)
(14.2724 0 0)
(14.3143 0 0)
(14.3561 0 0)
(14.398 0 0)
(14.4398 0 0)
(14.4817 0 0)
(14.5235 0 0)
(14.5653 0 0)
(14.6072 0 0)
(14.649 0 0)
(14.6908 0 0)
(14.7326 0 0)
(14.7744 0 0)
(14.8162 0 0)
(14.858 0 0)
(14.8997 0 0)
(14.9415 0 0)
(14.9832 0 0)
(15.0249 0 0)
(15.0666 0 0)
(15.1083 0 0)
(15.1499 0 0)
(15.1915 0 0)
(15.2331 0 0)
(15.2747 0 0)
(15.3163 0 0)
(15.3578 0 0)
(15.3993 0 0)
(15.4408 0 0)
(15.4823 0 0)
(15.5237 0 0)
(15.5651 0 0)
(15.6065 0 0)
(15.6479 0 0)
(15.6892 0 0)
(15.7305 0 0)
(15.7718 0 0)
(15.813 0 0)
(15.8543 0 0)
(15.8955 0 0)
(15.9366 0 0)
(15.9778 0 0)
(16.0189 0 0)
(16.06 0 0)
(16.1011 0 0)
(16.1422 0 0)
(16.1832 0 0)
(16.2243 0 0)
(16.2653 0 0)
(16.3063 0 0)
(16.3472 0 0)
(16.3882 0 0)
(16.4291 0 0)
(16.47 0 0)
(16.5109 0 0)
(16.5518 0 0)
(16.5927 0 0)
(16.6335 0 0)
(16.6744 0 0)
(16.7152 0 0)
(16.7561 0 0)
(16.7969 0 0)
(16.8377 0 0)
(16.8785 0 0)
(16.9193 0 0)
(16.9601 0 0)
(17.0009 0 0)
(17.0417 0 0)
(17.0825 0 0)
(17.1234 0 0)
(17.1642 0 0)
(17.205 0 0)
(17.2458 0 0)
(17.2866 0 0)
(17.3275 0 0)
(17.3683 0 0)
(17.4092 0 0)
(17.45 0 0)
(17.4909 0 0)
(17.5318 0 0)
(17.5727 0 0)
(17.6136 0 0)
(17.6546 0 0)
(17.6955 0 0)
(17.7365 0 0)
(17.7775 0 0)
(17.8185 0 0)
(17.8596 0 0)
(17.9006 0 0)
(17.9417 0 0)
(17.9828 0 0)
(18.024 0 0)
(18.0651 0 0)
(18.1063 0 0)
(18.1475 0 0)
(18.1888 0 0)
(18.23 0 0)
(18.2713 0 0)
(18.3126 0 0)
(18.354 0 0)
(18.3954 0 0)
(18.4368 0 0)
(18.4782 0 0)
(18.5197 0 0)
(18.5611 0 0)
(18.6027 0 0)
(18.6442 0 0)
(18.6857 0 0)
(18.7273 0 0)
(18.7689 0 0)
(18.8106 0 0)
(18.8522 0 0)
(18.8939 0 0)
(18.9356 0 0)
(18.9773 0 0)
(19.0191 0 0)
(19.0608 0 0)
(19.1026 0 0)
(19.1444 0 0)
(19.1862 0 0)
(19.228 0 0)
(19.2699 0 0)
(19.3117 0 0)
(19.3535 0 0)
(19.3954 0 0)
(19.4373 0 0)
(19.4791 0 0)
(19.521 0 0)
(19.5629 0 0)
(19.6048 0 0)
(19.6466 0 0)
(19.6885 0 0)
(19.7304 0 0)
(19.7723 0 0)
(19.8141 0 0)
(19.856 0 0)
(19.8978 0 0)
(19.9397 0 0)
(19.9815 0 0)
(20.0233 0 0)
(20.0651 0 0)
(20.1069 0 0)
(20.1487 0 0)
(20.1904 0 0)
(20.2322 0 0)
(20.2739 0 0)
(20.3156 0 0)
(20.3573 0 0)
(20.3989 0 0)
(20.4406 0 0)
(20.4822 0 0)
(20.5238 0 0)
(20.5654 0 0)
(20.6069 0 0)
(20.6484 0 0)
(20.6899 0 0)
(20.7314 0 0)
(20.7729 0 0)
(20.8143 0 0)
(20.8557 0 0)
(20.8971 0 0)
(20.9384 0 0)
(20.9797 0 0)
(21.021 0 0)
(21.0623 0 0)
(21.1035 0 0)
(21.1447 0 0)
(21.1859 0 0)
(21.227 0 0)
(21.2682 0 0)
(21.3093 0 0)
(21.3504 0 0)
(21.3914 0 0)
(21.4324 0 0)
(21.4734 0 0)
(21.5144 0 0)
(21.5554 0 0)
(21.5963 0 0)
(21.6372 0 0)
(21.6781 0 0)
(21.719 0 0)
(21.7598 0 0)
(21.8006 0 0)
(21.8414 0 0)
(21.8822 0 0)
(21.923 0 0)
(21.9638 0 0)
(22.0045 0 0)
(22.0453 0 0)
(22.086 0 0)
(22.1267 0 0)
(22.1674 0 0)
(22.2081 0 0)
(22.2488 0 0)
(22.2895 0 0)
(22.3302 0 0)
(22.3709 0 0)
(22.4116 0 0)
(22.4523 0 0)
(22.4929 0 0)
(22.5336 0 0)
(22.5743 0 0)
(22.615 0 0)
(22.6558 0 0)
(22.6965 0 0)
(22.7372 0 0)
(22.778 0 0)
(22.8188 0 0)
(22.8595 0 0)
(22.9003 0 0)
(22.9412 0 0)
(22.982 0 0)
(23.0229 0 0)
(23.0638 0 0)
(23.1047 0 0)
(23.1457 0 0)
(23.1866 0 0)
(23.2276 0 0)
(23.2687 0 0)
(23.3097 0 0)
(23.3508 0 0)
(23.392 0 0)
(23.4331 0 0)
(23.4744 0 0)
(23.5156 0 0)
(23.5569 0 0)
(23.5982 0 0)
(23.6395 0 0)
(23.6809 0 0)
(23.7223 0 0)
(23.7638 0 0)
(23.8053 0 0)
(23.8468 0 0)
(23.8884 0 0)
(23.93 0 0)
(23.9716 0 0)
(24.0133 0 0)
(24.055 0 0)
(24.0967 0 0)
(24.1385 0 0)
(24.1803 0 0)
(24.2221 0 0)
(24.264 0 0)
(24.3059 0 0)
(24.3478 0 0)
(24.3897 0 0)
(24.4317 0 0)
(24.4736 0 0)
(24.5156 0 0)
(24.5577 0 0)
(24.5997 0 0)
(24.6418 0 0)
(24.6838 0 0)
(24.7259 0 0)
(24.768 0 0)
(24.8101 0 0)
(24.8522 0 0)
(24.8943 0 0)
(24.9364 0 0)
(24.9785 0 0)
(25.0206 0 0)
(25.0627 0 0)
(25.1048 0 0)
(25.1469 0 0)
(25.189 0 0)
(25.231 0 0)
(25.2731 0 0)
(25.3152 0 0)
(25.3572 0 0)
(25.3992 0 0)
(25.4412 0 0)
(25.4832 0 0)
(25.5251 0 0)
(25.5671 0 0)
(25.609 0 0)
(25.6509 0 0)
(25.6927 0 0)
(25.7345 0 0)
(25.7763 0 0)
(25.8181 0 0)
(25.8598 0 0)
(25.9015 0 0)
(25.9432 0 0)
(25.9848 0 0)
(26.0264 0 0)
(26.068 0 0)
(26.1095 0 0)
(26.151 0 0)
(26.1924 0 0)
(26.2338 0 0)
(26.2752 0 0)
(26.3165 0 0)
(26.3578 0 0)
(26.3991 0 0)
(26.4403 0 0)
(26.4814 0 0)
(26.5225 0 0)
(26.5636 0 0)
(26.6047 0 0)
(26.6457 0 0)
(26.6866 0 0)
(26.7276 0 0)
(26.7684 0 0)
(26.8093 0 0)
(26.8501 0 0)
(26.8909 0 0)
(26.9316 0 0)
(26.9723 0 0)
(27.013 0 0)
(27.0537 0 0)
(27.0943 0 0)
(27.1349 0 0)
(27.1754 0 0)
(27.216 0 0)
(27.2565 0 0)
(27.297 0 0)
(27.3374 0 0)
(27.3779 0 0)
(27.4183 0 0)
(27.4588 0 0)
(27.4992 0 0)
(27.5396 0 0)
(27.58 0 0)
(27.6204 0 0)
(27.6608 0 0)
(27.7012 0 0)
(27.7416 0 0)
(27.782 0 0)
(27.8224 0 0)
(27.8628 0 0)
(27.9032 0 0)
(27.9437 0 0)
(27.9841 0 0)
(28.0246 0 0)
(28.0651 0 0)
(28.1057 0 0)
(28.1462 0 0)
(28.1868 0 0)
(28.2274 0 0)
(28.2681 0 0)
(28.3088 0 0)
(28.3495 0 0)
(28.3902 0 0)
(28.431 0 0)
(28.4719 0 0)
(28.5128 0 0)
(28.5537 0 0)
(28.5947 0 0)
(28.6358 0 0)
(28.6768 0 0)
(28.718 0 0)
(28.7592 0 0)
(28.8004 0 0)
(28.8417 0 0)
(28.883 0 0)
(28.9244 0 0)
(28.9659 0 0)
(29.0074 0 0)
(29.049 0 0)
(29.0906 0 0)
(29.1322 0 0)
(29.1739 0 0)
(29.2157 0 0)
(29.2575 0 0)
(29.2994 0 0)
(29.3413 0 0)
(29.3832 0 0)
(29.4252 0 0)
(29.4673 0 0)
(29.5093 0 0)
(29.5514 0 0)
(29.5936 0 0)
(29.6358 0 0)
(29.678 0 0)
(29.7203 0 0)
(29.7625 0 0)
(29.8048 0 0)
(29.8472 0 0)
(29.8895 0 0)
(29.9319 0 0)
(29.9743 0 0)
(30.0166 0 0)
(30.0591 0 0)
(30.1015 0 0)
(30.1439 0 0)
(30.1863 0 0)
(30.2287 0 0)
(30.2711 0 0)
(30.3135 0 0)
(30.356 0 0)
(30.3983 0 0)
(30.4407 0 0)
(30.4831 0 0)
(30.5254 0 0)
(30.5678 0 0)
(30.6101 0 0)
(30.6523 0 0)
(30.6946 0 0)
(30.7368 0 0)
(30.779 0 0)
(30.8212 0 0)
(30.8633 0 0)
(30.9054 0 0)
(30.9474 0 0)
(30.9894 0 0)
(31.0314 0 0)
(31.0733 0 0)
(31.1152 0 0)
(31.157 0 0)
(31.1988 0 0)
(31.2405 0 0)
(31.2822 0 0)
(31.3239 0 0)
(31.3654 0 0)
(31.407 0 0)
(31.4484 0 0)
(31.4899 0 0)
(31.5312 0 0)
(31.5726 0 0)
(31.6138 0 0)
(31.655 0 0)
(31.6962 0 0)
(31.7373 0 0)
(31.7783 0 0)
(31.8193 0 0)
(31.8603 0 0)
(31.9012 0 0)
(31.942 0 0)
(31.9828 0 0)
(32.0236 0 0)
(32.0643 0 0)
(32.1049 0 0)
(32.1455 0 0)
(32.1861 0 0)
(32.2266 0 0)
(32.2671 0 0)
(32.3076 0 0)
(32.348 0 0)
(32.3884 0 0)
(32.4287 0 0)
(32.469 0 0)
(32.5093 0 0)
(32.5496 0 0)
(32.5898 0 0)
(32.6301 0 0)
(32.6703 0 0)
(32.7105 0 0)
(32.7507 0 0)
(32.7909 0 0)
(32.8311 0 0)
(32.8712 0 0)
(32.9114 0 0)
(32.9516 0 0)
(32.9918 0 0)
(33.032 0 0)
(33.0722 0 0)
(33.1124 0 0)
(33.1526 0 0)
(33.1929 0 0)
(33.2332 0 0)
(33.2735 0 0)
(33.3138 0 0)
(33.3541 0 0)
(33.3945 0 0)
(33.435 0 0)
(33.4754 0 0)
(33.5159 0 0)
(33.5565 0 0)
(33.5971 0 0)
(33.6377 0 0)
(33.6784 0 0)
(33.7192 0 0)
(33.76 0 0)
(33.8008 0 0)
(33.8418 0 0)
(33.8827 0 0)
(33.9238 0 0)
(33.9649 0 0)
(34.006 0 0)
(34.0473 0 0)
(34.0885 0 0)
(34.1299 0 0)
(34.1713 0 0)
(34.2128 0 0)
(34.2543 0 0)
(34.2959 0 0)
(34.3375 0 0)
(34.3792 0 0)
(34.421 0 0)
(34.4629 0 0)
(34.5048 0 0)
(34.5467 0 0)
(34.5887 0 0)
(34.6308 0 0)
(34.6729 0 0)
(34.715 0 0)
(34.7572 0 0)
(34.7994 0 0)
(34.8417 0 0)
(34.8841 0 0)
(34.9264 0 0)
(34.9688 0 0)
(35.0112 0 0)
(35.0537 0 0)
(35.0962 0 0)
(35.1387 0 0)
(35.1812 0 0)
(35.2238 0 0)
(35.2663 0 0)
(35.3089 0 0)
(35.3515 0 0)
(35.3941 0 0)
(35.4367 0 0)
(35.4793 0 0)
(35.5219 0 0)
(35.5645 0 0)
(35.6071 0 0)
(35.6496 0 0)
(35.6922 0 0)
(35.7347 0 0)
(35.7772 0 0)
(35.8197 0 0)
(35.8622 0 0)
(35.9047 0 0)
(35.9471 0 0)
(35.9895 0 0)
(36.0318 0 0)
(36.0741 0 0)
(36.1164 0 0)
(36.1587 0 0)
(36.2009 0 0)
(36.243 0 0)
(36.2852 0 0)
(36.3272 0 0)
(36.3693 0 0)
(36.4113 0 0)
(36.4532 0 0)
(36.4951 0 0)
(36.5369 0 0)
(36.5787 0 0)
(36.6204 0 0)
(36.662 0 0)
(36.7037 0 0)
(36.7452 0 0)
(36.7867 0 0)
(36.8282 0 0)
(36.8696 0 0)
(36.9109 0 0)
(36.9522 0 0)
(36.9934 0 0)
(37.0346 0 0)
(37.0757 0 0)
(37.1167 0 0)
(37.1577 0 0)
(37.1987 0 0)
(37.2396 0 0)
(37.2804 0 0)
(37.3212 0 0)
(37.3619 0 0)
(37.4026 0 0)
(37.4433 0 0)
(37.4839 0 0)
(37.5244 0 0)
(37.565 0 0)
(37.6054 0 0)
(37.6459 0 0)
(37.6863 0 0)
(37.7266 0 0)
(37.7669 0 0)
(37.8072 0 0)
(37.8475 0 0)
(37.8877 0 0)
(37.928 0 0)
(37.9682 0 0)
(38.0084 0 0)
(38.0485 0 0)
(38.0887 0 0)
(38.1289 0 0)
(38.169 0 0)
(38.2091 0 0)
(38.2493 0 0)
(38.2894 0 0)
(38.3295 0 0)
(38.3697 0 0)
(38.4098 0 0)
(38.4499 0 0)
(38.4901 0 0)
(38.5303 0 0)
(38.5705 0 0)
(38.6107 0 0)
(38.6509 0 0)
(38.6911 0 0)
(38.7314 0 0)
(38.7717 0 0)
(38.812 0 0)
(38.8524 0 0)
(38.8928 0 0)
(38.9332 0 0)
(38.9737 0 0)
(39.0142 0 0)
(39.0547 0 0)
(39.0953 0 0)
(39.136 0 0)
(39.1767 0 0)
(39.2175 0 0)
(39.2583 0 0)
(39.2992 0 0)
(39.3401 0 0)
(39.3811 0 0)
(39.4222 0 0)
(39.4633 0 0)
(39.5045 0 0)
(39.5458 0 0)
(39.5871 0 0)
(39.6285 0 0)
(39.6699 0 0)
(39.7114 0 0)
(39.753 0 0)
(39.7946 0 0)
(39.8363 0 0)
(39.878 0 0)
(39.9198 0 0)
(39.9617 0 0)
(40.0036 0 0)
(40.0456 0 0)
(40.0876 0 0)
(40.1297 0 0)
(40.1718 0 0)
(40.214 0 0)
(40.2562 0 0)
(40.2985 0 0)
(40.3408 0 0)
(40.3831 0 0)
(40.4255 0 0)
(40.468 0 0)
(40.5104 0 0)
(40.5529 0 0)
(40.5955 0 0)
(40.638 0 0)
(40.6806 0 0)
(40.7232 0 0)
(40.7658 0 0)
(40.8084 0 0)
(40.8511 0 0)
(40.8937 0 0)
(40.9364 0 0)
(40.979 0 0)
(41.0217 0 0)
(41.0644 0 0)
(41.107 0 0)
(41.1497 0 0)
(41.1923 0 0)
(41.235 0 0)
(41.2776 0 0)
(41.3202 0 0)
(41.3628 0 0)
(41.4054 0 0)
(41.448 0 0)
(41.4905 0 0)
(41.533 0 0)
(41.5755 0 0)
(41.6179 0 0)
(41.6603 0 0)
(41.7027 0 0)
(41.745 0 0)
(41.7874 0 0)
(41.8296 0 0)
(41.8718 0 0)
(41.914 0 0)
(41.9562 0 0)
(41.9982 0 0)
(42.0403 0 0)
(42.0823 0 0)
(42.1242 0 0)
(42.1661 0 0)
(42.208 0 0)
(42.2498 0 0)
(42.2915 0 0)
(42.3332 0 0)
(42.3748 0 0)
(42.4164 0 0)
(42.4579 0 0)
(42.4994 0 0)
(42.5408 0 0)
(42.5821 0 0)
(42.6234 0 0)
(42.6646 0 0)
(42.7058 0 0)
(42.7469 0 0)
(42.7879 0 0)
(42.8289 0 0)
(42.8699 0 0)
(42.9108 0 0)
(42.9516 0 0)
(42.9924 0 0)
(43.0331 0 0)
(43.0738 0 0)
(43.1144 0 0)
(43.155 0 0)
(43.1955 0 0)
(43.236 0 0)
(43.2764 0 0)
(43.3168 0 0)
(43.3571 0 0)
(43.3974 0 0)
(43.4377 0 0)
(43.4779 0 0)
(43.5181 0 0)
(43.5583 0 0)
(43.5985 0 0)
(43.6386 0 0)
(43.6787 0 0)
(43.7188 0 0)
(43.7589 0 0)
(43.7989 0 0)
(43.8389 0 0)
(43.879 0 0)
(43.919 0 0)
(43.959 0 0)
(43.999 0 0)
(44.039 0 0)
(44.079 0 0)
(44.1189 0 0)
(44.1589 0 0)
(44.1989 0 0)
(44.239 0 0)
(44.279 0 0)
(44.319 0 0)
(44.3591 0 0)
(44.3992 0 0)
(44.4393 0 0)
(44.4795 0 0)
(44.5196 0 0)
(44.5598 0 0)
(44.6 0 0)
(44.6403 0 0)
(44.6806 0 0)
(44.7209 0 0)
(44.7613 0 0)
(44.8018 0 0)
(44.8423 0 0)
(44.8828 0 0)
(44.9234 0 0)
(44.9641 0 0)
(45.0049 0 0)
(45.0457 0 0)
(45.0866 0 0)
(45.1275 0 0)
(45.1685 0 0)
(45.2096 0 0)
(45.2508 0 0)
(45.292 0 0)
(45.3333 0 0)
(45.3747 0 0)
(45.4162 0 0)
(45.4577 0 0)
(45.4993 0 0)
(45.541 0 0)
(45.5827 0 0)
(45.6245 0 0)
(45.6664 0 0)
(45.7083 0 0)
(45.7504 0 0)
(45.7925 0 0)
(45.8346 0 0)
(45.8768 0 0)
(45.9191 0 0)
(45.9614 0 0)
(46.0038 0 0)
(46.0462 0 0)
(46.0887 0 0)
(46.1313 0 0)
(46.1739 0 0)
(46.2165 0 0)
(46.2592 0 0)
(46.3019 0 0)
(46.3446 0 0)
(46.3874 0 0)
(46.4303 0 0)
(46.4731 0 0)
(46.516 0 0)
(46.5589 0 0)
(46.6018 0 0)
(46.6447 0 0)
(46.6876 0 0)
(46.7306 0 0)
(46.7735 0 0)
(46.8165 0 0)
(46.8594 0 0)
(46.9024 0 0)
(46.9453 0 0)
(46.9882 0 0)
(47.0311 0 0)
(47.074 0 0)
(47.1169 0 0)
(47.1598 0 0)
(47.2026 0 0)
(47.2454 0 0)
(47.2882 0 0)
(47.3309 0 0)
(47.3736 0 0)
(47.4163 0 0)
(47.4589 0 0)
(47.5015 0 0)
(47.544 0 0)
(47.5865 0 0)
(47.629 0 0)
(47.6714 0 0)
(47.7137 0 0)
(47.756 0 0)
(47.7982 0 0)
(47.8404 0 0)
(47.8825 0 0)
(47.9246 0 0)
(47.9666 0 0)
(48.0085 0 0)
(48.0504 0 0)
(48.0922 0 0)
(48.1339 0 0)
(48.1756 0 0)
(48.2172 0 0)
(48.2587 0 0)
(48.3002 0 0)
(48.3416 0 0)
(48.3829 0 0)
(48.4241 0 0)
(48.4653 0 0)
(48.5064 0 0)
(48.5474 0 0)
(48.5884 0 0)
(48.6293 0 0)
(48.6702 0 0)
(48.7109 0 0)
(48.7516 0 0)
(48.7923 0 0)
(48.8328 0 0)
(48.8733 0 0)
(48.9138 0 0)
(48.9542 0 0)
(48.9945 0 0)
(49.0348 0 0)
(49.075 0 0)
(49.1152 0 0)
(49.1553 0 0)
(49.1954 0 0)
(49.2354 0 0)
(49.2755 0 0)
(49.3155 0 0)
(49.3554 0 0)
(49.3954 0 0)
(49.4353 0 0)
(49.4752 0 0)
(49.515 0 0)
(49.5549 0 0)
(49.5947 0 0)
(49.6345 0 0)
(49.6743 0 0)
(49.7141 0 0)
(49.7538 0 0)
(49.7936 0 0)
(49.8334 0 0)
(49.8731 0 0)
(49.9129 0 0)
(49.9527 0 0)
(49.9925 0 0)
(50.0323 0 0)
(50.0721 0 0)
(50.1119 0 0)
(50.1518 0 0)
(50.1916 0 0)
(50.2315 0 0)
(50.2715 0 0)
(50.3115 0 0)
(50.3515 0 0)
(50.3915 0 0)
(50.4316 0 0)
(50.4717 0 0)
(50.5119 0 0)
(50.5521 0 0)
(50.5923 0 0)
(50.6327 0 0)
(50.673 0 0)
(50.7135 0 0)
(50.754 0 0)
(50.7946 0 0)
(50.8353 0 0)
(50.876 0 0)
(50.9169 0 0)
(50.9578 0 0)
(50.9988 0 0)
(51.0398 0 0)
(51.081 0 0)
(51.1222 0 0)
(51.1635 0 0)
(51.2049 0 0)
(51.2464 0 0)
(51.288 0 0)
(51.3296 0 0)
(51.3713 0 0)
(51.4131 0 0)
(51.455 0 0)
(51.497 0 0)
(51.539 0 0)
(51.5811 0 0)
(51.6233 0 0)
(51.6655 0 0)
(51.7078 0 0)
(51.7502 0 0)
(51.7927 0 0)
(51.8352 0 0)
(51.8777 0 0)
(51.9204 0 0)
(51.963 0 0)
(52.0058 0 0)
(52.0485 0 0)
(52.0913 0 0)
(52.1342 0 0)
(52.1771 0 0)
(52.22 0 0)
(52.263 0 0)
(52.306 0 0)
(52.3491 0 0)
(52.3921 0 0)
(52.4352 0 0)
(52.4783 0 0)
(52.5214 0 0)
(52.5645 0 0)
(52.6077 0 0)
(52.6508 0 0)
(52.6939 0 0)
(52.7371 0 0)
(52.7802 0 0)
(52.8234 0 0)
(52.8665 0 0)
(52.9096 0 0)
(52.9527 0 0)
(52.9957 0 0)
(53.0388 0 0)
(53.0818 0 0)
(53.1248 0 0)
(53.1677 0 0)
(53.2107 0 0)
(53.2536 0 0)
(53.2964 0 0)
(53.3393 0 0)
(53.382 0 0)
(53.4248 0 0)
(53.4675 0 0)
(53.5101 0 0)
(53.5527 0 0)
(53.5953 0 0)
(53.6378 0 0)
(53.6802 0 0)
(53.7226 0 0)
(53.7649 0 0)
(53.8072 0 0)
(53.8494 0 0)
(53.8915 0 0)
(53.9336 0 0)
(53.9756 0 0)
(54.0176 0 0)
(54.0594 0 0)
(54.1013 0 0)
(54.143 0 0)
(54.1847 0 0)
(54.2263 0 0)
(54.2678 0 0)
(54.3092 0 0)
(54.3506 0 0)
(54.3919 0 0)
(54.4332 0 0)
(54.4743 0 0)
(54.5154 0 0)
(54.5564 0 0)
(54.5974 0 0)
(54.6383 0 0)
(54.6791 0 0)
(54.7198 0 0)
(54.7605 0 0)
(54.8011 0 0)
(54.8417 0 0)
(54.8821 0 0)
(54.9225 0 0)
(54.9629 0 0)
(55.0032 0 0)
(55.0434 0 0)
(55.0836 0 0)
(55.1237 0 0)
(55.1638 0 0)
(55.2038 0 0)
(55.2439 0 0)
(55.2839 0 0)
(55.3238 0 0)
(55.3637 0 0)
(55.4036 0 0)
(55.4434 0 0)
(55.4832 0 0)
(55.523 0 0)
(55.5628 0 0)
(55.6025 0 0)
(55.6422 0 0)
(55.6819 0 0)
(55.7215 0 0)
(55.7612 0 0)
(55.8008 0 0)
(55.8404 0 0)
(55.8801 0 0)
(55.9197 0 0)
(55.9593 0 0)
(55.9989 0 0)
(56.0385 0 0)
(56.0781 0 0)
(56.1177 0 0)
(56.1573 0 0)
(56.197 0 0)
(56.2366 0 0)
(56.2763 0 0)
(56.316 0 0)
(56.3558 0 0)
(56.3955 0 0)
(56.4353 0 0)
(56.4751 0 0)
(56.515 0 0)
(56.5549 0 0)
(56.5949 0 0)
(56.6349 0 0)
(56.6749 0 0)
(56.7149 0 0)
(56.755 0 0)
(56.7952 0 0)
(56.8354 0 0)
(56.8757 0 0)
(56.916 0 0)
(56.9565 0 0)
(56.997 0 0)
(57.0376 0 0)
(57.0782 0 0)
(57.119 0 0)
(57.1598 0 0)
(57.2007 0 0)
(57.2417 0 0)
(57.2828 0 0)
(57.324 0 0)
(57.3653 0 0)
(57.4066 0 0)
(57.4481 0 0)
(57.4897 0 0)
(57.5313 0 0)
(57.573 0 0)
(57.6149 0 0)
(57.6568 0 0)
(57.6988 0 0)
(57.7408 0 0)
(57.783 0 0)
(57.8253 0 0)
(57.8676 0 0)
(57.91 0 0)
(57.9525 0 0)
(57.9951 0 0)
(58.0377 0 0)
(58.0804 0 0)
(58.1232 0 0)
(58.166 0 0)
(58.2089 0 0)
(58.2519 0 0)
(58.2949 0 0)
(58.338 0 0)
(58.3811 0 0)
(58.4243 0 0)
(58.4675 0 0)
(58.5108 0 0)
(58.5541 0 0)
(58.5975 0 0)
(58.6408 0 0)
(58.6842 0 0)
(58.7277 0 0)
(58.7711 0 0)
(58.8146 0 0)
(58.8581 0 0)
(58.9016 0 0)
(58.9451 0 0)
(58.9886 0 0)
(59.0322 0 0)
(59.0757 0 0)
(59.1192 0 0)
(59.1627 0 0)
(59.2061 0 0)
(59.2496 0 0)
(59.293 0 0)
(59.3365 0 0)
(59.3798 0 0)
(59.4232 0 0)
(59.4665 0 0)
(59.5098 0 0)
(59.5531 0 0)
(59.5963 0 0)
(59.6394 0 0)
(59.6825 0 0)
(59.7256 0 0)
(59.7686 0 0)
(59.8116 0 0)
(59.8544 0 0)
(59.8973 0 0)
(59.94 0 0)
(59.9827 0 0)
(60.0253 0 0)
(60.0679 0 0)
(60.1103 0 0)
(60.1527 0 0)
(60.195 0 0)
(60.2373 0 0)
(60.2794 0 0)
(60.3215 0 0)
(60.3635 0 0)
(60.4053 0 0)
(60.4471 0 0)
(60.4889 0 0)
(60.5305 0 0)
(60.572 0 0)
(60.6135 0 0)
(60.6548 0 0)
(60.6961 0 0)
(60.7373 0 0)
(60.7784 0 0)
(60.8193 0 0)
(60.8603 0 0)
(60.9011 0 0)
(60.9418 0 0)
(60.9825 0 0)
(61.023 0 0)
(61.0635 0 0)
(61.1039 0 0)
(61.1442 0 0)
(61.1845 0 0)
(61.2247 0 0)
(61.2648 0 0)
(61.3048 0 0)
(61.3448 0 0)
(61.3847 0 0)
(61.4246 0 0)
(61.4644 0 0)
(61.5043 0 0)
(61.544 0 0)
(61.5837 0 0)
(61.6234 0 0)
(61.6631 0 0)
(61.7026 0 0)
(61.7422 0 0)
(61.7817 0 0)
(61.8212 0 0)
(61.8606 0 0)
(61.9001 0 0)
(61.9395 0 0)
(61.9788 0 0)
(62.0182 0 0)
(62.0575 0 0)
(62.0968 0 0)
(62.1361 0 0)
(62.1754 0 0)
(62.2147 0 0)
(62.254 0 0)
(62.2933 0 0)
(62.3326 0 0)
(62.3719 0 0)
(62.4112 0 0)
(62.4505 0 0)
(62.4898 0 0)
(62.5292 0 0)
(62.5685 0 0)
(62.608 0 0)
(62.6474 0 0)
(62.6869 0 0)
(62.7264 0 0)
(62.7659 0 0)
(62.8056 0 0)
(62.8452 0 0)
(62.8849 0 0)
(62.9247 0 0)
(62.9645 0 0)
(63.0044 0 0)
(63.0443 0 0)
(63.0843 0 0)
(63.1243 0 0)
(63.1644 0 0)
(63.2045 0 0)
(63.2447 0 0)
(63.285 0 0)
(63.3254 0 0)
(63.366 0 0)
(63.4066 0 0)
(63.4473 0 0)
(63.4881 0 0)
(63.529 0 0)
(63.5701 0 0)
(63.6112 0 0)
(63.6525 0 0)
(63.6939 0 0)
(63.7354 0 0)
(63.777 0 0)
(63.8187 0 0)
(63.8606 0 0)
(63.9025 0 0)
(63.9446 0 0)
(63.9868 0 0)
(64.0291 0 0)
(64.0715 0 0)
(64.1141 0 0)
(64.1567 0 0)
(64.1994 0 0)
(64.2423 0 0)
(64.2852 0 0)
(64.3282 0 0)
(64.3713 0 0)
(64.4145 0 0)
(64.4577 0 0)
(64.5011 0 0)
(64.5445 0 0)
(64.5879 0 0)
(64.6314 0 0)
(64.675 0 0)
(64.7186 0 0)
(64.7623 0 0)
(64.806 0 0)
(64.8497 0 0)
(64.8935 0 0)
(64.9373 0 0)
(64.9811 0 0)
(65.0249 0 0)
(65.0687 0 0)
(65.1126 0 0)
(65.1564 0 0)
(65.2002 0 0)
(65.244 0 0)
(65.2877 0 0)
(65.3314 0 0)
(65.3751 0 0)
(65.4188 0 0)
(65.4624 0 0)
(65.506 0 0)
(65.5495 0 0)
(65.593 0 0)
(65.6364 0 0)
(65.6797 0 0)
(65.723 0 0)
(65.7663 0 0)
(65.8094 0 0)
(65.8525 0 0)
(65.8956 0 0)
(65.9385 0 0)
(65.9814 0 0)
(66.0241 0 0)
(66.0668 0 0)
(66.1095 0 0)
(66.152 0 0)
(66.1944 0 0)
(66.2368 0 0)
(66.279 0 0)
(66.3212 0 0)
(66.3632 0 0)
(66.4052 0 0)
(66.4471 0 0)
(66.4888 0 0)
(66.5305 0 0)
(66.5721 0 0)
(66.6135 0 0)
(66.6549 0 0)
(66.6962 0 0)
(66.7374 0 0)
(66.7785 0 0)
(66.8194 0 0)
(66.8603 0 0)
(66.9011 0 0)
(66.9419 0 0)
(66.9825 0 0)
(67.023 0 0)
(67.0635 0 0)
(67.1039 0 0)
(67.1442 0 0)
(67.1844 0 0)
(67.2246 0 0)
(67.2647 0 0)
(67.3047 0 0)
(67.3447 0 0)
(67.3846 0 0)
(67.4245 0 0)
(67.4643 0 0)
(67.5041 0 0)
(67.5439 0 0)
(67.5836 0 0)
(67.6233 0 0)
(67.6629 0 0)
(67.7026 0 0)
(67.7422 0 0)
(67.7817 0 0)
(67.8213 0 0)
(67.8608 0 0)
(67.9003 0 0)
(67.9398 0 0)
(67.9793 0 0)
(68.0188 0 0)
(68.0582 0 0)
(68.0977 0 0)
(68.1372 0 0)
(68.1767 0 0)
(68.2162 0 0)
(68.2557 0 0)
(68.2952 0 0)
(68.3348 0 0)
(68.3744 0 0)
(68.414 0 0)
(68.4537 0 0)
(68.4933 0 0)
(68.5331 0 0)
(68.5729 0 0)
(68.6127 0 0)
(68.6525 0 0)
(68.6923 0 0)
(68.7323 0 0)
(68.7722 0 0)
(68.8123 0 0)
(68.8524 0 0)
(68.8927 0 0)
(68.933 0 0)
(68.9734 0 0)
(69.0139 0 0)
(69.0546 0 0)
(69.0953 0 0)
(69.1361 0 0)
(69.1771 0 0)
(69.2181 0 0)
(69.2593 0 0)
(69.3006 0 0)
(69.342 0 0)
(69.3836 0 0)
(69.4252 0 0)
(69.467 0 0)
(69.5089 0 0)
(69.5509 0 0)
(69.593 0 0)
(69.6353 0 0)
(69.6776 0 0)
(69.72 0 0)
(69.7626 0 0)
(69.8052 0 0)
(69.848 0 0)
(69.8908 0 0)
(69.9337 0 0)
(69.9766 0 0)
(70.0197 0 0)
(70.0628 0 0)
(70.106 0 0)
(70.1492 0 0)
(70.1924 0 0)
(70.2358 0 0)
(70.2791 0 0)
(70.3225 0 0)
(70.3659 0 0)
(70.4093 0 0)
(70.4527 0 0)
(70.4962 0 0)
(70.5396 0 0)
(70.583 0 0)
(70.6264 0 0)
(70.6697 0 0)
(70.7131 0 0)
(70.7564 0 0)
(70.7997 0 0)
(70.8429 0 0)
(70.8861 0 0)
(70.9292 0 0)
(70.9723 0 0)
(71.0154 0 0)
(71.0583 0 0)
(71.1012 0 0)
(71.1441 0 0)
(71.1869 0 0)
(71.2296 0 0)
(71.2722 0 0)
(71.3147 0 0)
(71.3572 0 0)
(71.3996 0 0)
(71.4419 0 0)
(71.4841 0 0)
(71.5263 0 0)
(71.5683 0 0)
(71.6103 0 0)
(71.6521 0 0)
(71.6939 0 0)
(71.7356 0 0)
(71.7772 0 0)
(71.8187 0 0)
(71.8601 0 0)
(71.9014 0 0)
(71.9426 0 0)
(71.9838 0 0)
(72.0248 0 0)
(72.0657 0 0)
(72.1066 0 0)
(72.1473 0 0)
(72.188 0 0)
(72.2286 0 0)
(72.2691 0 0)
(72.3095 0 0)
(72.3498 0 0)
(72.3901 0 0)
(72.4303 0 0)
(72.4705 0 0)
(72.5105 0 0)
(72.5506 0 0)
(72.5905 0 0)
(72.6304 0 0)
(72.6703 0 0)
(72.7101 0 0)
(72.7499 0 0)
(72.7896 0 0)
(72.8293 0 0)
(72.869 0 0)
(72.9087 0 0)
(72.9483 0 0)
(72.988 0 0)
(73.0276 0 0)
(73.0672 0 0)
(73.1067 0 0)
(73.1463 0 0)
(73.1859 0 0)
(73.2254 0 0)
(73.265 0 0)
(73.3046 0 0)
(73.3441 0 0)
(73.3837 0 0)
(73.4233 0 0)
(73.463 0 0)
(73.5026 0 0)
(73.5423 0 0)
(73.582 0 0)
(73.6218 0 0)
(73.6615 0 0)
(73.7013 0 0)
(73.7411 0 0)
(73.781 0 0)
(73.821 0 0)
(73.861 0 0)
(73.9011 0 0)
(73.9413 0 0)
(73.9815 0 0)
(74.0219 0 0)
(74.0623 0 0)
(74.1029 0 0)
(74.1435 0 0)
(74.1842 0 0)
(74.2251 0 0)
(74.266 0 0)
(74.3071 0 0)
(74.3483 0 0)
(74.3896 0 0)
(74.4311 0 0)
(74.4726 0 0)
(74.5143 0 0)
(74.5561 0 0)
(74.598 0 0)
(74.64 0 0)
(74.6821 0 0)
(74.7244 0 0)
(74.7667 0 0)
(74.8092 0 0)
(74.8518 0 0)
(74.8944 0 0)
(74.9372 0 0)
(74.98 0 0)
(75.023 0 0)
(75.066 0 0)
(75.1091 0 0)
(75.1522 0 0)
(75.1955 0 0)
(75.2388 0 0)
(75.2821 0 0)
(75.3256 0 0)
(75.369 0 0)
(75.4125 0 0)
(75.4561 0 0)
(75.4996 0 0)
(75.5432 0 0)
(75.5869 0 0)
(75.6305 0 0)
(75.6741 0 0)
(75.7178 0 0)
(75.7615 0 0)
(75.8051 0 0)
(75.8487 0 0)
(75.8923 0 0)
(75.9359 0 0)
(75.9795 0 0)
(76.023 0 0)
(76.0665 0 0)
(76.1099 0 0)
(76.1533 0 0)
(76.1967 0 0)
(76.24 0 0)
(76.2832 0 0)
(76.3264 0 0)
(76.3696 0 0)
(76.4126 0 0)
(76.4556 0 0)
(76.4986 0 0)
(76.5414 0 0)
(76.5842 0 0)
(76.6269 0 0)
(76.6695 0 0)
(76.712 0 0)
(76.7544 0 0)
(76.7967 0 0)
(76.839 0 0)
(76.8811 0 0)
(76.9232 0 0)
(76.9652 0 0)
(77.007 0 0)
(77.0488 0 0)
(77.0904 0 0)
(77.132 0 0)
(77.1735 0 0)
(77.2148 0 0)
(77.2561 0 0)
(77.2972 0 0)
(77.3383 0 0)
(77.3792 0 0)
(77.42 0 0)
(77.4608 0 0)
(77.5014 0 0)
(77.5419 0 0)
(77.5824 0 0)
(77.6228 0 0)
(77.663 0 0)
(77.7032 0 0)
(77.7433 0 0)
(77.7834 0 0)
(77.8234 0 0)
(77.8633 0 0)
(77.9031 0 0)
(77.9428 0 0)
(77.9826 0 0)
(78.0222 0 0)
(78.0618 0 0)
(78.1015 0 0)
(78.141 0 0)
(78.1806 0 0)
(78.22 0 0)
(78.2595 0 0)
(78.2989 0 0)
(78.3383 0 0)
(78.3776 0 0)
(78.4169 0 0)
(78.4562 0 0)
(78.4955 0 0)
(78.5347 0 0)
(78.5739 0 0)
(78.6131 0 0)
(78.6523 0 0)
(78.6915 0 0)
(78.7307 0 0)
(78.7699 0 0)
(78.809 0 0)
(78.8482 0 0)
(78.8874 0 0)
(78.9267 0 0)
(78.9659 0 0)
(79.0052 0 0)
(79.0445 0 0)
(79.0838 0 0)
(79.1231 0 0)
(79.1626 0 0)
(79.202 0 0)
(79.2415 0 0)
(79.2811 0 0)
(79.3207 0 0)
(79.3603 0 0)
(79.3999 0 0)
(79.4396 0 0)
(79.4794 0 0)
(79.5192 0 0)
(79.5592 0 0)
(79.5992 0 0)
(79.6393 0 0)
(79.6795 0 0)
(79.7198 0 0)
(79.7603 0 0)
(79.8008 0 0)
(79.8415 0 0)
(79.8822 0 0)
(79.9231 0 0)
(79.9642 0 0)
(80.0054 0 0)
(80.0467 0 0)
(80.0881 0 0)
(80.1297 0 0)
(80.1714 0 0)
(80.2133 0 0)
(80.2553 0 0)
(80.2974 0 0)
(80.3396 0 0)
(80.382 0 0)
(80.4244 0 0)
(80.467 0 0)
(80.5097 0 0)
(80.5525 0 0)
(80.5954 0 0)
(80.6384 0 0)
(80.6814 0 0)
(80.7246 0 0)
(80.7679 0 0)
(80.8112 0 0)
(80.8546 0 0)
(80.8981 0 0)
(80.9416 0 0)
(80.9852 0 0)
(81.0289 0 0)
(81.0726 0 0)
(81.1164 0 0)
(81.1602 0 0)
(81.204 0 0)
(81.2479 0 0)
(81.2918 0 0)
(81.3357 0 0)
(81.3797 0 0)
(81.4237 0 0)
(81.4676 0 0)
(81.5116 0 0)
(81.5556 0 0)
(81.5996 0 0)
(81.6436 0 0)
(81.6876 0 0)
(81.7315 0 0)
(81.7755 0 0)
(81.8194 0 0)
(81.8633 0 0)
(81.9071 0 0)
(81.9509 0 0)
(81.9947 0 0)
(82.0384 0 0)
(82.0821 0 0)
(82.1257 0 0)
(82.1692 0 0)
(82.2127 0 0)
(82.2561 0 0)
(82.2994 0 0)
(82.3427 0 0)
(82.3859 0 0)
(82.429 0 0)
(82.472 0 0)
(82.5149 0 0)
(82.5577 0 0)
(82.6004 0 0)
(82.643 0 0)
(82.6855 0 0)
(82.7279 0 0)
(82.7702 0 0)
(82.8123 0 0)
(82.8544 0 0)
(82.8963 0 0)
(82.9382 0 0)
(82.9799 0 0)
(83.0215 0 0)
(83.063 0 0)
(83.1043 0 0)
(83.1456 0 0)
(83.1867 0 0)
(83.2277 0 0)
(83.2686 0 0)
(83.3094 0 0)
(83.3501 0 0)
(83.3906 0 0)
(83.4311 0 0)
(83.4714 0 0)
(83.5117 0 0)
(83.5519 0 0)
(83.5919 0 0)
(83.6319 0 0)
(83.6718 0 0)
(83.7117 0 0)
(83.7514 0 0)
(83.7911 0 0)
(83.8307 0 0)
(83.8703 0 0)
(83.9098 0 0)
(83.9492 0 0)
(83.9886 0 0)
(84.028 0 0)
(84.0673 0 0)
(84.1066 0 0)
(84.1459 0 0)
(84.1851 0 0)
(84.2243 0 0)
(84.2634 0 0)
(84.3025 0 0)
(84.3416 0 0)
(84.3806 0 0)
(84.4196 0 0)
(84.4586 0 0)
(84.4976 0 0)
(84.5365 0 0)
(84.5755 0 0)
(84.6144 0 0)
(84.6534 0 0)
(84.6923 0 0)
(84.7313 0 0)
(84.7702 0 0)
(84.8092 0 0)
(84.8482 0 0)
(84.8872 0 0)
(84.9263 0 0)
(84.9654 0 0)
(85.0045 0 0)
(85.0437 0 0)
(85.083 0 0)
(85.1223 0 0)
(85.1616 0 0)
(85.201 0 0)
(85.2404 0 0)
(85.2799 0 0)
(85.3194 0 0)
(85.3591 0 0)
(85.3988 0 0)
(85.4386 0 0)
(85.4785 0 0)
(85.5185 0 0)
(85.5586 0 0)
(85.5988 0 0)
(85.6392 0 0)
(85.6796 0 0)
(85.7202 0 0)
(85.761 0 0)
(85.8019 0 0)
(85.8429 0 0)
(85.8842 0 0)
(85.9255 0 0)
(85.9671 0 0)
(86.0088 0 0)
(86.0506 0 0)
(86.0926 0 0)
(86.1347 0 0)
(86.177 0 0)
(86.2194 0 0)
(86.2619 0 0)
(86.3045 0 0)
(86.3473 0 0)
(86.3901 0 0)
(86.433 0 0)
(86.476 0 0)
(86.519 0 0)
(86.5621 0 0)
(86.6052 0 0)
(86.6484 0 0)
(86.6915 0 0)
(86.7347 0 0)
(86.7779 0 0)
(86.8211 0 0)
(86.8642 0 0)
(86.9073 0 0)
(86.9504 0 0)
(86.9934 0 0)
(87.0364 0 0)
(87.0793 0 0)
(87.1222 0 0)
(87.165 0 0)
(87.2078 0 0)
(87.2505 0 0)
(87.2931 0 0)
(87.3357 0 0)
(87.3782 0 0)
(87.4207 0 0)
(87.4631 0 0)
(87.5054 0 0)
(87.5477 0 0)
(87.5899 0 0)
(87.6321 0 0)
(87.6742 0 0)
(87.7163 0 0)
(87.7583 0 0)
(87.8003 0 0)
(87.8422 0 0)
(87.8842 0 0)
(87.926 0 0)
(87.9679 0 0)
(88.0097 0 0)
(88.0515 0 0)
(88.0933 0 0)
(88.1351 0 0)
(88.1768 0 0)
(88.2186 0 0)
(88.2603 0 0)
(88.3021 0 0)
(88.3438 0 0)
(88.3856 0 0)
(88.4273 0 0)
(88.469 0 0)
(88.5108 0 0)
(88.5526 0 0)
(88.5943 0 0)
(88.6361 0 0)
(88.6779 0 0)
(88.7197 0 0)
(88.7616 0 0)
(88.8034 0 0)
(88.8453 0 0)
(88.8872 0 0)
(88.929 0 0)
(88.9709 0 0)
(89.0128 0 0)
(89.0547 0 0)
(89.0966 0 0)
(89.1385 0 0)
(89.1803 0 0)
(89.2222 0 0)
(89.264 0 0)
(89.3058 0 0)
(89.3475 0 0)
(89.3893 0 0)
(89.431 0 0)
(89.4726 0 0)
(89.5142 0 0)
(89.5558 0 0)