/*--------------------------------*- C++ -*----------------------------------*\
  =========                 |
  \\      /  F ield         | OpenFOAM: The Open Source CFD Toolbox
   \\    /   O peration     | Website:  https://openfoam.org
    \\  /    A nd           | Version:  9
     \\/     M anipulation  |
\*---------------------------------------------------------------------------*/
FoamFile
{
    format      ascii;
    class       surfaceScalarField;
    location    "0.038";
    object      phi;
}
// * * * * * * * * * * * * * * * * * * * * * * * * * * * * * * * * * * * * * //

dimensions      [1 0 -1 0 0 0 0];

internalField   nonuniform List<scalar> 
999
(
16.086
16.3807
16.6753
16.9697
17.264
17.5581
17.8521
18.146
18.4399
18.7335
19.027
19.3203
19.6135
19.9066
20.1998
20.4928
20.7856
21.0782
21.3705
21.6626
21.9547
22.2468
22.539
22.8313
23.1234
23.4154
23.7071
23.9984
24.2894
24.5801
24.8705
25.1608
25.4512
25.7417
26.0325
26.3237
26.6152
26.9071
27.1993
27.4917
27.7841
28.0765
28.3689
28.6613
28.9537
29.2463
29.5395
29.8327
30.1259
30.4191
30.7123
31.0054
31.2985
31.5916
31.8846
32.1776
32.4705
32.7633
33.0561
33.3488
33.6415
33.9341
34.2266
34.5192
34.8116
35.104
35.3964
35.6886
35.9809
36.273
36.5651
36.8573
37.1492
37.4412
37.7331
38.0249
38.3167
38.6084
38.9
39.1917
39.4832
39.7747
40.0661
40.3574
40.6487
40.94
41.2312
41.5223
41.8134
42.1044
42.3953
42.6862
42.977
43.2677
43.5584
43.849
44.1396
44.4301
44.7205
45.0109
45.3012
45.5914
45.8816
46.1716
46.4617
46.7516
47.0415
47.3313
47.6211
47.9108
48.2004
48.49
48.7794
49.0688
49.3582
49.6474
49.9366
50.2257
50.5147
50.8037
51.0926
51.3814
51.6702
51.9588
52.2474
52.5359
52.8243
53.1127
53.401
53.6891
53.9773
54.2653
54.5532
54.8411
55.1289
55.4166
55.7042
55.9917
56.2792
56.5665
56.8538
57.141
57.4281
57.7151
58.002
58.2888
58.5755
58.8622
59.1487
59.4352
59.7215
60.0078
60.2939
60.58
60.866
61.1518
61.4376
61.7233
62.0088
62.2943
62.5796
62.8649
63.15
63.4351
63.72
64.0048
64.2895
64.5741
64.8586
65.1429
65.4272
65.7113
65.9953
66.2792
66.563
66.8466
67.1302
67.4136
67.6968
67.98
68.263
68.5459
68.8287
69.1113
69.3938
69.6761
69.9583
70.2404
70.5223
70.8041
71.0857
71.3672
71.6485
71.9297
72.2107
72.4916
72.7723
73.0529
73.3332
73.6135
73.8935
74.1734
74.4531
74.7327
75.012
75.2912
75.5702
75.849
76.1277
76.4061
76.6843
76.9624
77.2402
77.5179
77.7953
78.0726
78.3496
78.6264
78.903
79.1793
79.4555
79.7314
80.0071
80.2825
80.5577
80.8327
81.1074
81.3819
81.6561
81.9301
82.2037
82.4772
82.7503
83.0232
83.2958
83.5682
83.8402
84.112
84.3835
84.6546
84.9255
85.1961
85.4663
85.7363
86.0059
86.2752
86.5441
86.8127
87.0812
87.3495
87.6173
87.8846
88.1514
88.4177
88.6836
88.949
89.2141
89.4787
89.7429
90.0067
90.27
90.533
90.7954
91.0574
91.319
91.5801
91.8407
92.1008
92.3605
92.6196
92.8782
93.1363
93.3939
93.6509
93.9073
94.1632
94.4186
94.6734
94.9276
95.1811
95.4341
95.6865
95.9383
96.1894
96.4399
96.6897
96.9389
97.1875
97.4353
97.6825
97.929
98.1748
98.4199
98.6642
98.9079
99.1508
99.393
99.6345
99.8752
100.115
100.354
100.593
100.83
101.067
101.303
101.539
101.773
102.007
102.24
102.472
102.703
102.934
103.164
103.393
103.621
103.848
104.075
104.301
104.526
104.75
104.974
105.197
105.419
105.64
105.86
106.08
106.299
106.518
106.735
106.952
107.169
107.385
107.6
107.814
108.028
108.241
108.454
108.666
108.878
109.089
109.3
109.51
109.719
109.929
110.138
110.346
110.554
110.762
110.969
111.177
111.383
111.59
111.796
112.002
112.208
112.414
112.62
112.825
113.03
113.235
113.44
113.645
113.85
114.055
114.26
114.465
114.67
114.874
115.079
115.284
115.489
115.694
115.899
116.104
116.31
116.515
116.721
116.926
117.132
117.338
117.544
117.75
117.956
118.163
118.37
118.576
118.784
118.991
119.198
119.406
119.614
119.822
120.03
120.238
120.447
120.656
120.865
121.074
121.284
121.494
121.704
121.914
122.124
122.335
122.546
122.757
122.968
123.18
123.392
123.604
123.816
124.028
124.241
124.454
124.667
124.881
125.095
125.309
125.523
125.737
125.952
126.167
126.382
126.597
126.813
127.029
127.245
127.461
127.678
127.895
128.112
128.329
128.547
128.765
128.983
129.201
129.419
129.638
129.857
130.077
130.296
130.516
130.736
130.956
131.177
131.398
131.619
131.84
132.061
132.283
132.505
132.728
132.95
133.173
133.396
133.619
133.843
134.067
134.291
134.515
134.74
134.964
135.189
135.415
135.64
135.866
136.092
136.319
136.545
136.772
136.999
137.227
137.454
137.682
137.91
138.139
138.367
138.596
138.825
139.055
139.284
139.514
139.745
139.975
140.206
140.437
140.668
140.899
141.131
141.363
141.595
141.828
142.061
142.294
142.527
142.761
142.995
143.229
143.463
143.698
143.933
144.168
144.403
144.639
144.875
145.111
145.347
145.584
145.821
146.058
146.296
146.534
146.772
147.01
147.249
147.488
147.727
147.966
148.206
148.446
148.686
148.926
149.167
149.408
149.649
149.891
150.133
150.375
150.617
150.86
151.103
151.346
151.589
151.833
152.077
152.321
152.566
152.811
153.056
153.301
153.546
153.792
154.039
154.285
154.532
154.779
155.026
155.273
155.521
155.769
156.018
156.266
156.515
156.764
157.014
157.263
157.513
157.764
158.014
158.265
158.516
158.767
159.019
159.271
159.523
159.776
160.029
160.282
160.535
160.789
161.042
161.297
161.551
161.806
162.061
162.316
162.572
162.828
163.084
163.34
163.597
163.854
164.111
164.369
164.626
164.885
165.143
165.402
165.661
165.92
166.18
166.439
166.7
166.96
167.221
167.482
167.743
168.004
168.266
168.528
168.791
169.054
169.317
169.58
169.844
170.107
170.372
170.636
170.901
171.166
171.431
171.697
171.963
172.229
172.495
172.762
173.029
173.297
173.564
173.832
174.1
174.369
174.638
174.907
175.176
175.446
175.716
175.987
176.257
176.528
176.799
177.071
177.342
177.614
177.887
178.16
178.433
178.706
178.979
179.253
179.527
179.802
180.077
180.352
180.627
180.903
181.179
181.455
181.732
182.009
182.286
182.563
182.841
183.119
183.397
183.676
183.955
184.234
184.514
184.794
185.074
185.355
185.636
185.917
186.198
186.48
186.762
187.044
187.327
187.61
187.893
188.177
188.461
188.745
189.029
189.314
189.599
189.885
190.17
190.456
190.743
191.03
191.317
191.604
191.891
192.179
192.468
192.756
193.045
193.334
193.624
193.913
194.204
194.494
194.785
195.076
195.367
195.659
195.951
196.243
196.536
196.829
197.122
197.416
197.709
198.004
198.298
198.593
198.888
199.184
199.479
199.776
200.072
200.369
200.666
200.963
201.261
201.559
201.857
202.156
202.455
202.754
203.054
203.354
203.654
203.955
204.256
204.557
204.858
205.16
205.463
205.765
206.068
206.371
206.675
206.978
207.283
207.587
207.892
208.197
208.502
208.808
209.114
209.421
209.727
210.034
210.342
210.65
210.958
211.266
211.575
211.884
212.193
212.503
212.813
213.124
213.434
213.746
214.057
214.369
214.681
214.993
215.306
215.619
215.932
216.246
216.56
216.875
217.189
217.504
217.82
218.135
218.452
218.768
219.085
219.401
219.719
220.036
220.355
220.672
220.991
221.309
221.629
221.948
222.268
222.588
222.908
223.229
223.549
223.871
224.192
224.514
224.835
225.157
225.479
225.802
226.125
226.448
226.771
227.094
227.417
227.742
228.065
228.389
228.713
229.038
229.362
229.687
230.011
230.336
230.661
230.985
231.31
231.635
231.96
232.285
232.61
232.936
233.261
233.586
233.911
234.236
234.562
234.887
235.212
235.537
235.862
236.188
236.513
236.838
237.164
237.489
237.815
238.14
238.466
238.792
239.118
239.444
239.77
240.097
240.423
240.75
241.078
241.405
241.733
242.061
242.389
242.718
243.048
243.377
243.708
244.038
244.37
244.702
245.034
245.367
245.701
246.035
246.37
246.705
247.041
247.378
247.716
248.054
248.393
248.733
249.073
249.414
249.756
250.099
250.442
250.786
251.131
251.477
251.823
252.17
252.518
252.866
253.215
253.565
253.915
254.266
254.618
254.97
255.323
255.677
256.031
256.386
256.741
257.097
257.453
257.81
258.168
258.526
258.884
259.243
259.603
259.963
260.324
260.685
261.046
261.408
261.771
262.134
262.497
262.861
263.225
263.59
263.955
264.321
264.687
265.054
265.421
265.788
266.156
266.525
266.893
267.263
267.632
268.002
268.373
268.744
269.115
269.486
269.858
270.231
270.603
270.976
271.35
271.723
272.097
272.471
272.846
273.22
273.595
273.97
274.345
274.72
275.094
275.469
275.844
276.218
276.592
276.966
277.339
277.712
278.084
278.455
278.825
279.195
279.564
279.931
280.298
280.663
281.028
281.391
281.753
282.115
282.475
282.834
283.193
283.551
283.908
284.264
284.621
284.977
285.333
285.689
286.046
286.402
286.76
287.118
287.477
287.836
288.197
288.559
288.922
289.285
289.651
290.017
290.385
290.754
291.125
291.496
291.87
292.244
292.619
292.996
293.374
293.753
294.133
294.514
294.897
295.28
295.665
296.05
296.437
296.825
297.213
)
;

boundaryField
{
    sides
    {
        type            calculated;
        value           nonuniform List<scalar> 2(297.603 -15.7912);
    }
    empty
    {
        type            empty;
        value           nonuniform List<scalar> 0();
    }
}


// ************************************************************************* //
