/*--------------------------------*- C++ -*----------------------------------*\
  =========                 |
  \\      /  F ield         | OpenFOAM: The Open Source CFD Toolbox
   \\    /   O peration     | Website:  https://openfoam.org
    \\  /    A nd           | Version:  9
     \\/     M anipulation  |
\*---------------------------------------------------------------------------*/
FoamFile
{
    format      ascii;
    class       volScalarField;
    location    "0.046";
    object      T;
}
// * * * * * * * * * * * * * * * * * * * * * * * * * * * * * * * * * * * * * //

dimensions      [0 0 0 1 0 0 0];

internalField   nonuniform List<scalar> 
1000
(
177.885
177.89
177.901
177.914
177.928
177.942
177.955
177.969
177.983
177.998
178.012
178.026
178.04
178.055
178.07
178.085
178.099
178.114
178.128
178.143
178.159
178.174
178.189
178.204
178.218
178.233
178.248
178.264
178.28
178.296
178.312
178.327
178.342
178.356
178.37
178.385
178.401
178.418
178.435
178.452
178.469
178.485
178.501
178.515
178.529
178.542
178.555
178.569
178.584
178.599
178.616
178.634
178.653
178.673
178.693
178.712
178.731
178.748
178.763
178.777
178.789
178.798
178.806
178.813
178.818
178.823
178.827
178.83
178.834
178.837
178.84
178.842
178.843
178.844
178.844
178.842
178.839
178.837
178.834
178.832
178.83
178.827
178.825
178.823
178.821
178.82
178.818
178.816
178.815
178.814
178.813
178.812
178.811
178.81
178.809
178.809
178.809
178.808
178.808
178.808
178.809
178.809
178.81
178.81
178.811
178.812
178.814
178.815
178.817
178.818
178.82
178.822
178.824
178.827
178.829
178.832
178.835
178.838
178.842
178.845
178.849
178.853
178.857
178.862
178.866
178.871
178.876
178.881
178.887
178.893
178.899
178.905
178.911
178.918
178.925
178.932
178.94
178.947
178.955
178.964
178.972
178.981
178.99
178.999
179.009
179.019
179.029
179.04
179.05
179.061
179.073
179.084
179.096
179.109
179.121
179.134
179.148
179.161
179.175
179.189
179.204
179.219
179.234
179.249
179.265
179.281
179.298
179.314
179.332
179.349
179.367
179.385
179.403
179.422
179.441
179.461
179.48
179.5
179.521
179.541
179.562
179.583
179.605
179.627
179.649
179.672
179.694
179.717
179.741
179.764
179.788
179.812
179.837
179.861
179.886
179.911
179.937
179.962
179.988
180.014
180.04
180.067
180.093
180.12
180.147
180.175
180.202
180.23
180.257
180.285
180.313
180.342
180.37
180.399
180.427
180.456
180.485
180.514
180.543
180.572
180.602
180.631
180.661
180.69
180.72
180.75
180.78
180.81
180.84
180.87
180.9
180.93
180.96
180.991
181.021
181.052
181.082
181.113
181.143
181.174
181.205
181.235
181.266
181.297
181.327
181.358
181.389
181.42
181.451
181.482
181.513
181.544
181.575
181.606
181.637
181.668
181.699
181.73
181.761
181.792
181.824
181.855
181.886
181.917
181.949
181.98
182.011
182.042
182.074
182.105
182.136
182.168
182.199
182.23
182.262
182.293
182.325
182.356
182.388
182.419
182.45
182.482
182.513
182.545
182.576
182.608
182.64
182.671
182.703
182.735
182.766
182.798
182.829
182.861
182.893
182.925
182.956
182.988
183.019
183.051
183.083
183.115
183.147
183.178
183.21
183.242
183.274
183.306
183.337
183.369
183.401
183.433
183.465
183.497
183.529
183.561
183.593
183.625
183.657
183.689
183.721
183.753
183.785
183.817
183.849
183.881
183.913
183.945
183.977
184.009
184.041
184.074
184.106
184.138
184.17
184.202
184.234
184.267
184.299
184.331
184.363
184.396
184.428
184.461
184.492
184.525
184.557
184.59
184.622
184.655
184.686
184.719
184.751
184.784
184.816
184.849
184.881
184.914
184.946
184.979
185.011
185.044
185.076
185.109
185.141
185.174
185.206
185.239
185.271
185.305
185.337
185.37
185.402
185.435
185.467
185.501
185.533
185.566
185.598
185.631
185.664
185.697
185.729
185.763
185.795
185.828
185.86
185.894
185.926
185.959
185.992
186.025
186.057
186.091
186.123
186.157
186.189
186.223
186.255
186.289
186.321
186.355
186.387
186.421
186.453
186.487
186.519
186.553
186.586
186.619
186.652
186.686
186.718
186.752
186.784
186.818
186.851
186.885
186.917
186.951
186.984
187.018
187.05
187.084
187.117
187.151
187.183
187.217
187.25
187.284
187.317
187.351
187.383
187.418
187.45
187.484
187.517
187.551
187.584
187.618
187.651
187.685
187.718
187.752
187.785
187.819
187.852
187.886
187.919
187.954
187.986
188.021
188.054
188.088
188.121
188.155
188.188
188.223
188.256
188.29
188.323
188.358
188.391
188.425
188.458
188.493
188.526
188.56
188.593
188.628
188.661
188.696
188.729
188.764
188.797
188.831
188.864
188.899
188.932
188.967
189
189.035
189.068
189.103
189.136
189.171
189.204
189.239
189.272
189.307
189.341
189.376
189.409
189.444
189.477
189.512
189.545
189.58
189.614
189.649
189.682
189.717
189.75
189.786
189.819
189.855
189.887
189.923
189.956
189.992
190.024
190.061
190.092
190.13
190.161
190.199
190.229
190.269
190.297
190.338
190.365
190.408
190.434
190.478
190.502
190.547
190.57
190.617
190.64
190.686
190.709
190.755
190.778
190.824
190.847
190.893
190.916
190.962
190.986
191.032
191.055
191.101
191.124
191.171
191.194
191.24
191.263
191.31
191.333
191.379
191.402
191.449
191.472
191.519
191.542
191.588
191.612
191.658
191.681
191.728
191.751
191.798
191.821
191.868
191.891
191.938
191.961
192.008
192.031
192.078
192.101
192.148
192.171
192.218
192.241
192.288
192.312
192.358
192.382
192.429
192.452
192.499
192.523
192.569
192.593
192.64
192.663
192.71
192.734
192.781
192.804
192.852
192.875
192.922
192.946
192.993
193.016
193.064
193.087
193.134
193.158
193.205
193.229
193.276
193.3
193.347
193.371
193.418
193.442
193.489
193.513
193.56
193.584
193.631
193.655
193.702
193.726
193.774
193.797
193.845
193.869
193.916
193.94
193.988
194.012
194.059
194.083
194.131
194.154
194.202
194.226
194.274
194.298
194.345
194.369
194.417
194.441
194.489
194.513
194.56
194.584
194.632
194.656
194.704
194.728
194.776
194.8
194.848
194.872
194.92
194.944
194.992
195.016
195.064
195.088
195.136
195.161
195.209
195.233
195.281
195.306
195.352
195.38
195.423
195.454
195.495
195.527
195.567
195.6
195.64
195.673
195.713
195.746
195.787
195.818
195.861
195.891
195.936
195.964
196.01
196.037
196.085
196.11
196.159
196.184
196.234
196.259
196.309
196.334
196.384
196.409
196.46
196.485
196.536
196.561
196.612
196.638
196.689
196.715
196.767
196.793
196.845
196.871
196.924
196.95
197.003
197.03
197.083
197.11
197.164
197.191
197.245
197.272
197.327
197.355
197.41
197.438
197.494
197.522
197.578
197.607
197.664
197.692
197.75
197.778
197.836
197.865
197.924
197.953
198.012
198.041
198.1
198.13
198.19
198.219
198.279
198.309
198.369
198.399
198.46
198.49
198.55
198.58
198.641
198.671
198.731
198.762
198.822
198.852
198.912
198.943
199.003
199.033
199.093
199.123
199.182
199.212
199.271
199.301
199.36
199.389
199.448
199.477
199.536
199.565
199.623
199.651
199.709
199.738
199.795
199.823
199.88
199.908
199.964
199.992
200.048
200.076
200.131
200.159
200.214
200.242
200.296
200.324
200.378
200.405
200.459
200.486
200.54
200.567
200.62
200.647
200.7
200.727
200.78
200.806
200.859
200.886
200.939
200.965
201.017
201.044
201.096
201.122
201.174
201.2
201.253
201.279
201.331
201.357
201.409
201.435
201.487
201.513
201.564
201.59
201.642
201.668
201.72
201.746
201.798
201.823
201.875
201.901
201.953
201.979
202.031
202.057
202.109
202.135
202.188
202.214
202.267
202.293
202.346
202.373
202.426
202.453
202.507
202.534
202.589
202.616
202.672
202.7
202.756
202.785
202.842
202.872
202.93
202.96
203.02
203.051
203.112
203.144
203.207
203.24
203.305
203.338
203.405
203.439
203.508
203.543
203.614
203.65
203.722
203.759
203.833
203.871
203.947
203.985
204.062
204.101
204.18
204.219
204.298
204.338
204.418
204.458
204.538
204.578
204.659
204.698
204.778
204.818
204.898
204.937
205.016
205.055
205.133
205.171
205.248
205.286
205.362
205.4
205.475
205.512
205.585
205.622
205.694
205.73
205.802
205.837
205.907
205.942
206.011
206.046
206.114
206.148
206.215
206.248
206.315
206.348
206.413
206.446
206.511
206.543
206.607
206.639
206.702
206.733
206.796
206.827
206.889
206.92
206.981
207.011
207.072
207.102
207.163
207.192
207.252
207.281
207.341
207.37
207.428
207.457
207.515
207.544
207.602
207.63
207.687
207.716
207.772
207.8
207.857
207.884
207.94
207.968
208.023
208.051
208.106
208.133
208.187
208.214
208.269
208.295
208.349
208.376
208.429
208.456
208.509
208.535
208.588
208.614
208.666
208.692
208.744
208.77
208.822
208.848
208.899
208.925
208.976
209.001
209.052
209.077
209.127
209.153
209.203
209.228
209.278
209.302
209.352
209.377
209.426
209.45
209.499
209.524
209.573
209.597
209.645
209.67
209.718
209.742
209.79
209.814
209.862
209.885
209.936
209.953
210.028
)
;

boundaryField
{
    sides
    {
        type            zeroGradient;
    }
    empty
    {
        type            empty;
    }
}


// ************************************************************************* //
