/*--------------------------------*- C++ -*----------------------------------*\
  =========                 |
  \\      /  F ield         | OpenFOAM: The Open Source CFD Toolbox
   \\    /   O peration     | Website:  https://openfoam.org
    \\  /    A nd           | Version:  9
     \\/     M anipulation  |
\*---------------------------------------------------------------------------*/
FoamFile
{
    format      ascii;
    class       volScalarField;
    location    "0.022";
    object      p;
}
// * * * * * * * * * * * * * * * * * * * * * * * * * * * * * * * * * * * * * //

dimensions      [1 -1 -2 0 0 0 0];

internalField   nonuniform List<scalar> 
100
(
40285.5
40117.3
39882.4
39716.7
39544.9
39370.1
39196.1
39022.8
38850.1
38677.6
38507.1
38334.5
38167.8
37994.5
37829.8
37658.6
37493.4
37327.1
37159.6
36999.4
36835.4
36671
36513
36356.4
36193.2
36035.1
35883.9
35727.5
35571
35416.4
35267
35113.1
34958.2
34803.2
34654.8
34498
34339.6
34176.4
34022.5
33846
33681.8
33497.5
33312.7
33121.1
32916.3
32718.5
32501.9
32289.4
32075.9
31862.3
31665.8
31469.5
31281.5
31117.5
30956
30825.2
30712.9
30613.4
30532.6
30473.1
30428.8
30389.7
30381.3
30374.1
30374.2
30374.7
30375.8
30378.4
30386.7
30388.8
30392.5
30401.3
30404.7
30404.9
30400.8
30424.8
30437.3
30439.8
30418.1
30441.8
30457.7
30445.8
30470
30503.6
30456.8
30436.1
30511.8
30510.1
30443.4
30492.9
30604.2
30676.9
30591.3
30422.5
30588.6
30720.9
30524.3
30426.7
30625.8
30652.6
)
;

boundaryField
{
    sides
    {
        type            zeroGradient;
    }
    empty
    {
        type            empty;
    }
}


// ************************************************************************* //
