/*--------------------------------*- C++ -*----------------------------------*\
  =========                 |
  \\      /  F ield         | OpenFOAM: The Open Source CFD Toolbox
   \\    /   O peration     | Website:  https://openfoam.org
    \\  /    A nd           | Version:  9
     \\/     M anipulation  |
\*---------------------------------------------------------------------------*/
FoamFile
{
    format      ascii;
    class       volScalarField;
    location    "0.022";
    object      p_0;
}
// * * * * * * * * * * * * * * * * * * * * * * * * * * * * * * * * * * * * * //

dimensions      [1 -1 -2 0 0 0 0];

internalField   nonuniform List<scalar> 
100
(
40315.5
40146.9
39911.9
39746
39574
39399
39224.9
39051.3
38878.4
38705.7
38534.9
38362.2
38195.3
38021.8
37856.9
37685.5
37520.1
37353.5
37185.8
37025.5
36861.1
36696.6
36538.4
36381.5
36217.9
36059.6
35908.2
35751.4
35594.6
35439.7
35289.8
35135.5
34980.2
34824.9
34675.6
34518.5
34359.1
34195.3
34040.5
33863
33697.7
33512.1
33326.3
33132.8
32927.2
32727.5
32509.6
32296.1
32081
31866.9
31669.1
31472.1
31283.5
31119
30956.8
30826.3
30713.3
30613.5
30532.8
30473.3
30428.5
30389.6
30381.4
30374.1
30374.1
30374.5
30375.7
30378.3
30386.5
30387.9
30393.7
30401.3
30403.9
30402.7
30402.4
30426.5
30437.2
30435.3
30417.3
30446
30455.9
30444.5
30477.6
30500.3
30446.2
30444.1
30517.8
30497.4
30440.3
30514.3
30611.6
30678.7
30550.3
30426.1
30631.2
30706.4
30486.3
30446
30670.7
30619.4
)
;

boundaryField
{
    sides
    {
        type            zeroGradient;
    }
    empty
    {
        type            empty;
    }
}


// ************************************************************************* //
