/*--------------------------------*- C++ -*----------------------------------*\
  =========                 |
  \\      /  F ield         | OpenFOAM: The Open Source CFD Toolbox
   \\    /   O peration     | Website:  https://openfoam.org
    \\  /    A nd           | Version:  9
     \\/     M anipulation  |
\*---------------------------------------------------------------------------*/
FoamFile
{
    format      ascii;
    class       surfaceScalarField;
    location    "0.022";
    object      phi_0;
}
// * * * * * * * * * * * * * * * * * * * * * * * * * * * * * * * * * * * * * //

dimensions      [1 0 -1 0 0 0 0];

internalField   nonuniform List<scalar> 
99
(
84.3163
95.2117
106.066
116.898
127.7
138.457
149.157
159.794
170.368
180.87
191.318
201.679
212.001
222.25
232.421
242.546
252.574
262.592
272.478
282.271
292.108
301.803
311.311
320.85
330.386
339.666
348.796
358.022
367.108
375.871
384.444
393.242
401.762
409.875
417.619
425.671
433.493
440.622
447.202
453.646
460.379
466.212
471.133
475.239
479.573
483.866
487.076
489.27
490.763
492.582
494.638
496.038
496.585
496.657
496.589
497.235
497.998
498.251
498.147
497.915
497.517
497.422
497.655
497.785
497.799
497.709
497.45
497.306
497.181
496.893
497.399
497.383
497.009
495.992
496.717
497.158
497.106
495.105
495.269
496.601
495.669
495.407
498.133
496.184
492.426
496.477
497.831
492.274
492.063
499.959
502.714
502.06
486.294
490.102
505.116
496.488
483.085
493.518
508.847
)
;

boundaryField
{
    sides
    {
        type            calculated;
        value           nonuniform List<scalar> 2(494.717 -73.2814);
    }
    empty
    {
        type            empty;
        value           nonuniform List<scalar> 0();
    }
}


// ************************************************************************* //
