/*--------------------------------*- C++ -*----------------------------------*\
  =========                 |
  \\      /  F ield         | OpenFOAM: The Open Source CFD Toolbox
   \\    /   O peration     | Website:  https://openfoam.org
    \\  /    A nd           | Version:  9
     \\/     M anipulation  |
\*---------------------------------------------------------------------------*/
FoamFile
{
    format      ascii;
    class       volScalarField;
    location    "0.012";
    object      rho;
}
// * * * * * * * * * * * * * * * * * * * * * * * * * * * * * * * * * * * * * //

dimensions      [1 -3 0 0 0 0 0];

internalField   nonuniform List<scalar> 
10000
(
0.997574
0.997574
0.997574
0.997574
0.997574
0.997574
0.997574
0.997574
0.997574
0.997574
0.997574
0.997574
0.997574
0.997574
0.997574
0.997574
0.997574
0.997574
0.997574
0.997574
0.997574
0.997574
0.997574
0.997574
0.997574
0.997574
0.997574
0.997574
0.997574
0.997574
0.997574
0.997574
0.997574
0.997574
0.997574
0.997574
0.997574
0.997574
0.997574
0.997574
0.997574
0.997574
0.997574
0.997574
0.997574
0.997574
0.997574
0.997574
0.997574
0.997574
0.997574
0.997574
0.997574
0.997574
0.997574
0.997574
0.997574
0.997574
0.997574
0.997574
0.997574
0.997574
0.997574
0.997574
0.997574
0.997574
0.997574
0.997574
0.997574
0.997574
0.997574
0.997574
0.997574
0.997574
0.997574
0.997574
0.997574
0.997574
0.997574
0.997574
0.997574
0.997574
0.997574
0.997574
0.997574
0.997574
0.997574
0.997574
0.997574
0.997574
0.997574
0.997574
0.997574
0.997574
0.997574
0.997574
0.997574
0.997574
0.997574
0.997574
0.997574
0.997574
0.997574
0.997574
0.997574
0.997574
0.997574
0.997574
0.997574
0.997574
0.997574
0.997574
0.997574
0.997574
0.997574
0.997574
0.997574
0.997574
0.997574
0.997574
0.997574
0.997574
0.997574
0.997574
0.997574
0.997574
0.997574
0.997574
0.997574
0.997574
0.997574
0.997574
0.997574
0.997574
0.997574
0.997574
0.997574
0.997574
0.997574
0.997574
0.997574
0.997574
0.997574
0.997574
0.997574
0.997574
0.997574
0.997574
0.997574
0.997574
0.997574
0.997574
0.997574
0.997574
0.997574
0.997574
0.997574
0.997574
0.997574
0.997574
0.997574
0.997574
0.997574
0.997574
0.997574
0.997574
0.997574
0.997574
0.997574
0.997574
0.997574
0.997574
0.997574
0.997574
0.997574
0.997574
0.997574
0.997574
0.997574
0.997574
0.997574
0.997574
0.997574
0.997574
0.997574
0.997574
0.997574
0.997574
0.997574
0.997574
0.997574
0.997574
0.997574
0.997574
0.997574
0.997574
0.997574
0.997574
0.997574
0.997574
0.997574
0.997574
0.997574
0.997574
0.997574
0.997574
0.997574
0.997574
0.997574
0.997574
0.997574
0.997574
0.997574
0.997574
0.997574
0.997574
0.997574
0.997574
0.997574
0.997574
0.997574
0.997574
0.997574
0.997574
0.997574
0.997574
0.997574
0.997574
0.997574
0.997574
0.997574
0.997574
0.997574
0.997574
0.997574
0.997574
0.997574
0.997574
0.997574
0.997574
0.997574
0.997574
0.997574
0.997574
0.997574
0.997574
0.997574
0.997574
0.997574
0.997574
0.997574
0.997574
0.997574
0.997574
0.997574
0.997574
0.997574
0.997574
0.997574
0.997574
0.997574
0.997574
0.997574
0.997574
0.997574
0.997574
0.997574
0.997574
0.997574
0.997574
0.997574
0.997574
0.997574
0.997574
0.997574
0.997574
0.997574
0.997574
0.997574
0.997574
0.997574
0.997574
0.997574
0.997574
0.997574
0.997574
0.997574
0.997574
0.997574
0.997574
0.997574
0.997574
0.997574
0.997574
0.997574
0.997574
0.997574
0.997574
0.997574
0.997574
0.997574
0.997574
0.997574
0.997574
0.997574
0.997574
0.997574
0.997574
0.997574
0.997574
0.997574
0.997574
0.997574
0.997574
0.997574
0.997574
0.997574
0.997574
0.997574
0.997574
0.997574
0.997574
0.997574
0.997574
0.997574
0.997574
0.997574
0.997574
0.997574
0.997574
0.997574
0.997574
0.997574
0.997574
0.997574
0.997574
0.997574
0.997574
0.997574
0.997574
0.997574
0.997574
0.997574
0.997574
0.997574
0.997574
0.997574
0.997574
0.997574
0.997574
0.997574
0.997574
0.997574
0.997574
0.997574
0.997574
0.997574
0.997574
0.997574
0.997574
0.997574
0.997574
0.997574
0.997574
0.997574
0.997574
0.997574
0.997574
0.997574
0.997574
0.997574
0.997574
0.997574
0.997574
0.997574
0.997574
0.997574
0.997574
0.997574
0.997574
0.997574
0.997574
0.997574
0.997574
0.997574
0.997574
0.997574
0.997574
0.997574
0.997574
0.997574
0.997574
0.997574
0.997574
0.997574
0.997574
0.997574
0.997574
0.997574
0.997574
0.997574
0.997574
0.997574
0.997574
0.997574
0.997574
0.997574
0.997574
0.997574
0.997574
0.997574
0.997574
0.997574
0.997574
0.997574
0.997574
0.997574
0.997574
0.997574
0.997574
0.997574
0.997574
0.997574
0.997574
0.997574
0.997574
0.997574
0.997574
0.997574
0.997574
0.997574
0.997574
0.997574
0.997574
0.997574
0.997574
0.997574
0.997574
0.997574
0.997574
0.997573
0.997573
0.997573
0.997573
0.997572
0.997572
0.997572
0.997571
0.99757
0.99757
0.997569
0.997568
0.997566
0.997565
0.997563
0.997561
0.997558
0.997556
0.997552
0.997549
0.997544
0.997539
0.997534
0.997527
0.997519
0.997511
0.997501
0.99749
0.997478
0.997464
0.997448
0.99743
0.997411
0.997389
0.997365
0.997338
0.997309
0.997277
0.997241
0.997203
0.997161
0.997116
0.997067
0.997014
0.996958
0.996898
0.996833
0.996765
0.996692
0.996615
0.996534
0.996449
0.99636
0.996267
0.99617
0.996069
0.995964
0.995855
0.995743
0.995627
0.995508
0.995386
0.995261
0.995133
0.995002
0.994868
0.994732
0.994593
0.994452
0.994309
0.994164
0.994017
0.993868
0.993718
0.993566
0.993412
0.993257
0.993101
0.992944
0.992785
0.992625
0.992465
0.992303
0.992141
0.991977
0.991813
0.991648
0.991483
0.991317
0.99115
0.990982
0.990814
0.990646
0.990477
0.990308
0.990138
0.989967
0.989797
0.989626
0.989455
0.989283
0.989111
0.988939
0.988766
0.988593
0.98842
0.988247
0.988074
0.9879
0.987726
0.987552
0.987378
0.987203
0.987029
0.986854
0.986679
0.986504
0.986329
0.986153
0.985978
0.985802
0.985627
0.985451
0.985275
0.985099
0.984923
0.984747
0.984571
0.984395
0.984218
0.984042
0.983865
0.983689
0.983512
0.983335
0.983159
0.982982
0.982805
0.982628
0.982451
0.982274
0.982097
0.98192
0.981743
0.981566
0.981388
0.981211
0.981034
0.980857
0.980679
0.980502
0.980324
0.980147
0.97997
0.979792
0.979615
0.979437
0.97926
0.979082
0.978904
0.978727
0.978549
0.978372
0.978194
0.978016
0.977839
0.977661
0.977483
0.977305
0.977128
0.97695
0.976772
0.976594
0.976417
0.976239
0.976061
0.975883
0.975705
0.975527
0.97535
0.975172
0.974994
0.974816
0.974638
0.97446
0.974282
0.974105
0.973927
0.973749
0.973571
0.973393
0.973215
0.973037
0.972859
0.972681
0.972503
0.972326
0.972148
0.97197
0.971792
0.971614
0.971436
0.971258
0.97108
0.970902
0.970724
0.970546
0.970369
0.970191
0.970013
0.969835
0.969657
0.969479
0.969301
0.969123
0.968945
0.968767
0.96859
0.968412
0.968234
0.968056
0.967878
0.9677
0.967522
0.967345
0.967167
0.966989
0.966811
0.966633
0.966456
0.966278
0.9661
0.965922
0.965744
0.965567
0.965389
0.965211
0.965033
0.964856
0.964678
0.9645
0.964323
0.964145
0.963967
0.963789
0.963612
0.963434
0.963257
0.963079
0.962901
0.962724
0.962546
0.962368
0.962191
0.962013
0.961836
0.961658
0.961481
0.961303
0.961126
0.960948
0.960771
0.960593
0.960416
0.960238
0.960061
0.959883
0.959706
0.959529
0.959351
0.959174
0.958997
0.958819
0.958642
0.958465
0.958287
0.95811
0.957933
0.957756
0.957578
0.957401
0.957224
0.957047
0.95687
0.956692
0.956515
0.956338
0.956161
0.955984
0.955807
0.95563
0.955453
0.955276
0.955099
0.954922
0.954745
0.954568
0.954391
0.954214
0.954037
0.95386
0.953684
0.953507
0.95333
0.953153
0.952976
0.952799
0.952623
0.952446
0.952269
0.952093
0.951916
0.951739
0.951563
0.951386
0.951209
0.951033
0.950856
0.95068
0.950503
0.950327
0.95015
0.949974
0.949797
0.949621
0.949444
0.949268
0.949092
0.948915
0.948739
0.948563
0.948386
0.94821
0.948034
0.947858
0.947681
0.947505
0.947329
0.947153
0.946977
0.946801
0.946624
0.946448
0.946272
0.946096
0.94592
0.945744
0.945568
0.945392
0.945217
0.945041
0.944865
0.944689
0.944513
0.944337
0.944161
0.943986
0.94381
0.943634
0.943458
0.943283
0.943107
0.942931
0.942756
0.94258
0.942405
0.942229
0.942054
0.941878
0.941703
0.941527
0.941352
0.941176
0.941001
0.940825
0.94065
0.940475
0.940299
0.940124
0.939949
0.939774
0.939598
0.939423
0.939248
0.939073
0.938898
0.938723
0.938547
0.938372
0.938197
0.938022
0.937847
0.937672
0.937497
0.937322
0.937148
0.936973
0.936798
0.936623
0.936448
0.936273
0.936099
0.935924
0.935749
0.935574
0.9354
0.935225
0.93505
0.934876
0.934701
0.934527
0.934352
0.934177
0.934003
0.933829
0.933654
0.93348
0.933305
0.933131
0.932956
0.932782
0.932608
0.932434
0.932259
0.932085
0.931911
0.931737
0.931562
0.931388
0.931214
0.93104
0.930866
0.930692
0.930518
0.930344
0.93017
0.929996
0.929822
0.929648
0.929474
0.9293
0.929126
0.928953
0.928779
0.928605
0.928431
0.928258
0.928084
0.92791
0.927736
0.927563
0.927389
0.927216
0.927042
0.926869
0.926695
0.926522
0.926348
0.926175
0.926001
0.925828
0.925654
0.925481
0.925308
0.925134
0.924961
0.924788
0.924615
0.924441
0.924268
0.924095
0.923922
0.923749
0.923576
0.923403
0.92323
0.923057
0.922884
0.922711
0.922538
0.922365
0.922192
0.922019
0.921846
0.921673
0.921501
0.921328
0.921155
0.920982
0.92081
0.920637
0.920464
0.920292
0.920119
0.919946
0.919774
0.919601
0.919429
0.919256
0.919084
0.918911
0.918739
0.918567
0.918394
0.918222
0.91805
0.917877
0.917705
0.917533
0.917361
0.917188
0.917016
0.916844
0.916672
0.9165
0.916328
0.916156
0.915984
0.915812
0.91564
0.915468
0.915296
0.915124
0.914952
0.91478
0.914608
0.914437
0.914265
0.914093
0.913921
0.91375
0.913578
0.913406
0.913235
0.913063
0.912891
0.91272
0.912548
0.912377
0.912205
0.912034
0.911862
0.911691
0.91152
0.911348
0.911177
0.911006
0.910834
0.910663
0.910492
0.910321
0.910149
0.909978
0.909807
0.909636
0.909465
0.909294
0.909123
0.908952
0.908781
0.90861
0.908439
0.908268
0.908097
0.907926
0.907755
0.907584
0.907414
0.907243
0.907072
0.906901
0.906731
0.90656
0.906389
0.906219
0.906048
0.905877
0.905707
0.905536
0.905366
0.905195
0.905025
0.904854
0.904684
0.904514
0.904343
0.904173
0.904003
0.903832
0.903662
0.903492
0.903322
0.903151
0.902981
0.902811
0.902641
0.902471
0.902301
0.902131
0.901961
0.901791
0.901621
0.901451
0.901281
0.901111
0.900941
0.900771
0.900601
0.900432
0.900262
0.900092
0.899922
0.899753
0.899583
0.899413
0.899244
0.899074
0.898905
0.898735
0.898565
0.898396
0.898227
0.898057
0.897888
0.897718
0.897549
0.897379
0.89721
0.897041
0.896872
0.896702
0.896533
0.896364
0.896195
0.896026
0.895856
0.895687
0.895518
0.895349
0.89518
0.895011
0.894842
0.894673
0.894504
0.894335
0.894166
0.893998
0.893829
0.89366
0.893491
0.893322
0.893154
0.892985
0.892816
0.892648
0.892479
0.89231
0.892142
0.891973
0.891805
0.891636
0.891468
0.891299
0.891131
0.890962
0.890794
0.890626
0.890457
0.890289
0.890121
0.889952
0.889784
0.889616
0.889448
0.88928
0.889111
0.888943
0.888775
0.888607
0.888439
0.888271
0.888103
0.887935
0.887767
0.887599
0.887431
0.887263
0.887096
0.886928
0.88676
0.886592
0.886424
0.886257
0.886089
0.885921
0.885754
0.885586
0.885418
0.885251
0.885083
0.884916
0.884748
0.884581
0.884413
0.884246
0.884079
0.883911
0.883744
0.883576
0.883409
0.883242
0.883075
0.882907
0.88274
0.882573
0.882406
0.882239
0.882072
0.881905
0.881737
0.88157
0.881403
0.881236
0.881069
0.880903
0.880736
0.880569
0.880402
0.880235
0.880068
0.879901
0.879735
0.879568
0.879401
0.879235
0.879068
0.878901
0.878735
0.878568
0.878401
0.878235
0.878068
0.877902
0.877735
0.877569
0.877403
0.877236
0.87707
0.876904
0.876737
0.876571
0.876405
0.876238
0.876072
0.875906
0.87574
0.875574
0.875408
0.875241
0.875075
0.874909
0.874743
0.874577
0.874411
0.874245
0.874079
0.873914
0.873748
0.873582
0.873416
0.87325
0.873084
0.872919
0.872753
0.872587
0.872422
0.872256
0.87209
0.871925
0.871759
0.871594
0.871428
0.871263
0.871097
0.870932
0.870766
0.870601
0.870435
0.87027
0.870105
0.869939
0.869774
0.869609
0.869444
0.869278
0.869113
0.868948
0.868783
0.868618
0.868453
0.868288
0.868123
0.867958
0.867793
0.867628
0.867463
0.867298
0.867133
0.866968
0.866803
0.866639
0.866474
0.866309
0.866144
0.86598
0.865815
0.86565
0.865486
0.865321
0.865156
0.864992
0.864827
0.864663
0.864498
0.864334
0.864169
0.864005
0.86384
0.863676
0.863512
0.863347
0.863183
0.863019
0.862855
0.86269
0.862526
0.862362
0.862198
0.862034
0.86187
0.861706
0.861542
0.861377
0.861213
0.86105
0.860886
0.860722
0.860558
0.860394
0.86023
0.860066
0.859902
0.859739
0.859575
0.859411
0.859247
0.859084
0.85892
0.858756
0.858593
0.858429
0.858266
0.858102
0.857939
0.857775
0.857612
0.857448
0.857285
0.857121
0.856958
0.856795
0.856631
0.856468
0.856305
0.856142
0.855978
0.855815
0.855652
0.855489
0.855326
0.855163
0.855
0.854837
0.854674
0.854511
0.854348
0.854185
0.854022
0.853859
0.853696
0.853533
0.85337
0.853207
0.853045
0.852882
0.852719
0.852557
0.852394
0.852231
0.852069
0.851906
0.851743
0.851581
0.851418
0.851256
0.851093
0.850931
0.850768
0.850606
0.850444
0.850281
0.850119
0.849957
0.849794
0.849632
0.84947
0.849308
0.849145
0.848983
0.848821
0.848659
0.848497
0.848335
0.848173
0.848011
0.847849
0.847687
0.847525
0.847363
0.847201
0.847039
0.846877
0.846716
0.846554
0.846392
0.84623
0.846069
0.845907
0.845745
0.845584
0.845422
0.84526
0.845099
0.844937
0.844776
0.844614
0.844453
0.844291
0.84413
0.843968
0.843807
0.843646
0.843484
0.843323
0.843162
0.843001
0.842839
0.842678
0.842517
0.842356
0.842195
0.842033
0.841872
0.841711
0.84155
0.841389
0.841228
0.841067
0.840906
0.840745
0.840585
0.840424
0.840263
0.840102
0.839941
0.83978
0.83962
0.839459
0.839298
0.839138
0.838977
0.838816
0.838656
0.838495
0.838335
0.838174
0.838014
0.837853
0.837693
0.837532
0.837372
0.837211
0.837051
0.836891
0.83673
0.83657
0.83641
0.83625
0.836089
0.835929
0.835769
0.835609
0.835449
0.835289
0.835129
0.834969
0.834809
0.834649
0.834489
0.834329
0.834169
0.834009
0.833849
0.833689
0.833529
0.83337
0.83321
0.83305
0.83289
0.832731
0.832571
0.832411
0.832252
0.832092
0.831932
0.831773
0.831613
0.831454
0.831294
0.831135
0.830976
0.830816
0.830657
0.830497
0.830338
0.830179
0.830019
0.82986
0.829701
0.829542
0.829383
0.829223
0.829064
0.828905
0.828746
0.828587
0.828428
0.828269
0.82811
0.827951
0.827792
0.827633
0.827474
0.827315
0.827156
0.826998
0.826839
0.82668
0.826521
0.826362
0.826204
0.826045
0.825886
0.825728
0.825569
0.825411
0.825252
0.825093
0.824935
0.824776
0.824618
0.82446
0.824301
0.824143
0.823984
0.823826
0.823668
0.823509
0.823351
0.823193
0.823035
0.822876
0.822718
0.82256
0.822402
0.822244
0.822086
0.821928
0.82177
0.821612
0.821454
0.821296
0.821138
0.82098
0.820822
0.820664
0.820506
0.820349
0.820191
0.820033
0.819875
0.819718
0.81956
0.819402
0.819244
0.819087
0.818929
0.818772
0.818614
0.818457
0.818299
0.818142
0.817984
0.817827
0.817669
0.817512
0.817355
0.817197
0.81704
0.816883
0.816725
0.816568
0.816411
0.816254
0.816097
0.815939
0.815782
0.815625
0.815468
0.815311
0.815154
0.814997
0.81484
0.814683
0.814526
0.814369
0.814213
0.814056
0.813899
0.813742
0.813585
0.813428
0.813272
0.813115
0.812958
0.812802
0.812645
0.812488
0.812332
0.812175
0.812019
0.811862
0.811706
0.811549
0.811393
0.811236
0.81108
0.810924
0.810767
0.810611
0.810455
0.810298
0.810142
0.809986
0.80983
0.809674
0.809517
0.809361
0.809205
0.809049
0.808893
0.808737
0.808581
0.808425
0.808269
0.808113
0.807957
0.807801
0.807645
0.80749
0.807334
0.807178
0.807022
0.806866
0.806711
0.806555
0.806399
0.806244
0.806088
0.805932
0.805777
0.805621
0.805466
0.80531
0.805155
0.804999
0.804844
0.804688
0.804533
0.804378
0.804222
0.804067
0.803912
0.803756
0.803601
0.803446
0.803291
0.803136
0.80298
0.802825
0.80267
0.802515
0.80236
0.802205
0.80205
0.801895
0.80174
0.801585
0.80143
0.801275
0.80112
0.800966
0.800811
0.800656
0.800501
0.800346
0.800192
0.800037
0.799882
0.799728
0.799573
0.799418
0.799264
0.799109
0.798955
0.7988
0.798646
0.798491
0.798337
0.798182
0.798028
0.797874
0.797719
0.797565
0.797411
0.797256
0.797102
0.796948
0.796794
0.79664
0.796485
0.796331
0.796177
0.796023
0.795869
0.795715
0.795561
0.795407
0.795253
0.795099
0.794945
0.794791
0.794637
0.794484
0.79433
0.794176
0.794022
0.793868
0.793715
0.793561
0.793407
0.793254
0.7931
0.792946
0.792793
0.792639
0.792486
0.792332
0.792179
0.792025
0.791872
0.791718
0.791565
0.791412
0.791258
0.791105
0.790952
0.790798
0.790645
0.790492
0.790339
0.790185
0.790032
0.789879
0.789726
0.789573
0.78942
0.789267
0.789114
0.788961
0.788808
0.788655
0.788502
0.788349
0.788196
0.788043
0.787891
0.787738
0.787585
0.787432
0.787279
0.787127
0.786974
0.786821
0.786669
0.786516
0.786364
0.786211
0.786058
0.785906
0.785753
0.785601
0.785448
0.785296
0.785144
0.784991
0.784839
0.784687
0.784534
0.784382
0.78423
0.784077
0.783925
0.783773
0.783621
0.783469
0.783317
0.783165
0.783012
0.78286
0.782708
0.782556
0.782404
0.782252
0.782101
0.781949
0.781797
0.781645
0.781493
0.781341
0.781189
0.781038
0.780886
0.780734
0.780582
0.780431
0.780279
0.780128
0.779976
0.779824
0.779673
0.779521
0.77937
0.779218
0.779067
0.778915
0.778764
0.778613
0.778461
0.77831
0.778158
0.778007
0.777856
0.777705
0.777553
0.777402
0.777251
0.7771
0.776949
0.776798
0.776647
0.776495
0.776344
0.776193
0.776042
0.775891
0.775741
0.77559
0.775439
0.775288
0.775137
0.774986
0.774835
0.774685
0.774534
0.774383
0.774232
0.774082
0.773931
0.77378
0.77363
0.773479
0.773329
0.773178
0.773027
0.772877
0.772726
0.772576
0.772426
0.772275
0.772125
0.771974
0.771824
0.771674
0.771523
0.771373
0.771223
0.771073
0.770923
0.770772
0.770622
0.770472
0.770322
0.770172
0.770022
0.769872
0.769722
0.769572
0.769422
0.769272
0.769122
0.768972
0.768822
0.768672
0.768523
0.768373
0.768223
0.768073
0.767923
0.767774
0.767624
0.767474
0.767325
0.767175
0.767026
0.766876
0.766726
0.766577
0.766427
0.766278
0.766128
0.765979
0.76583
0.76568
0.765531
0.765382
0.765232
0.765083
0.764934
0.764784
0.764635
0.764486
0.764337
0.764188
0.764039
0.763889
0.76374
0.763591
0.763442
0.763293
0.763144
0.762995
0.762846
0.762697
0.762548
0.7624
0.762251
0.762102
0.761953
0.761804
0.761656
0.761507
0.761358
0.761209
0.761061
0.760912
0.760764
0.760615
0.760466
0.760318
0.760169
0.760021
0.759872
0.759724
0.759575
0.759427
0.759279
0.75913
0.758982
0.758834
0.758685
0.758537
0.758389
0.758241
0.758092
0.757944
0.757796
0.757648
0.7575
0.757352
0.757204
0.757056
0.756908
0.75676
0.756612
0.756464
0.756316
0.756168
0.75602
0.755872
0.755724
0.755576
0.755429
0.755281
0.755133
0.754985
0.754838
0.75469
0.754542
0.754395
0.754247
0.7541
0.753952
0.753805
0.753657
0.75351
0.753362
0.753215
0.753067
0.75292
0.752772
0.752625
0.752478
0.75233
0.752183
0.752036
0.751889
0.751741
0.751594
0.751447
0.7513
0.751153
0.751006
0.750859
0.750712
0.750565
0.750418
0.750271
0.750124
0.749977
0.74983
0.749683
0.749536
0.749389
0.749242
0.749096
0.748949
0.748802
0.748655
0.748509
0.748362
0.748215
0.748069
0.747922
0.747775
0.747629
0.747482
0.747336
0.747189
0.747043
0.746896
0.74675
0.746604
0.746457
0.746311
0.746164
0.746018
0.745872
0.745726
0.745579
0.745433
0.745287
0.745141
0.744995
0.744848
0.744702
0.744556
0.74441
0.744264
0.744118
0.743972
0.743826
0.74368
0.743534
0.743388
0.743243
0.743097
0.742951
0.742805
0.742659
0.742513
0.742368
0.742222
0.742076
0.741931
0.741785
0.741639
0.741494
0.741348
0.741203
0.741057
0.740912
0.740766
0.740621
0.740475
0.74033
0.740184
0.740039
0.739894
0.739748
0.739603
0.739458
0.739312
0.739167
0.739022
0.738877
0.738732
0.738586
0.738441
0.738296
0.738151
0.738006
0.737861
0.737716
0.737571
0.737426
0.737281
0.737136
0.736991
0.736846
0.736702
0.736557
0.736412
0.736267
0.736122
0.735978
0.735833
0.735688
0.735544
0.735399
0.735254
0.73511
0.734965
0.73482
0.734676
0.734531
0.734387
0.734242
0.734098
0.733954
0.733809
0.733665
0.73352
0.733376
0.733232
0.733088
0.732943
0.732799
0.732655
0.732511
0.732366
0.732222
0.732078
0.731934
0.73179
0.731646
0.731502
0.731358
0.731214
0.73107
0.730926
0.730782
0.730638
0.730494
0.73035
0.730207
0.730063
0.729919
0.729775
0.729631
0.729488
0.729344
0.7292
0.729057
0.728913
0.728769
0.728626
0.728482
0.728339
0.728195
0.728052
0.727908
0.727765
0.727621
0.727478
0.727335
0.727191
0.727048
0.726905
0.726761
0.726618
0.726475
0.726332
0.726188
0.726045
0.725902
0.725759
0.725616
0.725473
0.72533
0.725187
0.725044
0.724901
0.724758
0.724615
0.724472
0.724329
0.724186
0.724043
0.7239
0.723757
0.723615
0.723472
0.723329
0.723186
0.723044
0.722901
0.722758
0.722616
0.722473
0.722331
0.722188
0.722045
0.721903
0.72176
0.721618
0.721475
0.721333
0.721191
0.721048
0.720906
0.720764
0.720621
0.720479
0.720337
0.720194
0.720052
0.71991
0.719768
0.719626
0.719483
0.719341
0.719199
0.719057
0.718915
0.718773
0.718631
0.718489
0.718347
0.718205
0.718063
0.717921
0.717779
0.717638
0.717496
0.717354
0.717212
0.71707
0.716929
0.716787
0.716645
0.716504
0.716362
0.71622
0.716079
0.715937
0.715796
0.715654
0.715513
0.715371
0.71523
0.715088
0.714947
0.714805
0.714664
0.714523
0.714381
0.71424
0.714099
0.713957
0.713816
0.713675
0.713534
0.713392
0.713251
0.71311
0.712969
0.712828
0.712687
0.712546
0.712405
0.712264
0.712123
0.711982
0.711841
0.7117
0.711559
0.711418
0.711277
0.711137
0.710996
0.710855
0.710714
0.710574
0.710433
0.710292
0.710152
0.710011
0.70987
0.70973
0.709589
0.709449
0.709308
0.709167
0.709027
0.708887
0.708746
0.708606
0.708465
0.708325
0.708185
0.708044
0.707904
0.707764
0.707623
0.707483
0.707343
0.707203
0.707062
0.706922
0.706782
0.706642
0.706502
0.706362
0.706222
0.706082
0.705942
0.705802
0.705662
0.705522
0.705382
0.705242
0.705102
0.704962
0.704823
0.704683
0.704543
0.704403
0.704264
0.704124
0.703984
0.703845
0.703705
0.703565
0.703426
0.703286
0.703147
0.703007
0.702867
0.702728
0.702589
0.702449
0.70231
0.70217
0.702031
0.701892
0.701752
0.701613
0.701474
0.701334
0.701195
0.701056
0.700917
0.700777
0.700638
0.700499
0.70036
0.700221
0.700082
0.699943
0.699804
0.699665
0.699526
0.699387
0.699248
0.699109
0.69897
0.698831
0.698692
0.698554
0.698415
0.698276
0.698137
0.697998
0.69786
0.697721
0.697582
0.697444
0.697305
0.697167
0.697028
0.696889
0.696751
0.696612
0.696474
0.696335
0.696197
0.696058
0.69592
0.695782
0.695643
0.695505
0.695367
0.695228
0.69509
0.694952
0.694814
0.694675
0.694537
0.694399
0.694261
0.694123
0.693985
0.693847
0.693709
0.693571
0.693432
0.693295
0.693157
0.693019
0.692881
0.692743
0.692605
0.692467
0.692329
0.692191
0.692054
0.691916
0.691778
0.69164
0.691503
0.691365
0.691227
0.69109
0.690952
0.690814
0.690677
0.690539
0.690402
0.690264
0.690127
0.689989
0.689852
0.689714
0.689577
0.68944
0.689302
0.689165
0.689028
0.68889
0.688753
0.688616
0.688479
0.688342
0.688204
0.688067
0.68793
0.687793
0.687656
0.687519
0.687382
0.687245
0.687108
0.686971
0.686834
0.686697
0.68656
0.686423
0.686286
0.686149
0.686012
0.685876
0.685739
0.685602
0.685465
0.685329
0.685192
0.685055
0.684919
0.684782
0.684645
0.684509
0.684372
0.684236
0.684099
0.683963
0.683826
0.68369
0.683553
0.683417
0.68328
0.683144
0.683008
0.682871
0.682735
0.682599
0.682463
0.682326
0.68219
0.682054
0.681918
0.681782
0.681645
0.681509
0.681373
0.681237
0.681101
0.680965
0.680829
0.680693
0.680557
0.680421
0.680285
0.680149
0.680014
0.679878
0.679742
0.679606
0.67947
0.679335
0.679199
0.679063
0.678927
0.678792
0.678656
0.67852
0.678385
0.678249
0.678114
0.677978
0.677843
0.677707
0.677572
0.677436
0.677301
0.677165
0.67703
0.676895
0.676759
0.676624
0.676489
0.676353
0.676218
0.676083
0.675948
0.675812
0.675677
0.675542
0.675407
0.675272
0.675137
0.675002
0.674867
0.674732
0.674597
0.674462
0.674327
0.674192
0.674057
0.673922
0.673787
0.673652
0.673517
0.673383
0.673248
0.673113
0.672978
0.672844
0.672709
0.672574
0.672439
0.672305
0.67217
0.672036
0.671901
0.671767
0.671632
0.671497
0.671363
0.671229
0.671094
0.67096
0.670825
0.670691
0.670557
0.670422
0.670288
0.670154
0.670019
0.669885
0.669751
0.669617
0.669482
0.669348
0.669214
0.66908
0.668946
0.668812
0.668678
0.668544
0.66841
0.668276
0.668142
0.668008
0.667874
0.66774
0.667606
0.667472
0.667338
0.667205
0.667071
0.666937
0.666803
0.66667
0.666536
0.666402
0.666269
0.666135
0.666001
0.665868
0.665734
0.665601
0.665467
0.665333
0.6652
0.665067
0.664933
0.6648
0.664666
0.664533
0.664399
0.664266
0.664133
0.664
0.663866
0.663733
0.6636
0.663467
0.663333
0.6632
0.663067
0.662934
0.662801
0.662668
0.662535
0.662402
0.662269
0.662136
0.662003
0.66187
0.661737
0.661604
0.661471
0.661338
0.661205
0.661072
0.660939
0.660807
0.660674
0.660541
0.660408
0.660276
0.660143
0.66001
0.659878
0.659745
0.659613
0.65948
0.659347
0.659215
0.659082
0.65895
0.658817
0.658685
0.658553
0.65842
0.658288
0.658155
0.658023
0.657891
0.657758
0.657626
0.657494
0.657362
0.657229
0.657097
0.656965
0.656833
0.656701
0.656569
0.656437
0.656305
0.656173
0.656041
0.655909
0.655777
0.655645
0.655513
0.655381
0.655249
0.655117
0.654985
0.654853
0.654722
0.65459
0.654458
0.654326
0.654194
0.654063
0.653931
0.653799
0.653668
0.653536
0.653405
0.653273
0.653141
0.65301
0.652878
0.652747
0.652615
0.652484
0.652353
0.652221
0.65209
0.651958
0.651827
0.651696
0.651565
0.651433
0.651302
0.651171
0.65104
0.650908
0.650777
0.650646
0.650515
0.650384
0.650253
0.650122
0.649991
0.64986
0.649729
0.649598
0.649467
0.649336
0.649205
0.649074
0.648943
0.648812
0.648681
0.648551
0.64842
0.648289
0.648158
0.648027
0.647897
0.647766
0.647635
0.647505
0.647374
0.647244
0.647113
0.646982
0.646852
0.646721
0.646591
0.64646
0.64633
0.6462
0.646069
0.645939
0.645808
0.645678
0.645548
0.645417
0.645287
0.645157
0.645027
0.644896
0.644766
0.644636
0.644506
0.644376
0.644246
0.644116
0.643985
0.643855
0.643725
0.643595
0.643465
0.643335
0.643205
0.643076
0.642946
0.642816
0.642686
0.642556
0.642426
0.642296
0.642167
0.642037
0.641907
0.641777
0.641648
0.641518
0.641388
0.641259
0.641129
0.641
0.64087
0.64074
0.640611
0.640481
0.640352
0.640223
0.640093
0.639964
0.639834
0.639705
0.639576
0.639446
0.639317
0.639188
0.639058
0.638929
0.6388
0.638671
0.638541
0.638412
0.638283
0.638154
0.638025
0.637896
0.637767
0.637638
0.637509
0.63738
0.637251
0.637122
0.636993
0.636864
0.636735
0.636606
0.636477
0.636348
0.63622
0.636091
0.635962
0.635833
0.635705
0.635576
0.635447
0.635318
0.63519
0.635061
0.634933
0.634804
0.634675
0.634547
0.634418
0.63429
0.634161
0.634033
0.633905
0.633776
0.633648
0.633519
0.633391
0.633263
0.633134
0.633006
0.632878
0.63275
0.632621
0.632493
0.632365
0.632237
0.632109
0.63198
0.631852
0.631724
0.631596
0.631468
0.63134
0.631212
0.631084
0.630956
0.630828
0.6307
0.630572
0.630445
0.630317
0.630189
0.630061
0.629933
0.629806
0.629678
0.62955
0.629422
0.629295
0.629167
0.629039
0.628912
0.628784
0.628657
0.628529
0.628401
0.628274
0.628146
0.628019
0.627891
0.627764
0.627637
0.627509
0.627382
0.627255
0.627127
0.627
0.626873
0.626745
0.626618
0.626491
0.626364
0.626236
0.626109
0.625982
0.625855
0.625728
0.625601
0.625474
0.625347
0.62522
0.625093
0.624966
0.624839
0.624712
0.624585
0.624458
0.624331
0.624204
0.624077
0.623951
0.623824
0.623697
0.62357
0.623444
0.623317
0.62319
0.623063
0.622937
0.62281
0.622684
0.622557
0.62243
0.622304
0.622177
0.622051
0.621925
0.621798
0.621672
0.621545
0.621419
0.621292
0.621167
0.621039
0.620914
0.620786
0.620662
0.620532
0.62041
0.620279
0.620159
0.620026
0.619908
0.619772
0.619657
0.619519
0.619406
0.619266
0.619155
0.619013
0.618903
0.61876
0.618651
0.618509
0.618399
0.618258
0.618145
0.618009
0.617891
0.61776
0.617637
0.617511
0.617382
0.617263
0.617128
0.617013
0.616876
0.616762
0.616625
0.61651
0.616376
0.616256
0.616128
0.616002
0.61588
0.615748
0.615631
0.615496
0.615381
0.615246
0.615128
0.614998
0.614874
0.614751
0.61462
0.614503
0.614368
0.614252
0.614119
0.614
0.613871
0.613746
0.613624
0.613493
0.613376
0.613242
0.613125
0.612994
0.612872
0.612748
0.612619
0.6125
0.612368
0.61225
0.61212
0.611998
0.611873
0.611745
0.611626
0.611494
0.611376
0.611246
0.611124
0.611
0.610872
0.610753
0.610622
0.610503
0.610374
0.610251
0.610128
0.609999
0.609881
0.60975
0.60963
0.609504
0.609378
0.609258
0.609128
0.609009
0.60888
0.608758
0.608635
0.608507
0.608388
0.608258
0.608138
0.608012
0.607887
0.607766
0.607637
0.607518
0.607391
0.607267
0.607145
0.607017
0.606898
0.60677
0.606648
0.606525
0.606397
0.606278
0.60615
0.606028
0.605905
0.605778
0.605659
0.60553
0.60541
0.605285
0.605159
0.60504
0.604912
0.604791
0.604667
0.604541
0.604421
0.604294
0.604173
0.604049
0.603923
0.603803
0.603676
0.603555
0.603431
0.603306
0.603186
0.603059
0.602938
0.602815
0.602689
0.602569
0.602443
0.602321
0.602198
0.602073
0.601953
0.601827
0.601705
0.601583
0.601457
0.601337
0.601212
0.601089
0.600968
0.600841
0.600721
0.600597
0.600473
0.600353
0.600227
0.600106
0.599983
0.599858
0.599738
0.599613
0.599491
0.599369
0.599244
0.599124
0.599
0.598877
0.598756
0.598631
0.59851
0.598387
0.598263
0.598143
0.598018
0.597896
0.597775
0.59765
0.59753
0.597407
0.597283
0.597163
0.597038
0.596917
0.596795
0.596671
0.596551
0.596427
0.596304
0.596184
0.59606
0.595939
0.595817
0.595693
0.595573
0.59545
0.595327
0.595207
0.595083
0.594962
0.59484
0.594716
0.594596
0.594473
0.594351
0.594231
0.594107
0.593986
0.593865
0.593741
0.593621
0.593498
0.593376
0.593256
0.593132
0.593011
0.59289
0.592767
0.592646
0.592525
0.592402
0.592282
0.592159
0.592037
0.591917
0.591794
0.591673
0.591553
0.59143
0.591309
0.591188
0.591065
0.590946
0.590823
0.590702
0.590582
0.590459
0.590338
0.590217
0.590095
0.589975
0.589853
0.589731
0.589611
0.589489
0.589368
0.589248
0.589126
0.589005
0.588885
0.588762
0.588642
0.588521
0.588399
0.58828
0.588158
0.588037
0.587917
0.587795
0.587674
0.587554
0.587433
0.587312
0.587192
0.58707
0.58695
0.58683
0.586708
0.586588
0.586467
0.586346
0.586226
0.586105
0.585984
0.585865
0.585743
0.585623
0.585503
0.585382
0.585262
0.585142
0.58502
0.584901
0.58478
0.584659
0.58454
0.584419
0.584298
0.584179
0.584058
0.583938
0.583818
0.583698
0.583577
0.583458
0.583337
0.583217
0.583097
0.582977
0.582857
0.582737
0.582616
0.582497
0.582377
0.582256
0.582137
0.582017
0.581897
0.581777
0.581658
0.581537
0.581418
0.581298
0.581178
0.581059
0.580939
0.580818
0.5807
0.58058
0.580459
0.580341
0.580221
0.580101
0.579982
0.579862
0.579742
0.579623
0.579503
0.579384
0.579265
0.579145
0.579025
0.578906
0.578786
0.578667
0.578548
0.578428