/*--------------------------------*- C++ -*----------------------------------*\
  =========                 |
  \\      /  F ield         | OpenFOAM: The Open Source CFD Toolbox
   \\    /   O peration     | Website:  https://openfoam.org
    \\  /    A nd           | Version:  9
     \\/     M anipulation  |
\*---------------------------------------------------------------------------*/
FoamFile
{
    format      ascii;
    class       volScalarField;
    location    "0.012";
    object      rho_0;
}
// * * * * * * * * * * * * * * * * * * * * * * * * * * * * * * * * * * * * * //

dimensions      [1 -3 0 0 0 0 0];

internalField   nonuniform List<scalar> 
10000
(
0.997574
0.997574
0.997574
0.997574
0.997574
0.997574
0.997574
0.997574
0.997574
0.997574
0.997574
0.997574
0.997574
0.997574
0.997574
0.997574
0.997574
0.997574
0.997574
0.997574
0.997574
0.997574
0.997574
0.997574
0.997574
0.997574
0.997574
0.997574
0.997574
0.997574
0.997574
0.997574
0.997574
0.997574
0.997574
0.997574
0.997574
0.997574
0.997574
0.997574
0.997574
0.997574
0.997574
0.997574
0.997574
0.997574
0.997574
0.997574
0.997574
0.997574
0.997574
0.997574
0.997574
0.997574
0.997574
0.997574
0.997574
0.997574
0.997574
0.997574
0.997574
0.997574
0.997574
0.997574
0.997574
0.997574
0.997574
0.997574
0.997574
0.997574
0.997574
0.997574
0.997574
0.997574
0.997574
0.997574
0.997574
0.997574
0.997574
0.997574
0.997574
0.997574
0.997574
0.997574
0.997574
0.997574
0.997574
0.997574
0.997574
0.997574
0.997574
0.997574
0.997574
0.997574
0.997574
0.997574
0.997574
0.997574
0.997574
0.997574
0.997574
0.997574
0.997574
0.997574
0.997574
0.997574
0.997574
0.997574
0.997574
0.997574
0.997574
0.997574
0.997574
0.997574
0.997574
0.997574
0.997574
0.997574
0.997574
0.997574
0.997574
0.997574
0.997574
0.997574
0.997574
0.997574
0.997574
0.997574
0.997574
0.997574
0.997574
0.997574
0.997574
0.997574
0.997574
0.997574
0.997574
0.997574
0.997574
0.997574
0.997574
0.997574
0.997574
0.997574
0.997574
0.997574
0.997574
0.997574
0.997574
0.997574
0.997574
0.997574
0.997574
0.997574
0.997574
0.997574
0.997574
0.997574
0.997574
0.997574
0.997574
0.997574
0.997574
0.997574
0.997574
0.997574
0.997574
0.997574
0.997574
0.997574
0.997574
0.997574
0.997574
0.997574
0.997574
0.997574
0.997574
0.997574
0.997574
0.997574
0.997574
0.997574
0.997574
0.997574
0.997574
0.997574
0.997574
0.997574
0.997574
0.997574
0.997574
0.997574
0.997574
0.997574
0.997574
0.997574
0.997574
0.997574
0.997574
0.997574
0.997574
0.997574
0.997574
0.997574
0.997574
0.997574
0.997574
0.997574
0.997574
0.997574
0.997574
0.997574
0.997574
0.997574
0.997574
0.997574
0.997574
0.997574
0.997574
0.997574
0.997574
0.997574
0.997574
0.997574
0.997574
0.997574
0.997574
0.997574
0.997574
0.997574
0.997574
0.997574
0.997574
0.997574
0.997574
0.997574
0.997574
0.997574
0.997574
0.997574
0.997574
0.997574
0.997574
0.997574
0.997574
0.997574
0.997574
0.997574
0.997574
0.997574
0.997574
0.997574
0.997574
0.997574
0.997574
0.997574
0.997574
0.997574
0.997574
0.997574
0.997574
0.997574
0.997574
0.997574
0.997574
0.997574
0.997574
0.997574
0.997574
0.997574
0.997574
0.997574
0.997574
0.997574
0.997574
0.997574
0.997574
0.997574
0.997574
0.997574
0.997574
0.997574
0.997574
0.997574
0.997574
0.997574
0.997574
0.997574
0.997574
0.997574
0.997574
0.997574
0.997574
0.997574
0.997574
0.997574
0.997574
0.997574
0.997574
0.997574
0.997574
0.997574
0.997574
0.997574
0.997574
0.997574
0.997574
0.997574
0.997574
0.997574
0.997574
0.997574
0.997574
0.997574
0.997574
0.997574
0.997574
0.997574
0.997574
0.997574
0.997574
0.997574
0.997574
0.997574
0.997574
0.997574
0.997574
0.997574
0.997574
0.997574
0.997574
0.997574
0.997574
0.997574
0.997574
0.997574
0.997574
0.997574
0.997574
0.997574
0.997574
0.997574
0.997574
0.997574
0.997574
0.997574
0.997574
0.997574
0.997574
0.997574
0.997574
0.997574
0.997574
0.997574
0.997574
0.997574
0.997574
0.997574
0.997574
0.997574
0.997574
0.997574
0.997574
0.997574
0.997574
0.997574
0.997574
0.997574
0.997574
0.997574
0.997574
0.997574
0.997574
0.997574
0.997574
0.997574
0.997574
0.997574
0.997574
0.997574
0.997574
0.997574
0.997574
0.997574
0.997574
0.997574
0.997574
0.997574
0.997574
0.997574
0.997574
0.997574
0.997574
0.997574
0.997574
0.997574
0.997574
0.997574
0.997574
0.997574
0.997574
0.997574
0.997574
0.997574
0.997574
0.997574
0.997574
0.997574
0.997574
0.997574
0.997574
0.997574
0.997574
0.997574
0.997574
0.997574
0.997574
0.997574
0.997574
0.997574
0.997574
0.997574
0.997574
0.997574
0.997574
0.997574
0.997574
0.997574
0.997574
0.997574
0.997574
0.997574
0.997574
0.997574
0.997574
0.997574
0.997574
0.997574
0.997574
0.997574
0.997573
0.997573
0.997573
0.997573
0.997573
0.997572
0.997572
0.997571
0.997571
0.99757
0.997569
0.997568
0.997567
0.997565
0.997564
0.997562
0.997559
0.997557
0.997554
0.99755
0.997546
0.997541
0.997536
0.99753
0.997522
0.997514
0.997505
0.997494
0.997482
0.997469
0.997454
0.997437
0.997418
0.997397
0.997374
0.997349
0.99732
0.997289
0.997255
0.997218
0.997177
0.997133
0.997086
0.997035
0.99698
0.996921
0.996858
0.996791
0.99672
0.996644
0.996565
0.996482
0.996394
0.996302
0.996207
0.996107
0.996003
0.995896
0.995785
0.995671
0.995553
0.995432
0.995308
0.995181
0.995051
0.994918
0.994783
0.994645
0.994505
0.994363
0.994218
0.994072
0.993924
0.993774
0.993623
0.99347
0.993315
0.993159
0.993002
0.992844
0.992685
0.992525
0.992363
0.992201
0.992038
0.991874
0.99171
0.991544
0.991378
0.991212
0.991045
0.990877
0.990709
0.99054
0.990371
0.990201
0.990031
0.98986
0.989689
0.989518
0.989347
0.989175
0.989003
0.98883
0.988657
0.988484
0.988311
0.988138
0.987964
0.98779
0.987616
0.987442
0.987268
0.987093
0.986918
0.986744
0.986569
0.986393
0.986218
0.986043
0.985867
0.985692
0.985516
0.98534
0.985164
0.984988
0.984812
0.984636
0.98446
0.984283
0.984107
0.98393
0.983754
0.983577
0.9834
0.983224
0.983047
0.98287
0.982693
0.982516
0.982339
0.982162
0.981985
0.981808
0.981631
0.981454
0.981276
0.981099
0.980922
0.980744
0.980567
0.98039
0.980212
0.980035
0.979857
0.97968
0.979502
0.979325
0.979147
0.978969
0.978792
0.978614
0.978437
0.978259
0.978081
0.977904
0.977726
0.977548
0.97737
0.977193
0.977015
0.976837
0.976659
0.976481
0.976304
0.976126
0.975948
0.97577
0.975592
0.975414
0.975237
0.975059
0.974881
0.974703
0.974525
0.974347
0.974169
0.973991
0.973813
0.973636
0.973458
0.97328
0.973102
0.972924
0.972746
0.972568
0.97239
0.972212
0.972034
0.971856
0.971678
0.971501
0.971323
0.971145
0.970967
0.970789
0.970611
0.970433
0.970255
0.970077
0.969899
0.969721
0.969543
0.969366
0.969188
0.96901
0.968832
0.968654
0.968476
0.968298
0.96812
0.967942
0.967765
0.967587
0.967409
0.967231
0.967053
0.966875
0.966698
0.96652
0.966342
0.966164
0.965986
0.965808
0.965631
0.965453
0.965275
0.965097
0.96492
0.964742
0.964564
0.964386
0.964209
0.964031
0.963853
0.963676
0.963498
0.96332
0.963143
0.962965
0.962787
0.96261
0.962432
0.962255
0.962077
0.961899
0.961722
0.961544
0.961367
0.961189
0.961012
0.960834
0.960657
0.960479
0.960302
0.960124
0.959947
0.95977
0.959592
0.959415
0.959237
0.95906
0.958883
0.958705
0.958528
0.958351
0.958173
0.957996
0.957819
0.957642
0.957464
0.957287
0.95711
0.956933
0.956756
0.956578
0.956401
0.956224
0.956047
0.95587
0.955693
0.955516
0.955339
0.955162
0.954985
0.954808
0.954631
0.954454
0.954277
0.9541
0.953923
0.953746
0.953569
0.953393
0.953216
0.953039
0.952862
0.952685
0.952509
0.952332
0.952155
0.951978
0.951802
0.951625
0.951448
0.951272
0.951095
0.950919
0.950742
0.950565
0.950389
0.950212
0.950036
0.949859
0.949683
0.949507
0.94933
0.949154
0.948977
0.948801
0.948625
0.948448
0.948272
0.948096
0.94792
0.947743
0.947567
0.947391
0.947215
0.947039
0.946862
0.946686
0.94651
0.946334
0.946158
0.945982
0.945806
0.94563
0.945454
0.945278
0.945102
0.944926
0.944751
0.944575
0.944399
0.944223
0.944047
0.943871
0.943696
0.94352
0.943344
0.943169
0.942993
0.942817
0.942642
0.942466
0.94229
0.942115
0.941939
0.941764
0.941588
0.941413
0.941237
0.941062
0.940887
0.940711
0.940536
0.94036
0.940185
0.94001
0.939835
0.939659
0.939484
0.939309
0.939134
0.938959
0.938783
0.938608
0.938433
0.938258
0.938083
0.937908
0.937733
0.937558
0.937383
0.937208
0.937033
0.936858
0.936684
0.936509
0.936334
0.936159
0.935984
0.93581
0.935635
0.93546
0.935285
0.935111
0.934936
0.934761
0.934587
0.934412
0.934238
0.934063
0.933889
0.933714
0.93354
0.933365
0.933191
0.933017
0.932842
0.932668
0.932494
0.932319
0.932145
0.931971
0.931797
0.931622
0.931448
0.931274
0.9311
0.930926
0.930752
0.930578
0.930404
0.93023
0.930056
0.929882
0.929708
0.929534
0.92936
0.929186
0.929012
0.928838
0.928665
0.928491
0.928317
0.928143
0.92797
0.927796
0.927622
0.927449
0.927275
0.927101
0.926928
0.926754
0.926581
0.926407
0.926234
0.92606
0.925887
0.925714
0.92554
0.925367
0.925194
0.92502
0.924847
0.924674
0.9245
0.924327
0.924154
0.923981
0.923808
0.923635
0.923462
0.923289
0.923115
0.922942
0.922769
0.922597
0.922424
0.922251
0.922078
0.921905
0.921732
0.921559
0.921386
0.921214
0.921041
0.920868
0.920695
0.920523
0.92035
0.920178
0.920005
0.919832
0.91966
0.919487
0.919315
0.919142
0.91897
0.918797
0.918625
0.918453
0.91828
0.918108
0.917936
0.917763
0.917591
0.917419
0.917247
0.917074
0.916902
0.91673
0.916558
0.916386
0.916214
0.916042
0.91587
0.915698
0.915526
0.915354
0.915182
0.91501
0.914838
0.914666
0.914494
0.914323
0.914151
0.913979
0.913807
0.913636
0.913464
0.913292
0.913121
0.912949
0.912777
0.912606
0.912434
0.912263
0.912091
0.91192
0.911748
0.911577
0.911406
0.911234
0.911063
0.910892
0.91072
0.910549
0.910378
0.910206
0.910035
0.909864
0.909693
0.909522
0.909351
0.90918
0.909009
0.908838
0.908667
0.908496
0.908325
0.908154
0.907983
0.907812
0.907641
0.90747
0.9073
0.907129
0.906958
0.906787
0.906617
0.906446
0.906275
0.906105
0.905934
0.905763
0.905593
0.905422
0.905252
0.905081
0.904911
0.90474
0.90457
0.9044
0.904229
0.904059
0.903889
0.903718
0.903548
0.903378
0.903208
0.903037
0.902867
0.902697
0.902527
0.902357
0.902187
0.902017
0.901847
0.901677
0.901507
0.901337
0.901167
0.900997
0.900827
0.900657
0.900488
0.900318
0.900148
0.899978
0.899808
0.899639
0.899469
0.899299
0.89913
0.89896
0.898791
0.898621
0.898452
0.898282
0.898113
0.897943
0.897774
0.897604
0.897435
0.897266
0.897096
0.896927
0.896758
0.896588
0.896419
0.89625
0.896081
0.895912
0.895743
0.895573
0.895404
0.895235
0.895066
0.894897
0.894728
0.894559
0.89439
0.894222
0.894053
0.893884
0.893715
0.893546
0.893377
0.893209
0.89304
0.892871
0.892702
0.892534
0.892365
0.892197
0.892028
0.891859
0.891691
0.891522
0.891354
0.891185
0.891017
0.890849
0.89068
0.890512
0.890343
0.890175
0.890007
0.889839
0.88967
0.889502
0.889334
0.889166
0.888998
0.88883
0.888661
0.888493
0.888325
0.888157
0.887989
0.887821
0.887653
0.887485
0.887318
0.88715
0.886982
0.886814
0.886646
0.886478
0.886311
0.886143
0.885975
0.885808
0.88564
0.885472
0.885305
0.885137
0.88497
0.884802
0.884635
0.884467
0.8843
0.884132
0.883965
0.883798
0.88363
0.883463
0.883296
0.883128
0.882961
0.882794
0.882627
0.882459
0.882292
0.882125
0.881958
0.881791
0.881624
0.881457
0.88129
0.881123
0.880956
0.880789
0.880622
0.880455
0.880288
0.880121
0.879955
0.879788
0.879621
0.879454
0.879288
0.879121
0.878954
0.878788
0.878621
0.878455
0.878288
0.878121
0.877955
0.877788
0.877622
0.877456
0.877289
0.877123
0.876956
0.87679
0.876624
0.876457
0.876291
0.876125
0.875959
0.875792
0.875626
0.87546
0.875294
0.875128
0.874962
0.874796
0.87463
0.874464
0.874298
0.874132
0.873966
0.8738
0.873634
0.873468
0.873303
0.873137
0.872971
0.872805
0.87264
0.872474
0.872308
0.872143
0.871977
0.871811
0.871646
0.87148
0.871315
0.871149
0.870984
0.870818
0.870653
0.870487
0.870322
0.870157
0.869991
0.869826
0.869661
0.869496
0.86933
0.869165
0.869
0.868835
0.86867
0.868505
0.868339
0.868174
0.868009
0.867844
0.867679
0.867514
0.867349
0.867185
0.86702
0.866855
0.86669
0.866525
0.86636
0.866196
0.866031
0.865866
0.865701
0.865537
0.865372
0.865208
0.865043
0.864878
0.864714
0.864549
0.864385
0.86422
0.864056
0.863892
0.863727
0.863563
0.863398
0.863234
0.86307
0.862906
0.862741
0.862577
0.862413
0.862249
0.862085
0.86192
0.861756
0.861592
0.861428
0.861264
0.8611
0.860936
0.860772
0.860608
0.860445
0.860281
0.860117
0.859953
0.859789
0.859625
0.859462
0.859298
0.859134
0.858971
0.858807
0.858643
0.85848
0.858316
0.858152
0.857989
0.857825
0.857662
0.857499
0.857335
0.857172
0.857008
0.856845
0.856682
0.856518
0.856355
0.856192
0.856029
0.855865
0.855702
0.855539
0.855376
0.855213
0.85505
0.854887
0.854723
0.85456
0.854397
0.854235
0.854072
0.853909
0.853746
0.853583
0.85342
0.853257
0.853094
0.852932
0.852769
0.852606
0.852444
0.852281
0.852118
0.851956
0.851793
0.85163
0.851468
0.851305
0.851143
0.85098
0.850818
0.850655
0.850493
0.850331
0.850168
0.850006
0.849844
0.849681
0.849519
0.849357
0.849195
0.849033
0.84887
0.848708
0.848546
0.848384
0.848222
0.84806
0.847898
0.847736
0.847574
0.847412
0.84725
0.847088
0.846926
0.846765
0.846603
0.846441
0.846279
0.846117
0.845956
0.845794
0.845632
0.845471
0.845309
0.845147
0.844986
0.844824
0.844663
0.844501
0.84434
0.844178
0.844017
0.843856
0.843694
0.843533
0.843372
0.84321
0.843049
0.842888
0.842726
0.842565
0.842404
0.842243
0.842082
0.841921
0.84176
0.841599
0.841437
0.841276
0.841115
0.840955
0.840794
0.840633
0.840472
0.840311
0.84015
0.839989
0.839828
0.839668
0.839507
0.839346
0.839186
0.839025
0.838864
0.838704
0.838543
0.838382
0.838222
0.838061
0.837901
0.83774
0.83758
0.83742
0.837259
0.837099
0.836938
0.836778
0.836618
0.836457
0.836297
0.836137
0.835977
0.835817
0.835656
0.835496
0.835336
0.835176
0.835016
0.834856
0.834696
0.834536
0.834376
0.834216
0.834056
0.833896
0.833736
0.833577
0.833417
0.833257
0.833097
0.832937
0.832778
0.832618
0.832458
0.832299
0.832139
0.831979
0.83182
0.83166
0.831501
0.831341
0.831182
0.831022
0.830863
0.830704
0.830544
0.830385
0.830225
0.830066
0.829907
0.829748
0.829588
0.829429
0.82927
0.829111
0.828952
0.828793
0.828633
0.828474
0.828315
0.828156
0.827997
0.827838
0.827679
0.827521
0.827362
0.827203
0.827044
0.826885
0.826726
0.826567
0.826409
0.82625
0.826091
0.825933
0.825774
0.825615
0.825457
0.825298
0.82514
0.824981
0.824823
0.824664
0.824506
0.824347
0.824189
0.82403
0.823872
0.823714
0.823555
0.823397
0.823239
0.823081
0.822922
0.822764
0.822606
0.822448
0.82229
0.822132
0.821973
0.821815
0.821657
0.821499
0.821341
0.821183
0.821026
0.820868
0.82071
0.820552
0.820394
0.820236
0.820078
0.819921
0.819763
0.819605
0.819448
0.81929
0.819132
0.818975
0.818817
0.818659
0.818502
0.818344
0.818187
0.818029
0.817872
0.817715
0.817557
0.8174
0.817242
0.817085
0.816928
0.81677
0.816613
0.816456
0.816299
0.816142
0.815984
0.815827
0.81567
0.815513
0.815356
0.815199
0.815042
0.814885
0.814728
0.814571
0.814414
0.814257
0.8141
0.813944
0.813787
0.81363
0.813473
0.813316
0.81316
0.813003
0.812846
0.81269
0.812533
0.812376
0.81222
0.812063
0.811907
0.81175
0.811594
0.811437
0.811281
0.811124
0.810968
0.810812
0.810655
0.810499
0.810343
0.810186
0.81003
0.809874
0.809718
0.809562
0.809405
0.809249
0.809093
0.808937
0.808781
0.808625
0.808469
0.808313
0.808157
0.808001
0.807845
0.807689
0.807533
0.807378
0.807222
0.807066
0.80691
0.806754
0.806599
0.806443
0.806287
0.806132
0.805976
0.80582
0.805665
0.805509
0.805354
0.805198
0.805043
0.804887
0.804732
0.804576
0.804421
0.804266
0.80411
0.803955
0.8038
0.803645
0.803489
0.803334
0.803179
0.803024
0.802869
0.802713
0.802558
0.802403
0.802248
0.802093
0.801938
0.801783
0.801628
0.801473
0.801318
0.801163
0.801009
0.800854
0.800699
0.800544
0.800389
0.800235
0.80008
0.799925
0.799771
0.799616
0.799461
0.799307
0.799152
0.798998
0.798843
0.798688
0.798534
0.79838
0.798225
0.798071
0.797916
0.797762
0.797608
0.797453
0.797299
0.797145
0.79699
0.796836
0.796682
0.796528
0.796374
0.79622
0.796066
0.795911
0.795757
0.795603
0.795449
0.795295
0.795141
0.794987
0.794834
0.79468
0.794526
0.794372
0.794218
0.794064
0.793911
0.793757
0.793603
0.793449
0.793296
0.793142
0.792988
0.792835
0.792681
0.792528
0.792374
0.792221
0.792067
0.791914
0.79176
0.791607
0.791453
0.7913
0.791147
0.790993
0.79084
0.790687
0.790534
0.79038
0.790227
0.790074
0.789921
0.789768
0.789615
0.789462
0.789308
0.789155
0.789002
0.788849
0.788696
0.788544
0.788391
0.788238
0.788085
0.787932
0.787779
0.787626
0.787474
0.787321
0.787168
0.787015
0.786863
0.78671
0.786557
0.786405
0.786252
0.7861
0.785947
0.785795
0.785642
0.78549
0.785337
0.785185
0.785032
0.78488
0.784728
0.784575
0.784423
0.784271
0.784118
0.783966
0.783814
0.783662
0.78351
0.783358
0.783205
0.783053
0.782901
0.782749
0.782597
0.782445
0.782293
0.782141
0.781989
0.781837
0.781686
0.781534
0.781382
0.78123
0.781078
0.780926
0.780775
0.780623
0.780471
0.78032
0.780168
0.780016
0.779865
0.779713
0.779562
0.77941
0.779259
0.779107
0.778956
0.778804
0.778653
0.778501
0.77835
0.778199
0.778047
0.777896
0.777745
0.777594
0.777442
0.777291
0.77714
0.776989
0.776838
0.776687
0.776536
0.776384
0.776233
0.776082
0.775931
0.77578
0.775629
0.775479
0.775328
0.775177
0.775026
0.774875
0.774724
0.774574
0.774423
0.774272
0.774121
0.773971
0.77382
0.773669
0.773519
0.773368
0.773218
0.773067
0.772917
0.772766
0.772616
0.772465
0.772315
0.772164
0.772014
0.771864
0.771713
0.771563
0.771413
0.771262
0.771112
0.770962
0.770812
0.770661
0.770511
0.770361
0.770211
0.770061
0.769911
0.769761
0.769611
0.769461
0.769311
0.769161
0.769011
0.768861
0.768711
0.768562
0.768412
0.768262
0.768112
0.767962
0.767813
0.767663
0.767513
0.767364
0.767214
0.767064
0.766915
0.766765
0.766616
0.766466
0.766317
0.766167
0.766018
0.765868
0.765719
0.76557
0.76542
0.765271
0.765122
0.764972
0.764823
0.764674
0.764524
0.764375
0.764226
0.764077
0.763928
0.763779
0.76363
0.763481
0.763332
0.763183
0.763034
0.762885
0.762736
0.762587
0.762438
0.762289
0.76214
0.761991
0.761843
0.761694
0.761545
0.761396
0.761248
0.761099
0.76095
0.760802
0.760653
0.760504
0.760356
0.760207
0.760059
0.75991
0.759762
0.759613
0.759465
0.759316
0.759168
0.75902
0.758871
0.758723
0.758575
0.758427
0.758278
0.75813
0.757982
0.757834
0.757686
0.757537
0.757389
0.757241
0.757093
0.756945
0.756797
0.756649
0.756501
0.756353
0.756205
0.756057
0.75591
0.755762
0.755614
0.755466
0.755318
0.755171
0.755023
0.754875
0.754727
0.75458
0.754432
0.754284
0.754137
0.753989
0.753842
0.753694
0.753547
0.753399
0.753252
0.753104
0.752957
0.75281
0.752662
0.752515
0.752367
0.75222
0.752073
0.751926
0.751778
0.751631
0.751484
0.751337
0.75119
0.751043
0.750896
0.750748
0.750601
0.750454
0.750307
0.75016
0.750013
0.749867
0.74972
0.749573
0.749426
0.749279
0.749132
0.748985
0.748839
0.748692
0.748545
0.748399
0.748252
0.748105
0.747959
0.747812
0.747665
0.747519
0.747372
0.747226
0.747079
0.746933
0.746786
0.74664
0.746493
0.746347
0.746201
0.746054
0.745908
0.745762
0.745616
0.745469
0.745323
0.745177
0.745031
0.744885
0.744738
0.744592
0.744446
0.7443
0.744154
0.744008
0.743862
0.743716
0.74357
0.743424
0.743278
0.743133
0.742987
0.742841
0.742695
0.742549
0.742404
0.742258
0.742112
0.741966
0.741821
0.741675
0.741529
0.741384
0.741238
0.741093
0.740947
0.740802
0.740656
0.740511
0.740365
0.74022
0.740074
0.739929
0.739784
0.739638
0.739493
0.739348
0.739203
0.739057
0.738912
0.738767
0.738622
0.738477
0.738331
0.738186
0.738041
0.737896
0.737751
0.737606
0.737461
0.737316
0.737171
0.737026
0.736882
0.736737
0.736592
0.736447
0.736302
0.736157
0.736013
0.735868
0.735723
0.735578
0.735434
0.735289
0.735145
0.735
0.734855
0.734711
0.734566
0.734422
0.734277
0.734133
0.733988
0.733844
0.7337
0.733555
0.733411
0.733267
0.733122
0.732978
0.732834
0.732689
0.732545
0.732401
0.732257
0.732113
0.731969
0.731825
0.73168
0.731536
0.731392
0.731248
0.731104
0.73096
0.730816
0.730673
0.730529
0.730385
0.730241
0.730097
0.729953
0.729809
0.729666
0.729522
0.729378
0.729235
0.729091
0.728947
0.728804
0.72866
0.728516
0.728373
0.728229
0.728086
0.727942
0.727799
0.727655
0.727512
0.727369
0.727225
0.727082
0.726939
0.726795
0.726652
0.726509
0.726365
0.726222
0.726079
0.725936
0.725793
0.72565
0.725507
0.725363
0.72522
0.725077
0.724934
0.724791
0.724648
0.724505
0.724363
0.72422
0.724077
0.723934
0.723791
0.723648
0.723505
0.723363
0.72322
0.723077
0.722934
0.722792
0.722649
0.722507
0.722364
0.722221
0.722079
0.721936
0.721794
0.721651
0.721509
0.721366
0.721224
0.721081
0.720939
0.720797
0.720654
0.720512
0.72037
0.720227
0.720085
0.719943
0.719801
0.719659
0.719516
0.719374
0.719232
0.71909
0.718948
0.718806
0.718664
0.718522
0.71838
0.718238
0.718096
0.717954
0.717812
0.71767
0.717529
0.717387
0.717245
0.717103
0.716961
0.71682
0.716678
0.716536
0.716395
0.716253
0.716111
0.71597
0.715828
0.715687
0.715545
0.715404
0.715262
0.715121
0.714979
0.714838
0.714696
0.714555
0.714414
0.714272
0.714131
0.71399
0.713848
0.713707
0.713566
0.713425
0.713284
0.713142
0.713001
0.71286
0.712719
0.712578
0.712437
0.712296
0.712155
0.712014
0.711873
0.711732
0.711591
0.71145
0.71131
0.711169
0.711028
0.710887
0.710746
0.710606
0.710465
0.710324
0.710183
0.710043
0.709902
0.709762
0.709621
0.70948
0.70934
0.709199
0.709059
0.708918
0.708778
0.708637
0.708497
0.708357
0.708216
0.708076
0.707936
0.707795
0.707655
0.707515
0.707374
0.707234
0.707094
0.706954
0.706814
0.706674
0.706533
0.706393
0.706253
0.706113
0.705973
0.705833
0.705693
0.705553
0.705413
0.705274
0.705134
0.704994
0.704854
0.704714
0.704574
0.704435
0.704295
0.704155
0.704015
0.703876
0.703736
0.703596
0.703457
0.703317
0.703178
0.703038
0.702899
0.702759
0.70262
0.70248
0.702341
0.702201
0.702062
0.701922
0.701783
0.701644
0.701504
0.701365
0.701226
0.701087
0.700947
0.700808
0.700669
0.70053
0.700391
0.700252
0.700113
0.699974
0.699835
0.699695
0.699556
0.699418
0.699279
0.69914
0.699001
0.698862
0.698723
0.698584
0.698445
0.698307
0.698168
0.698029
0.69789
0.697752
0.697613
0.697474
0.697336
0.697197
0.697058
0.69692
0.696781
0.696643
0.696504
0.696366
0.696227
0.696089
0.69595
0.695812
0.695674
0.695535
0.695397
0.695259
0.69512
0.694982
0.694844
0.694705
0.694567
0.694429
0.694291
0.694153
0.694015
0.693877
0.693739
0.6936
0.693462
0.693324
0.693186
0.693048
0.692911
0.692773
0.692635
0.692497
0.692359
0.692221
0.692083
0.691946
0.691808
0.69167
0.691532
0.691395
0.691257
0.691119
0.690982
0.690844
0.690707
0.690569
0.690431
0.690294
0.690156
0.690019
0.689881
0.689744
0.689607
0.689469
0.689332
0.689194
0.689057
0.68892
0.688783
0.688645
0.688508
0.688371
0.688234
0.688096
0.687959
0.687822
0.687685
0.687548
0.687411
0.687274
0.687137
0.687
0.686863
0.686726
0.686589
0.686452
0.686315
0.686178
0.686042
0.685905
0.685768
0.685631
0.685494
0.685358
0.685221
0.685084
0.684948
0.684811
0.684674
0.684538
0.684401
0.684265
0.684128
0.683991
0.683855
0.683719
0.683582
0.683446
0.683309
0.683173
0.683036
0.6829
0.682764
0.682627
0.682491
0.682355
0.682219
0.682083
0.681946
0.68181
0.681674
0.681538
0.681402
0.681266
0.68113
0.680994
0.680858
0.680722
0.680586
0.68045
0.680314
0.680178
0.680042
0.679906
0.67977
0.679634
0.679499
0.679363
0.679227
0.679091
0.678956
0.67882
0.678684
0.678549
0.678413
0.678277
0.678142
0.678006
0.677871
0.677735
0.6776
0.677464
0.677329
0.677193
0.677058
0.676923
0.676787
0.676652
0.676517
0.676381
0.676246
0.676111
0.675975
0.67584
0.675705
0.67557
0.675435
0.6753
0.675165
0.675029
0.674894
0.674759
0.674624
0.674489
0.674354
0.674219
0.674084
0.67395
0.673815
0.67368
0.673545
0.67341
0.673275
0.673141
0.673006
0.672871
0.672736
0.672602
0.672467
0.672332
0.672198
0.672063
0.671928
0.671794
0.671659
0.671525
0.67139
0.671256
0.671121
0.670987
0.670853
0.670718
0.670584
0.670449
0.670315
0.670181
0.670047
0.669912
0.669778
0.669644
0.66951
0.669375
0.669241
0.669107
0.668973
0.668839
0.668705
0.668571
0.668437
0.668303
0.668169
0.668035
0.667901
0.667767
0.667633
0.667499
0.667365
0.667232
0.667098
0.666964
0.66683
0.666696
0.666563
0.666429
0.666295
0.666162
0.666028
0.665894
0.665761
0.665627
0.665494
0.66536
0.665227
0.665093
0.66496
0.664826
0.664693
0.664559
0.664426
0.664293
0.664159
0.664026
0.663893
0.663759
0.663626
0.663493
0.66336
0.663227
0.663093
0.66296
0.662827
0.662694
0.662561
0.662428
0.662295
0.662162
0.662029
0.661896
0.661763
0.66163
0.661497
0.661364
0.661231
0.661098
0.660966
0.660833
0.6607
0.660567
0.660435
0.660302
0.660169
0.660036
0.659904
0.659771
0.659639
0.659506
0.659373
0.659241
0.659108
0.658976
0.658843
0.658711
0.658578
0.658446
0.658314
0.658181
0.658049
0.657917
0.657784
0.657652
0.65752
0.657387
0.657255
0.657123
0.656991
0.656859
0.656727
0.656594
0.656462
0.65633
0.656198
0.656066
0.655934
0.655802
0.65567
0.655538
0.655406
0.655274
0.655142
0.655011
0.654879
0.654747
0.654615
0.654483
0.654352
0.65422
0.654088
0.653956
0.653825
0.653693
0.653562
0.65343
0.653298
0.653167
0.653035
0.652904
0.652772
0.652641
0.652509
0.652378
0.652246
0.652115
0.651984
0.651852
0.651721
0.65159
0.651458
0.651327
0.651196
0.651065
0.650933
0.650802
0.650671
0.65054
0.650409
0.650278
0.650147
0.650016
0.649884
0.649753
0.649622
0.649491
0.649361
0.64923
0.649099
0.648968
0.648837
0.648706
0.648575
0.648444
0.648314
0.648183
0.648052
0.647921
0.647791
0.64766
0.647529
0.647399
0.647268
0.647138
0.647007
0.646876
0.646746
0.646615
0.646485
0.646354
0.646224
0.646094
0.645963
0.645833
0.645702
0.645572
0.645442
0.645311
0.645181
0.645051
0.644921
0.644791
0.64466
0.64453
0.6444
0.64427
0.64414
0.64401
0.64388
0.64375
0.64362
0.64349
0.64336
0.64323
0.6431
0.64297
0.64284
0.64271
0.64258
0.64245
0.64232
0.642191
0.642061
0.641931
0.641801
0.641672
0.641542
0.641412
0.641283
0.641153
0.641023
0.640894
0.640764
0.640635
0.640505
0.640376
0.640246
0.640117
0.639987
0.639858
0.639729
0.639599
0.63947
0.639341
0.639211
0.639082
0.638953
0.638823
0.638694
0.638565
0.638436
0.638307
0.638178
0.638048
0.637919
0.63779
0.637661
0.637532
0.637403
0.637274
0.637145
0.637016
0.636887
0.636758
0.636629
0.636501
0.636372
0.636243
0.636114
0.635985
0.635857
0.635728
0.635599
0.63547
0.635342
0.635213
0.635084
0.634956
0.634827
0.634699
0.63457
0.634442
0.634313
0.634185
0.634056
0.633928
0.633799
0.633671
0.633542
0.633414
0.633286
0.633157
0.633029
0.632901
0.632772
0.632644
0.632516
0.632388
0.63226
0.632131
0.632003
0.631875
0.631747
0.631619
0.631491
0.631363
0.631235
0.631107
0.630979
0.630851
0.630723
0.630595
0.630467
0.630339
0.630212
0.630084
0.629956
0.629828
0.6297
0.629573
0.629445
0.629317
0.62919
0.629062
0.628934
0.628807
0.628679
0.628551
0.628424
0.628296
0.628169
0.628041
0.627914
0.627786
0.627659
0.627532
0.627404
0.627277
0.62715
0.627022
0.626895
0.626768
0.62664
0.626513
0.626386
0.626259
0.626131
0.626004
0.625877
0.62575
0.625623
0.625496
0.625369
0.625242
0.625115
0.624988
0.624861
0.624734
0.624607
0.62448
0.624353
0.624226
0.624099
0.623973
0.623846
0.623719
0.623592
0.623465
0.623339
0.623212
0.623085
0.622959
0.622832
0.622705
0.622579
0.622452
0.622326
0.622199
0.622072
0.621946
0.621819
0.621693
0.621566
0.621441
0.621313
0.621188
0.62106
0.620936
0.620807
0.620684
0.620554
0.620432
0.620301
0.62018
0.620047
0.619929
0.619794
0.619678
0.61954
0.619427
0.619287
0.619176
0.619034
0.618925
0.618782
0.618673
0.61853
0.61842
0.61828
0.618167
0.61803
0.617913
0.617781
0.617658
0.617532
0.617404
0.617284
0.61715
0.617034
0.616897
0.616784
0.616646
0.616531
0.616397
0.616277
0.616149
0.616023
0.615901
0.615769
0.615652
0.615517
0.615402
0.615267
0.615149
0.615018
0.614895
0.614771
0.614641
0.614523
0.614389
0.614273
0.614139
0.614021
0.613892
0.613767
0.613645
0.613514
0.613397
0.613263
0.613146
0.613015
0.612893
0.612768
0.61264
0.612521
0.612388
0.612271
0.61214
0.612019
0.611893
0.611766
0.611647
0.611515
0.611397
0.611266
0.611145
0.61102
0.610893
0.610773
0.610642
0.610524
0.610395
0.610272
0.610149
0.61002
0.609901
0.60977
0.609651
0.609524
0.609399
0.609278
0.609148
0.60903
0.608901
0.608779
0.608655
0.608527
0.608408
0.608278
0.608158
0.608032
0.607907
0.607787
0.607657
0.607538
0.607411
0.607287
0.607165
0.607037
0.606918
0.60679
0.606668
0.606544
0.606417
0.606298
0.60617
0.606049
0.605924
0.605798
0.605679
0.60555
0.60543
0.605305
0.60518
0.60506
0.604931
0.604811
0.604686
0.604561
0.604441
0.604313
0.604193
0.604068
0.603943
0.603823
0.603696
0.603575
0.603451
0.603326
0.603206
0.603079
0.602958
0.602834
0.602709
0.602589
0.602462
0.602341
0.602218
0.602092
0.601972
0.601846
0.601724
0.601602
0.601476
0.601356
0.601231
0.601108
0.600987
0.600861
0.600741
0.600616
0.600493
0.600372
0.600246
0.600125
0.600002
0.599878
0.599758
0.599632
0.59951
0.599389
0.599263
0.599143
0.599019
0.598896
0.598775
0.59865
0.598529
0.598406
0.598282
0.598162
0.598037
0.597915
0.597794
0.597669
0.597549
0.597425
0.597302
0.597182
0.597057
0.596936
0.596814
0.59669
0.59657
0.596446
0.596323
0.596203
0.596079
0.595958
0.595836
0.595712
0.595592
0.595468
0.595346
0.595226
0.595101
0.59498
0.594859
0.594735
0.594615
0.594492
0.594369
0.594249
0.594125
0.594004
0.593883
0.59376
0.593639
0.593517
0.593394
0.593274
0.593151
0.59303
0.592909
0.592785
0.592665
0.592543
0.59242
0.592301
0.592178
0.592056
0.591936
0.591813
0.591692
0.591571
0.591448
0.591328
0.591206
0.591084
0.590964
0.590841
0.59072
0.5906
0.590477
0.590356
0.590236
0.590113
0.589993
0.589872
0.589749
0.58963
0.589508
0.589386
0.589266
0.589144
0.589023
0.588903
0.58878
0.58866
0.588539
0.588417
0.588298
0.588176
0.588055
0.587935
0.587813
0.587692
0.587572
0.58745
0.58733
0.58721
0.587088
0.586968
0.586847
0.586726
0.586606
0.586485
0.586364
0.586244
0.586123
0.586002
0.585883
0.585761
0.585641
0.585521
0.585399
0.585279
0.585159
0.585038
0.584918
0.584798
0.584677
0.584557
0.584437
0.584316
0.584197
0.584076
0.583955
0.583836
0.583715
0.583595
0.583475
0.583354
0.583234
0.583115
0.582994
0.582874
0.582755
0.582634
0.582514
0.582395
0.582274
0.582154
0.582035
0.581914
0.581795
0.581675
0.581554
0.581435
0.581315
0.581195
0.581076
0.580956
0.580836
0.580717
0.580597
0.580477
0.580358
0.580238
0.580118
0.579999
0.579879
0.579759
0.57964
0.57952
0.579401
0.579282
0.579162
0.579042
0.578924
0.578803
0.578684
0.578565
0.578445
0.578326
0.578207
0.578087
0.577969