/*--------------------------------*- C++ -*----------------------------------*\
  =========                 |
  \\      /  F ield         | OpenFOAM: The Open Source CFD Toolbox
   \\    /   O peration     | Website:  https://openfoam.org
    \\  /    A nd           | Version:  9
     \\/     M anipulation  |
\*---------------------------------------------------------------------------*/
FoamFile
{
    format      ascii;
    class       volScalarField;
    location    "0.012";
    object      T;
}
// * * * * * * * * * * * * * * * * * * * * * * * * * * * * * * * * * * * * * //

dimensions      [0 0 0 1 0 0 0];

internalField   nonuniform List<scalar> 
10000
(
348.432
348.432
348.432
348.432
348.432
348.432
348.432
348.432
348.432
348.432
348.432
348.432
348.432
348.432
348.432
348.432
348.432
348.432
348.432
348.432
348.432
348.432
348.432
348.432
348.432
348.432
348.432
348.432
348.432
348.432
348.432
348.432
348.432
348.432
348.432
348.432
348.432
348.432
348.432
348.432
348.432
348.432
348.432
348.432
348.432
348.432
348.432
348.432
348.432
348.432
348.432
348.432
348.432
348.432
348.432
348.432
348.432
348.432
348.432
348.432
348.432
348.432
348.432
348.432
348.432
348.432
348.432
348.432
348.432
348.432
348.432
348.432
348.432
348.432
348.432
348.432
348.432
348.432
348.432
348.432
348.432
348.432
348.432
348.432
348.432
348.432
348.432
348.432
348.432
348.432
348.432
348.432
348.432
348.432
348.432
348.432
348.432
348.432
348.432
348.432
348.432
348.432
348.432
348.432
348.432
348.432
348.432
348.432
348.432
348.432
348.432
348.432
348.432
348.432
348.432
348.432
348.432
348.432
348.432
348.432
348.432
348.432
348.432
348.432
348.432
348.432
348.432
348.432
348.432
348.432
348.432
348.432
348.432
348.432
348.432
348.432
348.432
348.432
348.432
348.432
348.432
348.432
348.432
348.432
348.432
348.432
348.432
348.432
348.432
348.432
348.432
348.432
348.432
348.432
348.432
348.432
348.432
348.432
348.432
348.432
348.432
348.432
348.432
348.432
348.432
348.432
348.432
348.432
348.432
348.432
348.432
348.432
348.432
348.432
348.432
348.432
348.432
348.432
348.432
348.432
348.432
348.432
348.432
348.432
348.432
348.432
348.432
348.432
348.432
348.432
348.432
348.432
348.432
348.432
348.432
348.432
348.432
348.432
348.432
348.432
348.432
348.432
348.432
348.432
348.432
348.432
348.432
348.432
348.432
348.432
348.432
348.432
348.432
348.432
348.432
348.432
348.432
348.432
348.432
348.432
348.432
348.432
348.432
348.432
348.432
348.432
348.432
348.432
348.432
348.432
348.432
348.432
348.432
348.432
348.432
348.432
348.432
348.432
348.432
348.432
348.432
348.432
348.432
348.432
348.432
348.432
348.432
348.432
348.432
348.432
348.432
348.432
348.432
348.432
348.432
348.432
348.432
348.432
348.432
348.432
348.432
348.432
348.432
348.432
348.432
348.432
348.432
348.432
348.432
348.432
348.432
348.432
348.432
348.432
348.432
348.432
348.432
348.432
348.432
348.432
348.432
348.432
348.432
348.432
348.432
348.432
348.432
348.432
348.432
348.432
348.432
348.432
348.432
348.432
348.432
348.432
348.432
348.432
348.432
348.432
348.432
348.432
348.432
348.432
348.432
348.432
348.432
348.432
348.432
348.432
348.432
348.432
348.432
348.432
348.432
348.432
348.432
348.432
348.432
348.432
348.432
348.432
348.432
348.432
348.432
348.432
348.432
348.432
348.432
348.432
348.432
348.432
348.432
348.432
348.432
348.432
348.432
348.432
348.432
348.432
348.432
348.432
348.432
348.432
348.432
348.432
348.432
348.432
348.432
348.432
348.432
348.432
348.432
348.432
348.432
348.432
348.432
348.432
348.432
348.432
348.432
348.432
348.432
348.432
348.432
348.432
348.432
348.432
348.432
348.432
348.432
348.432
348.432
348.432
348.432
348.432
348.432
348.432
348.432
348.432
348.432
348.432
348.432
348.432
348.432
348.432
348.432
348.432
348.432
348.432
348.432
348.432
348.432
348.432
348.432
348.432
348.432
348.432
348.432
348.432
348.432
348.432
348.432
348.432
348.432
348.432
348.432
348.432
348.432
348.432
348.432
348.432
348.432
348.432
348.432
348.432
348.432
348.432
348.432
348.432
348.432
348.432
348.432
348.432
348.432
348.432
348.432
348.432
348.432
348.432
348.432
348.432
348.432
348.432
348.432
348.432
348.432
348.432
348.432
348.432
348.432
348.432
348.432
348.432
348.432
348.432
348.432
348.432
348.431
348.431
348.431
348.431
348.431
348.431
348.43
348.43
348.43
348.429
348.429
348.428
348.428
348.427
348.426
348.425
348.424
348.423
348.422
348.42
348.418
348.417
348.414
348.412
348.409
348.406
348.403
348.399
348.395
348.39
348.385
348.38
348.374
348.368
348.361
348.354
348.346
348.337
348.328
348.319
348.308
348.298
348.286
348.274
348.262
348.249
348.235
348.221
348.206
348.191
348.175
348.159
348.142
348.125
348.108
348.09
348.071
348.053
348.033
348.014
347.994
347.974
347.954
347.933
347.912
347.891
347.87
347.848
347.826
347.805
347.782
347.76
347.738
347.715
347.692
347.67
347.647
347.624
347.6
347.577
347.554
347.53
347.507
347.483
347.459
347.436
347.412
347.388
347.364
347.34
347.316
347.292
347.268
347.243
347.219
347.195
347.17
347.146
347.122
347.097
347.073
347.048
347.024
346.999
346.975
346.95
346.925
346.901
346.876
346.851
346.827
346.802
346.777
346.752
346.727
346.703
346.678
346.653
346.628
346.603
346.578
346.553
346.528
346.504
346.479
346.454
346.429
346.404
346.379
346.354
346.329
346.304
346.279
346.254
346.229
346.204
346.178
346.153
346.128
346.103
346.078
346.053
346.028
346.003
345.978
345.953
345.927
345.902
345.877
345.852
345.827
345.802
345.777
345.751
345.726
345.701
345.676
345.651
345.625
345.6
345.575
345.55
345.525
345.499
345.474
345.449
345.424
345.399
345.373
345.348
345.323
345.298
345.272
345.247
345.222
345.196
345.171
345.146
345.121
345.095
345.07
345.045
345.02
344.994
344.969
344.944
344.918
344.893
344.868
344.842
344.817
344.792
344.766
344.741
344.716
344.691
344.665
344.64
344.615
344.589
344.564
344.538
344.513
344.488
344.462
344.437
344.412
344.386
344.361
344.336
344.31
344.285
344.26
344.234
344.209
344.183
344.158
344.133
344.107
344.082
344.057
344.031
344.006
343.98
343.955
343.93
343.904
343.879
343.853
343.828
343.803
343.777
343.752
343.726
343.701
343.676
343.65
343.625
343.599
343.574
343.549
343.523
343.498
343.472
343.447
343.421
343.396
343.371
343.345
343.32
343.294
343.269
343.244
343.218
343.193
343.167
343.142
343.116
343.091
343.066
343.04
343.015
342.989
342.964
342.938
342.913
342.887
342.862
342.837
342.811
342.786
342.76
342.735
342.709
342.684
342.658
342.633
342.608
342.582
342.557
342.531
342.506
342.48
342.455
342.429
342.404
342.379
342.353
342.328
342.302
342.277
342.251
342.226
342.2
342.175
342.149
342.124
342.099
342.073
342.048
342.022
341.997
341.971
341.946
341.92
341.895
341.87
341.844
341.819
341.793
341.768
341.742
341.717
341.691
341.666
341.64
341.615
341.589
341.564
341.539
341.513
341.488
341.462
341.437
341.411
341.386
341.36
341.335
341.309
341.284
341.259
341.233
341.208
341.182
341.157
341.131
341.106
341.08
341.055
341.03
341.004
340.979
340.953
340.928
340.902
340.877
340.851
340.826
340.8
340.775
340.75
340.724
340.699
340.673
340.648
340.622
340.597
340.571
340.546
340.521
340.495
340.47
340.444
340.419
340.393
340.368
340.342
340.317
340.291
340.266
340.241
340.215
340.19
340.164
340.139
340.113
340.088
340.063
340.037
340.012
339.986
339.961
339.935
339.91
339.884
339.859
339.834
339.808
339.783
339.757
339.732
339.706
339.681
339.656
339.63
339.605
339.579
339.554
339.528
339.503
339.477
339.452
339.427
339.401
339.376
339.35
339.325
339.299
339.274
339.249
339.223
339.198
339.172
339.147
339.122
339.096
339.071
339.045
339.02
338.994
338.969
338.944
338.918
338.893
338.867
338.842
338.816
338.791
338.766
338.74
338.715
338.689
338.664
338.639
338.613
338.588
338.562
338.537
338.512
338.486
338.461
338.435
338.41
338.384
338.359
338.334
338.308
338.283
338.257
338.232
338.207
338.181
338.156
338.13
338.105
338.08
338.054
338.029
338.003
337.978
337.953
337.927
337.902
337.877
337.851
337.826
337.8
337.775
337.75
337.724
337.699
337.673
337.648
337.623
337.597
337.572
337.546
337.521
337.496
337.47
337.445
337.42
337.394
337.369
337.343
337.318
337.293
337.267
337.242
337.217
337.191
337.166
337.14
337.115
337.09
337.064
337.039
337.014
336.988
336.963
336.937
336.912
336.887
336.861
336.836
336.811
336.785
336.76
336.735
336.709
336.684
336.658
336.633
336.608
336.582
336.557
336.532
336.506
336.481
336.456
336.43
336.405
336.38
336.354
336.329
336.303
336.278
336.253
336.227
336.202
336.177
336.151
336.126
336.101
336.075
336.05
336.025
335.999
335.974
335.949
335.923
335.898
335.873
335.847
335.822
335.797
335.771
335.746
335.721
335.695
335.67
335.645
335.619
335.594
335.569
335.543
335.518
335.493
335.467
335.442
335.417
335.391
335.366
335.341
335.315
335.29
335.265
335.239
335.214
335.189
335.164
335.138
335.113
335.088
335.062
335.037
335.012
334.986
334.961
334.936
334.91
334.885
334.86
334.834
334.809
334.784
334.759
334.733
334.708
334.683
334.657
334.632
334.607
334.581
334.556
334.531
334.506
334.48
334.455
334.43
334.404
334.379
334.354
334.329
334.303
334.278
334.253
334.227
334.202
334.177
334.152
334.126
334.101
334.076
334.05
334.025
334
333.975
333.949
333.924
333.899
333.874
333.848
333.823
333.798
333.772
333.747
333.722
333.697
333.671
333.646
333.621
333.596
333.57
333.545
333.52
333.495
333.469
333.444
333.419
333.393
333.368
333.343
333.318
333.292
333.267
333.242
333.217
333.191
333.166
333.141
333.116
333.09
333.065
333.04
333.015
332.989
332.964
332.939
332.914
332.888
332.863
332.838
332.813
332.788
332.762
332.737
332.712
332.687
332.661
332.636
332.611
332.586
332.56
332.535
332.51
332.485
332.46
332.434
332.409
332.384
332.359
332.333
332.308
332.283
332.258
332.233
332.207
332.182
332.157
332.132
332.106
332.081
332.056
332.031
332.006
331.98
331.955
331.93
331.905
331.88
331.854
331.829
331.804
331.779
331.754
331.728
331.703
331.678
331.653
331.628
331.602
331.577
331.552
331.527
331.502
331.476
331.451
331.426
331.401
331.376
331.35
331.325
331.3
331.275
331.25
331.224
331.199
331.174
331.149
331.124
331.099
331.073
331.048
331.023
330.998
330.973
330.947
330.922
330.897
330.872
330.847
330.822
330.796
330.771
330.746
330.721
330.696
330.671
330.645
330.62
330.595
330.57
330.545
330.52
330.494
330.469
330.444
330.419
330.394
330.369
330.344
330.318
330.293
330.268
330.243
330.218
330.193
330.167
330.142
330.117
330.092
330.067
330.042
330.017
329.991
329.966
329.941
329.916
329.891
329.866
329.841
329.816
329.79
329.765
329.74
329.715
329.69
329.665
329.64
329.614
329.589
329.564
329.539
329.514
329.489
329.464
329.439
329.413
329.388
329.363
329.338
329.313
329.288
329.263
329.238
329.213
329.187
329.162
329.137
329.112
329.087
329.062
329.037
329.012
328.987
328.961
328.936
328.911
328.886
328.861
328.836
328.811
328.786
328.761
328.736
328.71
328.685
328.66
328.635
328.61
328.585
328.56
328.535
328.51
328.485
328.46
328.434
328.409
328.384
328.359
328.334
328.309
328.284
328.259
328.234
328.209
328.184
328.159
328.133
328.108
328.083
328.058
328.033
328.008
327.983
327.958
327.933
327.908
327.883
327.858
327.833
327.808
327.783
327.757
327.732
327.707
327.682
327.657
327.632
327.607
327.582
327.557
327.532
327.507
327.482
327.457
327.432
327.407
327.382
327.357
327.332
327.306
327.281
327.256
327.231
327.206
327.181
327.156
327.131
327.106
327.081
327.056
327.031
327.006
326.981
326.956
326.931
326.906
326.881
326.856
326.831
326.806
326.781
326.756
326.731
326.706
326.681
326.656
326.631
326.606
326.581
326.556
326.531
326.506
326.48
326.455
326.43
326.405
326.38
326.355
326.33
326.305
326.28
326.255
326.23
326.205
326.18
326.155
326.13
326.105
326.08
326.055
326.03
326.005
325.98
325.955
325.93
325.905
325.88
325.855
325.83
325.805
325.78
325.755
325.73
325.705
325.68
325.655
325.631
325.606
325.581
325.556
325.531
325.506
325.481
325.456
325.431
325.406
325.381
325.356
325.331
325.306
325.281
325.256
325.231
325.206
325.181
325.156
325.131
325.106
325.081
325.056
325.031
325.006
324.981
324.956
324.931
324.906
324.881
324.856
324.831
324.807
324.782
324.757
324.732
324.707
324.682
324.657
324.632
324.607
324.582
324.557
324.532
324.507
324.482
324.457
324.432
324.407
324.382
324.358
324.333
324.308
324.283
324.258
324.233
324.208
324.183
324.158
324.133
324.108
324.083
324.058
324.033
324.008
323.984
323.959
323.934
323.909
323.884
323.859
323.834
323.809
323.784
323.759
323.734
323.709
323.685
323.66
323.635
323.61
323.585
323.56
323.535
323.51
323.485
323.46
323.435
323.411
323.386
323.361
323.336
323.311
323.286
323.261
323.236
323.211
323.186
323.162
323.137
323.112
323.087
323.062
323.037
323.012
322.987
322.962
322.938
322.913
322.888
322.863
322.838
322.813
322.788
322.763
322.739
322.714
322.689
322.664
322.639
322.614
322.589
322.564
322.54
322.515
322.49
322.465
322.44
322.415
322.39
322.366
322.341
322.316
322.291
322.266
322.241
322.216
322.191
322.167
322.142
322.117
322.092
322.067
322.042
322.018
321.993
321.968
321.943
321.918
321.893
321.868
321.844
321.819
321.794
321.769
321.744
321.719
321.695
321.67
321.645
321.62
321.595
321.57
321.546
321.521
321.496
321.471
321.446
321.421
321.397
321.372
321.347
321.322
321.297
321.272
321.248
321.223
321.198
321.173
321.148
321.124
321.099
321.074
321.049
321.024
320.999
320.975
320.95
320.925
320.9
320.875
320.851
320.826
320.801
320.776
320.751
320.727
320.702
320.677
320.652
320.627
320.603
320.578
320.553
320.528
320.503
320.479
320.454
320.429
320.404
320.379
320.355
320.33
320.305
320.28
320.256
320.231
320.206
320.181
320.156
320.132
320.107
320.082
320.057
320.033
320.008
319.983
319.958
319.933
319.909
319.884
319.859
319.834
319.81
319.785
319.76
319.735
319.711
319.686
319.661
319.636
319.611
319.587
319.562
319.537
319.512
319.488
319.463
319.438
319.413
319.389
319.364
319.339
319.314
319.29
319.265
319.24
319.215
319.191
319.166
319.141
319.116
319.092
319.067
319.042
319.018
318.993
318.968
318.943
318.919
318.894
318.869
318.844
318.82
318.795
318.77
318.745
318.721
318.696
318.671
318.647
318.622
318.597
318.572
318.548
318.523
318.498
318.474
318.449
318.424
318.399
318.375
318.35
318.325
318.301
318.276
318.251
318.226
318.202
318.177
318.152
318.128
318.103
318.078
318.054
318.029
318.004
317.979
317.955
317.93
317.905
317.881
317.856
317.831
317.807
317.782
317.757
317.732
317.708
317.683
317.658
317.634
317.609
317.584
317.56
317.535
317.51
317.486
317.461
317.436
317.412
317.387
317.362
317.338
317.313
317.288
317.264
317.239
317.214
317.19
317.165
317.14
317.116
317.091
317.066
317.042
317.017
316.992
316.968
316.943
316.918
316.894
316.869
316.844
316.82
316.795
316.77
316.746
316.721
316.696
316.672
316.647
316.622
316.598
316.573
316.549
316.524
316.499
316.475
316.45
316.425
316.401
316.376
316.351
316.327
316.302
316.278
316.253
316.228
316.204
316.179
316.154
316.13
316.105
316.081
316.056
316.031
316.007
315.982
315.957
315.933
315.908
315.884
315.859
315.834
315.81
315.785
315.76
315.736
315.711
315.687
315.662
315.637
315.613
315.588
315.564
315.539
315.514
315.49
315.465
315.441
315.416
315.391
315.367
315.342
315.318
315.293
315.268
315.244
315.219
315.195
315.17
315.145
315.121
315.096
315.072
315.047
315.023
314.998
314.973
314.949
314.924
314.9
314.875
314.85
314.826
314.801
314.777
314.752
314.728
314.703
314.678
314.654
314.629
314.605
314.58
314.556
314.531
314.507
314.482
314.457
314.433
314.408
314.384
314.359
314.335
314.31
314.285
314.261
314.236
314.212
314.187
314.163
314.138
314.114
314.089
314.065
314.04
314.015
313.991
313.966
313.942
313.917
313.893
313.868
313.844
313.819
313.795
313.77
313.745
313.721
313.696
313.672
313.647
313.623
313.598
313.574
313.549
313.525
313.5
313.476
313.451
313.427
313.402
313.378
313.353
313.329
313.304
313.28
313.255
313.23
313.206
313.181
313.157
313.132
313.108
313.083
313.059
313.034
313.01
312.985
312.961
312.936
312.912
312.887
312.863
312.838
312.814
312.789
312.765
312.74
312.716
312.691
312.667
312.642
312.618
312.593
312.569
312.544
312.52
312.495
312.471
312.446
312.422
312.398
312.373
312.349
312.324
312.3
312.275
312.251
312.226
312.202
312.177
312.153
312.128
312.104
312.079
312.055
312.03
312.006
311.981
311.957
311.933
311.908
311.884
311.859
311.835
311.81
311.786
311.761
311.737
311.712
311.688
311.663
311.639
311.615
311.59
311.566
311.541
311.517
311.492
311.468
311.443
311.419
311.395
311.37
311.346
311.321
311.297
311.272
311.248
311.223
311.199
311.175
311.15
311.126
311.101
311.077
311.052
311.028
311.004
310.979
310.955
310.93
310.906
310.881
310.857
310.833
310.808
310.784
310.759
310.735
310.711
310.686
310.662
310.637
310.613
310.588
310.564
310.54
310.515
310.491
310.466
310.442
310.418
310.393
310.369
310.344
310.32
310.296
310.271
310.247
310.222
310.198
310.174
310.149
310.125
310.1
310.076
310.052
310.027
310.003
309.978
309.954
309.93
309.905
309.881
309.857
309.832
309.808
309.783
309.759
309.735
309.71
309.686
309.662
309.637
309.613
309.588
309.564
309.54
309.515
309.491
309.467
309.442
309.418
309.393
309.369
309.345
309.32
309.296
309.272
309.247
309.223
309.199
309.174
309.15
309.125
309.101
309.077
309.052
309.028
309.004
308.979
308.955
308.931
308.906
308.882
308.858
308.833
308.809
308.785
308.76
308.736
308.712
308.687
308.663
308.639
308.614
308.59
308.566
308.541
308.517
308.493
308.468
308.444
308.42
308.395
308.371
308.347
308.322
308.298
308.274
308.249
308.225
308.201
308.176
308.152
308.128
308.103
308.079
308.055
308.031
308.006
307.982
307.958
307.933
307.909
307.885
307.86
307.836
307.812
307.787
307.763
307.739
307.715
307.69
307.666
307.642
307.617
307.593
307.569
307.544
307.52
307.496
307.472
307.447
307.423
307.399
307.374
307.35
307.326
307.302
307.277
307.253
307.229
307.204
307.18
307.156
307.132
307.107
307.083
307.059
307.035
307.01
306.986
306.962
306.937
306.913
306.889
306.865
306.84
306.816
306.792
306.768
306.743
306.719
306.695
306.671
306.646
306.622
306.598
306.574
306.549
306.525
306.501
306.477
306.452
306.428
306.404
306.38
306.355
306.331
306.307
306.283
306.258
306.234
306.21
306.186
306.161
306.137
306.113
306.089
306.064
306.04
306.016
305.992
305.967
305.943
305.919
305.895
305.871
305.846
305.822
305.798
305.774
305.749
305.725
305.701
305.677
305.653
305.628
305.604
305.58
305.556
305.532
305.507
305.483
305.459
305.435
305.41
305.386
305.362
305.338
305.314
305.289
305.265
305.241
305.217
305.193
305.168
305.144
305.12
305.096
305.072
305.047
305.023
304.999
304.975
304.951
304.926
304.902
304.878
304.854
304.83
304.806
304.781
304.757
304.733
304.709
304.685
304.66
304.636
304.612
304.588
304.564
304.54
304.515
304.491
304.467
304.443
304.419
304.395
304.37
304.346
304.322
304.298
304.274
304.25
304.225
304.201
304.177
304.153
304.129
304.105
304.08
304.056
304.032
304.008
303.984
303.96
303.936
303.911
303.887
303.863
303.839
303.815
303.791
303.767
303.742
303.718
303.694
303.67
303.646
303.622
303.598
303.573
303.549
303.525
303.501
303.477
303.453
303.429
303.405
303.38
303.356
303.332
303.308
303.284
303.26
303.236
303.212
303.187
303.163
303.139
303.115
303.091
303.067
303.043
303.019
302.994
302.97
302.946
302.922
302.898
302.874
302.85
302.826
302.802
302.777
302.753
302.729
302.705
302.681
302.657
302.633
302.609
302.585
302.561
302.537
302.512
302.488
302.464
302.44
302.416
302.392
302.368
302.344
302.32
302.296
302.272
302.247
302.223
302.199
302.175
302.151
302.127
302.103
302.079
302.055
302.031
302.007
301.983
301.959
301.934
301.91
301.886
301.862
301.838
301.814
301.79
301.766
301.742
301.718
301.694
301.67
301.646
301.622
301.598
301.574
301.549
301.525
301.501
301.477
301.453
301.429
301.405
301.381
301.357
301.333
301.309
301.285
301.261
301.237
301.213
301.189
301.165
301.141
301.117
301.093
301.069
301.045
301.021
300.996
300.972
300.948
300.924
300.9
300.876
300.852
300.828
300.804
300.78
300.756
300.732
300.708
300.684
300.66
300.636
300.612
300.588
300.564
300.54
300.516
300.492
300.468
300.444
300.42
300.396
300.372
300.348
300.324
300.3
300.276
300.252
300.228
300.204
300.18
300.156
300.132
300.108
300.084
300.06
300.036
300.012
299.988
299.964
299.94
299.916
299.892
299.868
299.844
299.82
299.796
299.772
299.748
299.724
299.7
299.676
299.652
299.628
299.604
299.58
299.556
299.532
299.508
299.484
299.46
299.436
299.412
299.388
299.365
299.341
299.317
299.293
299.269
299.245
299.221
299.197
299.173
299.149
299.125
299.101
299.077
299.053
299.029
299.005
298.981
298.957
298.933
298.909
298.885
298.861
298.837
298.814
298.79
298.766
298.742
298.718
298.694
298.67
298.646
298.622
298.598
298.574
298.55
298.526
298.502
298.478
298.454
298.431
298.407
298.383
298.359
298.335
298.311
298.287
298.263
298.239
298.215
298.191
298.167
298.143
298.12
298.096
298.072
298.048
298.024
298
297.976
297.952
297.928
297.904
297.88
297.857
297.833
297.809
297.785
297.761
297.737
297.713
297.689
297.665
297.641
297.618
297.594
297.57
297.546
297.522
297.498
297.474
297.45
297.426
297.403
297.379
297.355
297.331
297.307
297.283
297.259
297.235
297.211
297.188
297.164
297.14
297.116
297.092
297.068
297.044
297.02
296.997
296.973
296.949
296.925
296.901
296.877
296.853
296.829
296.806
296.782
296.758
296.734
296.71
296.686
296.662
296.639
296.615
296.591
296.567
296.543
296.519
296.495
296.472
296.448
296.424
296.4
296.376
296.352
296.329
296.305
296.281
296.257
296.233
296.209
296.185
296.162
296.138
296.114
296.09
296.066
296.042
296.019
295.995
295.971
295.947
295.923
295.9
295.876
295.852
295.828
295.804
295.78
295.757
295.733
295.709
295.685
295.661
295.637
295.614
295.59
295.566
295.542
295.518
295.495
295.471
295.447
295.423
295.399
295.376
295.352
295.328
295.304
295.28
295.257
295.233
295.209
295.185
295.161
295.138
295.114
295.09
295.066
295.042
295.019
294.995
294.971
294.947
294.923
294.9
294.876
294.852
294.828
294.804
294.781
294.757
294.733
294.709
294.686
294.662
294.638
294.614
294.59
294.567
294.543
294.519
294.495
294.472
294.448
294.424
294.4
294.377
294.353
294.329
294.305
294.282
294.258
294.234
294.21
294.186
294.163
294.139
294.115
294.091
294.068
294.044
294.02
293.996
293.973
293.949
293.925
293.901
293.878
293.854
293.83
293.806
293.783
293.759
293.735
293.712
293.688
293.664
293.64
293.617
293.593
293.569
293.545
293.522
293.498
293.474
293.45
293.427
293.403
293.379
293.356
293.332
293.308
293.284
293.261
293.237
293.213
293.19
293.166
293.142
293.118
293.095
293.071
293.047
293.024
293
292.976
292.952
292.929
292.905
292.881
292.858
292.834
292.81
292.787
292.763
292.739
292.715
292.692
292.668
292.644
292.621
292.597
292.573
292.55
292.526
292.502
292.478
292.455
292.431
292.407
292.384
292.36
292.336
292.313
292.289
292.265
292.242
292.218
292.194
292.171
292.147
292.123
292.1
292.076
292.052
292.029
292.005
291.981
291.958
291.934
291.91
291.887
291.863
291.839
291.816
291.792
291.768
291.745
291.721
291.697
291.674
291.65
291.626
291.603
291.579
291.555
291.532
291.508
291.484
291.461
291.437
291.414
291.39
291.366
291.343
291.319
291.295
291.272
291.248
291.224
291.201
291.177
291.154
291.13
291.106
291.083
291.059
291.035
291.012
290.988
290.964
290.941
290.917
290.894
290.87
290.846
290.823
290.799
290.776
290.752
290.728
290.705
290.681
290.657
290.634
290.61
290.587
290.563
290.539
290.516
290.492
290.469
290.445
290.421
290.398
290.374
290.351
290.327
290.303
290.28
290.256
290.233
290.209
290.185
290.162
290.138
290.115
290.091
290.067
290.044
290.02
289.997
289.973
289.949
289.926
289.902
289.879
289.855
289.832
289.808
289.784
289.761
289.737
289.714
289.69
289.667
289.643
289.619
289.596
289.572
289.549
289.525
289.502
289.478
289.454
289.431
289.407
289.384
289.36
289.337
289.313
289.29
289.266
289.242
289.219
289.195
289.172
289.148
289.125
289.101
289.078
289.054
289.03
289.007
288.983
288.96
288.936
288.913
288.889
288.866
288.842
288.819
288.795
288.772
288.748
288.724
288.701
288.677
288.654
288.63
288.607
288.583
288.56
288.536
288.513
288.489
288.466
288.442
288.419
288.395
288.372
288.348
288.325
288.301
288.277
288.254
288.23
288.207
288.183
288.16
288.136
288.113
288.089
288.067
288.042
288.02
287.994
287.973
287.947
287.927
287.899
287.88
287.852
287.834
287.804
287.787
287.757
287.741
287.71
287.694
287.663
287.647
287.616
287.599
287.57
287.551
287.524
287.503
287.478
287.455
287.433
287.406
287.387
287.359
287.341
287.311
287.293
287.265
287.246
287.219
287.197
287.174
287.149
287.128
287.101
287.082
287.054
287.035
287.008
286.986
286.962
286.938
286.917
286.89
286.871
286.843
286.823
286.797
286.775
286.752
286.727
286.706
286.679
286.659
286.632
286.611
286.587
286.563
286.541
286.515
286.495
286.468
286.448
286.423
286.399
286.377
286.351
286.331
286.304
286.283
286.259
286.235
286.213
286.187
286.167
286.14
286.119
286.095
286.071
286.049
286.023
286.003
285.977
285.954
285.932
285.906
285.886
285.859
285.838
285.814
285.79
285.768
285.742
285.721
285.696
285.673
285.651
285.625
285.605
285.579
285.557
285.533
285.509
285.487
285.462
285.44
285.416
285.392
285.37
285.345
285.323
285.299
285.275
285.253
285.228
285.206
285.182
285.159
285.136
285.111
285.09
285.065
285.042
285.019
284.994
284.973
284.948
284.925
284.902
284.877
284.856
284.831
284.808
284.785
284.76
284.739
284.714
284.691
284.669
284.644
284.622
284.598
284.574
284.552
284.527
284.505
284.481
284.457
284.435
284.41
284.388
284.365
284.34
284.318
284.294
284.271
284.248
284.223
284.201
284.177
284.154
284.131
284.107
284.085
284.061
284.037
284.015
283.99
283.968
283.944
283.92
283.898
283.874
283.851
283.828
283.803
283.781
283.758
283.734
283.711
283.687
283.664
283.641
283.617
283.595
283.571
283.547
283.525
283.5
283.478
283.455
283.43
283.408
283.384
283.361
283.338
283.314
283.291
283.268
283.244
283.222
283.198
283.174
283.152
283.128
283.105
283.082
283.058
283.035
283.012
282.988
282.965
282.941
282.918
282.895
282.871
282.849
282.825
282.802
282.779
282.755
282.732
282.709
282.685
282.662
282.639
282.615
282.593
282.569
282.546
282.523
282.499
282.476
282.453
282.429
282.406
282.383
282.359
282.337
282.313
282.29
282.267
282.243
282.22
282.197
282.173
282.15
282.127
282.103
282.081
282.057
282.034
282.011
281.987
281.964
281.941
281.918
281.894
281.872
281.848
281.825
281.802
281.778
281.755
281.732
281.708
281.686
281.662
281.639
281.616
281.592
281.569
281.546
281.522
281.5
281.477
281.453
281.43
281.407
281.383
281.36
281.337
281.313
281.291
281.267
281.244
281.221
281.197
281.174
281.151
281.128
281.105
281.082
281.058
281.035
281.012
280.988
280.966
280.942
280.919
280.896
280.873
280.849
280.826
280.803
280.78
280.757
280.733
280.71
280.687
280.664
280.641
280.618
280.594
280.571
280.548
280.525
280.501
280.479
280.455
280.432
280.409
280.385
280.362
280.339
280.316
280.293
280.27
280.246
280.223
280.2
280.177
280.154
280.131
280.107
280.084
280.061
280.038
280.015
279.992
279.968
279.945
279.922
279.899
279.876
279.853
279.829
279.806
279.783
279.76
279.737
279.714
279.69
279.668
279.644
279.621
279.598
279.575
279.552
279.529
279.505
279.482
279.459
279.436
279.413
279.39
279.367
279.343
279.32
279.297
279.274
279.251
279.228
279.204
279.182
279.158
279.135
279.112
279.089
279.066
279.043
279.02
278.996
278.973
278.95
278.927
278.904
278.881
278.858
278.835
278.812
278.788
278.765
278.742
278.719
278.696
278.673
278.65
278.627
278.604
278.58
278.557
278.534
278.511
278.488
278.465
278.442
278.419
278.396
278.372
278.349
278.326
278.303
278.28
278.257
278.234
278.211
278.188
278.165
278.141
278.118
278.095
278.072
278.049
278.026
278.003
277.98
277.957
277.934
277.911
277.888
277.864
277.841
277.819
277.795
277.772
277.749
277.726
277.703
277.68
277.657
277.634
277.611
277.588
277.565
277.542
277.519
277.495
277.472
277.449
277.426
277.403
277.38
277.357
277.334
277.311
277.288
277.265
277.242
277.219
277.196
277.173
277.15
277.127
277.104
277.081
277.057
277.035
277.012
276.988
276.965
276.942
276.919
276.896
276.873
276.85
276.827
276.804
276.781
276.758
276.735
276.712
276.689
276.666
276.643
276.62
276.597
276.574
276.551
276.528
276.505
276.482
276.459
276.436
276.413
276.39
276.367
276.344
276.321
276.298
276.275
276.252
276.229
276.206
276.183
276.16
276.137
276.114
276.091
276.068
276.045
276.022
275.999
275.976
275.953
275.93
275.907
275.884
275.861
275.838
275.815
275.792
275.769
275.746
275.723
275.7
275.677
275.654
275.631
275.608
275.585
275.562
275.539
275.516
275.493
275.47
275.447
275.424
275.401
275.378
275.355
275.332
275.309
275.287
275.264
275.241
275.218
275.195
275.172
275.149
275.126
275.103
275.08
275.057
275.034
275.011
274.988
274.965
274.942
274.919
274.896
274.873
274.85
274.827
274.805
274.782
274.759
274.736
274.713
274.69
274.667
274.644
274.621
274.598
274.575
274.552
274.529
274.506
274.483
274.46
274.438
274.415
274.392
274.369
274.346
274.323
274.3
274.277
274.254
274.231
274.208
274.185
274.163
274.14
274.117
274.094
274.071
274.048
274.025
274.002
273.979
273.956
273.933
273.911
273.888
273.865
273.842
273.819
273.796
273.773
273.75
273.727
273.705
273.682
273.659
273.636
273.613
273.59
273.567
273.544
273.521
273.499
273.476
273.453
273.43
273.407
273.384
273.361
273.338
273.316
273.293
273.27
273.247
273.224
273.201
273.178
273.155
273.133
273.11
273.087
273.064
273.041
273.018
272.995
272.972
272.95
272.927
272.904
272.881
272.858
272.835
272.812
272.79
272.767
272.744
272.721
272.698
272.675
272.653
272.63
272.607
272.584
272.561
272.538
272.515
272.493
272.47
272.447
272.424
272.401
272.378
272.356
272.333
272.31
272.287
272.264
272.241
272.219
272.196
272.173
272.15
272.127
272.105
272.082
272.059
272.036
272.013
271.99
271.968
271.945
271.922
271.899
271.876
271.854
271.831
271.808
271.785
271.762
271.74
271.717
271.694
271.671
271.648
271.626
271.603
271.58
271.557
271.534
271.512
271.489
271.466
271.443
271.42
271.398
271.375
271.352
271.329
271.306
271.284
271.261
271.238
271.215
271.193
271.17
271.147
271.124
271.101
271.079
271.056
271.033
271.01
270.988
270.965
270.942
270.919
270.896
270.874
270.851
270.828
270.805
270.783
270.76
270.737
270.714
270.692
270.669
270.646
270.623
270.601
270.578
270.555
270.532
270.51
270.487
270.464
270.441
270.419
270.396
270.373
270.35