/*--------------------------------*- C++ -*----------------------------------*\
  =========                 |
  \\      /  F ield         | OpenFOAM: The Open Source CFD Toolbox
   \\    /   O peration     | Website:  https://openfoam.org
    \\  /    A nd           | Version:  9
     \\/     M anipulation  |
\*---------------------------------------------------------------------------*/
FoamFile
{
    format      ascii;
    class       volVectorField;
    location    "0.012";
    object      U;
}
// * * * * * * * * * * * * * * * * * * * * * * * * * * * * * * * * * * * * * //

dimensions      [0 1 -1 0 0 0 0];

internalField   nonuniform List<vector> 
10000
(
(-1.00852e-11 0 0)
(-9.97848e-12 0 0)
(-9.57004e-12 0 0)
(-8.61111e-12 0 0)
(-8.46678e-12 0 0)
(-8.14739e-12 0 0)
(-8.85372e-12 0 0)
(-8.24873e-12 0 0)
(-8.72935e-12 0 0)
(-8.41073e-12 0 0)
(-9.29365e-12 0 0)
(-9.20996e-12 0 0)
(-9.41725e-12 0 0)
(-9.01188e-12 0 0)
(-1.0023e-11 0 0)
(-1.04077e-11 0 0)
(-1.1481e-11 0 0)
(-1.22533e-11 0 0)
(-1.28338e-11 0 0)
(-1.32361e-11 0 0)
(-1.41059e-11 0 0)
(-1.40821e-11 0 0)
(-1.43163e-11 0 0)
(-1.48629e-11 0 0)
(-1.48084e-11 0 0)
(-1.49121e-11 0 0)
(-1.47923e-11 0 0)
(-1.54372e-11 0 0)
(-1.54149e-11 0 0)
(-1.59954e-11 0 0)
(-1.63524e-11 0 0)
(-1.60245e-11 0 0)
(-1.60291e-11 0 0)
(-1.56245e-11 0 0)
(-1.46979e-11 0 0)
(-1.49742e-11 0 0)
(-1.4175e-11 0 0)
(-1.3765e-11 0 0)
(-1.2876e-11 0 0)
(-1.29489e-11 0 0)
(-1.18234e-11 0 0)
(-1.09105e-11 0 0)
(-1.07992e-11 0 0)
(-9.4971e-12 0 0)
(-8.85296e-12 0 0)
(-7.42033e-12 0 0)
(-6.66716e-12 0 0)
(-4.89442e-12 0 0)
(-4.64183e-12 0 0)
(-3.96084e-12 0 0)
(-4.56736e-12 0 0)
(-4.39692e-12 0 0)
(-4.85911e-12 0 0)
(-4.18963e-12 0 0)
(-4.61189e-12 0 0)
(-4.1451e-12 0 0)
(-5.42878e-12 0 0)
(-6.00536e-12 0 0)
(-7.02494e-12 0 0)
(-7.31668e-12 0 0)
(-8.05987e-12 0 0)
(-8.34317e-12 0 0)
(-9.3758e-12 0 0)
(-9.3543e-12 0 0)
(-9.81265e-12 0 0)
(-9.96543e-12 0 0)
(-1.02126e-11 0 0)
(-1.05827e-11 0 0)
(-1.10664e-11 0 0)
(-1.10372e-11 0 0)
(-1.1309e-11 0 0)
(-1.12752e-11 0 0)
(-1.16084e-11 0 0)
(-1.1689e-11 0 0)
(-1.17082e-11 0 0)
(-1.13911e-11 0 0)
(-1.18364e-11 0 0)
(-1.20814e-11 0 0)
(-1.18503e-11 0 0)
(-1.17597e-11 0 0)
(-1.16752e-11 0 0)
(-1.08284e-11 0 0)
(-1.10234e-11 0 0)
(-9.95007e-12 0 0)
(-9.76965e-12 0 0)
(-8.99038e-12 0 0)
(-9.08328e-12 0 0)
(-9.10094e-12 0 0)
(-8.99115e-12 0 0)
(-8.8591e-12 0 0)
(-7.98232e-12 0 0)
(-7.63069e-12 0 0)
(-7.19154e-12 0 0)
(-7.36505e-12 0 0)
(-7.47023e-12 0 0)
(-7.8257e-12 0 0)
(-7.73741e-12 0 0)
(-7.46793e-12 0 0)
(-7.17311e-12 0 0)
(-6.47906e-12 0 0)
(-5.89097e-12 0 0)
(-6.00152e-12 0 0)
(-6.31784e-12 0 0)
(-6.3877e-12 0 0)
(-6.89212e-12 0 0)
(-7.55008e-12 0 0)
(-8.35085e-12 0 0)
(-8.4399e-12 0 0)
(-8.81226e-12 0 0)
(-8.63568e-12 0 0)
(-8.91821e-12 0 0)
(-8.83299e-12 0 0)
(-9.38731e-12 0 0)
(-9.7113e-12 0 0)
(-9.87253e-12 0 0)
(-1.03716e-11 0 0)
(-1.03148e-11 0 0)
(-9.95315e-12 0 0)
(-9.62071e-12 0 0)
(-9.54777e-12 0 0)
(-9.64221e-12 0 0)
(-9.83107e-12 0 0)
(-9.81034e-12 0 0)
(-9.947e-12 0 0)
(-9.85871e-12 0 0)
(-1.01673e-11 0 0)
(-1.08361e-11 0 0)
(-1.08007e-11 0 0)
(-1.15424e-11 0 0)
(-1.2142e-11 0 0)
(-1.19293e-11 0 0)
(-1.18886e-11 0 0)
(-1.201e-11 0 0)
(-1.21113e-11 0 0)
(-1.23025e-11 0 0)
(-1.26879e-11 0 0)
(-1.24161e-11 0 0)
(-1.22172e-11 0 0)
(-1.26257e-11 0 0)
(-1.23931e-11 0 0)
(-1.30334e-11 0 0)
(-1.35923e-11 0 0)
(-1.39017e-11 0 0)
(-1.42088e-11 0 0)
(-1.36982e-11 0 0)
(-1.41382e-11 0 0)
(-1.44852e-11 0 0)
(-1.39017e-11 0 0)
(-1.36606e-11 0 0)
(-1.31163e-11 0 0)
(-1.22718e-11 0 0)
(-1.23401e-11 0 0)
(-1.18564e-11 0 0)
(-1.14948e-11 0 0)
(-1.1061e-11 0 0)
(-1.11109e-11 0 0)
(-1.01581e-11 0 0)
(-9.71591e-12 0 0)
(-9.0994e-12 0 0)
(-9.21457e-12 0 0)
(-8.13587e-12 0 0)
(-8.23799e-12 0 0)
(-7.44106e-12 0 0)
(-7.2092e-12 0 0)
(-6.28175e-12 0 0)
(-6.43837e-12 0 0)
(-5.83031e-12 0 0)
(-6.39922e-12 0 0)
(-6.11285e-12 0 0)
(-6.72321e-12 0 0)
(-5.79807e-12 0 0)
(-6.28406e-12 0 0)
(-5.34356e-12 0 0)
(-5.87177e-12 0 0)
(-5.79193e-12 0 0)
(-7.29135e-12 0 0)
(-7.04106e-12 0 0)
(-8.04298e-12 0 0)
(-7.5877e-12 0 0)
(-8.89749e-12 0 0)
(-8.44298e-12 0 0)
(-9.30747e-12 0 0)
(-8.86754e-12 0 0)
(-9.61917e-12 0 0)
(-9.58079e-12 0 0)
(-1.0099e-11 0 0)
(-9.4756e-12 0 0)
(-1.00921e-11 0 0)
(-9.12704e-12 0 0)
(-9.24374e-12 0 0)
(-8.89518e-12 0 0)
(-8.62186e-12 0 0)
(-8.09365e-12 0 0)
(-8.96044e-12 0 0)
(-9.01188e-12 0 0)
(-9.55084e-12 0 0)
(-9.78347e-12 0 0)
(-1.03163e-11 0 0)
(-1.01489e-11 0 0)
(-1.04537e-11 0 0)
(-9.56927e-12 0 0)
(-1.05174e-11 0 0)
(-1.00606e-11 0 0)
(-9.83721e-12 0 0)
(-9.24835e-12 0 0)
(-8.65948e-12 0 0)
(-7.59691e-12 0 0)
(-7.61611e-12 0 0)
(-7.19384e-12 0 0)
(-7.28981e-12 0 0)
(-6.72782e-12 0 0)
(-6.82609e-12 0 0)
(-6.46832e-12 0 0)
(-6.60651e-12 0 0)
(-6.13818e-12 0 0)
(-5.92168e-12 0 0)
(-5.62456e-12 0 0)
(-5.3758e-12 0 0)
(-4.53051e-12 0 0)
(-4.34855e-12 0 0)
(-4.23108e-12 0 0)
(-4.55124e-12 0 0)
(-4.87907e-12 0 0)
(-5.63914e-12 0 0)
(-5.66601e-12 0 0)
(-6.30632e-12 0 0)
(-5.89173e-12 0 0)
(-6.4783e-12 0 0)
(-7.42417e-12 0 0)
(-8.80843e-12 0 0)
(-9.20305e-12 0 0)
(-9.78501e-12 0 0)
(-1.04583e-11 0 0)
(-1.2046e-11 0 0)
(-1.30817e-11 0 0)
(-1.33228e-11 0 0)
(-1.41028e-11 0 0)
(-1.45581e-11 0 0)
(-1.47838e-11 0 0)
(-1.49405e-11 0 0)
(-1.36668e-11 0 0)
(-1.3276e-11 0 0)
(-1.29635e-11 0 0)
(-1.33743e-11 0 0)
(-1.39531e-11 0 0)
(-1.39754e-11 0 0)
(-1.30725e-11 0 0)
(-1.28729e-11 0 0)
(-1.27992e-11 0 0)
(-1.22625e-11 0 0)
(-1.17075e-11 0 0)
(-1.18587e-11 0 0)
(-1.1937e-11 0 0)
(-1.15746e-11 0 0)
(-1.1147e-11 0 0)
(-1.02119e-11 0 0)
(-9.51015e-12 0 0)
(-9.0495e-12 0 0)
(-8.87445e-12 0 0)
(-8.16505e-12 0 0)
(-7.71591e-12 0 0)
(-7.36275e-12 0 0)
(-7.66601e-12 0 0)
(-7.67292e-12 0 0)
(-7.72897e-12 0 0)
(-8.11745e-12 0 0)
(-8.98347e-12 0 0)
(-8.66102e-12 0 0)
(-8.78616e-12 0 0)
(-7.93319e-12 0 0)
(-8.37004e-12 0 0)
(-7.86102e-12 0 0)
(-8.15507e-12 0 0)
(-7.79346e-12 0 0)
(-7.69595e-12 0 0)
(-7.02494e-12 0 0)
(-6.79154e-12 0 0)
(-6.34548e-12 0 0)
(-6.41764e-12 0 0)
(-6.63338e-12 0 0)
(-6.97119e-12 0 0)
(-6.87522e-12 0 0)
(-7.37657e-12 0 0)
(-8.03837e-12 0 0)
(-8.50363e-12 0 0)
(-8.24643e-12 0 0)
(-9.16697e-12 0 0)
(-9.38731e-12 0 0)
(-1.04184e-11 0 0)
(-1.12645e-11 0 0)
(-1.18595e-11 0 0)
(-1.19209e-11 0 0)
(-1.33075e-11 0 0)
(-1.30702e-11 0 0)
(-1.4023e-11 0 0)
(-1.38195e-11 0 0)
(-1.46418e-11 0 0)
(-1.4813e-11 0 0)
(-1.63155e-11 0 0)
(-1.4965e-11 0 0)
(-1.59071e-11 0 0)
(-1.5362e-11 0 0)
(-1.67961e-11 0 0)
(-1.57051e-11 0 0)
(-1.65765e-11 0 0)
(-1.59838e-11 0 0)
(-1.66863e-11 0 0)
(-1.58303e-11 0 0)
(-1.73489e-11 0 0)
(-1.68637e-11 0 0)
(-1.7874e-11 0 0)
(-1.69297e-11 0 0)
(-1.75823e-11 0 0)
(-1.62011e-11 0 0)
(-1.69681e-11 0 0)
(-1.64606e-11 0 0)
(-1.76076e-11 0 0)
(-1.68353e-11 0 0)
(-1.80238e-11 0 0)
(-1.72552e-11 0 0)
(-1.82725e-11 0 0)
(-1.77021e-11 0 0)
(-1.81896e-11 0 0)
(-1.76076e-11 0 0)
(-1.8575e-11 0 0)
(-1.74272e-11 0 0)
(-1.83201e-11 0 0)
(-1.82825e-11 0 0)
(-1.8975e-11 0 0)
(-1.90226e-11 0 0)
(-1.93589e-11 0 0)
(-1.8856e-11 0 0)
(-1.98088e-11 0 0)
(-1.89005e-11 0 0)
(-1.88422e-11 0 0)
(-1.88222e-11 0 0)
(-1.8975e-11 0 0)
(-1.88107e-11 0 0)
(-1.87677e-11 0 0)
(-1.80691e-11 0 0)
(-1.80952e-11 0 0)
(-1.70464e-11 0 0)
(-1.6846e-11 0 0)
(-1.56522e-11 0 0)
(-1.46579e-11 0 0)
(-1.32414e-11 0 0)
(-1.21497e-11 0 0)
(-1.13075e-11 0 0)
(-1.07101e-11 0 0)
(-1.03301e-11 0 0)
(-9.65065e-12 0 0)
(-9.73894e-12 0 0)
(-9.88405e-12 0 0)
(-9.53395e-12 0 0)
(-9.51783e-12 0 0)
(-9.97157e-12 0 0)
(-9.82416e-12 0 0)
(-1.05643e-11 0 0)
(-1.12015e-11 0 0)
(-1.23554e-11 0 0)
(-1.2694e-11 0 0)
(-1.29512e-11 0 0)
(-1.31908e-11 0 0)
(-1.27938e-11 0 0)
(-1.27908e-11 0 0)
(-1.2261e-11 0 0)
(-1.22518e-11 0 0)
(-1.14794e-11 0 0)
(-1.06149e-11 0 0)
(-8.55967e-12 0 0)
(-6.08367e-12 0 0)
(-2.7808e-12 0 0)
(1.21382e-12 0 0)
(6.77618e-12 0 0)
(1.36169e-11 0 0)
(2.2823e-11 0 0)
(3.47915e-11 0 0)
(4.97565e-11 0 0)
(7.00989e-11 0 0)
(9.73602e-11 0 0)
(1.33078e-10 0 0)
(1.7982e-10 0 0)
(2.42045e-10 0 0)
(3.23848e-10 0 0)
(4.3209e-10 0 0)
(5.75514e-10 0 0)
(7.62614e-10 0 0)
(1.00846e-09 0 0)
(1.33248e-09 0 0)
(1.7547e-09 0 0)
(2.30988e-09 0 0)
(3.03404e-09 0 0)
(3.97979e-09 0 0)
(5.21308e-09 0 0)
(6.81868e-09 0 0)
(8.90665e-09 0 0)
(1.16185e-08 0 0)
(1.51337e-08 0 0)
(1.96883e-08 0 0)
(2.55763e-08 0 0)
(3.31798e-08 0 0)
(4.29853e-08 0 0)
(5.5613e-08 0 0)
(7.18492e-08 0 0)
(9.26977e-08 0 0)
(1.19429e-07 0 0)
(1.53652e-07 0 0)
(1.97405e-07 0 0)
(2.53257e-07 0 0)
(3.24448e-07 0 0)
(4.15054e-07 0 0)
(5.30198e-07 0 0)
(6.76299e-07 0 0)
(8.61399e-07 0 0)
(1.09554e-06 0 0)
(1.39127e-06 0 0)
(1.76419e-06 0 0)
(2.2337e-06 0 0)
(2.82388e-06 0 0)
(3.56455e-06 0 0)
(4.49259e-06 0 0)
(5.65348e-06 0 0)
(7.10326e-06 0 0)
(8.91081e-06 0 0)
(1.11606e-05 0 0)
(1.39562e-05 0 0)
(1.74239e-05 0 0)
(2.17179e-05 0 0)
(2.7026e-05 0 0)
(3.3576e-05 0 0)
(4.16442e-05 0 0)
(5.15644e-05 0 0)
(6.37399e-05 0 0)
(7.86559e-05 0 0)
(9.68954e-05 0 0)
(0.000119157 0 0)
(0.000146276 0 0)
(0.00017925 0 0)
(0.000219265 0 0)
(0.000267728 0 0)
(0.000326308 0 0)
(0.000396974 0 0)
(0.000482045 0 0)
(0.000584249 0 0)
(0.000706779 0 0)
(0.000853367 0 0)
(0.00102836 0 0)
(0.00123681 0 0)
(0.00148457 0 0)
(0.0017784 0 0)
(0.00212606 0 0)
(0.00253648 0 0)
(0.00301987 0 0)
(0.00358784 0 0)
(0.00425359 0 0)
(0.00503206 0 0)
(0.00594007 0 0)
(0.00699654 0 0)
(0.00822258 0 0)
(0.00964173 0 0)
(0.0112801 0 0)
(0.0131665 0 0)
(0.0153325 0 0)
(0.0178129 0 0)
(0.0206451 0 0)
(0.0238701 0 0)
(0.0275317 0 0)
(0.0316769 0 0)
(0.0363556 0 0)
(0.0416209 0 0)
(0.0475282 0 0)
(0.0541355 0 0)
(0.061503 0 0)
(0.0696924 0 0)
(0.0787667 0 0)
(0.0887898 0 0)
(0.0998254 0 0)
(0.111937 0 0)
(0.125187 0 0)
(0.139635 0 0)
(0.155339 0 0)
(0.172353 0 0)
(0.190729 0 0)
(0.210511 0 0)
(0.231741 0 0)
(0.254453 0 0)
(0.278676 0 0)
(0.304431 0 0)
(0.331735 0 0)
(0.360596 0 0)
(0.391015 0 0)
(0.422988 0 0)
(0.456502 0 0)
(0.49154 0 0)
(0.528077 0 0)
(0.566085 0 0)
(0.60553 0 0)
(0.646372 0 0)
(0.688571 0 0)
(0.732082 0 0)
(0.776855 0 0)
(0.822844 0 0)
(0.869995 0 0)
(0.91826 0 0)
(0.967585 0 0)
(1.01792 0 0)
(1.06921 0 0)
(1.12141 0 0)
(1.17447 0 0)
(1.22835 0 0)
(1.28298 0 0)
(1.33835 0 0)
(1.39439 0 0)
(1.45107 0 0)
(1.50835 0 0)
(1.5662 0 0)
(1.62458 0 0)
(1.68346 0 0)
(1.74281 0 0)
(1.8026 0 0)
(1.86281 0 0)
(1.9234 0 0)
(1.98436 0 0)
(2.04567 0 0)
(2.1073 0 0)
(2.16923 0 0)
(2.23146 0 0)
(2.29395 0 0)
(2.3567 0 0)
(2.41969 0 0)
(2.4829 0 0)
(2.54634 0 0)
(2.60997 0 0)
(2.6738 0 0)
(2.7378 0 0)
(2.80198 0 0)
(2.86632 0 0)
(2.93082 0 0)
(2.99546 0 0)
(3.06024 0 0)
(3.12515 0 0)
(3.19018 0 0)
(3.25534 0 0)
(3.3206 0 0)
(3.38598 0 0)
(3.45146 0 0)
(3.51703 0 0)
(3.5827 0 0)
(3.64846 0 0)
(3.7143 0 0)
(3.78023 0 0)
(3.84623 0 0)
(3.91231 0 0)
(3.97845 0 0)
(4.04467 0 0)
(4.11095 0 0)
(4.17729 0 0)
(4.2437 0 0)
(4.31016 0 0)
(4.37667 0 0)
(4.44324 0 0)
(4.50987 0 0)
(4.57654 0 0)
(4.64325 0 0)
(4.71002 0 0)
(4.77682 0 0)
(4.84367 0 0)
(4.91057 0 0)
(4.9775 0 0)
(5.04447 0 0)
(5.11147 0 0)
(5.17851 0 0)
(5.24559 0 0)
(5.3127 0 0)
(5.37984 0 0)
(5.44702 0 0)
(5.51422 0 0)
(5.58146 0 0)
(5.64872 0 0)
(5.71602 0 0)
(5.78333 0 0)
(5.85068 0 0)
(5.91805 0 0)
(5.98545 0 0)
(6.05287 0 0)
(6.12032 0 0)
(6.18778 0 0)
(6.25528 0 0)
(6.32279 0 0)
(6.39033 0 0)
(6.45788 0 0)
(6.52546 0 0)
(6.59306 0 0)
(6.66067 0 0)
(6.72831 0 0)
(6.79597 0 0)
(6.86364 0 0)
(6.93133 0 0)
(6.99905 0 0)
(7.06677 0 0)
(7.13452 0 0)
(7.20228 0 0)
(7.27006 0 0)
(7.33786 0 0)
(7.40567 0 0)
(7.4735 0 0)
(7.54134 0 0)
(7.6092 0 0)
(7.67707 0 0)
(7.74496 0 0)
(7.81286 0 0)
(7.88078 0 0)
(7.94871 0 0)
(8.01665 0 0)
(8.08461 0 0)
(8.15258 0 0)
(8.22057 0 0)
(8.28857 0 0)
(8.35658 0 0)
(8.42461 0 0)
(8.49264 0 0)
(8.56069 0 0)
(8.62876 0 0)
(8.69683 0 0)
(8.76492 0 0)
(8.83301 0 0)
(8.90112 0 0)
(8.96925 0 0)
(9.03738 0 0)
(9.10552 0 0)
(9.17368 0 0)
(9.24185 0 0)
(9.31002 0 0)
(9.37821 0 0)
(9.44641 0 0)
(9.51462 0 0)
(9.58284 0 0)
(9.65107 0 0)
(9.71931 0 0)
(9.78756 0 0)
(9.85583 0 0)
(9.9241 0 0)
(9.99238 0 0)
(10.0607 0 0)
(10.129 0 0)
(10.1973 0 0)
(10.2656 0 0)
(10.3339 0 0)
(10.4023 0 0)
(10.4706 0 0)
(10.539 0 0)
(10.6073 0 0)
(10.6757 0 0)
(10.7441 0 0)
(10.8125 0 0)
(10.8809 0 0)
(10.9493 0 0)
(11.0177 0 0)
(11.0861 0 0)
(11.1546 0 0)
(11.223 0 0)
(11.2914 0 0)
(11.3599 0 0)
(11.4284 0 0)
(11.4968 0 0)
(11.5653 0 0)
(11.6338 0 0)
(11.7023 0 0)
(11.7708 0 0)
(11.8393 0 0)
(11.9078 0 0)
(11.9764 0 0)
(12.0449 0 0)
(12.1134 0 0)
(12.182 0 0)
(12.2505 0 0)
(12.3191 0 0)
(12.3877 0 0)
(12.4562 0 0)
(12.5248 0 0)
(12.5934 0 0)
(12.662 0 0)
(12.7306 0 0)
(12.7992 0 0)
(12.8678 0 0)
(12.9364 0 0)
(13.005 0 0)
(13.0737 0 0)
(13.1423 0 0)
(13.211 0 0)
(13.2796 0 0)
(13.3483 0 0)
(13.4169 0 0)
(13.4856 0 0)
(13.5543 0 0)
(13.6229 0 0)
(13.6916 0 0)
(13.7603 0 0)
(13.829 0 0)
(13.8977 0 0)
(13.9664 0 0)
(14.0351 0 0)
(14.1038 0 0)
(14.1725 0 0)
(14.2413 0 0)
(14.31 0 0)
(14.3787 0 0)
(14.4475 0 0)
(14.5162 0 0)
(14.585 0 0)
(14.6537 0 0)
(14.7225 0 0)
(14.7912 0 0)
(14.86 0 0)
(14.9288 0 0)
(14.9976 0 0)
(15.0663 0 0)
(15.1351 0 0)
(15.2039 0 0)
(15.2727 0 0)
(15.3415 0 0)
(15.4103 0 0)
(15.4791 0 0)
(15.5479 0 0)
(15.6167 0 0)
(15.6855 0 0)
(15.7544 0 0)
(15.8232 0 0)
(15.892 0 0)
(15.9609 0 0)
(16.0297 0 0)
(16.0985 0 0)
(16.1674 0 0)
(16.2362 0 0)
(16.3051 0 0)
(16.3739 0 0)
(16.4428 0 0)
(16.5117 0 0)
(16.5805 0 0)
(16.6494 0 0)
(16.7183 0 0)
(16.7871 0 0)
(16.856 0 0)
(16.9249 0 0)
(16.9938 0 0)
(17.0627 0 0)
(17.1316 0 0)
(17.2005 0 0)
(17.2694 0 0)
(17.3383 0 0)
(17.4072 0 0)
(17.4761 0 0)
(17.545 0 0)
(17.6139 0 0)
(17.6828 0 0)
(17.7517 0 0)
(17.8206 0 0)
(17.8896 0 0)
(17.9585 0 0)
(18.0274 0 0)
(18.0963 0 0)
(18.1653 0 0)
(18.2342 0 0)
(18.3032 0 0)
(18.3721 0 0)
(18.441 0 0)
(18.51 0 0)
(18.5789 0 0)
(18.6479 0 0)
(18.7169 0 0)
(18.7858 0 0)
(18.8548 0 0)
(18.9237 0 0)
(18.9927 0 0)
(19.0617 0 0)
(19.1306 0 0)
(19.1996 0 0)
(19.2686 0 0)
(19.3376 0 0)
(19.4065 0 0)
(19.4755 0 0)
(19.5445 0 0)
(19.6135 0 0)
(19.6825 0 0)
(19.7515 0 0)
(19.8204 0 0)
(19.8894 0 0)
(19.9584 0 0)
(20.0274 0 0)
(20.0964 0 0)
(20.1654 0 0)
(20.2344 0 0)
(20.3034 0 0)
(20.3724 0 0)
(20.4415 0 0)
(20.5105 0 0)
(20.5795 0 0)
(20.6485 0 0)
(20.7175 0 0)
(20.7865 0 0)
(20.8556 0 0)
(20.9246 0 0)
(20.9936 0 0)
(21.0626 0 0)
(21.1317 0 0)
(21.2007 0 0)
(21.2697 0 0)
(21.3387 0 0)
(21.4078 0 0)
(21.4768 0 0)
(21.5459 0 0)
(21.6149 0 0)
(21.6839 0 0)
(21.753 0 0)
(21.822 0 0)
(21.8911 0 0)
(21.9601 0 0)
(22.0292 0 0)
(22.0982 0 0)
(22.1673 0 0)
(22.2363 0 0)
(22.3054 0 0)
(22.3744 0 0)
(22.4435 0 0)
(22.5125 0 0)
(22.5816 0 0)
(22.6507 0 0)
(22.7197 0 0)
(22.7888 0 0)
(22.8579 0 0)
(22.9269 0 0)
(22.996 0 0)
(23.0651 0 0)
(23.1341 0 0)
(23.2032 0 0)
(23.2723 0 0)
(23.3414 0 0)
(23.4105 0 0)
(23.4795 0 0)
(23.5486 0 0)
(23.6177 0 0)
(23.6868 0 0)
(23.7559 0 0)
(23.8249 0 0)
(23.894 0 0)
(23.9631 0 0)
(24.0322 0 0)
(24.1013 0 0)
(24.1704 0 0)
(24.2395 0 0)
(24.3086 0 0)
(24.3777 0 0)
(24.4468 0 0)
(24.5159 0 0)
(24.585 0 0)
(24.6541 0 0)
(24.7232 0 0)
(24.7923 0 0)
(24.8614 0 0)
(24.9305 0 0)
(24.9996 0 0)
(25.0687 0 0)
(25.1378 0 0)
(25.2069 0 0)
(25.276 0 0)
(25.3451 0 0)
(25.4142 0 0)
(25.4834 0 0)
(25.5525 0 0)
(25.6216 0 0)
(25.6907 0 0)
(25.7598 0 0)
(25.8289 0 0)
(25.8981 0 0)
(25.9672 0 0)
(26.0363 0 0)
(26.1054 0 0)
(26.1746 0 0)
(26.2437 0 0)
(26.3128 0 0)
(26.3819 0 0)
(26.4511 0 0)
(26.5202 0 0)
(26.5893 0 0)
(26.6584 0 0)
(26.7276 0 0)
(26.7967 0 0)
(26.8658 0 0)
(26.935 0 0)
(27.0041 0 0)
(27.0733 0 0)
(27.1424 0 0)
(27.2115 0 0)
(27.2807 0 0)
(27.3498 0 0)
(27.4189 0 0)
(27.4881 0 0)
(27.5572 0 0)
(27.6264 0 0)
(27.6955 0 0)
(27.7647 0 0)
(27.8338 0 0)
(27.903 0 0)
(27.9721 0 0)
(28.0413 0 0)
(28.1104 0 0)
(28.1796 0 0)
(28.2487 0 0)
(28.3179 0 0)
(28.387 0 0)
(28.4562 0 0)
(28.5253 0 0)
(28.5945 0 0)
(28.6636 0 0)
(28.7328 0 0)
(28.8019 0 0)
(28.8711 0 0)
(28.9403 0 0)
(29.0094 0 0)
(29.0786 0 0)
(29.1477 0 0)
(29.2169 0 0)
(29.2861 0 0)
(29.3552 0 0)
(29.4244 0 0)
(29.4936 0 0)
(29.5627 0 0)
(29.6319 0 0)
(29.7011 0 0)
(29.7702 0 0)
(29.8394 0 0)
(29.9086 0 0)
(29.9777 0 0)
(30.0469 0 0)
(30.1161 0 0)
(30.1853 0 0)
(30.2544 0 0)
(30.3236 0 0)
(30.3928 0 0)
(30.4619 0 0)
(30.5311 0 0)
(30.6003 0 0)
(30.6695 0 0)
(30.7387 0 0)
(30.8078 0 0)
(30.877 0 0)
(30.9462 0 0)
(31.0154 0 0)
(31.0846 0 0)
(31.1537 0 0)
(31.2229 0 0)
(31.2921 0 0)
(31.3613 0 0)
(31.4305 0 0)
(31.4997 0 0)
(31.5688 0 0)
(31.638 0 0)
(31.7072 0 0)
(31.7764 0 0)
(31.8456 0 0)
(31.9148 0 0)
(31.984 0 0)
(32.0532 0 0)
(32.1223 0 0)
(32.1915 0 0)
(32.2607 0 0)
(32.3299 0 0)
(32.3991 0 0)
(32.4683 0 0)
(32.5375 0 0)
(32.6067 0 0)
(32.6759 0 0)
(32.7451 0 0)
(32.8143 0 0)
(32.8835 0 0)
(32.9527 0 0)
(33.0219 0 0)
(33.0911 0 0)
(33.1603 0 0)
(33.2295 0 0)
(33.2987 0 0)
(33.3679 0 0)
(33.4371 0 0)
(33.5063 0 0)
(33.5755 0 0)
(33.6447 0 0)
(33.7139 0 0)
(33.7831 0 0)
(33.8523 0 0)
(33.9215 0 0)
(33.9907 0 0)
(34.0599 0 0)
(34.1291 0 0)
(34.1983 0 0)
(34.2675 0 0)
(34.3367 0 0)
(34.4059 0 0)
(34.4752 0 0)
(34.5444 0 0)
(34.6136 0 0)
(34.6828 0 0)
(34.752 0 0)
(34.8212 0 0)
(34.8904 0 0)
(34.9596 0 0)
(35.0288 0 0)
(35.0981 0 0)
(35.1673 0 0)
(35.2365 0 0)
(35.3057 0 0)
(35.3749 0 0)
(35.4441 0 0)
(35.5133 0 0)
(35.5826 0 0)
(35.6518 0 0)
(35.721 0 0)
(35.7902 0 0)
(35.8594 0 0)
(35.9287 0 0)
(35.9979 0 0)
(36.0671 0 0)
(36.1363 0 0)
(36.2055 0 0)
(36.2748 0 0)
(36.344 0 0)
(36.4132 0 0)
(36.4824 0 0)
(36.5516 0 0)
(36.6209 0 0)
(36.6901 0 0)
(36.7593 0 0)
(36.8285 0 0)
(36.8978 0 0)
(36.967 0 0)
(37.0362 0 0)
(37.1054 0 0)
(37.1747 0 0)
(37.2439 0 0)
(37.3131 0 0)
(37.3823 0 0)
(37.4516 0 0)
(37.5208 0 0)
(37.59 0 0)
(37.6593 0 0)
(37.7285 0 0)
(37.7977 0 0)
(37.867 0 0)
(37.9362 0 0)
(38.0054 0 0)
(38.0747 0 0)
(38.1439 0 0)
(38.2131 0 0)
(38.2824 0 0)
(38.3516 0 0)
(38.4208 0 0)
(38.4901 0 0)
(38.5593 0 0)
(38.6285 0 0)
(38.6978 0 0)
(38.767 0 0)
(38.8362 0 0)
(38.9055 0 0)
(38.9747 0 0)
(39.0439 0 0)
(39.1132 0 0)
(39.1824 0 0)
(39.2517 0 0)
(39.3209 0 0)
(39.3901 0 0)
(39.4594 0 0)
(39.5286 0 0)
(39.5979 0 0)
(39.6671 0 0)
(39.7363 0 0)
(39.8056 0 0)
(39.8748 0 0)
(39.9441 0 0)
(40.0133 0 0)
(40.0825 0 0)
(40.1518 0 0)
(40.221 0 0)
(40.2903 0 0)
(40.3595 0 0)
(40.4288 0 0)
(40.498 0 0)
(40.5673 0 0)
(40.6365 0 0)
(40.7057 0 0)
(40.775 0 0)
(40.8442 0 0)
(40.9135 0 0)
(40.9827 0 0)
(41.052 0 0)
(41.1212 0 0)
(41.1905 0 0)
(41.2597 0 0)
(41.329 0 0)
(41.3982 0 0)
(41.4675 0 0)
(41.5367 0 0)
(41.606 0 0)
(41.6752 0 0)
(41.7445 0 0)
(41.8137 0 0)
(41.883 0 0)
(41.9522 0 0)
(42.0215 0 0)
(42.0907 0 0)
(42.16 0 0)
(42.2292 0 0)
(42.2985 0 0)
(42.3677 0 0)
(42.437 0 0)
(42.5062 0 0)
(42.5755 0 0)
(42.6448 0 0)
(42.714 0 0)
(42.7833 0 0)
(42.8525 0 0)
(42.9218 0 0)
(42.991 0 0)
(43.0603 0 0)
(43.1295 0 0)
(43.1988 0 0)
(43.2681 0 0)
(43.3373 0 0)
(43.4066 0 0)
(43.4758 0 0)
(43.5451 0 0)
(43.6144 0 0)
(43.6836 0 0)
(43.7529 0 0)
(43.8221 0 0)
(43.8914 0 0)
(43.9607 0 0)
(44.0299 0 0)
(44.0992 0 0)
(44.1684 0 0)
(44.2377 0 0)
(44.307 0 0)
(44.3762 0 0)
(44.4455 0 0)
(44.5147 0 0)
(44.584 0 0)
(44.6533 0 0)
(44.7225 0 0)
(44.7918 0 0)
(44.8611 0 0)
(44.9303 0 0)
(44.9996 0 0)
(45.0688 0 0)
(45.1381 0 0)
(45.2074 0 0)
(45.2766 0 0)
(45.3459 0 0)
(45.4152 0 0)
(45.4844 0 0)
(45.5537 0 0)
(45.623 0 0)
(45.6922 0 0)
(45.7615 0 0)
(45.8308 0 0)
(45.9 0 0)
(45.9693 0 0)
(46.0386 0 0)
(46.1078 0 0)
(46.1771 0 0)
(46.2464 0 0)
(46.3157 0 0)
(46.3849 0 0)
(46.4542 0 0)
(46.5235 0 0)
(46.5927 0 0)
(46.662 0 0)
(46.7313 0 0)
(46.8005 0 0)
(46.8698 0 0)
(46.9391 0 0)
(47.0084 0 0)
(47.0776 0 0)
(47.1469 0 0)
(47.2162 0 0)
(47.2854 0 0)
(47.3547 0 0)
(47.424 0 0)
(47.4933 0 0)
(47.5625 0 0)
(47.6318 0 0)
(47.7011 0 0)
(47.7704 0 0)
(47.8396 0 0)
(47.9089 0 0)
(47.9782 0 0)
(48.0474 0 0)
(48.1167 0 0)
(48.186 0 0)
(48.2553 0 0)
(48.3245 0 0)
(48.3938 0 0)
(48.4631 0 0)
(48.5324 0 0)
(48.6017 0 0)
(48.6709 0 0)
(48.7402 0 0)
(48.8095 0 0)
(48.8788 0 0)
(48.948 0 0)
(49.0173 0 0)
(49.0866 0 0)
(49.1559 0 0)
(49.2252 0 0)
(49.2944 0 0)
(49.3637 0 0)
(49.433 0 0)
(49.5023 0 0)
(49.5715 0 0)
(49.6408 0 0)
(49.7101 0 0)
(49.7794 0 0)
(49.8487 0 0)
(49.9179 0 0)
(49.9872 0 0)
(50.0565 0 0)
(50.1258 0 0)
(50.1951 0 0)
(50.2643 0 0)
(50.3336 0 0)
(50.4029 0 0)
(50.4722 0 0)
(50.5415 0 0)
(50.6108 0 0)
(50.68 0 0)
(50.7493 0 0)
(50.8186 0 0)
(50.8879 0 0)
(50.9572 0 0)
(51.0265 0 0)
(51.0957 0 0)
(51.165 0 0)
(51.2343 0 0)
(51.3036 0 0)
(51.3729 0 0)
(51.4422 0 0)
(51.5114 0 0)
(51.5807 0 0)
(51.65 0 0)
(51.7193 0 0)
(51.7886 0 0)
(51.8579 0 0)
(51.9272 0 0)
(51.9964 0 0)
(52.0657 0 0)
(52.135 0 0)
(52.2043 0 0)
(52.2736 0 0)
(52.3429 0 0)
(52.4122 0 0)
(52.4815 0 0)
(52.5507 0 0)
(52.62 0 0)
(52.6893 0 0)
(52.7586 0 0)
(52.8279 0 0)
(52.8972 0 0)
(52.9665 0 0)
(53.0358 0 0)
(53.105 0 0)
(53.1743 0 0)
(53.2436 0 0)
(53.3129 0 0)
(53.3822 0 0)
(53.4515 0 0)
(53.5208 0 0)
(53.5901 0 0)
(53.6594 0 0)
(53.7287 0 0)
(53.7979 0 0)
(53.8672 0 0)
(53.9365 0 0)
(54.0058 0 0)
(54.0751 0 0)
(54.1444 0 0)
(54.2137 0 0)
(54.283 0 0)
(54.3523 0 0)
(54.4216 0 0)
(54.4909 0 0)
(54.5602 0 0)
(54.6294 0 0)
(54.6987 0 0)
(54.768 0 0)
(54.8373 0 0)
(54.9066 0 0)
(54.9759 0 0)
(55.0452 0 0)
(55.1145 0 0)
(55.1838 0 0)
(55.2531 0 0)
(55.3224 0 0)
(55.3917 0 0)
(55.461 0 0)
(55.5303 0 0)
(55.5996 0 0)
(55.6689 0 0)
(55.7381 0 0)
(55.8074 0 0)
(55.8767 0 0)
(55.946 0 0)
(56.0153 0 0)
(56.0846 0 0)
(56.1539 0 0)
(56.2232 0 0)
(56.2925 0 0)
(56.3618 0 0)
(56.4311 0 0)
(56.5004 0 0)
(56.5697 0 0)
(56.639 0 0)
(56.7083 0 0)
(56.7776 0 0)
(56.8469 0 0)
(56.9162 0 0)
(56.9855 0 0)
(57.0548 0 0)
(57.1241 0 0)
(57.1934 0 0)
(57.2627 0 0)
(57.332 0 0)
(57.4013 0 0)
(57.4706 0 0)
(57.5399 0 0)
(57.6092 0 0)
(57.6785 0 0)
(57.7478 0 0)
(57.8171 0 0)
(57.8864 0 0)
(57.9557 0 0)
(58.025 0 0)
(58.0943 0 0)
(58.1636 0 0)
(58.2329 0 0)
(58.3022 0 0)
(58.3715 0 0)
(58.4408 0 0)
(58.5101 0 0)
(58.5794 0 0)
(58.6487 0 0)
(58.718 0 0)
(58.7873 0 0)
(58.8566 0 0)
(58.9259 0 0)
(58.9952 0 0)
(59.0645 0 0)
(59.1338 0 0)
(59.2031 0 0)
(59.2724 0 0)
(59.3417 0 0)
(59.411 0 0)
(59.4803 0 0)
(59.5496 0 0)
(59.6189 0 0)
(59.6882 0 0)
(59.7575 0 0)
(59.8268 0 0)
(59.8961 0 0)
(59.9654 0 0)
(60.0347 0 0)
(60.104 0 0)
(60.1733 0 0)
(60.2426 0 0)
(60.3119 0 0)
(60.3812 0 0)
(60.4505 0 0)
(60.5198 0 0)
(60.5892 0 0)
(60.6585 0 0)
(60.7278 0 0)
(60.7971 0 0)
(60.8664 0 0)
(60.9357 0 0)
(61.005 0 0)
(61.0743 0 0)
(61.1436 0 0)
(61.2129 0 0)
(61.2822 0 0)
(61.3515 0 0)
(61.4208 0 0)
(61.4901 0 0)
(61.5594 0 0)
(61.6287 0 0)
(61.698 0 0)
(61.7673 0 0)
(61.8367 0 0)
(61.906 0 0)
(61.9753 0 0)
(62.0446 0 0)
(62.1139 0 0)
(62.1832 0 0)
(62.2525 0 0)
(62.3218 0 0)
(62.3911 0 0)
(62.4604 0 0)
(62.5297 0 0)
(62.599 0 0)
(62.6683 0 0)
(62.7377 0 0)
(62.807 0 0)
(62.8763 0 0)
(62.9456 0 0)
(63.0149 0 0)
(63.0842 0 0)
(63.1535 0 0)
(63.2228 0 0)
(63.2921 0 0)
(63.3614 0 0)
(63.4307 0 0)
(63.5 0 0)
(63.5694 0 0)
(63.6387 0 0)
(63.708 0 0)
(63.7773 0 0)
(63.8466 0 0)
(63.9159 0 0)
(63.9852 0 0)
(64.0545 0 0)
(64.1238 0 0)
(64.1931 0 0)
(64.2625 0 0)
(64.3318 0 0)
(64.4011 0 0)
(64.4704 0 0)
(64.5397 0 0)
(64.609 0 0)
(64.6783 0 0)
(64.7476 0 0)
(64.8169 0 0)
(64.8863 0 0)
(64.9556 0 0)
(65.0249 0 0)
(65.0942 0 0)
(65.1635 0 0)
(65.2328 0 0)
(65.3021 0 0)
(65.3714 0 0)
(65.4408 0 0)
(65.5101 0 0)
(65.5794 0 0)
(65.6487 0 0)
(65.718 0 0)
(65.7873 0 0)
(65.8566 0 0)
(65.9259 0 0)
(65.9953 0 0)
(66.0646 0 0)
(66.1339 0 0)
(66.2032 0 0)
(66.2725 0 0)
(66.3418 0 0)
(66.4111 0 0)
(66.4804 0 0)
(66.5498 0 0)
(66.6191 0 0)
(66.6884 0 0)
(66.7577 0 0)
(66.827 0 0)
(66.8963 0 0)
(66.9656 0 0)
(67.035 0 0)
(67.1043 0 0)
(67.1736 0 0)
(67.2429 0 0)
(67.3122 0 0)
(67.3815 0 0)
(67.4509 0 0)
(67.5202 0 0)
(67.5895 0 0)
(67.6588 0 0)
(67.7281 0 0)
(67.7974 0 0)
(67.8667 0 0)
(67.9361 0 0)
(68.0054 0 0)
(68.0747 0 0)
(68.144 0 0)
(68.2133 0 0)
(68.2826 0 0)
(68.352 0 0)
(68.4213 0 0)
(68.4906 0 0)
(68.5599 0 0)
(68.6292 0 0)
(68.6985 0 0)
(68.7679 0 0)
(68.8372 0 0)
(68.9065 0 0)
(68.9758 0 0)
(69.0451 0 0)
(69.1144 0 0)
(69.1838 0 0)
(69.2531 0 0)
(69.3224 0 0)
(69.3917 0 0)
(69.461 0 0)
(69.5303 0 0)
(69.5997 0 0)
(69.669 0 0)
(69.7383 0 0)
(69.8076 0 0)
(69.8769 0 0)
(69.9462 0 0)
(70.0156 0 0)
(70.0849 0 0)
(70.1542 0 0)
(70.2235 0 0)
(70.2928 0 0)
(70.3622 0 0)
(70.4315 0 0)
(70.5008 0 0)
(70.5701 0 0)
(70.6394 0 0)
(70.7088 0 0)
(70.7781 0 0)
(70.8474 0 0)
(70.9167 0 0)
(70.986 0 0)
(71.0553 0 0)
(71.1247 0 0)
(71.194 0 0)
(71.2633 0 0)
(71.3326 0 0)
(71.4019 0 0)
(71.4713 0 0)
(71.5406 0 0)
(71.6099 0 0)
(71.6792 0 0)
(71.7485 0 0)
(71.8179 0 0)
(71.8872 0 0)
(71.9565 0 0)
(72.0258 0 0)
(72.0951 0 0)
(72.1645 0 0)
(72.2338 0 0)
(72.3031 0 0)
(72.3724 0 0)
(72.4418 0 0)
(72.5111 0 0)
(72.5804 0 0)
(72.6497 0 0)
(72.719 0 0)
(72.7884 0 0)
(72.8577 0 0)
(72.927 0 0)
(72.9963 0 0)
(73.0656 0 0)
(73.135 0 0)
(73.2043 0 0)
(73.2736 0 0)
(73.3429 0 0)
(73.4123 0 0)
(73.4816 0 0)
(73.5509 0 0)
(73.6202 0 0)
(73.6895 0 0)
(73.7589 0 0)
(73.8282 0 0)
(73.8975 0 0)
(73.9668 0 0)
(74.0362 0 0)
(74.1055 0 0)
(74.1748 0 0)
(74.2441 0 0)
(74.3134 0 0)
(74.3828 0 0)
(74.4521 0 0)
(74.5214 0 0)
(74.5907 0 0)
(74.6601 0 0)
(74.7294 0 0)
(74.7987 0 0)
(74.868 0 0)
(74.9373 0 0)
(75.0067 0 0)
(75.076 0 0)
(75.1453 0 0)
(75.2146 0 0)
(75.284 0 0)
(75.3533 0 0)
(75.4226 0 0)
(75.4919 0 0)
(75.5613 0 0)
(75.6306 0 0)
(75.6999 0 0)
(75.7692 0 0)
(75.8386 0 0)
(75.9079 0 0)
(75.9772 0 0)
(76.0465 0 0)
(76.1159 0 0)
(76.1852 0 0)
(76.2545 0 0)
(76.3238 0 0)
(76.3932 0 0)
(76.4625 0 0)
(76.5318 0 0)
(76.6011 0 0)
(76.6705 0 0)
(76.7398 0 0)
(76.8091 0 0)
(76.8784 0 0)
(76.9478 0 0)
(77.0171 0 0)
(77.0864 0 0)
(77.1557 0 0)
(77.2251 0 0)
(77.2944 0 0)
(77.3637 0 0)
(77.433 0 0)
(77.5024 0 0)
(77.5717 0 0)
(77.641 0 0)
(77.7103 0 0)
(77.7797 0 0)
(77.849 0 0)
(77.9183 0 0)
(77.9876 0 0)
(78.057 0 0)
(78.1263 0 0)
(78.1956 0 0)
(78.2649 0 0)
(78.3343 0 0)
(78.4036 0 0)
(78.4729 0 0)
(78.5422 0 0)
(78.6116 0 0)
(78.6809 0 0)
(78.7502 0 0)
(78.8196 0 0)
(78.8889 0 0)
(78.9582 0 0)
(79.0275 0 0)
(79.0969 0 0)
(79.1662 0 0)
(79.2355 0 0)
(79.3048 0 0)
(79.3742 0 0)
(79.4435 0 0)
(79.5128 0 0)
(79.5822 0 0)
(79.6515 0 0)
(79.7208 0 0)
(79.7901 0 0)
(79.8595 0 0)
(79.9288 0 0)
(79.9981 0 0)
(80.0674 0 0)
(80.1368 0 0)
(80.2061 0 0)
(80.2754 0 0)
(80.3448 0 0)
(80.4141 0 0)
(80.4834 0 0)
(80.5527 0 0)
(80.6221 0 0)
(80.6914 0 0)
(80.7607 0 0)
(80.8301 0 0)
(80.8994 0 0)
(80.9687 0 0)
(81.038 0 0)
(81.1074 0 0)
(81.1767 0 0)
(81.246 0 0)
(81.3154 0 0)
(81.3847 0 0)
(81.454 0 0)
(81.5233 0 0)
(81.5927 0 0)
(81.662 0 0)
(81.7313 0 0)
(81.8007 0 0)
(81.87 0 0)
(81.9393 0 0)
(82.0086 0 0)
(82.078 0 0)
(82.1473 0 0)
(82.2166 0 0)
(82.286 0 0)
(82.3553 0 0)
(82.4246 0 0)
(82.494 0 0)
(82.5633 0 0)
(82.6326 0 0)
(82.7019 0 0)
(82.7713 0 0)
(82.8406 0 0)
(82.9099 0 0)
(82.9793 0 0)
(83.0486 0 0)
(83.1179 0 0)
(83.1872 0 0)
(83.2566 0 0)
(83.3259 0 0)
(83.3952 0 0)
(83.4646 0 0)
(83.5339 0 0)
(83.6032 0 0)
(83.6726 0 0)
(83.7419 0 0)
(83.8112 0 0)
(83.8806 0 0)
(83.9499 0 0)
(84.0192 0 0)
(84.0885 0 0)
(84.1579 0 0)
(84.2272 0 0)
(84.2965 0 0)
(84.3659 0 0)
(84.4352 0 0)
(84.5045 0 0)
(84.5739 0 0)
(84.6432 0 0)
(84.7125 0 0)
(84.7818 0 0)
(84.8512 0 0)
(84.9205 0 0)
(84.9898 0 0)
(85.0592 0 0)
(85.1285 0 0)
(85.1978 0 0)
(85.2672 0 0)
(85.3365 0 0)
(85.4058 0 0)
(85.4752 0 0)
(85.5445 0 0)
(85.6138 0 0)
(85.6832 0 0)
(85.7525 0 0)
(85.8218 0 0)
(85.8912 0 0)
(85.9605 0 0)
(86.0298 0 0)
(86.0991 0 0)
(86.1685 0 0)
(86.2378 0 0)
(86.3071 0 0)
(86.3765 0 0)
(86.4458 0 0)
(86.5151 0 0)
(86.5845 0 0)
(86.6538 0 0)
(86.7231 0 0)
(86.7925 0 0)
(86.8618 0 0)
(86.9311 0 0)
(87.0005 0 0)
(87.0698 0 0)
(87.1391 0 0)
(87.2085 0 0)
(87.2778 0 0)
(87.3471 0 0)
(87.4165 0 0)
(87.4858 0 0)
(87.5551 0 0)
(87.6245 0 0)
(87.6938 0 0)
(87.7631 0 0)
(87.8325 0 0)
(87.9018 0 0)
(87.9711 0 0)
(88.0405 0 0)
(88.1098 0 0)
(88.1791 0 0)
(88.2485 0 0)
(88.3178 0 0)
(88.3871 0 0)
(88.4565 0 0)
(88.5258 0 0)
(88.5951 0 0)
(88.6645 0 0)
(88.7338 0 0)
(88.8031 0 0)
(88.8725 0 0)
(88.9418 0 0)
(89.0111 0 0)
(89.0805 0 0)
(89.1498 0 0)
(89.2191 0 0)
(89.2885 0 0)
(89.3578 0 0)
(89.4271 0 0)
(89.4965 0 0)
(89.5658 0 0)
(89.6351 0 0)
(89.7045 0 0)
(89.7738 0 0)
(89.8431 0 0)
(89.9125 0 0)
(89.9818 0 0)
(90.0511 0 0)
(90.1205 0 0)
(90.1898 0 0)
(90.2591 0 0)
(90.3285 0 0)
(90.3978 0 0)
(90.4671 0 0)
(90.5365 0 0)
(90.6058 0 0)
(90.6751 0 0)
(90.7445 0 0)
(90.8138 0 0)
(90.8831 0 0)
(90.9525 0 0)
(91.0218 0 0)
(91.0911 0 0)
(91.1605 0 0)
(91.2298 0 0)
(91.2991 0 0)
(91.3685 0 0)
(91.4378 0 0)
(91.5071 0 0)
(91.5765 0 0)
(91.6458 0 0)
(91.7151 0 0)
(91.7845 0 0)
(91.8538 0 0)
(91.9232 0 0)
(91.9925 0 0)
(92.0618 0 0)
(92.1312 0 0)
(92.2005 0 0)
(92.2698 0 0)
(92.3392 0 0)
(92.4085 0 0)
(92.4778 0 0)
(92.5472 0 0)
(92.6165 0 0)
(92.6858 0 0)
(92.7552 0 0)
(92.8245 0 0)
(92.8938 0 0)
(92.9632 0 0)
(93.0325 0 0)
(93.1018 0 0)
(93.1712 0 0)
(93.2405 0 0)
(93.3099 0 0)
(93.3792 0 0)
(93.4485 0 0)
(93.5179 0 0)
(93.5872 0 0)
(93.6565 0 0)
(93.7259 0 0)
(93.7952 0 0)
(93.8645 0 0)
(93.9339 0 0)
(94.0032 0 0)
(94.0725 0 0)
(94.1419 0 0)
(94.2112 0 0)
(94.2806 0 0)
(94.3499 0 0)
(94.4192 0 0)
(94.4886 0 0)
(94.5579 0 0)
(94.6272 0 0)
(94.6966 0 0)
(94.7659 0 0)
(94.8352 0 0)
(94.9046 0 0)
(94.9739 0 0)
(95.0432 0 0)
(95.1126 0 0)
(95.1819 0 0)
(95.2513 0 0)
(95.3206 0 0)
(95.3899 0 0)
(95.4593 0 0)
(95.5286 0 0)
(95.5979 0 0)
(95.6673 0 0)
(95.7366 0 0)
(95.8059 0 0)
(95.8753 0 0)
(95.9446 0 0)
(96.014 0 0)
(96.0833 0 0)
(96.1526 0 0)
(96.222 0 0)
(96.2913 0 0)
(96.3606 0 0)
(96.43 0 0)
(96.4993 0 0)
(96.5686 0 0)
(96.638 0 0)
(96.7073 0 0)
(96.7767 0 0)
(96.846 0 0)
(96.9153 0 0)
(96.9847 0 0)
(97.054 0 0)
(97.1233 0 0)
(97.1927 0 0)
(97.262 0 0)
(97.3314 0 0)
(97.4007 0 0)
(97.47 0 0)
(97.5394 0 0)
(97.6087 0 0)
(97.678 0 0)
(97.7474 0 0)
(97.8167 0 0)
(97.886 0 0)
(97.9554 0 0)
(98.0247 0 0)
(98.0941 0 0)
(98.1634 0 0)
(98.2327 0 0)
(98.3021 0 0)
(98.3714 0 0)
(98.4407 0 0)
(98.5101 0 0)
(98.5794 0 0)
(98.6488 0 0)
(98.7181 0 0)
(98.7874 0 0)
(98.8568 0 0)
(98.9261 0 0)
(98.9954 0 0)
(99.0648 0 0)
(99.1341 0 0)
(99.2035 0 0)
(99.2728 0 0)
(99.3421 0 0)
(99.4115 0 0)
(99.4808 0 0)
(99.5501 0 0)
(99.6195 0 0)
(99.6888 0 0)
(99.7582 0 0)
(99.8275 0 0)
(99.8968 0 0)
(99.9662 0 0)
(100.036 0 0)
(100.105 0 0)
(100.174 0 0)
(100.244 0 0)
(100.313 0 0)