/*--------------------------------*- C++ -*----------------------------------*\
  =========                 |
  \\      /  F ield         | OpenFOAM: The Open Source CFD Toolbox
   \\    /   O peration     | Website:  https://openfoam.org
    \\  /    A nd           | Version:  9
     \\/     M anipulation  |
\*---------------------------------------------------------------------------*/
FoamFile
{
    format      ascii;
    class       volScalarField;
    location    "0.035";
    object      ddt0(rho);
}
// * * * * * * * * * * * * * * * * * * * * * * * * * * * * * * * * * * * * * //

dimensions      [1 -3 -1 0 0 0 0];

internalField   nonuniform List<scalar> 
100
(
-9.14564
-9.11149
-9.03527
-9.0116
-8.97047
-8.91731
-8.84206
-8.78876
-8.74252
-8.68307
-8.65042
-8.67836
-8.63794
-8.61235
-8.64937
-8.62003
-8.51098
-8.46709
-8.51143
-8.49692
-8.36883
-8.25396
-8.24623
-8.29697
-8.25411
-8.11194
-7.95642
-7.91049
-7.89738
-8.01572
-7.8803
-7.75283
-7.61601
-7.60611
-7.64779
-7.74154
-7.54707
-7.73617
-7.70282
-7.60104
-7.44872
-7.04173
-6.99697
-7.13779
-7.31887
-7.38679
-7.31741
-7.10025
-6.77605
-6.23518
-5.23045
-2.81829
3.37534
-22.2464
-12.7776
-7.49122
-7.2422
-7.11258
-6.99633
-6.90046
-6.75626
-6.42577
-5.74602
-4.40365
-1.55434
6.08025
-15.6817
-27.1651
-7.9736
-7.26729
-6.98508
-6.8675
-6.87521
-6.93525
-6.86652
-6.41621
-5.63966
-4.11657
-0.795141
9.01778
-27.3928
-26.5669
-9.53946
-9.08566
-9.06637
-9.16841
-9.39072
-9.59567
-9.61957
-9.7968
-9.79587
-9.62262
-9.36818
-8.95618
-8.13244
-6.42902
-2.82402
7.04647
5.08498
-61.2196
)
;

boundaryField
{
    sides
    {
        type            calculated;
        value           nonuniform List<scalar> 2(-61.2196 -9.14564);
    }
    empty
    {
        type            empty;
    }
}


// ************************************************************************* //
