/*--------------------------------*- C++ -*----------------------------------*\
  =========                 |
  \\      /  F ield         | OpenFOAM: The Open Source CFD Toolbox
   \\    /   O peration     | Website:  https://openfoam.org
    \\  /    A nd           | Version:  9
     \\/     M anipulation  |
\*---------------------------------------------------------------------------*/
FoamFile
{
    format      ascii;
    class       volScalarField;
    location    "0.035";
    object      ddt0(rho,K);
}
// * * * * * * * * * * * * * * * * * * * * * * * * * * * * * * * * * * * * * //

dimensions      [1 -1 -3 0 0 0 0];

internalField   nonuniform List<scalar> 
100
(
-1872.75
-5399.35
-9227.63
-11953.2
-15376.6
-19196.9
-23279.6
-27777.9
-32445.4
-37409.2
-42939.4
-48617.1
-54318.3
-60865.4
-67534.1
-73695.2
-80450.7
-88375.4
-96357.4
-103698
-111335
-120261
-130194
-139733
-148305
-157553
-167801
-178659
-189931
-201746
-210705
-221698
-231994
-241476
-251722
-262602
-270462
-286600
-300374
-312986
-327844
-336784
-349876
-373261
-401503
-421636
-430479
-429102
-422006
-410541
-387240
-312436
-182907
-802983
-722711
-534902
-526298
-535471
-545316
-552190
-555113
-550641
-533439
-490116
-380433
-138533
-906010
-1.35094e+06
-720158
-646799
-644657
-652664
-664339
-674688
-678281
-670505
-650507
-594988
-448250
-127263
-1.47897e+06
-1.68838e+06
-971025
-905675
-917349
-940971
-967906
-993204
-1.01288e+06
-1.03535e+06
-1.05176e+06
-1.05849e+06
-1.06289e+06
-1.06004e+06
-1.03892e+06
-973736
-793608
-298219
-774492
-3.28198e+06
)
;

boundaryField
{
    sides
    {
        type            calculated;
        value           nonuniform List<scalar> 2(-3.28198e+06 -1872.75);
    }
    empty
    {
        type            empty;
    }
}


// ************************************************************************* //
