/*--------------------------------*- C++ -*----------------------------------*\
  =========                 |
  \\      /  F ield         | OpenFOAM: The Open Source CFD Toolbox
   \\    /   O peration     | Website:  https://openfoam.org
    \\  /    A nd           | Version:  9
     \\/     M anipulation  |
\*---------------------------------------------------------------------------*/
FoamFile
{
    format      ascii;
    class       surfaceScalarField;
    location    "0.035";
    object      phi_0;
}
// * * * * * * * * * * * * * * * * * * * * * * * * * * * * * * * * * * * * * //

dimensions      [1 0 -1 0 0 0 0];

internalField   nonuniform List<scalar> 
99
(
62.8709
66.5155
70.1296
73.7342
77.3224
80.8893
84.4261
87.9416
91.4387
94.9119
98.3721
101.843
105.299
108.744
112.203
115.651
119.056
122.443
125.847
129.246
132.593
135.895
139.193
142.512
145.814
149.059
152.241
155.405
158.564
161.771
164.923
168.024
171.07
174.113
177.172
180.268
183.287
186.382
189.463
192.503
195.483
198.3
201.098
203.953
206.881
209.836
212.763
215.603
218.313
220.807
222.899
224.027
222.677
231.575
236.686
239.683
242.58
245.425
248.223
250.983
253.686
256.256
258.555
260.316
260.938
258.506
264.778
275.644
278.834
281.741
284.535
287.282
290.032
292.806
295.552
298.119
300.375
302.021
302.34
298.732
309.69
320.316
324.132
327.766
331.393
335.06
338.817
342.655
346.503
350.421
354.34
358.189
361.936
365.518
368.771
371.343
372.473
369.654
367.62
)
;

boundaryField
{
    sides
    {
        type            calculated;
        value           nonuniform List<scalar> 2(392.108 -59.2126);
    }
    empty
    {
        type            empty;
        value           nonuniform List<scalar> 0();
    }
}


// ************************************************************************* //
