/*--------------------------------*- C++ -*----------------------------------*\
  =========                 |
  \\      /  F ield         | OpenFOAM: The Open Source CFD Toolbox
   \\    /   O peration     | Website:  https://openfoam.org
    \\  /    A nd           | Version:  9
     \\/     M anipulation  |
\*---------------------------------------------------------------------------*/
FoamFile
{
    format      ascii;
    class       volScalarField;
    location    "0.05";
    object      p;
}
// * * * * * * * * * * * * * * * * * * * * * * * * * * * * * * * * * * * * * //

dimensions      [1 -1 -2 0 0 0 0];

internalField   nonuniform List<scalar> 
1000
(
42642.3
42594.5
42565.6
42534.4
42503.7
42473
42442.3
42411.6
42381
42350.3
42319.7
42289.1
42258.5
42227.9
42197.3
42166.8
42136.3
42105.8
42075.3
42044.8
42014.4
41983.9
41953.5
41923.2
41892.8
41862.4
41832.1
41801.8
41771.5
41741.2
41711
41680.8
41650.5
41620.3
41590.2
41560
41529.8
41499.7
41469.6
41439.5
41409.4
41379.4
41349.3
41319.3
41289.3
41259.3
41229.4
41199.4
41169.5
41139.6
41109.7
41079.9
41050
41020.2
40990.3
40960.6
40930.8
40901
40871.3
40841.5
40811.8
40782.1
40752.5
40722.8
40693.2
40663.6
40634
40604.4
40574.8
40545.3
40515.7
40486.2
40456.8
40427.3
40397.8
40368.4
40339
40309.6
40280.2
40250.8
40221.5
40192.2
40162.8
40133.6
40104.3
40075
40045.8
40016.6
39987.4
39958.2
39929
39899.9
39870.7
39841.6
39812.5
39783.5
39754.4
39725.4
39696.4
39667.4
39638.4
39609.4
39580.4
39551.5
39522.6
39493.7
39464.8
39436
39407.1
39378.3
39349.5
39320.7
39291.9
39263.2
39234.5
39205.8
39177.1
39148.4
39119.8
39091.1
39062.5
39033.9
39005.3
38976.8
38948.2
38919.7
38891.1
38862.6
38834.1
38805.6
38777.1
38748.7
38720.2
38691.8
38663.4
38635
38606.6
38578.3
38550.1
38521.8
38493.2
38464.8
38436.9
38409.4
38381.3
38352.3
38323.4
38295.4
38269.5
38242
38212.6
38183.2
38154.3
38128.5
38103
38073.9
38044.1
38014.6
37986.4
37962.4
37935.6
37906.1
37876.3
37846.9
37819.1
37795.9
37768.8
37739.2
37709.4
37679.8
37651.3
37627.8
37602.8
37573.5
37543.6
37513.8
37484.3
37456.5
37434.2
37408.6
37379.3
37349.6
37320
37290.8
37263.1
37240.7
37215.1
37186.1
37156.8
37127.7
37099.2
37073.9
37049.7
37021.7
36993.1
36964.8
36938.8
36914.3
36886.4
36857.7
36829.2
36801.5
36777.3
36751.6
36723.2
36694.5
36666
36638.6
36615.2
36589.5
36560.9
36532.1
36503.4
36474.9
36447.7
36425.1
36399.4
36371
36342.4
36313.7
36285.3
36257.7
36234
36210.2
36182.3
36153.9
36125.5
36097.2
36069.6
36045.4
36021.9
35994.3
35966.1
35937.9
35910
35882.9
35859.7
35834.8
35807.1
35779.2
35751.3
35723.8
35698.5
35675.2
35648.4
35620.7
35593
35565.5
35539.1
35515.7
35490
35462.6
35435.1
35407.7
35380.9
35356.9
35332.1
35305
35277.7
35250.4
35223.6
35199
35174.7
35147.9
35120.8
35093.7
35066.9
35042
35017.8
34991.3
34964.4
34937.5
34910.9
34886
34861.6
34835.2
34808.5
34781.8
34755.6
34731.1
34705.9
34679.6
34653
34626.6
34600.9
34576.6
34551.1
34524.8
34498.4
34472.1
34446.4
34422.1
34397
34370.8
34344.5
34318.2
34292.3
34267.7
34243.3
34217.4
34191.1
34164.9
34138.9
34113.9
34090
34064.4
34038.3
34012.2
33986.2
33960.8
33937
33912
33886.1
33860.1
33834.2
33808.6
33784.4
33760.1
33734.4
33708.5
33682.7
33657.1
33632.3
33608.5
33583.2
33557.5
33531.8
33506.2
33481
33456.9
33432.1
33406.8
33381.6
33356.8
33332.3
33307.1
33281.8
33256.5
33231.9
33208
33183
33157.6
33132.3
33107
33082
33058.1
33034
33008.8
32983.6
32958.4
32933.3
32908.7
32885.2
32860.7
32835.7
32810.6
32785.6
32760.8
32736.6
32713
32688.3
32663.4
32638.6
32613.8
32589.3
32565.6
32541.5
32516.9
32492.3
32467.7
32443.3
32419.2
32395.7
32371.4
32347.1
32322.8
32298.6
32274.8
32251.3
32227.6
32203.9
32180.2
32157
32133.7
32110.3
32087
32063.9
32040.9
32018.4
31996.1
31973.8
31951.6
31929.6
31908
31886.8
31866
31845.4
31825.2
31805.2
31786
31767.4
31749.7
31733
31717.3
31702.7
31689.2
31677.3
31667
31658.2
31651
31645.3
31640.8
31637.4
31635.6
31635
31634.9
31635.2
31635.9
31637.4
31640.3
31644.2
31647.6
31650.7
31654.2
31657.7
31660.9
31663.9
31666.8
31669.1
31671.9
31675.9
31680.5
31685.2
31689.2
31691.9
31693.2
31694.7
31696
31696.7
31696.9
31695.9
31691.9
31686
31679.1
31672.8
31667.5
31662.9
31658.3
31654.6
31652.2
31650.5
31649.2
31648.3
31647.2
31645.7
31645.2
31645.4
31645.8
31646.4
31647
31646.8
31647.2
31648.6
31650.4
31652.5
31654.7
31656.5
31658.2
31660.8
31663.3
31665.5
31667.2
31667.9
31667.7
31667.9
31668
31667.4
31664.7
31659.5
31655
31651.2
31647.9
31644.9
31641.7
31639
31637.2
31636
31635
31634.3
31633.9
31633.7
31633.4
31632.2
31630.2
31630.1
31630.5
31631.2
31632
31632.7
31632.8
31632.7
31634
31635.6
31637.5
31639.3
31640.8
31641.1
31641.8
31643.1
31644.3
31645.1
31645.5
31644.7
31642.6
31640.4
31637.1
31633.6
31630.4
31627.5
31623.9
31621.1
31619.4
31618.1
31616.9
31615.8
31614.2
31612.2
31611.4
31611.2
31611.1
31611.1
31610.9
31609.9
31609.5
31610
31610.8
31611.7
31612.6
31612.9
31612.9
31614
31615.5
31617.1
31618.4
31618.8
31618.8
31619.8
31620.8
31621.5
31621.9
31621.9
31621.1
31618.5
31613.4
31606.7
31603.3
31601.1
31599.5
31598.2
31597.2
31596.4
31595.8
31595.1
31594.6
31594.2
31593.9
31593.7
31593.2
31591.6
31590.4
31590
31589.5
31588.7
31588.9
31589.7
31590.7
31591.9
31593.1
31594.2
31594.8
31594.4
31595.1
31596.2
31597.3
31598.1
31598.4
31597.3
31596.3
31595.7
31594.4
31592.1
31589.4
31586.3
31582.7
31580.6
31579.3
31578.2
31577.3
31576.3
31574.3
31572.5
31571.8
31571.4
31571.2
31571
31570.4
31569
31568.7
31568.9
31569.3
31569.7
31569.9
31569.1
31569.3
31570
31571
31571.9
31572.3
31571.8
31572.2
31573.1
31573.9
31574.5
31574.7
31574.1
31572.1
31570.5
31568.7
31566.7
31564.8
31562.9
31560.5
31557.7
31556.4
31555.6
31554.9
31554.4
31553.7
31552.7
31550.8
31549.8
31549.3
31548.7
31547.4
31546.4
31546.6
31547
31547.5
31548.1
31548.7
31549.5
31550.2
31550.9
31550.6
31547.6
31546.7
31547.4
31548.2
31549
31549.6
31549.9
31550.1
31549.8
31548.5
31545.3
31542.9
31541.4
31540.2
31539.1
31538.1
31537.3
31536.5
31535.7
31533.9
31529.2
31526.9
31526.4
31526.2
31526.2
31526.2
31526.3
31526.6
31526.9
31527.3
31527.6
31527.7
31526.4
31524.8
31525
31525.6
31526.3
31527.1
31527.8
31528.3
31527.7
31526.5
31526.6
31526.9
31526.9
31526.8
31526.1
31524.7
31522.4
31518.3
31515.8
31514.6
31513.6
31512.7
31511.2
31509.1
31508.2
31507.8
31507.5
31507.4
31507.3
31507.3
31507.2
31507
31505.7
31502.4
31501.6
31501.8
31502.2
31502.7
31503.2
31503.8
31504.4
31505
31505.4
31504.9
31502
31500.9
31501.1
31501.4
31501.6
31501.7
31501.5
31500.9
31499.9
31498.8
31497.3
31494.4
31490
31488.6
31488
31487.5
31487.1
31486.7
31486.5
31486.2
31486.1
31486
31486
31485.7
31484.2
31479.9
31478.6
31478.6
31478.9
31479.3
31479.7
31480.2
31481
31482.2
31482.9
31483.5
31484.1
31484.6
31485.1
31485.3
31484.8
31481.3
31475.6
31474.2
31473.4
31472.6
31471.7
31470.8
31470.1
31469.5
31469
31468.6
31468.2
31467.2
31463.4
31456.5
31454.6
31454.2
31454
31453.9
31454
31454.1
31454.4
31455.4
31458.1
31459.5
31460
31460.4
31460.7
31461.1
31461.5
31461.7
31461.8
31460.6
31454.5
31449.1
31448.3
31448.3
31448.4
31448.2
31447.8
31447.3
31446.7
31446.3
31445.7
31444.9
31443.8
31442.3
31439.9
31438.3
31437.3
31436.7
31436
31434.6
31432.6
31431.9
31431.7
31431.6
31431.8
31432.1
31432.4
31432.8
31433.1
31432.9
31431.2
31425.7
31423.4
31423.4
31424
31424.5
31425.1
31426.1
31427.3
31429.2
31436
31465.2
31598
31974.5
32280
32395
32435.9
32449.1
32452.8
32453.8
32455.7
32455.7
32455.8
32456.9
32456.6
32455.5
32453
32447.4
32443.7
32441.1
32441
32441.9
32442.5
32443.7
32445.4
32446.1
32445.9
32445.7
32445.7
32445.4
32444.5
32442.2
32434.3
32426.4
32424
32423.3
32423.3
32423.3
32424.2
32426.4
32427.3
32427.2
32428
32431.4
32442.7
32481.4
32615
32887.1
33103.1
33198.4
33231.5
33251.4
33260.4
33264.7
33268.5
33271
33271.3
33271.2
33272.6
33272.9
33272.7
33270.9
33264.7
33256.8
33253.1
33253.2
33254
33254.9
33257.6
33263.9
33266.3
33266.6
33266.7
33265.5
33260.2
33247.2
33242
33241.1
33240.9
33241.1
33241.9
33244.9
33251.6
33255.3
33255.9
33256
33255.9
33255.7
33254.9
33251.8
33240.3
33231.6
33230.3
33230.1
33230.3
33230.7
33231.9
33236.5
33242.7
33244.2
33244.6
33245
33245.4
33245.6
33244.9
33240.9
33230
33226.3
33226.2
33226.6
33227.2
33228.8
33233.3
33236
33236.7
33237.2
33237.7
33238
33237.5
33234
33226.3
33224.6
33224.7
33225.2
33226.1
33227.6
33228.4
33228.8
33228.9
33227.7
33224.1
33223.3
33223.6
33224.1
33225
33226.1
33226.6
33227
33226.8
33224.2
33217.8
33216.3
33216.5
33216.8
33217.3
33218.5
33220.5
33221.2
33221.6
33221.9
33221.8
33220.2
33213.5
33209.3
33209.1
33209.1
)
;

boundaryField
{
    sides
    {
        type            zeroGradient;
    }
    empty
    {
        type            empty;
    }
}


// ************************************************************************* //
