/*--------------------------------*- C++ -*----------------------------------*\
  =========                 |
  \\      /  F ield         | OpenFOAM: The Open Source CFD Toolbox
   \\    /   O peration     | Website:  https://openfoam.org
    \\  /    A nd           | Version:  9
     \\/     M anipulation  |
\*---------------------------------------------------------------------------*/
FoamFile
{
    format      ascii;
    class       volScalarField;
    location    "0.05";
    object      rho;
}
// * * * * * * * * * * * * * * * * * * * * * * * * * * * * * * * * * * * * * //

dimensions      [1 -3 0 0 0 0 0];

internalField   nonuniform List<scalar> 
1000
(
0.54368
0.543245
0.542982
0.542697
0.542418
0.542137
0.541858
0.541578
0.541298
0.541019
0.540739
0.54046
0.540181
0.539901
0.539622
0.539343
0.539065
0.538786
0.538507
0.538229
0.53795
0.537672
0.537394
0.537116
0.536838
0.536561
0.536283
0.536005
0.535728
0.535451
0.535174
0.534897
0.53462
0.534343
0.534066
0.533789
0.533513
0.533236
0.53296
0.532684
0.532408
0.532132
0.531856
0.53158
0.531304
0.531029
0.530753
0.530478
0.530203
0.529928
0.529653
0.529378
0.529103
0.528829
0.528554
0.52828
0.528006
0.527731
0.527457
0.527183
0.526909
0.526636
0.526362
0.526088
0.525815
0.525542
0.525268
0.524995
0.524722
0.52445
0.524177
0.523904
0.523632
0.523359
0.523087
0.522815
0.522543
0.522271
0.521999
0.521727
0.521455
0.521184
0.520912
0.520641
0.52037
0.520099
0.519828
0.519557
0.519286
0.519015
0.518745
0.518474
0.518204
0.517934
0.517664
0.517394
0.517124
0.516854
0.516584
0.516315
0.516045
0.515776
0.515507
0.515238
0.514969
0.5147
0.514431
0.514162
0.513894
0.513625
0.513357
0.513089
0.512821
0.512553
0.512285
0.512017
0.51175
0.511482
0.511215
0.510948
0.510681
0.510414
0.510147
0.50988
0.509613
0.509346
0.50908
0.508813
0.508546
0.50828
0.508014
0.507747
0.507481
0.507215
0.506949
0.506683
0.506417
0.506152
0.505888
0.505622
0.505355
0.505088
0.504826
0.504569
0.504305
0.504033
0.503761
0.503499
0.503256
0.502997
0.502722
0.502444
0.502173
0.501931
0.501691
0.501417
0.501137
0.50086
0.500594
0.500368
0.500117
0.499838
0.499558
0.49928
0.499019
0.4988
0.498545
0.498266
0.497985
0.497705
0.497437
0.497215
0.496979
0.496702
0.49642
0.496139
0.495861
0.495597
0.495387
0.495145
0.494868
0.494588
0.494308
0.494031
0.493769
0.493557
0.493314
0.49304
0.492763
0.492487
0.492217
0.491978
0.491748
0.491483
0.491211
0.490944
0.490696
0.490464
0.490199
0.489927
0.489656
0.489393
0.489163
0.488919
0.488649
0.488377
0.488106
0.487845
0.487623
0.487379
0.487107
0.486833
0.486559
0.486288
0.486029
0.485814
0.485569
0.485299
0.485025
0.484753
0.484482
0.484218
0.483992
0.483765
0.483499
0.483228
0.482957
0.482687
0.482423
0.482192
0.481968
0.481704
0.481435
0.481165
0.480898
0.480639
0.480417
0.480179
0.479914
0.479646
0.479379
0.479116
0.478874
0.478651
0.478394
0.478128
0.477862
0.477599
0.477346
0.477122
0.476875
0.476612
0.476348
0.476085
0.475828
0.475597
0.475359
0.475099
0.474836
0.474574
0.474316
0.474079
0.473846
0.473588
0.473327
0.473066
0.472809
0.472569
0.472336
0.47208
0.471821
0.471562
0.471306
0.471066
0.47083
0.470575
0.470317
0.47006
0.469808
0.469571
0.469328
0.469073
0.468817
0.468562
0.468313
0.468078
0.467832
0.467577
0.467322
0.467068
0.466819
0.466584
0.466341
0.466087
0.465832
0.465578
0.465327
0.465089
0.464852
0.4646
0.464346
0.464092
0.46384
0.463597
0.463365
0.463117
0.462864
0.46261
0.462357
0.462111
0.461879
0.461636
0.461384
0.461132
0.460879
0.46063
0.460395
0.460158
0.459908
0.459657
0.459405
0.459155
0.458915
0.458682
0.458436
0.458185
0.457934
0.457685
0.457439
0.457204
0.456962
0.456715
0.456468
0.456227
0.455987
0.455741
0.455494
0.455247
0.455006
0.454773
0.454528
0.45428
0.454032
0.453784
0.453539
0.453306
0.453069
0.452823
0.452576
0.45233
0.452084
0.451842
0.451612
0.451371
0.451126
0.45088
0.450635
0.450391
0.450153
0.449921
0.449679
0.449435
0.449191
0.448947
0.448706
0.448473
0.448237
0.447995
0.447752
0.44751
0.447269
0.447033
0.446801
0.446562
0.446323
0.446083
0.445845
0.44561
0.445379
0.445145
0.44491
0.444677
0.444449
0.444219
0.443987
0.443757
0.443529
0.443302
0.44308
0.442859
0.442638
0.442419
0.442202
0.441988
0.441778
0.441572
0.441369
0.441168
0.440971
0.44078
0.440597
0.440422
0.440256
0.4401
0.439956
0.439822
0.439704
0.439602
0.439515
0.439444
0.439387
0.439343
0.439309
0.439291
0.439285
0.439284
0.439287
0.439294
0.439309
0.439338
0.439377
0.439411
0.439442
0.439476
0.43951
0.439542
0.439573
0.439601
0.439624
0.439652
0.439692
0.439738
0.439783
0.439823
0.43985
0.439863
0.439878
0.439891
0.439899
0.4399
0.43989
0.439851
0.439793
0.439724
0.439662
0.439609
0.439564
0.439518
0.439481
0.439458
0.439441
0.439428
0.439419
0.439409
0.439393
0.439389
0.439391
0.439395
0.439401
0.439407
0.439405
0.439409
0.439423
0.439441
0.439462
0.439484
0.439501
0.439518
0.439544
0.439569
0.439591
0.439607
0.439615
0.439613
0.439615
0.439616
0.43961
0.439584
0.439532
0.439487
0.439449
0.439417
0.439388
0.439355
0.439329
0.439312
0.439299
0.43929
0.439283
0.439279
0.439277
0.439274
0.439262
0.439243
0.439241
0.439246
0.439252
0.43926
0.439268
0.439269
0.439268
0.43928
0.439297
0.439315
0.439334
0.439349
0.439352
0.439358
0.439371
0.439383
0.439392
0.439395
0.439388
0.439367
0.439345
0.439313
0.439278
0.439247
0.439217
0.439182
0.439155
0.439138
0.439125
0.439113
0.439102
0.439087
0.439066
0.439059
0.439057
0.439056
0.439056
0.439055
0.439044
0.439041
0.439046
0.439054
0.439063
0.439072
0.439074
0.439074
0.439086
0.439101
0.439116
0.43913
0.439134
0.439134
0.439144
0.439154
0.439161
0.439165
0.439166
0.439157
0.439131
0.439081
0.439014
0.438981
0.43896
0.438944
0.438931
0.438921
0.438913
0.438907
0.4389
0.438895
0.438892
0.438889
0.438887
0.438882
0.438866
0.438854
0.438851
0.438846
0.438838
0.43884
0.438848
0.438858
0.43887
0.438882
0.438893
0.4389
0.438895
0.438902
0.438914
0.438925
0.438933
0.438936
0.438925
0.438915
0.43891
0.438897
0.438874
0.438847
0.438817
0.438781
0.43876
0.438747
0.438737
0.438728
0.438718
0.438698
0.438681
0.438674
0.43867
0.438668
0.438666
0.438661
0.438647
0.438643
0.438646
0.43865
0.438654
0.438656
0.438649
0.43865
0.438658
0.438667
0.438676
0.438681
0.438675
0.43868
0.438689
0.438698
0.438704
0.438706
0.4387
0.43868
0.438664
0.438647
0.438627
0.438608
0.43859
0.438565
0.438538
0.438525
0.438517
0.438511
0.438506
0.438499
0.438489
0.43847
0.43846
0.438456
0.43845
0.438437
0.438428
0.438429
0.438433
0.438439
0.438445
0.438452
0.438459
0.438467
0.438473
0.43847
0.438441
0.438432
0.438439
0.438448
0.438455
0.438462
0.438465
0.438467
0.438464
0.438451
0.43842
0.438397
0.438382
0.438369
0.438359
0.43835
0.438342
0.438334
0.438326
0.438308
0.438263
0.43824
0.438235
0.438234
0.438233
0.438234
0.438235
0.438237
0.438241
0.438244
0.438248
0.438249
0.438237
0.438221
0.438223
0.43823
0.438237
0.438245
0.438253
0.438257
0.438251
0.43824
0.438241
0.438244
0.438245
0.438244
0.438237
0.438223
0.438201
0.43816
0.438135
0.438124
0.438115
0.438106
0.438091
0.43807
0.438062
0.438058
0.438056
0.438054
0.438054
0.438054
0.438053
0.438052
0.438039
0.438007
0.437999
0.438001
0.438006
0.438011
0.438017
0.438023
0.438029
0.438035
0.438039
0.438035
0.438007
0.437996
0.437997
0.438001
0.438003
0.438004
0.438003
0.437998
0.437988
0.437977
0.437963
0.437935
0.437891
0.437877
0.437872
0.437867
0.437864
0.43786
0.437859
0.437857
0.437856
0.437855
0.437855
0.437852
0.437838
0.437796
0.437783
0.437784
0.437787
0.437791
0.437796
0.437802
0.437811
0.437823
0.437831
0.437837
0.437843
0.437849
0.437854
0.437856
0.437852
0.437817
0.437762
0.437748
0.437741
0.437734
0.437725
0.437717
0.437711
0.437706
0.437702
0.437699
0.437695
0.437686
0.437648
0.43758
0.437562
0.437558
0.437558
0.437558
0.43756
0.437562
0.437566
0.437577
0.437604
0.437619
0.437624
0.437629
0.437633
0.437639
0.437644
0.437648
0.43765
0.437639
0.437579
0.437525
0.437517
0.437518
0.43752
0.43752
0.437518
0.437515
0.437513
0.437514
0.437514
0.437513
0.437514
0.437514
0.437509
0.43751
0.437511
0.43751
0.437504
0.43749
0.437467
0.437459
0.437455
0.437452
0.437449
0.437445
0.437438
0.437432
0.437428
0.437421
0.437399
0.437342
0.437318
0.437317
0.437321
0.437325
0.437331
0.43734
0.437351
0.43737
0.437438
0.437728
0.439047
0.442759
0.445866
0.446988
0.447276
0.447426
0.447507
0.447588
0.447626
0.447619
0.447575
0.447522
0.447504
0.447503
0.447512
0.447487
0.447445
0.447406
0.447379
0.447373
0.447381
0.447406
0.447453
0.44747
0.447468
0.447458
0.447441
0.447432
0.447424
0.447412
0.447348
0.447267
0.447237
0.447222
0.447213
0.447212
0.447226
0.447257
0.447272
0.447272
0.447276
0.447304
0.447409
0.447787
0.449104
0.451782
0.453885
0.454905
0.455181
0.45529
0.455384
0.45546
0.455548
0.455587
0.455583
0.455551
0.455529
0.455528
0.455537
0.45555
0.455514
0.455427
0.455376
0.455357
0.455356
0.455372
0.455415
0.455492
0.455514
0.455511
0.455499
0.455477
0.455422
0.455309
0.455268
0.455261
0.455257
0.455253
0.455253
0.455279
0.455353
0.455395
0.455405
0.455405
0.455402
0.455395
0.455383
0.455352
0.455244
0.455162
0.455149
0.455147
0.455147
0.455149
0.45516
0.455208
0.455273
0.455288
0.455292
0.455294
0.455295
0.455295
0.455287
0.455247
0.455141
0.455106
0.455105
0.45511
0.455116
0.455132
0.455178
0.455204
0.455212
0.455216
0.45522
0.455223
0.455218
0.455183
0.455107
0.45509
0.455091
0.455096
0.455105
0.455121
0.455129
0.455133
0.455135
0.455123
0.455087
0.455079
0.455082
0.455086
0.455094
0.455105
0.45511
0.455113
0.455111
0.455086
0.455025
0.455011
0.455013
0.455017
0.455022
0.455033
0.455051
0.455058
0.455061
0.455063
0.455062
0.455045
0.454978
0.454938
0.454937
0.454939
)
;

boundaryField
{
    sides
    {
        type            calculated;
        value           nonuniform List<scalar> 2(0.454939 0.54368);
    }
    empty
    {
        type            empty;
    }
}


// ************************************************************************* //
