/*--------------------------------*- C++ -*----------------------------------*\
  =========                 |
  \\      /  F ield         | OpenFOAM: The Open Source CFD Toolbox
   \\    /   O peration     | Website:  https://openfoam.org
    \\  /    A nd           | Version:  9
     \\/     M anipulation  |
\*---------------------------------------------------------------------------*/
FoamFile
{
    format      ascii;
    class       volScalarField;
    location    "0.027";
    object      ddt0(rho);
}
// * * * * * * * * * * * * * * * * * * * * * * * * * * * * * * * * * * * * * //

dimensions      [1 -3 -1 0 0 0 0];

internalField   nonuniform List<scalar> 
10000
(
-17.4495
-17.4489
-17.4479
-17.4471
-17.4467
-17.446
-17.4447
-17.4434
-17.4429
-17.443
-17.4425
-17.4408
-17.4389
-17.438
-17.4383
-17.4391
-17.4387
-17.4368
-17.4341
-17.4321
-17.4319
-17.4332
-17.4347
-17.435
-17.4335
-17.4304
-17.4269
-17.4244
-17.4238
-17.4251
-17.4276
-17.4302
-17.4316
-17.4313
-17.4289
-17.425
-17.4203
-17.4159
-17.4124
-17.4106
-17.4107
-17.4127
-17.4163
-17.4211
-17.4267
-17.4325
-17.4383
-17.4436
-17.4483
-17.452
-17.4549
-17.4568
-17.4579
-17.4583
-17.4583
-17.4586
-17.4598
-17.4635
-17.4642
-17.4641
-17.4639
-17.4637
-17.4635
-17.4633
-17.4632
-17.4631
-17.463
-17.4628
-17.4627
-17.4626
-17.4625
-17.4624
-17.4623
-17.4622
-17.4621
-17.462
-17.4619
-17.4619
-17.4618
-17.4617
-17.4616
-17.4615
-17.4614
-17.4613
-17.4612
-17.4611
-17.461
-17.4609
-17.4608
-17.4607
-17.4606
-17.4605
-17.4604
-17.4603
-17.4602
-17.4601
-17.46
-17.4599
-17.4598
-17.4597
-17.4596
-17.4595
-17.4594
-17.4593
-17.4592
-17.4591
-17.459
-17.4589
-17.4588
-17.4587
-17.4586
-17.4585
-17.4584
-17.4583
-17.4582
-17.4581
-17.458
-17.4579
-17.4578
-17.4577
-17.4576
-17.4575
-17.4574
-17.4573
-17.4572
-17.4571
-17.457
-17.4569
-17.4568
-17.4567
-17.4566
-17.4565
-17.4564
-17.4563
-17.4562
-17.4561
-17.456
-17.4559
-17.4558
-17.4557
-17.4556
-17.4555
-17.4554
-17.4553
-17.4552
-17.4551
-17.455
-17.4549
-17.4547
-17.4546
-17.4545
-17.4544
-17.4543
-17.4542
-17.4541
-17.454
-17.4539
-17.4538
-17.4537
-17.4536
-17.4535
-17.4534
-17.4533
-17.4532
-17.4531
-17.453
-17.4528
-17.4527
-17.4526
-17.4525
-17.4524
-17.4523
-17.4522
-17.4521
-17.452
-17.4519
-17.4518
-17.4517
-17.4515
-17.4514
-17.4513
-17.4512
-17.4511
-17.451
-17.4509
-17.4508
-17.4507
-17.4506
-17.4505
-17.4503
-17.4502
-17.4501
-17.45
-17.4499
-17.4498
-17.4497
-17.4496
-17.4495
-17.4493
-17.4492
-17.4491
-17.449
-17.4489
-17.4488
-17.4487
-17.4486
-17.4485
-17.4483
-17.4482
-17.4481
-17.448
-17.4479
-17.4478
-17.4477
-17.4475
-17.4474
-17.4473
-17.4472
-17.4471
-17.447
-17.4469
-17.4467
-17.4466
-17.4465
-17.4464
-17.4463
-17.4462
-17.4461
-17.4459
-17.4458
-17.4457
-17.4456
-17.4455
-17.4454
-17.4452
-17.4451
-17.445
-17.4449
-17.4448
-17.4447
-17.4445
-17.4444
-17.4443
-17.4442
-17.4441
-17.444
-17.4438
-17.4437
-17.4436
-17.4435
-17.4434
-17.4433
-17.4431
-17.443
-17.4429
-17.4428
-17.4427
-17.4425
-17.4424
-17.4423
-17.4422
-17.4421
-17.4419
-17.4418
-17.4417
-17.4416
-17.4415
-17.4413
-17.4412
-17.4411
-17.441
-17.4409
-17.4407
-17.4406
-17.4405
-17.4404
-17.4402
-17.4401
-17.44
-17.4399
-17.4398
-17.4396
-17.4395
-17.4394
-17.4393
-17.4391
-17.439
-17.4389
-17.4388
-17.4386
-17.4385
-17.4384
-17.4383
-17.4381
-17.438
-17.4379
-17.4378
-17.4376
-17.4375
-17.4374
-17.4372
-17.4371
-17.437
-17.4369
-17.4367
-17.4366
-17.4365
-17.4363
-17.4362
-17.4361
-17.436
-17.4358
-17.4357
-17.4356
-17.4354
-17.4353
-17.4352
-17.4351
-17.4349
-17.4348
-17.4347
-17.4345
-17.4344
-17.4343
-17.4341
-17.434
-17.4339
-17.4338
-17.4336
-17.4335
-17.4334
-17.4332
-17.4331
-17.433
-17.4329
-17.4327
-17.4326
-17.4325
-17.4323
-17.4322
-17.4321
-17.432
-17.4318
-17.4317
-17.4316
-17.4314
-17.4313
-17.4312
-17.4311
-17.4309
-17.4308
-17.4307
-17.4305
-17.4304
-17.4303
-17.4302
-17.43
-17.4299
-17.4298
-17.4296
-17.4295
-17.4294
-17.4292
-17.4291
-17.429
-17.4289
-17.4287
-17.4286
-17.4285
-17.4283
-17.4282
-17.4281
-17.4279
-17.4278
-17.4277
-17.4275
-17.4274
-17.4273
-17.4271
-17.427
-17.4269
-17.4267
-17.4266
-17.4265
-17.4263
-17.4262
-17.4261
-17.4259
-17.4258
-17.4256
-17.4255
-17.4254
-17.4252
-17.4251
-17.425
-17.4248
-17.4247
-17.4245
-17.4244
-17.4243
-17.4241
-17.424
-17.4238
-17.4237
-17.4236
-17.4234
-17.4233
-17.4231
-17.423
-17.4229
-17.4227
-17.4226
-17.4224
-17.4223
-17.4222
-17.422
-17.4219
-17.4217
-17.4216
-17.4214
-17.4213
-17.4212
-17.421
-17.4209
-17.4207
-17.4206
-17.4204
-17.4203
-17.4202
-17.42
-17.4199
-17.4197
-17.4196
-17.4194
-17.4193
-17.4192
-17.419
-17.4189
-17.4187
-17.4186
-17.4184
-17.4183
-17.4181
-17.418
-17.4179
-17.4177
-17.4176
-17.4174
-17.4173
-17.4171
-17.417
-17.4168
-17.4167
-17.4165
-17.4164
-17.4162
-17.4161
-17.416
-17.4158
-17.4157
-17.4155
-17.4154
-17.4152
-17.4151
-17.4149
-17.4148
-17.4146
-17.4145
-17.4143
-17.4142
-17.414
-17.4139
-17.4137
-17.4136
-17.4134
-17.4133
-17.4131
-17.413
-17.4128
-17.4127
-17.4125
-17.4124
-17.4122
-17.4121
-17.4119
-17.4118
-17.4116
-17.4115
-17.4113
-17.4112
-17.411
-17.4109
-17.4107
-17.4106
-17.4104
-17.4103
-17.4101
-17.41
-17.4098
-17.4097
-17.4095
-17.4094
-17.4092
-17.4091
-17.4089
-17.4088
-17.4086
-17.4085
-17.4083
-17.4081
-17.408
-17.4078
-17.4077
-17.4075
-17.4074
-17.4072
-17.4071
-17.4069
-17.4068
-17.4066
-17.4065
-17.4063
-17.4061
-17.406
-17.4058
-17.4057
-17.4055
-17.4054
-17.4052
-17.4051
-17.4049
-17.4047
-17.4046
-17.4044
-17.4043
-17.4041
-17.404
-17.4038
-17.4036
-17.4035
-17.4033
-17.4032
-17.403
-17.4028
-17.4027
-17.4025
-17.4024
-17.4022
-17.4021
-17.4019
-17.4017
-17.4016
-17.4014
-17.4013
-17.4011
-17.4009
-17.4008
-17.4006
-17.4005
-17.4003
-17.4001
-17.4
-17.3998
-17.3997
-17.3995
-17.3993
-17.3992
-17.399
-17.3989
-17.3987
-17.3985
-17.3984
-17.3982
-17.398
-17.3979
-17.3977
-17.3976
-17.3974
-17.3972
-17.3971
-17.3969
-17.3967
-17.3966
-17.3964
-17.3962
-17.3961
-17.3959
-17.3958
-17.3956
-17.3954
-17.3953
-17.3951
-17.3949
-17.3948
-17.3946
-17.3944
-17.3943
-17.3941
-17.3939
-17.3938
-17.3936
-17.3934
-17.3933
-17.3931
-17.3929
-17.3928
-17.3926
-17.3924
-17.3923
-17.3921
-17.3919
-17.3918
-17.3916
-17.3914
-17.3913
-17.3911
-17.3909
-17.3908
-17.3906
-17.3904
-17.3903
-17.3901
-17.3899
-17.3898
-17.3896
-17.3894
-17.3892
-17.3891
-17.3889
-17.3887
-17.3886
-17.3884
-17.3882
-17.3881
-17.3879
-17.3877
-17.3875
-17.3874
-17.3872
-17.387
-17.3869
-17.3867
-17.3865
-17.3863
-17.3862
-17.386
-17.3858
-17.3857
-17.3855
-17.3853
-17.3851
-17.385
-17.3848
-17.3846
-17.3844
-17.3843
-17.3841
-17.3839
-17.3837
-17.3836
-17.3834
-17.3832
-17.3831
-17.3829
-17.3827
-17.3825
-17.3824
-17.3822
-17.382
-17.3818
-17.3817
-17.3815
-17.3813
-17.3811
-17.381
-17.3808
-17.3806
-17.3804
-17.3802
-17.3801
-17.3799
-17.3797
-17.3795
-17.3794
-17.3792
-17.379
-17.3788
-17.3786
-17.3785
-17.3783
-17.3781
-17.3779
-17.3778
-17.3776
-17.3774
-17.3772
-17.377
-17.3769
-17.3767
-17.3765
-17.3763
-17.3761
-17.376
-17.3758
-17.3756
-17.3754
-17.3752
-17.3751
-17.3749
-17.3747
-17.3745
-17.3743
-17.3742
-17.374
-17.3738
-17.3736
-17.3734
-17.3732
-17.3731
-17.3729
-17.3727
-17.3725
-17.3723
-17.3722
-17.372
-17.3718
-17.3716
-17.3714
-17.3712
-17.3711
-17.3709
-17.3707
-17.3705
-17.3703
-17.3701
-17.3699
-17.3698
-17.3696
-17.3694
-17.3692
-17.369
-17.3688
-17.3687
-17.3685
-17.3683
-17.3681
-17.3679
-17.3677
-17.3675
-17.3673
-17.3672
-17.367
-17.3668
-17.3666
-17.3664
-17.3662
-17.366
-17.3659
-17.3657
-17.3655
-17.3653
-17.3651
-17.3649
-17.3647
-17.3645
-17.3643
-17.3642
-17.364
-17.3638
-17.3636
-17.3634
-17.3632
-17.363
-17.3628
-17.3626
-17.3625
-17.3623
-17.3621
-17.3619
-17.3617
-17.3615
-17.3613
-17.3611
-17.3609
-17.3607
-17.3605
-17.3604
-17.3602
-17.36
-17.3598
-17.3596
-17.3594
-17.3592
-17.359
-17.3588
-17.3586
-17.3584
-17.3582
-17.358
-17.3578
-17.3577
-17.3575
-17.3573
-17.3571
-17.3569
-17.3567
-17.3565
-17.3563
-17.3561
-17.3559
-17.3557
-17.3555
-17.3553
-17.3551
-17.3549
-17.3547
-17.3545
-17.3543
-17.3541
-17.354
-17.3538
-17.3536
-17.3534
-17.3532
-17.353
-17.3528
-17.3526
-17.3524
-17.3522
-17.352
-17.3518
-17.3516
-17.3514
-17.3512
-17.351
-17.3508
-17.3506
-17.3504
-17.3502
-17.35
-17.3498
-17.3496
-17.3494
-17.3492
-17.349
-17.3488
-17.3486
-17.3484
-17.3482
-17.348
-17.3478
-17.3476
-17.3474
-17.3472
-17.347
-17.3468
-17.3466
-17.3464
-17.3462
-17.346
-17.3458
-17.3456
-17.3454
-17.3452
-17.345
-17.3448
-17.3446
-17.3444
-17.3442
-17.344
-17.3438
-17.3436
-17.3434
-17.3432
-17.3429
-17.3427
-17.3425
-17.3423
-17.3421
-17.3419
-17.3417
-17.3415
-17.3413
-17.3411
-17.3409
-17.3407
-17.3405
-17.3403
-17.3401
-17.3399
-17.3397
-17.3395
-17.3393
-17.3391
-17.3388
-17.3386
-17.3384
-17.3382
-17.338
-17.3378
-17.3376
-17.3374
-17.3372
-17.337
-17.3368
-17.3366
-17.3364
-17.3361
-17.3359
-17.3357
-17.3355
-17.3353
-17.3351
-17.3349
-17.3347
-17.3345
-17.3343
-17.3341
-17.3338
-17.3336
-17.3334
-17.3332
-17.333
-17.3328
-17.3326
-17.3324
-17.3322
-17.3319
-17.3317
-17.3315
-17.3313
-17.3311
-17.3309
-17.3307
-17.3305
-17.3303
-17.33
-17.3298
-17.3296
-17.3294
-17.3292
-17.329
-17.3288
-17.3286
-17.3283
-17.3281
-17.3279
-17.3277
-17.3275
-17.3273
-17.3271
-17.3268
-17.3266
-17.3264
-17.3262
-17.326
-17.3258
-17.3255
-17.3253
-17.3251
-17.3249
-17.3247
-17.3245
-17.3243
-17.324
-17.3238
-17.3236
-17.3234
-17.3232
-17.323
-17.3227
-17.3225
-17.3223
-17.3221
-17.3219
-17.3217
-17.3214
-17.3212
-17.321
-17.3208
-17.3206
-17.3203
-17.3201
-17.3199
-17.3197
-17.3195
-17.3192
-17.319
-17.3188
-17.3186
-17.3184
-17.3181
-17.3179
-17.3177
-17.3175
-17.3173
-17.317
-17.3168
-17.3166
-17.3164
-17.3162
-17.3159
-17.3157
-17.3155
-17.3153
-17.3151
-17.3148
-17.3146
-17.3144
-17.3142
-17.3139
-17.3137
-17.3135
-17.3133
-17.313
-17.3128
-17.3126
-17.3124
-17.3122
-17.3119
-17.3117
-17.3115
-17.3113
-17.311
-17.3108
-17.3106
-17.3104
-17.3101
-17.3099
-17.3097
-17.3095
-17.3092
-17.309
-17.3087
-17.3086
-17.3083
-17.3082
-17.3078
-17.3078
-17.3072
-17.3074
-17.3067
-17.3071
-17.3061
-17.3068
-17.3055
-17.3065
-17.3049
-17.3062
-17.3042
-17.3058
-17.3037
-17.3054
-17.3034
-17.3046
-17.3035
-17.3034
-17.3036
-17.303
-17.3028
-17.3027
-17.3024
-17.3021
-17.3019
-17.3017
-17.3015
-17.3012
-17.301
-17.3008
-17.3006
-17.3003
-17.3001
-17.2998
-17.2999
-17.2989
-17.3001
-17.2976
-17.3005
-17.2963
-17.3008
-17.2952
-17.3006
-17.2949
-17.2995
-17.2955
-17.2975
-17.297
-17.295
-17.2985
-17.2928
-17.2994
-17.2916
-17.2987
-17.2922
-17.2963
-17.2945
-17.2928
-17.2969
-17.2899
-17.2979
-17.289
-17.2967
-17.2906
-17.2931
-17.2938
-17.289
-17.2963
-17.2868
-17.296
-17.2878
-17.2925
-17.2914
-17.2877
-17.2947
-17.2848
-17.2948
-17.2858
-17.291
-17.2899
-17.2857
-17.2934
-17.2828
-17.2933
-17.2844
-17.2886
-17.2892
-17.2831
-17.2924
-17.2811
-17.2911
-17.2837
-17.2857
-17.2886
-17.2807
-17.291
-17.2796
-17.2885
-17.2833
-17.2825
-17.2884
-17.2779
-17.2895
-17.2789
-17.2847
-17.2846
-17.2779
-17.2887
-17.2759
-17.2861
-17.2808
-17.2786
-17.2869
-17.2739
-17.2866
-17.2775
-17.2791
-17.2849
-17.2726
-17.2864
-17.2749
-17.2791
-17.2829
-17.2714
-17.2857
-17.2729
-17.2786
-17.2813
-17.2702
-17.2847
-17.2713
-17.2778
-17.2798
-17.2691
-17.2836
-17.2697
-17.2768
-17.2784
-17.2678
-17.2826
-17.2684
-17.2754
-17.2776
-17.266
-17.2816
-17.2676
-17.2733
-17.2774
-17.2643
-17.28
-17.2674
-17.2707
-17.2772
-17.2628
-17.2781
-17.2676
-17.2678
-17.2771
-17.2615
-17.2757
-17.2684
-17.2645
-17.2771
-17.2607
-17.2724
-17.2701
-17.2609
-17.2765
-17.261
-17.2679
-17.2722
-17.2577
-17.2745
-17.263
-17.2624
-17.2741
-17.2562
-17.2702
-17.2666
-17.2569
-17.2741
-17.2575
-17.2637
-17.2705
-17.2533
-17.2709
-17.2617
-17.2565
-17.2725
-17.2535
-17.2641
-17.2671
-17.2511
-17.2703
-17.2577
-17.2558
-17.2702
-17.2506
-17.2635
-17.2638
-17.2496
-17.2687
-17.2547
-17.2548
-17.2677
-17.2483
-17.2622
-17.261
-17.248
-17.2667
-17.2523
-17.253
-17.2656
-17.2463
-17.2599
-17.2594
-17.2455
-17.2646
-17.251
-17.2498
-17.2644
-17.2444
-17.2565
-17.2592
-17.2423
-17.2621
-17.2511
-17.2452
-17.2635
-17.2436
-17.2513
-17.2601
-17.2395
-17.2576
-17.2532
-17.24
-17.2612
-17.2453
-17.2443
-17.2607
-17.2392
-17.2503
-17.2563
-17.2365
-17.2556
-17.2494
-17.2376
-17.2583
-17.2423
-17.2417
-17.2575
-17.2368
-17.247
-17.2535
-17.234
-17.2519
-17.2475
-17.2344
-17.2548
-17.2408
-17.2374
-17.255
-17.2351
-17.2418
-17.2524
-17.2314
-17.2464
-17.2477
-17.2302
-17.2501
-17.2418
-17.2314
-17.2518
-17.2359
-17.2344
-17.2514
-17.2309
-17.2384
-17.2488
-17.2276
-17.2425
-17.2445
-17.2261
-17.2459
-17.2394
-17.2266
-17.2479
-17.234
-17.2285
-17.2482
-17.2291
-17.2314
-17.247
-17.2252
-17.2347
-17.2444
-17.2226
-17.2379
-17.2407
-17.2213
-17.2405
-17.2364
-17.2213
-17.2421
-17.2319
-17.2223
-17.2428
-17.2277
-17.224
-17.2424
-17.2239
-17.2262
-17.2411
-17.2207
-17.2285
-17.239
-17.2183
-17.2307
-17.2364
-17.2167
-17.2326
-17.2334
-17.2157
-17.234
-17.2303
-17.2152
-17.235
-17.2272
-17.2152
-17.2355
-17.2242
-17.2155
-17.2355
-17.2214
-17.2161
-17.235
-17.219
-17.2167
-17.2342
-17.2168
-17.2174
-17.2331
-17.2148
-17.2181
-17.2317
-17.2131
-17.2187
-17.2302
-17.2116
-17.2193
-17.2286
-17.2102
-17.2197
-17.227
-17.209
-17.22
-17.2255
-17.2077
-17.2202
-17.2241
-17.2066
-17.2201
-17.2229
-17.2055
-17.2197
-17.2219
-17.2045
-17.2191
-17.2209
-17.2037
-17.2183
-17.22
-17.2031
-17.2173
-17.2191
-17.2026
-17.2162
-17.218
-17.2023
-17.2151
-17.217
-17.2018
-17.2142
-17.2159
-17.2011
-17.2134
-17.215
-17.2004
-17.2124
-17.2143
-17.1996
-17.2112
-17.2138
-17.1988
-17.2099
-17.2135
-17.198
-17.2084
-17.2132
-17.1974
-17.2067
-17.2129
-17.1971
-17.2047
-17.2125
-17.1969
-17.2027
-17.2119
-17.197
-17.2008
-17.2111
-17.1972
-17.1991
-17.21
-17.1975
-17.1974
-17.2088
-17.1976
-17.1958
-17.2077
-17.1977
-17.1944
-17.2064
-17.1979
-17.1929
-17.205
-17.1982
-17.1914
-17.2035
-17.1987
-17.1901
-17.2018
-17.1992
-17.189
-17.1997
-17.1996
-17.1883
-17.1972
-17.2
-17.188
-17.1946
-17.2
-17.1881
-17.1922
-17.1994
-17.1886
-17.1899
-17.1984
-17.1892
-17.1879
-17.1971
-17.1897
-17.1863
-17.1957
-17.1901
-17.1849
-17.194
-17.1905
-17.1836
-17.1922
-17.1911
-17.1824
-17.19
-17.1916
-17.1817
-17.1875
-17.1919
-17.1818
-17.1846
-17.1916
-17.1825
-17.1819
-17.1905
-17.1835
-17.1799
-17.1887
-17.1845
-17.1785
-17.1864
-17.1852
-17.1776
-17.1841
-17.1855
-17.1771
-17.1816
-17.1855
-17.1772
-17.1791
-17.1851
-17.1777
-17.1765
-17.1841
-17.1785
-17.1745
-17.1823
-17.1796
-17.1731
-17.1798
-17.1805
-17.1725
-17.1769
-17.1807
-17.1727
-17.1741
-17.1801
-17.1736
-17.1716
-17.1785
-17.1747
-17.17
-17.1764
-17.1754
-17.1691
-17.1739
-17.1757
-17.1689
-17.1713
-17.1754
-17.1692
-17.1689
-17.1745
-17.1698
-17.1669
-17.1728
-17.1707
-17.1654
-17.1705
-17.1715
-17.1647
-17.1677
-17.1716
-17.1652
-17.1648
-17.1706
-17.1664
-17.1627
-17.1685
-17.1673
-17.1619
-17.1658
-17.1675
-17.1619
-17.1632
-17.167
-17.1621
-17.1611
-17.1658
-17.1627
-17.1594
-17.164
-17.1634
-17.1581
-17.1615
-17.1639
-17.1581
-17.1586
-17.1633
-17.1591
-17.1562
-17.1613
-17.1603
-17.1551
-17.1585
-17.1605
-17.1554
-17.1558
-17.1596
-17.1561
-17.154
-17.1579
-17.1564
-17.1529
-17.1559
-17.1565
-17.1522
-17.1537
-17.1565
-17.1521
-17.1512
-17.1554
-17.1531
-17.1493
-17.1531
-17.154
-17.1488
-17.1501
-17.1536
-17.1497
-17.1477
-17.1517
-17.1507
-17.1467
-17.1492
-17.1506
-17.1467
-17.147
-17.1496
-17.1469
-17.1452
-17.1483
-17.1471
-17.1439
-17.1464
-17.1474
-17.1433
-17.1437
-17.147
-17.1439
-17.1414
-17.1451
-17.1449
-17.1407
-17.1421
-17.1448
-17.1413
-17.1398
-17.143
-17.142
-17.1388
-17.1406
-17.1418
-17.1386
-17.1387
-17.1408
-17.1386
-17.1371
-17.1394
-17.1388
-17.1357
-17.1375
-17.1389
-17.1355
-17.1349
-17.1379
-17.1363
-17.1331
-17.1355
-17.1368
-17.1331
-17.1328
-17.1356
-17.1339
-17.1313
-17.1334
-17.134
-17.1311
-17.1313
-17.133
-17.1311
-17.1297
-17.1316
-17.131
-17.1285
-17.1298
-17.1309
-17.1281
-17.1275
-17.13
-17.1287
-17.1259
-17.1276
-17.1289
-17.126
-17.1251
-17.1275
-17.1265
-17.124
-17.1253
-17.1262
-17.1239
-17.1234
-17.1251
-17.1237
-17.122
-17.1235
-17.1237
-17.1212
-17.1214
-17.1231
-17.1213
-17.1195
-17.1213
-17.1216
-17.1189
-17.1189
-17.1208
-17.1193
-17.1174
-17.1188
-17.1192
-17.117
-17.1168
-17.1182
-17.1169
-17.1154
-17.1166
-17.1167
-17.1146
-17.1147
-17.116
-17.1145
-17.113
-17.1144
-17.1146
-17.1122
-17.1122
-17.1138
-17.1125
-17.1106
-17.1118
-17.1124
-17.1103
-17.1098
-17.1112
-17.1103
-17.1086
-17.1093
-17.1099
-17.1081
-17.1076
-17.1087
-17.1079
-17.1063
-17.1071
-17.1077
-17.1058
-17.1052
-17.1065
-17.1059
-17.1039
-17.1044
-17.1054
-17.1039
-17.1027
-17.1038
-17.1038
-17.102
-17.1019
-17.1028
-17.1018
-17.1005
-17.1012
-17.1014
-17.0998
-17.0995
-17.1004
-17.0995
-17.0982
-17.0988
-17.0992
-17.0976
-17.097
-17.098
-17.0975
-17.0958
-17.0961
-17.0969
-17.0956
-17.0945
-17.0953
-17.0954
-17.0938
-17.0935
-17.0943
-17.0936
-17.0923
-17.0926
-17.093
-17.0917
-17.0911
-17.0918
-17.0913
-17.09
-17.0901
-17.0907
-17.0895
-17.0885
-17.0892
-17.0893
-17.0878
-17.0873
-17.0882
-17.0876
-17.0862
-17.0864
-17.0869
-17.0859
-17.0849
-17.0854
-17.0853
-17.0842
-17.0839
-17.0844
-17.0836
-17.0826
-17.0829
-17.0831
-17.0819
-17.0812
-17.0819
-17.0816
-17.0802
-17.08
-17.0807
-17.08
-17.0787
-17.079
-17.0793
-17.0783
-17.0775
-17.0779
-17.0777
-17.0767
-17.0764
-17.0767
-17.076
-17.0751
-17.0754
-17.0754
-17.0743
-17.0737
-17.0743
-17.074
-17.0727
-17.0725
-17.0731
-17.0725
-17.0713
-17.0713
-17.0716
-17.0709
-17.07
-17.0701
-17.0701
-17.0692
-17.0689
-17.069
-17.0684
-17.0676
-17.0677
-17.0679
-17.0668
-17.066
-17.0664
-17.0665
-17.0654
-17.0646
-17.0651
-17.065
-17.064
-17.0635
-17.0637
-17.0633
-17.0625
-17.0624
-17.0623
-17.0616
-17.0611
-17.0613
-17.061
-17.06
-17.0597
-17.0601
-17.0596
-17.0584
-17.0583
-17.0587
-17.0581
-17.0571
-17.057
-17.0571
-17.0566
-17.0558
-17.0557
-17.0556
-17.0549
-17.0545
-17.0546
-17.0541
-17.0532
-17.0532
-17.0534
-17.0526
-17.0517
-17.0517
-17.052
-17.0512
-17.0503
-17.0504
-17.0504
-17.0497
-17.0491
-17.049
-17.0488
-17.0482
-17.0478
-17.0478
-17.0472
-17.0466
-17.0465
-17.0465
-17.0458
-17.045
-17.0451
-17.0451
-17.0444
-17.0436
-17.0436
-17.0436
-17.0429
-17.0423
-17.0422
-17.042
-17.0414
-17.041
-17.0409
-17.0404
-17.0398
-17.0397
-17.0396
-17.0389
-17.0382
-17.0382
-17.0383
-17.0375
-17.0368
-17.0367
-17.0367
-17.0361
-17.0354
-17.0353
-17.0351
-17.0346
-17.0341
-17.034
-17.0336
-17.033
-17.0327
-17.0327
-17.0322
-17.0314
-17.0312
-17.0313
-17.0307
-17.03
-17.0297
-17.0298
-17.0292
-17.0286
-17.0284
-17.0282
-17.0277
-17.0272
-17.027
-17.0267
-17.0261
-17.0256
-17.0256
-17.0253
-17.0246
-17.0242
-17.0241
-17.0239
-17.0232
-17.0228
-17.0226
-17.0223
-17.0217
-17.0214
-17.0212
-17.0208
-17.0201
-17.0199
-17.0198
-17.0193
-17.0187
-17.0184
-17.0183
-17.0178
-17.0172
-17.017
-17.0168
-17.0163
-17.0157
-17.0156
-17.0153
-17.0147
-17.0142
-17.0141
-17.0139
-17.0132
-17.0127
-17.0126
-17.0124
-17.0118
-17.0113
-17.0111
-17.0108
-17.0103
-17.0099
-17.0096
-17.0092
-17.0087
-17.0084
-17.0082
-17.0078
-17.0071
-17.0068
-17.0067
-17.0064
-17.0057
-17.0053
-17.0051
-17.0048
-17.0043
-17.0039
-17.0036
-17.0032
-17.0027
-17.0024
-17.0022
-17.0017
-17.0011
-17.0009
-17.0008
-17.0003
-16.9996
-16.9993
-16.9991
-16.9988
-16.9982
-16.9978
-16.9975
-16.9972
-16.9967
-16.9964
-16.9961
-16.9956
-16.9951
-16.9949
-16.9947
-16.9941
-16.9935
-16.9933
-16.9931
-16.9927
-16.9921
-16.9917
-16.9915
-16.9911
-16.9906
-16.9903
-16.9899
-16.9895
-16.989
-16.9888
-16.9885
-16.988
-16.9874
-16.9872
-16.987
-16.9865
-16.9859
-16.9856
-16.9854
-16.985
-16.9845
-16.9841
-16.9838
-16.9834
-16.983
-16.9827
-16.9823
-16.9818
-16.9813
-16.9811
-16.9809
-16.9804
-16.9798
-16.9794
-16.9792
-16.9789
-16.9783
-16.9779
-16.9776
-16.9772
-16.9768
-16.9765
-16.9761
-16.9756
-16.9751
-16.9749
-16.9746
-16.9741
-16.9736
-16.9732
-16.973
-16.9727
-16.9721
-16.9717
-16.9714
-16.971
-16.9706
-16.9702
-16.9698
-16.9694
-16.9689
-16.9686
-16.9684
-16.9679
-16.9673
-16.967
-16.9667
-16.9664
-16.9659
-16.9654
-16.9651
-16.9648
-16.9644
-16.9639
-16.9636
-16.9632
-16.9627
-16.9623
-16.962
-16.9617
-16.9611
-16.9607
-16.9604
-16.9601
-16.9596
-16.9591
-16.9588
-16.9585
-16.9581
-16.9576
-16.9572
-16.9569
-16.9564
-16.956
-16.9557
-16.9553
-16.9548
-16.9544
-16.954
-16.9537
-16.9533
-16.9528
-16.9524
-16.9521
-16.9517
-16.9513
-16.9508
-16.9505
-16.9501
-16.9497
-16.9493
-16.9489
-16.9485
-16.948
-16.9477
-16.9473
-16.947
-16.9464
-16.946
-16.9457
-16.9454
-16.9449
-16.9444
-16.944
-16.9437
-16.9433
-16.9429
-16.9425
-16.9421
-16.9416
-16.9412
-16.9409
-16.9405
-16.9401
-16.9396
-16.9392
-16.9389
-16.9385
-16.938
-16.9376
-16.9372
-16.9368
-16.9364
-16.936
-16.9356
-16.9352
-16.9347
-16.9343
-16.934
-16.9337
-16.9332
-16.9327
-16.9323
-16.932
-16.9316
-16.9311
-16.9307
-16.9303
-16.9299
-16.9295
-16.9291
-16.9287
-16.9283
-16.9278
-16.9274
-16.9271
-16.9267
-16.9262
-16.9258
-16.9254
-16.9251
-16.9246
-16.9242
-16.9238
-16.9234
-16.923
-16.9225
-16.9222
-16.9218
-16.9213
-16.9209
-16.9205
-16.9201
-16.9197
-16.9193
-16.9188
-16.9184
-16.9181
-16.9176
-16.9172
-16.9168
-16.9164
-16.916
-16.9155
-16.9152
-16.9148
-16.9144
-16.9139
-16.9135
-16.9131
-16.9127
-16.9123
-16.9118
-16.9115
-16.911
-16.9106
-16.9101
-16.9098
-16.9094
-16.909
-16.9085
-16.9081
-16.9077
-16.9073
-16.9069
-16.9065
-16.9061
-16.9056
-16.9051
-16.9047
-16.9044
-16.904
-16.9035
-16.9031
-16.9026
-16.9023
-16.9019
-16.9015
-16.901
-16.9006
-16.9001
-16.8997
-16.8994
-16.899
-16.8985
-16.898
-16.8976
-16.8972
-16.8969
-16.8965
-16.896
-16.8955
-16.8951
-16.8947
-16.8943
-16.8939
-16.8935
-16.893
-16.8925
-16.8921
-16.8918
-16.8914
-16.8909
-16.8904
-16.89
-16.8896
-16.8893
-16.8888
-16.8884
-16.8879
-16.8875
-16.8871
-16.8867
-16.8863
-16.8859
-16.8854
-16.8849
-16.8845
-16.8842
-16.8838
-16.8833
-16.8828
-16.8824
-16.882
-16.8816
-16.8812
-16.8808
-16.8803
-16.8798
-16.8794
-16.8791
-16.8787
-16.8782
-16.8777
-16.8772
-16.8768
-16.8765
-16.8761
-16.8756
-16.8751
-16.8747
-16.8742
-16.8739
-16.8735
-16.8731
-16.8726
-16.8721
-16.8717
-16.8713
-16.8709
-16.8705
-16.87
-16.8695
-16.8691
-16.8687
-16.8683
-16.8679
-16.8674
-16.8669
-16.8665
-16.8661
-16.8657
-16.8653
-16.8648
-16.8643
-16.8639
-16.8635
-16.8631
-16.8627
-16.8622
-16.8618
-16.8613
-16.8609
-16.8605
-16.8601
-16.8597
-16.8592
-16.8587
-16.8582
-16.8579
-16.8575
-16.857
-16.8566
-16.8561
-16.8556
-16.8552
-16.8548
-16.8544
-16.854
-16.8535
-16.853
-16.8526
-16.8522
-16.8518
-16.8513
-16.8509
-16.8504
-16.85
-16.8495
-16.8491
-16.8487
-16.8483
-16.8478
-16.8473
-16.8469
-16.8465
-16.8461
-16.8456
-16.8451
-16.8447
-16.8443
-16.8438
-16.8434
-16.843
-16.8425
-16.842
-16.8416
-16.8412
-16.8408
-16.8403
-16.8399
-16.8394
-16.8389
-16.8385
-16.8381
-16.8377
-16.8372
-16.8367
-16.8363
-16.8358
-16.8354
-16.835
-16.8346
-16.8341
-16.8336
-16.8332
-16.8328
-16.8323
-16.8319
-16.8314
-16.831
-16.8305
-16.8301
-16.8296
-16.8292
-16.8288
-16.8283
-16.8278
-16.8274
-16.8269
-16.8265
-16.826
-16.8256
-16.8252
-16.8247
-16.8243
-16.8238
-16.8233
-16.8229
-16.8225
-16.822
-16.8216
-16.8211
-16.8207
-16.8202
-16.8197
-16.8193
-16.8189
-16.8184
-16.818
-16.8175
-16.817
-16.8166
-16.8162
-16.8157
-16.8153
-16.8148
-16.8143
-16.8139
-16.8134
-16.813
-16.8126
-16.8121
-16.8116
-16.8111
-16.8107
-16.8103
-16.8099
-16.8094
-16.8089
-16.8084
-16.8079
-16.8075
-16.8071
-16.8067
-16.8062
-16.8057
-16.8052
-16.8047
-16.8043
-16.8039
-16.8035
-16.803
-16.8025
-16.802
-16.8015
-16.8011
-16.8007
-16.8003
-16.7999
-16.7993
-16.7988
-16.7983
-16.7979
-16.7975
-16.7971
-16.7966
-16.7961
-16.7956
-16.7951
-16.7947
-16.7943
-16.7939
-16.7934
-16.7929
-16.7924
-16.7919
-16.7915
-16.7911
-16.7906
-16.7902
-16.7897
-16.7892
-16.7887
-16.7882
-16.7878
-16.7874
-16.7869
-16.7864
-16.7859
-16.7855
-16.785
-16.7846
-16.7842
-16.7837
-16.7832
-16.7827
-16.7822
-16.7818
-16.7813
-16.7809
-16.7804
-16.7799
-16.7794
-16.779
-16.7785
-16.7781
-16.7777
-16.7772
-16.7767
-16.7762
-16.7757
-16.7752
-16.7748
-16.7744
-16.7739
-16.7734
-16.7729
-16.7724
-16.772
-16.7715
-16.7711
-16.7706
-16.7701
-16.7696
-16.7691
-16.7687
-16.7682
-16.7678
-16.7673
-16.7669
-16.7664
-16.7659
-16.7654
-16.7649
-16.7645
-16.764
-16.7636
-16.7631
-16.7626
-16.7621
-16.7616
-16.7612
-16.7607
-16.7603
-16.7598
-16.7593
-16.7588
-16.7583
-16.7579
-16.7574
-16.757
-16.7565
-16.756
-16.7555
-16.755
-16.7545
-16.7541
-16.7536
-16.7532
-16.7527
-16.7522
-16.7517
-16.7512
-16.7507
-16.7503
-16.7498
-16.7493
-16.7489
-16.7484
-16.7479
-16.7474
-16.7469
-16.7465
-16.746
-16.7455
-16.745
-16.7445
-16.7441
-16.7436
-16.7431
-16.7426
-16.7422
-16.7417
-16.7412
-16.7407
-16.7402
-16.7397
-16.7393
-16.7388
-16.7383
-16.7378
-16.7374
-16.7369
-16.7364
-16.7359
-16.7354
-16.735
-16.7345
-16.734
-16.7335
-16.733
-16.7325
-16.732
-16.7316
-16.7311
-16.7306
-16.7301
-16.7296
-16.7291
-16.7286
-16.7282
-16.7277
-16.7272
-16.7268
-16.7262
-16.7257
-16.7252
-16.7248
-16.7243
-16.7238
-16.7234
-16.7229
-16.7224
-16.7218
-16.7214
-16.7209
-16.7204
-16.7199
-16.7195
-16.719
-16.7185
-16.718
-16.7174
-16.717
-16.7165
-16.716
-16.7156
-16.7151
-16.7146
-16.714
-16.7135
-16.7131
-16.7126
-16.7121
-16.7116
-16.7111
-16.7106
-16.7101
-16.7096
-16.7091
-16.7087
-16.7082
-16.7077
-16.7072
-16.7067
-16.7062
-16.7057
-16.7052
-16.7047
-16.7042
-16.7038
-16.7033
-16.7028
-16.7023
-16.7018
-16.7013
-16.7008
-16.7003
-16.6998
-16.6993
-16.6988
-16.6983
-16.6978
-16.6973
-16.6968
-16.6963
-16.6958
-16.6953
-16.6948
-16.6943
-16.6938
-16.6934
-16.6929
-16.6924
-16.6919
-16.6913
-16.6908
-16.6903
-16.6899
-16.6894
-16.6889
-16.6884
-16.6879
-16.6874
-16.6869
-16.6864
-16.6859
-16.6854
-16.6849
-16.6844
-16.6839
-16.6834
-16.6829
-16.6824
-16.6819
-16.6814
-16.6809
-16.6804
-16.6799
-16.6793
-16.6788
-16.6783
-16.6778
-16.6773
-16.6769
-16.6763
-16.6758
-16.6753
-16.6748
-16.6743
-16.6738
-16.6733
-16.6728
-16.6723
-16.6718
-16.6713
-16.6708
-16.6703
-16.6698
-16.6693
-16.6688
-16.6683
-16.6678
-16.6673
-16.6667
-16.6662
-16.6657
-16.6652
-16.6647
-16.6642
-16.6637
-16.6632
-16.6627
-16.6622
-16.6616
-16.6611
-16.6606
-16.6602
-16.6596
-16.6591
-16.6586
-16.6581
-16.6576
-16.6571
-16.6566
-16.6561
-16.6556
-16.6551
-16.6545
-16.654
-16.6535
-16.653
-16.6525
-16.652
-16.6515
-16.651
-16.6505
-16.6499
-16.6494
-16.6489
-16.6484
-16.6479
-16.6473
-16.6468
-16.6463
-16.6458
-16.6453
-16.6448
-16.6443
-16.6437
-16.6432
-16.6427
-16.6422
-16.6417
-16.6412
-16.6407
-16.6402
-16.6396
-16.6391
-16.6386
-16.6381
-16.6375
-16.637
-16.6365
-16.636
-16.6355
-16.635
-16.6344
-16.6339
-16.6334
-16.6329
-16.6324
-16.6319
-16.6313
-16.6308
-16.6303
-16.6298
-16.6293
-16.6287
-16.6282
-16.6277
-16.6272
-16.6267
-16.6261
-16.6256
-16.6251
-16.6246
-16.624
-16.6235
-16.623
-16.6225
-16.622
-16.6214
-16.6209
-16.6204
-16.6199
-16.6193
-16.6188
-16.6183
-16.6178
-16.6172
-16.6167
-16.6162
-16.6157
-16.6151
-16.6146
-16.6141
-16.6136
-16.613
-16.6125
-16.612
-16.6115
-16.6109
-16.6104
-16.6099
-16.6093
-16.6088
-16.6083
-16.6078
-16.6072
-16.6067
-16.6062
-16.6056
-16.6051
-16.6046
-16.6041
-16.6035
-16.603
-16.6025
-16.602
-16.6014
-16.6009
-16.6003
-16.5998
-16.5993
-16.5987
-16.5982
-16.5977
-16.5972
-16.5966
-16.5961
-16.5956
-16.595
-16.5945
-16.5939
-16.5934
-16.5929
-16.5924
-16.5918
-16.5913
-16.5908
-16.5902
-16.5897
-16.5891
-16.5886
-16.5881
-16.5875
-16.587
-16.5865
-16.5859
-16.5854
-16.5849
-16.5843
-16.5838
-16.5833
-16.5827
-16.5822
-16.5816
-16.5811
-16.5806
-16.58
-16.5795
-16.579
-16.5784
-16.5779
-16.5773
-16.5768
-16.5762
-16.5757
-16.5752
-16.5746
-16.5741
-16.5736
-16.573
-16.5725
-16.5719
-16.5714
-16.5708
-16.5703
-16.5698
-16.5692
-16.5687
-16.5681
-16.5676
-16.5671
-16.5665
-16.566
-16.5654
-16.5649
-16.5643
-16.5638
-16.5632
-16.5627
-16.5622
-16.5616
-16.5611
-16.5605
-16.56
-16.5594
-16.5589
-16.5583
-16.5578
-16.5573
-16.5567
-16.5562
-16.5556
-16.555
-16.5545
-16.5539
-16.5534
-16.5528
-16.5523
-16.5518
-16.5512
-16.5507
-16.5501
-16.5496
-16.549
-16.5485
-16.5479
-16.5474
-16.5468
-16.5463
-16.5457
-16.5452
-16.5446
-16.544
-16.5435
-16.5429
-16.5424
-16.5418
-16.5413
-16.5408
-16.5402
-16.5396
-16.5391
-16.5385
-16.538
-16.5374
-16.5369
-16.5363
-16.5358
-16.5352
-16.5347
-16.5341
-16.5335
-16.533
-16.5324
-16.5319
-16.5313
-16.5307
-16.5302
-16.5296
-16.5291
-16.5285
-16.528
-16.5274
-16.5268
-16.5263
-16.5257
-16.5252
-16.5246
-16.524
-16.5235
-16.5229
-16.5224
-16.5218
-16.5213
-16.5207
-16.5201
-16.5196
-16.519
-16.5184
-16.5179
-16.5173
-16.5168
-16.5162
-16.5157
-16.5151
-16.5145
-16.5139
-16.5134
-16.5128
-16.5122
-16.5117
-16.5111
-16.5106
-16.51
-16.5094
-16.5089
-16.5083
-16.5077
-16.5072
-16.5066
-16.5061
-16.5055
-16.5049
-16.5044
-16.5038
-16.5032
-16.5026
-16.5021
-16.5015
-16.5009
-16.5004
-16.4998
-16.4992
-16.4987
-16.4981
-16.4975
-16.4969
-16.4964
-16.4958
-16.4952
-16.4947
-16.4941
-16.4935
-16.493
-16.4924
-16.4918
-16.4912
-16.4907
-16.4901
-16.4895
-16.4889
-16.4884
-16.4878
-16.4872
-16.4867
-16.4861
-16.4855
-16.4849
-16.4844
-16.4838
-16.4832
-16.4826
-16.482
-16.4815
-16.4809
-16.4803
-16.4797
-16.4792
-16.4786
-16.478
-16.4774
-16.4768
-16.4763
-16.4757
-16.4751
-16.4745
-16.474
-16.4734
-16.4728
-16.4723
-16.4717
-16.4711
-16.4705
-16.4699
-16.4693
-16.4687
-16.4681
-16.4676
-16.467
-16.4664
-16.4659
-16.4653
-16.4647
-16.4641
-16.4635
-16.4629
-16.4623
-16.4617
-16.4611
-16.4605
-16.46
-16.4594
-16.4588
-16.4582
-16.4577
-16.4571
-16.4565
-16.4559
-16.4553
-16.4547
-16.4541
-16.4535
-16.4529
-16.4523
-16.4518
-16.4512
-16.4506
-16.4501
-16.4495
-16.4489
-16.4483
-16.4477
-16.4471
-16.4465
-16.4459
-16.4453
-16.4447
-16.4441
-16.4435
-16.443
-16.4424
-16.4418
-16.4412
-16.4406
-16.44
-16.4394
-16.4387
-16.4381
-16.4375
-16.437
-16.4364
-16.4358
-16.4352
-16.4346
-16.4341
-16.4335
-16.4328
-16.4322
-16.4316
-16.431
-16.4304
-16.4298
-16.4292
-16.4286
-16.4281
-16.4275
-16.4269
-16.4263
-16.4257
-16.4251
-16.4245
-16.4238
-16.4232
-16.4226
-16.422
-16.4214
-16.4209
-16.4203
-16.4197
-16.4191
-16.4185
-16.4179
-16.4173
-16.4166
-16.416
-16.4154
-16.4148
-16.4141
-16.4136
-16.413
-16.4124
-16.4118
-16.4113
-16.4107
-16.4101
-16.4094
-16.4088
-16.4081
-16.4075
-16.4069
-16.4063
-16.4057
-16.4051
-16.4045
-16.4039