/*--------------------------------*- C++ -*----------------------------------*\
  =========                 |
  \\      /  F ield         | OpenFOAM: The Open Source CFD Toolbox
   \\    /   O peration     | Website:  https://openfoam.org
    \\  /    A nd           | Version:  9
     \\/     M anipulation  |
\*---------------------------------------------------------------------------*/
FoamFile
{
    format      ascii;
    class       volScalarField;
    location    "0.027";
    object      ddt0(p);
}
// * * * * * * * * * * * * * * * * * * * * * * * * * * * * * * * * * * * * * //

dimensions      [1 -1 -3 0 0 0 0];

internalField   nonuniform List<scalar> 
10000
(
-1.61338e+06
-1.61336e+06
-1.61335e+06
-1.61334e+06
-1.61333e+06
-1.61332e+06
-1.6133e+06
-1.61329e+06
-1.61328e+06
-1.61327e+06
-1.61326e+06
-1.61325e+06
-1.61324e+06
-1.61322e+06
-1.61321e+06
-1.6132e+06
-1.61319e+06
-1.61318e+06
-1.61317e+06
-1.61316e+06
-1.61314e+06
-1.61313e+06
-1.61312e+06
-1.61311e+06
-1.6131e+06
-1.61308e+06
-1.61307e+06
-1.61306e+06
-1.61305e+06
-1.61304e+06
-1.61302e+06
-1.61301e+06
-1.613e+06
-1.61299e+06
-1.61298e+06
-1.61297e+06
-1.61295e+06
-1.61294e+06
-1.61293e+06
-1.61292e+06
-1.61291e+06
-1.61289e+06
-1.61288e+06
-1.61287e+06
-1.61286e+06
-1.61285e+06
-1.61283e+06
-1.61282e+06
-1.61281e+06
-1.6128e+06
-1.61279e+06
-1.61277e+06
-1.61276e+06
-1.61275e+06
-1.61274e+06
-1.61273e+06
-1.61271e+06
-1.6127e+06
-1.61269e+06
-1.61268e+06
-1.61266e+06
-1.61265e+06
-1.61264e+06
-1.61263e+06
-1.61262e+06
-1.6126e+06
-1.61259e+06
-1.61258e+06
-1.61257e+06
-1.61255e+06
-1.61254e+06
-1.61253e+06
-1.61252e+06
-1.6125e+06
-1.61249e+06
-1.61248e+06
-1.61247e+06
-1.61246e+06
-1.61244e+06
-1.61243e+06
-1.61242e+06
-1.6124e+06
-1.61239e+06
-1.61238e+06
-1.61237e+06
-1.61235e+06
-1.61234e+06
-1.61233e+06
-1.61232e+06
-1.6123e+06
-1.61229e+06
-1.61228e+06
-1.61227e+06
-1.61225e+06
-1.61224e+06
-1.61223e+06
-1.61221e+06
-1.6122e+06
-1.61219e+06
-1.61218e+06
-1.61216e+06
-1.61215e+06
-1.61214e+06
-1.61213e+06
-1.61211e+06
-1.6121e+06
-1.61209e+06
-1.61207e+06
-1.61206e+06
-1.61205e+06
-1.61204e+06
-1.61202e+06
-1.61201e+06
-1.612e+06
-1.61198e+06
-1.61197e+06
-1.61196e+06
-1.61195e+06
-1.61193e+06
-1.61192e+06
-1.61191e+06
-1.61189e+06
-1.61188e+06
-1.61187e+06
-1.61185e+06
-1.61184e+06
-1.61183e+06
-1.61181e+06
-1.6118e+06
-1.61179e+06
-1.61178e+06
-1.61176e+06
-1.61175e+06
-1.61173e+06
-1.61172e+06
-1.61171e+06
-1.61169e+06
-1.61168e+06
-1.61167e+06
-1.61166e+06
-1.61164e+06
-1.61163e+06
-1.61162e+06
-1.6116e+06
-1.61159e+06
-1.61158e+06
-1.61156e+06
-1.61155e+06
-1.61153e+06
-1.61152e+06
-1.61151e+06
-1.61149e+06
-1.61148e+06
-1.61147e+06
-1.61145e+06
-1.61144e+06
-1.61143e+06
-1.61141e+06
-1.6114e+06
-1.61139e+06
-1.61137e+06
-1.61136e+06
-1.61135e+06
-1.61133e+06
-1.61132e+06
-1.6113e+06
-1.61129e+06
-1.61128e+06
-1.61126e+06
-1.61125e+06
-1.61124e+06
-1.61122e+06
-1.61121e+06
-1.61119e+06
-1.61118e+06
-1.61117e+06
-1.61115e+06
-1.61114e+06
-1.61113e+06
-1.61111e+06
-1.6111e+06
-1.61108e+06
-1.61107e+06
-1.61106e+06
-1.61104e+06
-1.61103e+06
-1.61101e+06
-1.611e+06
-1.61099e+06
-1.61097e+06
-1.61096e+06
-1.61094e+06
-1.61093e+06
-1.61092e+06
-1.6109e+06
-1.61089e+06
-1.61087e+06
-1.61086e+06
-1.61085e+06
-1.61083e+06
-1.61082e+06
-1.6108e+06
-1.61079e+06
-1.61078e+06
-1.61076e+06
-1.61075e+06
-1.61073e+06
-1.61072e+06
-1.6107e+06
-1.61069e+06
-1.61068e+06
-1.61066e+06
-1.61065e+06
-1.61063e+06
-1.61062e+06
-1.6106e+06
-1.61059e+06
-1.61057e+06
-1.61056e+06
-1.61055e+06
-1.61053e+06
-1.61052e+06
-1.6105e+06
-1.61049e+06
-1.61047e+06
-1.61046e+06
-1.61044e+06
-1.61043e+06
-1.61042e+06
-1.6104e+06
-1.61039e+06
-1.61037e+06
-1.61036e+06
-1.61034e+06
-1.61033e+06
-1.61031e+06
-1.6103e+06
-1.61028e+06
-1.61027e+06
-1.61025e+06
-1.61024e+06
-1.61023e+06
-1.61021e+06
-1.6102e+06
-1.61018e+06
-1.61017e+06
-1.61015e+06
-1.61014e+06
-1.61012e+06
-1.61011e+06
-1.61009e+06
-1.61008e+06
-1.61006e+06
-1.61005e+06
-1.61003e+06
-1.61002e+06
-1.61e+06
-1.60999e+06
-1.60997e+06
-1.60996e+06
-1.60994e+06
-1.60993e+06
-1.60991e+06
-1.6099e+06
-1.60988e+06
-1.60987e+06
-1.60985e+06
-1.60984e+06
-1.60982e+06
-1.60981e+06
-1.60979e+06
-1.60978e+06
-1.60976e+06
-1.60975e+06
-1.60973e+06
-1.60972e+06
-1.6097e+06
-1.60969e+06
-1.60967e+06
-1.60966e+06
-1.60964e+06
-1.60962e+06
-1.60961e+06
-1.60959e+06
-1.60958e+06
-1.60956e+06
-1.60955e+06
-1.60953e+06
-1.60952e+06
-1.6095e+06
-1.60949e+06
-1.60947e+06
-1.60945e+06
-1.60944e+06
-1.60942e+06
-1.60941e+06
-1.60939e+06
-1.60938e+06
-1.60936e+06
-1.60934e+06
-1.60933e+06
-1.60931e+06
-1.6093e+06
-1.60928e+06
-1.60927e+06
-1.60925e+06
-1.60923e+06
-1.60922e+06
-1.6092e+06
-1.60919e+06
-1.60917e+06
-1.60915e+06
-1.60914e+06
-1.60912e+06
-1.60911e+06
-1.60909e+06
-1.60907e+06
-1.60906e+06
-1.60904e+06
-1.60903e+06
-1.60901e+06
-1.60899e+06
-1.60898e+06
-1.60896e+06
-1.60895e+06
-1.60893e+06
-1.60891e+06
-1.6089e+06
-1.60888e+06
-1.60887e+06
-1.60885e+06
-1.60883e+06
-1.60882e+06
-1.6088e+06
-1.60879e+06
-1.60877e+06
-1.60875e+06
-1.60874e+06
-1.60872e+06
-1.60871e+06
-1.60869e+06
-1.60868e+06
-1.60866e+06
-1.60864e+06
-1.60863e+06
-1.60861e+06
-1.6086e+06
-1.60858e+06
-1.60856e+06
-1.60855e+06
-1.60853e+06
-1.60852e+06
-1.6085e+06
-1.60848e+06
-1.60847e+06
-1.60845e+06
-1.60844e+06
-1.60842e+06
-1.6084e+06
-1.60839e+06
-1.60837e+06
-1.60836e+06
-1.60834e+06
-1.60832e+06
-1.60831e+06
-1.60829e+06
-1.60827e+06
-1.60826e+06
-1.60824e+06
-1.60823e+06
-1.60821e+06
-1.60819e+06
-1.60818e+06
-1.60816e+06
-1.60814e+06
-1.60813e+06
-1.60811e+06
-1.6081e+06
-1.60808e+06
-1.60806e+06
-1.60805e+06
-1.60803e+06
-1.60801e+06
-1.608e+06
-1.60798e+06
-1.60796e+06
-1.60795e+06
-1.60793e+06
-1.60791e+06
-1.6079e+06
-1.60788e+06
-1.60786e+06
-1.60785e+06
-1.60783e+06
-1.60781e+06
-1.6078e+06
-1.60778e+06
-1.60776e+06
-1.60774e+06
-1.60773e+06
-1.60771e+06
-1.60769e+06
-1.60768e+06
-1.60766e+06
-1.60764e+06
-1.60762e+06
-1.60761e+06
-1.60759e+06
-1.60757e+06
-1.60756e+06
-1.60754e+06
-1.60752e+06
-1.6075e+06
-1.60749e+06
-1.60747e+06
-1.60745e+06
-1.60744e+06
-1.60742e+06
-1.6074e+06
-1.60738e+06
-1.60737e+06
-1.60735e+06
-1.60733e+06
-1.60731e+06
-1.6073e+06
-1.60728e+06
-1.60726e+06
-1.60724e+06
-1.60723e+06
-1.60721e+06
-1.60719e+06
-1.60718e+06
-1.60716e+06
-1.60714e+06
-1.60712e+06
-1.60711e+06
-1.60709e+06
-1.60707e+06
-1.60705e+06
-1.60704e+06
-1.60702e+06
-1.607e+06
-1.60698e+06
-1.60697e+06
-1.60695e+06
-1.60693e+06
-1.60691e+06
-1.60689e+06
-1.60688e+06
-1.60686e+06
-1.60684e+06
-1.60682e+06
-1.60681e+06
-1.60679e+06
-1.60677e+06
-1.60675e+06
-1.60674e+06
-1.60672e+06
-1.6067e+06
-1.60668e+06
-1.60666e+06
-1.60665e+06
-1.60663e+06
-1.60661e+06
-1.60659e+06
-1.60657e+06
-1.60656e+06
-1.60654e+06
-1.60652e+06
-1.6065e+06
-1.60649e+06
-1.60647e+06
-1.60645e+06
-1.60643e+06
-1.60641e+06
-1.6064e+06
-1.60638e+06
-1.60636e+06
-1.60634e+06
-1.60632e+06
-1.60631e+06
-1.60629e+06
-1.60627e+06
-1.60625e+06
-1.60623e+06
-1.60621e+06
-1.6062e+06
-1.60618e+06
-1.60616e+06
-1.60614e+06
-1.60612e+06
-1.60611e+06
-1.60609e+06
-1.60607e+06
-1.60605e+06
-1.60603e+06
-1.60601e+06
-1.606e+06
-1.60598e+06
-1.60596e+06
-1.60594e+06
-1.60592e+06
-1.6059e+06
-1.60589e+06
-1.60587e+06
-1.60585e+06
-1.60583e+06
-1.60581e+06
-1.60579e+06
-1.60578e+06
-1.60576e+06
-1.60574e+06
-1.60572e+06
-1.6057e+06
-1.60568e+06
-1.60566e+06
-1.60565e+06
-1.60563e+06
-1.60561e+06
-1.60559e+06
-1.60557e+06
-1.60555e+06
-1.60553e+06
-1.60552e+06
-1.6055e+06
-1.60548e+06
-1.60546e+06
-1.60544e+06
-1.60542e+06
-1.6054e+06
-1.60538e+06
-1.60537e+06
-1.60535e+06
-1.60533e+06
-1.60531e+06
-1.60529e+06
-1.60527e+06
-1.60525e+06
-1.60523e+06
-1.60521e+06
-1.6052e+06
-1.60518e+06
-1.60516e+06
-1.60514e+06
-1.60512e+06
-1.6051e+06
-1.60508e+06
-1.60506e+06
-1.60504e+06
-1.60502e+06
-1.60501e+06
-1.60499e+06
-1.60497e+06
-1.60495e+06
-1.60493e+06
-1.60491e+06
-1.60489e+06
-1.60487e+06
-1.60485e+06
-1.60483e+06
-1.60481e+06
-1.6048e+06
-1.60478e+06
-1.60476e+06
-1.60474e+06
-1.60472e+06
-1.6047e+06
-1.60468e+06
-1.60466e+06
-1.60464e+06
-1.60462e+06
-1.6046e+06
-1.60458e+06
-1.60456e+06
-1.60454e+06
-1.60452e+06
-1.60451e+06
-1.60449e+06
-1.60447e+06
-1.60445e+06
-1.60443e+06
-1.60441e+06
-1.60439e+06
-1.60437e+06
-1.60435e+06
-1.60433e+06
-1.60431e+06
-1.60429e+06
-1.60427e+06
-1.60425e+06
-1.60423e+06
-1.60421e+06
-1.60419e+06
-1.60417e+06
-1.60415e+06
-1.60413e+06
-1.60411e+06
-1.60409e+06
-1.60407e+06
-1.60405e+06
-1.60403e+06
-1.60402e+06
-1.604e+06
-1.60398e+06
-1.60396e+06
-1.60394e+06
-1.60392e+06
-1.6039e+06
-1.60388e+06
-1.60386e+06
-1.60384e+06
-1.60382e+06
-1.6038e+06
-1.60378e+06
-1.60376e+06
-1.60374e+06
-1.60372e+06
-1.6037e+06
-1.60368e+06
-1.60366e+06
-1.60364e+06
-1.60362e+06
-1.6036e+06
-1.60358e+06
-1.60356e+06
-1.60354e+06
-1.60352e+06
-1.6035e+06
-1.60348e+06
-1.60346e+06
-1.60344e+06
-1.60342e+06
-1.6034e+06
-1.60338e+06
-1.60335e+06
-1.60333e+06
-1.60331e+06
-1.60329e+06
-1.60327e+06
-1.60325e+06
-1.60323e+06
-1.60321e+06
-1.60319e+06
-1.60317e+06
-1.60315e+06
-1.60313e+06
-1.60311e+06
-1.60309e+06
-1.60307e+06
-1.60305e+06
-1.60303e+06
-1.60301e+06
-1.60299e+06
-1.60297e+06
-1.60295e+06
-1.60293e+06
-1.60291e+06
-1.60289e+06
-1.60286e+06
-1.60284e+06
-1.60282e+06
-1.6028e+06
-1.60278e+06
-1.60276e+06
-1.60274e+06
-1.60272e+06
-1.6027e+06
-1.60268e+06
-1.60266e+06
-1.60264e+06
-1.60262e+06
-1.6026e+06
-1.60258e+06
-1.60255e+06
-1.60253e+06
-1.60251e+06
-1.60249e+06
-1.60247e+06
-1.60245e+06
-1.60243e+06
-1.60241e+06
-1.60239e+06
-1.60237e+06
-1.60235e+06
-1.60233e+06
-1.6023e+06
-1.60228e+06
-1.60226e+06
-1.60224e+06
-1.60222e+06
-1.6022e+06
-1.60218e+06
-1.60216e+06
-1.60214e+06
-1.60211e+06
-1.60209e+06
-1.60207e+06
-1.60205e+06
-1.60203e+06
-1.60201e+06
-1.60199e+06
-1.60197e+06
-1.60195e+06
-1.60192e+06
-1.6019e+06
-1.60188e+06
-1.60186e+06
-1.60184e+06
-1.60182e+06
-1.6018e+06
-1.60178e+06
-1.60175e+06
-1.60173e+06
-1.60171e+06
-1.60169e+06
-1.60167e+06
-1.60165e+06
-1.60163e+06
-1.6016e+06
-1.60158e+06
-1.60156e+06
-1.60154e+06
-1.60152e+06
-1.6015e+06
-1.60148e+06
-1.60145e+06
-1.60143e+06
-1.60141e+06
-1.60139e+06
-1.60137e+06
-1.60135e+06
-1.60132e+06
-1.6013e+06
-1.60128e+06
-1.60126e+06
-1.60124e+06
-1.60122e+06
-1.60119e+06
-1.60117e+06
-1.60115e+06
-1.60113e+06
-1.60111e+06
-1.60109e+06
-1.60106e+06
-1.60104e+06
-1.60102e+06
-1.601e+06
-1.60098e+06
-1.60095e+06
-1.60093e+06
-1.60091e+06
-1.60089e+06
-1.60087e+06
-1.60085e+06
-1.60082e+06
-1.6008e+06
-1.60078e+06
-1.60076e+06
-1.60074e+06
-1.60071e+06
-1.60069e+06
-1.60067e+06
-1.60065e+06
-1.60063e+06
-1.6006e+06
-1.60058e+06
-1.60056e+06
-1.60054e+06
-1.60051e+06
-1.60049e+06
-1.60047e+06
-1.60045e+06
-1.60043e+06
-1.6004e+06
-1.60038e+06
-1.60036e+06
-1.60034e+06
-1.60031e+06
-1.60029e+06
-1.60027e+06
-1.60025e+06
-1.60023e+06
-1.6002e+06
-1.60018e+06
-1.60016e+06
-1.60014e+06
-1.60011e+06
-1.60009e+06
-1.60007e+06
-1.60005e+06
-1.60002e+06
-1.6e+06
-1.59998e+06
-1.59996e+06
-1.59993e+06
-1.59991e+06
-1.59989e+06
-1.59987e+06
-1.59984e+06
-1.59982e+06
-1.5998e+06
-1.59978e+06
-1.59975e+06
-1.59973e+06
-1.59971e+06
-1.59969e+06
-1.59966e+06
-1.59964e+06
-1.59962e+06
-1.59959e+06
-1.59957e+06
-1.59955e+06
-1.59953e+06
-1.5995e+06
-1.59948e+06
-1.59946e+06
-1.59944e+06
-1.59941e+06
-1.59939e+06
-1.59937e+06
-1.59934e+06
-1.59932e+06
-1.5993e+06
-1.59927e+06
-1.59925e+06
-1.59923e+06
-1.59921e+06
-1.59918e+06
-1.59916e+06
-1.59914e+06
-1.59911e+06
-1.59909e+06
-1.59907e+06
-1.59905e+06
-1.59902e+06
-1.599e+06
-1.59898e+06
-1.59895e+06
-1.59893e+06
-1.59891e+06
-1.59888e+06
-1.59886e+06
-1.59884e+06
-1.59881e+06
-1.59879e+06
-1.59877e+06
-1.59874e+06
-1.59872e+06
-1.5987e+06
-1.59867e+06
-1.59865e+06
-1.59863e+06
-1.5986e+06
-1.59858e+06
-1.59856e+06
-1.59853e+06
-1.59851e+06
-1.59849e+06
-1.59846e+06
-1.59844e+06
-1.59842e+06
-1.59839e+06
-1.59837e+06
-1.59835e+06
-1.59832e+06
-1.5983e+06
-1.59828e+06
-1.59825e+06
-1.59823e+06
-1.59821e+06
-1.59818e+06
-1.59816e+06
-1.59813e+06
-1.59811e+06
-1.59809e+06
-1.59806e+06
-1.59804e+06
-1.59802e+06
-1.59799e+06
-1.59797e+06
-1.59794e+06
-1.59792e+06
-1.5979e+06
-1.59787e+06
-1.59785e+06
-1.59783e+06
-1.5978e+06
-1.59778e+06
-1.59775e+06
-1.59773e+06
-1.59771e+06
-1.59768e+06
-1.59766e+06
-1.59763e+06
-1.59761e+06
-1.59759e+06
-1.59756e+06
-1.59754e+06
-1.59752e+06
-1.59749e+06
-1.59747e+06
-1.59744e+06
-1.59742e+06
-1.59739e+06
-1.59737e+06
-1.59735e+06
-1.59732e+06
-1.5973e+06
-1.59727e+06
-1.59725e+06
-1.59723e+06
-1.5972e+06
-1.59718e+06
-1.59715e+06
-1.59713e+06
-1.5971e+06
-1.59708e+06
-1.59706e+06
-1.59703e+06
-1.59701e+06
-1.59698e+06
-1.59696e+06
-1.59693e+06
-1.59691e+06
-1.59689e+06
-1.59686e+06
-1.59684e+06
-1.59681e+06
-1.59679e+06
-1.59676e+06
-1.59674e+06
-1.59672e+06
-1.59669e+06
-1.59667e+06
-1.59664e+06
-1.59662e+06
-1.59659e+06
-1.59657e+06
-1.59654e+06
-1.59652e+06
-1.59649e+06
-1.59647e+06
-1.59644e+06
-1.59642e+06
-1.5964e+06
-1.59637e+06
-1.59635e+06
-1.59632e+06
-1.5963e+06
-1.59627e+06
-1.59625e+06
-1.59622e+06
-1.5962e+06
-1.59617e+06
-1.59615e+06
-1.59612e+06
-1.5961e+06
-1.59607e+06
-1.59605e+06
-1.59602e+06
-1.596e+06
-1.59597e+06
-1.59595e+06
-1.59592e+06
-1.5959e+06
-1.59587e+06
-1.59585e+06
-1.59582e+06
-1.5958e+06
-1.59577e+06
-1.59575e+06
-1.59572e+06
-1.5957e+06
-1.59567e+06
-1.59565e+06
-1.59562e+06
-1.5956e+06
-1.59557e+06
-1.59555e+06
-1.59552e+06
-1.5955e+06
-1.59547e+06
-1.59545e+06
-1.59542e+06
-1.5954e+06
-1.59537e+06
-1.59535e+06
-1.59532e+06
-1.5953e+06
-1.59527e+06
-1.59525e+06
-1.59522e+06
-1.5952e+06
-1.59517e+06
-1.59514e+06
-1.59512e+06
-1.59509e+06
-1.59507e+06
-1.59504e+06
-1.59502e+06
-1.59499e+06
-1.59497e+06
-1.59494e+06
-1.59492e+06
-1.59489e+06
-1.59486e+06
-1.59484e+06
-1.59481e+06
-1.59479e+06
-1.59476e+06
-1.59474e+06
-1.59471e+06
-1.59469e+06
-1.59466e+06
-1.59463e+06
-1.59461e+06
-1.59458e+06
-1.59456e+06
-1.59453e+06
-1.59451e+06
-1.59448e+06
-1.59445e+06
-1.59443e+06
-1.5944e+06
-1.59438e+06
-1.59435e+06
-1.59433e+06
-1.5943e+06
-1.59427e+06
-1.59425e+06
-1.59422e+06
-1.5942e+06
-1.59417e+06
-1.59414e+06
-1.59412e+06
-1.59409e+06
-1.59407e+06
-1.59404e+06
-1.59401e+06
-1.59399e+06
-1.59396e+06
-1.59394e+06
-1.59391e+06
-1.59388e+06
-1.59386e+06
-1.59383e+06
-1.59381e+06
-1.59378e+06
-1.59376e+06
-1.59373e+06
-1.5937e+06
-1.59367e+06
-1.59365e+06
-1.59362e+06
-1.5936e+06
-1.59357e+06
-1.59354e+06
-1.59352e+06
-1.59349e+06
-1.59346e+06
-1.59344e+06
-1.59341e+06
-1.59339e+06
-1.59336e+06
-1.59333e+06
-1.59331e+06
-1.59328e+06
-1.59325e+06
-1.59323e+06
-1.5932e+06
-1.59318e+06
-1.59315e+06
-1.59312e+06
-1.5931e+06
-1.59307e+06
-1.59304e+06
-1.59302e+06
-1.59299e+06
-1.59296e+06
-1.59294e+06
-1.59291e+06
-1.59288e+06
-1.59286e+06
-1.59283e+06
-1.59281e+06
-1.59278e+06
-1.59275e+06
-1.59272e+06
-1.59269e+06
-1.59267e+06
-1.59264e+06
-1.59261e+06
-1.59259e+06
-1.59256e+06
-1.59253e+06
-1.59251e+06
-1.59248e+06
-1.59246e+06
-1.59243e+06
-1.5924e+06
-1.59238e+06
-1.59235e+06
-1.59232e+06
-1.59229e+06
-1.59227e+06
-1.59224e+06
-1.59221e+06
-1.59219e+06
-1.59215e+06
-1.59214e+06
-1.59211e+06
-1.59208e+06
-1.59205e+06
-1.59202e+06
-1.592e+06
-1.59197e+06
-1.59194e+06
-1.59192e+06
-1.59189e+06
-1.59187e+06
-1.59183e+06
-1.59181e+06
-1.59179e+06
-1.59175e+06
-1.59172e+06
-1.5917e+06
-1.59167e+06
-1.59165e+06
-1.59162e+06
-1.59159e+06
-1.59157e+06
-1.59154e+06
-1.59149e+06
-1.59148e+06
-1.59146e+06
-1.59143e+06
-1.5914e+06
-1.59137e+06
-1.59135e+06
-1.59132e+06
-1.59129e+06
-1.59126e+06
-1.59123e+06
-1.59121e+06
-1.59118e+06
-1.59115e+06
-1.59112e+06
-1.5911e+06
-1.59107e+06
-1.59104e+06
-1.59101e+06
-1.59099e+06
-1.59096e+06
-1.59093e+06
-1.5909e+06
-1.59088e+06
-1.59085e+06
-1.59082e+06
-1.59079e+06
-1.59076e+06
-1.59074e+06
-1.59071e+06
-1.59068e+06
-1.59066e+06
-1.59062e+06
-1.5906e+06
-1.59057e+06
-1.59054e+06
-1.59051e+06
-1.59049e+06
-1.59046e+06
-1.59043e+06
-1.5904e+06
-1.59037e+06
-1.59035e+06
-1.59032e+06
-1.5903e+06
-1.59026e+06
-1.59023e+06
-1.59021e+06
-1.59018e+06
-1.59015e+06
-1.59012e+06
-1.5901e+06
-1.59007e+06
-1.59004e+06
-1.59001e+06
-1.58999e+06
-1.58995e+06
-1.58993e+06
-1.5899e+06
-1.58987e+06
-1.58984e+06
-1.58981e+06
-1.58978e+06
-1.58976e+06
-1.58973e+06
-1.5897e+06
-1.58967e+06
-1.58964e+06
-1.58962e+06
-1.58959e+06
-1.58956e+06
-1.58953e+06
-1.5895e+06
-1.58947e+06
-1.58945e+06
-1.58942e+06
-1.58939e+06
-1.58936e+06
-1.58933e+06
-1.5893e+06
-1.58928e+06
-1.58925e+06
-1.58922e+06
-1.58919e+06
-1.58916e+06
-1.58913e+06
-1.5891e+06
-1.58908e+06
-1.58905e+06
-1.58902e+06
-1.58899e+06
-1.58896e+06
-1.58893e+06
-1.5889e+06
-1.58888e+06
-1.58885e+06
-1.58882e+06
-1.58879e+06
-1.58876e+06
-1.58873e+06
-1.58871e+06
-1.58866e+06
-1.58866e+06
-1.5886e+06
-1.5886e+06
-1.58856e+06
-1.58853e+06
-1.5885e+06
-1.58847e+06
-1.58844e+06
-1.58841e+06
-1.58839e+06
-1.58836e+06
-1.58833e+06
-1.5883e+06
-1.58827e+06
-1.58824e+06
-1.58821e+06
-1.58818e+06
-1.58815e+06
-1.58813e+06
-1.5881e+06
-1.58807e+06
-1.58804e+06
-1.58801e+06
-1.58798e+06
-1.58795e+06
-1.58792e+06
-1.58789e+06
-1.58786e+06
-1.58783e+06
-1.5878e+06
-1.58778e+06
-1.58775e+06
-1.58772e+06
-1.58769e+06
-1.58766e+06
-1.58763e+06
-1.5876e+06
-1.58757e+06
-1.58754e+06
-1.58751e+06
-1.58748e+06
-1.58745e+06
-1.58742e+06
-1.58739e+06
-1.58736e+06
-1.58734e+06
-1.58731e+06
-1.58728e+06
-1.58725e+06
-1.58722e+06
-1.58719e+06
-1.58716e+06
-1.58713e+06
-1.5871e+06
-1.58707e+06
-1.58704e+06
-1.58701e+06
-1.58698e+06
-1.58695e+06
-1.58692e+06
-1.58689e+06
-1.58686e+06
-1.58683e+06
-1.5868e+06
-1.58677e+06
-1.58674e+06
-1.58671e+06
-1.58668e+06
-1.58665e+06
-1.58662e+06
-1.5866e+06
-1.58657e+06
-1.58654e+06
-1.58651e+06
-1.58648e+06
-1.58645e+06
-1.58642e+06
-1.58639e+06
-1.58636e+06
-1.58633e+06
-1.5863e+06
-1.58627e+06
-1.58624e+06
-1.58621e+06
-1.58618e+06
-1.58615e+06
-1.58612e+06
-1.58609e+06
-1.58606e+06
-1.58603e+06
-1.586e+06
-1.58597e+06
-1.58594e+06
-1.58591e+06
-1.58588e+06
-1.58585e+06
-1.58582e+06
-1.58579e+06
-1.58576e+06
-1.58573e+06
-1.58569e+06
-1.58567e+06
-1.58563e+06
-1.5856e+06
-1.58557e+06
-1.58554e+06
-1.58551e+06
-1.58548e+06
-1.58545e+06
-1.58542e+06
-1.58539e+06
-1.58536e+06
-1.58533e+06
-1.5853e+06
-1.58527e+06
-1.58524e+06
-1.58521e+06
-1.58518e+06
-1.58515e+06
-1.58512e+06
-1.58509e+06
-1.58506e+06
-1.58503e+06
-1.585e+06
-1.58497e+06
-1.58494e+06
-1.5849e+06
-1.58487e+06
-1.58484e+06
-1.58481e+06
-1.58478e+06
-1.58475e+06
-1.58472e+06
-1.58469e+06
-1.58466e+06
-1.58463e+06
-1.5846e+06
-1.58457e+06
-1.58454e+06
-1.58451e+06
-1.58447e+06
-1.58444e+06
-1.58441e+06
-1.58438e+06
-1.58435e+06
-1.58432e+06
-1.58429e+06
-1.58426e+06
-1.58423e+06
-1.5842e+06
-1.58417e+06
-1.58414e+06
-1.5841e+06
-1.58407e+06
-1.58404e+06
-1.58401e+06
-1.58398e+06
-1.58395e+06
-1.58392e+06
-1.58389e+06
-1.58386e+06
-1.58383e+06
-1.58379e+06
-1.58376e+06
-1.58373e+06
-1.5837e+06
-1.58367e+06
-1.58364e+06
-1.58361e+06
-1.58358e+06
-1.58354e+06
-1.58351e+06
-1.58348e+06
-1.58345e+06
-1.58342e+06
-1.58339e+06
-1.58336e+06
-1.58333e+06
-1.58329e+06
-1.58326e+06
-1.58323e+06
-1.5832e+06
-1.58317e+06
-1.58314e+06
-1.58311e+06
-1.58307e+06
-1.58304e+06
-1.58301e+06
-1.58298e+06
-1.58295e+06
-1.58292e+06
-1.58289e+06
-1.58285e+06
-1.58282e+06
-1.58279e+06
-1.58276e+06
-1.58273e+06
-1.5827e+06
-1.58267e+06
-1.58263e+06
-1.5826e+06
-1.58257e+06
-1.58254e+06
-1.58251e+06
-1.58248e+06
-1.58244e+06
-1.58241e+06
-1.58238e+06
-1.58235e+06
-1.58232e+06
-1.58229e+06
-1.58225e+06
-1.58222e+06
-1.58219e+06
-1.58216e+06
-1.58213e+06
-1.58209e+06
-1.58206e+06
-1.58203e+06
-1.582e+06
-1.58197e+06
-1.58193e+06
-1.5819e+06
-1.58187e+06
-1.58184e+06
-1.58181e+06
-1.58177e+06
-1.58174e+06
-1.58171e+06
-1.58168e+06
-1.58165e+06
-1.58161e+06
-1.58158e+06
-1.58155e+06
-1.58152e+06
-1.58149e+06
-1.58145e+06
-1.58142e+06
-1.58139e+06
-1.58136e+06
-1.58132e+06
-1.58129e+06
-1.58126e+06
-1.58123e+06
-1.5812e+06
-1.58116e+06
-1.58113e+06
-1.5811e+06
-1.58107e+06
-1.58103e+06
-1.581e+06
-1.58097e+06
-1.58094e+06
-1.58091e+06
-1.58087e+06
-1.58084e+06
-1.58081e+06
-1.58078e+06
-1.58074e+06
-1.58071e+06
-1.58068e+06
-1.58065e+06
-1.58061e+06
-1.58058e+06
-1.58055e+06
-1.58052e+06
-1.58048e+06
-1.58045e+06
-1.58042e+06
-1.58038e+06
-1.58035e+06
-1.58032e+06
-1.58029e+06
-1.58025e+06
-1.58022e+06
-1.58019e+06
-1.58016e+06
-1.58012e+06
-1.58009e+06
-1.58006e+06
-1.58002e+06
-1.57999e+06
-1.57996e+06
-1.57993e+06
-1.57989e+06
-1.57986e+06
-1.57983e+06
-1.5798e+06
-1.57976e+06
-1.57973e+06
-1.5797e+06
-1.57966e+06
-1.57963e+06
-1.5796e+06
-1.57956e+06
-1.57953e+06
-1.5795e+06
-1.57947e+06
-1.57943e+06
-1.5794e+06
-1.57937e+06
-1.57933e+06
-1.5793e+06
-1.57927e+06
-1.57923e+06
-1.5792e+06
-1.57917e+06
-1.57913e+06
-1.5791e+06
-1.57907e+06
-1.57904e+06
-1.579e+06
-1.57897e+06
-1.57894e+06
-1.5789e+06
-1.57887e+06
-1.57884e+06
-1.5788e+06
-1.57877e+06
-1.57874e+06
-1.5787e+06
-1.57867e+06
-1.57864e+06
-1.5786e+06
-1.57857e+06
-1.57854e+06
-1.5785e+06
-1.57847e+06
-1.57844e+06
-1.5784e+06
-1.57837e+06
-1.57833e+06
-1.5783e+06
-1.57827e+06
-1.57823e+06
-1.5782e+06
-1.57817e+06
-1.57813e+06
-1.5781e+06
-1.57807e+06
-1.57803e+06
-1.578e+06
-1.57797e+06
-1.57793e+06
-1.5779e+06
-1.57786e+06
-1.57783e+06
-1.5778e+06
-1.57776e+06
-1.57773e+06
-1.5777e+06
-1.57766e+06
-1.57763e+06
-1.57759e+06
-1.57756e+06
-1.57753e+06
-1.57749e+06
-1.57746e+06
-1.57742e+06
-1.57739e+06
-1.57736e+06
-1.57732e+06
-1.57729e+06
-1.57725e+06
-1.57722e+06
-1.57719e+06
-1.57715e+06
-1.57712e+06
-1.57708e+06
-1.57705e+06
-1.57702e+06
-1.57698e+06
-1.57695e+06
-1.57691e+06
-1.57688e+06
-1.57685e+06
-1.57681e+06
-1.57678e+06
-1.57674e+06
-1.57671e+06
-1.57668e+06
-1.57664e+06
-1.57661e+06
-1.57657e+06
-1.57654e+06
-1.5765e+06
-1.57647e+06
-1.57644e+06
-1.5764e+06
-1.57637e+06
-1.57633e+06
-1.5763e+06
-1.57626e+06
-1.57623e+06
-1.57619e+06
-1.57616e+06
-1.57613e+06
-1.57609e+06
-1.57606e+06
-1.57602e+06
-1.57599e+06
-1.57595e+06
-1.57592e+06
-1.57588e+06
-1.57585e+06
-1.57581e+06
-1.57578e+06
-1.57575e+06
-1.57571e+06
-1.57568e+06
-1.57564e+06
-1.57561e+06
-1.57557e+06
-1.57554e+06
-1.5755e+06
-1.57547e+06
-1.57543e+06
-1.5754e+06
-1.57536e+06
-1.57533e+06
-1.57529e+06
-1.57526e+06
-1.57522e+06
-1.57519e+06
-1.57515e+06
-1.57512e+06
-1.57508e+06
-1.57505e+06
-1.57501e+06
-1.57498e+06
-1.57494e+06
-1.57491e+06
-1.57487e+06
-1.57484e+06
-1.5748e+06
-1.57477e+06
-1.57473e+06
-1.5747e+06
-1.57466e+06
-1.57463e+06
-1.57459e+06
-1.57456e+06
-1.57452e+06
-1.57449e+06
-1.57445e+06
-1.57442e+06
-1.57438e+06
-1.57435e+06
-1.57431e+06
-1.57428e+06
-1.57424e+06
-1.57421e+06
-1.57417e+06
-1.57413e+06
-1.5741e+06
-1.57406e+06
-1.57403e+06
-1.57399e+06
-1.57396e+06
-1.57392e+06
-1.57389e+06
-1.57385e+06
-1.57382e+06
-1.57378e+06
-1.57374e+06
-1.57371e+06
-1.57367e+06
-1.57364e+06
-1.5736e+06
-1.57357e+06
-1.57353e+06
-1.5735e+06
-1.57346e+06
-1.57342e+06
-1.57339e+06
-1.57335e+06
-1.57332e+06
-1.57328e+06
-1.57325e+06
-1.57321e+06
-1.57317e+06
-1.57314e+06
-1.5731e+06
-1.57307e+06
-1.57303e+06
-1.573e+06
-1.57296e+06
-1.57292e+06
-1.57289e+06
-1.57285e+06
-1.57282e+06
-1.57278e+06
-1.57274e+06
-1.57271e+06
-1.57267e+06
-1.57264e+06
-1.5726e+06
-1.57256e+06
-1.57253e+06
-1.57249e+06
-1.57246e+06
-1.57242e+06
-1.57238e+06
-1.57235e+06
-1.57231e+06
-1.57227e+06
-1.57224e+06
-1.5722e+06
-1.57217e+06
-1.57213e+06
-1.57209e+06
-1.57206e+06
-1.57202e+06
-1.57198e+06
-1.57195e+06
-1.57191e+06
-1.57188e+06
-1.57184e+06
-1.5718e+06
-1.57177e+06
-1.57173e+06
-1.57169e+06
-1.57166e+06
-1.57162e+06
-1.57158e+06
-1.57155e+06
-1.57151e+06
-1.57147e+06
-1.57144e+06
-1.5714e+06
-1.57136e+06
-1.57133e+06
-1.57129e+06
-1.57126e+06
-1.57122e+06
-1.57118e+06
-1.57115e+06
-1.57111e+06
-1.57107e+06
-1.57104e+06
-1.571e+06
-1.57096e+06
-1.57092e+06
-1.57089e+06
-1.57085e+06
-1.57081e+06
-1.57078e+06
-1.57074e+06
-1.5707e+06
-1.57067e+06
-1.57063e+06
-1.57059e+06
-1.57056e+06
-1.57052e+06
-1.57048e+06
-1.57045e+06
-1.57041e+06
-1.57037e+06
-1.57033e+06
-1.5703e+06
-1.57026e+06
-1.57022e+06
-1.57019e+06
-1.57015e+06
-1.57011e+06
-1.57008e+06
-1.57004e+06
-1.57e+06
-1.56996e+06
-1.56993e+06
-1.56989e+06
-1.56985e+06
-1.56981e+06
-1.56978e+06
-1.56974e+06
-1.5697e+06
-1.56967e+06
-1.56963e+06
-1.56959e+06
-1.56955e+06
-1.56952e+06
-1.56948e+06
-1.56944e+06
-1.5694e+06
-1.56937e+06
-1.56933e+06
-1.56929e+06
-1.56925e+06
-1.56922e+06
-1.56918e+06
-1.56914e+06
-1.5691e+06
-1.56907e+06
-1.56903e+06
-1.56899e+06
-1.56895e+06
-1.56892e+06
-1.56888e+06
-1.56884e+06
-1.5688e+06
-1.56877e+06
-1.56873e+06
-1.56869e+06
-1.56865e+06
-1.56861e+06
-1.56858e+06
-1.56854e+06
-1.5685e+06
-1.56846e+06
-1.56843e+06
-1.56839e+06
-1.56835e+06
-1.56831e+06
-1.56827e+06
-1.56824e+06
-1.5682e+06
-1.56816e+06
-1.56812e+06
-1.56808e+06
-1.56805e+06
-1.56801e+06
-1.56797e+06
-1.56793e+06
-1.56789e+06
-1.56786e+06
-1.56782e+06
-1.56778e+06
-1.56774e+06
-1.5677e+06
-1.56767e+06
-1.56763e+06
-1.56759e+06
-1.56755e+06
-1.56751e+06
-1.56748e+06
-1.56744e+06
-1.5674e+06
-1.56736e+06
-1.56732e+06
-1.56728e+06
-1.56725e+06
-1.56721e+06
-1.56717e+06
-1.56713e+06
-1.56709e+06
-1.56705e+06
-1.56702e+06
-1.56698e+06
-1.56694e+06
-1.5669e+06
-1.56686e+06
-1.56682e+06
-1.56678e+06
-1.56675e+06
-1.56671e+06
-1.56667e+06
-1.56663e+06
-1.56659e+06
-1.56655e+06
-1.56651e+06
-1.56648e+06
-1.56644e+06
-1.5664e+06
-1.56636e+06
-1.56632e+06
-1.56628e+06
-1.56624e+06
-1.56621e+06
-1.56617e+06
-1.56613e+06
-1.56609e+06
-1.56605e+06
-1.56601e+06
-1.56597e+06
-1.56593e+06
-1.56589e+06
-1.56586e+06
-1.56582e+06
-1.56578e+06
-1.56574e+06
-1.5657e+06
-1.56566e+06
-1.56562e+06
-1.56558e+06
-1.56554e+06
-1.56551e+06
-1.56547e+06
-1.56543e+06
-1.56539e+06
-1.56535e+06
-1.56531e+06
-1.56527e+06
-1.56523e+06
-1.56519e+06
-1.56515e+06
-1.56511e+06
-1.56507e+06
-1.56504e+06
-1.565e+06
-1.56496e+06
-1.56492e+06
-1.56488e+06
-1.56484e+06
-1.5648e+06
-1.56476e+06
-1.56472e+06
-1.56468e+06
-1.56464e+06
-1.5646e+06
-1.56456e+06
-1.56452e+06
-1.56448e+06
-1.56445e+06
-1.56441e+06
-1.56437e+06
-1.56433e+06
-1.56429e+06
-1.56425e+06
-1.56421e+06
-1.56417e+06
-1.56413e+06
-1.56409e+06
-1.56405e+06
-1.56401e+06
-1.56397e+06
-1.56393e+06
-1.56389e+06
-1.56385e+06
-1.56381e+06
-1.56377e+06
-1.56373e+06
-1.56369e+06
-1.56365e+06
-1.56361e+06
-1.56357e+06
-1.56353e+06
-1.56349e+06
-1.56345e+06
-1.56341e+06
-1.56337e+06
-1.56333e+06
-1.56329e+06
-1.56325e+06
-1.56321e+06
-1.56317e+06
-1.56313e+06
-1.56309e+06
-1.56305e+06
-1.56301e+06
-1.56297e+06
-1.56293e+06
-1.56289e+06
-1.56285e+06
-1.56281e+06
-1.56277e+06
-1.56273e+06
-1.56269e+06
-1.56265e+06
-1.56261e+06
-1.56257e+06
-1.56253e+06
-1.56249e+06
-1.56245e+06
-1.56241e+06
-1.56237e+06
-1.56233e+06
-1.56229e+06
-1.56225e+06
-1.56221e+06
-1.56217e+06
-1.56213e+06
-1.56209e+06
-1.56205e+06
-1.56201e+06
-1.56197e+06
-1.56193e+06
-1.56189e+06
-1.56185e+06
-1.56181e+06
-1.56176e+06
-1.56172e+06
-1.56168e+06
-1.56164e+06
-1.5616e+06
-1.56156e+06
-1.56152e+06
-1.56148e+06
-1.56144e+06
-1.5614e+06
-1.56136e+06
-1.56132e+06
-1.56128e+06
-1.56124e+06
-1.5612e+06
-1.56115e+06
-1.56111e+06
-1.56107e+06
-1.56103e+06
-1.56099e+06
-1.56095e+06
-1.56091e+06
-1.56087e+06
-1.56083e+06
-1.56079e+06
-1.56075e+06
-1.56071e+06
-1.56066e+06
-1.56062e+06
-1.56058e+06
-1.56054e+06
-1.5605e+06
-1.56046e+06
-1.56042e+06
-1.56038e+06
-1.56034e+06
-1.56029e+06
-1.56025e+06
-1.56021e+06
-1.56017e+06
-1.56013e+06
-1.56009e+06
-1.56005e+06
-1.56001e+06
-1.55996e+06
-1.55992e+06
-1.55988e+06
-1.55984e+06
-1.5598e+06
-1.55976e+06
-1.55972e+06
-1.55968e+06
-1.55963e+06
-1.55959e+06
-1.55955e+06
-1.55951e+06
-1.55947e+06
-1.55943e+06
-1.55939e+06
-1.55934e+06
-1.5593e+06
-1.55926e+06
-1.55922e+06
-1.55918e+06
-1.55914e+06
-1.55909e+06
-1.55905e+06
-1.55901e+06
-1.55897e+06
-1.55893e+06
-1.55889e+06
-1.55884e+06
-1.5588e+06
-1.55876e+06
-1.55872e+06
-1.55868e+06
-1.55864e+06
-1.55859e+06
-1.55855e+06
-1.55851e+06
-1.55847e+06
-1.55843e+06
-1.55839e+06
-1.55834e+06
-1.5583e+06
-1.55826e+06
-1.55822e+06
-1.55818e+06
-1.55813e+06
-1.55809e+06
-1.55805e+06
-1.55801e+06
-1.55797e+06
-1.55792e+06
-1.55788e+06
-1.55784e+06
-1.5578e+06
-1.55776e+06
-1.55771e+06
-1.55767e+06
-1.55763e+06
-1.55759e+06
-1.55754e+06
-1.5575e+06
-1.55746e+06
-1.55742e+06
-1.55738e+06
-1.55733e+06
-1.55729e+06
-1.55725e+06
-1.55721e+06
-1.55716e+06
-1.55712e+06
-1.55708e+06
-1.55704e+06
-1.55699e+06
-1.55695e+06
-1.55691e+06
-1.55687e+06
-1.55682e+06
-1.55678e+06
-1.55674e+06
-1.5567e+06
-1.55665e+06
-1.55661e+06
-1.55657e+06
-1.55653e+06
-1.55648e+06
-1.55644e+06
-1.5564e+06
-1.55636e+06
-1.55631e+06
-1.55627e+06
-1.55623e+06
-1.55619e+06
-1.55614e+06
-1.5561e+06
-1.55606e+06
-1.55601e+06
-1.55597e+06
-1.55593e+06
-1.55589e+06
-1.55584e+06
-1.5558e+06
-1.55576e+06
-1.55571e+06
-1.55567e+06
-1.55563e+06
-1.55559e+06
-1.55554e+06
-1.5555e+06
-1.55546e+06
-1.55541e+06
-1.55537e+06
-1.55533e+06
-1.55528e+06
-1.55524e+06
-1.5552e+06
-1.55516e+06
-1.55511e+06
-1.55507e+06
-1.55503e+06
-1.55498e+06
-1.55494e+06
-1.5549e+06
-1.55485e+06
-1.55481e+06
-1.55477e+06
-1.55472e+06
-1.55468e+06
-1.55464e+06
-1.55459e+06
-1.55455e+06
-1.55451e+06
-1.55446e+06
-1.55442e+06
-1.55438e+06
-1.55433e+06
-1.55429e+06
-1.55425e+06
-1.5542e+06
-1.55416e+06
-1.55412e+06
-1.55407e+06
-1.55403e+06
-1.55398e+06
-1.55394e+06
-1.5539e+06
-1.55385e+06
-1.55381e+06
-1.55377e+06
-1.55372e+06
-1.55368e+06
-1.55364e+06
-1.55359e+06
-1.55355e+06
-1.5535e+06
-1.55346e+06
-1.55342e+06
-1.55337e+06
-1.55333e+06
-1.55329e+06
-1.55324e+06
-1.5532e+06
-1.55315e+06
-1.55311e+06
-1.55307e+06
-1.55302e+06
-1.55298e+06
-1.55293e+06
-1.55289e+06
-1.55285e+06
-1.5528e+06
-1.55276e+06
-1.55271e+06
-1.55267e+06
-1.55263e+06
-1.55258e+06
-1.55254e+06
-1.55249e+06
-1.55245e+06
-1.55241e+06
-1.55236e+06
-1.55232e+06
-1.55227e+06
-1.55223e+06
-1.55218e+06
-1.55214e+06
-1.5521e+06
-1.55205e+06
-1.55201e+06
-1.55196e+06
-1.55192e+06
-1.55187e+06
-1.55183e+06
-1.55179e+06
-1.55174e+06
-1.5517e+06
-1.55165e+06
-1.55161e+06
-1.55156e+06
-1.55152e+06
-1.55147e+06
-1.55143e+06
-1.55139e+06
-1.55134e+06
-1.5513e+06
-1.55125e+06
-1.55121e+06
-1.55116e+06
-1.55112e+06
-1.55107e+06
-1.55103e+06
-1.55098e+06
-1.55094e+06
-1.55089e+06
-1.55085e+06
-1.55081e+06
-1.55076e+06
-1.55072e+06
-1.55067e+06
-1.55063e+06
-1.55058e+06