/*--------------------------------*- C++ -*----------------------------------*\
  =========                 |
  \\      /  F ield         | OpenFOAM: The Open Source CFD Toolbox
   \\    /   O peration     | Website:  https://openfoam.org
    \\  /    A nd           | Version:  9
     \\/     M anipulation  |
\*---------------------------------------------------------------------------*/
FoamFile
{
    format      ascii;
    class       surfaceScalarField;
    location    "0.027";
    object      ddtCorrDdt0(phi);
}
// * * * * * * * * * * * * * * * * * * * * * * * * * * * * * * * * * * * * * //

dimensions      [1 0 -2 0 0 0 0];

internalField   nonuniform List<scalar> 
9999
(
55.3225
48.6639
42.006
35.3407
28.6745
22.0188
15.3699
8.71262
2.04159
-4.62975
-11.2838
-17.9202
-24.5607
-31.2261
-37.9104
-44.5878
-51.2381
-57.8615
-64.4813
-71.1268
-77.808
-84.5108
-91.208
-97.8716
-104.491
-111.08
-117.671
-124.299
-130.981
-137.701
-144.43
-151.144
-157.827
-164.465
-171.049
-177.605
-184.158
-190.719
-197.314
-203.96
-210.653
-217.39
-224.172
-230.975
-237.799
-244.628
-251.446
-258.255
-265.038
-271.802
-278.538
-285.252
-291.942
-298.614
-305.286
-311.97
-318.699
-325.452
-332.133
-338.798
-345.464
-352.129
-358.794
-365.461
-372.123
-378.79
-385.452
-392.118
-398.784
-405.446
-412.115
-418.779
-425.443
-432.113
-438.776
-445.441
-452.11
-458.775
-465.438
-472.107
-478.774
-485.436
-492.101
-498.771
-505.439
-512.101
-518.762
-525.43
-532.102
-538.77
-545.433
-552.092
-558.751
-565.414
-572.08
-578.747
-585.415
-592.082
-598.748
-605.413
-612.078
-618.744
-625.41
-632.077
-638.745
-645.412
-652.078
-658.744
-665.41
-672.074
-678.738
-685.403
-692.068
-698.732
-705.396
-712.06
-718.725
-725.391
-732.055
-738.718
-745.383
-752.048
-758.714
-765.379
-772.042
-778.705
-785.37
-792.036
-798.702
-805.369
-812.034
-818.696
-825.358
-832.019
-838.68
-845.343
-852.007
-858.672
-865.338
-872.004
-878.669
-885.334
-891.998
-898.662
-905.325
-911.989
-918.654
-925.319
-931.984
-938.649
-945.315
-951.98
-958.645
-965.309
-971.972
-978.636
-985.3
-991.963
-998.626
-1005.29
-1011.95
-1018.62
-1025.28
-1031.94
-1038.61
-1045.27
-1051.93
-1058.59
-1065.26
-1071.92
-1078.59
-1085.25
-1091.91
-1098.58
-1105.24
-1111.9
-1118.56
-1125.22
-1131.88
-1138.55
-1145.21
-1151.87
-1158.54
-1165.2
-1171.86
-1178.53
-1185.19
-1191.85
-1198.52
-1205.18
-1211.84
-1218.5
-1225.17
-1231.83
-1238.49
-1245.15
-1251.82
-1258.48
-1265.14
-1271.81
-1278.47
-1285.13
-1291.79
-1298.46
-1305.12
-1311.78
-1318.44
-1325.1
-1331.76
-1338.42
-1345.09
-1351.75
-1358.41
-1365.07
-1371.74
-1378.4
-1385.06
-1391.72
-1398.38
-1405.04
-1411.7
-1418.36
-1425.02
-1431.68
-1438.34
-1445
-1451.67
-1458.33
-1464.99
-1471.65
-1478.31
-1484.97
-1491.63
-1498.3
-1504.96
-1511.62
-1518.28
-1524.94
-1531.6
-1538.26
-1544.92
-1551.58
-1558.24
-1564.9
-1571.57
-1578.23
-1584.89
-1591.55
-1598.21
-1604.87
-1611.53
-1618.19
-1624.85
-1631.51
-1638.17
-1644.83
-1651.49
-1658.15
-1664.81
-1671.47
-1678.13
-1684.79
-1691.44
-1698.1
-1704.76
-1711.42
-1718.08
-1724.74
-1731.4
-1738.06
-1744.72
-1751.38
-1758.03
-1764.69
-1771.35
-1778.01
-1784.67
-1791.33
-1797.99
-1804.64
-1811.3
-1817.96
-1824.62
-1831.27
-1837.93
-1844.59
-1851.24
-1857.9
-1864.56
-1871.21
-1877.87
-1884.53
-1891.18
-1897.84
-1904.5
-1911.15
-1917.81
-1924.46
-1931.12
-1937.77
-1944.43
-1951.08
-1957.74
-1964.39
-1971.04
-1977.7
-1984.35
-1991
-1997.66
-2004.31
-2010.96
-2017.62
-2024.27
-2030.93
-2037.58
-2044.24
-2050.89
-2057.55
-2064.2
-2070.86
-2077.51
-2084.17
-2090.82
-2097.48
-2104.13
-2110.79
-2117.44
-2124.1
-2130.76
-2137.41
-2144.07
-2150.72
-2157.38
-2164.04
-2170.69
-2177.35
-2184.01
-2190.67
-2197.33
-2203.99
-2210.64
-2217.3
-2223.96
-2230.62
-2237.28
-2243.94
-2250.6
-2257.26
-2263.92
-2270.58
-2277.24
-2283.89
-2290.55
-2297.21
-2303.87
-2310.53
-2317.19
-2323.85
-2330.51
-2337.17
-2343.82
-2350.48
-2357.14
-2363.8
-2370.46
-2377.12
-2383.78
-2390.44
-2397.1
-2403.75
-2410.41
-2417.07
-2423.73
-2430.39
-2437.04
-2443.7
-2450.36
-2457.01
-2463.67
-2470.32
-2476.98
-2483.64
-2490.29
-2496.95
-2503.6
-2510.25
-2516.91
-2523.56
-2530.22
-2536.87
-2543.53
-2550.18
-2556.84
-2563.49
-2570.14
-2576.79
-2583.45
-2590.1
-2596.75
-2603.4
-2610.05
-2616.7
-2623.35
-2630.01
-2636.66
-2643.31
-2649.96
-2656.61
-2663.26
-2669.91
-2676.56
-2683.21
-2689.86
-2696.51
-2703.16
-2709.82
-2716.47
-2723.12
-2729.77
-2736.42
-2743.07
-2749.72
-2756.37
-2763.02
-2769.67
-2776.32
-2782.97
-2789.62
-2796.27
-2802.92
-2809.57
-2816.22
-2822.87
-2829.52
-2836.17
-2842.82
-2849.47
-2856.12
-2862.77
-2869.42
-2876.07
-2882.72
-2889.37
-2896.02
-2902.67
-2909.31
-2915.96
-2922.61
-2929.26
-2935.91
-2942.56
-2949.21
-2955.86
-2962.51
-2969.15
-2975.8
-2982.45
-2989.1
-2995.75
-3002.4
-3009.05
-3015.7
-3022.35
-3028.99
-3035.64
-3042.29
-3048.94
-3055.59
-3062.24
-3068.89
-3075.53
-3082.18
-3088.83
-3095.48
-3102.13
-3108.77
-3115.42
-3122.07
-3128.72
-3135.37
-3142.01
-3148.66
-3155.31
-3161.96
-3168.6
-3175.25
-3181.9
-3188.55
-3195.19
-3201.84
-3208.49
-3215.13
-3221.78
-3228.43
-3235.08
-3241.72
-3248.37
-3255.01
-3261.66
-3268.31
-3274.95
-3281.6
-3288.25
-3294.89
-3301.54
-3308.18
-3314.83
-3321.48
-3328.12
-3334.77
-3341.41
-3348.06
-3354.7
-3361.35
-3368
-3374.64
-3381.29
-3387.93
-3394.58
-3401.22
-3407.87
-3414.51
-3421.16
-3427.8
-3434.45
-3441.09
-3447.74
-3454.38
-3461.02
-3467.67
-3474.31
-3480.96
-3487.6
-3494.25
-3500.89
-3507.53
-3514.18
-3520.82
-3527.47
-3534.11
-3540.75
-3547.4
-3554.04
-3560.68
-3567.33
-3573.97
-3580.61
-3587.26
-3593.9
-3600.54
-3607.18
-3613.83
-3620.47
-3627.11
-3633.76
-3640.4
-3647.04
-3653.68
-3660.33
-3666.97
-3673.61
-3680.25
-3686.89
-3693.54
-3700.18
-3706.82
-3713.46
-3720.1
-3726.74
-3733.39
-3740.03
-3746.67
-3753.31
-3759.95
-3766.59
-3773.23
-3779.87
-3786.52
-3793.16
-3799.8
-3806.44
-3813.08
-3819.72
-3826.36
-3833
-3839.64
-3846.28
-3852.92
-3859.56
-3866.2
-3872.84
-3879.48
-3886.12
-3892.76
-3899.4
-3906.04
-3912.68
-3919.32
-3925.96
-3932.59
-3939.23
-3945.87
-3952.51
-3959.15
-3965.79
-3972.43
-3979.07
-3985.71
-3992.35
-3998.98
-4005.62
-4012.26
-4018.9
-4025.54
-4032.18
-4038.81
-4045.45
-4052.09
-4058.73
-4065.37
-4072
-4078.64
-4085.28
-4091.91
-4098.55
-4105.19
-4111.83
-4118.46
-4125.1
-4131.74
-4138.37
-4145.01
-4151.65
-4158.28
-4164.92
-4171.56
-4178.19
-4184.83
-4191.47
-4198.1
-4204.74
-4211.37
-4218.01
-4224.64
-4231.28
-4237.92
-4244.55
-4251.19
-4257.82
-4264.46
-4271.09
-4277.73
-4284.36
-4291
-4297.63
-4304.27
-4310.9
-4317.53
-4324.17
-4330.8
-4337.44
-4344.07
-4350.71
-4357.34
-4363.98
-4370.61
-4377.24
-4383.88
-4390.51
-4397.15
-4403.78
-4410.41
-4417.05
-4423.68
-4430.31
-4436.95
-4443.58
-4450.21
-4456.84
-4463.48
-4470.11
-4476.74
-4483.37
-4490.01
-4496.64
-4503.27
-4509.9
-4516.53
-4523.17
-4529.8
-4536.43
-4543.06
-4549.69
-4556.33
-4562.96
-4569.59
-4576.22
-4582.85
-4589.48
-4596.11
-4602.74
-4609.37
-4616
-4622.63
-4629.26
-4635.89
-4642.52
-4649.15
-4655.78
-4662.41
-4669.04
-4675.67
-4682.31
-4688.94
-4695.57
-4702.19
-4708.82
-4715.45
-4722.08
-4728.71
-4735.34
-4741.97
-4748.6
-4755.23
-4761.86
-4768.49
-4775.12
-4781.74
-4788.37
-4795
-4801.63
-4808.26
-4814.89
-4821.51
-4828.14
-4834.77
-4841.4
-4848.02
-4854.65
-4861.28
-4867.91
-4874.53
-4881.16
-4887.79
-4894.41
-4901.04
-4907.67
-4914.29
-4920.92
-4927.55
-4934.17
-4940.8
-4947.43
-4954.05
-4960.68
-4967.3
-4973.93
-4980.55
-4987.18
-4993.8
-5000.43
-5007.06
-5013.68
-5020.31
-5026.93
-5033.56
-5040.18
-5046.81
-5053.43
-5060.05
-5066.68
-5073.3
-5079.93
-5086.55
-5093.18
-5099.8
-5106.43
-5113.05
-5119.67
-5126.3
-5132.92
-5139.54
-5146.17
-5152.79
-5159.41
-5166.04
-5172.66
-5179.28
-5185.91
-5192.53
-5199.15
-5205.77
-5212.4
-5219.02
-5225.64
-5232.26
-5238.88
-5245.51
-5252.13
-5258.75
-5265.37
-5271.99
-5278.61
-5285.24
-5291.86
-5298.48
-5305.1
-5311.72
-5318.34
-5324.96
-5331.58
-5338.2
-5344.82
-5351.44
-5358.06
-5364.68
-5371.3
-5377.92
-5384.54
-5391.16
-5397.78
-5404.4
-5411.02
-5417.64
-5424.26
-5430.88
-5437.49
-5444.11
-5450.73
-5457.35
-5463.97
-5470.59
-5477.21
-5483.83
-5490.44
-5497.06
-5503.68
-5510.3
-5516.92
-5523.53
-5530.15
-5536.77
-5543.39
-5550
-5556.62
-5563.24
-5569.86
-5576.47
-5583.09
-5589.71
-5596.32
-5602.94
-5609.56
-5616.17
-5622.79
-5629.4
-5636.02
-5642.64
-5649.25
-5655.87
-5662.48
-5669.1
-5675.71
-5682.33
-5688.94
-5695.56
-5702.17
-5708.79
-5715.4
-5722.02
-5728.63
-5735.24
-5741.86
-5748.47
-5755.09
-5761.7
-5768.31
-5774.93
-5781.54
-5788.15
-5794.77
-5801.38
-5807.99
-5814.61
-5821.22
-5827.83
-5834.45
-5841.06
-5847.67
-5854.28
-5860.9
-5867.51
-5874.12
-5880.73
-5887.35
-5893.96
-5900.57
-5907.18
-5913.79
-5920.4
-5927.02
-5933.63
-5940.24
-5946.85
-5953.46
-5960.07
-5966.68
-5973.29
-5979.9
-5986.51
-5993.12
-5999.73
-6006.34
-6012.95
-6019.56
-6026.17
-6032.78
-6039.39
-6046
-6052.61
-6059.22
-6065.83
-6072.44
-6079.04
-6085.65
-6092.26
-6098.87
-6105.48
-6112.09
-6118.69
-6125.3
-6131.91
-6138.52
-6145.12
-6151.73
-6158.34
-6164.95
-6171.55
-6178.16
-6184.77
-6191.37
-6197.98
-6204.59
-6211.19
-6217.8
-6224.41
-6231.01
-6237.62
-6244.23
-6250.83
-6257.44
-6264.04
-6270.65
-6277.25
-6283.86
-6290.47
-6297.07
-6303.68
-6310.28
-6316.89
-6323.49
-6330.1
-6336.7
-6343.3
-6349.91
-6356.51
-6363.12
-6369.72
-6376.32
-6382.93
-6389.53
-6396.13
-6402.74
-6409.34
-6415.94
-6422.55
-6429.15
-6435.75
-6442.36
-6448.96
-6455.56
-6462.16
-6468.76
-6475.37
-6481.97
-6488.57
-6495.17
-6501.77
-6508.37
-6514.97
-6521.58
-6528.18
-6534.78
-6541.38
-6547.98
-6554.58
-6561.18
-6567.78
-6574.38
-6580.98
-6587.58
-6594.18
-6600.78
-6607.38
-6613.98
-6620.58
-6627.18
-6633.78
-6640.38
-6646.98
-6653.57
-6660.17
-6666.77
-6673.37
-6679.97
-6686.57
-6693.17
-6699.76
-6706.36
-6712.96
-6719.56
-6726.15
-6732.75
-6739.35
-6745.95
-6752.55
-6759.14
-6765.74
-6772.33
-6778.93
-6785.53
-6792.13
-6798.72
-6805.32
-6811.91
-6818.51
-6825.11
-6831.71
-6838.3
-6844.89
-6851.48
-6858.08
-6864.67
-6871.29
-6877.87
-6884.47
-6891.04
-6897.65
-6904.23
-6910.85
-6917.45
-6924.03
-6930.64
-6937.18
-6943.79
-6950.36
-6957.04
-6963.65
-6970.15
-6976.75
-6983.37
-6989.96
-6996.53
-7003.13
-7009.74
-7016.32
-7022.9
-7029.51
-7036.13
-7042.73
-7049.3
-7055.87
-7062.48
-7069.02
-7075.69
-7082.19
-7088.89
-7095.37
-7102.04
-7108.57
-7115.2
-7121.81
-7128.36
-7135.07
-7141.43
-7148.3
-7154.6
-7161.47
-7167.79
-7174.59
-7181.06
-7187.61
-7194.35
-7200.77
-7207.62
-7213.84
-7220.82
-7227.1
-7233.82
-7240.45
-7246.9
-7253.76
-7259.96
-7266.92
-7273.14
-7280.02
-7286.45
-7293.06
-7299.86
-7306.04
-7313.11
-7319.15
-7326.24
-7332.51
-7339.28
-7345.93
-7352.04
-7359.28
-7365.24
-7372.35
-7378.61
-7385.31
-7391.99
-7398.17
-7405.35
-7411.41
-7418.43
-7424.79
-7431.2
-7438.31
-7444.12
-7451.57
-7457.37
-7464.47
-7470.93
-7477.31
-7484.34
-7490.25
-7497.58
-7503.62
-7510.38
-7517.16
-7523.23
-7530.57
-7536.35
-7543.5
-7549.91
-7556.22
-7563.46
-7569.16
-7576.58
-7582.64
-7589.24
-7596.33
-7602.04
-7609.61
-7615.42
-7622.25
-7629.2
-7634.91
-7642.58
-7648.26
-7655.2
-7662.06
-7667.82
-7675.47
-7681.15
-7688.12
-7694.94
-7700.73
-7708.36
-7714.03
-7721.05
-7727.83
-7733.55
-7741.36
-7746.85
-7753.97
-7760.7
-7766.44
-7774.29
-7779.71
-7786.81
-7793.7
-7799.27
-7807.14
-7812.65
-7819.61
-7826.66
-7832.13
-7839.97
-7845.65
-7852.38
-7859.62
-7864.93
-7872.82
-7878.67
-7885.11
-7892.63
-7897.82
-7905.58
-7911.72
-7917.75
-7925.62
-7930.76
-7938.23
-7944.87
-7950.4
-7958.51
-7963.82
-7970.76
-7978.09
-7983.14
-7991.23
-7997.06
-8003.2
-8011.19
-8016.08
-8023.71
-8030.43
-8035.7
-8044.05
-8049.32
-8056
-8063.74
-8068.49
-8076.56
-8082.8
-8088.31
-8096.74
-8101.69
-8108.7
-8116.32
-8121.01
-8129.16
-8135.21
-8141.03
-8149.34
-8154.14
-8161.4
-8168.76
-8173.52
-8181.89
-8187.68
-8193.58
-8201.9
-8206.62
-8214.03
-8221.27
-8226.07
-8234.48
-8240.22
-8246.09
-8254.48
-8259.17
-8266.52
-8273.9
-8278.54
-8286.98
-8292.88
-8298.45
-8307.09
-8311.8
-8318.83
-8326.66
-8331.01
-8339.33
-8345.74
-8350.72
-8359.61
-8364.63
-8370.93
-8379.42
-8383.66
-8391.39
-8398.75
-8403.08
-8411.82
-8417.75
-8422.96
-8431.94
-8436.68
-8443.22
-8451.64
-8455.8
-8463.65
-8470.93
-8475.27
-8484
-8489.96
-8495.15
-8504.1
-8508.94
-8515.34
-8523.84
-8528.05
-8535.7
-8543.23
-8547.44
-8556.04
-8562.37
-8567.17
-8576.21
-8581.4
-8587.2
-8596.11
-8600.47
-8607.43
-8615.7
-8619.71
-8627.74
-8635.02
-8639.2
-8648
-8654.15
-8658.96
-8668.11
-8673.21
-8678.96
-8687.99
-8692.31
-8699.13
-8707.64
-8711.53
-8719.37
-8727.06
-8730.94
-8739.6
-8746.32
-8750.56
-8759.74
-8765.49
-8770.37
-8779.73
-8784.63
-8790.34
-8799.56
-8803.81
-8810.42
-8819.21
-8823.09
-8830.55
-8838.71
-8842.49
-8850.68
-8858.09
-8862.02
-8870.77
-8877.38
-8881.68
-8890.8
-8896.64
-8901.45
-8910.73
-8915.88
-8921.31
-8930.56
-8935.15
-8941.23
-8950.29
-8954.47
-8961.18
-8969.95
-8973.84
-8981.15
-8989.53
-8993.27
-9001.12
-9009.06
-9012.76
-9021.05
-9028.55
-9032.33
-9040.95
-9048.01
-9051.95
-9060.81
-9067.45
-9071.61
-9080.64
-9086.89
-9091.31
-9100.43
-9106.33
-9111.04
-9120.19
-9125.77
-9130.79
-9139.93
-9145.22
-9150.53
-9159.65
-9164.68
-9170.27
-9179.36
-9184.16
-9190
-9199.06
-9203.66
-9209.7
-9218.76
-9223.2
-9229.36
-9238.44
-9242.79
-9249
-9258.1
-9262.42
-9268.64
-9277.72
-9282.07
-9288.28
-9297.31
-9301.73
-9307.93
-9316.88
-9321.4
-9327.59
-9336.44
-9341.05
-9347.26
-9356.03
-9360.67
-9366.91
-9375.65
-9380.3
-9386.53
-9395.27
-9399.96
-9406.11
-9414.91
-9419.64
-9425.66
-9434.54
-9439.34
-9445.19
-9454.15
-9459.08
-9464.71
-9473.71
-9478.87
-9484.24
-9493.24
-9498.67
-9503.79
-9512.72
-9518.47
-9523.38
-9532.18
-9538.24
-9543.01
-9551.62
-9557.99
-9562.67
-9571.06
-9577.72
-9582.33
-9590.51
-9597.43
-9601.99
-9609.97
-9617.14
-9621.67
-9629.4
-9636.86
-9641.36
-9648.81
-9656.57
-9661.09
-9668.19
-9676.24
-9680.86
-9687.57
-9695.86
-9700.7
-9706.95
-9715.41
-9720.58
-9726.37
-9734.88
-9740.47
-9745.86
-9754.28
-9760.33
-9765.45
-9773.63
-9780.14
-9785.1
-9792.98
-9799.89
-9804.79
-9812.36
-9819.58
-9824.5
-9831.75
-9839.26
-9844.22
-9851.12
-9858.93
-9863.99
-9870.45
-9878.54
-9883.84
-9889.8
-9898.04
-9903.76
-9909.22
-9917.4
-9923.7
-9928.77
-9936.67
-9943.55
-9948.46
-9955.92
-9963.28
-9968.26
-9975.2
-9982.9
-9988.1
-9994.53
-10002.4
-10007.9
-10013.9
-10021.9
-10027.8
-10033.4
-10041.3
-10047.7
-10052.9
-10060.6
-10067.5
-10072.6
-10079.8
-10087.3
-10092.4
-10099
-10106.9
-10112.3
-10118.3
-10126.3
-10132.2
-10137.8
-10145.6
-10152.1
-10157.4
-10164.8
-10171.9
-10177.1
-10184
-10191.5
-10197
-10203.3
-10211
-10216.8
-10222.7
-10230.4
-10236.7
-10242.2
-10249.7
-10256.5
-10261.9
-10269
-10276.2
-10281.6
-10288.2
-10295.8
-10301.5
-10307.5
-10315.2
-10321.4
-10327
-10334.5
-10341.3
-10346.6
-10353.6
-10361
-10366.5
-10372.9
-10380.4
-10386.4
-10392.3
-10399.8
-10406.2
-10411.8
-10419.1
-10425.9
-10431.5
-10438.3
-10445.6
-10451.3
-10457.5
-10465.1
-10471.2
-10476.9
-10484.4
-10491.1
-10496.5
-10503.5
-10510.8
-10516.4
-10522.7
-10530.2
-10536.3
-10542.1
-10549.4
-10556.1
-10561.8
-10568.7
-10575.7
-10581.5
-10588
-10595.3
-10601.2
-10607.4
-10614.7
-10621.1
-10626.8
-10634
-10640.9
-10646.5
-10653.1
-10660.5
-10666.4
-10672.3
-10679.8
-10686.3
-10691.9
-10698.9
-10706
-10711.7
-10718.1
-10725.4
-10731.6
-10737.6
-10744.7
-10751.3
-10757.1
-10764
-10770.9
-10776.8
-10783.3
-10790.5
-10796.6
-10802.5
-10809.8
-10816.4
-10822.1
-10828.9
-10836.1
-10842
-10848.1
-10855.4
-10861.9
-10867.6
-10874.5
-10881.5
-10887.4
-10893.8
-10900.9
-10907.2
-10913.2
-10920.2
-10926.8
-10932.8
-10939.5
-10946.4
-10952.4
-10958.8
-10965.9
-10972.2
-10978.1
-10985.2
-10992
-10997.8
-11004.3
-11011.5
-11017.7
-11023.6
-11030.7
-11037.5
-11043.3
-11049.8
-11056.9
-11063.1
-11069.2
-11076.2
-11082.8
-11088.8
-11095.5
-11102.3
-11108.4
-11114.8
-11121.8
-11128.1
-11134.1
-11141.1
-11147.9
-11153.7
-11160.2
-11167.3
-11173.6
-11179.6
-11186.4
-11193.3
-11199.3
-11205.7
-11212.7
-11219
-11225.1
-11231.9
-11238.6
-11244.7
-11251.2
-11258.1
-11264.3
-11270.5
-11277.5
-11284.1
-11290
-11296.6
-11303.6
-11309.8
-11315.9
-11322.8
-11329.5
-11335.5
-11342
-11349
-11355.2
-11361.4
-11368.2
-11374.8
-11380.9
-11387.5
-11394.3
-11400.6
-11406.8
-11413.7
-11420.2
-11426.3
-11432.9
-11439.8
-11446
-11452.1
-11459
-11465.7
-11471.7
-11478.2
-11485.1
-11491.4
-11497.6
-11504.3
-11511
-11517.2
-11523.6
-11530.4
-11536.8
-11543
-11549.7
-11556.4
-11562.5
-11569
-11575.8
-11582.2
-11588.3
-11595
-11601.8
-11607.9
-11614.2
-11621.1
-11627.6
-11633.7
-11640.3
-11647.1
-11653.4
-11659.6
-11666.4
-11673
-11679.1
-11685.6
-11692.4
-11698.7
-11705
-11711.7
-11718.3
-11724.5
-11730.9
-11737.7
-11744.1
-11750.3
-11756.9
-11763.7
-11769.8
-11776.2
-11783
-11789.5
-11795.6
-11802.2
-11808.9
-11815.2
-11821.5
-11828.2
-11834.8
-11841
-11847.4
-11854.2
-11860.6
-11866.8
-11873.4
-11880.1
-11886.3
-11892.7
-11899.4
-11905.9
-11912.1
-11918.6
-11925.4
-11931.7
-11937.9
-11944.6
-11951.3
-11957.5
-11963.8
-11970.6
-11977.1
-11983.3
-11989.8
-11996.5
-12002.8
-12009.1
-12015.8
-12022.3
-12028.6
-12035
-12041.7
-12048.1
-12054.3
-12060.9
-12067.6
-12073.9
-12080.2
-12086.9
-12093.5
-12099.7
-12106.1
-12112.8
-12119.2
-12125.5
-12132
-12138.6
-12145
-12151.3
-12157.9
-12164.4
-12170.7
-12177.2
-12183.9
-12190.2
-12196.5
-12203.1
-12209.7
-12216
-12222.3
-12229
-12235.6
-12241.8
-12248.2
-12254.8
-12261.3
-12267.6
-12274.1
-12280.7
-12287.1
-12293.4
-12300
-12306.5
-12312.8
-12319.2
-12325.9
-12332.3
-12338.5
-12345
-12351.7
-12358.1
-12364.3
-12370.9
-12377.5
-12383.9
-12390.2
-12396.7
-12403.3
-12409.6
-12416
-12422.6
-12429
-12435.4
-12441.9
-12448.5
-12454.8
-12461.1
-12467.7
-12474.3
-12480.6
-12486.9
-12493.5
-12500.1
-12506.4
-12512.7
-12519.3
-12525.8
-12532.1
-12538.6
-12545.1
-12551.5
-12557.9
-12564.4
-12570.9
-12577.2
-12583.6
-12590.3
-12596.7
-12603
-12609.4
-12616
-12622.5
-12628.8
-12635.2
-12641.8
-12648.3
-12654.6
-12661
-12667.5
-12674
-12680.3
-12686.8
-12693.3
-12699.7
-12706.1
-12712.7
-12719.1
-12725.4
-12731.8
-12738.4
-12744.9
-12751.1
-12757.6
-12764.2
-12770.6
-12776.9
-12783.4
-12789.9
-12796.3
-12802.7
-12809.2
-12815.6
-12822
-12828.4
-12835
-12841.4
-12847.7
-12854.1
-12860.7
-12867.2
-12873.4
-12879.9
-12886.4
-12892.9
-12899.2
-12905.6
-12912.1
-12918.6
-12924.9
-12931.4
-12937.9
-12944.2
-12950.6
-12957.2
-12963.6
-12969.9
-12976.3
-12982.9
-12989.4
-12995.7
-13002.1
-13008.6
-13015.1
-13021.4
-13027.8
-13034.3
-13040.7
-13047.1
-13053.5
-13060
-13066.4
-13072.8
-13079.3
-13085.8
-13092.1
-13098.5
-13104.9
-13111.5
-13117.8
-13124.2
-13130.7
-13137.1
-13143.5
-13149.9
-13156.4
-13162.8
-13169.2
-13175.6
-13182.1
-13188.5
-13194.9
-13201.3
-13207.8
-13214.2
-13220.6
-13227
-13233.4
-13239.9
-13246.2
-13252.7
-13259.1
-13265.5
-13271.9
-13278.3
-13284.8
-13291.2
-13297.6
-13304
-13310.5
-13316.9
-13323.2
-13329.7
-13336.1
-13342.5
-13348.9
-13355.4
-13361.8
-13368.2
-13374.6
-13381
-13387.5
-13393.8
-13400.2
-13406.7
-13413.2
-13419.5
-13425.9
-13432.3
-13438.8
-13445.2
-13451.5
-13458
-13464.4
-13470.8
-13477.2
-13483.7
-13490.1
-13496.4
-13502.8
-13509.3
-13515.7
-13522.1
-13528.4
-13534.9
-13541.4
-13547.7
-13554.1
-13560.5
-13566.9
-13573.3
-13579.7
-13586.2
-13592.6
-13598.9
-13605.3
-13611.8
-13618.2
-13624.5
-13630.9
-13637.4
-13643.9
-13650.2
-13656.6
-13663
-13669.4
-13675.8
-13682.2
-13688.6
-13695
-13701.4
-13707.8
-13714.3
-13720.6
-13727
-13733.4
-13739.9
-13746.3
-13752.6
-13759
-13765.4
-13771.9
-13778.2
-13784.6
-13791
-13797.4
-13803.8
-13810.2
-13816.6
-13823
-13829.4
-13835.8
-13842.2
-13848.6
-13855
-13861.3
-13867.8
-13874.2
-13880.6
-13886.9
-13893.3
-13899.7
-13906.1
-13912.5
-13918.9
-13925.3
-13931.7
-13938.1
-13944.5
-13950.9
-13957.3
-13963.6
-13970.1
-13976.5
-13982.9
-13989.2
-13995.6
-14002
-14008.4
-14014.8
-14021.2
-14027.6
-14033.9
-14040.3
-14046.8
-14053.2
-14059.5
-14065.8
-14072.3
-14078.7
-14085.1
-14091.4
-14097.8
-14104.2
-14110.6
-14117
-14123.4
-14129.7
-14136.1
-14142.5
-14148.9
-14155.3
-14161.7
-14168
-14174.4
-14180.8
-14187.2
-14193.6
-14199.9
-14206.3
-14212.7
-14219.1
-14225.5
-14231.9
-14238.2
-14244.6
-14251
-14257.4
-14263.8
-14270.1
-14276.5
-14282.9
-14289.3
-14295.6
-14302
-14308.4
-14314.8
-14321.2
-14327.5
-14333.9
-14340.3
-14346.7
-14353
-14359.4
-14365.8
-14372.1
-14378.5
-14384.9
-14391.3
-14397.6
-14404
-14410.4
-14416.8
-14423.2
-14429.5
-14435.8
-14442.2
-14448.6
-14455
-14461.4
-14467.7
-14474.1
-14480.4
-14486.8
-14493.2
-14499.6
-14505.9
-14512.3
-14518.7
-14525.1
-14531.4
-14537.8
-14544.1
-14550.5
-14556.9
-14563.2
-14569.6
-14576
-14582.3
-14588.7
-14595.1
-14601.4
-14607.8
-14614.1
-14620.5
-14626.9
-14633.3
-14639.6
-14646
-14652.3
-14658.7
-14665
-14671.4
-14677.8
-14684.1
-14690.5
-14696.8
-14703.2
-14709.6
-14715.9
-14722.3
-14728.6
-14735
-14741.4
-14747.7
-14754.1
-14760.4
-14766.8
-14773.1
-14779.5
-14785.9
-14792.2
-14798.6
-14804.9
-14811.3
-14817.7
-14824
-14830.3
-14836.7
-14843.1
-14849.4
-14855.8
-14862.1
-14868.5
-14874.8
-14881.2
-14887.5
-14893.9
-14900.2
-14906.6
-14912.9
-14919.3
-14925.6
-14932
-14938.3
-14944.7
-14951
-14957.4
-14963.7
-14970.1
-14976.4
-14982.8
-14989.1
-14995.4
-15001.8
-15008.1
-15014.5
-15020.8
-15027.2
-15033.5
-15039.9
-15046.2
-15052.6
-15058.9
-15065.3
-15071.6
-15077.9
-15084.3
-15090.6
-15097
-15103.3
-15109.6
-15116
-15122.3
-15128.7
-15135
-15141.4
-15147.7
-15154
-15160.3
-15166.7
-15173.1
-15179.4
-15185.7
-15192
-15198.4
-15204.7
-15211.1
-15217.4
-15223.7
-15230.1
-15236.4
-15242.8
-15249.1
-15255.5
-15261.7
-15268.1
-15274.4
-15280.8
-15287.1
-15293.4
-15299.8
-15306.1
-15312.4
-15318.8
-15325.1
-15331.5
-15337.8
-15344.1
-15350.4
-15356.8
-15363.1
-15369.4
-15375.7
-15382
-15388.4
-15394.7
-15401.1
-15407.4
-15413.7
-15420
-15426.3
-15432.7
-15439
-15445.4
-15451.7
-15458
-15464.3
-15470.6
-15477
-15483.3
-15489.6
-15495.9
-15502.2
-15508.6
-15514.9
-15521.3
-15527.6
-15533.9
-15540.2
-15546.5
-15552.9
-15559.2
-15565.5
-15571.8
-15578.1
-15584.4
-15590.8
-15597.1
-15603.4
-15609.7
-15616
-15622.3
-15628.7
-15635
-15641.3
-15647.6
-15653.9
-15660.2
-15666.6
-15672.9
-15679.2
-15685.5
-15691.8
-15698.1
-15704.5
-15710.8
-15717.1
-15723.4
-15729.7
-15736
-15742.3
-15748.7
-15755
-15761.3
-15767.6
-15773.9
-15780.2
-15786.5
-15792.9
-15799.2
-15805.5
-15811.8
-15818.1
-15824.4
-15830.7
-15837
-15843.3
-15849.6
-15855.9
-15862.2
-15868.5
-15874.9
-15881.2
-15887.5
-15893.8
-15900.1
-15906.4
-15912.7
-15919
-15925.3
-15931.6
-15937.9
-15944.2
-15950.5
-15956.8
-15963.1
-15969.4
-15975.7
-15982
-15988.3
-15994.6
-16000.9
-16007.2
-16013.5
-16019.8
-16026.1
-16032.4
-16038.7
-16045
-16051.3
-16057.6
-16063.9
-16070.2
-16076.5
-16082.8
-16089.1
-16095.4
-16101.7
-16108
-16114.3
-16120.6
-16126.9
-16133.2
-16139.4
-16145.7
-16152
-16158.3
-16164.6
-16170.9
-16177.2
-16183.5
-16189.8
-16196.1
-16202.4
-16208.7
-16215
-16221.2
-16227.5
-16233.8
-16240.1
-16246.4
-16252.7
-16259
-16265.3
-16271.5
-16277.8
-16284.1
-16290.4
-16296.7
-16303
-16309.3
-16315.5
-16321.8
-16328.1
-16334.4
-16340.7
-16347
-16353.3
-16359.5
-16365.8
-16372.1
-16378.4
-16384.7
-16391
-16397.2
-16403.5
-16409.8
-16416.1
-16422.4
-16428.7
-16434.9
-16441.2
-16447.4
-16453.7
-16460
-16466.3
-16472.6
-16478.9
-16485.1
-16491.4
-16497.7
-16504
-16510.3
-16516.5
-16522.8
-16529.1
-16535.3
-16541.6
-16547.9
-16554.2
-16560.5
-16566.7
-16573
-16579.2
-16585.5
-16591.8
-16598.1
-16604.4
-16610.6
-16616.9
-16623.1
-16629.4
-16635.7
-16642
-16648.3
-16654.5
-16660.8
-16667
-16673.3
-16679.6
-16685.9
-16692.1
-16698.4
-16704.6
-16710.9
-16717.1
-16723.4
-16729.7
-16736
-16742.2
-16748.5
-16754.7
-16761
-16767.3
-16773.6
-16779.8
-16786.1
-16792.3
-16798.6
-16804.8
-16811.1
-16817.4
-16823.7
-16829.9
-16836.1
-16842.4
-16848.6
-16854.9
-16861.2
-16867.5
-16873.7
-16879.9
-16886.2
-16892.4
-16898.7
-16905
-16911.3
-16917.5
-16923.7
-16930
-16936.2
-16942.5
-16948.8
-16955
-16961.3
-16967.5
-16973.8
-16980
-16986.3
-16992.5
-16998.8
-17005
-17011.3
-17017.5
-17023.8
-17030
-17036.3
-17042.5
-17048.8
-17055
-17061.3
-17067.5
-17073.8
-17080
-17086.3
-17092.5
-17098.8
-17105
-17111.2
-17117.5
-17123.7
-17130
-17136.2
-17142.5
-17148.7
-17154.9
-17161.2
-17167.4
-17173.7
-17179.9
-17186.2
-17192.4
-17198.7
-17204.9
-17211.1
-17217.4
-17223.6
-17229.9
-17236.1
-17242.3
-17248.6
-17254.8
-17261
-17267.3
-17273.5
-17279.8
-17286
-17292.2
-17298.5
-17304.7
-17310.9
-17317.2
-17323.4
-17329.6
-17335.9
-17342.1
-17348.3
-17354.6
-17360.8
-17367
-17373.3
-17379.5
-17385.7
-17392
-17398.2
-17404.4
-17410.6
-17416.9
-17423.1
-17429.4
-17435.6
-17441.8
-17448
-17454.3
-17460.5
-17466.7
-17472.9
-17479.2
-17485.4
-17491.6
-17497.8
-17504.1
-17510.3
-17516.5
-17522.8
-17529
-17535.2
-17541.4
-17547.6
-17553.8
-17560.1
-17566.3
-17572.5
-17578.8
-17585
-17591.2
-17597.4
-17603.6
-17609.8
-17616.1
-17622.3
-17628.5
-17634.7
-17640.9
-17647.1
-17653.4
-17659.6
-17665.8
-17672
-17678.3
-17684.5
-17690.7
-17696.9
-17703.1
-17709.3
-17715.5
-17721.8
-17728
-17734.2
-17740.4
-17746.6
-17752.8
-17759
-17765.2
-17771.5
-17777.7
-17783.9
-17790.1
-17796.3
-17802.5
-17808.7
-17814.9
-17821.1
-17827.3
-17833.5
-17839.7
-17845.9
-17852.2
-17858.4
-17864.6
-17870.8
-17877
-17883.2
-17889.4
-17895.6
-17901.8
-17908
-17914.2
-17920.4
-17926.6
-17932.8
-17939
-17945.2
-17951.4
-17957.6
-17963.8
-17970
-17976.2
-17982.4
-17988.6
-17994.8
-18001
-18007.2
-18013.4
-18019.6
-18025.8
-18032
-18038.2
-18044.4
-18050.6
-18056.8
-18063
-18069.2
-18075.4
-18081.6
-18087.8
-18094
-18100.2
-18106.4
-18112.6
-18118.8
-18124.9
-18131.1
-18137.3
-18143.5
-18149.7
-18155.9
-18162.1
-18168.3
-18174.5
-18180.6
-18186.8
-18193
-18199.2
-18205.4
-18211.6
-18217.8
-18224
-18230.1
-18236.3
-18242.5
-18248.7
-18254.9
-18261.1
-18267.3
-18273.5
-18279.6
-18285.8
-18292
-18298.2
-18304.4
-18310.6
-18316.7
-18322.9
-18329.1
-18335.3
-18341.4
-18347.6
-18353.8
-18360
-18366.2
-18372.4
-18378.5
-18384.7
-18390.9
-18397.1
-18403.2
-18409.4
-18415.6
-18421.8
-18428
-18434.1
-18440.3
-18446.5
-18452.6
-18458.8
-18465
-18471.2
-18477.3
-18483.5
-18489.7
-18495.9
-18502
-18508.2
-18514.4
-18520.5
-18526.7
-18532.9
-18539.1
-18545.2
-18551.4
-18557.6
-18563.7
-18569.9
-18576.1
-18582.2
-18588.4
-18594.6
-18600.7
-18606.9
-18613.1
-18619.2
-18625.4
-18631.5
-18637.7
-18643.9
-18650
-18656.2
-18662.4
-18668.5
-18674.7
-18680.9
-18687
-18693.2
-18699.3
-18705.5
-18711.7
-18717.8
-18724
-18730.1
-18736.3
-18742.5
-18748.6
-18754.8
-18760.9
-18767.1
-18773.2
-18779.4
-18785.6
-18791.7
-18797.9
-18804
-18810.2
-18816.3
-18822.5
-18828.6
-18834.8
-18840.9
-18847.1
-18853.2
-18859.4
-18865.6
-18871.7
-18877.9
-18884
-18890.2
-18896.3
-18902.4
-18908.6
-18914.7
-18920.9
-18927.1
-18933.2
-18939.3
-18945.5
-18951.6
-18957.8
-18963.9
-18970.1
-18976.2
-18982.4
-18988.5
-18994.7
-19000.8
-19006.9
-19013.1
-19019.2
-19025.4
-19031.5
-19037.7
-19043.8
-19049.9
-19056.1
-19062.2
-19068.4
-19074.5
-19080.6
-19086.8
-19092.9
-19099.1
-19105.2
-19111.3
-19117.5
-19123.6
-19129.7
-19135.9
-19142
-19148.1
-19154.3
-19160.4
-19166.6
-19172.7
-19178.8
-19185
-19191.1
-19197.2
-19203.3
-19209.5
-19215.6
-19221.7
-19227.9
-19234
-19240.1
-19246.3
-19252.4
-19258.5
-19264.7
-19270.8
-19276.9
-19283
-19289.2
-19295.3
-19301.4
-19307.5
-19313.7
-19319.8
-19325.9
-19332
-19338.2
-19344.3
-19350.4
-19356.5
-19362.7
-19368.8
-19374.9
-19381
-19387.2
-19393.3
-19399.4
-19405.5
-19411.6
-19417.8
-19423.9
-19430
-19436.1
-19442.2
-19448.4
-19454.5
-19460.6
-19466.7
-19472.8
-19478.9
-19485.1
-19491.2
-19497.3
-19503.4
-19509.5
-19515.6
-19521.7
-19527.9
-19534
-19540.1
-19546.2
-19552.3
-19558.4
-19564.5
-19570.7
-19576.8
-19582.9
-19589
-19595.1
-19601.2
-19607.3
-19613.4
-19619.5
-19625.6
-19631.8
-19637.9
-19644
-19650.1
-19656.2
-19662.3
-19668.4
-19674.5
-19680.6
-19686.7
-19692.8
-19698.9
-19705
-19711.1
-19717.2
-19723.3
-19729.4
-19735.5
-19741.6
-19747.7
-19753.8
-19759.9
-19766
-19772.1
-19778.2
-19784.3
-19790.4
-19796.5
-19802.6
-19808.7
-19814.8
-19820.9
-19827
-19833.1
-19839.2
-19845.3
-19851.4
-19857.5
-19863.6
-19869.7
-19875.8
-19881.9
-19888
-19894
-19900.1
-19906.2
-19912.3
-19918.4
-19924.5
-19930.6
-19936.7
-19942.8
-19948.9
-19955
-19961
-19967.1
-19973.2
-19979.3
-19985.4
-19991.5
-19997.6
-20003.7
-20009.7
-20015.8
-20021.9
-20028
-20034.1
-20040.1
-20046.2
-20052.3
-20058.4
-20064.5
-20070.6
-20076.6
-20082.7
-20088.8
-20094.9
-20101
-20107.1
-20113.1
-20119.2
-20125.3
-20131.4
-20137.5
-20143.5
-20149.6
-20155.7
-20161.8
-20167.8
-20173.9
-20180
-20186.1
-20192.1
-20198.2
-20204.3
-20210.4
-20216.4
-20222.5
-20228.6
-20234.7
-20240.7
-20246.8
-20252.9
-20258.9
-20265
-20271.1
-20277.2
-20283.2
-20289.3
-20295.4
-20301.4
-20307.5
-20313.6
-20319.6
-20325.7
-20331.8
-20337.8
-20343.9
-20350
-20356
-20362.1
-20368.2
-20374.2
-20380.3
-20386.4
-20392.4
-20398.5
-20404.5
-20410.6
-20416.7
-20422.7
-20428.8
-20434.8
-20440.9
-20447
-20453
-20459.1
-20465.2
-20471.2
-20477.3
-20483.3
-20489.4
-20495.5
-20501.5
-20507.6
-20513.6
-20519.7
-20525.7
-20531.8
-20537.8
-20543.9
-20550
-20556
-20562.1
-20568.1
-20574.2
-20580.2
-20586.3
-20592.3
-20598.3
-20604.4
-20610.4
-20616.5
-20622.6
-20628.6
-20634.7
-20640.7
-20646.8
-20652.8
-20658.8
-20664.9
-20670.9
-20677
-20683
-20689.1
-20695.1
-20701.2
-20707.2
-20713.3
-20719.3
-20725.4
-20731.4
-20737.4
-20743.5
-20749.5
-20755.5
-20761.6
-20767.6
-20773.7
-20779.8
-20785.8
-20791.9
-20797.9
-20803.9
-20810
-20816
-20822
-20828
-20834
-20840.1
-20846.1
-20852.2
-20858.2
-20864.3
-20870.3
-20876.4
-20882.4
-20888.4
-20894.4
-20900.5
-20906.5
-20912.5
-20918.6
-20924.6
-20930.6
-20936.7
-20942.7
-20948.8
-20954.8
-20960.8
-20966.8
-20972.8
-20978.9
-20984.9
-20990.9
-20996.9
-21003
-21009
-21015.1
-21021.1
-21027.1
-21033.2
-21039.2
-21045.2
-21051.2
-21057.2
-21063.2
-21069.2
-21075.2
-21081.3
-21087.3
-21093.4
-21099.4
-21105.4
-21111.5
-21117.5
-21123.5
-21129.5
-21135.5
-21141.5
-21147.5
-21153.5
-21159.5
-21165.6
-21171.6
-21177.6
-21183.7
-21189.7
-21195.7
-21201.7
-21207.7
-21213.7
-21219.7
-21225.7
-21231.7
-21237.7
-21243.8
-21249.8
-21255.8
-21261.9
-21267.9
-21273.9
-21279.9
-21285.9
-21291.9
-21297.9
-21303.9
-21309.9
-21315.9