/*--------------------------------*- C++ -*----------------------------------*\
  =========                 |
  \\      /  F ield         | OpenFOAM: The Open Source CFD Toolbox
   \\    /   O peration     | Website:  https://openfoam.org
    \\  /    A nd           | Version:  9
     \\/     M anipulation  |
\*---------------------------------------------------------------------------*/
FoamFile
{
    format      ascii;
    class       volScalarField;
    location    "0.027";
    object      mag(U);
}
// * * * * * * * * * * * * * * * * * * * * * * * * * * * * * * * * * * * * * //

dimensions      [0 1 -1 0 0 0 0];

internalField   nonuniform List<scalar> 
10000
(
4.64623
4.71047
4.77183
4.82262
4.87064
4.91963
4.96948
5.01948
5.06936
5.11918
5.16899
5.21881
5.26863
5.31846
5.36829
5.41812
5.46794
5.51777
5.56759
5.61742
5.66725
5.71708
5.76691
5.81674
5.86657
5.91639
5.96622
6.01605
6.06588
6.11572
6.16555
6.21539
6.26522
6.31505
6.36488
6.4147
6.46453
6.51436
6.56419
6.61403
6.66386
6.7137
6.76355
6.81339
6.86323
6.91308
6.96292
7.01276
7.0626
7.11245
7.16228
7.21212
7.26196
7.3118
7.36164
7.41147
7.46131
7.51116
7.561
7.61083
7.66067
7.71051
7.76035
7.81019
7.86003
7.90987
7.95971
8.00956
8.0594
8.10924
8.15908
8.20893
8.25877
8.30861
8.35845
8.4083
8.45814
8.50799
8.55783
8.60768
8.65752
8.70737
8.75721
8.80706
8.85691
8.90675
8.9566
9.00645
9.0563
9.10615
9.15599
9.20584
9.25569
9.30554
9.35539
9.40524
9.45509
9.50494
9.55479
9.60464
9.6545
9.70435
9.7542
9.80405
9.85391
9.90376
9.95361
10.0035
10.0533
10.1032
10.153
10.2029
10.2527
10.3026
10.3525
10.4023
10.4522
10.502
10.5519
10.6017
10.6516
10.7015
10.7513
10.8012
10.851
10.9009
10.9507
11.0006
11.0505
11.1003
11.1502
11.2001
11.2499
11.2998
11.3496
11.3995
11.4494
11.4992
11.5491
11.599
11.6488
11.6987
11.7485
11.7984
11.8483
11.8981
11.948
11.9979
12.0477
12.0976
12.1475
12.1973
12.2472
12.2971
12.3469
12.3968
12.4467
12.4965
12.5464
12.5963
12.6462
12.696
12.7459
12.7958
12.8456
12.8955
12.9454
12.9953
13.0451
13.095
13.1449
13.1948
13.2446
13.2945
13.3444
13.3942
13.4441
13.494
13.5439
13.5938
13.6436
13.6935
13.7434
13.7933
13.8431
13.893
13.9429
13.9928
14.0426
14.0925
14.1424
14.1923
14.2422
14.292
14.3419
14.3918
14.4417
14.4916
14.5415
14.5913
14.6412
14.6911
14.741
14.7909
14.8408
14.8906
14.9405
14.9904
15.0403
15.0902
15.1401
15.1899
15.2398
15.2897
15.3396
15.3895
15.4394
15.4893
15.5392
15.589
15.6389
15.6888
15.7387
15.7886
15.8385
15.8884
15.9383
15.9882
16.0381
16.0879
16.1378
16.1877
16.2376
16.2875
16.3374
16.3873
16.4372
16.4871
16.537
16.5869
16.6368
16.6867
16.7366
16.7865
16.8364
16.8862
16.9361
16.986
17.0359
17.0858
17.1357
17.1856
17.2355
17.2854
17.3353
17.3852
17.4351
17.485
17.5349
17.5848
17.6347
17.6846
17.7345
17.7844
17.8343
17.8842
17.9341
17.984
18.0339
18.0839
18.1338
18.1837
18.2336
18.2835
18.3334
18.3833
18.4332
18.4831
18.533
18.5829
18.6328
18.6827
18.7326
18.7825
18.8324
18.8823
18.9323
18.9822
19.0321
19.082
19.1319
19.1818
19.2317
19.2816
19.3315
19.3815
19.4314
19.4813
19.5312
19.5811
19.631
19.6809
19.7308
19.7808
19.8307
19.8806
19.9305
19.9804
20.0303
20.0802
20.1302
20.1801
20.23
20.2799
20.3298
20.3797
20.4297
20.4796
20.5295
20.5794
20.6293
20.6793
20.7292
20.7791
20.829
20.8789
20.9289
20.9788
21.0287
21.0786
21.1285
21.1785
21.2284
21.2783
21.3282
21.3782
21.4281
21.478
21.5279
21.5779
21.6278
21.6777
21.7276
21.7776
21.8275
21.8774
21.9273
21.9773
22.0272
22.0771
22.127
22.177
22.2269
22.2768
22.3268
22.3767
22.4266
22.4766
22.5265
22.5764
22.6263
22.6763
22.7262
22.7761
22.8261
22.876
22.9259
22.9759
23.0258
23.0757
23.1257
23.1756
23.2255
23.2755
23.3254
23.3754
23.4253
23.4752
23.5252
23.5751
23.625
23.675
23.7249
23.7749
23.8248
23.8747
23.9247
23.9746
24.0246
24.0745
24.1244
24.1744
24.2243
24.2743
24.3242
24.3741
24.4241
24.474
24.524
24.5739
24.6239
24.6738
24.7237
24.7737
24.8236
24.8736
24.9235
24.9735
25.0234
25.0734
25.1233
25.1733
25.2232
25.2731
25.3231
25.373
25.423
25.4729
25.5229
25.5728
25.6228
25.6727
25.7227
25.7726
25.8226
25.8725
25.9225
25.9724
26.0224
26.0723
26.1223
26.1723
26.2222
26.2722
26.3221
26.3721
26.422
26.472
26.5219
26.5719
26.6218
26.6718
26.7218
26.7717
26.8217
26.8716
26.9216
26.9715
27.0215
27.0715
27.1214
27.1714
27.2213
27.2713
27.3213
27.3712
27.4212
27.4711
27.5211
27.5711
27.621
27.671
27.7209
27.7709
27.8209
27.8708
27.9208
27.9708
28.0207
28.0707
28.1207
28.1706
28.2206
28.2706
28.3205
28.3705
28.4205
28.4704
28.5204
28.5704
28.6203
28.6703
28.7203
28.7702
28.8202
28.8702
28.9201
28.9701
29.0201
29.07
29.12
29.17
29.22
29.2699
29.3199
29.3699
29.4198
29.4698
29.5198
29.5698
29.6197
29.6697
29.7197
29.7697
29.8196
29.8696
29.9196
29.9696
30.0195
30.0695
30.1195
30.1695
30.2194
30.2694
30.3194
30.3694
30.4194
30.4693
30.5193
30.5693
30.6193
30.6693
30.7192
30.7692
30.8192
30.8692
30.9192
30.9691
31.0191
31.0691
31.1191
31.1691
31.2191
31.269
31.319
31.369
31.419
31.469
31.519
31.5689
31.6189
31.6689
31.7189
31.7689
31.8189
31.8689
31.9189
31.9688
32.0188
32.0688
32.1188
32.1688
32.2188
32.2688
32.3188
32.3688
32.4187
32.4687
32.5187
32.5687
32.6187
32.6687
32.7187
32.7687
32.8187
32.8687
32.9187
32.9687
33.0187
33.0687
33.1186
33.1686
33.2186
33.2686
33.3186
33.3686
33.4186
33.4686
33.5186
33.5686
33.6186
33.6686
33.7186
33.7686
33.8186
33.8686
33.9186
33.9686
34.0186
34.0686
34.1186
34.1686
34.2186
34.2686
34.3186
34.3686
34.4186
34.4686
34.5186
34.5686
34.6186
34.6686
34.7186
34.7686
34.8187
34.8687
34.9187
34.9687
35.0187
35.0687
35.1187
35.1687
35.2187
35.2687
35.3187
35.3687
35.4187
35.4687
35.5188
35.5688
35.6188
35.6688
35.7188
35.7688
35.8188
35.8688
35.9188
35.9688
36.0189
36.0689
36.1189
36.1689
36.2189
36.2689
36.3189
36.369
36.419
36.469
36.519
36.569
36.619
36.669
36.7191
36.7691
36.8191
36.8691
36.9191
36.9692
37.0192
37.0692
37.1192
37.1692
37.2192
37.2693
37.3193
37.3693
37.4193
37.4693
37.5194
37.5694
37.6194
37.6694
37.7195
37.7695
37.8195
37.8695
37.9195
37.9696
38.0196
38.0696
38.1196
38.1697
38.2197
38.2697
38.3197
38.3698
38.4198
38.4698
38.5199
38.5699
38.6199
38.6699
38.72
38.77
38.82
38.8701
38.9201
38.9701
39.0201
39.0702
39.1202
39.1702
39.2203
39.2703
39.3203
39.3704
39.4204
39.4704
39.5205
39.5705
39.6205
39.6706
39.7206
39.7706
39.8207
39.8707
39.9207
39.9708
40.0208
40.0708
40.1209
40.1709
40.221
40.271
40.321
40.3711
40.4211
40.4711
40.5212
40.5712
40.6213
40.6713
40.7213
40.7714
40.8214
40.8715
40.9215
40.9716
41.0216
41.0716
41.1217
41.1717
41.2218
41.2718
41.3219
41.3719
41.4219
41.472
41.522
41.5721
41.6221
41.6722
41.7222
41.7723
41.8223
41.8724
41.9224
41.9724
42.0225
42.0725
42.1226
42.1726
42.2227
42.2727
42.3228
42.3728
42.4229
42.4729
42.523
42.573
42.6231
42.6731
42.7232
42.7733
42.8233
42.8734
42.9234
42.9735
43.0235
43.0736
43.1236
43.1737
43.2237
43.2738
43.3239
43.3739
43.424
43.474
43.5241
43.5741
43.6242
43.6743
43.7243
43.7744
43.8244
43.8745
43.9245
43.9746
44.0247
44.0747
44.1248
44.1748
44.2249
44.275
44.325
44.3751
44.4252
44.4752
44.5253
44.5753
44.6254
44.6755
44.7255
44.7756
44.8257
44.8757
44.9258
44.9759
45.0259
45.076
45.1261
45.1761
45.2262
45.2763
45.3263
45.3764
45.4265
45.4765
45.5266
45.5767
45.6267
45.6768
45.7269
45.777
45.827
45.8771
45.9272
45.9772
46.0273
46.0774
46.1275
46.1775
46.2276
46.2777
46.3277
46.3778
46.4279
46.478
46.528
46.5781
46.6282
46.6783
46.7283
46.7784
46.8285
46.8786
46.9287
46.9787
47.0288
47.0789
47.129
47.179
47.2291
47.2792
47.3293
47.3794
47.4294
47.4795
47.5296
47.5797
47.6298
47.6798
47.7299
47.78
47.8301
47.8802
47.9303
47.9803
48.0304
48.0805
48.1306
48.1807
48.2308
48.2808
48.3309
48.381
48.4311
48.4812
48.5313
48.5814
48.6315
48.6815
48.7316
48.7817
48.8318
48.8819
48.932
48.9821
49.0322
49.0822
49.1323
49.1824
49.2325
49.2826
49.3327
49.3828
49.4329
49.483
49.5331
49.5832
49.6333
49.6834
49.7334
49.7835
49.8336
49.8837
49.9338
49.9839
50.034
50.0841
50.1342
50.1843
50.2344
50.2845
50.3346
50.3847
50.4348
50.4849
50.535
50.5851
50.6352
50.6853
50.7354
50.7855
50.8356
50.8857
50.9358
50.9859
51.036
51.0861
51.1362
51.1863
51.2364
51.2865
51.3366
51.3867
51.4368
51.4869
51.537
51.5871
51.6372
51.6873
51.7374
51.7875
51.8377
51.8878
51.9379
51.988
52.0381
52.0882
52.1383
52.1884
52.2385
52.2886
52.3387
52.3888
52.4389
52.4891
52.5392
52.5893
52.6394
52.6895
52.7396
52.7897
52.8398
52.89
52.9401
52.9902
53.0403
53.0904
53.1405
53.1906
53.2407
53.2909
53.341
53.3911
53.4412
53.4913
53.5414
53.5916
53.6417
53.6918
53.7419
53.792
53.8421
53.8923
53.9424
53.9925
54.0426
54.0927
54.1429
54.193
54.2431
54.2932
54.3433
54.3935
54.4436
54.4937
54.5438
54.5939
54.6441
54.6942
54.7443
54.7944
54.8446
54.8947
54.9448
54.9949
55.0451
55.0952
55.1453
55.1954
55.2456
55.2957
55.3458
55.3959
55.4461
55.4962
55.5463
55.5965
55.6466
55.6967
55.7468
55.797
55.8471
55.8972
55.9474
55.9975
56.0476
56.0978
56.1479
56.198
56.2482
56.2983
56.3484
56.3986
56.4487
56.4988
56.549
56.5991
56.6492
56.6994
56.7495
56.7996
56.8498
56.8999
56.95
57.0002
57.0503
57.1004
57.1506
57.2007
57.2509
57.301
57.3511
57.4013
57.4514
57.5016
57.5517
57.6018
57.652
57.7021
57.7523
57.8024
57.8525
57.9027
57.9528
58.003
58.0531
58.1033
58.1534
58.2035
58.2537
58.3038
58.354
58.4041
58.4543
58.5044
58.5546
58.6047
58.6548
58.705
58.7551
58.8053
58.8554
58.9056
58.9557
59.0059
59.056
59.1062
59.1563
59.2065
59.2566
59.3068
59.3569
59.4071
59.4572
59.5074
59.5575
59.6077
59.6578
59.708
59.7581
59.8083
59.8584
59.9086
59.9588
60.0089
60.0591
60.1092
60.1594
60.2095
60.2597
60.3098
60.36
60.4102
60.4603
60.5105
60.5606
60.6108
60.6609
60.7111
60.7613
60.8114
60.8616
60.9117
60.9619
61.0121
61.0622
61.1124
61.1625
61.2127
61.2629
61.313
61.3632
61.4133
61.4635
61.5137
61.5638
61.614
61.6642
61.7143
61.7645
61.8147
61.8648
61.915
61.9652
62.0153
62.0655
62.1157
62.1658
62.216
62.2662
62.3163
62.3665
62.4167
62.4668
62.517
62.5672
62.6173
62.6675
62.7177
62.7678
62.818
62.8682
62.9184
62.9685
63.0187
63.0689
63.1191
63.1692
63.2194
63.2696
63.3197
63.3699
63.4201
63.4703
63.5204
63.5706
63.6208
63.671
63.7211
63.7713
63.8215
63.8717
63.9219
63.972
64.0222
64.0724
64.1226
64.1727
64.2229
64.2731
64.3233
64.3735
64.4236
64.4738
64.524
64.5742
64.6244
64.6745
64.7247
64.7749
64.8251
64.8753
64.9255
64.9756
65.0258
65.076
65.1262
65.1764
65.2266
65.2767
65.3269
65.3771
65.4273
65.4775
65.5277
65.5779
65.6281
65.6782
65.7284
65.7786
65.8288
65.879
65.9292
65.9794
66.0296
66.0798
66.1299
66.1801
66.2303
66.2805
66.3307
66.3809
66.4311
66.4813
66.5315
66.5817
66.6319
66.6821
66.7322
66.7824
66.8326
66.8828
66.933
66.9832
67.0334
67.0836
67.1338
67.184
67.2342
67.2844
67.3346
67.3848
67.435
67.4852
67.5354
67.5856
67.6358
67.686
67.7362
67.7864
67.8366
67.8868
67.937
67.9872
68.0374
68.0876
68.1378
68.188
68.2382
68.2884
68.3386
68.3888
68.439
68.4892
68.5394
68.5896
68.6398
68.69
68.7402
68.7904
68.8407
68.8909
68.9411
68.9913
69.0415
69.0917
69.1419
69.1921
69.2423
69.2925
69.3427
69.3929
69.4431
69.4934
69.5436
69.5938
69.644
69.6942
69.7444
69.7946
69.8448
69.895
69.9453
69.9955
70.0457
70.0959
70.1461
70.1963
70.2465
70.2968
70.347
70.3972
70.4474
70.4976
70.5478
70.598
70.6483
70.6985
70.7487
70.7989
70.8491
70.8994
70.9496
70.9998
71.05
71.1002
71.1504
71.2007
71.2509
71.3011
71.3513
71.4016
71.4518
71.502
71.5522
71.6024
71.6527
71.7029
71.7531
71.8033
71.8536
71.9038
71.954
72.0042
72.0545
72.1047
72.1549
72.2051
72.2554
72.3056
72.3558
72.406
72.4563
72.5065
72.5567
72.6069
72.6572
72.7074
72.7576
72.8079
72.8581
72.9083
72.9586
73.0088
73.059
73.1092
73.1595
73.2097
73.2599
73.3102
73.3604
73.4106
73.4609
73.5111
73.5613
73.6116
73.6618
73.712
73.7623
73.8125
73.8627
73.913
73.9632
74.0135
74.0637
74.1139
74.1642
74.2144
74.2646
74.3149
74.3651
74.4154
74.4656
74.5158
74.5661
74.6163
74.6666
74.7168
74.767
74.8173
74.8675
74.9178
74.968
75.0182
75.0685
75.1187
75.169
75.2192
75.2695
75.3197
75.3699
75.4202
75.4704
75.5207
75.5709
75.6212
75.6714
75.7217
75.7719
75.8222
75.8724
75.9227
75.9729
76.0231
76.0734
76.1236
76.1739
76.2241
76.2744
76.3246
76.3749
76.4251
76.4754
76.5256
76.5759
76.6261
76.6764
76.7267
76.7769
76.8272
76.8774
76.9277
76.9779
77.0282
77.0784
77.1287
77.1789
77.2292
77.2794
77.3297
77.38
77.4302
77.4805
77.5307
77.581
77.6312
77.6815
77.7318
77.782
77.8323
77.8825
77.9328
77.9831
78.0333
78.0836
78.1338
78.1841
78.2344
78.2846
78.3349
78.3851
78.4354
78.4857
78.5359
78.5862
78.6365
78.6867
78.737
78.7872
78.8375
78.8878
78.938
78.9883
79.0386
79.0888
79.1391
79.1894
79.2396
79.2899
79.3402
79.3904
79.4407
79.491
79.5412
79.5915
79.6418
79.6921
79.7423
79.7926
79.8429
79.8931
79.9434
79.9937
80.0439
80.0942
80.1445
80.1948
80.245
80.2953
80.3456
80.3959
80.4461
80.4964
80.5467
80.597
80.6472
80.6975
80.7478
80.7981
80.8483
80.8986
80.9489
80.9992
81.0494
81.0997
81.15
81.2003
81.2506
81.3008
81.3511
81.4014
81.4517
81.502
81.5522
81.6025
81.6528
81.7031
81.7534
81.8036
81.8539
81.9042
81.9545
82.0048
82.0551
82.1053
82.1556
82.2059
82.2562
82.3065
82.3568
82.407
82.4573
82.5076
82.5579
82.6082
82.6585
82.7088
82.759
82.8093
82.8596
82.9099
82.9602
83.0105
83.0608
83.1111
83.1614
83.2116
83.2619
83.3122
83.3625
83.4128
83.4631
83.5134
83.5637
83.614
83.6643
83.7146
83.7649
83.8152
83.8654
83.9157
83.966
84.0163
84.0666
84.1169
84.1672
84.2175
84.2678
84.3181
84.3684
84.4187
84.469
84.5193
84.5696
84.6199
84.6702
84.7205
84.7708
84.8211
84.8714
84.9217
84.972
85.0223
85.0726
85.1229
85.1732
85.2235
85.2738
85.3241
85.3744
85.4247
85.475
85.5253
85.5756
85.6259
85.6762
85.7265
85.7768
85.8271
85.8774
85.9277
85.9781
86.0284
86.0787
86.129
86.1793
86.2296
86.2799
86.3302
86.3805
86.4308
86.4811
86.5314
86.5818
86.6321
86.6824
86.7327
86.783
86.8333
86.8836
86.9339
86.9842
87.0346
87.0849
87.1352
87.1855
87.2358
87.2861
87.3364
87.3867
87.4371
87.4874
87.5377
87.588
87.6383
87.6886
87.739
87.7893
87.8396
87.8899
87.9402
87.9905
88.0409
88.0912
88.1415
88.1918
88.2421
88.2925
88.3428
88.3931
88.4434
88.4937
88.5441
88.5944
88.6447
88.695
88.7453
88.7957
88.846
88.8963
88.9466
88.997
89.0473
89.0976
89.1479
89.1983
89.2486
89.2989
89.3492
89.3996
89.4499
89.5002
89.5505
89.6009
89.6512
89.7015
89.7518
89.8022
89.8525
89.9028
89.9532
90.0035
90.0538
90.1042
90.1545
90.2048
90.2551
90.3055
90.3558
90.4061
90.4565
90.5068
90.5571
90.6075
90.6578
90.7081
90.7585
90.8088
90.8591
90.9095
90.9598
91.0101
91.0605
91.1108
91.1612
91.2115
91.2618
91.3122
91.3625
91.4128
91.4632
91.5135
91.5639
91.6142
91.6645
91.7149
91.7652
91.8155
91.8659
91.9162
91.9666
92.0169
92.0673
92.1176
92.1679
92.2183
92.2686
92.319
92.3693
92.4196
92.47
92.5203
92.5707
92.621
92.6714
92.7217
92.7721
92.8224
92.8728
92.9231
92.9734
93.0238
93.0741
93.1245
93.1748
93.2252
93.2755
93.3259
93.3762
93.4266
93.4769
93.5273
93.5776
93.628
93.6783
93.7287
93.779
93.8294
93.8797
93.9301
93.9804
94.0308
94.0811
94.1315
94.1818
94.2322
94.2826
94.3329
94.3833
94.4336
94.484
94.5343
94.5847
94.635
94.6854
94.7358
94.7861
94.8365
94.8868
94.9372
94.9875
95.0379
95.0883
95.1386
95.189
95.2393
95.2897
95.3401
95.3904
95.4408
95.4911
95.5415
95.5919
95.6422
95.6926
95.7429
95.7933
95.8437
95.894
95.9444
95.9948
96.0451
96.0955
96.1459
96.1962
96.2466
96.2969
96.3473
96.3977
96.448
96.4984
96.5488
96.5991
96.6495
96.6999
96.7503
96.8006
96.851
96.9014
96.9517
97.0021
97.0525
97.1028
97.1532
97.2036
97.2539
97.3043
97.3547
97.4051
97.4554
97.5058
97.5562
97.6065
97.6569
97.7073
97.7577
97.808
97.8584
97.9088
97.9592
98.0095
98.0599
98.1103
98.1607
98.211
98.2614
98.3118
98.3622
98.4126
98.4629
98.5133
98.5637
98.6141
98.6644
98.7148
98.7652
98.8156
98.866
98.9163
98.9667
99.0171
99.0675
99.1179
99.1682
99.2186
99.269
99.3194
99.3698
99.4202
99.4705
99.5209
99.5713
99.6217
99.6721
99.7225
99.7728
99.8232
99.8736
99.924
99.9744
100.025
100.075
100.126
100.176
100.226
100.277
100.327
100.377
100.428
100.478
100.529
100.579
100.629
100.68
100.73
100.781
100.831
100.881
100.932
100.982
101.033
101.083
101.133
101.184
101.234
101.285
101.335
101.385
101.436
101.486
101.536
101.587
101.637
101.688
101.738
101.788
101.839
101.889
101.94
101.99
102.04
102.091
102.141
102.192
102.242
102.292
102.343
102.393
102.444
102.494
102.544
102.595
102.645
102.696
102.746
102.796
102.847
102.897
102.948
102.998
103.048
103.099
103.149
103.2
103.25
103.3
103.351
103.401
103.452
103.502
103.553
103.603
103.653
103.704
103.754
103.805
103.855
103.905
103.956
104.006
104.057
104.107
104.157
104.208
104.258
104.309
104.359
104.409
104.46
104.51
104.561
104.611
104.662
104.712
104.762
104.813
104.863
104.914
104.964
105.014
105.065
105.115
105.166
105.216
105.266
105.317
105.367
105.418
105.468
105.519
105.569
105.619
105.67
105.72
105.771
105.821
105.871
105.922
105.972
106.023
106.073
106.124
106.174
106.224
106.275
106.325
106.376
106.426
106.477
106.527
106.577
106.628
106.678
106.729
106.779
106.83
106.88
106.93
106.981
107.031
107.082
107.132
107.182
107.233
107.283
107.334
107.384
107.435
107.485
107.535
107.586
107.636
107.687
107.737
107.788
107.838
107.888
107.939
107.989
108.04
108.09
108.141
108.191
108.241
108.292
108.342
108.393
108.443
108.494
108.544
108.595
108.645
108.695
108.746
108.796
108.847
108.897
108.948
108.998
109.048
109.099
109.149
109.2
109.25
109.301
109.351
109.401
109.452
109.502
109.553
109.603
109.654
109.704
109.755
109.805
109.855
109.906
109.956
110.007
110.057
110.108
110.158
110.209
110.259
110.309
110.36
110.41
110.461
110.511
110.562
110.612
110.663
110.713
110.763
110.814
110.864
110.915
110.965
111.016
111.066
111.117
111.167
111.217
111.268
111.318
111.369
111.419
111.47
111.52
111.571
111.621
111.671
111.722
111.772
111.823
111.873
111.924
111.974
112.025
112.075
112.126
112.176
112.226
112.277
112.327
112.378
112.428
112.479
112.529
112.58
112.63
112.681
112.731
112.781
112.832
112.882
112.933
112.983
113.034
113.084
113.135
113.185
113.236
113.286
113.336
113.387
113.437
113.488
113.538
113.589
113.639
113.69
113.74
113.791
113.841
113.892
113.942
113.992
114.043
114.093
114.144
114.194
114.245
114.295
114.346
114.396
114.447
114.497
114.548
114.598
114.649
114.699
114.749
114.8
114.85
114.901
114.951
115.002
115.052
115.103
115.153
115.204
115.254
115.305
115.355
115.406
115.456
115.506
115.557
115.607
115.658
115.708
115.759
115.809
115.86
115.91
115.961
116.011
116.062
116.112
116.163
116.213
116.264
116.314
116.365
116.415
116.465
116.516
116.566
116.617
116.667
116.718
116.768
116.819
116.869
116.92
116.97
117.021
117.071
117.122
117.172
117.223
117.273
117.324
117.374
117.425
117.475
117.526
117.576
117.626
117.677
117.727
117.778
117.828
117.879
117.929
117.98
118.03
118.081
118.131
118.182
118.232
118.283
118.333
118.384
118.434
118.485
118.535
118.586
118.636
118.687
118.737
118.788
118.838
118.889
118.939
118.99
119.04
119.091
119.141
119.192
119.242
119.293
119.343
119.393
119.444
119.494
119.545
119.595
119.646
119.696
119.747
119.797
119.848
119.898
119.949
119.999
120.05
120.1
120.151
120.201
120.252
120.302
120.353
120.403
120.454
120.504
120.555
120.605
120.656
120.706
120.757
120.807
120.858
120.908
120.959
121.009
121.06
121.11
121.161
121.211
121.262
121.312
121.363
121.413
121.464
121.514
121.565
121.615
121.666
121.716
121.767
121.817
121.868
121.918
121.969
122.019
122.07
122.12
122.171
122.221
122.272
122.322
122.373
122.423
122.474
122.524
122.575
122.625
122.676
122.726
122.777
122.827
122.878
122.928
122.979
123.029
123.08
123.131
123.181
123.232
123.282
123.333
123.383
123.434
123.484
123.535
123.585
123.636
123.686
123.737
123.787
123.838
123.888
123.939
123.989
124.04
124.09
124.141
124.191
124.242
124.292
124.343
124.393
124.444
124.494
124.545
124.595
124.646
124.696
124.747
124.797
124.848
124.898
124.949
125
125.05
125.101
125.151
125.202
125.252
125.303
125.353
125.404
125.454
125.505
125.555
125.606
125.656
125.707
125.757
125.808
125.858
125.909
125.959
126.01
126.06
126.111
126.162
126.212
126.263
126.313
126.364
126.414
126.465
126.515
126.566
126.616
126.667
126.717
126.768
126.818
126.869
126.919
126.97
127.02
127.071
127.122
127.172
127.223
127.273
127.324
127.374
127.425
127.475
127.526
127.576
127.627
127.677
127.728
127.778
127.829
127.88
127.93
127.981
128.031
128.082
128.132
128.183
128.233
128.284
128.334
128.385
128.435
128.486
128.536
128.587
128.638
128.688
128.739
128.789
128.84
128.89
128.941
128.991
129.042
129.092
129.143
129.193
129.244
129.295
129.345
129.396
129.446
129.497
129.547
129.598
129.648
129.699
129.749
129.8
129.85
129.901
129.952
130.002
130.053
130.103
130.154
130.204
130.255
130.305
130.356
130.406
130.457
130.508
130.558
130.609
130.659
130.71
130.76
130.811
130.861
130.912
130.962
131.013
131.064
131.114
131.165
131.215
131.266
131.316
131.367
131.417
131.468
131.519
131.569
131.62
131.67
131.721
131.771
131.822
131.872
131.923
131.973
132.024
132.075
132.125
132.176
132.226
132.277
132.327
132.378
132.428
132.479
132.53
132.58
132.631
132.681
132.732
132.782
132.833
132.883
132.934
132.985
133.035
133.086
133.136
133.187
133.237
133.288
133.338
133.389
133.44
133.49
133.541
133.591
133.642
133.692
133.743
133.794
133.844
133.895
133.945
133.996
134.046
134.097
134.147
134.198
134.249
134.299
134.35
134.4
134.451
134.501
134.552
134.603
134.653
134.704
134.754
134.805
134.855
134.906
134.956
135.007
135.058
135.108
135.159
135.209
135.26
135.31
135.361
135.412
135.462
135.513
135.563
135.614
135.664
135.715
135.766
135.816
135.867
135.917
135.968
136.018
136.069
136.12
136.17
136.221
136.271
136.322
136.372
136.423
136.474
136.524
136.575
136.625
136.676
136.726
136.777
136.828
136.878
136.929
136.979
137.03
137.08
137.131
137.182
137.232
137.283
137.333
137.384
137.434
137.485
137.536
137.586
137.637
137.687
137.738
137.789
137.839
137.89
137.94
137.991
138.041
138.092
138.143
138.193
138.244
138.294
138.345
138.395
138.446
138.497
138.547
138.598
138.648
138.699
138.75
138.8
138.851
138.901
138.952
139.002
139.053
139.104
139.154
139.205
139.255
139.306
139.357
139.407
139.458
139.508
139.559
139.61
139.66
139.711
139.761
139.812
139.862
139.913
139.964
140.014
140.065
140.115
140.166
140.217
140.267
140.318
140.368
140.419
140.47
140.52
140.571
140.621
140.672
140.722
140.773
140.824
140.874
140.925
140.975
141.026
141.077
141.127
141.178
141.228
141.279
141.33
141.38
141.431
141.481
141.532
141.583
141.633
141.684
141.734
141.785
141.836
141.886
141.937
141.987
142.038
142.088
142.139
142.19
142.24
142.291
142.341
142.392
142.443
142.493
142.544
142.594
142.645
142.696
142.746
142.797
142.847
142.898
142.949
142.999
143.05
143.1
143.151
143.202
143.252
143.303
143.353
143.404
143.455
143.505
143.556
143.606
143.657
143.708
143.758
143.809
143.859
143.91
143.961
144.011
144.062
144.113
144.163
144.214
144.264
144.315
144.366
144.416
144.467
144.517
144.568
144.619
144.669
144.72
144.77
144.821
144.872
144.922
144.973
145.023
145.074
145.125
145.175
145.226
145.276
145.327
145.378
145.428
145.479
145.53
145.58
145.631
145.681
145.732
145.783
145.833
145.884
145.934
145.985
146.036
146.086
146.137
146.187
146.238
146.289
146.339
146.39
146.441
146.491
146.542
146.592
146.643
146.694
146.744
146.795
146.845
146.896
146.947
146.997
147.048
147.098
147.149
147.2
147.25
147.301
147.352
147.402
147.453
147.503
147.554
147.605
147.655
147.706
147.757
147.807
147.858
147.908
147.959
148.01
148.06
148.111
148.161
148.212
148.263
148.313
148.364
148.415
148.465
148.516
148.566
148.617
148.668
148.718
148.769
148.82
148.87
148.921
148.971
149.022
149.073
149.123
149.174
149.225
149.275
149.326
149.376
149.427
149.478
149.528
149.579
149.629
149.68
149.731
149.781
149.832
149.883
149.933
149.984
150.034
150.085
150.136
150.186
150.237
150.288
150.338
150.389
150.44
150.49
150.541
150.591
150.642
150.693
150.743
150.794
150.845
150.895
150.946
150.996
151.047
151.098
151.148
151.199
151.25
151.3
151.351
151.401
151.452
151.503
151.553
151.604
151.655
151.705
151.756
151.806
151.857
151.908
151.958
152.009
152.06
152.11
152.161
152.212
152.262
152.313
152.363
152.414
152.465
152.515
152.566
152.617
152.667
152.718
152.769
152.819
152.87
152.92
152.971
153.022
153.072
153.123
153.174
153.224
153.275
153.325
153.376
153.427
153.477
153.528
153.579
153.629
153.68
153.731
153.781
153.832
153.882
153.933
153.984
154.034
154.085
154.136
154.186
154.237
154.288
154.338
154.389
154.44
154.49
154.541
154.591
154.642
154.693
154.743
154.794
154.845
154.895
154.946
154.997
155.047
155.098
155.148
155.199
155.25
155.3
155.351
155.402
155.452
155.503
155.554
155.604
155.655
155.706
155.756
155.807
155.857
155.908
155.959
156.009
156.06
156.111
156.161
156.212
156.263
156.313
156.364
156.415
156.465
156.516
156.566
156.617
156.668
156.718
156.769
156.82
156.87
156.921
156.972
157.022
157.073
157.124
157.174
157.225
157.275
157.326
157.377
157.427
157.478
157.529
157.579
157.63
157.681
157.731
157.782
157.833
157.883
157.934
157.985
158.035
158.086
158.136
158.187
158.238
158.288
158.339
158.39
158.44
158.491
158.542
158.592
158.643
158.694
158.744
158.795
158.846
158.896
158.947
158.997
159.048
159.099
159.149
159.2
159.251
159.301
159.352
159.403
159.453
159.504
159.555
159.605
159.656
159.707
159.757
159.808
159.858
159.909
159.96
160.01
160.061
160.112
160.162
160.213
160.264
160.314
160.365
160.416
160.466
160.517
160.568
160.618
160.669
160.72
160.77
160.821
160.872
160.922
160.973
161.023
161.074
161.125
161.175
161.226
161.277
161.327
161.378
161.429
161.479
161.53
161.581
161.631
161.682
161.733
161.783
161.834
161.885
161.935
161.986
162.037
162.087
162.138
162.188
162.239
162.29
162.34
162.391
162.442
162.492
162.543
162.594
162.644
162.695
162.746
162.796
162.847
162.898
162.948
162.999
163.05
163.1
163.151
163.202
163.252
163.303
163.354
163.404
163.455
163.505
163.556
163.607
163.657
163.708
163.759
163.809
163.86
163.911
163.961
164.012
164.063
164.113
164.164
164.215
164.265
164.316
164.367
164.417
164.468
164.519
164.569
164.62
164.671
164.721
164.772
164.822
164.873
164.924
164.974
165.025
165.076
165.126
165.177
165.228
165.278
165.329
165.38
165.43
165.481
165.532
165.582
165.633
165.684
165.734
165.785
165.836
165.886
165.937
165.988
166.038
166.089
166.14
166.19
166.241
166.291
166.342
166.393
166.443
166.494
166.545
166.595
166.646
166.697
166.747
166.798
166.849
166.899
166.95
167.001
167.051
167.102
167.153
167.203
167.254
167.305
167.355
167.406
167.457
167.507
167.558
167.609
167.659
167.71
167.76
167.811
167.862
167.912
167.963
168.014
168.064
168.115
168.166
168.216
168.267
168.318
168.368
168.419
168.47
168.52
168.571
168.622
168.672
168.723
168.774
168.824
168.875
168.926
168.976
169.027
169.077
169.128
169.179
169.229
169.28
169.331
169.381
169.432
169.483
169.533
169.584
169.635
169.685
169.736
169.787
169.837
169.888
169.939
169.989
170.04
170.09
170.141
170.192
170.242
170.293
170.344
170.394
170.445
170.496
170.546
170.597
170.648
170.698
170.749
170.8
170.85
170.901
170.952
171.002
171.053
171.103
171.154
171.205
171.255
171.306
171.357
171.407
171.458
171.509
171.559
171.61
171.661
171.711
171.762
171.813
171.863
171.914
171.965
172.015
172.066
172.116
172.167
172.218
172.268
172.319
172.37
172.42
172.471
172.522
172.572
172.623
172.674
172.724
172.775
172.825
172.876
172.927
172.977
173.028
173.079
173.129
173.18
173.231
173.281
173.332
173.383
173.433
173.484
173.534
173.585
173.636
173.686
173.737
173.788
173.838
173.889
173.94
173.99
174.041
174.092
174.142
174.193
174.243
174.294
174.345
174.395
174.446
174.497
174.547
174.598
174.649
174.699
174.75
174.8
174.851
174.902
174.952
175.003
175.054
175.104
175.155
175.206
175.256
175.307
175.357
175.408
175.459
175.509
175.56
175.611
175.661
175.712
175.762
175.813
175.864
175.914
175.965
176.016
176.066
176.117
176.168
176.218
176.269
176.319
176.37
176.421
176.471
176.522
176.573
176.623
176.674
176.724
176.775
176.826
176.876
176.927
176.978
177.028
177.079
177.129
177.18
177.231
177.281
177.332
177.383
177.433
177.484
177.534
177.585
177.636
177.686
177.737
177.787
177.838
177.889
177.939
177.99
178.041
178.091
178.142
178.192
178.243
178.294
178.344
178.395
178.445
178.496
178.547
178.597
178.648
178.699
178.749
178.8
178.85
178.901
178.952
179.002
179.053
179.103
179.154
179.205
179.255
179.306
179.356
179.407
179.458
179.508
179.559
179.609
179.66
179.711
179.761
179.812
179.862
179.913
179.964
180.014
180.065
180.115
180.166
180.217
180.267
180.318
180.368
180.419
180.47
180.52
180.571
180.621
180.672
180.723
180.773
180.824
180.874
180.925
180.976
181.026
181.077
181.127
181.178
181.229
181.279
181.33
181.38
181.431
181.481
181.532
181.583
181.633
181.684
181.734
181.785
181.836
181.886
181.937
181.987
182.038
182.088
182.139
182.19
182.24
182.291
182.341
182.392
182.442
182.493
182.544
182.594
182.645
182.695
182.746
182.796
182.847
182.898
182.948
182.999
183.049
183.1
183.15
183.201
183.251
183.302
183.353
183.403
183.454
183.504
183.555
183.605
183.656
183.706
183.757
183.808
183.858
183.909
183.959
184.01
184.06
184.111
184.161
184.212
184.263
184.313
184.364
184.414
184.465
184.515
184.566
184.616
184.667
184.717
184.768
184.818
184.869
184.92
184.97
185.021
185.071
185.122
185.172
185.223
185.273
185.324
185.374
185.425
185.475
185.526
185.576
185.627
185.677
185.728
185.779
185.829
185.88
185.93
185.981
186.031
186.082
186.132
186.183
186.233
186.284
186.334
186.385
186.435
186.486
186.536
186.587
186.637
186.688
186.738
186.789
186.839
186.89
186.94
186.991
187.041
187.092
187.142
187.193
187.243
187.294
187.344
187.395
187.445
187.496
187.546
187.596
187.647
187.697
187.748
187.798
187.849
187.899
187.95
188
188.051
188.101
188.152
188.202
188.253
188.303
188.354
188.404
188.454
188.505
188.555
188.606
188.656
188.707
188.757
188.808
188.858
188.909
188.959
189.009
189.06
189.11
189.161
189.211
189.262
189.312
189.362
189.413
189.463
189.514
189.564
189.615
189.665
189.715
189.766
189.816
189.867
189.917
189.968
190.018
190.068
190.119
190.169
190.22
190.27
190.32
190.371
190.421
190.472
190.522
190.572
190.623
190.673
190.724
190.774
190.824
190.875
190.925
190.975
191.026
191.076
191.127
191.177
191.227
191.278
191.328
191.378
191.429
191.479
191.53
191.58
191.63
191.681