/*--------------------------------*- C++ -*----------------------------------*\
  =========                 |
  \\      /  F ield         | OpenFOAM: The Open Source CFD Toolbox
   \\    /   O peration     | Website:  https://openfoam.org
    \\  /    A nd           | Version:  9
     \\/     M anipulation  |
\*---------------------------------------------------------------------------*/
FoamFile
{
    format      ascii;
    class       volScalarField;
    location    "0.027";
    object      p_0;
}
// * * * * * * * * * * * * * * * * * * * * * * * * * * * * * * * * * * * * * //

dimensions      [1 -1 -2 0 0 0 0];

internalField   nonuniform List<scalar> 
10000
(
23124.2
23124
23123.8
23123.6
23123.4
23123.2
23123.1
23122.9
23122.7
23122.5
23122.3
23122.2
23122
23121.8
23121.6
23121.5
23121.3
23121.1
23120.9
23120.7
23120.6
23120.4
23120.2
23120
23119.8
23119.7
23119.5
23119.3
23119.1
23118.9
23118.8
23118.6
23118.4
23118.2
23118
23117.9
23117.7
23117.5
23117.3
23117.1
23117
23116.8
23116.6
23116.4
23116.2
23116.1
23115.9
23115.7
23115.5
23115.3
23115.2
23115
23114.8
23114.6
23114.4
23114.3
23114.1
23113.9
23113.7
23113.5
23113.3
23113.2
23113
23112.8
23112.6
23112.4
23112.3
23112.1
23111.9
23111.7
23111.5
23111.3
23111.2
23111
23110.8
23110.6
23110.4
23110.2
23110.1
23109.9
23109.7
23109.5
23109.3
23109.1
23109
23108.8
23108.6
23108.4
23108.2
23108
23107.9
23107.7
23107.5
23107.3
23107.1
23106.9
23106.8
23106.6
23106.4
23106.2
23106
23105.8
23105.6
23105.5
23105.3
23105.1
23104.9
23104.7
23104.5
23104.4
23104.2
23104
23103.8
23103.6
23103.4
23103.2
23103.1
23102.9
23102.7
23102.5
23102.3
23102.1
23101.9
23101.8
23101.6
23101.4
23101.2
23101
23100.8
23100.6
23100.4
23100.3
23100.1
23099.9
23099.7
23099.5
23099.3
23099.1
23098.9
23098.8
23098.6
23098.4
23098.2
23098
23097.8
23097.6
23097.4
23097.3
23097.1
23096.9
23096.7
23096.5
23096.3
23096.1
23095.9
23095.7
23095.6
23095.4
23095.2
23095
23094.8
23094.6
23094.4
23094.2
23094
23093.9
23093.7
23093.5
23093.3
23093.1
23092.9
23092.7
23092.5
23092.3
23092.1
23092
23091.8
23091.6
23091.4
23091.2
23091
23090.8
23090.6
23090.4
23090.2
23090.1
23089.9
23089.7
23089.5
23089.3
23089.1
23088.9
23088.7
23088.5
23088.3
23088.1
23087.9
23087.8
23087.6
23087.4
23087.2
23087
23086.8
23086.6
23086.4
23086.2
23086
23085.8
23085.6
23085.4
23085.3
23085.1
23084.9
23084.7
23084.5
23084.3
23084.1
23083.9
23083.7
23083.5
23083.3
23083.1
23082.9
23082.7
23082.5
23082.3
23082.2
23082
23081.8
23081.6
23081.4
23081.2
23081
23080.8
23080.6
23080.4
23080.2
23080
23079.8
23079.6
23079.4
23079.2
23079
23078.8
23078.6
23078.5
23078.3
23078.1
23077.9
23077.7
23077.5
23077.3
23077.1
23076.9
23076.7
23076.5
23076.3
23076.1
23075.9
23075.7
23075.5
23075.3
23075.1
23074.9
23074.7
23074.5
23074.3
23074.1
23073.9
23073.7
23073.5
23073.3
23073.1
23072.9
23072.7
23072.5
23072.4
23072.2
23072
23071.8
23071.6
23071.4
23071.2
23071
23070.8
23070.6
23070.4
23070.2
23070
23069.8
23069.6
23069.4
23069.2
23069
23068.8
23068.6
23068.4
23068.2
23068
23067.8
23067.6
23067.4
23067.2
23067
23066.8
23066.6
23066.4
23066.2
23066
23065.8
23065.6
23065.4
23065.2
23065
23064.8
23064.6
23064.4
23064.2
23064
23063.8
23063.6
23063.4
23063.2
23063
23062.8
23062.6
23062.4
23062.2
23062
23061.8
23061.6
23061.4
23061.1
23060.9
23060.7
23060.5
23060.3
23060.1
23059.9
23059.7
23059.5
23059.3
23059.1
23058.9
23058.7
23058.5
23058.3
23058.1
23057.9
23057.7
23057.5
23057.3
23057.1
23056.9
23056.7
23056.5
23056.3
23056.1
23055.9
23055.7
23055.5
23055.3
23055
23054.8
23054.6
23054.4
23054.2
23054
23053.8
23053.6
23053.4
23053.2
23053
23052.8
23052.6
23052.4
23052.2
23052
23051.8
23051.6
23051.4
23051.1
23050.9
23050.7
23050.5
23050.3
23050.1
23049.9
23049.7
23049.5
23049.3
23049.1
23048.9
23048.7
23048.5
23048.3
23048.1
23047.8
23047.6
23047.4
23047.2
23047
23046.8
23046.6
23046.4
23046.2
23046
23045.8
23045.6
23045.4
23045.1
23044.9
23044.7
23044.5
23044.3
23044.1
23043.9
23043.7
23043.5
23043.3
23043.1
23042.9
23042.6
23042.4
23042.2
23042
23041.8
23041.6
23041.4
23041.2
23041
23040.8
23040.5
23040.3
23040.1
23039.9
23039.7
23039.5
23039.3
23039.1
23038.9
23038.7
23038.4
23038.2
23038
23037.8
23037.6
23037.4
23037.2
23037
23036.8
23036.5
23036.3
23036.1
23035.9
23035.7
23035.5
23035.3
23035.1
23034.9
23034.6
23034.4
23034.2
23034
23033.8
23033.6
23033.4
23033.2
23032.9
23032.7
23032.5
23032.3
23032.1
23031.9
23031.7
23031.5
23031.2
23031
23030.8
23030.6
23030.4
23030.2
23030
23029.7
23029.5
23029.3
23029.1
23028.9
23028.7
23028.5
23028.2
23028
23027.8
23027.6
23027.4
23027.2
23027
23026.7
23026.5
23026.3
23026.1
23025.9
23025.7
23025.5
23025.2
23025
23024.8
23024.6
23024.4
23024.2
23023.9
23023.7
23023.5
23023.3
23023.1
23022.9
23022.7
23022.4
23022.2
23022
23021.8
23021.6
23021.4
23021.1
23020.9
23020.7
23020.5
23020.3
23020.1
23019.8
23019.6
23019.4
23019.2
23019
23018.7
23018.5
23018.3
23018.1
23017.9
23017.7
23017.4
23017.2
23017
23016.8
23016.6
23016.3
23016.1
23015.9
23015.7
23015.5
23015.3
23015
23014.8
23014.6
23014.4
23014.2
23013.9
23013.7
23013.5
23013.3
23013.1
23012.8
23012.6
23012.4
23012.2
23012
23011.7
23011.5
23011.3
23011.1
23010.9
23010.6
23010.4
23010.2
23010
23009.8
23009.5
23009.3
23009.1
23008.9
23008.6
23008.4
23008.2
23008
23007.8
23007.5
23007.3
23007.1
23006.9
23006.7
23006.4
23006.2
23006
23005.8
23005.5
23005.3
23005.1
23004.9
23004.7
23004.4
23004.2
23004
23003.8
23003.5
23003.3
23003.1
23002.9
23002.6
23002.4
23002.2
23002
23001.8
23001.5
23001.3
23001.1
23000.9
23000.6
23000.4
23000.2
23000
22999.7
22999.5
22999.3
22999.1
22998.8
22998.6
22998.4
22998.2
22997.9
22997.7
22997.5
22997.3
22997
22996.8
22996.6
22996.4
22996.1
22995.9
22995.7
22995.5
22995.2
22995
22994.8
22994.6
22994.3
22994.1
22993.9
22993.7
22993.4
22993.2
22993
22992.7
22992.5
22992.3
22992.1
22991.8
22991.6
22991.4
22991.2
22990.9
22990.7
22990.5
22990.2
22990
22989.8
22989.6
22989.3
22989.1
22988.9
22988.7
22988.4
22988.2
22988
22987.7
22987.5
22987.3
22987.1
22986.8
22986.6
22986.4
22986.1
22985.9
22985.7
22985.4
22985.2
22985
22984.8
22984.5
22984.3
22984.1
22983.8
22983.6
22983.4
22983.2
22982.9
22982.7
22982.5
22982.2
22982
22981.8
22981.5
22981.3
22981.1
22980.8
22980.6
22980.4
22980.2
22979.9
22979.7
22979.5
22979.2
22979
22978.8
22978.5
22978.3
22978.1
22977.8
22977.6
22977.4
22977.1
22976.9
22976.7
22976.4
22976.2
22976
22975.8
22975.5
22975.3
22975.1
22974.8
22974.6
22974.4
22974.1
22973.9
22973.7
22973.4
22973.2
22973
22972.7
22972.5
22972.3
22972
22971.8
22971.6
22971.3
22971.1
22970.8
22970.6
22970.4
22970.1
22969.9
22969.7
22969.4
22969.2
22969
22968.7
22968.5
22968.3
22968
22967.8
22967.6
22967.3
22967.1
22966.9
22966.6
22966.4
22966.2
22965.9
22965.7
22965.4
22965.2
22965
22964.7
22964.5
22964.3
22964
22963.8
22963.6
22963.3
22963.1
22962.8
22962.6
22962.4
22962.1
22961.9
22961.7
22961.4
22961.2
22960.9
22960.7
22960.5
22960.2
22960
22959.8
22959.5
22959.3
22959
22958.8
22958.6
22958.3
22958.1
22957.9
22957.6
22957.4
22957.1
22956.9
22956.7
22956.4
22956.2
22955.9
22955.7
22955.5
22955.2
22955
22954.7
22954.5
22954.3
22954
22953.8
22953.5
22953.3
22953.1
22952.8
22952.6
22952.3
22952.1
22951.9
22951.6
22951.4
22951.1
22950.9
22950.7
22950.4
22950.2
22949.9
22949.7
22949.5
22949.2
22949
22948.7
22948.5
22948.2
22948
22947.8
22947.5
22947.3
22947
22946.8
22946.6
22946.3
22946.1
22945.8
22945.6
22945.3
22945.1
22944.9
22944.6
22944.4
22944.1
22943.9
22943.6
22943.4
22943.2
22942.9
22942.7
22942.4
22942.2
22941.9
22941.7
22941.4
22941.2
22941
22940.7
22940.5
22940.2
22940
22939.7
22939.5
22939.3
22939
22938.8
22938.5
22938.3
22938
22937.8
22937.5
22937.3
22937
22936.8
22936.6
22936.3
22936.1
22935.8
22935.6
22935.3
22935.1
22934.8
22934.6
22934.3
22934.1
22933.9
22933.6
22933.4
22933.1
22932.9
22932.6
22932.4
22932.1
22931.9
22931.6
22931.4
22931.1
22930.9
22930.6
22930.4
22930.1
22929.9
22929.7
22929.4
22929.2
22928.9
22928.7
22928.4
22928.2
22927.9
22927.7
22927.4
22927.2
22926.9
22926.7
22926.4
22926.2
22925.9
22925.7
22925.4
22925.2
22924.9
22924.7
22924.4
22924.2
22923.9
22923.7
22923.4
22923.2
22922.9
22922.7
22922.4
22922.2
22921.9
22921.7
22921.4
22921.2
22920.9
22920.7
22920.4
22920.2
22919.9
22919.7
22919.4
22919.2
22918.9
22918.7
22918.4
22918.2
22917.9
22917.7
22917.4
22917.2
22916.9
22916.7
22916.4
22916.2
22915.9
22915.7
22915.4
22915.2
22914.9
22914.6
22914.4
22914.1
22913.9
22913.6
22913.4
22913.1
22912.9
22912.6
22912.4
22912.1
22911.9
22911.6
22911.4
22911.1
22910.9
22910.6
22910.3
22910.1
22909.8
22909.6
22909.3
22909.1
22908.8
22908.6
22908.3
22908.1
22907.8
22907.6
22907.3
22907
22906.8
22906.5
22906.3
22906
22905.8
22905.5
22905.3
22905
22904.7
22904.5
22904.2
22904
22903.7
22903.5
22903.2
22903
22902.7
22902.4
22902.2
22901.9
22901.7
22901.4
22901.2
22900.9
22900.6
22900.4
22900.1
22899.9
22899.6
22899.4
22899.1
22898.8
22898.6
22898.3
22898.1
22897.8
22897.6
22897.3
22897
22896.8
22896.5
22896.3
22896
22895.8
22895.5
22895.2
22895
22894.7
22894.5
22894.2
22893.9
22893.7
22893.4
22893.2
22892.9
22892.6
22892.4
22892.1
22891.9
22891.6
22891.3
22891.1
22890.8
22890.6
22890.3
22890.1
22889.8
22889.5
22889.3
22889
22888.7
22888.5
22888.2
22888
22887.7
22887.4
22887.2
22886.9
22886.7
22886.4
22886.1
22885.9
22885.6
22885.4
22885.1
22884.8
22884.6
22884.3
22884
22883.8
22883.5
22883.3
22883
22882.7
22882.5
22882.2
22882
22881.7
22881.4
22881.2
22880.9
22880.6
22880.4
22880.1
22879.8
22879.6
22879.3
22879.1
22878.8
22878.5
22878.3
22878
22877.7
22877.5
22877.2
22876.9
22876.7
22876.4
22876.2
22875.9
22875.6
22875.4
22875.1
22874.8
22874.6
22874.3
22874
22873.8
22873.5
22873.2
22873
22872.7
22872.4
22872.2
22871.9
22871.7
22871.4
22871.1
22870.9
22870.6
22870.3
22870.1
22869.8
22869.5
22869.3
22869
22868.7
22868.5
22868.2
22867.9
22867.7
22867.4
22867.1
22866.9
22866.6
22866.3
22866.1
22865.8
22865.5
22865.3
22865
22864.7
22864.4
22864.2
22863.9
22863.6
22863.4
22863.1
22862.8
22862.6
22862.3
22862
22861.8
22861.5
22861.2
22861
22860.7
22860.4
22860.2
22859.9
22859.6
22859.3
22859.1
22858.8
22858.5
22858.3
22858
22857.7
22857.5
22857.2
22856.9
22856.6
22856.4
22856.1
22855.8
22855.6
22855.3
22855
22854.8
22854.5
22854.2
22853.9
22853.7
22853.4
22853.1
22852.9
22852.6
22852.3
22852
22851.8
22851.5
22851.2
22851
22850.7
22850.4
22850.1
22849.9
22849.6
22849.3
22849.1
22848.8
22848.5
22848.2
22848
22847.7
22847.4
22847.1
22846.9
22846.6
22846.3
22846.1
22845.8
22845.5
22845.2
22845
22844.7
22844.4
22844.1
22843.9
22843.6
22843.3
22843
22842.8
22842.5
22842.2
22841.9
22841.7
22841.4
22841.1
22840.8
22840.6
22840.3
22840
22839.7
22839.5
22839.2
22838.9
22838.6
22838.4
22838.1
22837.8
22837.5
22837.3
22837
22836.7
22836.4
22836.2
22835.9
22835.6
22835.3
22835.1
22834.8
22834.5
22834.2
22834
22833.7
22833.4
22833.1
22832.8
22832.6
22832.3
22832
22831.7
22831.5
22831.2
22830.9
22830.6
22830.3
22830.1
22829.8
22829.5
22829.2
22829
22828.7
22828.4
22828.1
22827.8
22827.6
22827.3
22827
22826.7
22826.4
22826.2
22825.9
22825.6
22825.3
22825.1
22824.8
22824.5
22824.2
22823.9
22823.7
22823.4
22823.1
22822.8
22822.5
22822.3
22822
22821.7
22821.4
22821.1
22820.9
22820.6
22820.3
22820
22819.7
22819.5
22819.2
22818.9
22818.6
22818.3
22818
22817.8
22817.5
22817.2
22816.9
22816.6
22816.4
22816.1
22815.8
22815.5
22815.2
22814.9
22814.7
22814.4
22814.1
22813.8
22813.5
22813.3
22813
22812.7
22812.4
22812.1
22811.8
22811.6
22811.3
22811
22810.7
22810.4
22810.1
22809.9
22809.6
22809.3
22809
22808.7
22808.4
22808.1
22807.9
22807.6
22807.3
22807
22806.7
22806.4
22806.2
22805.9
22805.6
22805.3
22805
22804.7
22804.4
22804.2
22803.9
22803.6
22803.3
22803
22802.7
22802.4
22802.2
22801.9
22801.6
22801.3
22801
22800.7
22800.4
22800.2
22799.9
22799.6
22799.3
22799
22798.7
22798.4
22798.2
22797.9
22797.6
22797.3
22797
22796.7
22796.4
22796.1
22795.9
22795.6
22795.3
22795
22794.7
22794.4
22794.1
22793.8
22793.6
22793.3
22793
22792.7
22792.4
22792.1
22791.8
22791.5
22791.2
22791
22790.7
22790.4
22790.1
22789.8
22789.5
22789.2
22788.9
22788.6
22788.3
22788.1
22787.8
22787.5
22787.2
22786.9
22786.6
22786.3
22786
22785.7
22785.4
22785.2
22784.9
22784.6
22784.3
22784
22783.7
22783.4
22783.1
22782.8
22782.5
22782.2
22782
22781.7
22781.4
22781.1
22780.8
22780.5
22780.2
22779.9
22779.6
22779.3
22779
22778.7
22778.5
22778.2
22777.9
22777.6
22777.3
22777
22776.7
22776.4
22776.1
22775.8
22775.5
22775.2
22774.9
22774.6
22774.3
22774.1
22773.8
22773.5
22773.2
22772.9
22772.6
22772.3
22772
22771.7
22771.4
22771.1
22770.8
22770.5
22770.2
22769.9
22769.6
22769.3
22769.1
22768.8
22768.5
22768.2
22767.9
22767.6
22767.3
22767
22766.7
22766.4
22766.1
22765.8
22765.5
22765.2
22764.9
22764.6
22764.3
22764
22763.7
22763.4
22763.1
22762.8
22762.5
22762.2
22761.9
22761.6
22761.4
22761.1
22760.8
22760.5
22760.2
22759.9
22759.6
22759.3
22759
22758.7
22758.4
22758.1
22757.8
22757.5
22757.2
22756.9
22756.6
22756.3
22756
22755.7
22755.4
22755.1
22754.8
22754.5
22754.2
22753.9
22753.6
22753.3
22753
22752.7
22752.4
22752.1
22751.8
22751.5
22751.2
22750.9
22750.6
22750.3
22750
22749.7
22749.4
22749.1
22748.8
22748.5
22748.2
22747.9
22747.6
22747.3
22747
22746.7
22746.4
22746.1
22745.8
22745.5
22745.2
22744.9
22744.6
22744.3
22744
22743.7
22743.4
22743.1
22742.8
22742.5
22742.2
22741.9
22741.6
22741.3
22741
22740.7
22740.4
22740.1
22739.7
22739.4
22739.1
22738.8
22738.5
22738.2
22737.9
22737.6
22737.3
22737
22736.7
22736.4
22736.1
22735.8
22735.5
22735.2
22734.9
22734.6
22734.3
22734
22733.7
22733.4
22733.1
22732.8
22732.5
22732.1
22731.8
22731.5
22731.2
22730.9
22730.6
22730.3
22730
22729.7
22729.4
22729.1
22728.8
22728.5
22728.2
22727.9
22727.6
22727.3
22727
22726.6
22726.3
22726
22725.7
22725.4
22725.1
22724.8
22724.5
22724.2
22723.9
22723.6
22723.3
22723
22722.7
22722.3
22722
22721.7
22721.4
22721.1
22720.8
22720.5
22720.2
22719.9
22719.6
22719.3
22719
22718.7
22718.3
22718
22717.7
22717.4
22717.1
22716.8
22716.5
22716.2
22715.9
22715.6
22715.3
22714.9
22714.6
22714.3
22714
22713.7
22713.4
22713.1
22712.8
22712.5
22712.2
22711.8
22711.5
22711.2
22710.9
22710.6
22710.3
22710
22709.7
22709.4
22709
22708.7
22708.4
22708.1
22707.8
22707.5
22707.2
22706.9
22706.6
22706.2
22705.9
22705.6
22705.3
22705
22704.7
22704.4
22704.1
22703.7
22703.4
22703.1
22702.8
22702.5
22702.2
22701.9
22701.6
22701.2
22700.9
22700.6
22700.3
22700
22699.7
22699.4
22699.1
22698.7
22698.4
22698.1
22697.8
22697.5
22697.2
22696.9
22696.5
22696.2
22695.9
22695.6
22695.3
22695
22694.7
22694.3
22694
22693.7
22693.4
22693.1
22692.8
22692.4
22692.1
22691.8
22691.5
22691.2
22690.9
22690.6
22690.2
22689.9
22689.6
22689.3
22689
22688.7
22688.3
22688
22687.7
22687.4
22687.1
22686.8
22686.4
22686.1
22685.8
22685.5
22685.2
22684.9
22684.5
22684.2
22683.9
22683.6
22683.3
22683
22682.6
22682.3
22682
22681.7
22681.4
22681
22680.7
22680.4
22680.1
22679.8
22679.4
22679.1
22678.8
22678.5
22678.2
22677.9
22677.5
22677.2
22676.9
22676.6
22676.3
22675.9
22675.6
22675.3
22675
22674.7
22674.3
22674
22673.7
22673.4
22673.1
22672.7
22672.4
22672.1
22671.8
22671.5
22671.1
22670.8
22670.5
22670.2
22669.9
22669.5
22669.2
22668.9
22668.6
22668.2
22667.9
22667.6
22667.3
22667
22666.6
22666.3
22666
22665.7
22665.3
22665
22664.7
22664.4
22664.1
22663.7
22663.4
22663.1
22662.8
22662.4
22662.1
22661.8
22661.5
22661.2
22660.8
22660.5
22660.2
22659.9
22659.5
22659.2
22658.9
22658.6
22658.2
22657.9
22657.6
22657.3
22656.9
22656.6
22656.3
22656
22655.6
22655.3
22655
22654.7
22654.3
22654
22653.7
22653.4
22653
22652.7
22652.4
22652.1
22651.7
22651.4
22651.1
22650.8
22650.4
22650.1
22649.8
22649.5
22649.1
22648.8
22648.5
22648.2
22647.8
22647.5
22647.2
22646.8
22646.5
22646.2
22645.9
22645.5
22645.2
22644.9
22644.6
22644.2
22643.9
22643.6
22643.2
22642.9
22642.6
22642.3
22641.9
22641.6
22641.3
22640.9
22640.6
22640.3
22640
22639.6
22639.3
22639
22638.6
22638.3
22638
22637.7
22637.3
22637
22636.7
22636.3
22636
22635.7
22635.4
22635
22634.7
22634.4
22634
22633.7
22633.4
22633
22632.7
22632.4
22632.1
22631.7
22631.4
22631.1
22630.7
22630.4
22630.1
22629.7
22629.4
22629.1
22628.7
22628.4
22628.1
22627.7
22627.4
22627.1
22626.8
22626.4
22626.1
22625.8
22625.4
22625.1
22624.8
22624.4
22624.1
22623.8
22623.4
22623.1
22622.8
22622.4
22622.1
22621.8
22621.4
22621.1
22620.8
22620.4
22620.1
22619.8
22619.4
22619.1
22618.8
22618.4
22618.1
22617.8
22617.4
22617.1
22616.8
22616.4
22616.1
22615.8
22615.4
22615.1
22614.8
22614.4
22614.1
22613.7
22613.4
22613.1
22612.7
22612.4
22612.1
22611.7
22611.4
22611.1
22610.7
22610.4
22610.1
22609.7
22609.4
22609
22608.7
22608.4
22608
22607.7
22607.4
22607
22606.7
22606.4
22606
22605.7
22605.3
22605
22604.7
22604.3
22604
22603.7
22603.3
22603
22602.6
22602.3
22602
22601.6
22601.3
22601
22600.6
22600.3
22599.9
22599.6
22599.3
22598.9
22598.6
22598.2
22597.9
22597.6
22597.2
22596.9
22596.5
22596.2
22595.9
22595.5
22595.2
22594.9
22594.5
22594.2
22593.8
22593.5
22593.2
22592.8
22592.5
22592.1
22591.8
22591.5
22591.1
22590.8
22590.4
22590.1
22589.7
22589.4
22589.1
22588.7
22588.4
22588
22587.7
22587.4
22587
22586.7
22586.3
22586
22585.7
22585.3
22585
22584.6
22584.3
22583.9
22583.6
22583.3
22582.9
22582.6
22582.2
22581.9
22581.5
22581.2
22580.9
22580.5
22580.2
22579.8
22579.5
22579.1
22578.8
22578.5
22578.1
22577.8
22577.4
22577.1
22576.7
22576.4
22576
22575.7
22575.4
22575
22574.7
22574.3
22574
22573.6
22573.3
22572.9
22572.6
22572.3
22571.9
22571.6
22571.2
22570.9
22570.5
22570.2
22569.8
22569.5
22569.1
22568.8
22568.5
22568.1
22567.8
22567.4
22567.1
22566.7
22566.4
22566
22565.7
22565.3
22565
22564.6
22564.3
22563.9
22563.6
22563.3
22562.9
22562.6
22562.2
22561.9
22561.5
22561.2
22560.8
22560.5
22560.1
22559.8
22559.4
22559.1
22558.7
22558.4
22558
22557.7
22557.3
22557
22556.6
22556.3
22555.9
22555.6
22555.2
22554.9
22554.5
22554.2
22553.8
22553.5
22553.2
22552.8
22552.5
22552.1
22551.8
22551.4
22551.1
22550.7
22550.4
22550
22549.7
22549.3
22548.9
22548.6
22548.2
22547.9
22547.5
22547.2
22546.8
22546.5
22546.1
22545.8
22545.4
22545.1
22544.7
22544.4
22544
22543.7
22543.3
22543
22542.6
22542.3
22541.9
22541.6
22541.2
22540.9
22540.5
22540.2
22539.8
22539.5
22539.1
22538.7
22538.4
22538
22537.7
22537.3
22537
22536.6
22536.3
22535.9
22535.6
22535.2
22534.9
22534.5
22534.2
22533.8
22533.4
22533.1
22532.7
22532.4
22532
22531.7
22531.3
22531
22530.6
22530.3
22529.9
22529.5
22529.2
22528.8
22528.5
22528.1
22527.8
22527.4
22527.1
22526.7
22526.3
22526
22525.6
22525.3
22524.9
22524.6
22524.2
22523.9
22523.5
22523.1
22522.8
22522.4
22522.1
22521.7
22521.4
22521
22520.6
22520.3
22519.9
22519.6
22519.2
22518.9
22518.5
22518.1
22517.8
22517.4
22517.1
22516.7
22516.3
22516
22515.6
22515.3
22514.9
22514.6
22514.2
22513.8
22513.5
22513.1
22512.8
22512.4
22512
22511.7
22511.3
22511
22510.6
22510.3
22509.9
22509.5
22509.2
22508.8
22508.5
22508.1
22507.7
22507.4
22507
22506.7
22506.3
22505.9
22505.6
22505.2
22504.8
22504.5
22504.1
22503.8
22503.4
22503
22502.7
22502.3
22502
22501.6
22501.2
22500.9
22500.5
22500.2
22499.8
22499.4
22499.1
22498.7
22498.3
22498
22497.6
22497.3
22496.9
22496.5
22496.2
22495.8
22495.4
22495.1
22494.7
22494.4
22494
22493.6
22493.3
22492.9
22492.5
22492.2
22491.8
22491.4
22491.1
22490.7
22490.4
22490
22489.6
22489.3
22488.9
22488.5
22488.2
22487.8
22487.4
22487.1
22486.7
22486.3
22486
22485.6
22485.3
22484.9
22484.5
22484.2
22483.8
22483.4
22483.1
22482.7
22482.3
22482
22481.6
22481.2
22480.9
22480.5
22480.1
22479.8
22479.4
22479
22478.7
22478.3
22477.9
22477.6
22477.2
22476.8
22476.5
22476.1
22475.7
22475.4
22475
22474.6
22474.3
22473.9
22473.5
22473.2
22472.8
22472.4
22472.1
22471.7
22471.3
22470.9
22470.6
22470.2
22469.8
22469.5
22469.1
22468.7
22468.4
22468
22467.6
22467.3
22466.9
22466.5
22466.2
22465.8
22465.4
22465
22464.7
22464.3
22463.9
22463.6
22463.2
22462.8
22462.5
22462.1
22461.7
22461.3
22461
22460.6
22460.2
22459.9
22459.5
22459.1
22458.7
22458.4
22458
22457.6
22457.3
22456.9
22456.5
22456.2
22455.8
22455.4
22455
22454.7
22454.3
22453.9
22453.5
22453.2
22452.8
22452.4
22452.1
22451.7
22451.3
22450.9
22450.6
22450.2
22449.8
22449.4
22449.1
22448.7
22448.3
22448
22447.6
22447.2
22446.8
22446.5
22446.1
22445.7
22445.3
22445
22444.6
22444.2
22443.8
22443.5
22443.1
22442.7
22442.3
22442
22441.6
22441.2
22440.8
22440.5
22440.1
22439.7
22439.3
22439
22438.6
22438.2
22437.8
22437.5
22437.1
22436.7
22436.3
22436
22435.6
22435.2
22434.8
22434.5
22434.1
22433.7
22433.3
22433
22432.6
22432.2
22431.8
22431.5
22431.1
22430.7
22430.3
22429.9
22429.6
22429.2
22428.8
22428.4
22428.1
22427.7
22427.3
22426.9
22426.5
22426.2
22425.8
22425.4
22425
22424.7
22424.3
22423.9
22423.5
22423.1
22422.8
22422.4
22422
22421.6
22421.2
22420.9
22420.5
22420.1
22419.7
22419.3
22419
22418.6
22418.2
22417.8
22417.5
22417.1
22416.7
22416.3
22415.9
22415.6
22415.2
22414.8
22414.4
22414
22413.6
22413.3
22412.9
22412.5
22412.1
22411.7
22411.4
22411
22410.6
22410.2
22409.8
22409.5
22409.1
22408.7
22408.3
22407.9
22407.5
22407.2
22406.8
22406.4
22406
22405.6
22405.3
22404.9
22404.5
22404.1
22403.7
22403.3
22403
22402.6
22402.2
22401.8
22401.4
22401
22400.7
22400.3
22399.9
22399.5
22399.1
22398.7
22398.4
22398
22397.6
22397.2
22396.8
22396.4
22396.1
22395.7
22395.3
22394.9
22394.5
22394.1
22393.7
22393.4
22393
22392.6
22392.2
22391.8
22391.4
22391
22390.7
22390.3
22389.9
22389.5
22389.1
22388.7
22388.3
22388
22387.6
22387.2
22386.8
22386.4
22386
22385.6
22385.3
22384.9
22384.5
22384.1
22383.7
22383.3
22382.9
22382.6
22382.2
22381.8
22381.4
22381
22380.6
22380.2
22379.8
22379.5
22379.1
22378.7
22378.3
22377.9
22377.5
22377.1
22376.7
22376.3
22376
22375.6
22375.2
22374.8
22374.4
22374
22373.6
22373.2
22372.8
22372.5
22372.1
22371.7
22371.3
22370.9
22370.5
22370.1
22369.7
22369.3
22369
22368.6
22368.2
22367.8
22367.4
22367
22366.6
22366.2
22365.8
22365.4
22365
22364.7
22364.3
22363.9
22363.5
22363.1
22362.7
22362.3
22361.9
22361.5
22361.1
22360.7
22360.4
22360
22359.6
22359.2
22358.8
22358.4
22358
22357.6
22357.2
22356.8
22356.4
22356
22355.6
22355.3
22354.9
22354.5
22354.1
22353.7
22353.3
22352.9
22352.5
22352.1
22351.7
22351.3
22350.9
22350.5
22350.1
22349.8
22349.4
22349
22348.6
22348.2
22347.8
22347.4
22347
22346.6
22346.2
22345.8
22345.4
22345
22344.6
22344.2
22343.8
22343.4
22343
22342.6
22342.3
22341.9
22341.5
22341.1
22340.7
22340.3
22339.9
22339.5
22339.1
22338.7
22338.3
22337.9
22337.5
22337.1
22336.7
22336.3
22335.9
22335.5
22335.1
22334.7
22334.3
22333.9
22333.5
22333.1
22332.7
22332.3
22332
22331.6
22331.2
22330.8
22330.4
22330
22329.6
22329.2
22328.8
22328.4
22328
22327.6
22327.2
22326.8
22326.4
22326
22325.6
22325.2
22324.8
22324.4
22324
22323.6
22323.2
22322.8
22322.4
22322
22321.6
22321.2
22320.8
22320.4
22320
22319.6
22319.2
22318.8
22318.4
22318
22317.6
22317.2
22316.8
22316.4
22316
22315.6
22315.2
22314.8
22314.4
22314
22313.6
22313.2
22312.8
22312.4
22312
22311.6
22311.2
22310.8
22310.4
22310
22309.6
22309.2
22308.8
22308.4
22308
22307.6
22307.2
22306.8
22306.4
22306
22305.6
22305.2
22304.8
22304.4
22304
22303.6
22303.1
22302.7
22302.3
22301.9
22301.5
22301.1
22300.7
22300.3
22299.9
22299.5
22299.1
22298.7
22298.3
22297.9
22297.5
22297.1
22296.7
22296.3
22295.9
22295.5
22295.1
22294.7
22294.3
22293.9
22293.5
22293.1
22292.6
22292.2
22291.8
22291.4
22291
22290.6
22290.2
22289.8
22289.4
22289
22288.6
22288.2
22287.8
22287.4
22287
22286.6
22286.2
22285.8
22285.4
22284.9
22284.5
22284.1
22283.7
22283.3
22282.9
22282.5
22282.1
22281.7
22281.3
22280.9
22280.5
22280.1
22279.7
22279.3
22278.8
22278.4
22278
22277.6
22277.2
22276.8
22276.4
22276
22275.6
22275.2
22274.8
22274.4
22274
22273.5
22273.1
22272.7
22272.3
22271.9
22271.5
22271.1
22270.7
22270.3
22269.9
22269.5
22269
22268.6
22268.2
22267.8
22267.4
22267
22266.6
22266.2
22265.8
22265.4
22265
22264.5
22264.1
22263.7
22263.3
22262.9
22262.5
22262.1
22261.7
22261.3
22260.9
22260.4
22260
22259.6
22259.2
22258.8
22258.4
22258
22257.6
22257.2
22256.7
22256.3
22255.9
22255.5
22255.1
22254.7
22254.3
22253.9
22253.4
22253
22252.6
22252.2
22251.8
22251.4
22251
22250.6
22250.2
22249.7
22249.3
22248.9
22248.5
22248.1
22247.7
22247.3
22246.9
22246.4
22246
22245.6
22245.2
22244.8
22244.4
22244
22243.5
22243.1
22242.7
22242.3
22241.9
22241.5
22241.1
22240.6
22240.2
22239.8
22239.4
22239
22238.6
22238.2
22237.7
22237.3
22236.9
22236.5
22236.1
22235.7
22235.3
22234.8
22234.4
22234
22233.6
22233.2
22232.8
22232.4
22231.9
22231.5
22231.1
22230.7
22230.3
22229.9
22229.4
22229
22228.6
22228.2
22227.8
22227.4
22226.9
22226.5
22226.1
22225.7
22225.3
22224.9
22224.4
22224
22223.6
22223.2
22222.8
22222.4
22221.9
22221.5
22221.1
22220.7
22220.3
22219.9
22219.4
22219
22218.6
22218.2
22217.8
22217.4
22216.9
22216.5
22216.1
22215.7
22215.3
22214.8
22214.4
22214
22213.6
22213.2
22212.7
22212.3
22211.9
22211.5
22211.1
22210.7
22210.2
22209.8
22209.4
22209
22208.6
22208.1
22207.7
22207.3
22206.9
22206.5
22206
22205.6
22205.2
22204.8
22204.4
22203.9
22203.5
22203.1
22202.7
22202.3
22201.8
22201.4
22201
22200.6
22200.2
22199.7
22199.3
22198.9
22198.5
22198.1
22197.6
22197.2
22196.8
22196.4
22195.9
22195.5
22195.1
22194.7
22194.3
22193.8
22193.4
22193
22192.6
22192.2
22191.7
22191.3
22190.9
22190.5
22190
22189.6
22189.2
22188.8
22188.4
22187.9
22187.5
22187.1
22186.7
22186.2
22185.8
22185.4
22185
22184.5
22184.1
22183.7
22183.3
22182.9
22182.4
22182
22181.6
22181.2
22180.7
22180.3
22179.9
22179.5
22179
22178.6
22178.2
22177.8
22177.3
22176.9
22176.5
22176.1
22175.6
22175.2
22174.8
22174.4
22173.9
22173.5
22173.1
22172.7
22172.2
22171.8
22171.4
22171
22170.5
22170.1
22169.7
22169.3
22168.8
22168.4
22168
22167.6
22167.1
22166.7
22166.3
22165.9
22165.4
22165
22164.6
22164.2
22163.7
22163.3
22162.9
22162.5
22162
22161.6
22161.2
22160.8
22160.3
22159.9
22159.5
22159
22158.6
22158.2
22157.8
22157.3
22156.9
22156.5
22156.1
22155.6
22155.2
22154.8
22154.3
22153.9
22153.5
22153.1
22152.6
22152.2
22151.8
22151.4
22150.9
22150.5
22150.1
22149.6
22149.2
22148.8
22148.4
22147.9
22147.5
22147.1
22146.6
22146.2
22145.8
22145.4
22144.9
22144.5
22144.1
22143.6
22143.2
22142.8
22142.4
22141.9
22141.5
22141.1
22140.6
22140.2
22139.8
22139.4
22138.9
22138.5
22138.1
22137.6
22137.2
22136.8
22136.3
22135.9
22135.5
22135.1
22134.6
22134.2
22133.8
22133.3
22132.9
22132.5
22132
22131.6
22131.2
22130.8
22130.3
22129.9
22129.5
22129
22128.6
22128.2
22127.7
22127.3
22126.9
22126.4
22126
22125.6
22125.2
22124.7
22124.3
22123.9
22123.4
22123
22122.6
22122.1
22121.7
22121.3
22120.8
22120.4
22120
22119.5
22119.1
22118.7
22118.2
22117.8
22117.4
22117
22116.5
22116.1
22115.7
22115.2
22114.8
22114.4
22113.9
22113.5
22113.1
22112.6
22112.2
22111.8
22111.3
22110.9
22110.5
22110
22109.6
22109.2
22108.7
22108.3
22107.9
22107.4
22107
22106.6
22106.1
22105.7
22105.3
22104.8
22104.4
22104
22103.5
22103.1
22102.7
22102.2
22101.8
22101.4
22100.9
22100.5
22100.1
22099.6
22099.2
22098.8
22098.3
22097.9
22097.5
22097
22096.6
22096.2
22095.7
22095.3
22094.9
22094.4
22094
22093.6
22093.1
22092.7
22092.2
22091.8
22091.4
22090.9
22090.5
22090.1
22089.6
22089.2
22088.8
22088.3
22087.9
22087.5
22087
22086.6
22086.2
22085.7
22085.3
22084.9
22084.4
22084
22083.5
22083.1
22082.7
22082.2
22081.8
22081.4
22080.9
22080.5
22080.1
22079.6
22079.2
22078.8
22078.3
22077.9
22077.4
22077
22076.6
22076.1
22075.7
22075.3
22074.8
22074.4
22074
22073.5
22073.1
22072.6
22072.2
22071.8
22071.3
22070.9
22070.5
22070
22069.6
22069.2
22068.7
22068.3
22067.8
22067.4
22067
22066.5
22066.1
22065.7
22065.2
22064.8
22064.4
22063.9
22063.5
22063
22062.6
22062.2
22061.7
22061.3
22060.9
22060.4
22060
22059.5
22059.1
22058.7
22058.2
22057.8
22057.4
22056.9
22056.5
22056
22055.6
22055.2
22054.7
22054.3
22053.9
22053.4
22053
22052.5
22052.1
22051.7
22051.2
22050.8
22050.4
22049.9
22049.5
22049
22048.6
22048.2
22047.7
22047.3
22046.9
22046.4
22046
22045.5
22045.1
22044.7
22044.2
22043.8
22043.4
22042.9
22042.5
22042
22041.6
22041.2
22040.7
22040.3
22039.9
22039.4
22039
22038.5
22038.1
22037.7
22037.2
22036.8
22036.3
22035.9
22035.5
22035
22034.6
22034.2
22033.7
22033.3
22032.8
22032.4
22032
22031.5
22031.1
22030.6
22030.2
22029.8
22029.3
22028.9
22028.5
22028
22027.6
22027.1
22026.7
22026.3
22025.8
22025.4
22025
22024.5
22024.1
22023.6
22023.2
22022.8
22022.3
22021.9
22021.4
22021
22020.6
22020.1
22019.7
22019.3
22018.8
22018.4
22017.9
22017.5
22017.1
22016.6
22016.2
22015.7
22015.3
22014.9
22014.4
22014
22013.6
22013.1
22012.7
22012.2
22011.8
22011.4
22010.9
22010.5
22010
22009.6
22009.2
22008.7
22008.3
22007.9
22007.4
22007
22006.5
22006.1
22005.7
22005.2
22004.8
22004.3
22003.9
22003.5
22003
22002.6
22002.2
22001.7
22001.3
22000.8
22000.4
22000
21999.5
21999.1
21998.7
21998.2
21997.8
21997.3
21996.9
21996.5
21996
21995.6
21995.2
21994.7
21994.3
21993.8
21993.4
21993
21992.5
21992.1
21991.7
21991.2
21990.8
21990.3
21989.9
21989.5
21989
21988.6
21988.2
21987.7
21987.3
21986.8
21986.4
21986
21985.5
21985.1
21984.7
21984.2
21983.8
21983.3
21982.9
21982.5
21982
21981.6
21981.2
21980.7
21980.3
21979.9
21979.4
21979
21978.5
21978.1
21977.7
21977.2
21976.8
21976.4
21975.9
21975.5
21975.1
21974.6
21974.2
21973.7
21973.3
21972.9
21972.4
21972
21971.6
21971.1
21970.7
21970.3
21969.8
21969.4
21969
21968.5
21968.1
21967.6
21967.2
21966.8
21966.3
21965.9
21965.5
21965
21964.6
21964.2
21963.7
21963.3
21962.9
21962.4
21962
21961.6
21961.1
21960.7
21960.3
21959.8
21959.4
21959
21958.5
21958.1
21957.7
21957.2
21956.8
21956.4
21955.9
21955.5
21955.1
21954.6
21954.2
21953.8
21953.3
21952.9
21952.5
21952
21951.6
21951.2
21950.7
21950.3
21949.9
21949.4
21949
21948.6
21948.1
21947.7
21947.3
21946.9
21946.4
21946
21945.6
21945.1
21944.7
21944.3
21943.8
21943.4
21943
21942.5
21942.1
21941.7
21941.3
21940.8
21940.4
21940
21939.5
21939.1
21938.7
21938.3
21937.8
21937.4
21937
21936.5
21936.1
21935.7
21935.3
21934.8
21934.4
21934
21933.5
21933.1
21932.7
21932.3
21931.8
21931.4
21931
21930.6
21930.1
21929.7
21929.3
21928.8
21928.4
21928
21927.6
21927.1
21926.7
21926.3
21925.9
21925.4
21925
21924.6
21924.2
21923.7
21923.3
21922.9
21922.5
21922.1
21921.6
21921.2
21920.8
21920.4
21919.9
21919.5
21919.1
21918.7
21918.2
21917.8
21917.4
21917
21916.6
21916.1
21915.7
21915.3
21914.9
21914.5
21914
21913.6
21913.2
21912.8
21912.4