/*--------------------------------*- C++ -*----------------------------------*\
  =========                 |
  \\      /  F ield         | OpenFOAM: The Open Source CFD Toolbox
   \\    /   O peration     | Website:  https://openfoam.org
    \\  /    A nd           | Version:  9
     \\/     M anipulation  |
\*---------------------------------------------------------------------------*/
FoamFile
{
    format      ascii;
    class       surfaceScalarField;
    location    "0.015";
    object      phi;
}
// * * * * * * * * * * * * * * * * * * * * * * * * * * * * * * * * * * * * * //

dimensions      [1 0 -1 0 0 0 0];

internalField   nonuniform List<scalar> 
99
(
80.4897
106.046
131.171
155.591
179.152
201.639
222.829
242.525
260.612
277.082
292.029
305.614
318.039
329.505
340.192
350.239
359.75
368.795
377.425
385.659
393.548
401.031
408.279
415.006
421.642
427.781
433.518
439.402
444.339
449.332
454.36
458.383
462.35
466.666
470.173
472.976
476.201
479.543
481.937
483.698
485.893
488.429
490.254
491.125
491.989
493.544
495.218
495.979
495.833
495.846
496.654
497.759
498.096
497.719
496.981
496.706
497.38
497.823
497.797
497.508
497.077
496.689
496.553
496.696
496.77
496.785
496.708
496.333
496.088
495.953
496.018
495.987
495.925
495.768
495.339
494.873
494.778
494.675
494.356
493.846
493.234
493.355
492.994
492.693
492.413
491.94
491.164
490.004
489.254
483.714
468.189
428.675
392.366
364.609
345.71
331.108
321.472
316.208
312.675
)
;

boundaryField
{
    sides
    {
        type            calculated;
        value           nonuniform List<scalar> 2(311.11 -54.5428);
    }
    empty
    {
        type            empty;
        value           nonuniform List<scalar> 0();
    }
}


// ************************************************************************* //
