/*--------------------------------*- C++ -*----------------------------------*\
  =========                 |
  \\      /  F ield         | OpenFOAM: The Open Source CFD Toolbox
   \\    /   O peration     | Website:  https://openfoam.org
    \\  /    A nd           | Version:  9
     \\/     M anipulation  |
\*---------------------------------------------------------------------------*/
FoamFile
{
    format      ascii;
    class       surfaceScalarField;
    location    "0.027";
    object      phi;
}
// * * * * * * * * * * * * * * * * * * * * * * * * * * * * * * * * * * * * * //

dimensions      [1 0 -1 0 0 0 0];

internalField   nonuniform List<scalar> 
999
(
18.5991
19.2889
19.9785
20.6681
21.3575
22.0466
22.7357
23.4246
24.1134
24.802
25.4904
26.1788
26.8673
27.5558
28.2443
28.9328
29.6213
30.3096
30.9979
31.686
32.374
33.062
33.7498
34.4375
35.125
35.8124
36.4997
37.1869
37.8739
38.5607
39.2474
39.934
40.6203
41.3065
41.9926
42.6786
43.3644
44.0501
44.7357
45.4213
46.1067
46.7921
47.4774
48.1626
48.8477
49.5327
50.2175
50.9022
51.5868
52.2712
52.9554
53.6395
54.3235
55.0073
55.691
56.3746
57.058
57.7414
58.4246
59.1078
59.7908
60.4736
61.1564
61.8391
62.5216
63.204
63.8864
64.5686
65.2507
65.9327
66.6146
67.2964
67.9781
68.6597
69.3412
70.0226
70.704
71.3852
72.0663
72.7473
73.4281
74.1089
74.7896
75.4702
76.1507
76.8311
77.5114
78.1916
78.8716
79.5516
80.2315
80.9112
81.5908
82.2704
82.9498
83.6291
84.3084
84.9873
85.6665
86.3452
87.0241
87.7027
88.3811
89.0596
89.7379
90.4161
91.0941
91.7722
92.4499
93.1278
93.8051
94.483
95.16
95.8375
96.5146
97.1914
97.8687
98.545
99.2219
99.8986
100.574
101.251
101.927
102.603
103.28
103.955
104.631
105.307
105.981
106.657
107.332
108.007
108.682
109.357
110.031
110.706
111.381
112.054
112.729
113.403
114.076
114.75
115.424
116.097
116.771
117.444
118.116
118.79
119.463
120.135
120.808
121.481
122.152
122.824
123.497
124.168
124.839
125.512
126.183
126.853
127.526
128.197
128.866
129.537
130.209
130.878
131.548
132.22
132.89
133.558
134.228
134.899
135.567
136.236
136.906
137.575
138.243
138.912
139.581
140.249
140.916
141.586
142.254
142.92
143.588
144.257
144.923
145.588
146.257
146.925
147.59
148.255
148.924
149.591
150.254
150.92
151.588
152.253
152.917
153.582
154.249
154.913
155.576
156.242
156.908
157.57
158.233
158.899
159.564
160.226
160.887
161.552
162.217
162.878
163.539
164.203
164.867
165.528
166.188
166.852
167.515
168.175
168.834
169.497
170.16
170.82
171.478
172.139
172.802
173.462
174.119
174.778
175.44
176.101
176.758
177.415
178.076
178.736
179.393
180.049
180.709
181.369
182.026
182.68
183.337
183.997
184.655
185.31
185.965
186.622
187.28
187.935
188.589
189.245
189.902
190.557
191.21
191.863
192.52
193.175
193.829
194.481
195.134
195.789
196.443
197.094
197.746
198.4
199.053
199.705
200.354
201.006
201.659
202.311
202.961
203.61
204.261
204.912
205.562
206.211
206.86
207.51
208.16
208.809
209.456
210.103
210.752
211.401
212.048
212.695
213.341
213.989
214.636
215.282
215.927
216.573
217.219
217.865
218.51
219.154
219.798
220.443
221.087
221.731
222.373
223.017
223.66
224.303
224.946
225.587
226.229
226.87
227.512
228.153
228.794
229.434
230.074
230.715
231.354
231.993
232.632
233.271
233.91
234.548
235.186
235.823
236.46
237.098
237.735
238.371
239.006
239.642
240.278
240.914
241.548
242.182
242.816
243.451
244.085
244.718
245.35
245.983
246.616
247.249
247.88
248.51
249.14
249.772
250.404
251.035
251.662
252.288
252.915
253.545
254.178
254.809
255.435
256.058
256.679
257.302
257.93
258.562
259.194
259.821
260.444
261.062
261.678
262.292
262.909
263.532
264.161
264.793
265.423
266.05
266.673
267.292
267.906
268.517
269.125
269.73
270.333
270.936
271.539
272.143
272.745
273.348
273.951
274.552
275.155
275.753
276.347
276.939
277.517
278.089
278.66
279.228
279.791
280.353
280.915
281.477
282.042
282.61
283.179
283.749
284.322
284.9
285.479
286.06
286.644
287.229
287.815
288.405
288.995
289.585
290.177
290.769
291.362
291.955
292.551
293.145
293.738
294.333
294.93
295.524
296.117
296.714
297.313
297.908
298.501
299.098
299.698
300.295
300.89
301.488
302.089
302.69
303.288
303.886
304.486
305.091
305.696
306.301
306.907
307.508
308.1
308.672
309.215
309.744
310.278
310.807
311.339
311.88
312.423
312.978
313.559
314.153
314.745
315.335
315.929
316.526
317.121
317.709
318.293
318.875
319.459
320.045
320.632
321.22
321.804
322.377
322.934
323.479
324.02
324.542
325.124
325.713
326.309
326.886
327.452
328.045
328.633
329.216
329.784
330.342
330.896
331.442
331.957
332.478
333.018
333.609
334.311
335.1
335.718
336.274
336.786
337.22
337.716
338.223
338.754
339.301
339.974
340.664
341.313
341.818
342.306
342.85
343.451
344.101
344.741
345.36
345.983
346.608
347.212
347.62
347.96
348.372
348.84
349.456
350.153
350.846
351.472
352.075
352.63
353.243
353.94
354.597
355.153
355.667
356.238
356.844
357.553
358.361
359.427
360.259
360.937
361.471
361.891
362.334
362.84
363.416
363.953
364.431
364.782
365.212
365.711
366.318
367.18
367.885
368.472
368.863
369.356
369.921
370.203
370.362
370.529
370.837
371.433
372.66
373.015
373.5
373.658
373.563
373.459
373.215
372.986
374.871
374.285
371.935
371.796
378.72
379.258
379.59
377.423
376.409
380.572
382.045
381.779
378.593
381.524
387.824
389.011
389.749
390.411
391.019
391.472
391.847
391.084
390.01
387.787
394.323
397.243
398.32
399.232
399.926
400.479
400.757
400.981
401.336
402.021
402.804
403.258
403.386
403.67
403.842
403.817
402.503
402.436
405.26
405.54
406.499
406.505
404.896
401.925
410.869
413.828
414.623
415.3
415.771
416.089
416.523
417.058
417.667
418.496
418.821
418.8
418.686
419.051
417.572
416.886
421.551
422.481
421.436
418.181
419.201
427.931
428.932
429.457
429.806
430.206
430.509
430.792
430.991
431.147
431.854
431.721
431.375
431.762
432.876
432.814
431.551
429.304
433.682
436.383
436.441
436.414
436.673
437.447
435.667
435.959
440.354
441.545
441.922
441.459
441.037
439.925
441.982
442.13
441.324
438.902
444.286
447.556
447.742
448.382
446.38
444.713
451.78
453.876
454.408
454.993
455.765
456.319
456.655
457.113
457.552
457.946
458.879
459.797
460.34
460.972
461.628
462.204
462.805
463.357
463.907
464.406
464.864
465.339
465.837
466.507
467.261
468.12
468.519
468.87
469.166
469.521
470.313
471.005
471.658
472.3
472.725
473.082
473.511
473.964
474.395
474.724
475.145
475.598
476.202
476.833
477.694
478.108
478.423
478.74
479.041
479.541
480.064
480.512
480.834
481.192
481.551
482.024
482.354
482.782
483.021
483.375
483.759
484.133
484.412
484.59
484.843
485.046
485.468
485.788
485.989
486.038
485.912
485.733
485.608
485.469
485.195
484.855
483.536
483.323
486.006
485.712
484.397
485.139
487.529
487.424
486.736
485.215
487.813
488.805
488.457
487.318
486.324
489.778
489.846
489.222
487.25
488.421
490.962
490.622
489.234
487.54
491.482
491.816
490.901
488.416
490.095
492.567
491.872
489.208
490.049
493.355
492.729
489.839
489.894
493.652
493.013
490.219
490.991
494.438
493.707
490.258
490.094
493.937
493.34
490.301
490.702
494.099
493.166
489.919
492.468
495.76
494.69
490.039
490.767
495.271
494.614
490.749
489.843
493.764
493.181
490.667
489.409
492.575
491.839
489.627
489.546
491.67
490.272
487.695
492.132
492.503
490.484
487.754
492.922
493.042
491.157
488.053
491.396
491.957
489.85
487.358
492.686
492.464
490.379
487.355
491.553
491.719
489.606
486.918
491.9
491.709
489.186
486.558
492.707
492.505
489.704
486.17
492.918
493.392
490.244
485.753
493.664
495.49
492.037
485.935
493.836
499.165
496.565
486.015
487.154
501.251
502.551
491.854
483.102
492.195
503.854
505.239
490.218
482.007
490.781
504.204
506.208
494.165
482.658
485.448
502.925
505.572
498.841
484.125
482.576
500.928
503.979
500.297
485.002
482.249
499.294
502.103
500.098
485.817
482.501
496.561
499.503
498.439
486.437
483.385
493.076
494.653
493.251
486.049
485.921
492.842
492.45
486.288
487.62
497.8
497.375
485.562
483.874
498.831
500.993
492.643
484.714
487.15
493.976
494.155
489.928
486.996
486.49
486.216
483.182
490.635
495.056
495.106
487.328
485.185
496.099
497.522
488.311
483.428
494.769
499.866
495.007
483.85
486.231
499.897
501.462
485.906
481.152
495.396
503.085
500.536
483.255
480.074
498.215
503.889
500.682
482.95
479.48
497.215
503.552
501.031
483.107
479.654
496.053
502.93
500.448
483.152
480.03
496.241
502.196
498.227
482.861
481.077
497.675
501.605
494.491
482.956
483.315
496.809
499.308
490.25
484.224
487.635
495.622
495.495
486.383
485.374
494.24
496.102
486.566
483.572
494.204
498.508
486.194
480.737
493.652
500.884
488.969
478.428
485.396
500.496
500.554
488.735
478.297
474.04
)
;

boundaryField
{
    sides
    {
        type            calculated;
        value           nonuniform List<scalar> 2(490.542 -17.909);
    }
    empty
    {
        type            empty;
        value           nonuniform List<scalar> 0();
    }
}


// ************************************************************************* //
