/*--------------------------------*- C++ -*----------------------------------*\
  =========                 |
  \\      /  F ield         | OpenFOAM: The Open Source CFD Toolbox
   \\    /   O peration     | Website:  https://openfoam.org
    \\  /    A nd           | Version:  9
     \\/     M anipulation  |
\*---------------------------------------------------------------------------*/
FoamFile
{
    format      ascii;
    class       volVectorField;
    location    "0.027";
    object      U;
}
// * * * * * * * * * * * * * * * * * * * * * * * * * * * * * * * * * * * * * //

dimensions      [0 1 -1 0 0 0 0];

internalField   nonuniform List<vector> 
1000
(
(12.3488 0 0)
(12.9425 0 0)
(13.6142 0 0)
(14.028 0 0)
(14.4733 0 0)
(14.9528 0 0)
(15.4427 0 0)
(15.919 0 0)
(16.3948 0 0)
(16.8724 0 0)
(17.3513 0 0)
(17.8306 0 0)
(18.3092 0 0)
(18.7878 0 0)
(19.2665 0 0)
(19.7451 0 0)
(20.2237 0 0)
(20.7022 0 0)
(21.1808 0 0)
(21.6595 0 0)
(22.1381 0 0)
(22.6169 0 0)
(23.0956 0 0)
(23.5745 0 0)
(24.0533 0 0)
(24.5322 0 0)
(25.0112 0 0)
(25.4902 0 0)
(25.9692 0 0)
(26.4483 0 0)
(26.9274 0 0)
(27.4065 0 0)
(27.8857 0 0)
(28.3649 0 0)
(28.8441 0 0)
(29.3233 0 0)
(29.8026 0 0)
(30.282 0 0)
(30.7614 0 0)
(31.2409 0 0)
(31.7205 0 0)
(32.2002 0 0)
(32.6799 0 0)
(33.1597 0 0)
(33.6396 0 0)
(34.1195 0 0)
(34.5995 0 0)
(35.0795 0 0)
(35.5595 0 0)
(36.0396 0 0)
(36.5198 0 0)
(36.9999 0 0)
(37.4801 0 0)
(37.9604 0 0)
(38.4407 0 0)
(38.921 0 0)
(39.4014 0 0)
(39.8819 0 0)
(40.3624 0 0)
(40.843 0 0)
(41.3236 0 0)
(41.8043 0 0)
(42.285 0 0)
(42.7658 0 0)
(43.2467 0 0)
(43.7276 0 0)
(44.2086 0 0)
(44.6897 0 0)
(45.1708 0 0)
(45.652 0 0)
(46.1332 0 0)
(46.6145 0 0)
(47.0959 0 0)
(47.5773 0 0)
(48.0589 0 0)
(48.5405 0 0)
(49.0221 0 0)
(49.5038 0 0)
(49.9856 0 0)
(50.4675 0 0)
(50.9494 0 0)
(51.4314 0 0)
(51.9135 0 0)
(52.3956 0 0)
(52.8778 0 0)
(53.3601 0 0)
(53.8424 0 0)
(54.3248 0 0)
(54.8073 0 0)
(55.2898 0 0)
(55.7724 0 0)
(56.255 0 0)
(56.7378 0 0)
(57.2206 0 0)
(57.7034 0 0)
(58.1863 0 0)
(58.6693 0 0)
(59.1523 0 0)
(59.6355 0 0)
(60.1186 0 0)
(60.6019 0 0)
(61.0852 0 0)
(61.5685 0 0)
(62.052 0 0)
(62.5354 0 0)
(63.019 0 0)
(63.5026 0 0)
(63.9863 0 0)
(64.47 0 0)
(64.9538 0 0)
(65.4377 0 0)
(65.9216 0 0)
(66.4055 0 0)
(66.8896 0 0)
(67.3737 0 0)
(67.8578 0 0)
(68.3421 0 0)
(68.8263 0 0)
(69.3107 0 0)
(69.7951 0 0)
(70.2795 0 0)
(70.7641 0 0)
(71.2486 0 0)
(71.7332 0 0)
(72.218 0 0)
(72.7026 0 0)
(73.1875 0 0)
(73.6724 0 0)
(74.1572 0 0)
(74.6423 0 0)
(75.1273 0 0)
(75.6123 0 0)
(76.0976 0 0)
(76.5828 0 0)
(77.0679 0 0)
(77.5534 0 0)
(78.0387 0 0)
(78.524 0 0)
(79.0097 0 0)
(79.4951 0 0)
(79.9805 0 0)
(80.4664 0 0)
(80.9521 0 0)
(81.4376 0 0)
(81.9236 0 0)
(82.4095 0 0)
(82.8952 0 0)
(83.3813 0 0)
(83.8674 0 0)
(84.3533 0 0)
(84.8395 0 0)
(85.3258 0 0)
(85.8118 0 0)
(86.2981 0 0)
(86.7847 0 0)
(87.2708 0 0)
(87.7573 0 0)
(88.244 0 0)
(88.7303 0 0)
(89.2168 0 0)
(89.7038 0 0)
(90.1903 0 0)
(90.6769 0 0)
(91.1639 0 0)
(91.6508 0 0)
(92.1374 0 0)
(92.6244 0 0)
(93.1118 0 0)
(93.5985 0 0)
(94.0854 0 0)
(94.5729 0 0)
(95.0601 0 0)
(95.547 0 0)
(96.0344 0 0)
(96.5221 0 0)
(97.0091 0 0)
(97.4964 0 0)
(97.9841 0 0)
(98.4717 0 0)
(98.9589 0 0)
(99.4466 0 0)
(99.9346 0 0)
(100.422 0 0)
(100.91 0 0)
(101.398 0 0)
(101.886 0 0)
(102.373 0 0)
(102.861 0 0)
(103.35 0 0)
(103.837 0 0)
(104.325 0 0)
(104.813 0 0)
(105.302 0 0)
(105.79 0 0)
(106.278 0 0)
(106.766 0 0)
(107.255 0 0)
(107.743 0 0)
(108.231 0 0)
(108.72 0 0)
(109.208 0 0)
(109.696 0 0)
(110.185 0 0)
(110.674 0 0)
(111.162 0 0)
(111.651 0 0)
(112.139 0 0)
(112.629 0 0)
(113.117 0 0)
(113.606 0 0)
(114.095 0 0)
(114.584 0 0)
(115.073 0 0)
(115.561 0 0)
(116.05 0 0)
(116.54 0 0)
(117.029 0 0)
(117.517 0 0)
(118.007 0 0)
(118.496 0 0)
(118.985 0 0)
(119.474 0 0)
(119.963 0 0)
(120.453 0 0)
(120.942 0 0)
(121.431 0 0)
(121.921 0 0)
(122.411 0 0)
(122.9 0 0)
(123.389 0 0)
(123.878 0 0)
(124.368 0 0)
(124.858 0 0)
(125.347 0 0)
(125.836 0 0)
(126.326 0 0)
(126.816 0 0)
(127.305 0 0)
(127.795 0 0)
(128.285 0 0)
(128.775 0 0)
(129.264 0 0)
(129.754 0 0)
(130.244 0 0)
(130.734 0 0)
(131.224 0 0)
(131.713 0 0)
(132.203 0 0)
(132.693 0 0)
(133.183 0 0)
(133.673 0 0)
(134.162 0 0)
(134.652 0 0)
(135.142 0 0)
(135.632 0 0)
(136.122 0 0)
(136.612 0 0)
(137.102 0 0)
(137.592 0 0)
(138.082 0 0)
(138.571 0 0)
(139.061 0 0)
(139.552 0 0)
(140.041 0 0)
(140.531 0 0)
(141.021 0 0)
(141.511 0 0)
(142.001 0 0)
(142.491 0 0)
(142.981 0 0)
(143.471 0 0)
(143.961 0 0)
(144.451 0 0)
(144.94 0 0)
(145.43 0 0)
(145.92 0 0)
(146.41 0 0)
(146.9 0 0)
(147.389 0 0)
(147.879 0 0)
(148.369 0 0)
(148.858 0 0)
(149.348 0 0)
(149.838 0 0)
(150.327 0 0)
(150.817 0 0)
(151.307 0 0)
(151.796 0 0)
(152.285 0 0)
(152.775 0 0)
(153.264 0 0)
(153.754 0 0)
(154.243 0 0)
(154.732 0 0)
(155.222 0 0)
(155.711 0 0)
(156.2 0 0)
(156.689 0 0)
(157.178 0 0)
(157.667 0 0)
(158.156 0 0)
(158.645 0 0)
(159.134 0 0)
(159.622 0 0)
(160.111 0 0)
(160.6 0 0)
(161.088 0 0)
(161.577 0 0)
(162.065 0 0)
(162.554 0 0)
(163.042 0 0)
(163.53 0 0)
(164.018 0 0)
(164.506 0 0)
(164.994 0 0)
(165.482 0 0)
(165.97 0 0)
(166.457 0 0)
(166.945 0 0)
(167.432 0 0)
(167.92 0 0)
(168.407 0 0)
(168.894 0 0)
(169.381 0 0)
(169.868 0 0)
(170.355 0 0)
(170.841 0 0)
(171.328 0 0)
(171.814 0 0)
(172.3 0 0)
(172.786 0 0)
(173.272 0 0)
(173.758 0 0)
(174.244 0 0)
(174.729 0 0)
(175.214 0 0)
(175.699 0 0)
(176.184 0 0)
(176.669 0 0)
(177.154 0 0)
(177.637 0 0)
(178.121 0 0)
(178.606 0 0)
(179.09 0 0)
(179.573 0 0)
(180.056 0 0)
(180.538 0 0)
(181.021 0 0)
(181.505 0 0)
(181.989 0 0)
(182.47 0 0)
(182.949 0 0)
(183.428 0 0)
(183.909 0 0)
(184.394 0 0)
(184.878 0 0)
(185.36 0 0)
(185.836 0 0)
(186.309 0 0)
(186.783 0 0)
(187.261 0 0)
(187.745 0 0)
(188.232 0 0)
(188.716 0 0)
(189.194 0 0)
(189.666 0 0)
(190.131 0 0)
(190.595 0 0)
(191.061 0 0)
(191.534 0 0)
(192.016 0 0)
(192.504 0 0)
(192.993 0 0)
(193.48 0 0)
(193.96 0 0)
(194.433 0 0)
(194.9 0 0)
(195.359 0 0)
(195.812 0 0)
(196.259 0 0)
(196.703 0 0)
(197.145 0 0)
(197.587 0 0)
(198.028 0 0)
(198.469 0 0)
(198.91 0 0)
(199.351 0 0)
(199.791 0 0)
(200.229 0 0)
(200.664 0 0)
(201.096 0 0)
(201.512 0 0)
(201.918 0 0)
(202.304 0 0)
(202.68 0 0)
(203.046 0 0)
(203.402 0 0)
(203.758 0 0)
(204.113 0 0)
(204.465 0 0)
(204.819 0 0)
(205.176 0 0)
(205.536 0 0)
(205.899 0 0)
(206.267 0 0)
(206.639 0 0)
(207.018 0 0)
(207.402 0 0)
(207.79 0 0)
(208.18 0 0)
(208.573 0 0)
(208.969 0 0)
(209.369 0 0)
(209.774 0 0)
(210.182 0 0)
(210.592 0 0)
(211.004 0 0)
(211.416 0 0)
(211.827 0 0)
(212.239 0 0)
(212.652 0 0)
(213.066 0 0)
(213.48 0 0)
(213.893 0 0)
(214.303 0 0)
(214.712 0 0)
(215.122 0 0)
(215.532 0 0)
(215.943 0 0)
(216.355 0 0)
(216.765 0 0)
(217.173 0 0)
(217.582 0 0)
(217.991 0 0)
(218.4 0 0)
(218.81 0 0)
(219.218 0 0)
(219.625 0 0)
(220.033 0 0)
(220.446 0 0)
(220.867 0 0)
(221.296 0 0)
(221.729 0 0)
(222.153 0 0)
(222.581 0 0)
(222.944 0 0)
(223.285 0 0)
(223.561 0 0)
(223.799 0 0)
(224.027 0 0)
(224.248 0 0)
(224.474 0 0)
(224.709 0 0)
(224.955 0 0)
(225.198 0 0)
(225.441 0 0)
(225.701 0 0)
(225.998 0 0)
(226.347 0 0)
(226.746 0 0)
(227.182 0 0)
(227.641 0 0)
(228.111 0 0)
(228.584 0 0)
(229.057 0 0)
(229.529 0 0)
(229.985 0 0)
(230.444 0 0)
(230.862 0 0)
(231.283 0 0)
(231.62 0 0)
(231.767 0 0)
(231.671 0 0)
(231.481 0 0)
(231.424 0 0)
(231.54 0 0)
(231.794 0 0)
(232.141 0 0)
(232.546 0 0)
(232.995 0 0)
(233.473 0 0)
(233.96 0 0)
(234.45 0 0)
(234.947 0 0)
(235.452 0 0)
(235.972 0 0)
(236.43 0 0)
(236.863 0 0)
(237.22 0 0)
(237.106 0 0)
(236.727 0 0)
(236.265 0 0)
(236.375 0 0)
(236.648 0 0)
(237.024 0 0)
(237.477 0 0)
(237.988 0 0)
(238.52 0 0)
(239.192 0 0)
(239.289 0 0)
(239.02 0 0)
(238.388 0 0)
(238.329 0 0)
(238.534 0 0)
(238.905 0 0)
(239.384 0 0)
(239.937 0 0)
(240.521 0 0)
(241.078 0 0)
(241.703 0 0)
(242.123 0 0)
(242.074 0 0)
(241.882 0 0)
(241.608 0 0)
(241.496 0 0)
(241.545 0 0)
(241.709 0 0)
(242.027 0 0)
(242.458 0 0)
(242.955 0 0)
(243.458 0 0)
(244.03 0 0)
(244.09 0 0)
(243.975 0 0)
(244.021 0 0)
(244.258 0 0)
(244.753 0 0)
(245.416 0 0)
(246.129 0 0)
(246.841 0 0)
(247.569 0 0)
(247.572 0 0)
(247.299 0 0)
(246.81 0 0)
(246.851 0 0)
(247.02 0 0)
(247.311 0 0)
(247.428 0 0)
(247.472 0 0)
(247.568 0 0)
(247.806 0 0)
(248.254 0 0)
(248.887 0 0)
(249.729 0 0)
(250.33 0 0)
(250.307 0 0)
(250.031 0 0)
(249.692 0 0)
(249.768 0 0)
(249.937 0 0)
(249.992 0 0)
(250.107 0 0)
(250.44 0 0)
(251.086 0 0)
(251.692 0 0)
(251.738 0 0)
(251.637 0 0)
(251.576 0 0)
(251.535 0 0)
(251.545 0 0)
(251.739 0 0)
(252.154 0 0)
(252.667 0 0)
(253.33 0 0)
(253.781 0 0)
(253.782 0 0)
(253.768 0 0)
(253.662 0 0)
(253.448 0 0)
(253.435 0 0)
(253.513 0 0)
(253.58 0 0)
(253.703 0 0)
(253.977 0 0)
(254.573 0 0)
(255.383 0 0)
(256.123 0 0)
(256.689 0 0)
(257.149 0 0)
(257.599 0 0)
(258.046 0 0)
(258.427 0 0)
(258.802 0 0)
(259.266 0 0)
(259.398 0 0)
(259.368 0 0)
(259.292 0 0)
(259.109 0 0)
(259.012 0 0)
(259.256 0 0)
(260.071 0 0)
(260.86 0 0)
(261.144 0 0)
(261.34 0 0)
(261.558 0 0)
(261.862 0 0)
(262.305 0 0)
(262.782 0 0)
(262.762 0 0)
(262.686 0 0)
(262.787 0 0)
(262.927 0 0)
(262.986 0 0)
(263.088 0 0)
(263.351 0 0)
(263.727 0 0)
(264.105 0 0)
(264.559 0 0)
(265.194 0 0)
(265.475 0 0)
(265.434 0 0)
(265.241 0 0)
(265.018 0 0)
(265.214 0 0)
(265.921 0 0)
(266.261 0 0)
(266.395 0 0)
(266.714 0 0)
(267.337 0 0)
(268.081 0 0)
(268.227 0 0)
(268.153 0 0)
(268.104 0 0)
(268.146 0 0)
(268.261 0 0)
(268.498 0 0)
(268.911 0 0)
(269.424 0 0)
(269.721 0 0)
(270.02 0 0)
(270.508 0 0)
(270.959 0 0)
(270.867 0 0)
(270.556 0 0)
(270.567 0 0)
(270.819 0 0)
(271.188 0 0)
(271.733 0 0)
(272.21 0 0)
(272.558 0 0)
(272.933 0 0)
(273.09 0 0)
(273.05 0 0)
(273.007 0 0)
(272.966 0 0)
(272.917 0 0)
(272.974 0 0)
(273.265 0 0)
(273.774 0 0)
(273.857 0 0)
(273.703 0 0)
(273.634 0 0)
(273.876 0 0)
(274.146 0 0)
(274.233 0 0)
(274.376 0 0)
(274.694 0 0)
(275.14 0 0)
(275.715 0 0)
(276.199 0 0)
(276.329 0 0)
(276.322 0 0)
(276.282 0 0)
(276.228 0 0)
(276.246 0 0)
(276.415 0 0)
(276.936 0 0)
(277.749 0 0)
(278.021 0 0)
(277.971 0 0)
(277.962 0 0)
(277.914 0 0)
(277.977 0 0)
(278.229 0 0)
(278.831 0 0)
(279.848 0 0)
(280.306 0 0)
(280.22 0 0)
(279.743 0 0)
(279.591 0 0)
(279.817 0 0)
(280.342 0 0)
(281.122 0 0)
(281.366 0 0)
(281.228 0 0)
(280.874 0 0)
(280.916 0 0)
(281.207 0 0)
(281.688 0 0)
(281.727 0 0)
(281.605 0 0)
(281.61 0 0)
(281.738 0 0)
(282.036 0 0)
(282.502 0 0)
(283.112 0 0)
(283.875 0 0)
(284.148 0 0)
(284.057 0 0)
(283.693 0 0)
(283.583 0 0)
(283.75 0 0)
(284.116 0 0)
(284.382 0 0)
(284.332 0 0)
(284.269 0 0)
(284.345 0 0)
(284.546 0 0)
(284.648 0 0)
(284.662 0 0)
(284.691 0 0)
(284.773 0 0)
(284.965 0 0)
(285.302 0 0)
(285.785 0 0)
(286.43 0 0)
(286.711 0 0)
(286.651 0 0)
(286.379 0 0)
(286.286 0 0)
(286.411 0 0)
(286.663 0 0)
(286.713 0 0)
(286.636 0 0)
(286.619 0 0)
(286.707 0 0)
(286.937 0 0)
(287.291 0 0)
(287.698 0 0)
(287.758 0 0)
(287.681 0 0)
(287.482 0 0)
(287.462 0 0)
(287.599 0 0)
(287.938 0 0)
(288.164 0 0)
(288.147 0 0)
(288.094 0 0)
(288.079 0 0)
(288.123 0 0)
(288.291 0 0)
(288.443 0 0)
(288.438 0 0)
(288.404 0 0)
(288.44 0 0)
(288.551 0 0)
(288.674 0 0)
(288.67 0 0)
(288.636 0 0)
(288.605 0 0)
(288.579 0 0)
(288.523 0 0)
(288.47 0 0)
(288.497 0 0)
(288.556 0 0)
(288.545 0 0)
(288.527 0 0)
(288.585 0 0)
(288.653 0 0)
(288.647 0 0)
(288.6 0 0)
(288.596 0 0)
(288.663 0 0)
(288.7 0 0)
(288.669 0 0)
(288.609 0 0)
(288.62 0 0)
(288.681 0 0)
(288.68 0 0)
(288.612 0 0)
(288.554 0 0)
(288.587 0 0)
(288.623 0 0)
(288.574 0 0)
(288.468 0 0)
(288.44 0 0)
(288.482 0 0)
(288.466 0 0)
(288.354 0 0)
(288.26 0 0)
(288.276 0 0)
(288.279 0 0)
(288.171 0 0)
(288.051 0 0)
(288.053 0 0)
(288.062 0 0)
(287.954 0 0)
(287.812 0 0)
(287.794 0 0)
(287.796 0 0)
(287.682 0 0)
(287.545 0 0)
(287.536 0 0)
(287.529 0 0)
(287.391 0 0)
(287.208 0 0)
(287.153 0 0)
(287.124 0 0)
(286.979 0 0)
(286.801 0 0)
(286.742 0 0)
(286.685 0 0)
(286.495 0 0)
(286.318 0 0)
(286.281 0 0)
(286.217 0 0)
(285.977 0 0)
(285.723 0 0)
(285.646 0 0)
(285.583 0 0)
(285.362 0 0)
(285.082 0 0)
(284.939 0 0)
(284.835 0 0)
(284.626 0 0)
(284.36 0 0)
(284.193 0 0)
(284.061 0 0)
(283.842 0 0)
(283.595 0 0)
(283.437 0 0)
(283.275 0 0)
(283.018 0 0)
(282.831 0 0)
(282.736 0 0)
(282.561 0 0)
(282.271 0 0)
(282.083 0 0)
(281.985 0 0)
(281.794 0 0)
(281.48 0 0)
(281.239 0 0)
(281.096 0 0)
(280.886 0 0)
(280.574 0 0)
(280.374 0 0)
(280.257 0 0)
(280.038 0 0)
(279.707 0 0)
(279.467 0 0)
(279.323 0 0)
(279.101 0 0)
(278.774 0 0)
(278.554 0 0)
(278.421 0 0)
(278.186 0 0)
(277.844 0 0)
(277.641 0 0)
(277.529 0 0)
(277.29 0 0)
(276.919 0 0)
(276.694 0 0)
(276.594 0 0)
(276.363 0 0)
(275.966 0 0)
(275.735 0 0)
(275.686 0 0)
(275.495 0 0)
(275.046 0 0)
(274.779 0 0)
(274.802 0 0)
(274.706 0 0)
(274.218 0 0)
(273.731 0 0)
(273.741 0 0)
(273.86 0 0)
(273.557 0 0)
(272.865 0 0)
(272.505 0 0)
(272.683 0 0)
(272.827 0 0)
(272.428 0 0)
(271.632 0 0)
(271.254 0 0)
(271.468 0 0)
(271.681 0 0)
(271.362 0 0)
(270.564 0 0)
(270.031 0 0)
(270.167 0 0)
(270.447 0 0)
(270.268 0 0)
(269.563 0 0)
(268.896 0 0)
(268.917 0 0)
(269.196 0 0)
(269.112 0 0)
(268.507 0 0)
(267.826 0 0)
(267.768 0 0)
(267.997 0 0)
(267.956 0 0)
(267.435 0 0)
(266.782 0 0)
(266.659 0 0)
(266.829 0 0)
(266.808 0 0)
(266.387 0 0)
(265.818 0 0)
(265.65 0 0)
(265.709 0 0)
(265.628 0 0)
(265.281 0 0)
(264.905 0 0)
(264.808 0 0)
(264.766 0 0)
(264.503 0 0)
(264.195 0 0)
(264.204 0 0)
(264.254 0 0)
(263.914 0 0)
(263.422 0 0)
(263.409 0 0)
(263.62 0 0)
(263.475 0 0)
(262.93 0 0)
(262.552 0 0)
(262.571 0 0)
(262.612 0 0)
(262.426 0 0)
(262.089 0 0)
(261.821 0 0)
(261.637 0 0)
(261.434 0 0)
(261.355 0 0)
(261.475 0 0)
(261.526 0 0)
(261.295 0 0)
(260.93 0 0)
(260.875 0 0)
(261 0 0)
(260.85 0 0)
(260.414 0 0)
(260.297 0 0)
(260.521 0 0)
(260.542 0 0)
(260.108 0 0)
(259.728 0 0)
(259.889 0 0)
(260.15 0 0)
(259.896 0 0)
(259.324 0 0)
(259.234 0 0)
(259.603 0 0)
(259.756 0 0)
(259.299 0 0)
(258.695 0 0)
(258.749 0 0)
(259.207 0 0)
(259.341 0 0)
(258.862 0 0)
(258.238 0 0)
(258.284 0 0)
(258.754 0 0)
(258.92 0 0)
(258.475 0 0)
(257.864 0 0)
(257.889 0 0)
(258.347 0 0)
(258.533 0 0)
(258.11 0 0)
(257.529 0 0)
(257.568 0 0)
(258.012 0 0)
(258.156 0 0)
(257.724 0 0)
(257.218 0 0)
(257.327 0 0)
(257.752 0 0)
(257.799 0 0)
(257.348 0 0)
(256.957 0 0)
(257.117 0 0)
(257.461 0 0)
(257.413 0 0)
(257.024 0 0)
(256.81 0 0)
(256.982 0 0)
(257.164 0 0)
(256.993 0 0)
(256.706 0 0)
(256.749 0 0)
(256.945 0 0)
(256.849 0 0)
(256.538 0 0)
(256.554 0 0)
(256.819 0 0)
(256.736 0 0)
(256.324 0 0)
(256.324 0 0)
(256.711 0 0)
(256.702 0 0)
(256.169 0 0)
(255.979 0 0)
(256.327 0 0)
(256.643 0 0)
(256.555 0 0)
(256.069 0 0)
(255.483 0 0)
(255.828 0 0)
)
;

boundaryField
{
    sides
    {
        type            zeroGradient;
    }
    empty
    {
        type            empty;
    }
}


// ************************************************************************* //
