/*--------------------------------*- C++ -*----------------------------------*\
  =========                 |
  \\      /  F ield         | OpenFOAM: The Open Source CFD Toolbox
   \\    /   O peration     | Website:  https://openfoam.org
    \\  /    A nd           | Version:  9
     \\/     M anipulation  |
\*---------------------------------------------------------------------------*/
FoamFile
{
    format      ascii;
    class       volScalarField;
    location    "0.026";
    object      mag(U);
}
// * * * * * * * * * * * * * * * * * * * * * * * * * * * * * * * * * * * * * //

dimensions      [0 1 -1 0 0 0 0];

internalField   nonuniform List<scalar> 
100
(
155.717
160.659
163.526
166.627
169.672
172.731
175.786
178.843
181.9
184.957
188.015
191.073
194.131
197.19
200.249
203.309
206.369
209.429
212.49
215.551
218.612
221.674
224.736
227.798
230.86
233.922
236.983
240.045
243.106
246.166
249.226
252.285
255.343
258.398
261.45
264.5
267.549
270.599
273.645
276.677
279.68
282.634
285.492
288.153
290.475
292.172
293.182
293.607
293.718
293.755
293.877
294.088
294.185
294.189
294.125
293.985
293.866
293.821
293.808
293.805
293.798
293.761
293.629
293.399
293.313
293.29
293.296
293.345
293.462
293.499
293.478
293.401
293.318
293.272
293.261
293.262
293.277
293.288
293.282
293.231
293.15
293.094
293.058
293.039
293.039
293.083
293.227
293.313
293.22
292.018
288.877
286.965
286.448
286.332
286.211
285.182
282.685
281.229
280.838
280.791
)
;

boundaryField
{
    sides
    {
        type            calculated;
        value           nonuniform List<scalar> 2(280.791 155.717);
    }
    empty
    {
        type            empty;
    }
}


// ************************************************************************* //
