/*--------------------------------*- C++ -*----------------------------------*\
  =========                 |
  \\      /  F ield         | OpenFOAM: The Open Source CFD Toolbox
   \\    /   O peration     | Website:  https://openfoam.org
    \\  /    A nd           | Version:  9
     \\/     M anipulation  |
\*---------------------------------------------------------------------------*/
FoamFile
{
    format      ascii;
    class       volScalarField;
    location    "0.029";
    object      ddt0(rho,K);
}
// * * * * * * * * * * * * * * * * * * * * * * * * * * * * * * * * * * * * * //

dimensions      [1 -1 -3 0 0 0 0];

internalField   nonuniform List<scalar> 
1000
(
1342.66
1170.31
1041.24
922.636
791.085
646.411
492.142
329.299
158.056
-20.3911
-205.671
-398.476
-598.731
-806.52
-1023.15
-1250.55
-1488.75
-1736.05
-1992.46
-2256.86
-2527.82
-2806.05
-3092.78
-3387.55
-3687.9
-3997.77
-4319.3
-4654.39
-4986.47
-5326.76
-5679.01
-6034.2
-6396.23
-6769.09
-7150.32
-7540.59
-7939.35
-8344.42
-8757.38
-9179.87
-9610.61
-10048.7
-10494.4
-10947.6
-11409.3
-11880.1
-12359.4
-12846.2
-13340.8
-13843.6
-14354.9
-14874.5
-15402
-15936.7
-16478.7
-17028.7
-17587.5
-18155
-18731
-19315.1
-19907.3
-20507.6
-21116.3
-21733.1
-22357.6
-22989.5
-23628.8
-24275.8
-24931
-25594.6
-26266.4
-26946.3
-27634.2
-28330.3
-29034.9
-29748.1
-30469.7
-31199
-31935.7
-32679.2
-33431
-34189.6
-34958.8
-35733.1
-36521.3
-37308.4
-38115
-38915.5
-39739.8
-40557.7
-41396.4
-42244
-43085.5
-43941.6
-44810.4
-45687.8
-46560.8
-47464.5
-48342.6
-49276
-50164.2
-51106.3
-52034.8
-52959
-53939.3
-54854.6
-55845.7
-56816.1
-57763.3
-58800.2
-59754.8
-60760.3
-61813.9
-62770.7
-63834.9
-64891.5
-65866.7
-66980.4
-68038.8
-69036.9
-70191.6
-71257.6
-72276.5
-73468.4
-74551
-75585.4
-76811.9
-77922.7
-78967.2
-80222.7
-81376
-82426.2
-83698
-84907.3
-85964.9
-87234.8
-88508.6
-89585.9
-90835.4
-92171.9
-93291
-94506.4
-95892.2
-97080.5
-98258.1
-99665.5
-100949
-102102
-103489
-104883
-106053
-107370
-108856
-110114
-111339
-112842
-114260
-115446
-116851
-118422
-119709
-120960
-122542
-124055
-125268
-126674
-128347
-129753
-130986
-132561
-134234
-135554
-136884
-138585
-140204
-141488
-142951
-144724
-146267
-147565
-149166
-150971
-152443
-153785
-155509
-157333
-158759
-160138
-161963
-163819
-165225
-166628
-168516
-170422
-171846
-173260
-175173
-177128
-178603
-180040
-181961
-183950
-185478
-186944
-188885
-190923
-192492
-193946
-195898
-198042
-199695
-201085
-202965
-205227
-207075
-208451
-210158
-212427
-214519
-216022
-217582
-219744
-221994
-223683
-225180
-227222
-229595
-231490
-232926
-234760
-237214
-239463
-241005
-242516
-244757
-247317
-249279
-250711
-252549
-255066
-257438
-259104
-260682
-262962
-265592
-267633
-269086
-270942
-273604
-276216
-277976
-279399
-281540
-284373
-286837
-288460
-290069
-292501
-295327
-297528
-299064
-300946
-303691
-306516
-308492
-309942
-311990
-314924
-317773
-319702
-321205
-323376
-326342
-329104
-330988
-332609
-334984
-338065
-340795
-342589
-344170
-346590
-349787
-352664
-354570
-356166
-358519
-361661
-364578
-366588
-368266
-370660
-373875
-376916
-378993
-380576
-382797
-385997
-389288
-391692
-393379
-395424
-398428
-401764
-404399
-406207
-408148
-411041
-414542
-417541
-419546
-421270
-423768
-427160
-430503
-432973
-434819
-437072
-440243
-443742
-446565
-448524
-450494
-453336
-456926
-460265
-462691
-464615
-467021
-470322
-473882
-476776
-478873
-480987
-483933
-487617
-491089
-493661
-495668
-498059
-501365
-505090
-508285
-510641
-512783
-515597
-519260
-522977
-525928
-528151
-530440
-533545
-537344
-540962
-543791
-546049
-548596
-552039
-555968
-559491
-562157
-564422
-567196
-570812
-574796
-578298
-580956
-583373
-586358
-590152
-594220
-597671
-600320
-602935
-605998
-609466
-614371
-617457
-620175
-623069
-626176
-629520
-632306
-635854
-639431
-644219
-646982
-649798
-654426
-658545
-661309
-664564
-668148
-671562
-675236
-679267
-683199
-686796
-690188
-693638
-697370
-701346
-705192
-708737
-712204
-715684
-719303
-723389
-727584
-731371
-734938
-738611
-742470
-746612
-750867
-754708
-758181
-761721
-765516
-769619
-773929
-778023
-781704
-785337
-789200
-793309
-797494
-801553
-805332
-808888
-812434
-816238
-820399
-824562
-828441
-832032
-835564
-839248
-843235
-847389
-851288
-854716
-857947
-861397
-865133
-868963
-872683
-876147
-879333
-882504
-885941
-889656
-893361
-896765
-899810
-902665
-905674
-909027
-912535
-915837
-918758
-921461
-924246
-927346
-930682
-933945
-936877
-939502
-942026
-944652
-947571
-950714
-953751
-956384
-958737
-961249
-964121
-967195
-970202
-972931
-975371
-977726
-980280
-983133
-986121
-988951
-991471
-993789
-996162
-998859
-1.00189e+06
-1.00495e+06
-1.00771e+06
-1.01009e+06
-1.01233e+06
-1.01483e+06
-1.01779e+06
-1.02097e+06
-1.02387e+06
-1.02625e+06
-1.02836e+06
-1.03078e+06
-1.03377e+06
-1.03704e+06
-1.04006e+06
-1.04258e+06
-1.04481e+06
-1.04723e+06
-1.05011e+06
-1.05331e+06
-1.0564e+06
-1.05907e+06
-1.06141e+06
-1.06379e+06
-1.06656e+06
-1.06972e+06
-1.07292e+06
-1.07576e+06
-1.07818e+06
-1.08054e+06
-1.08326e+06
-1.08643e+06
-1.0897e+06
-1.09265e+06
-1.09517e+06
-1.09756e+06
-1.10026e+06
-1.10338e+06
-1.10668e+06
-1.10974e+06
-1.11236e+06
-1.11476e+06
-1.11736e+06
-1.12043e+06
-1.12379e+06
-1.12705e+06
-1.12986e+06
-1.13231e+06
-1.13482e+06
-1.13776e+06
-1.14113e+06
-1.14455e+06
-1.14759e+06
-1.15015e+06
-1.15256e+06
-1.15531e+06
-1.15859e+06
-1.16213e+06
-1.16542e+06
-1.16817e+06
-1.17057e+06
-1.17317e+06
-1.17633e+06
-1.17991e+06
-1.18342e+06
-1.18641e+06
-1.18892e+06
-1.19144e+06
-1.19444e+06
-1.19795e+06
-1.20156e+06
-1.20477e+06
-1.20744e+06
-1.20996e+06
-1.21281e+06
-1.2162e+06
-1.21984e+06
-1.22325e+06
-1.22617e+06
-1.22878e+06
-1.23155e+06
-1.23479e+06
-1.23839e+06
-1.24194e+06
-1.24508e+06
-1.24785e+06
-1.25061e+06
-1.25369e+06
-1.25717e+06
-1.26077e+06
-1.26412e+06
-1.26709e+06
-1.26991e+06
-1.27289e+06
-1.2762e+06
-1.27975e+06
-1.28323e+06
-1.28645e+06
-1.28945e+06
-1.29242e+06
-1.29561e+06
-1.29905e+06
-1.30259e+06
-1.30601e+06
-1.30922e+06
-1.31229e+06
-1.31541e+06
-1.31871e+06
-1.32219e+06
-1.32572e+06
-1.32913e+06
-1.33237e+06
-1.3355e+06
-1.33868e+06
-1.34203e+06
-1.34554e+06
-1.34908e+06
-1.35252e+06
-1.35581e+06
-1.35902e+06
-1.36229e+06
-1.36568e+06
-1.36921e+06
-1.37275e+06
-1.37624e+06
-1.3796e+06
-1.3829e+06
-1.38623e+06
-1.38964e+06
-1.39317e+06
-1.39674e+06
-1.40029e+06
-1.40375e+06
-1.40716e+06
-1.41054e+06
-1.41398e+06
-1.4175e+06
-1.42107e+06
-1.42466e+06
-1.42821e+06
-1.4317e+06
-1.43518e+06
-1.43867e+06
-1.44222e+06
-1.4458e+06
-1.44939e+06
-1.45299e+06
-1.45656e+06
-1.46012e+06
-1.46368e+06
-1.46725e+06
-1.47083e+06
-1.47443e+06
-1.47803e+06
-1.48163e+06
-1.48524e+06
-1.48886e+06
-1.4925e+06
-1.49614e+06
-1.49977e+06
-1.50342e+06
-1.50706e+06
-1.51072e+06
-1.51439e+06
-1.51806e+06
-1.52174e+06
-1.52543e+06
-1.52913e+06
-1.53282e+06
-1.53652e+06
-1.54021e+06
-1.54392e+06
-1.54761e+06
-1.55133e+06
-1.55506e+06
-1.5588e+06
-1.56254e+06
-1.56627e+06
-1.57001e+06
-1.57375e+06
-1.57751e+06
-1.58126e+06
-1.58504e+06
-1.58881e+06
-1.59259e+06
-1.59639e+06
-1.60017e+06
-1.60398e+06
-1.60775e+06
-1.61156e+06
-1.61537e+06
-1.61917e+06
-1.62301e+06
-1.62683e+06
-1.63067e+06
-1.63449e+06
-1.63832e+06
-1.64214e+06
-1.64597e+06
-1.6498e+06
-1.65363e+06
-1.65749e+06
-1.66134e+06
-1.66522e+06
-1.6691e+06
-1.67298e+06
-1.67687e+06
-1.68076e+06
-1.68466e+06
-1.68855e+06
-1.69245e+06
-1.69635e+06
-1.70026e+06
-1.70417e+06
-1.7081e+06
-1.71204e+06
-1.71597e+06
-1.71992e+06
-1.72386e+06
-1.72781e+06
-1.73176e+06
-1.73571e+06
-1.73965e+06
-1.74362e+06
-1.74757e+06
-1.75153e+06
-1.75549e+06
-1.75944e+06
-1.76341e+06
-1.76738e+06
-1.77136e+06
-1.77534e+06
-1.77932e+06
-1.78331e+06
-1.78731e+06
-1.79131e+06
-1.79533e+06
-1.79933e+06
-1.80336e+06
-1.80738e+06
-1.8114e+06
-1.81543e+06
-1.81946e+06
-1.82351e+06
-1.82754e+06
-1.8316e+06
-1.83564e+06
-1.8397e+06
-1.84374e+06
-1.84779e+06
-1.85184e+06
-1.85589e+06
-1.85996e+06
-1.86398e+06
-1.86806e+06
-1.87211e+06
-1.87617e+06
-1.88024e+06
-1.88429e+06
-1.88839e+06
-1.89244e+06
-1.89654e+06
-1.90058e+06
-1.90468e+06
-1.90877e+06
-1.91281e+06
-1.91697e+06
-1.92096e+06
-1.9251e+06
-1.92916e+06
-1.93326e+06
-1.93735e+06
-1.9414e+06
-1.94552e+06
-1.94954e+06
-1.9537e+06
-1.95771e+06
-1.96181e+06
-1.96588e+06
-1.96992e+06
-1.97401e+06
-1.97803e+06
-1.98213e+06
-1.98612e+06
-1.99016e+06
-1.9942e+06
-1.99816e+06
-2.00227e+06
-2.00612e+06
-2.01023e+06
-2.01412e+06
-2.01806e+06
-2.02207e+06
-2.02597e+06
-2.02982e+06
-2.03381e+06
-2.03761e+06
-2.04137e+06
-2.04545e+06
-2.04882e+06
-2.05294e+06
-2.05647e+06
-2.0602e+06
-2.06375e+06
-2.06752e+06
-2.07098e+06
-2.07422e+06
-2.07831e+06
-2.0808e+06
-2.0849e+06
-2.0877e+06
-2.09091e+06
-2.09415e+06
-2.0969e+06
-2.10002e+06
-2.10235e+06
-2.10569e+06
-2.10731e+06
-2.11046e+06
-2.11205e+06
-2.11459e+06
-2.11588e+06
-2.11782e+06
-2.11945e+06
-2.11957e+06
-2.12211e+06
-2.12108e+06
-2.12226e+06
-2.12198e+06
-2.12176e+06
-2.12007e+06
-2.12017e+06
-2.11757e+06
-2.11481e+06
-2.11389e+06
-2.10819e+06
-2.10652e+06
-2.10004e+06
-2.0964e+06
-2.08894e+06
-2.08317e+06
-2.07539e+06
-2.06617e+06
-2.05812e+06
-2.04572e+06
-2.037e+06
-2.02197e+06
-2.01052e+06
-1.99362e+06
-1.9804e+06
-1.9612e+06
-1.94303e+06
-1.92481e+06
-1.90136e+06
-1.88212e+06
-1.85519e+06
-1.83137e+06
-1.80484e+06
-1.77737e+06
-1.74608e+06
-1.71617e+06
-1.68371e+06
-1.65071e+06
-1.61466e+06
-1.5774e+06
-1.5417e+06
-1.50078e+06
-1.46317e+06
-1.41962e+06
-1.37773e+06
-1.33537e+06
-1.29279e+06
-1.24553e+06
-1.20193e+06
-1.15825e+06
-1.10678e+06
-1.0667e+06
-1.01974e+06
-968966
-928447
-886086
-830318
-789606
-750887
-705091
-669768
-627297
-583757
-548717
-509210
-473512
-450564
-406760
-376226
-352299
-322230
-300307
-275320
-246271
-222651
-215533
-191813
-173949
-157005
-139521
-130188
-123994
-108004
-86840.7
-85848.7
-86628.5
-78414.6
-56919.2
-52168.4
-56195.8
-53092
-48017.6
-32176.3
-33618.2
-35306.4
-32243.9
-27731.9
-22625
-26303.8
-22947.6
-14388.7
-15457.8
-25650.2
-18266
7094.54
4278.13
-3406.47
-18007.7
-15106
-19234.5
-14449
-28289.3
-50852
-119170
-204467
-216317
-246826
-216863
-245698
-473070
-694761
-810973
-821973
231044
1.67795e+06
1.26426e+06
-133827
-555990
633574
1.23728e+06
14758
-857678
-311371
1.01488e+06
854004
-716210
-798472
285773
886850
390675
-678882
-884962
-195699
799527
711122
9756.08
-824215
-266789
1.13036e+06
734957
-991867
-1.18305e+06
224422
1.54552e+06
941914
-1.03679e+06
-1.53355e+06
-1.06202e+06
350232
1.45532e+06
371048
-783309
-1.06603e+06
-383477
1.53967e+06
1.39828e+06
-365268
-1.5345e+06
-741382
463665
694318
315611
-471716
-571651
-182947
535209
643512
68651.5
-633876
-559373
162308
627509
330535
-246411
-304613
)
;

boundaryField
{
    sides
    {
        type            calculated;
        value           nonuniform List<scalar> 2(-304613 1342.66);
    }
    empty
    {
        type            empty;
    }
}


// ************************************************************************* //
