/*--------------------------------*- C++ -*----------------------------------*\
  =========                 |
  \\      /  F ield         | OpenFOAM: The Open Source CFD Toolbox
   \\    /   O peration     | Website:  https://openfoam.org
    \\  /    A nd           | Version:  9
     \\/     M anipulation  |
\*---------------------------------------------------------------------------*/
FoamFile
{
    format      ascii;
    class       volScalarField;
    location    "0.029";
    object      ddt0(rho);
}
// * * * * * * * * * * * * * * * * * * * * * * * * * * * * * * * * * * * * * //

dimensions      [1 -3 -1 0 0 0 0];

internalField   nonuniform List<scalar> 
1000
(
-14.388
-14.3807
-14.3712
-14.365
-14.3606
-14.35
-14.3346
-14.3236
-14.3217
-14.3251
-14.325
-14.3149
-14.2954
-14.272
-14.2523
-14.2418
-14.2431
-14.2554
-14.2745
-14.2956
-14.3143
-14.327
-14.3322
-14.3306
-14.3288
-14.3308
-14.3419
-14.3681
-14.3675
-14.3648
-14.3623
-14.3588
-14.3553
-14.3523
-14.3493
-14.3465
-14.3439
-14.3411
-14.3383
-14.3357
-14.333
-14.3304
-14.3277
-14.3249
-14.3221
-14.3195
-14.3169
-14.3142
-14.3115
-14.3088
-14.3061
-14.3034
-14.3008
-14.298
-14.2952
-14.2923
-14.2895
-14.2868
-14.284
-14.2813
-14.2786
-14.2759
-14.2732
-14.2704
-14.2676
-14.2648
-14.262
-14.2591
-14.2562
-14.2533
-14.2504
-14.2476
-14.2447
-14.2418
-14.239
-14.2362
-14.2334
-14.2304
-14.2276
-14.2245
-14.2219
-14.2183
-14.2164
-14.2117
-14.2113
-14.2045
-14.2065
-14.1977
-14.2009
-14.1932
-14.1912
-14.1909
-14.1857
-14.1826
-14.18
-14.1786
-14.171
-14.1764
-14.161
-14.1733
-14.1554
-14.1628
-14.1582
-14.1461
-14.1613
-14.1374
-14.1487
-14.146
-14.1262
-14.1486
-14.126
-14.1232
-14.1414
-14.1087
-14.1221
-14.1299
-14.0951
-14.1195
-14.1175
-14.0833
-14.1146
-14.1061
-14.0717
-14.1076
-14.0966
-14.0598
-14.0985
-14.0894
-14.048
-14.0865
-14.0846
-14.0376
-14.071
-14.081
-14.0299
-14.0523
-14.0763
-14.0261
-14.032
-14.0681
-14.0264
-14.0122
-14.0547
-14.0297
-13.9959
-14.035
-14.0337
-13.9863
-14.009
-14.0343
-13.987
-13.98
-14.024
-13.9982
-13.9577
-13.9966
-14.0109
-13.9549
-13.9571
-14.006
-13.9745
-13.9283
-13.9703
-13.9941
-13.9344
-13.9217
-13.9786
-13.9658
-13.9041
-13.9264
-13.9739
-13.9315
-13.8871
-13.9321
-13.9572
-13.8992
-13.8801
-13.9334
-13.9326
-13.872
-13.8776
-13.9295
-13.9056
-13.849
-13.8745
-13.922
-13.8818
-13.8278
-13.867
-13.9129
-13.863
-13.8088
-13.853
-13.9009
-13.8498
-13.7935
-13.8345
-13.8839
-13.8384
-13.7821
-13.8169
-13.8648
-13.8244
-13.7694
-13.8007
-13.8497
-13.8123
-13.7512
-13.7775
-13.8378
-13.8108
-13.7353
-13.7425
-13.815
-13.8166
-13.7362
-13.7088
-13.7743
-13.8103
-13.7482
-13.6928
-13.7333
-13.7878
-13.7522
-13.684
-13.6992
-13.7654
-13.7574
-13.6776
-13.656
-13.7267
-13.7665
-13.7004
-13.6277
-13.6601
-13.7382
-13.7297
-13.6441
-13.6141
-13.6786
-13.7226
-13.6677
-13.599
-13.6244
-13.6968
-13.6895
-13.6024
-13.5667
-13.6362
-13.6985
-13.6497
-13.556
-13.5525
-13.636
-13.6727
-13.6031
-13.53
-13.5574
-13.6325
-13.631
-13.5478
-13.5047
-13.5635
-13.6311
-13.5982
-13.5029
-13.4754
-13.5493
-13.6126
-13.5706
-13.4793
-13.4619
-13.5321
-13.5792
-13.5288
-13.4485
-13.4489
-13.5247
-13.5621
-13.4992
-13.4127
-13.4133
-13.4942
-13.541
-13.4869
-13.4002
-13.3896
-13.458
-13.5028
-13.4564
-13.3762
-13.3655
-13.4344
-13.4855
-13.4427
-13.3514
-13.3204
-13.3815
-13.4503
-13.4349
-13.3519
-13.3012
-13.3382
-13.4047
-13.4065
-13.3327
-13.2701
-13.2918
-13.3666
-13.3961
-13.3375
-13.2537
-13.2365
-13.2956
-13.3496
-13.328
-13.2527
-13.2111
-13.2459
-13.3069
-13.311
-13.2431
-13.1755
-13.1783
-13.2408
-13.2821
-13.2492
-13.1755
-13.1395
-13.1733
-13.2265
-13.2268
-13.1643
-13.1027
-13.1041
-13.161
-13.2006
-13.1714
-13.099
-13.0547
-13.0777
-13.1306
-13.1435
-13.0941
-13.0284
-13.0108
-13.0533
-13.0987
-13.0884
-13.0256
-12.9667
-12.9645
-13.0098
-13.0412
-13.017
-12.9527
-12.9074
-12.9223
-12.969
-12.9871
-12.9465
-12.8782
-12.8431
-12.8626
-12.9051
-12.9147
-12.8683
-12.8052
-12.778
-12.8018
-12.8417
-12.8399
-12.7896
-12.7281
-12.7074
-12.7056
-12.7692
-12.7479
-12.6984
-12.6639
-12.6377
-12.6416
-12.6427
-12.6671
-12.6482
-12.6549
-12.5787
-12.534
-12.5446
-12.5444
-12.5188
-12.4922
-12.4615
-12.4321
-12.4214
-12.4262
-12.4219
-12.3953
-12.3567
-12.3247
-12.3114
-12.3112
-12.3004
-12.2699
-12.2342
-12.1999
-12.1732
-12.1699
-12.1689
-12.1422
-12.1017
-12.0668
-12.0431
-12.0356
-12.0346
-12.0114
-11.9684
-11.9286
-11.9017
-11.8899
-11.8872
-11.8713
-11.8328
-11.7916
-11.7633
-11.7493
-11.7407
-11.727
-11.7002
-11.6627
-11.6254
-11.6015
-11.5958
-11.5903
-11.5711
-11.5381
-11.5034
-11.4778
-11.4691
-11.4707
-11.4622
-11.4331
-11.3971
-11.3745
-11.3682
-11.3684
-11.3652
-11.3512
-11.3256
-11.3011
-11.2916
-11.2978
-11.3063
-11.3034
-11.2865
-11.264
-11.2517
-11.2583
-11.2746
-11.283
-11.2751
-11.2588
-11.248
-11.2539
-11.2731
-11.2912
-11.2966
-11.2904
-11.2819
-11.2802
-11.2936
-11.3185
-11.3394
-11.3425
-11.3333
-11.3321
-11.348
-11.3738
-11.3977
-11.4102
-11.4108
-11.4087
-11.4166
-11.4386
-11.467
-11.4887
-11.4965
-11.4952
-11.4963
-11.5116
-11.5414
-11.5726
-11.5907
-11.5919
-11.5875
-11.5947
-11.6223
-11.6593
-11.6844
-11.6865
-11.6772
-11.6808
-11.7083
-11.7476
-11.7759
-11.7822
-11.776
-11.7776
-11.799
-11.8337
-11.8637
-11.8762
-11.8742
-11.8737
-11.8897
-11.9221
-11.9556
-11.9733
-11.9732
-11.9703
-11.9822
-12.0122
-12.0467
-12.0678
-12.0704
-12.0681
-12.078
-12.1056
-12.1401
-12.164
-12.1701
-12.1668
-12.1712
-12.1943
-12.2292
-12.2593
-12.2714
-12.2686
-12.2682
-12.2847
-12.3189
-12.3545
-12.3747
-12.3752
-12.3695
-12.3773
-12.4059
-12.4446
-12.4727
-12.4792
-12.472
-12.4722
-12.4947
-12.5334
-12.5688
-12.5837
-12.5797
-12.5756
-12.5901
-12.624
-12.6614
-12.6831
-12.6838
-12.6786
-12.686
-12.7137
-12.7512
-12.7795
-12.7884
-12.7856
-12.7886
-12.8092
-12.8431
-12.8744
-12.8903
-12.892
-12.893
-12.906
-12.934
-12.9661
-12.9887
-12.9974
-12.9999
-13.008
-13.0284
-13.0573
-13.0834
-13.0996
-13.107
-13.1134
-13.1275
-13.1504
-13.1768
-13.1985
-13.2123
-13.2208
-13.231
-13.2478
-13.2708
-13.2955
-13.3155
-13.3289
-13.3383
-13.3496
-13.3663
-13.3889
-13.4122
-13.4316
-13.4454
-13.4562
-13.4691
-13.486
-13.5076
-13.5294
-13.5488
-13.5639
-13.5764
-13.5896
-13.6057
-13.6255
-13.6465
-13.6666
-13.6835
-13.6983
-13.7121
-13.7275
-13.7455
-13.7651
-13.785
-13.8031
-13.8192
-13.8347
-13.8505
-13.8679
-13.886
-13.9047
-13.9231
-13.9405
-13.9577
-13.9745
-13.9914
-14.0084
-14.0261
-14.0435
-14.0609
-14.0783
-14.0956
-14.1136
-14.1312
-14.1483
-14.1658
-14.1828
-14.2001
-14.2175
-14.2348
-14.2525
-14.2702
-14.288
-14.3052
-14.3224
-14.3394
-14.3568
-14.3735
-14.3907
-14.4084
-14.4259
-14.4435
-14.4606
-14.4777
-14.4946
-14.5119
-14.5289
-14.5464
-14.5635
-14.5809
-14.5984
-14.6153
-14.6328
-14.6493
-14.6663
-14.6836
-14.7005
-14.7182
-14.7355
-14.7529
-14.77
-14.7869
-14.8036
-14.8204
-14.8371
-14.8535
-14.8708
-14.8876
-14.905
-14.9223
-14.9393
-14.9565
-14.9736
-14.991
-15.0075
-15.0245
-15.041
-15.0579
-15.0746
-15.0916
-15.1087
-15.1257
-15.1429
-15.1596
-15.1768
-15.1937
-15.2108
-15.2272
-15.2443
-15.261
-15.2777
-15.2943
-15.3106
-15.3273
-15.3438
-15.3605
-15.377
-15.3935
-15.4101
-15.4268
-15.4436
-15.4605
-15.4767
-15.4938
-15.5102
-15.5267
-15.5431
-15.5596
-15.5766
-15.5926
-15.6096
-15.6259
-15.6426
-15.6588
-15.675
-15.6912
-15.7072
-15.7238
-15.7392
-15.7559
-15.7716
-15.7877
-15.8041
-15.8196
-15.8366
-15.852
-15.8688
-15.8839
-15.9004
-15.9167
-15.9316
-15.9495
-15.9627
-15.98
-15.9948
-16.011
-16.0267
-16.0414
-16.0578
-16.0714
-16.0889
-16.1026
-16.1184
-16.1337
-16.148
-16.1639
-16.1777
-16.1939
-16.2072
-16.222
-16.2369
-16.2498
-16.2668
-16.277
-16.2943
-16.3058
-16.3192
-16.3344
-16.347
-16.3583
-16.3739
-16.3847
-16.3949
-16.4141
-16.4148
-16.436
-16.4421
-16.4542
-16.462
-16.4764
-16.4837
-16.486
-16.5112
-16.4963
-16.5239
-16.5193
-16.5265
-16.5361
-16.5349
-16.5444
-16.5362
-16.5554
-16.5334
-16.5527
-16.5352
-16.545
-16.5257
-16.5273
-16.5242
-16.4876
-16.5162
-16.4605
-16.4654
-16.4396
-16.4217
-16.3734
-16.3778
-16.3223
-16.2718
-16.2756
-16.1707
-16.1761
-16.0737
-16.0533
-15.9507
-15.9038
-15.8205
-15.7178
-15.6585
-15.5096
-15.4675
-15.2893
-15.2172
-15.0316
-14.9565
-14.7554
-14.6024
-14.469
-14.2326
-14.1203
-13.8463
-13.6708
-13.4543
-13.2394
-12.9563
-12.731
-12.468
-12.2161
-11.9131
-11.6042
-11.3545
-11.0003
-10.7437
-10.3637
-10.0424
-9.72323
-9.40943
-8.99869
-8.69172
-8.3825
-7.88271
-7.67177
-7.318
-6.84851
-6.57936
-6.29463
-5.76954
-5.55644
-5.24039
-4.78639
-4.66187
-4.32312
-3.9212
-3.70147
-3.3535
-3.07358
-3.07486
-2.55298
-2.32263
-2.22521
-1.95534
-1.85456
-1.65575
-1.33485
-1.11915
-1.27576
-1.01183
-0.865141
-0.719938
-0.541183
-0.539175
-0.592523
-0.392113
-0.0507753
-0.17525
-0.331783
-0.262143
0.139706
0.143326
-0.0619125
-0.0779403
-0.03963
0.264827
0.173297
0.0834738
0.110222
0.175964
0.267793
0.129214
0.202904
0.350959
0.262004
-0.0142578
0.0733905
0.535345
0.469848
0.4208
0.0497861
0.138615
0.0298363
0.112574
0.0673371
-0.103099
-0.848753
-1.57899
-1.23422
-2.24626
-1.48421
-1.43385
-4.28743
-5.87598
-6.64534
-8.11914
3.46642
19.9896
11.0543
-6.25876
-8.10643
10.4295
14.2042
-4.46988
-10.3237
-2.36848
14.0016
9.32287
-13.2925
-8.41802
7.63456
9.83531
1.75009
-7.92142
-8.49894
-1.616
10.1529
5.61396
0.854696
-10.8368
-5.10741
16.5822
9.31035
-16.6095
-12.0702
5.99921
18.0004
8.76889
-16.817
-13.9269
-7.88863
5.07218
17.0482
0.432918
-8.63243
-10.5417
-5.0602
22.1957
12.4876
-7.84478
-16.5697
-4.84688
6.90323
6.46379
3.11149
-7.39939
-5.24682
-0.644483
6.53963
6.23983
0.274074
-8.57133
-5.65509
4.32861
6.75125
1.36521
-2.79868
-2.24505
)
;

boundaryField
{
    sides
    {
        type            calculated;
        value           nonuniform List<scalar> 2(-2.24505 -14.388);
    }
    empty
    {
        type            empty;
    }
}


// ************************************************************************* //
