/*--------------------------------*- C++ -*----------------------------------*\
  =========                 |
  \\      /  F ield         | OpenFOAM: The Open Source CFD Toolbox
   \\    /   O peration     | Website:  https://openfoam.org
    \\  /    A nd           | Version:  9
     \\/     M anipulation  |
\*---------------------------------------------------------------------------*/
FoamFile
{
    format      ascii;
    class       volScalarField;
    location    "0.029";
    object      mag(U);
}
// * * * * * * * * * * * * * * * * * * * * * * * * * * * * * * * * * * * * * //

dimensions      [0 1 -1 0 0 0 0];

internalField   nonuniform List<scalar> 
1000
(
15.3828
15.8972
16.4617
16.9195
17.3387
17.7637
18.1981
18.6352
19.0716
19.5072
19.9425
20.3779
20.8133
21.2488
21.6844
22.1203
22.5563
22.9924
23.4286
23.8647
24.3008
24.7369
25.173
25.6091
26.0452
26.4814
26.9176
27.354
27.7904
28.2267
28.663
29.0994
29.5358
29.9723
30.4088
30.8454
31.282
31.7187
32.1554
32.5921
33.0289
33.4657
33.9026
34.3395
34.7765
35.2135
35.6505
36.0876
36.5247
36.9619
37.3991
37.8364
38.2737
38.711
39.1484
39.5858
40.0233
40.4608
40.8984
41.336
41.7736
42.2113
42.649
43.0868
43.5246
43.9625
44.4003
44.8383
45.2763
45.7143
46.1523
46.5904
47.0285
47.4667
47.9049
48.3432
48.7815
49.2198
49.6582
50.0966
50.535
50.9735
51.4121
51.8506
52.2892
52.7279
53.1665
53.6053
54.044
54.4828
54.9216
55.3605
55.7994
56.2384
56.6774
57.1164
57.5555
57.9946
58.4337
58.8729
59.3121
59.7514
60.1907
60.63
61.0694
61.5088
61.9483
62.3877
62.8273
63.2669
63.7064
64.1461
64.5858
65.0255
65.4652
65.905
66.3448
66.7847
67.2246
67.6645
68.1045
68.5445
68.9845
69.4246
69.8647
70.3048
70.745
71.1852
71.6254
72.0657
72.506
72.9463
73.3867
73.8271
74.2675
74.708
75.1485
75.589
76.0296
76.4702
76.9108
77.3515
77.7922
78.2329
78.6736
79.1144
79.5552
79.996
80.4369
80.8778
81.3187
81.7597
82.2007
82.6417
83.0827
83.5239
83.965
84.4061
84.8472
85.2885
85.7297
86.1709
86.6122
87.0535
87.4948
87.9361
88.3776
88.8189
89.2603
89.7018
90.1433
90.5848
91.0263
91.4679
91.9095
92.351
92.7927
93.2344
93.676
94.1177
94.5594
95.0012
95.4429
95.8847
96.3265
96.7683
97.2101
97.652
98.0939
98.5358
98.9777
99.4196
99.8616
100.304
100.746
101.188
101.63
102.072
102.514
102.956
103.398
103.84
104.282
104.724
105.166
105.609
106.051
106.493
106.935
107.377
107.819
108.262
108.704
109.146
109.588
110.031
110.473
110.915
111.357
111.8
112.242
112.684
113.127
113.569
114.011
114.453
114.896
115.338
115.78
116.223
116.665
117.107
117.55
117.992
118.434
118.876
119.319
119.761
120.203
120.645
121.088
121.53
121.972
122.414
122.856
123.299
123.741
124.183
124.625
125.067
125.509
125.951
126.393
126.835
127.277
127.719
128.161
128.603
129.045
129.487
129.928
130.37
130.812
131.254
131.695
132.137
132.578
133.02
133.461
133.903
134.344
134.786
135.227
135.668
136.109
136.55
136.992
137.433
137.873
138.314
138.755
139.196
139.637
140.077
140.518
140.958
141.398
141.839
142.279
142.719
143.159
143.599
144.039
144.478
144.918
145.358
145.797
146.236
146.675
147.114
147.553
147.992
148.431
148.869
149.308
149.746
150.184
150.622
151.06
151.497
151.935
152.372
152.809
153.246
153.683
154.12
154.556
154.992
155.428
155.864
156.299
156.735
157.17
157.605
158.039
158.474
158.908
159.342
159.775
160.209
160.642
161.074
161.507
161.939
162.371
162.802
163.233
163.664
164.094
164.524
164.954
165.383
165.812
166.24
166.668
167.096
167.523
167.95
168.376
168.802
169.227
169.652
170.076
170.499
170.922
171.345
171.767
172.188
172.608
173.028
173.447
173.866
174.284
174.701
175.117
175.533
175.948
176.361
176.774
177.187
177.598
178.008
178.417
178.826
179.233
179.639
180.044
180.448
180.851
181.253
181.654
182.054
182.453
182.852
183.25
183.647
184.042
184.434
184.825
185.214
185.601
185.986
186.37
186.752
187.133
187.511
187.888
188.264
188.637
189.009
189.378
189.746
190.111
190.475
190.836
191.195
191.552
191.907
192.259
192.609
192.956
193.301
193.644
193.984
194.321
194.656
194.988
195.318
195.644
195.968
196.289
196.608
196.923
197.236
197.545
197.852
198.156
198.457
198.754
199.049
199.341
199.63
199.916
200.199
200.479
200.756
201.03
201.301
201.57
201.836
202.098
202.359
202.616
202.871
203.123
203.373
203.62
203.865
204.107
204.347
204.585
204.821
205.055
205.286
205.516
205.744
205.97
206.195
206.418
206.639
206.859
207.078
207.296
207.512
207.727
207.941
208.154
208.366
208.577
208.788
208.998
209.207
209.415
209.623
209.83
210.037
210.244
210.45
210.656
210.862
211.067
211.272
211.477
211.682
211.886
212.091
212.295
212.499
212.703
212.908
213.112
213.316
213.52
213.724
213.928
214.132
214.336
214.54
214.744
214.948
215.153
215.357
215.561
215.766
215.97
216.174
216.379
216.583
216.788
216.993
217.197
217.402
217.607
217.812
218.017
218.222
218.427
218.632
218.838
219.043
219.248
219.454
219.659
219.865
220.071
220.276
220.482
220.688
220.894
221.1
221.306
221.512
221.718
221.925
222.131
222.337
222.544
222.75
222.957
223.164
223.37
223.577
223.784
223.991
224.198
224.405
224.612
224.82
225.027
225.234
225.442
225.649
225.857
226.065
226.272
226.48
226.688
226.896
227.104
227.312
227.52
227.728
227.936
228.145
228.353
228.561
228.77
228.978
229.187
229.396
229.604
229.813
230.022
230.231
230.44
230.649
230.858
231.067
231.276
231.486
231.695
231.904
232.114
232.323
232.533
232.743
232.952
233.162
233.372
233.582
233.791
234.001
234.211
234.422
234.632
234.842
235.052
235.262
235.473
235.683
235.894
236.104
236.315
236.525
236.736
236.947
237.157
237.368
237.579
237.79
238.001
238.212
238.423
238.634
238.845
239.056
239.268
239.479
239.69
239.902
240.113
240.325
240.536
240.748
240.96
241.171
241.383
241.595
241.807
242.019
242.23
242.442
242.654
242.867
243.079
243.291
243.503
243.715
243.928
244.14
244.352
244.565
244.777
244.99
245.202
245.415
245.628
245.84
246.053
246.266
246.479
246.691
246.904
247.117
247.33
247.543
247.756
247.969
248.183
248.396
248.609
248.822
249.035
249.249
249.462
249.676
249.889
250.103
250.316
250.53
250.743
250.957
251.17
251.384
251.598
251.812
252.025
252.239
252.453
252.667
252.881
253.095
253.309
253.523
253.737
253.951
254.165
254.379
254.594
254.808
255.022
255.236
255.451
255.665
255.879
256.094
256.308
256.523
256.737
256.952
257.166
257.381
257.595
257.81
258.024
258.239
258.454
258.668
258.883
259.098
259.313
259.527
259.742
259.957
260.172
260.387
260.602
260.817
261.031
261.246
261.461
261.676
261.891
262.106
262.321
262.536
262.751
262.967
263.182
263.397
263.612
263.827
264.042
264.257
264.472
264.688
264.903
265.118
265.333
265.549
265.764
265.979
266.194
266.41
266.625
266.84
267.055
267.271
267.486
267.701
267.917
268.132
268.347
268.563
268.778
268.993
269.209
269.424
269.639
269.854
270.07
270.285
270.5
270.716
270.931
271.146
271.361
271.577
271.792
272.007
272.222
272.437
272.652
272.868
273.083
273.298
273.513
273.728
273.943
274.157
274.372
274.587
274.802
275.016
275.231
275.445
275.66
275.874
276.088
276.302
276.516
276.73
276.944
277.157
277.371
277.584
277.797
278.01
278.223
278.435
278.648
278.86
279.071
279.283
279.494
279.705
279.915
280.125
280.335
280.544
280.753
280.962
281.169
281.377
281.583
281.789
281.995
282.199
282.403
282.606
282.808
283.009
283.209
283.408
283.605
283.802
283.997
284.191
284.383
284.574
284.763
284.95
285.135
285.318
285.499
285.678
285.855
286.029
286.2
286.369
286.535
286.697
286.857
287.013
287.166
287.315
287.46
287.602
287.739
287.872
288.001
288.125
288.245
288.359
288.469
288.574
288.673
288.767
288.856
288.94
289.018
289.09
289.156
289.217
289.272
289.321
289.365
289.402
289.434
289.46
289.481
289.496
289.505
289.508
289.507
289.5
289.489
289.472
289.45
289.424
289.394
289.359
289.32
289.278
289.232
289.182
289.13
289.074
289.016
288.956
288.893
288.828
288.762
288.693
288.624
288.553
288.481
288.408
288.335
288.261
288.186
288.111
288.035
287.96
287.884
287.809
287.735
287.662
287.59
287.519
287.449
287.379
287.311
287.243
287.176
287.11
287.045
286.982
286.92
286.86
286.801
286.743
286.687
286.633
286.58
286.529
286.48
286.433
286.392
286.361
286.331
286.313
286.303
286.276
286.253
286.255
286.268
286.294
286.329
286.302
286.179
286.052
286.004
285.992
285.942
285.85
285.793
285.806
285.813
285.744
285.671
285.674
285.704
285.706
285.664
285.61
285.618
285.671
285.686
285.635
285.556
285.535
285.577
285.586
285.524
285.475
285.498
285.565
285.573
285.479
285.407
285.431
285.523
285.622
285.632
285.556
285.49
285.515
285.598
285.632
285.57
285.467
285.454
285.542
285.613
285.604
285.555
285.53
285.545
285.579
285.605
285.587
285.541
285.531
285.564
285.597
285.604
285.576
285.539
285.54
)
;

boundaryField
{
    sides
    {
        type            calculated;
        value           nonuniform List<scalar> 2(285.54 15.3828);
    }
    empty
    {
        type            empty;
    }
}


// ************************************************************************* //
