/*--------------------------------*- C++ -*----------------------------------*\
  =========                 |
  \\      /  F ield         | OpenFOAM: The Open Source CFD Toolbox
   \\    /   O peration     | Website:  https://openfoam.org
    \\  /    A nd           | Version:  9
     \\/     M anipulation  |
\*---------------------------------------------------------------------------*/
FoamFile
{
    format      ascii;
    class       surfaceScalarField;
    location    "0.029";
    object      phi_0;
}
// * * * * * * * * * * * * * * * * * * * * * * * * * * * * * * * * * * * * * //

dimensions      [1 0 -1 0 0 0 0];

internalField   nonuniform List<scalar> 
999
(
21.1625
21.7377
22.3126
22.8872
23.4616
24.0356
24.609
25.1819
25.7548
26.3278
26.9008
27.4734
28.0452
28.6161
29.1862
29.7558
30.3256
30.8958
31.4668
32.0386
32.6112
33.1842
33.7575
34.3307
34.9039
35.4771
36.0508
36.6255
37.2002
37.7748
38.3493
38.9237
39.4979
40.072
40.6459
41.2198
41.7936
42.3672
42.9407
43.5142
44.0875
44.6607
45.2338
45.8068
46.3797
46.9525
47.5251
48.0977
48.6702
49.2425
49.8148
50.3869
50.9589
51.5308
52.1026
52.6743
53.2459
53.8174
54.3888
54.96
55.5311
56.1022
56.6731
57.2439
57.8146
58.3852
58.9557
59.5261
60.0963
60.6665
61.2365
61.8064
62.3762
62.9458
63.5154
64.0848
64.6542
65.2234
65.7925
66.3615
66.9304
67.4991
68.0677
68.6362
69.2047
69.7728
70.3411
70.909
71.477
72.0448
72.6124
73.1801
73.7475
74.3148
74.882
75.4491
76.016
76.583
77.1495
77.7164
78.2826
78.8491
79.4155
79.9813
80.5477
81.1132
81.6792
82.245
82.8101
83.376
83.9411
84.506
85.0717
85.636
86.2009
86.7661
87.3299
87.8947
88.4594
89.0227
89.5873
90.1515
90.7144
91.2787
91.8426
92.405
92.9689
93.5325
94.0944
94.6579
95.2212
95.7827
96.3456
96.9088
97.47
98.0321
98.5952
99.1562
99.7175
100.28
100.841
101.402
101.964
102.525
103.085
103.646
104.208
104.767
105.328
105.889
106.448
107.008
107.569
108.128
108.687
109.247
109.807
110.365
110.924
111.484
112.043
112.6
113.159
113.719
114.276
114.833
115.392
115.951
116.507
117.064
117.623
118.18
118.735
119.293
119.851
120.407
120.962
121.52
122.077
122.632
123.187
123.744
124.3
124.854
125.409
125.966
126.521
127.074
127.629
128.186
128.74
129.292
129.847
130.403
130.957
131.508
132.062
132.617
133.171
133.722
134.275
134.829
135.382
135.933
136.485
137.039
137.591
138.142
138.693
139.246
139.799
140.348
140.898
141.45
142.003
142.552
143.101
143.652
144.204
144.754
145.302
145.851
146.403
146.953
147.5
148.048
148.599
149.149
149.696
150.242
150.791
151.342
151.89
152.435
152.982
153.531
154.08
154.626
155.171
155.718
156.267
156.813
157.357
157.902
158.45
158.998
159.542
160.084
160.63
161.178
161.724
162.266
162.808
163.354
163.901
164.445
164.986
165.528
166.073
166.619
167.161
167.701
168.243
168.789
169.333
169.873
170.412
170.954
171.498
172.041
172.58
173.119
173.66
174.203
174.744
175.282
175.82
176.361
176.904
177.444
177.98
178.517
179.056
179.598
180.137
180.673
181.209
181.747
182.287
182.826
183.361
183.895
184.433
184.972
185.51
186.044
186.577
187.112
187.65
188.187
188.722
189.254
189.787
190.323
190.86
191.393
191.924
192.455
192.99
193.526
194.059
194.589
195.119
195.651
196.185
196.718
197.248
197.776
198.306
198.839
199.371
199.901
200.428
200.955
201.484
202.016
202.546
203.073
203.598
204.125
204.654
205.183
205.71
206.234
206.758
207.285
207.813
208.34
208.864
209.386
209.909
210.434
210.96
211.484
212.005
212.525
213.047
213.571
214.095
214.616
215.134
215.653
216.173
216.695
217.216
217.734
218.25
218.767
219.286
219.805
220.323
220.838
221.352
221.866
222.383
222.899
223.414
223.926
224.437
224.949
225.463
225.977
226.488
226.997
227.506
228.014
228.525
229.035
229.543
230.049
230.555
231.06
231.566
232.073
232.579
233.085
233.588
234.089
234.591
235.093
235.594
236.093
236.592
237.089
237.586
238.083
238.58
239.076
239.57
240.063
240.555
241.048
241.54
242.031
242.52
243.008
243.495
243.982
244.468
244.954
245.438
245.921
246.403
246.884
247.365
247.846
248.325
248.802
249.278
249.753
250.229
250.704
251.177
251.649
252.119
252.589
253.059
253.528
253.996
254.462
254.927
255.392
255.855
256.319
256.782
257.243
257.703
258.163
258.621
259.08
259.539
259.996
260.452
260.907
261.362
261.816
262.271
262.725
263.178
263.63
264.082
264.534
264.986
265.438
265.889
266.34
266.79
267.24
267.691
268.143
268.594
269.044
269.494
269.944
270.395
270.847
271.299
271.75
272.201
272.653
273.104
273.557
274.011
274.464
274.918
275.371
275.825
276.28
276.736
277.192
277.649
278.105
278.562
279.019
279.478
279.937
280.397
280.857
281.317
281.777
282.239
282.702
283.166
283.629
284.093
284.557
285.021
285.488
285.955
286.423
286.89
287.357
287.825
288.295
288.766
289.238
289.709
290.18
290.652
291.125
291.6
292.075
292.55
293.025
293.5
293.977
294.455
294.934
295.413
295.892
296.371
296.852
297.334
297.816
298.299
298.782
299.265
299.749
300.235
300.721
301.208
301.695
302.182
302.669
303.159
303.649
304.14
304.631
305.121
305.613
306.105
306.6
307.095
307.59
308.084
308.579
309.076
309.573
310.072
310.572
311.07
311.569
312.069
312.57
313.073
313.577
314.08
314.583
315.086
315.591
316.098
316.605
317.112
317.62
318.127
318.636
319.146
319.657
320.168
320.68
321.191
321.704
322.217
322.732
323.248
323.764
324.279
324.796
325.313
325.832
326.351
326.871
327.391
327.911
328.433
328.955
329.478
330.002
330.526
331.051
331.576
332.102
332.629
333.157
333.686
334.214
334.744
335.274
335.804
336.336
336.869
337.402
337.936
338.47
339.004
339.54
340.076
340.613
341.151
341.69
342.228
342.768
343.308
343.849
344.391
344.934
345.477
346.02
346.565
347.11
347.655
348.202
348.749
349.297
349.846
350.395
350.945
351.495
352.047
352.599
353.152
353.705
354.259
354.814
355.369
355.925
356.482
357.04
357.598
358.157
358.717
359.277
359.838
360.4
360.962
361.526
362.089
362.654
363.219
363.785
364.352
364.919
365.487
366.056
366.625
367.195
367.766
368.338
368.91
369.483
370.056
370.631
371.206
371.781
372.357
372.935
373.512
374.091
374.67
375.25
375.83
376.411
376.993
377.576
378.159
378.743
379.327
379.913
380.499
381.085
381.673
382.261
382.849
383.439
384.029
384.62
385.211
385.803
386.396
386.99
387.584
388.179
388.774
389.37
389.967
390.565
391.163
391.762
392.362
392.962
393.563
394.165
394.767
395.37
395.974
396.578
397.183
397.789
398.395
399.002
399.61
400.218
400.827
401.437
402.048
402.659
403.27
403.883
404.496
405.11
405.724
406.339
406.955
407.571
408.188
408.806
409.425
410.044
410.663
411.284
411.905
412.527
413.149
413.772
414.396
415.02
415.645
416.271
416.897
417.524
418.152
418.78
419.409
420.039
420.669
421.3
421.931
422.563
423.196
423.83
424.464
425.099
425.734
426.37
427.007
427.644
428.282
428.92
429.56
430.199
430.84
431.481
432.123
432.765
433.408
434.051
434.695
435.34
435.985
436.631
437.278
437.925
438.573
439.221
439.87
440.519
441.169
441.82
442.471
443.123
443.775
444.428
445.081
445.735
446.39
447.044
447.7
448.356
449.012
449.669
450.326
450.984
451.642
452.301
452.96
453.619
454.278
454.939
455.599
456.26
456.92
457.582
458.243
458.904
459.566
460.228
460.89
461.551
462.213
462.875
463.536
464.197
464.859
465.52
466.179
466.84
467.498
468.157
468.814
469.471
470.126
470.781
471.434
472.085
472.736
473.383
474.03
474.673
475.315
475.953
476.589
477.222
477.851
478.477
479.097
479.716
480.328
480.936
481.538
482.136
482.726
483.31
483.889
484.458
485.023
485.577
486.124
486.662
487.192
487.71
488.219
488.718
489.206
489.683
490.147
490.601
491.041
491.471
491.886
492.287
492.676
493.053
493.412
493.76
494.095
494.411
494.718
495.01
495.284
495.547
495.799
496.03
496.252
496.462
496.653
496.84
497.013
497.17
497.318
497.452
497.575
497.698
497.8
497.893
497.982
498.06
498.134
498.2
498.254
498.299
498.35
498.39
498.425
498.453
498.475
498.497
498.52
498.536
498.538
498.545
498.558
498.569
498.563
498.558
498.56
498.563
498.565
498.554
498.547
498.544
498.539
498.532
498.522
498.517
498.508
498.494
498.484
498.484
498.482
498.46
498.441
498.425
498.423
498.417
498.416
498.411
498.409
498.413
498.447
498.51
498.559
498.649
498.708
498.766
498.937
499.172
499.438
499.763
499.624
498.825
498.382
498.633
498.957
498.54
497.972
498.151
498.563
498.658
498.098
497.725
498.257
498.594
498.288
497.895
497.825
498.142
498.482
498.546
498.14
497.916
497.881
498.315
498.519
497.856
497.484
498.148
498.631
498.391
497.671
497.32
497.993
498.55
498.865
498.662
497.98
497.963
498.308
498.73
498.932
498.045
497.545
497.859
498.522
498.716
498.439
498.181
498.056
498.352
498.562
498.588
498.327
498.077
498.066
498.409
498.635
498.462
498.192
498.137
498.249
)
;

boundaryField
{
    sides
    {
        type            calculated;
        value           nonuniform List<scalar> 2(498.339 -20.587);
    }
    empty
    {
        type            empty;
        value           nonuniform List<scalar> 0();
    }
}


// ************************************************************************* //
