/*--------------------------------*- C++ -*----------------------------------*\
  =========                 |
  \\      /  F ield         | OpenFOAM: The Open Source CFD Toolbox
   \\    /   O peration     | Website:  https://openfoam.org
    \\  /    A nd           | Version:  9
     \\/     M anipulation  |
\*---------------------------------------------------------------------------*/
FoamFile
{
    format      ascii;
    class       volVectorField;
    location    "0.029";
    object      U_0;
}
// * * * * * * * * * * * * * * * * * * * * * * * * * * * * * * * * * * * * * //

dimensions      [0 1 -1 0 0 0 0];

internalField   nonuniform List<vector> 
1000
(
(15.3769 0 0)
(15.8916 0 0)
(16.4563 0 0)
(16.9143 0 0)
(17.3337 0 0)
(17.7588 0 0)
(18.1934 0 0)
(18.6307 0 0)
(19.0672 0 0)
(19.503 0 0)
(19.9386 0 0)
(20.3741 0 0)
(20.8097 0 0)
(21.2454 0 0)
(21.6812 0 0)
(22.1172 0 0)
(22.5534 0 0)
(22.9897 0 0)
(23.4261 0 0)
(23.8624 0 0)
(24.2987 0 0)
(24.735 0 0)
(25.1713 0 0)
(25.6075 0 0)
(26.0438 0 0)
(26.4802 0 0)
(26.9167 0 0)
(27.3532 0 0)
(27.7897 0 0)
(28.2262 0 0)
(28.6628 0 0)
(29.0993 0 0)
(29.536 0 0)
(29.9726 0 0)
(30.4093 0 0)
(30.8461 0 0)
(31.2829 0 0)
(31.7197 0 0)
(32.1566 0 0)
(32.5935 0 0)
(33.0305 0 0)
(33.4675 0 0)
(33.9046 0 0)
(34.3417 0 0)
(34.7788 0 0)
(35.216 0 0)
(35.6533 0 0)
(36.0905 0 0)
(36.5279 0 0)
(36.9652 0 0)
(37.4026 0 0)
(37.8401 0 0)
(38.2776 0 0)
(38.7151 0 0)
(39.1527 0 0)
(39.5903 0 0)
(40.028 0 0)
(40.4657 0 0)
(40.9034 0 0)
(41.3412 0 0)
(41.779 0 0)
(42.2169 0 0)
(42.6548 0 0)
(43.0927 0 0)
(43.5307 0 0)
(43.9688 0 0)
(44.4069 0 0)
(44.845 0 0)
(45.2831 0 0)
(45.7213 0 0)
(46.1596 0 0)
(46.5979 0 0)
(47.0362 0 0)
(47.4745 0 0)
(47.9129 0 0)
(48.3514 0 0)
(48.7899 0 0)
(49.2284 0 0)
(49.667 0 0)
(50.1056 0 0)
(50.5442 0 0)
(50.9829 0 0)
(51.4216 0 0)
(51.8603 0 0)
(52.2991 0 0)
(52.738 0 0)
(53.1768 0 0)
(53.6157 0 0)
(54.0547 0 0)
(54.4937 0 0)
(54.9327 0 0)
(55.3717 0 0)
(55.8109 0 0)
(56.25 0 0)
(56.6892 0 0)
(57.1284 0 0)
(57.5676 0 0)
(58.0069 0 0)
(58.4463 0 0)
(58.8857 0 0)
(59.325 0 0)
(59.7645 0 0)
(60.204 0 0)
(60.6435 0 0)
(61.0831 0 0)
(61.5227 0 0)
(61.9623 0 0)
(62.402 0 0)
(62.8417 0 0)
(63.2815 0 0)
(63.7213 0 0)
(64.1611 0 0)
(64.601 0 0)
(65.0409 0 0)
(65.4808 0 0)
(65.9208 0 0)
(66.3608 0 0)
(66.8009 0 0)
(67.241 0 0)
(67.6811 0 0)
(68.1213 0 0)
(68.5615 0 0)
(69.0017 0 0)
(69.4419 0 0)
(69.8822 0 0)
(70.3225 0 0)
(70.7629 0 0)
(71.2033 0 0)
(71.6437 0 0)
(72.0842 0 0)
(72.5247 0 0)
(72.9652 0 0)
(73.4058 0 0)
(73.8464 0 0)
(74.287 0 0)
(74.7276 0 0)
(75.1683 0 0)
(75.609 0 0)
(76.0498 0 0)
(76.4906 0 0)
(76.9314 0 0)
(77.3722 0 0)
(77.8132 0 0)
(78.254 0 0)
(78.695 0 0)
(79.136 0 0)
(79.577 0 0)
(80.018 0 0)
(80.4591 0 0)
(80.9002 0 0)
(81.3412 0 0)
(81.7824 0 0)
(82.2236 0 0)
(82.6648 0 0)
(83.106 0 0)
(83.5473 0 0)
(83.9886 0 0)
(84.4299 0 0)
(84.8713 0 0)
(85.3127 0 0)
(85.7541 0 0)
(86.1955 0 0)
(86.637 0 0)
(87.0785 0 0)
(87.52 0 0)
(87.9615 0 0)
(88.4032 0 0)
(88.8447 0 0)
(89.2863 0 0)
(89.728 0 0)
(90.1697 0 0)
(90.6114 0 0)
(91.0531 0 0)
(91.4949 0 0)
(91.9366 0 0)
(92.3784 0 0)
(92.8202 0 0)
(93.2621 0 0)
(93.7039 0 0)
(94.1458 0 0)
(94.5877 0 0)
(95.0297 0 0)
(95.4716 0 0)
(95.9136 0 0)
(96.3556 0 0)
(96.7976 0 0)
(97.2396 0 0)
(97.6817 0 0)
(98.1238 0 0)
(98.5659 0 0)
(99.008 0 0)
(99.4501 0 0)
(99.8923 0 0)
(100.334 0 0)
(100.777 0 0)
(101.219 0 0)
(101.661 0 0)
(102.103 0 0)
(102.546 0 0)
(102.988 0 0)
(103.43 0 0)
(103.872 0 0)
(104.315 0 0)
(104.757 0 0)
(105.199 0 0)
(105.642 0 0)
(106.084 0 0)
(106.526 0 0)
(106.969 0 0)
(107.411 0 0)
(107.854 0 0)
(108.296 0 0)
(108.739 0 0)
(109.181 0 0)
(109.623 0 0)
(110.066 0 0)
(110.508 0 0)
(110.951 0 0)
(111.393 0 0)
(111.836 0 0)
(112.278 0 0)
(112.721 0 0)
(113.163 0 0)
(113.606 0 0)
(114.048 0 0)
(114.491 0 0)
(114.933 0 0)
(115.376 0 0)
(115.818 0 0)
(116.261 0 0)
(116.703 0 0)
(117.146 0 0)
(117.588 0 0)
(118.031 0 0)
(118.473 0 0)
(118.916 0 0)
(119.358 0 0)
(119.8 0 0)
(120.243 0 0)
(120.685 0 0)
(121.128 0 0)
(121.57 0 0)
(122.013 0 0)
(122.455 0 0)
(122.897 0 0)
(123.34 0 0)
(123.782 0 0)
(124.224 0 0)
(124.667 0 0)
(125.109 0 0)
(125.551 0 0)
(125.994 0 0)
(126.436 0 0)
(126.878 0 0)
(127.32 0 0)
(127.762 0 0)
(128.204 0 0)
(128.647 0 0)
(129.089 0 0)
(129.531 0 0)
(129.973 0 0)
(130.415 0 0)
(130.857 0 0)
(131.298 0 0)
(131.74 0 0)
(132.182 0 0)
(132.624 0 0)
(133.066 0 0)
(133.507 0 0)
(133.949 0 0)
(134.391 0 0)
(134.832 0 0)
(135.274 0 0)
(135.715 0 0)
(136.156 0 0)
(136.598 0 0)
(137.039 0 0)
(137.48 0 0)
(137.921 0 0)
(138.362 0 0)
(138.803 0 0)
(139.244 0 0)
(139.685 0 0)
(140.126 0 0)
(140.567 0 0)
(141.007 0 0)
(141.448 0 0)
(141.889 0 0)
(142.329 0 0)
(142.769 0 0)
(143.209 0 0)
(143.65 0 0)
(144.09 0 0)
(144.53 0 0)
(144.969 0 0)
(145.409 0 0)
(145.849 0 0)
(146.288 0 0)
(146.728 0 0)
(147.167 0 0)
(147.606 0 0)
(148.045 0 0)
(148.484 0 0)
(148.923 0 0)
(149.361 0 0)
(149.8 0 0)
(150.238 0 0)
(150.676 0 0)
(151.114 0 0)
(151.552 0 0)
(151.99 0 0)
(152.427 0 0)
(152.864 0 0)
(153.302 0 0)
(153.739 0 0)
(154.175 0 0)
(154.612 0 0)
(155.048 0 0)
(155.485 0 0)
(155.921 0 0)
(156.356 0 0)
(156.792 0 0)
(157.227 0 0)
(157.662 0 0)
(158.097 0 0)
(158.532 0 0)
(158.966 0 0)
(159.4 0 0)
(159.834 0 0)
(160.268 0 0)
(160.701 0 0)
(161.134 0 0)
(161.566 0 0)
(161.999 0 0)
(162.431 0 0)
(162.862 0 0)
(163.294 0 0)
(163.725 0 0)
(164.155 0 0)
(164.586 0 0)
(165.016 0 0)
(165.445 0 0)
(165.874 0 0)
(166.303 0 0)
(166.731 0 0)
(167.159 0 0)
(167.586 0 0)
(168.013 0 0)
(168.44 0 0)
(168.866 0 0)
(169.291 0 0)
(169.716 0 0)
(170.14 0 0)
(170.564 0 0)
(170.987 0 0)
(171.41 0 0)
(171.832 0 0)
(172.254 0 0)
(172.675 0 0)
(173.095 0 0)
(173.514 0 0)
(173.933 0 0)
(174.351 0 0)
(174.768 0 0)
(175.185 0 0)
(175.601 0 0)
(176.016 0 0)
(176.43 0 0)
(176.843 0 0)
(177.256 0 0)
(177.667 0 0)
(178.078 0 0)
(178.488 0 0)
(178.896 0 0)
(179.304 0 0)
(179.71 0 0)
(180.115 0 0)
(180.52 0 0)
(180.923 0 0)
(181.325 0 0)
(181.727 0 0)
(182.127 0 0)
(182.526 0 0)
(182.925 0 0)
(183.324 0 0)
(183.721 0 0)
(184.116 0 0)
(184.509 0 0)
(184.9 0 0)
(185.289 0 0)
(185.676 0 0)
(186.062 0 0)
(186.446 0 0)
(186.829 0 0)
(187.21 0 0)
(187.589 0 0)
(187.966 0 0)
(188.342 0 0)
(188.716 0 0)
(189.088 0 0)
(189.458 0 0)
(189.826 0 0)
(190.191 0 0)
(190.555 0 0)
(190.917 0 0)
(191.276 0 0)
(191.634 0 0)
(191.989 0 0)
(192.341 0 0)
(192.692 0 0)
(193.039 0 0)
(193.385 0 0)
(193.728 0 0)
(194.068 0 0)
(194.406 0 0)
(194.741 0 0)
(195.074 0 0)
(195.404 0 0)
(195.731 0 0)
(196.055 0 0)
(196.377 0 0)
(196.695 0 0)
(197.011 0 0)
(197.324 0 0)
(197.634 0 0)
(197.941 0 0)
(198.245 0 0)
(198.547 0 0)
(198.845 0 0)
(199.14 0 0)
(199.432 0 0)
(199.722 0 0)
(200.008 0 0)
(200.291 0 0)
(200.572 0 0)
(200.849 0 0)
(201.124 0 0)
(201.395 0 0)
(201.664 0 0)
(201.93 0 0)
(202.194 0 0)
(202.454 0 0)
(202.712 0 0)
(202.967 0 0)
(203.22 0 0)
(203.47 0 0)
(203.717 0 0)
(203.962 0 0)
(204.205 0 0)
(204.445 0 0)
(204.683 0 0)
(204.92 0 0)
(205.154 0 0)
(205.386 0 0)
(205.616 0 0)
(205.844 0 0)
(206.07 0 0)
(206.295 0 0)
(206.518 0 0)
(206.74 0 0)
(206.96 0 0)
(207.179 0 0)
(207.397 0 0)
(207.613 0 0)
(207.829 0 0)
(208.043 0 0)
(208.256 0 0)
(208.468 0 0)
(208.68 0 0)
(208.89 0 0)
(209.1 0 0)
(209.309 0 0)
(209.518 0 0)
(209.726 0 0)
(209.934 0 0)
(210.141 0 0)
(210.347 0 0)
(210.554 0 0)
(210.76 0 0)
(210.965 0 0)
(211.171 0 0)
(211.376 0 0)
(211.581 0 0)
(211.786 0 0)
(211.99 0 0)
(212.195 0 0)
(212.399 0 0)
(212.604 0 0)
(212.808 0 0)
(213.012 0 0)
(213.216 0 0)
(213.421 0 0)
(213.625 0 0)
(213.829 0 0)
(214.033 0 0)
(214.237 0 0)
(214.441 0 0)
(214.646 0 0)
(214.85 0 0)
(215.054 0 0)
(215.258 0 0)
(215.463 0 0)
(215.667 0 0)
(215.871 0 0)
(216.076 0 0)
(216.28 0 0)
(216.485 0 0)
(216.69 0 0)
(216.894 0 0)
(217.099 0 0)
(217.304 0 0)
(217.509 0 0)
(217.714 0 0)
(217.919 0 0)
(218.124 0 0)
(218.329 0 0)
(218.534 0 0)
(218.739 0 0)
(218.945 0 0)
(219.15 0 0)
(219.356 0 0)
(219.561 0 0)
(219.767 0 0)
(219.972 0 0)
(220.178 0 0)
(220.384 0 0)
(220.59 0 0)
(220.796 0 0)
(221.002 0 0)
(221.208 0 0)
(221.414 0 0)
(221.62 0 0)
(221.827 0 0)
(222.033 0 0)
(222.239 0 0)
(222.446 0 0)
(222.652 0 0)
(222.859 0 0)
(223.066 0 0)
(223.273 0 0)
(223.479 0 0)
(223.686 0 0)
(223.893 0 0)
(224.1 0 0)
(224.307 0 0)
(224.515 0 0)
(224.722 0 0)
(224.929 0 0)
(225.137 0 0)
(225.344 0 0)
(225.552 0 0)
(225.759 0 0)
(225.967 0 0)
(226.175 0 0)
(226.382 0 0)
(226.59 0 0)
(226.798 0 0)
(227.006 0 0)
(227.214 0 0)
(227.422 0 0)
(227.63 0 0)
(227.839 0 0)
(228.047 0 0)
(228.255 0 0)
(228.464 0 0)
(228.672 0 0)
(228.881 0 0)
(229.09 0 0)
(229.298 0 0)
(229.507 0 0)
(229.716 0 0)
(229.925 0 0)
(230.134 0 0)
(230.343 0 0)
(230.552 0 0)
(230.761 0 0)
(230.97 0 0)
(231.179 0 0)
(231.389 0 0)
(231.598 0 0)
(231.807 0 0)
(232.017 0 0)
(232.226 0 0)
(232.436 0 0)
(232.646 0 0)
(232.855 0 0)
(233.065 0 0)
(233.275 0 0)
(233.485 0 0)
(233.695 0 0)
(233.905 0 0)
(234.115 0 0)
(234.325 0 0)
(234.535 0 0)
(234.745 0 0)
(234.955 0 0)
(235.166 0 0)
(235.376 0 0)
(235.586 0 0)
(235.797 0 0)
(236.007 0 0)
(236.218 0 0)
(236.429 0 0)
(236.639 0 0)
(236.85 0 0)
(237.061 0 0)
(237.272 0 0)
(237.483 0 0)
(237.693 0 0)
(237.904 0 0)
(238.116 0 0)
(238.327 0 0)
(238.538 0 0)
(238.749 0 0)
(238.96 0 0)
(239.171 0 0)
(239.383 0 0)
(239.594 0 0)
(239.806 0 0)
(240.017 0 0)
(240.229 0 0)
(240.44 0 0)
(240.652 0 0)
(240.864 0 0)
(241.075 0 0)
(241.287 0 0)
(241.499 0 0)
(241.711 0 0)
(241.923 0 0)
(242.135 0 0)
(242.347 0 0)
(242.559 0 0)
(242.771 0 0)
(242.983 0 0)
(243.195 0 0)
(243.407 0 0)
(243.62 0 0)
(243.832 0 0)
(244.044 0 0)
(244.257 0 0)
(244.469 0 0)
(244.682 0 0)
(244.894 0 0)
(245.107 0 0)
(245.32 0 0)
(245.532 0 0)
(245.745 0 0)
(245.958 0 0)
(246.171 0 0)
(246.383 0 0)
(246.596 0 0)
(246.809 0 0)
(247.022 0 0)
(247.235 0 0)
(247.448 0 0)
(247.661 0 0)
(247.875 0 0)
(248.088 0 0)
(248.301 0 0)
(248.514 0 0)
(248.728 0 0)
(248.941 0 0)
(249.154 0 0)
(249.368 0 0)
(249.581 0 0)
(249.795 0 0)
(250.008 0 0)
(250.222 0 0)
(250.435 0 0)
(250.649 0 0)
(250.863 0 0)
(251.076 0 0)
(251.29 0 0)
(251.504 0 0)
(251.718 0 0)
(251.931 0 0)
(252.145 0 0)
(252.359 0 0)
(252.573 0 0)
(252.787 0 0)
(253.001 0 0)
(253.215 0 0)
(253.429 0 0)
(253.643 0 0)
(253.857 0 0)
(254.072 0 0)
(254.286 0 0)
(254.5 0 0)
(254.714 0 0)
(254.929 0 0)
(255.143 0 0)
(255.357 0 0)
(255.572 0 0)
(255.786 0 0)
(256 0 0)
(256.215 0 0)
(256.429 0 0)
(256.644 0 0)
(256.858 0 0)
(257.073 0 0)
(257.288 0 0)
(257.502 0 0)
(257.717 0 0)
(257.931 0 0)
(258.146 0 0)
(258.361 0 0)
(258.576 0 0)
(258.79 0 0)
(259.005 0 0)
(259.22 0 0)
(259.435 0 0)
(259.65 0 0)
(259.865 0 0)
(260.079 0 0)
(260.294 0 0)
(260.509 0 0)
(260.724 0 0)
(260.939 0 0)
(261.154 0 0)
(261.369 0 0)
(261.584 0 0)
(261.799 0 0)
(262.014 0 0)
(262.229 0 0)
(262.445 0 0)
(262.66 0 0)
(262.875 0 0)
(263.09 0 0)
(263.305 0 0)
(263.52 0 0)
(263.735 0 0)
(263.951 0 0)
(264.166 0 0)
(264.381 0 0)
(264.596 0 0)
(264.812 0 0)
(265.027 0 0)
(265.242 0 0)
(265.457 0 0)
(265.673 0 0)
(265.888 0 0)
(266.103 0 0)
(266.319 0 0)
(266.534 0 0)
(266.749 0 0)
(266.965 0 0)
(267.18 0 0)
(267.395 0 0)
(267.611 0 0)
(267.826 0 0)
(268.041 0 0)
(268.257 0 0)
(268.472 0 0)
(268.688 0 0)
(268.903 0 0)
(269.118 0 0)
(269.334 0 0)
(269.549 0 0)
(269.764 0 0)
(269.98 0 0)
(270.195 0 0)
(270.41 0 0)
(270.626 0 0)
(270.841 0 0)
(271.056 0 0)
(271.272 0 0)
(271.487 0 0)
(271.702 0 0)
(271.918 0 0)
(272.133 0 0)
(272.348 0 0)
(272.563 0 0)
(272.778 0 0)
(272.994 0 0)
(273.209 0 0)
(273.424 0 0)
(273.639 0 0)
(273.854 0 0)
(274.069 0 0)
(274.284 0 0)
(274.498 0 0)
(274.713 0 0)
(274.928 0 0)
(275.143 0 0)
(275.357 0 0)
(275.572 0 0)
(275.786 0 0)
(276 0 0)
(276.215 0 0)
(276.429 0 0)
(276.643 0 0)
(276.857 0 0)
(277.07 0 0)
(277.284 0 0)
(277.497 0 0)
(277.711 0 0)
(277.924 0 0)
(278.137 0 0)
(278.349 0 0)
(278.562 0 0)
(278.774 0 0)
(278.986 0 0)
(279.198 0 0)
(279.409 0 0)
(279.621 0 0)
(279.831 0 0)
(280.042 0 0)
(280.252 0 0)
(280.462 0 0)
(280.671 0 0)
(280.88 0 0)
(281.088 0 0)
(281.295 0 0)
(281.503 0 0)
(281.709 0 0)
(281.915 0 0)
(282.12 0 0)
(282.324 0 0)
(282.528 0 0)
(282.731 0 0)
(282.932 0 0)
(283.133 0 0)
(283.333 0 0)
(283.532 0 0)
(283.729 0 0)
(283.925 0 0)
(284.12 0 0)
(284.313 0 0)
(284.505 0 0)
(284.695 0 0)
(284.884 0 0)
(285.07 0 0)
(285.255 0 0)
(285.437 0 0)
(285.618 0 0)
(285.796 0 0)
(285.972 0 0)
(286.145 0 0)
(286.315 0 0)
(286.483 0 0)
(286.647 0 0)
(286.809 0 0)
(286.967 0 0)
(287.122 0 0)
(287.274 0 0)
(287.421 0 0)
(287.565 0 0)
(287.705 0 0)
(287.841 0 0)
(287.972 0 0)
(288.099 0 0)
(288.221 0 0)
(288.339 0 0)
(288.451 0 0)
(288.559 0 0)
(288.662 0 0)
(288.759 0 0)
(288.851 0 0)
(288.937 0 0)
(289.018 0 0)
(289.094 0 0)
(289.163 0 0)
(289.228 0 0)
(289.286 0 0)
(289.338 0 0)
(289.385 0 0)
(289.426 0 0)
(289.461 0 0)
(289.49 0 0)
(289.514 0 0)
(289.532 0 0)
(289.544 0 0)
(289.551 0 0)
(289.552 0 0)
(289.548 0 0)
(289.539 0 0)
(289.525 0 0)
(289.506 0 0)
(289.483 0 0)
(289.455 0 0)
(289.422 0 0)
(289.385 0 0)
(289.345 0 0)
(289.301 0 0)
(289.253 0 0)
(289.202 0 0)
(289.148 0 0)
(289.091 0 0)
(289.032 0 0)
(288.97 0 0)
(288.906 0 0)
(288.84 0 0)
(288.773 0 0)
(288.704 0 0)
(288.633 0 0)
(288.562 0 0)
(288.489 0 0)
(288.416 0 0)
(288.342 0 0)
(288.267 0 0)
(288.192 0 0)
(288.116 0 0)
(288.04 0 0)
(287.964 0 0)
(287.889 0 0)
(287.813 0 0)
(287.739 0 0)
(287.666 0 0)
(287.594 0 0)
(287.522 0 0)
(287.452 0 0)
(287.382 0 0)
(287.313 0 0)
(287.245 0 0)
(287.178 0 0)
(287.112 0 0)
(287.048 0 0)
(286.984 0 0)
(286.922 0 0)
(286.861 0 0)
(286.802 0 0)
(286.744 0 0)
(286.689 0 0)
(286.635 0 0)
(286.581 0 0)
(286.531 0 0)
(286.482 0 0)
(286.436 0 0)
(286.398 0 0)
(286.371 0 0)
(286.343 0 0)
(286.325 0 0)
(286.316 0 0)
(286.289 0 0)
(286.273 0 0)
(286.288 0 0)
(286.308 0 0)
(286.335 0 0)
(286.341 0 0)
(286.253 0 0)
(286.106 0 0)
(286.021 0 0)
(286.018 0 0)
(285.991 0 0)
(285.896 0 0)
(285.818 0 0)
(285.814 0 0)
(285.834 0 0)
(285.796 0 0)
(285.7 0 0)
(285.665 0 0)
(285.711 0 0)
(285.72 0 0)
(285.676 0 0)
(285.633 0 0)
(285.621 0 0)
(285.657 0 0)
(285.694 0 0)
(285.669 0 0)
(285.598 0 0)
(285.543 0 0)
(285.552 0 0)
(285.595 0 0)
(285.569 0 0)
(285.485 0 0)
(285.478 0 0)
(285.551 0 0)
(285.589 0 0)
(285.528 0 0)
(285.418 0 0)
(285.408 0 0)
(285.499 0 0)
(285.591 0 0)
(285.634 0 0)
(285.585 0 0)
(285.514 0 0)
(285.504 0 0)
(285.559 0 0)
(285.631 0 0)
(285.605 0 0)
(285.497 0 0)
(285.442 0 0)
(285.506 0 0)
(285.597 0 0)
(285.617 0 0)
(285.576 0 0)
(285.531 0 0)
(285.533 0 0)
(285.571 0 0)
(285.599 0 0)
(285.594 0 0)
(285.558 0 0)
(285.525 0 0)
(285.543 0 0)
(285.593 0 0)
(285.608 0 0)
(285.583 0 0)
(285.551 0 0)
(285.541 0 0)
(285.553 0 0)
)
;

boundaryField
{
    sides
    {
        type            zeroGradient;
    }
    empty
    {
        type            empty;
    }
}


// ************************************************************************* //
