/*--------------------------------*- C++ -*----------------------------------*\
  =========                 |
  \\      /  F ield         | OpenFOAM: The Open Source CFD Toolbox
   \\    /   O peration     | Website:  https://openfoam.org
    \\  /    A nd           | Version:  9
     \\/     M anipulation  |
\*---------------------------------------------------------------------------*/
FoamFile
{
    format      ascii;
    class       volScalarField;
    location    "0.029";
    object      p;
}
// * * * * * * * * * * * * * * * * * * * * * * * * * * * * * * * * * * * * * //

dimensions      [1 -1 -2 0 0 0 0];

internalField   nonuniform List<scalar> 
10000
(
20232.6
20232.4
20232.2
20232.1
20231.9
20231.7
20231.6
20231.4
20231.3
20231.1
20231
20230.8
20230.6
20230.5
20230.3
20230.2
20230
20229.9
20229.7
20229.5
20229.4
20229.2
20229.1
20228.9
20228.8
20228.6
20228.4
20228.3
20228.1
20228
20227.8
20227.7
20227.5
20227.3
20227.2
20227
20226.9
20226.7
20226.5
20226.4
20226.2
20226.1
20225.9
20225.8
20225.6
20225.4
20225.3
20225.1
20225
20224.8
20224.6
20224.5
20224.3
20224.2
20224
20223.9
20223.7
20223.5
20223.4
20223.2
20223.1
20222.9
20222.7
20222.6
20222.4
20222.3
20222.1
20221.9
20221.8
20221.6
20221.5
20221.3
20221.1
20221
20220.8
20220.7
20220.5
20220.3
20220.2
20220
20219.9
20219.7
20219.5
20219.4
20219.2
20219.1
20218.9
20218.7
20218.6
20218.4
20218.3
20218.1
20217.9
20217.8
20217.6
20217.4
20217.3
20217.1
20217
20216.8
20216.6
20216.5
20216.3
20216.2
20216
20215.8
20215.7
20215.5
20215.3
20215.2
20215
20214.9
20214.7
20214.5
20214.4
20214.2
20214
20213.9
20213.7
20213.6
20213.4
20213.2
20213.1
20212.9
20212.7
20212.6
20212.4
20212.3
20212.1
20211.9
20211.8
20211.6
20211.4
20211.3
20211.1
20211
20210.8
20210.6
20210.5
20210.3
20210.1
20210
20209.8
20209.6
20209.5
20209.3
20209.2
20209
20208.8
20208.7
20208.5
20208.3
20208.2
20208
20207.8
20207.7
20207.5
20207.4
20207.2
20207
20206.9
20206.7
20206.5
20206.4
20206.2
20206
20205.9
20205.7
20205.5
20205.4
20205.2
20205
20204.9
20204.7
20204.5
20204.4
20204.2
20204.1
20203.9
20203.7
20203.6
20203.4
20203.2
20203.1
20202.9
20202.7
20202.6
20202.4
20202.2
20202.1
20201.9
20201.7
20201.6
20201.4
20201.2
20201.1
20200.9
20200.7
20200.6
20200.4
20200.2
20200.1
20199.9
20199.7
20199.6
20199.4
20199.2
20199.1
20198.9
20198.7
20198.6
20198.4
20198.2
20198.1
20197.9
20197.7
20197.6
20197.4
20197.2
20197.1
20196.9
20196.7
20196.6
20196.4
20196.2
20196.1
20195.9
20195.7
20195.5
20195.4
20195.2
20195
20194.9
20194.7
20194.5
20194.4
20194.2
20194
20193.9
20193.7
20193.5
20193.4
20193.2
20193
20192.8
20192.7
20192.5
20192.3
20192.2
20192
20191.8
20191.7
20191.5
20191.3
20191.2
20191
20190.8
20190.6
20190.5
20190.3
20190.1
20190
20189.8
20189.6
20189.5
20189.3
20189.1
20188.9
20188.8
20188.6
20188.4
20188.3
20188.1
20187.9
20187.8
20187.6
20187.4
20187.2
20187.1
20186.9
20186.7
20186.6
20186.4
20186.2
20186
20185.9
20185.7
20185.5
20185.4
20185.2
20185
20184.8
20184.7
20184.5
20184.3
20184.2
20184
20183.8
20183.6
20183.5
20183.3
20183.1
20183
20182.8
20182.6
20182.4
20182.3
20182.1
20181.9
20181.8
20181.6
20181.4
20181.2
20181.1
20180.9
20180.7
20180.5
20180.4
20180.2
20180
20179.9
20179.7
20179.5
20179.3
20179.2
20179
20178.8
20178.6
20178.5
20178.3
20178.1
20177.9
20177.8
20177.6
20177.4
20177.3
20177.1
20176.9
20176.7
20176.6
20176.4
20176.2
20176
20175.9
20175.7
20175.5
20175.3
20175.2
20175
20174.8
20174.6
20174.5
20174.3
20174.1
20173.9
20173.8
20173.6
20173.4
20173.2
20173.1
20172.9
20172.7
20172.5
20172.4
20172.2
20172
20171.8
20171.7
20171.5
20171.3
20171.1
20171
20170.8
20170.6
20170.4
20170.3
20170.1
20169.9
20169.7
20169.6
20169.4
20169.2
20169
20168.8
20168.7
20168.5
20168.3
20168.1
20168
20167.8
20167.6
20167.4
20167.3
20167.1
20166.9
20166.7
20166.6
20166.4
20166.2
20166
20165.8
20165.7
20165.5
20165.3
20165.1
20165
20164.8
20164.6
20164.4
20164.2
20164.1
20163.9
20163.7
20163.5
20163.4
20163.2
20163
20162.8
20162.6
20162.5
20162.3
20162.1
20161.9
20161.8
20161.6
20161.4
20161.2
20161
20160.9
20160.7
20160.5
20160.3
20160.1
20160
20159.8
20159.6
20159.4
20159.2
20159.1
20158.9
20158.7
20158.5
20158.3
20158.2
20158
20157.8
20157.6
20157.5
20157.3
20157.1
20156.9
20156.7
20156.6
20156.4
20156.2
20156
20155.8
20155.6
20155.5
20155.3
20155.1
20154.9
20154.7
20154.6
20154.4
20154.2
20154
20153.8
20153.7
20153.5
20153.3
20153.1
20152.9
20152.8
20152.6
20152.4
20152.2
20152
20151.9
20151.7
20151.5
20151.3
20151.1
20150.9
20150.8
20150.6
20150.4
20150.2
20150
20149.9
20149.7
20149.5
20149.3
20149.1
20148.9
20148.8
20148.6
20148.4
20148.2
20148
20147.8
20147.7
20147.5
20147.3
20147.1
20146.9
20146.7
20146.6
20146.4
20146.2
20146
20145.8
20145.6
20145.5
20145.3
20145.1
20144.9
20144.7
20144.5
20144.4
20144.2
20144
20143.8
20143.6
20143.4
20143.3
20143.1
20142.9
20142.7
20142.5
20142.3
20142.2
20142
20141.8
20141.6
20141.4
20141.2
20141
20140.9
20140.7
20140.5
20140.3
20140.1
20139.9
20139.8
20139.6
20139.4
20139.2
20139
20138.8
20138.6
20138.5
20138.3
20138.1
20137.9
20137.7
20137.5
20137.3
20137.2
20137
20136.8
20136.6
20136.4
20136.2
20136
20135.9
20135.7
20135.5
20135.3
20135.1
20134.9
20134.7
20134.6
20134.4
20134.2
20134
20133.8
20133.6
20133.4
20133.2
20133.1
20132.9
20132.7
20132.5
20132.3
20132.1
20131.9
20131.7
20131.6
20131.4
20131.2
20131
20130.8
20130.6
20130.4
20130.2
20130.1
20129.9
20129.7
20129.5
20129.3
20129.1
20128.9
20128.7
20128.6
20128.4
20128.2
20128
20127.8
20127.6
20127.4
20127.2
20127
20126.9
20126.7
20126.5
20126.3
20126.1
20125.9
20125.7
20125.5
20125.3
20125.2
20125
20124.8
20124.6
20124.4
20124.2
20124
20123.8
20123.6
20123.5
20123.3
20123.1
20122.9
20122.7
20122.5
20122.3
20122.1
20121.9
20121.7
20121.6
20121.4
20121.2
20121
20120.8
20120.6
20120.4
20120.2
20120
20119.8
20119.6
20119.5
20119.3
20119.1
20118.9
20118.7
20118.5
20118.3
20118.1
20117.9
20117.7
20117.5
20117.4
20117.2
20117
20116.8
20116.6
20116.4
20116.2
20116
20115.8
20115.6
20115.4
20115.2
20115
20114.9
20114.7
20114.5
20114.3
20114.1
20113.9
20113.7
20113.5
20113.3
20113.1
20112.9
20112.7
20112.5
20112.4
20112.2
20112
20111.8
20111.6
20111.4
20111.2
20111
20110.8
20110.6
20110.4
20110.2
20110
20109.8
20109.6
20109.5
20109.3
20109.1
20108.9
20108.7
20108.5
20108.3
20108.1
20107.9
20107.7
20107.5
20107.3
20107.1
20106.9
20106.7
20106.5
20106.3
20106.2
20106
20105.8
20105.6
20105.4
20105.2
20105
20104.8
20104.6
20104.4
20104.2
20104
20103.8
20103.6
20103.4
20103.2
20103
20102.8
20102.6
20102.4
20102.2
20102.1
20101.9
20101.7
20101.5
20101.3
20101.1
20100.9
20100.7
20100.5
20100.3
20100.1
20099.9
20099.7
20099.5
20099.3
20099.1
20098.9
20098.7
20098.5
20098.3
20098.1
20097.9
20097.7
20097.5
20097.3
20097.1
20096.9
20096.7
20096.5
20096.3
20096.2
20096
20095.8
20095.6
20095.4
20095.2
20095
20094.8
20094.6
20094.4
20094.2
20094
20093.8
20093.6
20093.4
20093.2
20093
20092.8
20092.6
20092.4
20092.2
20092
20091.8
20091.6
20091.4
20091.2
20091
20090.8
20090.6
20090.4
20090.2
20090
20089.8
20089.6
20089.4
20089.2
20089
20088.8
20088.6
20088.4
20088.2
20088
20087.8
20087.6
20087.4
20087.2
20087
20086.8
20086.6
20086.4
20086.2
20086
20085.8
20085.6
20085.4
20085.2
20085
20084.8
20084.6
20084.4
20084.2
20084
20083.8
20083.6
20083.4
20083.2
20083
20082.8
20082.6
20082.4
20082.2
20082
20081.8
20081.6
20081.4
20081.2
20081
20080.8
20080.6
20080.4
20080.2
20080
20079.8
20079.6
20079.4
20079.2
20079
20078.8
20078.6
20078.4
20078.2
20077.9
20077.7
20077.5
20077.3
20077.1
20076.9
20076.7
20076.5
20076.3
20076.1
20075.9
20075.7
20075.5
20075.3
20075.1
20074.9
20074.7
20074.5
20074.3
20074.1
20073.9
20073.7
20073.5
20073.3
20073.1
20072.9
20072.7
20072.5
20072.3
20072.1
20071.8
20071.6
20071.4
20071.2
20071
20070.8
20070.6
20070.4
20070.2
20070
20069.8
20069.6
20069.4
20069.2
20069
20068.8
20068.6
20068.4
20068.2
20068
20067.8
20067.5
20067.3
20067.1
20066.9
20066.7
20066.5
20066.3
20066.1
20065.9
20065.7
20065.5
20065.3
20065.1
20064.9
20064.7
20064.5
20064.3
20064
20063.8
20063.6
20063.4
20063.2
20063
20062.8
20062.6
20062.4
20062.2
20062
20061.8
20061.6
20061.4
20061.2
20060.9
20060.7
20060.5
20060.3
20060.1
20059.9
20059.7
20059.5
20059.3
20059.1
20058.9
20058.7
20058.5
20058.3
20058
20057.8
20057.6
20057.4
20057.2
20057
20056.8
20056.6
20056.4
20056.2
20056
20055.8
20055.5
20055.3
20055.1
20054.9
20054.7
20054.5
20054.3
20054.1
20053.9
20053.7
20053.5
20053.2
20053
20052.8
20052.6
20052.4
20052.2
20052
20051.8
20051.6
20051.4
20051.2
20050.9
20050.7
20050.5
20050.3
20050.1
20049.9
20049.7
20049.5
20049.3
20049.1
20048.8
20048.6
20048.4
20048.2
20048
20047.8
20047.6
20047.4
20047.2
20046.9
20046.7
20046.5
20046.3
20046.1
20045.9
20045.7
20045.5
20045.3
20045
20044.8
20044.6
20044.4
20044.2
20044
20043.8
20043.6
20043.4
20043.1
20042.9
20042.7
20042.5
20042.3
20042.1
20041.9
20041.7
20041.4
20041.2
20041
20040.8
20040.6
20040.4
20040.2
20040
20039.7
20039.5
20039.3
20039.1
20038.9
20038.7
20038.5
20038.3
20038
20037.8
20037.6
20037.4
20037.2
20037
20036.8
20036.5
20036.3
20036.1
20035.9
20035.7
20035.5
20035.3
20035
20034.8
20034.6
20034.4
20034.2
20034
20033.8
20033.5
20033.3
20033.1
20032.9
20032.7
20032.5
20032.3
20032
20031.8
20031.6
20031.4
20031.2
20031
20030.8
20030.5
20030.3
20030.1
20029.9
20029.7
20029.5
20029.2
20029
20028.8
20028.6
20028.4
20028.2
20028
20027.7
20027.5
20027.3
20027.1
20026.9
20026.7
20026.4
20026.2
20026
20025.8
20025.6
20025.4
20025.1
20024.9
20024.7
20024.5
20024.3
20024.1
20023.8
20023.6
20023.4
20023.2
20023
20022.8
20022.5
20022.3
20022.1
20021.9
20021.7
20021.5
20021.2
20021
20020.8
20020.6
20020.4
20020.1
20019.9
20019.7
20019.5
20019.3
20019.1
20018.8
20018.6
20018.4
20018.2
20018
20017.7
20017.5
20017.3
20017.1
20016.9
20016.7
20016.4
20016.2
20016
20015.8
20015.6
20015.3
20015.1
20014.9
20014.7
20014.5
20014.2
20014
20013.8
20013.6
20013.4
20013.1
20012.9
20012.7
20012.5
20012.3
20012
20011.8
20011.6
20011.4
20011.2
20010.9
20010.7
20010.5
20010.3
20010.1
20009.8
20009.6
20009.4
20009.2
20009
20008.7
20008.5
20008.3
20008.1
20007.9
20007.6
20007.4
20007.2
20007
20006.8
20006.5
20006.3
20006.1
20005.9
20005.6
20005.4
20005.2
20005
20004.8
20004.5
20004.3
20004.1
20003.9
20003.6
20003.4
20003.2
20003
20002.8
20002.5
20002.3
20002.1
20001.9
20001.6
20001.4
20001.2
20001
20000.8
20000.5
20000.3
20000.1
19999.9
19999.6
19999.4
19999.2
19999
19998.8
19998.5
19998.3
19998.1
19997.9
19997.6
19997.4
19997.2
19997
19996.7
19996.5
19996.3
19996.1
19995.8
19995.6
19995.4
19995.2
19994.9
19994.7
19994.5
19994.3
19994
19993.8
19993.6
19993.4
19993.1
19992.9
19992.7
19992.5
19992.2
19992
19991.8
19991.6
19991.3
19991.1
19990.9
19990.7
19990.4
19990.2
19990
19989.8
19989.5
19989.3
19989.1
19988.9
19988.6
19988.4
19988.2
19988
19987.7
19987.5
19987.3
19987.1
19986.8
19986.6
19986.4
19986.2
19985.9
19985.7
19985.5
19985.2
19985
19984.8
19984.6
19984.3
19984.1
19983.9
19983.7
19983.4
19983.2
19983
19982.8
19982.5
19982.3
19982.1
19981.8
19981.6
19981.4
19981.2
19980.9
19980.7
19980.5
19980.2
19980
19979.8
19979.6
19979.3
19979.1
19978.9
19978.6
19978.4
19978.2
19978
19977.7
19977.5
19977.3
19977
19976.8
19976.6
19976.4
19976.1
19975.9
19975.7
19975.4
19975.2
19975
19974.8
19974.5
19974.3
19974.1
19973.8
19973.6
19973.4
19973.2
19972.9
19972.7
19972.5
19972.2
19972
19971.8
19971.5
19971.3
19971.1
19970.9
19970.6
19970.4
19970.2
19969.9
19969.7
19969.5
19969.2
19969
19968.8
19968.5
19968.3
19968.1
19967.9
19967.6
19967.4
19967.2
19966.9
19966.7
19966.5
19966.2
19966
19965.8
19965.5
19965.3
19965.1
19964.8
19964.6
19964.4
19964.2
19963.9
19963.7
19963.5
19963.2
19963
19962.8
19962.5
19962.3
19962.1
19961.8
19961.6
19961.4
19961.1
19960.9
19960.7
19960.4
19960.2
19960
19959.7
19959.5
19959.3
19959
19958.8
19958.6
19958.3
19958.1
19957.9
19957.6
19957.4
19957.2
19956.9
19956.7
19956.5
19956.2
19956
19955.8
19955.5
19955.3
19955.1
19954.8
19954.6
19954.4
19954.1
19953.9
19953.7
19953.4
19953.2
19953
19952.7
19952.5
19952.2
19952
19951.8
19951.5
19951.3
19951.1
19950.8
19950.6
19950.4
19950.1
19949.9
19949.7
19949.4
19949.2
19949
19948.7
19948.5
19948.2
19948
19947.8
19947.5
19947.3
19947.1
19946.8
19946.6
19946.4
19946.1
19945.9
19945.7
19945.4
19945.2
19944.9
19944.7
19944.5
19944.2
19944
19943.8
19943.5
19943.3
19943
19942.8
19942.6
19942.3
19942.1
19941.9
19941.6
19941.4
19941.1
19940.9
19940.7
19940.4
19940.2
19940
19939.7
19939.5
19939.2
19939
19938.8
19938.5
19938.3
19938.1
19937.8
19937.6
19937.3
19937.1
19936.9
19936.6
19936.4
19936.1
19935.9
19935.7
19935.4
19935.2
19935
19934.7
19934.5
19934.2
19934
19933.8
19933.5
19933.3
19933
19932.8
19932.6
19932.3
19932.1
19931.8
19931.6
19931.4
19931.1
19930.9
19930.6
19930.4
19930.2
19929.9
19929.7
19929.4
19929.2
19929
19928.7
19928.5
19928.2
19928
19927.8
19927.5
19927.3
19927
19926.8
19926.6
19926.3
19926.1
19925.8
19925.6
19925.4
19925.1
19924.9
19924.6
19924.4
19924.1
19923.9
19923.7
19923.4
19923.2
19922.9
19922.7
19922.5
19922.2
19922
19921.7
19921.5
19921.2
19921
19920.8
19920.5
19920.3
19920
19919.8
19919.5
19919.3
19919.1
19918.8
19918.6
19918.3
19918.1
19917.8
19917.6
19917.4
19917.1
19916.9
19916.6
19916.4
19916.1
19915.9
19915.7
19915.4
19915.2
19914.9
19914.7
19914.4
19914.2
19913.9
19913.7
19913.5
19913.2
19913
19912.7
19912.5
19912.2
19912
19911.8
19911.5
19911.3
19911
19910.8
19910.5
19910.3
19910
19909.8
19909.5
19909.3
19909.1
19908.8
19908.6
19908.3
19908.1
19907.8
19907.6
19907.3
19907.1
19906.9
19906.6
19906.4
19906.1
19905.9
19905.6
19905.4
19905.1
19904.9
19904.6
19904.4
19904.1
19903.9
19903.7
19903.4
19903.2
19902.9
19902.7
19902.4
19902.2
19901.9
19901.7
19901.4
19901.2
19900.9
19900.7
19900.4
19900.2
19900
19899.7
19899.5
19899.2
19899
19898.7
19898.5
19898.2
19898
19897.7
19897.5
19897.2
19897
19896.7
19896.5
19896.2
19896
19895.7
19895.5
19895.2
19895
19894.8
19894.5
19894.3
19894
19893.8
19893.5
19893.3
19893
19892.8
19892.5
19892.3
19892
19891.8
19891.5
19891.3
19891
19890.8
19890.5
19890.3
19890
19889.8
19889.5
19889.3
19889
19888.8
19888.5
19888.3
19888
19887.8
19887.5
19887.3
19887
19886.8
19886.5
19886.3
19886
19885.8
19885.5
19885.3
19885
19884.8
19884.5
19884.3
19884
19883.8
19883.5
19883.3
19883
19882.8
19882.5
19882.3
19882
19881.8
19881.5
19881.3
19881
19880.8
19880.5
19880.3
19880
19879.7
19879.5
19879.2
19879
19878.7
19878.5
19878.2
19878
19877.7
19877.5
19877.2
19877
19876.7
19876.5
19876.2
19876
19875.7
19875.5
19875.2
19875
19874.7
19874.4
19874.2
19873.9
19873.7
19873.4
19873.2
19872.9
19872.7
19872.4
19872.2
19871.9
19871.7
19871.4
19871.2
19870.9
19870.6
19870.4
19870.1
19869.9
19869.6
19869.4
19869.1
19868.9
19868.6
19868.4
19868.1
19867.9
19867.6
19867.3
19867.1
19866.8
19866.6
19866.3
19866.1
19865.8
19865.6
19865.3
19865.1
19864.8
19864.5
19864.3
19864
19863.8
19863.5
19863.3
19863
19862.8
19862.5
19862.2
19862
19861.7
19861.5
19861.2
19861
19860.7
19860.5
19860.2
19859.9
19859.7
19859.4
19859.2
19858.9
19858.7
19858.4
19858.1
19857.9
19857.6
19857.4
19857.1
19856.9
19856.6
19856.3
19856.1
19855.8
19855.6
19855.3
19855.1
19854.8
19854.5
19854.3
19854
19853.8
19853.5
19853.3
19853
19852.7
19852.5
19852.2
19852
19851.7
19851.5
19851.2
19850.9
19850.7
19850.4
19850.2
19849.9
19849.6
19849.4
19849.1
19848.9
19848.6
19848.4
19848.1
19847.8
19847.6
19847.3
19847.1
19846.8
19846.5
19846.3
19846
19845.8
19845.5
19845.2
19845
19844.7
19844.5
19844.2
19843.9
19843.7
19843.4
19843.2
19842.9
19842.6
19842.4
19842.1
19841.9
19841.6
19841.3
19841.1
19840.8
19840.6
19840.3
19840
19839.8
19839.5
19839.3
19839
19838.7
19838.5
19838.2
19838
19837.7
19837.4
19837.2
19836.9
19836.7
19836.4
19836.1
19835.9
19835.6
19835.3
19835.1
19834.8
19834.6
19834.3
19834
19833.8
19833.5
19833.2
19833
19832.7
19832.5
19832.2
19831.9
19831.7
19831.4
19831.2
19830.9
19830.6
19830.4
19830.1
19829.8
19829.6
19829.3
19829.1
19828.8
19828.5
19828.3
19828
19827.7
19827.5
19827.2
19826.9
19826.7
19826.4
19826.2
19825.9
19825.6
19825.4
19825.1
19824.8
19824.6
19824.3
19824
19823.8
19823.5
19823.3
19823
19822.7
19822.5
19822.2
19821.9
19821.7
19821.4
19821.1
19820.9
19820.6
19820.3
19820.1
19819.8
19819.5
19819.3
19819
19818.8
19818.5
19818.2
19818
19817.7
19817.4
19817.2
19816.9
19816.6
19816.4
19816.1
19815.8
19815.6
19815.3
19815
19814.8
19814.5
19814.2
19814
19813.7
19813.4
19813.2
19812.9
19812.6
19812.4
19812.1
19811.8
19811.6
19811.3
19811
19810.8
19810.5
19810.2
19810
19809.7
19809.4
19809.2
19808.9
19808.6
19808.4
19808.1
19807.8
19807.6
19807.3
19807
19806.8
19806.5
19806.2
19806
19805.7
19805.4
19805.2
19804.9
19804.6
19804.4
19804.1
19803.8
19803.5
19803.3
19803
19802.7
19802.5
19802.2
19801.9
19801.7
19801.4
19801.1
19800.9
19800.6
19800.3
19800.1
19799.8
19799.5
19799.2
19799
19798.7
19798.4
19798.2
19797.9
19797.6
19797.4
19797.1
19796.8
19796.6
19796.3
19796
19795.7
19795.5
19795.2
19794.9
19794.7
19794.4
19794.1
19793.9
19793.6
19793.3
19793
19792.8
19792.5
19792.2
19792
19791.7
19791.4
19791.1
19790.9
19790.6
19790.3
19790.1
19789.8
19789.5
19789.2
19789
19788.7
19788.4
19788.2
19787.9
19787.6
19787.3
19787.1
19786.8
19786.5
19786.3
19786
19785.7
19785.4
19785.2
19784.9
19784.6
19784.4
19784.1
19783.8
19783.5
19783.3
19783
19782.7
19782.4
19782.2
19781.9
19781.6
19781.4
19781.1
19780.8
19780.5
19780.3
19780
19779.7
19779.4
19779.2
19778.9
19778.6
19778.4
19778.1
19777.8
19777.5
19777.3
19777
19776.7
19776.4
19776.2
19775.9
19775.6
19775.3
19775.1
19774.8
19774.5
19774.2
19774
19773.7
19773.4
19773.1
19772.9
19772.6
19772.3
19772
19771.8
19771.5
19771.2
19770.9
19770.7
19770.4
19770.1
19769.8
19769.6
19769.3
19769
19768.7
19768.5
19768.2
19767.9
19767.6
19767.4
19767.1
19766.8
19766.5
19766.3
19766
19765.7
19765.4
19765.2
19764.9
19764.6
19764.3
19764.1
19763.8
19763.5
19763.2
19762.9
19762.7
19762.4
19762.1
19761.8
19761.6
19761.3
19761
19760.7
19760.5
19760.2
19759.9
19759.6
19759.3
19759.1
19758.8
19758.5
19758.2
19758
19757.7
19757.4
19757.1
19756.8
19756.6
19756.3
19756
19755.7
19755.5
19755.2
19754.9
19754.6
19754.3
19754.1
19753.8
19753.5
19753.2
19753
19752.7
19752.4
19752.1
19751.8
19751.6
19751.3
19751
19750.7
19750.4
19750.2
19749.9
19749.6
19749.3
19749
19748.8
19748.5
19748.2
19747.9
19747.6
19747.4
19747.1
19746.8
19746.5
19746.2
19746
19745.7
19745.4
19745.1
19744.8
19744.6
19744.3
19744
19743.7
19743.4
19743.2
19742.9
19742.6
19742.3
19742
19741.8
19741.5
19741.2
19740.9
19740.6
19740.4
19740.1
19739.8
19739.5
19739.2
19738.9
19738.7
19738.4
19738.1
19737.8
19737.5
19737.3
19737
19736.7
19736.4
19736.1
19735.9
19735.6
19735.3
19735
19734.7
19734.4
19734.2
19733.9
19733.6
19733.3
19733
19732.7
19732.5
19732.2
19731.9
19731.6
19731.3
19731
19730.8
19730.5
19730.2
19729.9
19729.6
19729.4
19729.1
19728.8
19728.5
19728.2
19727.9
19727.6
19727.4
19727.1
19726.8
19726.5
19726.2
19725.9
19725.7
19725.4
19725.1
19724.8
19724.5
19724.2
19724
19723.7
19723.4
19723.1
19722.8
19722.5
19722.3
19722
19721.7
19721.4
19721.1
19720.8
19720.5
19720.3
19720
19719.7
19719.4
19719.1
19718.8
19718.5
19718.3
19718
19717.7
19717.4
19717.1
19716.8
19716.5
19716.3
19716
19715.7
19715.4
19715.1
19714.8
19714.5
19714.3
19714
19713.7
19713.4
19713.1
19712.8
19712.5
19712.3
19712
19711.7
19711.4
19711.1
19710.8
19710.5
19710.2
19710
19709.7
19709.4
19709.1
19708.8
19708.5
19708.2
19708
19707.7
19707.4
19707.1
19706.8
19706.5
19706.2
19705.9
19705.7
19705.4
19705.1
19704.8
19704.5
19704.2
19703.9
19703.6
19703.3
19703.1
19702.8
19702.5
19702.2
19701.9
19701.6
19701.3
19701
19700.8
19700.5
19700.2
19699.9
19699.6
19699.3
19699
19698.7
19698.4
19698.2
19697.9
19697.6
19697.3
19697
19696.7
19696.4
19696.1
19695.8
19695.5
19695.3
19695
19694.7
19694.4
19694.1
19693.8
19693.5
19693.2
19692.9
19692.6
19692.4
19692.1
19691.8
19691.5
19691.2
19690.9
19690.6
19690.3
19690
19689.7
19689.5
19689.2
19688.9
19688.6
19688.3
19688
19687.7
19687.4
19687.1
19686.8
19686.5
19686.3
19686
19685.7
19685.4
19685.1
19684.8
19684.5
19684.2
19683.9
19683.6
19683.3
19683
19682.8
19682.5
19682.2
19681.9
19681.6
19681.3
19681
19680.7
19680.4
19680.1
19679.8
19679.5
19679.2
19679
19678.7
19678.4
19678.1
19677.8
19677.5
19677.2
19676.9
19676.6
19676.3
19676
19675.7
19675.4
19675.1
19674.9
19674.6
19674.3
19674
19673.7
19673.4
19673.1
19672.8
19672.5
19672.2
19671.9
19671.6
19671.3
19671
19670.7
19670.4
19670.2
19669.9
19669.6
19669.3
19669
19668.7
19668.4
19668.1
19667.8
19667.5
19667.2
19666.9
19666.6
19666.3
19666
19665.7
19665.4
19665.1
19664.8
19664.6
19664.3
19664
19663.7
19663.4
19663.1
19662.8
19662.5
19662.2
19661.9
19661.6
19661.3
19661
19660.7
19660.4
19660.1
19659.8
19659.5
19659.2
19658.9
19658.6
19658.3
19658
19657.7
19657.5
19657.2
19656.9
19656.6
19656.3
19656
19655.7
19655.4
19655.1
19654.8
19654.5
19654.2
19653.9
19653.6
19653.3
19653
19652.7
19652.4
19652.1
19651.8
19651.5
19651.2
19650.9
19650.6
19650.3
19650
19649.7
19649.4
19649.1
19648.8
19648.5
19648.2
19647.9
19647.6
19647.3
19647
19646.7
19646.4
19646.1
19645.9
19645.6
19645.3
19645
19644.7
19644.4
19644.1
19643.8
19643.5
19643.2
19642.9
19642.6
19642.3
19642
19641.7
19641.4
19641.1
19640.8
19640.5
19640.2
19639.9
19639.6
19639.3
19639
19638.7
19638.4
19638.1
19637.8
19637.5
19637.2
19636.9
19636.6
19636.3
19636
19635.7
19635.4
19635.1
19634.8
19634.5
19634.2
19633.9
19633.6
19633.3
19633
19632.7
19632.4
19632.1
19631.8
19631.5
19631.2
19630.9
19630.6
19630.3
19630
19629.7
19629.4
19629.1
19628.8
19628.5
19628.2
19627.9
19627.6
19627.2
19626.9
19626.6
19626.3
19626
19625.7
19625.4
19625.1
19624.8
19624.5
19624.2
19623.9
19623.6
19623.3
19623
19622.7
19622.4
19622.1
19621.8
19621.5
19621.2
19620.9
19620.6
19620.3
19620
19619.7
19619.4
19619.1
19618.8
19618.5
19618.2
19617.9
19617.6
19617.3
19617
19616.7
19616.4
19616.1
19615.8
19615.5
19615.1
19614.8
19614.5
19614.2
19613.9
19613.6
19613.3
19613
19612.7
19612.4
19612.1
19611.8
19611.5
19611.2
19610.9
19610.6
19610.3
19610
19609.7
19609.4
19609.1
19608.8
19608.5
19608.2
19607.8
19607.5
19607.2
19606.9
19606.6
19606.3
19606
19605.7
19605.4
19605.1
19604.8
19604.5
19604.2
19603.9
19603.6
19603.3
19603
19602.7
19602.4
19602.1
19601.7
19601.4
19601.1
19600.8
19600.5
19600.2
19599.9
19599.6
19599.3
19599
19598.7
19598.4
19598.1
19597.8
19597.5
19597.2
19596.8
19596.5
19596.2
19595.9
19595.6
19595.3
19595
19594.7
19594.4
19594.1
19593.8
19593.5
19593.2
19592.9
19592.6
19592.2
19591.9
19591.6
19591.3
19591
19590.7
19590.4
19590.1
19589.8
19589.5
19589.2
19588.9
19588.6
19588.2
19587.9
19587.6
19587.3
19587
19586.7
19586.4
19586.1
19585.8
19585.5
19585.2
19584.9
19584.6
19584.2
19583.9
19583.6
19583.3
19583
19582.7
19582.4
19582.1
19581.8
19581.5
19581.2
19580.9
19580.5
19580.2
19579.9
19579.6
19579.3
19579
19578.7
19578.4
19578.1
19577.8
19577.5
19577.1
19576.8
19576.5
19576.2
19575.9
19575.6
19575.3
19575
19574.7
19574.4
19574
19573.7
19573.4
19573.1
19572.8
19572.5
19572.2
19571.9
19571.6
19571.3
19570.9
19570.6
19570.3
19570
19569.7
19569.4
19569.1
19568.8
19568.5
19568.2
19567.8
19567.5
19567.2
19566.9
19566.6
19566.3
19566
19565.7
19565.4
19565
19564.7
19564.4
19564.1
19563.8
19563.5
19563.2
19562.9
19562.6
19562.2
19561.9
19561.6
19561.3
19561
19560.7
19560.4
19560.1
19559.7
19559.4
19559.1
19558.8
19558.5
19558.2
19557.9
19557.6
19557.3
19556.9
19556.6
19556.3
19556
19555.7
19555.4
19555.1
19554.8
19554.4
19554.1
19553.8
19553.5
19553.2
19552.9
19552.6
19552.3
19551.9
19551.6
19551.3
19551
19550.7
19550.4
19550.1
19549.8
19549.4
19549.1
19548.8
19548.5
19548.2
19547.9
19547.6
19547.2
19546.9
19546.6
19546.3
19546
19545.7
19545.4
19545
19544.7
19544.4
19544.1
19543.8
19543.5
19543.2
19542.9
19542.5
19542.2
19541.9
19541.6
19541.3
19541
19540.7
19540.3
19540
19539.7
19539.4
19539.1
19538.8
19538.5
19538.1
19537.8
19537.5
19537.2
19536.9
19536.6
19536.2
19535.9
19535.6
19535.3
19535
19534.7
19534.4
19534
19533.7
19533.4
19533.1
19532.8
19532.5
19532.2
19531.8
19531.5
19531.2
19530.9
19530.6
19530.3
19529.9
19529.6
19529.3
19529
19528.7
19528.4
19528.1
19527.7
19527.4
19527.1
19526.8
19526.5
19526.2
19525.8
19525.5
19525.2
19524.9
19524.6
19524.3
19523.9
19523.6
19523.3
19523
19522.7
19522.4
19522
19521.7
19521.4
19521.1
19520.8
19520.5
19520.1
19519.8
19519.5
19519.2
19518.9
19518.6
19518.2
19517.9
19517.6
19517.3
19517
19516.7
19516.3
19516
19515.7
19515.4
19515.1
19514.8
19514.4
19514.1
19513.8
19513.5
19513.2
19512.9
19512.5
19512.2
19511.9
19511.6
19511.3
19510.9
19510.6
19510.3
19510
19509.7
19509.4
19509
19508.7
19508.4
19508.1
19507.8
19507.5
19507.1
19506.8
19506.5
19506.2
19505.9
19505.5
19505.2
19504.9
19504.6
19504.3
19504
19503.6
19503.3
19503
19502.7
19502.4
19502
19501.7
19501.4
19501.1
19500.8
19500.4
19500.1
19499.8
19499.5
19499.2
19498.9
19498.5
19498.2
19497.9
19497.6
19497.3
19496.9
19496.6
19496.3
19496
19495.7
19495.3
19495
19494.7
19494.4
19494.1
19493.7
19493.4
19493.1
19492.8
19492.5
19492.2
19491.8
19491.5
19491.2
19490.9
19490.6
19490.2
19489.9
19489.6
19489.3
19489
19488.6
19488.3
19488
19487.7
19487.4
19487
19486.7
19486.4
19486.1
19485.8
19485.4
19485.1
19484.8
19484.5
19484.2
19483.8
19483.5
19483.2
19482.9
19482.6
19482.2
19481.9
19481.6
19481.3
19481
19480.6
19480.3
19480
19479.7
19479.4
19479
19478.7
19478.4
19478.1
19477.8
19477.4
19477.1
19476.8
19476.5
19476.2
19475.8
19475.5
19475.2
19474.9
19474.5
19474.2
19473.9
19473.6
19473.3
19472.9
19472.6
19472.3
19472
19471.7
19471.3
19471
19470.7
19470.4
19470.1
19469.7
19469.4
19469.1
19468.8
19468.5
19468.1
19467.8
19467.5
19467.2
19466.8
19466.5
19466.2
19465.9
19465.6
19465.2
19464.9
19464.6
19464.3
19464
19463.6
19463.3
19463
19462.7
19462.3
19462
19461.7
19461.4
19461.1
19460.7
19460.4
19460.1
19459.8
19459.5
19459.1
19458.8
19458.5
19458.2
19457.8
19457.5
19457.2
19456.9
19456.6
19456.2
19455.9
19455.6
19455.3
19455
19454.6
19454.3
19454
19453.7
19453.3
19453
19452.7
19452.4
19452.1
19451.7
19451.4
19451.1
19450.8
19450.4
19450.1
19449.8
19449.5
19449.2
19448.8
19448.5
19448.2
19447.9
19447.6
19447.2
19446.9
19446.6
19446.3
19445.9
19445.6
19445.3
19445
19444.7
19444.3
19444
19443.7
19443.4
19443
19442.7
19442.4
19442.1
19441.8
19441.4
19441.1
19440.8
19440.5
19440.2
19439.8
19439.5
19439.2
19438.9
19438.5
19438.2
19437.9
19437.6
19437.3
19436.9
19436.6
19436.3
19436
19435.6
19435.3
19435
19434.7
19434.4
19434
19433.7
19433.4
19433.1
19432.7
19432.4
19432.1
19431.8
19431.5
19431.1
19430.8
19430.5
19430.2
19429.9
19429.5
19429.2
19428.9
19428.6
19428.2
19427.9
19427.6
19427.3
19427
19426.6
19426.3
19426
19425.7
19425.3
19425
19424.7
19424.4
19424.1
19423.7
19423.4
19423.1
19422.8
19422.5
19422.1
19421.8
19421.5
19421.2
19420.8
19420.5
19420.2
19419.9
19419.6
19419.2
19418.9
19418.6
19418.3
19418
19417.6
19417.3
19417
19416.7
19416.3
19416
19415.7
19415.4
19415.1
19414.7
19414.4
19414.1
19413.8
19413.5
19413.1
19412.8
19412.5
19412.2
19411.8
19411.5
19411.2
19410.9
19410.6
19410.2
19409.9
19409.6
19409.3
19409
19408.6
19408.3
19408
19407.7
19407.4
19407
19406.7
19406.4
19406.1
19405.8
19405.4
19405.1
19404.8
19404.5
19404.2
19403.8
19403.5
19403.2
19402.9
19402.5
19402.2
19401.9
19401.6
19401.3
19400.9
19400.6
19400.3
19400
19399.7
19399.3
19399
19398.7
19398.4
19398.1
19397.8
19397.4
19397.1
19396.8
19396.5
19396.2
19395.8
19395.5
19395.2
19394.9
19394.6
19394.2
19393.9
19393.6
19393.3
19393
19392.6
19392.3
19392
19391.7
19391.4
19391
19390.7
19390.4
19390.1
19389.8
19389.5
19389.1
19388.8
19388.5
19388.2
19387.9
19387.5
19387.2
19386.9
19386.6
19386.3
19386
19385.6
19385.3
19385
19384.7
19384.4
19384.1
19383.7
19383.4
19383.1
19382.8
19382.5
19382.1
19381.8
19381.5
19381.2
19380.9
19380.6
19380.2
19379.9
19379.6
19379.3
19379
19378.7
19378.3
19378
19377.7
19377.4
19377.1
19376.8
19376.5
19376.1
19375.8
19375.5
19375.2
19374.9
19374.6
19374.2
19373.9
19373.6
19373.3
19373
19372.7
19372.4
19372
19371.7
19371.4
19371.1
19370.8
19370.5
19370.2
19369.8
19369.5
19369.2
19368.9
19368.6
19368.3
19368
19367.6
19367.3
19367
19366.7
19366.4
19366.1
19365.8
19365.5
19365.1
19364.8
19364.5
19364.2
19363.9
19363.6
19363.3
19363
19362.6
19362.3
19362
19361.7
19361.4
19361.1
19360.8
19360.5
19360.2
19359.8
19359.5
19359.2
19358.9
19358.6
19358.3
19358
19357.7
19357.4
19357.1
19356.7
19356.4
19356.1
19355.8
19355.5
19355.2
19354.9
19354.6
19354.3
19354
19353.7
19353.3
19353
19352.7
19352.4
19352.1
19351.8
19351.5
19351.2
19350.9
19350.6
19350.3
19350
19349.7
19349.4
19349
19348.7
19348.4
19348.1
19347.8
19347.5
19347.2
19346.9
19346.6
19346.3
19346
19345.7
19345.4
19345.1
19344.8
19344.5
19344.2
19343.9
19343.6
19343.3
19343
19342.7
19342.3
19342
19341.7
19341.4
19341.1
19340.8
19340.5
19340.2
19339.9
19339.6
19339.3
19339
19338.7
19338.4
19338.1
19337.8
19337.5
19337.2
19336.9
19336.6
19336.3
19336
19335.7
19335.4
19335.1
19334.8
19334.5
19334.3
19334
19333.7
19333.4
19333.1
19332.8
19332.5
19332.2
19331.9
19331.6
19331.3
19331
19330.7
19330.4
19330.1
19329.8
19329.5
19329.2
19328.9
19328.6
19328.4
19328.1
19327.8
19327.5
19327.2
19326.9
19326.6
19326.3
19326
19325.7
19325.4
19325.1
19324.9
19324.6
19324.3
19324
19323.7
19323.4
19323.1
19322.8
19322.6
19322.3
19322
19321.7
19321.4
19321.1
19320.8
19320.5
19320.3
19320
19319.7
19319.4
19319.1
19318.8
19318.6
19318.3
19318
19317.7
19317.4
19317.1
19316.9
19316.6
19316.3
19316
19315.7
19315.5
19315.2
19314.9
19314.6
19314.4
19314.1
19313.8
19313.5
19313.2
19313
19312.7
19312.4
19312.1
19311.9
19311.6
19311.3
19311
19310.8
19310.5
19310.2
19309.9
19309.7
19309.4
19309.1
19308.9
19308.6
19308.3
19308.1
19307.8
19307.5
19307.2
19307
19306.7
19306.4
19306.2
19305.9
19305.6
19305.4
19305.1
19304.9
19304.6
19304.3
19304.1
19303.8
19303.5
19303.3
19303
19302.8
19302.5
19302.2
19302
19301.7
19301.5
19301.2
19300.9
19300.7
19300.4
19300.2
19299.9
19299.7
19299.4
19299.2
19298.9
19298.7
19298.4
19298.2
19297.9
19297.7
19297.4
19297.2
19296.9
19296.7
19296.4
19296.2
19295.9
19295.7
19295.4
19295.2
19294.9
19294.7
19294.5
19294.2
19294
19293.7
19293.5
19293.2
19293
19292.8
19292.5
19292.3
19292.1
19291.8
19291.6
19291.4
19291.1
19290.9
19290.7
19290.4
19290.2
19290
19289.7
19289.5
19289.3
19289.1
19288.8
19288.6
19288.4
19288.2
19287.9
19287.7
19287.5
19287.3
19287
19286.8
19286.6
19286.4
19286.2
19286
19285.7
19285.5
19285.3