/*--------------------------------*- C++ -*----------------------------------*\
  =========                 |
  \\      /  F ield         | OpenFOAM: The Open Source CFD Toolbox
   \\    /   O peration     | Website:  https://openfoam.org
    \\  /    A nd           | Version:  9
     \\/     M anipulation  |
\*---------------------------------------------------------------------------*/
FoamFile
{
    format      ascii;
    class       volScalarField;
    location    "0.029";
    object      p_0;
}
// * * * * * * * * * * * * * * * * * * * * * * * * * * * * * * * * * * * * * //

dimensions      [1 -1 -2 0 0 0 0];

internalField   nonuniform List<scalar> 
10000
(
20233.9
20233.7
20233.5
20233.3
20233.2
20233
20232.9
20232.7
20232.6
20232.4
20232.3
20232.1
20231.9
20231.8
20231.6
20231.5
20231.3
20231.2
20231
20230.8
20230.7
20230.5
20230.4
20230.2
20230.1
20229.9
20229.7
20229.6
20229.4
20229.3
20229.1
20228.9
20228.8
20228.6
20228.5
20228.3
20228.2
20228
20227.8
20227.7
20227.5
20227.4
20227.2
20227
20226.9
20226.7
20226.6
20226.4
20226.3
20226.1
20225.9
20225.8
20225.6
20225.5
20225.3
20225.1
20225
20224.8
20224.7
20224.5
20224.3
20224.2
20224
20223.9
20223.7
20223.5
20223.4
20223.2
20223.1
20222.9
20222.8
20222.6
20222.4
20222.3
20222.1
20222
20221.8
20221.6
20221.5
20221.3
20221.1
20221
20220.8
20220.7
20220.5
20220.3
20220.2
20220
20219.9
20219.7
20219.5
20219.4
20219.2
20219.1
20218.9
20218.7
20218.6
20218.4
20218.3
20218.1
20217.9
20217.8
20217.6
20217.4
20217.3
20217.1
20217
20216.8
20216.6
20216.5
20216.3
20216.2
20216
20215.8
20215.7
20215.5
20215.3
20215.2
20215
20214.9
20214.7
20214.5
20214.4
20214.2
20214
20213.9
20213.7
20213.6
20213.4
20213.2
20213.1
20212.9
20212.7
20212.6
20212.4
20212.2
20212.1
20211.9
20211.8
20211.6
20211.4
20211.3
20211.1
20210.9
20210.8
20210.6
20210.4
20210.3
20210.1
20210
20209.8
20209.6
20209.5
20209.3
20209.1
20209
20208.8
20208.6
20208.5
20208.3
20208.1
20208
20207.8
20207.7
20207.5
20207.3
20207.2
20207
20206.8
20206.7
20206.5
20206.3
20206.2
20206
20205.8
20205.7
20205.5
20205.3
20205.2
20205
20204.8
20204.7
20204.5
20204.4
20204.2
20204
20203.9
20203.7
20203.5
20203.4
20203.2
20203
20202.9
20202.7
20202.5
20202.4
20202.2
20202
20201.9
20201.7
20201.5
20201.4
20201.2
20201
20200.9
20200.7
20200.5
20200.4
20200.2
20200
20199.9
20199.7
20199.5
20199.4
20199.2
20199
20198.9
20198.7
20198.5
20198.3
20198.2
20198
20197.8
20197.7
20197.5
20197.3
20197.2
20197
20196.8
20196.7
20196.5
20196.3
20196.2
20196
20195.8
20195.7
20195.5
20195.3
20195.2
20195
20194.8
20194.6
20194.5
20194.3
20194.1
20194
20193.8
20193.6
20193.5
20193.3
20193.1
20193
20192.8
20192.6
20192.4
20192.3
20192.1
20191.9
20191.8
20191.6
20191.4
20191.3
20191.1
20190.9
20190.7
20190.6
20190.4
20190.2
20190.1
20189.9
20189.7
20189.6
20189.4
20189.2
20189
20188.9
20188.7
20188.5
20188.4
20188.2
20188
20187.9
20187.7
20187.5
20187.3
20187.2
20187
20186.8
20186.7
20186.5
20186.3
20186.1
20186
20185.8
20185.6
20185.5
20185.3
20185.1
20184.9
20184.8
20184.6
20184.4
20184.2
20184.1
20183.9
20183.7
20183.6
20183.4
20183.2
20183
20182.9
20182.7
20182.5
20182.4
20182.2
20182
20181.8
20181.7
20181.5
20181.3
20181.1
20181
20180.8
20180.6
20180.5
20180.3
20180.1
20179.9
20179.8
20179.6
20179.4
20179.2
20179.1
20178.9
20178.7
20178.5
20178.4
20178.2
20178
20177.8
20177.7
20177.5
20177.3
20177.1
20177
20176.8
20176.6
20176.5
20176.3
20176.1
20175.9
20175.8
20175.6
20175.4
20175.2
20175.1
20174.9
20174.7
20174.5
20174.4
20174.2
20174
20173.8
20173.7
20173.5
20173.3
20173.1
20173
20172.8
20172.6
20172.4
20172.2
20172.1
20171.9
20171.7
20171.5
20171.4
20171.2
20171
20170.8
20170.7
20170.5
20170.3
20170.1
20170
20169.8
20169.6
20169.4
20169.3
20169.1
20168.9
20168.7
20168.5
20168.4
20168.2
20168
20167.8
20167.7
20167.5
20167.3
20167.1
20167
20166.8
20166.6
20166.4
20166.2
20166.1
20165.9
20165.7
20165.5
20165.4
20165.2
20165
20164.8
20164.6
20164.5
20164.3
20164.1
20163.9
20163.8
20163.6
20163.4
20163.2
20163
20162.9
20162.7
20162.5
20162.3
20162.1
20162
20161.8
20161.6
20161.4
20161.3
20161.1
20160.9
20160.7
20160.5
20160.4
20160.2
20160
20159.8
20159.6
20159.5
20159.3
20159.1
20158.9
20158.7
20158.6
20158.4
20158.2
20158
20157.8
20157.7
20157.5
20157.3
20157.1
20156.9
20156.8
20156.6
20156.4
20156.2
20156
20155.9
20155.7
20155.5
20155.3
20155.1
20155
20154.8
20154.6
20154.4
20154.2
20154
20153.9
20153.7
20153.5
20153.3
20153.1
20153
20152.8
20152.6
20152.4
20152.2
20152
20151.9
20151.7
20151.5
20151.3
20151.1
20151
20150.8
20150.6
20150.4
20150.2
20150
20149.9
20149.7
20149.5
20149.3
20149.1
20148.9
20148.8
20148.6
20148.4
20148.2
20148
20147.9
20147.7
20147.5
20147.3
20147.1
20146.9
20146.8
20146.6
20146.4
20146.2
20146
20145.8
20145.7
20145.5
20145.3
20145.1
20144.9
20144.7
20144.5
20144.4
20144.2
20144
20143.8
20143.6
20143.4
20143.3
20143.1
20142.9
20142.7
20142.5
20142.3
20142.2
20142
20141.8
20141.6
20141.4
20141.2
20141
20140.9
20140.7
20140.5
20140.3
20140.1
20139.9
20139.7
20139.6
20139.4
20139.2
20139
20138.8
20138.6
20138.4
20138.3
20138.1
20137.9
20137.7
20137.5
20137.3
20137.1
20137
20136.8
20136.6
20136.4
20136.2
20136
20135.8
20135.7
20135.5
20135.3
20135.1
20134.9
20134.7
20134.5
20134.3
20134.2
20134
20133.8
20133.6
20133.4
20133.2
20133
20132.8
20132.7
20132.5
20132.3
20132.1
20131.9
20131.7
20131.5
20131.3
20131.2
20131
20130.8
20130.6
20130.4
20130.2
20130
20129.8
20129.7
20129.5
20129.3
20129.1
20128.9
20128.7
20128.5
20128.3
20128.1
20128
20127.8
20127.6
20127.4
20127.2
20127
20126.8
20126.6
20126.4
20126.3
20126.1
20125.9
20125.7
20125.5
20125.3
20125.1
20124.9
20124.7
20124.5
20124.4
20124.2
20124
20123.8
20123.6
20123.4
20123.2
20123
20122.8
20122.6
20122.5
20122.3
20122.1
20121.9
20121.7
20121.5
20121.3
20121.1
20120.9
20120.7
20120.5
20120.4
20120.2
20120
20119.8
20119.6
20119.4
20119.2
20119
20118.8
20118.6
20118.4
20118.3
20118.1
20117.9
20117.7
20117.5
20117.3
20117.1
20116.9
20116.7
20116.5
20116.3
20116.1
20115.9
20115.8
20115.6
20115.4
20115.2
20115
20114.8
20114.6
20114.4
20114.2
20114
20113.8
20113.6
20113.4
20113.3
20113.1
20112.9
20112.7
20112.5
20112.3
20112.1
20111.9
20111.7
20111.5
20111.3
20111.1
20110.9
20110.7
20110.5
20110.3
20110.2
20110
20109.8
20109.6
20109.4
20109.2
20109
20108.8
20108.6
20108.4
20108.2
20108
20107.8
20107.6
20107.4
20107.2
20107
20106.9
20106.7
20106.5
20106.3
20106.1
20105.9
20105.7
20105.5
20105.3
20105.1
20104.9
20104.7
20104.5
20104.3
20104.1
20103.9
20103.7
20103.5
20103.3
20103.1
20102.9
20102.7
20102.5
20102.4
20102.2
20102
20101.8
20101.6
20101.4
20101.2
20101
20100.8
20100.6
20100.4
20100.2
20100
20099.8
20099.6
20099.4
20099.2
20099
20098.8
20098.6
20098.4
20098.2
20098
20097.8
20097.6
20097.4
20097.2
20097
20096.8
20096.6
20096.4
20096.2
20096
20095.9
20095.7
20095.5
20095.3
20095.1
20094.9
20094.7
20094.5
20094.3
20094.1
20093.9
20093.7
20093.5
20093.3
20093.1
20092.9
20092.7
20092.5
20092.3
20092.1
20091.9
20091.7
20091.5
20091.3
20091.1
20090.9
20090.7
20090.5
20090.3
20090.1
20089.9
20089.7
20089.5
20089.3
20089.1
20088.9
20088.7
20088.5
20088.3
20088.1
20087.9
20087.7
20087.5
20087.3
20087.1
20086.9
20086.7
20086.5
20086.3
20086.1
20085.9
20085.7
20085.5
20085.3
20085.1
20084.9
20084.7
20084.5
20084.3
20084.1
20083.9
20083.7
20083.5
20083.3
20083.1
20082.9
20082.7
20082.5
20082.3
20082.1
20081.9
20081.7
20081.5
20081.3
20081.1
20080.8
20080.6
20080.4
20080.2
20080
20079.8
20079.6
20079.4
20079.2
20079
20078.8
20078.6
20078.4
20078.2
20078
20077.8
20077.6
20077.4
20077.2
20077
20076.8
20076.6
20076.4
20076.2
20076
20075.8
20075.6
20075.4
20075.2
20075
20074.8
20074.6
20074.4
20074.1
20073.9
20073.7
20073.5
20073.3
20073.1
20072.9
20072.7
20072.5
20072.3
20072.1
20071.9
20071.7
20071.5
20071.3
20071.1
20070.9
20070.7
20070.5
20070.3
20070.1
20069.9
20069.6
20069.4
20069.2
20069
20068.8
20068.6
20068.4
20068.2
20068
20067.8
20067.6
20067.4
20067.2
20067
20066.8
20066.6
20066.4
20066.2
20065.9
20065.7
20065.5
20065.3
20065.1
20064.9
20064.7
20064.5
20064.3
20064.1
20063.9
20063.7
20063.5
20063.3
20063.1
20062.8
20062.6
20062.4
20062.2
20062
20061.8
20061.6
20061.4
20061.2
20061
20060.8
20060.6
20060.4
20060.2
20059.9
20059.7
20059.5
20059.3
20059.1
20058.9
20058.7
20058.5
20058.3
20058.1
20057.9
20057.7
20057.4
20057.2
20057
20056.8
20056.6
20056.4
20056.2
20056
20055.8
20055.6
20055.4
20055.2
20054.9
20054.7
20054.5
20054.3
20054.1
20053.9
20053.7
20053.5
20053.3
20053.1
20052.8
20052.6
20052.4
20052.2
20052
20051.8
20051.6
20051.4
20051.2
20051
20050.8
20050.5
20050.3
20050.1
20049.9
20049.7
20049.5
20049.3
20049.1
20048.9
20048.6
20048.4
20048.2
20048
20047.8
20047.6
20047.4
20047.2
20047
20046.7
20046.5
20046.3
20046.1
20045.9
20045.7
20045.5
20045.3
20045.1
20044.8
20044.6
20044.4
20044.2
20044
20043.8
20043.6
20043.4
20043.1
20042.9
20042.7
20042.5
20042.3
20042.1
20041.9
20041.7
20041.4
20041.2
20041
20040.8
20040.6
20040.4
20040.2
20040
20039.7
20039.5
20039.3
20039.1
20038.9
20038.7
20038.5
20038.2
20038
20037.8
20037.6
20037.4
20037.2
20037
20036.8
20036.5
20036.3
20036.1
20035.9
20035.7
20035.5
20035.3
20035
20034.8
20034.6
20034.4
20034.2
20034
20033.8
20033.5
20033.3
20033.1
20032.9
20032.7
20032.5
20032.2
20032
20031.8
20031.6
20031.4
20031.2
20031
20030.7
20030.5
20030.3
20030.1
20029.9
20029.7
20029.4
20029.2
20029
20028.8
20028.6
20028.4
20028.2
20027.9
20027.7
20027.5
20027.3
20027.1
20026.9
20026.6
20026.4
20026.2
20026
20025.8
20025.6
20025.3
20025.1
20024.9
20024.7
20024.5
20024.3
20024
20023.8
20023.6
20023.4
20023.2
20022.9
20022.7
20022.5
20022.3
20022.1
20021.9
20021.6
20021.4
20021.2
20021
20020.8
20020.6
20020.3
20020.1
20019.9
20019.7
20019.5
20019.2
20019
20018.8
20018.6
20018.4
20018.2
20017.9
20017.7
20017.5
20017.3
20017.1
20016.8
20016.6
20016.4
20016.2
20016
20015.7
20015.5
20015.3
20015.1
20014.9
20014.6
20014.4
20014.2
20014
20013.8
20013.5
20013.3
20013.1
20012.9
20012.7
20012.4
20012.2
20012
20011.8
20011.6
20011.3
20011.1
20010.9
20010.7
20010.5
20010.2
20010
20009.8
20009.6
20009.4
20009.1
20008.9
20008.7
20008.5
20008.2
20008
20007.8
20007.6
20007.4
20007.1
20006.9
20006.7
20006.5
20006.3
20006
20005.8
20005.6
20005.4
20005.1
20004.9
20004.7
20004.5
20004.3
20004
20003.8
20003.6
20003.4
20003.1
20002.9
20002.7
20002.5
20002.3
20002
20001.8
20001.6
20001.4
20001.1
20000.9
20000.7
20000.5
20000.2
20000
19999.8
19999.6
19999.4
19999.1
19998.9
19998.7
19998.5
19998.2
19998
19997.8
19997.6
19997.3
19997.1
19996.9
19996.7
19996.4
19996.2
19996
19995.8
19995.5
19995.3
19995.1
19994.9
19994.6
19994.4
19994.2
19994
19993.7
19993.5
19993.3
19993.1
19992.8
19992.6
19992.4
19992.2
19991.9
19991.7
19991.5
19991.3
19991
19990.8
19990.6
19990.4
19990.1
19989.9
19989.7
19989.5
19989.2
19989
19988.8
19988.6
19988.3
19988.1
19987.9
19987.7
19987.4
19987.2
19987
19986.7
19986.5
19986.3
19986.1
19985.8
19985.6
19985.4
19985.2
19984.9
19984.7
19984.5
19984.3
19984
19983.8
19983.6
19983.3
19983.1
19982.9
19982.7
19982.4
19982.2
19982
19981.7
19981.5
19981.3
19981.1
19980.8
19980.6
19980.4
19980.2
19979.9
19979.7
19979.5
19979.2
19979
19978.8
19978.6
19978.3
19978.1
19977.9
19977.6
19977.4
19977.2
19976.9
19976.7
19976.5
19976.3
19976
19975.8
19975.6
19975.3
19975.1
19974.9
19974.7
19974.4
19974.2
19974
19973.7
19973.5
19973.3
19973
19972.8
19972.6
19972.4
19972.1
19971.9
19971.7
19971.4
19971.2
19971
19970.7
19970.5
19970.3
19970
19969.8
19969.6
19969.4
19969.1
19968.9
19968.7
19968.4
19968.2
19968
19967.7
19967.5
19967.3
19967
19966.8
19966.6
19966.3
19966.1
19965.9
19965.7
19965.4
19965.2
19965
19964.7
19964.5
19964.3
19964
19963.8
19963.6
19963.3
19963.1
19962.9
19962.6
19962.4
19962.2
19961.9
19961.7
19961.5
19961.2
19961
19960.8
19960.5
19960.3
19960.1
19959.8
19959.6
19959.4
19959.1
19958.9
19958.7
19958.4
19958.2
19958
19957.7
19957.5
19957.3
19957
19956.8
19956.6
19956.3
19956.1
19955.9
19955.6
19955.4
19955.2
19954.9
19954.7
19954.5
19954.2
19954
19953.8
19953.5
19953.3
19953
19952.8
19952.6
19952.3
19952.1
19951.9
19951.6
19951.4
19951.2
19950.9
19950.7
19950.5
19950.2
19950
19949.8
19949.5
19949.3
19949
19948.8
19948.6
19948.3
19948.1
19947.9
19947.6
19947.4
19947.2
19946.9
19946.7
19946.4
19946.2
19946
19945.7
19945.5
19945.3
19945
19944.8
19944.6
19944.3
19944.1
19943.8
19943.6
19943.4
19943.1
19942.9
19942.7
19942.4
19942.2
19941.9
19941.7
19941.5
19941.2
19941
19940.8
19940.5
19940.3
19940
19939.8
19939.6
19939.3
19939.1
19938.8
19938.6
19938.4
19938.1
19937.9
19937.7
19937.4
19937.2
19936.9
19936.7
19936.5
19936.2
19936
19935.7
19935.5
19935.3
19935
19934.8
19934.5
19934.3
19934.1
19933.8
19933.6
19933.4
19933.1
19932.9
19932.6
19932.4
19932.2
19931.9
19931.7
19931.4
19931.2
19931
19930.7
19930.5
19930.2
19930
19929.7
19929.5
19929.3
19929
19928.8
19928.5
19928.3
19928.1
19927.8
19927.6
19927.3
19927.1
19926.9
19926.6
19926.4
19926.1
19925.9
19925.7
19925.4
19925.2
19924.9
19924.7
19924.4
19924.2
19924
19923.7
19923.5
19923.2
19923
19922.7
19922.5
19922.3
19922
19921.8
19921.5
19921.3
19921.1
19920.8
19920.6
19920.3
19920.1
19919.8
19919.6
19919.4
19919.1
19918.9
19918.6
19918.4
19918.1
19917.9
19917.7
19917.4
19917.2
19916.9
19916.7
19916.4
19916.2
19915.9
19915.7
19915.5
19915.2
19915
19914.7
19914.5
19914.2
19914
19913.8
19913.5
19913.3
19913
19912.8
19912.5
19912.3
19912
19911.8
19911.5
19911.3
19911.1
19910.8
19910.6
19910.3
19910.1
19909.8
19909.6
19909.3
19909.1
19908.9
19908.6
19908.4
19908.1
19907.9
19907.6
19907.4
19907.1
19906.9
19906.6
19906.4
19906.2
19905.9
19905.7
19905.4
19905.2
19904.9
19904.7
19904.4
19904.2
19903.9
19903.7
19903.4
19903.2
19902.9
19902.7
19902.5
19902.2
19902
19901.7
19901.5
19901.2
19901
19900.7
19900.5
19900.2
19900
19899.7
19899.5
19899.2
19899
19898.7
19898.5
19898.2
19898
19897.8
19897.5
19897.3
19897
19896.8
19896.5
19896.3
19896
19895.8
19895.5
19895.3
19895
19894.8
19894.5
19894.3
19894
19893.8
19893.5
19893.3
19893
19892.8
19892.5
19892.3
19892
19891.8
19891.5
19891.3
19891
19890.8
19890.5
19890.3
19890
19889.8
19889.5
19889.3
19889
19888.8
19888.5
19888.3
19888
19887.8
19887.5
19887.3
19887
19886.8
19886.5
19886.3
19886
19885.8
19885.5
19885.3
19885
19884.8
19884.5
19884.3
19884
19883.8
19883.5
19883.3
19883
19882.8
19882.5
19882.3
19882
19881.8
19881.5
19881.3
19881
19880.8
19880.5
19880.3
19880
19879.8
19879.5
19879.2
19879
19878.7
19878.5
19878.2
19878
19877.7
19877.5
19877.2
19877
19876.7
19876.5
19876.2
19876
19875.7
19875.5
19875.2
19875
19874.7
19874.4
19874.2
19873.9
19873.7
19873.4
19873.2
19872.9
19872.7
19872.4
19872.2
19871.9
19871.7
19871.4
19871.1
19870.9
19870.6
19870.4
19870.1
19869.9
19869.6
19869.4
19869.1
19868.9
19868.6
19868.3
19868.1
19867.8
19867.6
19867.3
19867.1
19866.8
19866.6
19866.3
19866.1
19865.8
19865.5
19865.3
19865
19864.8
19864.5
19864.3
19864
19863.8
19863.5
19863.2
19863
19862.7
19862.5
19862.2
19862
19861.7
19861.5
19861.2
19860.9
19860.7
19860.4
19860.2
19859.9
19859.7
19859.4
19859.1
19858.9
19858.6
19858.4
19858.1
19857.9
19857.6
19857.3
19857.1
19856.8
19856.6
19856.3
19856.1
19855.8
19855.5
19855.3
19855
19854.8
19854.5
19854.3
19854
19853.7
19853.5
19853.2
19853
19852.7
19852.5
19852.2
19851.9
19851.7
19851.4
19851.2
19850.9
19850.6
19850.4
19850.1
19849.9
19849.6
19849.4
19849.1
19848.8
19848.6
19848.3
19848.1
19847.8
19847.5
19847.3
19847
19846.8
19846.5
19846.2
19846
19845.7
19845.5
19845.2
19844.9
19844.7
19844.4
19844.2
19843.9
19843.6
19843.4
19843.1
19842.9
19842.6
19842.3
19842.1
19841.8
19841.6
19841.3
19841
19840.8
19840.5
19840.3
19840
19839.7
19839.5
19839.2
19839
19838.7
19838.4
19838.2
19837.9
19837.6
19837.4
19837.1
19836.9
19836.6
19836.3
19836.1
19835.8
19835.6
19835.3
19835
19834.8
19834.5
19834.2
19834
19833.7
19833.5
19833.2
19832.9
19832.7
19832.4
19832.1
19831.9
19831.6
19831.4
19831.1
19830.8
19830.6
19830.3
19830
19829.8
19829.5
19829.3
19829
19828.7
19828.5
19828.2
19827.9
19827.7
19827.4
19827.1
19826.9
19826.6
19826.4
19826.1
19825.8
19825.6
19825.3
19825
19824.8
19824.5
19824.2
19824
19823.7
19823.5
19823.2
19822.9
19822.7
19822.4
19822.1
19821.9
19821.6
19821.3
19821.1
19820.8
19820.5
19820.3
19820
19819.7
19819.5
19819.2
19818.9
19818.7
19818.4
19818.2
19817.9
19817.6
19817.4
19817.1
19816.8
19816.6
19816.3
19816
19815.8
19815.5
19815.2
19815
19814.7
19814.4
19814.2
19813.9
19813.6
19813.4
19813.1
19812.8
19812.6
19812.3
19812
19811.8
19811.5
19811.2
19811
19810.7
19810.4
19810.2
19809.9
19809.6
19809.4
19809.1
19808.8
19808.6
19808.3
19808
19807.8
19807.5
19807.2
19806.9
19806.7
19806.4
19806.1
19805.9
19805.6
19805.3
19805.1
19804.8
19804.5
19804.3
19804
19803.7
19803.5
19803.2
19802.9
19802.7
19802.4
19802.1
19801.8
19801.6
19801.3
19801
19800.8
19800.5
19800.2
19800
19799.7
19799.4
19799.2
19798.9
19798.6
19798.3
19798.1
19797.8
19797.5
19797.3
19797
19796.7
19796.5
19796.2
19795.9
19795.6
19795.4
19795.1
19794.8
19794.6
19794.3
19794
19793.8
19793.5
19793.2
19792.9
19792.7
19792.4
19792.1
19791.9
19791.6
19791.3
19791
19790.8
19790.5
19790.2
19790
19789.7
19789.4
19789.1
19788.9
19788.6
19788.3
19788.1
19787.8
19787.5
19787.2
19787
19786.7
19786.4
19786.2
19785.9
19785.6
19785.3
19785.1
19784.8
19784.5
19784.2
19784
19783.7
19783.4
19783.2
19782.9
19782.6
19782.3
19782.1
19781.8
19781.5
19781.2
19781
19780.7
19780.4
19780.2
19779.9
19779.6
19779.3
19779.1
19778.8
19778.5
19778.2
19778
19777.7
19777.4
19777.1
19776.9
19776.6
19776.3
19776
19775.8
19775.5
19775.2
19774.9
19774.7
19774.4
19774.1
19773.8
19773.6
19773.3
19773
19772.7
19772.5
19772.2
19771.9
19771.6
19771.4
19771.1
19770.8
19770.5
19770.3
19770
19769.7
19769.4
19769.2
19768.9
19768.6
19768.3
19768.1
19767.8
19767.5
19767.2
19767
19766.7
19766.4
19766.1
19765.9
19765.6
19765.3
19765
19764.7
19764.5
19764.2
19763.9
19763.6
19763.4
19763.1
19762.8
19762.5
19762.3
19762
19761.7
19761.4
19761.1
19760.9
19760.6
19760.3
19760
19759.8
19759.5
19759.2
19758.9
19758.7
19758.4
19758.1
19757.8
19757.5
19757.3
19757
19756.7
19756.4
19756.1
19755.9
19755.6
19755.3
19755
19754.8
19754.5
19754.2
19753.9
19753.6
19753.4
19753.1
19752.8
19752.5
19752.2
19752
19751.7
19751.4
19751.1
19750.9
19750.6
19750.3
19750
19749.7
19749.5
19749.2
19748.9
19748.6
19748.3
19748.1
19747.8
19747.5
19747.2
19746.9
19746.7
19746.4
19746.1
19745.8
19745.5
19745.3
19745
19744.7
19744.4
19744.1
19743.9
19743.6
19743.3
19743
19742.7
19742.4
19742.2
19741.9
19741.6
19741.3
19741
19740.8
19740.5
19740.2
19739.9
19739.6
19739.4
19739.1
19738.8
19738.5
19738.2
19737.9
19737.7
19737.4
19737.1
19736.8
19736.5
19736.3
19736
19735.7
19735.4
19735.1
19734.8
19734.6
19734.3
19734
19733.7
19733.4
19733.1
19732.9
19732.6
19732.3
19732
19731.7
19731.4
19731.2
19730.9
19730.6
19730.3
19730
19729.7
19729.5
19729.2
19728.9
19728.6
19728.3
19728
19727.8
19727.5
19727.2
19726.9
19726.6
19726.3
19726.1
19725.8
19725.5
19725.2
19724.9
19724.6
19724.4
19724.1
19723.8
19723.5
19723.2
19722.9
19722.6
19722.4
19722.1
19721.8
19721.5
19721.2
19720.9
19720.6
19720.4
19720.1
19719.8
19719.5
19719.2
19718.9
19718.6
19718.4
19718.1
19717.8
19717.5
19717.2
19716.9
19716.6
19716.4
19716.1
19715.8
19715.5
19715.2
19714.9
19714.6
19714.4
19714.1
19713.8
19713.5
19713.2
19712.9
19712.6
19712.4
19712.1
19711.8
19711.5
19711.2
19710.9
19710.6
19710.3
19710.1
19709.8
19709.5
19709.2
19708.9
19708.6
19708.3
19708
19707.8
19707.5
19707.2
19706.9
19706.6
19706.3
19706
19705.7
19705.5
19705.2
19704.9
19704.6
19704.3
19704
19703.7
19703.4
19703.2
19702.9
19702.6
19702.3
19702
19701.7
19701.4
19701.1
19700.8
19700.6
19700.3
19700
19699.7
19699.4
19699.1
19698.8
19698.5
19698.2
19697.9
19697.7
19697.4
19697.1
19696.8
19696.5
19696.2
19695.9
19695.6
19695.3
19695.1
19694.8
19694.5
19694.2
19693.9
19693.6
19693.3
19693
19692.7
19692.4
19692.1
19691.9
19691.6
19691.3
19691
19690.7
19690.4
19690.1
19689.8
19689.5
19689.2
19689
19688.7
19688.4
19688.1
19687.8
19687.5
19687.2
19686.9
19686.6
19686.3
19686
19685.7
19685.5
19685.2
19684.9
19684.6
19684.3
19684
19683.7
19683.4
19683.1
19682.8
19682.5
19682.2
19681.9
19681.7
19681.4
19681.1
19680.8
19680.5
19680.2
19679.9
19679.6
19679.3
19679
19678.7
19678.4
19678.1
19677.9
19677.6
19677.3
19677
19676.7
19676.4
19676.1
19675.8
19675.5
19675.2
19674.9
19674.6
19674.3
19674
19673.7
19673.4
19673.2
19672.9
19672.6
19672.3
19672
19671.7
19671.4
19671.1
19670.8
19670.5
19670.2
19669.9
19669.6
19669.3
19669
19668.7
19668.4
19668.1
19667.9
19667.6
19667.3
19667
19666.7
19666.4
19666.1
19665.8
19665.5
19665.2
19664.9
19664.6
19664.3
19664
19663.7
19663.4
19663.1
19662.8
19662.5
19662.2
19661.9
19661.7
19661.4
19661.1
19660.8
19660.5
19660.2
19659.9
19659.6
19659.3
19659
19658.7
19658.4
19658.1
19657.8
19657.5
19657.2
19656.9
19656.6
19656.3
19656
19655.7
19655.4
19655.1
19654.8
19654.5
19654.2
19653.9
19653.6
19653.3
19653
19652.7
19652.5
19652.2
19651.9
19651.6
19651.3
19651
19650.7
19650.4
19650.1
19649.8
19649.5
19649.2
19648.9
19648.6
19648.3
19648
19647.7
19647.4
19647.1
19646.8
19646.5
19646.2
19645.9
19645.6
19645.3
19645
19644.7
19644.4
19644.1
19643.8
19643.5
19643.2
19642.9
19642.6
19642.3
19642
19641.7
19641.4
19641.1
19640.8
19640.5
19640.2
19639.9
19639.6
19639.3
19639
19638.7
19638.4
19638.1
19637.8
19637.5
19637.2
19636.9
19636.6
19636.3
19636
19635.7
19635.4
19635.1
19634.8
19634.5
19634.2
19633.9
19633.6
19633.3
19633
19632.7
19632.4
19632.1
19631.8
19631.5
19631.2
19630.9
19630.6
19630.3
19630
19629.7
19629.4
19629.1
19628.8
19628.5
19628.2
19627.9
19627.6
19627.3
19627
19626.7
19626.4
19626.1
19625.8
19625.5
19625.2
19624.9
19624.6
19624.3
19624
19623.7
19623.3
19623
19622.7
19622.4
19622.1
19621.8
19621.5
19621.2
19620.9
19620.6
19620.3
19620
19619.7
19619.4
19619.1
19618.8
19618.5
19618.2
19617.9
19617.6
19617.3
19617
19616.7
19616.4
19616.1
19615.8
19615.5
19615.2
19614.9
19614.6
19614.3
19613.9
19613.6
19613.3
19613
19612.7
19612.4
19612.1
19611.8
19611.5
19611.2
19610.9
19610.6
19610.3
19610
19609.7
19609.4
19609.1
19608.8
19608.5
19608.2
19607.9
19607.6
19607.3
19606.9
19606.6
19606.3
19606
19605.7
19605.4
19605.1
19604.8
19604.5
19604.2
19603.9
19603.6
19603.3
19603
19602.7
19602.4
19602.1
19601.8
19601.4
19601.1
19600.8
19600.5
19600.2
19599.9
19599.6
19599.3
19599
19598.7
19598.4
19598.1
19597.8
19597.5
19597.2
19596.9
19596.5
19596.2
19595.9
19595.6
19595.3
19595
19594.7
19594.4
19594.1
19593.8
19593.5
19593.2
19592.9
19592.6
19592.2
19591.9
19591.6
19591.3
19591
19590.7
19590.4
19590.1
19589.8
19589.5
19589.2
19588.9
19588.6
19588.2
19587.9
19587.6
19587.3
19587
19586.7
19586.4
19586.1
19585.8
19585.5
19585.2
19584.9
19584.5
19584.2
19583.9
19583.6
19583.3
19583
19582.7
19582.4
19582.1
19581.8
19581.5
19581.2
19580.8
19580.5
19580.2
19579.9
19579.6
19579.3
19579
19578.7
19578.4
19578.1
19577.8
19577.4
19577.1
19576.8
19576.5
19576.2
19575.9
19575.6
19575.3
19575
19574.7
19574.3
19574
19573.7
19573.4
19573.1
19572.8
19572.5
19572.2
19571.9
19571.6
19571.2
19570.9
19570.6
19570.3
19570
19569.7
19569.4
19569.1
19568.8
19568.4
19568.1
19567.8
19567.5
19567.2
19566.9
19566.6
19566.3
19566
19565.6
19565.3
19565
19564.7
19564.4
19564.1
19563.8
19563.5
19563.2
19562.8
19562.5
19562.2
19561.9
19561.6
19561.3
19561
19560.7
19560.4
19560
19559.7
19559.4
19559.1
19558.8
19558.5
19558.2
19557.9
19557.5
19557.2
19556.9
19556.6
19556.3
19556
19555.7
19555.4
19555
19554.7
19554.4
19554.1
19553.8
19553.5
19553.2
19552.9
19552.5
19552.2
19551.9
19551.6
19551.3
19551
19550.7
19550.3
19550
19549.7
19549.4
19549.1
19548.8
19548.5
19548.2
19547.8
19547.5
19547.2
19546.9
19546.6
19546.3
19546
19545.6
19545.3
19545
19544.7
19544.4
19544.1
19543.8
19543.4
19543.1
19542.8
19542.5
19542.2
19541.9
19541.6
19541.2
19540.9
19540.6
19540.3
19540
19539.7
19539.4
19539
19538.7
19538.4
19538.1
19537.8
19537.5
19537.2
19536.8
19536.5
19536.2
19535.9
19535.6
19535.3
19535
19534.6
19534.3
19534
19533.7
19533.4
19533.1
19532.7
19532.4
19532.1
19531.8
19531.5
19531.2
19530.9
19530.5
19530.2
19529.9
19529.6
19529.3
19529
19528.6
19528.3
19528
19527.7
19527.4
19527.1
19526.7
19526.4
19526.1
19525.8
19525.5
19525.2
19524.8
19524.5
19524.2
19523.9
19523.6
19523.3
19522.9
19522.6
19522.3
19522
19521.7
19521.4
19521
19520.7
19520.4
19520.1
19519.8
19519.5
19519.1
19518.8
19518.5
19518.2
19517.9
19517.6
19517.2
19516.9
19516.6
19516.3
19516
19515.7
19515.3
19515
19514.7
19514.4
19514.1
19513.8
19513.4
19513.1
19512.8
19512.5
19512.2
19511.8
19511.5
19511.2
19510.9
19510.6
19510.3
19509.9
19509.6
19509.3
19509
19508.7
19508.4
19508
19507.7
19507.4
19507.1
19506.8
19506.4
19506.1
19505.8
19505.5
19505.2
19504.9
19504.5
19504.2
19503.9
19503.6
19503.3
19502.9
19502.6
19502.3
19502
19501.7
19501.3
19501
19500.7
19500.4
19500.1
19499.8
19499.4
19499.1
19498.8
19498.5
19498.2
19497.8
19497.5
19497.2
19496.9
19496.6
19496.2
19495.9
19495.6
19495.3
19495
19494.6
19494.3
19494
19493.7
19493.4
19493
19492.7
19492.4
19492.1
19491.8
19491.5
19491.1
19490.8
19490.5
19490.2
19489.9
19489.5
19489.2
19488.9
19488.6
19488.3
19487.9
19487.6
19487.3
19487
19486.7
19486.3
19486
19485.7
19485.4
19485.1
19484.7
19484.4
19484.1
19483.8
19483.5
19483.1
19482.8
19482.5
19482.2
19481.9
19481.5
19481.2
19480.9
19480.6
19480.3
19479.9
19479.6
19479.3
19479
19478.6
19478.3
19478
19477.7
19477.4
19477
19476.7
19476.4
19476.1
19475.8
19475.4
19475.1
19474.8
19474.5
19474.2
19473.8
19473.5
19473.2
19472.9
19472.6
19472.2
19471.9
19471.6
19471.3
19470.9
19470.6
19470.3
19470
19469.7
19469.3
19469
19468.7
19468.4
19468.1
19467.7
19467.4
19467.1
19466.8
19466.5
19466.1
19465.8
19465.5
19465.2
19464.8
19464.5
19464.2
19463.9
19463.6
19463.2
19462.9
19462.6
19462.3
19462
19461.6
19461.3
19461
19460.7
19460.3
19460
19459.7
19459.4
19459.1
19458.7
19458.4
19458.1
19457.8
19457.5
19457.1
19456.8
19456.5
19456.2
19455.8
19455.5
19455.2
19454.9
19454.6
19454.2
19453.9
19453.6
19453.3
19452.9
19452.6
19452.3
19452
19451.7
19451.3
19451
19450.7
19450.4
19450.1
19449.7
19449.4
19449.1
19448.8
19448.4
19448.1
19447.8
19447.5
19447.2
19446.8
19446.5
19446.2
19445.9
19445.5
19445.2
19444.9
19444.6
19444.3
19443.9
19443.6
19443.3
19443
19442.6
19442.3
19442
19441.7
19441.4
19441
19440.7
19440.4
19440.1
19439.8
19439.4
19439.1
19438.8
19438.5
19438.1
19437.8
19437.5
19437.2
19436.9
19436.5
19436.2
19435.9
19435.6
19435.2
19434.9
19434.6
19434.3
19434
19433.6
19433.3
19433
19432.7
19432.3
19432
19431.7
19431.4
19431.1
19430.7
19430.4
19430.1
19429.8
19429.4
19429.1
19428.8
19428.5
19428.2
19427.8
19427.5
19427.2
19426.9
19426.6
19426.2
19425.9
19425.6
19425.3
19424.9
19424.6
19424.3
19424
19423.7
19423.3
19423
19422.7
19422.4
19422
19421.7
19421.4
19421.1
19420.8
19420.4
19420.1
19419.8
19419.5
19419.2
19418.8
19418.5
19418.2
19417.9
19417.5
19417.2
19416.9
19416.6
19416.3
19415.9
19415.6
19415.3
19415
19414.7
19414.3
19414
19413.7
19413.4
19413.1
19412.7
19412.4
19412.1
19411.8
19411.4
19411.1
19410.8
19410.5
19410.2
19409.8
19409.5
19409.2
19408.9
19408.6
19408.2
19407.9
19407.6
19407.3
19407
19406.6
19406.3
19406
19405.7
19405.4
19405
19404.7
19404.4
19404.1
19403.8
19403.4
19403.1
19402.8
19402.5
19402.2
19401.8
19401.5
19401.2
19400.9
19400.6
19400.2
19399.9
19399.6
19399.3
19399
19398.6
19398.3
19398
19397.7
19397.4
19397
19396.7
19396.4
19396.1
19395.8
19395.4
19395.1
19394.8
19394.5
19394.2
19393.8
19393.5
19393.2
19392.9
19392.6
19392.3
19391.9
19391.6
19391.3
19391
19390.7
19390.3
19390
19389.7
19389.4
19389.1
19388.7
19388.4
19388.1
19387.8
19387.5
19387.2
19386.8
19386.5
19386.2
19385.9
19385.6
19385.3
19384.9
19384.6
19384.3
19384
19383.7
19383.3
19383
19382.7
19382.4
19382.1
19381.8
19381.4
19381.1
19380.8
19380.5
19380.2
19379.9
19379.5
19379.2
19378.9
19378.6
19378.3
19378
19377.7
19377.3
19377
19376.7
19376.4
19376.1
19375.8
19375.4
19375.1
19374.8
19374.5
19374.2
19373.9
19373.6
19373.2
19372.9
19372.6
19372.3
19372
19371.7
19371.4
19371
19370.7
19370.4
19370.1
19369.8
19369.5
19369.2
19368.8
19368.5
19368.2
19367.9
19367.6
19367.3
19367
19366.7
19366.3
19366
19365.7
19365.4
19365.1
19364.8
19364.5
19364.2
19363.8
19363.5
19363.2
19362.9
19362.6
19362.3
19362
19361.7
19361.3
19361
19360.7
19360.4
19360.1
19359.8
19359.5
19359.2
19358.9
19358.6
19358.2
19357.9
19357.6
19357.3
19357
19356.7
19356.4
19356.1
19355.8
19355.5
19355.2
19354.8
19354.5
19354.2
19353.9
19353.6
19353.3
19353
19352.7
19352.4
19352.1
19351.8
19351.5
19351.2
19350.9
19350.5
19350.2
19349.9
19349.6
19349.3
19349
19348.7
19348.4
19348.1
19347.8
19347.5
19347.2
19346.9
19346.6
19346.3
19346
19345.7
19345.4
19345.1
19344.8
19344.5
19344.1
19343.8
19343.5
19343.2
19342.9
19342.6
19342.3
19342
19341.7
19341.4
19341.1
19340.8
19340.5
19340.2
19339.9
19339.6
19339.3
19339
19338.7
19338.4
19338.1
19337.8
19337.5
19337.2
19336.9
19336.6
19336.3
19336
19335.7
19335.4
19335.1
19334.8
19334.6
19334.3
19334
19333.7
19333.4
19333.1
19332.8
19332.5
19332.2
19331.9
19331.6
19331.3
19331
19330.7
19330.4
19330.1
19329.8
19329.5
19329.2
19329
19328.7
19328.4
19328.1
19327.8
19327.5
19327.2
19326.9
19326.6
19326.3
19326
19325.8
19325.5
19325.2
19324.9
19324.6
19324.3
19324
19323.7
19323.5
19323.2
19322.9
19322.6
19322.3
19322
19321.7
19321.5
19321.2
19320.9
19320.6
19320.3
19320
19319.7
19319.5
19319.2
19318.9
19318.6
19318.3
19318.1
19317.8
19317.5
19317.2
19316.9
19316.7
19316.4
19316.1
19315.8
19315.5
19315.3
19315
19314.7
19314.4
19314.2
19313.9
19313.6
19313.3
19313
19312.8
19312.5
19312.2
19312
19311.7
19311.4
19311.1
19310.9
19310.6
19310.3
19310
19309.8
19309.5
19309.2
19309
19308.7
19308.4
19308.2
19307.9
19307.6
19307.4
19307.1
19306.8
19306.6
19306.3
19306
19305.8
19305.5
19305.2
19305
19304.7
19304.5
19304.2
19303.9
19303.7
19303.4
19303.2
19302.9
19302.6
19302.4
19302.1
19301.9
19301.6
19301.4
19301.1
19300.8
19300.6
19300.3
19300.1
19299.8
19299.6
19299.3
19299.1
19298.8
19298.6
19298.3
19298.1
19297.8
19297.6
19297.3
19297.1
19296.9
19296.6
19296.4
19296.1
19295.9
19295.6
19295.4
19295.1
19294.9
19294.7
19294.4
19294.2
19293.9
19293.7
19293.5
19293.2
19293
19292.8
19292.5
19292.3
19292.1
19291.8
19291.6
19291.4
19291.1
19290.9
19290.7
19290.5
19290.2
19290
19289.8
19289.6
19289.3
19289.1
19288.9
19288.7
19288.4
19288.2
19288
19287.8
19287.6
19287.3
19287.1
19286.9