/*--------------------------------*- C++ -*----------------------------------*\
  =========                 |
  \\      /  F ield         | OpenFOAM: The Open Source CFD Toolbox
   \\    /   O peration     | Website:  https://openfoam.org
    \\  /    A nd           | Version:  9
     \\/     M anipulation  |
\*---------------------------------------------------------------------------*/
FoamFile
{
    format      ascii;
    class       surfaceScalarField;
    location    "0.029";
    object      phi;
}
// * * * * * * * * * * * * * * * * * * * * * * * * * * * * * * * * * * * * * //

dimensions      [1 0 -1 0 0 0 0];

internalField   nonuniform List<scalar> 
9999
(
6.66802
6.72614
6.78426
6.84237
6.90048
6.95859
7.0167
7.0748
7.1329
7.191
7.24909
7.30719
7.36528
7.42337
7.48146
7.53954
7.59761
7.65569
7.71377
7.77185
7.82992
7.88799
7.94605
8.00411
8.06217
8.12023
8.17829
8.23635
8.29441
8.35245
8.41048
8.46852
8.52656
8.58461
8.64266
8.70071
8.75875
8.81678
8.8748
8.93281
8.99082
9.04883
9.10684
9.16487
9.22291
9.28095
9.33898
9.39701
9.45503
9.51304
9.57103
9.629
9.68697
9.74492
9.80289
9.86085
9.91883
9.97682
10.0348
10.0929
10.1509
10.209
10.2671
10.3252
10.3833
10.4414
10.4996
10.5577
10.6158
10.674
10.7321
10.7903
10.8484
10.9066
10.9647
11.0229
11.0811
11.1392
11.1974
11.2556
11.3137
11.3719
11.43
11.4882
11.5464
11.6045
11.6627
11.7208
11.779
11.8372
11.8953
11.9535
12.0116
12.0698
12.1279
12.1861
12.2443
12.3024
12.3606
12.4187
12.4769
12.535
12.5932
12.6513
12.7095
12.7676
12.8258
12.8839
12.9421
13.0003
13.0584
13.1166
13.1747
13.2329
13.291
13.3492
13.4073
13.4654
13.5236
13.5817
13.6399
13.698
13.7562
13.8143
13.8725
13.9306
13.9888
14.0469
14.1051
14.1632
14.2214
14.2795
14.3376
14.3958
14.4539
14.5121
14.5702
14.6283
14.6865
14.7446
14.8028
14.8609
14.9191
14.9772
15.0353
15.0935
15.1516
15.2097
15.2679
15.326
15.3842
15.4423
15.5004
15.5586
15.6167
15.6748
15.733
15.7911
15.8492
15.9074
15.9655
16.0236
16.0818
16.1399
16.198
16.2562
16.3143
16.3724
16.4306
16.4887
16.5468
16.605
16.6631
16.7212
16.7793
16.8375
16.8956
16.9537
17.0118
17.07
17.1281
17.1862
17.2444
17.3025
17.3606
17.4187
17.4768
17.535
17.5931
17.6512
17.7093
17.7675
17.8256
17.8837
17.9418
17.9999
18.0581
18.1162
18.1743
18.2324
18.2905
18.3487
18.4068
18.4649
18.523
18.5811
18.6392
18.6974
18.7555
18.8136
18.8717
18.9298
18.9879
19.0461
19.1042
19.1623
19.2204
19.2785
19.3366
19.3947
19.4528
19.5109
19.5691
19.6272
19.6853
19.7434
19.8015
19.8596
19.9177
19.9758
20.0339
20.092
20.1501
20.2082
20.2663
20.3245
20.3826
20.4407
20.4988
20.5569
20.615
20.6731
20.7312
20.7893
20.8474
20.9055
20.9636
21.0217
21.0798
21.1379
21.196
21.2541
21.3122
21.3703
21.4284
21.4865
21.5446
21.6027
21.6608
21.7189
21.777
21.835
21.8931
21.9512
22.0093
22.0674
22.1255
22.1836
22.2417
22.2998
22.3579
22.416
22.4741
22.5322
22.5902
22.6483
22.7064
22.7645
22.8226
22.8807
22.9388
22.9969
23.0549
23.113
23.1711
23.2292
23.2873
23.3454
23.4035
23.4615
23.5196
23.5777
23.6358
23.6939
23.752
23.81
23.8681
23.9262
23.9843
24.0424
24.1004
24.1585
24.2166
24.2747
24.3327
24.3908
24.4489
24.507
24.565
24.6231
24.6812
24.7393
24.7973
24.8554
24.9135
24.9716
25.0296
25.0877
25.1458
25.2039
25.2619
25.32
25.3781
25.4361
25.4942
25.5523
25.6103
25.6684
25.7265
25.7845
25.8426
25.9007
25.9587
26.0168
26.0749
26.1329
26.191
26.2491
26.3071
26.3652
26.4232
26.4813
26.5394
26.5974
26.6555
26.7135
26.7716
26.8297
26.8877
26.9458
27.0038
27.0619
27.12
27.178
27.2361
27.2941
27.3522
27.4102
27.4683
27.5263
27.5844
27.6424
27.7005
27.7585
27.8166
27.8747
27.9327
27.9908
28.0488
28.1069
28.1649
28.2229
28.281
28.339
28.3971
28.4551
28.5132
28.5712
28.6293
28.6873
28.7454
28.8034
28.8615
28.9195
28.9775
29.0356
29.0936
29.1517
29.2097
29.2677
29.3258
29.3838
29.4419
29.4999
29.5579
29.616
29.674
29.7321
29.7901
29.8481
29.9062
29.9642
30.0222
30.0803
30.1383
30.1963
30.2544
30.3124
30.3704
30.4285
30.4865
30.5445
30.6026
30.6606
30.7186
30.7766
30.8347
30.8927
30.9507
31.0087
31.0668
31.1248
31.1828
31.2409
31.2989
31.3569
31.4149
31.4729
31.531
31.589
31.647
31.705
31.7631
31.8211
31.8791
31.9371
31.9951
32.0532
32.1112
32.1692
32.2272
32.2852
32.3432
32.4013
32.4593
32.5173
32.5753
32.6333
32.6913
32.7493
32.8074
32.8654
32.9234
32.9814
33.0394
33.0974
33.1554
33.2134
33.2714
33.3294
33.3874
33.4455
33.5035
33.5615
33.6195
33.6775
33.7355
33.7935
33.8515
33.9095
33.9675
34.0255
34.0835
34.1415
34.1995
34.2575
34.3155
34.3735
34.4315
34.4895
34.5475
34.6055
34.6635
34.7215
34.7795
34.8375
34.8955
34.9535
35.0115
35.0695
35.1275
35.1854
35.2434
35.3014
35.3594
35.4174
35.4754
35.5334
35.5914
35.6494
35.7074
35.7653
35.8233
35.8813
35.9393
35.9973
36.0553
36.1133
36.1712
36.2292
36.2872
36.3452
36.4032
36.4612
36.5191
36.5771
36.6351
36.6931
36.7511
36.809
36.867
36.925
36.983
37.041
37.0989
37.1569
37.2149
37.2729
37.3308
37.3888
37.4468
37.5047
37.5627
37.6207
37.6787
37.7366
37.7946
37.8526
37.9105
37.9685
38.0265
38.0845
38.1424
38.2004
38.2584
38.3163
38.3743
38.4322
38.4902
38.5482
38.6061
38.6641
38.7221
38.78
38.838
38.8959
38.9539
39.0119
39.0698
39.1278
39.1857
39.2437
39.3017
39.3596
39.4176
39.4755
39.5335
39.5914
39.6494
39.7073
39.7653
39.8232
39.8812
39.9392
39.9971
40.0551
40.113
40.171
40.2289
40.2868
40.3448
40.4027
40.4607
40.5186
40.5766
40.6345
40.6925
40.7504
40.8084
40.8663
40.9242
40.9822
41.0401
41.0981
41.156
41.214
41.2719
41.3298
41.3878
41.4457
41.5036
41.5616
41.6195
41.6775
41.7354
41.7933
41.8513
41.9092
41.9671
42.0251
42.083
42.1409
42.1988
42.2568
42.3147
42.3726
42.4306
42.4885
42.5464
42.6043
42.6623
42.7202
42.7781
42.8361
42.894
42.9519
43.0098
43.0677
43.1257
43.1836
43.2415
43.2994
43.3574
43.4153
43.4732
43.5311
43.589
43.6469
43.7049
43.7628
43.8207
43.8786
43.9365
43.9944
44.0524
44.1103
44.1682
44.2261
44.284
44.3419
44.3998
44.4577
44.5156
44.5735
44.6315
44.6894
44.7473
44.8052
44.8631
44.921
44.9789
45.0368
45.0947
45.1526
45.2105
45.2684
45.3263
45.3842
45.4421
45.5
45.5579
45.6158
45.6737
45.7316
45.7895
45.8474
45.9053
45.9632
46.0211
46.079
46.1369
46.1948
46.2527
46.3106
46.3684
46.4263
46.4842
46.5421
46.6
46.6579
46.7158
46.7737
46.8316
46.8894
46.9473
47.0052
47.0631
47.121
47.1789
47.2367
47.2946
47.3525
47.4104
47.4683
47.5262
47.584
47.6419
47.6998
47.7577
47.8155
47.8734
47.9313
47.9892
48.047
48.1049
48.1628
48.2207
48.2785
48.3364
48.3943
48.4522
48.51
48.5679
48.6258
48.6836
48.7415
48.7994
48.8572
48.9151
48.973
49.0308
49.0887
49.1466
49.2044
49.2623
49.3202
49.378
49.4359
49.4937
49.5516
49.6095
49.6673
49.7252
49.783
49.8409
49.8987
49.9566
50.0145
50.0723
50.1302
50.188
50.2459
50.3037
50.3616
50.4194
50.4773
50.5351
50.593
50.6508
50.7087
50.7665
50.8244
50.8822
50.9401
50.9979
51.0557
51.1136
51.1714
51.2293
51.2871
51.345
51.4028
51.4606
51.5185
51.5763
51.6342
51.692
51.7498
51.8077
51.8655
51.9233
51.9812
52.039
52.0968
52.1547
52.2125
52.2703
52.3282
52.386
52.4438
52.5017
52.5595
52.6173
52.6752
52.733
52.7908
52.8486
52.9065
52.9643
53.0221
53.0799
53.1378
53.1956
53.2534
53.3112
53.369
53.4269
53.4847
53.5425
53.6003
53.6581
53.716
53.7738
53.8316
53.8894
53.9472
54.005
54.0628
54.1207
54.1785
54.2363
54.2941
54.3519
54.4097
54.4675
54.5253
54.5831
54.6409
54.6987
54.7566
54.8144
54.8722
54.93
54.9878
55.0456
55.1034
55.1612
55.219
55.2768
55.3346
55.3924
55.4502
55.508
55.5658
55.6236
55.6814
55.7392
55.797
55.8547
55.9125
55.9703
56.0281
56.0859
56.1437
56.2015
56.2593
56.3171
56.3749
56.4327
56.4904
56.5482
56.606
56.6638
56.7216
56.7794
56.8371
56.8949
56.9527
57.0105
57.0683
57.1261
57.1838
57.2416
57.2994
57.3572
57.4149
57.4727
57.5305
57.5883
57.6461
57.7038
57.7616
57.8194
57.8771
57.9349
57.9927
58.0505
58.1082
58.166
58.2238
58.2815
58.3393
58.3971
58.4548
58.5126
58.5704
58.6281
58.6859
58.7436
58.8014
58.8592
58.9169
58.9747
59.0324
59.0902
59.148
59.2057
59.2635
59.3212
59.379
59.4367
59.4945
59.5522
59.61
59.6678
59.7255
59.7833
59.841
59.8988
59.9565
60.0143
60.072
60.1297
60.1875
60.2452
60.303
60.3607
60.4185
60.4762
60.534
60.5917
60.6494
60.7072
60.7649
60.8227
60.8804
60.9381
60.9959
61.0536
61.1113
61.1691
61.2268
61.2845
61.3423
61.4
61.4577
61.5155
61.5732
61.6309
61.6887
61.7464
61.8041
61.8618
61.9196
61.9773
62.035
62.0927
62.1505
62.2082
62.2659
62.3236
62.3814
62.4391
62.4968
62.5545
62.6122
62.6699
62.7277
62.7854
62.8431
62.9008
62.9585
63.0162
63.074
63.1317
63.1894
63.2471
63.3048
63.3625
63.4202
63.4779
63.5356
63.5933
63.651
63.7088
63.7664
63.8242
63.8819
63.9396
63.9973
64.055
64.1127
64.1704
64.2281
64.2858
64.3435
64.4012
64.4588
64.5166
64.5742
64.6319
64.6896
64.7473
64.805
64.8627
64.9204
64.9781
65.0358
65.0935
65.1512
65.2088
65.2665
65.3242
65.3819
65.4396
65.4973
65.555
65.6126
65.6703
65.728
65.7857
65.8434
65.901
65.9587
66.0164
66.0741
66.1318
66.1894
66.2471
66.3048
66.3624
66.4201
66.4778
66.5355
66.5931
66.6508
66.7085
66.7661
66.8238
66.8815
66.9391
66.9968
67.0545
67.1121
67.1698
67.2275
67.2851
67.3428
67.4005
67.4581
67.5158
67.5734
67.6311
67.6888
67.7464
67.8041
67.8617
67.9194
67.977
68.0347
68.0923
68.15
68.2076
68.2653
68.3229
68.3806
68.4382
68.4959
68.5535
68.6112
68.6688
68.7265
68.7841
68.8418
68.8994
68.957
69.0147
69.0723
69.13
69.1876
69.2452
69.3029
69.3605
69.4182
69.4758
69.5334
69.5911
69.6487
69.7063
69.764
69.8216
69.8792
69.9368
69.9945
70.0521
70.1097
70.1674
70.225
70.2826
70.3402
70.3978
70.4555
70.5131
70.5707
70.6284
70.686
70.7436
70.8012
70.8588
70.9165
70.9741
71.0317
71.0893
71.1469
71.2045
71.2621
71.3197
71.3774
71.435
71.4926
71.5502
71.6078
71.6654
71.723
71.7806
71.8382
71.8958
71.9534
72.0111
72.0686
72.1262
72.1839
72.2414
72.2991
72.3566
72.4142
72.4719
72.5294
72.587
72.6446
72.7022
72.7598
72.8174
72.875
72.9326
72.9902
73.0478
73.1054
73.1629
73.2205
73.2781
73.3357
73.3933
73.4509
73.5085
73.5661
73.6236
73.6812
73.7388
73.7964
73.854
73.9115
73.9691
74.0267
74.0843
74.1418
74.1994
74.257
74.3146
74.3722
74.4297
74.4873
74.5449
74.6024
74.66
74.7176
74.7751
74.8327
74.8903
74.9478
75.0054
75.0629
75.1205
75.1781
75.2356
75.2932
75.3508
75.4083
75.4659
75.5234
75.581
75.6386
75.6961
75.7537
75.8112
75.8688
75.9263
75.9839
76.0414
76.099
76.1565
76.2141
76.2716
76.3292
76.3867
76.4443
76.5018
76.5593
76.6169
76.6744
76.732
76.7896
76.8471
76.9046
76.9622
77.0197
77.0772
77.1348
77.1923
77.2498
77.3074
77.3649
77.4224
77.48
77.5375
77.595
77.6526
77.7101
77.7676
77.8251
77.8827
77.9402
77.9977
78.0552
78.1128
78.1703
78.2278
78.2854
78.3428
78.4004
78.4579
78.5154
78.5729
78.6305
78.6879
78.7455
78.803
78.8605
78.918
78.9755
79.033
79.0905
79.1481
79.2055
79.2631
79.3206
79.3781
79.4356
79.4931
79.5506
79.6081
79.6656
79.7231
79.7806
79.8381
79.8956
79.9531
80.0106
80.0681
80.1256
80.1831
80.2406
80.2981
80.3556
80.413
80.4706
80.528
80.5855
80.643
80.7005
80.758
80.8155
80.873
80.9304
80.9879
81.0454
81.1029
81.1604
81.2179
81.2753
81.3328
81.3903
81.4478
81.5053
81.5627
81.6202
81.6777
81.7352
81.7926
81.8501
81.9076
81.965
82.0225
82.08
82.1374
82.1949
82.2524
82.3098
82.3673
82.4248
82.4822
82.5397
82.5972
82.6546
82.7121
82.7696
82.827
82.8845
82.9419
82.9994
83.0568
83.1143
83.1717
83.2292
83.2867
83.3441
83.4015
83.459
83.5164
83.5739
83.6313
83.6888
83.7462
83.8037
83.8611
83.9185
83.976
84.0334
84.0909
84.1483
84.2058
84.2632
84.3206
84.3781
84.4355
84.4929
84.5504
84.6078
84.6652
84.7227
84.7801
84.8375
84.895
84.9524
85.0098
85.0673
85.1247
85.1821
85.2395
85.2969
85.3543
85.4118
85.4692
85.5266
85.584
85.6415
85.6989
85.7563
85.8137
85.8711
85.9285
85.986
86.0433
86.1008
86.1582
86.2156
86.273
86.3304
86.3878
86.4452
86.5026
86.56
86.6174
86.6748
86.7322
86.7896
86.847
86.9044
86.9618
87.0192
87.0766
87.134
87.1914
87.2488
87.3062
87.3636
87.421
87.4784
87.5358
87.5932
87.6506
87.7079
87.7653
87.8227
87.8801
87.9375
87.9949
88.0523
88.1096
88.167
88.2244
88.2818
88.3392
88.3965
88.4539
88.5113
88.5687
88.626
88.6834
88.7408
88.7981
88.8555
88.9129
88.9703
89.0276
89.085
89.1424
89.1997
89.2571
89.3145
89.3718
89.4292
89.4866
89.5439
89.6013
89.6586
89.716
89.7733
89.8307
89.8881
89.9454
90.0028
90.0601
90.1175
90.1748
90.2322
90.2895
90.3469
90.4042
90.4616
90.5189
90.5763
90.6336
90.6909
90.7483
90.8056
90.863
90.9203
90.9777
91.035
91.0923
91.1497
91.207
91.2643
91.3217
91.379
91.4363
91.4937
91.551
91.6083
91.6656
91.723
91.7803
91.8376
91.895
91.9523
92.0096
92.0669
92.1243
92.1816
92.2389
92.2962
92.3535
92.4108
92.4682
92.5255
92.5828
92.6401
92.6974
92.7547
92.812
92.8694
92.9267
92.984
93.0413
93.0986
93.1559
93.2132
93.2705
93.3278
93.3851
93.4424
93.4997
93.557
93.6143
93.6716
93.7289
93.7862
93.8435
93.9008
93.9581
94.0154
94.0727
94.13
94.1872
94.2445
94.3018
94.3591
94.4164
94.4737
94.531
94.5882
94.6455
94.7028
94.7601
94.8174
94.8747
94.9319
94.9892
95.0465
95.1038
95.161
95.2183
95.2756
95.3329
95.3901
95.4474
95.5047
95.5619
95.6192
95.6765
95.7337
95.791
95.8483
95.9055
95.9628
96.0201
96.0773
96.1346
96.1918
96.2491
96.3063
96.3636
96.4209
96.4781
96.5354
96.5926
96.6499
96.7071
96.7644
96.8216
96.8789
96.9361
96.9934
97.0506
97.1078
97.1651
97.2223
97.2796
97.3368
97.3941
97.4513
97.5085
97.5658
97.623
97.6802
97.7375
97.7947
97.8519
97.9092
97.9664
98.0236
98.0809
98.1381
98.1953
98.2525
98.3098
98.367
98.4242
98.4814
98.5386
98.5959
98.6531
98.7103
98.7675
98.8247
98.882
98.9392
98.9964
99.0536
99.1108
99.168
99.2252
99.2824
99.3396
99.3969
99.4541
99.5113
99.5685
99.6257
99.6829
99.7401
99.7973
99.8545
99.9117
99.9689
100.026
100.083
100.14
100.198
100.255
100.312
100.369
100.426
100.484
100.541
100.598
100.655
100.712
100.77
100.827
100.884
100.941
100.998
101.055
101.113
101.17
101.227
101.284
101.341
101.399
101.456
101.513
101.57
101.627
101.684
101.742
101.799
101.856
101.913
101.97
102.027
102.085
102.142
102.199
102.256
102.313
102.37
102.427
102.485
102.542
102.599
102.656
102.713
102.77
102.828
102.885
102.942
102.999
103.056
103.113
103.17
103.228
103.285
103.342
103.399
103.456
103.513
103.57
103.628
103.685
103.742
103.799
103.856
103.913
103.97
104.028
104.085
104.142
104.199
104.256
104.313
104.37
104.427
104.485
104.542
104.599
104.656
104.713
104.77
104.827
104.884
104.941
104.999
105.056
105.113
105.17
105.227
105.284
105.341
105.398
105.455
105.513
105.57
105.627
105.684
105.741
105.798
105.855
105.912
105.969
106.026
106.084
106.141
106.198
106.255
106.312
106.369
106.426
106.483
106.54
106.597
106.654
106.712
106.769
106.826
106.883
106.94
106.997
107.054
107.111
107.168
107.225
107.282
107.339
107.397
107.454
107.511
107.568
107.625
107.682
107.739
107.796
107.853
107.91
107.967
108.024
108.081
108.138
108.195
108.253
108.31
108.367
108.424
108.481
108.538
108.595
108.652
108.709
108.766
108.823
108.88
108.937
108.994
109.051
109.108
109.165
109.222
109.279
109.336
109.393
109.451
109.508
109.565
109.622
109.679
109.736
109.793
109.85
109.907
109.964
110.021
110.078
110.135
110.192
110.249
110.306
110.363
110.42
110.477
110.534
110.591
110.648
110.705
110.762
110.819
110.876
110.933
110.99
111.047
111.104
111.161
111.218
111.275
111.332
111.389
111.446
111.503
111.56
111.617
111.674
111.731
111.788
111.845
111.902
111.959
112.016
112.073
112.13
112.187
112.244
112.301
112.358
112.415
112.472
112.529
112.586
112.643
112.7
112.757
112.814
112.871
112.928
112.985
113.042
113.099
113.156
113.213
113.27
113.327
113.384
113.441
113.498
113.555
113.612
113.668
113.725
113.782
113.839
113.896
113.953
114.01
114.067
114.124
114.181
114.238
114.295
114.352
114.409
114.466
114.523
114.58
114.637
114.694
114.751
114.808
114.864
114.921
114.978
115.035
115.092
115.149
115.206
115.263
115.32
115.377
115.434
115.491
115.548
115.605
115.662
115.718
115.775
115.832
115.889
115.946
116.003
116.06
116.117
116.174
116.231
116.288
116.345
116.401
116.458
116.515
116.572
116.629
116.686
116.743
116.8
116.857
116.914
116.971
117.027
117.084
117.141
117.198
117.255
117.312
117.369
117.426
117.483
117.54
117.596
117.653
117.71
117.767
117.824
117.881
117.938
117.995
118.051
118.108
118.165
118.222
118.279
118.336
118.393
118.45
118.507
118.563
118.62
118.677
118.734
118.791
118.848
118.905
118.961
119.018
119.075
119.132
119.189
119.246
119.303
119.359
119.416
119.473
119.53
119.587
119.644
119.701
119.757
119.814
119.871
119.928
119.985
120.042
120.099
120.155
120.212
120.269
120.326
120.383
120.44
120.496
120.553
120.61
120.667
120.724
120.781
120.837
120.894
120.951
121.008
121.065
121.122
121.178
121.235
121.292
121.349
121.406
121.462
121.519
121.576
121.633
121.69
121.747
121.803
121.86
121.917
121.974
122.031
122.087
122.144
122.201
122.258
122.315
122.371
122.428
122.485
122.542
122.599
122.655
122.712
122.769
122.826
122.883
122.939
122.996
123.053
123.11
123.166
123.223
123.28
123.337
123.394
123.45
123.507
123.564
123.621
123.677
123.734
123.791
123.848
123.905
123.961
124.018
124.075
124.132
124.188
124.245
124.302
124.359
124.415
124.472
124.529
124.586
124.642
124.699
124.756
124.813
124.87
124.926
124.983
125.04
125.097
125.153
125.21
125.267
125.323
125.38
125.437
125.494
125.55
125.607
125.664
125.721
125.777
125.834
125.891
125.948
126.004
126.061
126.118
126.174
126.231
126.288
126.345
126.401
126.458
126.515
126.572
126.628
126.685
126.742
126.798
126.855
126.912
126.969
127.025
127.082
127.139
127.195
127.252
127.309
127.365
127.422
127.479
127.536
127.592
127.649
127.706
127.762
127.819
127.876
127.932
127.989
128.046
128.102
128.159
128.216
128.273
128.329
128.386
128.443
128.499
128.556
128.613
128.669
128.726
128.783
128.839
128.896
128.953
129.009
129.066
129.123
129.179
129.236
129.293
129.349
129.406
129.463
129.519
129.576
129.633
129.689
129.746
129.803
129.859
129.916
129.973
130.029
130.086
130.142
130.199
130.256
130.312
130.369
130.426
130.482
130.539
130.596
130.652
130.709
130.766
130.822
130.879
130.935
130.992
131.049
131.105
131.162
131.219
131.275
131.332
131.388
131.445
131.502
131.558
131.615
131.672
131.728
131.785
131.841
131.898
131.955
132.011
132.068
132.124
132.181
132.238
132.294
132.351
132.407
132.464
132.521
132.577
132.634
132.69
132.747
132.804
132.86
132.917
132.973
133.03
133.087
133.143
133.2
133.256
133.313
133.369
133.426
133.483
133.539
133.596
133.652
133.709
133.765
133.822
133.879
133.935
133.992
134.048
134.105
134.161
134.218
134.275
134.331
134.388
134.444
134.501
134.557
134.614
134.67
134.727
134.784
134.84
134.897
134.953
135.01
135.066
135.123
135.179
135.236
135.292
135.349
135.406
135.462
135.519
135.575
135.632
135.688
135.745
135.801
135.858
135.914
135.971
136.027
136.084
136.14
136.197
136.253
136.31
136.366
136.423
136.479
136.536
136.593
136.649
136.706
136.762
136.819
136.875
136.932
136.988
137.045
137.101
137.158
137.214
137.271
137.327
137.384
137.44
137.497
137.553
137.61
137.666
137.723
137.779
137.835
137.892
137.948
138.005
138.061
138.118
138.174
138.231
138.287
138.344
138.4
138.457
138.513
138.57
138.626
138.683
138.739
138.796
138.852
138.908
138.965
139.021
139.078
139.134
139.191
139.247
139.304
139.36
139.417
139.473
139.529
139.586
139.642
139.699
139.755
139.812
139.868
139.925
139.981
140.037
140.094
140.15
140.207
140.263
140.32
140.376
140.433
140.489
140.545
140.602
140.658
140.715
140.771
140.827
140.884
140.94
140.997
141.053
141.11
141.166
141.222
141.279
141.335
141.392
141.448
141.504
141.561
141.617
141.674
141.73
141.786
141.843
141.899
141.956
142.012
142.068
142.125
142.181
142.238
142.294
142.35
142.407
142.463
142.52
142.576
142.632
142.689
142.745
142.801
142.858
142.914
142.971
143.027
143.083
143.14
143.196
143.252
143.309
143.365
143.422
143.478
143.534
143.591
143.647
143.703
143.76
143.816
143.872
143.929
143.985
144.041
144.098
144.154
144.21
144.267
144.323
144.38
144.436
144.492
144.549
144.605
144.661
144.718
144.774
144.83
144.887
144.943
144.999
145.056
145.112
145.168
145.224
145.281
145.337
145.393
145.45
145.506
145.562
145.619
145.675
145.731
145.788
145.844
145.9
145.957
146.013
146.069
146.125
146.182
146.238
146.294
146.351
146.407
146.463
146.52
146.576
146.632
146.688
146.745
146.801
146.857
146.914
146.97
147.026
147.082
147.139
147.195
147.251
147.308
147.364
147.42
147.476
147.533
147.589
147.645
147.701
147.758
147.814
147.87
147.927
147.983
148.039
148.095
148.152
148.208
148.264
148.32
148.377
148.433
148.489
148.545
148.602
148.658
148.714
148.77
148.827
148.883
148.939
148.995
149.051
149.108
149.164
149.22
149.276
149.333
149.389
149.445
149.501
149.558
149.614
149.67
149.726
149.782
149.839
149.895
149.951
150.007
150.064
150.12
150.176
150.232
150.288
150.345
150.401
150.457
150.513
150.569
150.626
150.682
150.738
150.794
150.85
150.907
150.963
151.019
151.075
151.131
151.187
151.244
151.3
151.356
151.412
151.468
151.525
151.581
151.637
151.693
151.749
151.805
151.862
151.918
151.974
152.03
152.086
152.142
152.199
152.255
152.311
152.367
152.423
152.479
152.536
152.592
152.648
152.704
152.76
152.816
152.872
152.929
152.985
153.041
153.097
153.153
153.209
153.265
153.322
153.378
153.434
153.49
153.546
153.602
153.658
153.714
153.771
153.827
153.883
153.939
153.995
154.051
154.107
154.163
154.22
154.276
154.332
154.388
154.444
154.5
154.556
154.612
154.668
154.725
154.781
154.837
154.893
154.949
155.005
155.061
155.117
155.173
155.229
155.285
155.342
155.398
155.454
155.51
155.566
155.622
155.678
155.734
155.79
155.846
155.902
155.958
156.014
156.071
156.127
156.183
156.239
156.295
156.351
156.407
156.463
156.519
156.575
156.631
156.687
156.743
156.799
156.855
156.911
156.967
157.023
157.08
157.136
157.192
157.248
157.304
157.36
157.416
157.472
157.528
157.584
157.64
157.696
157.752
157.808
157.864
157.92
157.976
158.032
158.088
158.144
158.2
158.256
158.312
158.368
158.424
158.48
158.536
158.592
158.648
158.704
158.76
158.816
158.872
158.928
158.984
159.04
159.096
159.152
159.208
159.264
159.32
159.376
159.432
159.488
159.544
159.6
159.656
159.712
159.768
159.824
159.88
159.936
159.992
160.048
160.104
160.16
160.216
160.272
160.328
160.384
160.44
160.496
160.552
160.608
160.663
160.719
160.775
160.831
160.887
160.943
160.999
161.055
161.111
161.167
161.223
161.279
161.335
161.391
161.447
161.503
161.559
161.614
161.67
161.726
161.782
161.838
161.894
161.95
162.006
162.062
162.118
162.174
162.23
162.286
162.341
162.397
162.453
162.509
162.565
162.621
162.677
162.733
162.789
162.845
162.901
162.956
163.012
163.068
163.124
163.18
163.236
163.292
163.348
163.404
163.459
163.515
163.571
163.627
163.683
163.739
163.795
163.851
163.906
163.962
164.018
164.074
164.13
164.186
164.242
164.297
164.353
164.409
164.465
164.521
164.577
164.633
164.688
164.744
164.8
164.856
164.912
164.968
165.024
165.079
165.135
165.191
165.247
165.303
165.359
165.414
165.47
165.526
165.582
165.638
165.694
165.749
165.805
165.861
165.917
165.973
166.028
166.084
166.14
166.196
166.252
166.308
166.363
166.419
166.475
166.531
166.587
166.642
166.698
166.754
166.81
166.866
166.921
166.977
167.033
167.089
167.144
167.2
167.256
167.312
167.368
167.423
167.479
167.535
167.591
167.646
167.702
167.758
167.814
167.87
167.925
167.981
168.037
168.093
168.148
168.204
168.26
168.316
168.371
168.427
168.483
168.539
168.594
168.65
168.706
168.762
168.817
168.873
168.929
168.985
169.04
169.096
169.152
169.208
169.263
169.319
169.375
169.43
169.486
169.542
169.598
169.653
169.709
169.765
169.82
169.876
169.932
169.988
170.043
170.099
170.155
170.21
170.266
170.322
170.378
170.433
170.489
170.545
170.6
170.656
170.712
170.767
170.823
170.879
170.934
170.99
171.046
171.102
171.157
171.213
171.269
171.324
171.38
171.436
171.491
171.547
171.603
171.658
171.714
171.77
171.825
171.881
171.937
171.992
172.048
172.103
172.159
172.215
172.27
172.326
172.382
172.437
172.493
172.549
172.604
172.66
172.716
172.771
172.827
172.882
172.938
172.994
173.049
173.105
173.161
173.216
173.272
173.327
173.383
173.439
173.494
173.55
173.606
173.661
173.717
173.772
173.828
173.884
173.939
173.995
174.05
174.106
174.162
174.217
174.273
174.328
174.384
174.439
174.495
174.551
174.606
174.662
174.717
174.773
174.829
174.884
174.94
174.995
175.051
175.106
175.162
175.218
175.273
175.329
175.384
175.44
175.495
175.551
175.606
175.662
175.718
175.773
175.829
175.884
175.94
175.995
176.051
176.106
176.162
176.217
176.273
176.328
176.384
176.44
176.495
176.551
176.606
176.662
176.717
176.773
176.828
176.884
176.939
176.995
177.05
177.106
177.161
177.217
177.272
177.328
177.383
177.439
177.494
177.55
177.605
177.661
177.716
177.772
177.827
177.883
177.938
177.994
178.049
178.105
178.16
178.216
178.271
178.327
178.382
178.438
178.493
178.548
178.604
178.659
178.715
178.77
178.826
178.881
178.937
178.992
179.048
179.103
179.159
179.214
179.269
179.325
179.38
179.436
179.491
179.547
179.602
179.657
179.713
179.768
179.824
179.879
179.935
179.99
180.045
180.101
180.156
180.212
180.267
180.323
180.378
180.433
180.489
180.544
180.6
180.655
180.71
180.766
180.821
180.877
180.932
180.987
181.043
181.098
181.154
181.209
181.264
181.32
181.375
181.431
181.486
181.541
181.597
181.652
181.707
181.763
181.818
181.874
181.929
181.984
182.04
182.095
182.15
182.206
182.261
182.316
182.372
182.427
182.482
182.538
182.593
182.649
182.704
182.759
182.815
182.87
182.925
182.981
183.036
183.091
183.147
183.202
183.257
183.313
183.368
183.423
183.479
183.534
183.589
183.644
183.7
183.755
183.81
183.866
183.921
183.976
184.032
184.087
184.142
184.198
184.253
184.308
184.363
184.419
184.474
184.529
184.585
184.64
184.695
184.75
184.806
184.861
184.916
184.971
185.027
185.082
185.137
185.193
185.248
185.303
185.358
185.414
185.469
185.524
185.579
185.635
185.69
185.745
185.8
185.856
185.911
185.966
186.021
186.077
186.132
186.187
186.242
186.298
186.353
186.408
186.463
186.518
186.574
186.629
186.684
186.739
186.795
186.85
186.905
186.96
187.015
187.071
187.126
187.181
187.236
187.291
187.347
187.402
187.457
187.512
187.567
187.623
187.678
187.733
187.788
187.843
187.898
187.954
188.009
188.064
188.119
188.174
188.229
188.285
188.34
188.395
188.45
188.505
188.56
188.616
188.671
188.726
188.781
188.836
188.891
188.947
189.002
189.057
189.112
189.167
189.222
189.277
189.332
189.388
189.443
189.498
189.553
189.608
189.663
189.718
189.773
189.829
189.884
189.939
189.994
190.049
190.104
190.159
190.214
190.269
190.325
190.38
190.435
190.49
190.545
190.6
190.655
190.71
190.765
190.82
190.875
190.93
190.986
191.041
191.096
191.151
191.206
191.261
191.316
191.371
191.426
191.481
191.536
191.591
191.646
191.701
191.756
191.811
191.867
191.922
191.977
192.032
192.087
192.142
192.197
192.252
192.307
192.362
192.417
192.472
192.527
192.582
192.637
192.692
192.747
192.802
192.857
192.912
192.967
193.022
193.077
193.132
193.187
193.242
193.297
193.352
193.407
193.462
193.517
193.572
193.627
193.682
193.737
193.792
193.847
193.902
193.957
194.012
194.067
194.122
194.177
194.232
194.287
194.342
194.397
194.452
194.507
194.561
194.616
194.671
194.726
194.781
194.836
194.891
194.946
195.001
195.056
195.111
195.166
195.221
195.276
195.331
195.386
195.44
195.495
195.55
195.605
195.66
195.715
195.77
195.825
195.88
195.935
195.99
196.044
196.099
196.154
196.209
196.264
196.319
196.374
196.429
196.484
196.538
196.593
196.648
196.703
196.758
196.813
196.868
196.922
196.977
197.032
197.087
197.142
197.197
197.252
197.306
197.361
197.416
197.471
197.526
197.581
197.636
197.69
197.745
197.8
197.855
197.91
197.965
198.019
198.074
198.129
198.184
198.239
198.293
198.348
198.403
198.458
198.513
198.567
198.622
198.677
198.732
198.787
198.841
198.896
198.951
199.006
199.061
199.115
199.17
199.225
199.28
199.334
199.389
199.444
199.499
199.554
199.608
199.663
199.718
199.773
199.827
199.882
199.937
199.992
200.046
200.101
200.156
200.211
200.265
200.32
200.375
200.429
200.484
200.539
200.594
200.648
200.703
200.758
200.812
200.867
200.922
200.977
201.031
201.086
201.141
201.195
201.25
201.305
201.359
201.414
201.469
201.524
201.578
201.633
201.688
201.742
201.797
201.852
201.906
201.961
202.016
202.07
202.125
202.18
202.234
202.289
202.344
202.398
202.453
202.507
202.562
202.617
202.671
202.726
202.781
202.835
202.89
202.945
202.999
203.054
203.108
203.163
203.218
203.272
203.327
203.381
203.436
203.491
203.545
203.6
203.654
203.709
203.764
203.818
203.873
203.927
203.982
204.036
204.091
204.146
204.2
204.255
204.309
204.364
204.418
204.473
204.528
204.582
204.637
204.691
204.746
204.8
204.855
204.909
204.964
205.018
205.073
205.127
205.182
205.237
205.291
205.346
205.4
205.455
205.509
205.564
205.618
205.673
205.727
205.782
205.836
205.891
205.945
206
206.054
206.109
206.163
206.217
206.272
206.326
206.381
206.435
206.49
206.544
206.599
206.653
206.708
206.762
206.817
206.871
206.925
206.98
207.034
207.089
207.143
207.198
207.252
207.306
207.361
207.415
207.47
207.524
207.578
207.633
207.687
207.742
207.796
207.85
207.905
207.959
208.014
208.068
208.122
208.177
208.231
208.286
208.34
208.394
208.449
208.503
208.557
208.612
208.666
208.72
208.775
208.829
208.883
208.938
208.992
209.046
209.101
209.155
209.209
209.264
209.318
209.372
209.427
209.481
209.535
209.59
209.644
209.698
209.752
209.807
209.861
209.915
209.97
210.024
210.078
210.132
210.187
210.241
210.295
210.349
210.404
210.458
210.512
210.566
210.621
210.675
210.729
210.783
210.838
210.892
210.946
211
211.055
211.109
211.163
211.217
211.271
211.326
211.38
211.434
211.488
211.542
211.597
211.651
211.705
211.759
211.813
211.867
211.922
211.976
212.03
212.084
212.138
212.192
212.247
212.301
212.355
212.409
212.463
212.517
212.571
212.626
212.68
212.734
212.788
212.842
212.896
212.95
213.004
213.058
213.112
213.167
213.221
213.275
213.329
213.383
213.437
213.491
213.545
213.599
213.653
213.707
213.761
213.815
213.869
213.923
213.977
214.031
214.086
214.14
214.194
214.248
214.302
214.356
214.41
214.464
214.518
214.572
214.626
214.68
214.734
214.787
214.841
214.895
214.949
215.003
215.057
215.111
215.165
215.219
215.273
215.327
215.381
215.435
215.489
215.543
215.597
215.651
215.704
215.758
215.812
215.866
215.92
215.974
216.028
216.082
216.136
216.189
216.243
216.297
216.351
216.405
216.459
216.513
216.566
216.62
216.674
216.728
216.782
216.836
216.889
216.943
216.997
217.051
217.105
217.158
217.212
217.266
217.32
217.373