/*--------------------------------*- C++ -*----------------------------------*\
  =========                 |
  \\      /  F ield         | OpenFOAM: The Open Source CFD Toolbox
   \\    /   O peration     | Website:  https://openfoam.org
    \\  /    A nd           | Version:  9
     \\/     M anipulation  |
\*---------------------------------------------------------------------------*/
FoamFile
{
    format      ascii;
    class       surfaceScalarField;
    location    "0.029";
    object      phi_0;
}
// * * * * * * * * * * * * * * * * * * * * * * * * * * * * * * * * * * * * * //

dimensions      [1 0 -1 0 0 0 0];

internalField   nonuniform List<scalar> 
9999
(
6.668
6.72613
6.78425
6.84237
6.90048
6.9586
7.01671
7.07482
7.13292
7.19103
7.24913
7.30722
7.36532
7.42342
7.48151
7.53959
7.59768
7.65576
7.71384
7.77192
7.83
7.88807
7.94614
8.0042
8.06227
8.12034
8.17841
8.23647
8.29453
8.35258
8.41062
8.46866
8.5267
8.58476
8.64281
8.70087
8.75891
8.81695
8.87497
8.93299
8.991
9.04902
9.10704
9.16507
9.22311
9.28116
9.3392
9.39723
9.45526
9.51327
9.57126
9.62924
9.68721
9.74518
9.80314
9.86111
9.9191
9.97709
10.0351
10.0931
10.1512
10.2093
10.2674
10.3255
10.3836
10.4417
10.4999
10.558
10.6162
10.6743
10.7325
10.7906
10.8488
10.9069
10.9651
11.0233
11.0814
11.1396
11.1978
11.2559
11.3141
11.3723
11.4304
11.4886
11.5468
11.6049
11.6631
11.7213
11.7794
11.8376
11.8958
11.9539
12.0121
12.0702
12.1284
12.1866
12.2447
12.3029
12.361
12.4192
12.4774
12.5355
12.5937
12.6518
12.71
12.7682
12.8263
12.8845
12.9426
13.0008
13.0589
13.1171
13.1753
13.2334
13.2916
13.3497
13.4079
13.466
13.5242
13.5823
13.6405
13.6986
13.7568
13.8149
13.8731
13.9312
13.9894
14.0475
14.1057
14.1638
14.222
14.2801
14.3383
14.3964
14.4546
14.5127
14.5709
14.629
14.6872
14.7453
14.8035
14.8616
14.9198
14.9779
15.036
15.0942
15.1523
15.2105
15.2686
15.3268
15.3849
15.443
15.5012
15.5593
15.6175
15.6756
15.7338
15.7919
15.85
15.9082
15.9663
16.0244
16.0826
16.1407
16.1989
16.257
16.3151
16.3733
16.4314
16.4895
16.5477
16.6058
16.6639
16.7221
16.7802
16.8383
16.8965
16.9546
17.0127
17.0709
17.129
17.1871
17.2453
17.3034
17.3615
17.4197
17.4778
17.5359
17.594
17.6522
17.7103
17.7684
17.8265
17.8847
17.9428
18.0009
18.059
18.1172
18.1753
18.2334
18.2915
18.3497
18.4078
18.4659
18.524
18.5822
18.6403
18.6984
18.7565
18.8146
18.8728
18.9309
18.989
19.0471
19.1052
19.1634
19.2215
19.2796
19.3377
19.3958
19.4539
19.5121
19.5702
19.6283
19.6864
19.7445
19.8026
19.8607
19.9189
19.977
20.0351
20.0932
20.1513
20.2094
20.2675
20.3256
20.3837
20.4419
20.5
20.5581
20.6162
20.6743
20.7324
20.7905
20.8486
20.9067
20.9648
21.0229
21.081
21.1391
21.1972
21.2553
21.3134
21.3716
21.4297
21.4878
21.5459
21.604
21.6621
21.7202
21.7783
21.8364
21.8945
21.9526
22.0107
22.0688
22.1269
22.185
22.2431
22.3011
22.3592
22.4173
22.4754
22.5335
22.5916
22.6497
22.7078
22.7659
22.824
22.8821
22.9402
22.9983
23.0564
23.1145
23.1725
23.2306
23.2887
23.3468
23.4049
23.463
23.5211
23.5792
23.6373
23.6953
23.7534
23.8115
23.8696
23.9277
23.9858
24.0439
24.1019
24.16
24.2181
24.2762
24.3343
24.3924
24.4504
24.5085
24.5666
24.6247
24.6828
24.7408
24.7989
24.857
24.9151
24.9732
25.0312
25.0893
25.1474
25.2055
25.2635
25.3216
25.3797
25.4378
25.4958
25.5539
25.612
25.6701
25.7281
25.7862
25.8443
25.9023
25.9604
26.0185
26.0765
26.1346
26.1927
26.2508
26.3088
26.3669
26.425
26.483
26.5411
26.5992
26.6572
26.7153
26.7734
26.8314
26.8895
26.9475
27.0056
27.0637
27.1217
27.1798
27.2379
27.2959
27.354
27.412
27.4701
27.5282
27.5862
27.6443
27.7023
27.7604
27.8184
27.8765
27.9346
27.9926
28.0507
28.1087
28.1668
28.2248
28.2829
28.3409
28.399
28.457
28.5151
28.5731
28.6312
28.6892
28.7473
28.8053
28.8634
28.9214
28.9795
29.0375
29.0956
29.1536
29.2117
29.2697
29.3278
29.3858
29.4438
29.5019
29.5599
29.618
29.676
29.7341
29.7921
29.8501
29.9082
29.9662
30.0243
30.0823
30.1403
30.1984
30.2564
30.3145
30.3725
30.4305
30.4886
30.5466
30.6046
30.6627
30.7207
30.7787
30.8368
30.8948
30.9528
31.0109
31.0689
31.1269
31.185
31.243
31.301
31.359
31.4171
31.4751
31.5331
31.5912
31.6492
31.7072
31.7652
31.8233
31.8813
31.9393
31.9973
32.0554
32.1134
32.1714
32.2294
32.2875
32.3455
32.4035
32.4615
32.5195
32.5776
32.6356
32.6936
32.7516
32.8096
32.8676
32.9257
32.9837
33.0417
33.0997
33.1577
33.2157
33.2737
33.3318
33.3898
33.4478
33.5058
33.5638
33.6218
33.6798
33.7378
33.7959
33.8539
33.9119
33.9699
34.0279
34.0859
34.1439
34.2019
34.2599
34.3179
34.3759
34.4339
34.4919
34.5499
34.6079
34.6659
34.7239
34.7819
34.8399
34.8979
34.9559
35.0139
35.0719
35.1299
35.1879
35.2459
35.3039
35.3619
35.4199
35.4779
35.5359
35.5939
35.6519
35.7099
35.7679
35.8259
35.8839
35.9419
35.9998
36.0578
36.1158
36.1738
36.2318
36.2898
36.3478
36.4058
36.4638
36.5217
36.5797
36.6377
36.6957
36.7537
36.8117
36.8697
36.9276
36.9856
37.0436
37.1016
37.1596
37.2175
37.2755
37.3335
37.3915
37.4495
37.5074
37.5654
37.6234
37.6814
37.7393
37.7973
37.8553
37.9133
37.9712
38.0292
38.0872
38.1452
38.2031
38.2611
38.3191
38.377
38.435
38.493
38.551
38.6089
38.6669
38.7249
38.7828
38.8408
38.8988
38.9567
39.0147
39.0727
39.1306
39.1886
39.2465
39.3045
39.3625
39.4204
39.4784
39.5363
39.5943
39.6523
39.7102
39.7682
39.8261
39.8841
39.9421
40
40.058
40.1159
40.1739
40.2318
40.2898
40.3477
40.4057
40.4636
40.5216
40.5795
40.6375
40.6954
40.7534
40.8113
40.8693
40.9272
40.9852
41.0431
41.1011
41.159
41.217
41.2749
41.3329
41.3908
41.4487
41.5067
41.5646
41.6226
41.6805
41.7384
41.7964
41.8543
41.9123
41.9702
42.0281
42.0861
42.144
42.2019
42.2599
42.3178
42.3758
42.4337
42.4916
42.5496
42.6075
42.6654
42.7233
42.7813
42.8392
42.8971
42.9551
43.013
43.0709
43.1288
43.1868
43.2447
43.3026
43.3606
43.4185
43.4764
43.5343
43.5922
43.6502
43.7081
43.766
43.8239
43.8819
43.9398
43.9977
44.0556
44.1135
44.1714
44.2294
44.2873
44.3452
44.4031
44.461
44.5189
44.5769
44.6348
44.6927
44.7506
44.8085
44.8664
44.9243
44.9822
45.0401
45.0981
45.156
45.2139
45.2718
45.3297
45.3876
45.4455
45.5034
45.5613
45.6192
45.6771
45.735
45.7929
45.8508
45.9087
45.9666
46.0245
46.0824
46.1403
46.1982
46.2561
46.314
46.3719
46.4298
46.4877
46.5456
46.6035
46.6614
46.7193
46.7772
46.8351
46.893
46.9508
47.0087
47.0666
47.1245
47.1824
47.2403
47.2982
47.3561
47.4139
47.4718
47.5297
47.5876
47.6455
47.7034
47.7613
47.8191
47.877
47.9349
47.9928
48.0507
48.1085
48.1664
48.2243
48.2822
48.3401
48.3979
48.4558
48.5137
48.5716
48.6294
48.6873
48.7452
48.803
48.8609
48.9188
48.9767
49.0345
49.0924
49.1503
49.2081
49.266
49.3239
49.3817
49.4396
49.4975
49.5553
49.6132
49.6711
49.7289
49.7868
49.8447
49.9025
49.9604
50.0182
50.0761
50.134
50.1918
50.2497
50.3075
50.3654
50.4232
50.4811
50.539
50.5968
50.6547
50.7125
50.7704
50.8282
50.8861
50.9439
51.0018
51.0596
51.1175
51.1753
51.2332
51.291
51.3489
51.4067
51.4646
51.5224
51.5802
51.6381
51.6959
51.7538
51.8116
51.8695
51.9273
51.9851
52.043
52.1008
52.1587
52.2165
52.2743
52.3322
52.39
52.4478
52.5057
52.5635
52.6213
52.6792
52.737
52.7948
52.8527
52.9105
52.9683
53.0262
53.084
53.1418
53.1996
53.2575
53.3153
53.3731
53.4309
53.4888
53.5466
53.6044
53.6622
53.7201
53.7779
53.8357
53.8935
53.9513
54.0092
54.067
54.1248
54.1826
54.2404
54.2982
54.3561
54.4139
54.4717
54.5295
54.5873
54.6451
54.7029
54.7608
54.8186
54.8764
54.9342
54.992
55.0498
55.1076
55.1654
55.2232
55.281
55.3388
55.3966
55.4544
55.5122
55.57
55.6278
55.6856
55.7434
55.8012
55.859
55.9168
55.9746
56.0324
56.0902
56.148
56.2058
56.2636
56.3214
56.3792
56.437
56.4948
56.5526
56.6104
56.6682
56.726
56.7837
56.8415
56.8993
56.9571
57.0149
57.0727
57.1305
57.1883
57.246
57.3038
57.3616
57.4194
57.4772
57.5349
57.5927
57.6505
57.7083
57.7661
57.8238
57.8816
57.9394
57.9972
58.0549
58.1127
58.1705
58.2283
58.286
58.3438
58.4016
58.4594
58.5171
58.5749
58.6327
58.6904
58.7482
58.806
58.8637
58.9215
58.9793
59.037
59.0948
59.1526
59.2103
59.2681
59.3258
59.3836
59.4414
59.4991
59.5569
59.6146
59.6724
59.7301
59.7879
59.8457
59.9034
59.9612
60.0189
60.0767
60.1344
60.1922
60.2499
60.3077
60.3654
60.4232
60.4809
60.5387
60.5964
60.6542
60.7119
60.7696
60.8274
60.8851
60.9429
61.0006
61.0584
61.1161
61.1738
61.2316
61.2893
61.3471
61.4048
61.4625
61.5203
61.578
61.6357
61.6935
61.7512
61.8089
61.8667
61.9244
61.9821
62.0399
62.0976
62.1553
62.213
62.2708
62.3285
62.3862
62.444
62.5017
62.5594
62.6171
62.6748
62.7326
62.7903
62.848
62.9057
62.9635
63.0212
63.0789
63.1366
63.1943
63.252
63.3097
63.3675
63.4252
63.4829
63.5406
63.5983
63.656
63.7137
63.7714
63.8292
63.8869
63.9446
64.0023
64.06
64.1177
64.1754
64.2331
64.2908
64.3485
64.4062
64.4639
64.5216
64.5793
64.637
64.6947
64.7524
64.8101
64.8678
64.9255
64.9832
65.0409
65.0986
65.1563
65.214
65.2716
65.3293
65.387
65.4447
65.5024
65.5601
65.6178
65.6755
65.7332
65.7908
65.8485
65.9062
65.9639
66.0216
66.0793
66.137
66.1946
66.2523
66.31
66.3677
66.4254
66.483
66.5407
66.5984
66.656
66.7137
66.7714
66.8291
66.8867
66.9444
67.0021
67.0597
67.1174
67.1751
67.2328
67.2904
67.3481
67.4058
67.4634
67.5211
67.5788
67.6364
67.6941
67.7517
67.8094
67.8671
67.9247
67.9824
68.04
68.0977
68.1554
68.213
68.2707
68.3283
68.386
68.4436
68.5013
68.559
68.6166
68.6742
68.7319
68.7895
68.8472
68.9048
68.9625
69.0201
69.0778
69.1354
69.1931
69.2507
69.3084
69.366
69.4236
69.4813
69.5389
69.5966
69.6542
69.7118
69.7695
69.8271
69.8848
69.9424
70
70.0577
70.1153
70.1729
70.2305
70.2882
70.3458
70.4034
70.4611
70.5187
70.5763
70.634
70.6916
70.7492
70.8068
70.8644
70.9221
70.9797
71.0373
71.0949
71.1525
71.2102
71.2678
71.3254
71.383
71.4406
71.4982
71.5559
71.6135
71.6711
71.7287
71.7863
71.8439
71.9015
71.9591
72.0168
72.0743
72.132
72.1896
72.2472
72.3048
72.3624
72.42
72.4776
72.5352
72.5928
72.6504
72.708
72.7656
72.8232
72.8808
72.9384
72.996
73.0536
73.1112
73.1688
73.2264
73.284
73.3415
73.3991
73.4567
73.5143
73.5719
73.6295
73.6871
73.7447
73.8022
73.8598
73.9174
73.975
74.0326
74.0902
74.1477
74.2053
74.2629
74.3205
74.3781
74.4356
74.4932
74.5508
74.6084
74.666
74.7235
74.7811
74.8387
74.8962
74.9538
75.0114
75.0689
75.1265
75.1841
75.2416
75.2992
75.3568
75.4143
75.4719
75.5295
75.587
75.6446
75.7021
75.7597
75.8173
75.8748
75.9324
75.99
76.0475
76.1051
76.1626
76.2201
76.2777
76.3353
76.3928
76.4504
76.5079
76.5655
76.623
76.6806
76.7381
76.7957
76.8532
76.9107
76.9683
77.0258
77.0834
77.1409
77.1984
77.256
77.3136
77.3711
77.4286
77.4862
77.5437
77.6012
77.6588
77.7163
77.7738
77.8314
77.8889
77.9464
78.0039
78.0615
78.119
78.1765
78.2341
78.2916
78.3491
78.4066
78.4642
78.5217
78.5792
78.6368
78.6942
78.7518
78.8093
78.8668
78.9243
78.9819
79.0393
79.0969
79.1544
79.2119
79.2694
79.3269
79.3844
79.442
79.4995
79.5569
79.6145
79.672
79.7295
79.787
79.8445
79.902
79.9595
80.017
80.0745
80.132
80.1895
80.247
80.3045
80.362
80.4195
80.477
80.5345
80.592
80.6495
80.707
80.7645
80.822
80.8795
80.9369
80.9944
81.0519
81.1094
81.1669
81.2244
81.2818
81.3394
81.3968
81.4543
81.5118
81.5693
81.6267
81.6843
81.7417
81.7992
81.8567
81.9142
81.9716
82.0291
82.0866
82.144
82.2015
82.259
82.3164
82.3739
82.4314
82.4888
82.5463
82.6038
82.6612
82.7187
82.7762
82.8336
82.8911
82.9486
83.006
83.0635
83.121
83.1784
83.2359
83.2934
83.3508
83.4082
83.4657
83.5231
83.5806
83.6381
83.6955
83.753
83.8104
83.8679
83.9253
83.9828
84.0402
84.0976
84.1551
84.2125
84.27
84.3274
84.3849
84.4423
84.4998
84.5572
84.6146
84.6721
84.7295
84.7869
84.8444
84.9018
84.9592
85.0167
85.0741
85.1315
85.1889
85.2464
85.3038
85.3612
85.4187
85.4761
85.5335
85.5909
85.6484
85.7058
85.7632
85.8206
85.878
85.9355
85.9929
86.0503
86.1077
86.1651
86.2225
86.28
86.3374
86.3948
86.4522
86.5096
86.567
86.6244
86.6818
86.7392
86.7966
86.8541
86.9115
86.9688
87.0263
87.0837
87.1411
87.1985
87.2559
87.3133
87.3707
87.4281
87.4855
87.5428
87.6003
87.6576
87.715
87.7724
87.8298
87.8872
87.9446
88.002
88.0594
88.1168
88.1742
88.2315
88.2889
88.3463
88.4037
88.4611
88.5185
88.5758
88.6332
88.6906
88.748
88.8053
88.8627
88.9201
88.9775
89.0348
89.0922
89.1496
89.2069
89.2643
89.3217
89.3791
89.4364
89.4938
89.5512
89.6085
89.6659
89.7233
89.7806
89.838
89.8953
89.9527
90.0101
90.0674
90.1248
90.1821
90.2395
90.2968
90.3542
90.4116
90.4689
90.5262
90.5836
90.641
90.6983
90.7556
90.813
90.8703
90.9277
90.985
91.0424
91.0997
91.1571
91.2144
91.2717
91.3291
91.3864
91.4437
91.5011
91.5584
91.6158
91.6731
91.7304
91.7878
91.8451
91.9024
91.9598
92.0171
92.0744
92.1317
92.1891
92.2464
92.3037
92.361
92.4183
92.4757
92.533
92.5903
92.6476
92.705
92.7623
92.8196
92.8769
92.9342
92.9915
93.0488
93.1062
93.1635
93.2208
93.2781
93.3354
93.3927
93.45
93.5073
93.5646
93.6219
93.6792
93.7365
93.7938
93.8511
93.9084
93.9657
94.023
94.0803
94.1376
94.1949
94.2522
94.3095
94.3668
94.4241
94.4814
94.5386
94.5959
94.6532
94.7105
94.7678
94.8251
94.8824
94.9396
94.9969
95.0542
95.1115
95.1688
95.2261
95.2833
95.3406
95.3979
95.4552
95.5124
95.5697
95.627
95.6843
95.7415
95.7988
95.8561
95.9133
95.9706
96.0279
96.0851
96.1424
96.1997
96.2569
96.3142
96.3714
96.4287
96.486
96.5432
96.6005
96.6577
96.715
96.7722
96.8295
96.8868
96.944
97.0013
97.0585
97.1157
97.173
97.2303
97.2875
97.3447
97.402
97.4592
97.5165
97.5737
97.631
97.6882
97.7454
97.8027
97.8599
97.9171
97.9744
98.0316
98.0888
98.1461
98.2033
98.2605
98.3178
98.375
98.4322
98.4895
98.5467
98.6039
98.6611
98.7183
98.7756
98.8328
98.89
98.9472
99.0045
99.0617
99.1189
99.1761
99.2333
99.2905
99.3477
99.405
99.4622
99.5194
99.5766
99.6338
99.691
99.7482
99.8054
99.8626
99.9198
99.977
100.034
100.091
100.149
100.206
100.263
100.32
100.377
100.435
100.492
100.549
100.606
100.663
100.721
100.778
100.835
100.892
100.949
101.007
101.064
101.121
101.178
101.235
101.292
101.35
101.407
101.464
101.521
101.578
101.636
101.693
101.75
101.807
101.864
101.921
101.979
102.036
102.093
102.15
102.207
102.264
102.322
102.379
102.436
102.493
102.55
102.607
102.665
102.722
102.779
102.836
102.893
102.95
103.007
103.065
103.122
103.179
103.236
103.293
103.35
103.407
103.465
103.522
103.579
103.636
103.693
103.75
103.807
103.865
103.922
103.979
104.036
104.093
104.15
104.207
104.265
104.322
104.379
104.436
104.493
104.55
104.607
104.664
104.722
104.779
104.836
104.893
104.95
105.007
105.064
105.121
105.179
105.236
105.293
105.35
105.407
105.464
105.521
105.578
105.635
105.693
105.75
105.807
105.864
105.921
105.978
106.035
106.092
106.149
106.206
106.264
106.321
106.378
106.435
106.492
106.549
106.606
106.663
106.72
106.777
106.834
106.892
106.949
107.006
107.063
107.12
107.177
107.234
107.291
107.348
107.405
107.462
107.519
107.577
107.634
107.691
107.748
107.805
107.862
107.919
107.976
108.033
108.09
108.147
108.204
108.261
108.318
108.376
108.433
108.49
108.547
108.604
108.661
108.718
108.775
108.832
108.889
108.946
109.003
109.06
109.117
109.174
109.231
109.288
109.345
109.402
109.459
109.517
109.574
109.631
109.688
109.745
109.802
109.859
109.916
109.973
110.03
110.087
110.144
110.201
110.258
110.315
110.372
110.429
110.486
110.543
110.6
110.657
110.714
110.771
110.828
110.885
110.942
110.999
111.056
111.113
111.17
111.227
111.284
111.341
111.398
111.455
111.512
111.569
111.626
111.683
111.74
111.797
111.854
111.911
111.968
112.025
112.082
112.139
112.196
112.253
112.31
112.367
112.424
112.481
112.538
112.595
112.652
112.709
112.766
112.823
112.88
112.937
112.994
113.051
113.108
113.165
113.222
113.279
113.336
113.393
113.45
113.507
113.564
113.621
113.678
113.735
113.792
113.849
113.906
113.963
114.02
114.077
114.134
114.191
114.247
114.304
114.361
114.418
114.475
114.532
114.589
114.646
114.703
114.76
114.817
114.874
114.931
114.988
115.045
115.102
115.159
115.216
115.273
115.329
115.386
115.443
115.5
115.557
115.614
115.671
115.728
115.785
115.842
115.899
115.956
116.013
116.07
116.126
116.183
116.24
116.297
116.354
116.411
116.468
116.525
116.582
116.639
116.696
116.753
116.809
116.866
116.923
116.98
117.037
117.094
117.151
117.208
117.265
117.322
117.379
117.435
117.492
117.549
117.606
117.663
117.72
117.777
117.834
117.891
117.947
118.004
118.061
118.118
118.175
118.232
118.289
118.346
118.403
118.459
118.516
118.573
118.63
118.687
118.744
118.801
118.858
118.914
118.971
119.028
119.085
119.142
119.199
119.256
119.312
119.369
119.426
119.483
119.54
119.597
119.654
119.71
119.767
119.824
119.881
119.938
119.995
120.052
120.108
120.165
120.222
120.279
120.336
120.393
120.45
120.506
120.563
120.62
120.677
120.734
120.791
120.847
120.904
120.961
121.018
121.075
121.132
121.188
121.245
121.302
121.359
121.416
121.472
121.529
121.586
121.643
121.7
121.757
121.813
121.87
121.927
121.984
122.041
122.097
122.154
122.211
122.268
122.325
122.381
122.438
122.495
122.552
122.609
122.666
122.722
122.779
122.836
122.893
122.949
123.006
123.063
123.12
123.177
123.233
123.29
123.347
123.404
123.461
123.517
123.574
123.631
123.688
123.744
123.801
123.858
123.915
123.972
124.028
124.085
124.142
124.199
124.255
124.312
124.369
124.426
124.483
124.539
124.596
124.653
124.71
124.766
124.823
124.88
124.937
124.993
125.05
125.107
125.164
125.22
125.277
125.334
125.391
125.447
125.504
125.561
125.618
125.674
125.731
125.788
125.845
125.901
125.958
126.015
126.071
126.128
126.185
126.242
126.298
126.355
126.412
126.469
126.525
126.582
126.639
126.695
126.752
126.809
126.866
126.922
126.979
127.036
127.092
127.149
127.206
127.263
127.319
127.376
127.433
127.489
127.546
127.603
127.66
127.716
127.773
127.83
127.886
127.943
128
128.056
128.113
128.17
128.226
128.283
128.34
128.397
128.453
128.51
128.567
128.623
128.68
128.737
128.793
128.85
128.907
128.963
129.02
129.077
129.133
129.19
129.247
129.303
129.36
129.417
129.473
129.53
129.587
129.643
129.7
129.757
129.813
129.87
129.927
129.983
130.04
130.097
130.153
130.21
130.267
130.323
130.38
130.437
130.493
130.55
130.606
130.663
130.72
130.776
130.833
130.89
130.946
131.003
131.06
131.116
131.173
131.229
131.286
131.343
131.399
131.456
131.513
131.569
131.626
131.682
131.739
131.796
131.852
131.909
131.966
132.022
132.079
132.135
132.192
132.249
132.305
132.362
132.418
132.475
132.532
132.588
132.645
132.701
132.758
132.815
132.871
132.928
132.984
133.041
133.098
133.154
133.211
133.267
133.324
133.38
133.437
133.494
133.55
133.607
133.663
133.72
133.777
133.833
133.89
133.946
134.003
134.059
134.116
134.173
134.229
134.286
134.342
134.399
134.455
134.512
134.568
134.625
134.682
134.738
134.795
134.851
134.908
134.964
135.021
135.077
135.134
135.191
135.247
135.304
135.36
135.417
135.473
135.53
135.586
135.643
135.699
135.756
135.813
135.869
135.926
135.982
136.039
136.095
136.152
136.208
136.265
136.321
136.378
136.434
136.491
136.547
136.604
136.66
136.717
136.773
136.83
136.886
136.943
136.999
137.056
137.112
137.169
137.225
137.282
137.338
137.395
137.451
137.508
137.564
137.621
137.677
137.734
137.79
137.847
137.903
137.96
138.016
138.073
138.129
138.186
138.242
138.299
138.355
138.412
138.468
138.525
138.581
138.638
138.694
138.751
138.807
138.864
138.92
138.976
139.033
139.089
139.146
139.202
139.259
139.315
139.372
139.428
139.485
139.541
139.598
139.654
139.71
139.767
139.823
139.88
139.936
139.993
140.049
140.106
140.162
140.218
140.275
140.331
140.388
140.444
140.501
140.557
140.613
140.67
140.726
140.783
140.839
140.896
140.952
141.008
141.065
141.121
141.178
141.234
141.291
141.347
141.403
141.46
141.516
141.573
141.629
141.685
141.742
141.798
141.855
141.911
141.967
142.024
142.08
142.137
142.193
142.249
142.306
142.362
142.419
142.475
142.531
142.588
142.644
142.701
142.757
142.813
142.87
142.926
142.982
143.039
143.095
143.152
143.208
143.264
143.321
143.377
143.433
143.49
143.546
143.603
143.659
143.715
143.772
143.828
143.884
143.941
143.997
144.053
144.11
144.166
144.222
144.279
144.335
144.392
144.448
144.504
144.561
144.617
144.673
144.73
144.786
144.842
144.899
144.955
145.011
145.068
145.124
145.18
145.237
145.293
145.349
145.406
145.462
145.518
145.575
145.631
145.687
145.743
145.8
145.856
145.912
145.969
146.025
146.081
146.138
146.194
146.25
146.307
146.363
146.419
146.475
146.532
146.588
146.644
146.701
146.757
146.813
146.87
146.926
146.982
147.038
147.095
147.151
147.207
147.264
147.32
147.376
147.432
147.489
147.545
147.601
147.657
147.714
147.77
147.826
147.883
147.939
147.995
148.051
148.108
148.164
148.22
148.276
148.333
148.389
148.445
148.501
148.558
148.614
148.67
148.726
148.783
148.839
148.895
148.951
149.008
149.064
149.12
149.176
149.233
149.289
149.345
149.401
149.458
149.514
149.57
149.626
149.682
149.739
149.795
149.851
149.907
149.964
150.02
150.076
150.132
150.188
150.245
150.301
150.357
150.413
150.469
150.526
150.582
150.638
150.694
150.751
150.807
150.863
150.919
150.975
151.032
151.088
151.144
151.2
151.256
151.312
151.369
151.425
151.481
151.537
151.593
151.65
151.706
151.762
151.818
151.874
151.93
151.987
152.043
152.099
152.155
152.211
152.267
152.324
152.38
152.436
152.492
152.548
152.604
152.661
152.717
152.773
152.829
152.885
152.941
152.997
153.054
153.11
153.166
153.222
153.278
153.334
153.39
153.447
153.503
153.559
153.615
153.671
153.727
153.783
153.84
153.896
153.952
154.008
154.064
154.12
154.176
154.232
154.289
154.345
154.401
154.457
154.513
154.569
154.625
154.681
154.737
154.794
154.85
154.906
154.962
155.018
155.074
155.13
155.186
155.242
155.298
155.354
155.411
155.467
155.523
155.579
155.635
155.691
155.747
155.803
155.859
155.915
155.971
156.027
156.084
156.14
156.196
156.252
156.308
156.364
156.42
156.476
156.532
156.588
156.644
156.7
156.756
156.812
156.868
156.925
156.981
157.037
157.093
157.149
157.205
157.261
157.317
157.373
157.429
157.485
157.541
157.597
157.653
157.709
157.765
157.821
157.877
157.933
157.989
158.045
158.101
158.157
158.213
158.269
158.325
158.381
158.437
158.493
158.549
158.605
158.661
158.717
158.773
158.829
158.885
158.941
158.997
159.053
159.109
159.165
159.221
159.277
159.333
159.389
159.445
159.501
159.557
159.613
159.669
159.725
159.781
159.837
159.893
159.949
160.005
160.061
160.117
160.173
160.229
160.285
160.341
160.397
160.453
160.509
160.565
160.621
160.677
160.733
160.789
160.845
160.901
160.957
161.013
161.069
161.125
161.18
161.236
161.292
161.348
161.404
161.46
161.516
161.572
161.628
161.684
161.74
161.796
161.852
161.908
161.964
162.02
162.075
162.131
162.187
162.243
162.299
162.355
162.411
162.467
162.523
162.579
162.635
162.691
162.746
162.802
162.858
162.914
162.97
163.026
163.082
163.138
163.194
163.25
163.305
163.361
163.417
163.473
163.529
163.585
163.641
163.697
163.752
163.808
163.864
163.92
163.976
164.032
164.088
164.144
164.199
164.255
164.311
164.367
164.423
164.479
164.535
164.591
164.646
164.702
164.758
164.814
164.87
164.926
164.982
165.037
165.093
165.149
165.205
165.261
165.317
165.372
165.428
165.484
165.54
165.596
165.652
165.707
165.763
165.819
165.875
165.931
165.987
166.042
166.098
166.154
166.21
166.266
166.321
166.377
166.433
166.489
166.545
166.6
166.656
166.712
166.768
166.824
166.879
166.935
166.991
167.047
167.103
167.158
167.214
167.27
167.326
167.382
167.437
167.493
167.549
167.605
167.661
167.716
167.772
167.828
167.884
167.939
167.995
168.051
168.107
168.162
168.218
168.274
168.33
168.386
168.441
168.497
168.553
168.609
168.664
168.72
168.776
168.832
168.887
168.943
168.999
169.054
169.11
169.166
169.222
169.277
169.333
169.389
169.445
169.5
169.556
169.612
169.668
169.723
169.779
169.835
169.89
169.946
170.002
170.058
170.113
170.169
170.225
170.28
170.336
170.392
170.448
170.503
170.559
170.615
170.67
170.726
170.782
170.837
170.893
170.949
171.004
171.06
171.116
171.172
171.227
171.283
171.339
171.394
171.45
171.506
171.561
171.617
171.673
171.728
171.784
171.84
171.895
171.951
172.007
172.062
172.118
172.174
172.229
172.285
172.341
172.396
172.452
172.507
172.563
172.619
172.674
172.73
172.786
172.841
172.897
172.953
173.008
173.064
173.119
173.175
173.231
173.286
173.342
173.398
173.453
173.509
173.564
173.62
173.676
173.731
173.787
173.842
173.898
173.954
174.009
174.065
174.121
174.176
174.232
174.287
174.343
174.398
174.454
174.51
174.565
174.621
174.676
174.732
174.788
174.843
174.899
174.954
175.01
175.065
175.121
175.177
175.232
175.288
175.343
175.399
175.454
175.51
175.566
175.621
175.677
175.732
175.788
175.843
175.899
175.954
176.01
176.066
176.121
176.177
176.232
176.288
176.343
176.399
176.454
176.51
176.565
176.621
176.676
176.732
176.787
176.843
176.899
176.954
177.01
177.065
177.121
177.176
177.232
177.287
177.343
177.398
177.454
177.509
177.565
177.62
177.676
177.731
177.787
177.842
177.898
177.953
178.009
178.064
178.12
178.175
178.231
178.286
178.342
178.397
178.452
178.508
178.563
178.619
178.674
178.73
178.785
178.841
178.896
178.952
179.007
179.063
179.118
179.174
179.229
179.284
179.34
179.395
179.451
179.506
179.562
179.617
179.673
179.728
179.783
179.839
179.894
179.95
180.005
180.061
180.116
180.171
180.227
180.282
180.338
180.393
180.449
180.504
180.559
180.615
180.67
180.726
180.781
180.836
180.892
180.947
181.003
181.058
181.113
181.169
181.224
181.28
181.335
181.39
181.446
181.501
181.557
181.612
181.667
181.723
181.778
181.833
181.889
181.944
182
182.055
182.11
182.166
182.221
182.276
182.332
182.387
182.442
182.498
182.553
182.609
182.664
182.719
182.775
182.83
182.885
182.941
182.996
183.051
183.107
183.162
183.217
183.273
183.328
183.383
183.439
183.494
183.549
183.605
183.66
183.715
183.77
183.826
183.881
183.936
183.992
184.047
184.102
184.158
184.213
184.268
184.324
184.379
184.434
184.489
184.545
184.6
184.655
184.711
184.766
184.821
184.876
184.932
184.987
185.042
185.098
185.153
185.208
185.263
185.319
185.374
185.429
185.484
185.54
185.595
185.65
185.705
185.761
185.816
185.871
185.926
185.982
186.037
186.092
186.147
186.203
186.258
186.313
186.368
186.424
186.479
186.534
186.589
186.645
186.7
186.755
186.81
186.865
186.921
186.976
187.031
187.086
187.141
187.197
187.252
187.307
187.362
187.417
187.473
187.528
187.583
187.638
187.693
187.749
187.804
187.859
187.914
187.969
188.025
188.08
188.135
188.19
188.245
188.3
188.356
188.411
188.466
188.521
188.576
188.631
188.687
188.742
188.797
188.852
188.907
188.962
189.018
189.073
189.128
189.183
189.238
189.293
189.348
189.403
189.459
189.514
189.569
189.624
189.679
189.734
189.789
189.845
189.9
189.955
190.01
190.065
190.12
190.175
190.23
190.285
190.341
190.396
190.451
190.506
190.561
190.616
190.671
190.726
190.781
190.836
190.891
190.947
191.002
191.057
191.112
191.167
191.222
191.277
191.332
191.387
191.442
191.497
191.552
191.607
191.662
191.717
191.773
191.828
191.883
191.938
191.993
192.048
192.103
192.158
192.213
192.268
192.323
192.378
192.433
192.488
192.543
192.598
192.653
192.708
192.763
192.818
192.873
192.928
192.983
193.038
193.093
193.148
193.203
193.258
193.313
193.368
193.423
193.478
193.533
193.588
193.643
193.698
193.753
193.808
193.863
193.918
193.973
194.028
194.083
194.138
194.193
194.248
194.303
194.358
194.413
194.468
194.523
194.578
194.633
194.688
194.743
194.798
194.853
194.907
194.962
195.017
195.072
195.127
195.182
195.237
195.292
195.347
195.402
195.457
195.512
195.567
195.622
195.677
195.731
195.786
195.841
195.896
195.951
196.006
196.061
196.116
196.171
196.226
196.28
196.335
196.39
196.445
196.5
196.555
196.61
196.665
196.72
196.774
196.829
196.884
196.939
196.994
197.049
197.104
197.158
197.213
197.268
197.323
197.378
197.433
197.488
197.542
197.597
197.652
197.707
197.762
197.817
197.871
197.926
197.981
198.036
198.091
198.146
198.2
198.255
198.31
198.365
198.42
198.475
198.529
198.584
198.639
198.694
198.749
198.803
198.858
198.913
198.968
199.023
199.077
199.132
199.187
199.242
199.296
199.351
199.406
199.461
199.516
199.57
199.625
199.68
199.735
199.789
199.844
199.899
199.954
200.008
200.063
200.118
200.173
200.227
200.282
200.337
200.392
200.446
200.501
200.556
200.61
200.665
200.72
200.775
200.829
200.884
200.939
200.994
201.048
201.103
201.158
201.212
201.267
201.322
201.376
201.431
201.486
201.54
201.595
201.65
201.705
201.759
201.814
201.869
201.923
201.978
202.033
202.087
202.142
202.197
202.251
202.306
202.361
202.415
202.47
202.524
202.579
202.634
202.688
202.743
202.798
202.852
202.907
202.962
203.016
203.071
203.125
203.18
203.235
203.289
203.344
203.399
203.453
203.508
203.562
203.617
203.672
203.726
203.781
203.835
203.89
203.944
203.999
204.054
204.108
204.163
204.217
204.272
204.326
204.381
204.436
204.49
204.545
204.599
204.654
204.708
204.763
204.817
204.872
204.927
204.981
205.036
205.09
205.145
205.199
205.254
205.308
205.363
205.417
205.472
205.526
205.581
205.635
205.69
205.744
205.799
205.853
205.908
205.962
206.017
206.071
206.126
206.18
206.235
206.289
206.344
206.398
206.453
206.507
206.562
206.616
206.671
206.725
206.779
206.834
206.888
206.943
206.997
207.052
207.106
207.161
207.215
207.269
207.324
207.378
207.433
207.487
207.541
207.596
207.65
207.705
207.759
207.814
207.868
207.922
207.977
208.031
208.086
208.14
208.194
208.249
208.303
208.357
208.412
208.466
208.521
208.575
208.629
208.684
208.738
208.792
208.847
208.901
208.955
209.01
209.064
209.118
209.173
209.227
209.281
209.336
209.39
209.444
209.499
209.553
209.607
209.662
209.716
209.77
209.824
209.879
209.933
209.987
210.042
210.096
210.15
210.204
210.259
210.313
210.367
210.421
210.476
210.53
210.584
210.638
210.693
210.747
210.801
210.855
210.91
210.964
211.018
211.072
211.127
211.181
211.235
211.289
211.343
211.398
211.452
211.506
211.56
211.614
211.669
211.723
211.777
211.831
211.885
211.939
211.994
212.048
212.102
212.156
212.21
212.264
212.319
212.373
212.427
212.481
212.535
212.589
212.643
212.698
212.752
212.806
212.86
212.914
212.968
213.022
213.076
213.13
213.185
213.239
213.293
213.347
213.401
213.455
213.509
213.563
213.617
213.671
213.725
213.779
213.833
213.887
213.941
213.995
214.05
214.104
214.158
214.212
214.266
214.32
214.374
214.428
214.482
214.536
214.59
214.644
214.698
214.752
214.806
214.86
214.914
214.968
215.021
215.075
215.129
215.183
215.237
215.291
215.345
215.399
215.453
215.507
215.561
215.615
215.669
215.723
215.777
215.83
215.884
215.938
215.992
216.046
216.1
216.154
216.208
216.262
216.315
216.369
216.423
216.477
216.531
216.585
216.638
216.692
216.746
216.8
216.854
216.908
216.961
217.015
217.069
217.123
217.177
217.23
217.284
217.338
217.392