/*--------------------------------*- C++ -*----------------------------------*\
  =========                 |
  \\      /  F ield         | OpenFOAM: The Open Source CFD Toolbox
   \\    /   O peration     | Website:  https://openfoam.org
    \\  /    A nd           | Version:  9
     \\/     M anipulation  |
\*---------------------------------------------------------------------------*/
FoamFile
{
    format      ascii;
    class       volScalarField;
    location    "0.029";
    object      rho_0;
}
// * * * * * * * * * * * * * * * * * * * * * * * * * * * * * * * * * * * * * //

dimensions      [1 -3 0 0 0 0 0];

internalField   nonuniform List<scalar> 
10000
(
0.319306
0.3193
0.319291
0.319283
0.319275
0.319266
0.319258
0.31925
0.319241
0.319233
0.319225
0.319216
0.319208
0.3192
0.319191
0.319183
0.319175
0.319166
0.319158
0.31915
0.319142
0.319134
0.319125
0.319117
0.319108
0.3191
0.319092
0.319085
0.319077
0.319068
0.31906
0.319051
0.319043
0.319035
0.319027
0.319019
0.319012
0.319004
0.318996
0.318987
0.318978
0.31897
0.318962
0.318954
0.318946
0.318939
0.318932
0.318925
0.318918
0.31891
0.318902
0.318893
0.318884
0.318875
0.318866
0.318858
0.318849
0.318841
0.318834
0.318827
0.318821
0.318816
0.318812
0.318808
0.318804
0.318801
0.318798
0.318795
0.318793
0.31879
0.318788
0.318785
0.318783
0.318781
0.318779
0.318777
0.318776
0.318774
0.318772
0.31877
0.318769
0.318767
0.318765
0.318763
0.318761
0.31876
0.318758
0.318756
0.318754
0.318752
0.318751
0.318749
0.318747
0.318745
0.318743
0.318741
0.31874
0.318738
0.318736
0.318734
0.318732
0.318731
0.318729
0.318727
0.318725
0.318723
0.318722
0.31872
0.318718
0.318716
0.318714
0.318712
0.318711
0.318709
0.318707
0.318705
0.318703
0.318701
0.3187
0.318698
0.318696
0.318694
0.318692
0.318691
0.318689
0.318687
0.318685
0.318683
0.318681
0.31868
0.318678
0.318676
0.318674
0.318672
0.31867
0.318669
0.318667
0.318665
0.318663
0.318661
0.318659
0.318658
0.318656
0.318654
0.318652
0.31865
0.318648
0.318646
0.318645
0.318643
0.318641
0.318639
0.318637
0.318635
0.318634
0.318632
0.31863
0.318628
0.318626
0.318624
0.318622
0.318621
0.318619
0.318617
0.318615
0.318613
0.318611
0.31861
0.318608
0.318606
0.318604
0.318602
0.3186
0.318598
0.318597
0.318595
0.318593
0.318591
0.318589
0.318587
0.318585
0.318583
0.318582
0.31858
0.318578
0.318576
0.318574
0.318572
0.31857
0.318569
0.318567
0.318565
0.318563
0.318561
0.318559
0.318557
0.318555
0.318554
0.318552
0.31855
0.318548
0.318546
0.318544
0.318542
0.31854
0.318539
0.318537
0.318535
0.318533
0.318531
0.318529
0.318527
0.318525
0.318524
0.318522
0.31852
0.318518
0.318516
0.318514
0.318512
0.31851
0.318509
0.318507
0.318505
0.318503
0.318501
0.318499
0.318497
0.318495
0.318493
0.318492
0.31849
0.318488
0.318486
0.318484
0.318482
0.31848
0.318478
0.318476
0.318474
0.318473
0.318471
0.318469
0.318467
0.318465
0.318463
0.318461
0.318459
0.318457
0.318455
0.318454
0.318452
0.31845
0.318448
0.318446
0.318444
0.318442
0.31844
0.318438
0.318436
0.318434
0.318433
0.318431
0.318429
0.318427
0.318425
0.318423
0.318421
0.318419
0.318417
0.318415
0.318413
0.318412
0.31841
0.318408
0.318406
0.318404
0.318402
0.3184
0.318398
0.318396
0.318394
0.318392
0.31839
0.318388
0.318387
0.318385
0.318383
0.318381
0.318379
0.318377
0.318375
0.318373
0.318371
0.318369
0.318367
0.318365
0.318363
0.318361
0.31836
0.318358
0.318356
0.318354
0.318352
0.31835
0.318348
0.318346
0.318344
0.318342
0.31834
0.318338
0.318336
0.318334
0.318332
0.31833
0.318329
0.318327
0.318325
0.318323
0.318321
0.318319
0.318317
0.318315
0.318313
0.318311
0.318309
0.318307
0.318305
0.318303
0.318301
0.318299
0.318297
0.318295
0.318293
0.318292
0.31829
0.318288
0.318286
0.318284
0.318282
0.31828
0.318278
0.318276
0.318274
0.318272
0.31827
0.318268
0.318266
0.318264
0.318262
0.31826
0.318258
0.318256
0.318254
0.318252
0.31825
0.318248
0.318246
0.318244
0.318242
0.318241
0.318239
0.318237
0.318235
0.318233
0.318231
0.318229
0.318227
0.318225
0.318223
0.318221
0.318219
0.318217
0.318215
0.318213
0.318211
0.318209
0.318207
0.318205
0.318203
0.318201
0.318199
0.318197
0.318195
0.318193
0.318191
0.318189
0.318187
0.318185
0.318183
0.318181
0.318179
0.318177
0.318175
0.318173
0.318171
0.318169
0.318167
0.318165
0.318163
0.318161
0.318159
0.318157
0.318155
0.318153
0.318151
0.318149
0.318147
0.318145
0.318143
0.318141
0.318139
0.318137
0.318135
0.318133
0.318131
0.318129
0.318127
0.318125
0.318123
0.318121
0.318119
0.318117
0.318115
0.318113
0.318111
0.318109
0.318107
0.318105
0.318103
0.318101
0.318099
0.318097
0.318095
0.318093
0.318091
0.318089
0.318087
0.318085
0.318083
0.318081
0.318079
0.318077
0.318075
0.318073
0.318071
0.318069
0.318067
0.318065
0.318063
0.318061
0.318059
0.318057
0.318055
0.318053
0.318051
0.318049
0.318047
0.318045
0.318042
0.31804
0.318038
0.318036
0.318034
0.318032
0.31803
0.318028
0.318026
0.318024
0.318022
0.31802
0.318018
0.318016
0.318014
0.318012
0.31801
0.318008
0.318006
0.318004
0.318002
0.318
0.317998
0.317996
0.317994
0.317992
0.317989
0.317987
0.317985
0.317983
0.317981
0.317979
0.317977
0.317975
0.317973
0.317971
0.317969
0.317967
0.317965
0.317963
0.317961
0.317959
0.317957
0.317955
0.317953
0.31795
0.317948
0.317946
0.317944
0.317942
0.31794
0.317938
0.317936
0.317934
0.317932
0.31793
0.317928
0.317926
0.317924
0.317922
0.31792
0.317917
0.317915
0.317913
0.317911
0.317909
0.317907
0.317905
0.317903
0.317901
0.317899
0.317897
0.317895
0.317893
0.317891
0.317888
0.317886
0.317884
0.317882
0.31788
0.317878
0.317876
0.317874
0.317872
0.31787
0.317868
0.317866
0.317864
0.317861
0.317859
0.317857
0.317855
0.317853
0.317851
0.317849
0.317847
0.317845
0.317843
0.317841
0.317838
0.317836
0.317834
0.317832
0.31783
0.317828
0.317826
0.317824
0.317822
0.31782
0.317818
0.317815
0.317813
0.317811
0.317809
0.317807
0.317805
0.317803
0.317801
0.317799
0.317797
0.317794
0.317792
0.31779
0.317788
0.317786
0.317784
0.317782
0.31778
0.317778
0.317775
0.317773
0.317771
0.317769
0.317767
0.317765
0.317763
0.317761
0.317759
0.317756
0.317754
0.317752
0.31775
0.317748
0.317746
0.317744
0.317742
0.317739
0.317737
0.317735
0.317733
0.317731
0.317729
0.317727
0.317725
0.317723
0.31772
0.317718
0.317716
0.317714
0.317712
0.31771
0.317708
0.317705
0.317703
0.317701
0.317699
0.317697
0.317695
0.317693
0.317691
0.317688
0.317686
0.317684
0.317682
0.31768
0.317678
0.317676
0.317673
0.317671
0.317669
0.317667
0.317665
0.317663
0.317661
0.317658
0.317656
0.317654
0.317652
0.31765
0.317648
0.317646
0.317643
0.317641
0.317639
0.317637
0.317635
0.317633
0.317631
0.317628
0.317626
0.317624
0.317622
0.31762
0.317618
0.317615
0.317613
0.317611
0.317609
0.317607
0.317605
0.317603
0.3176
0.317598
0.317596
0.317594
0.317592
0.31759
0.317587
0.317585
0.317583
0.317581
0.317579
0.317577
0.317574
0.317572
0.31757
0.317568
0.317566
0.317564
0.317561
0.317559
0.317557
0.317555
0.317553
0.31755
0.317548
0.317546
0.317544
0.317542
0.31754
0.317537
0.317535
0.317533
0.317531
0.317529
0.317527
0.317524
0.317522
0.31752
0.317518
0.317516
0.317513
0.317511
0.317509
0.317507
0.317505
0.317502
0.3175
0.317498
0.317496
0.317494
0.317492
0.317489
0.317487
0.317485
0.317483
0.317481
0.317478
0.317476
0.317474
0.317472
0.31747
0.317467
0.317465
0.317463
0.317461
0.317459
0.317456
0.317454
0.317452
0.31745
0.317448
0.317445
0.317443
0.317441
0.317439
0.317437
0.317434
0.317432
0.31743
0.317428
0.317425
0.317423
0.317421
0.317419
0.317417
0.317414
0.317412
0.31741
0.317408
0.317406
0.317403
0.317401
0.317399
0.317397
0.317394
0.317392
0.31739
0.317388
0.317386
0.317383
0.317381
0.317379
0.317377
0.317374
0.317372
0.31737
0.317368
0.317366
0.317363
0.317361
0.317359
0.317357
0.317354
0.317352
0.31735
0.317348
0.317346
0.317343
0.317341
0.317339
0.317337
0.317334
0.317332
0.31733
0.317328
0.317325
0.317323
0.317321
0.317319
0.317316
0.317314
0.317312
0.31731
0.317307
0.317305
0.317303
0.317301
0.317298
0.317296
0.317294
0.317292
0.317289
0.317287
0.317285
0.317283
0.31728
0.317278
0.317276
0.317274
0.317271
0.317269
0.317267
0.317265
0.317262
0.31726
0.317258
0.317256
0.317253
0.317251
0.317249
0.317247
0.317244
0.317242
0.31724
0.317238
0.317235
0.317233
0.317231
0.317229
0.317226
0.317224
0.317222
0.317219
0.317217
0.317215
0.317213
0.31721
0.317208
0.317206
0.317204
0.317201
0.317199
0.317197
0.317194
0.317192
0.31719
0.317188
0.317185
0.317183
0.317181
0.317179
0.317176
0.317174
0.317172
0.317169
0.317167
0.317165
0.317163
0.31716
0.317158
0.317156
0.317153
0.317151
0.317149
0.317147
0.317144
0.317142
0.31714
0.317137
0.317135
0.317133
0.317131
0.317128
0.317126
0.317124
0.317121
0.317119
0.317117
0.317114
0.317112
0.31711
0.317108
0.317105
0.317103
0.317101
0.317098
0.317096
0.317094
0.317091
0.317089
0.317087
0.317085
0.317082
0.31708
0.317078
0.317075
0.317073
0.317071
0.317068
0.317066
0.317064
0.317061
0.317059
0.317057
0.317054
0.317052
0.31705
0.317048
0.317045
0.317043
0.317041
0.317038
0.317036
0.317034
0.317031
0.317029
0.317027
0.317024
0.317022
0.31702
0.317017
0.317015
0.317013
0.31701
0.317008
0.317006
0.317003
0.317001
0.316999
0.316996
0.316994
0.316992
0.316989
0.316987
0.316985
0.316983
0.31698
0.316978
0.316975
0.316973
0.316971
0.316969
0.316966
0.316964
0.316961
0.316959
0.316957
0.316955
0.316952
0.31695
0.316947
0.316945
0.316943
0.31694
0.316938
0.316936
0.316933
0.316931
0.316928
0.316926
0.316924
0.316922
0.316919
0.316917
0.316915
0.316912
0.31691
0.316907
0.316905
0.316903
0.316901
0.316898
0.316896
0.316893
0.316891
0.316889
0.316886
0.316884
0.316881
0.316879
0.316877
0.316874
0.316872
0.31687
0.316867
0.316865
0.316863
0.31686
0.316858
0.316855
0.316853
0.316851
0.316848
0.316846
0.316843
0.316841
0.316839
0.316836
0.316834
0.316832
0.31683
0.316827
0.316825
0.316822
0.31682
0.316818
0.316815
0.316813
0.31681
0.316808
0.316806
0.316803
0.316801
0.316798
0.316796
0.316794
0.316791
0.316789
0.316786
0.316784
0.316782
0.316779
0.316777
0.316774
0.316772
0.31677
0.316768
0.316765
0.316763
0.31676
0.316758
0.316756
0.316753
0.316751
0.316748
0.316746
0.316744
0.316741
0.316739
0.316736
0.316734
0.316732
0.316729
0.316727
0.316724
0.316722
0.31672
0.316717
0.316715
0.316712
0.31671
0.316708
0.316705
0.316703
0.3167
0.316698
0.316696
0.316693
0.316691
0.316688
0.316686
0.316683
0.316681
0.316679
0.316676
0.316673
0.316671
0.316669
0.316666
0.316664
0.316661
0.316659
0.316657
0.316654
0.316652
0.316649
0.316647
0.316645
0.316642
0.31664
0.316637
0.316635
0.316633
0.31663
0.316628
0.316625
0.316623
0.31662
0.316618
0.316616
0.316613
0.316611
0.316608
0.316606
0.316603
0.316601
0.316598
0.316596
0.316593
0.316591
0.316589
0.316586
0.316584
0.316581
0.316579
0.316577
0.316574
0.316572
0.316569
0.316567
0.316564
0.316562
0.316559
0.316557
0.316554
0.316552
0.31655
0.316547
0.316545
0.316542
0.31654
0.316538
0.316535
0.316532
0.31653
0.316527
0.316525
0.316523
0.31652
0.316518
0.316515
0.316513
0.31651
0.316508
0.316505
0.316503
0.3165
0.316498
0.316496
0.316493
0.316491
0.316488
0.316486
0.316483
0.316481
0.316478
0.316476
0.316473
0.316471
0.316468
0.316466
0.316464
0.316461
0.316458
0.316456
0.316453
0.316451
0.316449
0.316446
0.316444
0.316441
0.316439
0.316436
0.316434
0.316431
0.316429
0.316426
0.316424
0.316421
0.316419
0.316416
0.316414
0.316411
0.316409
0.316406
0.316404
0.316402
0.316399
0.316396
0.316394
0.316391
0.316389
0.316387
0.316384
0.316382
0.316379
0.316376
0.316374
0.316372
0.316369
0.316367
0.316364
0.316361
0.316359
0.316356
0.316354
0.316352
0.316349
0.316347
0.316344
0.316341
0.316339
0.316337
0.316334
0.316332
0.316329
0.316326
0.316324
0.316321
0.316319
0.316317
0.316314
0.316311
0.316309
0.316306
0.316304
0.316302
0.316299
0.316296
0.316294
0.316291
0.316289
0.316286
0.316284
0.316281
0.316279
0.316276
0.316274
0.316271
0.316269
0.316266
0.316264
0.316261
0.316259
0.316256
0.316253
0.316251
0.316248
0.316246
0.316244
0.316241
0.316238
0.316236
0.316233
0.316231
0.316228
0.316226
0.316223
0.316221
0.316218
0.316216
0.316213
0.31621
0.316208
0.316206
0.316203
0.3162
0.316198
0.316195
0.316193
0.31619
0.316188
0.316185
0.316183
0.31618
0.316177
0.316175
0.316172
0.31617
0.316167
0.316165
0.316162
0.31616
0.316157
0.316155
0.316152
0.316149
0.316147
0.316144
0.316142
0.316139
0.316137
0.316134
0.316132
0.316129
0.316126
0.316124
0.316121
0.316119
0.316116
0.316114
0.316111
0.316108
0.316106
0.316103
0.316101
0.316098
0.316096
0.316093
0.316091
0.316088
0.316085
0.316083
0.31608
0.316078
0.316075
0.316073
0.31607
0.316068
0.316065
0.316062
0.31606
0.316057
0.316054
0.316052
0.316049
0.316047
0.316044
0.316042
0.316039
0.316037
0.316034
0.316031
0.316029
0.316026
0.316023
0.316021
0.316018
0.316016
0.316013
0.316011
0.316008
0.316005
0.316003
0.316
0.315998
0.315995
0.315992
0.31599
0.315987
0.315985
0.315982
0.31598
0.315977
0.315974
0.315972
0.315969
0.315966
0.315964
0.315961
0.315959
0.315956
0.315954
0.315951
0.315948
0.315946
0.315943
0.315941
0.315938
0.315935
0.315933
0.31593
0.315928
0.315925
0.315922
0.31592
0.315917
0.315915
0.315912
0.315909
0.315907
0.315904
0.315901
0.315899
0.315896
0.315893
0.315891
0.315888
0.315886
0.315883
0.315881
0.315878
0.315875
0.315873
0.31587
0.315867
0.315865
0.315862
0.315859
0.315857
0.315854
0.315852
0.315849
0.315846
0.315844
0.315841
0.315839
0.315836
0.315833
0.315831
0.315828
0.315825
0.315823
0.31582
0.315817
0.315815
0.315812
0.315809
0.315807
0.315804
0.315802
0.315799
0.315796
0.315794
0.315791
0.315788
0.315786
0.315783
0.31578
0.315778
0.315775
0.315772
0.31577
0.315767
0.315764
0.315762
0.315759
0.315757
0.315754
0.315751
0.315749
0.315746
0.315743
0.315741
0.315738
0.315735
0.315733
0.31573
0.315727
0.315725
0.315722
0.315719
0.315717
0.315714
0.315711
0.315709
0.315706
0.315703
0.315701
0.315698
0.315695
0.315693
0.31569
0.315687
0.315685
0.315682
0.315679
0.315677
0.315674
0.315672
0.315669
0.315666
0.315663
0.315661
0.315658
0.315655
0.315653
0.31565
0.315647
0.315645
0.315642
0.315639
0.315637
0.315634
0.315631
0.315629
0.315626
0.315623
0.315621
0.315618
0.315615
0.315613
0.31561
0.315607
0.315604
0.315602
0.315599
0.315596
0.315594
0.315591
0.315588
0.315586
0.315583
0.31558
0.315578
0.315575
0.315572
0.315569
0.315567
0.315564
0.315561
0.315559
0.315556
0.315553
0.315551
0.315548
0.315545
0.315542
0.31554
0.315537
0.315534
0.315532
0.315529
0.315526
0.315524
0.315521
0.315518
0.315515
0.315513
0.31551
0.315507
0.315505
0.315502
0.315499
0.315496
0.315494
0.315491
0.315488
0.315486
0.315483
0.31548
0.315477
0.315475
0.315472
0.315469
0.315467
0.315464
0.315461
0.315458
0.315456
0.315453
0.31545
0.315447
0.315445
0.315442
0.315439
0.315437
0.315434
0.315431
0.315428
0.315426
0.315423
0.31542
0.315417
0.315415
0.315412
0.315409
0.315407
0.315404
0.315401
0.315398
0.315396
0.315393
0.31539
0.315387
0.315385
0.315382
0.315379
0.315376
0.315374
0.315371
0.315368
0.315365
0.315363
0.31536
0.315357
0.315354
0.315352
0.315349
0.315346
0.315343
0.315341
0.315338
0.315335
0.315332
0.31533
0.315327
0.315324
0.315321
0.315319
0.315316
0.315313
0.31531
0.315308
0.315305
0.315302
0.315299
0.315297
0.315294
0.315291
0.315288
0.315286
0.315283
0.31528
0.315277
0.315274
0.315272
0.315269
0.315266
0.315263
0.315261
0.315258
0.315255
0.315252
0.31525
0.315247
0.315244
0.315241
0.315239
0.315236
0.315233
0.31523
0.315227
0.315225
0.315222
0.315219
0.315216
0.315213
0.315211
0.315208
0.315205
0.315202
0.3152
0.315197
0.315194
0.315191
0.315188
0.315186
0.315183
0.31518
0.315177
0.315174
0.315172
0.315169
0.315166
0.315163
0.315161
0.315158
0.315155
0.315152
0.315149
0.315147
0.315144
0.315141
0.315138
0.315135
0.315133
0.31513
0.315127
0.315124
0.315121
0.315119
0.315116
0.315113
0.31511
0.315107
0.315105
0.315102
0.315099
0.315096
0.315093
0.31509
0.315088
0.315085
0.315082
0.315079
0.315076
0.315074
0.315071
0.315068
0.315065
0.315062
0.31506
0.315057
0.315054
0.315051
0.315048
0.315045
0.315043
0.31504
0.315037
0.315034
0.315031
0.315029
0.315026
0.315023
0.31502
0.315017
0.315014
0.315012
0.315009
0.315006
0.315003
0.315
0.314997
0.314995
0.314992
0.314989
0.314986
0.314983
0.31498
0.314978
0.314975
0.314972
0.314969
0.314966
0.314963
0.314961
0.314958
0.314955
0.314952
0.314949
0.314946
0.314944
0.314941
0.314938
0.314935
0.314932
0.314929
0.314926
0.314924
0.314921
0.314918
0.314915
0.314912
0.314909
0.314906
0.314904
0.314901
0.314898
0.314895
0.314892
0.314889
0.314887
0.314884
0.314881
0.314878
0.314875
0.314872
0.314869
0.314866
0.314864
0.314861
0.314858
0.314855
0.314852
0.314849
0.314846
0.314844
0.314841
0.314838
0.314835
0.314832
0.314829
0.314826
0.314824
0.314821
0.314818
0.314815
0.314812
0.314809
0.314806
0.314803
0.314801
0.314798
0.314795
0.314792
0.314789
0.314786
0.314783
0.31478
0.314777
0.314775
0.314772
0.314769
0.314766
0.314763
0.31476
0.314757
0.314754
0.314752
0.314749
0.314746
0.314743
0.31474
0.314737
0.314734
0.314731
0.314728
0.314726
0.314723
0.31472
0.314717
0.314714
0.314711
0.314708
0.314705
0.314702
0.314699
0.314697
0.314694
0.314691
0.314688
0.314685
0.314682
0.314679
0.314676
0.314673
0.31467
0.314668
0.314665
0.314662
0.314659
0.314656
0.314653
0.31465
0.314647
0.314644
0.314641
0.314638
0.314636
0.314633
0.31463
0.314627
0.314624
0.314621
0.314618
0.314615
0.314612
0.314609
0.314606
0.314603
0.3146
0.314598
0.314595
0.314592
0.314589
0.314586
0.314583
0.31458
0.314577
0.314574
0.314571
0.314568
0.314565
0.314562
0.31456
0.314557
0.314554
0.314551
0.314548
0.314545
0.314542
0.314539
0.314536
0.314533
0.31453
0.314527
0.314524
0.314521
0.314518
0.314516
0.314513
0.31451
0.314507
0.314504
0.314501
0.314498
0.314495
0.314492
0.314489
0.314486
0.314483
0.31448
0.314477
0.314474
0.314471
0.314468
0.314465
0.314462
0.31446
0.314457
0.314454
0.314451
0.314448
0.314445
0.314442
0.314439
0.314436
0.314433
0.31443
0.314427
0.314424
0.314421
0.314418
0.314415
0.314412
0.314409
0.314406
0.314403
0.3144
0.314397
0.314394
0.314391
0.314388
0.314385
0.314383
0.31438
0.314377
0.314374
0.314371
0.314368
0.314365
0.314362
0.314359
0.314356
0.314353
0.31435
0.314347
0.314344
0.314341
0.314338
0.314335
0.314332
0.314329
0.314326
0.314323
0.31432
0.314317
0.314314
0.314311
0.314308
0.314305
0.314302
0.314299
0.314296
0.314293
0.31429
0.314287
0.314284
0.314281
0.314278
0.314275
0.314272
0.314269
0.314266
0.314263
0.31426
0.314257
0.314254
0.314251
0.314248
0.314245
0.314242
0.314239
0.314236
0.314233
0.31423
0.314227
0.314224
0.314221
0.314218
0.314215
0.314212
0.314209
0.314206
0.314203
0.3142
0.314197
0.314194
0.314191
0.314188
0.314185
0.314182
0.314179
0.314176
0.314173
0.31417
0.314167
0.314164
0.314161
0.314158
0.314155
0.314152
0.314149
0.314146
0.314143
0.31414
0.314137
0.314134
0.314131
0.314128
0.314125
0.314122
0.314119
0.314116
0.314113
0.31411
0.314107
0.314104
0.314101
0.314097
0.314094
0.314091
0.314088
0.314085
0.314082
0.314079
0.314076
0.314073
0.31407
0.314067
0.314064
0.314061
0.314058
0.314055
0.314052
0.314049
0.314046
0.314043
0.31404
0.314037
0.314034
0.314031
0.314028
0.314025
0.314021
0.314018
0.314015
0.314012
0.314009
0.314006
0.314003
0.314
0.313997
0.313994
0.313991
0.313988
0.313985
0.313982
0.313979
0.313976
0.313973
0.31397
0.313967
0.313963
0.31396
0.313957
0.313954
0.313951
0.313948
0.313945
0.313942
0.313939
0.313936
0.313933
0.31393
0.313927
0.313924
0.313921
0.313917
0.313914
0.313911
0.313908
0.313905
0.313902
0.313899
0.313896
0.313893
0.31389
0.313887
0.313884
0.313881
0.313878
0.313874
0.313871
0.313868
0.313865
0.313862
0.313859
0.313856
0.313853
0.31385
0.313847
0.313844
0.313841
0.313837
0.313834
0.313831
0.313828
0.313825
0.313822
0.313819
0.313816
0.313813
0.31381
0.313807
0.313803
0.3138
0.313797
0.313794
0.313791
0.313788
0.313785
0.313782
0.313779
0.313776
0.313773
0.313769
0.313766
0.313763
0.31376
0.313757
0.313754
0.313751
0.313748
0.313745
0.313741
0.313738
0.313735
0.313732
0.313729
0.313726
0.313723
0.31372
0.313717
0.313714
0.31371
0.313707
0.313704
0.313701
0.313698
0.313695
0.313692
0.313689
0.313685
0.313682
0.313679
0.313676
0.313673
0.31367
0.313667
0.313664
0.313661
0.313657
0.313654
0.313651
0.313648
0.313645
0.313642
0.313639
0.313635
0.313632
0.313629
0.313626
0.313623
0.31362
0.313617
0.313614
0.31361
0.313607
0.313604
0.313601
0.313598
0.313595
0.313592
0.313589
0.313585
0.313582
0.313579
0.313576
0.313573
0.31357
0.313567
0.313563
0.31356
0.313557
0.313554
0.313551
0.313548
0.313545
0.313541
0.313538
0.313535
0.313532
0.313529
0.313526
0.313522
0.313519
0.313516
0.313513
0.31351
0.313507
0.313504
0.3135
0.313497
0.313494
0.313491
0.313488
0.313485
0.313481
0.313478
0.313475
0.313472
0.313469
0.313466
0.313462
0.313459
0.313456
0.313453
0.31345
0.313447
0.313443
0.31344
0.313437
0.313434
0.313431
0.313428
0.313424
0.313421
0.313418
0.313415
0.313412
0.313409
0.313405
0.313402
0.313399
0.313396
0.313393
0.31339
0.313386
0.313383
0.31338
0.313377
0.313374
0.31337
0.313367
0.313364
0.313361
0.313358
0.313355
0.313351
0.313348
0.313345
0.313342
0.313339
0.313335
0.313332
0.313329
0.313326
0.313323
0.313319
0.313316
0.313313
0.31331
0.313307
0.313304
0.3133
0.313297
0.313294
0.313291
0.313288
0.313284
0.313281
0.313278
0.313275
0.313272
0.313268
0.313265
0.313262
0.313259
0.313256
0.313252
0.313249
0.313246
0.313243
0.313239
0.313236
0.313233
0.31323
0.313227
0.313223
0.31322
0.313217
0.313214
0.313211
0.313207
0.313204
0.313201
0.313198
0.313195
0.313191
0.313188
0.313185
0.313182
0.313178
0.313175
0.313172
0.313169
0.313166
0.313162
0.313159
0.313156
0.313153
0.313149
0.313146
0.313143
0.31314
0.313137
0.313133
0.31313
0.313127
0.313124
0.31312
0.313117
0.313114
0.313111
0.313107
0.313104
0.313101
0.313098
0.313094
0.313091
0.313088
0.313085
0.313082
0.313078
0.313075
0.313072
0.313069
0.313065
0.313062
0.313059
0.313056
0.313052
0.313049
0.313046
0.313043
0.313039
0.313036
0.313033
0.31303
0.313026
0.313023
0.31302
0.313017
0.313013
0.31301
0.313007
0.313004
0.313
0.312997
0.312994
0.312991
0.312987
0.312984
0.312981
0.312978
0.312974
0.312971
0.312968
0.312965
0.312961
0.312958
0.312955
0.312951
0.312948
0.312945
0.312942
0.312938
0.312935
0.312932
0.312929
0.312925
0.312922
0.312919
0.312916
0.312912
0.312909
0.312906
0.312902
0.312899
0.312896
0.312893
0.312889
0.312886
0.312883
0.31288
0.312876
0.312873
0.31287
0.312866
0.312863
0.31286
0.312857
0.312853
0.31285
0.312847
0.312843
0.31284
0.312837
0.312834
0.31283
0.312827
0.312824
0.31282
0.312817
0.312814
0.312811
0.312807
0.312804
0.312801
0.312797
0.312794
0.312791
0.312788
0.312784
0.312781
0.312778
0.312774
0.312771
0.312768
0.312764
0.312761
0.312758
0.312755
0.312751
0.312748
0.312745
0.312741
0.312738
0.312735
0.312731
0.312728
0.312725
0.312722
0.312718
0.312715
0.312712
0.312708
0.312705
0.312702
0.312698
0.312695
0.312692
0.312688
0.312685
0.312682
0.312678
0.312675
0.312672
0.312669
0.312665
0.312662
0.312659
0.312655
0.312652
0.312649
0.312645
0.312642
0.312639
0.312635
0.312632
0.312629
0.312625
0.312622
0.312619
0.312615
0.312612
0.312609
0.312605
0.312602
0.312599
0.312595
0.312592
0.312589
0.312585
0.312582
0.312579
0.312575
0.312572
0.312569
0.312565
0.312562
0.312559
0.312555
0.312552
0.312549
0.312545
0.312542
0.312539
0.312535
0.312532
0.312529
0.312525
0.312522
0.312519
0.312515
0.312512
0.312509
0.312505
0.312502
0.312499
0.312495
0.312492
0.312489
0.312485
0.312482
0.312478
0.312475
0.312472
0.312468
0.312465
0.312462
0.312458
0.312455
0.312452
0.312448
0.312445
0.312442
0.312438
0.312435
0.312431
0.312428
0.312425
0.312421
0.312418
0.312415
0.312411
0.312408
0.312405
0.312401
0.312398
0.312394
0.312391
0.312388
0.312384
0.312381
0.312378
0.312374
0.312371
0.312368
0.312364
0.312361
0.312357
0.312354
0.312351
0.312347
0.312344
0.312341
0.312337
0.312334
0.31233
0.312327
0.312324
0.31232
0.312317
0.312314
0.31231
0.312307
0.312303
0.3123
0.312297
0.312293
0.31229
0.312286
0.312283
0.31228
0.312276
0.312273
0.31227
0.312266
0.312263
0.312259
0.312256
0.312253
0.312249
0.312246
0.312242
0.312239
0.312236
0.312232
0.312229
0.312225
0.312222
0.312219
0.312215
0.312212
0.312208
0.312205
0.312202
0.312198
0.312195
0.312191
0.312188
0.312185
0.312181
0.312178
0.312174
0.312171
0.312168
0.312164
0.312161
0.312157
0.312154
0.312151
0.312147
0.312144
0.31214
0.312137
0.312134
0.31213
0.312127
0.312123
0.31212
0.312116
0.312113
0.31211
0.312106
0.312103
0.312099
0.312096
0.312093
0.312089
0.312086
0.312082
0.312079
0.312075
0.312072
0.312069
0.312065
0.312062
0.312058
0.312055
0.312051
0.312048
0.312045
0.312041
0.312038
0.312034
0.312031
0.312027
0.312024
0.312021
0.312017
0.312014
0.31201
0.312007
0.312003
0.312
0.311997
0.311993
0.31199
0.311986
0.311983
0.311979
0.311976
0.311973
0.311969
0.311966
0.311962
0.311959
0.311955
0.311952
0.311948
0.311945
0.311942
0.311938
0.311935
0.311931
0.311928
0.311924
0.311921
0.311917
0.311914
0.311911
0.311907
0.311904
0.3119
0.311897
0.311893
0.31189
0.311886
0.311883
0.311879
0.311876
0.311873
0.311869
0.311866
0.311862
0.311859
0.311855
0.311852
0.311848
0.311845
0.311841
0.311838
0.311834
0.311831
0.311828
0.311824
0.311821
0.311817
0.311814
0.31181
0.311807
0.311803
0.3118
0.311796
0.311793
0.311789
0.311786
0.311782
0.311779
0.311776
0.311772
0.311769
0.311765
0.311762
0.311758
0.311755
0.311751
0.311748
0.311744
0.311741
0.311737
0.311734
0.31173
0.311727
0.311723
0.31172
0.311716
0.311713
0.311709
0.311706
0.311703
0.311699
0.311696
0.311692
0.311689
0.311685
0.311682
0.311678
0.311675
0.311671
0.311668
0.311664
0.311661
0.311657
0.311654
0.31165
0.311647
0.311643
0.31164
0.311636
0.311633
0.311629
0.311626
0.311622
0.311619
0.311615
0.311612
0.311608
0.311605
0.311601
0.311598
0.311594
0.311591
0.311587
0.311584
0.31158
0.311577
0.311573
0.31157
0.311566
0.311563
0.311559
0.311556
0.311552
0.311549
0.311545
0.311542
0.311538
0.311535
0.311531
0.311528
0.311524
0.311521
0.311517
0.311514
0.31151
0.311507
0.311503
0.3115
0.311496
0.311493
0.311489
0.311486
0.311482
0.311479
0.311475
0.311471
0.311468
0.311464
0.311461
0.311457
0.311454
0.31145
0.311447
0.311443
0.31144
0.311436
0.311433
0.311429
0.311426
0.311422
0.311419
0.311415
0.311412
0.311408
0.311405
0.311401
0.311397
0.311394
0.31139
0.311387
0.311383
0.31138
0.311376
0.311373
0.311369
0.311366
0.311362
0.311359
0.311355
0.311352
0.311348
0.311344
0.311341
0.311337
0.311334
0.31133
0.311327
0.311323
0.31132
0.311316
0.311313
0.311309
0.311306
0.311302
0.311298
0.311295
0.311291
0.311288
0.311284
0.311281
0.311277
0.311274
0.31127
0.311267
0.311263
0.311259
0.311256
0.311252
0.311249
0.311245
0.311242
0.311238
0.311235
0.311231
0.311228
0.311224
0.31122
0.311217
0.311213
0.31121
0.311206
0.311203
0.311199
0.311196
0.311192
0.311188
0.311185
0.311181
0.311178
0.311174
0.311171
0.311167
0.311163
0.31116
0.311156
0.311153
0.311149
0.311146
0.311142
0.311139
0.311135
0.311131
0.311128
0.311124
0.311121
0.311117
0.311114
0.31111
0.311106
0.311103
0.311099
0.311096
0.311092
0.311089
0.311085
0.311081
0.311078
0.311074
0.311071
0.311067
0.311064
0.31106
0.311056
0.311053
0.311049
0.311046
0.311042
0.311039
0.311035
0.311031
0.311028
0.311024
0.311021
0.311017
0.311013
0.31101
0.311006
0.311003
0.310999
0.310996
0.310992
0.310988
0.310985
0.310981
0.310978
0.310974
0.31097
0.310967
0.310963
0.31096
0.310956
0.310953
0.310949
0.310945
0.310942
0.310938
0.310935
0.310931
0.310927
0.310924
0.31092
0.310917
0.310913
0.310909
0.310906
0.310902
0.310899
0.310895
0.310891
0.310888
0.310884
0.310881
0.310877
0.310873
0.31087
0.310866
0.310863
0.310859
0.310855
0.310852
0.310848
0.310845
0.310841
0.310837
0.310834
0.31083
0.310827
0.310823
0.310819
0.310816
0.310812
0.310809
0.310805
0.310801
0.310798
0.310794
0.310791
0.310787
0.310783
0.31078
0.310776
0.310773
0.310769
0.310765
0.310762
0.310758
0.310755
0.310751
0.310747
0.310744
0.31074
0.310736
0.310733
0.310729
0.310726
0.310722
0.310718
0.310715
0.310711
0.310708
0.310704
0.3107
0.310697
0.310693
0.310689
0.310686
0.310682
0.310679
0.310675
0.310671
0.310668
0.310664
0.310661
0.310657
0.310653
0.31065
0.310646
0.310642
0.310639
0.310635
0.310632
0.310628
0.310624
0.310621
0.310617
0.310613
0.31061
0.310606
0.310603
0.310599
0.310595
0.310592
0.310588
0.310584
0.310581
0.310577
0.310574
0.31057
0.310566
0.310563
0.310559
0.310555
0.310552
0.310548
0.310544
0.310541
0.310537
0.310534
0.31053
0.310526
0.310523
0.310519
0.310515
0.310512
0.310508
0.310505
0.310501
0.310497
0.310494
0.31049
0.310486
0.310483
0.310479
0.310475
0.310472
0.310468
0.310465
0.310461
0.310457
0.310454
0.31045
0.310446
0.310443
0.310439
0.310435
0.310432
0.310428
0.310424
0.310421
0.310417
0.310414
0.31041
0.310406
0.310403
0.310399
0.310395
0.310392
0.310388
0.310384
0.310381
0.310377
0.310373
0.31037
0.310366
0.310363
0.310359
0.310355
0.310352
0.310348
0.310344
0.310341
0.310337
0.310333
0.31033
0.310326
0.310322
0.310319
0.310315
0.310311
0.310308
0.310304
0.310301
0.310297
0.310293
0.31029
0.310286
0.310282
0.310279
0.310275
0.310271
0.310268
0.310264
0.31026
0.310257
0.310253
0.310249
0.310246
0.310242
0.310238
0.310235
0.310231
0.310227
0.310224
0.31022
0.310216
0.310213
0.310209
0.310206
0.310202
0.310198
0.310195
0.310191
0.310187
0.310184
0.31018
0.310176
0.310173
0.310169
0.310165
0.310162
0.310158
0.310154
0.310151
0.310147
0.310143
0.31014
0.310136
0.310132
0.310129
0.310125
0.310121
0.310118
0.310114
0.31011
0.310107
0.310103
0.310099
0.310096
0.310092
0.310088
0.310085
0.310081
0.310077
0.310074
0.31007
0.310067
0.310063
0.310059
0.310056
0.310052
0.310048
0.310045
0.310041
0.310037
0.310034
0.31003
0.310026
0.310023
0.310019
0.310015
0.310012
0.310008
0.310004
0.310001
0.309997
0.309993
0.30999
0.309986
0.309982
0.309979
0.309975
0.309971
0.309968
0.309964
0.30996
0.309957
0.309953
0.309949
0.309946
0.309942
0.309938
0.309935
0.309931
0.309927
0.309924
0.30992
0.309916
0.309913
0.309909
0.309905
0.309902
0.309898
0.309894
0.309891
0.309887
0.309883
0.30988
0.309876
0.309872
0.309869
0.309865
0.309861
0.309858
0.309854
0.30985
0.309847
0.309843
0.309839
0.309836
0.309832
0.309828
0.309825
0.309821
0.309817
0.309814
0.30981
0.309806
0.309803
0.309799
0.309795
0.309792
0.309788
0.309784
0.309781
0.309777
0.309773
0.30977
0.309766
0.309763