/*--------------------------------*- C++ -*----------------------------------*\
  =========                 |
  \\      /  F ield         | OpenFOAM: The Open Source CFD Toolbox
   \\    /   O peration     | Website:  https://openfoam.org
    \\  /    A nd           | Version:  9
     \\/     M anipulation  |
\*---------------------------------------------------------------------------*/
FoamFile
{
    format      ascii;
    class       volScalarField;
    location    "0.003";
    object      p;
}
// * * * * * * * * * * * * * * * * * * * * * * * * * * * * * * * * * * * * * //

dimensions      [1 -1 -2 0 0 0 0];

internalField   nonuniform List<scalar> 
1000
(
100000
100000
100000
100000
100000
100000
100000
100000
100000
100000
100000
100000
100000
100000
100000
100000
100000
100000
100000
100000
100000
100000
100000
100000
100000
100000
100000
100000
100000
100000
100000
100000
100000
100000
100000
100000
100000
100000
100000
100000
100000
100000
100000
100000
100000
100000
100000
100000
100000
100000
100000
100000
100000
100000
100000
100000
100000
100000
100000
100000
100000
100000
100000
100000
100000
100000
100000
100000
100000
100000
100000
100000
100000
100000
100000
100000
100000
100000
100000
100000
100000
100000
100000
100000
100000
100000
100000
100000
100000
100000
100000
100000
100000
100000
100000
100000
100000
100000
100000
100000
100000
100000
100000
100000
100000
100000
100000
100000
100000
100000
100000
100000
100000
100000
100000
100000
100000
100000
100000
100000
100000
100000
100000
100000
100000
100000
100000
100000
100000
100000
100000
100000
100000
100000
100000
100000
100000
100000
100000
100000
100000
100000
100000
100000
100000
100000
100000
100000
100000
100000
100000
100000
100000
100000
100000
100000
100000
100000
100000
100000
100000
100000
100000
100000
100000
100000
100000
100000
100000
100000
100000
100000
100000
100000
100000
100000
100000
100000
100000
100000
100000
100000
100000
100000
100000
100000
100000
100000
100000
100000
100000
100000
100000
100000
100000
100000
100000
100000
100000
100000
100000
100000
100000
100000
100000
100000
100000
100000
100000
100000
100000
100000
100000
100000
100000
100000
100000
100000
100000
100000
100000
100000
100000
100000
100000
100000
100000
100000
100000
100000
100000
100000
100000
100000
100000
100000
100000
100000
100000
100000
100000
100000
100000
100000
100000
100000
100000
100000
100000
100000
100000
100000
100000
100000
100000
100000
100000
100000
100000
100000
100000
100000
100000
100000
100000
100000
100000
100000
100000
100000
100000
100000
100000
100000
100000
100000
100000
100000
100000
100000
100000
100000
100000
100000
100000
100000
100000
100000
100000
100000
100000
100000
100000
100000
100000
100000
100000
100000
100000
100000
100000
100000
100000
100000
100000
100000
100000
100000
100000
100000
100000
100000
100000
100000
100000
100000
100000
100000
100000
100000
100000
100000
100000
100000
100000
100000
100000
100000
100000
100000
100000
100000
100000
100000
100000
100000
100000
100000
100000
100000
100000
100000
100000
100000
100000
100000
100000
100000
100000
100000
100000
100000
100000
100000
100000
100000
100000
100000
100000
100000
100000
100000
100000
100000
99999.9
99999.8
99999.7
99999.3
99998.8
99997.7
99995.9
99992.7
99987.2
99977.9
99962.8
99938.4
99900.2
99841.7
99754.5
99628.2
99450.7
99209.7
98894.8
98503.3
98043.2
97522.8
96947.7
96323.7
95657.1
94954.3
94221.5
93464.5
92688.1
91896.6
91093.5
90281.7
89463.7
88641.5
87816.7
86990.5
86164.2
85338.7
84514.6
83692.8
82873.7
82057.8
81245.5
80437.1
79633
78833.4
78038.5
77248.5
76463.5
75683.8
74909.4
74140.4
73376.9
72619
71866.8
71120.3
70379.6
69644.7
68915.6
68192.4
67475.1
66763.6
66058.1
65358.5
64664.7
63976.9
63295.1
62619.1
61949
61284.8
60626.5
59974
59327.4
58686.7
58051.7
57422.6
56799.3
56181.8
55570.1
54964.1
54363.9
53769.3
53180.8
52597.2
52020.4
51447.5
50882.4
50320.8
49766.4
49217
48672.7
48134.6
47601.3
47074.3
46552.7
46036
45525.6
45020.6
44520.8
44027
43538.7
43056
42579.1
42107.7
41642.3
41182.8
40729
40281.1
39839.6
39404.3
38974.9
38552.1
38136
37726.7
37324
36928.5
36540.6
36160.3
35787.9
35423.6
35068
34721.7
34384.7
34057.3
33740.1
33433.7
33139
32856.6
32587.1
32330.7
32087.9
31860
31647
31449.5
31267.4
31101.5
30954.9
30823.6
30705.6
30602.9
30513.9
30437.3
30368.2
30312.5
30267.5
30230.4
30194.1
30161.7
30144.7
30125
30116.2
30116.4
30117.5
30120.7
30128
30143.7
30170.4
30213.1
30260.7
30295.7
30322.5
30339.2
30341.9
30341.6
30340.4
30337.9
30332.9
30325.4
30320.8
30319.1
30318.1
30318
30318.2
30318.4
30318.6
30319.1
30318.9
30319.2
30320.1
30319.1
30320.8
30321.9
30317.6
30315.7
30315.9
30315.7
30315
30315.6
30315.7
30315
30316.9
30314.7
30310.3
30310.1
30310.4
30311.3
30311.4
30311.7
30310.9
30310.4
30310.8
30311.9
30308.6
30307.7
30312.2
30313.8
30318.3
30318.6
30310.6
30308.4
30313.1
30314.8
30309.8
30307
30310.7
30313.3
30310
30309.5
30311.2
30320.7
30320.2
30280.8
30287.4
30326.8
30321.3
30309.4
30313
30314.4
30305.6
30306.9
30310.6
30297
30303
30325.4
30313.6
30291.6
30292.4
30328.4
30334.5
30285.8
30270.2
30330.1
30353.9
30319.1
30291.4
30294.5
30307.1
30307.7
30304.8
30304
30305.7
30304.3
30302.4
30303.4
30304
30302.6
30302.8
30304
30301.8
30303.5
30307
30306.2
30304.8
30307.9
30309.2
30304.1
30303.2
30305.9
30306.5
30305
30309.9
30311.8
30308.7
30309.9
30325.3
30338.3
30340.9
30338.8
30320.9
30315.8
30347.3
30360.5
30300.7
30274.9
30310.1
30344.9
30343.5
30261.8
30171
30133.2
30132.2
30056.1
30037
30029.8
30048.4
30072.1
30036
29949.2
29855.4
29657.9
29253
28423.9
26270.8
17085.4
11244.2
10193.1
10028.9
10004.3
10000.6
10000.1
10000
10000
10000
10000
10000
10000
10000
10000
10000
10000
10000
10000
10000
10000
10000
10000
10000
10000
10000
10000
10000
10000
10000
10000
10000
10000
10000
10000
10000
10000
10000
10000
10000
10000
10000
10000
10000
10000
10000
10000
10000
10000
10000
10000
10000
10000
10000
10000
10000
10000
10000
10000
10000
10000
10000
10000
10000
10000
10000
10000
10000
10000
10000
10000
10000
10000
10000
10000
10000
10000
10000
10000
10000
10000
10000
10000
10000
10000
10000
10000
10000
10000
10000
10000
10000
10000
10000
10000
10000
10000
10000
10000
10000
10000
10000
10000
10000
10000
10000
10000
10000
10000
10000
10000
10000
10000
10000
10000
10000
10000
10000
10000
10000
10000
10000
10000
10000
10000
10000
10000
10000
10000
10000
10000
10000
10000
10000
10000
10000
10000
10000
10000
10000
10000
10000
10000
10000
10000
10000
10000
10000
10000
10000
10000
10000
10000
10000
10000
10000
10000
10000
10000
10000
10000
10000
10000
10000
10000
10000
10000
10000
10000
10000
10000
10000
10000
10000
10000
10000
10000
10000
10000
10000
10000
10000
10000
10000
10000
10000
10000
10000
10000
10000
10000
10000
10000
10000
10000
10000
10000
10000
10000
10000
10000
10000
10000
10000
10000
10000
10000
10000
10000
10000
10000
10000
10000
10000
10000
10000
10000
10000
10000
10000
10000
10000
10000
10000
10000
10000
10000
10000
10000
10000
10000
10000
10000
10000
10000
10000
10000
10000
10000
10000
10000
10000
10000
10000
10000
10000
10000
10000
10000
10000
10000
10000
10000
10000
10000
10000
10000
10000
10000
10000
10000
10000
10000
10000
10000
10000
10000
10000
10000
10000
10000
10000
10000
10000
10000
10000
10000
10000
10000
10000
10000
10000
10000
10000
10000
10000
10000
10000
10000
10000
10000
10000
10000
10000
10000
10000
10000
10000
10000
10000
10000
10000
10000
10000
10000
10000
10000
10000
10000
10000
10000
10000
10000
10000
10000
10000
10000
10000
10000
10000
10000
10000
10000
10000
10000
10000
10000
10000
10000
10000
10000
10000
10000
)
;

boundaryField
{
    sides
    {
        type            zeroGradient;
    }
    empty
    {
        type            empty;
    }
}


// ************************************************************************* //
