/*--------------------------------*- C++ -*----------------------------------*\
  =========                 |
  \\      /  F ield         | OpenFOAM: The Open Source CFD Toolbox
   \\    /   O peration     | Website:  https://openfoam.org
    \\  /    A nd           | Version:  9
     \\/     M anipulation  |
\*---------------------------------------------------------------------------*/
FoamFile
{
    format      ascii;
    class       volScalarField;
    location    "0.01";
    object      ddt0(p);
}
// * * * * * * * * * * * * * * * * * * * * * * * * * * * * * * * * * * * * * //

dimensions      [1 -1 -3 0 0 0 0];

internalField   nonuniform List<scalar> 
10000
(
-2.56261e-05
6.14718e-05
2.3847e-05
0.000148505
-0.000123087
9.30434e-05
-7.89743e-05
-0.000109784
-0.000148645
-6.96693e-05
2.99875e-05
4.59525e-05
0.000137725
0.000115275
-1.76275e-05
1.36309e-05
2.40745e-05
8.37775e-05
0.000113166
-0.000146861
-3.13547e-05
4.60681e-05
5.49452e-05
1.25265e-05
-0.000109295
-0.000156683
-0.000156797
3.17617e-05
4.48115e-05
-2.24532e-05
-3.24356e-05
7.81655e-05
-0.000152662
7.97813e-06
-0.000121883
-2.39413e-05
1.15037e-05
1.90749e-05
2.6124e-05
-8.64107e-05
5.1307e-05
-0.000116395
-5.46678e-05
0.000176028
4.53949e-05
7.71285e-05
4.42905e-05
-7.11444e-05
1.61514e-05
-0.000119991
6.29046e-05
-6.63982e-05
-5.58771e-05
8.00501e-05
0.000130022
2.99283e-05
0.000119553
-0.000113701
4.37619e-05
4.37203e-05
6.73861e-05
-3.90027e-05
-0.000135769
-5.34959e-05
2.0687e-05
0.000105121
-6.42352e-05
2.77346e-06
-3.1383e-05
1.52376e-05
0.000228976
5.19286e-05
4.04204e-05
0.000126319
7.52446e-05
-3.21181e-05
4.03196e-05
-4.04709e-06
8.37236e-06
0.000101174
-0.00012433
8.97782e-05
-6.15191e-05
2.7692e-05
0.000115331
7.98371e-05
6.18146e-05
-2.26206e-05
1.17347e-06
9.37727e-05
-0.000110941
-1.3103e-05
-5.49233e-05
-6.32574e-05
-0.000192507
5.12818e-05
-5.92132e-05
1.97448e-05
-6.14805e-05
0.000111248
1.24702e-05
-9.77801e-05
-4.13679e-05
-2.49131e-05
-9.7849e-05
-0.000248517
-2.77104e-05
5.87006e-05
1.74907e-05
2.52804e-05
5.4086e-05
-1.05349e-05
1.52013e-05
5.38914e-05
0.00021576
7.756e-05
-3.99882e-05
1.55548e-05
-7.47542e-05
-5.43632e-05
-0.000121491
3.33325e-05
-0.0001272
-0.000234301
-6.40021e-05
9.62561e-05
-8.23346e-05
4.20203e-05
-3.79313e-05
-0.000199078
1.8888e-05
0.000171697
-9.37758e-05
-5.79231e-05
-3.77681e-05
9.59745e-06
4.41386e-05
1.22428e-05
-4.25834e-05
-9.66297e-05
2.63991e-05
0.000115484
4.31747e-05
-0.000114038
-7.47753e-05
0.000157504
7.67177e-05
-3.43738e-05
7.25072e-06
6.14844e-06
6.27177e-05
-7.1306e-05
-1.37818e-05
2.22325e-05
9.66166e-05
0.000109819
-0.000106144
-3.10453e-05
-0.000176931
-0.000292227
-9.91833e-05
-0.000138192
-5.02861e-05
-3.13309e-05
-4.11282e-05
3.61294e-05
-9.55378e-05
4.51246e-06
-7.05974e-05
-8.34584e-05
-0.000110158
7.65856e-05
0.000199912
-2.48464e-05
-2.41898e-06
0.000210225
-1.60967e-05
-4.15695e-05
9.90221e-05
0.00012046
1.26529e-05
0.000167659
0.000188281
0.00012547
8.9664e-05
0.000308274
0.000100305
1.22963e-05
2.26147e-05
4.71556e-05
-5.64587e-05
8.22736e-05
-7.55264e-05
6.7424e-05
-3.38351e-06
9.22623e-05
-0.000156944
3.25888e-05
6.06173e-05
5.1028e-05
-0.00010506
-0.000265383
-6.46955e-05
-9.27517e-05
0.000177037
4.02356e-05
-4.82413e-05
-6.72305e-05
-0.000116832
-0.000216771
1.02348e-06
-0.000104354
4.05277e-05
6.05073e-05
-5.87817e-05
-4.03572e-05
-5.11514e-05
0.00016374
-0.000171792
-4.83522e-05
-0.000128148
0.000111034
9.96063e-05
6.41712e-05
0.000136796
1.06364e-05
-4.47997e-05
-2.02351e-05
4.88425e-05
-8.23787e-05
0.000140181
-0.000133815
-5.43424e-05
2.27435e-05
-3.96927e-05
8.42163e-05
6.74294e-05
6.79815e-05
-9.73549e-05
-4.79792e-05
3.43074e-05
-1.39514e-05
6.50518e-05
2.42519e-05
0.00015676
-3.72473e-05
0.000145676
5.39507e-05
3.80788e-05
0.00014151
0.000136411
0.000121677
-5.23573e-06
7.91641e-05
7.07785e-05
0.000182284
-3.76668e-05
-2.80551e-05
-3.96977e-05
4.17143e-05
-0.000321491
-7.28839e-05
-0.000372987
-0.000247421
-7.60678e-05
-0.00012875
-1.88528e-06
-9.28642e-05
-4.65801e-05
8.33198e-05
8.60169e-06
1.71583e-05
-0.000167334
7.30855e-05
-4.34222e-05
3.88498e-06
-0.000143317
9.12367e-05
-3.00587e-05
-3.594e-05
6.25545e-05
1.34385e-05
4.3192e-05
-7.26165e-05
-2.77657e-05
3.64082e-05
-5.32709e-05
-1.70661e-05
-0.000144358
0.000127833
-2.55318e-05
5.38588e-05
4.47578e-05
0.000190285
-1.21882e-05
0.000173284
0.00015385
-1.46653e-05
2.72779e-05
-6.62738e-05
3.87499e-05
6.32627e-05
-3.80485e-05
8.01508e-05
-0.000181901
-0.000152074
-0.000273459
4.45961e-05
2.83628e-05
8.89388e-05
-0.000207102
-4.81426e-05
6.60354e-05
-0.000213526
-6.89792e-05
7.24914e-05
-0.000132764
-4.76639e-06
4.18756e-05
7.41658e-05
2.61286e-07
-2.44654e-05
-9.9149e-05
-0.000148765
3.11802e-05
-3.96404e-05
0.00016655
6.24852e-05
-0.000139005
-4.70485e-05
3.38997e-05
3.66151e-05
-8.33402e-05
8.47213e-05
2.48717e-05
9.24851e-05
-3.52046e-05
-7.92422e-05
-1.06991e-05
-5.98646e-05
0.000118323
6.29099e-05
1.8619e-05
6.35912e-05
0.000128366
-7.42183e-05
6.58375e-06
5.29303e-05
3.68895e-06
-4.80405e-05
-1.44604e-05
-5.01345e-05
-0.000187143
-3.24128e-05
-8.00484e-05
9.34789e-05
-0.000126557
-3.56403e-05
3.33598e-05
9.61987e-05
-3.02245e-05
-7.77336e-05
-9.77468e-05
-6.48678e-05
-4.9053e-05
-0.000147058
-4.26983e-05
0.000102991
6.58758e-05
-5.31534e-05
-7.48004e-05
1.76567e-05
2.44045e-05
0.000109315
-3.74131e-05
-4.92788e-05
-4.46137e-05
-1.30143e-05
8.24605e-05
0.000166768
0.000134531
5.85172e-05
2.06916e-05
0.000179636
5.39631e-05
3.89194e-05
0.000134125
-6.81407e-05
0.000158066
0.000237658
9.82795e-05
-0.00010938
-0.000111469
-0.000130731
-9.83913e-05
-0.000103833
-7.09285e-05
-3.80162e-05
-8.45039e-05
-0.000119791
7.53538e-05
-6.66848e-05
1.4311e-05
1.00581e-05
-1.00293e-05
0.000246143
-1.81464e-05
-0.000173307
-2.67177e-06
4.26901e-05
-8.4991e-05
-2.17344e-05
2.28655e-05
8.3362e-05
8.69771e-05
1.78977e-05
6.87345e-05
5.04031e-05
-9.20997e-05
-0.000136897
4.10799e-05
0.000153516
-2.61976e-05
-3.93193e-05
9.79917e-05
5.28626e-05
4.03567e-05
-7.31516e-05
7.44195e-05
4.84362e-05
9.82369e-09
-5.52317e-05
1.8386e-05
5.36688e-05
-8.2793e-05
3.83363e-05
-0.000184308
-7.71446e-05
-6.84124e-06
0.000104072
-7.17149e-05
-6.90137e-05
4.06993e-05
0.000230427
0.000139371
-0.000105212
9.6257e-05
-8.6267e-05
9.07225e-05
4.32363e-06
-0.000250834
-3.74263e-05
2.73166e-05
-5.79508e-05
0.000143702
-1.60211e-05
-6.40773e-06
-6.18178e-06
-2.30353e-05
-6.34532e-05
-1.53683e-05
-4.01969e-05
3.54873e-05
3.70041e-05
7.72192e-05
9.78001e-06
-8.48334e-05
-9.21182e-05
-0.000250749
-7.18067e-05
5.90423e-05
-0.000112024
1.79203e-05
9.23648e-05
-3.30061e-06
9.60021e-05
7.99943e-06
0.000114588
-0.000227492
0.00010909
0.000149118
7.52856e-06
-0.000154099
-5.74889e-06
7.62339e-05
-9.15776e-05
-0.000104745
-2.00235e-05
8.30859e-06
-0.000146476
-8.92465e-06
-5.44672e-05
-6.96306e-05
7.11344e-05
0.000123795
-7.66174e-05
1.49984e-05
-7.0585e-05
3.61603e-05
8.55749e-05
-0.000289342
-9.34903e-05
-8.63664e-05
-4.6242e-05
0.000147582
9.95596e-05
8.5467e-05
0.000233789
-7.74162e-05
3.9928e-05
0.000105605
-2.07522e-05
0.000166077
-0.000117196
8.77e-05
0.000110961
0.000164089
6.71988e-06
-7.30653e-05
6.86693e-05
7.6765e-05
5.46141e-05
5.78528e-05
-3.95722e-05
7.19703e-05
-9.92698e-05
-0.000166122
-8.24689e-05
4.07963e-05
-5.09554e-05
0.000130192
1.7467e-05
5.39709e-05
-2.65212e-05
8.92633e-05
6.26667e-05
-5.74375e-06
4.65862e-05
-8.49565e-05
-5.589e-05
6.04048e-05
6.93807e-05
-0.000139956
9.60649e-05
0.000146495
2.2057e-05
0.000131786
-9.22037e-05
-6.61412e-05
-1.83617e-05
-8.73571e-05
-0.000207044
-9.16245e-05
1.54925e-05
-8.92592e-05
-7.81036e-05
-0.000116277
9.30471e-05
-0.000116756
8.42786e-05
-0.000238775
-0.000127044
-5.27556e-05
-5.48984e-05
-4.73571e-05
-6.55814e-05
-3.48527e-05
-0.000142696
0.000155951
-0.00017763
0.000158491
0.000156325
0.000132351
-7.36908e-05
-6.72555e-05
-1.58349e-05
-4.86669e-05
-6.49076e-05
-9.54945e-05
9.58897e-06
1.41668e-06
-0.000158992
-0.000203052
7.4873e-05
2.95548e-05
-0.000210585
-8.67462e-05
0.000143679
5.6308e-05
4.75132e-06
9.25609e-05
0.000133146
-5.80925e-05
2.20877e-05
1.51668e-05
6.67608e-05
-0.000216112
-0.000101611
-3.58374e-05
6.32053e-05
4.81035e-05
2.24372e-05
6.01676e-05
-7.42208e-05
5.1553e-05
-1.59115e-06
-2.25481e-05
7.58868e-05
6.45709e-05
-4.55561e-05
-1.58585e-05
-0.000157038
-0.000108298
3.51859e-05
7.16666e-05
0.000162757
-5.85701e-05
5.75997e-05
-2.25648e-05
-7.73107e-05
-7.53829e-05
-2.14353e-05
8.41494e-06
-1.36269e-05
0.00018224
-3.19366e-06
-3.69106e-05
-2.79163e-05
8.607e-05
0.00012638
5.28624e-05
-1.97185e-05
-4.53011e-05
-1.86538e-05
1.13277e-05
-7.86542e-06
-4.3242e-05
-9.73174e-05
0.000125889
8.99919e-06
2.62901e-06
-7.64038e-05
2.30484e-05
5.41343e-05
6.77579e-05
7.46737e-05
-2.28209e-05
5.98456e-06
4.59465e-05
7.89551e-05
5.42764e-05
-0.000205173
-2.31783e-05
4.20266e-05
5.55566e-05
-6.93616e-05
4.17638e-05
-0.000152477
-6.30302e-05
4.95593e-05
-9.0185e-05
7.31561e-06
3.32507e-05
0.000141918
-8.68274e-05
-9.06993e-05
-4.03748e-05
8.59024e-05
-9.52611e-06
5.0061e-05
0.000118937
2.87858e-05
-0.000141298
-4.77327e-05
-0.00014884
-1.88448e-05
5.5599e-05
3.53414e-05
-2.62423e-05
8.0092e-05
0.00014259
2.48685e-05
-1.73414e-05
-9.16315e-06
0.00015492
0.000223718
-9.44207e-06
-2.15399e-05
4.3454e-05
5.6676e-06
-7.1361e-05
6.6673e-05
5.01547e-05
-2.63982e-05
-1.70355e-05
0.000121231
0.000123255
0.000274567
0.000189153
-9.07048e-05
-1.21668e-05
-3.86878e-05
3.98127e-05
-0.000140283
-0.000122691
-0.000137027
-7.20605e-05
8.09423e-05
-4.26538e-05
1.79605e-05
-3.77982e-05
-0.00016311
-5.69478e-05
-9.06341e-05
7.05862e-05
2.63702e-05
-4.53623e-05
7.5123e-05
3.62662e-05
-8.04165e-06
4.16585e-05
0.000186548
0.000110097
-9.74605e-06
2.72406e-05
0.000213669
3.51798e-05
2.6453e-05
0.000151728
1.45758e-05
-3.36761e-05
-2.56918e-05
4.53288e-05
8.75151e-05
9.24219e-05
5.13044e-05
-0.000233125
-0.00016569
-5.13546e-05
2.41869e-05
3.20344e-05
-0.000178888
-0.000139656
-4.2774e-05
-0.000126081
3.43542e-05
8.28007e-05
-2.64393e-05
1.80598e-05
1.66923e-05
0.000190753
3.84958e-05
-5.28117e-06
0.000108077
0.000146482
-2.20205e-05
-0.000161991
9.63107e-05
-0.000150923
-0.000111794
-7.22616e-05
-2.1367e-05
2.61321e-05
5.45404e-05
-0.000135299
8.58435e-05
-0.000174695
4.85636e-05
6.91494e-05
2.95648e-05
2.80793e-05
4.04388e-05
4.26639e-05
0.00012018
4.78316e-05
1.48959e-05
-4.5279e-06
4.19871e-05
-7.82551e-05
-6.88834e-05
9.46926e-06
-0.000152178
-0.000103468
-1.55117e-05
-7.14039e-05
-0.000230168
0.000121842
-0.000138498
3.59896e-05
-0.000183555
5.4866e-06
-7.42599e-05
6.3978e-06
6.18355e-05
-0.000162946
-3.5279e-05
0.000132464
-2.01605e-05
-5.93933e-05
-1.84602e-05
0.000103584
-4.45664e-05
0.000146549
4.06156e-05
5.54427e-05
8.32163e-05
-8.07324e-05
1.63133e-05
0.000127254
-0.000113616
-0.000121905
-3.37387e-05
0.000156402
0.000105565
0.000126568
-6.90844e-05
4.19537e-05
5.49518e-05
-7.04416e-05
0.000114072
0.000107926
1.67932e-05
-1.39218e-05
-4.75774e-05
-9.86613e-05
-8.28694e-05
-4.79594e-05
-2.90527e-05
-5.87652e-05
7.43974e-05
0.00025043
0.000166134
-0.000110694
8.10795e-07
2.62149e-05
5.07946e-05
0.000125034
-6.31968e-05
0.000171697
3.61307e-05
-1.51148e-05
-2.42488e-05
-6.19969e-05
4.17221e-05
5.83309e-06
-5.6873e-05
-7.55333e-06
6.5344e-05
-1.27384e-05
5.59823e-05
-7.94237e-05
-6.2695e-05
-2.97128e-05
-7.89989e-05
-9.98367e-05
-0.00028466
-0.000156436
-4.10503e-05
-3.60548e-05
-0.000109416
-0.000343543
-4.60115e-05
-2.20125e-05
2.32098e-05
5.70345e-05
-1.72567e-05
6.41547e-05
0.000119758
5.19318e-06
-6.12449e-05
-0.000189175
0.00022004
0.000139444
8.59212e-06
8.78761e-05
8.25921e-05
0.000125808
-1.85139e-05
0.00013855
0.000340131
0.000194218
4.75312e-05
-1.90387e-05
3.70375e-05
-1.95053e-05
7.86227e-05
-3.48682e-05
0.000173346
-1.70232e-05
-5.61485e-05
-4.74159e-05
6.71094e-05
-1.65749e-06
-0.00010646
-7.61031e-06
0.000159141
0.000119506
-6.21064e-05
-7.7791e-05
3.6275e-05
-0.000208794
-0.000119045
-8.87097e-05
0.000103102
5.75631e-05
-9.84524e-05
0.00017018
0.000161417
-3.77668e-05
-0.000108948
3.90313e-07
-2.39421e-06
7.90315e-06
-0.000201592
-3.87048e-05
3.06141e-05
3.1602e-06
-0.000109361
-3.69032e-06
-0.000147908
-9.26321e-05
-7.65459e-05
-2.59842e-05
-4.80927e-05
-4.42428e-05
0.000112209
1.06361e-05
5.40375e-05
7.98963e-05
9.12566e-05
-0.000107929
1.91187e-06
-2.40087e-05
-7.9511e-05
1.83411e-05
-2.48589e-05
2.8857e-05
-3.13698e-05
3.39373e-06
8.6957e-05
0.000139358
0.000168608
0.000275038
-0.000146
5.51735e-05
5.73519e-05
-9.77989e-05
-6.68834e-05
-0.000129809
-1.78461e-05
-8.32258e-05
-0.000117166
3.5342e-05
-7.27704e-05
6.65868e-05
4.16135e-05
0.000141635
-4.52009e-05
-4.40255e-05
-1.76973e-05
-0.000169032
-1.60723e-05
-3.00614e-05
9.82535e-05
4.79647e-05
-6.66549e-05
1.01763e-05
1.07861e-05
2.88097e-05
0.000116149
5.19938e-05
5.17408e-05
-3.64907e-06
1.49829e-05
-8.38986e-05
-2.17529e-05
9.27588e-06
5.23076e-05
-0.000113059
1.66446e-05
-0.000120016
-2.08655e-05
-7.08059e-05
2.90596e-05
-8.05963e-05
1.13913e-05
9.39396e-05
0.000208815
-5.68034e-05
-1.89679e-05
-0.000140542
3.69216e-05
-0.000199713
-5.32827e-05
-3.06176e-05
3.10534e-05
-0.000153939
-2.36907e-05
0.000242884
-1.53089e-05
-0.000131651
1.37599e-05
-0.000204226
-3.72192e-05
0.000110929
7.44039e-05
-6.37196e-05
3.10956e-06
-5.05985e-05
1.81988e-05
0.000147504
-4.31055e-05
3.50348e-05
9.17389e-06
-1.5914e-05
-9.54102e-05
2.69784e-06
-6.09975e-06
0.000100288
5.41625e-05
7.6402e-05
0.0002605
-2.2745e-05
3.51631e-05
0.000190857
8.36132e-05
-9.49762e-06
-7.32966e-06
-3.5745e-05
-3.86629e-05
-0.000165218
9.04703e-05
-2.14529e-05
-0.000100166
3.47861e-05
-0.000170461
-1.05681e-05
-0.000132255
0.000177444
-2.30336e-05
1.2262e-05
0.000107146
1.50496e-05
2.73388e-05
1.38198e-05
-0.000137914
0.000106519
2.09085e-05
0.000116971
8.46965e-05
-4.04218e-05
8.75783e-05
0.00013849
0.000132869
7.94435e-05
-3.60513e-05
-9.98325e-05
-0.000127814
-4.1734e-05
-1.25412e-06
0.000224895
0.000130099
0.000103426
7.3944e-05
0.000101126
-2.50624e-05
2.80098e-05
7.11048e-05
5.33336e-05
1.06671e-05
-3.27444e-06
-7.38796e-05
4.92553e-06
0.00010484
-5.38173e-05
-6.1294e-05
-3.06805e-05
5.62631e-05
-4.89073e-05
-8.90838e-05
-1.3515e-05
-1.39964e-07
-7.36257e-05
-0.000120472
1.05018e-06
6.24767e-05
-8.69231e-06
-9.78344e-05
-2.89586e-05
-0.000117393
-2.84739e-05
8.37729e-05
-6.5347e-05
-0.000123627
-3.91327e-05
5.43226e-05
-2.59139e-05
-0.000110415
4.55855e-05
-0.000181551
0.000110657
-0.000160717
-2.80384e-05
-1.12755e-05
-7.51586e-05
3.73054e-06
6.85207e-05
-4.17462e-05
-0.000141186
3.62627e-05
-7.01492e-05
0.00011095
0.000246295
1.94462e-05
-2.01295e-05
-3.95606e-05
9.91207e-05
4.89635e-05
-3.89034e-05
-1.2736e-05
0.000165162
-1.26035e-05
-8.19782e-05
1.41282e-06
-8.9086e-05
-8.96104e-05
-0.000255678
-0.000449775
-0.000492039
-0.000651192
-0.000774912
-0.00107667
-0.00119862
-0.00171857
-0.00219748
-0.00333028
-0.00436921
-0.00598063
-0.00776721
-0.0106003
-0.0141323
-0.0190984
-0.0255949
-0.0343442
-0.0460434
-0.0613894
-0.0817657
-0.108683
-0.144474
-0.191465
-0.253722
-0.335417
-0.442866
-0.583923
-0.768216
-1.0097
-1.32481
-1.7354
-2.26944
-2.96346
-3.863
-5.02748
-6.53277
-8.47444
-10.9748
-14.189
-18.3134
-23.5966
-30.3517
-38.9725
-49.9545
-63.9185
-81.6403
-104.089
-132.469
-168.28
-213.377
-270.058
-341.152
-430.145
-541.315
-679.898
-852.292
-1066.29
-1331.35
-1658.96
-2062.96
-2560.06
-3170.31
-3917.74
-4831.04
-5944.38
-7298.29
-8940.7
-10928.1
-13326.9
-16214.8
-19682.4
-23834.9
-28794.1
-34700.2
-41714.2
-50019.8
-59826.2
-71369.5
-84915.8
-100763
-119242
-140720
-165600
-194322
-227363
-265235
-308487
-357694
-413463
-476419
-547199
-626448
-714802
-812881
-921272
-1.04052e+06
-1.17109e+06
-1.31341e+06
-1.46777e+06
-1.63437e+06
-1.81328e+06
-2.00446e+06
-2.20767e+06
-2.42257e+06
-2.64863e+06
-2.88517e+06
-3.13135e+06
-3.38619e+06
-3.64859e+06
-3.91732e+06
-4.19106e+06
-4.46843e+06
-4.74799e+06
-5.0283e+06
-5.30792e+06
-5.58547e+06
-5.85959e+06
-6.12906e+06
-6.39271e+06
-6.64953e+06
-6.89862e+06
-7.13922e+06
-7.37071e+06
-7.59262e+06
-7.8046e+06
-8.00642e+06
-8.19798e+06
-8.37929e+06
-8.55043e+06
-8.71159e+06
-8.863e+06
-9.00497e+06
-9.13784e+06
-9.26201e+06
-9.37789e+06
-9.48593e+06
-9.58656e+06
-9.68021e+06
-9.76733e+06
-9.84833e+06
-9.92361e+06
-9.99355e+06
-1.00585e+07
-1.01189e+07
-1.01749e+07
-1.0227e+07
-1.02754e+07
-1.03203e+07
-1.0362e+07
-1.04008e+07
-1.04368e+07
-1.04702e+07
-1.05013e+07
-1.05302e+07
-1.0557e+07
-1.05819e+07
-1.06051e+07
-1.06266e+07
-1.06465e+07
-1.0665e+07
-1.06822e+07
-1.06982e+07
-1.07129e+07
-1.07266e+07
-1.07393e+07
-1.0751e+07
-1.07619e+07
-1.07719e+07
-1.07811e+07
-1.07896e+07
-1.07974e+07
-1.08046e+07
-1.08111e+07
-1.08171e+07
-1.08226e+07
-1.08276e+07
-1.08321e+07
-1.08361e+07
-1.08398e+07
-1.0843e+07
-1.08459e+07
-1.08484e+07
-1.08506e+07
-1.08525e+07
-1.08541e+07
-1.08554e+07
-1.08565e+07
-1.08573e+07
-1.08578e+07
-1.08582e+07
-1.08583e+07
-1.08583e+07
-1.0858e+07
-1.08576e+07
-1.0857e+07
-1.08562e+07
-1.08553e+07
-1.08543e+07
-1.08531e+07
-1.08517e+07
-1.08503e+07
-1.08487e+07
-1.08471e+07
-1.08453e+07
-1.08434e+07
-1.08414e+07
-1.08393e+07
-1.08372e+07
-1.08349e+07
-1.08326e+07
-1.08302e+07
-1.08277e+07
-1.08252e+07
-1.08226e+07
-1.08199e+07
-1.08172e+07
-1.08144e+07
-1.08115e+07
-1.08086e+07
-1.08057e+07
-1.08026e+07
-1.07996e+07
-1.07965e+07
-1.07934e+07
-1.07902e+07
-1.07869e+07
-1.07837e+07
-1.07804e+07
-1.0777e+07
-1.07736e+07
-1.07702e+07
-1.07668e+07
-1.07633e+07
-1.07598e+07
-1.07563e+07
-1.07527e+07
-1.07491e+07
-1.07455e+07
-1.07418e+07
-1.07381e+07
-1.07344e+07
-1.07307e+07
-1.0727e+07
-1.07232e+07
-1.07194e+07
-1.07155e+07
-1.07117e+07
-1.07078e+07
-1.07039e+07
-1.07e+07
-1.06961e+07
-1.06921e+07
-1.06882e+07
-1.06842e+07
-1.06801e+07
-1.06761e+07
-1.06721e+07
-1.0668e+07
-1.06639e+07
-1.06598e+07
-1.06557e+07
-1.06515e+07
-1.06474e+07
-1.06432e+07
-1.0639e+07
-1.06348e+07
-1.06306e+07
-1.06263e+07
-1.0622e+07
-1.06178e+07
-1.06135e+07
-1.06092e+07
-1.06048e+07
-1.06005e+07
-1.05961e+07
-1.05918e+07
-1.05874e+07
-1.0583e+07
-1.05786e+07
-1.05742e+07
-1.05697e+07
-1.05653e+07
-1.05608e+07
-1.05563e+07
-1.05518e+07
-1.05473e+07
-1.05428e+07
-1.05382e+07
-1.05337e+07
-1.05291e+07
-1.05245e+07
-1.05199e+07
-1.05153e+07
-1.05107e+07
-1.05061e+07
-1.05015e+07
-1.04968e+07
-1.04921e+07
-1.04875e+07
-1.04828e+07
-1.04781e+07
-1.04734e+07
-1.04687e+07
-1.04639e+07
-1.04592e+07
-1.04544e+07
-1.04497e+07
-1.04449e+07
-1.04401e+07
-1.04353e+07
-1.04305e+07
-1.04257e+07
-1.04209e+07
-1.0416e+07
-1.04112e+07
-1.04063e+07
-1.04015e+07
-1.03966e+07
-1.03917e+07
-1.03868e+07
-1.03819e+07
-1.0377e+07
-1.03721e+07
-1.03672e+07
-1.03623e+07
-1.03573e+07
-1.03524e+07
-1.03474e+07
-1.03425e+07
-1.03375e+07
-1.03325e+07
-1.03275e+07
-1.03226e+07
-1.03176e+07
-1.03126e+07
-1.03075e+07
-1.03025e+07
-1.02975e+07
-1.02925e+07
-1.02874e+07
-1.02824e+07
-1.02773e+07
-1.02723e+07
-1.02672e+07
-1.02622e+07
-1.02571e+07
-1.0252e+07
-1.02469e+07
-1.02419e+07
-1.02368e+07
-1.02317e+07
-1.02266e+07
-1.02215e+07
-1.02163e+07
-1.02112e+07
-1.02061e+07
-1.0201e+07
-1.01958e+07
-1.01907e+07
-1.01856e+07
-1.01804e+07
-1.01753e+07
-1.01701e+07
-1.0165e+07
-1.01598e+07
-1.01547e+07
-1.01495e+07
-1.01443e+07
-1.01392e+07
-1.0134e+07
-1.01288e+07
-1.01236e+07
-1.01185e+07
-1.01133e+07
-1.01081e+07
-1.01029e+07
-1.00977e+07
-1.00925e+07
-1.00873e+07
-1.00821e+07
-1.00769e+07
-1.00717e+07
-1.00665e+07
-1.00613e+07
-1.00561e+07
-1.00508e+07
-1.00456e+07
-1.00404e+07
-1.00352e+07
-1.003e+07
-1.00247e+07
-1.00195e+07
-1.00143e+07
-1.00091e+07
-1.00038e+07
-9.99859e+06
-9.99336e+06
-9.98812e+06
-9.98288e+06
-9.97765e+06
-9.97241e+06
-9.96717e+06
-9.96192e+06
-9.95668e+06
-9.95144e+06
-9.94619e+06
-9.94095e+06
-9.9357e+06
-9.93045e+06
-9.9252e+06
-9.91995e+06
-9.9147e+06
-9.90945e+06
-9.9042e+06
-9.89895e+06
-9.89369e+06
-9.88844e+06
-9.88318e+06
-9.87793e+06
-9.87267e+06
-9.86742e+06
-9.86216e+06
-9.8569e+06
-9.85165e+06
-9.84639e+06
-9.84113e+06
-9.83587e+06
-9.83062e+06
-9.82536e+06
-9.8201e+06
-9.81484e+06
-9.80958e+06
-9.80432e+06
-9.79906e+06
-9.7938e+06
-9.78854e+06
-9.78328e+06
-9.77803e+06
-9.77277e+06
-9.76751e+06
-9.76225e+06
-9.75699e+06
-9.75173e+06
-9.74647e+06
-9.74121e+06
-9.73596e+06
-9.7307e+06
-9.72544e+06
-9.72018e+06
-9.71493e+06
-9.70967e+06
-9.70441e+06
-9.69916e+06
-9.6939e+06
-9.68865e+06
-9.68339e+06
-9.67814e+06
-9.67288e+06
-9.66763e+06
-9.66238e+06
-9.65713e+06
-9.65187e+06
-9.64662e+06
-9.64137e+06
-9.63612e+06
-9.63087e+06
-9.62562e+06
-9.62037e+06
-9.61513e+06
-9.60988e+06
-9.60463e+06
-9.59939e+06
-9.59414e+06
-9.5889e+06
-9.58366e+06
-9.57841e+06
-9.57317e+06
-9.56793e+06
-9.56269e+06
-9.55745e+06
-9.55221e+06
-9.54697e+06
-9.54173e+06
-9.5365e+06
-9.53126e+06
-9.52603e+06
-9.52079e+06
-9.51556e+06
-9.51033e+06
-9.5051e+06
-9.49987e+06
-9.49464e+06
-9.48941e+06
-9.48418e+06
-9.47896e+06
-9.47373e+06
-9.46851e+06
-9.46328e+06
-9.45806e+06
-9.45284e+06
-9.44762e+06
-9.4424e+06
-9.43718e+06
-9.43196e+06
-9.42675e+06
-9.42153e+06
-9.41632e+06
-9.41111e+06
-9.40589e+06
-9.40068e+06
-9.39547e+06
-9.39027e+06
-9.38506e+06
-9.37985e+06
-9.37465e+06
-9.36944e+06
-9.36424e+06
-9.35904e+06
-9.35384e+06
-9.34864e+06
-9.34344e+06
-9.33825e+06
-9.33305e+06
-9.32786e+06
-9.32266e+06
-9.31747e+06
-9.31228e+06
-9.30709e+06
-9.3019e+06
-9.29672e+06
-9.29153e+06
-9.28635e+06
-9.28116e+06
-9.27598e+06
-9.2708e+06
-9.26562e+06
-9.26044e+06
-9.25527e+06
-9.25009e+06
-9.24492e+06
-9.23974e+06
-9.23457e+06
-9.2294e+06
-9.22423e+06
-9.21907e+06
-9.2139e+06
-9.20874e+06
-9.20357e+06
-9.19841e+06
-9.19325e+06
-9.18809e+06
-9.18293e+06
-9.17778e+06
-9.17262e+06
-9.16747e+06
-9.16232e+06
-9.15717e+06
-9.15202e+06
-9.14687e+06
-9.14172e+06
-9.13658e+06
-9.13144e+06
-9.12629e+06
-9.12115e+06
-9.11601e+06
-9.11088e+06
-9.10574e+06
-9.1006e+06
-9.09547e+06
-9.09034e+06
-9.08521e+06
-9.08008e+06
-9.07495e+06
-9.06983e+06
-9.0647e+06
-9.05958e+06
-9.05446e+06
-9.04934e+06
-9.04422e+06
-9.0391e+06
-9.03399e+06
-9.02887e+06
-9.02376e+06
-9.01865e+06
-9.01354e+06
-9.00843e+06
-9.00332e+06
-8.99822e+06
-8.99312e+06
-8.98801e+06
-8.98291e+06
-8.97781e+06
-8.97272e+06
-8.96762e+06
-8.96253e+06
-8.95743e+06
-8.95234e+06
-8.94725e+06
-8.94217e+06
-8.93708e+06
-8.932e+06
-8.92691e+06
-8.92183e+06
-8.91675e+06
-8.91167e+06
-8.9066e+06
-8.90152e+06
-8.89645e+06
-8.89137e+06
-8.8863e+06
-8.88123e+06
-8.87617e+06
-8.8711e+06
-8.86604e+06
-8.86097e+06
-8.85591e+06
-8.85085e+06
-8.8458e+06
-8.84074e+06
-8.83569e+06
-8.83063e+06
-8.82558e+06
-8.82053e+06
-8.81548e+06
-8.81044e+06
-8.80539e+06
-8.80035e+06
-8.79531e+06
-8.79027e+06
-8.78523e+06
-8.78019e+06
-8.77516e+06
-8.77013e+06
-8.76509e+06
-8.76006e+06
-8.75504e+06
-8.75001e+06
-8.74498e+06
-8.73996e+06
-8.73494e+06
-8.72992e+06
-8.7249e+06
-8.71988e+06
-8.71487e+06
-8.70986e+06
-8.70484e+06
-8.69983e+06
-8.69483e+06
-8.68982e+06
-8.68481e+06
-8.67981e+06
-8.67481e+06
-8.66981e+06
-8.66481e+06
-8.65981e+06
-8.65482e+06
-8.64983e+06
-8.64483e+06
-8.63984e+06
-8.63486e+06
-8.62987e+06
-8.62489e+06
-8.6199e+06
-8.61492e+06
-8.60994e+06
-8.60496e+06
-8.59999e+06
-8.59501e+06
-8.59004e+06
-8.58507e+06
-8.5801e+06
-8.57513e+06
-8.57016e+06
-8.5652e+06
-8.56024e+06
-8.55528e+06
-8.55032e+06
-8.54536e+06
-8.5404e+06
-8.53545e+06
-8.5305e+06
-8.52555e+06
-8.5206e+06
-8.51565e+06
-8.5107e+06
-8.50576e+06
-8.50082e+06
-8.49588e+06
-8.49094e+06
-8.486e+06
-8.48107e+06
-8.47613e+06
-8.4712e+06
-8.46627e+06
-8.46134e+06
-8.45642e+06
-8.45149e+06
-8.44657e+06
-8.44165e+06
-8.43673e+06
-8.43181e+06
-8.42689e+06
-8.42198e+06
-8.41707e+06
-8.41216e+06
-8.40725e+06
-8.40234e+06
-8.39743e+06
-8.39253e+06
-8.38763e+06
-8.38273e+06
-8.37783e+06
-8.37293e+06
-8.36803e+06
-8.36314e+06
-8.35825e+06
-8.35336e+06
-8.34847e+06
-8.34358e+06
-8.3387e+06
-8.33382e+06
-8.32893e+06
-8.32406e+06
-8.31918e+06
-8.3143e+06
-8.30943e+06
-8.30455e+06
-8.29968e+06
-8.29481e+06
-8.28995e+06
-8.28508e+06
-8.28022e+06
-8.27536e+06
-8.2705e+06
-8.26564e+06
-8.26078e+06
-8.25593e+06
-8.25107e+06
-8.24622e+06
-8.24137e+06
-8.23652e+06
-8.23168e+06
-8.22683e+06
-8.22199e+06
-8.21715e+06
-8.21231e+06
-8.20747e+06
-8.20264e+06
-8.1978e+06
-8.19297e+06
-8.18814e+06
-8.18331e+06
-8.17848e+06
-8.17366e+06
-8.16884e+06
-8.16401e+06
-8.15919e+06
-8.15438e+06
-8.14956e+06
-8.14475e+06
-8.13993e+06
-8.13512e+06
-8.13031e+06
-8.12551e+06
-8.1207e+06
-8.1159e+06
-8.11109e+06
-8.10629e+06
-8.1015e+06
-8.0967e+06
-8.0919e+06
-8.08711e+06
-8.08232e+06
-8.07753e+06
-8.07274e+06
-8.06796e+06
-8.06317e+06
-8.05839e+06
-8.05361e+06
-8.04883e+06
-8.04405e+06
-8.03928e+06
-8.0345e+06
-8.02973e+06
-8.02496e+06
-8.02019e+06
-8.01543e+06
-8.01066e+06
-8.0059e+06
-8.00114e+06
-7.99638e+06
-7.99162e+06
-7.98686e+06
-7.98211e+06
-7.97736e+06
-7.97261e+06
-7.96786e+06
-7.96311e+06
-7.95836e+06
-7.95362e+06
-7.94888e+06
-7.94414e+06
-7.9394e+06
-7.93467e+06
-7.92993e+06
-7.9252e+06
-7.92047e+06
-7.91574e+06
-7.91101e+06
-7.90628e+06
-7.90156e+06
-7.89684e+06
-7.89212e+06
-7.8874e+06
-7.88268e+06
-7.87797e+06
-7.87325e+06
-7.86854e+06
-7.86383e+06
-7.85913e+06
-7.85442e+06
-7.84972e+06
-7.84501e+06
-7.84031e+06
-7.83561e+06
-7.83092e+06
-7.82622e+06
-7.82153e+06
-7.81683e+06
-7.81214e+06
-7.80746e+06
-7.80277e+06
-7.79809e+06
-7.7934e+06
-7.78872e+06
-7.78404e+06
-7.77936e+06
-7.77469e+06
-7.77001e+06
-7.76534e+06
-7.76067e+06
-7.756e+06
-7.75134e+06
-7.74667e+06
-7.74201e+06
-7.73735e+06
-7.73269e+06
-7.72803e+06
-7.72337e+06
-7.71872e+06
-7.71406e+06
-7.70941e+06
-7.70476e+06
-7.70012e+06
-7.69547e+06
-7.69083e+06
-7.68619e+06
-7.68155e+06
-7.67691e+06
-7.67227e+06
-7.66764e+06
-7.663e+06
-7.65837e+06
-7.65374e+06
-7.64911e+06
-7.64449e+06
-7.63986e+06
-7.63524e+06
-7.63062e+06
-7.626e+06
-7.62138e+06
-7.61677e+06
-7.61216e+06
-7.60754e+06
-7.60293e+06
-7.59833e+06
-7.59372e+06
-7.58911e+06
-7.58451e+06
-7.57991e+06
-7.57531e+06
-7.57071e+06
-7.56612e+06
-7.56152e+06
-7.55693e+06
-7.55234e+06
-7.54775e+06
-7.54317e+06
-7.53858e+06
-7.534e+06
-7.52942e+06
-7.52484e+06
-7.52026e+06
-7.51568e+06
-7.51111e+06
-7.50654e+06
-7.50196e+06
-7.4974e+06
-7.49283e+06
-7.48826e+06
-7.4837e+06
-7.47914e+06
-7.47458e+06
-7.47002e+06
-7.46546e+06
-7.46091e+06
-7.45635e+06
-7.4518e+06
-7.44725e+06
-7.44271e+06
-7.43816e+06
-7.43361e+06
-7.42907e+06
-7.42453e+06
-7.41999e+06
-7.41546e+06
-7.41092e+06
-7.40639e+06
-7.40185e+06
-7.39732e+06
-7.3928e+06
-7.38827e+06
-7.38375e+06
-7.37922e+06
-7.3747e+06
-7.37018e+06
-7.36566e+06
-7.36115e+06
-7.35663e+06
-7.35212e+06
-7.34761e+06
-7.3431e+06
-7.3386e+06
-7.33409e+06
-7.32959e+06
-7.32508e+06
-7.32058e+06
-7.31609e+06
-7.31159e+06
-7.3071e+06
-7.3026e+06
-7.29811e+06
-7.29362e+06
-7.28913e+06
-7.28465e+06
-7.28016e+06
-7.27568e+06
-7.2712e+06
-7.26672e+06
-7.26225e+06
-7.25777e+06
-7.2533e+06
-7.24883e+06
-7.24436e+06
-7.23989e+06
-7.23542e+06
-7.23096e+06
-7.22649e+06
-7.22203e+06
-7.21757e+06
-7.21312e+06
-7.20866e+06
-7.20421e+06
-7.19975e+06
-7.1953e+06
-7.19085e+06
-7.18641e+06
-7.18196e+06
-7.17752e+06
-7.17308e+06
-7.16864e+06
-7.1642e+06
-7.15976e+06
-7.15533e+06
-7.15089e+06
-7.14646e+06
-7.14203e+06
-7.13761e+06
-7.13318e+06
-7.12876e+06
-7.12433e+06
-7.11991e+06
-7.11549e+06
-7.11108e+06
-7.10666e+06
-7.10225e+06
-7.09784e+06
-7.09343e+06
-7.08902e+06
-7.08461e+06
-7.08021e+06
-7.0758e+06
-7.0714e+06
-7.067e+06
-7.0626e+06
-7.05821e+06
-7.05381e+06
-7.04942e+06
-7.04503e+06
-7.04064e+06
-7.03625e+06
-7.03187e+06
-7.02748e+06
-7.0231e+06
-7.01872e+06
-7.01434e+06
-7.00997e+06
-7.00559e+06
-7.00122e+06
-6.99685e+06
-6.99248e+06
-6.98811e+06
-6.98374e+06
-6.97938e+06
-6.97501e+06
-6.97065e+06
-6.96629e+06
-6.96194e+06
-6.95758e+06
-6.95323e+06
-6.94887e+06
-6.94452e+06
-6.94017e+06
-6.93583e+06
-6.93148e+06
-6.92714e+06
-6.9228e+06
-6.91846e+06
-6.91412e+06
-6.90978e+06
-6.90545e+06
-6.90111e+06
-6.89678e+06
-6.89245e+06
-6.88812e+06
-6.8838e+06
-6.87947e+06
-6.87515e+06
-6.87083e+06
-6.86651e+06
-6.86219e+06
-6.85788e+06
-6.85356e+06
-6.84925e+06
-6.84494e+06
-6.84063e+06
-6.83632e+06
-6.83202e+06
-6.82771e+06
-6.82341e+06
-6.81911e+06
-6.81481e+06
-6.81052e+06
-6.80622e+06
-6.80193e+06
-6.79764e+06
-6.79335e+06
-6.78906e+06
-6.78477e+06
-6.78049e+06
-6.7762e+06
-6.77192e+06
-6.76764e+06
-6.76337e+06
-6.75909e+06
-6.75482e+06
-6.75054e+06
-6.74627e+06
-6.742e+06
-6.73774e+06
-6.73347e+06
-6.72921e+06
-6.72494e+06
-6.72068e+06
-6.71642e+06
-6.71217e+06
-6.70791e+06
-6.70366e+06
-6.69941e+06
-6.69516e+06
-6.69091e+06
-6.68666e+06
-6.68242e+06
-6.67817e+06
-6.67393e+06
-6.66969e+06
-6.66545e+06
-6.66122e+06
-6.65698e+06
-6.65275e+06
-6.64852e+06
-6.64429e+06
-6.64006e+06
-6.63584e+06
-6.63161e+06
-6.62739e+06
-6.62317e+06
-6.61895e+06
-6.61473e+06
-6.61052e+06
-6.6063e+06
-6.60209e+06
-6.59788e+06
-6.59367e+06
-6.58946e+06
-6.58526e+06
-6.58105e+06
-6.57685e+06
-6.57265e+06
-6.56845e+06
-6.56426e+06
-6.56006e+06
-6.55587e+06
-6.55168e+06
-6.54749e+06
-6.5433e+06
-6.53911e+06
-6.53493e+06
-6.53074e+06
-6.52656e+06
-6.52238e+06
-6.5182e+06
-6.51403e+06
-6.50985e+06
-6.50568e+06
-6.50151e+06
-6.49734e+06
-6.49317e+06
-6.489e+06
-6.48484e+06
-6.48068e+06
-6.47652e+06
-6.47236e+06
-6.4682e+06
-6.46404e+06
-6.45989e+06
-6.45574e+06
-6.45159e+06
-6.44744e+06
-6.44329e+06
-6.43914e+06
-6.435e+06
-6.43086e+06
-6.42672e+06
-6.42258e+06
-6.41844e+06
-6.4143e+06
-6.41017e+06
-6.40604e+06
-6.40191e+06
-6.39778e+06
-6.39365e+06
-6.38953e+06
-6.3854e+06
-6.38128e+06
-6.37716e+06
-6.37304e+06
-6.36892e+06
-6.36481e+06
-6.3607e+06
-6.35658e+06
-6.35247e+06
-6.34837e+06
-6.34426e+06
-6.34015e+06
-6.33605e+06
-6.33195e+06
-6.32785e+06
-6.32375e+06
-6.31965e+06
-6.31556e+06
-6.31147e+06
-6.30737e+06
-6.30328e+06
-6.2992e+06
-6.29511e+06
-6.29102e+06
-6.28694e+06
-6.28286e+06
-6.27878e+06
-6.2747e+06
-6.27063e+06
-6.26655e+06
-6.26248e+06
-6.25841e+06
-6.25434e+06
-6.25027e+06
-6.2462e+06
-6.24214e+06
-6.23807e+06
-6.23401e+06
-6.22995e+06
-6.2259e+06
-6.22184e+06
-6.21778e+06
-6.21373e+06
-6.20968e+06
-6.20563e+06
-6.20158e+06
-6.19754e+06
-6.19349e+06
-6.18945e+06
-6.18541e+06
-6.18137e+06
-6.17733e+06
-6.17329e+06
-6.16926e+06
-6.16523e+06
-6.1612e+06
-6.15717e+06
-6.15314e+06
-6.14911e+06
-6.14509e+06
-6.14106e+06
-6.13704e+06
-6.13302e+06
-6.12901e+06