/*--------------------------------*- C++ -*----------------------------------*\
  =========                 |
  \\      /  F ield         | OpenFOAM: The Open Source CFD Toolbox
   \\    /   O peration     | Website:  https://openfoam.org
    \\  /    A nd           | Version:  9
     \\/     M anipulation  |
\*---------------------------------------------------------------------------*/
FoamFile
{
    format      ascii;
    class       surfaceScalarField;
    location    "0.01";
    object      ddtCorrDdt0(phi);
}
// * * * * * * * * * * * * * * * * * * * * * * * * * * * * * * * * * * * * * //

dimensions      [1 0 -2 0 0 0 0];

internalField   nonuniform List<scalar> 
9999
(
-1.0422e-06
-1.02061e-06
-1.65301e-08
-5.31413e-07
-1.12333e-06
-1.77437e-07
-1.30272e-06
-1.04983e-07
-1.86238e-06
-4.96263e-07
-6.61305e-07
-1.25642e-06
-1.34423e-06
-7.31504e-07
6.49249e-07
-1.16258e-06
-4.40146e-07
4.08336e-07
5.74947e-07
3.45982e-07
-2.37722e-07
2.88935e-07
-6.13816e-07
-3.68348e-07
9.37337e-08
-1.69997e-08
2.10092e-07
1.2044e-06
-8.60226e-07
-2.8856e-07
6.1921e-07
9.02628e-08
4.45521e-07
1.24373e-06
7.16438e-07
1.84504e-07
3.56196e-07
4.61659e-07
1.27737e-06
6.5825e-07
7.86431e-07
6.60933e-07
1.08086e-07
7.69308e-08
7.03399e-07
3.99144e-07
1.50104e-07
1.55475e-06
1.20631e-06
4.94765e-07
-1.57949e-06
-2.67565e-09
-2.76309e-07
-9.3645e-07
1.0054e-06
-5.58257e-07
1.34897e-07
4.99514e-07
-2.46104e-07
5.97337e-08
-7.57694e-07
-3.36817e-07
-1.19272e-06
3.20536e-07
-4.84449e-07
1.05209e-07
4.24086e-07
-8.13775e-07
-1.19435e-08
-6.75782e-07
-7.89089e-07
-1.15333e-07
3.61879e-07
2.68677e-07
-9.874e-07
-2.89302e-07
-4.26537e-07
-5.56237e-07
-2.16904e-06
2.26858e-07
-1.75772e-06
9.09048e-07
-6.40134e-07
-5.21963e-07
5.05844e-07
-1.45243e-07
2.32939e-07
5.01053e-07
5.23805e-07
4.3915e-07
-8.23304e-07
-8.67365e-07
-5.16859e-07
4.23814e-07
-6.3158e-07
-6.14581e-07
1.33247e-07
-2.3405e-07
5.91117e-08
6.07232e-07
1.53056e-06
-3.03558e-08
8.5747e-07
-7.812e-07
7.35943e-07
1.14454e-07
-6.793e-07
3.53941e-08
-3.84047e-07
-5.4679e-07
-6.41359e-07
-3.9583e-08
-2.46308e-07
-2.84115e-07
-3.27272e-07
8.99785e-07
6.66702e-07
-1.03492e-08
9.77114e-08
4.47057e-07
-9.75984e-07
-4.5474e-08
-1.75422e-07
8.47611e-07
-1.45327e-07
4.74729e-07
1.55624e-06
-1.28339e-07
3.14645e-07
4.1536e-07
-9.553e-07
1.05355e-08
8.18761e-07
-1.2563e-07
9.53553e-08
-3.8106e-07
6.33246e-07
8.63638e-07
4.02058e-07
-7.6088e-08
1.14674e-06
8.9928e-07
-2.72422e-07
4.3815e-07
1.41162e-06
2.48165e-10
2.45159e-07
7.73241e-07
-6.50365e-07
7.25439e-08
4.43624e-07
-1.93782e-07
-2.35948e-09
1.57138e-07
-4.21197e-07
-8.41135e-07
-1.21935e-06
-3.81418e-07
-4.65922e-09
-6.28422e-07
-1.35201e-06
-2.51433e-07
3.27371e-07
-2.75765e-07
-3.23759e-07
-5.04447e-07
2.55223e-07
-5.63335e-07
-3.47297e-07
-8.31729e-08
-4.93778e-07
-5.2553e-07
8.80211e-07
-1.18378e-06
-3.62977e-07
3.92223e-07
2.57954e-07
-1.98781e-08
-2.41442e-07
9.34901e-08
-1.05435e-07
4.1381e-07
-5.84617e-09
-5.40579e-07
1.07266e-06
-1.69295e-07
-2.03039e-07
3.7436e-07
-4.514e-07
2.28236e-07
8.01749e-07
1.00341e-07
-5.63251e-07
-5.74713e-07
-1.62135e-07
-1.60459e-07
1.16785e-07
6.3692e-07
-3.98315e-07
-7.57432e-07
3.25765e-07
-5.41117e-07
-6.71538e-08
3.5431e-07
2.84326e-07
-1.12435e-06
1.61369e-07
4.23266e-07
6.21381e-07
-5.07529e-07
3.74666e-07
8.55974e-08
2.58356e-07
-5.9029e-07
-8.44281e-07
-6.56522e-07
3.28302e-07
-2.76593e-07
-9.90205e-07
-6.94869e-07
2.39578e-08
-3.61791e-07
-9.84451e-07
3.83767e-07
-3.50044e-08
7.77747e-07
-2.86425e-07
-1.77536e-07
7.47218e-07
1.05445e-06
5.88457e-07
1.59308e-06
5.82812e-07
-2.31588e-07
-3.74305e-08
1.33253e-07
1.11794e-06
1.63603e-06
8.85312e-07
5.35975e-07
-1.60715e-07
-1.17356e-07
6.17638e-07
1.46219e-06
1.21967e-06
-1.45901e-07
-4.15701e-07
2.05198e-07
-5.68544e-07
-5.12927e-08
-8.57414e-07
-4.82285e-07
-1.3513e-06
2.99914e-07
-8.33411e-07
7.53645e-07
1.6057e-06
2.40496e-07
5.21327e-07
-4.46836e-08
1.09949e-07
1.2714e-07
8.63214e-07
3.86037e-07
-1.60929e-07
4.8412e-07
1.76108e-07
8.41594e-08
3.95925e-07
-1.08787e-06
-2.67671e-07
-9.95837e-07
5.92355e-07
9.45561e-08
1.13475e-06
-5.39621e-07
-6.68528e-07
-3.65414e-07
7.74735e-07
-4.70191e-07
-7.46163e-07
6.83425e-07
8.33437e-08
1.62219e-07
3.2168e-07
-4.67376e-09
-6.20751e-07
-5.80461e-09
-9.90637e-07
3.39297e-08
-5.64211e-07
-3.34507e-07
1.40817e-08
-7.50646e-07
2.15055e-07
5.80545e-07
-7.6154e-07
-2.79643e-07
-1.4901e-06
-8.40505e-08
-5.03518e-07
-9.87301e-07
-9.10046e-07
-5.58251e-07
2.94454e-07
-4.29285e-07
6.22808e-07
1.27137e-07
-5.00833e-07
5.68423e-07
-3.355e-07
-8.87795e-08
2.2063e-07
3.0525e-07
1.55468e-07
-3.81024e-07
6.17446e-07
6.37883e-07
-1.5858e-08
-2.1751e-07
-1.87316e-07
-7.54005e-07
3.47873e-07
-3.11575e-08
-2.50799e-07
3.81068e-08
-3.40891e-07
6.00233e-07
6.61731e-07
3.10095e-07
7.63377e-07
9.55269e-07
-5.01255e-07
-1.01774e-06
-1.14963e-06
-9.93736e-07
-3.67165e-07
-3.05293e-07
1.7998e-07
-2.50344e-07
-7.80063e-07
-1.18611e-06
-8.25368e-07
-1.40114e-06
-5.92645e-07
9.69833e-07
2.61366e-07
-2.67923e-07
-6.0349e-07
-1.29796e-06
-2.65554e-07
-5.0192e-07
1.2629e-08
-6.77139e-07
1.22285e-07
7.93379e-07
-1.3026e-07
-3.21407e-07
7.60471e-07
7.06219e-07
7.62079e-07
7.14969e-07
1.1001e-06
-3.87171e-07
-1.76913e-07
3.67362e-07
3.47175e-07
2.75817e-07
8.26341e-07
-6.18176e-07
2.7583e-07
8.5153e-07
7.90939e-07
8.5842e-08
9.79963e-07
1.37175e-07
1.19425e-07
6.1685e-07
3.78758e-07
-1.74971e-06
7.42507e-07
1.92187e-07
5.54414e-08
1.47817e-06
9.5287e-07
6.72951e-07
1.0693e-06
1.47319e-07
-3.46622e-07
-8.3842e-10
6.7391e-07
1.14542e-06
1.2801e-06
9.67777e-07
-4.1832e-07
-1.21703e-08
5.57885e-07
4.22796e-07
1.90054e-07
-9.82812e-07
-7.44037e-08
8.51905e-08
-1.5022e-07
9.64412e-09
4.22617e-07
1.9274e-07
2.23632e-07
-5.18377e-07
4.8388e-07
5.13371e-07
-1.20157e-06
-6.61954e-07
-4.39522e-07
-7.52986e-07
-8.88323e-07
-2.26486e-07
5.11232e-07
5.69507e-08
-1.76957e-08
3.20853e-07
-2.60662e-07
6.9246e-08
-3.32782e-07
-9.49823e-07
-5.16567e-07
1.19953e-06
-1.12719e-06
-1.21142e-06
-3.86337e-07
4.85331e-07
-6.17688e-07
-7.75545e-07
-5.89656e-07
-2.20896e-07
7.4744e-07
-1.37717e-06
-6.16167e-07
1.61892e-07
-1.24595e-06
-1.08147e-06
2.33356e-07
5.83758e-07
-3.91962e-07
-2.52675e-07
5.9524e-07
1.00829e-06
-4.36806e-07
-1.15981e-07
-2.34204e-07
-8.22582e-07
-4.95548e-07
1.02139e-06
1.3538e-07
-9.56269e-07
-6.1624e-07
-1.26935e-06
-6.1885e-07
8.67828e-08
-9.09326e-07
-1.1259e-06
5.62296e-08
1.54081e-06
-2.25113e-07
4.02275e-07
5.53626e-07
-5.48226e-07
7.95973e-07
1.16945e-06
1.52724e-06
4.32253e-07
1.3597e-06
6.21757e-07
1.6252e-07
5.28564e-07
-5.48549e-07
4.7866e-07
4.5583e-07
1.63446e-08
1.35502e-06
1.61845e-06
1.04927e-07
6.89155e-07
8.25108e-07
2.20925e-07
4.30598e-07
9.41271e-07
-1.47474e-08
3.16089e-08
-4.52476e-07
5.69858e-07
6.02388e-07
5.56777e-07
1.27997e-06
-9.32231e-07
7.38088e-07
-3.73091e-07
3.59989e-07
-5.62398e-08
-1.4575e-06
-8.69441e-07
-1.51228e-06
-6.14767e-07
-5.09001e-08
-1.55169e-06
-4.7449e-07
-7.00219e-07
-5.79437e-07
-3.21077e-08
-7.58557e-07
-5.88946e-07
-7.09466e-07
-1.14492e-06
-5.0959e-07
1.27822e-07
3.12942e-07
-5.48485e-07
5.07335e-07
7.91985e-07
-2.69038e-07
2.0265e-07
-7.30628e-07
4.19554e-07
-3.81475e-07
7.44339e-07
1.28397e-06
6.00693e-07
2.85908e-07
5.02298e-07
6.12811e-07
1.69708e-06
-5.61755e-08
-3.39195e-07
-6.39897e-07
8.04924e-07
-9.95385e-07
-7.31848e-07
1.5501e-07
-1.93874e-07
6.25296e-08
2.51271e-07
3.52744e-07
1.83824e-07
2.13895e-07
1.56954e-06
-6.89145e-07
1.97982e-07
6.37322e-07
7.54962e-08
9.29311e-07
1.94535e-06
1.59608e-06
1.50391e-06
6.91944e-07
-5.41206e-07
5.86909e-07
-6.79884e-07
-5.01846e-07
2.58113e-07
-6.59716e-07
-9.29688e-08
9.61747e-08
4.42811e-07
-1.32198e-06
-8.56924e-08
4.17105e-07
-8.35567e-07
-1.66212e-06
-2.01519e-07
3.9704e-07
5.42962e-07
3.38687e-07
-1.40602e-06
-8.33052e-07
-2.36103e-07
4.3949e-07
1.01178e-06
-4.31432e-07
-9.10328e-07
3.73411e-07
6.39486e-07
5.85382e-07
7.47739e-07
1.29997e-08
-2.28348e-07
8.60135e-07
1.51e-07
-6.2198e-08
5.03438e-07
-1.42571e-06
2.55976e-07
2.0351e-07
8.5349e-07
-5.4617e-07
-8.12713e-07
1.20464e-07
-9.74932e-07
-4.16427e-07
-4.01427e-07
9.14754e-09
8.30188e-07
1.83341e-07
-2.42131e-07
-8.72467e-07
7.54538e-07
3.94695e-07
3.78164e-07
2.58192e-07
-8.41376e-09
9.25285e-07
2.00334e-07
-8.0264e-07
-1.20481e-06
2.1404e-07
4.65995e-08
2.27822e-08
-1.03085e-07
-8.61314e-07
-1.22596e-06
1.05011e-07
-2.27832e-08
-1.06826e-06
-5.22042e-07
2.53256e-07
1.50525e-06
-1.98988e-07
1.07501e-06
4.55045e-07
4.00335e-07
-6.02781e-08
-3.87493e-07
-4.01423e-07
-5.26183e-07
5.52825e-08
-4.95477e-07
8.09886e-08
-3.51823e-07
7.97719e-08
1.50953e-07
-4.84319e-07
-8.57349e-07
-1.08277e-06
-1.74181e-06
-5.33539e-07
-2.08714e-07
-9.30346e-07
-2.942e-07
-2.49238e-07
2.86474e-07
-2.81112e-07
-2.26025e-07
-8.52205e-07
6.1718e-07
4.16099e-07
6.99566e-07
6.14918e-07
3.69601e-07
-7.53873e-08
-4.12489e-07
-1.27208e-06
5.72246e-07
-3.88104e-07
1.16337e-06
-4.93948e-07
3.72228e-07
7.29031e-07
2.71407e-08
6.6021e-07
-2.65128e-07
-1.63174e-06
5.81178e-07
-6.15829e-07
-1.32245e-07
-1.02898e-06
1.48951e-07
7.19723e-08
-1.48622e-07
2.64906e-07
3.6349e-07
-1.0684e-06
-6.39046e-07
-8.16462e-07
-8.36867e-07
5.84822e-07
2.5379e-07
-7.53134e-07
-4.02341e-07
-6.94481e-09
7.76278e-07
4.43018e-07
1.24654e-06
6.19192e-07
7.95604e-07
-2.48704e-07
1.25566e-06
5.95671e-07
1.26697e-06
9.36216e-07
6.38806e-07
2.09049e-06
1.75176e-06
6.79195e-07
5.48412e-07
7.7346e-07
3.97321e-07
3.82024e-07
-2.91888e-07
9.58324e-08
2.38997e-07
-1.73475e-06
-2.42569e-07
-1.20931e-06
-4.69873e-07
-1.38338e-06
5.48914e-08
-2.98396e-07
-1.136e-06
-1.24605e-07
9.50155e-07
3.81313e-07
-2.15743e-07
4.57313e-07
-3.16427e-07
-6.81749e-07
3.58968e-07
5.50783e-07
-7.52838e-07
-1.26419e-07
-4.73277e-07
-6.63938e-07
5.66361e-07
-2.5364e-07
-5.11274e-08
1.12454e-06
3.07225e-07
-1.39847e-06
-1.76624e-07
-1.23769e-06
-7.27279e-07
-1.23147e-06
-7.32711e-07
-6.23763e-07
1.78555e-07
-7.60613e-07
4.64968e-07
-2.34381e-07
-1.3329e-06
9.56103e-07
-1.07083e-07
3.39165e-08
-9.8665e-09
5.3223e-07
1.01178e-07
1.96012e-06
3.44897e-07
3.54406e-08
-5.04421e-07
-3.25618e-07
7.71777e-07
6.08661e-07
-7.94621e-07
3.1433e-08
-8.82137e-08
-2.4978e-07
-5.00667e-07
3.96404e-07
5.20004e-08
5.72012e-07
6.16473e-07
7.61783e-07
7.02004e-07
-2.813e-07
-7.60072e-07
6.58418e-07
-2.66451e-07
3.18502e-07
3.34315e-07
-1.02925e-06
-2.47517e-07
-6.42815e-08
3.10677e-07
-2.30199e-07
-1.93691e-07
-5.17607e-08
5.20644e-07
-2.73862e-07
4.94729e-07
4.43618e-07
2.18124e-07
-3.11761e-07
-1.47706e-07
5.61562e-07
-3.43306e-07
-5.19808e-07
1.23933e-07
-5.43277e-07
-1.3832e-06
-3.726e-07
-3.34583e-07
-8.80174e-08
-5.122e-07
-3.23461e-07
-1.82353e-08
1.38753e-07
1.02179e-06
9.1929e-07
-9.68064e-07
-1.02645e-08
-2.4264e-08
-2.7414e-07
-1.89458e-07
-5.07871e-07
-5.56061e-07
-6.46121e-07
-1.2207e-06
1.47041e-07
-1.82944e-07
-2.9616e-07
-6.48652e-07
7.18809e-07
4.70471e-07
-2.29673e-07
1.32486e-07
6.14636e-07
9.89674e-07
7.49495e-07
8.62647e-08
4.09602e-07
2.53204e-07
1.79383e-06
-8.16032e-07
-2.08805e-07
1.6596e-06
5.9381e-07
4.87696e-07
8.71487e-07
-3.77537e-07
7.19358e-07
-2.64462e-07
9.78581e-08
1.62276e-07
6.11414e-07
1.15236e-06
6.76315e-07
1.05248e-06
-9.79234e-09
4.80358e-07
5.7393e-07
7.60306e-08
9.91408e-07
-2.19089e-07
6.48237e-07
2.7154e-07
1.93739e-07
3.04888e-08
9.63593e-08
-3.92934e-07
-1.27144e-06
-8.55039e-07
-1.12117e-06
-1.19316e-06
-8.07706e-07
-1.52603e-06
-3.9339e-07
-1.70912e-06
3.71569e-08
-7.73662e-07
-1.08314e-06
-5.1497e-07
1.83939e-07
-2.34909e-08
1.42021e-06
5.60498e-07
1.47873e-06
2.18007e-06
1.04813e-06
8.06375e-07
-7.44424e-07
-5.94118e-07
-8.8891e-08
-1.34019e-06
-6.55108e-07
7.24418e-07
3.86526e-07
2.19341e-07
-1.22685e-06
7.43269e-07
-7.89966e-08
2.60274e-07
5.23643e-07
6.57464e-08
3.89483e-07
-2.00945e-07
1.29715e-06
-4.67095e-07
-1.09025e-07
1.03654e-07
-2.88411e-07
6.6402e-07
1.40613e-06
-2.03848e-07
5.3874e-07
2.26379e-07
1.04455e-07
-3.4684e-08
1.99219e-07
-3.10109e-07
6.99282e-07
4.14272e-07
1.08273e-08
-6.80546e-07
-5.00777e-07
5.89623e-07
9.07964e-07
5.44699e-07
6.24033e-07
-9.23798e-07
-4.16265e-07
-1.418e-06
-8.88393e-07
-1.25937e-06
-1.52367e-06
-1.21798e-06
4.33038e-07
1.67033e-07
-1.24027e-06
-3.91595e-07
-4.25459e-07
-2.47389e-07
1.21595e-07
9.83153e-08
-4.11836e-07
-2.0559e-07
1.76491e-06
1.77985e-06
5.80259e-07
6.97199e-07
2.95121e-07
-9.09642e-07
-1.32729e-06
2.63924e-07
-6.29323e-07
-9.69374e-08
1.21177e-06
1.7525e-07
-4.39614e-07
9.1669e-07
6.00931e-07
9.48514e-07
1.10447e-06
1.16237e-06
-1.30269e-07
7.6957e-07
2.53979e-07
6.85878e-07
1.22538e-06
-4.45806e-07
4.16676e-07
9.53115e-07
8.95375e-07
8.9726e-07
5.17228e-07
-4.93401e-07
4.33441e-07
-8.40023e-07
-1.34554e-07
3.11003e-07
-8.07994e-07
-4.96217e-07
3.92696e-07
-1.10263e-07
-1.36168e-06
-1.33765e-06
-1.40066e-06
-6.0663e-07
-3.15533e-07
-6.70517e-07
-1.52003e-06
-3.26538e-08
-9.25122e-07
6.33899e-07
7.35994e-07
5.38583e-08
1.09353e-06
1.44734e-07
6.73089e-09
2.74087e-07
-7.68019e-07
4.75895e-07
-1.10212e-06
-4.48286e-07
6.70726e-07
-5.18321e-07
7.52922e-07
-2.78115e-07
1.34991e-06
3.53594e-07
2.50264e-07
1.78022e-06
1.78641e-07
2.92771e-07
-3.2775e-07
-2.10124e-07
-2.21391e-08
-2.59921e-07
1.07174e-06
1.27984e-07
-6.71924e-08
-1.86625e-06
3.42369e-07
-4.20414e-07
-9.17857e-07
-9.69786e-07
-1.44002e-06
-7.95077e-07
-5.40246e-07
-8.37076e-07
3.8563e-07
5.05048e-08
-1.1024e-06
4.65104e-07
-2.29812e-07
4.29876e-07
1.01356e-06
-1.20518e-06
2.70818e-07
-7.50779e-07
1.10592e-06
-9.54049e-07
-1.42891e-06
-1.5357e-06
-1.75468e-06
-1.64941e-06
-1.48143e-06
-1.16458e-06
-1.32143e-06
-9.73509e-07
-9.9389e-07
-1.24576e-06
-1.05397e-06
-6.8253e-07
-6.42678e-07
4.38221e-07
-5.14562e-07
7.63021e-07
-1.31835e-06
-1.14982e-06
-9.79384e-07
1.43806e-07
7.68771e-07
-8.04007e-07
-7.15717e-07
-3.14851e-07
5.20434e-08
1.21457e-06
-2.98744e-07
3.60221e-07
7.41759e-07
2.88083e-07
8.13174e-07
1.57991e-06
-3.33596e-07
8.72418e-08
2.20959e-07
1.14225e-06
-1.10784e-06
7.47304e-08
-1.00643e-07
-1.41437e-07
3.34704e-08
9.51112e-07
1.39151e-06
5.04956e-07
-1.97068e-07
-1.67468e-07
6.27353e-07
1.47416e-07
4.43701e-07
8.57653e-07
3.27253e-07
-1.09497e-07
1.23527e-06
1.13237e-06
2.62629e-06
1.20258e-06
1.66465e-06
4.45223e-07
5.35226e-07
-2.79227e-07
8.7688e-07
6.36033e-07
1.67484e-06
-2.38181e-07
-4.41013e-07
-2.41249e-07
8.22144e-07
-4.38745e-07
4.56722e-07
3.61757e-07
8.20683e-09
7.8278e-07
-1.06688e-07
-1.6802e-06
-1.87993e-07
-2.39493e-06
-1.75536e-06
-1.00302e-06
-1.74182e-06
-1.09907e-06
-4.93714e-07
-4.60593e-07
-1.88557e-06
-8.56498e-07
-1.03119e-06
-2.3587e-07
-1.12707e-06
-3.72048e-07
-4.16892e-07
-1.13254e-06
4.79958e-07
-4.35468e-07
-8.60432e-07
5.28155e-08
-7.24862e-08
1.13295e-07
1.92548e-06
3.78117e-06
4.33642e-06
6.38431e-06
6.52788e-06
8.95427e-06
1.12632e-05
1.26926e-05
1.7271e-05
2.32297e-05
3.07416e-05
4.03243e-05
5.42561e-05
7.29633e-05
9.84024e-05
0.000132212
0.000178309
0.000237524
0.00031827
0.000427372
0.00056854
0.000758509
0.00100931
0.00134109
0.00178027
0.00235863
0.00312114
0.00412346
0.00544085
0.00716471
0.00942136
0.0123696
0.0162175
0.0212247
0.0277348
0.036185
0.0471315
0.0612898
0.0795686
0.103128
0.13344
0.17237
0.22228
0.28615
0.367736
0.471761
0.604148
0.77232
0.98554
1.25536
1.59614
2.02571
2.56613
3.24465
4.09484
5.15794
6.48456
8.13652
10.1893
12.7346
15.8838
19.7717
24.5607
30.4463
37.6633
46.492
57.2669
70.3856
86.319
105.623
128.952
157.074
190.883
231.424
279.906
337.724
406.484
488.022
584.433
698.09
831.671
988.182
1170.98
1383.79
1630.71
1916.24
2245.29
2623.12
3055.4
3548.14
4107.64
4740.48
5453.41
6253.27
7146.91
8141.03
9242.1
10456.1
11788.6
13244.2
14826.8
16538.9
18382.2
20356.6
22460.7
24691.4
27044
29511.9
32087
34759.7
37518.6
40351.3
43244.2
46182.7
49151.7
52135.8
55119.5
58087.8
61025.9
63920.1
66757.6
69526.7
72217.1
74820.2
77328.5
79736.2
82038.9
84233.6
86318.6
88293.5
90158.8
91916
93567.4
95115.8
96564.8
97918.4
99181
100357
101452
102469
103415
104292
105106
105861
106561
107210
107811
108368
108883
109361
109803
110211
110590
110940
111264
111563
111840
112095
112331
112548
112749
112933
113103
113259
113402
113534
113654
113763
113863
113953
114035
114109
114175
114235
114287
114334
114374
114410
114439
114465
114485
114501
114513
114522
114526
114527
114525
114520
114513
114502
114489
114473
114455
114435
114413
114389
114364
114336
114307
114276
114244
114210
114175
114139
114101
114062
114022
113982
113940
113897
113853
113809
113763
113717
113670
113623
113575
113526
113476
113426
113375
113324
113272
113220
113167
113114
113060
113006
112951
112896
112841
112785
112729
112673
112616
112559
112502
112444
112386
112328
112269
112210
112151
112092
112032
111972
111912
111852
111791
111731
111670
111608
111547
111485
111424
111362
111299
111237
111174
111112
111049
110986
110922
110859
110795
110731
110667
110603
110539
110474
110410
110345
110280
110215
110150
110084
110019
109953
109887
109821
109755
109689
109622
109556
109489
109422
109355
109288
109221
109154
109086
109019
108951
108883
108815
108747
108679
108611
108542
108474
108405
108337
108268
108199
108130
108061
107992
107922
107853
107783
107714
107644
107574
107504
107434
107364
107294
107224
107154
107083
107013
106942
106872
106801
106730
106659
106588
106517
106446
106375
106304
106233
106161
106090
106019
105947
105876
105804
105732
105661
105589
105517
105445
105373
105301
105229
105157
105085
105013
104941
104869
104796
104724
104652
104580
104507
104435
104362
104290
104217
104145
104072
104000
103927
103854
103782
103709
103636
103564
103491
103418
103345
103273
103200
103127
103054
102981
102908
102835
102763
102690
102617
102544
102471
102398
102325
102252
102179
102106
102033
101960
101887
101814
101741
101668
101595
101522
101449
101376
101303
101230
101157
101084
101011
100938
100866
100793
100720
100647
100574
100501
100428
100355
100282
100209
100136
100063
99990.5
99917.7
99844.8
99772
99699.2
99626.3
99553.5
99480.8
99408
99335.2
99262.5
99189.7
99117
99044.3
98971.6
98898.9
98826.2
98753.6
98681
98608.3
98535.7
98463.2
98390.6
98318
98245.5
98173
98100.5
98028
97955.5
97883.1
97810.7
97738.3
97665.9
97593.5
97521.2
97448.8
97376.5
97304.3
97232
97159.7
97087.5
97015.3
96943.1
96871
96798.8
96726.7
96654.6
96582.6
96510.5
96438.5
96366.5
96294.5
96222.5
96150.6
96078.7
96006.8
95934.9
95863.1
95791.3
95719.5
95647.7
95576
95504.3
95432.6
95360.9
95289.3
95217.6
95146
95074.5
95002.9
94931.4
94859.9
94788.5
94717
94645.6
94574.2
94502.9
94431.5
94360.2
94288.9
94217.7
94146.5
94075.3
94004.1
93932.9
93861.8
93790.7
93719.7
93648.6
93577.6
93506.6
93435.7
93364.8
93293.9
93223
93152.2
93081.4
93010.6
92939.8
92869.1
92798.4
92727.7
92657.1
92586.5
92515.9
92445.3
92374.8
92304.3
92233.8
92163.4
92093
92022.6
91952.3
91882
91811.7
91741.4
91671.2
91601
91530.8
91460.7
91390.5
91320.5
91250.4
91180.4
91110.4
91040.4
90970.5
90900.6
90830.7
90760.9
90691.1
90621.3
90551.6
90481.9
90412.2
90342.5
90272.9
90203.3
90133.7
90064.2
89994.7
89925.2
89855.8
89786.4
89717
89647.7
89578.4
89509.1
89439.8
89370.6
89301.4
89232.3
89163.1
89094
89025
88956
88887
88818
88749.1
88680.2
88611.3
88542.4
88473.6
88404.9
88336.1
88267.4
88198.7
88130.1
88061.5
87992.9
87924.3
87855.8
87787.3
87718.9
87650.4
87582.1
87513.7
87445.4
87377.1
87308.8
87240.6
87172.4
87104.2
87036.1
86968
86899.9
86831.9
86763.9
86695.9
86628
86560.1
86492.2
86424.4
86356.6
86288.8
86221.1
86153.4
86085.7
86018.1
85950.4
85882.9
85815.3
85747.8
85680.3
85612.9
85545.5
85478.1
85410.8
85343.5
85276.2
85208.9
85141.7
85074.5
85007.4
84940.3
84873.2
84806.1
84739.1
84672.2
84605.2
84538.3
84471.4
84404.6
84337.7
84271
84204.2
84137.5
84070.8
84004.2
83937.6
83871
83804.4
83737.9
83671.4
83605
83538.6
83472.2
83405.8
83339.5
83273.2
83207
83140.8
83074.6
83008.5
82942.3
82876.3
82810.2
82744.2
82678.2
82612.3
82546.4
82480.5
82414.6
82348.8
82283
82217.3
82151.6
82085.9
82020.3
81954.6
81889.1
81823.5
81758
81692.5
81627.1
81561.7
81496.3
81431
81365.7
81300.4
81235.1
81169.9
81104.8
81039.6
80974.5
80909.4
80844.4
80779.4
80714.4
80649.5
80584.6
80519.7
80454.9
80390.1
80325.3
80260.6
80195.9
80131.2
80066.6
80002
79937.4
79872.8
79808.3
79743.9
79679.4
79615.1
79550.7
79486.4
79422.1
79357.8
79293.6
79229.4
79165.2
79101.1
79037
78972.9
78908.9
78844.9
78780.9
78717
78653.1
78589.3
78525.4
78461.6
78397.9
78334.2
78270.5
78206.8
78143.2
78079.6
78016
77952.5
77889
77825.6
77762.2
77698.8
77635.4
77572.1
77508.8
77445.6
77382.3
77319.2
77256
77192.9
77129.8
77066.8
77003.7
76940.8
76877.8
76814.9
76752
76689.2
76626.4
76563.6
76500.8
76438.1
76375.4
76312.8
76250.2
76187.6
76125.1
76062.6
76000.1
75937.6
75875.2
75812.9
75750.5
75688.2
75625.9
75563.7
75501.5
75439.3
75377.2
75315.1
75253
75191
75129
75067
75005.1
74943.2
74881.3
74819.4
74757.6
74695.9
74634.1
74572.4
74510.8
74449.1
74387.5
74326
74264.4
74202.9
74141.5
74080
74018.6
73957.3
73895.9
73834.6
73773.4
73712.1
73650.9
73589.8
73528.7
73467.6
73406.5
73345.5
73284.5
73223.5
73162.6
73101.7
73040.8
72980
72919.2
72858.4
72797.7
72737
72676.3
72615.7
72555.1
72494.6
72434
72373.5
72313.1
72252.7
72192.3
72131.9
72071.6
72011.3
71951
71890.8
71830.6
71770.4
71710.3
71650.2
71590.2
71530.1
71470.1
71410.2
71350.3
71290.4
71230.5
71170.7
71110.9
71051.1
70991.4
70931.7
70872
70812.4
70752.8
70693.3
70633.7
70574.3
70514.8
70455.4
70396
70336.6
70277.3
70218
70158.7
70099.5
70040.3
69981.1
69922
69862.9
69803.9
69744.8
69685.8
69626.9
69568
69509.1
69450.2
69391.4
69332.6
69273.8
69215.1
69156.4
69097.7
69039.1
68980.5
68921.9
68863.4
68804.9
68746.4
68688
68629.6
68571.2
68512.9
68454.6
68396.3
68338.1
68279.9
68221.7
68163.6
68105.5
68047.4
67989.4
67931.4
67873.4
67815.5
67757.6
67699.7
67641.9
67584.1
67526.3
67468.5
67410.8
67353.2
67295.5
67237.9
67180.3
67122.8
67065.3
67007.8
66950.4
66893
66835.6
66778.2
66720.9
66663.6
66606.4
66549.2
66492
66434.8
66377.7
66320.6
66263.6
66206.6
66149.6
66092.6
66035.7
65978.8
65922
65865.1
65808.4
65751.6
65694.9
65638.2
65581.5
65524.9
65468.3
65411.7
65355.2
65298.7
65242.3
65185.8
65129.4
65073.1
65016.7
64960.4
64904.2
64847.9
64791.7
64735.5
64679.4
64623.3
64567.2
64511.2
64455.2
64399.2
64343.3
64287.3
64231.5
64175.6
64119.8
64064
64008.3
63952.6
63896.9
63841.2
63785.6
63730
63674.5
63618.9
63563.4
63508
63452.6
63397.2
63341.8
63286.5
63231.2
63175.9
63120.7
63065.5
63010.3
62955.2
62900.1
62845
62790
62734.9
62680
62625
62570.1
62515.2
62460.4
62405.6
62350.8
62296
62241.3
62186.6
62132
62077.4
62022.8
61968.2
61913.7
61859.2
61804.7
61750.3
61695.9
61641.5
61587.2
61532.9
61478.6
61424.4
61370.2
61316
61261.9
61207.8
61153.7
61099.6
61045.6
60991.6
60937.7
60883.8
60829.9
60776
60722.2
60668.4
60614.6
60560.9
60507.2
60453.6
60399.9
60346.3
60292.8
60239.2
60185.7
60132.2
60078.8
60025.4
59972
59918.7
59865.3
59812.1
59758.8
59705.6
59652.4
59599.2
59546.1
59493
59439.9
59386.9
59333.9
59280.9
59228
59175.1
59122.2
59069.4
59016.6
58963.8
58911.1
58858.3
58805.7
58753
58700.4
58647.8
58595.2
58542.7
58490.2
58437.7
58385.3
58332.9
58280.5
58228.2
58175.9
58123.6
58071.4
58019.2
57967
57914.8
57862.7
57810.6
57758.6
57706.5
57654.5
57602.6
57550.6
57498.7
57446.9
57395
57343.2
57291.4
57239.7
57188
57136.3
57084.7
57033
56981.4
56929.9
56878.4
56826.9
56775.4
56724
56672.6
56621.2
56569.8
56518.5
56467.3
56416
56364.8
56313.6
56262.5
56211.3
56160.2
56109.2
56058.1
56007.1
55956.2
55905.2
55854.3
55803.5
55752.6
55701.8
55651
55600.3
55549.5
55498.9
55448.2
55397.6
55347
55296.4
55245.9
55195.4
55144.9
55094.4
55044
54993.6
54943.3
54893
54842.7
54792.4
54742.2
54692
54641.8
54591.7
54541.6
54491.5
54441.5
54391.4
54341.5
54291.5
54241.6
54191.7
54141.8
54092
54042.2
53992.4
53942.7
53893
53843.3
53793.6
53744
53694.4
53644.9
53595.4
53545.9
53496.4
53447
53397.6
53348.2
53298.8
53249.5
53200.2
53151
53101.8
53052.6
53003.4
52954.3
52905.2
52856.1
52807.1
52758.1
52709.1
52660.1
52611.2
52562.3
52513.5
52464.6
52415.8
52367.1
52318.3
52269.6
52220.9
52172.3
52123.7
52075.1
52026.5
51978
51929.5
51881
51832.6
51784.2
51735.8
51687.5
51639.2
51590.9
51542.6
51494.4
51446.2
51398
51349.9
51301.8
51253.7
51205.7
51157.7
51109.7
51061.7
51013.8
50965.9
50918
50870.2
50822.4
50774.6
50726.9
50679.1
50631.4
50583.8
50536.2
50488.6
50441
50393.5
50345.9
50298.5
50251
50203.6
50156.2
50108.8
50061.5
50014.2
49966.9
49919.7
49872.5
49825.3
49778.2
49731
49683.9
49636.9
49589.8
49542.8
49495.9
49448.9
49402
49355.1
49308.3
49261.4
49214.6
49167.9
49121.1
49074.4
49027.7
48981.1
48934.5
48887.9
48841.3
48794.8
48748.3
48701.8
48655.4
48609
48562.6
48516.2
48469.9
48423.6
48377.3
48331.1
48284.9
48238.7
48192.6
48146.4
48100.3
48054.3
48008.2
47962.2
47916.3
47870.3
47824.4
47778.5
47732.7
47686.8
47641
47595.3
47549.5
47503.8
47458.1
47412.5
47366.8
47321.3
47275.7
47230.1
47184.6
47139.2
47093.7
47048.3
47002.9
46957.5
46912.2
46866.9
46821.6
46776.4
46731.2
46686
46640.8
46595.7
46550.6
46505.5
46460.5
46415.4
46370.5
46325.5
46280.6
46235.7
46190.8
46146
46101.1
46056.4
46011.6
45966.9
45922.2
45877.5
45832.9
45788.3
45743.7
45699.1
45654.6
45610.1
45565.6
45521.2
45476.8
45432.4
45388
45343.7
45299.4
45255.1
45210.9
45166.7
45122.5
45078.4
45034.2
44990.1
44946.1
44902
44858
44814
44770.1
44726.2
44682.3
44638.4
44594.6
44550.7
44507
44463.2
44419.5
44375.8
44332.1
44288.5
44244.9
44201.3
44157.7
44114.2
44070.7
44027.2
43983.8
43940.4
43897
43853.6
43810.3
43767
43723.7
43680.5
43637.3
43594.1
43550.9
43507.8
43464.7
43421.6
43378.6
43335.6
43292.6
43249.6
43206.7
43163.8
43120.9
43078
43035.2
42992.4
42949.7
42906.9
42864.2
42821.5
42778.9
42736.3
42693.7
42651.1
42608.5
42566
42523.5
42481.1
42438.7
42396.3
42353.9
42311.5
42269.2
42226.9
42184.7
42142.4
42100.2
42058.1
42015.9
41973.8
41931.7
41889.6
41847.6
41805.6
41763.6
41721.6
41679.7
41637.8
41595.9
41554.1
41512.3
41470.5
41428.7
41387
41345.3
41303.6
41262
41220.3
41178.8
41137.2
41095.6
41054.1
41012.7
40971.2
40929.8
40888.4
40847
40805.6
40764.3
40723
40681.8
40640.5
40599.3
40558.1
40517
40475.9
40434.8
40393.7
40352.7
40311.6
40270.6
40229.7
40188.8
40147.8
40107
40066.1
40025.3
39984.5
39943.7
39903
39862.3
39821.6
39780.9
39740.3
39699.7
39659.1
39618.5
39578
39537.5
39497.1
39456.6
39416.2
39375.8
39335.5
39295.1
39254.8
39214.5
39174.3
39134.1
39093.9
39053.7
39013.5
38973.4
38933.3
38893.3
38853.2
38813.2
38773.3
38733.3
38693.4
38653.5
38613.6
38573.8
38533.9
38494.1
38454.4
38414.6
38374.9
38335.2
38295.6
38256
38216.4
38176.8
38137.2
38097.7
38058.2
38018.7
37979.3
37939.9
37900.5
37861.1
37821.8
37782.5
37743.2
37704
37664.7
37625.5
37586.4
37547.2
37508.1
37469
37429.9
37390.9
37351.9
37312.9
37273.9
37235
37196.1
37157.2
37118.3
37079.5
37040.7
37001.9
36963.2
36924.5
36885.8
36847.1
36808.5
36769.9
36731.3
36692.7
36654.2
36615.7
36577.2
36538.7
36500.3
36461.9
36423.5
36385.2
36346.8
36308.5
36270.3
36232
36193.8
36155.6
36117.5
36079.3
36041.2
36003.1
35965.1
35927
35889
35851
35813.1
35775.2
35737.3
35699.4
35661.5
35623.7
35585.9
35548.1
35510.4
35472.7
35435
35397.3
35359.7
35322.1
35284.5
35246.9
35209.4
35171.9
35134.4
35096.9
35059.5
35022.1
34984.7
34947.4
34910
34872.7
34835.5
34798.2
34761
34723.8
34686.6
34649.5
34612.4
34575.3
34538.2
34501.2
34464.1
34427.1
34390.2
34353.2
34316.3
34279.5
34242.6
34205.8
34168.9
34132.2
34095.4
34058.7
34022
33985.3
33948.6
33912
33875.4
33838.8
33802.3
33765.8
33729.3
33692.8
33656.3
33619.9
33583.5
33547.2
33510.8
33474.5
33438.2
33401.9
33365.7
33329.5
33293.3
33257.1
33221
33184.9
33148.8
33112.7
33076.7
33040.7
33004.7
32968.7
32932.8
32896.9
32861
32825.1
32789.3
32753.5
32717.7
32681.9
32646.2
32610.5
32574.8
32539.2
32503.5
32467.9
32432.4
32396.8
32361.3
32325.8
32290.3
32254.8
32219.4
32184
32148.6
32113.3
32078
32042.7
32007.4
31972.1
31936.9
31901.7
31866.5
31831.4
31796.3
31761.2
31726.1
31691
31656
31621
31586
31551.1
31516.2
31481.3
31446.4
31411.6
31376.7
31341.9
31307.2
31272.4
31237.7
31203
31168.3
31133.7
31099.1
31064.5
31029.9
30995.3
30960.8
30926.3
30891.8
30857.4
30823
30788.6
30754.2
30719.9
30685.5
30651.2
30617
30582.7
30548.5
30514.3
30480.1
30446
30411.8
30377.7
30343.7
30309.6
30275.6
30241.6
30207.6
30173.7
30139.7
30105.8
30071.9
30038.1
30004.3
29970.5
29936.7
29902.9
29869.2
29835.5
29801.8
29768.2
29734.5
29700.9
29667.3
29633.8
29600.3
29566.7
29533.3
29499.8
29466.4
29433
29399.6
29366.2
29332.9
29299.6
29266.3
29233
29199.8
29166.6
29133.4
29100.2
29067.1
29033.9
29000.9
28967.8
28934.7
28901.7
28868.7
28835.8
28802.8
28769.9
28737
28704.1
28671.3
28638.4
28605.6
28572.9
28540.1
28507.4
28474.7
28442
28409.4
28376.7
28344.1
28311.5
28279
28246.4
28213.9
28181.4
28149
28116.5
28084.1
28051.7
28019.4
27987
27954.7
27922.4
27890.2
27857.9
27825.7
27793.5
27761.3
27729.2
27697.1
27665
27632.9
27600.8
27568.8
27536.8
27504.8
27472.9
27440.9
27409
27377.1
27345.3
27313.4
27281.6
27249.8
27218.1
27186.3
27154.6
27122.9
27091.2
27059.6
27028
26996.4
26964.8
26933.2
26901.7
26870.2
26838.7
26807.3
26775.8
26744.4
26713
26681.7
26650.3
26619
26587.7
26556.5
26525.2
26494
26462.8
26431.6
26400.5
26369.4
26338.3
26307.2
26276.1
26245.1
26214.1
26183.1
26152.1
26121.2
26090.3
26059.4
26028.5
25997.7
25966.9
25936.1
25905.3
25874.6
25843.8
25813.1
25782.4
25751.8
25721.2
25690.6
25660
25629.4
25598.9
25568.3
25537.9
25507.4
25476.9
25446.5
25416.1
25385.7
25355.4
25325.1
25294.8
25264.5
25234.2
25204
25173.8
25143.6
25113.4
25083.3
25053.2
25023.1
24993
24962.9
24932.9
24902.9
24872.9
24843
24813
24783.1
24753.2
24723.4
24693.5
24663.7
24633.9
24604.1
24574.4
24544.7
24515
24485.3
24455.6
24426
24396.4
24366.8
24337.2
24307.7
24278.1
24248.6
24219.2
24189.7
24160.3
24130.9
24101.5
24072.1
24042.8
24013.5
23984.2
23954.9
23925.7
23896.5
23867.3
23838.1
23808.9
23779.8
23750.7
23721.6
23692.5
23663.5
23634.5
23605.5
23576.5
23547.6
23518.6
23489.7
23460.9
23432
23403.2
23374.3
23345.6
23316.8
23288
23259.3
23230.6
23201.9
23173.3
23144.7
23116
23087.5
23058.9
23030.3
23001.8
22973.3
22944.9
22916.4
22888
22859.6
22831.2
22802.8
22774.5
22746.2
22717.9
22689.6
22661.3
22633.1
22604.9
22576.7
22548.6
22520.4
22492.3
22464.2
22436.1
22408.1
22380.1