/*--------------------------------*- C++ -*----------------------------------*\
  =========                 |
  \\      /  F ield         | OpenFOAM: The Open Source CFD Toolbox
   \\    /   O peration     | Website:  https://openfoam.org
    \\  /    A nd           | Version:  9
     \\/     M anipulation  |
\*---------------------------------------------------------------------------*/
FoamFile
{
    format      ascii;
    class       volScalarField;
    location    "0.01";
    object      p;
}
// * * * * * * * * * * * * * * * * * * * * * * * * * * * * * * * * * * * * * //

dimensions      [1 -1 -2 0 0 0 0];

internalField   nonuniform List<scalar> 
10000
(
100000
100000
100000
100000
100000
100000
100000
100000
100000
100000
100000
100000
100000
100000
100000
100000
100000
100000
100000
100000
100000
100000
100000
100000
100000
100000
100000
100000
100000
100000
100000
100000
100000
100000
100000
100000
100000
100000
100000
100000
100000
100000
100000
100000
100000
100000
100000
100000
100000
100000
100000
100000
100000
100000
100000
100000
100000
100000
100000
100000
100000
100000
100000
100000
100000
100000
100000
100000
100000
100000
100000
100000
100000
100000
100000
100000
100000
100000
100000
100000
100000
100000
100000
100000
100000
100000
100000
100000
100000
100000
100000
100000
100000
100000
100000
100000
100000
100000
100000
100000
100000
100000
100000
100000
100000
100000
100000
100000
100000
100000
100000
100000
100000
100000
100000
100000
100000
100000
100000
100000
100000
100000
100000
100000
100000
100000
100000
100000
100000
100000
100000
100000
100000
100000
100000
100000
100000
100000
100000
100000
100000
100000
100000
100000
100000
100000
100000
100000
100000
100000
100000
100000
100000
100000
100000
100000
100000
100000
100000
100000
100000
100000
100000
100000
100000
100000
100000
100000
100000
100000
100000
100000
100000
100000
100000
100000
100000
100000
100000
100000
100000
100000
100000
100000
100000
100000
100000
100000
100000
100000
100000
100000
100000
100000
100000
100000
100000
100000
100000
100000
100000
100000
100000
100000
100000
100000
100000
100000
100000
100000
100000
100000
100000
100000
100000
100000
100000
100000
100000
100000
100000
100000
100000
100000
100000
100000
100000
100000
100000
100000
100000
100000
100000
100000
100000
100000
100000
100000
100000
100000
100000
100000
100000
100000
100000
100000
100000
100000
100000
100000
100000
100000
100000
100000
100000
100000
100000
100000
100000
100000
100000
100000
100000
100000
100000
100000
100000
100000
100000
100000
100000
100000
100000
100000
100000
100000
100000
100000
100000
100000
100000
100000
100000
100000
100000
100000
100000
100000
100000
100000
100000
100000
100000
100000
100000
100000
100000
100000
100000
100000
100000
100000
100000
100000
100000
100000
100000
100000
100000
100000
100000
100000
100000
100000
100000
100000
100000
100000
100000
100000
100000
100000
100000
100000
100000
100000
100000
100000
100000
100000
100000
100000
100000
100000
100000
100000
100000
100000
100000
100000
100000
100000
100000
100000
100000
100000
100000
100000
100000
100000
100000
100000
100000
100000
100000
100000
100000
100000
100000
100000
100000
100000
100000
100000
100000
100000
100000
100000
100000
100000
100000
100000
100000
100000
100000
100000
100000
100000
100000
100000
100000
100000
100000
100000
100000
100000
100000
100000
100000
100000
100000
100000
100000
100000
100000
100000
100000
100000
100000
100000
100000
100000
100000
100000
100000
100000
100000
100000
100000
100000
100000
100000
100000
100000
100000
100000
100000
100000
100000
100000
100000
100000
100000
100000
100000
100000
100000
100000
100000
100000
100000
100000
100000
100000
100000
100000
100000
100000
100000
100000
100000
100000
100000
100000
100000
100000
100000
100000
100000
100000
100000
100000
100000
100000
100000
100000
100000
100000
100000
100000
100000
100000
100000
100000
100000
100000
100000
100000
100000
100000
100000
100000
100000
100000
100000
100000
100000
100000
100000
100000
100000
100000
100000
100000
100000
100000
100000
100000
100000
100000
100000
100000
100000
100000
100000
100000
100000
100000
100000
100000
100000
100000
100000
100000
100000
100000
100000
100000
100000
100000
100000
100000
100000
100000
100000
100000
100000
100000
100000
100000
100000
100000
100000
100000
100000
100000
100000
100000
100000
100000
100000
100000
100000
100000
100000
100000
100000
100000
100000
100000
100000
100000
100000
100000
100000
100000
100000
100000
100000
100000
100000
100000
100000
100000
100000
100000
100000
100000
100000
100000
100000
100000
100000
100000
100000
100000
100000
100000
100000
100000
100000
100000
100000
100000
100000
100000
100000
100000
100000
100000
100000
100000
100000
100000
100000
100000
100000
100000
100000
100000
100000
100000
100000
100000
100000
100000
100000
100000
100000
100000
100000
100000
100000
100000
100000
100000
100000
100000
100000
100000
100000
100000
100000
100000
100000
100000
100000
100000
100000
100000
100000
100000
100000
100000
100000
100000
100000
100000
100000
100000
100000
100000
100000
100000
100000
100000
100000
100000
100000
100000
100000
100000
100000
100000
100000
100000
100000
100000
100000
100000
100000
100000
100000
100000
100000
100000
100000
100000
100000
100000
100000
100000
100000
100000
100000
100000
100000
100000
100000
100000
100000
100000
100000
100000
100000
100000
100000
100000
100000
100000
100000
100000
100000
100000
100000
100000
100000
100000
100000
100000
100000
100000
100000
100000
100000
100000
100000
100000
100000
100000
100000
100000
100000
100000
100000
100000
100000
100000
100000
100000
100000
100000
100000
100000
100000
100000
100000
100000
100000
100000
100000
100000
100000
100000
100000
100000
100000
100000
100000
100000
100000
100000
100000
100000
100000
100000
100000
100000
100000
100000
100000
100000
100000
100000
100000
100000
100000
100000
100000
100000
100000
100000
100000
100000
100000
100000
100000
100000
100000
100000
100000
100000
100000
100000
100000
100000
100000
100000
100000
100000
100000
100000
100000
100000
100000
100000
100000
100000
100000
100000
100000
100000
100000
100000
100000
100000
100000
100000
100000
100000
100000
100000
100000
100000
100000
100000
100000
100000
100000
100000
100000
100000
100000
100000
100000
100000
100000
100000
100000
100000
100000
100000
100000
100000
100000
100000
100000
100000
100000
100000
100000
100000
100000
100000
100000
100000
100000
100000
100000
100000
100000
100000
100000
100000
100000
100000
100000
100000
100000
100000
100000
100000
100000
100000
100000
100000
100000
100000
100000
100000
100000
100000
100000
100000
100000
100000
100000
100000
100000
100000
100000
100000
100000
100000
100000
100000
100000
100000
100000
100000
100000
100000
100000
100000
100000
100000
100000
100000
100000
100000
100000
100000
100000
100000
100000
100000
100000
100000
100000
100000
100000
100000
100000
100000
100000
100000
100000
100000
100000
100000
100000
100000
100000
100000
100000
100000
100000
100000
100000
100000
100000
100000
100000
100000
100000
100000
100000
100000
100000
100000
100000
100000
100000
100000
100000
100000
100000
100000
100000
100000
100000
100000
100000
100000
100000
100000
100000
100000
100000
100000
100000
100000
100000
100000
100000
100000
100000
100000
100000
100000
100000
100000
100000
100000
100000
100000
100000
100000
100000
100000
100000
100000
100000
100000
100000
100000
100000
100000
100000
100000
100000
100000
100000
100000
100000
100000
100000
100000
100000
100000
100000
100000
100000
100000
100000
100000
100000
100000
100000
100000
100000
100000
100000
100000
100000
100000
100000
100000
100000
100000
100000
100000
100000
100000
100000
100000
100000
100000
100000
100000
100000
100000
100000
100000
100000
100000
100000
100000
100000
100000
100000
100000
100000
100000
100000
100000
100000
100000
100000
100000
100000
100000
100000
100000
100000
100000
100000
100000
100000
100000
100000
100000
100000
100000
100000
100000
100000
100000
100000
100000
100000
100000
100000
100000
100000
100000
100000
100000
100000
100000
100000
100000
100000
100000
100000
100000
100000
100000
100000
100000
100000
100000
100000
100000
100000
100000
100000
100000
100000
100000
100000
100000
100000
100000
100000
100000
100000
100000
100000
100000
100000
100000
100000
100000
100000
100000
100000
100000
100000
100000
100000
100000
100000
100000
100000
100000
100000
100000
100000
100000
100000
100000
100000
100000
100000
100000
100000
100000
100000
100000
100000
100000
100000
100000
100000
100000
100000
100000
100000
100000
100000
100000
100000
100000
100000
100000
100000
100000
100000
100000
100000
100000
100000
100000
100000
100000
100000
100000
100000
100000
100000
100000
100000
100000
100000
100000
100000
100000
100000
100000
100000
100000
100000
100000
100000
100000
100000
100000
100000
100000
100000
100000
100000
100000
100000
100000
100000
100000
100000
100000
100000
100000
100000
100000
100000
100000
100000
100000
100000
99999.9
99999.9
99999.9
99999.9
99999.9
99999.8
99999.8
99999.8
99999.7
99999.7
99999.6
99999.5
99999.4
99999.3
99999.1
99998.9
99998.7
99998.4
99998.1
99997.7
99997.3
99996.8
99996.2
99995.5
99994.7
99993.8
99992.7
99991.4
99990
99988.4
99986.5
99984.4
99981.9
99979.2
99976.1
99972.7
99968.8
99964.5
99959.7
99954.4
99948.6
99942.2
99935.2
99927.6
99919.3
99910.4
99900.7
99890.4
99879.3
99867.4
99854.8
99841.5
99827.4
99812.6
99797
99780.7
99763.7
99746
99727.7
99708.6
99689
99668.8
99648
99626.6
99604.7
99582.3
99559.5
99536.2
99512.5
99488.5
99464
99439.2
99414.1
99388.7
99363.1
99337.1
99310.9
99284.5
99257.9
99231.1
99204.1
99176.9
99149.6
99122.2
99094.6
99066.8
99039
99011
98982.9
98954.8
98926.5
98898.1
98869.7
98841.2
98812.6
98784
98755.3
98726.5
98697.7
98668.9
98640
98611
98582
98553
98523.9
98494.8
98465.7
98436.5
98407.3
98378.1
98348.8
98319.5
98290.2
98260.9
98231.6
98202.2
98172.8
98143.4
98114
98084.6
98055.2
98025.7
97996.3
97966.8
97937.3
97907.8
97878.3
97848.8
97819.3
97789.7
97760.2
97730.7
97701.1
97671.6
97642
97612.4
97582.9
97553.3
97523.7
97494.1
97464.5
97435
97405.4
97375.8
97346.2
97316.6
97287
97257.4
97227.8
97198.2
97168.6
97139
97109.3
97079.7
97050.1
97020.5
96990.9
96961.3
96931.7
96902.1
96872.5
96842.9
96813.3
96783.7
96754.1
96724.5
96694.9
96665.3
96635.7
96606.1
96576.5
96546.9
96517.3
96487.7
96458.1
96428.5
96398.9
96369.4
96339.8
96310.2
96280.6
96251.1
96221.5
96191.9
96162.4
96132.8
96103.2
96073.7
96044.1
96014.6
95985
95955.5
95925.9
95896.4
95866.9
95837.3
95807.8
95778.3
95748.7
95719.2
95689.7
95660.2
95630.7
95601.2
95571.7
95542.2
95512.7
95483.2
95453.7
95424.2
95394.8
95365.3
95335.8
95306.3
95276.9
95247.4
95218
95188.5
95159.1
95129.6
95100.2
95070.8
95041.3
95011.9
94982.5
94953.1
94923.7
94894.3
94864.9
94835.5
94806.1
94776.7
94747.3
94717.9
94688.6
94659.2
94629.8
94600.5
94571.1
94541.8
94512.4
94483.1
94453.8
94424.4
94395.1
94365.8
94336.5
94307.2
94277.9
94248.6
94219.3
94190
94160.7
94131.5
94102.2
94072.9
94043.7
94014.4
93985.2
93955.9
93926.7
93897.5
93868.3
93839.1
93809.8
93780.6
93751.4
93722.2
93693.1
93663.9
93634.7
93605.5
93576.4
93547.2
93518.1
93488.9
93459.8
93430.6
93401.5
93372.4
93343.3
93314.2
93285.1
93256
93226.9
93197.8
93168.7
93139.7
93110.6
93081.5
93052.5
93023.4
92994.4
92965.4
92936.3
92907.3
92878.3
92849.3
92820.3
92791.3
92762.3
92733.3
92704.4
92675.4
92646.4
92617.5
92588.5
92559.6
92530.6
92501.7
92472.8
92443.9
92415
92386.1
92357.2
92328.3
92299.4
92270.5
92241.6
92212.8
92183.9
92155.1
92126.2
92097.4
92068.6
92039.8
92010.9
91982.1
91953.3
91924.5
91895.7
91867
91838.2
91809.4
91780.7
91751.9
91723.2
91694.4
91665.7
91637
91608.2
91579.5
91550.8
91522.1
91493.4
91464.7
91436.1
91407.4
91378.7
91350.1
91321.4
91292.8
91264.1
91235.5
91206.9
91178.3
91149.7
91121.1
91092.5
91063.9
91035.3
91006.7
90978.2
90949.6
90921
90892.5
90864
90835.4
90806.9
90778.4
90749.9
90721.4
90692.9
90664.4
90635.9
90607.4
90579
90550.5
90522
90493.6
90465.2
90436.7
90408.3
90379.9
90351.5
90323.1
90294.7
90266.3
90237.9
90209.5
90181.1
90152.8
90124.4
90096.1
90067.7
90039.4
90011.1
89982.8
89954.4
89926.1
89897.8
89869.6
89841.3
89813
89784.7
89756.5
89728.2
89700
89671.7
89643.5
89615.3
89587
89558.8
89530.6
89502.4
89474.2
89446
89417.9
89389.7
89361.5
89333.4
89305.2
89277.1
89249
89220.8
89192.7
89164.6
89136.5
89108.4
89080.3
89052.2
89024.2
88996.1
88968
88940
88911.9
88883.9
88855.9
88827.8
88799.8
88771.8
88743.8
88715.8
88687.8
88659.8
88631.9
88603.9
88575.9
88548
88520
88492.1
88464.2
88436.2
88408.3
88380.4
88352.5
88324.6
88296.7
88268.8
88241
88213.1
88185.2
88157.4
88129.5
88101.7
88073.9
88046.1
88018.2
87990.4
87962.6
87934.8
87907
87879.3
87851.5
87823.7
87796
87768.2
87740.5
87712.7
87685
87657.3
87629.6
87601.9
87574.2
87546.5
87518.8
87491.1
87463.4
87435.8
87408.1
87380.5
87352.8
87325.2
87297.6
87269.9
87242.3
87214.7
87187.1
87159.5
87131.9
87104.4
87076.8
87049.2
87021.7
86994.1
86966.6
86939.1
86911.5
86884
86856.5
86829
86801.5
86774
86746.5
86719
86691.6
86664.1
86636.7
86609.2
86581.8
86554.3
86526.9
86499.5
86472.1
86444.7
86417.3
86389.9
86362.5
86335.1
86307.8
86280.4
86253.1
86225.7
86198.4
86171
86143.7
86116.4
86089.1
86061.8
86034.5
86007.2
85979.9
85952.6
85925.4
85898.1
85870.9
85843.6
85816.4
85789.1
85761.9
85734.7
85707.5
85680.3
85653.1
85625.9
85598.7
85571.6
85544.4
85517.2
85490.1
85462.9
85435.8
85408.7
85381.6
85354.4
85327.3
85300.2
85273.1
85246
85219
85191.9
85164.8
85137.8
85110.7
85083.7
85056.6
85029.6
85002.6
84975.6
84948.6
84921.6
84894.6
84867.6
84840.6
84813.6
84786.7
84759.7
84732.8
84705.8
84678.9
84652
84625
84598.1
84571.2
84544.3
84517.4
84490.5
84463.7
84436.8
84409.9
84383.1
84356.2
84329.4
84302.5
84275.7
84248.9
84222.1
84195.3
84168.5
84141.7
84114.9
84088.1
84061.4
84034.6
84007.8
83981.1
83954.3
83927.6
83900.9
83874.2
83847.4
83820.7
83794
83767.3
83740.7
83714
83687.3
83660.7
83634
83607.3
83580.7
83554.1
83527.4
83500.8
83474.2
83447.6
83421
83394.4
83367.8
83341.2
83314.7
83288.1
83261.6
83235
83208.5
83181.9
83155.4
83128.9
83102.4
83075.9
83049.4
83022.9
82996.4
82969.9
82943.4
82917
82890.5
82864.1
82837.6
82811.2
82784.8
82758.3
82731.9
82705.5
82679.1
82652.7
82626.4
82600
82573.6
82547.2
82520.9
82494.5
82468.2
82441.9
82415.5
82389.2
82362.9
82336.6
82310.3
82284
82257.7
82231.4
82205.2
82178.9
82152.6
82126.4
82100.1
82073.9
82047.7
82021.5
81995.2
81969
81942.8
81916.6
81890.5
81864.3
81838.1
81811.9
81785.8
81759.6
81733.5
81707.3
81681.2
81655.1
81629
81602.9
81576.8
81550.7
81524.6
81498.5
81472.4
81446.4
81420.3
81394.3
81368.2
81342.2
81316.1
81290.1
81264.1
81238.1
81212.1
81186.1
81160.1
81134.1
81108.1
81082.2
81056.2
81030.3
81004.3
80978.4
80952.4
80926.5
80900.6
80874.7
80848.8
80822.9
80797
80771.1
80745.2
80719.4
80693.5
80667.6
80641.8
80616
80590.1
80564.3
80538.5
80512.7
80486.9
80461.1
80435.3
80409.5
80383.7
80357.9
80332.2
80306.4
80280.7
80254.9
80229.2
80203.5
80177.7
80152
80126.3
80100.6
80074.9
80049.2
80023.5
79997.9
79972.2
79946.5
79920.9
79895.3
79869.6
79844
79818.4
79792.7
79767.1
79741.5
79715.9
79690.3
79664.8
79639.2
79613.6
79588.1
79562.5
79537
79511.4
79485.9
79460.4
79434.8
79409.3
79383.8
79358.3
79332.8
79307.3
79281.9
79256.4
79230.9
79205.5
79180
79154.6
79129.1
79103.7
79078.3
79052.9
79027.5
79002.1
78976.7
78951.3
78925.9
78900.5
78875.2
78849.8
78824.4
78799.1
78773.8
78748.4
78723.1
78697.8
78672.5
78647.2
78621.9
78596.6
78571.3
78546
78520.7
78495.5
78470.2
78445
78419.7
78394.5
78369.3
78344.1
78318.8
78293.6
78268.4
78243.2
78218
78192.9
78167.7
78142.5
78117.4
78092.2
78067.1
78041.9
78016.8
77991.7
77966.6
77941.4
77916.3
77891.2
77866.1
77841.1
77816
77790.9
77765.9
77740.8
77715.7
77690.7
77665.7
77640.6
77615.6
77590.6
77565.6
77540.6
77515.6
77490.6
77465.6
77440.7
77415.7
77390.7
77365.8
77340.8
77315.9
77291
77266
77241.1
77216.2
77191.3
77166.4
77141.5
77116.6
77091.7
77066.9
77042
77017.1
76992.3
76967.4
76942.6
76917.8
76893
76868.1
76843.3
76818.5
76793.7
76768.9
76744.2
76719.4
76694.6
76669.9
76645.1
76620.3
76595.6
76570.9
76546.1
76521.4
76496.7
76472
76447.3
76422.6
76397.9
76373.2
76348.6
76323.9
76299.2
76274.6
76249.9
76225.3
76200.7
76176
76151.4
76126.8
76102.2
76077.6
76053
76028.4
76003.8
75979.3
75954.7
75930.1
75905.6
75881
75856.5
75832
75807.4
75782.9
75758.4
75733.9
75709.4
75684.9
75660.4
75636
75611.5
75587
75562.6
75538.1
75513.7
75489.2
75464.8
75440.4
75416
75391.6
75367.2
75342.8
75318.4
75294
75269.6
75245.2
75220.9
75196.5
75172.2
75147.8
75123.5
75099.2
75074.8
75050.5
75026.2
75001.9
74977.6
74953.3
74929
74904.8
74880.5
74856.2
74832
74807.7
74783.5
74759.3
74735
74710.8
74686.6
74662.4
74638.2
74614
74589.8
74565.6
74541.4
74517.3
74493.1
74468.9
74444.8
74420.7
74396.5
74372.4
74348.3
74324.2
74300
74275.9
74251.9
74227.8
74203.7
74179.6
74155.5
74131.5
74107.4
74083.4
74059.3
74035.3
74011.3
73987.2
73963.2
73939.2
73915.2
73891.2
73867.2
73843.3
73819.3
73795.3
73771.3
73747.4
73723.4
73699.5
73675.6
73651.6
73627.7
73603.8
73579.9
73556
73532.1
73508.2
73484.3
73460.4
73436.6
73412.7
73388.9
73365
73341.2
73317.3
73293.5
73269.7
73245.9
73222.1
73198.2
73174.5
73150.7
73126.9
73103.1
73079.3
73055.6
73031.8
73008.1
72984.3
72960.6
72936.9
72913.1
72889.4
72865.7
72842
72818.3
72794.6
72770.9
72747.2
72723.6
72699.9
72676.2
72652.6
72629
72605.3
72581.7
72558.1
72534.4
72510.8
72487.2
72463.6
72440
72416.4
72392.9
72369.3
72345.7
72322.2
72298.6
72275.1
72251.5
72228
72204.5
72180.9
72157.4
72133.9
72110.4
72086.9
72063.4
72040
72016.5
71993
71969.6
71946.1
71922.7
71899.2
71875.8
71852.3
71828.9
71805.5
71782.1
71758.7
71735.3
71711.9
71688.5
71665.2
71641.8
71618.4
71595.1
71571.7
71548.4
71525
71501.7
71478.4
71455.1
71431.7
71408.4
71385.1
71361.8
71338.6
71315.3
71292
71268.7
71245.5
71222.2
71199
71175.7
71152.5
71129.3
71106.1
71082.8
71059.6
71036.4
71013.2
70990.1
70966.9
70943.7
70920.5
70897.4
70874.2
70851.1
70827.9
70804.8
70781.7
70758.5
70735.4
70712.3
70689.2
70666.1
70643
70619.9
70596.8
70573.8
70550.7
70527.6
70504.6
70481.5
70458.5
70435.5
70412.4
70389.4
70366.4
70343.4
70320.4
70297.4
70274.4
70251.4
70228.5
70205.5
70182.5
70159.6
70136.6
70113.7
70090.7
70067.8
70044.9
70022
69999.1
69976.2
69953.3
69930.4
69907.5
69884.6
69861.7
69838.9
69816
69793.1
69770.3
69747.5
69724.6
69701.8
69679
69656.2
69633.3
69610.5
69587.7
69565
69542.2
69519.4
69496.6
69473.9
69451.1
69428.4
69405.6
69382.9
69360.1
69337.4
69314.7
69292
69269.3
69246.6
69223.9
69201.2
69178.5
69155.8
69133.2
69110.5
69087.8
69065.2
69042.5
69019.9
68997.3
68974.7
68952
68929.4
68906.8
68884.2
68861.6
68839
68816.5
68793.9
68771.3
68748.8
68726.2
68703.7
68681.1
68658.6
68636.1
68613.5
68591
68568.5
68546
68523.5
68501
68478.5
68456
68433.6
68411.1
68388.6
68366.2
68343.7
68321.3
68298.9
68276.4
68254
68231.6
68209.2
68186.8
68164.4
68142
68119.6
68097.2
68074.9
68052.5
68030.1
68007.8
67985.4
67963.1
67940.8
67918.4
67896.1
67873.8
67851.5
67829.2
67806.9
67784.6
67762.3
67740
67717.8
67695.5
67673.3
67651
67628.8
67606.5
67584.3
67562.1
67539.8
67517.6
67495.4
67473.2
67451
67428.8
67406.6
67384.5
67362.3
67340.1
67318
67295.8
67273.7
67251.5
67229.4
67207.3
67185.1
67163
67140.9
67118.8
67096.7
67074.6
67052.5
67030.5
67008.4
66986.3
66964.3
66942.2
66920.2
66898.1
66876.1
66854.1
66832.1
66810
66788
66766
66744
66722
66700.1
66678.1
66656.1
66634.1
66612.2
66590.2
66568.3
66546.3
66524.4
66502.5
66480.5
66458.6
66436.7
66414.8
66392.9
66371
66349.1
66327.3
66305.4
66283.5
66261.7
66239.8
66218
66196.1
66174.3
66152.4
66130.6
66108.8
66087
66065.2
66043.4
66021.6
65999.8
65978
65956.3
65934.5
65912.7
65891
65869.2
65847.5
65825.7
65804
65782.3
65760.6
65738.9
65717.1
65695.4
65673.7
65652.1
65630.4
65608.7
65587
65565.4
65543.7
65522.1
65500.4
65478.8
65457.1
65435.5
65413.9
65392.3
65370.7
65349.1
65327.5
65305.9
65284.3
65262.7
65241.1
65219.6
65198
65176.5
65154.9
65133.4
65111.8
65090.3
65068.8
65047.3
65025.8
65004.3
64982.8
64961.3
64939.8
64918.3
64896.8
64875.4
64853.9
64832.4
64811
64789.5
64768.1
64746.7
64725.2
64703.8
64682.4
64661
64639.6
64618.2
64596.8
64575.4
64554.1
64532.7
64511.3
64490
64468.6
64447.3
64425.9
64404.6
64383.2
64361.9
64340.6
64319.3
64298
64276.7
64255.4
64234.1
64212.8
64191.6
64170.3
64149
64127.8
64106.5
64085.3
64064
64042.8
64021.6
64000.4
63979.1
63957.9
63936.7
63915.5
63894.3
63873.2
63852
63830.8
63809.6
63788.5
63767.3
63746.2
63725
63703.9
63682.8
63661.7
63640.5
63619.4
63598.3
63577.2
63556.1
63535
63514
63492.9
63471.8
63450.7
63429.7
63408.6
63387.6
63366.5
63345.5
63324.5
63303.5
63282.4
63261.4
63240.4
63219.4
63198.4
63177.5
63156.5
63135.5
63114.5
63093.6
63072.6
63051.7
63030.7
63009.8
62988.8
62967.9
62947
62926.1
62905.2
62884.3
62863.4
62842.5
62821.6
62800.7
62779.8
62759
62738.1
62717.3
62696.4
62675.6
62654.7
62633.9
62613.1
62592.3
62571.4
62550.6
62529.8
62509
62488.2
62467.5
62446.7
62425.9
62405.1
62384.4
62363.6
62342.9
62322.1
62301.4
62280.7
62259.9
62239.2
62218.5
62197.8
62177.1
62156.4
62135.7
62115
62094.4
62073.7
62053
62032.4
62011.7
61991.1
61970.4
61949.8
61929.1
61908.5
61887.9
61867.3
61846.7
61826.1
61805.5
61784.9
61764.3
61743.7
61723.2
61702.6
61682
61661.5
61640.9
61620.4
61599.9
61579.3
61558.8
61538.3
61517.8
61497.3
61476.8
61456.3
61435.8
61415.3
61394.8
61374.3
61353.9
61333.4
61313
61292.5
61272.1
61251.6
61231.2
61210.8
61190.4
61169.9
61149.5
61129.1
61108.7
61088.4
61068
61047.6
61027.2
61006.8
60986.5
60966.1
60945.8
60925.4
60905.1
60884.8
60864.4
60844.1
60823.8
60803.5
60783.2
60762.9
60742.6
60722.3
60702
60681.8
60661.5
60641.2
60621
60600.7
60580.5
60560.2
60540
60519.8
60499.6
60479.4
60459.1
60438.9
60418.7
60398.5
60378.4
60358.2
60338
60317.8
60297.7
60277.5
60257.4
60237.2
60217.1
60196.9
60176.8
60156.7
60136.6
60116.5
60096.3
60076.2
60056.2
60036.1
60016
59995.9
59975.8
59955.8
59935.7
59915.7
59895.6
59875.6
59855.5
59835.5
59815.5
59795.4
59775.4
59755.4
59735.4
59715.4
59695.4
59675.5
59655.5
59635.5
59615.5
59595.6
59575.6
59555.7
59535.7
59515.8
59495.8
59475.9
59456
59436.1
59416.2
59396.3
59376.4
59356.5
59336.6
59316.7
59296.8
59276.9
59257.1
59237.2
59217.4
59197.5
59177.7
59157.8
59138
59118.2
59098.4
59078.6
59058.7
59038.9
59019.1
58999.4
58979.6
58959.8
58940
58920.3
58900.5
58880.7
58861
58841.2
58821.5
58801.8
58782
58762.3
58742.6
58722.9
58703.2
58683.5
58663.8
58644.1
58624.4
58604.7
58585.1
58565.4
58545.7
58526.1
58506.4
58486.8
58467.2
58447.5
58427.9
58408.3
58388.7
58369
58349.4
58329.8
58310.3
58290.7
58271.1
58251.5
58231.9
58212.4
58192.8
58173.3
58153.7
58134.2
58114.6
58095.1
58075.6
58056.1
58036.5
58017
57997.5
57978
57958.6
57939.1
57919.6
57900.1
57880.6
57861.2
57841.7
57822.3
57802.8
57783.4
57763.9
57744.5
57725.1
57705.7
57686.3
57666.9
57647.5
57628.1
57608.7
57589.3
57569.9
57550.5
57531.2
57511.8
57492.4
57473.1
57453.8
57434.4
57415.1
57395.8
57376.4
57357.1
57337.8
57318.5
57299.2
57279.9
57260.6
57241.3
57222
57202.8
57183.5
57164.2
57145
57125.7
57106.5
57087.3
57068
57048.8
57029.6
57010.3
56991.1
56971.9
56952.7
56933.5
56914.3
56895.2
56876
56856.8
56837.6
56818.5
56799.3
56780.2
56761
56741.9
56722.8
56703.6
56684.5
56665.4
56646.3
56627.2
56608.1
56589
56569.9
56550.8
56531.7
56512.6
56493.6
56474.5
56455.5
56436.4
56417.4
56398.3
56379.3
56360.3
56341.2
56322.2
56303.2
56284.2
56265.2
56246.2
56227.2
56208.2
56189.3
56170.3
56151.3
56132.3
56113.4
56094.4
56075.5
56056.5
56037.6
56018.7
55999.8
55980.8
55961.9
55943
55924.1
55905.2
55886.3
55867.4
55848.6
55829.7
55810.8
55792
55773.1
55754.2
55735.4
55716.5
55697.7
55678.9
55660.1
55641.2
55622.4
55603.6
55584.8
55566
55547.2
55528.4
55509.6
55490.9
55472.1
55453.3
55434.6
55415.8
55397.1
55378.3
55359.6
55340.8
55322.1
55303.4
55284.7
55266
55247.3
55228.6
55209.9
55191.2
55172.5
55153.8
55135.1
55116.5
55097.8
55079.2
55060.5
55041.9
55023.2
55004.6
54986
54967.3
54948.7
54930.1
54911.5
54892.9
54874.3
54855.7
54837.1
54818.5
54799.9
54781.4
54762.8
54744.3
54725.7
54707.2
54688.6
54670.1
54651.5
54633
54614.5
54596
54577.5
54559
54540.5
54522
54503.5
54485
54466.5
54448
54429.6
54411.1
54392.6
54374.2
54355.7
54337.3
54318.9
54300.4
54282
54263.6
54245.2
54226.8
54208.4
54190
54171.6
54153.2
54134.8
54116.4
54098.1
54079.7
54061.3
54043
54024.6
54006.3
53987.9
53969.6
53951.3
53933
53914.6
53896.3
53878
53859.7
53841.4
53823.1
53804.8
53786.6
53768.3
53750
53731.8
53713.5
53695.2
53677
53658.8
53640.5
53622.3
53604.1
53585.8
53567.6
53549.4
53531.2
53513
53494.8
53476.6
53458.4
53440.2
53422.1
53403.9
53385.7
53367.6
53349.4
53331.3
53313.1
53295
53276.9
53258.7
53240.6
53222.5
53204.4
53186.3
53168.2
53150.1
53132
53113.9
53095.8
53077.8
53059.7
53041.6
53023.6
53005.5
52987.5
52969.4
52951.4
52933.4
52915.4
52897.3
52879.3
52861.3
52843.3
52825.3
52807.3
52789.3
52771.3
52753.4
52735.4
52717.4
52699.5
52681.5
52663.5
52645.6
52627.7
52609.7
52591.8
52573.9
52555.9
52538
52520.1
52502.2
52484.3
52466.4
52448.5
52430.6
52412.8
52394.9
52377
52359.2
52341.3
52323.5
52305.6
52287.8
52269.9
52252.1
52234.3
52216.4
52198.6
52180.8
52163
52145.2
52127.4
52109.6
52091.8
52074.1
52056.3
52038.5
52020.8
52003
51985.2
51967.5
51949.8
51932
51914.3
51896.6
51878.8
51861.1
51843.4
51825.7
51808
51790.3
51772.6
51754.9
51737.2
51719.6
51701.9
51684.2
51666.6
51648.9
51631.3
51613.6
51596
51578.4
51560.7
51543.1
51525.5
51507.9
51490.3
51472.7
51455.1
51437.5
51419.9
51402.3
51384.7
51367.2
51349.6
51332
51314.5
51296.9
51279.4
51261.8
51244.3
51226.8
51209.2
51191.7
51174.2
51156.7
51139.2
51121.7
51104.2
51086.7
51069.2
51051.8
51034.3
51016.8
50999.3
50981.9
50964.4
50947
50929.5
50912.1
50894.7
50877.2
50859.8
50842.4
50825
50807.6
50790.2
50772.8
50755.4
50738
50720.6
50703.3
50685.9
50668.5
50651.2
50633.8
50616.5
50599.1
50581.8
50564.4
50547.1
50529.8
50512.5
50495.1
50477.8
50460.5
50443.2
50425.9
50408.6
50391.4
50374.1
50356.8
50339.5
50322.3
50305
50287.8
50270.5
50253.3
50236
50218.8
50201.6
50184.3
50167.1
50149.9
50132.7
50115.5
50098.3
50081.1
50063.9
50046.7
50029.6
50012.4
49995.2
49978.1
49960.9
49943.8
49926.6
49909.5
49892.3
49875.2
49858.1
49840.9
49823.8
49806.7
49789.6
49772.5
49755.4
49738.3
49721.2
49704.2
49687.1
49670
49652.9
49635.9
49618.8
49601.8
49584.7
49567.7
49550.7
49533.6
49516.6
49499.6
49482.6
49465.6
49448.5
49431.5
49414.5
49397.6
49380.6
49363.6
49346.6
49329.6
49312.7
49295.7
49278.8
49261.8
49244.9
49227.9
49211
49194.1
49177.1
49160.2
49143.3
49126.4
49109.5
49092.6
49075.7
49058.8
49041.9
49025
49008.2
48991.3
48974.4
48957.6
48940.7
48923.9
48907
48890.2
48873.3
48856.5
48839.7
48822.9
48806
48789.2
48772.4
48755.6
48738.8
48722
48705.3
48688.5
48671.7
48654.9
48638.2
48621.4
48604.7
48587.9
48571.2
48554.4
48537.7
48521
48504.2
48487.5
48470.8
48454.1
48437.4
48420.7
48404
48387.3
48370.6
48353.9
48337.2
48320.6
48303.9
48287.2
48270.6
48253.9
48237.3
48220.6
48204
48187.4
48170.8
48154.1
48137.5
48120.9
48104.3
48087.7
48071.1
48054.5
48037.9
48021.3
48004.8
47988.2
47971.6
47955.1
47938.5
47921.9
47905.4
47888.9
47872.3
47855.8
47839.3
47822.7
47806.2
47789.7
47773.2
47756.7
47740.2
47723.7
47707.2
47690.7
47674.2
47657.8
47641.3
47624.8
47608.4
47591.9
47575.5
47559
47542.6
47526.2
47509.7
47493.3
47476.9
47460.5
47444.1
47427.7
47411.3
47394.9
47378.5
47362.1
47345.7
47329.3
47313
47296.6
47280.2
47263.9
47247.5
47231.2
47214.8
47198.5
47182.2
47165.8
47149.5
47133.2
47116.9
47100.6
47084.3
47068
47051.7
47035.4
47019.1
47002.8
46986.6
46970.3
46954
46937.8
46921.5
46905.3
46889
46872.8
46856.5
46840.3
46824.1
46807.9
46791.6
46775.4
46759.2
46743
46726.8
46710.6
46694.5
46678.3
46662.1
46645.9
46629.8
46613.6
46597.4
46581.3
46565.1
46549
46532.9
46516.7
46500.6
46484.5
46468.3
46452.2
46436.1
46420
46403.9
46387.8
46371.7
46355.7
46339.6
46323.5
46307.4
46291.4
46275.3
46259.2
46243.2
46227.1
46211.1
46195.1
46179
46163
46147
46131
46115
46098.9
46082.9
46066.9
46050.9
46035
46019
46003
45987
45971
45955.1
45939.1
45923.2
45907.2
45891.3
45875.3
45859.4
45843.5
45827.5
45811.6
45795.7
45779.8
45763.9
45748
45732.1
45716.2
45700.3
45684.4
45668.5
45652.7
45636.8
45620.9
45605.1
45589.2
45573.4
45557.5
45541.7
45525.8
45510
45494.2
45478.4
45462.5
45446.7
45430.9
45415.1
45399.3
45383.5
45367.7
45351.9
45336.2
45320.4
45304.6
45288.9
45273.1
45257.3
45241.6
45225.8
45210.1
45194.4
45178.6
45162.9
45147.2
45131.5
45115.8
45100
45084.3
45068.6
45052.9
45037.3
45021.6
45005.9
44990.2
44974.5
44958.9
44943.2
44927.6
44911.9
44896.3
44880.6
44865
44849.4
44833.7
44818.1
44802.5
44786.9
44771.3
44755.7
44740.1
44724.5
44708.9
44693.3
44677.7
44662.1
44646.6
44631
44615.4
44599.9
44584.3
44568.8
44553.2
44537.7
44522.2
44506.6
44491.1
44475.6
44460.1
44444.6
44429
44413.5
44398.1
44382.6
44367.1
44351.6
44336.1
44320.6
44305.2
44289.7
44274.2
44258.8
44243.3
44227.9
44212.5
44197
44181.6
44166.2
44150.7
44135.3
44119.9
44104.5
44089.1
44073.7
44058.3
44042.9
44027.5
44012.2
43996.8
43981.4
43966
43950.7
43935.3
43920
43904.6
43889.3
43873.9
43858.6
43843.3
43828
43812.6
43797.3
43782
43766.7
43751.4
43736.1
43720.8
43705.5
43690.2
43675
43659.7
43644.4
43629.2
43613.9
43598.6
43583.4
43568.2
43552.9
43537.7
43522.4
43507.2
43492
43476.8
43461.6
43446.4
43431.2
43416
43400.8
43385.6
43370.4
43355.2
43340
43324.9
43309.7
43294.5
43279.4
43264.2
43249.1
43233.9
43218.8
43203.6
43188.5
43173.4
43158.3
43143.2
43128
43112.9
43097.8
43082.7
43067.6
43052.6
43037.5
43022.4
43007.3
42992.2
42977.2
42962.1
42947.1
42932
42917
42901.9
42886.9
42871.8
42856.8
42841.8
42826.8
42811.8
42796.7
42781.7
42766.7
42751.7
42736.7
42721.8
42706.8
42691.8
42676.8
42661.8
42646.9
42631.9
42617
42602
42587.1
42572.1
42557.2
42542.3
42527.3
42512.4
42497.5
42482.6
42467.7
42452.7
42437.8
42422.9
42408.1
42393.2
42378.3
42363.4
42348.5
42333.7
42318.8
42303.9
42289.1
42274.2
42259.4
42244.5
42229.7
42214.9
42200
42185.2
42170.4
42155.6
42140.8
42126
42111.2
42096.4
42081.6
42066.8
42052
42037.2
42022.4
42007.7
41992.9
41978.1
41963.4
41948.6