/*--------------------------------*- C++ -*----------------------------------*\
  =========                 |
  \\      /  F ield         | OpenFOAM: The Open Source CFD Toolbox
   \\    /   O peration     | Website:  https://openfoam.org
    \\  /    A nd           | Version:  9
     \\/     M anipulation  |
\*---------------------------------------------------------------------------*/
FoamFile
{
    format      ascii;
    class       volScalarField;
    location    "0.01";
    object      p_0;
}
// * * * * * * * * * * * * * * * * * * * * * * * * * * * * * * * * * * * * * //

dimensions      [1 -1 -2 0 0 0 0];

internalField   nonuniform List<scalar> 
10000
(
100000
100000
100000
100000
100000
100000
100000
100000
100000
100000
100000
100000
100000
100000
100000
100000
100000
100000
100000
100000
100000
100000
100000
100000
100000
100000
100000
100000
100000
100000
100000
100000
100000
100000
100000
100000
100000
100000
100000
100000
100000
100000
100000
100000
100000
100000
100000
100000
100000
100000
100000
100000
100000
100000
100000
100000
100000
100000
100000
100000
100000
100000
100000
100000
100000
100000
100000
100000
100000
100000
100000
100000
100000
100000
100000
100000
100000
100000
100000
100000
100000
100000
100000
100000
100000
100000
100000
100000
100000
100000
100000
100000
100000
100000
100000
100000
100000
100000
100000
100000
100000
100000
100000
100000
100000
100000
100000
100000
100000
100000
100000
100000
100000
100000
100000
100000
100000
100000
100000
100000
100000
100000
100000
100000
100000
100000
100000
100000
100000
100000
100000
100000
100000
100000
100000
100000
100000
100000
100000
100000
100000
100000
100000
100000
100000
100000
100000
100000
100000
100000
100000
100000
100000
100000
100000
100000
100000
100000
100000
100000
100000
100000
100000
100000
100000
100000
100000
100000
100000
100000
100000
100000
100000
100000
100000
100000
100000
100000
100000
100000
100000
100000
100000
100000
100000
100000
100000
100000
100000
100000
100000
100000
100000
100000
100000
100000
100000
100000
100000
100000
100000
100000
100000
100000
100000
100000
100000
100000
100000
100000
100000
100000
100000
100000
100000
100000
100000
100000
100000
100000
100000
100000
100000
100000
100000
100000
100000
100000
100000
100000
100000
100000
100000
100000
100000
100000
100000
100000
100000
100000
100000
100000
100000
100000
100000
100000
100000
100000
100000
100000
100000
100000
100000
100000
100000
100000
100000
100000
100000
100000
100000
100000
100000
100000
100000
100000
100000
100000
100000
100000
100000
100000
100000
100000
100000
100000
100000
100000
100000
100000
100000
100000
100000
100000
100000
100000
100000
100000
100000
100000
100000
100000
100000
100000
100000
100000
100000
100000
100000
100000
100000
100000
100000
100000
100000
100000
100000
100000
100000
100000
100000
100000
100000
100000
100000
100000
100000
100000
100000
100000
100000
100000
100000
100000
100000
100000
100000
100000
100000
100000
100000
100000
100000
100000
100000
100000
100000
100000
100000
100000
100000
100000
100000
100000
100000
100000
100000
100000
100000
100000
100000
100000
100000
100000
100000
100000
100000
100000
100000
100000
100000
100000
100000
100000
100000
100000
100000
100000
100000
100000
100000
100000
100000
100000
100000
100000
100000
100000
100000
100000
100000
100000
100000
100000
100000
100000
100000
100000
100000
100000
100000
100000
100000
100000
100000
100000
100000
100000
100000
100000
100000
100000
100000
100000
100000
100000
100000
100000
100000
100000
100000
100000
100000
100000
100000
100000
100000
100000
100000
100000
100000
100000
100000
100000
100000
100000
100000
100000
100000
100000
100000
100000
100000
100000
100000
100000
100000
100000
100000
100000
100000
100000
100000
100000
100000
100000
100000
100000
100000
100000
100000
100000
100000
100000
100000
100000
100000
100000
100000
100000
100000
100000
100000
100000
100000
100000
100000
100000
100000
100000
100000
100000
100000
100000
100000
100000
100000
100000
100000
100000
100000
100000
100000
100000
100000
100000
100000
100000
100000
100000
100000
100000
100000
100000
100000
100000
100000
100000
100000
100000
100000
100000
100000
100000
100000
100000
100000
100000
100000
100000
100000
100000
100000
100000
100000
100000
100000
100000
100000
100000
100000
100000
100000
100000
100000
100000
100000
100000
100000
100000
100000
100000
100000
100000
100000
100000
100000
100000
100000
100000
100000
100000
100000
100000
100000
100000
100000
100000
100000
100000
100000
100000
100000
100000
100000
100000
100000
100000
100000
100000
100000
100000
100000
100000
100000
100000
100000
100000
100000
100000
100000
100000
100000
100000
100000
100000
100000
100000
100000
100000
100000
100000
100000
100000
100000
100000
100000
100000
100000
100000
100000
100000
100000
100000
100000
100000
100000
100000
100000
100000
100000
100000
100000
100000
100000
100000
100000
100000
100000
100000
100000
100000
100000
100000
100000
100000
100000
100000
100000
100000
100000
100000
100000
100000
100000
100000
100000
100000
100000
100000
100000
100000
100000
100000
100000
100000
100000
100000
100000
100000
100000
100000
100000
100000
100000
100000
100000
100000
100000
100000
100000
100000
100000
100000
100000
100000
100000
100000
100000
100000
100000
100000
100000
100000
100000
100000
100000
100000
100000
100000
100000
100000
100000
100000
100000
100000
100000
100000
100000
100000
100000
100000
100000
100000
100000
100000
100000
100000
100000
100000
100000
100000
100000
100000
100000
100000
100000
100000
100000
100000
100000
100000
100000
100000
100000
100000
100000
100000
100000
100000
100000
100000
100000
100000
100000
100000
100000
100000
100000
100000
100000
100000
100000
100000
100000
100000
100000
100000
100000
100000
100000
100000
100000
100000
100000
100000
100000
100000
100000
100000
100000
100000
100000
100000
100000
100000
100000
100000
100000
100000
100000
100000
100000
100000
100000
100000
100000
100000
100000
100000
100000
100000
100000
100000
100000
100000
100000
100000
100000
100000
100000
100000
100000
100000
100000
100000
100000
100000
100000
100000
100000
100000
100000
100000
100000
100000
100000
100000
100000
100000
100000
100000
100000
100000
100000
100000
100000
100000
100000
100000
100000
100000
100000
100000
100000
100000
100000
100000
100000
100000
100000
100000
100000
100000
100000
100000
100000
100000
100000
100000
100000
100000
100000
100000
100000
100000
100000
100000
100000
100000
100000
100000
100000
100000
100000
100000
100000
100000
100000
100000
100000
100000
100000
100000
100000
100000
100000
100000
100000
100000
100000
100000
100000
100000
100000
100000
100000
100000
100000
100000
100000
100000
100000
100000
100000
100000
100000
100000
100000
100000
100000
100000
100000
100000
100000
100000
100000
100000
100000
100000
100000
100000
100000
100000
100000
100000
100000
100000
100000
100000
100000
100000
100000
100000
100000
100000
100000
100000
100000
100000
100000
100000
100000
100000
100000
100000
100000
100000
100000
100000
100000
100000
100000
100000
100000
100000
100000
100000
100000
100000
100000
100000
100000
100000
100000
100000
100000
100000
100000
100000
100000
100000
100000
100000
100000
100000
100000
100000
100000
100000
100000
100000
100000
100000
100000
100000
100000
100000
100000
100000
100000
100000
100000
100000
100000
100000
100000
100000
100000
100000
100000
100000
100000
100000
100000
100000
100000
100000
100000
100000
100000
100000
100000
100000
100000
100000
100000
100000
100000
100000
100000
100000
100000
100000
100000
100000
100000
100000
100000
100000
100000
100000
100000
100000
100000
100000
100000
100000
100000
100000
100000
100000
100000
100000
100000
100000
100000
100000
100000
100000
100000
100000
100000
100000
100000
100000
100000
100000
100000
100000
100000
100000
100000
100000
100000
100000
100000
100000
100000
100000
100000
100000
100000
100000
100000
100000
100000
100000
100000
100000
100000
100000
100000
100000
100000
100000
100000
100000
100000
100000
100000
100000
100000
100000
100000
100000
100000
100000
100000
100000
100000
100000
100000
100000
100000
100000
100000
100000
100000
100000
100000
100000
100000
100000
100000
100000
100000
100000
100000
100000
100000
100000
100000
100000
100000
100000
100000
100000
100000
100000
100000
100000
100000
100000
100000
100000
100000
100000
100000
100000
100000
100000
100000
100000
100000
100000
100000
100000
100000
100000
100000
100000
100000
100000
100000
100000
100000
100000
100000
100000
100000
100000
100000
100000
100000
100000
100000
100000
100000
100000
100000
100000
100000
100000
100000
100000
100000
100000
100000
100000
100000
100000
100000
100000
100000
100000
100000
100000
100000
100000
100000
100000
100000
100000
100000
100000
100000
100000
100000
100000
100000
100000
100000
100000
100000
100000
100000
100000
100000
100000
100000
100000
100000
100000
100000
100000
100000
100000
100000
100000
100000
100000
100000
100000
100000
100000
100000
100000
100000
100000
99999.9
99999.9
99999.9
99999.9
99999.9
99999.8
99999.8
99999.7
99999.7
99999.6
99999.5
99999.4
99999.3
99999.2
99999
99998.8
99998.5
99998.2
99997.9
99997.5
99997
99996.4
99995.8
99995
99994.1
99993.1
99991.9
99990.6
99989
99987.2
99985.2
99982.9
99980.3
99977.3
99974
99970.3
99966.2
99961.6
99956.5
99950.9
99944.7
99937.9
99930.5
99922.5
99913.8
99904.4
99894.3
99883.5
99871.9
99859.6
99846.6
99832.8
99818.2
99802.9
99786.9
99770.2
99752.7
99734.6
99715.8
99696.4
99676.4
99655.8
99634.6
99613
99590.8
99568.1
99545
99521.4
99497.5
99473.2
99448.5
99423.5
99398.2
99372.7
99346.8
99320.7
99294.4
99267.9
99241.1
99214.2
99187.1
99159.8
99132.4
99104.8
99077.1
99049.3
99021.4
98993.4
98965.2
98937
98908.7
98880.3
98851.8
98823.2
98794.6
98766
98737.2
98708.4
98679.6
98650.7
98621.7
98592.8
98563.7
98534.7
98505.6
98476.4
98447.3
98418.1
98388.9
98359.6
98330.4
98301.1
98271.7
98242.4
98213.1
98183.7
98154.3
98124.9
98095.5
98066
98036.6
98007.1
97977.6
97948.2
97918.7
97889.2
97859.6
97830.1
97800.6
97771.1
97741.5
97712
97682.4
97652.9
97623.3
97593.7
97564.1
97534.6
97505
97475.4
97445.8
97416.2
97386.6
97357
97327.4
97297.8
97268.2
97238.6
97209
97179.4
97149.8
97120.2
97090.6
97060.9
97031.3
97001.7
96972.1
96942.5
96912.9
96883.3
96853.7
96824.1
96794.5
96764.9
96735.2
96705.6
96676
96646.4
96616.8
96587.2
96557.6
96528
96498.5
96468.9
96439.3
96409.7
96380.1
96350.5
96320.9
96291.4
96261.8
96232.2
96202.6
96173.1
96143.5
96113.9
96084.4
96054.8
96025.3
95995.7
95966.2
95936.6
95907.1
95877.5
95848
95818.5
95788.9
95759.4
95729.9
95700.4
95670.8
95641.3
95611.8
95582.3
95552.8
95523.3
95493.8
95464.3
95434.8
95405.4
95375.9
95346.4
95316.9
95287.5
95258
95228.5
95199.1
95169.6
95140.2
95110.8
95081.3
95051.9
95022.5
94993
94963.6
94934.2
94904.8
94875.4
94846
94816.6
94787.2
94757.8
94728.4
94699.1
94669.7
94640.3
94611
94581.6
94552.2
94522.9
94493.6
94464.2
94434.9
94405.6
94376.2
94346.9
94317.6
94288.3
94259
94229.7
94200.4
94171.2
94141.9
94112.6
94083.3
94054.1
94024.8
93995.6
93966.3
93937.1
93907.9
93878.6
93849.4
93820.2
93791
93761.8
93732.6
93703.4
93674.2
93645
93615.8
93586.7
93557.5
93528.4
93499.2
93470.1
93440.9
93411.8
93382.7
93353.6
93324.4
93295.3
93266.2
93237.1
93208
93179
93149.9
93120.8
93091.8
93062.7
93033.6
93004.6
92975.6
92946.5
92917.5
92888.5
92859.5
92830.5
92801.5
92772.5
92743.5
92714.5
92685.5
92656.6
92627.6
92598.7
92569.7
92540.8
92511.8
92482.9
92454
92425.1
92396.2
92367.3
92338.4
92309.5
92280.6
92251.7
92222.9
92194
92165.1
92136.3
92107.5
92078.6
92049.8
92021
91992.2
91963.3
91934.5
91905.8
91877
91848.2
91819.4
91790.6
91761.9
91733.1
91704.4
91675.7
91646.9
91618.2
91589.5
91560.8
91532.1
91503.4
91474.7
91446
91417.3
91388.6
91360
91331.3
91302.7
91274
91245.4
91216.8
91188.1
91159.5
91130.9
91102.3
91073.7
91045.1
91016.6
90988
90959.4
90930.9
90902.3
90873.8
90845.2
90816.7
90788.2
90759.7
90731.2
90702.7
90674.2
90645.7
90617.2
90588.7
90560.3
90531.8
90503.3
90474.9
90446.5
90418
90389.6
90361.2
90332.8
90304.4
90276
90247.6
90219.2
90190.8
90162.5
90134.1
90105.8
90077.4
90049.1
90020.7
89992.4
89964.1
89935.8
89907.5
89879.2
89850.9
89822.6
89794.3
89766.1
89737.8
89709.6
89681.3
89653.1
89624.8
89596.6
89568.4
89540.2
89512
89483.8
89455.6
89427.4
89399.3
89371.1
89342.9
89314.8
89286.6
89258.5
89230.4
89202.2
89174.1
89146
89117.9
89089.8
89061.7
89033.6
89005.6
88977.5
88949.4
88921.4
88893.3
88865.3
88837.3
88809.3
88781.2
88753.2
88725.2
88697.2
88669.2
88641.3
88613.3
88585.3
88557.4
88529.4
88501.5
88473.5
88445.6
88417.7
88389.8
88361.9
88334
88306.1
88278.2
88250.3
88222.4
88194.6
88166.7
88138.9
88111
88083.2
88055.4
88027.5
87999.7
87971.9
87944.1
87916.3
87888.5
87860.8
87833
87805.2
87777.5
87749.7
87722
87694.2
87666.5
87638.8
87611.1
87583.4
87555.7
87528
87500.3
87472.6
87445
87417.3
87389.6
87362
87334.4
87306.7
87279.1
87251.5
87223.9
87196.3
87168.7
87141.1
87113.5
87085.9
87058.3
87030.8
87003.2
86975.7
86948.1
86920.6
86893.1
86865.6
86838.1
86810.6
86783.1
86755.6
86728.1
86700.6
86673.2
86645.7
86618.2
86590.8
86563.4
86535.9
86508.5
86481.1
86453.7
86426.3
86398.9
86371.5
86344.1
86316.7
86289.4
86262
86234.7
86207.3
86180
86152.7
86125.3
86098
86070.7
86043.4
86016.1
85988.8
85961.6
85934.3
85907
85879.8
85852.5
85825.3
85798
85770.8
85743.6
85716.4
85689.2
85662
85634.8
85607.6
85580.4
85553.2
85526.1
85498.9
85471.8
85444.6
85417.5
85390.4
85363.2
85336.1
85309
85281.9
85254.8
85227.7
85200.7
85173.6
85146.5
85119.5
85092.4
85065.4
85038.3
85011.3
84984.3
84957.3
84930.3
84903.3
84876.3
84849.3
84822.3
84795.4
84768.4
84741.4
84714.5
84687.6
84660.6
84633.7
84606.8
84579.9
84553
84526.1
84499.2
84472.3
84445.4
84418.6
84391.7
84364.8
84338
84311.1
84284.3
84257.5
84230.7
84203.9
84177.1
84150.3
84123.5
84096.7
84069.9
84043.1
84016.4
83989.6
83962.9
83936.1
83909.4
83882.7
83856
83829.3
83802.5
83775.9
83749.2
83722.5
83695.8
83669.1
83642.5
83615.8
83589.2
83562.5
83535.9
83509.3
83482.7
83456
83429.4
83402.8
83376.3
83349.7
83323.1
83296.5
83270
83243.4
83216.9
83190.3
83163.8
83137.3
83110.8
83084.2
83057.7
83031.2
83004.8
82978.3
82951.8
82925.3
82898.9
82872.4
82846
82819.5
82793.1
82766.7
82740.2
82713.8
82687.4
82661
82634.6
82608.3
82581.9
82555.5
82529.2
82502.8
82476.5
82450.1
82423.8
82397.5
82371.1
82344.8
82318.5
82292.2
82265.9
82239.6
82213.4
82187.1
82160.8
82134.6
82108.3
82082.1
82055.9
82029.6
82003.4
81977.2
81951
81924.8
81898.6
81872.4
81846.2
81820.1
81793.9
81767.8
81741.6
81715.5
81689.3
81663.2
81637.1
81611
81584.9
81558.8
81532.7
81506.6
81480.5
81454.4
81428.4
81402.3
81376.3
81350.2
81324.2
81298.2
81272.1
81246.1
81220.1
81194.1
81168.1
81142.1
81116.2
81090.2
81064.2
81038.3
81012.3
80986.4
80960.4
80934.5
80908.6
80882.7
80856.7
80830.8
80805
80779.1
80753.2
80727.3
80701.4
80675.6
80649.7
80623.9
80598
80572.2
80546.4
80520.6
80494.8
80469
80443.2
80417.4
80391.6
80365.8
80340
80314.3
80288.5
80262.8
80237
80211.3
80185.6
80159.9
80134.1
80108.4
80082.7
80057
80031.4
80005.7
79980
79954.3
79928.7
79903
79877.4
79851.8
79826.1
79800.5
79774.9
79749.3
79723.7
79698.1
79672.5
79646.9
79621.4
79595.8
79570.2
79544.7
79519.1
79493.6
79468.1
79442.5
79417
79391.5
79366
79340.5
79315
79289.5
79264.1
79238.6
79213.1
79187.7
79162.2
79136.8
79111.4
79085.9
79060.5
79035.1
79009.7
78984.3
78958.9
78933.5
78908.1
78882.8
78857.4
78832
78806.7
78781.3
78756
78730.7
78705.4
78680
78654.7
78629.4
78604.1
78578.8
78553.6
78528.3
78503
78477.8
78452.5
78427.3
78402
78376.8
78351.6
78326.3
78301.1
78275.9
78250.7
78225.5
78200.3
78175.2
78150
78124.8
78099.7
78074.5
78049.4
78024.2
77999.1
77974
77948.9
77923.8
77898.7
77873.6
77848.5
77823.4
77798.3
77773.3
77748.2
77723.1
77698.1
77673.1
77648
77623
77598
77573
77548
77523
77498
77473
77448
77423
77398.1
77373.1
77348.2
77323.2
77298.3
77273.3
77248.4
77223.5
77198.6
77173.7
77148.8
77123.9
77099
77074.1
77049.3
77024.4
76999.6
76974.7
76949.9
76925
76900.2
76875.4
76850.6
76825.8
76801
76776.2
76751.4
76726.6
76701.8
76677.1
76652.3
76627.5
76602.8
76578.1
76553.3
76528.6
76503.9
76479.2
76454.5
76429.8
76405.1
76380.4
76355.7
76331
76306.4
76281.7
76257.1
76232.4
76207.8
76183.2
76158.5
76133.9
76109.3
76084.7
76060.1
76035.5
76010.9
75986.3
75961.8
75937.2
75912.7
75888.1
75863.6
75839
75814.5
75790
75765.5
75741
75716.5
75692
75667.5
75643
75618.5
75594
75569.6
75545.1
75520.7
75496.2
75471.8
75447.4
75423
75398.5
75374.1
75349.7
75325.3
75300.9
75276.6
75252.2
75227.8
75203.5
75179.1
75154.8
75130.4
75106.1
75081.8
75057.4
75033.1
75008.8
74984.5
74960.2
74935.9
74911.7
74887.4
74863.1
74838.9
74814.6
74790.4
74766.1
74741.9
74717.7
74693.4
74669.2
74645
74620.8
74596.6
74572.4
74548.3
74524.1
74499.9
74475.8
74451.6
74427.5
74403.3
74379.2
74355.1
74330.9
74306.8
74282.7
74258.6
74234.5
74210.4
74186.4
74162.3
74138.2
74114.2
74090.1
74066.1
74042
74018
73994
73970
73945.9
73921.9
73897.9
73873.9
73850
73826
73802
73778
73754.1
73730.1
73706.2
73682.2
73658.3
73634.4
73610.5
73586.5
73562.6
73538.7
73514.8
73491
73467.1
73443.2
73419.3
73395.5
73371.6
73347.8
73323.9
73300.1
73276.3
73252.5
73228.6
73204.8
73181
73157.2
73133.5
73109.7
73085.9
73062.1
73038.4
73014.6
72990.9
72967.1
72943.4
72919.7
72895.9
72872.2
72848.5
72824.8
72801.1
72777.4
72753.8
72730.1
72706.4
72682.7
72659.1
72635.4
72611.8
72588.2
72564.5
72540.9
72517.3
72493.7
72470.1
72446.5
72422.9
72399.3
72375.7
72352.2
72328.6
72305
72281.5
72257.9
72234.4
72210.9
72187.4
72163.8
72140.3
72116.8
72093.3
72069.8
72046.3
72022.9
71999.4
71975.9
71952.5
71929
71905.6
71882.1
71858.7
71835.3
71811.9
71788.4
71765
71741.6
71718.2
71694.9
71671.5
71648.1
71624.7
71601.4
71578
71554.7
71531.3
71508
71484.7
71461.3
71438
71414.7
71391.4
71368.1
71344.8
71321.5
71298.3
71275
71251.7
71228.5
71205.2
71182
71158.7
71135.5
71112.3
71089.1
71065.9
71042.6
71019.4
70996.3
70973.1
70949.9
70926.7
70903.6
70880.4
70857.2
70834.1
70811
70787.8
70764.7
70741.6
70718.5
70695.3
70672.2
70649.1
70626.1
70603
70579.9
70556.8
70533.8
70510.7
70487.7
70464.6
70441.6
70418.5
70395.5
70372.5
70349.5
70326.5
70303.5
70280.5
70257.5
70234.5
70211.6
70188.6
70165.6
70142.7
70119.7
70096.8
70073.9
70050.9
70028
70005.1
69982.2
69959.3
69936.4
69913.5
69890.6
69867.7
69844.9
69822
69799.1
69776.3
69753.4
69730.6
69707.8
69684.9
69662.1
69639.3
69616.5
69593.7
69570.9
69548.1
69525.3
69502.6
69479.8
69457
69434.3
69411.5
69388.8
69366.1
69343.3
69320.6
69297.9
69275.2
69252.5
69229.8
69207.1
69184.4
69161.7
69139
69116.4
69093.7
69071.1
69048.4
69025.8
69003.1
68980.5
68957.9
68935.3
68912.7
68890.1
68867.5
68844.9
68822.3
68799.7
68777.1
68754.6
68732
68709.5
68686.9
68664.4
68641.8
68619.3
68596.8
68574.3
68551.8
68529.3
68506.8
68484.3
68461.8
68439.3
68416.9
68394.4
68371.9
68349.5
68327
68304.6
68282.2
68259.7
68237.3
68214.9
68192.5
68170.1
68147.7
68125.3
68102.9
68080.6
68058.2
68035.8
68013.5
67991.1
67968.8
67946.4
67924.1
67901.8
67879.5
67857.2
67834.9
67812.6
67790.3
67768
67745.7
67723.4
67701.1
67678.9
67656.6
67634.4
67612.1
67589.9
67567.7
67545.4
67523.2
67501
67478.8
67456.6
67434.4
67412.2
67390
67367.9
67345.7
67323.5
67301.4
67279.2
67257.1
67234.9
67212.8
67190.7
67168.6
67146.5
67124.4
67102.3
67080.2
67058.1
67036
67013.9
66991.8
66969.8
66947.7
66925.7
66903.6
66881.6
66859.6
66837.5
66815.5
66793.5
66771.5
66749.5
66727.5
66705.5
66683.5
66661.6
66639.6
66617.6
66595.7
66573.7
66551.8
66529.8
66507.9
66486
66464.1
66442.1
66420.2
66398.3
66376.4
66354.5
66332.7
66310.8
66288.9
66267
66245.2
66223.3
66201.5
66179.7
66157.8
66136
66114.2
66092.4
66070.5
66048.7
66026.9
66005.2
65983.4
65961.6
65939.8
65918.1
65896.3
65874.5
65852.8
65831.1
65809.3
65787.6
65765.9
65744.2
65722.4
65700.7
65679
65657.3
65635.7
65614
65592.3
65570.6
65549
65527.3
65505.7
65484
65462.4
65440.8
65419.1
65397.5
65375.9
65354.3
65332.7
65311.1
65289.5
65267.9
65246.4
65224.8
65203.2
65181.7
65160.1
65138.6
65117
65095.5
65074
65052.5
65030.9
65009.4
64987.9
64966.4
64944.9
64923.5
64902
64880.5
64859
64837.6
64816.1
64794.7
64773.2
64751.8
64730.4
64708.9
64687.5
64666.1
64644.7
64623.3
64601.9
64580.5
64559.2
64537.8
64516.4
64495
64473.7
64452.3
64431
64409.7
64388.3
64367
64345.7
64324.4
64303.1
64281.7
64260.5
64239.2
64217.9
64196.6
64175.3
64154.1
64132.8
64111.5
64090.3
64069.1
64047.8
64026.6
64005.4
63984.1
63962.9
63941.7
63920.5
63899.3
63878.2
63857
63835.8
63814.6
63793.5
63772.3
63751.2
63730
63708.9
63687.7
63666.6
63645.5
63624.4
63603.3
63582.2
63561.1
63540
63518.9
63497.8
63476.7
63455.7
63434.6
63413.5
63392.5
63371.4
63350.4
63329.4
63308.4
63287.3
63266.3
63245.3
63224.3
63203.3
63182.3
63161.3
63140.4
63119.4
63098.4
63077.5
63056.5
63035.6
63014.6
62993.7
62972.8
62951.8
62930.9
62910
62889.1
62868.2
62847.3
62826.4
62805.5
62784.7
62763.8
62742.9
62722.1
62701.2
62680.4
62659.5
62638.7
62617.9
62597
62576.2
62555.4
62534.6
62513.8
62493
62472.2
62451.4
62430.7
62409.9
62389.1
62368.4
62347.6
62326.9
62306.1
62285.4
62264.7
62243.9
62223.2
62202.5
62181.8
62161.1
62140.4
62119.7
62099
62078.4
62057.7
62037
62016.4
61995.7
61975.1
61954.4
61933.8
61913.2
61892.6
61871.9
61851.3
61830.7
61810.1
61789.5
61769
61748.4
61727.8
61707.2
61686.7
61666.1
61645.6
61625
61604.5
61583.9
61563.4
61542.9
61522.4
61501.9
61481.4
61460.9
61440.4
61419.9
61399.4
61378.9
61358.4
61338
61317.5
61297.1
61276.6
61256.2
61235.8
61215.3
61194.9
61174.5
61154.1
61133.7
61113.3
61092.9
61072.5
61052.1
61031.7
61011.4
60991
60970.6
60950.3
60929.9
60909.6
60889.3
60868.9
60848.6
60828.3
60808
60787.7
60767.4
60747.1
60726.8
60706.5
60686.2
60666
60645.7
60625.4
60605.2
60584.9
60564.7
60544.5
60524.2
60504
60483.8
60463.6
60443.4
60423.2
60403
60382.8
60362.6
60342.4
60322.2
60302.1
60281.9
60261.7
60241.6
60221.5
60201.3
60181.2
60161.1
60140.9
60120.8
60100.7
60080.6
60060.5
60040.4
60020.3
60000.3
59980.2
59960.1
59940
59920
59899.9
59879.9
59859.9
59839.8
59819.8
59799.8
59779.7
59759.7
59739.7
59719.7
59699.7
59679.7
59659.8
59639.8
59619.8
59599.9
59579.9
59559.9
59540
59520
59500.1
59480.2
59460.3
59440.3
59420.4
59400.5
59380.6
59360.7
59340.8
59320.9
59301.1
59281.2
59261.3
59241.5
59221.6
59201.7
59181.9
59162.1
59142.2
59122.4
59102.6
59082.8
59062.9
59043.1
59023.3
59003.5
58983.8
58964
58944.2
58924.4
58904.7
58884.9
58865.1
58845.4
58825.7
58805.9
58786.2
58766.5
58746.7
58727
58707.3
58687.6
58667.9
58648.2
58628.5
58608.9
58589.2
58569.5
58549.8
58530.2
58510.5
58490.9
58471.3
58451.6
58432
58412.4
58392.7
58373.1
58353.5
58333.9
58314.3
58294.7
58275.2
58255.6
58236
58216.4
58196.9
58177.3
58157.8
58138.2
58118.7
58099.1
58079.6
58060.1
58040.6
58021.1
58001.6
57982.1
57962.6
57943.1
57923.6
57904.1
57884.7
57865.2
57845.7
57826.3
57806.8
57787.4
57767.9
57748.5
57729.1
57709.7
57690.2
57670.8
57651.4
57632
57612.6
57593.2
57573.9
57554.5
57535.1
57515.8
57496.4
57477
57457.7
57438.4
57419
57399.7
57380.4
57361
57341.7
57322.4
57303.1
57283.8
57264.5
57245.2
57225.9
57206.7
57187.4
57168.1
57148.9
57129.6
57110.4
57091.1
57071.9
57052.7
57033.4
57014.2
56995
56975.8
56956.6
56937.4
56918.2
56899
56879.8
56860.7
56841.5
56822.3
56803.2
56784
56764.9
56745.7
56726.6
56707.5
56688.3
56669.2
56650.1
56631
56611.9
56592.8
56573.7
56554.6
56535.5
56516.4
56497.4
56478.3
56459.2
56440.2
56421.1
56402.1
56383.1
56364
56345
56326
56307
56288
56269
56250
56231
56212
56193
56174
56155
56136.1
56117.1
56098.2
56079.2
56060.3
56041.3
56022.4
56003.5
55984.5
55965.6
55946.7
55927.8
55908.9
55890
55871.1
55852.2
55833.4
55814.5
55795.6
55776.8
55757.9
55739.1
55720.2
55701.4
55682.5
55663.7
55644.9
55626.1
55607.3
55588.5
55569.7
55550.9
55532.1
55513.3
55494.5
55475.7
55457
55438.2
55419.4
55400.7
55381.9
55363.2
55344.5
55325.7
55307
55288.3
55269.6
55250.9
55232.2
55213.5
55194.8
55176.1
55157.4
55138.7
55120
55101.4
55082.7
55064.1
55045.4
55026.8
55008.1
54989.5
54970.9
54952.3
54933.6
54915
54896.4
54877.8
54859.2
54840.6
54822.1
54803.5
54784.9
54766.3
54747.8
54729.2
54710.7
54692.1
54673.6
54655
54636.5
54618
54599.5
54581
54562.4
54543.9
54525.4
54506.9
54488.5
54470
54451.5
54433
54414.6
54396.1
54377.7
54359.2
54340.8
54322.3
54303.9
54285.5
54267
54248.6
54230.2
54211.8
54193.4
54175
54156.6
54138.2
54119.8
54101.5
54083.1
54064.7
54046.4
54028
54009.7
53991.3
53973
53954.7
53936.3
53918
53899.7
53881.4
53863.1
53844.8
53826.5
53808.2
53789.9
53771.7
53753.4
53735.1
53716.9
53698.6
53680.3
53662.1
53643.9
53625.6
53607.4
53589.2
53570.9
53552.7
53534.5
53516.3
53498.1
53479.9
53461.7
53443.6
53425.4
53407.2
53389
53370.9
53352.7
53334.6
53316.4
53298.3
53280.2
53262
53243.9
53225.8
53207.7
53189.6
53171.5
53153.4
53135.3
53117.2
53099.1
53081
53063
53044.9
53026.8
53008.8
52990.7
52972.7
52954.6
52936.6
52918.6
52900.6
52882.5
52864.5
52846.5
52828.5
52810.5
52792.5
52774.5
52756.6
52738.6
52720.6
52702.7
52684.7
52666.7
52648.8
52630.8
52612.9
52595
52577
52559.1
52541.2
52523.3
52505.4
52487.5
52469.6
52451.7
52433.8
52415.9
52398
52380.2
52362.3
52344.5
52326.6
52308.7
52290.9
52273.1
52255.2
52237.4
52219.6
52201.8
52183.9
52166.1
52148.3
52130.5
52112.7
52095
52077.2
52059.4
52041.6
52023.9
52006.1
51988.3
51970.6
51952.8
51935.1
51917.4
51899.6
51881.9
51864.2
51846.5
51828.8
51811.1
51793.4
51775.7
51758
51740.3
51722.6
51705
51687.3
51669.6
51652
51634.3
51616.7
51599
51581.4
51563.8
51546.1
51528.5
51510.9
51493.3
51475.7
51458.1
51440.5
51422.9
51405.3
51387.7
51370.2
51352.6
51335
51317.5
51299.9
51282.4
51264.8
51247.3
51229.7
51212.2
51194.7
51177.2
51159.7
51142.2
51124.7
51107.2
51089.7
51072.2
51054.7
51037.2
51019.8
51002.3
50984.8
50967.4
50949.9
50932.5
50915
50897.6
50880.2
50862.7
50845.3
50827.9
50810.5
50793.1
50775.7
50758.3
50740.9
50723.5
50706.2
50688.8
50671.4
50654.1
50636.7
50619.3
50602
50584.6
50567.3
50550
50532.6
50515.3
50498
50480.7
50463.4
50446.1
50428.8
50411.5
50394.2
50376.9
50359.7
50342.4
50325.1
50307.9
50290.6
50273.3
50256.1
50238.9
50221.6
50204.4
50187.2
50169.9
50152.7
50135.5
50118.3
50101.1
50083.9
50066.7
50049.5
50032.4
50015.2
49998
49980.9
49963.7
49946.5
49929.4
49912.2
49895.1
49878
49860.8
49843.7
49826.6
49809.5
49792.4
49775.3
49758.2
49741.1
49724
49706.9
49689.8
49672.8
49655.7
49638.6
49621.6
49604.5
49587.5
49570.4
49553.4
49536.4
49519.3
49502.3
49485.3
49468.3
49451.3
49434.3
49417.3
49400.3
49383.3
49366.3
49349.3
49332.3
49315.4
49298.4
49281.5
49264.5
49247.6
49230.6
49213.7
49196.7
49179.8
49162.9
49146
49129.1
49112.2
49095.2
49078.4
49061.5
49044.6
49027.7
49010.8
48993.9
48977.1
48960.2
48943.4
48926.5
48909.7
48892.8
48876
48859.1
48842.3
48825.5
48808.7
48791.9
48775
48758.2
48741.4
48724.7
48707.9
48691.1
48674.3
48657.5
48640.8
48624
48607.2
48590.5
48573.7
48557
48540.3
48523.5
48506.8
48490.1
48473.4
48456.6
48439.9
48423.2
48406.5
48389.8
48373.2
48356.5
48339.8
48323.1
48306.5
48289.8
48273.1
48256.5
48239.8
48223.2
48206.5
48189.9
48173.3
48156.7
48140
48123.4
48106.8
48090.2
48073.6
48057
48040.4
48023.8
48007.3
47990.7
47974.1
47957.6
47941
47924.4
47907.9
47891.3
47874.8
47858.3
47841.7
47825.2
47808.7
47792.2
47775.7
47759.2
47742.7
47726.2
47709.7
47693.2
47676.7
47660.2
47643.8
47627.3
47610.8
47594.4
47577.9
47561.5
47545
47528.6
47512.2
47495.7
47479.3
47462.9
47446.5
47430.1
47413.7
47397.3
47380.9
47364.5
47348.1
47331.7
47315.4
47299
47282.6
47266.3
47249.9
47233.6
47217.2
47200.9
47184.5
47168.2
47151.9
47135.6
47119.3
47102.9
47086.6
47070.3
47054
47037.8
47021.5
47005.2
46988.9
46972.6
46956.4
46940.1
46923.9
46907.6
46891.4
46875.1
46858.9
46842.6
46826.4
46810.2
46794
46777.8
46761.6
46745.3
46729.2
46713
46696.8
46680.6
46664.4
46648.2
46632.1
46615.9
46599.7
46583.6
46567.4
46551.3
46535.1
46519
46502.9
46486.8
46470.6
46454.5
46438.4
46422.3
46406.2
46390.1
46374
46357.9
46341.8
46325.8
46309.7
46293.6
46277.6
46261.5
46245.4
46229.4
46213.3
46197.3
46181.3
46165.2
46149.2
46133.2
46117.2
46101.2
46085.2
46069.2
46053.2
46037.2
46021.2
46005.2
45989.2
45973.3
45957.3
45941.3
45925.4
45909.4
45893.5
45877.5
45861.6
45845.7
45829.7
45813.8
45797.9
45782
45766.1
45750.2
45734.3
45718.4
45702.5
45686.6
45670.7
45654.8
45639
45623.1
45607.2
45591.4
45575.5
45559.7
45543.8
45528
45512.1
45496.3
45480.5
45464.7
45448.9
45433.1
45417.2
45401.4
45385.6
45369.9
45354.1
45338.3
45322.5
45306.7
45291
45275.2
45259.5
45243.7
45228
45212.2
45196.5
45180.7
45165
45149.3
45133.6
45117.8
45102.1
45086.4
45070.7
45055
45039.3
45023.7
45008
44992.3
44976.6
44961
44945.3
44929.6
44914
44898.3
44882.7
44867
44851.4
44835.8
44820.2
44804.5
44788.9
44773.3
44757.7
44742.1
44726.5
44710.9
44695.3
44679.7
44664.2
44648.6
44633
44617.5
44601.9
44586.3
44570.8
44555.2
44539.7
44524.2
44508.6
44493.1
44477.6
44462.1
44446.6
44431
44415.5
44400
44384.5
44369.1
44353.6
44338.1
44322.6
44307.1
44291.7
44276.2
44260.8
44245.3
44229.9
44214.4
44199
44183.6
44168.1
44152.7
44137.3
44121.9
44106.5
44091
44075.6
44060.3
44044.9
44029.5
44014.1
43998.7
43983.3
43968
43952.6
43937.3
43921.9
43906.5
43891.2
43875.9
43860.5
43845.2
43829.9
43814.5
43799.2
43783.9
43768.6
43753.3
43738
43722.7
43707.4
43692.1
43676.9
43661.6
43646.3
43631
43615.8
43600.5
43585.3
43570
43554.8
43539.6
43524.3
43509.1
43493.9
43478.6
43463.4
43448.2
43433
43417.8
43402.6
43387.4
43372.2
43357.1
43341.9
43326.7
43311.5
43296.4
43281.2
43266
43250.9
43235.8
43220.6
43205.5
43190.3
43175.2
43160.1
43145
43129.9
43114.7
43099.6
43084.5
43069.4
43054.4
43039.3
43024.2
43009.1
42994
42979
42963.9
42948.9
42933.8
42918.7
42903.7
42888.7
42873.6
42858.6
42843.6
42828.5
42813.5
42798.5
42783.5
42768.5
42753.5
42738.5
42723.5
42708.5
42693.5
42678.6
42663.6
42648.6
42633.7
42618.7
42603.8
42588.8
42573.9
42558.9
42544
42529.1
42514.1
42499.2
42484.3
42469.4
42454.5
42439.6
42424.7
42409.8
42394.9
42380
42365.1
42350.2
42335.4
42320.5
42305.6
42290.8
42275.9
42261.1
42246.2
42231.4
42216.6
42201.7
42186.9
42172.1
42157.3
42142.4
42127.6
42112.8
42098
42083.2
42068.5
42053.7
42038.9
42024.1
42009.3
41994.6
41979.8
41965
41950.3
41935.5
41920.8
41906.1
41891.3