/*--------------------------------*- C++ -*----------------------------------*\
  =========                 |
  \\      /  F ield         | OpenFOAM: The Open Source CFD Toolbox
   \\    /   O peration     | Website:  https://openfoam.org
    \\  /    A nd           | Version:  9
     \\/     M anipulation  |
\*---------------------------------------------------------------------------*/
FoamFile
{
    format      ascii;
    class       surfaceScalarField;
    location    "0.01";
    object      phi_0;
}
// * * * * * * * * * * * * * * * * * * * * * * * * * * * * * * * * * * * * * //

dimensions      [1 0 -1 0 0 0 0];

internalField   nonuniform List<scalar> 
9999
(
-4.07852e-11
-4.01599e-11
-3.81988e-11
-4.05862e-11
-3.85967e-11
-3.84262e-11
-3.75735e-11
-3.7204e-11
-3.71188e-11
-3.65503e-11
-3.64082e-11
-3.84262e-11
-4.09557e-11
-4.22347e-11
-3.9762e-11
-3.98757e-11
-4.17515e-11
-4.30305e-11
-4.66116e-11
-4.47073e-11
-4.38831e-11
-4.62421e-11
-4.70664e-11
-4.718e-11
-4.36557e-11
-4.12967e-11
-3.87388e-11
-3.61808e-11
-3.56692e-11
-3.52713e-11
-3.34239e-11
-3.10081e-11
-2.7768e-11
-2.68017e-11
-2.53806e-11
-2.34763e-11
-2.30216e-11
-2.3249e-11
-2.31637e-11
-2.089e-11
-2.07478e-11
-2.143e-11
-2.04636e-11
-2.29932e-11
-2.40163e-11
-2.58353e-11
-2.48122e-11
-2.50679e-11
-2.53237e-11
-2.58069e-11
-2.53806e-11
-2.4329e-11
-2.31068e-11
-2.58922e-11
-2.82796e-11
-3.08091e-11
-3.39924e-11
-3.27702e-11
-3.13776e-11
-3.22302e-11
-3.49871e-11
-3.42197e-11
-3.24576e-11
-3.33387e-11
-3.52429e-11
-3.67777e-11
-3.46461e-11
-3.73461e-11
-3.98472e-11
-4.31442e-11
-4.98801e-11
-5.20686e-11
-5.31202e-11
-5.77245e-11
-6.13909e-11
-6.13056e-11
-6.43752e-11
-6.44604e-11
-6.48583e-11
-6.50289e-11
-6.76152e-11
-6.90648e-11
-6.80984e-11
-6.84963e-11
-7.10827e-11
-7.44365e-11
-7.5346e-11
-7.27312e-11
-7.36975e-11
-7.43228e-11
-7.55733e-11
-7.39249e-11
-7.32996e-11
-7.10259e-11
-6.71889e-11
-6.77574e-11
-6.58247e-11
-6.44604e-11
-6.16183e-11
-5.82645e-11
-5.47402e-11
-5.16707e-11
-5.16138e-11
-5.06191e-11
-4.76916e-11
-4.36842e-11
-4.39968e-11
-4.394e-11
-4.42242e-11
-4.34284e-11
-4.29452e-11
-4.25473e-11
-4.30305e-11
-4.36842e-11
-4.61284e-11
-4.91696e-11
-4.92548e-11
-4.8118e-11
-4.74643e-11
-4.68106e-11
-4.45084e-11
-4.51905e-11
-4.30873e-11
-4.09273e-11
-4.08988e-11
-4.18083e-11
-3.9023e-11
-3.80567e-11
-3.8483e-11
-3.64366e-11
-3.58114e-11
-3.91083e-11
-3.99609e-11
-3.97051e-11
-3.98472e-11
-4.05578e-11
-4.3741e-11
-4.66684e-11
-4.73506e-11
-4.57874e-11
-4.66116e-11
-4.72653e-11
-4.98517e-11
-4.72937e-11
-4.74643e-11
-4.73506e-11
-4.93685e-11
-4.95675e-11
-4.7379e-11
-4.67537e-11
-4.58726e-11
-4.40536e-11
-4.45937e-11
-4.40252e-11
-4.38263e-11
-4.59863e-11
-4.30589e-11
-4.00746e-11
-3.39071e-11
-3.00702e-11
-2.74838e-11
-2.54374e-11
-2.359e-11
-2.28226e-11
-2.43006e-11
-2.67164e-11
-2.48406e-11
-2.6489e-11
-2.46985e-11
-2.43574e-11
-2.20552e-11
-2.30216e-11
-2.48974e-11
-2.49543e-11
-2.62617e-11
-2.92459e-11
-2.99281e-11
-3.0667e-11
-3.13491e-11
-3.35376e-11
-3.5925e-11
-3.89946e-11
-4.34284e-11
-4.51905e-11
-4.77485e-11
-5.35181e-11
-5.54508e-11
-5.7554e-11
-6.01972e-11
-5.97709e-11
-5.96856e-11
-6.11919e-11
-6.12772e-11
-6.13625e-11
-6.24993e-11
-6.27267e-11
-5.7355e-11
-5.40865e-11
-5.61045e-11
-5.72129e-11
-5.34328e-11
-5.01075e-11
-4.58726e-11
-4.37126e-11
-4.68106e-11
-4.67821e-11
-4.51337e-11
-4.29168e-11
-4.24336e-11
-3.78293e-11
-3.85114e-11
-3.66072e-11
-3.95062e-11
-3.9023e-11
-3.89377e-11
-3.89093e-11
-3.85398e-11
-4.12967e-11
-3.89093e-11
-3.87388e-11
-3.58114e-11
-3.75451e-11
-3.98757e-11
-4.20073e-11
-4.32863e-11
-4.53042e-11
-4.49916e-11
-4.41673e-11
-4.5361e-11
-4.54463e-11
-4.78053e-11
-4.51053e-11
-4.72369e-11
-4.66969e-11
-4.51053e-11
-4.65263e-11
-4.69811e-11
-4.55884e-11
-4.27178e-11
-4.29168e-11
-4.49916e-11
-4.58158e-11
-4.66969e-11
-4.70379e-11
-4.98517e-11
-5.01643e-11
-5.21823e-11
-5.28928e-11
-5.37455e-11
-5.8435e-11
-6.16183e-11
-6.28688e-11
-6.28972e-11
-6.32951e-11
-6.53984e-11
-6.87521e-11
-6.71889e-11
-6.79563e-11
-6.88658e-11
-6.81268e-11
-6.2272e-11
-5.70139e-11
-5.07896e-11
-4.92264e-11
-4.76916e-11
-4.54463e-11
-4.27178e-11
-4.01599e-11
-4.01315e-11
-4.29452e-11
-4.11831e-11
-4.17799e-11
-3.79998e-11
-3.87672e-11
-3.69482e-11
-3.89093e-11
-3.75735e-11
-3.79998e-11
-3.62377e-11
-3.76303e-11
-3.86819e-11
-3.95914e-11
-3.99041e-11
-3.78009e-11
-3.86535e-11
-4.09557e-11
-4.14673e-11
-4.06146e-11
-4.01599e-11
-4.10409e-11
-4.15241e-11
-4.33715e-11
-4.44231e-11
-4.82032e-11
-4.96527e-11
-5.13296e-11
-5.22107e-11
-5.2836e-11
-5.15854e-11
-4.8658e-11
-5.0278e-11
-5.09033e-11
-5.06191e-11
-5.17275e-11
-4.68106e-11
-4.33431e-11
-3.81988e-11
-3.72609e-11
-3.96199e-11
-3.88241e-11
-3.52998e-11
-3.21165e-11
-2.91607e-11
-2.58353e-11
-2.44427e-11
-2.59206e-11
-2.62048e-11
-2.55795e-11
-2.62617e-11
-2.78533e-11
-2.9786e-11
-3.18607e-11
-3.06102e-11
-2.95017e-11
-2.84501e-11
-2.80238e-11
-3.21165e-11
-3.30544e-11
-3.22302e-11
-3.12355e-11
-3.45608e-11
-3.52998e-11
-3.56124e-11
-3.61524e-11
-3.64651e-11
-3.72324e-11
-3.49587e-11
-3.58398e-11
-3.7403e-11
-3.91935e-11
-4.19504e-11
-4.45937e-11
-4.64979e-11
-4.76064e-11
-4.93401e-11
-4.7919e-11
-4.81748e-11
-5.07896e-11
-5.21254e-11
-5.11307e-11
-4.94822e-11
-4.87432e-11
-4.63558e-11
-4.35989e-11
-4.46221e-11
-4.43947e-11
-4.03588e-11
-4.06715e-11
-4.0103e-11
-3.96767e-11
-3.81988e-11
-3.93641e-11
-3.94493e-11
-3.66072e-11
-3.62945e-11
-3.54987e-11
-3.56977e-11
-3.68061e-11
-3.51008e-11
-3.31397e-11
-3.17755e-11
-3.18323e-11
-3.20028e-11
-3.34808e-11
-3.2145e-11
-3.21734e-11
-3.06386e-11
-3.56692e-11
-3.65787e-11
-3.95346e-11
-4.20926e-11
-4.19789e-11
-4.3002e-11
-4.29168e-11
-4.57021e-11
-4.57874e-11
-4.82601e-11
-4.75779e-11
-5.12443e-11
-5.52234e-11
-5.95435e-11
-5.7895e-11
-5.32054e-11
-4.93969e-11
-4.61284e-11
-4.35136e-11
-4.32294e-11
-4.35421e-11
-4.20926e-11
-3.99325e-11
-4.09273e-11
-4.00178e-11
-3.97904e-11
-3.92788e-11
-3.79714e-11
-4.20073e-11
-4.00462e-11
-3.94493e-11
-3.78009e-11
-3.89093e-11
-3.78009e-11
-3.70619e-11
-3.91083e-11
-4.25473e-11
-4.29452e-11
-4.25473e-11
-4.63558e-11
-4.92832e-11
-4.9539e-11
-4.75211e-11
-5.01359e-11
-5.22959e-11
-5.12159e-11
-5.25802e-11
-5.36033e-11
-5.5536e-11
-5.71276e-11
-5.54223e-11
-5.79234e-11
-6.0453e-11
-5.96856e-11
-6.01119e-11
-5.91456e-11
-5.8975e-11
-5.6815e-11
-5.63034e-11
-5.51665e-11
-5.3177e-11
-5.26086e-11
-5.57918e-11
-5.3717e-11
-5.08749e-11
-5.23812e-11
-5.75255e-11
-5.92308e-11
-5.76676e-11
-5.70708e-11
-5.33475e-11
-5.15286e-11
-4.96811e-11
-4.71232e-11
-4.74927e-11
-4.66969e-11
-4.52189e-11
-4.83737e-11
-4.72369e-11
-4.78622e-11
-4.98801e-11
-5.04201e-11
-5.19265e-11
-5.02496e-11
-4.718e-11
-4.70948e-11
-4.67253e-11
-4.46789e-11
-4.52474e-11
-4.36273e-11
-4.16378e-11
-3.79714e-11
-3.51008e-11
-3.6664e-11
-3.92788e-11
-3.97051e-11
-3.9023e-11
-3.75167e-11
-3.81988e-11
-3.82272e-11
-4.14389e-11
-4.08136e-11
-4.33715e-11
-4.47073e-11
-4.34284e-11
-4.19789e-11
-4.07567e-11
-4.09557e-11
-3.9222e-11
-3.89093e-11
-4.06146e-11
-4.00462e-11
-3.78861e-11
-3.91367e-11
-3.87388e-11
-4.01599e-11
-4.01315e-11
-4.05862e-11
-3.94493e-11
-3.73745e-11
-3.67208e-11
-3.54419e-11
-3.47882e-11
-3.16334e-11
-2.95586e-11
-2.7768e-11
-2.8507e-11
-3.07239e-11
-3.39355e-11
-3.46745e-11
-3.7204e-11
-3.55271e-11
-3.71756e-11
-3.78577e-11
-3.69482e-11
-3.91651e-11
-3.76303e-11
-3.90514e-11
-3.99041e-11
-4.1922e-11
-4.1382e-11
-3.93072e-11
-4.07567e-11
-4.28884e-11
-4.22915e-11
-4.46789e-11
-4.49063e-11
-4.48779e-11
-4.12967e-11
-3.91083e-11
-3.66072e-11
-3.78577e-11
-3.80851e-11
-4.0302e-11
-4.16946e-11
-4.22062e-11
-4.49063e-11
-4.78622e-11
-5.11307e-11
-5.28644e-11
-5.24096e-11
-5.16138e-11
-5.19549e-11
-5.16422e-11
-5.43139e-11
-5.41718e-11
-5.58487e-11
-5.63602e-11
-5.85203e-11
-6.01972e-11
-5.67013e-11
-5.62181e-11
-5.79519e-11
-5.69855e-11
-5.62466e-11
-5.60476e-11
-5.69571e-11
-5.33191e-11
-5.29212e-11
-4.98233e-11
-5.02496e-11
-4.97664e-11
-5.24096e-11
-5.21254e-11
-5.09033e-11
-4.7379e-11
-4.58726e-11
-4.556e-11
-4.49347e-11
-4.448e-11
-4.40821e-11
-4.64411e-11
-4.35705e-11
-4.72653e-11
-5.1017e-11
-5.30918e-11
-5.17559e-11
-5.12728e-11
-5.09317e-11
-5.1017e-11
-4.98517e-11
-4.77485e-11
-4.6839e-11
-4.8118e-11
-4.71232e-11
-4.3741e-11
-4.34852e-11
-4.24052e-11
-4.08136e-11
-3.97904e-11
-4.24905e-11
-4.38831e-11
-4.43094e-11
-4.80611e-11
-5.01075e-11
-4.9539e-11
-4.91411e-11
-4.86864e-11
-4.67537e-11
-4.40536e-11
-4.34852e-11
-4.22631e-11
-4.12399e-11
-4.08136e-11
-4.12683e-11
-4.30305e-11
-4.30305e-11
-4.39968e-11
-4.61853e-11
-4.52758e-11
-4.69527e-11
-4.61853e-11
-4.68674e-11
-4.64411e-11
-4.28884e-11
-3.96483e-11
-3.96483e-11
-4.25473e-11
-4.22631e-11
-3.99893e-11
-3.94778e-11
-4.05578e-11
-3.87672e-11
-3.84546e-11
-3.69766e-11
-3.51861e-11
-3.47598e-11
-3.72893e-11
-3.74598e-11
-3.47598e-11
-3.1946e-11
-3.31966e-11
-3.39355e-11
-3.45608e-11
-3.49019e-11
-3.35092e-11
-3.38503e-11
-3.42197e-11
-3.42766e-11
-3.15481e-11
-3.35092e-11
-3.48734e-11
-3.63798e-11
-3.78293e-11
-3.56692e-11
-3.79146e-11
-3.7204e-11
-3.90514e-11
-3.95914e-11
-3.71188e-11
-3.64935e-11
-3.64935e-11
-3.53282e-11
-3.60671e-11
-3.26281e-11
-3.42197e-11
-3.56692e-11
-3.45608e-11
-3.04397e-11
-2.82228e-11
-2.53806e-11
-2.61764e-11
-2.5608e-11
-2.49543e-11
-2.51532e-11
-2.58353e-11
-2.94165e-11
-2.80238e-11
-2.85638e-11
-2.82228e-11
-3.03828e-11
-3.15481e-11
-3.0667e-11
-3.27418e-11
-3.16618e-11
-2.87343e-11
-2.7228e-11
-2.55511e-11
-2.52953e-11
-2.49258e-11
-2.6489e-11
-2.46985e-11
-2.65743e-11
-2.94733e-11
-3.0667e-11
-3.06954e-11
-3.0326e-11
-3.37366e-11
-3.65503e-11
-3.87388e-11
-3.82556e-11
-3.95914e-11
-3.97051e-11
-3.92788e-11
-4.0103e-11
-4.0842e-11
-4.09557e-11
-3.88241e-11
-4.09273e-11
-3.98757e-11
-4.5759e-11
-4.80611e-11
-4.93685e-11
-5.13012e-11
-5.22959e-11
-5.22107e-11
-4.92264e-11
-4.66116e-11
-4.36557e-11
-4.20641e-11
-4.11831e-11
-3.83409e-11
-3.50724e-11
-3.08376e-11
-2.73133e-11
-2.81375e-11
-2.6489e-11
-2.81659e-11
-3.10934e-11
-3.13207e-11
-3.34239e-11
-3.47598e-11
-3.37366e-11
-3.11502e-11
-3.25997e-11
-3.46745e-11
-3.3225e-11
-3.38787e-11
-3.87104e-11
-4.23199e-11
-4.27178e-11
-4.45084e-11
-4.53895e-11
-4.85159e-11
-5.19833e-11
-5.31202e-11
-5.46834e-11
-5.46265e-11
-5.47118e-11
-5.11591e-11
-4.73506e-11
-4.45368e-11
-4.54179e-11
-4.61853e-11
-4.23483e-11
-4.17515e-11
-4.08136e-11
-3.7403e-11
-3.99041e-11
-4.06999e-11
-4.09841e-11
-4.05578e-11
-4.09841e-11
-4.24336e-11
-4.29452e-11
-4.24336e-11
-4.60432e-11
-4.91411e-11
-4.97948e-11
-4.69242e-11
-4.86864e-11
-4.74074e-11
-4.32578e-11
-4.2661e-11
-4.3741e-11
-4.50768e-11
-4.68958e-11
-4.59579e-11
-4.56453e-11
-4.59579e-11
-4.55032e-11
-4.64127e-11
-4.65548e-11
-4.83169e-11
-4.96527e-11
-5.01075e-11
-5.26654e-11
-5.55076e-11
-5.57634e-11
-5.53655e-11
-5.43139e-11
-5.38307e-11
-5.4257e-11
-5.11591e-11
-4.70948e-11
-4.35421e-11
-4.05578e-11
-3.89377e-11
-3.46745e-11
-3.41061e-11
-3.18323e-11
-2.84217e-11
-2.50679e-11
-2.48406e-11
-2.16005e-11
-1.87867e-11
-1.90994e-11
-1.76215e-11
-1.9412e-11
-2.20552e-11
-2.27658e-11
-2.10321e-11
-2.16005e-11
-2.49827e-11
-2.56364e-11
-2.6688e-11
-3.00702e-11
-3.10934e-11
-3.18323e-11
-3.00133e-11
-2.96723e-11
-3.3026e-11
-3.28839e-11
-3.11786e-11
-3.11786e-11
-3.31966e-11
-3.67208e-11
-3.89662e-11
-3.71472e-11
-3.75451e-11
-4.03304e-11
-4.03304e-11
-4.0302e-11
-4.24052e-11
-4.32294e-11
-4.08704e-11
-4.18083e-11
-4.06715e-11
-3.82556e-11
-3.80282e-11
-3.85114e-11
-3.54419e-11
-3.46176e-11
-3.73745e-11
-3.87388e-11
-3.87104e-11
-3.8284e-11
-4.14104e-11
-4.2121e-11
-4.35136e-11
-4.75495e-11
-5.21823e-11
-5.47118e-11
-5.43139e-11
-5.45413e-11
-5.13012e-11
-4.96811e-11
-4.92264e-11
-4.78053e-11
-4.73221e-11
-4.72085e-11
-4.55032e-11
-4.71516e-11
-4.556e-11
-4.33431e-11
-4.21494e-11
-4.07567e-11
-4.11831e-11
-3.95914e-11
-3.69766e-11
-3.69198e-11
-3.65503e-11
-3.36513e-11
-2.84501e-11
-2.66311e-11
-2.83933e-11
-2.81943e-11
-2.8308e-11
-2.77396e-11
-3.02407e-11
-3.31397e-11
-3.27134e-11
-3.35376e-11
-3.31966e-11
-3.7943e-11
-4.01599e-11
-3.93072e-11
-4.03588e-11
-4.18936e-11
-4.71232e-11
-4.94538e-11
-5.09601e-11
-5.61613e-11
-5.87193e-11
-5.75824e-11
-5.74971e-11
-5.76392e-11
-5.86056e-11
-6.05098e-11
-6.14762e-11
-6.60236e-11
-6.60805e-11
-6.62226e-11
-6.5512e-11
-6.59668e-11
-6.40625e-11
-6.30678e-11
-6.52847e-11
-6.68479e-11
-6.86668e-11
-6.76721e-11
-6.84111e-11
-6.75016e-11
-6.39773e-11
-5.96287e-11
-6.12204e-11
-6.01119e-11
-5.88614e-11
-5.76392e-11
-5.77245e-11
-6.02256e-11
-6.04814e-11
-5.79519e-11
-5.86056e-11
-5.90319e-11
-5.84919e-11
-5.52234e-11
-5.44844e-11
-5.28075e-11
-4.92548e-11
-4.9198e-11
-4.91127e-11
-4.75211e-11
-4.58726e-11
-4.45652e-11
-4.394e-11
-4.18083e-11
-4.20073e-11
-4.30589e-11
-4.12399e-11
-4.33715e-11
-4.43663e-11
-4.36557e-11
-4.52474e-11
-4.55032e-11
-4.45368e-11
-4.48495e-11
-4.5759e-11
-4.58158e-11
-4.43947e-11
-4.60147e-11
-4.45937e-11
-4.62421e-11
-5.05622e-11
-5.61329e-11
-5.98561e-11
-6.09646e-11
-6.05951e-11
-6.19309e-11
-6.32383e-11
-6.29541e-11
-6.10498e-11
-5.90603e-11
-5.70139e-11
-5.40865e-11
-5.35181e-11
-5.09033e-11
-5.02496e-11
-5.05906e-11
-5.19833e-11
-5.37739e-11
-5.2097e-11
-5.2637e-11
-5.10738e-11
-4.87148e-11
-4.70379e-11
-4.95106e-11
-5.14149e-11
-4.95106e-11
-4.94254e-11
-4.92548e-11
-4.89138e-11
-5.1017e-11
-5.2637e-11
-5.51381e-11
-5.47402e-11
-5.38876e-11
-5.60476e-11
-5.67013e-11
-5.77529e-11
-5.91456e-11
-5.90319e-11
-5.73834e-11
-5.67582e-11
-5.60192e-11
-5.44844e-11
-5.62181e-11
-5.54223e-11
-5.7554e-11
-6.01119e-11
-6.18172e-11
-6.32667e-11
-6.24709e-11
-6.16183e-11
-6.29257e-11
-5.86908e-11
-5.83498e-11
-5.82077e-11
-5.77529e-11
-5.52234e-11
-5.4257e-11
-5.64171e-11
-5.58771e-11
-5.36033e-11
-5.12443e-11
-4.84022e-11
-4.79758e-11
-4.83169e-11
-4.62137e-11
-4.32294e-11
-4.54179e-11
-4.57305e-11
-4.72653e-11
-4.84306e-11
-4.87717e-11
-5.1017e-11
-4.93401e-11
-4.95959e-11
-4.77201e-11
-4.93117e-11
-5.36602e-11
-5.35181e-11
-5.54508e-11
-5.6815e-11
-6.01972e-11
-5.98561e-11
-6.11919e-11
-6.25846e-11
-6.40625e-11
-6.55405e-11
-6.88374e-11
-6.67626e-11
-6.73026e-11
-6.40341e-11
-6.50289e-11
-6.40341e-11
-6.30962e-11
-6.42331e-11
-6.16183e-11
-6.18456e-11
-5.87193e-11
-6.35794e-11
-6.10783e-11
-6.03393e-11
-6.05667e-11
-6.13909e-11
-6.11635e-11
-6.14477e-11
-5.96856e-11
-6.0794e-11
-6.19593e-11
-6.3153e-11
-6.50573e-11
-6.58815e-11
-6.88658e-11
-7.00595e-11
-7.31575e-11
-7.45501e-11
-7.38112e-11
-7.52323e-11
-7.27596e-11
-7.11111e-11
-7.07701e-11
-7.24754e-11
-7.44365e-11
-7.86144e-11
-8.10019e-11
-8.4043e-11
-8.5663e-11
-8.61178e-11
-8.81641e-11
-8.81073e-11
-8.41851e-11
-8.28493e-11
-8.37019e-11
-8.27072e-11
-8.2224e-11
-8.06608e-11
-7.92966e-11
-7.74492e-11
-7.79892e-11
-7.67955e-11
-7.4948e-11
-7.48344e-11
-7.5346e-11
-7.32427e-11
-7.15374e-11
-7.01732e-11
-7.04574e-11
-6.89226e-11
-6.60521e-11
-6.43752e-11
-6.05098e-11
-5.91172e-11
-5.92024e-11
-5.7554e-11
-5.76392e-11
-5.67297e-11
-5.57918e-11
-5.45697e-11
-5.41149e-11
-5.50813e-11
-5.38023e-11
-5.58487e-11
-5.26938e-11
-5.33475e-11
-5.48823e-11
-5.3177e-11
-5.16991e-11
-5.03917e-11
-4.8999e-11
-4.7379e-11
-4.82032e-11
-4.83737e-11
-5.07043e-11
-5.37739e-11
-5.61613e-11
-5.7554e-11
-5.7355e-11
-5.84635e-11
-5.8435e-11
-6.11919e-11
-6.11351e-11
-6.36078e-11
-6.04246e-11
-5.86624e-11
-5.7895e-11
-5.53939e-11
-5.0818e-11
-4.09841e-11
-3.11218e-11
-1.68541e-11
1.84741e-12
2.65459e-11
5.52802e-11
9.22e-11
1.39096e-10
2.06285e-10
2.99224e-10
4.21068e-10
5.87079e-10
8.0982e-10
1.11064e-09
1.51636e-09
2.06401e-09
2.79448e-09
3.7748e-09
5.08496e-09
6.83406e-09
9.16393e-09
1.22619e-08
1.63779e-08
2.18331e-08
2.90588e-08
3.86134e-08
5.12257e-08
6.78559e-08
8.97386e-08
1.18495e-07
1.56225e-07
2.0565e-07
2.70287e-07
3.54686e-07
4.6471e-07
6.07902e-07
7.93964e-07
1.03532e-06
1.34789e-06
1.752e-06
2.27358e-06
2.94563e-06
3.81006e-06
4.92002e-06
6.34275e-06
8.16318e-06
1.04883e-05
1.34528e-05
1.72256e-05
2.20183e-05
2.80954e-05
3.57867e-05
4.55029e-05
5.77536e-05
7.31705e-05
9.25343e-05
0.000116808
0.000147176
0.000185094
0.000232341
0.000291095
0.000364007
0.000454298
0.000565877
0.000703466
0.000872764
0.00108062
0.00133526
0.00164649
0.00202605
0.00248785
0.00304841
0.00372724
0.0045473
0.00553557
0.0067236
0.00814818
0.00985205
0.0118847
0.0143031
0.0171729
0.0205689
0.0245767
0.029293
0.0348274
0.0413028
0.0488569
0.0576427
0.0678301
0.0796058
0.0931746
0.108759
0.126601
0.14696
0.170112
0.196351
0.225986
0.259341
0.29675
0.338556
0.385107
0.436756
0.49385
0.556733
0.625739
0.701186
0.783372
0.872573
0.969036
1.07298
1.18458
1.30398
1.43129
1.56656
1.70983
1.86108
2.02023
2.18721
2.36187
2.54406
2.73357
2.93019
3.13368
3.34379
3.56023
3.78272
4.01098
4.24472
4.48364
4.72746
4.9759
5.22866
5.48549
5.74613
6.01034
6.27786
6.54849
6.82201
7.09822
7.37694
7.65799
7.94121
8.22645
8.51356
8.80242
9.09291
9.3849
9.6783
9.973
10.2689
10.566
10.8641
11.1632
11.4632
11.764
12.0656
12.368
12.6711
12.9748
13.2791
13.5839
13.8893
14.1951
14.5014
14.8081
15.1152
15.4227
15.7305
16.0386
16.347
16.6557
16.9646
17.2737
17.5831
17.8927
18.2024
18.5123
18.8224
19.1326
19.4429
19.7534
20.064
20.3746
20.6854
20.9962
21.3071
21.6181
21.9292
22.2402
22.5514
22.8625
23.1737
23.4849
23.7962
24.1074
24.4187
24.73
25.0412
25.3525
25.6638
25.975
26.2862
26.5975
26.9087
27.2198
27.531
27.8421
28.1532
28.4642
28.7752
29.0862
29.3971
29.708
30.0188
30.3296
30.6404
30.9511
31.2617
31.5723
31.8828
32.1933
32.5037
32.814
33.1243
33.4345
33.7447
34.0548
34.3648
34.6748
34.9847
35.2945
35.6042
35.9139
36.2235
36.533
36.8425
37.1519
37.4612
37.7704
38.0795
38.3886
38.6976
39.0065
39.3153
39.6241
39.9327
40.2413
40.5498
40.8582
41.1666
41.4748
41.783
42.091
42.399
42.7069
43.0147
43.3224
43.63
43.9376
44.245
44.5524
44.8596
45.1668
45.4739
45.7809
46.0878
46.3946
46.7013
47.0079
47.3144
47.6208
47.9271
48.2333
48.5394
48.8455
49.1514
49.4572
49.7629
50.0686
50.3741
50.6795
50.9848
51.2901
51.5952
51.9002
52.2051
52.5099
52.8146
53.1192
53.4237
53.7281
54.0324
54.3366
54.6407
54.9446
55.2485
55.5523
55.8559
56.1594
56.4629
56.7662
57.0694
57.3725
57.6755
57.9784
58.2812
58.5838
58.8864
59.1888
59.4912
59.7934
60.0955
60.3975
60.6993
61.0011
61.3028
61.6043
61.9057
62.207
62.5082
62.8093
63.1103
63.4111
63.7119
64.0125
64.313
64.6134
64.9137
65.2138
65.5138
65.8138
66.1136
66.4133
66.7128
67.0123
67.3116
67.6108
67.9099
68.2089
68.5077
68.8064
69.1051
69.4036
69.7019
70.0002
70.2983
70.5963
70.8942
71.192
71.4896
71.7872
72.0846
72.3818
72.679
72.976
73.273
73.5698
73.8664
74.163
74.4594
74.7557
75.0519
75.3479
75.6439
75.9397
76.2354
76.5309
76.8264
77.1217
77.4169
77.7119
78.0069
78.3017
78.5964
78.891
79.1854
79.4797
79.7739
80.068
80.3619
80.6558
80.9495
81.243
81.5365
81.8298
82.123
82.416
82.709
83.0018
83.2945
83.587
83.8795
84.1718
84.464
84.756
85.0479
85.3398
85.6314
85.923
86.2144
86.5057
86.7969
87.0879
87.3788
87.6696
87.9603
88.2508
88.5412
88.8315
89.1217
89.4117
89.7016
89.9913
90.281
90.5705
90.8599
91.1492
91.4383
91.7273
92.0162
92.3049
92.5935
92.882
93.1704
93.4586
93.7467
94.0347
94.3226
94.6103
94.8979
95.1854
95.4727
95.7599
96.047
96.334
96.6208
96.9075
97.1941
97.4805
97.7668
98.053
98.3391
98.625
98.9108
99.1965
99.482
99.7675
100.053
100.338
100.623
100.908
101.193
101.477
101.762
102.046
102.33
102.615
102.899
103.182
103.466
103.75
104.033
104.317
104.6
104.883
105.166
105.449
105.732
106.014
106.297
106.579
106.861
107.143
107.425
107.707
107.989
108.27
108.552
108.833
109.114
109.395
109.676
109.957
110.238
110.518
110.798
111.079
111.359
111.639
111.919
112.199
112.478
112.758
113.037
113.316
113.595
113.874
114.153
114.432
114.711
114.989
115.267
115.546
115.824
116.102
116.379
116.657
116.935
117.212
117.489
117.767
118.044
118.321
118.597
118.874
119.151
119.427
119.703
119.979
120.256
120.531
120.807
121.083
121.358
121.634
121.909
122.184
122.459
122.734
123.009
123.283
123.558
123.832
124.106
124.381
124.654
124.928
125.202
125.476
125.749
126.022
126.296
126.569
126.842
127.114
127.387
127.66
127.932
128.204
128.477
128.749
129.021
129.292
129.564
129.836
130.107
130.378
130.649
130.92
131.191
131.462
131.733
132.003
132.274
132.544
132.814
133.084
133.354
133.624
133.893
134.163
134.432
134.701
134.971
135.24
135.508
135.777
136.046
136.314
136.583
136.851
137.119
137.387
137.655
137.922
138.19
138.457
138.725
138.992
139.259
139.526
139.793
140.059
140.326
140.592
140.859
141.125
141.391
141.657
141.923
142.188
142.454
142.719
142.985
143.25
143.515
143.78
144.044
144.309
144.574
144.838
145.102
145.366
145.63
145.894
146.158
146.422
146.685
146.949
147.212
147.475
147.738
148.001
148.264
148.526
148.789
149.051
149.314
149.576
149.838
150.099
150.361
150.623
150.884
151.146
151.407
151.668
151.929
152.19
152.451
152.711
152.972
153.232
153.492
153.752
154.012
154.272
154.532
154.792
155.051
155.31
155.57
155.829
156.088
156.347
156.605
156.864
157.122
157.381
157.639
157.897
158.155
158.413
158.67
158.928
159.186
159.443
159.7
159.957
160.214
160.471
160.728
160.984
161.241
161.497
161.753
162.009
162.265
162.521
162.777
163.032
163.288
163.543
163.798
164.054
164.309
164.563
164.818
165.073
165.327
165.581
165.836
166.09
166.344
166.598
166.851
167.105
167.358
167.612
167.865
168.118
168.371
168.624
168.877
169.129
169.382
169.634
169.886
170.138
170.39
170.642
170.894
171.145
171.397
171.648
171.899
172.151
172.402
172.652
172.903
173.154
173.404
173.655
173.905
174.155
174.405
174.655
174.904
175.154
175.404
175.653
175.902
176.151
176.4
176.649
176.898
177.147
177.395
177.643
177.892
178.14
178.388
178.636
178.884
179.131
179.379
179.626
179.873
180.121
180.368
180.614
180.861
181.108
181.354
181.601
181.847
182.093
182.339
182.585
182.831
183.077
183.322
183.568
183.813
184.058
184.303
184.548
184.793
185.038
185.282
185.527
185.771
186.015
186.259
186.503
186.747
186.991
187.234
187.478
187.721
187.965
188.208
188.451
188.693
188.936
189.179
189.421
189.664
189.906
190.148
190.39
190.632
190.874
191.115
191.357
191.598
191.84
192.081
192.322
192.563
192.803
193.044
193.285
193.525
193.765
194.006
194.246
194.486
194.725
194.965
195.205
195.444
195.684
195.923
196.162
196.401
196.64
196.878
197.117
197.355
197.594
197.832
198.07
198.308
198.546
198.784
199.022
199.259
199.496
199.734
199.971
200.208
200.445
200.682
200.918
201.155
201.391
201.628
201.864
202.1
202.336
202.572
202.807
203.043
203.278
203.514
203.749
203.984
204.219
204.454
204.689
204.923
205.158
205.392
205.627
205.861
206.095
206.329
206.563
206.796
207.03
207.263
207.497
207.73
207.963
208.196
208.429
208.661
208.894
209.126
209.359
209.591
209.823
210.055
210.287
210.519
210.75
210.982
211.213
211.445
211.676
211.907
212.138
212.369
212.599
212.83
213.06
213.291
213.521
213.751
213.981
214.211
214.441
214.67
214.9
215.129
215.358
215.588
215.817
216.046
216.274
216.503
216.732
216.96
217.188
217.417
217.645
217.873
218.1
218.328
218.556
218.783
219.011
219.238
219.465
219.692
219.919
220.146
220.372
220.599
220.825
221.052
221.278
221.504
221.73
221.956
222.182
222.407
222.633
222.858
223.083
223.308
223.534
223.758
223.983
224.208
224.432
224.657
224.881
225.105
225.329
225.553
225.777
226.001
226.225
226.448
226.672
226.895
227.118
227.341
227.564
227.787
228.009
228.232
228.454
228.677
228.899
229.121
229.343
229.565
229.787
230.008
230.23
230.451
230.673
230.894
231.115
231.336
231.556
231.777
231.998
232.218
232.439
232.659
232.879
233.099
233.319
233.539
233.758
233.978
234.197
234.417
234.636
234.855
235.074
235.293
235.511
235.73
235.949
236.167
236.385
236.603
236.821
237.039
237.257
237.475
237.692
237.91
238.127
238.344
238.562
238.779
238.995
239.212
239.429
239.645
239.862
240.078
240.294
240.51
240.726
240.942
241.158
241.374
241.589
241.805
242.02
242.235
242.45
242.665
242.88
243.094
243.309
243.524
243.738
243.952
244.166
244.38
244.594
244.808
245.022
245.235
245.449
245.662
245.875
246.088
246.301
246.514
246.727
246.94
247.152
247.365
247.577
247.789
248.001
248.213
248.425
248.637
248.848
249.06
249.271
249.482
249.694
249.905
250.116
250.326
250.537
250.748
250.958
251.169
251.379
251.589
251.799
252.009
252.219
252.429
252.638
252.848
253.057
253.266
253.475
253.684
253.893
254.102
254.311
254.519
254.728
254.936
255.144
255.352
255.56
255.768
255.976
256.184
256.391
256.599
256.806
257.013
257.22
257.427
257.634
257.841
258.048
258.254
258.461
258.667
258.873
259.079
259.285
259.491
259.697
259.902
260.108
260.313
260.519
260.724
260.929
261.134
261.339
261.544
261.748
261.953
262.157
262.361
262.566
262.77
262.974
263.178
263.381
263.585
263.788
263.992
264.195
264.398
264.601
264.804
265.007
265.21
265.413
265.615
265.817
266.02
266.222
266.424
266.626
266.828
267.03
267.231
267.433
267.634
267.835
268.037
268.238
268.439
268.64
268.84
269.041
269.241
269.442
269.642
269.842
270.042
270.242
270.442
270.642
270.842
271.041
271.241
271.44
271.639
271.838
272.037
272.236
272.435
272.633
272.832
273.03
273.229
273.427
273.625
273.823
274.021
274.219
274.416
274.614
274.811
275.009
275.206
275.403
275.6
275.797
275.994
276.19
276.387
276.583
276.78
276.976
277.172
277.368
277.564
277.76
277.955
278.151
278.347
278.542
278.737
278.932
279.127
279.322
279.517
279.712
279.906
280.101
280.295
280.49
280.684
280.878
281.072
281.266
281.459
281.653
281.846
282.04
282.233
282.426
282.619
282.812
283.005
283.198
283.391
283.583
283.776
283.968
284.16
284.352
284.544
284.736
284.928
285.12
285.311
285.503
285.694
285.885
286.076
286.267
286.458
286.649
286.84
287.03
287.221
287.411
287.601
287.792
287.982
288.172
288.361
288.551
288.741
288.93
289.12
289.309
289.498
289.687
289.876
290.065
290.254
290.443
290.631
290.82
291.008
291.196
291.384
291.572
291.76
291.948
292.136
292.323
292.511
292.698
292.885
293.073
293.26
293.447
293.633
293.82
294.007
294.193
294.38
294.566
294.752
294.938
295.124
295.31
295.496
295.682
295.867
296.053
296.238
296.423
296.608
296.793
296.978
297.163
297.348
297.533
297.717
297.901
298.086
298.27
298.454
298.638
298.822
299.006
299.189
299.373
299.556
299.74
299.923
300.106
300.289
300.472
300.655
300.837
301.02
301.203
301.385
301.567
301.749
301.932
302.113
302.295
302.477
302.659
302.84
303.022
303.203
303.384
303.565
303.747
303.927
304.108
304.289
304.47
304.65
304.83
305.011
305.191
305.371
305.551
305.731
305.911
306.09
306.27
306.449
306.629
306.808
306.987
307.166
307.345
307.524
307.703
307.881
308.06
308.238
308.416
308.595
308.773
308.951
309.129
309.306
309.484
309.662
309.839
310.017
310.194
310.371
310.548
310.725
310.902
311.079
311.255
311.432
311.608
311.785
311.961
312.137
312.313
312.489
312.665
312.84
313.016
313.192
313.367
313.542
313.717
313.893
314.068
314.242
314.417
314.592
314.767
314.941
315.115
315.29
315.464
315.638
315.812
315.986
316.159
316.333
316.507
316.68
316.853
317.027
317.2
317.373
317.546
317.719
317.891
318.064
318.237
318.409
318.581
318.754
318.926
319.098
319.27
319.441
319.613
319.785
319.956
320.128
320.299
320.47
320.641
320.812
320.983
321.154
321.325
321.495
321.666
321.836
322.006
322.177
322.347
322.517
322.686
322.856
323.026
323.195
323.365
323.534
323.704
323.873
324.042
324.211
324.38
324.548
324.717
324.886
325.054
325.222
325.391
325.559
325.727
325.895
326.063
326.23
326.398
326.566
326.733
326.9
327.068
327.235
327.402
327.569
327.736
327.902
328.069
328.236
328.402
328.568
328.735
328.901
329.067
329.233
329.399
329.564
329.73
329.895
330.061
330.226
330.391
330.557
330.722
330.887
331.051
331.216
331.381
331.545
331.71
331.874
332.038
332.202
332.366
332.53
332.694
332.858
333.022
333.185
333.349
333.512
333.675
333.838
334.001
334.164
334.327
334.49
334.652
334.815
334.977
335.14
335.302
335.464
335.626
335.788
335.95
336.112
336.273
336.435
336.596
336.758
336.919
337.08
337.241
337.402
337.563
337.724
337.884
338.045
338.205
338.366
338.526
338.686
338.846
339.006
339.166
339.326
339.486
339.645
339.805
339.964
340.123
340.282
340.442
340.601
340.759
340.918
341.077
341.235
341.394
341.552
341.711
341.869
342.027
342.185
342.343
342.501
342.658
342.816
342.974
343.131
343.288
343.445
343.603
343.76
343.917
344.073
344.23
344.387
344.543
344.7
344.856
345.012
345.168
345.324
345.48
345.636
345.792
345.948
346.103
346.259
346.414
346.569
346.724
346.88
347.035
347.189
347.344
347.499
347.653
347.808
347.962
348.117
348.271
348.425
348.579
348.733
348.887
349.04
349.194
349.348
349.501
349.654
349.808
349.961
350.114
350.267
350.42
350.572
350.725
350.877
351.03
351.182
351.335
351.487
351.639
351.791
351.943
352.094
352.246
352.398
352.549
352.701
352.852
353.003
353.154
353.305
353.456
353.607
353.758
353.908
354.059
354.209
354.36
354.51
354.66
354.81
354.96
355.11
355.26
355.41
355.559
355.709
355.858
356.007
356.157
356.306
356.455
356.604
356.752
356.901
357.05
357.198
357.347
357.495
357.643
357.792
357.94
358.088
358.235
358.383
358.531
358.678
358.826
358.973
359.121
359.268
359.415
359.562
359.709
359.856
360.003
360.149
360.296
360.442
360.589
360.735
360.881
361.027
361.173
361.319
361.465
361.61
361.756
361.902
362.047
362.192
362.337
362.483
362.628
362.773
362.917
363.062
363.207
363.351
363.496
363.64
363.785
363.929
364.073
364.217
364.361
364.505
364.648
364.792
364.936
365.079
365.222
365.366
365.509
365.652
365.795
365.938
366.08
366.223
366.366
366.508
366.651
366.793
366.935
367.077
367.219
367.361
367.503
367.645
367.787
367.928
368.07
368.211
368.352
368.494
368.635
368.776
368.917
369.058
369.198
369.339
369.48
369.62
369.76
369.901
370.041
370.181
370.321
370.461
370.601
370.74
370.88
371.02
371.159
371.298
371.438
371.577
371.716
371.855
371.994
372.133
372.271
372.41
372.548
372.687
372.825
372.963
373.102
373.24
373.378
373.516
373.653
373.791
373.929
374.066
374.204
374.341
374.478
374.615
374.752
374.889
375.026
375.163
375.3
375.436
375.573
375.709
375.846
375.982
376.118
376.254
376.39
376.526
376.662
376.797
376.933
377.068
377.204
377.339
377.474
377.61
377.745
377.88
378.014
378.149
378.284
378.418
378.553
378.687
378.822
378.956
379.09
379.224
379.358
379.492
379.626
379.759
379.893
380.027
380.16
380.293
380.427
380.56
380.693
380.826
380.959
381.091
381.224
381.357
381.489
381.622
381.754
381.886
382.018
382.151
382.282
382.414