/*--------------------------------*- C++ -*----------------------------------*\
  =========                 |
  \\      /  F ield         | OpenFOAM: The Open Source CFD Toolbox
   \\    /   O peration     | Website:  https://openfoam.org
    \\  /    A nd           | Version:  9
     \\/     M anipulation  |
\*---------------------------------------------------------------------------*/
FoamFile
{
    format      ascii;
    class       volScalarField;
    location    "0.01";
    object      rho_0;
}
// * * * * * * * * * * * * * * * * * * * * * * * * * * * * * * * * * * * * * //

dimensions      [1 -3 0 0 0 0 0];

internalField   nonuniform List<scalar> 
10000
(
0.997574
0.997574
0.997574
0.997574
0.997574
0.997574
0.997574
0.997574
0.997574
0.997574
0.997574
0.997574
0.997574
0.997574
0.997574
0.997574
0.997574
0.997574
0.997574
0.997574
0.997574
0.997574
0.997574
0.997574
0.997574
0.997574
0.997574
0.997574
0.997574
0.997574
0.997574
0.997574
0.997574
0.997574
0.997574
0.997574
0.997574
0.997574
0.997574
0.997574
0.997574
0.997574
0.997574
0.997574
0.997574
0.997574
0.997574
0.997574
0.997574
0.997574
0.997574
0.997574
0.997574
0.997574
0.997574
0.997574
0.997574
0.997574
0.997574
0.997574
0.997574
0.997574
0.997574
0.997574
0.997574
0.997574
0.997574
0.997574
0.997574
0.997574
0.997574
0.997574
0.997574
0.997574
0.997574
0.997574
0.997574
0.997574
0.997574
0.997574
0.997574
0.997574
0.997574
0.997574
0.997574
0.997574
0.997574
0.997574
0.997574
0.997574
0.997574
0.997574
0.997574
0.997574
0.997574
0.997574
0.997574
0.997574
0.997574
0.997574
0.997574
0.997574
0.997574
0.997574
0.997574
0.997574
0.997574
0.997574
0.997574
0.997574
0.997574
0.997574
0.997574
0.997574
0.997574
0.997574
0.997574
0.997574
0.997574
0.997574
0.997574
0.997574
0.997574
0.997574
0.997574
0.997574
0.997574
0.997574
0.997574
0.997574
0.997574
0.997574
0.997574
0.997574
0.997574
0.997574
0.997574
0.997574
0.997574
0.997574
0.997574
0.997574
0.997574
0.997574
0.997574
0.997574
0.997574
0.997574
0.997574
0.997574
0.997574
0.997574
0.997574
0.997574
0.997574
0.997574
0.997574
0.997574
0.997574
0.997574
0.997574
0.997574
0.997574
0.997574
0.997574
0.997574
0.997574
0.997574
0.997574
0.997574
0.997574
0.997574
0.997574
0.997574
0.997574
0.997574
0.997574
0.997574
0.997574
0.997574
0.997574
0.997574
0.997574
0.997574
0.997574
0.997574
0.997574
0.997574
0.997574
0.997574
0.997574
0.997574
0.997574
0.997574
0.997574
0.997574
0.997574
0.997574
0.997574
0.997574
0.997574
0.997574
0.997574
0.997574
0.997574
0.997574
0.997574
0.997574
0.997574
0.997574
0.997574
0.997574
0.997574
0.997574
0.997574
0.997574
0.997574
0.997574
0.997574
0.997574
0.997574
0.997574
0.997574
0.997574
0.997574
0.997574
0.997574
0.997574
0.997574
0.997574
0.997574
0.997574
0.997574
0.997574
0.997574
0.997574
0.997574
0.997574
0.997574
0.997574
0.997574
0.997574
0.997574
0.997574
0.997574
0.997574
0.997574
0.997574
0.997574
0.997574
0.997574
0.997574
0.997574
0.997574
0.997574
0.997574
0.997574
0.997574
0.997574
0.997574
0.997574
0.997574
0.997574
0.997574
0.997574
0.997574
0.997574
0.997574
0.997574
0.997574
0.997574
0.997574
0.997574
0.997574
0.997574
0.997574
0.997574
0.997574
0.997574
0.997574
0.997574
0.997574
0.997574
0.997574
0.997574
0.997574
0.997574
0.997574
0.997574
0.997574
0.997574
0.997574
0.997574
0.997574
0.997574
0.997574
0.997574
0.997574
0.997574
0.997574
0.997574
0.997574
0.997574
0.997574
0.997574
0.997574
0.997574
0.997574
0.997574
0.997574
0.997574
0.997574
0.997574
0.997574
0.997574
0.997574
0.997574
0.997574
0.997574
0.997574
0.997574
0.997574
0.997574
0.997574
0.997574
0.997574
0.997574
0.997574
0.997574
0.997574
0.997574
0.997574
0.997574
0.997574
0.997574
0.997574
0.997574
0.997574
0.997574
0.997574
0.997574
0.997574
0.997574
0.997574
0.997574
0.997574
0.997574
0.997574
0.997574
0.997574
0.997574
0.997574
0.997574
0.997574
0.997574
0.997574
0.997574
0.997574
0.997574
0.997574
0.997574
0.997574
0.997574
0.997574
0.997574
0.997574
0.997574
0.997574
0.997574
0.997574
0.997574
0.997574
0.997574
0.997574
0.997574
0.997574
0.997574
0.997574
0.997574
0.997574
0.997574
0.997574
0.997574
0.997574
0.997574
0.997574
0.997574
0.997574
0.997574
0.997574
0.997574
0.997574
0.997574
0.997574
0.997574
0.997574
0.997574
0.997574
0.997574
0.997574
0.997574
0.997574
0.997574
0.997574
0.997574
0.997574
0.997574
0.997574
0.997574
0.997574
0.997574
0.997574
0.997574
0.997574
0.997574
0.997574
0.997574
0.997574
0.997574
0.997574
0.997574
0.997574
0.997574
0.997574
0.997574
0.997574
0.997574
0.997574
0.997574
0.997574
0.997574
0.997574
0.997574
0.997574
0.997574
0.997574
0.997574
0.997574
0.997574
0.997574
0.997574
0.997574
0.997574
0.997574
0.997574
0.997574
0.997574
0.997574
0.997574
0.997574
0.997574
0.997574
0.997574
0.997574
0.997574
0.997574
0.997574
0.997574
0.997574
0.997574
0.997574
0.997574
0.997574
0.997574
0.997574
0.997574
0.997574
0.997574
0.997574
0.997574
0.997574
0.997574
0.997574
0.997574
0.997574
0.997574
0.997574
0.997574
0.997574
0.997574
0.997574
0.997574
0.997574
0.997574
0.997574
0.997574
0.997574
0.997574
0.997574
0.997574
0.997574
0.997574
0.997574
0.997574
0.997574
0.997574
0.997574
0.997574
0.997574
0.997574
0.997574
0.997574
0.997574
0.997574
0.997574
0.997574
0.997574
0.997574
0.997574
0.997574
0.997574
0.997574
0.997574
0.997574
0.997574
0.997574
0.997574
0.997574
0.997574
0.997574
0.997574
0.997574
0.997574
0.997574
0.997574
0.997574
0.997574
0.997574
0.997574
0.997574
0.997574
0.997574
0.997574
0.997574
0.997574
0.997574
0.997574
0.997574
0.997574
0.997574
0.997574
0.997574
0.997574
0.997574
0.997574
0.997574
0.997574
0.997574
0.997574
0.997574
0.997574
0.997574
0.997574
0.997574
0.997574
0.997574
0.997574
0.997574
0.997574
0.997574
0.997574
0.997574
0.997574
0.997574
0.997574
0.997574
0.997574
0.997574
0.997574
0.997574
0.997574
0.997574
0.997574
0.997574
0.997574
0.997574
0.997574
0.997574
0.997574
0.997574
0.997574
0.997574
0.997574
0.997574
0.997574
0.997574
0.997574
0.997574
0.997574
0.997574
0.997574
0.997574
0.997574
0.997574
0.997574
0.997574
0.997574
0.997574
0.997574
0.997574
0.997574
0.997574
0.997574
0.997574
0.997574
0.997574
0.997574
0.997574
0.997574
0.997574
0.997574
0.997574
0.997574
0.997574
0.997574
0.997574
0.997574
0.997574
0.997574
0.997574
0.997574
0.997574
0.997574
0.997574
0.997574
0.997574
0.997574
0.997574
0.997574
0.997574
0.997574
0.997574
0.997574
0.997574
0.997574
0.997574
0.997574
0.997574
0.997574
0.997574
0.997574
0.997574
0.997574
0.997574
0.997574
0.997574
0.997574
0.997574
0.997574
0.997574
0.997574
0.997574
0.997574
0.997574
0.997574
0.997574
0.997574
0.997574
0.997574
0.997574
0.997574
0.997574
0.997574
0.997574
0.997574
0.997574
0.997574
0.997574
0.997574
0.997574
0.997574
0.997574
0.997574
0.997574
0.997574
0.997574
0.997574
0.997574
0.997574
0.997574
0.997574
0.997574
0.997574
0.997574
0.997574
0.997574
0.997574
0.997574
0.997574
0.997574
0.997574
0.997574
0.997574
0.997574
0.997574
0.997574
0.997574
0.997574
0.997574
0.997574
0.997574
0.997574
0.997574
0.997574
0.997574
0.997574
0.997574
0.997574
0.997574
0.997574
0.997574
0.997574
0.997574
0.997574
0.997574
0.997574
0.997574
0.997574
0.997574
0.997574
0.997574
0.997574
0.997574
0.997574
0.997574
0.997574
0.997574
0.997574
0.997574
0.997574
0.997574
0.997574
0.997574
0.997574
0.997574
0.997574
0.997574
0.997574
0.997574
0.997574
0.997574
0.997574
0.997574
0.997574
0.997574
0.997574
0.997574
0.997574
0.997574
0.997574
0.997574
0.997574
0.997574
0.997574
0.997574
0.997574
0.997574
0.997574
0.997574
0.997574
0.997574
0.997574
0.997574
0.997574
0.997574
0.997574
0.997574
0.997574
0.997574
0.997574
0.997574
0.997574
0.997574
0.997574
0.997574
0.997574
0.997574
0.997574
0.997574
0.997574
0.997574
0.997574
0.997574
0.997574
0.997574
0.997574
0.997574
0.997574
0.997574
0.997574
0.997574
0.997574
0.997574
0.997574
0.997574
0.997574
0.997574
0.997574
0.997574
0.997574
0.997574
0.997574
0.997574
0.997574
0.997574
0.997574
0.997574
0.997574
0.997574
0.997574
0.997574
0.997574
0.997574
0.997574
0.997574
0.997574
0.997574
0.997574
0.997574
0.997574
0.997574
0.997574
0.997574
0.997574
0.997574
0.997574
0.997574
0.997574
0.997574
0.997574
0.997574
0.997574
0.997574
0.997574
0.997574
0.997574
0.997574
0.997574
0.997574
0.997574
0.997574
0.997574
0.997574
0.997574
0.997574
0.997574
0.997574
0.997574
0.997574
0.997574
0.997574
0.997574
0.997574
0.997574
0.997574
0.997574
0.997574
0.997574
0.997574
0.997574
0.997574
0.997574
0.997574
0.997574
0.997574
0.997574
0.997574
0.997574
0.997574
0.997574
0.997574
0.997574
0.997574
0.997574
0.997574
0.997574
0.997574
0.997574
0.997574
0.997574
0.997574
0.997574
0.997574
0.997574
0.997574
0.997574
0.997574
0.997574
0.997574
0.997574
0.997574
0.997574
0.997574
0.997574
0.997574
0.997574
0.997574
0.997574
0.997574
0.997574
0.997574
0.997574
0.997574
0.997574
0.997574
0.997574
0.997574
0.997574
0.997574
0.997574
0.997574
0.997574
0.997574
0.997574
0.997574
0.997574
0.997574
0.997574
0.997574
0.997574
0.997574
0.997574
0.997574
0.997574
0.997574
0.997574
0.997574
0.997574
0.997574
0.997574
0.997574
0.997574
0.997574
0.997574
0.997574
0.997574
0.997574
0.997574
0.997574
0.997574
0.997574
0.997574
0.997574
0.997574
0.997574
0.997574
0.997574
0.997574
0.997574
0.997574
0.997574
0.997574
0.997574
0.997574
0.997574
0.997574
0.997574
0.997574
0.997574
0.997574
0.997574
0.997574
0.997574
0.997574
0.997574
0.997574
0.997574
0.997574
0.997574
0.997574
0.997574
0.997574
0.997574
0.997574
0.997574
0.997574
0.997574
0.997574
0.997574
0.997574
0.997574
0.997574
0.997574
0.997574
0.997574
0.997574
0.997574
0.997574
0.997574
0.997574
0.997574
0.997574
0.997574
0.997574
0.997574
0.997574
0.997574
0.997574
0.997574
0.997574
0.997574
0.997574
0.997574
0.997574
0.997574
0.997574
0.997574
0.997574
0.997574
0.997574
0.997574
0.997574
0.997574
0.997574
0.997574
0.997574
0.997574
0.997574
0.997574
0.997574
0.997574
0.997574
0.997574
0.997574
0.997574
0.997574
0.997574
0.997574
0.997574
0.997574
0.997574
0.997574
0.997574
0.997574
0.997574
0.997574
0.997574
0.997574
0.997574
0.997574
0.997574
0.997574
0.997574
0.997574
0.997574
0.997574
0.997574
0.997574
0.997574
0.997574
0.997574
0.997574
0.997574
0.997574
0.997574
0.997574
0.997574
0.997574
0.997574
0.997574
0.997574
0.997574
0.997574
0.997574
0.997574
0.997574
0.997574
0.997574
0.997574
0.997574
0.997574
0.997574
0.997574
0.997574
0.997574
0.997574
0.997574
0.997574
0.997574
0.997574
0.997574
0.997574
0.997574
0.997574
0.997574
0.997574
0.997574
0.997574
0.997574
0.997574
0.997574
0.997574
0.997574
0.997574
0.997574
0.997574
0.997574
0.997574
0.997574
0.997574
0.997574
0.997574
0.997574
0.997574
0.997574
0.997574
0.997574
0.997574
0.997574
0.997574
0.997574
0.997574
0.997574
0.997574
0.997574
0.997574
0.997574
0.997574
0.997574
0.997574
0.997574
0.997574
0.997574
0.997574
0.997574
0.997574
0.997574
0.997574
0.997574
0.997574
0.997574
0.997574
0.997574
0.997574
0.997574
0.997574
0.997574
0.997574
0.997574
0.997574
0.997574
0.997574
0.997574
0.997574
0.997574
0.997574
0.997574
0.997574
0.997574
0.997574
0.997574
0.997574
0.997574
0.997574
0.997574
0.997574
0.997574
0.997574
0.997574
0.997574
0.997574
0.997574
0.997574
0.997574
0.997574
0.997574
0.997574
0.997574
0.997574
0.997574
0.997574
0.997574
0.997574
0.997574
0.997574
0.997574
0.997574
0.997574
0.997574
0.997574
0.997574
0.997574
0.997574
0.997574
0.997574
0.997574
0.997574
0.997574
0.997574
0.997574
0.997574
0.997574
0.997574
0.997573
0.997573
0.997573
0.997573
0.997572
0.997572
0.997572
0.997571
0.99757
0.997569
0.997568
0.997567
0.997566
0.997564
0.997562
0.997559
0.997556
0.997553
0.997549
0.997544
0.997539
0.997533
0.997525
0.997517
0.997507
0.997496
0.997483
0.997469
0.997452
0.997434
0.997413
0.997389
0.997363
0.997333
0.997301
0.997264
0.997224
0.99718
0.997132
0.99708
0.997022
0.996961
0.996894
0.996822
0.996745
0.996662
0.996575
0.996482
0.996383
0.99628
0.996171
0.996056
0.995937
0.995813
0.995684
0.99555
0.995412
0.995269
0.995122
0.994972
0.994817
0.994659
0.994497
0.994332
0.994164
0.993994
0.99382
0.993645
0.993466
0.993286
0.993104
0.992919
0.992733
0.992545
0.992356
0.992165
0.991973
0.991779
0.991585
0.991389
0.991192
0.990995
0.990796
0.990597
0.990397
0.990196
0.989994
0.989792
0.989589
0.989386
0.989182
0.988977
0.988772
0.988567
0.988361
0.988155
0.987948
0.987742
0.987534
0.987327
0.987119
0.986911
0.986703
0.986494
0.986285
0.986076
0.985867
0.985658
0.985448
0.985238
0.985028
0.984818
0.984608
0.984398
0.984187
0.983977
0.983766
0.983555
0.983344
0.983133
0.982922
0.982711
0.982499
0.982288
0.982076
0.981865
0.981653
0.981441
0.98123
0.981018
0.980806
0.980594
0.980382
0.98017
0.979958
0.979745
0.979533
0.979321
0.979109
0.978896
0.978684
0.978472
0.978259
0.978047
0.977834
0.977622
0.977409
0.977197
0.976984
0.976772
0.976559
0.976346
0.976134
0.975921
0.975708
0.975496
0.975283
0.97507
0.974857
0.974645
0.974432
0.974219
0.974006
0.973793
0.973581
0.973368
0.973155
0.972942
0.972729
0.972516
0.972303
0.972091
0.971878
0.971665
0.971452
0.971239
0.971026
0.970813
0.9706
0.970387
0.970175
0.969962
0.969749
0.969536
0.969323
0.96911
0.968897
0.968684
0.968472
0.968259
0.968046
0.967833
0.96762
0.967407
0.967194
0.966982
0.966769
0.966556
0.966343
0.96613
0.965917
0.965705
0.965492
0.965279
0.965066
0.964854
0.964641
0.964428
0.964215
0.964003
0.96379
0.963577
0.963364
0.963152
0.962939
0.962726
0.962514
0.962301
0.962089
0.961876
0.961663
0.961451
0.961238
0.961026
0.960813
0.960601
0.960388
0.960176
0.959963
0.959751
0.959538
0.959326
0.959113
0.958901
0.958689
0.958476
0.958264
0.958052
0.957839
0.957627
0.957415
0.957203
0.95699
0.956778
0.956566
0.956354
0.956142
0.95593
0.955717
0.955505
0.955293
0.955081
0.954869
0.954657
0.954445
0.954233
0.954021
0.95381
0.953598
0.953386
0.953174
0.952962
0.95275
0.952539
0.952327
0.952115
0.951903
0.951692
0.95148
0.951268
0.951057
0.950845
0.950634
0.950422
0.950211
0.949999
0.949788
0.949576
0.949365
0.949154
0.948942
0.948731
0.94852
0.948308
0.948097
0.947886
0.947675
0.947464
0.947253
0.947041
0.94683
0.946619
0.946408
0.946197
0.945986
0.945775
0.945565
0.945354
0.945143
0.944932
0.944721
0.94451
0.9443
0.944089
0.943878
0.943668
0.943457
0.943246
0.943036
0.942825
0.942615
0.942404
0.942194
0.941984
0.941773
0.941563
0.941353
0.941142
0.940932
0.940722
0.940512
0.940301
0.940091
0.939881
0.939671
0.939461
0.939251
0.939041
0.938831
0.938621
0.938411
0.938201
0.937992
0.937782
0.937572
0.937362
0.937153
0.936943
0.936733
0.936524
0.936314
0.936105
0.935895
0.935686
0.935476
0.935267
0.935057
0.934848
0.934639
0.934429
0.93422
0.934011
0.933802
0.933592
0.933383
0.933174
0.932965
0.932756
0.932547
0.932338
0.932129
0.93192
0.931711
0.931503
0.931294
0.931085
0.930876
0.930668
0.930459
0.93025
0.930042
0.929833
0.929625
0.929416
0.929208
0.928999
0.928791
0.928582
0.928374
0.928166
0.927957
0.927749
0.927541
0.927333
0.927125
0.926917
0.926708
0.9265
0.926292
0.926084
0.925877
0.925669
0.925461
0.925253
0.925045
0.924837
0.92463
0.924422
0.924214
0.924007
0.923799
0.923591
0.923384
0.923176
0.922969
0.922761
0.922554
0.922347
0.922139
0.921932
0.921725
0.921518
0.92131
0.921103
0.920896
0.920689
0.920482
0.920275
0.920068
0.919861
0.919654
0.919447
0.91924
0.919033
0.918827
0.91862
0.918413
0.918206
0.918
0.917793
0.917587
0.91738
0.917174
0.916967
0.916761
0.916554
0.916348
0.916141
0.915935
0.915729
0.915523
0.915316
0.91511
0.914904
0.914698
0.914492
0.914286
0.91408
0.913874
0.913668
0.913462
0.913256
0.91305
0.912845
0.912639
0.912433
0.912228
0.912022
0.911816
0.911611
0.911405
0.9112
0.910994
0.910789
0.910583
0.910378
0.910173
0.909967
0.909762
0.909557
0.909352
0.909146
0.908941
0.908736
0.908531
0.908326
0.908121
0.907916
0.907711
0.907506
0.907301
0.907097
0.906892
0.906687
0.906482
0.906278
0.906073
0.905869
0.905664
0.905459
0.905255
0.90505
0.904846
0.904642
0.904437
0.904233
0.904029
0.903824
0.90362
0.903416
0.903212
0.903008
0.902804
0.9026
0.902396
0.902192
0.901988
0.901784
0.90158
0.901376
0.901172
0.900969
0.900765
0.900561
0.900357
0.900154
0.89995
0.899747
0.899543
0.89934
0.899136
0.898933
0.898729
0.898526
0.898323
0.89812
0.897916
0.897713
0.89751
0.897307
0.897104
0.896901
0.896698
0.896495
0.896292
0.896089
0.895886
0.895683
0.89548
0.895277
0.895075
0.894872
0.894669
0.894467
0.894264
0.894061
0.893859
0.893656
0.893454
0.893252
0.893049
0.892847
0.892644
0.892442
0.89224
0.892038
0.891836
0.891633
0.891431
0.891229
0.891027
0.890825
0.890623
0.890421
0.890219
0.890018
0.889816
0.889614
0.889412
0.88921
0.889009
0.888807
0.888606
0.888404
0.888202
0.888001
0.887799
0.887598
0.887397
0.887195
0.886994
0.886793
0.886591
0.88639
0.886189
0.885988
0.885787
0.885586
0.885384
0.885183
0.884982
0.884782
0.884581
0.88438
0.884179
0.883978
0.883777
0.883577
0.883376
0.883175
0.882975
0.882774
0.882574
0.882373
0.882173
0.881972
0.881772
0.881571
0.881371
0.881171
0.88097
0.88077
0.88057
0.88037
0.88017
0.87997
0.879769
0.879569
0.879369
0.87917
0.87897
0.87877
0.87857
0.87837
0.87817
0.877971
0.877771
0.877571
0.877372
0.877172
0.876972
0.876773
0.876573
0.876374
0.876174
0.875975
0.875776
0.875576
0.875377
0.875178
0.874979
0.874779
0.87458
0.874381
0.874182
0.873983
0.873784
0.873585
0.873386
0.873187
0.872989
0.87279
0.872591
0.872392
0.872193
0.871995
0.871796
0.871598
0.871399
0.8712
0.871002
0.870803
0.870605
0.870407
0.870208
0.87001
0.869812
0.869613
0.869415
0.869217
0.869019
0.868821
0.868623
0.868425
0.868227
0.868029
0.867831
0.867633
0.867435
0.867237
0.867039
0.866841
0.866644
0.866446
0.866248
0.866051
0.865853
0.865656
0.865458
0.865261
0.865063
0.864866
0.864668
0.864471
0.864274
0.864077
0.863879
0.863682
0.863485
0.863288
0.863091
0.862894
0.862697
0.8625
0.862303
0.862106
0.861909
0.861712
0.861515
0.861318
0.861122
0.860925
0.860728
0.860532
0.860335
0.860139
0.859942
0.859746
0.859549
0.859353
0.859156
0.85896
0.858764
0.858567
0.858371
0.858175
0.857979
0.857783
0.857587
0.85739
0.857194
0.856998
0.856802
0.856607
0.856411
0.856215
0.856019
0.855823
0.855627
0.855432
0.855236
0.85504
0.854845
0.854649
0.854454
0.854258
0.854063
0.853867
0.853672
0.853476
0.853281
0.853086
0.852891
0.852695
0.8525
0.852305
0.85211
0.851915
0.85172
0.851525
0.85133
0.851135
0.85094
0.850745
0.85055
0.850355
0.850161
0.849966
0.849771
0.849577
0.849382
0.849187
0.848993
0.848798
0.848604
0.848409
0.848215
0.848021
0.847826
0.847632
0.847438
0.847243
0.847049
0.846855
0.846661
0.846467
0.846273
0.846079
0.845885
0.845691
0.845497
0.845303
0.845109
0.844915
0.844721
0.844528
0.844334
0.84414
0.843947
0.843753
0.843559
0.843366
0.843172
0.842979
0.842786
0.842592
0.842399
0.842205
0.842012
0.841819
0.841626
0.841432
0.841239
0.841046
0.840853
0.84066
0.840467
0.840274
0.840081
0.839888
0.839695
0.839503
0.83931
0.839117
0.838924
0.838732
0.838539
0.838346
0.838154
0.837961
0.837769
0.837576
0.837384
0.837191
0.836999
0.836806
0.836614
0.836422
0.83623
0.836037
0.835845
0.835653
0.835461
0.835269
0.835077
0.834885
0.834693
0.834501
0.834309
0.834117
0.833925
0.833734
0.833542
0.83335
0.833158
0.832967
0.832775
0.832584
0.832392
0.832201
0.832009
0.831818
0.831626
0.831435
0.831244
0.831052
0.830861
0.83067
0.830479
0.830287
0.830096
0.829905
0.829714
0.829523
0.829332
0.829141
0.82895
0.828759
0.828568
0.828378
0.828187
0.827996
0.827805
0.827615
0.827424
0.827233
0.827043
0.826852
0.826662
0.826471
0.826281
0.826091
0.8259
0.82571
0.82552
0.825329
0.825139
0.824949
0.824759
0.824569
0.824379
0.824188
0.823998
0.823808
0.823619
0.823429
0.823239
0.823049
0.822859
0.822669
0.82248
0.82229
0.8221
0.821911
0.821721
0.821531
0.821342
0.821152
0.820963
0.820774
0.820584
0.820395
0.820205
0.820016
0.819827
0.819638
0.819449
0.819259
0.81907
0.818881
0.818692
0.818503
0.818314
0.818125
0.817936
0.817747
0.817559
0.81737
0.817181
0.816992
0.816804
0.816615
0.816426
0.816238
0.816049
0.815861
0.815672
0.815484
0.815295
0.815107
0.814918
0.81473
0.814542
0.814354
0.814165
0.813977
0.813789
0.813601
0.813413
0.813225
0.813037
0.812849
0.812661
0.812473
0.812285
0.812097
0.811909
0.811722
0.811534
0.811346
0.811159
0.810971
0.810783
0.810596
0.810408
0.810221
0.810033
0.809846
0.809659
0.809471
0.809284
0.809097
0.808909
0.808722
0.808535
0.808348
0.808161
0.807974
0.807787
0.8076
0.807413
0.807226
0.807039
0.806852
0.806665
0.806478
0.806291
0.806105
0.805918
0.805731
0.805545
0.805358
0.805172
0.804985
0.804799
0.804612
0.804426
0.804239
0.804053
0.803867
0.80368
0.803494
0.803308
0.803122
0.802935
0.802749
0.802563
0.802377
0.802191
0.802005
0.801819
0.801633
0.801447
0.801262
0.801076
0.80089
0.800704
0.800519
0.800333
0.800147
0.799962
0.799776
0.799591
0.799405
0.79922
0.799034
0.798849
0.798663
0.798478
0.798293
0.798108
0.797922
0.797737
0.797552
0.797367
0.797182
0.796997
0.796812
0.796627
0.796442
0.796257
0.796072
0.795887
0.795702
0.795517
0.795333
0.795148
0.794963
0.794779
0.794594
0.794409
0.794225
0.79404
0.793856
0.793672
0.793487
0.793303
0.793118
0.792934
0.79275
0.792566
0.792381
0.792197
0.792013
0.791829
0.791645
0.791461
0.791277
0.791093
0.790909
0.790725
0.790541
0.790357
0.790174
0.78999
0.789806
0.789622
0.789439
0.789255
0.789072
0.788888
0.788704
0.788521
0.788338
0.788154
0.787971
0.787787
0.787604
0.787421
0.787237
0.787054
0.786871
0.786688
0.786505
0.786322
0.786139
0.785956
0.785773
0.78559
0.785407
0.785224
0.785041
0.784858
0.784676
0.784493
0.78431
0.784127
0.783945
0.783762
0.78358
0.783397
0.783215
0.783032
0.78285
0.782667
0.782485
0.782303
0.78212
0.781938
0.781756
0.781574
0.781391
0.781209
0.781027
0.780845
0.780663
0.780481
0.780299
0.780117
0.779935
0.779753
0.779572
0.77939
0.779208
0.779026
0.778845
0.778663
0.778481
0.7783
0.778118
0.777937
0.777755
0.777574
0.777392
0.777211
0.777029
0.776848
0.776667
0.776486
0.776304
0.776123
0.775942
0.775761
0.77558
0.775399
0.775218
0.775037
0.774856
0.774675
0.774494
0.774313
0.774132
0.773952
0.773771
0.77359
0.773409
0.773229
0.773048
0.772868
0.772687
0.772506
0.772326
0.772146
0.771965
0.771785
0.771604
0.771424
0.771244
0.771064
0.770883
0.770703
0.770523
0.770343
0.770163
0.769983
0.769803
0.769623
0.769443
0.769263
0.769083
0.768903
0.768723
0.768544
0.768364
0.768184
0.768004
0.767825
0.767645
0.767466
0.767286
0.767107
0.766927
0.766748
0.766568
0.766389
0.76621
0.76603
0.765851
0.765672
0.765493
0.765313
0.765134
0.764955
0.764776
0.764597
0.764418
0.764239
0.76406
0.763881
0.763702
0.763523
0.763345
0.763166
0.762987
0.762808
0.76263
0.762451
0.762273
0.762094
0.761915
0.761737
0.761558
0.76138
0.761202
0.761023
0.760845
0.760667
0.760488
0.76031
0.760132
0.759954
0.759776
0.759597
0.759419
0.759241
0.759063
0.758885
0.758707
0.758529
0.758352
0.758174
0.757996
0.757818
0.75764
0.757463
0.757285
0.757107
0.75693
0.756752
0.756575
0.756397
0.75622
0.756042
0.755865
0.755687
0.75551
0.755333
0.755156
0.754978
0.754801
0.754624
0.754447
0.75427
0.754093
0.753916
0.753739
0.753562
0.753385
0.753208
0.753031
0.752854
0.752677
0.7525
0.752324
0.752147
0.75197
0.751794
0.751617
0.75144
0.751264
0.751087
0.750911
0.750734
0.750558
0.750382
0.750205
0.750029
0.749853
0.749676
0.7495
0.749324
0.749148
0.748972
0.748796
0.74862
0.748444
0.748268
0.748092
0.747916
0.74774
0.747564
0.747388
0.747212
0.747037
0.746861
0.746685
0.74651
0.746334
0.746158
0.745983
0.745807
0.745632
0.745456
0.745281
0.745106
0.74493
0.744755
0.74458
0.744404
0.744229
0.744054
0.743879
0.743704
0.743529
0.743354
0.743178
0.743003
0.742829
0.742654
0.742479
0.742304
0.742129
0.741954
0.741779
0.741605
0.74143
0.741255
0.741081
0.740906
0.740732
0.740557
0.740383
0.740208
0.740034
0.739859
0.739685
0.73951
0.739336
0.739162
0.738988
0.738813
0.738639
0.738465
0.738291
0.738117
0.737943
0.737769
0.737595
0.737421
0.737247
0.737073
0.736899
0.736726
0.736552
0.736378
0.736204
0.736031
0.735857
0.735683
0.73551
0.735336
0.735163
0.734989
0.734816
0.734642
0.734469
0.734296
0.734122
0.733949
0.733776
0.733603
0.733429
0.733256
0.733083
0.73291
0.732737
0.732564
0.732391
0.732218
0.732045
0.731872
0.731699
0.731526
0.731354
0.731181
0.731008
0.730835
0.730663
0.73049
0.730317
0.730145
0.729972
0.7298
0.729627
0.729455
0.729283
0.72911
0.728938
0.728765
0.728593
0.728421
0.728249
0.728077
0.727904
0.727732
0.72756
0.727388
0.727216
0.727044
0.726872
0.7267
0.726528
0.726357
0.726185
0.726013
0.725841
0.725669
0.725498
0.725326
0.725154
0.724983
0.724811
0.72464
0.724468
0.724297
0.724125
0.723954
0.723783
0.723611
0.72344
0.723269
0.723097
0.722926
0.722755
0.722584
0.722413
0.722242
0.722071
0.7219
0.721729
0.721558
0.721387
0.721216
0.721045
0.720874
0.720703
0.720533
0.720362
0.720191
0.720021
0.71985
0.719679
0.719509
0.719338
0.719168
0.718997
0.718827
0.718657
0.718486
0.718316
0.718146
0.717975
0.717805
0.717635
0.717465
0.717295
0.717124
0.716954
0.716784
0.716614
0.716444
0.716274
0.716104
0.715935
0.715765
0.715595
0.715425
0.715255
0.715086
0.714916
0.714746
0.714577
0.714407
0.714238
0.714068
0.713898
0.713729
0.71356
0.71339
0.713221
0.713051
0.712882
0.712713
0.712544
0.712374
0.712205
0.712036
0.711867
0.711698
0.711529
0.71136
0.711191
0.711022
0.710853
0.710684
0.710515
0.710346
0.710178
0.710009
0.70984
0.709672
0.709503
0.709334
0.709166
0.708997
0.708829
0.70866
0.708492
0.708323
0.708155
0.707986
0.707818
0.70765
0.707481
0.707313
0.707145
0.706977
0.706809
0.706641
0.706472
0.706304
0.706136
0.705968
0.7058
0.705633
0.705465
0.705297
0.705129
0.704961
0.704793
0.704626
0.704458
0.70429
0.704123
0.703955
0.703787
0.70362
0.703452
0.703285
0.703117
0.70295
0.702783
0.702615
0.702448
0.702281
0.702113
0.701946
0.701779
0.701612
0.701445
0.701278
0.701111
0.700944
0.700777
0.70061
0.700443
0.700276
0.700109
0.699942
0.699775
0.699608
0.699442
0.699275
0.699108
0.698942
0.698775
0.698608
0.698442
0.698275
0.698109
0.697942
0.697776
0.69761
0.697443
0.697277
0.697111
0.696944
0.696778
0.696612
0.696446
0.69628
0.696113
0.695947
0.695781
0.695615
0.695449
0.695283
0.695117
0.694952
0.694786
0.69462
0.694454
0.694288
0.694123
0.693957
0.693791
0.693626
0.69346
0.693294
0.693129
0.692963
0.692798
0.692632
0.692467
0.692302
0.692136
0.691971
0.691806
0.69164
0.691475
0.69131
0.691145
0.69098
0.690815
0.69065
0.690485
0.69032
0.690155
0.68999
0.689825
0.68966
0.689495
0.68933
0.689165
0.689001
0.688836
0.688671
0.688507
0.688342
0.688177
0.688013
0.687848
0.687684
0.687519
0.687355
0.68719
0.687026
0.686862
0.686697
0.686533
0.686369
0.686205
0.686041
0.685876
0.685712
0.685548
0.685384
0.68522
0.685056
0.684892
0.684728
0.684564
0.6844
0.684237
0.684073
0.683909
0.683745
0.683582
0.683418
0.683254
0.683091
0.682927
0.682763
0.6826
0.682436
0.682273
0.68211
0.681946
0.681783
0.681619
0.681456
0.681293
0.68113
0.680966
0.680803
0.68064
0.680477
0.680314
0.680151
0.679988
0.679825
0.679662
0.679499
0.679336
0.679173
0.67901
0.678848
0.678685
0.678522
0.678359
0.678197
0.678034
0.677871
0.677709
0.677546
0.677384
0.677221
0.677059
0.676896
0.676734
0.676572
0.676409
0.676247
0.676085
0.675922
0.67576
0.675598
0.675436
0.675274
0.675112
0.67495
0.674788
0.674626
0.674464
0.674302
0.67414
0.673978
0.673816
0.673654
0.673493
0.673331
0.673169
0.673007
0.672846
0.672684
0.672523
0.672361
0.672199
0.672038
0.671876
0.671715
0.671554
0.671392
0.671231
0.67107
0.670908
0.670747
0.670586
0.670425
0.670264
0.670102
0.669941
0.66978
0.669619
0.669458
0.669297
0.669136
0.668975
0.668815
0.668654
0.668493
0.668332
0.668171
0.668011
0.66785
0.667689
0.667529
0.667368
0.667208
0.667047
0.666886
0.666726
0.666566
0.666405
0.666245
0.666084
0.665924
0.665764
0.665604
0.665443
0.665283
0.665123
0.664963
0.664803
0.664643
0.664483
0.664323
0.664163
0.664003
0.663843
0.663683
0.663523
0.663363
0.663203
0.663044
0.662884
0.662724
0.662565
0.662405
0.662245
0.662086
0.661926
0.661767
0.661607
0.661448
0.661288
0.661129
0.66097
0.66081
0.660651
0.660492
0.660332
0.660173
0.660014
0.659855
0.659696
0.659537
0.659378
0.659219
0.65906
0.658901
0.658742
0.658583
0.658424
0.658265
0.658106
0.657948
0.657789
0.65763
0.657471
0.657313
0.657154
0.656996
0.656837
0.656679
0.65652
0.656362
0.656203
0.656045
0.655886
0.655728
0.65557
0.655411
0.655253
0.655095
0.654937
0.654779
0.65462
0.654462
0.654304
0.654146
0.653988
0.65383
0.653672
0.653514
0.653356
0.653199
0.653041
0.652883
0.652725
0.652567
0.65241
0.652252
0.652094
0.651937
0.651779
0.651622
0.651464
0.651307
0.651149
0.650992
0.650834
0.650677
0.65052
0.650362
0.650205
0.650048
0.649891
0.649733
0.649576
0.649419
0.649262
0.649105
0.648948
0.648791
0.648634
0.648477
0.64832
0.648163
0.648006
0.64785
0.647693
0.647536
0.647379
0.647223
0.647066
0.646909
0.646753
0.646596
0.64644
0.646283
0.646127
0.64597
0.645814
0.645657
0.645501
0.645345
0.645188
0.645032
0.644876
0.64472
0.644563
0.644407
0.644251
0.644095
0.643939
0.643783
0.643627
0.643471
0.643315
0.643159
0.643003
0.642847
0.642692
0.642536
0.64238
0.642224
0.642069
0.641913
0.641757
0.641602
0.641446
0.641291
0.641135
0.64098
0.640824
0.640669
0.640513
0.640358
0.640203
0.640047
0.639892
0.639737
0.639582
0.639426
0.639271
0.639116
0.638961
0.638806
0.638651
0.638496
0.638341
0.638186
0.638031
0.637876
0.637721
0.637567
0.637412
0.637257
0.637102
0.636948
0.636793
0.636638
0.636484
0.636329
0.636175
0.63602
0.635866
0.635711
0.635557
0.635402
0.635248
0.635094
0.634939
0.634785
0.634631
0.634477
0.634322
0.634168
0.634014
0.63386
0.633706
0.633552
0.633398
0.633244
0.63309
0.632936
0.632782
0.632628
0.632475
0.632321
0.632167
0.632013
0.63186
0.631706
0.631552
0.631399
0.631245
0.631091
0.630938
0.630784
0.630631
0.630478
0.630324
0.630171
0.630017
0.629864
0.629711
0.629558
0.629404
0.629251
0.629098
0.628945
0.628792
0.628639
0.628486
0.628333
0.62818
0.628027
0.627874
0.627721
0.627568
0.627415
0.627262
0.62711
0.626957
0.626804
0.626651
0.626499
0.626346
0.626193
0.626041
0.625888
0.625736
0.625583
0.625431
0.625279
0.625126
0.624974
0.624821
0.624669
0.624517
0.624365
0.624212
0.62406
0.623908
0.623756
0.623604
0.623452
0.6233
0.623148
0.622996
0.622844
0.622692
0.62254
0.622388
0.622237
0.622084
0.621933
0.621781
0.62163