/*--------------------------------*- C++ -*----------------------------------*\
  =========                 |
  \\      /  F ield         | OpenFOAM: The Open Source CFD Toolbox
   \\    /   O peration     | Website:  https://openfoam.org
    \\  /    A nd           | Version:  9
     \\/     M anipulation  |
\*---------------------------------------------------------------------------*/
FoamFile
{
    format      ascii;
    class       volScalarField;
    location    "0.01";
    object      T;
}
// * * * * * * * * * * * * * * * * * * * * * * * * * * * * * * * * * * * * * //

dimensions      [0 0 0 1 0 0 0];

internalField   nonuniform List<scalar> 
10000
(
348.432
348.432
348.432
348.432
348.432
348.432
348.432
348.432
348.432
348.432
348.432
348.432
348.432
348.432
348.432
348.432
348.432
348.432
348.432
348.432
348.432
348.432
348.432
348.432
348.432
348.432
348.432
348.432
348.432
348.432
348.432
348.432
348.432
348.432
348.432
348.432
348.432
348.432
348.432
348.432
348.432
348.432
348.432
348.432
348.432
348.432
348.432
348.432
348.432
348.432
348.432
348.432
348.432
348.432
348.432
348.432
348.432
348.432
348.432
348.432
348.432
348.432
348.432
348.432
348.432
348.432
348.432
348.432
348.432
348.432
348.432
348.432
348.432
348.432
348.432
348.432
348.432
348.432
348.432
348.432
348.432
348.432
348.432
348.432
348.432
348.432
348.432
348.432
348.432
348.432
348.432
348.432
348.432
348.432
348.432
348.432
348.432
348.432
348.432
348.432
348.432
348.432
348.432
348.432
348.432
348.432
348.432
348.432
348.432
348.432
348.432
348.432
348.432
348.432
348.432
348.432
348.432
348.432
348.432
348.432
348.432
348.432
348.432
348.432
348.432
348.432
348.432
348.432
348.432
348.432
348.432
348.432
348.432
348.432
348.432
348.432
348.432
348.432
348.432
348.432
348.432
348.432
348.432
348.432
348.432
348.432
348.432
348.432
348.432
348.432
348.432
348.432
348.432
348.432
348.432
348.432
348.432
348.432
348.432
348.432
348.432
348.432
348.432
348.432
348.432
348.432
348.432
348.432
348.432
348.432
348.432
348.432
348.432
348.432
348.432
348.432
348.432
348.432
348.432
348.432
348.432
348.432
348.432
348.432
348.432
348.432
348.432
348.432
348.432
348.432
348.432
348.432
348.432
348.432
348.432
348.432
348.432
348.432
348.432
348.432
348.432
348.432
348.432
348.432
348.432
348.432
348.432
348.432
348.432
348.432
348.432
348.432
348.432
348.432
348.432
348.432
348.432
348.432
348.432
348.432
348.432
348.432
348.432
348.432
348.432
348.432
348.432
348.432
348.432
348.432
348.432
348.432
348.432
348.432
348.432
348.432
348.432
348.432
348.432
348.432
348.432
348.432
348.432
348.432
348.432
348.432
348.432
348.432
348.432
348.432
348.432
348.432
348.432
348.432
348.432
348.432
348.432
348.432
348.432
348.432
348.432
348.432
348.432
348.432
348.432
348.432
348.432
348.432
348.432
348.432
348.432
348.432
348.432
348.432
348.432
348.432
348.432
348.432
348.432
348.432
348.432
348.432
348.432
348.432
348.432
348.432
348.432
348.432
348.432
348.432
348.432
348.432
348.432
348.432
348.432
348.432
348.432
348.432
348.432
348.432
348.432
348.432
348.432
348.432
348.432
348.432
348.432
348.432
348.432
348.432
348.432
348.432
348.432
348.432
348.432
348.432
348.432
348.432
348.432
348.432
348.432
348.432
348.432
348.432
348.432
348.432
348.432
348.432
348.432
348.432
348.432
348.432
348.432
348.432
348.432
348.432
348.432
348.432
348.432
348.432
348.432
348.432
348.432
348.432
348.432
348.432
348.432
348.432
348.432
348.432
348.432
348.432
348.432
348.432
348.432
348.432
348.432
348.432
348.432
348.432
348.432
348.432
348.432
348.432
348.432
348.432
348.432
348.432
348.432
348.432
348.432
348.432
348.432
348.432
348.432
348.432
348.432
348.432
348.432
348.432
348.432
348.432
348.432
348.432
348.432
348.432
348.432
348.432
348.432
348.432
348.432
348.432
348.432
348.432
348.432
348.432
348.432
348.432
348.432
348.432
348.432
348.432
348.432
348.432
348.432
348.432
348.432
348.432
348.432
348.432
348.432
348.432
348.432
348.432
348.432
348.432
348.432
348.432
348.432
348.432
348.432
348.432
348.432
348.432
348.432
348.432
348.432
348.432
348.432
348.432
348.432
348.432
348.432
348.432
348.432
348.432
348.432
348.432
348.432
348.432
348.432
348.432
348.432
348.432
348.432
348.432
348.432
348.432
348.432
348.432
348.432
348.432
348.432
348.432
348.432
348.432
348.432
348.432
348.432
348.432
348.432
348.432
348.432
348.432
348.432
348.432
348.432
348.432
348.432
348.432
348.432
348.432
348.432
348.432
348.432
348.432
348.432
348.432
348.432
348.432
348.432
348.432
348.432
348.432
348.432
348.432
348.432
348.432
348.432
348.432
348.432
348.432
348.432
348.432
348.432
348.432
348.432
348.432
348.432
348.432
348.432
348.432
348.432
348.432
348.432
348.432
348.432
348.432
348.432
348.432
348.432
348.432
348.432
348.432
348.432
348.432
348.432
348.432
348.432
348.432
348.432
348.432
348.432
348.432
348.432
348.432
348.432
348.432
348.432
348.432
348.432
348.432
348.432
348.432
348.432
348.432
348.432
348.432
348.432
348.432
348.432
348.432
348.432
348.432
348.432
348.432
348.432
348.432
348.432
348.432
348.432
348.432
348.432
348.432
348.432
348.432
348.432
348.432
348.432
348.432
348.432
348.432
348.432
348.432
348.432
348.432
348.432
348.432
348.432
348.432
348.432
348.432
348.432
348.432
348.432
348.432
348.432
348.432
348.432
348.432
348.432
348.432
348.432
348.432
348.432
348.432
348.432
348.432
348.432
348.432
348.432
348.432
348.432
348.432
348.432
348.432
348.432
348.432
348.432
348.432
348.432
348.432
348.432
348.432
348.432
348.432
348.432
348.432
348.432
348.432
348.432
348.432
348.432
348.432
348.432
348.432
348.432
348.432
348.432
348.432
348.432
348.432
348.432
348.432
348.432
348.432
348.432
348.432
348.432
348.432
348.432
348.432
348.432
348.432
348.432
348.432
348.432
348.432
348.432
348.432
348.432
348.432
348.432
348.432
348.432
348.432
348.432
348.432
348.432
348.432
348.432
348.432
348.432
348.432
348.432
348.432
348.432
348.432
348.432
348.432
348.432
348.432
348.432
348.432
348.432
348.432
348.432
348.432
348.432
348.432
348.432
348.432
348.432
348.432
348.432
348.432
348.432
348.432
348.432
348.432
348.432
348.432
348.432
348.432
348.432
348.432
348.432
348.432
348.432
348.432
348.432
348.432
348.432
348.432
348.432
348.432
348.432
348.432
348.432
348.432
348.432
348.432
348.432
348.432
348.432
348.432
348.432
348.432
348.432
348.432
348.432
348.432
348.432
348.432
348.432
348.432
348.432
348.432
348.432
348.432
348.432
348.432
348.432
348.432
348.432
348.432
348.432
348.432
348.432
348.432
348.432
348.432
348.432
348.432
348.432
348.432
348.432
348.432
348.432
348.432
348.432
348.432
348.432
348.432
348.432
348.432
348.432
348.432
348.432
348.432
348.432
348.432
348.432
348.432
348.432
348.432
348.432
348.432
348.432
348.432
348.432
348.432
348.432
348.432
348.432
348.432
348.432
348.432
348.432
348.432
348.432
348.432
348.432
348.432
348.432
348.432
348.432
348.432
348.432
348.432
348.432
348.432
348.432
348.432
348.432
348.432
348.432
348.432
348.432
348.432
348.432
348.432
348.432
348.432
348.432
348.432
348.432
348.432
348.432
348.432
348.432
348.432
348.432
348.432
348.432
348.432
348.432
348.432
348.432
348.432
348.432
348.432
348.432
348.432
348.432
348.432
348.432
348.432
348.432
348.432
348.432
348.432
348.432
348.432
348.432
348.432
348.432
348.432
348.432
348.432
348.432
348.432
348.432
348.432
348.432
348.432
348.432
348.432
348.432
348.432
348.432
348.432
348.432
348.432
348.432
348.432
348.432
348.432
348.432
348.432
348.432
348.432
348.432
348.432
348.432
348.432
348.432
348.432
348.432
348.432
348.432
348.432
348.432
348.432
348.432
348.432
348.432
348.432
348.432
348.432
348.432
348.432
348.432
348.432
348.432
348.432
348.432
348.432
348.432
348.432
348.432
348.432
348.432
348.432
348.432
348.432
348.432
348.432
348.432
348.432
348.432
348.432
348.432
348.432
348.432
348.432
348.432
348.432
348.432
348.432
348.432
348.432
348.432
348.432
348.432
348.432
348.432
348.432
348.432
348.432
348.432
348.432
348.432
348.432
348.432
348.432
348.432
348.432
348.432
348.432
348.432
348.432
348.432
348.432
348.432
348.432
348.432
348.432
348.432
348.432
348.432
348.432
348.432
348.432
348.432
348.432
348.432
348.432
348.432
348.432
348.432
348.432
348.432
348.432
348.432
348.432
348.432
348.432
348.432
348.432
348.432
348.432
348.432
348.432
348.432
348.432
348.432
348.432
348.432
348.432
348.432
348.432
348.432
348.432
348.432
348.432
348.432
348.432
348.432
348.432
348.432
348.432
348.432
348.432
348.432
348.432
348.432
348.432
348.432
348.432
348.432
348.432
348.432
348.432
348.432
348.432
348.432
348.432
348.432
348.432
348.432
348.432
348.432
348.432
348.432
348.432
348.432
348.432
348.432
348.432
348.432
348.432
348.432
348.432
348.432
348.432
348.432
348.432
348.432
348.432
348.432
348.432
348.432
348.432
348.432
348.432
348.432
348.432
348.432
348.432
348.432
348.432
348.432
348.432
348.432
348.432
348.432
348.432
348.432
348.432
348.432
348.432
348.432
348.432
348.432
348.432
348.432
348.432
348.432
348.432
348.432
348.432
348.432
348.432
348.432
348.432
348.432
348.432
348.432
348.432
348.432
348.432
348.432
348.432
348.432
348.432
348.432
348.432
348.432
348.432
348.432
348.432
348.432
348.432
348.432
348.432
348.432
348.432
348.432
348.432
348.432
348.432
348.432
348.432
348.432
348.432
348.432
348.432
348.432
348.432
348.432
348.432
348.432
348.432
348.432
348.432
348.432
348.432
348.432
348.432
348.432
348.432
348.432
348.432
348.432
348.432
348.432
348.432
348.432
348.432
348.432
348.432
348.432
348.432
348.432
348.432
348.432
348.432
348.432
348.432
348.432
348.432
348.432
348.432
348.432
348.432
348.432
348.432
348.432
348.432
348.432
348.432
348.432
348.432
348.432
348.432
348.432
348.432
348.432
348.432
348.432
348.432
348.432
348.432
348.432
348.432
348.432
348.432
348.432
348.432
348.432
348.432
348.432
348.432
348.432
348.432
348.432
348.432
348.432
348.432
348.432
348.432
348.432
348.432
348.432
348.432
348.432
348.432
348.432
348.432
348.432
348.432
348.432
348.432
348.432
348.432
348.432
348.432
348.432
348.432
348.432
348.432
348.432
348.432
348.432
348.432
348.432
348.432
348.432
348.432
348.432
348.432
348.432
348.432
348.432
348.432
348.432
348.432
348.432
348.432
348.432
348.432
348.432
348.432
348.432
348.432
348.432
348.432
348.432
348.432
348.431
348.431
348.431
348.431
348.431
348.431
348.43
348.43
348.43
348.429
348.429
348.428
348.428
348.427
348.426
348.425
348.423
348.422
348.42
348.419
348.416
348.414
348.411
348.408
348.405
348.401
348.397
348.392
348.387
348.381
348.374
348.367
348.36
348.352
348.343
348.333
348.323
348.312
348.3
348.287
348.274
348.26
348.245
348.229
348.213
348.196
348.178
348.16
348.141
348.121
348.101
348.08
348.059
348.037
348.015
347.992
347.969
347.945
347.921
347.896
347.872
347.846
347.821
347.795
347.769
347.743
347.717
347.69
347.663
347.636
347.609
347.581
347.554
347.526
347.498
347.47
347.442
347.414
347.386
347.357
347.329
347.3
347.271
347.243
347.214
347.185
347.156
347.127
347.098
347.069
347.04
347.01
346.981
346.952
346.923
346.893
346.864
346.834
346.805
346.775
346.746
346.716
346.686
346.657
346.627
346.598
346.568
346.538
346.508
346.479
346.449
346.419
346.389
346.359
346.329
346.3
346.27
346.24
346.21
346.18
346.15
346.12
346.09
346.06
346.03
346
345.97
345.94
345.91
345.88
345.85
345.82
345.79
345.76
345.729
345.699
345.669
345.639
345.609
345.579
345.549
345.519
345.488
345.458
345.428
345.398
345.368
345.337
345.307
345.277
345.247
345.217
345.186
345.156
345.126
345.096
345.065
345.035
345.005
344.975
344.944
344.914
344.884
344.854
344.823
344.793
344.763
344.732
344.702
344.672
344.642
344.611
344.581
344.551
344.52
344.49
344.46
344.429
344.399
344.369
344.338
344.308
344.278
344.247
344.217
344.186
344.156
344.126
344.095
344.065
344.035
344.004
343.974
343.943
343.913
343.883
343.852
343.822
343.791
343.761
343.731
343.7
343.67
343.639
343.609
343.579
343.548
343.518
343.487
343.457
343.426
343.396
343.366
343.335
343.305
343.274
343.244
343.213
343.183
343.152
343.122
343.091
343.061
343.031
343
342.97
342.939
342.909
342.878
342.848
342.817
342.787
342.756
342.726
342.695
342.665
342.634
342.604
342.574
342.543
342.513
342.482
342.452
342.421
342.391
342.36
342.33
342.299
342.269
342.238
342.208
342.177
342.147
342.116
342.086
342.055
342.025
341.994
341.964
341.933
341.903
341.872
341.842
341.811
341.781
341.75
341.72
341.689
341.659
341.628
341.598
341.567
341.537
341.506
341.476
341.445
341.415
341.384
341.354
341.323
341.293
341.262
341.232
341.201
341.171
341.14
341.11
341.079
341.049
341.018
340.988
340.957
340.927
340.896
340.866
340.835
340.805
340.774
340.744
340.713
340.683
340.652
340.622
340.591
340.561
340.53
340.5
340.469
340.439
340.408
340.378
340.347
340.317
340.286
340.256
340.225
340.195
340.164
340.134
340.103
340.073
340.042
340.012
339.981
339.951
339.92
339.89
339.859
339.829
339.798
339.768
339.737
339.707
339.676
339.646
339.615
339.585
339.554
339.524
339.493
339.463
339.432
339.402
339.371
339.341
339.31
339.28
339.25
339.219
339.189
339.158
339.128
339.097
339.067
339.036
339.006
338.975
338.945
338.914
338.884
338.853
338.823
338.792
338.762
338.731
338.701
338.67
338.64
338.61
338.579
338.549
338.518
338.488
338.457
338.427
338.396
338.366
338.335
338.305
338.274
338.244
338.214
338.183
338.153
338.122
338.092
338.061
338.031
338
337.97
337.939
337.909
337.879
337.848
337.818
337.787
337.757
337.726
337.696
337.665
337.635
337.605
337.574
337.544
337.513
337.483
337.452
337.422
337.391
337.361
337.331
337.3
337.27
337.239
337.209
337.178
337.148
337.118
337.087
337.057
337.026
336.996
336.965
336.935
336.905
336.874
336.844
336.813
336.783
336.753
336.722
336.692
336.661
336.631
336.601
336.57
336.54
336.509
336.479
336.448
336.418
336.388
336.357
336.327
336.296
336.266
336.236
336.205
336.175
336.144
336.114
336.084
336.053
336.023
335.993
335.962
335.932
335.901
335.871
335.841
335.81
335.78
335.749
335.719
335.689
335.658
335.628
335.598
335.567
335.537
335.506
335.476
335.446
335.415
335.385
335.355
335.324
335.294
335.263
335.233
335.203
335.172
335.142
335.112
335.081
335.051
335.021
334.99
334.96
334.93
334.899
334.869
334.839
334.808
334.778
334.747
334.717
334.687
334.656
334.626
334.596
334.565
334.535
334.505
334.474
334.444
334.414
334.383
334.353
334.323
334.292
334.262
334.232
334.201
334.171
334.141
334.11
334.08
334.05
334.02
333.989
333.959
333.929
333.898
333.868
333.838
333.807
333.777
333.747
333.716
333.686
333.656
333.625
333.595
333.565
333.535
333.504
333.474
333.444
333.413
333.383
333.353
333.322
333.292
333.262
333.232
333.201
333.171
333.141
333.11
333.08
333.05
333.02
332.989
332.959
332.929
332.899
332.868
332.838
332.808
332.777
332.747
332.717
332.687
332.656
332.626
332.596
332.566
332.535
332.505
332.475
332.445
332.414
332.384
332.354
332.324
332.293
332.263
332.233
332.203
332.172
332.142
332.112
332.082
332.051
332.021
331.991
331.961
331.93
331.9
331.87
331.84
331.809
331.779
331.749
331.719
331.688
331.658
331.628
331.598
331.568
331.537
331.507
331.477
331.447
331.416
331.386
331.356
331.326
331.296
331.265
331.235
331.205
331.175
331.145
331.114
331.084
331.054
331.024
330.994
330.963
330.933
330.903
330.873
330.843
330.812
330.782
330.752
330.722
330.692
330.661
330.631
330.601
330.571
330.541
330.511
330.48
330.45
330.42
330.39
330.36
330.329
330.299
330.269
330.239
330.209
330.179
330.148
330.118
330.088
330.058
330.028
329.998
329.968
329.937
329.907
329.877
329.847
329.817
329.787
329.756
329.726
329.696
329.666
329.636
329.606
329.576
329.545
329.515
329.485
329.455
329.425
329.395
329.365
329.335
329.304
329.274
329.244
329.214
329.184
329.154
329.124
329.094
329.063
329.033
329.003
328.973
328.943
328.913
328.883
328.853
328.822
328.792
328.762
328.732
328.702
328.672
328.642
328.612
328.582
328.552
328.521
328.491
328.461
328.431
328.401
328.371
328.341
328.311
328.281
328.251
328.221
328.19
328.16
328.13
328.1
328.07
328.04
328.01
327.98
327.95
327.92
327.89
327.86
327.83
327.8
327.769
327.739
327.709
327.679
327.649
327.619
327.589
327.559
327.529
327.499
327.469
327.439
327.409
327.379
327.349
327.319
327.289
327.259
327.228
327.198
327.168
327.138
327.108
327.078
327.048
327.018
326.988
326.958
326.928
326.898
326.868
326.838
326.808
326.778
326.748
326.718
326.688
326.658
326.628
326.598
326.568
326.538
326.508
326.478
326.448
326.418
326.388
326.358
326.328
326.298
326.268
326.238
326.208
326.178
326.148
326.118
326.088
326.058
326.028
325.998
325.968
325.938
325.908
325.878
325.848
325.818
325.788
325.758
325.728
325.698
325.668
325.638
325.608
325.578
325.548
325.518
325.488
325.458
325.428
325.398
325.368
325.338
325.309
325.279
325.249
325.219
325.189
325.159
325.129
325.099
325.069
325.039
325.009
324.979
324.949
324.919
324.889
324.859
324.829
324.799
324.77
324.74
324.71
324.68
324.65
324.62
324.59
324.56
324.53
324.5
324.47
324.44
324.41
324.38
324.351
324.321
324.291
324.261
324.231
324.201
324.171
324.141
324.111
324.081
324.051
324.022
323.992
323.962
323.932
323.902
323.872
323.842
323.812
323.782
323.753
323.723
323.693
323.663
323.633
323.603
323.573
323.543
323.513
323.484
323.454
323.424
323.394
323.364
323.334
323.304
323.274
323.245
323.215
323.185
323.155
323.125
323.095
323.065
323.036
323.006
322.976
322.946
322.916
322.886
322.856
322.827
322.797
322.767
322.737
322.707
322.677
322.648
322.618
322.588
322.558
322.528
322.498
322.469
322.439
322.409
322.379
322.349
322.319
322.29
322.26
322.23
322.2
322.17
322.14
322.111
322.081
322.051
322.021
321.991
321.962
321.932
321.902
321.872
321.842
321.813
321.783
321.753
321.723
321.693
321.664
321.634
321.604
321.574
321.544
321.515
321.485
321.455
321.425
321.395
321.366
321.336
321.306
321.276
321.247
321.217
321.187
321.157
321.127
321.098
321.068
321.038
321.008
320.979
320.949
320.919
320.889
320.86
320.83
320.8
320.77
320.74
320.711
320.681
320.651
320.621
320.592
320.562
320.532
320.502
320.473
320.443
320.413
320.384
320.354
320.324
320.294
320.265
320.235
320.205
320.175
320.146
320.116
320.086
320.056
320.027
319.997
319.967
319.938
319.908
319.878
319.848
319.819
319.789
319.759
319.73
319.7
319.67
319.64
319.611
319.581
319.551
319.522
319.492
319.462
319.433
319.403
319.373
319.343
319.314
319.284
319.254
319.225
319.195
319.165
319.136
319.106
319.076
319.047
319.017
318.987
318.958
318.928
318.898
318.869
318.839
318.809
318.78
318.75
318.72
318.691
318.661
318.631
318.602
318.572
318.542
318.513
318.483
318.453
318.424
318.394
318.364
318.335
318.305
318.275
318.246
318.216
318.187
318.157
318.127
318.098
318.068
318.038
318.009
317.979
317.949
317.92
317.89
317.861
317.831
317.801
317.772
317.742
317.712
317.683
317.653
317.624
317.594
317.564
317.535
317.505
317.476
317.446
317.416
317.387
317.357
317.328
317.298
317.268
317.239
317.209
317.18
317.15
317.12
317.091
317.061
317.032
317.002
316.972
316.943
316.913
316.884
316.854
316.825
316.795
316.765
316.736
316.706
316.677
316.647
316.618
316.588
316.558
316.529
316.499
316.47
316.44
316.411
316.381
316.352
316.322
316.292
316.263
316.233
316.204
316.174
316.145
316.115
316.086
316.056
316.027
315.997
315.967
315.938
315.908
315.879
315.849
315.82
315.79
315.761
315.731
315.702
315.672
315.643
315.613
315.584
315.554
315.525
315.495
315.465
315.436
315.406
315.377
315.347
315.318
315.288
315.259
315.229
315.2
315.17
315.141
315.111
315.082
315.052
315.023
314.993
314.964
314.934
314.905
314.875
314.846
314.817
314.787
314.758
314.728
314.699
314.669
314.64
314.61
314.581
314.551
314.522
314.492
314.463
314.433
314.404
314.374
314.345
314.315
314.286
314.257
314.227
314.198
314.168
314.139
314.109
314.08
314.05
314.021
313.991
313.962
313.933
313.903
313.874
313.844
313.815
313.785
313.756
313.727
313.697
313.668
313.638
313.609
313.579
313.55
313.521
313.491
313.462
313.432
313.403
313.373
313.344
313.315
313.285
313.256
313.226
313.197
313.168
313.138
313.109
313.079
313.05
313.02
312.991
312.962
312.932
312.903
312.874
312.844
312.815
312.785
312.756
312.727
312.697
312.668
312.638
312.609
312.58
312.55
312.521
312.491
312.462
312.433
312.403
312.374
312.345
312.315
312.286
312.257
312.227
312.198
312.168
312.139
312.11
312.08
312.051
312.022
311.992
311.963
311.934
311.904
311.875
311.846
311.816
311.787
311.758
311.728
311.699
311.669
311.64
311.611
311.581
311.552
311.523
311.493
311.464
311.435
311.405
311.376
311.347
311.318
311.288
311.259
311.23
311.2
311.171
311.142
311.112
311.083
311.054
311.024
310.995
310.966
310.936
310.907
310.878
310.849
310.819
310.79
310.761
310.731
310.702
310.673
310.643
310.614
310.585
310.556
310.526
310.497
310.468
310.438
310.409
310.38
310.351
310.321
310.292
310.263
310.234
310.204
310.175
310.146
310.116
310.087
310.058
310.029
309.999
309.97
309.941
309.912
309.882
309.853
309.824
309.795
309.765
309.736
309.707
309.678
309.648
309.619
309.59
309.561
309.531
309.502
309.473
309.444
309.414
309.385
309.356
309.327
309.298
309.268
309.239
309.21
309.181
309.151
309.122
309.093
309.064
309.035
309.005
308.976
308.947
308.918
308.889
308.859
308.83
308.801
308.772
308.743
308.713
308.684
308.655
308.626
308.597
308.567
308.538
308.509
308.48
308.451
308.421
308.392
308.363
308.334
308.305
308.275
308.246
308.217
308.188
308.159
308.13
308.1
308.071
308.042
308.013
307.984
307.955
307.925
307.896
307.867
307.838
307.809
307.78
307.75
307.721
307.692
307.663
307.634
307.605
307.576
307.546
307.517
307.488
307.459
307.43
307.401
307.372
307.342
307.313
307.284
307.255
307.226
307.197
307.168
307.139
307.109
307.08
307.051
307.022
306.993
306.964
306.935
306.906
306.876
306.847
306.818
306.789
306.76
306.731
306.702
306.673
306.644
306.614
306.585
306.556
306.527
306.498
306.469
306.44
306.411
306.382
306.353
306.324
306.294
306.265
306.236
306.207
306.178
306.149
306.12
306.091
306.062
306.033
306.004
305.975
305.946
305.916
305.887
305.858
305.829
305.8
305.771
305.742
305.713
305.684
305.655
305.626
305.597
305.568
305.539
305.51
305.481
305.452
305.423
305.393
305.364
305.335
305.306
305.277
305.248
305.219
305.19
305.161
305.132
305.103
305.074
305.045
305.016
304.987
304.958
304.929
304.9
304.871
304.842
304.813
304.784
304.755
304.726
304.697
304.668
304.639
304.61
304.581
304.552
304.523
304.494
304.465
304.436
304.407
304.378
304.349
304.32
304.291
304.262
304.233
304.204
304.175
304.146
304.117
304.088
304.059
304.03
304.001
303.972
303.943
303.914
303.885
303.856
303.827
303.798
303.769
303.74
303.711
303.682
303.653
303.624
303.595
303.567
303.538
303.509
303.48
303.451
303.422
303.393
303.364
303.335
303.306
303.277
303.248
303.219
303.19
303.161
303.132
303.103
303.074
303.046
303.017
302.988
302.959
302.93
302.901
302.872
302.843
302.814
302.785
302.756
302.727
302.698
302.67
302.641
302.612
302.583
302.554
302.525
302.496
302.467
302.438
302.409
302.38
302.352
302.323
302.294
302.265
302.236
302.207
302.178
302.149
302.12
302.092
302.063
302.034
302.005
301.976
301.947
301.918
301.889
301.861
301.832
301.803
301.774
301.745
301.716
301.687
301.658
301.63
301.601
301.572
301.543
301.514
301.485
301.456
301.428
301.399
301.37
301.341
301.312
301.283
301.254
301.226
301.197
301.168
301.139
301.11
301.081
301.053
301.024
300.995
300.966
300.937
300.908
300.88
300.851
300.822
300.793
300.764
300.735
300.707
300.678
300.649
300.62
300.591
300.563
300.534
300.505
300.476
300.447
300.419
300.39
300.361
300.332
300.303
300.275
300.246
300.217
300.188
300.159
300.131
300.102
300.073
300.044
300.015
299.987
299.958
299.929
299.9
299.871
299.843
299.814
299.785
299.756
299.728
299.699
299.67
299.641
299.613
299.584
299.555
299.526
299.497
299.469
299.44
299.411
299.382
299.354
299.325
299.296
299.267
299.239
299.21
299.181
299.152
299.124
299.095
299.066
299.038
299.009
298.98
298.951
298.923
298.894
298.865
298.836
298.808
298.779
298.75
298.721
298.693
298.664
298.635
298.607
298.578
298.549
298.52
298.492
298.463
298.434
298.406
298.377
298.348
298.319
298.291
298.262
298.233
298.205
298.176
298.147
298.119
298.09
298.061
298.033
298.004
297.975
297.946
297.918
297.889
297.86
297.832
297.803
297.774
297.746
297.717
297.688
297.66
297.631
297.602
297.574
297.545
297.516
297.488
297.459
297.43
297.402
297.373
297.344
297.316
297.287
297.258
297.23
297.201
297.172
297.144
297.115
297.087
297.058
297.029
297.001
296.972
296.943
296.915
296.886
296.857
296.829
296.8
296.772
296.743
296.714
296.686
296.657
296.628
296.6
296.571
296.543
296.514
296.485
296.457
296.428
296.399
296.371
296.342
296.314
296.285
296.256
296.228
296.199
296.171
296.142
296.113
296.085
296.056
296.028
295.999
295.97
295.942
295.913
295.885
295.856
295.828
295.799
295.77
295.742
295.713
295.685
295.656
295.627
295.599
295.57
295.542
295.513
295.485
295.456
295.428
295.399
295.37
295.342
295.313
295.285
295.256
295.228
295.199
295.171
295.142
295.113
295.085
295.056
295.028
294.999
294.971
294.942
294.914
294.885
294.857
294.828
294.799
294.771
294.742
294.714
294.685
294.657
294.628
294.6
294.571
294.543
294.514
294.486
294.457
294.429
294.4
294.372
294.343
294.315
294.286
294.258
294.229
294.201
294.172
294.144
294.115
294.087
294.058
294.03
294.001
293.973
293.944
293.916
293.887
293.859
293.83
293.802
293.773
293.745
293.716
293.688
293.659
293.631
293.602
293.574
293.545
293.517
293.488
293.46
293.432
293.403
293.375
293.346
293.318
293.289
293.261
293.232
293.204
293.175
293.147
293.118
293.09
293.062
293.033
293.005
292.976
292.948
292.919
292.891
292.862
292.834
292.806
292.777
292.749
292.72
292.692
292.663
292.635
292.607
292.578
292.55
292.521
292.493
292.465
292.436
292.408
292.379
292.351
292.322
292.294
292.266
292.237
292.209
292.18
292.152
292.124
292.095
292.067
292.038
292.01
291.982
291.953
291.925
291.896
291.868
291.84
291.811
291.783
291.755
291.726
291.698
291.669
291.641
291.613
291.584
291.556
291.527
291.499
291.471
291.442
291.414
291.386
291.357
291.329
291.301
291.272
291.244
291.215
291.187
291.159
291.13
291.102
291.074
291.045
291.017
290.989
290.96
290.932
290.904
290.875
290.847
290.819
290.79
290.762
290.734
290.705
290.677
290.649
290.62
290.592
290.564
290.535
290.507
290.479
290.45
290.422
290.394
290.365
290.337
290.309
290.28
290.252
290.224
290.196
290.167
290.139
290.111
290.082
290.054
290.026
289.997
289.969
289.941
289.913
289.884
289.856
289.828
289.799
289.771
289.743
289.715
289.686
289.658
289.63
289.601
289.573
289.545
289.517
289.488
289.46
289.432
289.404
289.375
289.347
289.319
289.291
289.262
289.234
289.206
289.177
289.149
289.121
289.093
289.064
289.036
289.008
288.98
288.951
288.923
288.895
288.867
288.839
288.81
288.782
288.754
288.726
288.697
288.669
288.641
288.613
288.584
288.556
288.528
288.5
288.472
288.443
288.415
288.387
288.359
288.33
288.302
288.274
288.246
288.217
288.19
288.161
288.134
288.104
288.077
288.047
288.021
287.99
287.966
287.933
287.91
287.876
287.854
287.819
287.799
287.762
287.743
287.705
287.687
287.649
287.63
287.593
287.573
287.538
287.516
287.483
287.458
287.428
287.399
287.374
287.341
287.319
287.284
287.263
287.228
287.206
287.173
287.148
287.118
287.09
287.064
287.032
287.009
286.975
286.953
286.919
286.895
286.865
286.837
286.811
286.779
286.755
286.722
286.699
286.667
286.641
286.613
286.582
286.558
286.525
286.502
286.47
286.444
286.415
286.386
286.361
286.329
286.305
286.273
286.247
286.219
286.189
286.164
286.132
286.108
286.077
286.05
286.023
285.992
285.968
285.936
285.911
285.881
285.852
285.827
285.795
285.771
285.74
285.713
285.685
285.655
285.63
285.599
285.573
285.544
285.515
285.49
285.458
285.433
285.404
285.375
285.349
285.318
285.293
285.263
285.235
285.209
285.178
285.153
285.123
285.095
285.068
285.038
285.012
284.982
284.955
284.928
284.898
284.872
284.842
284.815
284.788
284.757
284.732
284.702
284.674
284.648
284.617
284.592
284.562
284.534
284.508
284.477
284.451
284.423
284.394
284.368
284.337
284.311
284.283
284.253
284.228
284.198
284.17
284.143
284.113
284.087
284.058
284.03
284.003
283.973
283.947
283.919
283.889
283.863
283.834
283.806
283.779
283.749
283.723
283.694
283.666
283.64
283.61
283.583
283.555
283.526
283.499
283.471
283.442
283.416
283.386
283.359
283.331
283.302
283.276
283.247
283.219
283.192
283.162
283.135
283.108
283.078
283.052
283.023
282.995
282.968
282.939
282.912
282.884
282.855
282.828
282.8
282.771
282.745
282.716
282.688
282.661
282.632
282.605
282.577
282.548
282.521
282.493
282.464
282.438
282.409
282.381
282.354
282.325
282.297
282.27
282.241
282.214
282.186
282.157
282.13
282.102
282.074
282.047
282.018
281.99
281.963
281.934
281.907
281.879
281.85
281.824
281.795
281.767
281.74
281.711
281.683
281.656
281.627
281.6
281.573
281.544
281.517
281.489
281.46
281.433
281.405
281.377
281.35
281.321
281.293
281.266
281.238
281.21
281.183
281.154
281.126
281.099
281.07
281.043
281.015
280.987
280.959
280.932
280.903
280.876
280.848
280.82
280.793
280.764
280.736
280.709
280.681
280.653
280.626
280.597
280.569
280.542
280.514
280.486
280.459
280.43
280.403
280.375
280.347
280.319
280.292
280.263
280.236
280.208
280.18
280.153
280.125
280.097
280.069
280.042
280.013
279.986
279.958
279.93
279.903
279.875
279.847
279.819
279.791
279.763
279.736
279.708
279.68
279.653
279.625
279.597
279.569
279.541
279.513
279.486
279.458
279.43
279.403
279.375
279.347
279.319
279.292
279.263
279.236
279.208
279.18
279.153
279.125
279.097
279.07
279.042
279.014
278.986
278.959
278.931
278.903
278.876
278.847
278.82
278.792
278.764
278.737
278.709
278.681
278.653
278.626
278.598
278.57
278.543
278.515
278.487
278.46
278.432
278.404
278.377
278.349
278.321
278.293
278.266
278.238
278.21
278.182
278.155
278.127
278.099
278.071
278.044
278.016
277.988
277.961
277.933
277.905
277.878
277.85
277.822
277.795
277.767
277.739
277.712
277.684
277.656
277.629
277.601
277.573
277.546
277.518
277.491
277.463
277.435
277.408
277.38
277.352
277.325
277.297
277.269
277.242
277.214
277.186
277.159
277.131
277.103
277.076
277.048
277.02
276.993
276.965
276.937
276.91
276.882
276.855
276.827
276.8
276.772
276.744
276.717
276.689
276.661
276.634
276.606
276.578
276.551
276.523
276.496
276.468