/*--------------------------------*- C++ -*----------------------------------*\
  =========                 |
  \\      /  F ield         | OpenFOAM: The Open Source CFD Toolbox
   \\    /   O peration     | Website:  https://openfoam.org
    \\  /    A nd           | Version:  9
     \\/     M anipulation  |
\*---------------------------------------------------------------------------*/
FoamFile
{
    format      ascii;
    class       volScalarField;
    location    "0.017";
    object      rho;
}
// * * * * * * * * * * * * * * * * * * * * * * * * * * * * * * * * * * * * * //

dimensions      [1 -3 0 0 0 0 0];

internalField   nonuniform List<scalar> 
10000
(
0.678903
0.678882
0.678853
0.678835
0.678826
0.678821
0.678818
0.678815
0.678813
0.678811
0.678809
0.678807
0.678805
0.678803
0.678801
0.678799
0.678797
0.678795
0.678793
0.678791
0.678788
0.678786
0.678784
0.678782
0.67878
0.678778
0.678775
0.678773
0.678771
0.678769
0.678767
0.678765
0.678762
0.67876
0.678758
0.678756
0.678753
0.678751
0.678749
0.678747
0.678744
0.678742
0.67874
0.678737
0.678735
0.678733
0.678731
0.678728
0.678726
0.678724
0.678721
0.678719
0.678717
0.678714
0.678712
0.678709
0.678707
0.678705
0.678702
0.6787
0.678697
0.678695
0.678693
0.67869
0.678688
0.678685
0.678683
0.67868
0.678678
0.678675
0.678673
0.67867
0.678668
0.678665
0.678663
0.67866
0.678658
0.678655
0.678653
0.67865
0.678648
0.678645
0.678643
0.67864
0.678637
0.678635
0.678632
0.67863
0.678627
0.678624
0.678622
0.678619
0.678616
0.678614
0.678611
0.678609
0.678606
0.678603
0.678601
0.678598
0.678595
0.678592
0.67859
0.678587
0.678584
0.678582
0.678579
0.678576
0.678573
0.678571
0.678568
0.678565
0.678562
0.678559
0.678557
0.678554
0.678551
0.678548
0.678545
0.678543
0.67854
0.678537
0.678534
0.678531
0.678528
0.678525
0.678523
0.67852
0.678517
0.678514
0.678511
0.678508
0.678505
0.678502
0.678499
0.678496
0.678493
0.67849
0.678487
0.678484
0.678481
0.678479
0.678476
0.678473
0.67847
0.678466
0.678463
0.67846
0.678457
0.678454
0.678451
0.678448
0.678445
0.678442
0.678439
0.678436
0.678433
0.67843
0.678427
0.678424
0.67842
0.678417
0.678414
0.678411
0.678408
0.678405
0.678402
0.678398
0.678395
0.678392
0.678389
0.678386
0.678382
0.678379
0.678376
0.678373
0.67837
0.678366
0.678363
0.67836
0.678356
0.678353
0.67835
0.678347
0.678343
0.67834
0.678337
0.678333
0.67833
0.678327
0.678323
0.67832
0.678317
0.678313
0.67831
0.678307
0.678303
0.6783
0.678297
0.678293
0.67829
0.678286
0.678283
0.678279
0.678276
0.678273
0.678269
0.678266
0.678262
0.678259
0.678255
0.678252
0.678248
0.678245
0.678241
0.678238
0.678234
0.678231
0.678227
0.678224
0.67822
0.678216
0.678213
0.678209
0.678206
0.678202
0.678199
0.678195
0.678191
0.678188
0.678184
0.678181
0.678177
0.678173
0.67817
0.678166
0.678162
0.678159
0.678155
0.678151
0.678148
0.678144
0.67814
0.678136
0.678133
0.678129
0.678125
0.678121
0.678118
0.678114
0.67811
0.678106
0.678103
0.678099
0.678095
0.678091
0.678087
0.678084
0.67808
0.678076
0.678072
0.678068
0.678064
0.678061
0.678057
0.678053
0.678049
0.678045
0.678041
0.678037
0.678033
0.678029
0.678025
0.678022
0.678018
0.678014
0.67801
0.678006
0.678002
0.677998
0.677994
0.67799
0.677986
0.677982
0.677978
0.677974
0.67797
0.677966
0.677962
0.677958
0.677954
0.67795
0.677945
0.677941
0.677937
0.677933
0.677929
0.677925
0.677921
0.677917
0.677913
0.677909
0.677904
0.6779
0.677896
0.677892
0.677888
0.677884
0.677879
0.677875
0.677871
0.677867
0.677863
0.677858
0.677854
0.67785
0.677846
0.677841
0.677837
0.677833
0.677829
0.677824
0.67782
0.677816
0.677811
0.677807
0.677803
0.677798
0.677794
0.67779
0.677785
0.677781
0.677777
0.677772
0.677768
0.677764
0.677759
0.677755
0.67775
0.677746
0.677742
0.677737
0.677733
0.677728
0.677724
0.677719
0.677715
0.67771
0.677706
0.677701
0.677697
0.677692
0.677688
0.677683
0.677679
0.677674
0.67767
0.677665
0.677661
0.677656
0.677652
0.677647
0.677643
0.677638
0.677633
0.677629
0.677624
0.677619
0.677615
0.67761
0.677606
0.677601
0.677596
0.677592
0.677587
0.677582
0.677578
0.677573
0.677568
0.677564
0.677559
0.677554
0.677549
0.677545
0.67754
0.677535
0.67753
0.677526
0.677521
0.677516
0.677511
0.677506
0.677502
0.677497
0.677492
0.677487
0.677482
0.677478
0.677473
0.677468
0.677463
0.677458
0.677453
0.677448
0.677444
0.677439
0.677434
0.677429
0.677424
0.677419
0.677414
0.677409
0.677404
0.677399
0.677394
0.677389
0.677384
0.677379
0.677374
0.677369
0.677364
0.677359
0.677354
0.677349
0.677344
0.677339
0.677334
0.677329
0.677324
0.677319
0.677314
0.677309
0.677304
0.677299
0.677293
0.677288
0.677283
0.677278
0.677273
0.677268
0.677263
0.677257
0.677252
0.677247
0.677242
0.677237
0.677232
0.677226
0.677221
0.677216
0.677211
0.677205
0.6772
0.677195
0.67719
0.677184
0.677179
0.677174
0.677169
0.677163
0.677158
0.677153
0.677147
0.677142
0.677137
0.677131
0.677126
0.677121
0.677115
0.67711
0.677105
0.677099
0.677094
0.677088
0.677083
0.677078
0.677072
0.677067
0.677061
0.677056
0.67705
0.677045
0.677039
0.677034
0.677028
0.677023
0.677017
0.677012
0.677006
0.677001
0.676995
0.67699
0.676984
0.676979
0.676973
0.676968
0.676962
0.676957
0.676951
0.676945
0.67694
0.676934
0.676929
0.676923
0.676917
0.676912
0.676906
0.6769
0.676895
0.676889
0.676883
0.676878
0.676872
0.676866
0.676861
0.676855
0.676849
0.676843
0.676838
0.676832
0.676826
0.67682
0.676815
0.676809
0.676803
0.676797
0.676791
0.676786
0.67678
0.676774
0.676768
0.676762
0.676756
0.676751
0.676745
0.676739
0.676733
0.676727
0.676721
0.676715
0.676709
0.676704
0.676698
0.676692
0.676686
0.67668
0.676674
0.676668
0.676662
0.676656
0.67665
0.676644
0.676638
0.676632
0.676626
0.67662
0.676614
0.676608
0.676602
0.676596
0.67659
0.676584
0.676578
0.676572
0.676565
0.676559
0.676553
0.676547
0.676541
0.676535
0.676529
0.676523
0.676517
0.67651
0.676504
0.676498
0.676492
0.676486
0.676479
0.676473
0.676467
0.676461
0.676455
0.676448
0.676442
0.676436
0.67643
0.676423
0.676417
0.676411
0.676405
0.676398
0.676392
0.676386
0.676379
0.676373
0.676367
0.67636
0.676354
0.676348
0.676341
0.676335
0.676329
0.676322
0.676316
0.676309
0.676303
0.676297
0.67629
0.676284
0.676277
0.676271
0.676264
0.676258
0.676251
0.676245
0.676238
0.676232
0.676225
0.676219
0.676212
0.676206
0.676199
0.676193
0.676186
0.67618
0.676173
0.676167
0.67616
0.676153
0.676147
0.67614
0.676134
0.676127
0.67612
0.676114
0.676107
0.6761
0.676094
0.676087
0.67608
0.676074
0.676067
0.67606
0.676054
0.676047
0.67604
0.676034
0.676027
0.67602
0.676013
0.676007
0.676
0.675993
0.675986
0.675979
0.675973
0.675966
0.675959
0.675952
0.675945
0.675939
0.675932
0.675925
0.675918
0.675911
0.675904
0.675897
0.675891
0.675884
0.675877
0.67587
0.675863
0.675856
0.675849
0.675842
0.675835
0.675828
0.675821
0.675814
0.675807
0.6758
0.675793
0.675786
0.675779
0.675772
0.675765
0.675758
0.675751
0.675744
0.675737
0.67573
0.675723
0.675716
0.675709
0.675701
0.675694
0.675687
0.67568
0.675673
0.675666
0.675659
0.675652
0.675644
0.675637
0.67563
0.675623
0.675616
0.675608
0.675601
0.675594
0.675587
0.675579
0.675572
0.675565
0.675558
0.67555
0.675543
0.675536
0.675529
0.675521
0.675514
0.675507
0.675499
0.675492
0.675485
0.675477
0.67547
0.675463
0.675455
0.675448
0.67544
0.675433
0.675426
0.675418
0.675411
0.675403
0.675396
0.675388
0.675381
0.675374
0.675366
0.675359
0.675351
0.675344
0.675336
0.675329
0.675321
0.675314
0.675306
0.675298
0.675291
0.675283
0.675276
0.675268
0.675261
0.675253
0.675245
0.675238
0.67523
0.675223
0.675215
0.675207
0.6752
0.675192
0.675184
0.675177
0.675169
0.675161
0.675154
0.675146
0.675138
0.67513
0.675123
0.675115
0.675107
0.675099
0.675092
0.675084
0.675076
0.675068
0.67506
0.675053
0.675045
0.675037
0.675029
0.675021
0.675014
0.675006
0.674998
0.67499
0.674982
0.674974
0.674966
0.674958
0.67495
0.674943
0.674935
0.674927
0.674919
0.674911
0.674903
0.674895
0.674887
0.674879
0.674871
0.674863
0.674855
0.674847
0.674839
0.674831
0.674823
0.674815
0.674807
0.674798
0.67479
0.674782
0.674774
0.674766
0.674758
0.67475
0.674742
0.674734
0.674725
0.674717
0.674709
0.674701
0.674693
0.674685
0.674676
0.674668
0.67466
0.674652
0.674643
0.674635
0.674627
0.674619
0.67461
0.674602
0.674594
0.674586
0.674577
0.674569
0.674561
0.674552
0.674544
0.674536
0.674527
0.674519
0.674511
0.674502
0.674494
0.674485
0.674477
0.674469
0.67446
0.674452
0.674443
0.674435
0.674426
0.674418
0.674409
0.674401
0.674393
0.674384
0.674375
0.674367
0.674358
0.67435
0.674341
0.674333
0.674324
0.674316
0.674307
0.674299
0.67429
0.674281
0.674273
0.674264
0.674255
0.674247
0.674238
0.67423
0.674221
0.674212
0.674204
0.674195
0.674186
0.674177
0.674169
0.67416
0.674151
0.674142
0.674134
0.674125
0.674116
0.674107
0.674099
0.67409
0.674081
0.674072
0.674063
0.674055
0.674046
0.674037
0.674028
0.674019
0.67401
0.674001
0.673992
0.673984
0.673975
0.673966
0.673957
0.673948
0.673939
0.67393
0.673921
0.673912
0.673903
0.673894
0.673885
0.673876
0.673867
0.673858
0.673849
0.67384
0.673831
0.673822
0.673813
0.673804
0.673794
0.673785
0.673776
0.673767
0.673758
0.673749
0.67374
0.673731
0.673721
0.673712
0.673703
0.673694
0.673685
0.673675
0.673666
0.673657
0.673648
0.673638
0.673629
0.67362
0.673611
0.673601
0.673592
0.673583
0.673573
0.673564
0.673555
0.673545
0.673536
0.673527
0.673517
0.673508
0.673499
0.673489
0.67348
0.67347
0.673461
0.673451
0.673442
0.673432
0.673423
0.673414
0.673404
0.673395
0.673385
0.673376
0.673366
0.673356
0.673347
0.673337
0.673328
0.673318
0.673309
0.673299
0.673289
0.67328
0.67327
0.673261
0.673251
0.673241
0.673232
0.673222
0.673212
0.673203
0.673193
0.673183
0.673173
0.673164
0.673154
0.673144
0.673134
0.673125
0.673115
0.673105
0.673095
0.673085
0.673076
0.673066
0.673056
0.673046
0.673036
0.673026
0.673017
0.673007
0.672997
0.672987
0.672977
0.672967
0.672957
0.672947
0.672937
0.672927
0.672917
0.672907
0.672897
0.672887
0.672877
0.672867
0.672857
0.672847
0.672837
0.672827
0.672817
0.672807
0.672797
0.672786
0.672776
0.672766
0.672756
0.672746
0.672736
0.672726
0.672715
0.672705
0.672695
0.672685
0.672675
0.672664
0.672654
0.672644
0.672634
0.672623
0.672613
0.672603
0.672592
0.672582
0.672572
0.672561
0.672551
0.672541
0.67253
0.67252
0.672509
0.672499
0.672489
0.672478
0.672468
0.672457
0.672447
0.672436
0.672426
0.672415
0.672405
0.672394
0.672384
0.672373
0.672363
0.672352
0.672341
0.672331
0.67232
0.67231
0.672299
0.672288
0.672278
0.672267
0.672256
0.672246
0.672235
0.672224
0.672214
0.672203
0.672192
0.672181
0.672171
0.67216
0.672149
0.672138
0.672128
0.672117
0.672106
0.672095
0.672084
0.672073
0.672062
0.672052
0.672041
0.67203
0.672019
0.672008
0.671997
0.671986
0.671975
0.671964
0.671953
0.671942
0.671931
0.67192
0.671909
0.671898
0.671887
0.671876
0.671865
0.671854
0.671842
0.671831
0.67182
0.671809
0.671798
0.671787
0.671775
0.671764
0.671753
0.671742
0.671731
0.671719
0.671708
0.671697
0.671685
0.671674
0.671663
0.671651
0.67164
0.671629
0.671617
0.671606
0.671595
0.671583
0.671572
0.67156
0.671549
0.671537
0.671526
0.671514
0.671503
0.671491
0.67148
0.671468
0.671457
0.671445
0.671434
0.671422
0.67141
0.671399
0.671387
0.671376
0.671364
0.671352
0.671341
0.671329
0.671317
0.671305
0.671294
0.671282
0.67127
0.671258
0.671247
0.671235
0.671223
0.671211
0.671199
0.671187
0.671175
0.671163
0.671152
0.67114
0.671128
0.671116
0.671104
0.671092
0.67108
0.671068
0.671056
0.671044
0.671032
0.671019
0.671007
0.670995
0.670983
0.670971
0.670959
0.670947
0.670934
0.670922
0.67091
0.670898
0.670886
0.670873
0.670861
0.670849
0.670836
0.670824
0.670812
0.670799
0.670787
0.670775
0.670762
0.67075
0.670737
0.670725
0.670712
0.6707
0.670687
0.670675
0.670662
0.67065
0.670637
0.670625
0.670612
0.670599
0.670587
0.670574
0.670561
0.670549
0.670536
0.670523
0.670511
0.670498
0.670485
0.670472
0.670459
0.670446
0.670434
0.670421
0.670408
0.670395
0.670382
0.670369
0.670356
0.670343
0.67033
0.670317
0.670304
0.670291
0.670278
0.670265
0.670252
0.670239
0.670225
0.670212
0.670199
0.670186
0.670173
0.670159
0.670146
0.670133
0.67012
0.670106
0.670093
0.670079
0.670066
0.670053
0.670039
0.670026
0.670012
0.669999
0.669985
0.669972
0.669958
0.669945
0.669931
0.669917
0.669904
0.66989
0.669876
0.669863
0.669849
0.669835
0.669821
0.669808
0.669794
0.66978
0.669766
0.669752
0.669738
0.669724
0.66971
0.669696
0.669682
0.669668
0.669654
0.66964
0.669626
0.669612
0.669598
0.669584
0.66957
0.669555
0.669541
0.669527
0.669512
0.669498
0.669484
0.669469
0.669455
0.669441
0.669426
0.669412
0.669397
0.669383
0.669368
0.669353
0.669339
0.669324
0.66931
0.669295
0.66928
0.669265
0.669251
0.669236
0.669221
0.669206
0.669191
0.669176
0.669161
0.669146
0.669131
0.669116
0.669101
0.669086
0.669071
0.669056
0.669041
0.669026
0.66901
0.668995
0.66898
0.668964
0.668949
0.668934
0.668918
0.668903
0.668887
0.668872
0.668856
0.66884
0.668825
0.668809
0.668793
0.668778
0.668762
0.668746
0.66873
0.668714
0.668698
0.668683
0.668667
0.668651
0.668634
0.668618
0.668602
0.668586
0.66857
0.668554
0.668537
0.668521
0.668505
0.668488
0.668472
0.668455
0.668439
0.668422
0.668406
0.668389
0.668372
0.668356
0.668339
0.668322
0.668305
0.668288
0.668271
0.668254
0.668237
0.66822
0.668203
0.668186
0.668169
0.668152
0.668134
0.668117
0.6681
0.668082
0.668065
0.668047
0.66803
0.668012
0.667994
0.667977
0.667959
0.667941
0.667923
0.667905
0.667887
0.667869
0.667851
0.667833
0.667815
0.667797
0.667778
0.66776
0.667742
0.667723
0.667705
0.667686
0.667667
0.667649
0.66763
0.667611
0.667592
0.667573
0.667554
0.667535
0.667516
0.667497
0.667478
0.667459
0.667439
0.66742
0.6674
0.667381
0.667361
0.667341
0.667322
0.667302
0.667282
0.667262
0.667242
0.667222
0.667202
0.667181
0.667161
0.667141
0.66712
0.6671
0.667079
0.667058
0.667038
0.667017
0.666996
0.666975
0.666954
0.666932
0.666911
0.66689
0.666868
0.666847
0.666825
0.666804
0.666782
0.66676
0.666738
0.666716
0.666694
0.666672
0.666649
0.666627
0.666604
0.666582
0.666559
0.666536
0.666513
0.66649
0.666467
0.666444
0.666421
0.666397
0.666374
0.66635
0.666327
0.666303
0.666279
0.666255
0.666231
0.666206
0.666182
0.666157
0.666133
0.666108
0.666083
0.666058
0.666033
0.666008
0.665982
0.665957
0.665931
0.665905
0.66588
0.665854
0.665827
0.665801
0.665775
0.665748
0.665721
0.665695
0.665668
0.665641
0.665613
0.665586
0.665558
0.665531
0.665503
0.665475
0.665446
0.665418
0.66539
0.665361
0.665332
0.665303
0.665274
0.665245
0.665215
0.665185
0.665156
0.665126
0.665095
0.665065
0.665034
0.665004
0.664973
0.664942
0.66491
0.664879
0.664847
0.664815
0.664783
0.664751
0.664718
0.664686
0.664653
0.66462
0.664586
0.664553
0.664519
0.664485
0.664451
0.664417
0.664382
0.664347
0.664312
0.664277
0.664241
0.664205
0.664169
0.664133
0.664097
0.66406
0.664023
0.663986
0.663948
0.66391
0.663872
0.663834
0.663796
0.663757
0.663718
0.663678
0.663639
0.663599
0.663559
0.663518
0.663478
0.663437
0.663395
0.663354
0.663312
0.66327
0.663227
0.663184
0.663141
0.663098
0.663054
0.66301
0.662966
0.662921
0.662877
0.662831
0.662786
0.66274
0.662694
0.662647
0.6626
0.662553
0.662505
0.662458
0.662409
0.662361
0.662312
0.662263
0.662213
0.662163
0.662113
0.662062
0.662011
0.66196
0.661908
0.661856
0.661803
0.661751
0.661697
0.661644
0.66159
0.661536
0.661481
0.661426
0.66137
0.661315
0.661258
0.661202
0.661145
0.661088
0.66103
0.660972
0.660913
0.660855
0.660795
0.660736
0.660676
0.660615
0.660554
0.660493
0.660432
0.66037
0.660307
0.660245
0.660182
0.660118
0.660054
0.65999
0.659925
0.65986
0.659795
0.659729
0.659663
0.659596
0.659529
0.659462
0.659394
0.659326
0.659257
0.659188
0.659119
0.659049
0.658979
0.658909
0.658838
0.658767
0.658696
0.658624
0.658551
0.658479
0.658406
0.658333
0.658259
0.658185
0.658111
0.658036
0.657961
0.657885
0.65781
0.657734
0.657657
0.657581
0.657504
0.657426
0.657349
0.657271
0.657192
0.657114
0.657035
0.656955
0.656876
0.656796
0.656716
0.656636
0.656555
0.656474
0.656393
0.656311
0.656229
0.656147
0.656065
0.655982
0.6559
0.655817
0.655733
0.65565
0.655566
0.655482
0.655398
0.655313
0.655228
0.655144
0.655058
0.654973
0.654888
0.654802
0.654716
0.65463
0.654543
0.654457
0.65437
0.654283
0.654196
0.654109
0.654022
0.653934
0.653847
0.653759
0.653671
0.653583
0.653495
0.653406
0.653318
0.653229
0.65314
0.653051
0.652962
0.652873
0.652784
0.652694
0.652605
0.652515
0.652425
0.652336
0.652246
0.652156
0.652066
0.651975
0.651885
0.651795
0.651704
0.651614
0.651523
0.651433
0.651342
0.651251
0.65116
0.65107
0.650979
0.650888
0.650797
0.650705
0.650614
0.650523
0.650432
0.65034
0.650249
0.650158
0.650066
0.649975
0.649883
0.649792
0.6497
0.649609
0.649517
0.649425
0.649334
0.649242
0.64915
0.649058
0.648967
0.648875
0.648783
0.648691
0.648599
0.648507
0.648415
0.648324
0.648232
0.64814
0.648048
0.647956
0.647864
0.647772
0.64768
0.647588
0.647496
0.647404
0.647312
0.64722
0.647128
0.647036
0.646944
0.646852
0.64676
0.646668
0.646576
0.646484
0.646392
0.6463
0.646208
0.646116
0.646024
0.645932
0.64584
0.645748
0.645656
0.645564
0.645472
0.64538
0.645288
0.645196
0.645104
0.645012
0.64492
0.644828
0.644737
0.644645
0.644553
0.644461
0.644369
0.644277
0.644185
0.644093
0.644001
0.64391
0.643818
0.643726
0.643634
0.643542
0.64345
0.643359
0.643267
0.643175
0.643083
0.642991
0.6429
0.642808
0.642716
0.642624
0.642533
0.642441
0.642349
0.642258
0.642166
0.642074
0.641983
0.641891
0.641799
0.641708
0.641616
0.641524
0.641433
0.641341
0.64125
0.641158
0.641067
0.640975
0.640883
0.640792
0.6407
0.640609
0.640517
0.640426
0.640334
0.640243
0.640151
0.64006
0.639969
0.639877
0.639786
0.639694
0.639603
0.639511
0.63942
0.639329
0.639237
0.639146
0.639055
0.638963
0.638872
0.638781
0.638689
0.638598
0.638507
0.638416
0.638324
0.638233
0.638142
0.638051
0.637959
0.637868
0.637777
0.637686
0.637595
0.637504
0.637412
0.637321
0.63723
0.637139
0.637048
0.636957
0.636866
0.636775
0.636684
0.636592
0.636501
0.63641
0.636319
0.636228
0.636137
0.636046
0.635955
0.635864
0.635773
0.635682
0.635592
0.635501
0.63541
0.635319
0.635228
0.635137
0.635046
0.634955
0.634864
0.634773
0.634683
0.634592
0.634501
0.63441
0.634319
0.634229
0.634138
0.634047
0.633956
0.633866
0.633775
0.633684
0.633593
0.633503
0.633412
0.633321
0.633231
0.63314
0.633049
0.632959
0.632868
0.632777
0.632687
0.632596
0.632506
0.632415
0.632324
0.632234
0.632143
0.632053
0.631962
0.631872
0.631781
0.631691
0.6316
0.63151
0.631419
0.631329
0.631238
0.631148
0.631058
0.630967
0.630877
0.630786
0.630696
0.630606
0.630515
0.630425
0.630335
0.630244
0.630154
0.630064
0.629973
0.629883
0.629793
0.629702
0.629612
0.629522
0.629432
0.629341
0.629251
0.629161
0.629071
0.628981
0.628891
0.6288
0.62871
0.62862
0.62853
0.62844
0.62835
0.62826
0.628169
0.628079
0.627989
0.627899
0.627809
0.627719
0.627629
0.627539
0.627449
0.627359
0.627269
0.627179
0.627089
0.626999
0.626909
0.626819
0.626729
0.62664
0.62655
0.62646
0.62637
0.62628
0.62619
0.6261
0.62601
0.625921
0.625831
0.625741
0.625651
0.625561
0.625472
0.625382
0.625292
0.625202
0.625113
0.625023
0.624933
0.624843
0.624754
0.624664
0.624574
0.624485
0.624395
0.624305
0.624216
0.624126
0.624036
0.623947
0.623857
0.623768
0.623678
0.623588
0.623499
0.623409
0.62332
0.62323
0.623141
0.623051
0.622962
0.622872
0.622783
0.622693
0.622604
0.622514
0.622425
0.622335
0.622247
0.622156
0.622068
0.621977
0.621889
0.621798
0.621711
0.62162
0.621533
0.621441
0.621354
0.621262
0.621176
0.621083
0.620998
0.620904
0.62082
0.620725
0.620642
0.620546
0.620464
0.620367
0.620286
0.620188
0.620108
0.62001
0.61993
0.619831
0.619752
0.619653
0.619574
0.619474
0.619396
0.619296
0.619218
0.619118
0.61904
0.61894
0.618861
0.618762
0.618683
0.618585
0.618505
0.618407
0.618326
0.61823
0.618148
0.618052
0.617969
0.617875
0.617791
0.617698
0.617613
0.617521
0.617435
0.617343
0.617257
0.617166
0.617079
0.616989
0.616901
0.616811
0.616723
0.616634
0.616545
0.616457
0.616368
0.616279
0.61619
0.616102
0.616013
0.615924
0.615836
0.615747
0.615658
0.61557
0.615481
0.615392
0.615304
0.615215
0.615127
0.615038
0.61495
0.614861
0.614772
0.614684
0.614595
0.614507
0.614418
0.61433
0.614241
0.614153
0.614064
0.613976
0.613887
0.613799
0.613711
0.613622
0.613534
0.613445
0.613357
0.613269
0.61318
0.613092
0.613004
0.612915
0.612827
0.612739
0.61265
0.612562
0.612474
0.612385
0.612297
0.612209
0.612121
0.612032
0.611944
0.611856
0.611768
0.61168
0.611591
0.611503
0.611415
0.611327
0.611239
0.611151
0.611063
0.610974
0.610886
0.610798
0.61071
0.610622
0.610534
0.610446
0.610358
0.61027
0.610182
0.610094
0.610006
0.609918
0.60983
0.609742
0.609654
0.609566
0.609478
0.60939
0.609302
0.609214
0.609126
0.609039
0.608951
0.608863
0.608775
0.608687
0.608599
0.608511
0.608424
0.608336
0.608248
0.60816
0.608073
0.607985
0.607897
0.607809
0.607722
0.607634
0.607546
0.607458
0.607371
0.607283
0.607195
0.607108
0.60702
0.606932
0.606845
0.606757
0.60667
0.606582
0.606494
0.606407
0.606319
0.606232
0.606144
0.606057
0.605969
0.605881
0.605794
0.605706
0.605619
0.605531
0.605444
0.605357
0.605269
0.605182
0.605094
0.605007
0.604919
0.604832
0.604745
0.604657
0.60457
0.604483
0.604395
0.604308
0.60422
0.604133
0.604046
0.603959
0.603871
0.603784
0.603697
0.603609
0.603522
0.603435
0.603348
0.603261
0.603173
0.603086
0.602999
0.602912
0.602825
0.602737
0.60265
0.602563
0.602476
0.602389
0.602302
0.602215
0.602128
0.602041
0.601954
0.601866
0.601779
0.601692
0.601605
0.601518
0.601431
0.601344
0.601257
0.60117
0.601083
0.600996
0.60091
0.600823
0.600736
0.600649
0.600562
0.600475
0.600388
0.600301
0.600214
0.600127
0.600041
0.599954
0.599867
0.59978
0.599693
0.599607
0.59952
0.599433
0.599346
0.59926
0.599173
0.599086
0.598999
0.598913
0.598826
0.598739
0.598653
0.598566
0.598479
0.598393
0.598306
0.598219
0.598133
0.598046
0.597959
0.597873
0.597786
0.5977
0.597613
0.597527
0.59744
0.597354
0.597267
0.59718
0.597094
0.597007
0.596921
0.596835
0.596748
0.596662
0.596575
0.596489
0.596402
0.596316
0.59623
0.596143
0.596057
0.59597
0.595884
0.595798
0.595711
0.595625
0.595539
0.595452
0.595366
0.59528
0.595193
0.595107
0.595021
0.594935
0.594848
0.594762
0.594676
0.59459
0.594504
0.594417
0.594331
0.594245
0.594159
0.594073
0.593987
0.593901
0.593814
0.593728
0.593642
0.593556
0.59347
0.593384
0.593298
0.593212
0.593126
0.59304
0.592954
0.592868
0.592782
0.592696
0.59261
0.592524
0.592438
0.592352
0.592266
0.59218
0.592094
0.592008
0.591922
0.591836
0.591751
0.591665
0.591579
0.591493
0.591407
0.591321
0.591235
0.59115
0.591064
0.590978
0.590892
0.590807
0.590721
0.590635
0.590549
0.590464
0.590378
0.590292
0.590206
0.590121
0.590035
0.589949
0.589864
0.589778
0.589692
0.589607
0.589521
0.589436
0.58935
0.589264
0.589179
0.589093
0.589008
0.588922
0.588837
0.588751
0.588666
0.58858
0.588495
0.588409
0.588324
0.588238
0.588153
0.588067
0.587982
0.587896
0.587811
0.587726
0.58764
0.587555
0.587469
0.587384
0.587299
0.587213
0.587128
0.587043
0.586957
0.586872
0.586787
0.586701
0.586616
0.586531
0.586446
0.58636
0.586275
0.58619
0.586105
0.586019
0.585934
0.585849
0.585764
0.585679
0.585594
0.585508
0.585423
0.585338
0.585253
0.585168
0.585083
0.584998
0.584913
0.584828
0.584742
0.584657
0.584572
0.584487
0.584402
0.584317
0.584232
0.584147
0.584062
0.583977
0.583892
0.583807
0.583723
0.583638
0.583553
0.583468
0.583383
0.583298
0.583213
0.583128
0.583043
0.582958
0.582874
0.582789
0.582704
0.582619
0.582534
0.58245
0.582365
0.58228
0.582195
0.582111
0.582026
0.581941
0.581856
0.581772
0.581687
0.581602
0.581518
0.581433
0.581348
0.581264
0.581179
0.581094
0.58101
0.580925
0.58084
0.580756
0.580671
0.580587
0.580502
0.580418
0.580333
0.580248
0.580164
0.580079
0.579995
0.57991
0.579826
0.579741
0.579657
0.579573
0.579488
0.579404
0.579319
0.579235
0.57915
0.579066
0.578982
0.578897
0.578813
0.578729
0.578644
0.57856
0.578476
0.578391
0.578307
0.578223
0.578138
0.578054
0.57797
0.577885
0.577801
0.577717
0.577633
0.577549
0.577464
0.57738
0.577296
0.577212
0.577128
0.577043
0.576959
0.576875
0.576791
0.576707
0.576623
0.576539
0.576455
0.576371
0.576286
0.576202
0.576118
0.576034
0.57595
0.575866
0.575782
0.575698
0.575614
0.57553
0.575446
0.575362
0.575278
0.575194
0.575111
0.575027
0.574943
0.574859
0.574775
0.574691
0.574607
0.574523
0.574439
0.574356
0.574272
0.574188
0.574104
0.57402
0.573936
0.573853
0.573769
0.573685
0.573601
0.573518
0.573434
0.57335
0.573266
0.573183
0.573099
0.573015
0.572932
0.572848
0.572764
0.572681
0.572597
0.572513
0.57243
0.572346
0.572263
0.572179
0.572095
0.572012
0.571928
0.571845
0.571761
0.571678
0.571594
0.571511
0.571427
0.571344
0.57126
0.571177
0.571093
0.57101
0.570926
0.570843
0.57076
0.570676
0.570593
0.570509
0.570426
0.570343
0.570259
0.570176
0.570093
0.570009
0.569926
0.569843
0.569759
0.569676
0.569593
0.569509
0.569426
0.569343
0.56926
0.569176
0.569093
0.56901
0.568927
0.568844
0.56876
0.568677
0.568594
0.568511
0.568428
0.568345
0.568261
0.568178
0.568095
0.568012
0.567929
0.567846
0.567763
0.56768
0.567597
0.567514
0.567431
0.567348
0.567265
0.567182
0.567099
0.567016
0.566933
0.56685
0.566767
0.566684
0.566601
0.566518
0.566435
0.566352
0.566269
0.566186
0.566104
0.566021
0.565938
0.565855
0.565772
0.565689
0.565607
0.565524
0.565441
0.565358
0.565275
0.565193
0.56511
0.565027
0.564944
0.564862
0.564779
0.564696
0.564614
0.564531
0.564448
0.564366
0.564283
0.5642
0.564118
0.564035
0.563952
0.56387
0.563787
0.563705
0.563622
0.563539
0.563457
0.563374
0.563292
0.563209
0.563127
0.563044
0.562962
0.562879
0.562797
0.562714
0.562632
0.562549
0.562467
0.562384
0.562302
0.56222
0.562137
0.562055
0.561972
0.56189
0.561808
0.561725
0.561643
0.561561
0.561478
0.561396
0.561314
0.561231
0.561149
0.561067
0.560985
0.560902
0.56082
0.560738
0.560656
0.560573
0.560491
0.560409
0.560327
0.560245
0.560162
0.56008
0.559998
0.559916
0.559834
0.559752
0.55967
0.559587
0.559505
0.559423
0.559341
0.559259
0.559177
0.559095
0.559013
0.558931
0.558849
0.558767
0.558685
0.558603
0.558521
0.558439
0.558357
0.558275
0.558193
0.558111
0.558029
0.557947
0.557865
0.557784
0.557702
0.55762
0.557538
0.557456
0.557374
0.557292
0.557211
0.557129
0.557047
0.556965
0.556883
0.556802
0.55672
0.556638
0.556556
0.556475
0.556393
0.556311
0.55623
0.556148
0.556066
0.555984
0.555903
0.555821
0.555739
0.555658
0.555576
0.555495
0.555413
0.555331
0.55525
0.555168
0.555087
0.555005
0.554924
0.554842
0.55476
0.554679
0.554597
0.554516
0.554434
0.554353
0.554271
0.55419
0.554109
0.554027
0.553946
0.553864
0.553783
0.553701
0.55362
0.553539
0.553457
0.553376
0.553295
0.553213
0.553132
0.55305
0.552969
0.552888
0.552807
0.552725
0.552644
0.552563
0.552481
0.5524
0.552319
0.552238
0.552157
0.552075
0.551994
0.551913
0.551832
0.551751
0.551669
0.551588
0.551507
0.551426
0.551345
0.551264
0.551183
0.551101
0.55102
0.550939
0.550858
0.550777
0.550696
0.550615
0.550534
0.550453
0.550372
0.550291
0.55021
0.550129
0.550048
0.549967
0.549886
0.549805
0.549724
0.549643
0.549562
0.549482
0.549401
0.54932
0.549239
0.549158
0.549077
0.548996
0.548915
0.548835
0.548754
0.548673
0.548592
0.548511
0.548431
0.54835
0.548269
0.548188
0.548108
0.548027
0.547946
0.547865
0.547785
0.547704
0.547623
0.547543
0.547462
0.547381
0.547301
0.54722
0.547139
0.547059
0.546978
0.546898
0.546817
0.546736
0.546656
0.546575
0.546495
0.546414
0.546334
0.546253
0.546173
0.546092
0.546012
0.545931
0.545851
0.54577
0.54569
0.545609
0.545529
0.545449
0.545368
0.545288
0.545207
0.545127
0.545047
0.544966
0.544886
0.544805
0.544725
0.544645
0.544564
0.544484
0.544404
0.544324
0.544243
0.544163
0.544083
0.544002
0.543922
0.543842
0.543762
0.543682
0.543601
0.543521
0.543441
0.543361
0.543281
0.5432
0.54312
0.54304
0.54296
0.54288
0.5428
0.54272
0.54264
0.54256
0.54248
0.542399
0.542319
0.542239
0.542159
0.542079
0.541999
0.541919
0.541839
0.541759
0.541679
0.541599
0.541519
0.541439
0.54136
0.54128
0.5412
0.54112
0.54104
0.54096
0.54088
0.5408
0.54072
0.540641
0.540561
0.540481
0.540401
0.540321
0.540241
0.540162
0.540082
0.540002
0.539922
0.539843
0.539763
0.539683
0.539603
0.539524
0.539444
0.539364
0.539284
0.539205
0.539125
0.539045
0.538966
0.538886
0.538807
0.538727
0.538647
0.538568
0.538488
0.538409
0.538329
0.538249
0.53817
0.53809
0.538011
0.537931
0.537852
0.537772
0.537693
0.537613
0.537534
0.537454
0.537375
0.537295
0.537216
0.537136
0.537057
0.536978
0.536898
0.536819
0.536739
0.53666
0.536581
0.536501
0.536422
0.536343
0.536263
0.536184
0.536105
0.536025
0.535946
0.535867
0.535788
0.535708
0.535629
0.53555
0.535471
0.535391
0.535312
0.535233
0.535154
0.535075
0.534995
0.534916
0.534837
0.534758
0.534679
0.5346
0.534521
0.534441
0.534362
0.534283
0.534204
0.534125
0.534046
0.533967
0.533888
0.533809
0.53373
0.533651
0.533572
0.533493
0.533414
0.533335
0.533256
0.533177
0.533098
0.533019
0.53294
0.532861
0.532782
0.532703
0.532625
0.532546
0.532467
0.532388
0.532309
0.53223
0.532151
0.532073
0.531994
0.531915
0.531836
0.531757
0.531679
0.5316
0.531521
0.531442
0.531364
0.531285
0.531206
0.531127
0.531049
0.53097
0.530891
0.530813
0.530734
0.530655
0.530577
0.530498
0.53042
0.530341
0.530262
0.530184
0.530105
0.530027
0.529948
0.529869
0.529791
0.529712
0.529634
0.529555
0.529477
0.529398
0.52932
0.529241
0.529163
0.529084
0.529006
0.528927
0.528849
0.528771
0.528692
0.528614
0.528535
0.528457
0.528379
0.5283
0.528222
0.528143
0.528065
0.527987
0.527909
0.52783
0.527752
0.527674
0.527595
0.527517
0.527439
0.527361
0.527282
0.527204
0.527126
0.527048
0.526969
0.526891
0.526813
0.526735
0.526657
0.526578
0.5265
0.526422
0.526344
0.526266
0.526188
0.52611
0.526032
0.525954
0.525875
0.525797
0.525719
0.525641
0.525563
0.525485
0.525407
0.525329
0.525251
0.525173
0.525095
0.525017
0.524939
0.524861
0.524783
0.524705
0.524627
0.52455
0.524472
0.524394
0.524316
0.524238
0.52416
0.524082
0.524004
0.523927
0.523849
0.523771
0.523693
0.523615
0.523538
0.52346
0.523382
0.523304
0.523226
0.523149
0.523071
0.522993
0.522916
0.522838
0.52276
0.522682
0.522605
0.522527
0.522449
0.522372
0.522294
0.522216
0.522139
0.522061
0.521984
0.521906
0.521828
0.521751
0.521673
0.521596
0.521518
0.521441
0.521363
0.521286
0.521208
0.521131
0.521053
0.520976
0.520898
0.520821
0.520743
0.520666
0.520588
0.520511
0.520433
0.520356
0.520279
0.520201