/*--------------------------------*- C++ -*----------------------------------*\
  =========                 |
  \\      /  F ield         | OpenFOAM: The Open Source CFD Toolbox
   \\    /   O peration     | Website:  https://openfoam.org
    \\  /    A nd           | Version:  9
     \\/     M anipulation  |
\*---------------------------------------------------------------------------*/
FoamFile
{
    format      ascii;
    class       volScalarField;
    location    "0.017";
    object      T;
}
// * * * * * * * * * * * * * * * * * * * * * * * * * * * * * * * * * * * * * //

dimensions      [0 0 0 1 0 0 0];

internalField   nonuniform List<scalar> 
10000
(
298.553
298.561
298.572
298.579
298.582
298.582
298.583
298.582
298.582
298.582
298.581
298.581
298.581
298.58
298.58
298.579
298.579
298.579
298.578
298.578
298.578
298.577
298.577
298.576
298.576
298.576
298.575
298.575
298.575
298.574
298.574
298.573
298.573
298.573
298.572
298.572
298.571
298.571
298.571
298.57
298.57
298.569
298.569
298.569
298.568
298.568
298.567
298.567
298.567
298.566
298.566
298.565
298.565
298.564
298.564
298.564
298.563
298.563
298.562
298.562
298.561
298.561
298.561
298.56
298.56
298.559
298.559
298.558
298.558
298.558
298.557
298.557
298.556
298.556
298.555
298.555
298.554
298.554
298.554
298.553
298.553
298.552
298.552
298.551
298.551
298.55
298.55
298.549
298.549
298.549
298.548
298.548
298.547
298.547
298.546
298.546
298.545
298.545
298.544
298.544
298.543
298.543
298.542
298.542
298.541
298.541
298.54
298.54
298.539
298.539
298.538
298.538
298.538
298.537
298.537
298.536
298.536
298.535
298.535
298.534
298.534
298.533
298.533
298.532
298.532
298.531
298.53
298.53
298.529
298.529
298.528
298.528
298.527
298.527
298.526
298.526
298.525
298.525
298.524
298.524
298.523
298.523
298.522
298.522
298.521
298.521
298.52
298.519
298.519
298.518
298.518
298.517
298.517
298.516
298.516
298.515
298.515
298.514
298.514
298.513
298.512
298.512
298.511
298.511
298.51
298.51
298.509
298.508
298.508
298.507
298.507
298.506
298.506
298.505
298.505
298.504
298.503
298.503
298.502
298.502
298.501
298.501
298.5
298.499
298.499
298.498
298.498
298.497
298.496
298.496
298.495
298.495
298.494
298.493
298.493
298.492
298.492
298.491
298.49
298.49
298.489
298.489
298.488
298.487
298.487
298.486
298.486
298.485
298.484
298.484
298.483
298.483
298.482
298.481
298.481
298.48
298.479
298.479
298.478
298.478
298.477
298.476
298.476
298.475
298.474
298.474
298.473
298.472
298.472
298.471
298.471
298.47
298.469
298.469
298.468
298.467
298.467
298.466
298.465
298.465
298.464
298.463
298.463
298.462
298.461
298.461
298.46
298.459
298.459
298.458
298.457
298.457
298.456
298.455
298.455
298.454
298.453
298.453
298.452
298.451
298.451
298.45
298.449
298.449
298.448
298.447
298.447
298.446
298.445
298.445
298.444
298.443
298.443
298.442
298.441
298.44
298.44
298.439
298.438
298.438
298.437
298.436
298.435
298.435
298.434
298.433
298.433
298.432
298.431
298.431
298.43
298.429
298.428
298.428
298.427
298.426
298.425
298.425
298.424
298.423
298.423
298.422
298.421
298.42
298.42
298.419
298.418
298.417
298.417
298.416
298.415
298.414
298.414
298.413
298.412
298.411
298.411
298.41
298.409
298.408
298.408
298.407
298.406
298.405
298.405
298.404
298.403
298.402
298.402
298.401
298.4
298.399
298.399
298.398
298.397
298.396
298.395
298.395
298.394
298.393
298.392
298.392
298.391
298.39
298.389
298.388
298.388
298.387
298.386
298.385
298.384
298.384
298.383
298.382
298.381
298.38
298.38
298.379
298.378
298.377
298.376
298.376
298.375
298.374
298.373
298.372
298.372
298.371
298.37
298.369
298.368
298.367
298.367
298.366
298.365
298.364
298.363
298.362
298.362
298.361
298.36
298.359
298.358
298.357
298.357
298.356
298.355
298.354
298.353
298.352
298.352
298.351
298.35
298.349
298.348
298.347
298.346
298.346
298.345
298.344
298.343
298.342
298.341
298.34
298.34
298.339
298.338
298.337
298.336
298.335
298.334
298.333
298.333
298.332
298.331
298.33
298.329
298.328
298.327
298.326
298.326
298.325
298.324
298.323
298.322
298.321
298.32
298.319
298.318
298.318
298.317
298.316
298.315
298.314
298.313
298.312
298.311
298.31
298.309
298.308
298.308
298.307
298.306
298.305
298.304
298.303
298.302
298.301
298.3
298.299
298.298
298.297
298.297
298.296
298.295
298.294
298.293
298.292
298.291
298.29
298.289
298.288
298.287
298.286
298.285
298.284
298.283
298.282
298.282
298.281
298.28
298.279
298.278
298.277
298.276
298.275
298.274
298.273
298.272
298.271
298.27
298.269
298.268
298.267
298.266
298.265
298.264
298.263
298.262
298.261
298.26
298.259
298.258
298.257
298.256
298.255
298.254
298.253
298.252
298.251
298.25
298.249
298.248
298.247
298.247
298.246
298.245
298.244
298.243
298.242
298.24
298.239
298.238
298.237
298.236
298.235
298.234
298.233
298.232
298.231
298.23
298.229
298.228
298.227
298.226
298.225
298.224
298.223
298.222
298.221
298.22
298.219
298.218
298.217
298.216
298.215
298.214
298.213
298.212
298.211
298.21
298.209
298.208
298.207
298.206
298.205
298.203
298.202
298.201
298.2
298.199
298.198
298.197
298.196
298.195
298.194
298.193
298.192
298.191
298.19
298.189
298.188
298.186
298.185
298.184
298.183
298.182
298.181
298.18
298.179
298.178
298.177
298.176
298.175
298.173
298.172
298.171
298.17
298.169
298.168
298.167
298.166
298.165
298.164
298.162
298.161
298.16
298.159
298.158
298.157
298.156
298.155
298.154
298.152
298.151
298.15
298.149
298.148
298.147
298.146
298.145
298.144
298.142
298.141
298.14
298.139
298.138
298.137
298.136
298.134
298.133
298.132
298.131
298.13
298.129
298.128
298.126
298.125
298.124
298.123
298.122
298.121
298.12
298.118
298.117
298.116
298.115
298.114
298.113
298.111
298.11
298.109
298.108
298.107
298.106
298.104
298.103
298.102
298.101
298.1
298.099
298.097
298.096
298.095
298.094
298.093
298.091
298.09
298.089
298.088
298.087
298.085
298.084
298.083
298.082
298.081
298.079
298.078
298.077
298.076
298.075
298.073
298.072
298.071
298.07
298.069
298.067
298.066
298.065
298.064
298.062
298.061
298.06
298.059
298.058
298.056
298.055
298.054
298.053
298.051
298.05
298.049
298.048
298.046
298.045
298.044
298.043
298.041
298.04
298.039
298.038
298.036
298.035
298.034
298.033
298.031
298.03
298.029
298.028
298.026
298.025
298.024
298.023
298.021
298.02
298.019
298.018
298.016
298.015
298.014
298.012
298.011
298.01
298.009
298.007
298.006
298.005
298.003
298.002
298.001
298
297.998
297.997
297.996
297.994
297.993
297.992
297.99
297.989
297.988
297.987
297.985
297.984
297.983
297.981
297.98
297.979
297.977
297.976
297.975
297.973
297.972
297.971
297.969
297.968
297.967
297.965
297.964
297.963
297.961
297.96
297.959
297.957
297.956
297.955
297.953
297.952
297.951
297.949
297.948
297.947
297.945
297.944
297.943
297.941
297.94
297.939
297.937
297.936
297.934
297.933
297.932
297.93
297.929
297.928
297.926
297.925
297.924
297.922
297.921
297.919
297.918
297.917
297.915
297.914
297.912
297.911
297.91
297.908
297.907
297.906
297.904
297.903
297.901
297.9
297.899
297.897
297.896
297.894
297.893
297.892
297.89
297.889
297.887
297.886
297.884
297.883
297.882
297.88
297.879
297.877
297.876
297.875
297.873
297.872
297.87
297.869
297.867
297.866
297.864
297.863
297.862
297.86
297.859
297.857
297.856
297.854
297.853
297.851
297.85
297.849
297.847
297.846
297.844
297.843
297.841
297.84
297.838
297.837
297.835
297.834
297.832
297.831
297.83
297.828
297.827
297.825
297.824
297.822
297.821
297.819
297.818
297.816
297.815
297.813
297.812
297.81
297.809
297.807
297.806
297.804
297.803
297.801
297.8
297.798
297.797
297.795
297.794
297.792
297.791
297.789
297.788
297.786
297.785
297.783
297.782
297.78
297.779
297.777
297.776
297.774
297.772
297.771
297.769
297.768
297.766
297.765
297.763
297.762
297.76
297.759
297.757
297.756
297.754
297.752
297.751
297.749
297.748
297.746
297.745
297.743
297.741
297.74
297.738
297.737
297.735
297.734
297.732
297.731
297.729
297.727
297.726
297.724
297.723
297.721
297.719
297.718
297.716
297.715
297.713
297.711
297.71
297.708
297.707
297.705
297.704
297.702
297.7
297.699
297.697
297.695
297.694
297.692
297.691
297.689
297.687
297.686
297.684
297.683
297.681
297.679
297.678
297.676
297.674
297.673
297.671
297.669
297.668
297.666
297.665
297.663
297.661
297.66
297.658
297.656
297.655
297.653
297.651
297.65
297.648
297.646
297.645
297.643
297.641
297.64
297.638
297.636
297.635
297.633
297.631
297.63
297.628
297.626
297.625
297.623
297.621
297.62
297.618
297.616
297.615
297.613
297.611
297.609
297.608
297.606
297.604
297.603
297.601
297.599
297.598
297.596
297.594
297.592
297.591
297.589
297.587
297.586
297.584
297.582
297.58
297.579
297.577
297.575
297.573
297.572
297.57
297.568
297.567
297.565
297.563
297.561
297.56
297.558
297.556
297.554
297.553
297.551
297.549
297.547
297.545
297.544
297.542
297.54
297.538
297.537
297.535
297.533
297.531
297.53
297.528
297.526
297.524
297.522
297.521
297.519
297.517
297.515
297.513
297.512
297.51
297.508
297.506
297.504
297.503
297.501
297.499
297.497
297.495
297.494
297.492
297.49
297.488
297.486
297.484
297.483
297.481
297.479
297.477
297.475
297.473
297.472
297.47
297.468
297.466
297.464
297.462
297.461
297.459
297.457
297.455
297.453
297.451
297.449
297.448
297.446
297.444
297.442
297.44
297.438
297.436
297.434
297.433
297.431
297.429
297.427
297.425
297.423
297.421
297.419
297.417
297.416
297.414
297.412
297.41
297.408
297.406
297.404
297.402
297.4
297.398
297.396
297.395
297.393
297.391
297.389
297.387
297.385
297.383
297.381
297.379
297.377
297.375
297.373
297.371
297.369
297.367
297.365
297.364
297.362
297.36
297.358
297.356
297.354
297.352
297.35
297.348
297.346
297.344
297.342
297.34
297.338
297.336
297.334
297.332
297.33
297.328
297.326
297.324
297.322
297.32
297.318
297.316
297.314
297.312
297.31
297.308
297.306
297.304
297.302
297.3
297.298
297.296
297.294
297.292
297.29
297.288
297.286
297.284
297.281
297.279
297.277
297.275
297.273
297.271
297.269
297.267
297.265
297.263
297.261
297.259
297.257
297.255
297.253
297.25
297.248
297.246
297.244
297.242
297.24
297.238
297.236
297.234
297.232
297.229
297.227
297.225
297.223
297.221
297.219
297.217
297.215
297.212
297.21
297.208
297.206
297.204
297.202
297.2
297.197
297.195
297.193
297.191
297.189
297.187
297.185
297.182
297.18
297.178
297.176
297.174
297.171
297.169
297.167
297.165
297.163
297.16
297.158
297.156
297.154
297.152
297.149
297.147
297.145
297.143
297.141
297.138
297.136
297.134
297.132
297.129
297.127
297.125
297.123
297.12
297.118
297.116
297.114
297.111
297.109
297.107
297.105
297.102
297.1
297.098
297.095
297.093
297.091
297.089
297.086
297.084
297.082
297.079
297.077
297.075
297.072
297.07
297.068
297.065
297.063
297.061
297.058
297.056
297.054
297.051
297.049
297.047
297.044
297.042
297.04
297.037
297.035
297.032
297.03
297.028
297.025
297.023
297.02
297.018
297.016
297.013
297.011
297.008
297.006
297.004
297.001
296.999
296.996
296.994
296.991
296.989
296.987
296.984
296.982
296.979
296.977
296.974
296.972
296.969
296.967
296.964
296.962
296.959
296.957
296.954
296.952
296.949
296.947
296.944
296.942
296.939
296.937
296.934
296.932
296.929
296.926
296.924
296.921
296.919
296.916
296.914
296.911
296.908
296.906
296.903
296.901
296.898
296.895
296.893
296.89
296.887
296.885
296.882
296.88
296.877
296.874
296.872
296.869
296.866
296.864
296.861
296.858
296.856
296.853
296.85
296.847
296.845
296.842
296.839
296.837
296.834
296.831
296.828
296.826
296.823
296.82
296.817
296.815
296.812
296.809
296.806
296.803
296.801
296.798
296.795
296.792
296.789
296.786
296.784
296.781
296.778
296.775
296.772
296.769
296.766
296.764
296.761
296.758
296.755
296.752
296.749
296.746
296.743
296.74
296.737
296.734
296.731
296.728
296.725
296.722
296.719
296.716
296.713
296.71
296.707
296.704
296.701
296.698
296.695
296.692
296.689
296.686
296.683
296.68
296.676
296.673
296.67
296.667
296.664
296.661
296.658
296.654
296.651
296.648
296.645
296.642
296.638
296.635
296.632
296.629
296.625
296.622
296.619
296.616
296.612
296.609
296.606
296.602
296.599
296.596
296.592
296.589
296.586
296.582
296.579
296.575
296.572
296.569
296.565
296.562
296.558
296.555
296.551
296.548
296.544
296.541
296.537
296.534
296.53
296.526
296.523
296.519
296.516
296.512
296.508
296.505
296.501
296.497
296.494
296.49
296.486
296.482
296.479
296.475
296.471
296.467
296.463
296.46
296.456
296.452
296.448
296.444
296.44
296.436
296.432
296.428
296.424
296.42
296.416
296.412
296.408
296.404
296.4
296.396
296.392
296.388
296.384
296.379
296.375
296.371
296.367
296.362
296.358
296.354
296.35
296.345
296.341
296.337
296.332
296.328
296.323
296.319
296.314
296.31
296.305
296.301
296.296
296.292
296.287
296.282
296.278
296.273
296.268
296.264
296.259
296.254
296.249
296.244
296.239
296.235
296.23
296.225
296.22
296.215
296.21
296.205
296.2
296.194
296.189
296.184
296.179
296.174
296.168
296.163
296.158
296.152
296.147
296.142
296.136
296.131
296.125
296.12
296.114
296.108
296.103
296.097
296.091
296.085
296.08
296.074
296.068
296.062
296.056
296.05
296.044
296.038
296.032
296.026
296.019
296.013
296.007
296.001
295.994
295.988
295.981
295.975
295.968
295.962
295.955
295.949
295.942
295.935
295.928
295.922
295.915
295.908
295.901
295.894
295.887
295.879
295.872
295.865
295.858
295.85
295.843
295.836
295.828
295.821
295.813
295.805
295.798
295.79
295.782
295.774
295.766
295.758
295.75
295.742
295.734
295.726
295.717
295.709
295.701
295.692
295.684
295.675
295.666
295.658
295.649
295.64
295.631
295.622
295.613
295.604
295.595
295.586
295.577
295.567
295.558
295.548
295.539
295.529
295.52
295.51
295.5
295.49
295.48
295.47
295.46
295.45
295.44
295.43
295.419
295.409
295.398
295.388
295.377
295.366
295.356
295.345
295.334
295.323
295.312
295.301
295.29
295.278
295.267
295.256
295.244
295.233
295.221
295.209
295.198
295.186
295.174
295.162
295.15
295.138
295.126
295.113
295.101
295.089
295.076
295.064
295.051
295.038
295.026
295.013
295
294.987
294.974
294.961
294.948
294.935
294.922
294.908
294.895
294.881
294.868
294.854
294.841
294.827
294.813
294.8
294.786
294.772
294.758
294.744
294.73
294.716
294.701
294.687
294.673
294.658
294.644
294.629
294.615
294.6
294.586
294.571
294.556
294.542
294.527
294.512
294.497
294.482
294.467
294.452
294.437
294.422
294.406
294.391
294.376
294.361
294.345
294.33
294.315
294.299
294.284
294.268
294.253
294.237
294.221
294.206
294.19
294.174
294.158
294.143
294.127
294.111
294.095
294.079
294.063
294.047
294.031
294.015
293.999
293.983
293.967
293.951
293.935
293.919
293.903
293.886
293.87
293.854
293.838
293.821
293.805
293.789
293.773
293.756
293.74
293.723
293.707
293.691
293.674
293.658
293.641
293.625
293.609
293.592
293.576
293.559
293.543
293.526
293.51
293.493
293.477
293.46
293.443
293.427
293.41
293.394
293.377
293.361
293.344
293.327
293.311
293.294
293.277
293.261
293.244
293.228
293.211
293.194
293.178
293.161
293.144
293.128
293.111
293.094
293.078
293.061
293.044
293.028
293.011
292.994
292.978
292.961
292.944
292.927
292.911
292.894
292.877
292.861
292.844
292.827
292.81
292.794
292.777
292.76
292.744
292.727
292.71
292.693
292.677
292.66
292.643
292.627
292.61
292.593
292.576
292.56
292.543
292.526
292.51
292.493
292.476
292.459
292.443
292.426
292.409
292.392
292.376
292.359
292.342
292.326
292.309
292.292
292.275
292.259
292.242
292.225
292.209
292.192
292.175
292.158
292.142
292.125
292.108
292.091
292.075
292.058
292.041
292.025
292.008
291.991
291.974
291.958
291.941
291.924
291.908
291.891
291.874
291.857
291.841
291.824
291.807
291.791
291.774
291.757
291.74
291.724
291.707
291.69
291.674
291.657
291.64
291.623
291.607
291.59
291.573
291.557
291.54
291.523
291.506
291.49
291.473
291.456
291.44
291.423
291.406
291.389
291.373
291.356
291.339
291.323
291.306
291.289
291.273
291.256
291.239
291.222
291.206
291.189
291.172
291.156
291.139
291.122
291.106
291.089
291.072
291.055
291.039
291.022
291.005
290.989
290.972
290.955
290.939
290.922
290.905
290.889
290.872
290.855
290.838
290.822
290.805
290.788
290.772
290.755
290.738
290.722
290.705
290.688
290.672
290.655
290.638
290.622
290.605
290.588
290.572
290.555
290.538
290.521
290.505
290.488
290.471
290.455
290.438
290.421
290.405
290.388
290.371
290.355
290.338
290.321
290.305
290.288
290.271
290.255
290.238
290.221
290.205
290.188
290.171
290.155
290.138
290.121
290.105
290.088
290.071
290.055
290.038
290.021
290.005
289.988
289.971
289.955
289.938
289.921
289.905
289.888
289.871
289.855
289.838
289.821
289.805
289.788
289.771
289.755
289.738
289.721
289.705
289.688
289.671
289.655
289.638
289.621
289.605
289.588
289.572
289.555
289.538
289.522
289.505
289.488
289.472
289.455
289.438
289.422
289.405
289.388
289.372
289.355
289.338
289.322
289.305
289.288
289.272
289.255
289.239
289.222
289.205
289.189
289.172
289.155
289.139
289.122
289.105
289.089
289.072
289.056
289.039
289.022
289.006
288.989
288.972
288.956
288.939
288.922
288.906
288.889
288.873
288.856
288.839
288.823
288.806
288.789
288.773
288.756
288.74
288.723
288.706
288.69
288.673
288.656
288.64
288.623
288.606
288.59
288.573
288.557
288.54
288.523
288.507
288.49
288.473
288.457
288.44
288.424
288.407
288.391
288.374
288.357
288.34
288.324
288.307
288.291
288.274
288.258
288.24
288.225
288.207
288.192
288.174
288.159
288.14
288.126
288.107
288.093
288.074
288.059
288.04
288.026
288.007
287.993
287.973
287.96
287.94
287.927
287.906
287.894
287.873
287.861
287.84
287.828
287.807
287.795
287.773
287.762
287.74
287.729
287.707
287.695
287.674
287.662
287.641
287.628
287.608
287.595
287.575
287.562
287.542
287.528
287.509
287.495
287.476
287.461
287.443
287.428
287.41
287.395
287.377
287.361
287.344
287.328
287.311
287.295
287.278
287.262
287.245
287.228
287.212
287.195
287.179
287.162
287.145
287.129
287.112
287.096
287.079
287.063
287.046
287.029
287.013
286.996
286.98
286.963
286.946
286.93
286.913
286.897
286.88
286.864
286.847
286.83
286.814
286.797
286.781
286.764
286.748
286.731
286.714
286.698
286.681
286.665
286.648
286.632
286.615
286.599
286.582
286.565
286.549
286.532
286.516
286.499
286.483
286.466
286.449
286.433
286.416
286.4
286.383
286.367
286.35
286.334
286.317
286.3
286.284
286.267
286.251
286.234
286.218
286.201
286.185
286.168
286.151
286.135
286.118
286.102
286.085
286.069
286.052
286.036
286.019
286.002
285.986
285.969
285.953
285.936
285.92
285.903
285.887
285.87
285.854
285.837
285.82
285.804
285.787
285.771
285.754
285.738
285.721
285.705
285.688
285.672
285.655
285.639
285.622
285.605
285.589
285.572
285.556
285.539
285.523
285.506
285.49
285.473
285.457
285.44
285.424
285.407
285.391
285.374
285.357
285.341
285.324
285.308
285.291
285.275
285.258
285.242
285.225
285.209
285.192
285.176
285.159
285.143
285.126
285.11
285.093
285.077
285.06
285.043
285.027
285.01
284.994
284.977
284.961
284.944
284.928
284.911
284.895
284.878
284.862
284.845
284.829
284.812
284.796
284.779
284.763
284.746
284.73
284.713
284.697
284.68
284.664
284.647
284.631
284.614
284.598
284.581
284.565
284.548
284.532
284.515
284.499
284.482
284.466
284.449
284.433
284.416
284.4
284.383
284.367
284.35
284.334
284.317
284.301
284.284
284.268
284.251
284.235
284.218
284.202
284.185
284.169
284.152
284.136
284.119
284.103
284.086
284.07
284.053
284.037
284.02
284.004
283.987
283.971
283.954
283.938
283.921
283.905
283.888
283.872
283.855
283.839
283.822
283.806
283.789
283.773
283.756
283.74
283.723
283.707
283.69
283.674
283.658
283.641
283.625
283.608
283.592
283.575
283.559
283.542
283.526
283.509
283.493
283.476
283.46
283.443
283.427
283.41
283.394
283.377
283.361
283.344
283.328
283.312
283.295
283.279
283.262
283.246
283.229
283.213
283.196
283.18
283.163
283.147
283.13
283.114
283.097
283.081
283.065
283.048
283.032
283.015
282.999
282.982
282.966
282.949
282.933
282.916
282.9
282.884
282.867
282.851
282.834
282.818
282.801
282.785
282.768
282.752
282.735
282.719
282.703
282.686
282.67
282.653
282.637
282.62
282.604
282.587
282.571
282.554
282.538
282.522
282.505
282.489
282.472
282.456
282.439
282.423
282.406
282.39
282.374
282.357
282.341
282.324
282.308
282.291
282.275
282.259
282.242
282.226
282.209
282.193
282.176
282.16
282.143
282.127
282.111
282.094
282.078
282.061
282.045
282.028
282.012
281.996
281.979
281.963
281.946
281.93
281.913
281.897
281.881
281.864
281.848
281.831
281.815
281.798
281.782
281.766
281.749
281.733
281.716
281.7
281.683
281.667
281.651
281.634
281.618
281.601
281.585
281.569
281.552
281.536
281.519
281.503
281.486
281.47
281.454
281.437
281.421
281.404
281.388
281.372
281.355
281.339
281.322
281.306
281.29
281.273
281.257
281.24
281.224
281.207
281.191
281.175
281.158
281.142
281.125
281.109
281.093
281.076
281.06
281.043
281.027
281.011
280.994
280.978
280.961
280.945
280.929
280.912
280.896
280.879
280.863
280.847
280.83
280.814
280.797
280.781
280.765
280.748
280.732
280.716
280.699
280.683
280.666
280.65
280.634
280.617
280.601
280.584
280.568
280.552
280.535
280.519
280.502
280.486
280.47
280.453
280.437
280.421
280.404
280.388
280.371
280.355
280.339
280.322
280.306
280.289
280.273
280.257
280.24
280.224
280.208
280.191
280.175
280.158
280.142
280.126
280.109
280.093
280.077
280.06
280.044
280.027
280.011
279.995
279.978
279.962
279.946
279.929
279.913
279.897
279.88
279.864
279.847
279.831
279.815
279.798
279.782
279.766
279.749
279.733
279.717
279.7
279.684
279.667
279.651
279.635
279.618
279.602
279.586
279.569
279.553
279.537
279.52
279.504
279.487
279.471
279.455
279.438
279.422
279.406
279.389
279.373
279.357
279.34
279.324
279.308
279.291
279.275
279.259
279.242
279.226
279.21
279.193
279.177
279.16
279.144
279.128
279.111
279.095
279.079
279.062
279.046
279.03
279.013
278.997
278.981
278.964
278.948
278.932
278.915
278.899
278.883
278.866
278.85
278.834
278.817
278.801
278.785
278.768
278.752
278.736
278.719
278.703
278.687
278.67
278.654
278.638
278.621
278.605
278.589
278.572
278.556
278.54
278.523
278.507
278.491
278.474
278.458
278.442
278.425
278.409
278.393
278.376
278.36
278.344
278.327
278.311
278.295
278.279
278.262
278.246
278.23
278.213
278.197
278.181
278.164
278.148
278.132
278.115
278.099
278.083
278.066
278.05
278.034
278.017
278.001
277.985
277.969
277.952
277.936
277.92
277.903
277.887
277.871
277.854
277.838
277.822
277.805
277.789
277.773
277.757
277.74
277.724
277.708
277.691
277.675
277.659
277.642
277.626
277.61
277.594
277.577
277.561
277.545
277.528
277.512
277.496
277.479
277.463
277.447
277.431
277.414
277.398
277.382
277.365
277.349
277.333
277.317
277.3
277.284
277.268
277.251
277.235
277.219
277.203
277.186
277.17
277.154
277.137
277.121
277.105
277.089
277.072
277.056
277.04
277.023
277.007
276.991
276.975
276.958
276.942
276.926
276.909
276.893
276.877
276.861
276.844
276.828
276.812
276.796
276.779
276.763
276.747
276.73
276.714
276.698
276.682
276.665
276.649
276.633
276.617
276.6
276.584
276.568
276.551
276.535
276.519
276.503
276.486
276.47
276.454
276.438
276.421
276.405
276.389
276.373
276.356
276.34
276.324
276.308
276.291
276.275
276.259
276.242
276.226
276.21
276.194
276.177
276.161
276.145
276.129
276.112
276.096
276.08
276.064
276.047
276.031
276.015
275.999
275.982
275.966
275.95
275.934
275.917
275.901
275.885
275.869
275.852
275.836
275.82
275.804
275.787
275.771
275.755
275.739
275.722
275.706
275.69
275.674
275.658
275.641
275.625
275.609
275.593
275.576
275.56
275.544
275.528
275.511
275.495
275.479
275.463
275.446
275.43
275.414
275.398
275.382
275.365
275.349
275.333
275.317
275.3
275.284
275.268
275.252
275.235
275.219
275.203
275.187
275.171
275.154
275.138
275.122
275.106
275.089
275.073
275.057
275.041
275.025
275.008
274.992
274.976
274.96
274.943
274.927
274.911
274.895
274.879
274.862
274.846
274.83
274.814
274.798
274.781
274.765
274.749
274.733
274.716
274.7
274.684
274.668
274.652
274.635
274.619
274.603
274.587
274.571
274.554
274.538
274.522
274.506
274.49
274.473
274.457
274.441
274.425
274.409
274.392
274.376
274.36
274.344
274.328
274.311
274.295
274.279
274.263
274.247
274.23
274.214
274.198
274.182
274.166
274.149
274.133
274.117
274.101
274.085
274.068
274.052
274.036
274.02
274.004
273.987
273.971
273.955
273.939
273.923
273.907
273.89
273.874
273.858
273.842
273.826
273.809
273.793
273.777
273.761
273.745
273.729
273.712
273.696
273.68
273.664
273.648
273.631
273.615
273.599
273.583
273.567
273.551
273.534
273.518
273.502
273.486
273.47
273.454
273.437
273.421
273.405
273.389
273.373
273.357
273.34
273.324
273.308
273.292
273.276
273.259
273.243
273.227
273.211
273.195
273.179
273.163
273.146
273.13
273.114
273.098
273.082
273.066
273.049
273.033
273.017
273.001
272.985
272.969
272.952
272.936
272.92
272.904
272.888
272.872
272.856
272.839
272.823
272.807
272.791
272.775
272.759
272.742
272.726
272.71
272.694
272.678
272.662
272.646
272.629
272.613
272.597
272.581
272.565
272.549
272.533
272.516
272.5
272.484
272.468
272.452
272.436
272.42
272.403
272.387
272.371
272.355
272.339
272.323
272.307
272.29
272.274
272.258
272.242
272.226
272.21
272.194
272.177
272.161
272.145
272.129
272.113
272.097
272.081
272.065
272.048
272.032
272.016
272
271.984
271.968
271.952
271.936
271.919
271.903
271.887
271.871
271.855
271.839
271.823
271.807
271.79
271.774
271.758
271.742
271.726
271.71
271.694
271.678
271.662
271.645
271.629
271.613
271.597
271.581
271.565
271.549
271.533
271.516
271.5
271.484
271.468
271.452
271.436
271.42
271.404
271.388
271.372
271.355
271.339
271.323
271.307
271.291
271.275
271.259
271.243
271.227
271.21
271.194
271.178
271.162
271.146
271.13
271.114
271.098
271.082
271.066
271.049
271.033
271.017
271.001
270.985
270.969
270.953
270.937
270.921
270.905
270.889
270.872
270.856
270.84
270.824
270.808
270.792
270.776
270.76
270.744
270.728
270.712
270.695
270.679
270.663
270.647
270.631
270.615
270.599
270.583
270.567
270.551
270.535
270.519
270.502
270.486
270.47
270.454
270.438
270.422
270.406
270.39
270.374
270.358
270.342
270.326
270.31
270.293
270.277
270.261
270.245
270.229
270.213
270.197
270.181
270.165
270.149
270.133
270.117
270.101
270.085
270.068
270.052
270.036
270.02
270.004
269.988
269.972
269.956
269.94
269.924
269.908
269.892
269.876
269.86
269.844
269.828
269.811
269.795
269.779
269.763
269.747
269.731
269.715
269.699
269.683
269.667
269.651
269.635
269.619
269.603
269.587
269.571
269.555
269.539
269.523
269.506
269.49
269.474
269.458
269.442
269.426
269.41
269.394
269.378
269.362
269.346
269.33
269.314
269.298
269.282
269.266
269.25
269.234
269.218
269.202
269.186
269.17
269.154
269.138
269.121
269.105
269.089
269.073
269.057
269.041
269.025
269.009
268.993
268.977
268.961
268.945
268.929
268.913
268.897
268.881
268.865
268.849
268.833
268.817
268.801
268.785
268.769
268.753
268.737
268.721
268.705
268.689
268.673
268.657
268.641
268.625
268.609
268.593
268.577
268.561
268.545
268.529
268.512
268.496
268.48
268.464
268.448
268.432
268.416
268.4
268.384
268.368
268.352
268.336
268.32
268.304
268.288
268.272
268.256
268.24
268.224
268.208
268.192
268.176
268.16
268.144
268.128
268.112
268.096
268.08
268.064
268.048
268.032
268.016
268
267.984
267.968
267.952
267.936
267.92
267.904
267.888
267.872
267.856
267.84
267.824
267.808
267.792
267.776
267.76
267.744
267.728
267.712
267.696
267.68
267.664
267.648
267.632
267.616
267.6
267.584
267.568
267.552
267.536
267.52
267.505
267.489
267.473
267.457
267.441
267.425
267.409
267.393
267.377
267.361
267.345
267.329
267.313
267.297
267.281
267.265
267.249
267.233
267.217
267.201
267.185
267.169
267.153
267.137
267.121
267.105
267.089
267.073
267.057
267.041
267.025
267.009
266.993
266.977
266.961
266.945
266.929
266.913
266.898
266.882
266.866
266.85
266.834
266.818
266.802
266.786
266.77
266.754
266.738
266.722
266.706
266.69
266.674
266.658
266.642
266.626
266.61
266.594
266.578
266.562
266.546
266.53
266.515
266.499
266.483
266.467
266.451
266.435
266.419
266.403
266.387
266.371
266.355
266.339
266.323
266.307
266.291
266.275
266.259
266.243
266.228
266.212
266.196
266.18
266.164
266.148
266.132
266.116
266.1
266.084
266.068
266.052
266.036
266.02
266.004
265.988
265.973
265.957
265.941
265.925
265.909
265.893
265.877
265.861
265.845
265.829
265.813
265.797
265.781
265.765
265.75
265.734
265.718
265.702
265.686
265.67
265.654
265.638
265.622
265.606
265.59
265.574
265.558
265.543
265.527
265.511
265.495
265.479
265.463
265.447
265.431
265.415
265.399
265.383
265.367
265.352
265.336
265.32
265.304
265.288
265.272
265.256
265.24
265.224
265.208
265.192
265.177
265.161
265.145
265.129
265.113
265.097
265.081
265.065
265.049
265.033
265.018
265.002
264.986
264.97
264.954
264.938
264.922
264.906
264.89
264.874
264.859
264.843
264.827
264.811
264.795
264.779
264.763
264.747
264.731
264.716
264.7
264.684
264.668
264.652
264.636
264.62
264.604
264.588
264.573
264.557
264.541
264.525
264.509
264.493
264.477
264.461
264.446
264.43
264.414
264.398
264.382
264.366
264.35
264.334
264.319
264.303
264.287
264.271
264.255
264.239
264.223
264.207
264.192
264.176
264.16
264.144
264.128
264.112
264.096
264.08
264.065
264.049
264.033
264.017
264.001
263.985
263.969
263.954
263.938
263.922
263.906
263.89
263.874
263.858
263.842
263.827
263.811
263.795
263.779
263.763
263.747
263.731
263.716
263.7
263.684
263.668
263.652
263.636
263.621
263.605
263.589
263.573
263.557
263.541
263.525
263.51
263.494
263.478
263.462
263.446
263.43
263.415
263.399
263.383
263.367
263.351
263.335
263.319
263.304
263.288
263.272
263.256
263.24
263.224
263.209
263.193
263.177
263.161
263.145
263.129
263.114
263.098
263.082
263.066
263.05
263.034
263.019
263.003
262.987
262.971
262.955
262.939
262.924
262.908
262.892
262.876
262.86
262.845
262.829
262.813
262.797
262.781
262.765
262.75
262.734
262.718
262.702
262.686
262.67
262.655
262.639
262.623
262.607
262.591
262.576
262.56
262.544
262.528
262.512
262.497
262.481
262.465
262.449
262.433
262.418
262.402
262.386
262.37
262.354
262.338
262.323
262.307
262.291
262.275
262.259
262.244
262.228
262.212
262.196
262.18
262.165
262.149
262.133
262.117
262.101
262.086
262.07
262.054
262.038
262.023
262.007
261.991
261.975
261.959
261.944
261.928
261.912
261.896
261.88
261.865
261.849
261.833
261.817
261.801
261.786
261.77
261.754
261.738
261.723