/*--------------------------------*- C++ -*----------------------------------*\
  =========                 |
  \\      /  F ield         | OpenFOAM: The Open Source CFD Toolbox
   \\    /   O peration     | Website:  https://openfoam.org
    \\  /    A nd           | Version:  9
     \\/     M anipulation  |
\*---------------------------------------------------------------------------*/
FoamFile
{
    format      ascii;
    class       volScalarField;
    location    "0.004";
    object      rho;
}
// * * * * * * * * * * * * * * * * * * * * * * * * * * * * * * * * * * * * * //

dimensions      [1 -3 0 0 0 0 0];

internalField   nonuniform List<scalar> 
1000
(
0.999645
0.999645
0.999645
0.999645
0.999645
0.999645
0.999645
0.999645
0.999645
0.999645
0.999645
0.999645
0.999645
0.999645
0.999645
0.999645
0.999645
0.999645
0.999645
0.999645
0.999645
0.999645
0.999645
0.999645
0.999645
0.999645
0.999645
0.999645
0.999645
0.999645
0.999645
0.999645
0.999645
0.999645
0.999645
0.999645
0.999645
0.999645
0.999645
0.999645
0.999645
0.999645
0.999645
0.999645
0.999645
0.999645
0.999645
0.999645
0.999645
0.999645
0.999645
0.999645
0.999645
0.999645
0.999645
0.999645
0.999645
0.999645
0.999645
0.999645
0.999645
0.999645
0.999645
0.999645
0.999645
0.999645
0.999645
0.999645
0.999645
0.999645
0.999645
0.999645
0.999645
0.999645
0.999645
0.999645
0.999645
0.999645
0.999645
0.999645
0.999645
0.999645
0.999645
0.999645
0.999645
0.999645
0.999645
0.999645
0.999645
0.999645
0.999645
0.999645
0.999645
0.999645
0.999645
0.999645
0.999645
0.999645
0.999645
0.999645
0.999645
0.999645
0.999645
0.999645
0.999645
0.999645
0.999645
0.999645
0.999645
0.999645
0.999645
0.999645
0.999645
0.999645
0.999645
0.999645
0.999645
0.999645
0.999645
0.999645
0.999645
0.999645
0.999645
0.999645
0.999645
0.999645
0.999645
0.999645
0.999645
0.999645
0.999645
0.999645
0.999645
0.999645
0.999645
0.999645
0.999645
0.999645
0.999645
0.999645
0.999645
0.999645
0.999645
0.999645
0.999645
0.999645
0.999645
0.999645
0.999645
0.999645
0.999645
0.999645
0.999645
0.999645
0.999645
0.999645
0.999645
0.999645
0.999645
0.999645
0.999645
0.999645
0.999645
0.999645
0.999645
0.999645
0.999645
0.999645
0.999645
0.999645
0.999645
0.999645
0.999645
0.999645
0.999645
0.999645
0.999645
0.999645
0.999645
0.999645
0.999645
0.999645
0.999645
0.999645
0.999645
0.999645
0.999645
0.999645
0.999645
0.999645
0.999645
0.999645
0.999645
0.999645
0.999645
0.999645
0.999645
0.999645
0.999645
0.999645
0.999645
0.999645
0.999645
0.999645
0.999645
0.999645
0.999645
0.999645
0.999645
0.999645
0.999645
0.999645
0.999645
0.999645
0.999645
0.999645
0.999645
0.999645
0.999645
0.999645
0.999645
0.999645
0.999645
0.999645
0.999645
0.999645
0.999645
0.999645
0.999645
0.999645
0.999645
0.999645
0.999645
0.999645
0.999645
0.999645
0.999645
0.999645
0.999645
0.999645
0.999645
0.999645
0.999645
0.999645
0.999645
0.999645
0.999645
0.999645
0.999645
0.999645
0.999645
0.999645
0.999645
0.999645
0.999645
0.999645
0.999645
0.999645
0.999645
0.999645
0.999645
0.999645
0.999645
0.999645
0.999645
0.999645
0.999645
0.999645
0.999645
0.999645
0.999645
0.999645
0.999645
0.999645
0.999645
0.999645
0.999645
0.999645
0.999645
0.999645
0.999645
0.999645
0.999645
0.999645
0.999645
0.999645
0.999645
0.999645
0.999645
0.999645
0.999645
0.999645
0.999645
0.999645
0.999645
0.999645
0.999645
0.999645
0.999645
0.999645
0.999645
0.999645
0.999645
0.999645
0.999645
0.999645
0.999645
0.999645
0.999645
0.999645
0.999645
0.999645
0.999645
0.999645
0.999645
0.999645
0.999645
0.999645
0.999645
0.999645
0.999645
0.999645
0.999645
0.999645
0.999645
0.999645
0.999645
0.999645
0.999645
0.999645
0.999645
0.999645
0.999645
0.999645
0.999645
0.999645
0.999645
0.999645
0.999645
0.999645
0.999645
0.999645
0.999645
0.999645
0.999645
0.999645
0.999645
0.999643
0.999641
0.999633
0.999615
0.999568
0.99945
0.999147
0.998368
0.996332
0.990878
0.977591
0.960901
0.948794
0.940261
0.93358
0.927826
0.922519
0.917405
0.912357
0.907317
0.902272
0.897222
0.892178
0.887147
0.882136
0.877147
0.872184
0.867247
0.862335
0.857449
0.852589
0.847755
0.842945
0.838161
0.8334
0.828664
0.823952
0.819264
0.814599
0.809957
0.805338
0.800741
0.796167
0.791615
0.787085
0.782577
0.778091
0.773627
0.769183
0.764761
0.76036
0.755981
0.751621
0.747283
0.742965
0.738668
0.73439
0.730133
0.725896
0.721679
0.717482
0.713305
0.709147
0.705009
0.70089
0.696791
0.69271
0.688649
0.684607
0.680584
0.67658
0.672594
0.668627
0.664679
0.660749
0.656838
0.652945
0.64907
0.645214
0.641375
0.637555
0.633752
0.629968
0.626201
0.622452
0.618721
0.615007
0.611311
0.607632
0.603971
0.600327
0.5967
0.593091
0.589499
0.585923
0.582365
0.578824
0.5753
0.571793
0.568302
0.564828
0.561371
0.557931
0.554507
0.5511
0.547709
0.544335
0.540977
0.537636
0.534311
0.531002
0.52771
0.524434
0.521174
0.517931
0.514704
0.511493
0.508298
0.505119
0.501957
0.49881
0.49568
0.492567
0.489469
0.486387
0.483322
0.480273
0.47724
0.474223
0.471223
0.468239
0.465271
0.46232
0.459385
0.456467
0.453566
0.450683
0.447821
0.444981
0.442171
0.439406
0.436716
0.434157
0.43183
0.429867
0.428379
0.427407
0.42685
0.426525
0.426302
0.426109
0.425959
0.425879
0.425855
0.425853
0.425864
0.425871
0.425872
0.425869
0.425861
0.425859
0.425872
0.425953
0.426076
0.426147
0.426173
0.426173
0.42616
0.426152
0.42616
0.426213
0.42631
0.426378
0.426409
0.426417
0.426418
0.426418
0.426422
0.426447
0.42653
0.426642
0.426713
0.426743
0.42675
0.426735
0.426666
0.426593
0.426548
0.426513
0.426467
0.426393
0.426309
0.426255
0.426236
0.426236
0.426267
0.426306
0.426317
0.426309
0.42626
0.426221
0.426215
0.426224
0.426292
0.426367
0.4264
0.426406
0.426393
0.426371
0.426366
0.426388
0.426475
0.426548
0.426579
0.426584
0.426577
0.426572
0.426585
0.426656
0.426757
0.426802
0.426801
0.426727
0.426593
0.426502
0.426455
0.426453
0.426497
0.426538
0.426543
0.426515
0.426458
0.426415
0.426402
0.426416
0.426493
0.426546
0.426552
0.426536
0.426502
0.426474
0.426469
0.42651
0.426629
0.426692
0.426705
0.426702
0.426688
0.426655
0.426649
0.426718
0.426841
0.426903
0.426922
0.426947
0.426968
0.426959
0.426931
0.426975
0.427013
0.426904
0.426686
0.4263
0.42558
0.424202
0.421687
0.417113
0.408667
0.393808
0.369707
0.334981
0.294489
0.276595
0.27165
0.269684
0.266285
0.26189
0.260989
0.260872
0.260989
0.261518
0.263308
0.266263
0.267247
0.267601
0.267435
0.265317
0.263906
0.263811
0.263908
0.264394
0.26643
0.268258
0.268384
0.268201
0.267374
0.264636
0.262902
0.262625
0.262615
0.263093
0.265166
0.266923
0.267302
0.267443
0.267271
0.265505
0.264086
0.263949
0.264003
0.264433
0.266239
0.267371
0.267399
0.267243
0.266598
0.264452
0.263191
0.263055
0.26312
0.263635
0.265529
0.266929
0.267227
0.267326
0.267087
0.2655
0.26433
0.264191
0.264171
0.264365
0.265701
0.266711
0.266777
0.266695
0.266261
0.264644
0.263663
0.263602
0.263696
0.264134
0.265666
0.266897
0.267139
0.267204
0.266984
0.265686
0.26463
0.264437
0.264363
0.264418
0.265376
0.266378
0.266463
0.266408
0.266147
0.265007
0.264092
0.264016
0.264075
0.264374
0.265525
0.266689
0.266907
0.266938
0.266753
0.265767
0.264579
0.264292
0.264201
0.264426
0.265207
0.265117
0.26166
0.225835
0.142343
0.126245
0.125043
0.124961
0.124956
0.124956
0.124955
0.124955
0.124955
0.124955
0.124955
0.124955
0.124955
0.124955
0.124955
0.124955
0.124955
0.124955
0.124955
0.124955
0.124955
0.124955
0.124955
0.124955
0.124955
0.124955
0.124955
0.124955
0.124955
0.124955
0.124955
0.124955
0.124955
0.124955
0.124955
0.124955
0.124955
0.124955
0.124955
0.124955
0.124955
0.124955
0.124955
0.124955
0.124955
0.124955
0.124955
0.124955
0.124955
0.124955
0.124955
0.124955
0.124955
0.124955
0.124955
0.124955
0.124955
0.124955
0.124955
0.124955
0.124955
0.124955
0.124955
0.124955
0.124955
0.124955
0.124955
0.124955
0.124955
0.124955
0.124955
0.124955
0.124955
0.124955
0.124955
0.124955
0.124955
0.124955
0.124955
0.124955
0.124955
0.124955
0.124955
0.124955
0.124955
0.124955
0.124955
0.124955
0.124955
0.124955
0.124955
0.124955
0.124955
0.124955
0.124955
0.124955
0.124955
0.124955
0.124955
0.124955
0.124955
0.124955
0.124955
0.124955
0.124955
0.124955
0.124955
0.124955
0.124955
0.124955
0.124955
0.124955
0.124955
0.124955
0.124955
0.124955
0.124955
0.124955
0.124955
0.124955
0.124955
0.124955
0.124955
0.124955
0.124955
0.124955
0.124955
0.124955
0.124955
0.124955
0.124955
0.124955
0.124955
0.124955
0.124955
0.124955
0.124955
0.124955
0.124955
0.124955
0.124955
0.124955
0.124955
0.124955
0.124955
0.124955
0.124955
0.124955
0.124955
0.124955
0.124955
0.124955
0.124955
0.124955
0.124955
0.124955
0.124955
0.124955
0.124955
0.124955
0.124955
0.124955
0.124955
0.124955
0.124955
0.124955
0.124955
0.124955
0.124955
0.124955
0.124955
0.124955
0.124955
0.124955
0.124955
0.124955
0.124955
0.124955
0.124955
0.124955
0.124955
0.124955
0.124955
0.124955
0.124955
0.124955
0.124955
0.124955
0.124955
0.124955
0.124955
0.124955
0.124955
0.124955
0.124955
0.124955
0.124955
0.124955
0.124955
0.124955
0.124955
0.124955
0.124955
0.124955
0.124955
0.124955
0.124955
0.124955
0.124955
0.124955
0.124955
0.124955
0.124955
0.124955
0.124955
0.124955
0.124955
0.124955
0.124955
0.124955
0.124955
0.124955
0.124955
0.124955
0.124955
0.124955
0.124955
0.124955
0.124955
0.124955
0.124955
0.124955
0.124955
0.124955
0.124955
0.124955
0.124955
0.124955
0.124955
0.124955
0.124955
0.124955
0.124955
0.124955
0.124955
0.124955
0.124955
0.124955
0.124955
0.124955
0.124955
0.124955
0.124955
0.124955
0.124955
0.124955
0.124955
0.124955
0.124955
0.124955
0.124955
0.124955
0.124955
0.124955
0.124955
0.124955
0.124955
0.124955
0.124955
0.124955
0.124955
0.124955
0.124955
0.124955
0.124955
0.124955
0.124955
0.124955
)
;

boundaryField
{
    sides
    {
        type            calculated;
        value           nonuniform List<scalar> 2(0.124955 0.999645);
    }
    empty
    {
        type            empty;
    }
}


// ************************************************************************* //
