/*--------------------------------*- C++ -*----------------------------------*\
  =========                 |
  \\      /  F ield         | OpenFOAM: The Open Source CFD Toolbox
   \\    /   O peration     | Website:  https://openfoam.org
    \\  /    A nd           | Version:  9
     \\/     M anipulation  |
\*---------------------------------------------------------------------------*/
FoamFile
{
    format      ascii;
    class       volScalarField;
    location    "0.042";
    object      rho;
}
// * * * * * * * * * * * * * * * * * * * * * * * * * * * * * * * * * * * * * //

dimensions      [1 -3 0 0 0 0 0];

internalField   nonuniform List<scalar> 
1000
(
0.210866
0.210845
0.210801
0.210773
0.210751
0.210728
0.210703
0.210677
0.210652
0.210627
0.210602
0.210577
0.210552
0.210527
0.210502
0.210477
0.210452
0.210427
0.210402
0.210377
0.210352
0.210327
0.210302
0.210277
0.210252
0.210227
0.210202
0.210177
0.210152
0.210127
0.210102
0.210077
0.210052
0.210027
0.210002
0.209978
0.209953
0.20993
0.209905
0.209882
0.209858
0.209835
0.20981
0.209787
0.209762
0.209739
0.209715
0.209692
0.209669
0.209646
0.209625
0.209603
0.209582
0.209563
0.209542
0.209525
0.209505
0.209487
0.20947
0.20945
0.209433
0.209416
0.209395
0.209378
0.20936
0.209339
0.209323
0.209306
0.209286
0.209271
0.209256
0.209237
0.209223
0.209208
0.209189
0.209174
0.209158
0.209139
0.209121
0.209104
0.209084
0.209063
0.209047
0.20903
0.20901
0.208995
0.208982
0.208965
0.20895
0.208939
0.208925
0.208909
0.208896
0.208884
0.208869
0.208857
0.208854
0.208853
0.20885
0.208848
0.208848
0.208847
0.208845
0.208843
0.208842
0.208841
0.208839
0.208837
0.208837
0.208837
0.208835
0.208834
0.208834
0.208834
0.208833
0.208833
0.208833
0.208833
0.208833
0.208833
0.208834
0.208834
0.208834
0.208834
0.208834
0.208834
0.208835
0.208834
0.208834
0.208835
0.208835
0.208835
0.208835
0.208835
0.208835
0.208835
0.208835
0.208836
0.208837
0.208836
0.208837
0.208837
0.208836
0.208841
0.208839
0.208835
0.208846
0.208845
0.208831
0.208844
0.208862
0.208852
0.208819
0.208796
0.208806
0.208892
0.208879
0.208777
0.208863
0.208974
0.208769
0.208708
0.209074
0.209055
0.208577
0.208629
0.209247
0.20929
0.208632
0.208379
0.208897
0.209437
0.20919
0.208542
0.208566
0.209314
0.209386
0.208713
0.208596
0.209257
0.209391
0.20881
0.208716
0.209267
0.209322
0.208875
0.208885
0.209274
0.209222
0.208957
0.209046
0.209244
0.209159
0.209047
0.209168
0.209243
0.209151
0.209142
0.209277
0.209261
0.209175
0.209286
0.209358
0.209261
0.209269
0.209429
0.20939
0.209283
0.209445
0.209531
0.209373
0.209392
0.209639
0.209559
0.209376
0.209636
0.209779
0.209502
0.209518
0.209916
0.209785
0.209497
0.209859
0.210075
0.209692
0.209685
0.210203
0.210066
0.209689
0.210085
0.210387
0.20996
0.209879
0.21048
0.210413
0.209935
0.210273
0.210728
0.210323
0.210074
0.2107
0.210831
0.210277
0.210377
0.211023
0.210813
0.21035
0.21081
0.211227
0.210768
0.210549
0.211226
0.211353
0.210785
0.210869
0.211566
0.211411
0.210893
0.211285
0.21182
0.211444
0.211089
0.211709
0.212036
0.211513
0.211357
0.212106
0.212218
0.21163
0.211693
0.212465
0.212387
0.211803
0.212074
0.212784
0.212559
0.212027
0.212462
0.213087
0.212758
0.212286
0.212831
0.213382
0.212988
0.212572
0.213193
0.213678
0.213239
0.212874
0.213563
0.213994
0.213509
0.213183
0.213947
0.214345
0.21381
0.213491
0.214319
0.21474
0.214177
0.213797
0.214617
0.215166
0.214676
0.214143
0.214733
0.215555
0.215352
0.21462
0.214735
0.215828
0.215985
0.215234
0.21496
0.215917
0.216429
0.215944
0.21541
0.215946
0.21675
0.216584
0.215927
0.216116
0.217033
0.217058
0.216441
0.216452
0.217314
0.21743
0.216917
0.21686
0.217624
0.217774
0.217358
0.217284
0.217981
0.218141
0.217784
0.217698
0.218392
0.218566
0.218204
0.218102
0.218845
0.219038
0.218625
0.218505
0.219321
0.219536
0.219057
0.21891
0.219789
0.220039
0.219512
0.219316
0.220212
0.220523
0.220008
0.219728
0.220571
0.221014
0.220624
0.22011
0.220297
0.221635
0.221955
0.221266
0.220737
0.220591
0.221873
0.222511
0.222268
0.22141
0.221257
0.222424
0.222967
0.222555
0.221887
0.222235
0.22323
0.223201
0.222577
0.222637
0.223224
0.223283
0.223083
0.223085
0.223447
0.223559
0.223601
0.22347
0.223661
0.224176
0.224312
0.224284
0.223956
0.224516
0.225166
0.224874
0.224298
0.224941
0.225871
0.225668
0.224849
0.224606
0.225745
0.226539
0.226377
0.225437
0.225209
0.226368
0.227051
0.226703
0.225878
0.225939
0.227234
0.227554
0.226787
0.226265
0.227003
0.227957
0.227835
0.226929
0.226829
0.228095
0.22854
0.227864
0.227253
0.227827
0.228893
0.228854
0.227941
0.227784
0.228994
0.229465
0.228834
0.228236
0.228838
0.229845
0.229768
0.22889
0.2288
0.23004
0.230443
0.22976
0.229206
0.229906
0.23085
0.230703
0.229841
0.229863
0.231101
0.231379
0.230594
0.230192
0.231182
0.231876
0.231415
0.230698
0.231171
0.232291
0.23225
0.23132
0.231216
0.23253
0.232953
0.232182
0.231587
0.2323
0.233401
0.233327
0.232321
0.232066
0.233335
0.234047
0.233583
0.232716
0.232765
0.234214
0.234597
0.233777
0.233156
0.233752
0.234963
0.234981
0.233968
0.233679
0.234911
0.23561
0.235098
0.23429
0.234544
0.235921
0.236115
0.235148
0.234715
0.235772
0.236647
0.236355
0.235413
0.235398
0.236854
0.237289
0.236501
0.235841
0.236342
0.237667
0.237775
0.236767
0.236361
0.23743
0.238369
0.238128
0.237146
0.237053
0.238494
0.239005
0.238306
0.237591
0.238052
0.239371
0.239466
0.238499
0.238184
0.239238
0.239838
0.239447
0.238961
0.23872
0.238872
0.240543
0.240972
0.240274
0.239695
0.23944
0.239603
0.241348
0.241836
0.241174
0.24039
0.240079
0.240867
0.242311
0.242541
0.241502
0.240947
0.240944
0.242641
0.243228
0.242628
0.241729
0.241532
0.243044
0.243835
0.243455
0.242439
0.2422
0.243643
0.244478
0.244118
0.2431
0.242908
0.24441
0.245142
0.244656
0.243718
0.243695
0.245295
0.245812
0.245083
0.244314
0.24467
0.246189
0.246418
0.245431
0.244914
0.245901
0.247002
0.246883
0.245829
0.245659
0.247136
0.247752
0.247145
0.246349
0.246749
0.248155
0.248294
0.247406
0.24694
0.247449
0.249029
0.24926
0.248361
0.24789
0.247672
0.249211
0.250172
0.250058
0.249017
0.248668
0.248978
0.25077
0.251182
0.250447
0.249765
0.24957
0.251157
0.252005
0.25176
0.250839
0.25052
0.251595
0.252841
0.252895
0.252024
0.25166
0.251968
0.253701
0.254059
0.253466
0.252938
0.252728
0.254214
0.255117
0.255073
0.254299
0.25398
0.254628
0.256027
0.25624
0.255733
0.255339
0.25527
0.256815
0.257369
0.257275
0.256761
0.256682
0.257674
0.258153
0.258351
0.258464
0.258411
0.258486
0.259481
0.259815
0.259979
0.260073
0.259976
0.260281
0.261228
0.261479
0.261614
0.261595
0.261603
0.262596
0.262946
0.263051
0.262925
0.263497
0.264238
0.2644
0.264319
0.264624
0.265566
0.265781
0.265768
0.265824
0.266871
0.267195
0.267241
0.267161
0.26816
0.268641
0.268744
0.268609
0.269412
0.270114
0.270271
0.27016
0.270642
0.271597
0.271808
0.271766
0.271932
0.273056
0.273352
0.273381
0.273341
0.274455
0.274901
0.274991
0.27486
0.275789
0.276445
0.276589
0.276462
0.277073
0.277979
0.278177
0.278112
0.278368
0.27948
0.279751
0.279771
0.279743
0.28087
0.281307
0.281409
0.281267
0.282113
0.282828
0.282994
0.282892
0.283301
0.284305
0.284535
0.284535
0.28455
0.285666
0.286046
0.286137
0.285996
0.286828
0.287499
0.28766
0.287566
0.287893
0.288886
0.28912
0.289145
0.289077
0.290085
0.290526
0.290645
0.290509
0.291039
0.291866
0.29206
0.292056
0.292029
0.29304
0.293424
0.29354
0.293408
0.293864
0.294709
0.294914
0.29495
0.294827
0.295706
0.296206
0.296353
0.2963
0.296359
0.297341
0.297647
0.297766
0.297656
0.297898
0.298827
0.299074
0.299187
0.299079
0.299285
0.30023
0.300486
0.300619
0.3006
0.300506
0.301429
0.301855
0.302024
0.30212
0.302019
0.302138
0.303096
0.30338
0.30353
0.303605
0.303455
0.303882
0.304625
0.304824
0.304917
0.304798
0.305156
0.305832
0.305994
0.305992
0.305991
0.306755
0.307026
0.307098
0.306989
0.307515
0.307995
0.308116
0.308062
0.308191
0.308882
0.30905
0.309079
0.308977
0.30952
0.3098
0.309871
0.309781
0.309944
0.310475
0.310594
0.310618
0.31051
0.310976
0.311283
0.311361
0.311305
0.311311
0.311874
0.312023
0.312082
0.311983
0.312173
0.312663
0.312745
0.312771
0.312633
0.312947
0.313302
0.313377
0.313362
0.313187
0.313539
0.313903
0.313938
0.313905
0.313731
0.314082
0.314211
0.31434
0.314223
0.314201
0.314649
0.314913
0.314863
0.314617
0.31447
0.314787
0.314897
0.315042
0.31478
0.31471
0.315062
0.315396
0.315483
0.315199
0.314784
0.314961
0.315414
0.315875
0.315729
0.315262
0.315096
0.315814
0.316299
0.316537
0.315846
0.315159
0.315827
0.31707
0.317175
0.316161
0.31573
0.315856
0.317044
0.317503
0.317776
0.316734
0.315893
0.316455
0.317964
0.318311
0.317164
0.31629
0.316168
0.317793
0.318546
0.318968
0.317961
0.316636
0.31657
0.318469
0.319203
0.318215
0.316875
0.316451
0.317884
0.319301
0.319824
0.318653
0.317046
0.316684
0.318541
0.319737
0.319084
0.317223
0.316749
0.318441
0.319847
0.319407
0.317376
0.316796
0.318127
0.319853
0.319709
0.317598
0.31691
0.317987
0.319906
0.319923
0.317808
0.317034
0.317848
0.319915
0.320042
0.318004
0.317186
0.317244
0.31966
0.32055
0.320115
0.317808
0.31714
0.317479
0.319889
0.320475
0.318688
0.317408
0.317311
0.319656
0.320549
0.319143
0.317512
0.317128
0.31918
0.320473
0.319611
0.317675
0.317195
0.319024
0.320491
0.319804
0.317786
0.317203
0.318681
0.320522
0.320373
0.318145
0.317412
0.317704
0.320253
0.320918
0.319222
0.317868
0.317342
0.318891
0.320829
0.320892
0.318705
0.317912
0.317533
0.319648
0.32108
0.320588
0.31856
0.318194
0.320049
0.320956
0.319515
0.318428
0.319547
0.321026
0.320182
0.318524
0.318636
0.320914
0.321381
0.319358
0.318309
0.318234
0.320652
0.321667
0.320312
0.318581
0.318027
0.318749
0.321404
0.321315
0.318449
)
;

boundaryField
{
    sides
    {
        type            calculated;
        value           nonuniform List<scalar> 2(0.318449 0.210866);
    }
    empty
    {
        type            empty;
    }
}


// ************************************************************************* //
