/*--------------------------------*- C++ -*----------------------------------*\
  =========                 |
  \\      /  F ield         | OpenFOAM: The Open Source CFD Toolbox
   \\    /   O peration     | Website:  https://openfoam.org
    \\  /    A nd           | Version:  9
     \\/     M anipulation  |
\*---------------------------------------------------------------------------*/
FoamFile
{
    format      ascii;
    class       volVectorField;
    location    "0.042";
    object      U;
}
// * * * * * * * * * * * * * * * * * * * * * * * * * * * * * * * * * * * * * //

dimensions      [0 1 -1 0 0 0 0];

internalField   nonuniform List<vector> 
1000
(
(18.0539 0 0)
(18.3283 0 0)
(18.762 0 0)
(19.0855 0 0)
(19.3223 0 0)
(19.5762 0 0)
(19.8509 0 0)
(20.1347 0 0)
(20.4198 0 0)
(20.6984 0 0)
(20.9766 0 0)
(21.2554 0 0)
(21.535 0 0)
(21.8147 0 0)
(22.0944 0 0)
(22.3738 0 0)
(22.6533 0 0)
(22.9328 0 0)
(23.2123 0 0)
(23.4918 0 0)
(23.7712 0 0)
(24.0506 0 0)
(24.33 0 0)
(24.6095 0 0)
(24.889 0 0)
(25.1685 0 0)
(25.448 0 0)
(25.7274 0 0)
(26.0068 0 0)
(26.2861 0 0)
(26.5654 0 0)
(26.8447 0 0)
(27.124 0 0)
(27.4033 0 0)
(27.6827 0 0)
(27.9621 0 0)
(28.2415 0 0)
(28.5209 0 0)
(28.8003 0 0)
(29.0796 0 0)
(29.3587 0 0)
(29.6377 0 0)
(29.9167 0 0)
(30.1956 0 0)
(30.4745 0 0)
(30.7536 0 0)
(31.0327 0 0)
(31.312 0 0)
(31.5914 0 0)
(31.8709 0 0)
(32.1504 0 0)
(32.4296 0 0)
(32.7088 0 0)
(32.9875 0 0)
(33.266 0 0)
(33.5442 0 0)
(33.8221 0 0)
(34.1004 0 0)
(34.3784 0 0)
(34.6566 0 0)
(34.9353 0 0)
(35.214 0 0)
(35.4932 0 0)
(35.7727 0 0)
(36.0521 0 0)
(36.3314 0 0)
(36.6104 0 0)
(36.8884 0 0)
(37.166 0 0)
(37.4434 0 0)
(37.7198 0 0)
(37.9963 0 0)
(38.2729 0 0)
(38.5489 0 0)
(38.8254 0 0)
(39.1027 0 0)
(39.3801 0 0)
(39.6582 0 0)
(39.9374 0 0)
(40.2172 0 0)
(40.4974 0 0)
(40.7779 0 0)
(41.058 0 0)
(41.3365 0 0)
(41.6141 0 0)
(41.8912 0 0)
(42.1667 0 0)
(42.4412 0 0)
(42.7159 0 0)
(42.9894 0 0)
(43.2623 0 0)
(43.5359 0 0)
(43.8102 0 0)
(44.084 0 0)
(44.3567 0 0)
(44.6263 0 0)
(44.8895 0 0)
(45.148 0 0)
(45.4057 0 0)
(45.6636 0 0)
(45.9208 0 0)
(46.1783 0 0)
(46.4364 0 0)
(46.6944 0 0)
(46.9519 0 0)
(47.2096 0 0)
(47.4678 0 0)
(47.7253 0 0)
(47.9823 0 0)
(48.2397 0 0)
(48.4973 0 0)
(48.7541 0 0)
(49.0107 0 0)
(49.2675 0 0)
(49.524 0 0)
(49.7798 0 0)
(50.0356 0 0)
(50.2918 0 0)
(50.5476 0 0)
(50.8027 0 0)
(51.0577 0 0)
(51.3129 0 0)
(51.5685 0 0)
(51.8245 0 0)
(52.0807 0 0)
(52.3372 0 0)
(52.5942 0 0)
(52.8517 0 0)
(53.1096 0 0)
(53.3681 0 0)
(53.6269 0 0)
(53.886 0 0)
(54.145 0 0)
(54.4038 0 0)
(54.6626 0 0)
(54.921 0 0)
(55.1791 0 0)
(55.4377 0 0)
(55.6957 0 0)
(55.953 0 0)
(56.211 0 0)
(56.4685 0 0)
(56.7258 0 0)
(56.9845 0 0)
(57.2411 0 0)
(57.4975 0 0)
(57.7587 0 0)
(58.0157 0 0)
(58.2679 0 0)
(58.5292 0 0)
(58.7959 0 0)
(59.0473 0 0)
(59.2842 0 0)
(59.5194 0 0)
(59.7803 0 0)
(60.0701 0 0)
(60.3206 0 0)
(60.5373 0 0)
(60.819 0 0)
(61.1124 0 0)
(61.2919 0 0)
(61.5202 0 0)
(61.9107 0 0)
(62.1572 0 0)
(62.211 0 0)
(62.4707 0 0)
(62.9941 0 0)
(63.2752 0 0)
(63.2457 0 0)
(63.3162 0 0)
(63.7996 0 0)
(64.3686 0 0)
(64.5035 0 0)
(64.4356 0 0)
(64.6835 0 0)
(65.2547 0 0)
(65.5658 0 0)
(65.5424 0 0)
(65.6975 0 0)
(66.2113 0 0)
(66.557 0 0)
(66.5828 0 0)
(66.7488 0 0)
(67.2102 0 0)
(67.5144 0 0)
(67.5866 0 0)
(67.7971 0 0)
(68.1933 0 0)
(68.4415 0 0)
(68.5725 0 0)
(68.8228 0 0)
(69.1469 0 0)
(69.3613 0 0)
(69.5437 0 0)
(69.8103 0 0)
(70.0819 0 0)
(70.2811 0 0)
(70.5019 0 0)
(70.7759 0 0)
(71.0019 0 0)
(71.197 0 0)
(71.4506 0 0)
(71.7047 0 0)
(71.8904 0 0)
(72.1069 0 0)
(72.3781 0 0)
(72.5832 0 0)
(72.7594 0 0)
(73.0178 0 0)
(73.267 0 0)
(73.4213 0 0)
(73.631 0 0)
(73.9238 0 0)
(74.1083 0 0)
(74.2497 0 0)
(74.5329 0 0)
(74.804 0 0)
(74.9161 0 0)
(75.1168 0 0)
(75.4579 0 0)
(75.6318 0 0)
(75.7326 0 0)
(76.0437 0 0)
(76.3456 0 0)
(76.4228 0 0)
(76.607 0 0)
(76.9876 0 0)
(77.1632 0 0)
(77.2286 0 0)
(77.5441 0 0)
(77.8786 0 0)
(77.9395 0 0)
(78.0901 0 0)
(78.4897 0 0)
(78.6893 0 0)
(78.7154 0 0)
(79.0017 0 0)
(79.3828 0 0)
(79.4446 0 0)
(79.5227 0 0)
(79.9136 0 0)
(80.189 0 0)
(80.1884 0 0)
(80.3829 0 0)
(80.7988 0 0)
(80.9334 0 0)
(80.9444 0 0)
(81.2623 0 0)
(81.6304 0 0)
(81.6628 0 0)
(81.7428 0 0)
(82.1401 0 0)
(82.4002 0 0)
(82.3795 0 0)
(82.5598 0 0)
(82.9836 0 0)
(83.1285 0 0)
(83.1082 0 0)
(83.3882 0 0)
(83.782 0 0)
(83.8315 0 0)
(83.8508 0 0)
(84.2076 0 0)
(84.533 0 0)
(84.5174 0 0)
(84.5985 0 0)
(85.0032 0 0)
(85.2434 0 0)
(85.1944 0 0)
(85.3497 0 0)
(85.7757 0 0)
(85.93 0 0)
(85.8662 0 0)
(86.0876 0 0)
(86.5113 0 0)
(86.5984 0 0)
(86.5361 0 0)
(86.807 0 0)
(87.2152 0 0)
(87.2533 0 0)
(87.1988 0 0)
(87.5019 0 0)
(87.8893 0 0)
(87.8948 0 0)
(87.8515 0 0)
(88.1754 0 0)
(88.5397 0 0)
(88.5226 0 0)
(88.4928 0 0)
(88.8345 0 0)
(89.1778 0 0)
(89.1393 0 0)
(89.1207 0 0)
(89.4824 0 0)
(89.8134 0 0)
(89.7521 0 0)
(89.7301 0 0)
(90.1114 0 0)
(90.4536 0 0)
(90.3775 0 0)
(90.3209 0 0)
(90.6999 0 0)
(91.0983 0 0)
(91.042 0 0)
(90.9072 0 0)
(91.2186 0 0)
(91.7054 0 0)
(91.7509 0 0)
(91.5593 0 0)
(91.7048 0 0)
(92.211 0 0)
(92.4388 0 0)
(92.2748 0 0)
(92.2361 0 0)
(92.6559 0 0)
(93.0522 0 0)
(92.9868 0 0)
(92.8389 0 0)
(93.1194 0 0)
(93.5796 0 0)
(93.6368 0 0)
(93.4791 0 0)
(93.6312 0 0)
(94.068 0 0)
(94.2192 0 0)
(94.0955 0 0)
(94.1761 0 0)
(94.5623 0 0)
(94.758 0 0)
(94.6734 0 0)
(94.73 0 0)
(95.0692 0 0)
(95.2725 0 0)
(95.2182 0 0)
(95.2729 0 0)
(95.5853 0 0)
(95.7857 0 0)
(95.7457 0 0)
(95.8015 0 0)
(96.1086 0 0)
(96.3121 0 0)
(96.2704 0 0)
(96.3227 0 0)
(96.6418 0 0)
(96.852 0 0)
(96.7927 0 0)
(96.8351 0 0)
(97.1732 0 0)
(97.3936 0 0)
(97.3128 0 0)
(97.3391 0 0)
(97.6922 0 0)
(97.9274 0 0)
(97.83 0 0)
(97.8286 0 0)
(98.1805 0 0)
(98.442 0 0)
(98.3462 0 0)
(98.3055 0 0)
(98.6395 0 0)
(98.9617 0 0)
(98.8993 0 0)
(98.7176 0 0)
(98.9156 0 0)
(99.48 0 0)
(99.7711 0 0)
(99.6005 0 0)
(99.3285 0 0)
(99.3913 0 0)
(99.8969 0 0)
(100.375 0 0)
(100.334 0 0)
(100.045 0 0)
(100.039 0 0)
(100.491 0 0)
(100.898 0 0)
(100.826 0 0)
(100.611 0 0)
(100.8 0 0)
(101.252 0 0)
(101.361 0 0)
(101.218 0 0)
(101.268 0 0)
(101.533 0 0)
(101.669 0 0)
(101.668 0 0)
(101.735 0 0)
(101.926 0 0)
(102.083 0 0)
(102.158 0 0)
(102.196 0 0)
(102.354 0 0)
(102.634 0 0)
(102.817 0 0)
(102.858 0 0)
(102.859 0 0)
(103.116 0 0)
(103.471 0 0)
(103.469 0 0)
(103.354 0 0)
(103.636 0 0)
(104.107 0 0)
(104.135 0 0)
(103.887 0 0)
(103.861 0 0)
(104.324 0 0)
(104.849 0 0)
(104.861 0 0)
(104.587 0 0)
(104.552 0 0)
(105.011 0 0)
(105.482 0 0)
(105.443 0 0)
(105.19 0 0)
(105.302 0 0)
(105.82 0 0)
(106.119 0 0)
(105.959 0 0)
(105.788 0 0)
(106.117 0 0)
(106.634 0 0)
(106.693 0 0)
(106.457 0 0)
(106.495 0 0)
(106.985 0 0)
(107.343 0 0)
(107.217 0 0)
(107.023 0 0)
(107.308 0 0)
(107.832 0 0)
(107.939 0 0)
(107.722 0 0)
(107.732 0 0)
(108.196 0 0)
(108.568 0 0)
(108.465 0 0)
(108.291 0 0)
(108.577 0 0)
(109.084 0 0)
(109.178 0 0)
(108.973 0 0)
(109.019 0 0)
(109.498 0 0)
(109.84 0 0)
(109.724 0 0)
(109.568 0 0)
(109.879 0 0)
(110.379 0 0)
(110.442 0 0)
(110.237 0 0)
(110.325 0 0)
(110.811 0 0)
(111.087 0 0)
(110.939 0 0)
(110.849 0 0)
(111.232 0 0)
(111.665 0 0)
(111.623 0 0)
(111.434 0 0)
(111.671 0 0)
(112.181 0 0)
(112.296 0 0)
(112.084 0 0)
(112.121 0 0)
(112.61 0 0)
(112.951 0 0)
(112.81 0 0)
(112.627 0 0)
(112.945 0 0)
(113.489 0 0)
(113.576 0 0)
(113.326 0 0)
(113.295 0 0)
(113.772 0 0)
(114.246 0 0)
(114.186 0 0)
(113.917 0 0)
(114.037 0 0)
(114.585 0 0)
(114.916 0 0)
(114.755 0 0)
(114.542 0 0)
(114.835 0 0)
(115.394 0 0)
(115.527 0 0)
(115.291 0 0)
(115.238 0 0)
(115.693 0 0)
(116.149 0 0)
(116.085 0 0)
(115.844 0 0)
(116.028 0 0)
(116.579 0 0)
(116.808 0 0)
(116.605 0 0)
(116.487 0 0)
(116.891 0 0)
(117.401 0 0)
(117.405 0 0)
(117.156 0 0)
(117.243 0 0)
(117.78 0 0)
(118.135 0 0)
(117.991 0 0)
(117.771 0 0)
(118.044 0 0)
(118.622 0 0)
(118.802 0 0)
(118.581 0 0)
(118.47 0 0)
(118.887 0 0)
(119.421 0 0)
(119.444 0 0)
(119.194 0 0)
(119.245 0 0)
(119.762 0 0)
(120.158 0 0)
(120.047 0 0)
(119.827 0 0)
(120.076 0 0)
(120.634 0 0)
(120.813 0 0)
(120.612 0 0)
(120.543 0 0)
(120.93 0 0)
(121.328 0 0)
(121.315 0 0)
(121.169 0 0)
(121.106 0 0)
(121.352 0 0)
(121.982 0 0)
(122.355 0 0)
(122.236 0 0)
(122.003 0 0)
(121.931 0 0)
(122.179 0 0)
(122.824 0 0)
(123.23 0 0)
(123.108 0 0)
(122.81 0 0)
(122.737 0 0)
(123.125 0 0)
(123.777 0 0)
(123.984 0 0)
(123.753 0 0)
(123.483 0 0)
(123.633 0 0)
(124.224 0 0)
(124.654 0 0)
(124.542 0 0)
(124.228 0 0)
(124.248 0 0)
(124.762 0 0)
(125.264 0 0)
(125.212 0 0)
(124.9 0 0)
(124.875 0 0)
(125.359 0 0)
(125.861 0 0)
(125.813 0 0)
(125.503 0 0)
(125.497 0 0)
(125.989 0 0)
(126.445 0 0)
(126.36 0 0)
(126.054 0 0)
(126.12 0 0)
(126.641 0 0)
(127.004 0 0)
(126.851 0 0)
(126.572 0 0)
(126.76 0 0)
(127.304 0 0)
(127.517 0 0)
(127.288 0 0)
(127.095 0 0)
(127.43 0 0)
(127.942 0 0)
(127.974 0 0)
(127.692 0 0)
(127.664 0 0)
(128.121 0 0)
(128.501 0 0)
(128.375 0 0)
(128.11 0 0)
(128.282 0 0)
(128.771 0 0)
(128.933 0 0)
(128.716 0 0)
(128.5 0 0)
(128.752 0 0)
(129.32 0 0)
(129.518 0 0)
(129.296 0 0)
(129.022 0 0)
(129.035 0 0)
(129.509 0 0)
(130.037 0 0)
(130.023 0 0)
(129.704 0 0)
(129.477 0 0)
(129.683 0 0)
(130.26 0 0)
(130.548 0 0)
(130.344 0 0)
(129.993 0 0)
(129.983 0 0)
(130.44 0 0)
(130.88 0 0)
(130.798 0 0)
(130.455 0 0)
(130.293 0 0)
(130.616 0 0)
(131.106 0 0)
(131.137 0 0)
(130.837 0 0)
(130.563 0 0)
(130.708 0 0)
(131.195 0 0)
(131.401 0 0)
(131.178 0 0)
(130.837 0 0)
(130.764 0 0)
(131.118 0 0)
(131.503 0 0)
(131.417 0 0)
(131.063 0 0)
(130.799 0 0)
(130.955 0 0)
(131.347 0 0)
(131.417 0 0)
(131.163 0 0)
(130.834 0 0)
(130.794 0 0)
(131.116 0 0)
(131.358 0 0)
(131.219 0 0)
(130.911 0 0)
(130.781 0 0)
(130.937 0 0)
(131.098 0 0)
(131.081 0 0)
(130.995 0 0)
(130.844 0 0)
(130.8 0 0)
(130.935 0 0)
(131.012 0 0)
(130.948 0 0)
(130.821 0 0)
(130.646 0 0)
(130.628 0 0)
(130.763 0 0)
(130.782 0 0)
(130.671 0 0)
(130.481 0 0)
(130.38 0 0)
(130.468 0 0)
(130.51 0 0)
(130.372 0 0)
(130.176 0 0)
(130.167 0 0)
(130.25 0 0)
(130.167 0 0)
(129.952 0 0)
(129.888 0 0)
(129.969 0 0)
(129.923 0 0)
(129.706 0 0)
(129.58 0 0)
(129.645 0 0)
(129.641 0 0)
(129.438 0 0)
(129.258 0 0)
(129.296 0 0)
(129.328 0 0)
(129.152 0 0)
(128.926 0 0)
(128.924 0 0)
(128.985 0 0)
(128.847 0 0)
(128.593 0 0)
(128.536 0 0)
(128.61 0 0)
(128.523 0 0)
(128.267 0 0)
(128.149 0 0)
(128.218 0 0)
(128.184 0 0)
(127.95 0 0)
(127.774 0 0)
(127.822 0 0)
(127.838 0 0)
(127.638 0 0)
(127.415 0 0)
(127.429 0 0)
(127.486 0 0)
(127.334 0 0)
(127.085 0 0)
(127.052 0 0)
(127.134 0 0)
(127.037 0 0)
(126.787 0 0)
(126.697 0 0)
(126.784 0 0)
(126.75 0 0)
(126.529 0 0)
(126.374 0 0)
(126.442 0 0)
(126.476 0 0)
(126.303 0 0)
(126.097 0 0)
(126.12 0 0)
(126.206 0 0)
(126.096 0 0)
(125.872 0 0)
(125.832 0 0)
(125.939 0 0)
(125.901 0 0)
(125.698 0 0)
(125.581 0 0)
(125.67 0 0)
(125.709 0 0)
(125.554 0 0)
(125.375 0 0)
(125.414 0 0)
(125.511 0 0)
(125.42 0 0)
(125.219 0 0)
(125.182 0 0)
(125.296 0 0)
(125.283 0 0)
(125.11 0 0)
(124.985 0 0)
(125.067 0 0)
(125.136 0 0)
(125.023 0 0)
(124.841 0 0)
(124.847 0 0)
(124.966 0 0)
(124.933 0 0)
(124.766 0 0)
(124.669 0 0)
(124.767 0 0)
(124.834 0 0)
(124.732 0 0)
(124.564 0 0)
(124.571 0 0)
(124.698 0 0)
(124.688 0 0)
(124.547 0 0)
(124.431 0 0)
(124.513 0 0)
(124.617 0 0)
(124.558 0 0)
(124.404 0 0)
(124.354 0 0)
(124.477 0 0)
(124.541 0 0)
(124.462 0 0)
(124.312 0 0)
(124.304 0 0)
(124.445 0 0)
(124.488 0 0)
(124.412 0 0)
(124.271 0 0)
(124.262 0 0)
(124.411 0 0)
(124.472 0 0)
(124.417 0 0)
(124.295 0 0)
(124.227 0 0)
(124.355 0 0)
(124.484 0 0)
(124.47 0 0)
(124.403 0 0)
(124.283 0 0)
(124.281 0 0)
(124.448 0 0)
(124.544 0 0)
(124.525 0 0)
(124.455 0 0)
(124.357 0 0)
(124.414 0 0)
(124.584 0 0)
(124.629 0 0)
(124.585 0 0)
(124.502 0 0)
(124.55 0 0)
(124.7 0 0)
(124.738 0 0)
(124.679 0 0)
(124.67 0 0)
(124.804 0 0)
(124.909 0 0)
(124.889 0 0)
(124.848 0 0)
(124.944 0 0)
(125.098 0 0)
(125.128 0 0)
(125.093 0 0)
(125.138 0 0)
(125.303 0 0)
(125.406 0 0)
(125.421 0 0)
(125.462 0 0)
(125.645 0 0)
(125.848 0 0)
(125.944 0 0)
(125.998 0 0)
(126.133 0 0)
(126.364 0 0)
(126.525 0 0)
(126.605 0 0)
(126.682 0 0)
(126.871 0 0)
(127.091 0 0)
(127.215 0 0)
(127.287 0 0)
(127.403 0 0)
(127.629 0 0)
(127.822 0 0)
(127.932 0 0)
(128.008 0 0)
(128.166 0 0)
(128.412 0 0)
(128.583 0 0)
(128.699 0 0)
(128.797 0 0)
(128.992 0 0)
(129.25 0 0)
(129.421 0 0)
(129.54 0 0)
(129.675 0 0)
(129.89 0 0)
(130.138 0 0)
(130.32 0 0)
(130.438 0 0)
(130.605 0 0)
(130.861 0 0)
(131.135 0 0)
(131.37 0 0)
(131.506 0 0)
(131.556 0 0)
(131.772 0 0)
(132.085 0 0)
(132.305 0 0)
(132.521 0 0)
(132.716 0 0)
(133.03 0 0)
(133.364 0 0)
(133.587 0 0)
(133.717 0 0)
(133.77 0 0)
(134.044 0 0)
(134.446 0 0)
(134.696 0 0)
(134.85 0 0)
(134.932 0 0)
(135.19 0 0)
(135.581 0 0)
(135.889 0 0)
(135.983 0 0)
(135.945 0 0)
(136.149 0 0)
(136.604 0 0)
(136.993 0 0)
(137.196 0 0)
(137.157 0 0)
(137.183 0 0)
(137.544 0 0)
(138.045 0 0)
(138.362 0 0)
(138.321 0 0)
(138.173 0 0)
(138.373 0 0)
(138.916 0 0)
(139.36 0 0)
(139.591 0 0)
(139.527 0 0)
(139.423 0 0)
(139.757 0 0)
(140.391 0 0)
(140.752 0 0)
(140.682 0 0)
(140.513 0 0)
(140.696 0 0)
(141.309 0 0)
(141.94 0 0)
(142.283 0 0)
(142.243 0 0)
(142.027 0 0)
(142.226 0 0)
(142.924 0 0)
(143.504 0 0)
(143.504 0 0)
(143.292 0 0)
(143.372 0 0)
(143.994 0 0)
(144.82 0 0)
(145.271 0 0)
(145.222 0 0)
(144.95 0 0)
(145.072 0 0)
(145.784 0 0)
(146.547 0 0)
(146.638 0 0)
(146.395 0 0)
(146.457 0 0)
(147.144 0 0)
(147.959 0 0)
(148.11 0 0)
(147.868 0 0)
(147.862 0 0)
(148.49 0 0)
(149.362 0 0)
(149.617 0 0)
(149.41 0 0)
(149.358 0 0)
(149.945 0 0)
(150.84 0 0)
(151.162 0 0)
(150.979 0 0)
(150.896 0 0)
(151.436 0 0)
(152.334 0 0)
(152.718 0 0)
(152.57 0 0)
(152.444 0 0)
(152.833 0 0)
(153.741 0 0)
(154.509 0 0)
(154.621 0 0)
(154.343 0 0)
(154.247 0 0)
(154.713 0 0)
(155.644 0 0)
(156.221 0 0)
(156.137 0 0)
(155.931 0 0)
(156.242 0 0)
(157.122 0 0)
(157.824 0 0)
(157.812 0 0)
(157.574 0 0)
(157.754 0 0)
(158.55 0 0)
(159.369 0 0)
(159.469 0 0)
(159.245 0 0)
(159.352 0 0)
(160.099 0 0)
(160.953 0 0)
(161.101 0 0)
(160.888 0 0)
(160.939 0 0)
(161.634 0 0)
(162.567 0 0)
(162.858 0 0)
(162.676 0 0)
(162.598 0 0)
(163.078 0 0)
(164.048 0 0)
(164.684 0 0)
(164.643 0 0)
(164.448 0 0)
(164.596 0 0)
(165.33 0 0)
(166.301 0 0)
(166.651 0 0)
(166.505 0 0)
(166.398 0 0)
(166.668 0 0)
(167.505 0 0)
(168.396 0 0)
(168.587 0 0)
(168.412 0 0)
(168.542 0 0)
(169.266 0 0)
(169.924 0 0)
(169.963 0 0)
(169.939 0 0)
(170.475 0 0)
(171.235 0 0)
(171.398 0 0)
(171.271 0 0)
(171.574 0 0)
(172.404 0 0)
(172.926 0 0)
(172.828 0 0)
(172.666 0 0)
(173.022 0 0)
(173.949 0 0)
(174.639 0 0)
(174.654 0 0)
(174.43 0 0)
(174.383 0 0)
(174.96 0 0)
(175.954 0 0)
(176.652 0 0)
(176.474 0 0)
)
;

boundaryField
{
    sides
    {
        type            zeroGradient;
    }
    empty
    {
        type            empty;
    }
}


// ************************************************************************* //
