/*--------------------------------*- C++ -*----------------------------------*\
  =========                 |
  \\      /  F ield         | OpenFOAM: The Open Source CFD Toolbox
   \\    /   O peration     | Website:  https://openfoam.org
    \\  /    A nd           | Version:  9
     \\/     M anipulation  |
\*---------------------------------------------------------------------------*/
FoamFile
{
    format      ascii;
    class       surfaceScalarField;
    location    "0.048";
    object      phi;
}
// * * * * * * * * * * * * * * * * * * * * * * * * * * * * * * * * * * * * * //

dimensions      [1 0 -1 0 0 0 0];

internalField   nonuniform List<scalar> 
999
(
14.6571
14.812
14.9667
15.1214
15.2759
15.4303
15.5846
15.7388
15.8929
16.0469
16.2007
16.3545
16.5081
16.6616
16.8149
16.9682
17.1213
17.2742
17.427
17.5797
17.7323
17.8848
18.037
18.1891
18.341
18.4928
18.6444
18.7959
18.9473
19.0985
19.2495
19.4002
19.5508
19.7011
19.8513
20.0013
20.1513
20.301
20.4506
20.5999
20.749
20.8978
21.0463
21.1945
21.3425
21.4902
21.6378
21.7853
21.9326
22.0797
22.2267
22.3734
22.5198
22.6659
22.8116
22.9569
23.1018
23.2463
23.3904
23.5341
23.6775
23.8206
23.9637
24.1066
24.2492
24.3918
24.5342
24.6767
24.819
24.9611
25.1032
25.2449
25.3865
25.5277
25.6687
25.8093
25.9496
26.0896
26.2294
26.3689
26.5081
26.6471
26.7858
26.9243
27.0623
27.2
27.3372
27.474
27.6104
27.7463
27.8818
28.0168
28.1514
28.2855
28.4191
28.5522
28.6849
28.8171
28.9487
29.0799
29.2105
29.3407
29.4703
29.5994
29.728
29.856
29.9835
30.1105
30.2369
30.3627
30.4881
30.6128
30.737
30.8606
30.9837
31.1061
31.2281
31.3494
31.4702
31.5903
31.71
31.829
31.9474
32.0653
32.1826
32.2994
32.4155
32.5311
32.6461
32.7605
32.8744
32.9877
33.1005
33.2127
33.3244
33.4355
33.5461
33.6562
33.7657
33.8748
33.9833
34.0913
34.1989
34.3059
34.4125
34.5186
34.6243
34.7295
34.8343
34.9387
35.0427
35.1463
35.2494
35.3523
35.4547
35.5568
35.6586
35.76
35.8611
35.9619
36.0625
36.1627
36.2627
36.3625
36.462
36.5613
36.6603
36.7592
36.8579
36.9564
37.0547
37.1529
37.251
37.3489
37.4467
37.5444
37.642
37.7395
37.8369
37.9342
38.0315
38.1287
38.2259
38.3231
38.4202
38.5173
38.6144
38.7115
38.8086
38.9057
39.0028
39.0999
39.1971
39.2943
39.3915
39.4888
39.5861
39.6835
39.7809
39.8784
39.9759
40.0735
40.1712
40.2689
40.3667
40.4646
40.5626
40.6606
40.7588
40.857
40.9553
41.0537
41.1522
41.2508
41.3494
41.4482
41.5471
41.646
41.7451
41.8443
41.9435
42.0429
42.1423
42.2419
42.3416
42.4413
42.5412
42.6412
42.7413
42.8414
42.9417
43.0421
43.1426
43.2433
43.344
43.4448
43.5457
43.6468
43.7479
43.8492
43.9506
44.052
44.1536
44.2553
44.3571
44.459
44.5611
44.6632
44.7654
44.8678
44.9703
45.0728
45.1755
45.2783
45.3812
45.4842
45.5874
45.6906
45.7939
45.8974
46.001
46.1046
46.2084
46.3123
46.4164
46.5205
46.6247
46.7291
46.8335
46.9381
47.0428
47.1476
47.2525
47.3575
47.4627
47.5679
47.6733
47.7787
47.8843
47.99
48.0958
48.2018
48.3078
48.4139
48.5202
48.6266
48.7331
48.8397
48.9464
49.0532
49.1602
49.2672
49.3744
49.4817
49.5891
49.6966
49.8042
49.912
50.0198
50.1278
50.2359
50.3441
50.4524
50.5608
50.6694
50.778
50.8868
50.9957
51.1047
51.2138
51.323
51.4324
51.5419
51.6514
51.7611
51.8709
51.9808
52.0909
52.201
52.3113
52.4217
52.5322
52.6428
52.7535
52.8644
52.9754
53.0864
53.1976
53.3089
53.4204
53.5319
53.6436
53.7553
53.8672
53.9792
54.0914
54.2036
54.316
54.4284
54.541
54.6537
54.7666
54.8795
54.9926
55.1057
55.219
55.3324
55.446
55.5596
55.6734
55.7872
55.9012
56.0154
56.1296
56.2439
56.3584
56.473
56.5877
56.7025
56.8175
56.9325
57.0477
57.163
57.2784
57.3939
57.5096
57.6254
57.7412
57.8573
57.9734
58.0896
58.206
58.3225
58.4391
58.5558
58.6726
58.7896
58.9067
59.0239
59.1412
59.2587
59.3762
59.4939
59.6117
59.7296
59.8477
59.9658
60.0841
60.2025
60.321
60.4397
60.5584
60.6773
60.7963
60.9155
61.0347
61.1541
61.2736
61.3932
61.5129
61.6328
61.7528
61.8729
61.9931
62.1134
62.2339
62.3545
62.4752
62.596
62.717
62.8381
62.9593
63.0806
63.202
63.3236
63.4453
63.5671
63.689
63.8111
63.9333
64.0556
64.178
64.3006
64.4233
64.5461
64.669
64.792
64.9152
65.0385
65.1619
65.2855
65.4091
65.5329
65.6569
65.7809
65.9051
66.0294
66.1538
66.2783
66.403
66.5278
66.6527
66.7778
66.9029
67.0282
67.1536
67.2792
67.4049
67.5307
67.6566
67.7826
67.9088
68.0351
68.1615
68.2881
68.4148
68.5416
68.6685
68.7956
68.9228
69.0501
69.1775
69.3051
69.4328
69.5606
69.6886
69.8167
69.9449
70.0732
70.2017
70.3303
70.459
70.5878
70.7168
70.8459
70.9751
71.1045
71.234
71.3636
71.4934
71.6232
71.7533
71.8834
72.0137
72.144
72.2746
72.4052
72.536
72.6669
72.798
72.9291
73.0605
73.1918
73.3235
73.4551
73.587
73.7188
73.851
73.9831
74.1156
74.248
74.3807
74.5133
74.6463
74.7792
74.9124
75.0456
75.179
75.3126
75.4462
75.58
75.7139
75.848
75.9822
76.1165
76.2509
76.3855
76.5202
76.6551
76.7901
76.9252
77.0604
77.1958
77.3313
77.467
77.6028
77.7387
77.8747
78.0109
78.1472
78.2837
78.4202
78.557
78.6938
78.8308
78.9679
79.1052
79.2426
79.3801
79.5177
79.6555
79.7935
79.9315
80.0697
80.2081
80.3465
80.4851
80.6239
80.7627
80.9017
81.0409
81.1802
81.3196
81.4591
81.5988
81.7387
81.8786
82.0187
82.159
82.2993
82.4398
82.5805
82.7212
82.8621
83.0032
83.1444
83.2857
83.4272
83.5688
83.7105
83.8524
83.9944
84.1365
84.2788
84.4212
84.5638
84.7065
84.8493
84.9923
85.1354
85.2786
85.422
85.5655
85.7091
85.8529
85.9969
86.141
86.2852
86.4295
86.574
86.7186
86.8634
87.0083
87.1533
87.2985
87.4439
87.5893
87.7349
87.8807
88.0266
88.1726
88.3188
88.4651
88.6116
88.7582
88.9049
89.0518
89.1989
89.346
89.4933
89.6408
89.7884
89.9361
90.084
90.232
90.3801
90.5284
90.6768
90.8254
90.974
91.1229
91.2718
91.4209
91.5701
91.7194
91.8689
92.0185
92.1681
92.318
92.4679
92.618
92.7681
92.9184
93.0688
93.2193
93.3699
93.5206
93.6713
93.8223
93.973
94.1244
94.2752
94.4267
94.5777
94.7292
94.8805
95.0319
95.1834
95.3348
95.4866
95.638
95.7898
95.9412
96.093
96.2445
96.3963
96.5477
96.6995
96.8509
97.0025
97.1539
97.3054
97.4568
97.608
97.7592
97.9104
98.0614
98.2124
98.3632
98.5139
98.6645
98.8149
98.9652
99.1154
99.2654
99.4153
99.565
99.7145
99.8639
100.013
100.162
100.311
100.46
100.608
100.756
100.904
101.052
101.2
101.348
101.495
101.642
101.789
101.936
102.083
102.23
102.377
102.523
102.669
102.816
102.962
103.108
103.255
103.401
103.547
103.693
103.839
103.986
104.132
104.279
104.425
104.572
104.719
104.867
105.014
105.162
105.309
105.458
105.606
105.755
105.904
106.054
106.203
106.354
106.504
106.655
106.806
106.958
107.111
107.263
107.417
107.57
107.724
107.879
108.034
108.19
108.346
108.502
108.659
108.817
108.975
109.133
109.292
109.451
109.611
109.772
109.932
110.094
110.255
110.417
110.58
110.743
110.906
111.07
111.234
111.399
111.564
111.729
111.895
112.061
112.228
112.395
112.562
112.729
112.897
113.065
113.234
113.402
113.571
113.741
113.91
114.08
114.251
114.421
114.592
114.763
114.934
115.106
115.277
115.449
115.621
115.794
115.967
116.139
116.312
116.486
116.659
116.833
117.007
117.181
117.355
117.529
117.704
117.878
118.053
118.227
118.402
118.577
118.752
118.927
119.101
119.276
119.451
119.625
119.8
119.974
120.148
120.322
120.495
120.668
120.841
121.013
121.185
121.356
121.527
121.697
121.867
122.035
122.203
122.37
122.537
122.702
122.867
123.03
123.193
123.354
123.515
123.674
123.833
123.99
124.146
124.301
124.456
124.609
124.761
124.912
125.063
125.212
125.361
125.51
125.657
125.804
125.951
126.097
126.243
126.389
126.535
126.681
126.827
126.974
127.12
127.267
127.415
127.563
127.711
127.861
128.011
128.162
128.313
128.466
128.62
128.774
128.93
129.086
129.244
129.402
129.562
129.722
129.884
130.046
130.21
130.374
130.54
130.706
130.874
131.042
131.211
131.382
131.553
131.725
131.897
132.071
132.246
132.421
132.597
132.774
132.951
133.129
133.308
133.488
133.669
133.85
134.032
134.214
134.397
134.581
134.766
134.951
135.136
135.323
135.51
135.697
135.885
136.074
136.263
136.453
136.643
136.834
137.026
137.218
137.411
137.604
137.797
137.992
138.186
138.381
138.577
138.773
138.97
139.167
139.365
139.563
139.762
139.961
140.16
140.361
140.561
140.762
140.963
141.165
141.368
141.571
141.774
141.977
142.181
142.386
142.591
142.796
143.002
143.208
143.415
143.622
143.83
144.037
144.246
144.454
144.663
144.873
145.083
145.293
145.504
145.715
145.926
146.138
146.35
146.563
146.776
146.989
147.203
147.417
147.631
147.846
148.061
148.277
148.493
148.709
148.926
149.143
149.36
149.578
149.796
150.014
150.233
150.452
150.671
150.891
151.111
151.331
151.552
151.773
151.995
152.216
152.439
152.661
152.884
153.107
153.33
153.554
153.778
154.003
154.227
154.452
154.678
154.903
155.129
155.356
155.582
155.809
156.036
156.264
)
;

boundaryField
{
    sides
    {
        type            calculated;
        value           nonuniform List<scalar> 2(156.492 -14.5021);
    }
    empty
    {
        type            empty;
        value           nonuniform List<scalar> 0();
    }
}


// ************************************************************************* //
