/*--------------------------------*- C++ -*----------------------------------*\
  =========                 |
  \\      /  F ield         | OpenFOAM: The Open Source CFD Toolbox
   \\    /   O peration     | Website:  https://openfoam.org
    \\  /    A nd           | Version:  9
     \\/     M anipulation  |
\*---------------------------------------------------------------------------*/
FoamFile
{
    format      ascii;
    class       volScalarField;
    location    "0.008";
    object      T;
}
// * * * * * * * * * * * * * * * * * * * * * * * * * * * * * * * * * * * * * //

dimensions      [0 0 0 1 0 0 0];

internalField   nonuniform List<scalar> 
10000
(
348.432
348.432
348.432
348.432
348.432
348.432
348.432
348.432
348.432
348.432
348.432
348.432
348.432
348.432
348.432
348.432
348.432
348.432
348.432
348.432
348.432
348.432
348.432
348.432
348.432
348.432
348.432
348.432
348.432
348.432
348.432
348.432
348.432
348.432
348.432
348.432
348.432
348.432
348.432
348.432
348.432
348.432
348.432
348.432
348.432
348.432
348.432
348.432
348.432
348.432
348.432
348.432
348.432
348.432
348.432
348.432
348.432
348.432
348.432
348.432
348.432
348.432
348.432
348.432
348.432
348.432
348.432
348.432
348.432
348.432
348.432
348.432
348.432
348.432
348.432
348.432
348.432
348.432
348.432
348.432
348.432
348.432
348.432
348.432
348.432
348.432
348.432
348.432
348.432
348.432
348.432
348.432
348.432
348.432
348.432
348.432
348.432
348.432
348.432
348.432
348.432
348.432
348.432
348.432
348.432
348.432
348.432
348.432
348.432
348.432
348.432
348.432
348.432
348.432
348.432
348.432
348.432
348.432
348.432
348.432
348.432
348.432
348.432
348.432
348.432
348.432
348.432
348.432
348.432
348.432
348.432
348.432
348.432
348.432
348.432
348.432
348.432
348.432
348.432
348.432
348.432
348.432
348.432
348.432
348.432
348.432
348.432
348.432
348.432
348.432
348.432
348.432
348.432
348.432
348.432
348.432
348.432
348.432
348.432
348.432
348.432
348.432
348.432
348.432
348.432
348.432
348.432
348.432
348.432
348.432
348.432
348.432
348.432
348.432
348.432
348.432
348.432
348.432
348.432
348.432
348.432
348.432
348.432
348.432
348.432
348.432
348.432
348.432
348.432
348.432
348.432
348.432
348.432
348.432
348.432
348.432
348.432
348.432
348.432
348.432
348.432
348.432
348.432
348.432
348.432
348.432
348.432
348.432
348.432
348.432
348.432
348.432
348.432
348.432
348.432
348.432
348.432
348.432
348.432
348.432
348.432
348.432
348.432
348.432
348.432
348.432
348.432
348.432
348.432
348.432
348.432
348.432
348.432
348.432
348.432
348.432
348.432
348.432
348.432
348.432
348.432
348.432
348.432
348.432
348.432
348.432
348.432
348.432
348.432
348.432
348.432
348.432
348.432
348.432
348.432
348.432
348.432
348.432
348.432
348.432
348.432
348.432
348.432
348.432
348.432
348.432
348.432
348.432
348.432
348.432
348.432
348.432
348.432
348.432
348.432
348.432
348.432
348.432
348.432
348.432
348.432
348.432
348.432
348.432
348.432
348.432
348.432
348.432
348.432
348.432
348.432
348.432
348.432
348.432
348.432
348.432
348.432
348.432
348.432
348.432
348.432
348.432
348.432
348.432
348.432
348.432
348.432
348.432
348.432
348.432
348.432
348.432
348.432
348.432
348.432
348.432
348.432
348.432
348.432
348.432
348.432
348.432
348.432
348.432
348.432
348.432
348.432
348.432
348.432
348.432
348.432
348.432
348.432
348.432
348.432
348.432
348.432
348.432
348.432
348.432
348.432
348.432
348.432
348.432
348.432
348.432
348.432
348.432
348.432
348.432
348.432
348.432
348.432
348.432
348.432
348.432
348.432
348.432
348.432
348.432
348.432
348.432
348.432
348.432
348.432
348.432
348.432
348.432
348.432
348.432
348.432
348.432
348.432
348.432
348.432
348.432
348.432
348.432
348.432
348.432
348.432
348.432
348.432
348.432
348.432
348.432
348.432
348.432
348.432
348.432
348.432
348.432
348.432
348.432
348.432
348.432
348.432
348.432
348.432
348.432
348.432
348.432
348.432
348.432
348.432
348.432
348.432
348.432
348.432
348.432
348.432
348.432
348.432
348.432
348.432
348.432
348.432
348.432
348.432
348.432
348.432
348.432
348.432
348.432
348.432
348.432
348.432
348.432
348.432
348.432
348.432
348.432
348.432
348.432
348.432
348.432
348.432
348.432
348.432
348.432
348.432
348.432
348.432
348.432
348.432
348.432
348.432
348.432
348.432
348.432
348.432
348.432
348.432
348.432
348.432
348.432
348.432
348.432
348.432
348.432
348.432
348.432
348.432
348.432
348.432
348.432
348.432
348.432
348.432
348.432
348.432
348.432
348.432
348.432
348.432
348.432
348.432
348.432
348.432
348.432
348.432
348.432
348.432
348.432
348.432
348.432
348.432
348.432
348.432
348.432
348.432
348.432
348.432
348.432
348.432
348.432
348.432
348.432
348.432
348.432
348.432
348.432
348.432
348.432
348.432
348.432
348.432
348.432
348.432
348.432
348.432
348.432
348.432
348.432
348.432
348.432
348.432
348.432
348.432
348.432
348.432
348.432
348.432
348.432
348.432
348.432
348.432
348.432
348.432
348.432
348.432
348.432
348.432
348.432
348.432
348.432
348.432
348.432
348.432
348.432
348.432
348.432
348.432
348.432
348.432
348.432
348.432
348.432
348.432
348.432
348.432
348.432
348.432
348.432
348.432
348.432
348.432
348.432
348.432
348.432
348.432
348.432
348.432
348.432
348.432
348.432
348.432
348.432
348.432
348.432
348.432
348.432
348.432
348.432
348.432
348.432
348.432
348.432
348.432
348.432
348.432
348.432
348.432
348.432
348.432
348.432
348.432
348.432
348.432
348.432
348.432
348.432
348.432
348.432
348.432
348.432
348.432
348.432
348.432
348.432
348.432
348.432
348.432
348.432
348.432
348.432
348.432
348.432
348.432
348.432
348.432
348.432
348.432
348.432
348.432
348.432
348.432
348.432
348.432
348.432
348.432
348.432
348.432
348.432
348.432
348.432
348.432
348.432
348.432
348.432
348.432
348.432
348.432
348.432
348.432
348.432
348.432
348.432
348.432
348.432
348.432
348.432
348.432
348.432
348.432
348.432
348.432
348.432
348.432
348.432
348.432
348.432
348.432
348.432
348.432
348.432
348.432
348.432
348.432
348.432
348.432
348.432
348.432
348.432
348.432
348.432
348.432
348.432
348.432
348.432
348.432
348.432
348.432
348.432
348.432
348.432
348.432
348.432
348.432
348.432
348.432
348.432
348.432
348.432
348.432
348.432
348.432
348.432
348.432
348.432
348.432
348.432
348.432
348.432
348.432
348.432
348.432
348.432
348.432
348.432
348.432
348.432
348.432
348.432
348.432
348.432
348.432
348.432
348.432
348.432
348.432
348.432
348.432
348.432
348.432
348.432
348.432
348.432
348.432
348.432
348.432
348.432
348.432
348.432
348.432
348.432
348.432
348.432
348.432
348.432
348.432
348.432
348.432
348.432
348.432
348.432
348.432
348.432
348.432
348.432
348.432
348.432
348.432
348.432
348.432
348.432
348.432
348.432
348.432
348.432
348.432
348.432
348.432
348.432
348.432
348.432
348.432
348.432
348.432
348.432
348.432
348.432
348.432
348.432
348.432
348.432
348.432
348.432
348.432
348.432
348.432
348.432
348.432
348.432
348.432
348.432
348.432
348.432
348.432
348.432
348.432
348.432
348.432
348.432
348.432
348.432
348.432
348.432
348.432
348.432
348.432
348.432
348.432
348.432
348.432
348.432
348.432
348.432
348.432
348.432
348.432
348.432
348.432
348.432
348.432
348.432
348.432
348.432
348.432
348.432
348.432
348.432
348.432
348.432
348.432
348.432
348.432
348.432
348.432
348.432
348.432
348.432
348.432
348.432
348.432
348.432
348.432
348.432
348.432
348.432
348.432
348.432
348.432
348.432
348.432
348.432
348.432
348.432
348.432
348.432
348.432
348.432
348.432
348.432
348.432
348.432
348.432
348.432
348.432
348.432
348.432
348.432
348.432
348.432
348.432
348.432
348.432
348.432
348.432
348.432
348.432
348.432
348.432
348.432
348.432
348.432
348.432
348.432
348.432
348.432
348.432
348.432
348.432
348.432
348.432
348.432
348.432
348.432
348.432
348.432
348.432
348.432
348.432
348.432
348.432
348.432
348.432
348.432
348.432
348.432
348.432
348.432
348.432
348.432
348.432
348.432
348.432
348.432
348.432
348.432
348.432
348.432
348.432
348.432
348.432
348.432
348.432
348.432
348.432
348.432
348.432
348.432
348.432
348.432
348.432
348.432
348.432
348.432
348.432
348.432
348.432
348.432
348.432
348.432
348.432
348.432
348.432
348.432
348.432
348.432
348.432
348.432
348.432
348.432
348.432
348.432
348.432
348.432
348.432
348.432
348.432
348.432
348.432
348.432
348.432
348.432
348.432
348.432
348.432
348.432
348.432
348.432
348.432
348.432
348.432
348.432
348.432
348.432
348.432
348.432
348.432
348.432
348.432
348.432
348.432
348.432
348.432
348.432
348.432
348.432
348.432
348.432
348.432
348.432
348.432
348.432
348.432
348.432
348.432
348.432
348.432
348.432
348.432
348.432
348.432
348.432
348.432
348.432
348.432
348.432
348.432
348.432
348.432
348.432
348.432
348.432
348.432
348.432
348.432
348.432
348.432
348.432
348.432
348.432
348.432
348.432
348.432
348.432
348.432
348.432
348.432
348.432
348.432
348.432
348.432
348.432
348.432
348.432
348.432
348.432
348.432
348.432
348.432
348.432
348.432
348.432
348.432
348.432
348.432
348.432
348.432
348.432
348.432
348.432
348.432
348.432
348.432
348.432
348.432
348.432
348.432
348.432
348.432
348.432
348.432
348.432
348.432
348.432
348.432
348.432
348.432
348.432
348.432
348.432
348.432
348.432
348.432
348.432
348.432
348.432
348.432
348.432
348.432
348.432
348.432
348.432
348.432
348.432
348.432
348.432
348.432
348.432
348.432
348.432
348.432
348.432
348.432
348.432
348.432
348.432
348.432
348.432
348.432
348.432
348.432
348.432
348.432
348.432
348.432
348.432
348.432
348.432
348.432
348.432
348.432
348.432
348.432
348.432
348.432
348.432
348.432
348.432
348.432
348.432
348.432
348.432
348.432
348.432
348.432
348.432
348.432
348.432
348.432
348.432
348.432
348.432
348.432
348.432
348.432
348.432
348.432
348.432
348.432
348.432
348.432
348.432
348.432
348.432
348.432
348.432
348.432
348.432
348.432
348.432
348.432
348.432
348.432
348.432
348.432
348.432
348.432
348.432
348.432
348.432
348.432
348.432
348.432
348.432
348.432
348.432
348.432
348.432
348.432
348.432
348.432
348.432
348.432
348.432
348.432
348.432
348.432
348.432
348.432
348.432
348.432
348.432
348.432
348.432
348.432
348.432
348.432
348.432
348.432
348.432
348.432
348.432
348.432
348.432
348.432
348.432
348.432
348.432
348.432
348.432
348.432
348.432
348.432
348.432
348.432
348.432
348.432
348.432
348.432
348.432
348.432
348.432
348.432
348.432
348.432
348.432
348.432
348.432
348.432
348.432
348.432
348.432
348.432
348.432
348.432
348.432
348.432
348.432
348.432
348.432
348.432
348.432
348.432
348.432
348.432
348.432
348.432
348.432
348.432
348.432
348.432
348.432
348.432
348.432
348.432
348.432
348.432
348.432
348.432
348.432
348.432
348.432
348.432
348.432
348.432
348.432
348.432
348.432
348.432
348.432
348.432
348.432
348.432
348.432
348.432
348.432
348.432
348.432
348.432
348.432
348.432
348.432
348.432
348.432
348.432
348.432
348.432
348.432
348.432
348.432
348.432
348.432
348.432
348.432
348.432
348.432
348.432
348.432
348.432
348.432
348.432
348.432
348.432
348.432
348.432
348.432
348.432
348.432
348.432
348.432
348.432
348.432
348.432
348.432
348.432
348.432
348.432
348.432
348.432
348.432
348.432
348.432
348.432
348.432
348.432
348.432
348.432
348.432
348.432
348.432
348.432
348.432
348.432
348.432
348.432
348.432
348.432
348.432
348.432
348.432
348.432
348.432
348.432
348.432
348.432
348.432
348.432
348.432
348.432
348.432
348.432
348.432
348.432
348.432
348.432
348.432
348.432
348.432
348.432
348.432
348.432
348.432
348.432
348.432
348.432
348.432
348.432
348.432
348.432
348.432
348.432
348.432
348.432
348.432
348.432
348.432
348.432
348.432
348.432
348.432
348.432
348.432
348.432
348.432
348.432
348.432
348.432
348.432
348.432
348.432
348.432
348.432
348.432
348.432
348.432
348.432
348.432
348.432
348.432
348.432
348.432
348.432
348.432
348.432
348.432
348.432
348.432
348.432
348.432
348.432
348.432
348.432
348.432
348.432
348.432
348.432
348.432
348.432
348.432
348.432
348.432
348.432
348.432
348.432
348.432
348.432
348.432
348.432
348.432
348.432
348.432
348.432
348.432
348.432
348.432
348.432
348.432
348.432
348.432
348.432
348.432
348.432
348.432
348.432
348.432
348.432
348.432
348.432
348.432
348.432
348.432
348.432
348.432
348.432
348.432
348.432
348.432
348.432
348.432
348.432
348.432
348.432
348.432
348.432
348.432
348.432
348.432
348.432
348.432
348.432
348.432
348.432
348.432
348.432
348.432
348.432
348.432
348.432
348.432
348.432
348.432
348.432
348.432
348.432
348.432
348.432
348.432
348.432
348.432
348.432
348.432
348.432
348.432
348.432
348.432
348.432
348.432
348.432
348.432
348.432
348.432
348.432
348.432
348.432
348.432
348.432
348.432
348.432
348.432
348.432
348.432
348.432
348.432
348.432
348.432
348.432
348.432
348.432
348.432
348.432
348.432
348.432
348.432
348.432
348.432
348.432
348.432
348.432
348.432
348.432
348.432
348.432
348.432
348.432
348.432
348.432
348.432
348.432
348.432
348.432
348.432
348.432
348.432
348.432
348.432
348.432
348.432
348.432
348.432
348.432
348.432
348.432
348.432
348.432
348.432
348.432
348.432
348.432
348.432
348.432
348.432
348.432
348.432
348.432
348.432
348.432
348.432
348.432
348.432
348.432
348.432
348.432
348.432
348.432
348.432
348.432
348.432
348.432
348.432
348.432
348.432
348.432
348.432
348.432
348.432
348.432
348.432
348.432
348.432
348.432
348.432
348.432
348.432
348.432
348.432
348.432
348.432
348.432
348.432
348.432
348.432
348.432
348.432
348.432
348.432
348.432
348.432
348.432
348.432
348.432
348.432
348.432
348.432
348.432
348.432
348.432
348.432
348.432
348.432
348.432
348.432
348.432
348.432
348.432
348.432
348.432
348.432
348.432
348.432
348.432
348.432
348.432
348.432
348.432
348.432
348.432
348.432
348.432
348.432
348.432
348.432
348.432
348.432
348.432
348.432
348.432
348.432
348.432
348.432
348.432
348.432
348.432
348.432
348.432
348.432
348.432
348.432
348.432
348.432
348.432
348.432
348.432
348.432
348.432
348.432
348.432
348.432
348.432
348.432
348.432
348.432
348.432
348.432
348.432
348.432
348.432
348.432
348.432
348.432
348.432
348.432
348.432
348.432
348.432
348.432
348.432
348.432
348.432
348.432
348.432
348.432
348.432
348.432
348.432
348.432
348.432
348.432
348.432
348.432
348.432
348.432
348.432
348.432
348.432
348.432
348.432
348.432
348.432
348.432
348.432
348.432
348.432
348.432
348.432
348.432
348.432
348.432
348.432
348.432
348.432
348.432
348.432
348.432
348.432
348.432
348.432
348.432
348.432
348.432
348.432
348.432
348.432
348.432
348.432
348.432
348.432
348.432
348.432
348.432
348.432
348.432
348.432
348.432
348.432
348.432
348.432
348.432
348.432
348.432
348.432
348.432
348.432
348.432
348.432
348.432
348.432
348.432
348.432
348.432
348.432
348.432
348.432
348.432
348.432
348.432
348.432
348.432
348.432
348.432
348.432
348.432
348.432
348.432
348.432
348.432
348.432
348.432
348.432
348.432
348.432
348.432
348.432
348.432
348.432
348.432
348.432
348.432
348.432
348.432
348.432
348.432
348.432
348.432
348.432
348.432
348.432
348.432
348.432
348.432
348.432
348.432
348.432
348.432
348.432
348.432
348.432
348.432
348.432
348.432
348.432
348.432
348.432
348.432
348.432
348.432
348.432
348.432
348.432
348.432
348.432
348.432
348.432
348.432
348.432
348.432
348.432
348.432
348.432
348.432
348.432
348.432
348.432
348.432
348.432
348.432
348.432
348.432
348.432
348.432
348.432
348.432
348.432
348.432
348.432
348.432
348.432
348.432
348.432
348.432
348.432
348.432
348.432
348.432
348.432
348.432
348.432
348.432
348.432
348.432
348.432
348.432
348.432
348.432
348.432
348.432
348.432
348.432
348.432
348.432
348.432
348.432
348.432
348.432
348.432
348.432
348.432
348.432
348.432
348.432
348.432
348.432
348.432
348.432
348.432
348.432
348.432
348.432
348.432
348.432
348.432
348.432
348.432
348.432
348.432
348.432
348.432
348.432
348.432
348.432
348.432
348.431
348.431
348.431
348.431
348.431
348.431
348.431
348.431
348.431
348.431
348.431
348.43
348.43
348.43
348.43
348.43
348.43
348.429
348.429
348.429
348.428
348.428
348.428
348.427
348.427
348.426
348.426
348.425
348.425
348.424
348.424
348.423
348.422
348.421
348.42
348.419
348.418
348.417
348.416
348.415
348.414
348.412
348.411
348.409
348.407
348.406
348.404
348.402
348.399
348.397
348.395
348.392
348.389
348.386
348.383
348.38
348.377
348.373
348.37
348.366
348.362
348.357
348.353
348.348
348.343
348.338
348.333
348.327
348.321
348.315
348.309
348.302
348.295
348.288
348.281
348.273
348.265
348.257
348.248
348.239
348.23
348.221
348.211
348.201
348.191
348.18
348.169
348.158
348.146
348.134
348.122
348.109
348.096
348.083
348.069
348.055
348.041
348.026
348.011
347.996
347.98
347.964
347.948
347.931
347.914
347.897
347.88
347.862
347.843
347.825
347.806
347.787
347.767
347.748
347.728
347.707
347.687
347.666
347.644
347.623
347.601
347.579
347.556
347.534
347.511
347.487
347.464
347.44
347.416
347.392
347.368
347.343
347.318
347.293
347.267
347.241
347.216
347.189
347.163
347.136
347.11
347.083
347.056
347.028
347.001
346.973
346.945
346.917
346.888
346.86
346.831
346.802
346.773
346.744
346.715
346.685
346.655
346.626
346.596
346.565
346.535
346.505
346.474
346.443
346.413
346.382
346.351
346.319
346.288
346.256
346.225
346.193
346.161
346.129
346.097
346.065
346.033
346.001
345.968
345.936
345.903
345.87
345.837
345.804
345.771
345.738
345.705
345.672
345.638
345.605
345.571
345.538
345.504
345.47
345.437
345.403
345.369
345.335
345.301
345.266
345.232
345.198
345.163
345.129
345.095
345.06
345.025
344.991
344.956
344.921
344.886
344.852
344.817
344.782
344.747
344.712
344.676
344.641
344.606
344.571
344.535
344.5
344.465
344.429
344.394
344.358
344.323
344.287
344.252
344.216
344.18
344.144
344.109
344.073
344.037
344.001
343.965
343.929
343.893
343.857
343.821
343.785
343.749
343.713
343.677
343.641
343.605
343.568
343.532
343.496
343.459
343.423
343.387
343.35
343.314
343.278
343.241
343.205
343.168
343.132
343.095
343.058
343.022
342.985
342.949
342.912
342.875
342.839
342.802
342.765
342.729
342.692
342.655
342.618
342.581
342.545
342.508
342.471
342.434
342.397
342.36
342.323
342.287
342.25
342.213
342.176
342.139
342.102
342.065
342.028
341.991
341.954
341.917
341.879
341.842
341.805
341.768
341.731
341.694
341.657
341.62
341.583
341.545
341.508
341.471
341.434
341.397
341.359
341.322
341.285
341.248
341.21
341.173
341.136
341.099
341.061
341.024
340.987
340.949
340.912
340.875
340.837
340.8
340.763
340.725
340.688
340.651
340.613
340.576
340.538
340.501
340.464
340.426
340.389
340.351
340.314
340.276
340.239
340.202
340.164
340.127
340.089
340.052
340.014
339.977
339.939
339.902
339.864
339.827
339.789
339.752
339.714
339.677
339.639
339.602
339.564
339.526
339.489
339.451
339.414
339.376
339.339
339.301
339.264
339.226
339.188
339.151
339.113
339.076
339.038
339
338.963
338.925
338.888
338.85
338.812
338.775
338.737
338.7
338.662
338.624
338.587
338.549
338.511
338.474
338.436
338.398
338.361
338.323
338.286
338.248
338.21
338.173
338.135
338.097
338.06
338.022
337.984
337.947
337.909
337.871
337.834
337.796
337.758
337.721
337.683
337.645
337.607
337.57
337.532
337.494
337.457
337.419
337.381
337.344
337.306
337.268
337.23
337.193
337.155
337.117
337.08
337.042
337.004
336.967
336.929
336.891
336.853
336.816
336.778
336.74
336.703
336.665
336.627
336.589
336.552
336.514
336.476
336.438
336.401
336.363
336.325
336.288
336.25
336.212
336.174
336.137
336.099
336.061
336.023
335.986
335.948
335.91
335.873
335.835
335.797
335.759
335.722
335.684
335.646
335.608
335.571
335.533
335.495
335.458
335.42
335.382
335.344
335.307
335.269
335.231
335.193
335.156
335.118
335.08
335.042
335.005
334.967
334.929
334.891
334.854
334.816
334.778
334.741
334.703
334.665
334.627
334.59
334.552
334.514
334.476
334.439
334.401
334.363
334.325
334.288
334.25
334.212
334.175
334.137
334.099
334.061
334.024
333.986
333.948
333.91
333.873
333.835
333.797
333.76
333.722
333.684
333.646
333.609
333.571
333.533
333.496
333.458
333.42
333.382
333.345
333.307
333.269
333.231
333.194
333.156
333.118
333.081
333.043
333.005
332.968
332.93
332.892
332.854
332.817
332.779
332.741
332.704
332.666
332.628
332.59
332.553
332.515
332.477
332.44
332.402
332.364
332.327
332.289
332.251
332.213
332.176
332.138
332.1
332.063
332.025
331.987
331.95
331.912
331.874
331.837
331.799
331.761
331.724
331.686
331.648
331.61
331.573
331.535
331.497
331.46
331.422
331.384
331.347
331.309
331.271
331.234
331.196
331.158
331.121
331.083
331.045
331.008
330.97
330.932
330.895
330.857
330.82
330.782
330.744
330.707
330.669
330.631
330.594
330.556
330.518
330.481
330.443
330.405
330.368
330.33
330.293
330.255
330.217
330.18
330.142
330.104
330.067
330.029
329.991
329.954
329.916
329.879
329.841
329.803
329.766
329.728
329.691
329.653
329.615
329.578
329.54
329.502
329.465
329.427
329.39
329.352
329.314
329.277
329.239
329.202
329.164
329.126
329.089
329.051
329.014
328.976
328.939
328.901
328.863
328.826
328.788
328.751
328.713
328.675
328.638
328.6
328.563
328.525
328.488
328.45
328.412
328.375
328.337
328.3
328.262
328.225
328.187
328.15
328.112
328.074
328.037
327.999
327.962
327.924
327.887
327.849
327.812
327.774
327.737
327.699
327.661
327.624
327.586
327.549
327.511
327.474
327.436
327.399
327.361
327.324
327.286
327.249
327.211
327.174
327.136
327.099
327.061
327.024
326.986
326.949
326.911
326.874
326.836
326.799
326.761
326.724
326.686
326.649
326.611
326.574
326.536
326.499
326.461
326.424
326.386
326.349
326.311
326.274
326.236
326.199
326.161
326.124
326.086
326.049
326.012
325.974
325.937
325.899
325.862
325.824
325.787
325.749
325.712
325.674
325.637
325.6
325.562
325.525
325.487
325.45
325.412
325.375
325.338
325.3
325.263
325.225
325.188
325.15
325.113
325.076
325.038
325.001
324.963
324.926
324.888
324.851
324.814
324.776
324.739
324.701
324.664
324.627
324.589
324.552
324.514
324.477
324.44
324.402
324.365
324.328
324.29
324.253
324.215
324.178
324.141
324.103
324.066
324.029
323.991
323.954
323.916
323.879
323.842
323.804
323.767
323.73
323.692
323.655
323.618
323.58
323.543
323.506
323.468
323.431
323.394
323.356
323.319
323.282
323.244
323.207
323.17
323.132
323.095
323.058
323.02
322.983
322.946
322.908
322.871
322.834
322.796
322.759
322.722
322.685
322.647
322.61
322.573
322.535
322.498
322.461
322.423
322.386
322.349
322.312
322.274
322.237
322.2
322.162
322.125
322.088
322.051
322.013
321.976
321.939
321.902
321.864
321.827
321.79
321.753
321.715
321.678
321.641
321.604
321.566
321.529
321.492
321.455
321.417
321.38
321.343
321.306
321.268
321.231
321.194
321.157
321.12
321.082
321.045
321.008
320.971
320.933
320.896
320.859
320.822
320.785
320.747
320.71
320.673
320.636
320.599
320.561
320.524
320.487
320.45
320.413
320.375
320.338
320.301
320.264
320.227
320.19
320.152
320.115
320.078
320.041
320.004
319.967
319.929
319.892
319.855
319.818
319.781
319.744
319.707
319.669
319.632
319.595
319.558
319.521
319.484
319.447
319.409
319.372
319.335
319.298
319.261
319.224
319.187
319.15
319.112
319.075
319.038
319.001
318.964
318.927
318.89
318.853
318.816
318.778
318.741
318.704
318.667
318.63
318.593
318.556
318.519
318.482
318.445
318.408
318.37
318.333
318.296
318.259
318.222
318.185
318.148
318.111
318.074
318.037
318
317.963
317.926
317.889
317.852
317.815
317.778
317.74
317.703
317.666
317.629
317.592
317.555
317.518
317.481
317.444
317.407
317.37
317.333
317.296
317.259
317.222
317.185
317.148
317.111
317.074
317.037
317
316.963
316.926
316.889
316.852
316.815
316.778
316.741
316.704
316.667
316.63
316.593
316.556
316.519
316.482
316.445
316.408
316.371
316.334
316.297
316.26
316.224
316.187
316.15
316.113
316.076
316.039
316.002
315.965
315.928
315.891
315.854
315.817
315.78
315.743
315.706
315.669
315.632
315.596
315.559
315.522
315.485
315.448
315.411
315.374
315.337
315.3
315.263
315.226
315.189
315.153
315.116
315.079
315.042
315.005
314.968
314.931
314.894
314.857
314.821
314.784
314.747
314.71
314.673
314.636
314.599
314.562
314.526
314.489
314.452
314.415
314.378
314.341
314.304
314.268
314.231
314.194
314.157
314.12
314.083
314.047
314.01
313.973
313.936
313.899
313.862
313.826
313.789
313.752
313.715
313.678
313.641
313.605
313.568
313.531
313.494
313.457
313.421
313.384
313.347
313.31
313.273
313.237
313.2
313.163
313.126
313.089
313.053
313.016
312.979
312.942
312.906
312.869
312.832
312.795
312.759
312.722
312.685
312.648
312.612
312.575
312.538
312.501
312.464
312.428
312.391
312.354
312.318
312.281
312.244
312.207
312.171
312.134
312.097
312.06
312.024
311.987
311.95
311.914
311.877
311.84
311.803
311.767
311.73
311.693
311.657
311.62
311.583
311.546
311.51
311.473
311.436
311.4
311.363
311.326
311.29
311.253
311.216
311.18
311.143
311.106
311.07
311.033
310.996
310.96
310.923
310.886
310.85
310.813
310.776
310.74
310.703
310.666
310.63
310.593
310.557
310.52
310.483
310.447
310.41
310.373
310.337
310.3
310.263
310.227
310.19
310.154
310.117
310.08
310.044
310.007
309.971
309.934
309.897
309.861
309.824
309.788
309.751
309.714
309.678
309.641
309.605
309.568
309.532
309.495
309.458
309.422
309.385
309.349
309.312
309.276
309.239
309.202
309.166
309.129
309.093
309.056
309.02
308.983
308.947
308.91
308.873
308.837
308.8
308.764
308.727
308.691
308.654
308.618
308.581
308.545
308.508
308.472
308.435
308.399
308.362
308.326
308.289
308.253
308.216
308.18
308.143
308.107
308.07
308.034
307.997
307.961
307.924
307.888
307.851
307.815
307.778
307.742
307.705
307.669
307.632
307.596
307.559
307.523
307.487
307.45
307.414
307.377
307.341
307.304
307.268
307.231
307.195
307.159
307.122
307.086
307.049
307.013
306.976
306.94
306.904
306.867
306.831
306.794
306.758
306.721
306.685
306.649
306.612
306.576
306.539
306.503
306.467
306.43
306.394
306.357
306.321
306.285
306.248
306.212
306.176
306.139
306.103
306.066
306.03
305.994
305.957
305.921
305.885
305.848
305.812
305.775
305.739
305.703
305.666
305.63
305.594
305.557
305.521
305.485
305.448
305.412
305.376
305.339
305.303
305.267
305.23
305.194
305.158
305.121
305.085
305.049
305.013
304.976
304.94
304.904
304.867
304.831
304.795
304.758
304.722
304.686
304.65
304.613
304.577
304.541
304.504
304.468
304.432
304.396
304.359
304.323
304.287
304.251
304.214
304.178
304.142
304.105
304.069
304.033
303.997
303.96
303.924
303.888
303.852
303.816
303.779
303.743
303.707
303.671
303.634
303.598
303.562
303.526
303.49
303.453
303.417
303.381
303.345
303.308
303.272
303.236
303.2
303.164
303.127
303.091
303.055
303.019
302.983
302.947
302.91
302.874
302.838
302.802
302.766
302.729
302.693
302.657
302.621
302.585
302.549
302.512
302.476
302.44
302.404
302.368
302.332
302.296
302.259
302.223
302.187
302.151
302.115
302.079
302.043
302.007
301.97
301.934
301.898
301.862
301.826
301.79
301.754
301.718
301.681
301.645
301.609
301.573
301.537
301.501
301.465
301.429
301.393
301.357
301.321
301.284
301.248
301.212
301.176
301.14
301.104
301.068
301.032
300.996
300.96
300.924
300.888
300.852
300.816
300.78
300.743
300.707
300.671
300.635
300.599
300.563
300.527
300.491
300.455
300.419
300.383
300.347
300.311
300.275
300.239
300.203
300.167
300.131
300.095
300.059
300.023
299.987
299.951
299.915
299.879
299.843
299.807
299.771
299.735
299.699
299.663
299.627
299.591
299.555
299.519
299.483
299.447
299.411
299.375
299.339
299.303
299.267
299.231
299.195
299.16
299.124
299.088
299.052
299.016
298.98
298.944
298.908
298.872
298.836
298.8
298.764
298.728
298.692
298.656
298.621
298.585
298.549
298.513
298.477
298.441
298.405
298.369
298.333
298.297
298.261
298.226
298.19
298.154
298.118
298.082
298.046
298.01
297.974
297.939
297.903
297.867
297.831
297.795
297.759
297.723
297.687
297.652
297.616
297.58
297.544
297.508
297.472
297.437
297.401
297.365
297.329
297.293
297.257
297.221
297.186
297.15
297.114
297.078
297.042
297.007
296.971
296.935
296.899
296.863
296.827
296.792
296.756
296.72
296.684
296.648
296.613
296.577
296.541
296.505
296.47
296.434
296.398
296.362
296.326
296.291
296.255
296.219
296.183
296.148
296.112
296.076
296.04
296.005
295.969
295.933
295.897
295.862
295.826
295.79
295.754
295.719
295.683
295.647
295.611
295.576
295.54
295.504
295.469
295.433
295.397
295.361
295.326
295.29
295.254
295.219
295.183
295.147
295.111
295.076
295.04
295.004
294.969
294.933
294.897
294.862
294.826
294.79
294.755
294.719
294.683
294.648
294.612
294.576
294.541
294.505
294.469
294.434
294.398
294.362
294.327
294.291
294.255
294.22
294.184
294.148
294.113
294.077
294.042
294.006
293.97
293.935
293.899
293.863
293.828
293.792
293.757
293.721
293.685
293.65
293.614
293.579
293.543
293.507
293.472
293.436
293.401
293.365
293.329
293.294
293.258
293.223
293.187
293.151
293.116
293.08
293.045
293.009
292.974
292.938
292.902
292.867
292.831
292.796
292.76
292.725
292.69
292.654
292.619
292.584
292.548
292.513
292.477
292.441
292.405
292.369
292.334
292.298
292.262
292.227
292.192
292.158
292.123
292.09
292.057
292.024
291.992
291.96
291.926
291.891
291.854
291.816
291.777
291.738
291.7
291.663
291.627
291.591
291.557
291.524
291.492
291.462
291.433
291.406
291.379
291.353
291.325
291.295
291.261
291.224
291.184
291.143
291.1
291.058
291.016
290.976
290.937
290.899
290.862
290.826
290.793
290.76
290.729
290.7
290.671
290.644
290.618
290.592
290.565
290.536
290.506
290.472
290.436
290.397
290.357
290.315
290.272
290.23
290.188
290.147
290.107
290.067
290.029
289.991
289.954
289.918
289.882
289.848
289.815
289.783
289.752
289.721
289.691
289.661
289.632
289.603
289.573
289.542
289.51
289.476
289.44
289.402
289.363
289.323
289.283
289.242
289.202
289.161
289.121
289.082
289.042
289.003
288.964
288.925
288.886
288.848
288.809
288.772
288.734
288.696
288.659
288.622
288.584
288.548
288.51
288.475
288.437
288.402
288.364
288.33
288.291
288.258
288.219
288.186
288.146
288.115
288.074
288.044
288.002
287.973
287.931
287.903
287.861
287.833
287.791
287.765
287.723
287.697
287.656
287.629
287.587
287.559
287.518
287.487
287.446
287.415
287.376
287.344
287.306
287.274
287.238
287.205
287.171
287.139
287.106
287.073
287.04
287.006
286.972
286.937
286.901
286.865
286.828
286.792
286.757
286.721
286.687
286.652
286.619
286.585
286.552
286.519
286.487
286.454
286.421
286.387
286.352
286.317
286.281
286.244
286.208
286.172
286.136
286.101
286.066
286.031