/*--------------------------------*- C++ -*----------------------------------*\
  =========                 |
  \\      /  F ield         | OpenFOAM: The Open Source CFD Toolbox
   \\    /   O peration     | Website:  https://openfoam.org
    \\  /    A nd           | Version:  9
     \\/     M anipulation  |
\*---------------------------------------------------------------------------*/
FoamFile
{
    format      ascii;
    class       volScalarField;
    location    "0.039";
    object      T;
}
// * * * * * * * * * * * * * * * * * * * * * * * * * * * * * * * * * * * * * //

dimensions      [0 0 0 1 0 0 0];

internalField   nonuniform List<scalar> 
100
(
204.936
204.795
204.695
204.588
204.483
204.422
204.34
204.273
204.251
204.21
204.154
204.13
204.093
203.986
203.876
203.835
203.772
203.638
203.535
203.504
203.496
203.472
203.389
203.334
203.33
203.34
203.354
203.35
203.319
203.302
203.303
203.321
203.349
203.354
203.348
203.342
203.346
203.365
203.426
203.494
203.586
203.735
203.99
204.291
204.722
205.144
205.482
205.948
206.255
206.552
207.147
207.646
207.857
208.239
208.772
209.089
209.285
209.527
210.108
210.691
210.94
211.164
211.702
212.327
212.567
212.82
213.425
213.981
214.221
214.408
214.701
215.375
216.148
216.413
216.809
217.717
219.712
224.082
233.107
248.287
262.555
255.82
246.904
243.388
242.887
242.512
242.187
242.058
242.062
242.134
242.238
242.267
242.267
242.314
242.272
242.266
242.189
242.108
241.955
242.119
)
;

boundaryField
{
    sides
    {
        type            zeroGradient;
    }
    empty
    {
        type            empty;
    }
}


// ************************************************************************* //
