/*--------------------------------*- C++ -*----------------------------------*\
  =========                 |
  \\      /  F ield         | OpenFOAM: The Open Source CFD Toolbox
   \\    /   O peration     | Website:  https://openfoam.org
    \\  /    A nd           | Version:  9
     \\/     M anipulation  |
\*---------------------------------------------------------------------------*/
FoamFile
{
    format      ascii;
    class       volVectorField;
    location    "0.049";
    object      U;
}
// * * * * * * * * * * * * * * * * * * * * * * * * * * * * * * * * * * * * * //

dimensions      [0 1 -1 0 0 0 0];

internalField   nonuniform List<vector> 
1000
(
(20.0377 0 0)
(20.2463 0 0)
(20.5215 0 0)
(20.7488 0 0)
(20.9456 0 0)
(21.1395 0 0)
(21.3383 0 0)
(21.5396 0 0)
(21.7408 0 0)
(21.9413 0 0)
(22.1415 0 0)
(22.3416 0 0)
(22.5415 0 0)
(22.7413 0 0)
(22.9409 0 0)
(23.1403 0 0)
(23.3395 0 0)
(23.5386 0 0)
(23.7374 0 0)
(23.936 0 0)
(24.1343 0 0)
(24.3325 0 0)
(24.5304 0 0)
(24.728 0 0)
(24.9254 0 0)
(25.1225 0 0)
(25.3193 0 0)
(25.5158 0 0)
(25.7121 0 0)
(25.908 0 0)
(26.1036 0 0)
(26.2989 0 0)
(26.4938 0 0)
(26.6884 0 0)
(26.8827 0 0)
(27.0766 0 0)
(27.2701 0 0)
(27.4633 0 0)
(27.6561 0 0)
(27.8484 0 0)
(28.0404 0 0)
(28.2319 0 0)
(28.423 0 0)
(28.6137 0 0)
(28.804 0 0)
(28.9939 0 0)
(29.1834 0 0)
(29.3724 0 0)
(29.5607 0 0)
(29.7485 0 0)
(29.9358 0 0)
(30.1226 0 0)
(30.3088 0 0)
(30.4946 0 0)
(30.6798 0 0)
(30.8644 0 0)
(31.0484 0 0)
(31.2319 0 0)
(31.4148 0 0)
(31.597 0 0)
(31.7787 0 0)
(31.9597 0 0)
(32.14 0 0)
(32.3198 0 0)
(32.4988 0 0)
(32.6772 0 0)
(32.8549 0 0)
(33.0318 0 0)
(33.2081 0 0)
(33.3836 0 0)
(33.5584 0 0)
(33.7325 0 0)
(33.9058 0 0)
(34.0783 0 0)
(34.25 0 0)
(34.4209 0 0)
(34.591 0 0)
(34.7603 0 0)
(34.9287 0 0)
(35.0963 0 0)
(35.2631 0 0)
(35.429 0 0)
(35.5941 0 0)
(35.7582 0 0)
(35.9215 0 0)
(36.0839 0 0)
(36.2453 0 0)
(36.4058 0 0)
(36.5655 0 0)
(36.7241 0 0)
(36.8819 0 0)
(37.0387 0 0)
(37.1945 0 0)
(37.3494 0 0)
(37.5033 0 0)
(37.6562 0 0)
(37.8082 0 0)
(37.9592 0 0)
(38.1092 0 0)
(38.2582 0 0)
(38.4062 0 0)
(38.5533 0 0)
(38.6993 0 0)
(38.8444 0 0)
(38.9885 0 0)
(39.1315 0 0)
(39.2736 0 0)
(39.4147 0 0)
(39.5549 0 0)
(39.694 0 0)
(39.8322 0 0)
(39.9694 0 0)
(40.1056 0 0)
(40.2409 0 0)
(40.3752 0 0)
(40.5086 0 0)
(40.641 0 0)
(40.7726 0 0)
(40.9032 0 0)
(41.0329 0 0)
(41.1617 0 0)
(41.2897 0 0)
(41.4168 0 0)
(41.543 0 0)
(41.6684 0 0)
(41.793 0 0)
(41.9167 0 0)
(42.0397 0 0)
(42.1619 0 0)
(42.2834 0 0)
(42.4041 0 0)
(42.5241 0 0)
(42.6434 0 0)
(42.762 0 0)
(42.8799 0 0)
(42.9972 0 0)
(43.1138 0 0)
(43.2299 0 0)
(43.3453 0 0)
(43.4602 0 0)
(43.5745 0 0)
(43.6883 0 0)
(43.8016 0 0)
(43.9144 0 0)
(44.0267 0 0)
(44.1385 0 0)
(44.2499 0 0)
(44.3609 0 0)
(44.4715 0 0)
(44.5818 0 0)
(44.6916 0 0)
(44.8011 0 0)
(44.9103 0 0)
(45.0192 0 0)
(45.1277 0 0)
(45.236 0 0)
(45.344 0 0)
(45.4518 0 0)
(45.5593 0 0)
(45.6667 0 0)
(45.7738 0 0)
(45.8807 0 0)
(45.9874 0 0)
(46.094 0 0)
(46.2004 0 0)
(46.3067 0 0)
(46.4128 0 0)
(46.5189 0 0)
(46.6248 0 0)
(46.7306 0 0)
(46.8363 0 0)
(46.9419 0 0)
(47.0475 0 0)
(47.1529 0 0)
(47.2584 0 0)
(47.3637 0 0)
(47.4691 0 0)
(47.5743 0 0)
(47.6796 0 0)
(47.7848 0 0)
(47.89 0 0)
(47.9952 0 0)
(48.1003 0 0)
(48.2055 0 0)
(48.3106 0 0)
(48.4158 0 0)
(48.5209 0 0)
(48.626 0 0)
(48.7312 0 0)
(48.8364 0 0)
(48.9416 0 0)
(49.0468 0 0)
(49.152 0 0)
(49.2572 0 0)
(49.3625 0 0)
(49.4677 0 0)
(49.5731 0 0)
(49.6784 0 0)
(49.7838 0 0)
(49.8891 0 0)
(49.9946 0 0)
(50.1 0 0)
(50.2055 0 0)
(50.311 0 0)
(50.4166 0 0)
(50.5222 0 0)
(50.6278 0 0)
(50.7335 0 0)
(50.8392 0 0)
(50.9449 0 0)
(51.0507 0 0)
(51.1565 0 0)
(51.2624 0 0)
(51.3683 0 0)
(51.4742 0 0)
(51.5802 0 0)
(51.6862 0 0)
(51.7922 0 0)
(51.8983 0 0)
(52.0044 0 0)
(52.1106 0 0)
(52.2168 0 0)
(52.3231 0 0)
(52.4294 0 0)
(52.5357 0 0)
(52.6421 0 0)
(52.7485 0 0)
(52.8549 0 0)
(52.9614 0 0)
(53.068 0 0)
(53.1745 0 0)
(53.2812 0 0)
(53.3878 0 0)
(53.4945 0 0)
(53.6012 0 0)
(53.708 0 0)
(53.8148 0 0)
(53.9217 0 0)
(54.0286 0 0)
(54.1355 0 0)
(54.2425 0 0)
(54.3495 0 0)
(54.4566 0 0)
(54.5637 0 0)
(54.6709 0 0)
(54.778 0 0)
(54.8853 0 0)
(54.9925 0 0)
(55.0998 0 0)
(55.2072 0 0)
(55.3146 0 0)
(55.422 0 0)
(55.5294 0 0)
(55.6369 0 0)
(55.7445 0 0)
(55.8521 0 0)
(55.9597 0 0)
(56.0674 0 0)
(56.1751 0 0)
(56.2828 0 0)
(56.3906 0 0)
(56.4984 0 0)
(56.6063 0 0)
(56.7142 0 0)
(56.8221 0 0)
(56.9301 0 0)
(57.0381 0 0)
(57.1462 0 0)
(57.2543 0 0)
(57.3624 0 0)
(57.4706 0 0)
(57.5788 0 0)
(57.6871 0 0)
(57.7954 0 0)
(57.9037 0 0)
(58.0121 0 0)
(58.1205 0 0)
(58.2289 0 0)
(58.3374 0 0)
(58.446 0 0)
(58.5545 0 0)
(58.6631 0 0)
(58.7718 0 0)
(58.8804 0 0)
(58.9892 0 0)
(59.0979 0 0)
(59.2067 0 0)
(59.3155 0 0)
(59.4244 0 0)
(59.5333 0 0)
(59.6423 0 0)
(59.7512 0 0)
(59.8603 0 0)
(59.9693 0 0)
(60.0784 0 0)
(60.1875 0 0)
(60.2967 0 0)
(60.4059 0 0)
(60.5152 0 0)
(60.6244 0 0)
(60.7338 0 0)
(60.8431 0 0)
(60.9525 0 0)
(61.0619 0 0)
(61.1714 0 0)
(61.2809 0 0)
(61.3904 0 0)
(61.5 0 0)
(61.6096 0 0)
(61.7192 0 0)
(61.8289 0 0)
(61.9386 0 0)
(62.0484 0 0)
(62.1582 0 0)
(62.268 0 0)
(62.3779 0 0)
(62.4877 0 0)
(62.5977 0 0)
(62.7076 0 0)
(62.8176 0 0)
(62.9277 0 0)
(63.0377 0 0)
(63.1478 0 0)
(63.258 0 0)
(63.3682 0 0)
(63.4784 0 0)
(63.5886 0 0)
(63.6989 0 0)
(63.8092 0 0)
(63.9196 0 0)
(64.03 0 0)
(64.1404 0 0)
(64.2508 0 0)
(64.3613 0 0)
(64.4718 0 0)
(64.5824 0 0)
(64.693 0 0)
(64.8036 0 0)
(64.9143 0 0)
(65.025 0 0)
(65.1357 0 0)
(65.2465 0 0)
(65.3573 0 0)
(65.4681 0 0)
(65.579 0 0)
(65.6899 0 0)
(65.8008 0 0)
(65.9118 0 0)
(66.0228 0 0)
(66.1338 0 0)
(66.2449 0 0)
(66.356 0 0)
(66.4671 0 0)
(66.5783 0 0)
(66.6895 0 0)
(66.8007 0 0)
(66.912 0 0)
(67.0233 0 0)
(67.1346 0 0)
(67.246 0 0)
(67.3574 0 0)
(67.4689 0 0)
(67.5803 0 0)
(67.6918 0 0)
(67.8034 0 0)
(67.9149 0 0)
(68.0266 0 0)
(68.1382 0 0)
(68.2499 0 0)
(68.3616 0 0)
(68.4733 0 0)
(68.5851 0 0)
(68.6969 0 0)
(68.8087 0 0)
(68.9206 0 0)
(69.0325 0 0)
(69.1444 0 0)
(69.2564 0 0)
(69.3684 0 0)
(69.4804 0 0)
(69.5925 0 0)
(69.7046 0 0)
(69.8167 0 0)
(69.9288 0 0)
(70.041 0 0)
(70.1533 0 0)
(70.2655 0 0)
(70.3778 0 0)
(70.4901 0 0)
(70.6025 0 0)
(70.7149 0 0)
(70.8273 0 0)
(70.9398 0 0)
(71.0522 0 0)
(71.1648 0 0)
(71.2773 0 0)
(71.3899 0 0)
(71.5025 0 0)
(71.6151 0 0)
(71.7278 0 0)
(71.8405 0 0)
(71.9533 0 0)
(72.066 0 0)
(72.1788 0 0)
(72.2917 0 0)
(72.4046 0 0)
(72.5175 0 0)
(72.6304 0 0)
(72.7433 0 0)
(72.8563 0 0)
(72.9694 0 0)
(73.0824 0 0)
(73.1955 0 0)
(73.3086 0 0)
(73.4218 0 0)
(73.535 0 0)
(73.6482 0 0)
(73.7614 0 0)
(73.8747 0 0)
(73.988 0 0)
(74.1014 0 0)
(74.2147 0 0)
(74.3281 0 0)
(74.4416 0 0)
(74.555 0 0)
(74.6685 0 0)
(74.7821 0 0)
(74.8956 0 0)
(75.0092 0 0)
(75.1228 0 0)
(75.2365 0 0)
(75.3502 0 0)
(75.4639 0 0)
(75.5776 0 0)
(75.6914 0 0)
(75.8052 0 0)
(75.919 0 0)
(76.0329 0 0)
(76.1468 0 0)
(76.2607 0 0)
(76.3747 0 0)
(76.4887 0 0)
(76.6027 0 0)
(76.7168 0 0)
(76.8308 0 0)
(76.945 0 0)
(77.0591 0 0)
(77.1733 0 0)
(77.2875 0 0)
(77.4017 0 0)
(77.516 0 0)
(77.6303 0 0)
(77.7446 0 0)
(77.859 0 0)
(77.9733 0 0)
(78.0878 0 0)
(78.2022 0 0)
(78.3167 0 0)
(78.4312 0 0)
(78.5457 0 0)
(78.6603 0 0)
(78.7749 0 0)
(78.8896 0 0)
(79.0042 0 0)
(79.1189 0 0)
(79.2336 0 0)
(79.3484 0 0)
(79.4632 0 0)
(79.578 0 0)
(79.6928 0 0)
(79.8077 0 0)
(79.9226 0 0)
(80.0375 0 0)
(80.1525 0 0)
(80.2675 0 0)
(80.3825 0 0)
(80.4976 0 0)
(80.6126 0 0)
(80.7278 0 0)
(80.8429 0 0)
(80.9581 0 0)
(81.0733 0 0)
(81.1885 0 0)
(81.3037 0 0)
(81.419 0 0)
(81.5344 0 0)
(81.6497 0 0)
(81.7651 0 0)
(81.8805 0 0)
(81.9959 0 0)
(82.1114 0 0)
(82.2269 0 0)
(82.3424 0 0)
(82.458 0 0)
(82.5736 0 0)
(82.6892 0 0)
(82.8048 0 0)
(82.9205 0 0)
(83.0362 0 0)
(83.1519 0 0)
(83.2677 0 0)
(83.3835 0 0)
(83.4993 0 0)
(83.6151 0 0)
(83.731 0 0)
(83.8469 0 0)
(83.9629 0 0)
(84.0788 0 0)
(84.1948 0 0)
(84.3108 0 0)
(84.4269 0 0)
(84.543 0 0)
(84.6591 0 0)
(84.7752 0 0)
(84.8914 0 0)
(85.0076 0 0)
(85.1238 0 0)
(85.2401 0 0)
(85.3564 0 0)
(85.4727 0 0)
(85.589 0 0)
(85.7054 0 0)
(85.8218 0 0)
(85.9382 0 0)
(86.0547 0 0)
(86.1711 0 0)
(86.2877 0 0)
(86.4042 0 0)
(86.5208 0 0)
(86.6374 0 0)
(86.754 0 0)
(86.8707 0 0)
(86.9874 0 0)
(87.104 0 0)
(87.2208 0 0)
(87.3376 0 0)
(87.4544 0 0)
(87.5712 0 0)
(87.688 0 0)
(87.8049 0 0)
(87.9218 0 0)
(88.0387 0 0)
(88.1557 0 0)
(88.2727 0 0)
(88.3897 0 0)
(88.5067 0 0)
(88.6238 0 0)
(88.7409 0 0)
(88.858 0 0)
(88.9752 0 0)
(89.0924 0 0)
(89.2096 0 0)
(89.3268 0 0)
(89.444 0 0)
(89.5613 0 0)
(89.6786 0 0)
(89.796 0 0)
(89.9133 0 0)
(90.0307 0 0)
(90.1481 0 0)
(90.2655 0 0)
(90.383 0 0)
(90.5005 0 0)
(90.618 0 0)
(90.7355 0 0)
(90.8531 0 0)
(90.9707 0 0)
(91.0883 0 0)
(91.2059 0 0)
(91.3236 0 0)
(91.4413 0 0)
(91.559 0 0)
(91.6768 0 0)
(91.7945 0 0)
(91.9123 0 0)
(92.0302 0 0)
(92.148 0 0)
(92.2659 0 0)
(92.3838 0 0)
(92.5018 0 0)
(92.6198 0 0)
(92.7377 0 0)
(92.8558 0 0)
(92.9738 0 0)
(93.0919 0 0)
(93.21 0 0)
(93.3282 0 0)
(93.4463 0 0)
(93.5645 0 0)
(93.6827 0 0)
(93.801 0 0)
(93.9193 0 0)
(94.0376 0 0)
(94.1559 0 0)
(94.2742 0 0)
(94.3926 0 0)
(94.511 0 0)
(94.6293 0 0)
(94.7478 0 0)
(94.8662 0 0)
(94.9846 0 0)
(95.1031 0 0)
(95.2216 0 0)
(95.34 0 0)
(95.4585 0 0)
(95.577 0 0)
(95.6955 0 0)
(95.8139 0 0)
(95.9324 0 0)
(96.0508 0 0)
(96.1693 0 0)
(96.2877 0 0)
(96.4061 0 0)
(96.5245 0 0)
(96.6429 0 0)
(96.7612 0 0)
(96.8794 0 0)
(96.9977 0 0)
(97.1158 0 0)
(97.234 0 0)
(97.352 0 0)
(97.47 0 0)
(97.5879 0 0)
(97.7057 0 0)
(97.8234 0 0)
(97.941 0 0)
(98.0585 0 0)
(98.1759 0 0)
(98.2932 0 0)
(98.4103 0 0)
(98.5273 0 0)
(98.6441 0 0)
(98.7607 0 0)
(98.8772 0 0)
(98.9934 0 0)
(99.1095 0 0)
(99.2253 0 0)
(99.3409 0 0)
(99.4563 0 0)
(99.5714 0 0)
(99.6862 0 0)
(99.8008 0 0)
(99.915 0 0)
(100.029 0 0)
(100.143 0 0)
(100.256 0 0)
(100.369 0 0)
(100.481 0 0)
(100.593 0 0)
(100.705 0 0)
(100.817 0 0)
(100.927 0 0)
(101.038 0 0)
(101.148 0 0)
(101.257 0 0)
(101.367 0 0)
(101.475 0 0)
(101.583 0 0)
(101.691 0 0)
(101.798 0 0)
(101.904 0 0)
(102.01 0 0)
(102.116 0 0)
(102.221 0 0)
(102.325 0 0)
(102.429 0 0)
(102.532 0 0)
(102.635 0 0)
(102.737 0 0)
(102.838 0 0)
(102.939 0 0)
(103.04 0 0)
(103.139 0 0)
(103.239 0 0)
(103.338 0 0)
(103.436 0 0)
(103.534 0 0)
(103.631 0 0)
(103.728 0 0)
(103.825 0 0)
(103.921 0 0)
(104.017 0 0)
(104.112 0 0)
(104.207 0 0)
(104.302 0 0)
(104.396 0 0)
(104.49 0 0)
(104.584 0 0)
(104.678 0 0)
(104.772 0 0)
(104.865 0 0)
(104.959 0 0)
(105.052 0 0)
(105.145 0 0)
(105.239 0 0)
(105.332 0 0)
(105.426 0 0)
(105.52 0 0)
(105.613 0 0)
(105.708 0 0)
(105.802 0 0)
(105.896 0 0)
(105.991 0 0)
(106.087 0 0)
(106.182 0 0)
(106.278 0 0)
(106.374 0 0)
(106.471 0 0)
(106.568 0 0)
(106.666 0 0)
(106.764 0 0)
(106.863 0 0)
(106.962 0 0)
(107.062 0 0)
(107.163 0 0)
(107.263 0 0)
(107.365 0 0)
(107.467 0 0)
(107.57 0 0)
(107.673 0 0)
(107.777 0 0)
(107.881 0 0)
(107.986 0 0)
(108.092 0 0)
(108.198 0 0)
(108.305 0 0)
(108.412 0 0)
(108.52 0 0)
(108.628 0 0)
(108.737 0 0)
(108.846 0 0)
(108.956 0 0)
(109.067 0 0)
(109.178 0 0)
(109.289 0 0)
(109.401 0 0)
(109.514 0 0)
(109.626 0 0)
(109.74 0 0)
(109.853 0 0)
(109.967 0 0)
(110.082 0 0)
(110.197 0 0)
(110.312 0 0)
(110.427 0 0)
(110.543 0 0)
(110.66 0 0)
(110.776 0 0)
(110.893 0 0)
(111.01 0 0)
(111.127 0 0)
(111.245 0 0)
(111.363 0 0)
(111.481 0 0)
(111.6 0 0)
(111.718 0 0)
(111.837 0 0)
(111.956 0 0)
(112.075 0 0)
(112.195 0 0)
(112.314 0 0)
(112.434 0 0)
(112.554 0 0)
(112.674 0 0)
(112.794 0 0)
(112.915 0 0)
(113.035 0 0)
(113.156 0 0)
(113.276 0 0)
(113.397 0 0)
(113.517 0 0)
(113.638 0 0)
(113.759 0 0)
(113.88 0 0)
(114 0 0)
(114.121 0 0)
(114.242 0 0)
(114.362 0 0)
(114.483 0 0)
(114.603 0 0)
(114.723 0 0)
(114.843 0 0)
(114.962 0 0)
(115.081 0 0)
(115.2 0 0)
(115.319 0 0)
(115.436 0 0)
(115.554 0 0)
(115.671 0 0)
(115.787 0 0)
(115.902 0 0)
(116.017 0 0)
(116.13 0 0)
(116.243 0 0)
(116.355 0 0)
(116.466 0 0)
(116.575 0 0)
(116.683 0 0)
(116.79 0 0)
(116.896 0 0)
(117 0 0)
(117.102 0 0)
(117.203 0 0)
(117.301 0 0)
(117.399 0 0)
(117.494 0 0)
(117.587 0 0)
(117.678 0 0)
(117.767 0 0)
(117.854 0 0)
(117.939 0 0)
(118.022 0 0)
(118.103 0 0)
(118.181 0 0)
(118.258 0 0)
(118.332 0 0)
(118.404 0 0)
(118.474 0 0)
(118.543 0 0)
(118.609 0 0)
(118.674 0 0)
(118.737 0 0)
(118.798 0 0)
(118.858 0 0)
(118.917 0 0)
(118.974 0 0)
(119.031 0 0)
(119.087 0 0)
(119.142 0 0)
(119.197 0 0)
(119.251 0 0)
(119.305 0 0)
(119.36 0 0)
(119.414 0 0)
(119.469 0 0)
(119.524 0 0)
(119.579 0 0)
(119.636 0 0)
(119.693 0 0)
(119.751 0 0)
(119.81 0 0)
(119.87 0 0)
(119.932 0 0)
(119.995 0 0)
(120.059 0 0)
(120.124 0 0)
(120.191 0 0)
(120.26 0 0)
(120.329 0 0)
(120.401 0 0)
(120.473 0 0)
(120.548 0 0)
(120.623 0 0)
(120.701 0 0)
(120.779 0 0)
(120.859 0 0)
(120.941 0 0)
(121.024 0 0)
(121.108 0 0)
(121.193 0 0)
(121.28 0 0)
(121.368 0 0)
(121.458 0 0)
(121.548 0 0)
(121.64 0 0)
(121.733 0 0)
(121.827 0 0)
(121.922 0 0)
(122.019 0 0)
(122.116 0 0)
(122.214 0 0)
(122.314 0 0)
(122.414 0 0)
(122.515 0 0)
(122.617 0 0)
(122.72 0 0)
(122.824 0 0)
(122.929 0 0)
(123.035 0 0)
(123.141 0 0)
(123.249 0 0)
(123.357 0 0)
(123.466 0 0)
(123.575 0 0)
(123.686 0 0)
(123.797 0 0)
(123.909 0 0)
(124.022 0 0)
(124.135 0 0)
(124.249 0 0)
(124.364 0 0)
(124.479 0 0)
(124.595 0 0)
(124.712 0 0)
(124.829 0 0)
(124.947 0 0)
(125.066 0 0)
(125.185 0 0)
(125.305 0 0)
(125.426 0 0)
(125.547 0 0)
(125.668 0 0)
(125.79 0 0)
(125.913 0 0)
(126.036 0 0)
(126.16 0 0)
(126.285 0 0)
(126.41 0 0)
(126.535 0 0)
(126.661 0 0)
(126.787 0 0)
(126.914 0 0)
(127.042 0 0)
(127.17 0 0)
(127.298 0 0)
(127.427 0 0)
(127.556 0 0)
(127.686 0 0)
(127.817 0 0)
(127.947 0 0)
(128.079 0 0)
(128.21 0 0)
(128.343 0 0)
(128.475 0 0)
(128.608 0 0)
(128.742 0 0)
(128.875 0 0)
(129.01 0 0)
(129.144 0 0)
(129.28 0 0)
(129.415 0 0)
(129.551 0 0)
(129.687 0 0)
(129.824 0 0)
(129.961 0 0)
(130.099 0 0)
(130.236 0 0)
(130.375 0 0)
(130.513 0 0)
(130.652 0 0)
(130.792 0 0)
(130.932 0 0)
(131.072 0 0)
(131.212 0 0)
(131.353 0 0)
(131.494 0 0)
(131.636 0 0)
(131.777 0 0)
(131.92 0 0)
(132.062 0 0)
(132.205 0 0)
(132.348 0 0)
(132.492 0 0)
(132.636 0 0)
(132.78 0 0)
(132.925 0 0)
(133.069 0 0)
(133.215 0 0)
(133.36 0 0)
(133.506 0 0)
(133.652 0 0)
(133.798 0 0)
(133.945 0 0)
(134.092 0 0)
(134.24 0 0)
(134.387 0 0)
(134.535 0 0)
(134.683 0 0)
(134.832 0 0)
(134.981 0 0)
(135.13 0 0)
(135.279 0 0)
(135.429 0 0)
(135.579 0 0)
(135.729 0 0)
(135.88 0 0)
(136.03 0 0)
(136.181 0 0)
(136.333 0 0)
(136.484 0 0)
(136.636 0 0)
(136.788 0 0)
(136.941 0 0)
(137.093 0 0)
(137.246 0 0)
(137.4 0 0)
(137.553 0 0)
(137.707 0 0)
(137.861 0 0)
(138.015 0 0)
(138.169 0 0)
(138.324 0 0)
(138.479 0 0)
(138.634 0 0)
(138.79 0 0)
(138.945 0 0)
(139.102 0 0)
(139.258 0 0)
(139.417 0 0)
(139.682 0 0)
)
;

boundaryField
{
    sides
    {
        type            zeroGradient;
    }
    empty
    {
        type            empty;
    }
}


// ************************************************************************* //
