/*--------------------------------*- C++ -*----------------------------------*\
  =========                 |
  \\      /  F ield         | OpenFOAM: The Open Source CFD Toolbox
   \\    /   O peration     | Website:  https://openfoam.org
    \\  /    A nd           | Version:  9
     \\/     M anipulation  |
\*---------------------------------------------------------------------------*/
FoamFile
{
    format      ascii;
    class       volScalarField;
    location    "0.013";
    object      mag(U);
}
// * * * * * * * * * * * * * * * * * * * * * * * * * * * * * * * * * * * * * //

dimensions      [0 1 -1 0 0 0 0];

internalField   nonuniform List<scalar> 
10000
(
0.00234192
0.00517243
0.006591
0.00841218
0.0102105
0.0120411
0.0139087
0.0158189
0.017777
0.0197886
0.0218592
0.0239944
0.0261998
0.0284812
0.0308441
0.0332944
0.035838
0.0384806
0.0412281
0.0440867
0.0470622
0.0501608
0.0533887
0.0567519
0.0602568
0.0639097
0.0677168
0.0716846
0.0758195
0.0801279
0.0846165
0.0892916
0.09416
0.0992281
0.104503
0.10999
0.115698
0.121631
0.127798
0.134204
0.140857
0.147763
0.154928
0.162359
0.170063
0.178046
0.186314
0.194875
0.203733
0.212897
0.22237
0.232161
0.242274
0.252716
0.263493
0.274609
0.286071
0.297884
0.310053
0.322584
0.335481
0.34875
0.362394
0.37642
0.39083
0.405629
0.420821
0.436411
0.452401
0.468795
0.485597
0.50281
0.520436
0.538478
0.556939
0.575822
0.595127
0.614858
0.635016
0.655603
0.676619
0.698067
0.719947
0.742259
0.765005
0.788185
0.8118
0.835848
0.86033
0.885246
0.910595
0.936376
0.96259
0.989233
1.01631
1.04381
1.07174
1.10009
1.12887
1.15807
1.18768
1.21772
1.24817
1.27903
1.3103
1.34198
1.37407
1.40656
1.43944
1.47272
1.5064
1.54046
1.57492
1.60975
1.64496
1.68056
1.71652
1.75285
1.78955
1.82661
1.86403
1.90181
1.93993
1.9784
2.01722
2.05637
2.09586
2.13568
2.17583
2.21631
2.2571
2.29821
2.33963
2.38136
2.42339
2.46573
2.50836
2.55128
2.5945
2.63799
2.68177
2.72583
2.77016
2.81476
2.85963
2.90475
2.95014
2.99578
3.04167
3.08782
3.1342
3.18083
3.22769
3.27479
3.32211
3.36967
3.41744
3.46544
3.51365
3.56208
3.61072
3.65956
3.70861
3.75786
3.80731
3.85696
3.90679
3.95681
4.00702
4.05742
4.10799
4.15874
4.20967
4.26077
4.31203
4.36347
4.41507
4.46683
4.51875
4.57082
4.62305
4.67544
4.72797
4.78065
4.83347
4.88644
4.93954
4.99279
5.04617
5.09969
5.15333
5.20711
5.26101
5.31505
5.3692
5.42348
5.47787
5.53239
5.58702
5.64176
5.69662
5.75159
5.80667
5.86186
5.91715
5.97255
6.02805
6.08365
6.13935
6.19515
6.25105
6.30704
6.36313
6.4193
6.47557
6.53193
6.58838
6.64491
6.70153
6.75824
6.81503
6.8719
6.92885
6.98588
7.04299
7.10017
7.15743
7.21477
7.27218
7.32967
7.38722
7.44485
7.50255
7.56031
7.61815
7.67605
7.73401
7.79204
7.85014
7.9083
7.96652
8.0248
8.08314
8.14154
8.2
8.25852
8.3171
8.37573
8.43442
8.49317
8.55196
8.61081
8.66972
8.72867
8.78768
8.84674
8.90585
8.965
9.02421
9.08346
9.14276
9.20211
9.26151
9.32094
9.38043
9.43996
9.49953
9.55914
9.6188
9.6785
9.73824
9.79803
9.85785
9.91771
9.97761
10.0376
10.0975
10.1576
10.2176
10.2777
10.3378
10.398
10.4582
10.5184
10.5787
10.639
10.6993
10.7597
10.8201
10.8806
10.941
11.0015
11.0621
11.1226
11.1832
11.2438
11.3045
11.3652
11.4259
11.4866
11.5474
11.6082
11.669
11.7299
11.7908
11.8517
11.9126
11.9736
12.0346
12.0956
12.1566
12.2177
12.2788
12.3399
12.401
12.4622
12.5234
12.5846
12.6458
12.7071
12.7684
12.8297
12.891
12.9523
13.0137
13.0751
13.1365
13.1979
13.2594
13.3209
13.3824
13.4439
13.5054
13.567
13.6285
13.6901
13.7517
13.8134
13.875
13.9367
13.9984
14.0601
14.1218
14.1835
14.2453
14.307
14.3688
14.4306
14.4925
14.5543
14.6162
14.678
14.7399
14.8018
14.8637
14.9257
14.9876
15.0496
15.1116
15.1736
15.2356
15.2976
15.3596
15.4217
15.4838
15.5458
15.6079
15.6701
15.7322
15.7943
15.8565
15.9186
15.9808
16.043
16.1052
16.1674
16.2296
16.2919
16.3541
16.4164
16.4787
16.541
16.6033
16.6656
16.7279
16.7902
16.8526
16.9149
16.9773
17.0397
17.1021
17.1645
17.2269
17.2893
17.3518
17.4142
17.4767
17.5391
17.6016
17.6641
17.7266
17.7891
17.8516
17.9141
17.9767
18.0392
18.1018
18.1643
18.2269
18.2895
18.3521
18.4147
18.4773
18.5399
18.6026
18.6652
18.7278
18.7905
18.8532
18.9158
18.9785
19.0412
19.1039
19.1666
19.2293
19.292
19.3548
19.4175
19.4802
19.543
19.6058
19.6685
19.7313
19.7941
19.8569
19.9197
19.9825
20.0453
20.1081
20.1709
20.2338
20.2966
20.3594
20.4223
20.4852
20.548
20.6109
20.6738
20.7367
20.7996
20.8625
20.9254
20.9883
21.0512
21.1141
21.1771
21.24
21.303
21.3659
21.4289
21.4918
21.5548
21.6178
21.6808
21.7438
21.8067
21.8697
21.9327
21.9958
22.0588
22.1218
22.1848
22.2479
22.3109
22.3739
22.437
22.5
22.5631
22.6262
22.6892
22.7523
22.8154
22.8785
22.9416
23.0047
23.0678
23.1309
23.194
23.2571
23.3202
23.3833
23.4465
23.5096
23.5727
23.6359
23.699
23.7622
23.8254
23.8885
23.9517
24.0149
24.078
24.1412
24.2044
24.2676
24.3308
24.394
24.4572
24.5204
24.5836
24.6468
24.71
24.7732
24.8365
24.8997
24.9629
25.0262
25.0894
25.1527
25.2159
25.2792
25.3424
25.4057
25.469
25.5322
25.5955
25.6588
25.7221
25.7853
25.8486
25.9119
25.9752
26.0385
26.1018
26.1651
26.2284
26.2917
26.3551
26.4184
26.4817
26.545
26.6084
26.6717
26.735
26.7984
26.8617
26.9251
26.9884
27.0518
27.1151
27.1785
27.2419
27.3052
27.3686
27.432
27.4953
27.5587
27.6221
27.6855
27.7489
27.8123
27.8757
27.939
28.0024
28.0658
28.1293
28.1927
28.2561
28.3195
28.3829
28.4463
28.5097
28.5732
28.6366
28.7
28.7635
28.8269
28.8903
28.9538
29.0172
29.0807
29.1441
29.2076
29.271
29.3345
29.3979
29.4614
29.5249
29.5883
29.6518
29.7153
29.7788
29.8422
29.9057
29.9692
30.0327
30.0962
30.1597
30.2232
30.2866
30.3501
30.4136
30.4771
30.5406
30.6042
30.6677
30.7312
30.7947
30.8582
30.9217
30.9852
31.0488
31.1123
31.1758
31.2393
31.3029
31.3664
31.4299
31.4935
31.557
31.6206
31.6841
31.7476
31.8112
31.8747
31.9383
32.0018
32.0654
32.129
32.1925
32.2561
32.3196
32.3832
32.4468
32.5103
32.5739
32.6375
32.7011
32.7646
32.8282
32.8918
32.9554
33.019
33.0826
33.1461
33.2097
33.2733
33.3369
33.4005
33.4641
33.5277
33.5913
33.6549
33.7185
33.7821
33.8457
33.9093
33.973
34.0366
34.1002
34.1638
34.2274
34.291
34.3547
34.4183
34.4819
34.5455
34.6092
34.6728
34.7364
34.8001
34.8637
34.9273
34.991
35.0546
35.1182
35.1819
35.2455
35.3092
35.3728
35.4365
35.5001
35.5638
35.6274
35.6911
35.7547
35.8184
35.8821
35.9457
36.0094
36.073
36.1367
36.2004
36.264
36.3277
36.3914
36.455
36.5187
36.5824
36.6461
36.7098
36.7734
36.8371
36.9008
36.9645
37.0282
37.0918
37.1555
37.2192
37.2829
37.3466
37.4103
37.474
37.5377
37.6014
37.6651
37.7288
37.7925
37.8562
37.9199
37.9836
38.0473
38.111
38.1747
38.2384
38.3021
38.3658
38.4296
38.4933
38.557
38.6207
38.6844
38.7481
38.8119
38.8756
38.9393
39.003
39.0667
39.1305
39.1942
39.2579
39.3217
39.3854
39.4491
39.5129
39.5766
39.6403
39.7041
39.7678
39.8315
39.8953
39.959
40.0228
40.0865
40.1502
40.214
40.2777
40.3415
40.4052
40.469
40.5327
40.5965
40.6602
40.724
40.7877
40.8515
40.9153
40.979
41.0428
41.1065
41.1703
41.234
41.2978
41.3616
41.4253
41.4891
41.5529
41.6166
41.6804
41.7442
41.8079
41.8717
41.9355
41.9993
42.063
42.1268
42.1906
42.2544
42.3181
42.3819
42.4457
42.5095
42.5733
42.637
42.7008
42.7646
42.8284
42.8922
42.956
43.0198
43.0835
43.1473
43.2111
43.2749
43.3387
43.4025
43.4663
43.5301
43.5939
43.6577
43.7215
43.7853
43.8491
43.9129
43.9767
44.0405
44.1043
44.1681
44.2319
44.2957
44.3595
44.4233
44.4871
44.5509
44.6147
44.6785
44.7424
44.8062
44.87
44.9338
44.9976
45.0614
45.1252
45.1891
45.2529
45.3167
45.3805
45.4443
45.5081
45.572
45.6358
45.6996
45.7634
45.8273
45.8911
45.9549
46.0187
46.0826
46.1464
46.2102
46.274
46.3379
46.4017
46.4655
46.5294
46.5932
46.657
46.7209
46.7847
46.8485
46.9124
46.9762
47.04
47.1039
47.1677
47.2316
47.2954
47.3592
47.4231
47.4869
47.5508
47.6146
47.6785
47.7423
47.8061
47.87
47.9338
47.9977
48.0615
48.1254
48.1892
48.2531
48.3169
48.3808
48.4446
48.5085
48.5723
48.6362
48.7
48.7639
48.8278
48.8916
48.9555
49.0193
49.0832
49.147
49.2109
49.2748
49.3386
49.4025
49.4663
49.5302
49.5941
49.6579
49.7218
49.7857
49.8495
49.9134
49.9773
50.0411
50.105
50.1689
50.2327
50.2966
50.3605
50.4243
50.4882
50.5521
50.616
50.6798
50.7437
50.8076
50.8715
50.9353
50.9992
51.0631
51.127
51.1908
51.2547
51.3186
51.3825
51.4463
51.5102
51.5741
51.638
51.7019
51.7657
51.8296
51.8935
51.9574
52.0213
52.0852
52.1491
52.2129
52.2768
52.3407
52.4046
52.4685
52.5324
52.5963
52.6601
52.724
52.7879
52.8518
52.9157
52.9796
53.0435
53.1074
53.1713
53.2352
53.2991
53.363
53.4269
53.4908
53.5546
53.6185
53.6824
53.7463
53.8102
53.8741
53.938
54.0019
54.0658
54.1297
54.1936
54.2575
54.3214
54.3853
54.4492
54.5131
54.577
54.641
54.7049
54.7688
54.8327
54.8966
54.9605
55.0244
55.0883
55.1522
55.2161
55.28
55.3439
55.4078
55.4717
55.5357
55.5996
55.6635
55.7274
55.7913
55.8552
55.9191
55.983
56.0469
56.1109
56.1748
56.2387
56.3026
56.3665
56.4304
56.4944
56.5583
56.6222
56.6861
56.75
56.8139
56.8779
56.9418
57.0057
57.0696
57.1335
57.1975
57.2614
57.3253
57.3892
57.4531
57.5171
57.581
57.6449
57.7088
57.7728
57.8367
57.9006
57.9645
58.0285
58.0924
58.1563
58.2202
58.2842
58.3481
58.412
58.476
58.5399
58.6038
58.6677
58.7317
58.7956
58.8595
58.9235
58.9874
59.0513
59.1153
59.1792
59.2431
59.3071
59.371
59.4349
59.4989
59.5628
59.6267
59.6907
59.7546
59.8185
59.8825
59.9464
60.0103
60.0743
60.1382
60.2022
60.2661
60.33
60.394
60.4579
60.5218
60.5858
60.6497
60.7137
60.7776
60.8416
60.9055
60.9694
61.0334
61.0973
61.1613
61.2252
61.2892
61.3531
61.417
61.481
61.5449
61.6089
61.6728
61.7368
61.8007
61.8647
61.9286
61.9926
62.0565
62.1204
62.1844
62.2483
62.3123
62.3762
62.4402
62.5041
62.5681
62.632
62.696
62.7599
62.8239
62.8878
62.9518
63.0157
63.0797
63.1437
63.2076
63.2716
63.3355
63.3995
63.4634
63.5274
63.5913
63.6553
63.7192
63.7832
63.8472
63.9111
63.9751
64.039
64.103
64.1669
64.2309
64.2948
64.3588
64.4228
64.4867
64.5507
64.6146
64.6786
64.7426
64.8065
64.8705
64.9344
64.9984
65.0624
65.1263
65.1903
65.2542
65.3182
65.3822
65.4461
65.5101
65.5741
65.638
65.702
65.766
65.8299
65.8939
65.9578
66.0218
66.0858
66.1497
66.2137
66.2777
66.3416
66.4056
66.4696
66.5335
66.5975
66.6615
66.7254
66.7894
66.8534
66.9174
66.9813
67.0453
67.1093
67.1732
67.2372
67.3012
67.3651
67.4291
67.4931
67.5571
67.621
67.685
67.749
67.8129
67.8769
67.9409
68.0049
68.0688
68.1328
68.1968
68.2607
68.3247
68.3887
68.4527
68.5166
68.5806
68.6446
68.7086
68.7725
68.8365
68.9005
68.9645
69.0285
69.0924
69.1564
69.2204
69.2844
69.3483
69.4123
69.4763
69.5403
69.6043
69.6682
69.7322
69.7962
69.8602
69.9241
69.9881
70.0521
70.1161
70.1801
70.244
70.308
70.372
70.436
70.5
70.564
70.6279
70.6919
70.7559
70.8199
70.8839
70.9479
71.0118
71.0758
71.1398
71.2038
71.2678
71.3318
71.3957
71.4597
71.5237
71.5877
71.6517
71.7157
71.7797
71.8436
71.9076
71.9716
72.0356
72.0996
72.1636
72.2276
72.2915
72.3555
72.4195
72.4835
72.5475
72.6115
72.6755
72.7395
72.8034
72.8674
72.9314
72.9954
73.0594
73.1234
73.1874
73.2514
73.3154
73.3794
73.4433
73.5073
73.5713
73.6353
73.6993
73.7633
73.8273
73.8913
73.9553
74.0193
74.0833
74.1473
74.2113
74.2752
74.3392
74.4032
74.4672
74.5312
74.5952
74.6592
74.7232
74.7872
74.8512
74.9152
74.9792
75.0432
75.1072
75.1712
75.2352
75.2992
75.3632
75.4272
75.4912
75.5552
75.6191
75.6831
75.7471
75.8111
75.8751
75.9391
76.0031
76.0671
76.1311
76.1951
76.2591
76.3231
76.3871
76.4511
76.5151
76.5791
76.6431
76.7071
76.7711
76.8351
76.8991
76.9631
77.0271
77.0911
77.1551
77.2191
77.2831
77.3471
77.4111
77.4751
77.5391
77.6031
77.6671
77.7311
77.7951
77.8591
77.9232
77.9872
78.0512
78.1152
78.1792
78.2432
78.3072
78.3712
78.4352
78.4992
78.5632
78.6272
78.6912
78.7552
78.8192
78.8832
78.9472
79.0112
79.0752
79.1392
79.2032
79.2672
79.3313
79.3953
79.4593
79.5233
79.5873
79.6513
79.7153
79.7793
79.8433
79.9073
79.9713
80.0353
80.0993
80.1633
80.2274
80.2914
80.3554
80.4194
80.4834
80.5474
80.6114
80.6754
80.7394
80.8034
80.8674
80.9315
80.9955
81.0595
81.1235
81.1875
81.2515
81.3155
81.3795
81.4435
81.5076
81.5716
81.6356
81.6996
81.7636
81.8276
81.8916
81.9556
82.0196
82.0837
82.1477
82.2117
82.2757
82.3397
82.4037
82.4677
82.5317
82.5958
82.6598
82.7238
82.7878
82.8518
82.9158
82.9798
83.0439
83.1079
83.1719
83.2359
83.2999
83.3639
83.4279
83.492
83.556
83.62
83.684
83.748
83.812
83.8761
83.9401
84.0041
84.0681
84.1321
84.1961
84.2602
84.3242
84.3882
84.4522
84.5162
84.5802
84.6443
84.7083
84.7723
84.8363
84.9003
84.9643
85.0284
85.0924
85.1564
85.2204
85.2844
85.3485
85.4125
85.4765
85.5405
85.6045
85.6686
85.7326
85.7966
85.8606
85.9246
85.9886
86.0527
86.1167
86.1807
86.2447
86.3088
86.3728
86.4368
86.5008
86.5648
86.6289
86.6929
86.7569
86.8209
86.8849
86.949
87.013
87.077
87.141
87.205
87.2691
87.3331
87.3971
87.4611
87.5252
87.5892
87.6532
87.7172
87.7813
87.8453
87.9093
87.9733
88.0373
88.1014
88.1654
88.2294
88.2934
88.3575
88.4215
88.4855
88.5495
88.6136
88.6776
88.7416
88.8056
88.8697
88.9337
88.9977
89.0617
89.1258
89.1898
89.2538
89.3178
89.3819
89.4459
89.5099
89.5739
89.638
89.702
89.766
89.83
89.8941
89.9581
90.0221
90.0861
90.1502
90.2142
90.2782
90.3423
90.4063
90.4703
90.5343
90.5984
90.6624
90.7264
90.7904
90.8545
90.9185
90.9825
91.0466
91.1106
91.1746
91.2386
91.3027
91.3667
91.4307
91.4948
91.5588
91.6228
91.6868
91.7509
91.8149
91.8789
91.943
92.007
92.071
92.135
92.1991
92.2631
92.3271
92.3912
92.4552
92.5192
92.5833
92.6473
92.7113
92.7753
92.8394
92.9034
92.9674
93.0315
93.0955
93.1595
93.2236
93.2876
93.3516
93.4157
93.4797
93.5437
93.6078
93.6718
93.7358
93.7998
93.8639
93.9279
93.9919
94.056
94.12
94.184
94.2481
94.3121
94.3761
94.4402
94.5042
94.5682
94.6323
94.6963
94.7603
94.8244
94.8884
94.9524
95.0165
95.0805
95.1445
95.2086
95.2726
95.3366
95.4007
95.4647
95.5287
95.5928
95.6568
95.7208
95.7849
95.8489
95.9129
95.977
96.041
96.1051
96.1691
96.2331
96.2972
96.3612
96.4252
96.4893
96.5533
96.6173
96.6814
96.7454
96.8094
96.8735
96.9375
97.0015
97.0656
97.1296
97.1937
97.2577
97.3217
97.3858
97.4498
97.5138
97.5779
97.6419
97.7059
97.77
97.834
97.8981
97.9621
98.0261
98.0902
98.1542
98.2182
98.2823
98.3463
98.4104
98.4744
98.5384
98.6025
98.6665
98.7305
98.7946
98.8586
98.9227
98.9867
99.0507
99.1148
99.1788
99.2428
99.3069
99.3709
99.435
99.499
99.563
99.6271
99.6911
99.7552
99.8192
99.8832
99.9473
100.011
100.075
100.139
100.203
100.267
100.332
100.396
100.46
100.524
100.588
100.652
100.716
100.78
100.844
100.908
100.972
101.036
101.1
101.164
101.228
101.292
101.356
101.42
101.484
101.548
101.612
101.676
101.74
101.804
101.868
101.933
101.997
102.061
102.125
102.189
102.253
102.317
102.381
102.445
102.509
102.573
102.637
102.701
102.765
102.829
102.893
102.957
103.021
103.085
103.149
103.213
103.277
103.341
103.405
103.47
103.534
103.598
103.662
103.726
103.79
103.854
103.918
103.982
104.046
104.11
104.174
104.238
104.302
104.366
104.43
104.494
104.558
104.622
104.686
104.75
104.814
104.878
104.943
105.007
105.071
105.135
105.199
105.263
105.327
105.391
105.455
105.519
105.583
105.647
105.711
105.775
105.839
105.903
105.967
106.031
106.095
106.159
106.223
106.287
106.351
106.416
106.48
106.544
106.608
106.672
106.736
106.8
106.864
106.928
106.992
107.056
107.12
107.184
107.248
107.312
107.376
107.44
107.504
107.568
107.632
107.696
107.76
107.825
107.889
107.953
108.017
108.081
108.145
108.209
108.273
108.337
108.401
108.465
108.529
108.593
108.657
108.721
108.785
108.849
108.913
108.977
109.041
109.105
109.17
109.234
109.298
109.362
109.426
109.49
109.554
109.618
109.682
109.746
109.81
109.874
109.938
110.002
110.066
110.13
110.194
110.258
110.322
110.386
110.45
110.515
110.579
110.643
110.707
110.771
110.835
110.899
110.963
111.027
111.091
111.155
111.219
111.283
111.347
111.411
111.475
111.539
111.603
111.667
111.731
111.795
111.86
111.924
111.988
112.052
112.116
112.18
112.244
112.308
112.372
112.436
112.5
112.564
112.628
112.692
112.756
112.82
112.884
112.948
113.012
113.076
113.141
113.205
113.269
113.333
113.397
113.461
113.525
113.589
113.653
113.717
113.781
113.845
113.909
113.973
114.037
114.101
114.165
114.229
114.293
114.357
114.422
114.486
114.55
114.614
114.678
114.742
114.806
114.87
114.934
114.998
115.062
115.126
115.19
115.254
115.318
115.382
115.446
115.51
115.574
115.638
115.703
115.767
115.831
115.895
115.959
116.023
116.087
116.151
116.215
116.279
116.343
116.407
116.471
116.535
116.599
116.663
116.727
116.791
116.855
116.92
116.984
117.048
117.112
117.176
117.24
117.304
117.368
117.432
117.496
117.56
117.624
117.688
117.752
117.816
117.88
117.944
118.008
118.072
118.137
118.201
118.265
118.329
118.393
118.457
118.521
118.585
118.649
118.713
118.777
118.841
118.905
118.969
119.033
119.097
119.161
119.225
119.289
119.354
119.418
119.482
119.546
119.61
119.674
119.738
119.802
119.866
119.93
119.994
120.058
120.122
120.186
120.25
120.314
120.378
120.442
120.506
120.571
120.635
120.699
120.763
120.827
120.891
120.955
121.019
121.083
121.147
121.211
121.275
121.339
121.403
121.467
121.531
121.595
121.659
121.723
121.788
121.852
121.916
121.98
122.044
122.108
122.172
122.236
122.3
122.364
122.428
122.492
122.556
122.62
122.684
122.748
122.812
122.876
122.941
123.005
123.069
123.133
123.197
123.261
123.325
123.389
123.453
123.517
123.581
123.645
123.709
123.773
123.837
123.901
123.965
124.029
124.093
124.158
124.222
124.286
124.35
124.414
124.478
124.542
124.606
124.67
124.734
124.798
124.862
124.926
124.99
125.054
125.118
125.182
125.246
125.311
125.375
125.439
125.503
125.567
125.631
125.695
125.759
125.823
125.887
125.951
126.015
126.079
126.143
126.207
126.271
126.335
126.399
126.464
126.528
126.592
126.656
126.72
126.784
126.848
126.912
126.976
127.04
127.104
127.168
127.232
127.296
127.36
127.424
127.488
127.552
127.617
127.681
127.745
127.809
127.873
127.937
128.001
128.065
128.129
128.193
128.257
128.321
128.385
128.449
128.513
128.577
128.641
128.705
128.77
128.834
128.898
128.962
129.026
129.09
129.154
129.218
129.282
129.346
129.41
129.474
129.538
129.602
129.666
129.73
129.794
129.858
129.923
129.987
130.051
130.115
130.179
130.243
130.307
130.371
130.435
130.499
130.563
130.627
130.691
130.755
130.819
130.883
130.947
131.011
131.076
131.14
131.204
131.268
131.332
131.396
131.46
131.524
131.588
131.652
131.716
131.78
131.844
131.908
131.972
132.036
132.1
132.165
132.229
132.293
132.357
132.421
132.485
132.549
132.613
132.677
132.741
132.805
132.869
132.933
132.997
133.061
133.125
133.189
133.253
133.318
133.382
133.446
133.51
133.574
133.638
133.702
133.766
133.83
133.894
133.958
134.022
134.086
134.15
134.214
134.278
134.342
134.406
134.471
134.535
134.599
134.663
134.727
134.791
134.855
134.919
134.983
135.047
135.111
135.175
135.239
135.303
135.367
135.431
135.495
135.56
135.624
135.688
135.752
135.816
135.88
135.944
136.008
136.072
136.136
136.2
136.264
136.328
136.392
136.456
136.52
136.584
136.648
136.713
136.777
136.841
136.905
136.969
137.033
137.097
137.161
137.225
137.289
137.353
137.417
137.481
137.545
137.609
137.673
137.737
137.802
137.866
137.93
137.994
138.058
138.122
138.186
138.25
138.314
138.378
138.442
138.506
138.57
138.634
138.698
138.762
138.826
138.891
138.955
139.019
139.083
139.147
139.211
139.275
139.339
139.403
139.467
139.531
139.595
139.659
139.723
139.787
139.851
139.915
139.979
140.044
140.108
140.172
140.236
140.3
140.364
140.428
140.492
140.556
140.62
140.684
140.748
140.812
140.876
140.94
141.004
141.068
141.133
141.197
141.261
141.325
141.389
141.453
141.517
141.581
141.645
141.709
141.773
141.837
141.901
141.965
142.029
142.093
142.157
142.221
142.286
142.35
142.414
142.478
142.542
142.606
142.67
142.734
142.798
142.862
142.926
142.99
143.054
143.118
143.182
143.246
143.31
143.375
143.439
143.503
143.567
143.631
143.695
143.759
143.823
143.887
143.951
144.015
144.079
144.143
144.207
144.271
144.335
144.399
144.463
144.528
144.592
144.656
144.72
144.784
144.848
144.912
144.976
145.04
145.104
145.168
145.232
145.296
145.36
145.424
145.488
145.552
145.617
145.681
145.745
145.809
145.873
145.937
146.001
146.065
146.129
146.193
146.257
146.321
146.385
146.449
146.513
146.577
146.641
146.705
146.77
146.834
146.898
146.962
147.026
147.09
147.154
147.218
147.282
147.346
147.41
147.474
147.538
147.602
147.666
147.73
147.794
147.859
147.923
147.987
148.051
148.115
148.179
148.243
148.307
148.371
148.435
148.499
148.563
148.627
148.691
148.755
148.819
148.883
148.947
149.012
149.076
149.14
149.204
149.268
149.332
149.396
149.46
149.524
149.588
149.652
149.716
149.78
149.844
149.908
149.972
150.036
150.101
150.165
150.229
150.293
150.357
150.421
150.485
150.549
150.613
150.677
150.741
150.805
150.869
150.933
150.997
151.061
151.125
151.189
151.254
151.318
151.382
151.446
151.51
151.574
151.638
151.702
151.766
151.83
151.894
151.958
152.022
152.086
152.15
152.214
152.278
152.342
152.407
152.471
152.535
152.599
152.663
152.727
152.791
152.855
152.919
152.983
153.047
153.111
153.175
153.239
153.303
153.367
153.431
153.496
153.56
153.624
153.688
153.752
153.816
153.88
153.944
154.008
154.072
154.136
154.2
154.264
154.328
154.392
154.456
154.52
154.584
154.649
154.713
154.777
154.841
154.905
154.969
155.033
155.097
155.161
155.225
155.289
155.353
155.417
155.481
155.545
155.609
155.673
155.737
155.802
155.866
155.93
155.994
156.058
156.122
156.186
156.25
156.314
156.378
156.442
156.506
156.57
156.634
156.698
156.762
156.826
156.89
156.955
157.019
157.083
157.147
157.211
157.275
157.339
157.403
157.467
157.531
157.595
157.659
157.723
157.787
157.851
157.915
157.979
158.043
158.108
158.172
158.236
158.3
158.364
158.428
158.492
158.556
158.62
158.684
158.748
158.812
158.876
158.94
159.004
159.068
159.132
159.196
159.26
159.325
159.389
159.453
159.517
159.581
159.645
159.709
159.773
159.837
159.901
159.965
160.029
160.093
160.157
160.221
160.285
160.349
160.413
160.478
160.542
160.606
160.67
160.734
160.798
160.862
160.926
160.99
161.054
161.118
161.182
161.246
161.31
161.374
161.438
161.502
161.566
161.631
161.695
161.759
161.823
161.887
161.951
162.015
162.079
162.143
162.207
162.271
162.335
162.399
162.463
162.527
162.591
162.655
162.719
162.783
162.848
162.912
162.976
163.04
163.104
163.168
163.232
163.296
163.36
163.424
163.488
163.552
163.616
163.68
163.744
163.808
163.872
163.936
164
164.065
164.129
164.193
164.257
164.321
164.385
164.449
164.513
164.577
164.641
164.705
164.769
164.833
164.897
164.961
165.025
165.089
165.153
165.217
165.282
165.346
165.41
165.474
165.538
165.602
165.666
165.73
165.794
165.858
165.922
165.986
166.05
166.114
166.178
166.242
166.306
166.37
166.434
166.499
166.563
166.627
166.691
166.755
166.819
166.883
166.947
167.011
167.075
167.139
167.203
167.267
167.331
167.395
167.459
167.523
167.587
167.651
167.716
167.78
167.844
167.908
167.972
168.036
168.1
168.164
168.228
168.292
168.356
168.42
168.484
168.548
168.612
168.676
168.74
168.804
168.868
168.932
168.997
169.061
169.125
169.189
169.253
169.317
169.381
169.445
169.509
169.573
169.637
169.701
169.765
169.829
169.893
169.957
170.021
170.085
170.149
170.214
170.278
170.342
170.406
170.47
170.534
170.598
170.662
170.726
170.79
170.854
170.918
170.982
171.046
171.11
171.174
171.238
171.302
171.366
171.43
171.495
171.559
171.623
171.687
171.751
171.815
171.879
171.943
172.007
172.071
172.135
172.199
172.263
172.327
172.391
172.455
172.519
172.583
172.647
172.711
172.776
172.84
172.904
172.968
173.032
173.096
173.16
173.224
173.288
173.352
173.416
173.48
173.544
173.608
173.672
173.736
173.8
173.864
173.928
173.992
174.056
174.121
174.185
174.249
174.313
174.377
174.441
174.505
174.569
174.633
174.697
174.761
174.825
174.889
174.953
175.017
175.081
175.145
175.209
175.273
175.337
175.401
175.466
175.53
175.594
175.658
175.722
175.786
175.85
175.914
175.978
176.042
176.106
176.17
176.234
176.298
176.362
176.426
176.49
176.554
176.618
176.682
176.746
176.811
176.875
176.939
177.003
177.067
177.131
177.195
177.259
177.323
177.387
177.451
177.515
177.579
177.643
177.707
177.771
177.835
177.899
177.963
178.027
178.091
178.155
178.22
178.284
178.348
178.412
178.476
178.54
178.604
178.668
178.732
178.796
178.86
178.924
178.988
179.052
179.116
179.18
179.244
179.308
179.372
179.436
179.5
179.564
179.629
179.693
179.757
179.821
179.885
179.949
180.013
180.077
180.141
180.205
180.269
180.333
180.397
180.461
180.525
180.589
180.653
180.717
180.781
180.845
180.909
180.973
181.038
181.102
181.166
181.23
181.294
181.358
181.422
181.486
181.55
181.614
181.678
181.742
181.806
181.87
181.934
181.998
182.062
182.126
182.19
182.254
182.318
182.382
182.446
182.511
182.575
182.639
182.703
182.767
182.831
182.895
182.959
183.023
183.087
183.151
183.215
183.279
183.343
183.407
183.471
183.535
183.599
183.663
183.727
183.791
183.855
183.919
183.983
184.048
184.112
184.176
184.24
184.304
184.368
184.432
184.496
184.56
184.624
184.688
184.752
184.816
184.88
184.944
185.008
185.072
185.136
185.2
185.264
185.328
185.392
185.456
185.52
185.584
185.649
185.713
185.777
185.841
185.905
185.969
186.033
186.097
186.161
186.225
186.289
186.353
186.417
186.481
186.545
186.609
186.673
186.737
186.801
186.865
186.929
186.993
187.057
187.121
187.185
187.25
187.314
187.378
187.442
187.506
187.57
187.634
187.698
187.762
187.826
187.89
187.954
188.018
188.082
188.146
188.21
188.274
188.338
188.402
188.466
188.53
188.594
188.658
188.722
188.786
188.85
188.915
188.979
189.043
189.107
189.171
189.235
189.299
189.363
189.427
189.491
189.555
189.619
189.683
189.747
189.811
189.875
189.939
190.003
190.067
190.131
190.195
190.259
190.323
190.387
190.451
190.515
190.579
190.643
190.708
190.772
190.836
190.9
190.964
191.028
191.092
191.156
191.22
191.284
191.348
191.412
191.476
191.54
191.604
191.668
191.732
191.796
191.86
191.924
191.988
192.052
192.116
192.18
192.244
192.308
192.372
192.436
192.5
192.565
192.629
192.693
192.757
192.821
192.885
192.949
193.013
193.077
193.141
193.205
193.269
193.333
193.397
193.461
193.525
193.589
193.653
193.717
193.781
193.845
193.909
193.973
194.037
194.101
194.165
194.229
194.293
194.357
194.421
194.485
194.55
194.614
194.678
194.742
194.806
194.87
194.934
194.998
195.062
195.126
195.19
195.254
195.318
195.382
195.446
195.51
195.574
195.638
195.702
195.766
195.83
195.894
195.958
196.022
196.086
196.15
196.214
196.278
196.342
196.406
196.47
196.534
196.598
196.663
196.727
196.791
196.855
196.919
196.983
197.047
197.111
197.175
197.239
197.303
197.367
197.431
197.495
197.559
197.623
197.687
197.751
197.815
197.879
197.943
198.007
198.071
198.135
198.199
198.263
198.327
198.391
198.455
198.519
198.583
198.647
198.711
198.775
198.839
198.903
198.967
199.032
199.096
199.16
199.224
199.288
199.352
199.416
199.48
199.544
199.608
199.672
199.736
199.8
199.864
199.928
199.992
200.056
200.12
200.184
200.248
200.312
200.376
200.44
200.504
200.568
200.632
200.696
200.76
200.824
200.888
200.952
201.016
201.08
201.144
201.208
201.272
201.336
201.4
201.464
201.528
201.592
201.656
201.721
201.785
201.849
201.913
201.977
202.041
202.105
202.169
202.233
202.297
202.361
202.425
202.489
202.553
202.617
202.681
202.745
202.809
202.873
202.937
203.001
203.065
203.129
203.193
203.257
203.321
203.385
203.449
203.513
203.577
203.641
203.705
203.769
203.833
203.897
203.961
204.025
204.089
204.153
204.217
204.281
204.345
204.409
204.473
204.537
204.601
204.665
204.729
204.793
204.857
204.921
204.985
205.05
205.114
205.178
205.242
205.306
205.37
205.434
205.498
205.562
205.626
205.69
205.754
205.818
205.882
205.946
206.01
206.074
206.138
206.202
206.266
206.33
206.394
206.458
206.522
206.586
206.65
206.714
206.778
206.842
206.906
206.97
207.034
207.098
207.162
207.226
207.29
207.354
207.418
207.482
207.546
207.61
207.674
207.738
207.802
207.866
207.93
207.994
208.058
208.122
208.186
208.25
208.314
208.378
208.442
208.506
208.57
208.634
208.698
208.762
208.826
208.89
208.954
209.018
209.082
209.146
209.21
209.274
209.338
209.402
209.466
209.53
209.594
209.658
209.722
209.786
209.85
209.914
209.978
210.042
210.106
210.17
210.234
210.298
210.362
210.426
210.491
210.555
210.619
210.683
210.747
210.811
210.875
210.939
211.003
211.067
211.131
211.195
211.259
211.323
211.387
211.451
211.515
211.579
211.643
211.707
211.771
211.835
211.899
211.963
212.027
212.091
212.155
212.219
212.283
212.347
212.411
212.475
212.539
212.603
212.667
212.731
212.795
212.859
212.923
212.987
213.051
213.115
213.179
213.243
213.307
213.371
213.435
213.499
213.563
213.627
213.691
213.755
213.819
213.883
213.947
214.011
214.075
214.139
214.203
214.267
214.331
214.395
214.459
214.523
214.587
214.651
214.715
214.779
214.843
214.907
214.971
215.035
215.099
215.163
215.227
215.291
215.355
215.419
215.483
215.547
215.611
215.675
215.739
215.803
215.867
215.931
215.995
216.059
216.123
216.187
216.251
216.315
216.379
216.442
216.506
216.57
216.634
216.698
216.762
216.826
216.89
216.954
217.018
217.082
217.146
217.21
217.274
217.338
217.402
217.466
217.53
217.594
217.658
217.722
217.786
217.85
217.914
217.978
218.042
218.106
218.17
218.234
218.298
218.362
218.426
218.49
218.554
218.618
218.682
218.746
218.81
218.874
218.938
219.002
219.066
219.13
219.194
219.258
219.322
219.386
219.45
219.514
219.578
219.642
219.706
219.77
219.834
219.898
219.962
220.026
220.09
220.154
220.218
220.282
220.346
220.41
220.474
220.538
220.602
220.666
220.73
220.794
220.858
220.922
220.986
221.05
221.114
221.177
221.241
221.305
221.369
221.433
221.497
221.561
221.625
221.689
221.753
221.817
221.881
221.945
222.009
222.073
222.137
222.201
222.265
222.329
222.393
222.457
222.521
222.585
222.649
222.713
222.777
222.841
222.905
222.969
223.033
223.097
223.161
223.225
223.289
223.353
223.417
223.481
223.545
223.609
223.673
223.736
223.8
223.864
223.928
223.992
224.056
224.12
224.184
224.248
224.312
224.376
224.44
224.504
224.568
224.632
224.696
224.76
224.824
224.888
224.952
225.016
225.08
225.144
225.208
225.272
225.336
225.4
225.464
225.528
225.592
225.656
225.719
225.783
225.847
225.911
225.975
226.039
226.103
226.167
226.231
226.295
226.359
226.423
226.487
226.551
226.615
226.679
226.743
226.807
226.871
226.935
226.999
227.063
227.127
227.191
227.255
227.318
227.382
227.446
227.51
227.574
227.638
227.702
227.766
227.83
227.894
227.958
228.022
228.086
228.15
228.214
228.278
228.342
228.406
228.47
228.534
228.598
228.662