/*--------------------------------*- C++ -*----------------------------------*\
  =========                 |
  \\      /  F ield         | OpenFOAM: The Open Source CFD Toolbox
   \\    /   O peration     | Website:  https://openfoam.org
    \\  /    A nd           | Version:  9
     \\/     M anipulation  |
\*---------------------------------------------------------------------------*/
FoamFile
{
    format      ascii;
    class       surfaceScalarField;
    location    "0.013";
    object      phi;
}
// * * * * * * * * * * * * * * * * * * * * * * * * * * * * * * * * * * * * * //

dimensions      [1 0 -1 0 0 0 0];

internalField   nonuniform List<scalar> 
9999
(
0.0160221
0.0229773
0.0300034
0.0371236
0.0443593
0.0517321
0.0592635
0.0669753
0.0748894
0.0830279
0.0914128
0.100067
0.109012
0.118271
0.127867
0.137823
0.148163
0.158909
0.170086
0.181717
0.193828
0.206441
0.219581
0.233274
0.247545
0.262417
0.277918
0.294072
0.310905
0.328443
0.346711
0.365737
0.385546
0.406164
0.427618
0.449935
0.47314
0.49726
0.522322
0.548352
0.575377
0.603422
0.632514
0.662679
0.693942
0.72633
0.759868
0.79458
0.830492
0.867629
0.906014
0.945671
0.986624
1.0289
1.07251
1.11749
1.16385
1.21162
1.26081
1.31146
1.36356
1.41716
1.47225
1.52887
1.58702
1.64673
1.708
1.77086
1.83532
1.90138
1.96907
2.03839
2.10936
2.18198
2.25626
2.33222
2.40986
2.48919
2.5702
2.65292
2.73734
2.82347
2.9113
3.00085
3.09211
3.18508
3.27977
3.37617
3.47428
3.5741
3.67562
3.77885
3.88377
3.99039
4.09869
4.20867
4.32033
4.43365
4.54864
4.66527
4.78354
4.90344
5.02497
5.1481
5.27284
5.39916
5.52706
5.65652
5.78754
5.92009
6.05417
6.18976
6.32685
6.46543
6.60547
6.74697
6.8899
7.03427
7.18004
7.32721
7.47576
7.62567
7.77693
7.92952
8.08342
8.23863
8.39512
8.55287
8.71188
8.87212
9.03358
9.19625
9.3601
9.52512
9.6913
9.85861
10.027
10.1966
10.3672
10.5389
10.7117
10.8855
11.0603
11.2362
11.413
11.5908
11.7696
11.9493
12.13
12.3116
12.4941
12.6775
12.8617
13.0469
13.2329
13.4197
13.6073
13.7957
13.985
14.175
14.3658
14.5573
14.7496
14.9426
15.1363
15.3307
15.5258
15.7216
15.9181
16.1152
16.313
16.5114
16.7104
16.9101
17.1103
17.3111
17.5125
17.7145
17.917
18.1201
18.3237
18.5279
18.7325
18.9377
19.1434
19.3496
19.5562
19.7633
19.9709
20.179
20.3874
20.5964
20.8057
21.0155
21.2257
21.4363
21.6473
21.8587
22.0705
22.2827
22.4952
22.7081
22.9213
23.1349
23.3489
23.5632
23.7778
23.9927
24.2079
24.4235
24.6394
24.8555
25.072
25.2887
25.5058
25.7231
25.9407
26.1585
26.3766
26.595
26.8136
27.0324
27.2515
27.4709
27.6904
27.9102
28.1302
28.3504
28.5709
28.7915
29.0124
29.2334
29.4547
29.6761
29.8978
30.1196
30.3416
30.5638
30.7861
31.0086
31.2313
31.4542
31.6772
31.9003
32.1236
32.3471
32.5707
32.7945
33.0183
33.2424
33.4665
33.6908
33.9152
34.1398
34.3644
34.5892
34.8141
35.0391
35.2642
35.4895
35.7148
35.9403
36.1658
36.3914
36.6172
36.843
37.0689
37.2949
37.521
37.7472
37.9735
38.1998
38.4262
38.6527
38.8793
39.1059
39.3327
39.5594
39.7863
40.0132
40.2402
40.4672
40.6943
40.9215
41.1487
41.3759
41.6032
41.8306
42.058
42.2855
42.513
42.7405
42.9681
43.1958
43.4234
43.6511
43.8789
44.1067
44.3345
44.5623
44.7902
45.0181
45.246
45.474
45.702
45.93
46.158
46.3861
46.6142
46.8423
47.0704
47.2985
47.5267
47.7548
47.983
48.2112
48.4394
48.6676
48.8958
49.124
49.3523
49.5805
49.8088
50.037
50.2653
50.4935
50.7218
50.95
51.1783
51.4066
51.6348
51.8631
52.0913
52.3196
52.5478
52.776
53.0042
53.2325
53.4607
53.6889
53.9171
54.1452
54.3734
54.6015
54.8297
55.0578
55.2859
55.514
55.7421
55.9701
56.1982
56.4262
56.6542
56.8822
57.1102
57.3381
57.566
57.7939
58.0218
58.2497
58.4775
58.7053
58.9331
59.1608
59.3886
59.6163
59.8439
60.0716
60.2992
60.5268
60.7544
60.9819
61.2094
61.4369
61.6643
61.8917
62.1191
62.3464
62.5737
62.801
63.0282
63.2554
63.4826
63.7098
63.9368
64.1639
64.3909
64.6179
64.8449
65.0718
65.2987
65.5255
65.7523
65.979
66.2058
66.4324
66.6591
66.8856
67.1122
67.3387
67.5652
67.7916
68.018
68.2443
68.4706
68.6969
68.9231
69.1492
69.3753
69.6014
69.8274
70.0534
70.2793
70.5052
70.7311
70.9569
71.1826
71.4083
71.6339
71.8595
72.0851
72.3106
72.5361
72.7615
72.9868
73.2121
73.4374
73.6626
73.8877
74.1128
74.3379
74.5629
74.7878
75.0127
75.2376
75.4624
75.6871
75.9118
76.1364
76.361
76.5855
76.81
77.0344
77.2588
77.4831
77.7073
77.9315
78.1557
78.3798
78.6038
78.8278
79.0517
79.2756
79.4994
79.7232
79.9469
80.1705
80.3941
80.6176
80.8411
81.0645
81.2878
81.5111
81.7344
81.9576
82.1807
82.4038
82.6268
82.8497
83.0726
83.2954
83.5182
83.7409
83.9636
84.1862
84.4087
84.6312
84.8536
85.0759
85.2982
85.5205
85.7426
85.9647
86.1868
86.4088
86.6307
86.8526
87.0744
87.2961
87.5178
87.7394
87.961
88.1825
88.4039
88.6253
88.8466
89.0678
89.289
89.5101
89.7312
89.9522
90.1731
90.394
90.6148
90.8355
91.0562
91.2768
91.4974
91.7178
91.9383
92.1586
92.3789
92.5991
92.8193
93.0394
93.2594
93.4794
93.6993
93.9192
94.1389
94.3587
94.5783
94.7979
95.0174
95.2368
95.4562
95.6756
95.8948
96.114
96.3331
96.5522
96.7712
96.9901
97.2089
97.4277
97.6465
97.8651
98.0837
98.3022
98.5207
98.7391
98.9574
99.1757
99.3939
99.612
99.8301
100.048
100.266
100.484
100.702
100.919
101.137
101.355
101.572
101.79
102.007
102.224
102.442
102.659
102.876
103.093
103.31
103.527
103.744
103.96
104.177
104.394
104.61
104.827
105.043
105.26
105.476
105.692
105.908
106.124
106.34
106.556
106.772
106.988
107.204
107.419
107.635
107.851
108.066
108.281
108.497
108.712
108.927
109.142
109.357
109.572
109.787
110.002
110.217
110.432
110.646
110.861
111.075
111.29
111.504
111.718
111.933
112.147
112.361
112.575
112.789
113.003
113.216
113.43
113.644
113.857
114.071
114.284
114.498
114.711
114.924
115.137
115.351
115.564
115.777
115.989
116.202
116.415
116.628
116.84
117.053
117.265
117.478
117.69
117.902
118.114
118.326
118.538
118.75
118.962
119.174
119.386
119.598
119.809
120.021
120.232
120.444
120.655
120.866
121.077
121.288
121.499
121.71
121.921
122.132
122.343
122.554
122.764
122.975
123.185
123.396
123.606
123.816
124.026
124.236
124.447
124.656
124.866
125.076
125.286
125.496
125.705
125.915
126.124
126.334
126.543
126.752
126.961
127.171
127.38
127.589
127.797
128.006
128.215
128.424
128.632
128.841
129.049
129.258
129.466
129.674
129.882
130.09
130.299
130.506
130.714
130.922
131.13
131.338
131.545
131.753
131.96
132.168
132.375
132.582
132.789
132.996
133.203
133.41
133.617
133.824
134.031
134.237
134.444
134.65
134.857
135.063
135.27
135.476
135.682
135.888
136.094
136.3
136.506
136.712
136.917
137.123
137.329
137.534
137.74
137.945
138.15
138.355
138.561
138.766
138.971
139.176
139.38
139.585
139.79
139.995
140.199
140.404
140.608
140.812
141.017
141.221
141.425
141.629
141.833
142.037
142.241
142.445
142.648
142.852
143.055
143.259
143.462
143.666
143.869
144.072
144.275
144.478
144.681
144.884
145.087
145.29
145.492
145.695
145.897
146.1
146.302
146.505
146.707
146.909
147.111
147.313
147.515
147.717
147.919
148.121
148.322
148.524
148.725
148.927
149.128
149.33
149.531
149.732
149.933
150.134
150.335
150.536
150.737
150.937
151.138
151.339
151.539
151.74
151.94
152.14
152.34
152.541
152.741
152.941
153.141
153.34
153.54
153.74
153.939
154.139
154.339
154.538
154.737
154.937
155.136
155.335
155.534
155.733
155.932
156.131
156.329
156.528
156.727
156.925
157.124
157.322
157.521
157.719
157.917
158.115
158.313
158.511
158.709
158.907
159.105
159.302
159.5
159.697
159.895
160.092
160.29
160.487
160.684
160.881
161.078
161.275
161.472
161.669
161.866
162.062
162.259
162.455
162.652
162.848
163.044
163.241
163.437
163.633
163.829
164.025
164.221
164.417
164.612
164.808
165.004
165.199
165.395
165.59
165.785
165.98
166.176
166.371
166.566
166.761
166.955
167.15
167.345
167.54
167.734
167.929
168.123
168.317
168.512
168.706
168.9
169.094
169.288
169.482
169.676
169.87
170.063
170.257
170.451
170.644
170.838
171.031
171.224
171.417
171.61
171.804
171.997
172.189
172.382
172.575
172.768
172.96
173.153
173.345
173.538
173.73
173.922
174.115
174.307
174.499
174.691
174.883
175.074
175.266
175.458
175.65
175.841
176.033
176.224
176.415
176.607
176.798
176.989
177.18
177.371
177.562
177.753
177.943
178.134
178.325
178.515
178.706
178.896
179.086
179.277
179.467
179.657
179.847
180.037
180.227
180.417
180.606
180.796
180.986
181.175
181.365
181.554
181.743
181.933
182.122
182.311
182.5
182.689
182.878
183.067
183.255
183.444
183.633
183.821
184.01
184.198
184.386
184.575
184.763
184.951
185.139
185.327
185.515
185.703
185.89
186.078
186.266
186.453
186.641
186.828
187.015
187.203
187.39
187.577
187.764
187.951
188.138
188.325
188.511
188.698
188.885
189.071
189.258
189.444
189.63
189.817
190.003
190.189
190.375
190.561
190.747
190.933
191.118
191.304
191.49
191.675
191.861
192.046
192.231
192.417
192.602
192.787
192.972
193.157
193.342
193.527
193.712
193.896
194.081
194.265
194.45
194.634
194.819
195.003
195.187
195.371
195.555
195.739
195.923
196.107
196.291
196.474
196.658
196.842
197.025
197.208
197.392
197.575
197.758
197.941
198.124
198.307
198.49
198.673
198.856
199.039
199.221
199.404
199.586
199.769
199.951
200.133
200.316
200.498
200.68
200.862
201.044
201.226
201.407
201.589
201.771
201.952
202.134
202.315
202.497
202.678
202.859
203.04
203.221
203.402
203.583
203.764
203.945
204.126
204.306
204.487
204.667
204.848
205.028
205.209
205.389
205.569
205.749
205.929
206.109
206.289
206.469
206.649
206.828
207.008
207.187
207.367
207.546
207.726
207.905
208.084
208.263
208.442
208.621
208.8
208.979
209.158
209.336
209.515
209.693
209.872
210.05
210.229
210.407
210.585
210.763
210.941
211.119
211.297
211.475
211.653
211.831
212.008
212.186
212.363
212.541
212.718
212.895
213.073
213.25
213.427
213.604
213.781
213.958
214.135
214.311
214.488
214.665
214.841
215.018
215.194
215.37
215.546
215.723
215.899
216.075
216.251
216.427
216.603
216.778
216.954
217.13
217.305
217.481
217.656
217.831
218.007
218.182
218.357
218.532
218.707
218.882
219.057
219.232
219.406
219.581
219.756
219.93
220.105
220.279
220.453
220.628
220.802
220.976
221.15
221.324
221.498
221.671
221.845
222.019
222.193
222.366
222.54
222.713
222.886
223.06
223.233
223.406
223.579
223.752
223.925
224.098
224.27
224.443
224.616
224.788
224.961
225.133
225.306
225.478
225.65
225.822
225.995
226.167
226.339
226.51
226.682
226.854
227.026
227.197
227.369
227.54
227.712
227.883
228.054
228.226
228.397
228.568
228.739
228.91
229.08
229.251
229.422
229.593
229.763
229.934
230.104
230.275
230.445
230.615
230.785
230.955
231.125
231.295
231.465
231.635
231.805
231.975
232.144
232.314
232.483
232.653
232.822
232.991
233.161
233.33
233.499
233.668
233.837
234.006
234.174
234.343
234.512
234.68
234.849
235.017
235.186
235.354
235.522
235.691
235.859
236.027
236.195
236.363
236.531
236.698
236.866
237.034
237.201
237.369
237.536
237.704
237.871
238.038
238.205
238.372
238.539
238.706
238.873
239.04
239.207
239.374
239.54
239.707
239.873
240.04
240.206
240.372
240.539
240.705
240.871
241.037
241.203
241.369
241.534
241.7
241.866
242.032
242.197
242.363
242.528
242.693
242.859
243.024
243.189
243.354
243.519
243.684
243.849
244.014
244.178
244.343
244.508
244.672
244.837
245.001
245.165
245.33
245.494
245.658
245.822
245.986
246.15
246.314
246.478
246.641
246.805
246.969
247.132
247.296
247.459
247.622
247.785
247.949
248.112
248.275
248.438
248.601
248.764
248.926
249.089
249.252
249.414
249.577
249.739
249.902
250.064
250.226
250.388
250.551
250.713
250.875
251.037
251.198
251.36
251.522
251.683
251.845
252.007
252.168
252.329
252.491
252.652
252.813
252.974
253.135
253.296
253.457
253.618
253.779
253.94
254.1
254.261
254.421
254.582
254.742
254.902
255.063
255.223
255.383
255.543
255.703
255.863
256.023
256.183
256.342
256.502
256.662
256.821
256.98
257.14
257.299
257.458
257.618
257.777
257.936
258.095
258.254
258.413
258.571
258.73
258.889
259.047
259.206
259.364
259.523
259.681
259.839
259.997
260.156
260.314
260.472
260.63
260.787
260.945
261.103
261.261
261.418
261.576
261.733
261.891
262.048
262.205
262.362
262.52
262.677
262.834
262.991
263.147
263.304
263.461
263.618
263.774
263.931
264.087
264.244
264.4
264.556
264.713
264.869
265.025
265.181
265.337
265.493
265.648
265.804
265.96
266.115
266.271
266.427
266.582
266.737
266.893
267.048
267.203
267.358
267.513
267.668
267.823
267.978
268.133
268.287
268.442
268.597
268.751
268.906
269.06
269.214
269.368
269.523
269.677
269.831
269.985
270.139
270.293
270.446
270.6
270.754
270.907
271.061
271.214
271.368
271.521
271.674
271.828
271.981
272.134
272.287
272.44
272.593
272.745
272.898
273.051
273.204
273.356
273.509
273.661
273.813
273.966
274.118
274.27
274.422
274.574
274.726
274.878
275.03
275.182
275.333
275.485
275.637
275.788
275.94
276.091
276.242
276.394
276.545
276.696
276.847
276.998
277.149
277.3
277.451
277.601
277.752
277.903
278.053
278.204
278.354
278.505
278.655
278.805
278.955
279.105
279.255
279.405
279.555
279.705
279.855
280.005
280.154
280.304
280.453
280.603
280.752
280.901
281.051
281.2
281.349
281.498
281.647
281.796
281.945
282.094
282.243
282.391
282.54
282.688
282.837
282.985
283.134
283.282
283.43
283.578
283.727
283.875
284.023
284.17
284.318
284.466
284.614
284.761
284.909
285.057
285.204
285.352
285.499
285.646
285.793
285.94
286.088
286.235
286.382
286.528
286.675
286.822
286.969
287.115
287.262
287.409
287.555
287.701
287.848
287.994
288.14
288.286
288.432
288.578
288.724
288.87
289.016
289.162
289.307
289.453
289.599
289.744
289.89
290.035
290.18
290.325
290.471
290.616
290.761
290.906
291.051
291.196
291.34
291.485
291.63
291.774
291.919
292.063
292.208
292.352
292.497
292.641
292.785
292.929
293.073
293.217
293.361
293.505
293.649
293.792
293.936
294.08
294.223
294.367
294.51
294.653
294.797
294.94
295.083
295.226
295.369
295.512
295.655
295.798
295.941
296.083
296.226
296.369
296.511
296.654
296.796
296.938
297.081
297.223
297.365
297.507
297.649
297.791
297.933
298.075
298.217
298.358
298.5
298.642
298.783
298.925
299.066
299.207
299.349
299.49
299.631
299.772
299.913
300.054
300.195
300.336
300.477
300.617
300.758
300.899
301.039
301.18
301.32
301.461
301.601
301.741
301.881
302.021
302.161
302.301
302.441
302.581
302.721
302.861
303
303.14
303.279
303.419
303.558
303.698
303.837
303.976
304.115
304.254
304.393
304.532
304.671
304.81
304.949
305.088
305.226
305.365
305.503
305.642
305.78
305.919
306.057
306.195
306.333
306.472
306.61
306.748
306.886
307.023
307.161
307.299
307.437
307.574
307.712
307.849
307.987
308.124
308.261
308.399
308.536
308.673
308.81
308.947
309.084
309.221
309.358
309.494
309.631
309.768
309.904
310.041
310.177
310.314
310.45
310.586
310.722
310.859
310.995
311.131
311.267
311.403
311.538
311.674
311.81
311.946
312.081
312.217
312.352
312.488
312.623
312.758
312.893
313.029
313.164
313.299
313.434
313.569
313.703
313.838
313.973
314.108
314.242
314.377
314.511
314.646
314.78
314.914
315.049
315.183
315.317
315.451
315.585
315.719
315.853
315.987
316.12
316.254
316.388
316.521
316.655
316.788
316.922
317.055
317.188
317.322
317.455
317.588
317.721
317.854
317.987
318.12
318.252
318.385
318.518
318.65
318.783
318.915
319.048
319.18
319.313
319.445
319.577
319.709
319.841
319.973
320.105
320.237
320.369
320.501
320.632
320.764
320.895
321.027
321.158
321.29
321.421
321.552
321.684
321.815
321.946
322.077
322.208
322.339
322.47
322.601
322.731
322.862
322.993
323.123
323.254
323.384
323.514
323.645
323.775
323.905
324.035
324.165
324.295
324.425
324.555
324.685
324.815
324.945
325.074
325.204
325.333
325.463
325.592
325.722
325.851
325.98
326.109
326.238
326.368
326.497
326.625
326.754
326.883
327.012
327.141
327.269
327.398
327.526
327.655
327.783
327.912
328.04
328.168
328.296
328.424
328.552
328.68
328.808
328.936
329.064
329.192
329.319
329.447
329.575
329.702
329.83
329.957
330.084
330.212
330.339
330.466
330.593
330.72
330.847
330.974
331.101
331.228
331.354
331.481
331.608
331.734
331.861
331.987
332.114
332.24
332.366
332.492
332.619
332.745
332.871
332.997
333.123
333.248
333.374
333.5
333.626
333.751
333.877
334.002
334.128
334.253
334.378
334.504
334.629
334.754
334.879
335.004
335.129
335.254
335.379
335.504
335.628
335.753
335.878
336.002
336.127
336.251
336.376
336.5
336.624
336.748
336.872
336.997
337.121
337.245
337.368
337.492
337.616
337.74
337.864
337.987
338.111
338.234
338.358
338.481
338.604
338.728
338.851
338.974
339.097
339.22
339.343
339.466
339.589
339.712
339.834
339.957
340.08
340.202
340.325
340.447
340.57
340.692
340.814
340.937
341.059
341.181
341.303
341.425
341.547
341.669
341.79
341.912
342.034
342.156
342.277
342.399
342.52
342.642
342.763
342.884
343.005
343.127
343.248
343.369
343.49
343.611
343.732
343.852
343.973
344.094
344.215
344.335
344.456
344.576
344.697
344.817
344.937
345.057
345.178
345.298
345.418
345.538
345.658
345.778
345.898
346.017
346.137
346.257
346.376
346.496
346.615
346.735
346.854
346.974
347.093
347.212
347.331
347.45
347.569
347.688
347.807
347.926
348.045
348.164
348.282
348.401
348.52
348.638
348.757
348.875
348.993
349.112
349.23
349.348
349.466
349.584
349.702
349.82
349.938
350.056
350.174
350.292
350.409
350.527
350.644
350.762
350.879
350.997
351.114
351.231
351.348
351.466
351.583
351.7
351.817
351.934
352.051
352.167
352.284
352.401
352.517
352.634
352.751
352.867
352.983
353.1
353.216
353.332
353.449
353.565
353.681
353.797
353.913
354.029
354.144
354.26
354.376
354.492
354.607
354.723
354.838
354.954
355.069
355.185
355.3
355.415
355.53
355.645
355.76
355.875
355.99
356.105
356.22
356.335
356.449
356.564
356.679
356.793
356.908
357.022
357.137
357.251
357.365
357.479
357.594
357.708
357.822
357.936
358.05
358.163
358.277
358.391
358.505
358.618
358.732
358.845
358.959
359.072
359.186
359.299
359.412
359.525
359.639
359.752
359.865
359.978
360.091
360.203
360.316
360.429
360.542
360.654
360.767
360.879
360.992
361.104
361.217
361.329
361.441
361.553
361.666
361.778
361.89
362.002
362.114
362.225
362.337
362.449
362.561
362.672
362.784
362.895
363.007
363.118
363.23
363.341
363.452
363.563
363.674
363.786
363.897
364.007
364.118
364.229
364.34
364.451
364.561
364.672
364.783
364.893
365.004
365.114
365.224
365.335
365.445
365.555
365.665
365.775
365.885
365.995
366.105
366.215
366.325
366.435
366.544
366.654
366.764
366.873
366.983
367.092
367.201
367.311
367.42
367.529
367.638
367.747
367.856
367.965
368.074
368.183
368.292
368.401
368.509
368.618
368.727
368.835
368.944
369.052
369.16
369.269
369.377
369.485
369.593
369.701
369.809
369.917
370.025
370.133
370.241
370.349
370.457
370.564
370.672
370.779
370.887
370.994
371.102
371.209
371.316
371.423
371.531
371.638
371.745
371.852
371.959
372.066
372.172
372.279
372.386
372.493
372.599
372.706
372.812
372.919
373.025
373.132
373.238
373.344
373.45
373.556
373.662
373.768
373.874
373.98
374.086
374.192
374.298
374.403
374.509
374.615
374.72
374.826
374.931
375.036
375.142
375.247
375.352
375.457
375.562
375.668
375.773
375.877
375.982
376.087
376.192
376.297
376.401
376.506
376.61
376.715
376.819
376.924
377.028
377.132
377.237
377.341
377.445
377.549
377.653
377.757
377.861
377.965
378.069
378.172
378.276
378.38
378.483
378.587
378.69
378.794
378.897
379
379.104
379.207
379.31
379.413
379.516
379.619
379.722
379.825
379.928
380.031
380.133
380.236
380.339
380.441
380.544
380.646
380.749
380.851
380.953
381.055
381.158
381.26
381.362
381.464
381.566
381.668
381.77
381.872
381.973
382.075
382.177
382.278
382.38
382.481
382.583
382.684
382.785
382.887
382.988
383.089
383.19
383.291
383.392
383.493
383.594
383.695
383.796
383.897
383.997
384.098
384.199
384.299
384.4
384.5
384.6
384.701
384.801
384.901
385.001
385.102
385.202
385.302
385.402
385.502
385.601
385.701
385.801
385.901
386
386.1
386.199
386.299
386.398
386.498
386.597
386.696
386.796
386.895
386.994
387.093
387.192
387.291
387.39
387.489
387.587
387.686
387.785
387.883
387.982
388.081
388.179
388.278
388.376
388.474
388.572
388.671
388.769
388.867
388.965
389.063
389.161
389.259
389.357
389.455
389.552
389.65
389.748
389.845
389.943
390.04
390.138
390.235
390.332
390.43
390.527
390.624
390.721
390.818
390.915
391.012
391.109
391.206
391.303
391.4
391.496
391.593
391.69
391.786
391.883
391.979
392.075
392.172
392.268
392.364
392.461
392.557
392.653
392.749
392.845
392.941
393.037
393.132
393.228
393.324
393.419
393.515
393.611
393.706
393.802
393.897
393.992
394.088
394.183
394.278
394.373
394.468
394.563
394.658
394.753
394.848
394.943
395.038
395.133
395.227
395.322
395.416
395.511
395.606
395.7
395.794
395.889
395.983
396.077
396.171
396.265
396.359
396.453
396.547
396.641
396.735
396.829
396.923
397.016
397.11
397.204
397.297
397.391
397.484
397.578
397.671
397.764
397.857
397.951
398.044
398.137
398.23
398.323
398.416
398.509
398.602
398.694
398.787
398.88
398.972
399.065
399.157
399.25
399.342
399.435
399.527
399.619
399.712
399.804
399.896
399.988
400.08
400.172
400.264
400.356
400.447
400.539
400.631
400.723
400.814
400.906
400.997
401.089
401.18
401.271
401.363
401.454
401.545
401.636
401.727
401.819
401.91
402
402.091
402.182
402.273
402.364
402.454
402.545
402.636
402.726
402.817
402.907
402.998
403.088
403.178
403.268
403.359
403.449
403.539
403.629
403.719
403.809
403.899
403.989
404.078
404.168
404.258
404.347
404.437
404.526
404.616
404.705
404.795
404.884
404.973
405.063
405.152
405.241
405.33
405.419
405.508
405.597
405.686
405.775
405.863
405.952
406.041
406.13
406.218
406.307
406.395
406.484
406.572
406.66
406.749
406.837
406.925
407.013
407.101
407.189
407.277
407.365
407.453
407.541
407.629
407.716
407.804
407.892
407.979
408.067
408.154
408.242
408.329
408.416
408.504
408.591
408.678
408.765
408.852
408.939
409.026
409.113
409.2
409.287
409.374
409.46
409.547
409.634
409.72
409.807
409.893
409.98
410.066
410.152
410.239
410.325
410.411
410.497
410.583
410.669
410.755
410.841
410.927
411.013
411.099
411.185
411.27
411.356
411.442
411.527
411.613
411.698
411.783
411.869
411.954
412.039
412.125
412.21
412.295
412.38
412.465
412.55
412.635
412.72
412.804
412.889
412.974
413.059
413.143
413.228
413.312
413.397
413.481
413.565
413.65
413.734
413.818
413.902
413.987
414.071
414.155
414.239
414.323
414.406
414.49
414.574
414.658
414.741
414.825
414.909
414.992
415.076
415.159
415.242
415.326
415.409
415.492
415.576
415.659
415.742
415.825
415.908
415.991
416.074
416.156
416.239
416.322
416.405
416.487
416.57
416.653
416.735
416.818
416.9
416.982
417.065
417.147
417.229
417.311
417.393
417.475
417.557
417.639
417.721
417.803
417.885
417.967
418.049
418.13
418.212
418.294
418.375
418.457
418.538
418.619
418.701
418.782
418.863
418.944
419.026
419.107
419.188
419.269
419.35
419.431
419.512
419.592
419.673
419.754
419.835
419.915
419.996
420.076
420.157
420.237
420.318
420.398
420.478
420.558
420.639
420.719
420.799
420.879
420.959
421.039
421.119
421.198
421.279
421.358
421.438
421.517
421.597
421.677
421.756
421.836
421.915
421.994
422.074
422.153
422.232
422.312
422.391
422.47
422.549
422.628
422.707
422.786
422.864
422.943
423.022
423.101
423.179
423.258
423.336
423.415
423.493
423.572
423.65
423.729
423.807
423.885
423.963
424.042
424.12
424.198
424.276
424.354
424.432
424.509
424.587
424.665
424.743
424.82
424.898
424.976
425.053
425.131
425.208
425.285
425.363
425.44
425.517
425.594
425.672
425.749
425.826
425.903
425.98
426.057
426.133
426.21
426.287
426.364
426.44
426.517
426.594
426.67
426.747
426.823
426.899
426.976
427.052
427.128
427.204
427.281
427.357
427.433
427.509
427.585
427.661
427.737
427.812
427.888
427.964
428.04
428.115
428.191
428.266
428.342
428.417
428.493
428.568
428.643
428.719
428.794
428.869
428.944
429.019
429.094
429.169
429.244
429.319
429.394
429.469
429.543
429.618
429.693
429.767
429.842
429.916
429.991
430.065
430.14
430.214
430.288
430.363
430.437
430.511
430.585
430.659
430.733
430.807
430.881
430.955
431.029
431.102
431.176
431.25
431.323
431.397
431.471
431.544
431.618
431.691
431.764
431.838
431.911
431.984
432.057
432.13
432.203
432.277
432.349
432.422
432.495
432.568
432.641
432.714
432.786
432.859
432.932
433.004
433.077
433.149
433.222
433.294
433.366
433.439
433.511
433.583
433.655
433.727
433.8
433.872
433.944
434.015
434.087
434.159
434.231
434.303
434.374
434.446
434.518
434.589
434.661
434.732
434.804
434.875
434.946
435.018
435.089
435.16
435.231
435.302
435.373
435.444
435.515
435.586
435.657
435.728
435.799
435.87
435.94
436.011
436.081
436.152
436.223
436.293
436.363
436.434
436.504
436.574
436.645
436.715
436.785
436.855
436.925
436.995
437.065
437.135
437.205
437.275
437.344
437.414
437.484
437.554
437.623
437.693
437.762
437.832
437.901
437.971
438.04
438.109
438.178
438.248
438.317
438.386
438.455
438.524
438.593
438.662
438.731
438.799
438.868
438.937
439.006
439.074
439.143
439.212
439.28
439.349
439.417
439.485
439.554
439.622
439.69
439.758
439.827
439.895
439.963
440.031
440.099
440.167
440.235
440.302
440.37
440.438
440.506
440.573
440.641
440.709
440.776
440.844
440.911
440.978
441.046
441.113
441.18
441.248
441.315
441.382
441.449
441.516
441.583
441.65
441.717
441.784
441.85
441.917
441.984
442.051
442.117
442.184
442.25
442.317
442.383
442.45
442.516
442.583
442.649
442.715
442.781
442.847
442.913
442.98
443.046
443.112
443.177
443.243
443.309
443.375
443.441
443.506
443.572
443.638
443.703
443.769
443.834
443.9
443.965
444.03
444.096
444.161
444.226
444.291
444.357
444.422
444.487
444.552
444.617
444.682
444.746
444.811
444.876
444.941
445.005
445.07
445.135
445.199
445.264
445.328
445.393
445.457
445.521
445.586
445.65
445.714
445.778
445.842
445.906
445.97
446.034
446.098
446.162
446.226
446.29
446.354
446.417
446.481
446.545
446.608
446.672
446.735
446.799
446.862
446.926
446.989
447.052
447.116
447.179
447.242
447.305
447.368
447.431
447.494
447.557
447.62
447.683
447.746
447.808
447.871
447.934
447.996
448.059
448.121
448.184
448.246
448.309
448.371
448.434
448.496
448.558
448.62
448.682
448.745
448.807
448.869
448.931
448.993
449.054
449.116
449.178
449.24
449.302
449.363
449.425
449.486
449.548
449.61
449.671
449.732
449.794
449.855
449.916
449.978
450.039
450.1
450.161
450.222
450.283
450.344
450.405
450.466
450.527
450.588
450.649
450.709
450.77
450.831
450.891
450.952
451.012
451.073
451.133
451.194
451.254
451.314
451.374
451.435
451.495
451.555
451.615
451.675
451.735
451.795
451.855
451.915
451.975
452.034
452.094
452.154
452.214
452.273
452.333
452.392
452.452
452.511
452.571
452.63
452.689
452.749
452.808
452.867
452.926
452.985
453.044
453.103
453.162
453.221
453.28
453.339
453.398
453.457
453.515
453.574
453.633
453.691
453.75
453.808
453.867
453.925
453.983
454.042
454.1
454.158
454.217
454.275
454.333
454.391
454.449
454.507
454.565
454.623
454.681
454.739
454.796
454.854
454.912
454.97
455.027
455.085
455.142
455.2
455.257
455.315
455.372
455.429
455.487
455.544
455.601
455.658
455.715
455.772
455.829
455.886
455.943
456
456.057
456.114
456.171
456.227
456.284
456.341
456.397
456.454
456.511
456.567
456.623
456.68
456.736
456.793
456.849
456.905
456.961
457.017
457.074
457.13
457.186
457.242
457.298
457.353
457.409
457.465
457.521
457.577
457.632
457.688
457.744
457.799
457.855
457.91
457.966
458.021
458.076
458.132
458.187
458.242
458.297
458.353
458.408
458.463
458.518
458.573
458.628
458.683
458.737
458.792
458.847
458.902
458.956
459.011
459.066
459.12
459.175
459.229
459.284
459.338
459.393
459.447
459.501
459.555
459.61
459.664
459.718
459.772
459.826
459.88
459.934
459.988
460.042
460.096
460.149
460.203
460.257
460.31
460.364
460.418
460.471
460.525
460.578
460.632
460.685
460.738
460.792
460.845
460.898
460.951
461.004
461.057
461.111
461.164
461.217
461.269
461.322
461.375
461.428
461.481
461.533
461.586
461.639
461.691
461.744
461.796
461.849
461.901
461.954
462.006
462.058
462.111
462.163
462.215
462.267
462.319
462.371
462.424
462.476
462.527
462.579
462.631
462.683
462.735
462.787
462.838
462.89
462.942
462.993
463.045
463.096
463.148
463.199
463.25
463.302
463.353
463.404
463.456
463.507
463.558
463.609
463.66
463.711
463.762
463.813
463.864
463.915
463.966
464.016
464.067
464.118
464.168
464.219
464.27
464.32
464.371
464.421
464.471
464.522
464.572
464.622
464.673
464.723
464.773
464.823
464.873
464.923
464.973
465.023
465.073
465.123
465.173
465.223
465.273
465.322
465.372
465.422
465.471
465.521
465.57
465.62
465.669
465.719
465.768
465.817
465.867
465.916
465.965
466.014
466.063
466.113
466.162
466.211
466.26
466.309
466.357
466.406
466.455
466.504
466.553
466.601
466.65
466.699
466.747
466.796
466.844
466.893
466.941
466.989
467.038
467.086
467.134
467.182
467.231
467.279
467.327
467.375
467.423
467.471
467.519
467.567
467.615
467.662
467.71
467.758
467.806
467.853
467.901
467.948
467.996
468.044
468.091
468.138
468.186
468.233
468.28
468.328
468.375
468.422
468.469
468.516
468.563
468.61
468.657
468.704
468.751
468.798
468.845
468.892
468.939
468.985
469.032
469.079
469.125
469.172
469.218
469.265
469.311
469.358
469.404
469.45
469.497
469.543
469.589
469.635
469.681
469.727
469.774
469.82
469.865
469.911
469.957
470.003
470.049
470.095
470.141
470.186
470.232
470.277
470.323
470.369
470.414
470.46
470.505
470.55
470.596
470.641
470.686
470.732
470.777
470.822
470.867
470.912
470.957
471.002
471.047
471.092
471.137
471.182
471.227
471.271
471.316
471.361
471.405
471.45
471.495
471.539
471.584
471.628
471.672
471.717
471.761
471.806
471.85
471.894
471.938
471.982
472.026
472.071
472.115
472.159
472.203
472.246
472.29
472.334
472.378
472.422
472.465
472.509
472.553
472.596
472.64
472.683
472.727
472.77
472.814
472.857
472.901
472.944
472.987
473.03
473.074
473.117
473.16
473.203
473.246
473.289
473.332
473.375
473.418
473.461
473.503
473.546
473.589
473.632
473.674
473.717
473.759
473.802
473.844
473.887
473.929
473.972
474.014
474.056
474.099
474.141
474.183
474.225
474.267
474.309
474.352
474.394
474.435
474.477
474.519
474.561
474.603
474.645
474.687
474.728
474.77
474.812
474.853
474.895
474.936
474.978
475.019
475.06
475.102
475.143
475.184
475.226
475.267
475.308
475.349
475.39
475.431
475.472
475.513
475.554
475.595
475.636
475.677
475.718
475.759
475.799
475.84
475.881
475.921
475.962
476.002
476.043
476.083
476.124
476.164
476.204
476.245