/*--------------------------------*- C++ -*----------------------------------*\
  =========                 |
  \\      /  F ield         | OpenFOAM: The Open Source CFD Toolbox
   \\    /   O peration     | Website:  https://openfoam.org
    \\  /    A nd           | Version:  9
     \\/     M anipulation  |
\*---------------------------------------------------------------------------*/
FoamFile
{
    format      ascii;
    class       volScalarField;
    location    "0.028";
    object      mag(U);
}
// * * * * * * * * * * * * * * * * * * * * * * * * * * * * * * * * * * * * * //

dimensions      [0 1 -1 0 0 0 0];

internalField   nonuniform List<scalar> 
10000
(
3.77271
3.83401
3.89336
3.94254
3.98879
4.03588
4.08384
4.13197
4.17999
4.22794
4.27588
4.32383
4.37179
4.41975
4.4677
4.51566
4.56362
4.61158
4.65954
4.7075
4.75546
4.80341
4.85137
4.89933
4.9473
4.99526
5.04322
5.09119
5.13915
5.1871
5.23506
5.28302
5.33098
5.37894
5.42691
5.47487
5.52284
5.57081
5.61877
5.66674
5.71471
5.76268
5.81065
5.85862
5.90658
5.95455
6.00252
6.05048
6.09845
6.14641
6.19438
6.24235
6.29032
6.33828
6.38625
6.43422
6.48218
6.53015
6.57812
6.62609
6.67406
6.72203
6.76999
6.81796
6.86593
6.9139
6.96187
7.00984
7.05781
7.10579
7.15376
7.20173
7.2497
7.29767
7.34564
7.39361
7.44159
7.48956
7.53753
7.58551
7.63348
7.68145
7.72943
7.7774
7.82538
7.87335
7.92133
7.9693
8.01728
8.06525
8.11323
8.16121
8.20918
8.25716
8.30514
8.35311
8.40109
8.44907
8.49705
8.54502
8.593
8.64098
8.68896
8.73694
8.78492
8.8329
8.88088
8.92886
8.97684
9.02482
9.0728
9.12078
9.16876
9.21675
9.26473
9.31271
9.36069
9.40868
9.45666
9.50464
9.55262
9.60061
9.64859
9.69658
9.74456
9.79255
9.84053
9.88852
9.9365
9.98449
10.0325
10.0805
10.1284
10.1764
10.2244
10.2724
10.3204
10.3684
10.4164
10.4644
10.5123
10.5603
10.6083
10.6563
10.7043
10.7523
10.8003
10.8483
10.8963
10.9443
10.9922
11.0402
11.0882
11.1362
11.1842
11.2322
11.2802
11.3282
11.3762
11.4242
11.4722
11.5202
11.5682
11.6161
11.6641
11.7121
11.7601
11.8081
11.8561
11.9041
11.9521
12.0001
12.0481
12.0961
12.1441
12.1921
12.2401
12.2881
12.3361
12.3841
12.4321
12.4801
12.5281
12.5761
12.6241
12.6721
12.7201
12.7681
12.8161
12.8641
12.9121
12.9601
13.0081
13.0561
13.1041
13.1521
13.2001
13.2481
13.2961
13.3441
13.3921
13.4401
13.4881
13.5361
13.5841
13.6321
13.6801
13.7281
13.7761
13.8241
13.8722
13.9202
13.9682
14.0162
14.0642
14.1122
14.1602
14.2082
14.2562
14.3042
14.3522
14.4002
14.4482
14.4963
14.5443
14.5923
14.6403
14.6883
14.7363
14.7843
14.8323
14.8803
14.9283
14.9764
15.0244
15.0724
15.1204
15.1684
15.2164
15.2644
15.3124
15.3605
15.4085
15.4565
15.5045
15.5525
15.6005
15.6485
15.6966
15.7446
15.7926
15.8406
15.8886
15.9366
15.9846
16.0327
16.0807
16.1287
16.1767
16.2247
16.2728
16.3208
16.3688
16.4168
16.4648
16.5128
16.5609
16.6089
16.6569
16.7049
16.7529
16.801
16.849
16.897
16.945
16.9931
17.0411
17.0891
17.1371
17.1851
17.2332
17.2812
17.3292
17.3772
17.4253
17.4733
17.5213
17.5693
17.6174
17.6654
17.7134
17.7614
17.8095
17.8575
17.9055
17.9535
18.0016
18.0496
18.0976
18.1456
18.1937
18.2417
18.2897
18.3378
18.3858
18.4338
18.4818
18.5299
18.5779
18.6259
18.674
18.722
18.77
18.8181
18.8661
18.9141
18.9622
19.0102
19.0582
19.1063
19.1543
19.2023
19.2503
19.2984
19.3464
19.3945
19.4425
19.4905
19.5386
19.5866
19.6346
19.6827
19.7307
19.7787
19.8268
19.8748
19.9228
19.9709
20.0189
20.067
20.115
20.163
20.2111
20.2591
20.3071
20.3552
20.4032
20.4513
20.4993
20.5473
20.5954
20.6434
20.6915
20.7395
20.7875
20.8356
20.8836
20.9317
20.9797
21.0277
21.0758
21.1238
21.1719
21.2199
21.268
21.316
21.364
21.4121
21.4601
21.5082
21.5562
21.6043
21.6523
21.7004
21.7484
21.7965
21.8445
21.8925
21.9406
21.9886
22.0367
22.0847
22.1328
22.1808
22.2289
22.2769
22.325
22.373
22.4211
22.4691
22.5172
22.5652
22.6133
22.6613
22.7094
22.7574
22.8055
22.8535
22.9016
22.9496
22.9977
23.0457
23.0938
23.1418
23.1899
23.2379
23.286
23.3341
23.3821
23.4302
23.4782
23.5263
23.5743
23.6224
23.6704
23.7185
23.7665
23.8146
23.8627
23.9107
23.9588
24.0068
24.0549
24.1029
24.151
24.1991
24.2471
24.2952
24.3432
24.3913
24.4394
24.4874
24.5355
24.5835
24.6316
24.6797
24.7277
24.7758
24.8238
24.8719
24.92
24.968
25.0161
25.0642
25.1122
25.1603
25.2083
25.2564
25.3045
25.3525
25.4006
25.4487
25.4967
25.5448
25.5929
25.6409
25.689
25.7371
25.7851
25.8332
25.8812
25.9293
25.9774
26.0254
26.0735
26.1216
26.1697
26.2177
26.2658
26.3139
26.3619
26.41
26.4581
26.5061
26.5542
26.6023
26.6503
26.6984
26.7465
26.7946
26.8426
26.8907
26.9388
26.9868
27.0349
27.083
27.1311
27.1791
27.2272
27.2753
27.3234
27.3714
27.4195
27.4676
27.5157
27.5637
27.6118
27.6599
27.708
27.756
27.8041
27.8522
27.9003
27.9483
27.9964
28.0445
28.0926
28.1406
28.1887
28.2368
28.2849
28.333
28.381
28.4291
28.4772
28.5253
28.5734
28.6214
28.6695
28.7176
28.7657
28.8138
28.8618
28.9099
28.958
29.0061
29.0542
29.1023
29.1503
29.1984
29.2465
29.2946
29.3427
29.3908
29.4388
29.4869
29.535
29.5831
29.6312
29.6793
29.7273
29.7754
29.8235
29.8716
29.9197
29.9678
30.0159
30.064
30.112
30.1601
30.2082
30.2563
30.3044
30.3525
30.4006
30.4487
30.4967
30.5448
30.5929
30.641
30.6891
30.7372
30.7853
30.8334
30.8815
30.9296
30.9777
31.0257
31.0738
31.1219
31.17
31.2181
31.2662
31.3143
31.3624
31.4105
31.4586
31.5067
31.5548
31.6029
31.651
31.6991
31.7472
31.7953
31.8434
31.8914
31.9395
31.9876
32.0357
32.0838
32.1319
32.18
32.2281
32.2762
32.3243
32.3724
32.4205
32.4686
32.5167
32.5648
32.6129
32.661
32.7091
32.7572
32.8053
32.8534
32.9015
32.9496
32.9977
33.0458
33.0939
33.142
33.1901
33.2382
33.2863
33.3344
33.3826
33.4307
33.4788
33.5269
33.575
33.6231
33.6712
33.7193
33.7674
33.8155
33.8636
33.9117
33.9598
34.0079
34.056
34.1041
34.1522
34.2003
34.2485
34.2966
34.3447
34.3928
34.4409
34.489
34.5371
34.5852
34.6333
34.6814
34.7295
34.7777
34.8258
34.8739
34.922
34.9701
35.0182
35.0663
35.1144
35.1626
35.2107
35.2588
35.3069
35.355
35.4031
35.4512
35.4993
35.5475
35.5956
35.6437
35.6918
35.7399
35.788
35.8361
35.8843
35.9324
35.9805
36.0286
36.0767
36.1248
36.173
36.2211
36.2692
36.3173
36.3654
36.4136
36.4617
36.5098
36.5579
36.606
36.6541
36.7023
36.7504
36.7985
36.8466
36.8947
36.9429
36.991
37.0391
37.0872
37.1354
37.1835
37.2316
37.2797
37.3278
37.376
37.4241
37.4722
37.5203
37.5685
37.6166
37.6647
37.7128
37.761
37.8091
37.8572
37.9053
37.9535
38.0016
38.0497
38.0978
38.146
38.1941
38.2422
38.2904
38.3385
38.3866
38.4347
38.4829
38.531
38.5791
38.6273
38.6754
38.7235
38.7716
38.8198
38.8679
38.916
38.9642
39.0123
39.0604
39.1086
39.1567
39.2048
39.253
39.3011
39.3492
39.3974
39.4455
39.4936
39.5418
39.5899
39.638
39.6862
39.7343
39.7824
39.8306
39.8787
39.9268
39.975
40.0231
40.0712
40.1194
40.1675
40.2157
40.2638
40.3119
40.3601
40.4082
40.4563
40.5045
40.5526
40.6008
40.6489
40.697
40.7452
40.7933
40.8415
40.8896
40.9377
40.9859
41.034
41.0822
41.1303
41.1784
41.2266
41.2747
41.3229
41.371
41.4192
41.4673
41.5154
41.5636
41.6117
41.6599
41.708
41.7562
41.8043
41.8525
41.9006
41.9487
41.9969
42.045
42.0932
42.1413
42.1895
42.2376
42.2858
42.3339
42.3821
42.4302
42.4784
42.5265
42.5747
42.6228
42.671
42.7191
42.7673
42.8154
42.8636
42.9117
42.9599
43.008
43.0562
43.1043
43.1525
43.2006
43.2488
43.2969
43.3451
43.3932
43.4414
43.4895
43.5377
43.5858
43.634
43.6821
43.7303
43.7784
43.8266
43.8748
43.9229
43.9711
44.0192
44.0674
44.1155
44.1637
44.2118
44.26
44.3082
44.3563
44.4045
44.4526
44.5008
44.5489
44.5971
44.6453
44.6934
44.7416
44.7897
44.8379
44.8861
44.9342
44.9824
45.0305
45.0787
45.1269
45.175
45.2232
45.2713
45.3195
45.3677
45.4158
45.464
45.5122
45.5603
45.6085
45.6566
45.7048
45.753
45.8011
45.8493
45.8975
45.9456
45.9938
46.042
46.0901
46.1383
46.1865
46.2346
46.2828
46.3309
46.3791
46.4273
46.4755
46.5236
46.5718
46.62
46.6681
46.7163
46.7645
46.8126
46.8608
46.909
46.9571
47.0053
47.0535
47.1016
47.1498
47.198
47.2462
47.2943
47.3425
47.3907
47.4388
47.487
47.5352
47.5834
47.6315
47.6797
47.7279
47.7761
47.8242
47.8724
47.9206
47.9687
48.0169
48.0651
48.1133
48.1614
48.2096
48.2578
48.306
48.3542
48.4023
48.4505
48.4987
48.5469
48.595
48.6432
48.6914
48.7396
48.7877
48.8359
48.8841
48.9323
48.9805
49.0286
49.0768
49.125
49.1732
49.2214
49.2695
49.3177
49.3659
49.4141
49.4623
49.5105
49.5586
49.6068
49.655
49.7032
49.7514
49.7995
49.8477
49.8959
49.9441
49.9923
50.0405
50.0887
50.1368
50.185
50.2332
50.2814
50.3296
50.3778
50.4259
50.4741
50.5223
50.5705
50.6187
50.6669
50.7151
50.7633
50.8114
50.8596
50.9078
50.956
51.0042
51.0524
51.1006
51.1488
51.197
51.2451
51.2933
51.3415
51.3897
51.4379
51.4861
51.5343
51.5825
51.6307
51.6789
51.7271
51.7753
51.8234
51.8716
51.9198
51.968
52.0162
52.0644
52.1126
52.1608
52.209
52.2572
52.3054
52.3536
52.4018
52.45
52.4982
52.5464
52.5946
52.6428
52.691
52.7392
52.7873
52.8355
52.8837
52.9319
52.9801
53.0283
53.0765
53.1247
53.1729
53.2211
53.2693
53.3175
53.3657
53.4139
53.4621
53.5103
53.5585
53.6067
53.6549
53.7031
53.7513
53.7995
53.8477
53.896
53.9442
53.9924
54.0406
54.0888
54.137
54.1852
54.2334
54.2816
54.3298
54.378
54.4262
54.4744
54.5226
54.5708
54.619
54.6672
54.7154
54.7636
54.8118
54.8601
54.9083
54.9565
55.0047
55.0529
55.1011
55.1493
55.1975
55.2457
55.2939
55.3421
55.3903
55.4386
55.4868
55.535
55.5832
55.6314
55.6796
55.7278
55.776
55.8242
55.8725
55.9207
55.9689
56.0171
56.0653
56.1135
56.1617
56.2099
56.2582
56.3064
56.3546
56.4028
56.451
56.4992
56.5474
56.5957
56.6439
56.6921
56.7403
56.7885
56.8367
56.885
56.9332
56.9814
57.0296
57.0778
57.126
57.1743
57.2225
57.2707
57.3189
57.3671
57.4154
57.4636
57.5118
57.56
57.6082
57.6565
57.7047
57.7529
57.8011
57.8493
57.8976
57.9458
57.994
58.0422
58.0905
58.1387
58.1869
58.2351
58.2833
58.3316
58.3798
58.428
58.4762
58.5245
58.5727
58.6209
58.6691
58.7174
58.7656
58.8138
58.862
58.9103
58.9585
59.0067
59.0549
59.1032
59.1514
59.1996
59.2479
59.2961
59.3443
59.3925
59.4408
59.489
59.5372
59.5855
59.6337
59.6819
59.7301
59.7784
59.8266
59.8748
59.9231
59.9713
60.0195
60.0678
60.116
60.1642
60.2125
60.2607
60.3089
60.3572
60.4054
60.4536
60.5019
60.5501
60.5983
60.6466
60.6948
60.743
60.7913
60.8395
60.8877
60.936
60.9842
61.0324
61.0807
61.1289
61.1772
61.2254
61.2736
61.3219
61.3701
61.4183
61.4666
61.5148
61.5631
61.6113
61.6595
61.7078
61.756
61.8043
61.8525
61.9007
61.949
61.9972
62.0455
62.0937
62.1419
62.1902
62.2384
62.2867
62.3349
62.3832
62.4314
62.4796
62.5279
62.5761
62.6244
62.6726
62.7209
62.7691
62.8173
62.8656
62.9138
62.9621
63.0103
63.0586
63.1068
63.1551
63.2033
63.2516
63.2998
63.3481
63.3963
63.4445
63.4928
63.541
63.5893
63.6375
63.6858
63.734
63.7823
63.8305
63.8788
63.927
63.9753
64.0235
64.0718
64.12
64.1683
64.2165
64.2648
64.313
64.3613
64.4095
64.4578
64.5061
64.5543
64.6026
64.6508
64.6991
64.7473
64.7956
64.8438
64.8921
64.9403
64.9886
65.0368
65.0851
65.1334
65.1816
65.2299
65.2781
65.3264
65.3746
65.4229
65.4711
65.5194
65.5677
65.6159
65.6642
65.7124
65.7607
65.809
65.8572
65.9055
65.9537
66.002
66.0503
66.0985
66.1468
66.195
66.2433
66.2916
66.3398
66.3881
66.4363
66.4846
66.5329
66.5811
66.6294
66.6776
66.7259
66.7742
66.8224
66.8707
66.919
66.9672
67.0155
67.0638
67.112
67.1603
67.2085
67.2568
67.3051
67.3533
67.4016
67.4499
67.4981
67.5464
67.5947
67.6429
67.6912
67.7395
67.7877
67.836
67.8843
67.9326
67.9808
68.0291
68.0774
68.1256
68.1739
68.2222
68.2704
68.3187
68.367
68.4152
68.4635
68.5118
68.5601
68.6083
68.6566
68.7049
68.7531
68.8014
68.8497
68.898
68.9462
68.9945
69.0428
69.0911
69.1393
69.1876
69.2359
69.2842
69.3324
69.3807
69.429
69.4773
69.5255
69.5738
69.6221
69.6704
69.7186
69.7669
69.8152
69.8635
69.9117
69.96
70.0083
70.0566
70.1049
70.1531
70.2014
70.2497
70.298
70.3463
70.3945
70.4428
70.4911
70.5394
70.5877
70.6359
70.6842
70.7325
70.7808
70.8291
70.8773
70.9256
70.9739
71.0222
71.0705
71.1188
71.167
71.2153
71.2636
71.3119
71.3602
71.4085
71.4567
71.505
71.5533
71.6016
71.6499
71.6982
71.7465
71.7947
71.843
71.8913
71.9396
71.9879
72.0362
72.0845
72.1328
72.181
72.2293
72.2776
72.3259
72.3742
72.4225
72.4708
72.5191
72.5674
72.6156
72.6639
72.7122
72.7605
72.8088
72.8571
72.9054
72.9537
73.002
73.0503
73.0986
73.1469
73.1951
73.2434
73.2917
73.34
73.3883
73.4366
73.4849
73.5332
73.5815
73.6298
73.6781
73.7264
73.7747
73.823
73.8713
73.9196
73.9679
74.0162
74.0645
74.1128
74.161
74.2093
74.2576
74.3059
74.3542
74.4025
74.4508
74.4991
74.5474
74.5957
74.644
74.6923
74.7406
74.7889
74.8372
74.8855
74.9338
74.9821
75.0304
75.0787
75.127
75.1753
75.2236
75.2719
75.3202
75.3685
75.4169
75.4652
75.5135
75.5618
75.6101
75.6584
75.7067
75.755
75.8033
75.8516
75.8999
75.9482
75.9965
76.0448
76.0931
76.1414
76.1897
76.238
76.2863
76.3346
76.383
76.4313
76.4796
76.5279
76.5762
76.6245
76.6728
76.7211
76.7694
76.8177
76.866
76.9144
76.9627
77.011
77.0593
77.1076
77.1559
77.2042
77.2525
77.3008
77.3491
77.3975
77.4458
77.4941
77.5424
77.5907
77.639
77.6873
77.7356
77.784
77.8323
77.8806
77.9289
77.9772
78.0255
78.0739
78.1222
78.1705
78.2188
78.2671
78.3154
78.3637
78.4121
78.4604
78.5087
78.557
78.6053
78.6536
78.702
78.7503
78.7986
78.8469
78.8952
78.9436
78.9919
79.0402
79.0885
79.1368
79.1852
79.2335
79.2818
79.3301
79.3784
79.4268
79.4751
79.5234
79.5717
79.62
79.6684
79.7167
79.765
79.8133
79.8617
79.91
79.9583
80.0066
80.055
80.1033
80.1516
80.1999
80.2483
80.2966
80.3449
80.3932
80.4416
80.4899
80.5382
80.5865
80.6349
80.6832
80.7315
80.7798
80.8282
80.8765
80.9248
80.9732
81.0215
81.0698
81.1181
81.1665
81.2148
81.2631
81.3115
81.3598
81.4081
81.4564
81.5048
81.5531
81.6014
81.6498
81.6981
81.7464
81.7948
81.8431
81.8914
81.9398
81.9881
82.0364
82.0848
82.1331
82.1814
82.2298
82.2781
82.3264
82.3748
82.4231
82.4714
82.5198
82.5681
82.6164
82.6648
82.7131
82.7615
82.8098
82.8581
82.9065
82.9548
83.0031
83.0515
83.0998
83.1482
83.1965
83.2448
83.2932
83.3415
83.3898
83.4382
83.4865
83.5349
83.5832
83.6315
83.6799
83.7282
83.7766
83.8249
83.8732
83.9216
83.9699
84.0183
84.0666
84.115
84.1633
84.2116
84.26
84.3083
84.3567
84.405
84.4534
84.5017
84.5501
84.5984
84.6467
84.6951
84.7434
84.7918
84.8401
84.8885
84.9368
84.9852
85.0335
85.0819
85.1302
85.1785
85.2269
85.2752
85.3236
85.3719
85.4203
85.4686
85.517
85.5653
85.6137
85.662
85.7104
85.7587
85.8071
85.8554
85.9038
85.9521
86.0005
86.0488
86.0972
86.1455
86.1939
86.2422
86.2906
86.3389
86.3873
86.4357
86.484
86.5324
86.5807
86.6291
86.6774
86.7258
86.7741
86.8225
86.8708
86.9192
86.9676
87.0159
87.0643
87.1126
87.161
87.2093
87.2577
87.306
87.3544
87.4028
87.4511
87.4995
87.5478
87.5962
87.6445
87.6929
87.7413
87.7896
87.838
87.8863
87.9347
87.9831
88.0314
88.0798
88.1281
88.1765
88.2249
88.2732
88.3216
88.3699
88.4183
88.4667
88.515
88.5634
88.6118
88.6601
88.7085
88.7568
88.8052
88.8536
88.9019
88.9503
88.9987
89.047
89.0954
89.1438
89.1921
89.2405
89.2889
89.3372
89.3856
89.434
89.4823
89.5307
89.5791
89.6274
89.6758
89.7242
89.7725
89.8209
89.8693
89.9176
89.966
90.0144
90.0627
90.1111
90.1595
90.2078
90.2562
90.3046
90.353
90.4013
90.4497
90.4981
90.5464
90.5948
90.6432
90.6916
90.7399
90.7883
90.8367
90.885
90.9334
90.9818
91.0302
91.0785
91.1269
91.1753
91.2237
91.272
91.3204
91.3688
91.4172
91.4655
91.5139
91.5623
91.6107
91.659
91.7074
91.7558
91.8042
91.8525
91.9009
91.9493
91.9977
92.0461
92.0944
92.1428
92.1912
92.2396
92.288
92.3363
92.3847
92.4331
92.4815
92.5299
92.5782
92.6266
92.675
92.7234
92.7718
92.8201
92.8685
92.9169
92.9653
93.0137
93.062
93.1104
93.1588
93.2072
93.2556
93.304
93.3523
93.4007
93.4491
93.4975
93.5459
93.5943
93.6427
93.691
93.7394
93.7878
93.8362
93.8846
93.933
93.9814
94.0297
94.0781
94.1265
94.1749
94.2233
94.2717
94.3201
94.3685
94.4168
94.4652
94.5136
94.562
94.6104
94.6588
94.7072
94.7556
94.804
94.8523
94.9007
94.9491
94.9975
95.0459
95.0943
95.1427
95.1911
95.2395
95.2879
95.3363
95.3847
95.4331
95.4814
95.5298
95.5782
95.6266
95.675
95.7234
95.7718
95.8202
95.8686
95.917
95.9654
96.0138
96.0622
96.1106
96.159
96.2074
96.2558
96.3042
96.3526
96.401
96.4494
96.4977
96.5461
96.5945
96.6429
96.6913
96.7397
96.7881
96.8365
96.8849
96.9333
96.9817
97.0301
97.0785
97.1269
97.1753
97.2237
97.2721
97.3205
97.3689
97.4173
97.4657
97.5141
97.5626
97.611
97.6594
97.7078
97.7562
97.8046
97.853
97.9014
97.9498
97.9982
98.0466
98.095
98.1434
98.1918
98.2402
98.2886
98.337
98.3854
98.4338
98.4822
98.5306
98.579
98.6275
98.6759
98.7243
98.7727
98.8211
98.8695
98.9179
98.9663
99.0147
99.0631
99.1115
99.1599
99.2084
99.2568
99.3052
99.3536
99.402
99.4504
99.4988
99.5472
99.5956
99.644
99.6925
99.7409
99.7893
99.8377
99.8861
99.9345
99.9829
100.031
100.08
100.128
100.177
100.225
100.273
100.322
100.37
100.419
100.467
100.515
100.564
100.612
100.661
100.709
100.758
100.806
100.854
100.903
100.951
101
101.048
101.096
101.145
101.193
101.242
101.29
101.339
101.387
101.435
101.484
101.532
101.581
101.629
101.678
101.726
101.774
101.823
101.871
101.92
101.968
102.016
102.065
102.113
102.162
102.21
102.259
102.307
102.355
102.404
102.452
102.501
102.549
102.598
102.646
102.694
102.743
102.791
102.84
102.888
102.937
102.985
103.033
103.082
103.13
103.179
103.227
103.275
103.324
103.372
103.421
103.469
103.518
103.566
103.614
103.663
103.711
103.76
103.808
103.857
103.905
103.953
104.002
104.05
104.099
104.147
104.196
104.244
104.293
104.341
104.389
104.438
104.486
104.535
104.583
104.632
104.68
104.728
104.777
104.825
104.874
104.922
104.971
105.019
105.067
105.116
105.164
105.213
105.261
105.31
105.358
105.406
105.455
105.503
105.552
105.6
105.649
105.697
105.746
105.794
105.842
105.891
105.939
105.988
106.036
106.085
106.133
106.181
106.23
106.278
106.327
106.375
106.424
106.472
106.521
106.569
106.617
106.666
106.714
106.763
106.811
106.86
106.908
106.957
107.005
107.053
107.102
107.15
107.199
107.247
107.296
107.344
107.393
107.441
107.489
107.538
107.586
107.635
107.683
107.732
107.78
107.829
107.877
107.925
107.974
108.022
108.071
108.119
108.168
108.216
108.265
108.313
108.361
108.41
108.458
108.507
108.555
108.604
108.652
108.701
108.749
108.797
108.846
108.894
108.943
108.991
109.04
109.088
109.137
109.185
109.234
109.282
109.33
109.379
109.427
109.476
109.524
109.573
109.621
109.67
109.718
109.767
109.815
109.863
109.912
109.96
110.009
110.057
110.106
110.154
110.203
110.251
110.3
110.348
110.396
110.445
110.493
110.542
110.59
110.639
110.687
110.736
110.784
110.833
110.881
110.929
110.978
111.026
111.075
111.123
111.172
111.22
111.269
111.317
111.366
111.414
111.463
111.511
111.559
111.608
111.656
111.705
111.753
111.802
111.85
111.899
111.947
111.996
112.044
112.093
112.141
112.189
112.238
112.286
112.335
112.383
112.432
112.48
112.529
112.577
112.626
112.674
112.723
112.771
112.82
112.868
112.916
112.965
113.013
113.062
113.11
113.159
113.207
113.256
113.304
113.353
113.401
113.45
113.498
113.547
113.595
113.643
113.692
113.74
113.789
113.837
113.886
113.934
113.983
114.031
114.08
114.128
114.177
114.225
114.274
114.322
114.371
114.419
114.467
114.516
114.564
114.613
114.661
114.71
114.758
114.807
114.855
114.904
114.952
115.001
115.049
115.098
115.146
115.195
115.243
115.292
115.34
115.388
115.437
115.485
115.534
115.582
115.631
115.679
115.728
115.776
115.825
115.873
115.922
115.97
116.019
116.067
116.116
116.164
116.213
116.261
116.31
116.358
116.407
116.455
116.503
116.552
116.6
116.649
116.697
116.746
116.794
116.843
116.891
116.94
116.988
117.037
117.085
117.134
117.182
117.231
117.279
117.328
117.376
117.425
117.473
117.522
117.57
117.619
117.667
117.716
117.764
117.813
117.861
117.909
117.958
118.006
118.055
118.103
118.152
118.2
118.249
118.297
118.346
118.394
118.443
118.491
118.54
118.588
118.637
118.685
118.734
118.782
118.831
118.879
118.928
118.976
119.025
119.073
119.122
119.17
119.219
119.267
119.316
119.364
119.413
119.461
119.51
119.558
119.607
119.655
119.704
119.752
119.801
119.849
119.898
119.946
119.995
120.043
120.092
120.14
120.189
120.237
120.286
120.334
120.383
120.431
120.48
120.528
120.576
120.625
120.673
120.722
120.77
120.819
120.867
120.916
120.964
121.013
121.061
121.11
121.158
121.207
121.255
121.304
121.352
121.401
121.449
121.498
121.546
121.595
121.643
121.692
121.74
121.789
121.837
121.886
121.934
121.983
122.031
122.08
122.128
122.177
122.225
122.274
122.322
122.371
122.419
122.468
122.516
122.565
122.613
122.662
122.71
122.759
122.807
122.856
122.904
122.953
123.001
123.05
123.099
123.147
123.196
123.244
123.293
123.341
123.39
123.438
123.487
123.535
123.584
123.632
123.681
123.729
123.778
123.826
123.875
123.923
123.972
124.02
124.069
124.117
124.166
124.214
124.263
124.311
124.36
124.408
124.457
124.505
124.554
124.602
124.651
124.699
124.748
124.796
124.845
124.893
124.942
124.99
125.039
125.087
125.136
125.184
125.233
125.281
125.33
125.378
125.427
125.475
125.524
125.572
125.621
125.669
125.718
125.767
125.815
125.864
125.912
125.961
126.009
126.058
126.106
126.155
126.203
126.252
126.3
126.349
126.397
126.446
126.494
126.543
126.591
126.64
126.688
126.737
126.785
126.834
126.882
126.931
126.979
127.028
127.076
127.125
127.173
127.222
127.271
127.319
127.368
127.416
127.465
127.513
127.562
127.61
127.659
127.707
127.756
127.804
127.853
127.901
127.95
127.998
128.047
128.095
128.144
128.192
128.241
128.289
128.338
128.386
128.435
128.484
128.532
128.581
128.629
128.678
128.726
128.775
128.823
128.872
128.92
128.969
129.017
129.066
129.114
129.163
129.211
129.26
129.308
129.357
129.406
129.454
129.503
129.551
129.6
129.648
129.697
129.745
129.794
129.842
129.891
129.939
129.988
130.036
130.085
130.133
130.182
130.23
130.279
130.328
130.376
130.425
130.473
130.522
130.57
130.619
130.667
130.716
130.764
130.813
130.861
130.91
130.958
131.007
131.055
131.104
131.153
131.201
131.25
131.298
131.347
131.395
131.444
131.492
131.541
131.589
131.638
131.686
131.735
131.783
131.832
131.88
131.929
131.978
132.026
132.075
132.123
132.172
132.22
132.269
132.317
132.366
132.414
132.463
132.511
132.56
132.609
132.657
132.706
132.754
132.803
132.851
132.9
132.948
132.997
133.045
133.094
133.142
133.191
133.239
133.288
133.337
133.385
133.434
133.482
133.531
133.579
133.628
133.676
133.725
133.773
133.822
133.87
133.919
133.968
134.016
134.065
134.113
134.162
134.21
134.259
134.307
134.356
134.404
134.453
134.501
134.55
134.599
134.647
134.696
134.744
134.793
134.841
134.89
134.938
134.987
135.035
135.084
135.133
135.181
135.23
135.278
135.327
135.375
135.424
135.472
135.521
135.569
135.618
135.666
135.715
135.764
135.812
135.861
135.909
135.958
136.006
136.055
136.103
136.152
136.2
136.249
136.298
136.346
136.395
136.443
136.492
136.54
136.589
136.637
136.686
136.734
136.783
136.832
136.88
136.929
136.977
137.026
137.074
137.123
137.171
137.22
137.268
137.317
137.366
137.414
137.463
137.511
137.56
137.608
137.657
137.705
137.754
137.803
137.851
137.9
137.948
137.997
138.045
138.094
138.142
138.191
138.239
138.288
138.337
138.385
138.434
138.482
138.531
138.579
138.628
138.676
138.725
138.774
138.822
138.871
138.919
138.968
139.016
139.065
139.113
139.162
139.21
139.259
139.308
139.356
139.405
139.453
139.502
139.55
139.599
139.647
139.696
139.745
139.793
139.842
139.89
139.939
139.987
140.036
140.084
140.133
140.182
140.23
140.279
140.327
140.376
140.424
140.473
140.521
140.57
140.619
140.667
140.716
140.764
140.813
140.861
140.91
140.958
141.007
141.056
141.104
141.153
141.201
141.25
141.298
141.347
141.395
141.444
141.493
141.541
141.59
141.638
141.687
141.735
141.784
141.832
141.881
141.93
141.978
142.027
142.075
142.124
142.172
142.221
142.269
142.318
142.367
142.415
142.464
142.512
142.561
142.609
142.658
142.706
142.755
142.804
142.852
142.901
142.949
142.998
143.046
143.095
143.143
143.192
143.241
143.289
143.338
143.386
143.435
143.483
143.532
143.581
143.629
143.678
143.726
143.775
143.823
143.872
143.92
143.969
144.018
144.066
144.115
144.163
144.212
144.26
144.309
144.357
144.406
144.455
144.503
144.552
144.6
144.649
144.697
144.746
144.795
144.843
144.892
144.94
144.989
145.037
145.086
145.134
145.183
145.232
145.28
145.329
145.377
145.426
145.474
145.523
145.572
145.62
145.669
145.717
145.766
145.814
145.863
145.911
145.96
146.009
146.057
146.106
146.154
146.203
146.251
146.3
146.349
146.397
146.446
146.494
146.543
146.591
146.64
146.688
146.737
146.786
146.834
146.883
146.931
146.98
147.028
147.077
147.126
147.174
147.223
147.271
147.32
147.368
147.417
147.465
147.514
147.563
147.611
147.66
147.708
147.757
147.805
147.854
147.903
147.951
148
148.048
148.097
148.145
148.194
148.243
148.291
148.34
148.388
148.437
148.485
148.534
148.582
148.631
148.68
148.728
148.777
148.825
148.874
148.922
148.971
149.02
149.068
149.117
149.165
149.214
149.262
149.311
149.36
149.408
149.457
149.505
149.554
149.602
149.651
149.699
149.748
149.797
149.845
149.894
149.942
149.991
150.039
150.088
150.137
150.185
150.234
150.282
150.331
150.379
150.428
150.477
150.525
150.574
150.622
150.671
150.719
150.768
150.816
150.865
150.914
150.962
151.011
151.059
151.108
151.156
151.205
151.254
151.302
151.351
151.399
151.448
151.496
151.545
151.594
151.642
151.691
151.739
151.788
151.836
151.885
151.933
151.982
152.031
152.079
152.128
152.176
152.225
152.273
152.322
152.371
152.419
152.468
152.516
152.565
152.613
152.662
152.711
152.759
152.808
152.856
152.905
152.953
153.002
153.05
153.099
153.148
153.196
153.245
153.293
153.342
153.39
153.439
153.488
153.536
153.585
153.633
153.682
153.73
153.779
153.827
153.876
153.925
153.973
154.022
154.07
154.119
154.167
154.216
154.265
154.313
154.362
154.41
154.459
154.507
154.556
154.604
154.653
154.702
154.75
154.799
154.847
154.896
154.944
154.993
155.042
155.09
155.139
155.187
155.236
155.284
155.333
155.381
155.43
155.479
155.527
155.576
155.624
155.673
155.721
155.77
155.819
155.867
155.916
155.964
156.013
156.061
156.11
156.158
156.207
156.256
156.304
156.353
156.401
156.45
156.498
156.547
156.596
156.644
156.693
156.741
156.79
156.838
156.887
156.935
156.984
157.033
157.081
157.13
157.178
157.227
157.275
157.324
157.372
157.421
157.47
157.518
157.567
157.615
157.664
157.712
157.761
157.809
157.858
157.907
157.955
158.004
158.052
158.101
158.149
158.198
158.246
158.295
158.344
158.392
158.441
158.489
158.538
158.586
158.635
158.683
158.732
158.781
158.829
158.878
158.926
158.975
159.023
159.072
159.12
159.169
159.218
159.266
159.315
159.363
159.412
159.46
159.509
159.557
159.606
159.655
159.703
159.752
159.8
159.849
159.897
159.946
159.994
160.043
160.091
160.14
160.189
160.237
160.286
160.334
160.383
160.431
160.48
160.528
160.577
160.625
160.674
160.723
160.771
160.82
160.868
160.917
160.965
161.014
161.062
161.111
161.159
161.208
161.257
161.305
161.354
161.402
161.451
161.499
161.548
161.596
161.645
161.693
161.742
161.791
161.839
161.888
161.936
161.985
162.033
162.082
162.13
162.179
162.227
162.276
162.325
162.373
162.422
162.47
162.519
162.567
162.616
162.664
162.713
162.761
162.81
162.858
162.907
162.955
163.004
163.053
163.101
163.15
163.198
163.247
163.295
163.344
163.392
163.441
163.489
163.538
163.586
163.635
163.684
163.732
163.781
163.829
163.878
163.926
163.975
164.023
164.072
164.12
164.169
164.217
164.266
164.314
164.363
164.411
164.46
164.508
164.557
164.606
164.654
164.703
164.751
164.8
164.848
164.897
164.945
164.994
165.042
165.091
165.139
165.188
165.236
165.285
165.333
165.382
165.43
165.479
165.527
165.576
165.625
165.673
165.722
165.77
165.819
165.867
165.916
165.964
166.013
166.061
166.11
166.158
166.207
166.255
166.304
166.352
166.401
166.449
166.498
166.546
166.595
166.643
166.692
166.74
166.789
166.837
166.886
166.934
166.983
167.031
167.08
167.128
167.177
167.225
167.274
167.322
167.371
167.419
167.468
167.516
167.565
167.613
167.662
167.71
167.759
167.807
167.856
167.904
167.953
168.001
168.05
168.098
168.147
168.195
168.244
168.292
168.341
168.389
168.438
168.486
168.535
168.583
168.632
168.68
168.729
168.777
168.826
168.874
168.923
168.971
169.02
169.068
169.117
169.165
169.214
169.262
169.311
169.359
169.408
169.456
169.504
169.553
169.601
169.65
169.698
169.747
169.795
169.844
169.892
169.941
169.989
170.038
170.086
170.135
170.183
170.232
170.28
170.329
170.377
170.425
170.474
170.522
170.571
170.619
170.668
170.716
170.765
170.813
170.862
170.91
170.959
171.007
171.056
171.104
171.152
171.201
171.249
171.298
171.346
171.395
171.443
171.492
171.54
171.589
171.637
171.685
171.734
171.782
171.831
171.879
171.928
171.976
172.025
172.073
172.121
172.17
172.218
172.267
172.315
172.364
172.412
172.46
172.509
172.557
172.606
172.654
172.703
172.751
172.8
172.848
172.896
172.945
172.993
173.042
173.09
173.139
173.187
173.235
173.284
173.332
173.381
173.429
173.477
173.526
173.574
173.623
173.671
173.72
173.768
173.816
173.865
173.913
173.962
174.01
174.058
174.107
174.155
174.204
174.252
174.3
174.349
174.397
174.446
174.494
174.542
174.591
174.639
174.688
174.736
174.784
174.833
174.881
174.93
174.978
175.026
175.075
175.123
175.171
175.22
175.268
175.317
175.365
175.413
175.462
175.51
175.558
175.607
175.655
175.704
175.752
175.8
175.849
175.897
175.945
175.994
176.042
176.091
176.139
176.187
176.236
176.284
176.332
176.381
176.429
176.477
176.526
176.574
176.622
176.671
176.719
176.767
176.816
176.864
176.912
176.961
177.009
177.057
177.106
177.154
177.202
177.251
177.299
177.347
177.396
177.444
177.492
177.541
177.589
177.637
177.686
177.734
177.782
177.831
177.879
177.927
177.976
178.024
178.072
178.12
178.169
178.217
178.265
178.314
178.362
178.41
178.458
178.507
178.555
178.603
178.652
178.7
178.748
178.796
178.845
178.893
178.941
178.99
179.038
179.086
179.134
179.183
179.231
179.279
179.327
179.376
179.424
179.472
179.52
179.569
179.617
179.665
179.713
179.762
179.81
179.858
179.906
179.955
180.003
180.051
180.099
180.148
180.196
180.244
180.292
180.34
180.389
180.437
180.485
180.533
180.582
180.63
180.678
180.726
180.774
180.823
180.871
180.919
180.967
181.015
181.064
181.112
181.16
181.208
181.256
181.304
181.353
181.401
181.449
181.497
181.545
181.593
181.642
181.69
181.738
181.786
181.834
181.882
181.931
181.979
182.027
182.075
182.123
182.171
182.219
182.267
182.316
182.364
182.412
182.46
182.508
182.556
182.604
182.652
182.701
182.749
182.797
182.845
182.893
182.941
182.989
183.037
183.085
183.133
183.181
183.23
183.278