/*--------------------------------*- C++ -*----------------------------------*\
  =========                 |
  \\      /  F ield         | OpenFOAM: The Open Source CFD Toolbox
   \\    /   O peration     | Website:  https://openfoam.org
    \\  /    A nd           | Version:  9
     \\/     M anipulation  |
\*---------------------------------------------------------------------------*/
FoamFile
{
    format      ascii;
    class       volVectorField;
    location    "0.002";
    object      ddt0(rho,U);
}
// * * * * * * * * * * * * * * * * * * * * * * * * * * * * * * * * * * * * * //

dimensions      [1 -2 -2 0 0 0 0];

internalField   nonuniform List<vector> 
1000
(
(7.27596e-09 0 0)
(1.16415e-08 0 0)
(5.82077e-09 0 0)
(-5.82077e-09 0 0)
(-1.16415e-08 0 0)
(-2.18279e-08 0 0)
(-1.30967e-08 0 0)
(-1.45519e-09 0 0)
(-1.45519e-09 0 0)
(-7.44463e-25 0 0)
(1.45519e-09 0 0)
(4.36557e-09 0 0)
(1.30967e-08 0 0)
(1.60071e-08 0 0)
(8.73115e-09 0 0)
(2.91038e-09 0 0)
(-2.91038e-09 0 0)
(8.64404e-23 0 0)
(-1.45519e-09 0 0)
(-8.73115e-09 0 0)
(-7.27596e-09 0 0)
(-1.45519e-09 0 0)
(8.27181e-24 0 0)
(-1.45519e-09 0 0)
(8.73115e-09 0 0)
(1.01863e-08 0 0)
(5.82077e-09 0 0)
(2.91038e-09 0 0)
(-5.82077e-09 0 0)
(-4.36557e-09 0 0)
(-7.27596e-09 0 0)
(-7.27596e-09 0 0)
(-5.82077e-09 0 0)
(-5.82077e-09 0 0)
(4.36557e-09 0 0)
(1.45519e-09 0 0)
(-2.91038e-09 0 0)
(1.03398e-24 0 0)
(1.90252e-23 0 0)
(2.91038e-09 0 0)
(5.82077e-09 0 0)
(1.45519e-09 0 0)
(1.45519e-09 0 0)
(2.91038e-09 0 0)
(-3.10193e-23 0 0)
(-2.91038e-09 0 0)
(-4.36557e-09 0 0)
(-7.27596e-09 0 0)
(-8.73115e-09 0 0)
(-2.91038e-09 0 0)
(2.91038e-09 0 0)
(8.27181e-25 0 0)
(-1.45519e-09 0 0)
(1.30967e-08 0 0)
(1.89175e-08 0 0)
(8.73115e-09 0 0)
(-1.01863e-08 0 0)
(-1.01863e-08 0 0)
(2.91038e-09 0 0)
(4.36557e-09 0 0)
(-5.82077e-09 0 0)
(-4.36557e-09 0 0)
(-7.27596e-09 0 0)
(-2.91038e-09 0 0)
(1.01863e-08 0 0)
(4.36557e-09 0 0)
(2.4195e-24 0 0)
(1.45519e-09 0 0)
(-4.36557e-09 0 0)
(-2.91038e-09 0 0)
(2.91038e-09 0 0)
(-2.29543e-23 0 0)
(1.45519e-09 0 0)
(7.27596e-09 0 0)
(5.82077e-09 0 0)
(5.82077e-09 0 0)
(4.36557e-09 0 0)
(-1.45519e-09 0 0)
(5.82077e-09 0 0)
(7.27596e-09 0 0)
(-4.36557e-09 0 0)
(-2.91038e-09 0 0)
(1.57164e-23 0 0)
(-2.91038e-09 0 0)
(-2.77106e-23 0 0)
(4.36557e-09 0 0)
(1.45519e-09 0 0)
(-8.73115e-09 0 0)
(5.82077e-09 0 0)
(1.74623e-08 0 0)
(1.01863e-08 0 0)
(2.91038e-09 0 0)
(2.91038e-09 0 0)
(5.82077e-09 0 0)
(-1.45519e-09 0 0)
(-7.27596e-09 0 0)
(-4.36557e-09 0 0)
(-8.73115e-09 0 0)
(-1.16415e-08 0 0)
(-5.82077e-09 0 0)
(-5.82077e-09 0 0)
(-5.82077e-09 0 0)
(-1.45519e-09 0 0)
(7.27596e-09 0 0)
(8.73115e-09 0 0)
(7.27596e-09 0 0)
(5.82077e-09 0 0)
(7.27596e-09 0 0)
(5.82077e-09 0 0)
(1.45519e-09 0 0)
(5.82077e-09 0 0)
(-1.45519e-09 0 0)
(-5.82077e-09 0 0)
(3.76367e-23 0 0)
(1.11669e-23 0 0)
(-1.01863e-08 0 0)
(-8.73115e-09 0 0)
(-4.36557e-09 0 0)
(-1.01863e-08 0 0)
(-8.73115e-09 0 0)
(1.40621e-23 0 0)
(1.45519e-09 0 0)
(5.82077e-09 0 0)
(8.73115e-09 0 0)
(5.82077e-09 0 0)
(2.69317e-23 0 0)
(-1.45519e-09 0 0)
(1.45519e-09 0 0)
(-1.45519e-09 0 0)
(-1.45519e-09 0 0)
(5.82077e-09 0 0)
(-2.91038e-09 0 0)
(-1.45519e-09 0 0)
(-1.45519e-09 0 0)
(-1.30967e-08 0 0)
(-1.45519e-09 0 0)
(1.16415e-08 0 0)
(1.01863e-08 0 0)
(5.82077e-09 0 0)
(8.73115e-09 0 0)
(1.01863e-08 0 0)
(4.36557e-09 0 0)
(-2.91038e-09 0 0)
(-1.45519e-09 0 0)
(-2.91038e-09 0 0)
(-6.70624e-23 0 0)
(2.61169e-23 0 0)
(-1.45519e-09 0 0)
(-4.36557e-09 0 0)
(-2.18279e-08 0 0)
(-1.45519e-08 0 0)
(4.36557e-09 0 0)
(8.73115e-09 0 0)
(4.36557e-09 0 0)
(4.36557e-09 0 0)
(5.82077e-09 0 0)
(-4.66895e-24 0 0)
(1.45519e-09 0 0)
(-2.91038e-09 0 0)
(-1.45519e-09 0 0)
(1.75776e-23 0 0)
(5.37667e-24 0 0)
(-4.36557e-09 0 0)
(-1.45519e-08 0 0)
(-1.30967e-08 0 0)
(-5.82077e-09 0 0)
(2.39882e-23 0 0)
(5.82077e-09 0 0)
(1.30967e-08 0 0)
(1.45519e-08 0 0)
(1.89175e-08 0 0)
(2.18279e-08 0 0)
(1.30967e-08 0 0)
(5.82077e-09 0 0)
(7.27596e-09 0 0)
(1.45519e-09 0 0)
(-5.82077e-09 0 0)
(-1.30967e-08 0 0)
(-1.45519e-08 0 0)
(-8.73115e-09 0 0)
(-5.82077e-09 0 0)
(-7.27596e-09 0 0)
(-5.82077e-09 0 0)
(5.82077e-09 0 0)
(7.27596e-09 0 0)
(5.82077e-09 0 0)
(1.45519e-09 0 0)
(-5.82077e-09 0 0)
(-1.16415e-08 0 0)
(-1.16415e-08 0 0)
(-1.16415e-08 0 0)
(-1.16415e-08 0 0)
(-5.82077e-09 0 0)
(-1.45519e-09 0 0)
(5.82077e-09 0 0)
(1.01863e-08 0 0)
(1.45519e-08 0 0)
(2.91038e-09 0 0)
(-8.73115e-09 0 0)
(-4.36557e-09 0 0)
(2.91038e-09 0 0)
(4.36557e-09 0 0)
(-2.91038e-09 0 0)
(-2.91038e-09 0 0)
(-1.45519e-09 0 0)
(2.91038e-09 0 0)
(1.30967e-08 0 0)
(1.30967e-08 0 0)
(7.27596e-09 0 0)
(-2.91038e-09 0 0)
(-5.82077e-09 0 0)
(-2.91038e-09 0 0)
(-7.27596e-09 0 0)
(-2.91038e-09 0 0)
(4.36557e-09 0 0)
(5.82077e-09 0 0)
(-4.36557e-09 0 0)
(-5.82077e-09 0 0)
(-2.91038e-09 0 0)
(-2.56426e-23 0 0)
(-1.45519e-09 0 0)
(-4.36557e-09 0 0)
(-4.26547e-24 0 0)
(1.24077e-24 0 0)
(-1.01863e-08 0 0)
(-1.30967e-08 0 0)
(-1.16415e-08 0 0)
(-2.91038e-09 0 0)
(1.30967e-08 0 0)
(2.03727e-08 0 0)
(1.30967e-08 0 0)
(-2.91038e-09 0 0)
(-1.16415e-08 0 0)
(-1.45519e-08 0 0)
(-1.30967e-08 0 0)
(-1.45519e-09 0 0)
(4.36557e-09 0 0)
(4.36557e-09 0 0)
(1.01863e-08 0 0)
(2.03727e-08 0 0)
(1.74623e-08 0 0)
(5.82077e-09 0 0)
(-2.91038e-09 0 0)
(-1.16415e-08 0 0)
(2.91038e-09 0 0)
(5.82077e-09 0 0)
(4.63221e-23 0 0)
(4.36557e-09 0 0)
(-1.45519e-09 0 0)
(-1.16415e-08 0 0)
(-1.01863e-08 0 0)
(-1.45519e-09 0 0)
(2.91038e-09 0 0)
(2.91038e-09 0 0)
(1.45519e-09 0 0)
(-1.45519e-09 0 0)
(-8.73115e-09 0 0)
(-1.45519e-09 0 0)
(5.82077e-09 0 0)
(-1.45519e-09 0 0)
(-5.37667e-24 0 0)
(2.91038e-09 0 0)
(2.91038e-09 0 0)
(5.82077e-09 0 0)
(1.45519e-09 0 0)
(5.82077e-09 0 0)
(2.91038e-09 0 0)
(-1.45519e-09 0 0)
(-7.27596e-09 0 0)
(-8.73115e-09 0 0)
(-7.27596e-09 0 0)
(-4.36557e-09 0 0)
(2.91038e-09 0 0)
(4.36557e-09 0 0)
(8.73115e-09 0 0)
(1.45519e-08 0 0)
(5.82077e-09 0 0)
(-7.27596e-09 0 0)
(-8.73115e-09 0 0)
(-4.36557e-09 0 0)
(-1.45519e-09 0 0)
(-2.91038e-09 0 0)
(-2.91038e-09 0 0)
(1.01863e-08 0 0)
(1.45519e-08 0 0)
(1.30967e-08 0 0)
(2.85377e-23 0 0)
(-1.01863e-08 0 0)
(-5.82077e-09 0 0)
(7.27596e-09 0 0)
(1.01863e-08 0 0)
(1.45519e-09 0 0)
(1.45519e-09 0 0)
(-7.27596e-09 0 0)
(-1.01863e-08 0 0)
(-8.73115e-09 0 0)
(-1.30967e-08 0 0)
(-7.27596e-09 0 0)
(-2.91038e-09 0 0)
(-2.91038e-09 0 0)
(2.91038e-09 0 0)
(8.73115e-09 0 0)
(7.27596e-09 0 0)
(7.27596e-09 0 0)
(-5.82077e-09 0 0)
(-1.60071e-08 0 0)
(-1.30967e-08 0 0)
(-8.73115e-09 0 0)
(-1.01863e-08 0 0)
(1.45519e-09 0 0)
(7.27596e-09 0 0)
(1.74623e-08 0 0)
(2.18279e-08 0 0)
(2.03727e-08 0 0)
(5.82077e-09 0 0)
(-2.91038e-09 0 0)
(-5.82077e-09 0 0)
(-4.36557e-09 0 0)
(-1.01863e-08 0 0)
(-1.74623e-08 0 0)
(-1.01863e-08 0 0)
(1.45519e-09 0 0)
(1.45519e-08 0 0)
(1.16415e-08 0 0)
(2.91038e-09 0 0)
(-1.45519e-09 0 0)
(-1.16415e-08 0 0)
(-1.74623e-08 0 0)
(-2.91038e-09 0 0)
(8.73115e-09 0 0)
(8.73115e-09 0 0)
(7.27596e-09 0 0)
(5.82077e-09 0 0)
(2.91038e-09 0 0)
(-1.45519e-09 0 0)
(-5.82077e-09 0 0)
(-1.45519e-09 0 0)
(2.91038e-09 0 0)
(4.36557e-09 0 0)
(1.16415e-08 0 0)
(1.45519e-08 0 0)
(1.01863e-08 0 0)
(2.91038e-09 0 0)
(1.45519e-09 0 0)
(-5.82077e-09 0 0)
(-1.60071e-08 0 0)
(-2.76486e-08 0 0)
(-2.18279e-08 0 0)
(-8.73115e-09 0 0)
(2.91038e-09 0 0)
(1.01863e-08 0 0)
(7.27596e-09 0 0)
(1.01863e-08 0 0)
(7.27596e-09 0 0)
(-5.82077e-09 0 0)
(-8.73115e-09 0 0)
(-7.27596e-09 0 0)
(-2.91038e-09 0 0)
(4.36557e-09 0 0)
(1.01863e-08 0 0)
(1.01863e-08 0 0)
(8.73115e-09 0 0)
(1.30967e-08 0 0)
(7.27596e-09 0 0)
(-7.27596e-09 0 0)
(-4.36557e-09 0 0)
(2.00591e-23 0 0)
(-2.91038e-09 0 0)
(2.91038e-09 0 0)
(2.91038e-09 0 0)
(-1.45519e-08 0 0)
(-2.03727e-08 0 0)
(-1.60071e-08 0 0)
(-2.03727e-08 0 0)
(-7.27596e-09 0 0)
(4.36557e-09 0 0)
(2.91038e-09 0 0)
(-2.91038e-09 0 0)
(1.45519e-09 0 0)
(7.27596e-09 0 0)
(2.91038e-09 0 0)
(-1.45519e-09 0 0)
(2.91038e-09 0 0)
(2.97785e-24 0 0)
(-7.27596e-09 0 0)
(-2.91038e-09 0 0)
(1.45519e-08 0 0)
(5.09317e-08 0 0)
(1.60071e-07 0 0)
(4.55475e-07 0 0)
(1.33296e-06 0 0)
(3.90719e-06 0 0)
(1.12879e-05 0 0)
(3.2119e-05 0 0)
(9.012e-05 0 0)
(0.000249107 0 0)
(0.000678014 0 0)
(0.0018165 0 0)
(0.00478854 0 0)
(0.0124154 0 0)
(0.0316452 0 0)
(0.079256 0 0)
(0.194942 0 0)
(0.470628 0 0)
(1.11451 0 0)
(2.58722 0 0)
(5.88311 0 0)
(13.0935 0 0)
(28.4963 0 0)
(60.5864 0 0)
(125.699 0 0)
(254.161 0 0)
(500.132 0 0)
(956.186 0 0)
(1772.8 0 0)
(3180.51 0 0)
(5507.78 0 0)
(9181.08 0 0)
(14686.9 0 0)
(22474.7 0 0)
(32795.6 0 0)
(45504.9 0 0)
(59906.9 0 0)
(74743.4 0 0)
(88383.6 0 0)
(99198.4 0 0)
(106169 0 0)
(109382 0 0)
(109780 0 0)
(108460 0 0)
(106238 0 0)
(103591 0 0)
(100754 0 0)
(97841.2 0 0)
(94904.6 0 0)
(91970.3 0 0)
(89051.6 0 0)
(86155.6 0 0)
(83286.3 0 0)
(80446.6 0 0)
(77638.5 0 0)
(74864 0 0)
(72125.1 0 0)
(69423.6 0 0)
(66761.8 0 0)
(64141.8 0 0)
(61565.5 0 0)
(59035.3 0 0)
(56553.1 0 0)
(54120.8 0 0)
(51740.5 0 0)
(49413.7 0 0)
(47142.1 0 0)
(44927 0 0)
(42769.6 0 0)
(40670.8 0 0)
(38631.3 0 0)
(36651.9 0 0)
(34731.8 0 0)
(32876.1 0 0)
(31067.7 0 0)
(29359.1 0 0)
(27603.8 0 0)
(26163.2 0 0)
(24249.5 0 0)
(23339.1 0 0)
(21126.1 0 0)
(20370.4 0 0)
(19122.9 0 0)
(16619 0 0)
(17496.9 0 0)
(14532 0 0)
(13395.8 0 0)
(14534.6 0 0)
(11260.2 0 0)
(9854.31 0 0)
(11780.4 0 0)
(9569.6 0 0)
(6376.14 0 0)
(8035.24 0 0)
(9075.58 0 0)
(5467.02 0 0)
(3345.48 0 0)
(5893.15 0 0)
(6964.47 0 0)
(3350.01 0 0)
(627.976 0 0)
(2851.69 0 0)
(5552.46 0 0)
(3599.18 0 0)
(-534 0 0)
(-1096.14 0 0)
(2352.24 0 0)
(4681.9 0 0)
(2256.33 0 0)
(-2312.24 0 0)
(-3181.39 0 0)
(1098.25 0 0)
(4885.43 0 0)
(3057.18 0 0)
(-2305.65 0 0)
(-4723.13 0 0)
(-836.687 0 0)
(2175.45 0 0)
(4436.57 0 0)
(3315.93 0 0)
(-3875.77 0 0)
(-3454.17 0 0)
(-649.259 0 0)
(631.56 0 0)
(1957.69 0 0)
(1869.18 0 0)
(1441.36 0 0)
(-592.774 0 0)
(-1560.78 0 0)
(-313.058 0 0)
(325.177 0 0)
(1486.61 0 0)
(1303.43 0 0)
(263.669 0 0)
(-1445.9 0 0)
(103.406 0 0)
(1364.09 0 0)
(127.488 0 0)
(-416.816 0 0)
(-828.447 0 0)
(643.013 0 0)
(2017.14 0 0)
(282.827 0 0)
(505.312 0 0)
(1076.03 0 0)
(2539.46 0 0)
(-1120.88 0 0)
(495.541 0 0)
(3091.31 0 0)
(395.094 0 0)
(-1270.73 0 0)
(-326.276 0 0)
(1041.49 0 0)
(4501.12 0 0)
(1172.57 0 0)
(-597.903 0 0)
(226.981 0 0)
(1809.49 0 0)
(3558.41 0 0)
(552.456 0 0)
(2323.58 0 0)
(3507.56 0 0)
(1235.71 0 0)
(860.23 0 0)
(657.863 0 0)
(-174.554 0 0)
(17079.4 0 0)
(24340.1 0 0)
(176818 0 0)
(290202 0 0)
(230181 0 0)
(177943 0 0)
(131339 0 0)
(94802.3 0 0)
(62910 0 0)
(39504.9 0 0)
(27491.6 0 0)
(18925 0 0)
(9740.96 0 0)
(4494.94 0 0)
(3475.6 0 0)
(2422.23 0 0)
(719.34 0 0)
(492.754 0 0)
(651.08 0 0)
(124.112 0 0)
(-267.475 0 0)
(-277.072 0 0)
(-192.522 0 0)
(-242.935 0 0)
(228.328 0 0)
(-38.6991 0 0)
(-468.849 0 0)
(192.06 0 0)
(-70.2639 0 0)
(274.544 0 0)
(483.638 0 0)
(174.587 0 0)
(958.487 0 0)
(77.3363 0 0)
(937.858 0 0)
(1383.21 0 0)
(-564.03 0 0)
(2900.79 0 0)
(2746.88 0 0)
(-2534.9 0 0)
(11628.1 0 0)
(-1774.88 0 0)
(6395.18 0 0)
(11438.1 0 0)
(-1608.79 0 0)
(15739.1 0 0)
(21645.9 0 0)
(-13628.7 0 0)
(59118.5 0 0)
(7228.08 0 0)
(6129.87 0 0)
(124221 0 0)
(-55393.9 0 0)
(181094 0 0)
(184482 0 0)
(35224.1 0 0)
(2.21901e+06 0 0)
(1.21208e+06 0 0)
(243941 0 0)
(38960.3 0 0)
(5587.24 0 0)
(749.685 0 0)
(99.6929 0 0)
(13.2661 0 0)
(1.76674 0 0)
(0.235317 0 0)
(0.0313315 0 0)
(0.00416952 0 0)
(0.000554623 0 0)
(7.37547e-05 0 0)
(9.80708e-06 0 0)
(1.30331e-06 0 0)
(1.72258e-07 0 0)
(2.32831e-08 0 0)
(4.18368e-09 0 0)
(9.09495e-10 0 0)
(1.81899e-10 0 0)
(3.63798e-10 0 0)
(3.23566e-24 0 0)
(5.45697e-10 0 0)
(5.45697e-10 0 0)
(-7.27596e-10 0 0)
(-3.63798e-10 0 0)
(-1.81899e-10 0 0)
(-3.63798e-10 0 0)
(1.81899e-10 0 0)
(3.63798e-10 0 0)
(9.09495e-10 0 0)
(1.09139e-09 0 0)
(1.81899e-10 0 0)
(-3.63798e-10 0 0)
(-3.63798e-10 0 0)
(-5.45697e-10 0 0)
(-1.63709e-09 0 0)
(-2.00089e-09 0 0)
(-5.45697e-10 0 0)
(5.45697e-10 0 0)
(7.27596e-10 0 0)
(9.09495e-10 0 0)
(5.45697e-10 0 0)
(-1.81899e-10 0 0)
(-1.81899e-10 0 0)
(1.81899e-10 0 0)
(1.81899e-10 0 0)
(1.81899e-10 0 0)
(1.81899e-10 0 0)
(-3.63798e-10 0 0)
(2.84343e-25 0 0)
(1.81899e-10 0 0)
(-1.81899e-10 0 0)
(-1.27329e-09 0 0)
(-7.27596e-10 0 0)
(7.27596e-10 0 0)
(1.63709e-09 0 0)
(5.45697e-10 0 0)
(-3.63798e-10 0 0)
(7.27596e-10 0 0)
(1.09139e-09 0 0)
(3.63798e-10 0 0)
(-5.45697e-10 0 0)
(3.63798e-10 0 0)
(1.27329e-09 0 0)
(1.09139e-09 0 0)
(-1.81899e-10 0 0)
(-1.09139e-09 0 0)
(-1.27329e-09 0 0)
(-7.27596e-10 0 0)
(-7.27596e-10 0 0)
(-5.45697e-10 0 0)
(-1.81899e-10 0 0)
(-3.63798e-10 0 0)
(1.63709e-09 0 0)
(1.09139e-09 0 0)
(-1.81899e-10 0 0)
(-3.63798e-10 0 0)
(-3.63798e-10 0 0)
(1.81899e-10 0 0)
(1.09139e-09 0 0)
(6.72084e-25 0 0)
(-5.45697e-10 0 0)
(3.23117e-24 0 0)
(-1.81899e-10 0 0)
(1.81899e-10 0 0)
(3.63798e-10 0 0)
(1.21492e-24 0 0)
(1.09139e-09 0 0)
(1.81899e-09 0 0)
(9.09495e-10 0 0)
(-1.81899e-10 0 0)
(-1.09139e-09 0 0)
(-1.81899e-10 0 0)
(7.35916e-24 0 0)
(-5.45697e-10 0 0)
(1.81899e-10 0 0)
(5.45697e-10 0 0)
(1.81899e-10 0 0)
(5.45697e-10 0 0)
(9.09495e-10 0 0)
(-1.81899e-10 0 0)
(-2.18279e-09 0 0)
(-1.81899e-09 0 0)
(-1.09139e-09 0 0)
(-5.45697e-10 0 0)
(-3.63798e-10 0 0)
(3.63798e-10 0 0)
(9.09495e-10 0 0)
(9.09495e-10 0 0)
(7.27596e-10 0 0)
(7.27596e-10 0 0)
(5.45697e-10 0 0)
(-3.63798e-10 0 0)
(-3.63798e-10 0 0)
(1.45519e-09 0 0)
(1.45519e-09 0 0)
(3.63798e-10 0 0)
(7.27596e-10 0 0)
(1.27329e-09 0 0)
(1.81899e-10 0 0)
(1.81899e-10 0 0)
(7.27596e-10 0 0)
(1.01847e-23 0 0)
(5.45697e-10 0 0)
(3.63798e-10 0 0)
(-3.63798e-10 0 0)
(-3.63798e-10 0 0)
(-7.27596e-10 0 0)
(-1.81899e-10 0 0)
(5.45697e-10 0 0)
(-1.09139e-09 0 0)
(-1.81899e-09 0 0)
(-6.66914e-24 0 0)
(3.63798e-10 0 0)
(-8.81464e-24 0 0)
(3.63798e-10 0 0)
(1.27329e-09 0 0)
(1.09139e-09 0 0)
(1.81899e-10 0 0)
(3.63798e-10 0 0)
(-1.09139e-09 0 0)
(-2.00089e-09 0 0)
(-9.09495e-10 0 0)
(6.82424e-24 0 0)
(-9.09495e-10 0 0)
(-2.18279e-09 0 0)
(-1.45519e-09 0 0)
(3.63798e-10 0 0)
(5.45697e-10 0 0)
(5.45697e-10 0 0)
(5.45697e-10 0 0)
(3.63798e-10 0 0)
(7.27596e-10 0 0)
(1.09139e-09 0 0)
(7.27596e-10 0 0)
(1.81899e-10 0 0)
(-3.63798e-10 0 0)
(-3.63798e-10 0 0)
(-3.63798e-10 0 0)
(1.81899e-10 0 0)
(1.81899e-10 0 0)
(7.46361e-25 0 0)
(5.45697e-10 0 0)
(1.09139e-09 0 0)
(-5.45697e-10 0 0)
(-5.45697e-10 0 0)
(-7.27596e-10 0 0)
(-7.27596e-10 0 0)
(-1.81899e-10 0 0)
(1.81899e-10 0 0)
(3.63798e-10 0 0)
(-1.81899e-10 0 0)
(3.63798e-10 0 0)
(1.81899e-10 0 0)
(-5.45697e-10 0 0)
(1.81899e-10 0 0)
(7.27596e-10 0 0)
(3.63798e-10 0 0)
(-3.41415e-25 0 0)
(-3.63798e-10 0 0)
(-3.63798e-10 0 0)
(-3.63798e-10 0 0)
(4.65289e-25 0 0)
(-3.63798e-10 0 0)
(1.81899e-10 0 0)
(7.27596e-10 0 0)
(5.45697e-10 0 0)
(7.27596e-10 0 0)
(3.63798e-10 0 0)
(-3.63798e-10 0 0)
(3.63798e-10 0 0)
(5.45697e-10 0 0)
(-5.45697e-10 0 0)
(-1.63709e-09 0 0)
(-1.27329e-09 0 0)
(-5.45697e-10 0 0)
(5.27328e-24 0 0)
(-3.63798e-10 0 0)
(1.81899e-10 0 0)
(1.45519e-09 0 0)
(1.45519e-09 0 0)
(7.88407e-24 0 0)
(-3.63798e-10 0 0)
(8.58887e-25 0 0)
(-1.09139e-09 0 0)
(-1.27329e-09 0 0)
(5.45697e-10 0 0)
(1.09139e-09 0 0)
(-1.81899e-10 0 0)
(-7.27596e-10 0 0)
(-5.45697e-10 0 0)
(-5.45697e-10 0 0)
(-3.63798e-10 0 0)
(1.81899e-10 0 0)
(3.63798e-10 0 0)
(-1.81899e-10 0 0)
(-3.63798e-10 0 0)
(3.63798e-10 0 0)
(9.09495e-10 0 0)
(5.45697e-10 0 0)
(-1.81899e-10 0 0)
(-7.55483e-24 0 0)
(-3.63798e-10 0 0)
(-5.45697e-10 0 0)
(3.63798e-10 0 0)
(-1.81899e-10 0 0)
(-5.45697e-10 0 0)
(-1.09139e-09 0 0)
(-1.27329e-09 0 0)
(-5.45697e-10 0 0)
(1.09139e-09 0 0)
(2.18279e-09 0 0)
(1.63709e-09 0 0)
(1.09139e-09 0 0)
(1.09139e-09 0 0)
(7.27596e-10 0 0)
(-3.63798e-10 0 0)
(-7.27596e-10 0 0)
(-6.72084e-25 0 0)
(-7.27596e-10 0 0)
(-2.00089e-09 0 0)
(-7.27596e-10 0 0)
(-5.45697e-10 0 0)
(-9.09495e-10 0 0)
(-1.81899e-10 0 0)
(3.63798e-10 0 0)
(1.81899e-10 0 0)
(1.09139e-09 0 0)
(1.09139e-09 0 0)
(1.09139e-09 0 0)
(9.09495e-10 0 0)
(-7.27596e-10 0 0)
(-7.27596e-10 0 0)
(5.45697e-10 0 0)
(1.81899e-10 0 0)
(7.27596e-10 0 0)
(1.09139e-09 0 0)
(5.45697e-10 0 0)
(-5.45697e-10 0 0)
(-2.00089e-09 0 0)
(-2.00089e-09 0 0)
(-1.63709e-09 0 0)
(-1.81899e-10 0 0)
(-3.63798e-10 0 0)
(-7.27596e-10 0 0)
(-1.49082e-24 0 0)
(1.09139e-09 0 0)
(5.45697e-10 0 0)
(-7.27596e-10 0 0)
(-5.45697e-10 0 0)
(1.81899e-10 0 0)
(-1.18907e-24 0 0)
(9.09495e-10 0 0)
(3.63798e-10 0 0)
(3.63798e-10 0 0)
(7.27596e-10 0 0)
(1.70606e-24 0 0)
(1.29247e-24 0 0)
(-7.27596e-10 0 0)
(-7.27596e-10 0 0)
(-3.63798e-10 0 0)
(-3.63798e-10 0 0)
(-3.63798e-10 0 0)
(-7.27596e-10 0 0)
(1.81899e-10 0 0)
(-1.81899e-10 0 0)
(1.81899e-10 0 0)
(7.27596e-10 0 0)
(-1.03398e-24 0 0)
(-1.81899e-10 0 0)
(-5.42837e-25 0 0)
(3.63798e-10 0 0)
(9.09495e-10 0 0)
(-7.67727e-25 0 0)
(-1.81899e-10 0 0)
(-1.81899e-10 0 0)
(-9.09495e-10 0 0)
(1.81899e-10 0 0)
(1.81899e-10 0 0)
(1.81899e-10 0 0)
(-9.09495e-10 0 0)
(-1.45519e-09 0 0)
(-7.27596e-10 0 0)
(3.63798e-10 0 0)
(1.27329e-09 0 0)
(9.09495e-10 0 0)
(1.11152e-24 0 0)
(-6.46235e-25 0 0)
(-2.24787e-24 0 0)
(2.22305e-24 0 0)
(3.63798e-10 0 0)
(-3.63798e-10 0 0)
(-1.81899e-10 0 0)
(-1.81899e-10 0 0)
(1.27329e-09 0 0)
(9.09495e-10 0 0)
(1.81899e-10 0 0)
(1.81899e-10 0 0)
(-1.09139e-09 0 0)
(-7.27596e-10 0 0)
(-2.48154e-24 0 0)
(9.09495e-10 0 0)
(7.27596e-10 0 0)
(5.45697e-10 0 0)
(1.09139e-09 0 0)
(5.45697e-10 0 0)
(8.84049e-24 0 0)
(-1.81899e-10 0 0)
(-1.09139e-09 0 0)
(-1.45519e-09 0 0)
(-1.09139e-09 0 0)
(-1.27329e-09 0 0)
(-5.45697e-10 0 0)
(3.63798e-10 0 0)
(7.27596e-10 0 0)
(1.09139e-09 0 0)
(1.81899e-10 0 0)
(-1.09139e-09 0 0)
(-5.45697e-10 0 0)
(3.63798e-10 0 0)
(-8.62471e-25 0 0)
(2.58494e-25 0 0)
(-1.81899e-10 0 0)
(-7.27596e-10 0 0)
(-5.45697e-10 0 0)
(-1.57681e-24 0 0)
(1.09139e-09 0 0)
(1.27329e-09 0 0)
(1.81899e-10 0 0)
(-3.63798e-10 0 0)
(3.63798e-10 0 0)
(9.09495e-10 0 0)
(1.27329e-09 0 0)
(9.09495e-10 0 0)
(5.45697e-10 0 0)
(1.81899e-10 0 0)
(3.63798e-10 0 0)
(1.81899e-10 0 0)
(1.81899e-10 0 0)
(1.81899e-10 0 0)
(1.81899e-10 0 0)
(-3.63798e-10 0 0)
(-1.09139e-09 0 0)
(-1.27329e-09 0 0)
(-5.45697e-10 0 0)
(1.81899e-10 0 0)
(3.63798e-10 0 0)
(5.45697e-10 0 0)
(5.16988e-25 0 0)
(-7.27596e-10 0 0)
(-5.45697e-10 0 0)
(1.81899e-10 0 0)
(7.33969e-24 0 0)
(-3.63798e-10 0 0)
(-1.81899e-10 0 0)
(-7.27596e-10 0 0)
(-7.27596e-10 0 0)
(-3.63798e-10 0 0)
(1.81899e-10 0 0)
(1.45519e-09 0 0)
(1.27329e-09 0 0)
(3.63798e-10 0 0)
(5.45697e-10 0 0)
(-2.48626e-24 0 0)
(-1.63709e-09 0 0)
(-9.09495e-10 0 0)
(5.45697e-10 0 0)
(1.78361e-24 0 0)
(1.81899e-10 0 0)
(1.81899e-10 0 0)
)
;

boundaryField
{
    sides
    {
        type            calculated;
        value           nonuniform List<vector> 2((1.81899e-10 0 0) (7.27596e-09 0 0));
    }
    empty
    {
        type            empty;
    }
}


// ************************************************************************* //
