/*--------------------------------*- C++ -*----------------------------------*\
  =========                 |
  \\      /  F ield         | OpenFOAM: The Open Source CFD Toolbox
   \\    /   O peration     | Website:  https://openfoam.org
    \\  /    A nd           | Version:  9
     \\/     M anipulation  |
\*---------------------------------------------------------------------------*/
FoamFile
{
    format      ascii;
    class       volScalarField;
    location    "0.002";
    object      ddt0(rho,K);
}
// * * * * * * * * * * * * * * * * * * * * * * * * * * * * * * * * * * * * * //

dimensions      [1 -1 -3 0 0 0 0];

internalField   nonuniform List<scalar> 
1000
(
4.55334e-21
1.34227e-20
9.00423e-21
-8.56946e-21
-1.26903e-20
-2.15665e-20
-6.37408e-21
-8.28398e-23
-2.89682e-22
-1.6737e-22
1.69367e-22
2.25573e-21
4.73082e-21
9.91421e-21
9.21148e-21
3.36128e-21
-3.37878e-21
-2.23993e-24
-1.65539e-21
-1.02168e-20
-7.03563e-21
-1.02496e-21
-5.51114e-23
-2.60282e-22
6.36537e-22
3.0514e-21
5.70394e-21
3.62523e-21
-6.39005e-21
-2.96006e-21
-3.30811e-21
-3.77019e-21
-9.18613e-22
-3.72448e-22
1.8632e-22
-3.69028e-22
1.39703e-21
1.62493e-22
-6.99778e-23
-2.20358e-22
1.93424e-21
3.92068e-22
7.51115e-22
2.07227e-21
5.47559e-23
-2.0898e-21
-1.54828e-21
-1.69322e-21
-1.4948e-22
-1.38031e-22
-1.30081e-21
6.28592e-23
1.00343e-22
-1.44146e-22
7.86829e-21
3.21304e-21
-2.40841e-21
-6.90831e-22
4.22369e-22
1.85797e-21
-3.24554e-21
-1.91888e-21
-5.02161e-22
4.20625e-22
-1.35982e-21
1.31102e-22
5.64805e-23
4.2357e-22
-2.9725e-21
-2.72526e-21
3.24195e-21
-2.13871e-23
1.75174e-21
7.50726e-21
7.65951e-21
3.92493e-21
2.12541e-21
2.67857e-22
-2.85698e-21
-3.42178e-21
2.53428e-22
-4.33184e-22
7.72137e-23
-1.55296e-22
1.76907e-25
3.74992e-21
1.50659e-21
-1.01415e-20
7.55438e-21
2.29536e-20
1.21665e-20
2.9888e-21
3.41352e-21
8.34875e-21
-2.38937e-21
-1.03019e-20
-6.79494e-21
-1.092e-20
-1.00863e-20
-3.68568e-21
-1.76506e-21
-1.52394e-21
-5.75771e-23
-4.2382e-21
-9.13717e-21
-9.51214e-21
-5.64241e-21
-5.75156e-21
-2.2491e-21
2.13183e-23
3.3086e-21
-1.01107e-21
-5.2689e-21
-1.34177e-23
4.7205e-23
-2.43794e-21
-1.35305e-21
1.8278e-21
2.49879e-21
2.80715e-21
7.33464e-23
6.66045e-23
3.81123e-21
5.27057e-21
4.18761e-21
2.07244e-23
-1.78892e-22
7.12816e-22
-3.42698e-22
-7.77801e-22
2.03971e-21
-1.86419e-21
-4.95997e-23
1.8336e-22
2.82653e-21
-4.89246e-22
4.82109e-22
1.59282e-21
-2.29513e-22
-5.71114e-22
3.76853e-22
-4.73275e-22
1.63372e-21
1.17305e-21
2.0853e-21
8.31863e-23
2.09148e-22
6.97577e-22
1.75025e-21
-3.60559e-21
-4.16942e-21
2.02069e-21
2.62014e-21
7.09003e-22
-2.34826e-22
-1.14686e-21
-6.9292e-24
-3.35279e-22
1.00434e-21
1.27171e-21
-2.82718e-22
1.78009e-22
2.66404e-21
5.77837e-21
1.07884e-21
2.09257e-21
-4.5104e-23
2.27381e-21
5.46908e-21
9.89832e-21
1.29449e-20
7.92108e-21
3.82875e-21
-8.86391e-22
-6.2813e-22
8.12165e-23
-2.03715e-21
-8.78189e-21
-1.11293e-20
-5.92573e-21
-4.88401e-22
1.5045e-21
-1.23021e-21
3.25884e-21
6.71604e-21
3.74559e-21
2.70463e-23
2.07429e-21
4.19557e-21
7.56961e-21
5.03652e-21
6.68942e-21
1.8156e-21
-5.06024e-23
2.35771e-21
6.42678e-21
1.01394e-20
1.75791e-21
-2.14864e-21
2.44597e-21
-1.33713e-21
-3.58147e-21
2.10123e-21
1.76132e-21
3.61343e-22
2.63828e-22
7.62382e-21
1.10656e-20
8.59705e-21
-3.34631e-21
-6.71188e-21
-2.5419e-21
-2.24909e-21
5.40238e-22
-2.46868e-21
-4.13794e-21
2.36648e-21
2.8047e-21
-4.70893e-22
1.07897e-22
-4.31054e-22
-6.85016e-22
3.23489e-23
7.63376e-23
-1.7066e-21
2.77402e-21
1.07688e-20
2.21868e-21
-5.40246e-21
1.03154e-21
3.1315e-21
-9.15312e-22
-9.1751e-22
-2.11381e-21
-1.96638e-21
2.04981e-22
-1.84005e-21
-1.26527e-21
-2.31094e-21
-4.54839e-21
-1.20471e-20
-4.30879e-21
2.29433e-21
4.79486e-21
5.2823e-22
4.26841e-21
2.37625e-24
1.47926e-21
-9.47425e-22
-1.1953e-20
-1.03151e-20
-1.47158e-21
1.11025e-21
-1.13532e-21
-7.83164e-22
8.07814e-22
2.17666e-21
1.58115e-22
-1.74939e-21
-1.49024e-22
1.19921e-23
2.67283e-22
5.16606e-22
2.15862e-21
3.75623e-22
2.25087e-21
-1.30876e-22
3.52482e-22
2.53481e-21
1.46586e-21
4.60592e-22
-2.40098e-22
-4.54641e-22
7.38471e-22
4.22771e-22
4.83784e-21
4.49443e-21
-7.04793e-21
-9.43795e-21
-5.14999e-21
-1.34508e-21
-6.74583e-22
5.38248e-22
-8.99748e-21
-1.23865e-20
-1.14518e-20
1.13319e-22
2.10383e-21
-7.0747e-23
2.11274e-21
7.89466e-22
2.67142e-22
3.34129e-22
-9.22851e-22
1.73942e-21
-1.35168e-21
1.6724e-21
2.19312e-21
1.50541e-21
1.30917e-21
8.99877e-23
-7.36376e-22
-1.44975e-21
-1.59843e-21
1.05854e-21
1.08712e-20
5.14648e-21
3.27651e-21
4.71997e-21
3.73778e-22
2.30408e-21
1.16735e-20
7.48031e-21
2.00322e-21
-3.25812e-21
3.19336e-21
6.28322e-21
2.95538e-21
5.03655e-21
5.50826e-21
7.33023e-22
-5.79913e-22
-1.2748e-21
-7.74641e-21
-2.41389e-21
1.99017e-21
8.00231e-21
1.01593e-20
2.11794e-22
-1.96013e-21
-3.31664e-21
-5.00915e-21
-6.34138e-21
-3.31965e-21
1.07535e-21
2.58997e-21
-1.91474e-22
-9.54028e-23
3.02221e-22
-2.83714e-21
-3.44171e-21
-6.03137e-21
-2.72974e-23
6.69291e-22
-3.99272e-21
-1.55562e-20
-2.59809e-20
-1.65457e-20
-7.2716e-22
3.19574e-22
-2.69442e-21
-2.32203e-21
-8.097e-21
-4.73416e-21
2.71926e-21
3.25869e-21
3.88889e-21
2.31744e-21
-2.08546e-21
-4.67367e-21
-2.59241e-21
-6.2627e-21
-6.84648e-21
-5.39041e-21
2.37264e-21
1.49352e-21
-4.87929e-23
1.39931e-21
-7.97906e-22
-3.31928e-22
3.83142e-21
5.15924e-21
6.33013e-21
1.1221e-20
4.62335e-21
-3.53219e-21
-2.55653e-21
2.62048e-21
-1.14936e-21
-3.2536e-21
-1.24007e-21
3.96446e-22
-9.41806e-23
2.26302e-23
1.46239e-21
-1.1661e-22
8.51546e-21
7.18468e-20
5.48489e-19
4.28457e-18
3.65735e-17
3.19131e-16
2.71398e-15
2.24233e-14
1.79961e-13
1.40142e-12
1.05858e-11
7.7513e-11
5.49855e-10
3.7757e-09
2.50757e-08
1.60922e-07
9.96909e-07
5.95548e-06
3.42693e-05
0.000189707
0.00100896
0.00514794
0.0251576
0.117545
0.52406
2.22452
8.96789
34.2387
123.404
418.372
1328.8
3936.27
10823.4
27489.2
64182.5
137192
267666
476000
771990
1.14487e+06
1.5629e+06
1.98895e+06
2.39822e+06
2.78183e+06
3.14015e+06
3.47607e+06
3.79197e+06
4.08928e+06
4.36883e+06
4.63103e+06
4.87613e+06
5.10425e+06
5.31544e+06
5.50976e+06
5.68724e+06
5.84796e+06
5.99203e+06
6.11957e+06
6.23079e+06
6.32592e+06
6.40524e+06
6.46907e+06
6.51779e+06
6.55181e+06
6.57157e+06
6.57757e+06
6.57032e+06
6.55036e+06
6.51821e+06
6.47446e+06
6.41965e+06
6.35439e+06
6.27916e+06
6.19485e+06
6.10083e+06
6.00144e+06
5.88633e+06
5.78378e+06
5.63207e+06
5.55191e+06
5.35034e+06
5.26708e+06
5.12456e+06
4.8703e+06
4.90352e+06
4.58185e+06
4.42329e+06
4.47e+06
4.08287e+06
3.87453e+06
3.99315e+06
3.68153e+06
3.26258e+06
3.35402e+06
3.37489e+06
2.87937e+06
2.54232e+06
2.73302e+06
2.75447e+06
2.22134e+06
1.78499e+06
1.94562e+06
2.17167e+06
1.81886e+06
1.18119e+06
993096
1.33109e+06
1.53358e+06
1.10671e+06
384974
159864
652806
1.09775e+06
758810
-75857.1
-496653
25008.5
373841
704331
578787
-618873
-574928
-125522
45603.6
249433
276868
269667
-73000.4
-272810
-83125.6
38076.1
210933
202949
37165.3
-270807
14360
268848
39870.4
-146674
-252151
71404.5
380554
104475
105254
209117
410448
-229442
39310.7
568258
112150
-258657
-139305
120453
750549
230912
-142584
-16465.1
262378
539115
38761.2
332558
608627
221718
29206.3
-19016
-312538
2.27518e+06
2.51354e+06
2.57221e+07
4.40085e+07
3.42429e+07
2.59027e+07
1.90614e+07
1.38262e+07
9.13256e+06
5.59389e+06
3.98822e+06
2.8897e+06
1.43155e+06
572727
506398
401203
111889
75914.3
125266
28880.8
-55024.6
-53224.4
-22782.9
-21627.8
64336.5
23771.3
-61497.3
62022.3
10550
36871
76585.9
25076.6
177313
39501
233132
373395
49057.5
746180
718707
-209783
2.18086e+06
-178273
1.02974e+06
2.33955e+06
-125114
3.44417e+06
4.8755e+06
-761028
1.21909e+07
4.02273e+06
4.30743e+06
2.4504e+07
-6.93601e+06
3.5763e+07
3.50402e+07
3.77068e+07
3.65029e+08
9.62272e+07
4.00679e+06
101788
2028.06
36.4099
0.644802
0.0114279
0.000202701
3.5944e-06
6.3683e-08
1.12725e-09
1.99395e-11
3.52542e-13
6.23082e-15
1.09786e-16
1.85352e-18
2.4593e-20
1.46391e-21
-7.2029e-23
2.45787e-24
7.8601e-23
-2.74549e-23
5.30661e-23
1.44661e-22
6.46861e-23
1.85284e-22
1.07856e-22
3.19516e-22
-1.64915e-22
-4.15446e-22
-8.34641e-22
-1.07288e-21
-1.86381e-22
1.36149e-22
3.29787e-23
-1.21397e-22
9.25986e-23
-6.85748e-22
-1.7032e-22
1.55142e-22
1.42654e-22
2.3102e-22
-1.3827e-22
-2.9779e-23
9.87104e-24
-6.75839e-23
-6.22669e-23
-8.6074e-23
-7.21228e-23
9.8622e-23
-2.59915e-24
-8.02557e-23
7.33142e-23
5.63577e-22
2.67031e-22
-6.47517e-22
-6.44929e-22
-7.54061e-23
-1.38253e-22
3.33779e-22
6.77961e-22
2.3652e-22
-5.70001e-22
3.22789e-22
1.47692e-21
9.68537e-22
-1.57693e-22
-3.04538e-22
-6.43073e-22
-1.48918e-22
-2.47639e-22
-2.69562e-23
-3.754e-23
-5.95483e-23
-3.43652e-23
3.28233e-22
-6.58497e-23
-1.70777e-22
-1.43104e-22
7.33434e-23
-8.46239e-23
-4.70766e-24
-3.69394e-22
4.18151e-24
-1.1242e-22
7.01812e-23
1.1457e-22
-2.31907e-25
3.29564e-22
8.54635e-22
7.1583e-22
-1.34614e-22
-1.14857e-21
-1.74449e-22
9.22153e-24
-3.3007e-22
1.2851e-22
4.39869e-22
1.78643e-22
5.01058e-22
1.08571e-21
-2.02424e-22
-2.09951e-21
-1.12541e-21
-2.14455e-22
1.33175e-22
1.43781e-22
-1.36189e-22
-2.07844e-22
-1.16839e-22
2.1473e-22
1.82698e-22
3.52077e-22
-1.60114e-22
-3.39271e-22
1.24855e-21
1.77148e-21
3.97596e-22
1.02006e-21
1.76487e-21
2.59071e-22
2.85355e-22
9.46492e-22
-4.1101e-25
4.13836e-22
3.49735e-22
-3.35285e-22
-4.73972e-22
-7.53017e-22
-2.26984e-22
4.33844e-22
-8.39909e-22
-3.08672e-22
5.8199e-25
2.34138e-22
-8.75893e-24
4.06823e-22
1.44584e-21
1.3046e-21
2.44663e-22
5.24626e-22
-1.85165e-21
-2.36224e-21
-6.82815e-22
-2.83198e-23
3.44067e-23
5.23776e-22
9.10286e-22
-2.57287e-22
-3.02715e-22
-1.01218e-22
-3.57066e-23
1.13246e-22
2.7537e-22
2.20335e-22
2.99218e-22
1.01051e-22
-1.92335e-22
-7.06536e-23
-1.06596e-22
7.24389e-23
6.90018e-23
2.02626e-23
4.31764e-23
-3.61627e-22
2.01088e-22
2.54621e-22
3.66426e-22
2.94123e-23
7.07644e-23
-6.20069e-23
-1.5189e-22
9.70484e-23
-1.23385e-22
-7.2138e-23
9.998e-23
4.86704e-24
1.28497e-22
-5.54596e-23
-3.19336e-24
1.14762e-22
4.72185e-23
7.22164e-23
2.08504e-25
-8.54205e-23
2.9771e-23
9.83638e-23
-1.65188e-22
-5.27416e-22
-3.43204e-22
3.77122e-22
-2.80738e-22
-4.11798e-22
1.67574e-22
7.51765e-22
1.19683e-21
6.73822e-22
-2.87258e-24
5.36535e-22
-2.08057e-22
-1.20769e-21
-1.15596e-21
7.81005e-24
1.82089e-22
2.85451e-24
7.78532e-22
8.7745e-22
-1.27479e-22
-5.64397e-22
5.39252e-23
4.54645e-22
1.17851e-22
2.89154e-22
3.42688e-22
-1.01282e-22
-1.46813e-22
2.24427e-23
3.91421e-23
3.30195e-23
-1.33957e-22
-2.88683e-22
1.19378e-22
2.17458e-24
4.02089e-22
7.57209e-22
-4.14093e-22
1.4433e-22
5.18991e-22
6.8774e-22
1.0418e-21
-1.97697e-23
6.27812e-22
1.61043e-21
4.51842e-22
4.1103e-22
-2.22554e-22
-4.95461e-22
2.27172e-22
5.66628e-22
-1.01865e-23
1.9389e-22
-2.83684e-22
6.89705e-23
-1.21255e-22
-9.20956e-23
-7.55584e-23
3.2676e-23
7.53469e-23
5.04662e-22
1.02353e-22
-3.54967e-22
-6.94642e-22
5.89128e-22
4.42692e-22
-4.16454e-22
-1.56715e-22
-5.76456e-22
-8.14222e-22
-2.7273e-22
3.08616e-22
1.53632e-21
1.10203e-21
1.49763e-22
-3.15141e-23
-1.43043e-22
-1.95373e-22
3.26956e-24
4.44387e-22
4.45666e-22
-4.00925e-22
-2.11872e-22
4.34549e-24
-1.14666e-23
-3.72403e-22
-1.28816e-22
-1.99214e-22
-1.74872e-22
3.52076e-25
-1.64849e-25
9.36093e-24
-1.19152e-22
-2.57061e-23
-5.74944e-23
7.98047e-23
5.95523e-24
-3.09759e-24
-6.30884e-23
5.01682e-23
2.00728e-22
-1.49764e-23
-4.05107e-23
2.91071e-24
1.85729e-22
2.22479e-22
2.50577e-24
4.17532e-24
1.59956e-24
1.57926e-23
3.46766e-23
9.78063e-23
3.8027e-23
4.25106e-24
5.98483e-23
-7.85292e-23
3.96159e-23
-3.28729e-22
8.70458e-23
-2.7537e-23
9.01684e-24
-4.18048e-24
-3.65463e-24
1.43931e-23
-8.41575e-23
-6.69229e-23
-6.19809e-23
5.62756e-22
6.40879e-23
2.17464e-23
-5.25018e-23
5.52442e-22
2.45222e-22
-1.03803e-23
4.377e-22
4.24686e-22
5.78649e-23
-3.66492e-22
-3.88698e-22
5.94231e-25
1.55053e-22
3.68105e-22
1.67644e-22
2.44028e-22
4.91925e-22
1.00076e-22
4.93231e-23
1.61741e-22
-7.70835e-23
-5.0017e-23
6.50064e-22
1.68379e-22
-2.52908e-23
1.26809e-23
-1.75155e-24
7.10892e-23
-1.68183e-22
1.55408e-23
2.95399e-24
2.53715e-22
4.62217e-22
1.01401e-22
-1.91259e-22
4.1505e-23
1.1626e-22
7.87206e-22
5.90182e-22
6.20903e-22
2.15317e-22
4.18259e-22
2.00084e-22
1.63097e-22
9.14679e-23
1.3365e-22
-1.65146e-22
-4.28901e-22
-1.16351e-23
-1.90032e-22
3.2545e-23
1.08807e-22
1.89931e-22
-6.04458e-25
-3.73401e-22
-4.15374e-22
1.48544e-22
-1.72773e-24
-1.94591e-22
-4.67784e-23
6.41577e-23
1.77051e-22
9.13365e-23
-1.10334e-22
-2.60919e-22
2.46678e-22
1.77869e-22
4.75055e-22
5.32269e-24
-1.93446e-21
-7.51224e-22
2.73496e-22
3.4246e-24
5.11089e-23
3.31067e-23
)
;

boundaryField
{
    sides
    {
        type            calculated;
        value           nonuniform List<scalar> 2(3.31067e-23 4.55334e-21);
    }
    empty
    {
        type            empty;
    }
}


// ************************************************************************* //
