/*--------------------------------*- C++ -*----------------------------------*\
  =========                 |
  \\      /  F ield         | OpenFOAM: The Open Source CFD Toolbox
   \\    /   O peration     | Website:  https://openfoam.org
    \\  /    A nd           | Version:  9
     \\/     M anipulation  |
\*---------------------------------------------------------------------------*/
FoamFile
{
    format      ascii;
    class       surfaceScalarField;
    location    "0.002";
    object      phi_0;
}
// * * * * * * * * * * * * * * * * * * * * * * * * * * * * * * * * * * * * * //

dimensions      [1 0 -1 0 0 0 0];

internalField   nonuniform List<scalar> 
999
(
3.72324e-12
6.05382e-12
5.57066e-12
5.40012e-12
3.72324e-12
3.04112e-12
1.36424e-12
9.66338e-13
8.52651e-14
-2.84217e-13
1.25056e-12
1.76215e-12
2.10321e-12
3.60956e-12
4.51905e-12
4.91696e-12
4.26326e-12
5.00222e-12
4.74643e-12
4.20641e-12
3.43903e-12
2.01794e-12
1.13687e-12
5.11591e-13
8.52651e-13
2.70006e-12
4.60432e-12
4.68958e-12
3.41061e-12
2.01794e-12
2.27374e-12
1.19371e-12
1.98952e-13
1.42109e-13
-1.13687e-13
-1.73372e-12
-2.58638e-12
-2.07478e-12
-1.3074e-12
7.67386e-13
1.13687e-12
1.7053e-12
2.24532e-12
3.12639e-12
3.75167e-12
1.90425e-12
1.16529e-12
5.68434e-13
1.98952e-13
-3.97904e-13
-7.38964e-13
-1.42109e-13
-2.27374e-13
8.52651e-13
1.9611e-12
1.02318e-12
3.12639e-13
4.83169e-13
1.33582e-12
2.13163e-12
1.62004e-12
1.33582e-12
-2.27374e-13
-3.97904e-13
-8.52651e-14
2.27374e-13
1.27898e-12
1.73372e-12
3.0127e-12
4.54747e-12
4.37694e-12
4.20641e-12
4.26326e-12
4.9738e-12
3.78009e-12
2.6148e-12
5.68434e-13
-1.19371e-12
-1.62004e-12
-1.25056e-12
1.13687e-13
-1.98952e-13
-6.25278e-13
8.2423e-13
2.47269e-12
3.75167e-12
4.3201e-12
4.9738e-12
5.42855e-12
5.3717e-12
4.54747e-12
3.9222e-12
5.57066e-12
6.13909e-12
5.82645e-12
6.36646e-12
5.57066e-12
4.20641e-12
2.87059e-12
1.79057e-12
1.0516e-12
3.41061e-13
-8.81073e-13
-3.46745e-12
-4.77485e-12
-4.60432e-12
-3.52429e-12
-1.98952e-12
-1.25056e-12
1.22213e-12
2.67164e-12
2.87059e-12
3.12639e-12
3.12639e-12
1.67688e-12
3.97904e-13
-3.97904e-13
-1.10845e-12
-1.53477e-12
-1.0516e-12
-2.55795e-13
1.22213e-12
2.67164e-12
2.92744e-12
2.13163e-12
8.52651e-13
9.9476e-13
1.84741e-12
1.42109e-12
1.87583e-12
1.9611e-12
1.02318e-12
-8.52651e-14
-9.66338e-13
3.12639e-13
6.25278e-13
5.40012e-13
1.7053e-13
-4.26326e-13
-1.7053e-13
5.68434e-14
-1.67688e-12
-2.6148e-12
-3.49587e-12
-2.95586e-12
-3.09797e-12
-3.21165e-12
-1.67688e-12
-2.55795e-13
3.69482e-13
1.76215e-12
1.67688e-12
1.02318e-12
1.98952e-13
-3.41061e-13
-7.67386e-13
-5.11591e-13
-1.22213e-12
-2.24532e-12
-3.58114e-12
-3.46745e-12
-2.92744e-12
-1.87583e-12
-1.25056e-12
-1.08002e-12
-1.62004e-12
-1.7053e-13
1.9611e-12
2.16005e-12
2.70006e-12
2.38742e-12
1.3074e-12
1.42109e-13
-7.10543e-13
1.13687e-13
7.67386e-13
1.79057e-12
3.06954e-12
2.89901e-12
1.73372e-12
-5.68434e-14
-1.13687e-13
1.42109e-12
3.38218e-12
3.15481e-12
1.59162e-12
-7.10543e-13
-1.13687e-12
-2.16005e-12
-2.359e-12
-1.98952e-12
-2.01794e-12
-2.84217e-13
7.38964e-13
2.38742e-12
2.81375e-12
2.70006e-12
1.25056e-12
-6.25278e-13
-2.01794e-12
-2.33058e-12
-2.84217e-12
-2.87059e-12
-1.76215e-12
-5.40012e-13
1.67688e-12
3.04112e-12
4.14957e-12
4.60432e-12
4.86011e-12
3.6664e-12
2.84217e-12
1.42109e-13
-1.10845e-12
-2.55795e-12
-2.33058e-12
-2.359e-12
-4.54747e-13
1.0516e-12
1.87583e-12
8.2423e-13
8.2423e-13
2.01794e-12
1.0516e-12
-8.52651e-14
-2.6148e-12
-3.35376e-12
-2.47269e-12
-2.55795e-13
5.68434e-13
9.09495e-13
5.40012e-13
3.41061e-13
6.82121e-13
0
-7.67386e-13
-1.87583e-12
-8.2423e-13
-8.52651e-13
-1.36424e-12
-3.15481e-12
-2.92744e-12
-2.58638e-12
-6.53699e-13
2.30216e-12
2.04636e-12
1.39266e-12
2.07478e-12
3.18323e-12
4.12115e-12
3.89377e-12
2.84217e-12
8.52651e-14
-1.90425e-12
-2.18847e-12
-1.73372e-12
-1.0516e-12
-7.38964e-13
-3.12639e-13
3.69482e-13
5.11591e-13
5.40012e-13
1.3074e-12
9.9476e-13
1.22213e-12
7.95808e-13
-4.26326e-13
-1.27898e-12
-9.9476e-13
-5.11591e-13
2.84217e-14
-1.98952e-13
1.42109e-13
2.27374e-13
9.09495e-13
2.27374e-12
3.95062e-12
3.75167e-12
4.66116e-12
3.83693e-12
2.95586e-12
-1.13687e-13
-1.7053e-12
-3.32534e-12
-3.15481e-12
-3.18323e-12
-2.07478e-12
-4.26326e-13
5.96856e-13
7.38964e-13
7.10543e-13
5.40012e-13
8.81073e-13
-3.12639e-13
8.52651e-14
0
-1.10845e-12
-1.27898e-12
-2.10321e-12
-9.66338e-13
-2.84217e-14
-5.40012e-13
-6.25278e-13
-8.52651e-13
-1.98952e-12
-2.359e-12
-1.44951e-12
-1.90425e-12
-3.97904e-13
1.27898e-12
1.90425e-12
2.24532e-12
8.52651e-13
-9.9476e-13
-3.63798e-12
-4.23483e-12
-3.63798e-12
-2.07478e-12
-1.87583e-12
-6.82121e-13
-1.16529e-12
-6.25278e-13
-1.02318e-12
-3.24007e-12
-4.03588e-12
-4.37694e-12
-2.6148e-12
-1.56319e-12
-1.7053e-13
-1.19371e-12
-1.9611e-12
-3.46745e-12
-4.51905e-12
-4.34852e-12
-2.92744e-12
-9.09495e-13
4.26326e-13
1.7053e-13
-2.84217e-13
-9.9476e-13
-1.81899e-12
-1.0516e-12
8.52651e-13
2.47269e-12
3.18323e-12
4.17799e-12
3.21165e-12
1.7053e-12
6.53699e-13
-3.69482e-13
-8.52651e-13
-2.24532e-12
-2.92744e-12
-2.01794e-12
-2.07478e-12
-1.79057e-12
-2.64322e-12
-2.84217e-12
-1.56319e-12
-1.22213e-12
-1.90425e-12
-2.95586e-12
-2.13163e-12
-2.50111e-12
-1.25056e-12
-1.50635e-12
-1.3074e-12
-1.9611e-12
-5.40012e-13
-9.09495e-13
-1.50635e-12
-1.3074e-12
-2.04636e-12
-2.47269e-12
-2.84217e-12
-3.12639e-12
-3.80851e-12
-3.12639e-12
-2.6148e-12
-1.44951e-12
-1.56319e-12
-9.37916e-13
-5.68434e-13
-1.25056e-12
-4.26326e-13
1.16529e-12
3.69482e-12
8.896e-12
2.32774e-11
6.58815e-11
1.95939e-10
5.79831e-10
1.69328e-09
4.87066e-09
1.38069e-08
3.85524e-08
1.06033e-07
2.8718e-07
7.65668e-07
2.00881e-06
5.18403e-06
1.31534e-05
3.27977e-05
8.03281e-05
0.000193141
0.000455632
0.00105393
0.00238874
0.00530105
0.011509
0.0244229
0.050607
0.10228
0.201372
0.38568
0.717472
1.29417
2.2594
3.81045
6.1961
9.69765
14.5888
21.0777
29.245
38.9989
50.0636
62.0255
74.4696
87.0862
99.6876
112.175
124.501
136.641
148.583
160.321
171.852
183.172
194.28
205.176
215.857
226.323
236.573
246.605
256.42
266.017
275.394
284.552
293.491
302.21
310.71
318.991
327.054
334.899
342.527
349.94
357.139
364.125
370.901
377.468
383.826
389.983
395.929
401.695
407.217
412.631
417.711
422.777
427.518
432.041
436.67
440.647
444.838
448.868
452.262
455.948
459.562
462.45
465.432
468.709
471.38
473.572
476.141
478.826
480.815
482.384
484.336
486.524
488.138
489.123
490.238
491.825
493.327
494.141
494.459
495.005
496.097
497.19
497.551
497.275
497.171
497.745
498.581
498.838
498.594
498.04
497.676
498.157
498.564
498.624
498.494
498.191
497.939
497.797
497.891
498.063
498.071
498.017
497.808
497.641
497.604
497.746
497.731
497.61
497.612
497.589
497.58
497.471
497.275
497.295
497.255
497.157
496.846
496.938
496.839
496.525
496.522
496.628
496.586
496.414
495.885
495.78
495.81
495.733
495.483
495.014
494.899
494.575
494.185
494.054
493.846
493.648
493.403
490.859
486.555
462.247
424.023
393.088
368.64
350.541
337.541
328.874
323.299
319.51
317.036
315.71
315.015
314.538
314.25
314.158
314.095
314.036
314.03
314.053
314.08
314.111
314.154
314.148
314.176
314.243
314.246
314.277
314.244
314.196
314.186
314.103
314.127
314.086
314.036
314.196
314.054
313.935
314.404
313.27
313.654
312.998
312.226
312.684
311.721
310.39
313.242
308.156
309.523
311.561
300.505
309.209
294.507
279.81
314.671
117.126
28.4421
4.62192
0.622039
0.0822451
0.0109184
0.00145307
0.000193543
2.57777e-05
3.43166e-06
4.56595e-07
6.07272e-08
8.07487e-09
1.07354e-09
1.42677e-10
1.88258e-11
2.32347e-12
3.19744e-13
7.10543e-14
-7.10543e-15
1.10134e-13
1.66978e-13
1.27898e-13
1.24345e-13
4.61853e-14
-2.02505e-13
-2.80664e-13
-3.55271e-13
-4.76064e-13
-5.54223e-13
-5.18696e-13
-4.15668e-13
-5.15143e-13
-3.55271e-13
-1.3145e-13
5.32907e-14
3.19744e-14
3.19744e-14
1.74083e-13
1.49214e-13
1.45661e-13
9.59233e-14
1.06581e-14
-1.42109e-14
2.13163e-14
-1.06581e-13
-1.49214e-13
-2.16716e-13
-2.06057e-13
-1.81188e-13
-1.20792e-13
-1.88294e-13
-1.7053e-13
-2.23821e-13
-2.27374e-13
-3.19744e-13
-3.37508e-13
-8.52651e-14
2.13163e-14
1.98952e-13
3.05533e-13
3.48166e-13
3.69482e-13
4.9738e-13
5.15143e-13
5.32907e-13
4.54747e-13
2.84217e-13
1.59872e-13
1.59872e-13
1.7053e-13
7.10543e-14
1.35003e-13
6.75016e-14
2.84217e-14
1.10134e-13
1.27898e-13
2.45137e-13
2.16716e-13
1.74083e-13
9.9476e-14
1.1724e-13
2.06057e-13
4.12115e-13
3.16192e-13
2.27374e-13
2.02505e-13
1.13687e-13
8.88178e-14
2.52243e-13
3.37508e-13
4.12115e-13
4.15668e-13
4.9738e-13
4.36984e-13
3.01981e-13
3.01981e-13
3.6593e-13
4.40536e-13
4.51195e-13
5.57776e-13
6.46594e-13
4.86722e-13
3.69482e-13
2.27374e-13
-7.10543e-15
-1.91847e-13
-1.81188e-13
-1.49214e-13
-6.39488e-14
4.9738e-14
1.63425e-13
2.30926e-13
3.01981e-13
2.98428e-13
5.11591e-13
5.82645e-13
5.32907e-13
6.39488e-13
6.75016e-13
7.78044e-13
7.38964e-13
7.10543e-13
5.22249e-13
3.87246e-13
4.90274e-13
4.26326e-13
5.79092e-13
5.86198e-13
5.32907e-13
5.64881e-13
4.29878e-13
1.63425e-13
1.24345e-13
3.09086e-13
4.1922e-13
5.86198e-13
5.68434e-13
5.71987e-13
6.92779e-13
6.99885e-13
8.59757e-13
6.75016e-13
5.00933e-13
2.4869e-13
1.24345e-13
-8.88178e-14
-2.59348e-13
-3.30402e-13
-3.01981e-13
-1.45661e-13
-8.17124e-14
7.81597e-14
2.13163e-13
1.35003e-13
1.77636e-13
2.20268e-13
2.66454e-13
2.27374e-13
1.10134e-13
1.74083e-13
2.62901e-13
1.95399e-13
7.81597e-14
-3.19744e-14
-1.52767e-13
-2.73559e-13
-1.95399e-13
-1.88294e-13
-8.52651e-14
-2.0961e-13
-1.7053e-13
-2.55795e-13
-2.30926e-13
-1.38556e-13
-1.63425e-13
-8.17124e-14
6.39488e-14
1.06581e-14
-3.55271e-14
-5.32907e-14
-1.38556e-13
-7.4607e-14
-3.55271e-15
1.63425e-13
4.26326e-14
9.59233e-14
-4.61853e-14
-3.05533e-13
-3.90799e-13
-4.76064e-13
-5.08038e-13
-3.33955e-13
-2.80664e-13
-1.84741e-13
-3.76588e-13
-5.47118e-13
-6.99885e-13
-7.8515e-13
-6.2883e-13
-5.08038e-13
-3.09086e-13
-5.40012e-13
-3.94351e-13
-3.16192e-13
-3.73035e-13
-4.26326e-13
-2.4869e-13
-1.42109e-13
-2.0961e-13
-2.34479e-13
-2.27374e-13
-1.56319e-13
-4.01457e-13
-4.33431e-13
-2.34479e-13
-1.13687e-13
-8.52651e-14
-3.55271e-14
-1.06581e-14
-2.06057e-13
-2.55795e-13
-3.30402e-13
-4.33431e-13
-6.6791e-13
-6.57252e-13
-4.72511e-13
-4.1922e-13
-4.12115e-13
-3.6593e-13
-2.45137e-13
1.84741e-13
3.44613e-13
2.77112e-13
1.38556e-13
4.61853e-14
-2.16716e-13
-3.33955e-13
-4.01457e-13
-2.84217e-13
-1.56319e-13
-4.26326e-14
-7.10543e-15
8.17124e-14
5.32907e-14
1.06581e-13
1.38556e-13
1.35003e-13
2.62901e-13
1.66978e-13
-9.59233e-14
-2.23821e-13
-4.22773e-13
-3.8014e-13
-3.16192e-13
-4.05009e-13
-4.583e-13
-3.09086e-13
-3.48166e-13
-2.27374e-13
-3.97904e-13
-3.48166e-13
-1.91847e-13
1.77636e-14
2.20268e-13
1.3145e-13
2.55795e-13
2.84217e-13
3.37508e-13
3.76588e-13
1.77636e-13
1.27898e-13
-1.42109e-14
-1.06581e-13
-1.95399e-13
-2.41585e-13
-2.13163e-13
-8.17124e-14
2.13163e-14
9.9476e-14
2.4869e-14
9.23706e-14
4.9738e-14
3.55271e-15
-4.9738e-14
-2.4869e-14
8.88178e-14
1.63425e-13
1.45661e-13
1.7053e-13
7.10543e-14
7.4607e-14
1.3145e-13
2.16716e-13
1.35003e-13
1.77636e-14
-1.06581e-14
-1.77636e-14
3.19744e-14
2.23821e-13
1.98952e-13
7.4607e-14
-7.10543e-15
2.4869e-14
7.10543e-14
-7.10543e-15
-6.39488e-14
3.55271e-15
-9.59233e-14
-8.17124e-14
-2.02505e-13
-1.42109e-13
7.10543e-14
1.59872e-13
2.0961e-13
2.0961e-13
1.74083e-13
3.55271e-14
-1.42109e-14
-2.55795e-13
-2.73559e-13
-2.13163e-14
1.84741e-13
2.73559e-13
1.84741e-13
-8.17124e-14
-2.20268e-13
-4.44089e-13
-5.25802e-13
-3.01981e-13
-1.63425e-13
-8.52651e-14
-1.7053e-13
-1.49214e-13
0
9.9476e-14
1.77636e-14
-6.03961e-14
-2.84217e-13
-2.52243e-13
-8.17124e-14
-1.20792e-13
-1.59872e-13
-1.81188e-13
-1.77636e-14
5.32907e-14
2.4869e-14
1.27898e-13
1.59872e-13
3.01981e-13
2.80664e-13
1.77636e-13
4.9738e-14
2.13163e-13
3.37508e-13
4.72511e-13
5.29354e-13
5.18696e-13
5.7554e-13
5.29354e-13
3.76588e-13
2.98428e-13
3.12639e-13
2.41585e-13
7.81597e-14
6.75016e-14
1.38556e-13
1.10134e-13
1.88294e-13
1.27898e-13
2.13163e-13
2.66454e-13
4.54747e-13
3.90799e-13
2.80664e-13
2.06057e-13
1.03029e-13
-1.1724e-13
-1.20792e-13
-2.27374e-13
-2.34479e-13
2.4869e-14
1.66978e-13
3.37508e-13
4.76064e-13
5.25802e-13
4.93827e-13
3.12639e-13
2.84217e-13
1.3145e-13
1.42109e-13
)
;

boundaryField
{
    sides
    {
        type            calculated;
        value           nonuniform List<scalar> 2(8.73115e-14 -2.38651e-12);
    }
    empty
    {
        type            empty;
        value           nonuniform List<scalar> 0();
    }
}


// ************************************************************************* //
