/*--------------------------------*- C++ -*----------------------------------*\
  =========                 |
  \\      /  F ield         | OpenFOAM: The Open Source CFD Toolbox
   \\    /   O peration     | Website:  https://openfoam.org
    \\  /    A nd           | Version:  9
     \\/     M anipulation  |
\*---------------------------------------------------------------------------*/
FoamFile
{
    format      ascii;
    class       volVectorField;
    location    "0.002";
    object      U_0;
}
// * * * * * * * * * * * * * * * * * * * * * * * * * * * * * * * * * * * * * //

dimensions      [0 1 -1 0 0 0 0];

internalField   nonuniform List<vector> 
1000
(
(6.36467e-13 0 0)
(1.12629e-12 0 0)
(1.5547e-12 0 0)
(1.41343e-12 0 0)
(1.09098e-12 0 0)
(9.85794e-13 0 0)
(4.63723e-13 0 0)
(2.62571e-13 0 0)
(8.6756e-14 0 0)
(-1.16698e-13 0 0)
(3.68521e-14 0 0)
(5.33588e-13 0 0)
(3.75431e-13 0 0)
(6.24183e-13 0 0)
(1.06027e-12 0 0)
(1.13858e-12 0 0)
(1.19539e-12 0 0)
(1.12322e-12 0 0)
(1.19539e-12 0 0)
(1.16468e-12 0 0)
(9.68136e-13 0 0)
(7.50094e-13 0 0)
(3.07101e-13 0 0)
(2.62571e-13 0 0)
(1.04414e-13 0 0)
(3.01727e-13 0 0)
(9.78885e-13 0 0)
(1.14549e-12 0 0)
(1.04875e-12 0 0)
(6.47983e-13 0 0)
(4.6449e-13 0 0)
(5.0902e-13 0 0)
(1.66602e-13 0 0)
(4.91362e-14 0 0)
(2.30326e-14 0 0)
(-1.96545e-13 0 0)
(-4.23799e-13 0 0)
(-7.5854e-13 0 0)
(-4.23032e-13 0 0)
(-7.90785e-14 0 0)
(3.37043e-13 0 0)
(3.14011e-13 0 0)
(5.47408e-13 0 0)
(6.93281e-13 0 0)
(9.48175e-13 0 0)
(7.28597e-13 0 0)
(3.55469e-13 0 0)
(2.39539e-13 0 0)
(5.37427e-15 0 0)
(1.15931e-13 0 0)
(-4.07677e-13 0 0)
(5.83492e-14 0 0)
(-5.9117e-14 0 0)
(-3.83876e-15 0 0)
(4.20728e-13 0 0)
(3.73896e-13 0 0)
(2.16506e-13 0 0)
(5.60459e-14 0 0)
(1.38963e-13 0 0)
(4.31477e-13 0 0)
(5.52782e-13 0 0)
(4.14586e-13 0 0)
(4.91362e-14 0 0)
(-1.02879e-13 0 0)
(-1.28215e-13 0 0)
(8.44528e-15 0 0)
(1.75048e-13 0 0)
(3.14011e-13 0 0)
(6.6948e-13 0 0)
(9.91169e-13 0 0)
(1.09482e-12 0 0)
(1.10787e-12 0 0)
(1.16084e-12 0 0)
(1.02341e-12 0 0)
(1.29981e-12 0 0)
(6.28789e-13 0 0)
(5.04413e-13 0 0)
(-1.61228e-13 0 0)
(-4.79845e-13 0 0)
(-4.42993e-13 0 0)
(-5.98847e-14 0 0)
(1.38195e-13 0 0)
(-2.54894e-13 0 0)
(6.14202e-15 0 0)
(3.20921e-13 0 0)
(8.39921e-13 0 0)
(1.04338e-12 0 0)
(1.13551e-12 0 0)
(1.31439e-12 0 0)
(1.31055e-12 0 0)
(1.22073e-12 0 0)
(1.02879e-12 0 0)
(1.18234e-12 0 0)
(1.44568e-12 0 0)
(1.61151e-12 0 0)
(1.42034e-12 0 0)
(1.54472e-12 0 0)
(1.24529e-12 0 0)
(8.72167e-13 0 0)
(6.04221e-13 0 0)
(2.82533e-13 0 0)
(2.68713e-13 0 0)
(1.38195e-14 0 0)
(-5.81957e-13 0 0)
(-1.04798e-12 0 0)
(-1.32514e-12 0 0)
(-9.39729e-13 0 0)
(-7.93088e-13 0 0)
(-3.84644e-13 0 0)
(-2.84068e-14 0 0)
(5.7735e-13 0 0)
(6.34164e-13 0 0)
(8.73703e-13 0 0)
(7.43952e-13 0 0)
(6.41841e-13 0 0)
(2.30326e-13 0 0)
(1.3666e-13 0 0)
(-3.80038e-13 0 0)
(-2.36468e-13 0 0)
(-3.37811e-13 0 0)
(-2.33397e-13 0 0)
(3.68521e-14 0 0)
(6.36467e-13 0 0)
(5.92705e-13 0 0)
(7.67753e-13 0 0)
(3.57005e-13 0 0)
(1.16698e-13 0 0)
(4.66794e-13 0 0)
(2.90978e-13 0 0)
(5.02878e-13 0 0)
(3.88483e-13 0 0)
(6.04221e-13 0 0)
(6.90977e-15 0 0)
(-1.45873e-13 0 0)
(-2.21881e-13 0 0)
(3.20153e-13 0 0)
(4.68329e-14 0 0)
(1.70441e-13 0 0)
(-4.22264e-14 0 0)
(-8.52205e-14 0 0)
(1.68906e-14 0 0)
(-7.1401e-14 0 0)
(-5.61995e-13 0 0)
(-8.32244e-13 0 0)
(-7.30133e-13 0 0)
(-7.43952e-13 0 0)
(-9.04413e-13 0 0)
(-5.3973e-13 0 0)
(-3.22456e-13 0 0)
(1.40499e-13 0 0)
(2.8023e-13 0 0)
(4.68329e-13 0 0)
(3.00959e-13 0 0)
(1.61228e-13 0 0)
(-4.99039e-14 0 0)
(-1.95009e-13 0 0)
(-5.14394e-14 0 0)
(-2.69481e-13 0 0)
(-3.57773e-13 0 0)
(-8.02302e-13 0 0)
(-8.68328e-13 0 0)
(-9.19e-13 0 0)
(-5.91937e-13 0 0)
(-3.97696e-13 0 0)
(-9.82723e-14 0 0)
(-3.44721e-13 0 0)
(-4.15354e-13 0 0)
(3.88483e-13 0 0)
(4.26103e-13 0 0)
(6.60267e-13 0 0)
(6.97887e-13 0 0)
(3.77734e-13 0 0)
(2.80997e-13 0 0)
(-1.37428e-13 0 0)
(-7.06332e-14 0 0)
(8.75238e-14 0 0)
(3.56237e-13 0 0)
(6.67177e-13 0 0)
(7.40114e-13 0 0)
(6.68713e-13 0 0)
(1.00576e-13 0 0)
(-1.84261e-13 0 0)
(1.95009e-13 0 0)
(5.92705e-13 0 0)
(8.92129e-13 0 0)
(6.21112e-13 0 0)
(5.14394e-14 0 0)
(-3.07869e-13 0 0)
(-3.67754e-13 0 0)
(-6.30325e-13 0 0)
(-4.69865e-13 0 0)
(-5.71976e-13 0 0)
(-3.07869e-13 0 0)
(7.21687e-14 0 0)
(4.24567e-13 0 0)
(6.22647e-13 0 0)
(7.26294e-13 0 0)
(4.23799e-13 0 0)
(2.60268e-13 0 0)
(-5.40498e-13 0 0)
(-4.80613e-13 0 0)
(-8.08444e-13 0 0)
(-7.15545e-13 0 0)
(-5.62763e-13 0 0)
(-2.55662e-13 0 0)
(1.17466e-13 0 0)
(5.94241e-13 0 0)
(8.49902e-13 0 0)
(1.12476e-12 0 0)
(1.18848e-12 0 0)
(1.15777e-12 0 0)
(8.30708e-13 0 0)
(2.9712e-13 0 0)
(-1.46641e-13 0 0)
(-5.60459e-13 0 0)
(-6.6948e-13 0 0)
(-5.33588e-13 0 0)
(-4.68329e-13 0 0)
(1.52015e-13 0 0)
(3.93857e-13 0 0)
(3.2783e-13 0 0)
(1.59693e-13 0 0)
(3.35508e-13 0 0)
(4.37619e-13 0 0)
(1.4357e-13 0 0)
(-2.00383e-13 0 0)
(-9.22071e-13 0 0)
(-7.15545e-13 0 0)
(-3.76199e-13 0 0)
(4.91362e-14 0 0)
(2.14971e-13 0 0)
(3.13243e-13 0 0)
(6.98655e-14 0 0)
(1.42034e-13 0 0)
(1.35124e-13 0 0)
(-1.09789e-13 0 0)
(-4.14586e-13 0 0)
(-3.05566e-13 0 0)
(-2.08829e-13 0 0)
(-2.28023e-13 0 0)
(-6.80997e-13 0 0)
(-7.13242e-13 0 0)
(-7.5163e-13 0 0)
(-4.11515e-13 0 0)
(1.46641e-13 0 0)
(7.30901e-13 0 0)
(3.8618e-13 0 0)
(3.37043e-13 0 0)
(6.99423e-13 0 0)
(1.03263e-12 0 0)
(9.96543e-13 0 0)
(8.6756e-13 0 0)
(3.43953e-13 0 0)
(-3.57005e-13 0 0)
(-5.17465e-13 0 0)
(-5.69672e-13 0 0)
(-2.64875e-13 0 0)
(-1.38963e-13 0 0)
(-3.04798e-13 0 0)
(9.44336e-14 0 0)
(1.82725e-13 0 0)
(1.02879e-13 0 0)
(1.75815e-13 0 0)
(3.95393e-13 0 0)
(2.119e-13 0 0)
(3.95393e-13 0 0)
(-1.38195e-14 0 0)
(-2.33397e-13 0 0)
(-3.59308e-13 0 0)
(-1.77351e-13 0 0)
(-6.06525e-14 0 0)
(5.68137e-14 0 0)
(-1.2284e-13 0 0)
(1.32053e-13 0 0)
(5.37427e-14 0 0)
(3.39347e-13 0 0)
(8.18424e-13 0 0)
(9.90401e-13 0 0)
(1.08407e-12 0 0)
(1.14395e-12 0 0)
(8.7447e-13 0 0)
(2.47216e-13 0 0)
(-2.0499e-13 0 0)
(-8.65257e-13 0 0)
(-8.56812e-13 0 0)
(-8.56812e-13 0 0)
(-6.41841e-13 0 0)
(-2.14203e-13 0 0)
(1.30518e-14 0 0)
(2.86372e-13 0 0)
(6.833e-14 0 0)
(2.19577e-13 0 0)
(1.68138e-13 0 0)
(1.22073e-13 0 0)
(-1.85028e-13 0 0)
(1.58157e-13 0 0)
(-1.20537e-13 0 0)
(-3.30134e-13 0 0)
(-4.52974e-13 0 0)
(-4.38387e-13 0 0)
(7.67753e-16 0 0)
(-9.21303e-14 0 0)
(-1.88099e-13 0 0)
(-2.17274e-13 0 0)
(-1.83493e-13 0 0)
(-6.97119e-13 0 0)
(-3.53934e-13 0 0)
(-3.81573e-13 0 0)
(-4.76774e-13 0 0)
(2.70249e-13 0 0)
(2.94049e-13 0 0)
(6.61035e-13 0 0)
(3.4165e-13 0 0)
(9.98078e-14 0 0)
(-5.31285e-13 0 0)
(-1.05105e-12 0 0)
(-1.09482e-12 0 0)
(-6.87139e-13 0 0)
(-5.05949e-13 0 0)
(-3.25527e-13 0 0)
(-8.29173e-14 0 0)
(-3.78502e-13 0 0)
(-8.3685e-14 0 0)
(-6.46448e-13 0 0)
(-8.01534e-13 0 0)
(-1.26219e-12 0 0)
(-6.66409e-13 0 0)
(-5.95776e-13 0 0)
(-3.76199e-14 0 0)
(-1.94241e-13 0 0)
(-4.06141e-13 0 0)
(-7.13242e-13 0 0)
(-1.06334e-12 0 0)
(-1.15163e-12 0 0)
(-8.82916e-13 0 0)
(-4.60652e-13 0 0)
(5.06717e-14 0 0)
(6.67945e-14 0 0)
(7.37043e-14 0 0)
(-2.52591e-13 0 0)
(-2.29558e-13 0 0)
(-5.72743e-13 0 0)
(-6.90977e-15 0 0)
(4.45297e-13 0 0)
(6.6948e-13 0 0)
(9.88098e-13 0 0)
(9.19e-13 0 0)
(7.3781e-13 0 0)
(1.13627e-13 0 0)
(1.03647e-13 0 0)
(-2.31094e-13 0 0)
(-3.33205e-13 0 0)
(-7.85411e-13 0 0)
(-6.24951e-13 0 0)
(-4.68329e-13 0 0)
(-3.81573e-13 0 0)
(-5.56621e-13 0 0)
(-7.66217e-13 0 0)
(-4.79845e-13 0 0)
(-4.56813e-13 0 0)
(-2.52591e-13 0 0)
(-7.41649e-13 0 0)
(-5.14394e-13 0 0)
(-7.57004e-13 0 0)
(-3.44721e-13 0 0)
(-3.29366e-13 0 0)
(-3.06333e-13 0 0)
(-4.74471e-13 0 0)
(-2.83301e-13 0 0)
(-1.23608e-13 0 0)
(-2.95585e-13 0 0)
(-2.67946e-13 0 0)
(-3.69289e-13 0 0)
(-5.60459e-13 0 0)
(-6.35699e-13 0 0)
(-7.79269e-13 0 0)
(-8.7447e-13 0 0)
(-8.69096e-13 0 0)
(-7.80037e-13 0 0)
(-4.42226e-13 0 0)
(-4.15354e-13 0 0)
(-3.14779e-13 0 0)
(-2.76391e-14 0 0)
(-2.47984e-13 0 0)
(-2.13435e-13 0 0)
(7.21687e-14 0 0)
(6.09596e-13 0 0)
(1.47946e-12 0 0)
(3.63761e-12 0 0)
(1.0003e-11 0 0)
(2.91907e-11 0 0)
(8.67822e-11 0 0)
(2.54974e-10 0 0)
(7.39042e-10 0 0)
(2.11029e-09 0 0)
(5.9352e-09 0 0)
(1.64439e-08 0 0)
(4.48676e-08 0 0)
(1.20534e-07 0 0)
(3.18693e-07 0 0)
(8.28993e-07 0 0)
(2.12059e-06 0 0)
(5.33202e-06 0 0)
(1.31718e-05 0 0)
(3.19513e-05 0 0)
(7.6064e-05 0 0)
(0.000177604 0 0)
(0.000406462 0 0)
(0.000911113 0 0)
(0.00199879 0 0)
(0.00428772 0 0)
(0.0089854 0 0)
(0.0183755 0 0)
(0.0366286 0 0)
(0.0710738 0 0)
(0.134053 0 0)
(0.245376 0 0)
(0.435142 0 0)
(0.746274 0 0)
(1.23556 0 0)
(1.97154 0 0)
(3.02785 0 0)
(4.4715 0 0)
(6.34815 0 0)
(8.66805 0 0)
(11.3976 0 0)
(14.4627 0 0)
(17.7692 0 0)
(21.2317 0 0)
(24.789 0 0)
(28.4047 0 0)
(32.0596 0 0)
(35.7439 0 0)
(39.4527 0 0)
(43.1832 0 0)
(46.9339 0 0)
(50.7037 0 0)
(54.4915 0 0)
(58.2966 0 0)
(62.1181 0 0)
(65.9554 0 0)
(69.8074 0 0)
(73.6733 0 0)
(77.5523 0 0)
(81.4433 0 0)
(85.3455 0 0)
(89.2578 0 0)
(93.1794 0 0)
(97.1093 0 0)
(101.047 0 0)
(104.99 0 0)
(108.94 0 0)
(112.894 0 0)
(116.852 0 0)
(120.813 0 0)
(124.777 0 0)
(128.742 0 0)
(132.708 0 0)
(136.675 0 0)
(140.641 0 0)
(144.606 0 0)
(148.569 0 0)
(152.53 0 0)
(156.487 0 0)
(160.443 0 0)
(164.39 0 0)
(168.338 0 0)
(172.273 0 0)
(176.206 0 0)
(180.128 0 0)
(184.044 0 0)
(187.954 0 0)
(191.846 0 0)
(195.731 0 0)
(199.605 0 0)
(203.458 0 0)
(207.298 0 0)
(211.125 0 0)
(214.927 0 0)
(218.705 0 0)
(222.464 0 0)
(226.194 0 0)
(229.889 0 0)
(233.551 0 0)
(237.18 0 0)
(240.764 0 0)
(244.296 0 0)
(247.775 0 0)
(251.198 0 0)
(254.552 0 0)
(257.827 0 0)
(261.017 0 0)
(264.114 0 0)
(267.107 0 0)
(269.982 0 0)
(272.723 0 0)
(275.322 0 0)
(277.767 0 0)
(280.044 0 0)
(282.136 0 0)
(284.03 0 0)
(285.731 0 0)
(287.22 0 0)
(288.502 0 0)
(289.59 0 0)
(290.425 0 0)
(291.099 0 0)
(291.675 0 0)
(292.082 0 0)
(292.371 0 0)
(292.565 0 0)
(292.661 0 0)
(292.683 0 0)
(292.679 0 0)
(292.692 0 0)
(292.702 0 0)
(292.697 0 0)
(292.677 0 0)
(292.645 0 0)
(292.608 0 0)
(292.583 0 0)
(292.565 0 0)
(292.529 0 0)
(292.487 0 0)
(292.467 0 0)
(292.47 0 0)
(292.465 0 0)
(292.425 0 0)
(292.379 0 0)
(292.347 0 0)
(292.315 0 0)
(292.282 0 0)
(292.269 0 0)
(292.271 0 0)
(292.249 0 0)
(292.216 0 0)
(292.211 0 0)
(292.228 0 0)
(292.243 0 0)
(292.233 0 0)
(292.204 0 0)
(292.2 0 0)
(292.212 0 0)
(292.22 0 0)
(292.213 0 0)
(292.21 0 0)
(292.217 0 0)
(292.204 0 0)
(292.192 0 0)
(292.203 0 0)
(292.247 0 0)
(292.353 0 0)
(292.507 0 0)
(292.88 0 0)
(293.257 0 0)
(292.846 0 0)
(292.071 0 0)
(291.839 0 0)
(291.922 0 0)
(292.008 0 0)
(292.057 0 0)
(292.123 0 0)
(292.169 0 0)
(292.143 0 0)
(292.111 0 0)
(292.129 0 0)
(292.145 0 0)
(292.129 0 0)
(292.116 0 0)
(292.116 0 0)
(292.107 0 0)
(292.094 0 0)
(292.088 0 0)
(292.086 0 0)
(292.082 0 0)
(292.077 0 0)
(292.069 0 0)
(292.06 0 0)
(292.063 0 0)
(292.072 0 0)
(292.08 0 0)
(292.076 0 0)
(292.054 0 0)
(292.027 0 0)
(291.992 0 0)
(291.951 0 0)
(291.913 0 0)
(291.859 0 0)
(291.828 0 0)
(291.81 0 0)
(291.719 0 0)
(291.692 0 0)
(291.571 0 0)
(291.359 0 0)
(291.17 0 0)
(290.779 0 0)
(290.376 0 0)
(289.978 0 0)
(289.2 0 0)
(288.826 0 0)
(288.169 0 0)
(286.885 0 0)
(286.012 0 0)
(283.618 0 0)
(281.627 0 0)
(279.568 0 0)
(271.51 0 0)
(261.665 0 0)
(213.6 0 0)
(97.0753 0 0)
(20.439 0 0)
(3.27565 0 0)
(0.460345 0 0)
(0.0616641 0 0)
(0.00820853 0 0)
(0.00109294 0 0)
(0.000145558 0 0)
(1.93809e-05 0 0)
(2.57941e-06 0 0)
(3.43145e-07 0 0)
(4.56354e-08 0 0)
(6.06782e-09 0 0)
(8.06589e-10 0 0)
(1.06999e-10 0 0)
(1.37835e-11 0 0)
(1.46411e-12 0 0)
(4.0998e-13 0 0)
(-7.83109e-14 0 0)
(1.24376e-13 0 0)
(1.90403e-13 0 0)
(5.10556e-13 0 0)
(9.59692e-14 0 0)
(2.5643e-13 0 0)
(-1.03647e-13 0 0)
(-5.18234e-13 0 0)
(-5.98848e-13 0 0)
(-8.82917e-13 0 0)
(-9.19001e-13 0 0)
(-1.13704e-12 0 0)
(-9.38963e-13 0 0)
(-9.89635e-13 0 0)
(-9.76583e-13 0 0)
(-3.58541e-13 0 0)
(-8.82917e-14 0 0)
(2.24952e-13 0 0)
(-6.90978e-14 0 0)
(3.38579e-13 0 0)
(3.12476e-13 0 0)
(3.00192e-13 0 0)
(1.91171e-13 0 0)
(2.71785e-13 0 0)
(-2.47217e-13 0 0)
(2.04222e-13 0 0)
(-5.14395e-14 0 0)
(-3.42418e-13 0 0)
(-3.42418e-13 0 0)
(-4.44529e-13 0 0)
(-4.15355e-13 0 0)
(-2.6334e-13 0 0)
(-2.33397e-13 0 0)
(-4.29942e-13 0 0)
(-3.93858e-13 0 0)
(-4.40691e-13 0 0)
(-3.66219e-13 0 0)
(-9.02878e-13 0 0)
(-3.68522e-13 0 0)
(-1.52015e-13 0 0)
(3.49328e-13 0 0)
(4.46065e-13 0 0)
(6.00383e-13 0 0)
(6.64875e-13 0 0)
(1.04184e-12 0 0)
(8.46832e-13 0 0)
(1.14779e-12 0 0)
(8.9904e-13 0 0)
(8.75239e-13 0 0)
(2.97121e-13 0 0)
(4.92898e-13 0 0)
(1.881e-13 0 0)
(2.90211e-13 0 0)
(8.59884e-14 0 0)
(2.62572e-13 0 0)
(1.45105e-13 0 0)
(-3.83877e-15 0 0)
(3.08637e-13 0 0)
(3.8618e-13 0 0)
(5.02879e-13 0 0)
(4.14587e-13 0 0)
(4.3071e-13 0 0)
(-7.06333e-14 0 0)
(3.64683e-13 0 0)
(6.77159e-13 0 0)
(8.1689e-13 0 0)
(5.24376e-13 0 0)
(3.86948e-13 0 0)
(3.43954e-13 0 0)
(1.45873e-13 0 0)
(3.08637e-13 0 0)
(4.8522e-13 0 0)
(7.90019e-13 0 0)
(8.238e-13 0 0)
(1.04798e-12 0 0)
(8.59884e-13 0 0)
(7.07869e-13 0 0)
(5.6737e-13 0 0)
(6.78694e-13 0 0)
(8.18425e-13 0 0)
(9.70441e-13 0 0)
(9.05182e-13 0 0)
(1.19846e-12 0 0)
(1.09328e-12 0 0)
(9.51247e-13 0 0)
(6.15739e-13 0 0)
(2.31094e-13 0 0)
(-2.5643e-13 0 0)
(-4.01535e-13 0 0)
(-4.00767e-13 0 0)
(-2.31094e-13 0 0)
(-1.22073e-13 0 0)
(3.22457e-13 0 0)
(2.5643e-13 0 0)
(6.50287e-13 0 0)
(4.80614e-13 0 0)
(9.69673e-13 0 0)
(8.49136e-13 0 0)
(1.23532e-12 0 0)
(1.09482e-12 0 0)
(1.38733e-12 0 0)
(1.40345e-12 0 0)
(1.50249e-12 0 0)
(1.45182e-12 0 0)
(1.2929e-12 0 0)
(9.33589e-13 0 0)
(7.44721e-13 0 0)
(1.01497e-12 0 0)
(9.10556e-13 0 0)
(1.26142e-12 0 0)
(1.02649e-12 0 0)
(1.26142e-12 0 0)
(7.96161e-13 0 0)
(7.63915e-13 0 0)
(1.63532e-13 0 0)
(4.45297e-13 0 0)
(6.28023e-13 0 0)
(1.09405e-12 0 0)
(1.11631e-12 0 0)
(1.14779e-12 0 0)
(1.18388e-12 0 0)
(1.481e-12 0 0)
(1.45259e-12 0 0)
(1.68292e-12 0 0)
(1.18388e-12 0 0)
(7.49328e-13 0 0)
(3.57773e-13 0 0)
(-7.52399e-14 0 0)
(-2.38004e-13 0 0)
(-6.08061e-13 0 0)
(-7.57773e-13 0 0)
(-5.09788e-13 0 0)
(-1.95777e-13 0 0)
(-6.44913e-14 0 0)
(4.09213e-13 0 0)
(3.66219e-13 0 0)
(2.06526e-13 0 0)
(3.95393e-13 0 0)
(5.25911e-13 0 0)
(5.16698e-13 0 0)
(2.2572e-13 0 0)
(3.4165e-13 0 0)
(4.45297e-13 0 0)
(4.16123e-13 0 0)
(3.50096e-13 0 0)
(7.44721e-14 0 0)
(-3.47792e-13 0 0)
(-3.73128e-13 0 0)
(-4.60652e-13 0 0)
(-5.05182e-13 0 0)
(-4.52975e-14 0 0)
(-4.08445e-13 0 0)
(-3.42418e-13 0 0)
(-3.9309e-13 0 0)
(-5.61996e-13 0 0)
(-3.34741e-13 0 0)
(-4.08445e-13 0 0)
(-1.75816e-13 0 0)
(9.81501e-27 0 0)
(1.91171e-13 0 0)
(-1.45105e-13 0 0)
(2.91746e-14 0 0)
(-3.07101e-13 0 0)
(-1.09789e-13 0 0)
(-2.12668e-13 0 0)
(2.41075e-13 0 0)
(2.24952e-13 0 0)
(1.38963e-13 0 0)
(1.32821e-13 0 0)
(-3.27063e-13 0 0)
(-7.20153e-13 0 0)
(-9.03646e-13 0 0)
(-1.02188e-12 0 0)
(-7.57773e-13 0 0)
(-7.57773e-13 0 0)
(-3.29366e-13 0 0)
(-4.55278e-13 0 0)
(-9.58157e-13 0 0)
(-1.20461e-12 0 0)
(-1.48791e-12 0 0)
(-1.4595e-12 0 0)
(-1.1524e-12 0 0)
(-8.35316e-13 0 0)
(-7.92322e-13 0 0)
(-1.06487e-12 0 0)
(-5.11324e-13 0 0)
(-8.38387e-13 0 0)
(-6.7332e-13 0 0)
(-7.1785e-13 0 0)
(-2.24952e-13 0 0)
(-5.00575e-13 0 0)
(-2.77927e-13 0 0)
(-6.21113e-13 0 0)
(-2.20345e-13 0 0)
(-4.96737e-13 0 0)
(-9.56621e-13 0 0)
(-6.119e-13 0 0)
(-4.22265e-13 0 0)
(-1.32054e-13 0 0)
(-1.17466e-13 0 0)
(4.45297e-14 0 0)
(-1.58157e-13 0 0)
(-5.24376e-13 0 0)
(-6.20345e-13 0 0)
(-6.77927e-13 0 0)
(-1.12399e-12 0 0)
(-1.35816e-12 0 0)
(-1.14395e-12 0 0)
(-8.17658e-13 0 0)
(-9.56621e-13 0 0)
(-6.29558e-13 0 0)
(-8.04606e-13 0 0)
(4.9904e-14 0 0)
(5.63531e-13 0 0)
(7.19385e-13 0 0)
(2.95585e-13 0 0)
(3.73896e-13 0 0)
(-2.08829e-13 0 0)
(-6.77159e-13 0 0)
(-6.34932e-13 0 0)
(-7.82341e-13 0 0)
(-4.29942e-13 0 0)
(-2.78695e-13 0 0)
(1.26679e-13 0 0)
(-8.90594e-14 0 0)
(2.24952e-13 0 0)
(1.15163e-13 0 0)
(3.63915e-13 0 0)
(8.82917e-14 0 0)
(5.25911e-13 0 0)
(4.5451e-13 0 0)
(8.21497e-14 0 0)
(-3.25528e-13 0 0)
(-7.42418e-13 0 0)
(-8.18425e-13 0 0)
(-5.99616e-13 0 0)
(-7.71593e-13 0 0)
(-8.238e-13 0 0)
(-7.93857e-13 0 0)
(-7.27063e-13 0 0)
(-4.94433e-13 0 0)
(-5.85028e-13 0 0)
(-7.76967e-13 0 0)
(-5.44337e-13 0 0)
(-9.05949e-14 0 0)
(1.88867e-13 0 0)
(4.15355e-13 0 0)
(2.61036e-13 0 0)
(7.80038e-13 0 0)
(4.10748e-13 0 0)
(8.10748e-13 0 0)
(5.45873e-13 0 0)
(3.77735e-13 0 0)
(7.67754e-15 0 0)
(-5.06717e-14 0 0)
(-4.28407e-13 0 0)
(-3.42418e-13 0 0)
(-5.45873e-13 0 0)
(-2.24952e-13 0 0)
(-1.31286e-13 0 0)
(2.1881e-13 0 0)
(-8.44529e-15 0 0)
(1.73512e-13 0 0)
(4.9904e-14 0 0)
(1.59693e-13 0 0)
(-1.68138e-13 0 0)
(-9.21304e-15 0 0)
(-7.21689e-14 0 0)
(3.78503e-13 0 0)
(2.77927e-13 0 0)
(3.00192e-13 0 0)
(1.97313e-13 0 0)
(2.2572e-13 0 0)
(9.44337e-14 0 0)
(4.7524e-13 0 0)
(2.57198e-13 0 0)
(2.11132e-13 0 0)
(-5.14395e-14 0 0)
(-3.68522e-14 0 0)
(-9.21304e-15 0 0)
(1.90403e-13 0 0)
(5.47408e-13 0 0)
(1.89635e-13 0 0)
(-2.38004e-14 0 0)
(-3.22457e-14 0 0)
(1.15163e-13 0 0)
(1.02879e-13 0 0)
(-2.44913e-13 0 0)
(8.21497e-14 0 0)
(-1.97313e-13 0 0)
(-7.98464e-14 0 0)
(-2.62572e-13 0 0)
(-5.61996e-13 0 0)
(2.99424e-14 0 0)
(2.18042e-13 0 0)
(4.81382e-13 0 0)
(4.29942e-13 0 0)
(4.33013e-13 0 0)
(5.98848e-14 0 0)
(1.53551e-13 0 0)
(-2.84069e-13 0 0)
(-5.56621e-13 0 0)
(-3.37044e-13 0 0)
(2.33397e-13 0 0)
(4.69098e-13 0 0)
(5.70441e-13 0 0)
(1.10557e-13 0 0)
(-3.26295e-13 0 0)
(-7.57005e-13 0 0)
(-1.09405e-12 0 0)
(-8.32245e-13 0 0)
(-3.52399e-13 0 0)
(-1.26679e-13 0 0)
(-2.357e-13 0 0)
(-3.82341e-13 0 0)
(-1.75816e-13 0 0)
(1.46641e-13 0 0)
(1.9808e-13 0 0)
(-7.06333e-14 0 0)
(-2.84069e-13 0 0)
(-5.92706e-13 0 0)
(-3.29366e-13 0 0)
(-5.75815e-14 0 0)
(-4.45297e-13 0 0)
(-2.77159e-13 0 0)
(-3.28599e-13 0 0)
(2.46449e-13 0 0)
(-5.22073e-14 0 0)
(1.75048e-13 0 0)
(2.28791e-13 0 0)
(3.74664e-13 0 0)
(6.4952e-13 0 0)
(5.16698e-13 0 0)
(1.10557e-13 0 0)
(1.55086e-13 0 0)
(6.14971e-13 0 0)
(6.51055e-13 0 0)
(1.15393e-12 0 0)
(1.10173e-12 0 0)
(1.14549e-12 0 0)
(1.05105e-12 0 0)
(9.26679e-13 0 0)
(5.39731e-13 0 0)
(7.07869e-13 0 0)
(4.51439e-13 0 0)
(3.84645e-13 0 0)
(1.91938e-14 0 0)
(3.4165e-13 0 0)
(1.02111e-13 0 0)
(3.07101e-13 0 0)
(3.58541e-13 0 0)
(2.04222e-13 0 0)
(5.09021e-13 0 0)
(7.64683e-13 0 0)
(7.88483e-13 0 0)
(6.85604e-13 0 0)
(5.38963e-13 0 0)
(2.90979e-13 0 0)
(-8.13819e-14 0 0)
(-2.34933e-13 0 0)
(-2.85604e-13 0 0)
(-5.90403e-13 0 0)
(-1.64299e-13 0 0)
(2.28791e-13 0 0)
(4.3071e-13 0 0)
(8.91362e-13 0 0)
(9.91938e-13 0 0)
(1.17773e-12 0 0)
(8.07677e-13 0 0)
(5.19002e-13 0 0)
(3.86948e-13 0 0)
(2.84837e-13 0 0)
(1.82725e-13 0 0)
)
;

boundaryField
{
    sides
    {
        type            zeroGradient;
    }
    empty
    {
        type            empty;
    }
}


// ************************************************************************* //
