/*--------------------------------*- C++ -*----------------------------------*\
  =========                 |
  \\      /  F ield         | OpenFOAM: The Open Source CFD Toolbox
   \\    /   O peration     | Website:  https://openfoam.org
    \\  /    A nd           | Version:  9
     \\/     M anipulation  |
\*---------------------------------------------------------------------------*/
FoamFile
{
    format      ascii;
    class       volScalarField;
    location    "0.036";
    object      p;
}
// * * * * * * * * * * * * * * * * * * * * * * * * * * * * * * * * * * * * * //

dimensions      [1 -1 -2 0 0 0 0];

internalField   nonuniform List<scalar> 
100
(
18784.9
18751.7
18675.9
18609.8
18556.1
18504.3
18452.2
18400.9
18350.3
18301
18252.8
18205.4
18158.9
18114.1
18070.3
18027.3
17986
17946.3
17907.7
17870.2
17834.7
17801.2
17769.6
17739.7
17711.8
17686.1
17663.5
17643.2
17624.9
17610.2
17597.4
17587.5
17581.1
17576.2
17575
17574.9
17575.2
17576.2
17578.7
17584.2
17597
17618.3
17654.8
17698.2
17746.9
17799.9
17857.6
17920
17986.9
18058.9
18135.9
18218.3
18306.2
18399.1
18496.2
18597.4
18702.6
18811.5
18923.6
19038.8
19156.5
19276.3
19398.4
19522.9
19649.7
19778.5
19909.2
20041.8
20176.5
20313.5
20452.9
20594.5
20738.1
20883.1
21029.9
21178.7
21329
21480.9
21633.4
21787.2
21940.7
22095.6
22249.9
22406.3
22561
22718.5
22873.4
23032.1
23188
23348.8
23508.2
23674.2
23843
24021.9
24209.2
24414.6
24631.2
24866.5
25107.9
25361
)
;

boundaryField
{
    sides
    {
        type            zeroGradient;
    }
    empty
    {
        type            empty;
    }
}


// ************************************************************************* //
