/*--------------------------------*- C++ -*----------------------------------*\
  =========                 |
  \\      /  F ield         | OpenFOAM: The Open Source CFD Toolbox
   \\    /   O peration     | Website:  https://openfoam.org
    \\  /    A nd           | Version:  9
     \\/     M anipulation  |
\*---------------------------------------------------------------------------*/
FoamFile
{
    format      ascii;
    class       volVectorField;
    location    "0.036";
    object      U;
}
// * * * * * * * * * * * * * * * * * * * * * * * * * * * * * * * * * * * * * //

dimensions      [0 1 -1 0 0 0 0];

internalField   nonuniform List<vector> 
100
(
(46.7045 0 0)
(49.5556 0 0)
(53.5639 0 0)
(56.8401 0 0)
(59.7184 0 0)
(62.6046 0 0)
(65.5341 0 0)
(68.4783 0 0)
(71.418 0 0)
(74.3479 0 0)
(77.2843 0 0)
(80.223 0 0)
(83.1451 0 0)
(86.0644 0 0)
(88.9888 0 0)
(91.8924 0 0)
(94.7748 0 0)
(97.6622 0 0)
(100.554 0 0)
(103.422 0 0)
(106.262 0 0)
(109.095 0 0)
(111.931 0 0)
(114.752 0 0)
(117.54 0 0)
(120.295 0 0)
(123.031 0 0)
(125.756 0 0)
(128.457 0 0)
(131.126 0 0)
(133.76 0 0)
(136.36 0 0)
(138.939 0 0)
(141.498 0 0)
(144.029 0 0)
(146.55 0 0)
(149.077 0 0)
(151.601 0 0)
(154.109 0 0)
(156.573 0 0)
(158.955 0 0)
(161.191 0 0)
(163.291 0 0)
(165.316 0 0)
(167.284 0 0)
(169.21 0 0)
(171.099 0 0)
(172.949 0 0)
(174.744 0 0)
(176.483 0 0)
(178.172 0 0)
(179.811 0 0)
(181.404 0 0)
(182.96 0 0)
(184.479 0 0)
(185.957 0 0)
(187.4 0 0)
(188.816 0 0)
(190.212 0 0)
(191.594 0 0)
(192.965 0 0)
(194.321 0 0)
(195.66 0 0)
(196.988 0 0)
(198.315 0 0)
(199.643 0 0)
(200.969 0 0)
(202.284 0 0)
(203.587 0 0)
(204.88 0 0)
(206.169 0 0)
(207.461 0 0)
(208.756 0 0)
(210.049 0 0)
(211.331 0 0)
(212.606 0 0)
(213.885 0 0)
(215.173 0 0)
(216.473 0 0)
(217.788 0 0)
(219.113 0 0)
(220.448 0 0)
(221.79 0 0)
(223.148 0 0)
(224.521 0 0)
(225.911 0 0)
(227.315 0 0)
(228.73 0 0)
(230.153 0 0)
(231.574 0 0)
(232.993 0 0)
(234.388 0 0)
(235.75 0 0)
(237.051 0 0)
(238.261 0 0)
(239.363 0 0)
(240.354 0 0)
(241.241 0 0)
(242.051 0 0)
(244.211 0 0)
)
;

boundaryField
{
    sides
    {
        type            zeroGradient;
    }
    empty
    {
        type            empty;
    }
}


// ************************************************************************* //
