/*--------------------------------*- C++ -*----------------------------------*\
  =========                 |
  \\      /  F ield         | OpenFOAM: The Open Source CFD Toolbox
   \\    /   O peration     | Website:  https://openfoam.org
    \\  /    A nd           | Version:  9
     \\/     M anipulation  |
\*---------------------------------------------------------------------------*/
FoamFile
{
    format      ascii;
    class       volScalarField;
    location    "0.049";
    object      ddt0(p);
}
// * * * * * * * * * * * * * * * * * * * * * * * * * * * * * * * * * * * * * //

dimensions      [1 -1 -3 0 0 0 0];

internalField   nonuniform List<scalar> 
100
(
-292282
-291300
-288919
-286900
-285401
-283850
-282260
-280789
-279178
-277580
-276149
-274461
-272761
-270936
-269051
-267224
-265310
-264611
-263367
-262648
-262955
-262714
-257327
-235795
-232269
-238042
-235999
-237225
-247583
-246795
-245527
-248362
-248161
-247202
-247355
-246912
-244782
-241838
-240456
-240388
-239686
-238686
-238235
-237769
-236829
-236002
-236049
-236902
-237748
-238120
-238418
-239213
-240647
-242541
-244650
-246738
-248729
-250797
-253184
-255921
-258774
-261425
-263808
-266072
-268647
-271785
-275422
-279304
-283198
-286828
-290226
-293535
-297070
-300881
-305246
-310336
-316271
-323054
-330713
-339000
-347596
-356449
-365342
-373506
-381499
-386856
-390969
-391664
-389803
-385028
-380069
-376007
-372013
-369722
-369229
-376305
-382119
-388538
-395741
-402797
)
;

boundaryField
{
    sides
    {
        type            calculated;
        value           nonuniform List<scalar> 2(-402797 -292282);
    }
    empty
    {
        type            empty;
    }
}


// ************************************************************************* //
