/*--------------------------------*- C++ -*----------------------------------*\
  =========                 |
  \\      /  F ield         | OpenFOAM: The Open Source CFD Toolbox
   \\    /   O peration     | Website:  https://openfoam.org
    \\  /    A nd           | Version:  9
     \\/     M anipulation  |
\*---------------------------------------------------------------------------*/
FoamFile
{
    format      ascii;
    class       surfaceScalarField;
    location    "0.049";
    object      phi_0;
}
// * * * * * * * * * * * * * * * * * * * * * * * * * * * * * * * * * * * * * //

dimensions      [1 0 -1 0 0 0 0];

internalField   nonuniform List<scalar> 
99
(
49.4984
51.0008
52.4916
53.9702
55.4387
56.9013
58.3566
59.7998
61.232
62.6565
64.0775
65.4909
66.893
68.2831
69.6609
71.028
72.3806
73.7241
75.0587
76.3899
77.7218
79.05
80.3525
81.5517
82.7395
83.9628
85.1791
86.3979
87.6672
88.9359
90.2012
91.4873
92.778
94.0549
95.322
96.5848
97.8375
99.079
100.32
101.563
102.796
104.016
105.227
106.429
107.628
108.833
110.047
111.264
112.472
113.668
114.861
116.064
117.283
118.517
119.755
120.994
122.232
123.476
124.735
126.015
127.317
128.632
129.947
131.258
132.572
133.899
135.254
136.643
138.053
139.474
140.894
142.315
143.743
145.196
146.686
148.212
149.763
151.329
152.903
154.496
156.137
157.848
159.632
161.482
163.362
165.223
167.062
168.881
170.709
172.559
174.407
176.249
178.062
179.837
181.567
183.292
185.058
186.878
188.745
)
;

boundaryField
{
    sides
    {
        type            calculated;
        value           nonuniform List<scalar> 2(190.65 -47.9911);
    }
    empty
    {
        type            empty;
        value           nonuniform List<scalar> 0();
    }
}


// ************************************************************************* //
