/*--------------------------------*- C++ -*----------------------------------*\
  =========                 |
  \\      /  F ield         | OpenFOAM: The Open Source CFD Toolbox
   \\    /   O peration     | Website:  https://openfoam.org
    \\  /    A nd           | Version:  9
     \\/     M anipulation  |
\*---------------------------------------------------------------------------*/
FoamFile
{
    format      ascii;
    class       surfaceScalarField;
    location    "0.042";
    object      phi;
}
// * * * * * * * * * * * * * * * * * * * * * * * * * * * * * * * * * * * * * //

dimensions      [1 0 -1 0 0 0 0];

internalField   nonuniform List<scalar> 
999
(
15.5011
15.7306
15.96
16.1892
16.4184
16.6474
16.8764
17.1052
17.334
17.5627
17.7912
18.0197
18.248
18.4762
18.7044
18.9325
19.1605
19.3883
19.616
19.8435
20.071
20.2984
20.5259
20.7532
20.9805
21.2076
21.4344
21.661
21.8876
22.114
22.3405
22.5669
22.7935
23.02
23.2465
23.4728
23.6989
23.9248
24.1503
24.3756
24.6006
24.8254
25.0502
25.2749
25.4998
25.7249
25.9502
26.1758
26.4017
26.6278
26.854
27.0804
27.3068
27.5333
27.7597
27.986
28.2123
28.4386
28.6651
28.8921
29.1191
29.346
29.573
29.7998
30.0267
30.2535
30.4802
30.7069
30.9335
31.1599
31.3864
31.6128
31.839
32.0653
32.2914
32.5175
32.7435
32.9694
33.1952
33.4209
33.6466
33.8722
34.0977
34.3231
34.5485
34.7737
34.9989
35.224
35.449
35.6739
35.8987
36.1234
36.348
36.5726
36.797
37.0214
37.2456
37.4698
37.6939
37.9178
38.1417
38.3655
38.5891
38.8127
39.0361
39.2595
39.4827
39.7058
39.9288
40.1517
40.3745
40.5971
40.8197
41.0421
41.2644
41.4866
41.7087
41.9306
42.1524
42.3741
42.5956
42.817
43.0383
43.2594
43.4804
43.7013
43.922
44.1426
44.363
44.5833
44.8034
45.0233
45.2431
45.4628
45.6823
45.9016
46.1208
46.3397
46.5586
46.7772
46.9957
47.214
47.4321
47.65
47.8677
48.0853
48.3026
48.5198
48.7368
48.9535
49.1701
49.3865
49.6026
49.8185
50.0343
50.2498
50.465
50.6801
50.8949
51.1095
51.3239
51.538
51.7519
51.9655
52.1789
52.392
52.6048
52.8174
53.0298
53.2418
53.4536
53.6651
53.8762
54.0871
54.2977
54.5081
54.7183
54.9282
55.1375
55.3464
55.555
55.7631
55.9709
56.1784
56.3855
56.5922
56.7986
57.0046
57.2102
57.4154
57.6202
57.8247
58.0287
58.2324
58.4356
58.6383
58.8407
59.0426
59.244
59.445
59.6455
59.8456
60.0451
60.2442
60.4428
60.6409
60.8384
61.0355
61.232
61.428
61.6234
61.8183
62.0127
62.2065
62.3997
62.5923
62.7843
62.9758
63.1666
63.3568
63.5464
63.7354
63.9238
64.1115
64.2986
64.485
64.6708
64.856
65.0404
65.2242
65.4073
65.5897
65.7715
65.9525
66.1329
66.3126
66.4915
66.6698
66.8474
67.0242
67.2004
67.3758
67.5505
67.7246
67.8979
68.0705
68.2424
68.4136
68.5841
68.754
68.9231
69.0915
69.2593
69.4264
69.5928
69.7586
69.9237
70.0882
70.252
70.4153
70.5779
70.7399
70.9013
71.0621
71.2224
71.3821
71.5413
71.6999
71.8581
72.0157
72.1729
72.3295
72.4858
72.6416
72.797
72.952
73.1066
73.2608
73.4147
73.5683
73.7215
73.8744
74.0271
74.1795
74.3316
74.4835
74.6352
74.7866
74.9379
75.089
75.24
75.3908
75.5415
75.6921
75.8426
75.993
76.1433
76.2936
76.4438
76.594
76.7441
76.8943
77.0444
77.1946
77.3447
77.4949
77.6451
77.7954
77.9457
78.0961
78.2466
78.3971
78.5477
78.6984
78.8492
79
79.151
79.3021
79.4533
79.6046
79.756
79.9076
80.0593
80.2111
80.363
80.5151
80.6673
80.8197
80.9722
81.1249
81.2777
81.4306
81.5837
81.7369
81.8904
82.0439
82.1976
82.3515
82.5055
82.6597
82.8141
82.9686
83.1232
83.2781
83.4331
83.5882
83.7436
83.8991
84.0547
84.2105
84.3665
84.5227
84.679
84.8355
84.9921
85.149
85.306
85.4631
85.6204
85.7779
85.9356
86.0935
86.2515
86.4096
86.568
86.7265
86.8852
87.0441
87.2031
87.3623
87.5217
87.6812
87.841
88.0009
88.1609
88.3212
88.4816
88.6422
88.8029
88.9639
89.125
89.2863
89.4477
89.6093
89.7712
89.9331
90.0953
90.2576
90.4201
90.5828
90.7457
90.9087
91.0719
91.2353
91.3989
91.5626
91.7266
91.8906
92.0549
92.2194
92.384
92.5488
92.7138
92.879
93.0443
93.2098
93.3755
93.5414
93.7075
93.8737
94.0401
94.2067
94.3735
94.5405
94.7076
94.8749
95.0424
95.2101
95.378
95.546
95.7142
95.8826
96.0512
96.22
96.3889
96.558
96.7274
96.8968
97.0665
97.2364
97.4064
97.5766
97.747
97.9176
98.0884
98.2593
98.4305
98.6018
98.7733
98.945
99.1169
99.2889
99.4612
99.6336
99.8062
99.979
100.152
100.325
100.498
100.672
100.846
101.02
101.194
101.368
101.542
101.717
101.892
102.067
102.242
102.418
102.593
102.769
102.945
103.121
103.297
103.474
103.651
103.827
104.005
104.182
104.359
104.537
104.715
104.893
105.071
105.249
105.428
105.607
105.786
105.965
106.144
106.324
106.504
106.683
106.864
107.044
107.224
107.405
107.586
107.767
107.948
108.13
108.311
108.493
108.675
108.857
109.04
109.223
109.405
109.588
109.772
109.955
110.138
110.322
110.506
110.69
110.875
111.059
111.244
111.429
111.614
111.799
111.985
112.171
112.357
112.543
112.729
112.916
113.102
113.289
113.476
113.664
113.851
114.039
114.227
114.415
114.603
114.792
114.98
115.169
115.358
115.547
115.737
115.927
116.116
116.307
116.497
116.687
116.878
117.069
117.26
117.451
117.643
117.834
118.026
118.218
118.411
118.603
118.796
118.989
119.182
119.375
119.569
119.762
119.956
120.15
120.345
120.539
120.734
120.929
121.124
121.319
121.515
121.711
121.906
122.103
122.299
122.496
122.692
122.889
123.086
123.284
123.481
123.679
123.877
124.075
124.274
124.472
124.671
124.87
125.069
125.269
125.468
125.668
125.868
126.069
126.269
126.47
126.671
126.872
127.073
127.275
127.476
127.678
127.88
128.083
128.285
128.488
128.691
128.894
129.098
129.301
129.505
129.709
129.914
130.118
130.323
130.528
130.733
130.938
131.144
131.349
131.555
131.761
131.968
132.174
132.381
132.588
132.796
133.003
133.211
133.419
133.627
133.835
134.043
134.252
134.461
134.67
134.88
135.089
135.299
135.509
135.72
135.93
136.141
136.352
136.563
136.774
136.986
137.197
137.409
137.622
137.834
138.047
138.26
138.473
138.686
138.9
139.113
139.327
139.542
139.756
139.971
140.185
140.401
140.616
140.831
141.047
141.263
141.479
141.696
141.912
142.129
142.346
142.564
142.781
142.999
143.217
143.435
143.653
143.872
144.091
144.31
144.529
144.749
144.968
145.188
145.409
145.629
145.85
146.07
146.292
146.513
146.734
146.956
147.178
147.4
147.623
147.845
148.068
148.291
148.515
148.738
148.962
149.186
149.41
149.635
149.86
150.085
150.31
150.535
150.761
150.987
151.213
151.439
151.666
151.893
152.12
152.347
152.574
152.802
153.03
153.258
153.486
153.715
153.944
154.173
154.402
154.632
154.862
155.092
155.322
155.552
155.783
156.013
156.245
156.476
156.707
156.939
157.171
157.403
157.635
157.867
158.1
158.333
158.566
158.799
159.032
159.265
159.499
159.733
159.967
160.201
160.435
160.669
160.903
161.138
161.372
161.607
161.842
162.076
162.311
162.546
162.781
163.016
163.251
163.486
163.721
163.956
164.192
164.427
164.662
164.897
165.131
165.366
165.601
165.836
166.071
166.305
166.54
166.774
167.008
167.243
167.477
167.711
167.945
168.179
168.412
168.646
168.879
169.113
169.346
169.579
169.813
170.046
170.279
170.512
170.745
170.978
171.211
171.444
171.678
171.911
172.144
172.378
172.611
172.845
173.079
173.313
173.547
173.782
174.017
174.252
174.488
174.724
174.96
175.197
175.434
175.672
175.91
176.148
176.387
176.627
176.867
177.107
177.348
177.59
177.833
178.075
178.319
178.563
178.808
179.053
179.299
179.545
179.793
180.04
180.289
180.538
180.787
181.037
181.288
181.539
181.791
182.044
182.297
182.55
182.804
183.059
183.314
183.57
183.826
184.083
184.34
184.597
184.855
185.114
185.373
185.632
185.892
186.152
186.413
186.674
186.936
187.198
187.46
187.723
187.986
188.249
188.513
188.777
189.042
189.307
189.572
189.837
190.103
190.37
190.636
190.903
191.17
191.438
191.706
191.974
192.243
192.512
192.781
193.05
193.32
193.59
193.86
194.13
194.401
194.672
194.943
195.214
195.485
195.756
196.028
196.3
196.571
196.843
197.114
197.385
197.657
197.927
198.198
198.469
198.739
199.008
199.277
199.545
199.813
200.08
200.347
200.612
200.877
201.141
201.404
201.665
201.926
202.186
202.444
202.702
202.958
203.214
203.468
203.721
203.974
204.225
204.476
204.726
204.975
205.224
205.472
205.72
205.968
206.216
206.464
206.712
206.96
207.208
207.457
207.707
207.957
208.208
208.46
208.713
208.967
209.222
209.477
209.734
209.993
210.252
210.512
210.774
211.037
211.3
211.565
211.832
212.099
212.367
212.637
212.908
213.179
213.452
213.726
214
214.276
214.553
214.83
215.109
215.388
215.668
215.949
216.232
216.514
216.798
217.083
217.368
217.654
217.941
218.229
218.517
218.806
219.096
219.387
219.679
219.971
220.264
220.557
220.852
221.147
221.442
221.739
222.036
222.334
222.632
222.931
223.231
223.531
223.832
224.134
224.436
224.739
225.042
225.346
225.651
225.956
226.262
)
;

boundaryField
{
    sides
    {
        type            calculated;
        value           nonuniform List<scalar> 2(226.568 -15.2716);
    }
    empty
    {
        type            empty;
        value           nonuniform List<scalar> 0();
    }
}


// ************************************************************************* //
