/*--------------------------------*- C++ -*----------------------------------*\
  =========                 |
  \\      /  F ield         | OpenFOAM: The Open Source CFD Toolbox
   \\    /   O peration     | Website:  https://openfoam.org
    \\  /    A nd           | Version:  9
     \\/     M anipulation  |
\*---------------------------------------------------------------------------*/
FoamFile
{
    format      ascii;
    class       volScalarField;
    location    "0.04";
    object      mag(U);
}
// * * * * * * * * * * * * * * * * * * * * * * * * * * * * * * * * * * * * * //

dimensions      [0 1 -1 0 0 0 0];

internalField   nonuniform List<scalar> 
100
(
214.288
217.535
219.433
221.482
223.494
225.515
227.534
229.553
231.572
233.591
235.609
237.628
239.646
241.664
243.681
245.698
247.715
249.732
251.748
253.764
255.779
257.793
259.807
261.82
263.833
265.844
267.855
269.865
271.874
273.882
275.888
277.893
279.896
281.897
283.895
285.887
287.869
289.832
291.756
293.609
295.333
296.848
298.048
298.871
299.343
299.576
299.699
299.81
299.947
300.045
300.058
300.005
299.919
299.822
299.731
299.671
299.634
299.585
299.509
299.411
299.292
299.17
299.062
299.004
298.961
298.912
298.843
298.752
298.644
298.531
298.429
298.358
298.296
298.236
298.169
298.085
297.98
297.858
297.734
297.623
297.534
297.487
297.494
297.451
297.307
296.722
294.487
291.975
290.727
289.982
289.074
287.263
285.552
284.774
284.437
284.245
284.115
284.038
283.979
283.889
)
;

boundaryField
{
    sides
    {
        type            calculated;
        value           nonuniform List<scalar> 2(283.889 214.288);
    }
    empty
    {
        type            empty;
    }
}


// ************************************************************************* //
