/*--------------------------------*- C++ -*----------------------------------*\
  =========                 |
  \\      /  F ield         | OpenFOAM: The Open Source CFD Toolbox
   \\    /   O peration     | Website:  https://openfoam.org
    \\  /    A nd           | Version:  9
     \\/     M anipulation  |
\*---------------------------------------------------------------------------*/
FoamFile
{
    format      ascii;
    class       volScalarField;
    location    "0.04";
    object      p;
}
// * * * * * * * * * * * * * * * * * * * * * * * * * * * * * * * * * * * * * //

dimensions      [1 -1 -2 0 0 0 0];

internalField   nonuniform List<scalar> 
100
(
45934
45307.6
44930.7
44529.2
44137.8
43747.7
43360.9
42976.9
42595.8
42217.6
41842.2
41469.6
41099.9
40732.9
40368.8
40007.4
39648.8
39293
38939.9
38589.5
38241.9
37896.9
37554.7
37215.2
36878.4
36544.2
36212.7
35883.9
35557.7
35234.2
34913.3
34595.1
34279.6
33966.8
33656.9
33350.2
33047.2
32749.4
32459.2
32181.6
31923.4
31697
31514.2
31385.3
31305.6
31258.8
31226.9
31196.6
31162.6
31133.8
31117.1
31108.2
31104.8
31102.7
31099.4
31092.1
31081.1
31071.6
31065.1
31063.4
31063.6
31064
31062.3
31053.3
31042.2
31031.8
31023.9
31019.7
31018
31017
31014.2
31006.7
30996.9
30986
30976.2
30970.1
30967.7
30967.7
30967.9
30964.9
30957.2
30943.6
30924.5
30912.9
30914.2
30975.4
31260.9
31590.3
31749.4
31835.8
31943
32174.4
32391.7
32494.7
32523.2
32521.8
32507.1
32498.6
32496.5
32492.4
)
;

boundaryField
{
    sides
    {
        type            zeroGradient;
    }
    empty
    {
        type            empty;
    }
}


// ************************************************************************* //
