/*--------------------------------*- C++ -*----------------------------------*\
  =========                 |
  \\      /  F ield         | OpenFOAM: The Open Source CFD Toolbox
   \\    /   O peration     | Website:  https://openfoam.org
    \\  /    A nd           | Version:  9
     \\/     M anipulation  |
\*---------------------------------------------------------------------------*/
FoamFile
{
    format      ascii;
    class       volScalarField;
    location    "0.04";
    object      T;
}
// * * * * * * * * * * * * * * * * * * * * * * * * * * * * * * * * * * * * * //

dimensions      [0 0 0 1 0 0 0];

internalField   nonuniform List<scalar> 
100
(
279.627
278.53
277.863
277.148
276.447
275.743
275.041
274.339
273.639
272.939
272.239
271.541
270.843
270.145
269.449
268.753
268.058
267.364
266.671
265.978
265.286
264.595
263.905
263.216
262.527
261.839
261.152
260.465
259.78
259.095
258.411
257.728
257.047
256.366
255.686
255.009
254.334
253.667
253.011
252.379
251.786
251.26
250.829
250.519
250.318
250.189
250.089
249.991
249.88
249.78
249.706
249.639
249.59
249.544
249.499
249.451
249.4
249.357
249.326
249.325
249.33
249.341
249.349
249.336
249.317
249.297
249.277
249.269
249.266
249.262
249.252
249.227
249.198
249.171
249.152
249.146
249.142
249.136
249.13
249.121
249.103
249.075
249.036
249.01
249.005
249.141
249.793
250.542
250.906
251.101
251.341
251.857
252.326
252.587
252.635
252.624
252.579
252.558
252.558
252.557
)
;

boundaryField
{
    sides
    {
        type            zeroGradient;
    }
    empty
    {
        type            empty;
    }
}


// ************************************************************************* //
