/*--------------------------------*- C++ -*----------------------------------*\
  =========                 |
  \\      /  F ield         | OpenFOAM: The Open Source CFD Toolbox
   \\    /   O peration     | Website:  https://openfoam.org
    \\  /    A nd           | Version:  9
     \\/     M anipulation  |
\*---------------------------------------------------------------------------*/
FoamFile
{
    format      ascii;
    class       volVectorField;
    location    "0.04";
    object      U;
}
// * * * * * * * * * * * * * * * * * * * * * * * * * * * * * * * * * * * * * //

dimensions      [0 1 -1 0 0 0 0];

internalField   nonuniform List<vector> 
100
(
(214.288 0 0)
(217.535 0 0)
(219.433 0 0)
(221.482 0 0)
(223.494 0 0)
(225.515 0 0)
(227.534 0 0)
(229.553 0 0)
(231.572 0 0)
(233.591 0 0)
(235.609 0 0)
(237.628 0 0)
(239.646 0 0)
(241.664 0 0)
(243.681 0 0)
(245.698 0 0)
(247.715 0 0)
(249.732 0 0)
(251.748 0 0)
(253.764 0 0)
(255.779 0 0)
(257.793 0 0)
(259.807 0 0)
(261.82 0 0)
(263.833 0 0)
(265.844 0 0)
(267.855 0 0)
(269.865 0 0)
(271.874 0 0)
(273.882 0 0)
(275.888 0 0)
(277.893 0 0)
(279.896 0 0)
(281.897 0 0)
(283.895 0 0)
(285.887 0 0)
(287.869 0 0)
(289.832 0 0)
(291.756 0 0)
(293.609 0 0)
(295.333 0 0)
(296.848 0 0)
(298.048 0 0)
(298.871 0 0)
(299.343 0 0)
(299.576 0 0)
(299.699 0 0)
(299.81 0 0)
(299.947 0 0)
(300.045 0 0)
(300.058 0 0)
(300.005 0 0)
(299.919 0 0)
(299.822 0 0)
(299.731 0 0)
(299.671 0 0)
(299.634 0 0)
(299.585 0 0)
(299.509 0 0)
(299.411 0 0)
(299.292 0 0)
(299.17 0 0)
(299.062 0 0)
(299.004 0 0)
(298.961 0 0)
(298.912 0 0)
(298.843 0 0)
(298.752 0 0)
(298.644 0 0)
(298.531 0 0)
(298.429 0 0)
(298.358 0 0)
(298.296 0 0)
(298.236 0 0)
(298.169 0 0)
(298.085 0 0)
(297.98 0 0)
(297.858 0 0)
(297.734 0 0)
(297.623 0 0)
(297.534 0 0)
(297.487 0 0)
(297.494 0 0)
(297.451 0 0)
(297.307 0 0)
(296.722 0 0)
(294.487 0 0)
(291.975 0 0)
(290.727 0 0)
(289.982 0 0)
(289.074 0 0)
(287.263 0 0)
(285.552 0 0)
(284.774 0 0)
(284.437 0 0)
(284.245 0 0)
(284.115 0 0)
(284.038 0 0)
(283.979 0 0)
(283.889 0 0)
)
;

boundaryField
{
    sides
    {
        type            zeroGradient;
    }
    empty
    {
        type            empty;
    }
}


// ************************************************************************* //
