/*--------------------------------*- C++ -*----------------------------------*\
  =========                 |
  \\      /  F ield         | OpenFOAM: The Open Source CFD Toolbox
   \\    /   O peration     | Website:  https://openfoam.org
    \\  /    A nd           | Version:  9
     \\/     M anipulation  |
\*---------------------------------------------------------------------------*/
FoamFile
{
    format      ascii;
    class       surfaceScalarField;
    location    "0.023";
    object      phi;
}
// * * * * * * * * * * * * * * * * * * * * * * * * * * * * * * * * * * * * * //

dimensions      [1 0 -1 0 0 0 0];

internalField   nonuniform List<scalar> 
999
(
16.9721
18.0235
19.0743
20.1237
21.1726
22.222
23.2725
24.324
25.3761
26.4283
27.4805
28.5331
29.5864
30.6395
31.6925
32.7454
33.7981
34.8506
35.9031
36.9554
38.0076
39.0597
40.1117
41.1636
42.2153
43.2669
44.3184
45.3698
46.421
47.4721
48.5231
49.574
50.6248
51.6754
52.7258
53.7762
54.8264
55.8765
56.9264
57.9763
59.0259
60.0755
61.1249
62.1742
63.2233
64.2723
65.3211
66.3698
67.4184
68.4668
69.5151
70.5632
71.6112
72.659
73.7067
74.7542
75.8016
76.8488
77.8959
78.9428
79.9896
81.0362
82.0826
83.1289
84.1751
85.221
86.2668
87.3125
88.358
89.4033
90.4484
91.4934
92.5382
93.5828
94.6273
95.6716
96.7157
97.7596
98.8033
99.8469
100.89
101.933
102.976
104.019
105.062
106.104
107.147
108.189
109.23
110.272
111.314
112.355
113.396
114.437
115.478
116.518
117.558
118.598
119.638
120.678
121.718
122.757
123.796
124.835
125.874
126.912
127.95
128.988
130.026
131.064
132.101
133.139
134.175
135.212
136.249
137.285
138.321
139.357
140.392
141.428
142.463
143.498
144.533
145.567
146.601
147.635
148.669
149.702
150.735
151.768
152.801
153.834
154.866
155.898
156.929
157.961
158.992
160.023
161.054
162.084
163.114
164.144
165.174
166.204
167.232
168.261
169.29
170.318
171.346
172.374
173.402
174.428
175.455
176.482
177.508
178.535
179.56
180.586
181.611
182.636
183.66
184.685
185.709
186.733
187.756
188.779
189.802
190.825
191.847
192.869
193.89
194.912
195.933
196.953
197.974
198.994
200.013
201.033
202.052
203.071
204.089
205.107
206.125
207.142
208.16
209.176
210.193
211.209
212.225
213.24
214.255
215.27
216.284
217.298
218.312
219.326
220.339
221.351
222.363
223.375
224.387
225.398
226.409
227.419
228.43
229.439
230.449
231.458
232.466
233.474
234.482
235.49
236.497
237.504
238.51
239.516
240.521
241.527
242.531
243.536
244.54
245.543
246.546
247.549
248.551
249.553
250.555
251.556
252.556
253.557
254.557
255.556
256.555
257.554
258.552
259.549
260.547
261.543
262.54
263.536
264.531
265.526
266.521
267.515
268.509
269.502
270.495
271.487
272.479
273.47
274.461
275.452
276.442
277.431
278.42
279.409
280.397
281.384
282.372
283.358
284.344
285.33
286.315
287.3
288.284
289.267
290.25
291.233
292.215
293.197
294.178
295.158
296.138
297.117
298.096
299.075
300.052
301.03
302.006
302.983
303.958
304.933
305.908
306.882
307.855
308.828
309.8
310.772
311.743
312.713
313.683
314.652
315.621
316.589
317.557
318.523
319.49
320.455
321.42
322.385
323.349
324.312
325.274
326.236
327.197
328.158
329.118
330.077
331.036
331.994
332.951
333.908
334.864
335.819
336.774
337.728
338.681
339.633
340.585
341.536
342.487
343.436
344.385
345.334
346.281
347.228
348.174
349.119
350.063
351.007
351.95
352.892
353.833
354.774
355.714
356.652
357.591
358.528
359.464
360.4
361.335
362.269
363.202
364.134
365.066
365.996
366.926
367.855
368.782
369.709
370.635
371.561
372.485
373.408
374.33
375.252
376.172
377.092
378.01
378.928
379.844
380.76
381.674
382.587
383.5
384.411
385.321
386.231
387.139
388.046
388.952
389.857
390.76
391.663
392.564
393.465
394.364
395.261
396.158
397.054
397.948
398.841
399.733
400.623
401.512
402.4
403.287
404.172
405.056
405.938
406.819
407.699
408.577
409.454
410.329
411.203
412.075
412.946
413.816
414.683
415.549
416.414
417.277
418.138
418.998
419.856
420.712
421.566
422.419
423.269
424.118
424.965
425.811
426.654
427.495
428.334
429.172
430.007
430.84
431.671
432.5
433.326
434.15
434.973
435.792
436.61
437.425
438.237
439.047
439.855
440.66
441.462
442.261
443.058
443.852
444.644
445.432
446.217
447
447.779
448.556
449.329
450.098
450.865
451.628
452.386
453.143
453.896
454.646
455.391
456.133
456.871
457.605
458.335
459.061
459.783
460.501
461.214
461.923
462.628
463.328
464.023
464.714
465.4
466.082
466.758
467.429
468.096
468.757
469.412
470.063
470.708
471.347
471.981
472.609
473.231
473.848
474.458
475.062
475.661
476.252
476.838
477.417
477.989
478.555
479.114
479.666
480.211
480.749
481.279
481.803
482.319
482.828
483.329
483.822
484.308
484.786
485.256
485.718
486.171
486.617
487.054
487.483
487.904
488.316
488.719
489.114
489.501
489.878
490.247
490.607
490.959
491.301
491.635
491.96
492.277
492.584
492.883
493.173
493.455
493.727
493.992
494.247
494.495
494.734
494.965
495.187
495.402
495.608
495.807
495.998
496.182
496.358
496.527
496.689
496.844
496.992
497.133
497.268
497.397
497.519
497.636
497.747
497.852
497.952
498.047
498.137
498.221
498.302
498.377
498.449
498.516
498.579
498.639
498.694
498.747
498.796
498.842
498.885
498.925
498.963
498.998
499.03
499.06
499.089
499.115
499.139
499.161
499.182
499.201
499.219
499.235
499.25
499.264
499.277
499.289
499.299
499.309
499.318
499.326
499.334
499.34
499.347
499.352
499.357
499.362
499.366
499.37
499.373
499.376
499.379
499.382
499.384
499.386
499.388
499.389
499.39
499.392
499.393
499.394
499.394
499.395
499.396
499.396
499.397
499.397
499.397
499.398
499.398
499.398
499.398
499.398
499.398
499.398
499.398
499.398
499.398
499.398
499.397
499.397
499.397
499.397
499.397
499.397
499.396
499.396
499.396
499.396
499.395
499.395
499.395
499.395
499.394
499.394
499.394
499.394
499.393
499.393
499.393
499.393
499.392
499.392
499.392
499.392
499.391
499.391
499.391
499.39
499.39
499.39
499.389
499.389
499.389
499.389
499.388
499.388
499.388
499.387
499.387
499.387
499.387
499.386
499.386
499.386
499.385
499.385
499.385
499.384
499.384
499.384
499.383
499.383
499.383
499.382
499.382
499.382
499.382
499.381
499.381
499.381
499.38
499.38
499.379
499.379
499.379
499.378
499.378
499.378
499.377
499.377
499.377
499.376
499.376
499.376
499.375
499.375
499.375
499.374
499.374
499.374
499.373
499.373
499.373
499.372
499.372
499.371
499.371
499.371
499.37
499.37
499.37
499.369
499.369
499.369
499.368
499.368
499.367
499.367
499.367
499.366
499.366
499.365
499.365
499.365
499.364
499.364
499.363
499.363
499.363
499.362
499.362
499.361
499.361
499.361
499.36
499.36
499.359
499.359
499.358
499.358
499.358
499.357
499.357
499.356
499.356
499.355
499.355
499.355
499.354
499.354
499.353
499.353
499.352
499.352
499.352
499.351
499.351
499.35
499.35
499.349
499.349
499.348
499.348
499.347
499.347
499.346
499.346
499.345
499.345
499.344
499.344
499.343
499.343
499.342
499.342
499.341
499.341
499.34
499.34
499.339
499.339
499.338
499.338
499.337
499.337
499.336
499.336
499.335
499.335
499.334
499.334
499.333
499.332
499.332
499.331
499.331
499.33
499.33
499.329
499.329
499.328
499.327
499.327
499.326
499.326
499.325
499.325
499.324
499.323
499.323
499.322
499.322
499.321
499.32
499.32
499.319
499.318
499.318
499.317
499.317
499.316
499.315
499.315
499.314
499.313
499.313
499.312
499.311
499.311
499.31
499.309
499.309
499.308
499.307
499.307
499.306
499.305
499.305
499.304
499.303
499.302
499.302
499.301
499.3
499.299
499.299
499.298
499.297
499.296
499.296
499.295
499.294
499.293
499.293
499.292
499.291
499.29
499.289
499.289
499.288
499.287
499.286
499.285
499.284
499.284
499.283
499.282
499.281
499.28
499.279
499.278
499.277
499.277
499.276
499.275
499.274
499.272
499.271
499.27
499.269
499.267
499.266
499.264
499.262
499.261
499.259
499.256
499.254
499.252
499.249
499.246
499.243
499.24
499.237
499.233
499.229
499.225
499.22
499.215
499.21
499.205
499.199
499.193
499.187
499.18
499.173
499.166
499.159
499.151
499.143
499.135
499.127
499.119
499.111
499.103
499.094
499.086
499.078
499.07
499.062
499.054
499.047
499.039
499.033
499.025
499.02
499.013
499.008
499.001
498.996
498.991
498.986
498.982
498.978
498.973
498.969
498.966
498.963
498.959
498.956
498.954
498.951
498.949
498.946
498.944
498.942
498.939
498.937
498.935
498.933
498.931
498.929
498.927
498.924
498.922
498.92
498.918
498.915
498.913
498.911
498.908
498.906
498.903
498.901
498.898
498.896
498.893
498.891
498.888
498.886
498.883
498.881
498.879
498.876
498.874
498.872
498.869
498.867
498.865
498.863
498.861
498.858
498.856
498.854
498.852
498.85
498.847
498.845
498.843
498.841
498.838
498.836
498.834
498.831
498.829
498.826
498.824
498.821
498.819
)
;

boundaryField
{
    sides
    {
        type            calculated;
        value           nonuniform List<scalar> 2(498.816 -15.9203);
    }
    empty
    {
        type            empty;
        value           nonuniform List<scalar> 0();
    }
}


// ************************************************************************* //
