/*--------------------------------*- C++ -*----------------------------------*\
  =========                 |
  \\      /  F ield         | OpenFOAM: The Open Source CFD Toolbox
   \\    /   O peration     | Website:  https://openfoam.org
    \\  /    A nd           | Version:  9
     \\/     M anipulation  |
\*---------------------------------------------------------------------------*/
FoamFile
{
    format      ascii;
    class       surfaceScalarField;
    location    "0.041";
    object      phi;
}
// * * * * * * * * * * * * * * * * * * * * * * * * * * * * * * * * * * * * * //

dimensions      [1 0 -1 0 0 0 0];

internalField   nonuniform List<scalar> 
99
(
46.3162
48.8226
51.2965
53.7678
56.2201
58.653
61.0711
63.4684
65.8376
68.1855
70.5198
72.8328
75.1233
77.4046
79.6955
81.968
84.2172
86.4647
88.7265
90.9745
93.1976
95.4068
97.6138
99.8318
102.057
104.269
106.475
108.669
110.868
113.066
115.271
117.469
119.669
121.859
124.033
126.203
128.348
130.44
132.418
134.224
135.905
137.494
139.098
140.81
142.618
144.426
146.214
147.905
149.489
151.185
153.06
154.94
156.806
158.78
160.802
162.703
164.524
166.454
168.537
170.57
172.441
174.33
176.514
178.79
180.911
182.997
185.213
187.375
189.338
191.362
193.485
194.746
194.226
189.866
177.008
144.95
82.0558
113.392
140.665
162.084
170.439
175.264
178.947
182.885
186.941
190.996
195.035
199.388
203.332
207.817
212.901
215.486
221.791
228.114
231.964
233.706
238.198
242.603
247.288
)
;

boundaryField
{
    sides
    {
        type            calculated;
        value           nonuniform List<scalar> 2(251.759 -43.7996);
    }
    empty
    {
        type            empty;
        value           nonuniform List<scalar> 0();
    }
}


// ************************************************************************* //
