/*--------------------------------*- C++ -*----------------------------------*\
  =========                 |
  \\      /  F ield         | OpenFOAM: The Open Source CFD Toolbox
   \\    /   O peration     | Website:  https://openfoam.org
    \\  /    A nd           | Version:  9
     \\/     M anipulation  |
\*---------------------------------------------------------------------------*/
FoamFile
{
    format      ascii;
    class       volScalarField;
    location    "0.026";
    object      ddt0(rho,e);
}
// * * * * * * * * * * * * * * * * * * * * * * * * * * * * * * * * * * * * * //

dimensions      [1 -1 -3 0 0 0 0];

internalField   nonuniform List<scalar> 
100
(
913081
901492
882363
873237
877231
896946
917406
917047
933190
928277
921145
935829
913529
934624
920015
903068
944235
923314
876113
919661
962021
901958
847885
899656
974772
914891
835141
855499
958143
931977
836940
817976
906373
951355
881103
798659
782226
858742
946376
862726
811306
717470
784519
813001
852158
858584
665262
696962
840185
682340
505921
1.3033e+06
646792
606350
545158
338163
-431634
1.83945e+06
973282
213653
-468442
1.07827e+06
1.3413e+06
-582736
1.60938e+06
1.15244e+06
411738
283083
117266
-636969
33471.7
1.65637e+06
142562
-1.08307e+06
1.0797e+06
1.29583e+06
306640
-1.40591e+06
-372711
1.53105e+06
167182
95743.9
101412
124007
160657
240985
204932
885703
-1.70183e+06
-2.1822e+06
708895
2.50319e+06
923339
-3.51075e+06
-1.26033e+06
2.82446e+06
1.11036e+06
-274167
-3.25402e+06
1.25805e+06
)
;

boundaryField
{
    sides
    {
        type            calculated;
        value           nonuniform List<scalar> 2(1.25805e+06 913081);
    }
    empty
    {
        type            empty;
    }
}


// ************************************************************************* //
