/*--------------------------------*- C++ -*----------------------------------*\
  =========                 |
  \\      /  F ield         | OpenFOAM: The Open Source CFD Toolbox
   \\    /   O peration     | Website:  https://openfoam.org
    \\  /    A nd           | Version:  9
     \\/     M anipulation  |
\*---------------------------------------------------------------------------*/
FoamFile
{
    format      ascii;
    class       volScalarField;
    location    "0.026";
    object      ddt0(rho,K);
}
// * * * * * * * * * * * * * * * * * * * * * * * * * * * * * * * * * * * * * //

dimensions      [1 -1 -3 0 0 0 0];

internalField   nonuniform List<scalar> 
100
(
3027.47
-4854.24
-12077.6
-19814.5
-29350.5
-39893.6
-51117.1
-63487.7
-77090.3
-91260.7
-106997
-123547
-140971
-160066
-179036
-200211
-222381
-243293
-267100
-293847
-318438
-341951
-370276
-401760
-430498
-456549
-486772
-522239
-557081
-585428
-617168
-654005
-693998
-729882
-760681
-796919
-835440
-880184
-921939
-954862
-1.00253e+06
-1.0374e+06
-1.08279e+06
-1.11724e+06
-1.16716e+06
-1.23798e+06
-1.20647e+06
-1.28316e+06
-1.37631e+06
-1.24417e+06
-1.17337e+06
-1.83313e+06
-1.68978e+06
-1.52188e+06
-1.36399e+06
-1.068e+06
-438540
-2.14016e+06
-2.39519e+06
-1.09715e+06
-270074
-1.31698e+06
-2.33396e+06
-253444
-2.01072e+06
-2.33864e+06
-1.00925e+06
-721455
-477054
280894
-117963
-2.33507e+06
-487586
919758
-892320
-2.07522e+06
-533895
1.28371e+06
608635
-1.89691e+06
-476401
-209364
-208037
-238580
-327961
-447827
-467012
-1.12263e+06
1.45579e+06
3.33666e+06
-377865
-3.59864e+06
-1.25108e+06
3.76188e+06
1.84866e+06
-2.76987e+06
-2.31342e+06
-127438
3.92849e+06
-314755
)
;

boundaryField
{
    sides
    {
        type            calculated;
        value           nonuniform List<scalar> 2(-314755 3027.47);
    }
    empty
    {
        type            empty;
    }
}


// ************************************************************************* //
