/*--------------------------------*- C++ -*----------------------------------*\
  =========                 |
  \\      /  F ield         | OpenFOAM: The Open Source CFD Toolbox
   \\    /   O peration     | Website:  https://openfoam.org
    \\  /    A nd           | Version:  9
     \\/     M anipulation  |
\*---------------------------------------------------------------------------*/
FoamFile
{
    format      ascii;
    class       volScalarField;
    location    "0.026";
    object      mag(U);
}
// * * * * * * * * * * * * * * * * * * * * * * * * * * * * * * * * * * * * * //

dimensions      [0 1 -1 0 0 0 0];

internalField   nonuniform List<scalar> 
100
(
40.2477
45.4955
51.1634
55.3652
59.7386
64.2083
68.6757
73.1122
77.5692
82.0061
86.4451
90.9023
95.3305
99.7887
104.221
108.654
113.115
117.533
121.942
126.395
130.829
135.206
139.594
144.025
148.431
152.775
157.115
161.486
165.846
170.148
174.419
178.702
182.986
187.221
191.397
195.552
199.7
203.822
207.887
211.885
215.818
219.646
223.406
227.153
230.864
234.517
238.098
241.609
245.061
248.337
251.335
254.303
257.401
260.456
263.327
265.98
268.361
270.624
273.004
275.264
277.128
278.787
280.524
282.118
283.469
284.904
286.226
287.246
288.078
288.723
289.208
289.784
290.36
290.641
290.802
291.14
291.504
291.615
291.54
291.609
291.825
291.933
291.984
292.027
292.043
292.117
292.21
292.305
292.312
291.947
291.547
291.707
292.073
291.985
291.519
291.363
291.647
291.857
291.574
291.306
)
;

boundaryField
{
    sides
    {
        type            calculated;
        value           nonuniform List<scalar> 2(291.306 40.2477);
    }
    empty
    {
        type            empty;
    }
}


// ************************************************************************* //
