/*--------------------------------*- C++ -*----------------------------------*\
  =========                 |
  \\      /  F ield         | OpenFOAM: The Open Source CFD Toolbox
   \\    /   O peration     | Website:  https://openfoam.org
    \\  /    A nd           | Version:  9
     \\/     M anipulation  |
\*---------------------------------------------------------------------------*/
FoamFile
{
    format      ascii;
    class       volVectorField;
    location    "0.026";
    object      U;
}
// * * * * * * * * * * * * * * * * * * * * * * * * * * * * * * * * * * * * * //

dimensions      [0 1 -1 0 0 0 0];

internalField   nonuniform List<vector> 
100
(
(40.2477 0 0)
(45.4955 0 0)
(51.1634 0 0)
(55.3652 0 0)
(59.7386 0 0)
(64.2083 0 0)
(68.6757 0 0)
(73.1122 0 0)
(77.5692 0 0)
(82.0061 0 0)
(86.4451 0 0)
(90.9023 0 0)
(95.3305 0 0)
(99.7887 0 0)
(104.221 0 0)
(108.654 0 0)
(113.115 0 0)
(117.533 0 0)
(121.942 0 0)
(126.395 0 0)
(130.829 0 0)
(135.206 0 0)
(139.594 0 0)
(144.025 0 0)
(148.431 0 0)
(152.775 0 0)
(157.115 0 0)
(161.486 0 0)
(165.846 0 0)
(170.148 0 0)
(174.419 0 0)
(178.702 0 0)
(182.986 0 0)
(187.221 0 0)
(191.397 0 0)
(195.552 0 0)
(199.7 0 0)
(203.822 0 0)
(207.887 0 0)
(211.885 0 0)
(215.818 0 0)
(219.646 0 0)
(223.406 0 0)
(227.153 0 0)
(230.864 0 0)
(234.517 0 0)
(238.098 0 0)
(241.609 0 0)
(245.061 0 0)
(248.337 0 0)
(251.335 0 0)
(254.303 0 0)
(257.401 0 0)
(260.456 0 0)
(263.327 0 0)
(265.98 0 0)
(268.361 0 0)
(270.624 0 0)
(273.004 0 0)
(275.264 0 0)
(277.128 0 0)
(278.787 0 0)
(280.524 0 0)
(282.118 0 0)
(283.469 0 0)
(284.904 0 0)
(286.226 0 0)
(287.246 0 0)
(288.078 0 0)
(288.723 0 0)
(289.208 0 0)
(289.784 0 0)
(290.36 0 0)
(290.641 0 0)
(290.802 0 0)
(291.14 0 0)
(291.504 0 0)
(291.615 0 0)
(291.54 0 0)
(291.609 0 0)
(291.825 0 0)
(291.933 0 0)
(291.984 0 0)
(292.027 0 0)
(292.043 0 0)
(292.117 0 0)
(292.21 0 0)
(292.305 0 0)
(292.312 0 0)
(291.947 0 0)
(291.547 0 0)
(291.707 0 0)
(292.073 0 0)
(291.985 0 0)
(291.519 0 0)
(291.363 0 0)
(291.647 0 0)
(291.857 0 0)
(291.574 0 0)
(291.306 0 0)
)
;

boundaryField
{
    sides
    {
        type            zeroGradient;
    }
    empty
    {
        type            empty;
    }
}


// ************************************************************************* //
