/*--------------------------------*- C++ -*----------------------------------*\
  =========                 |
  \\      /  F ield         | OpenFOAM: The Open Source CFD Toolbox
   \\    /   O peration     | Website:  https://openfoam.org
    \\  /    A nd           | Version:  9
     \\/     M anipulation  |
\*---------------------------------------------------------------------------*/
FoamFile
{
    format      ascii;
    class       volScalarField;
    location    "0.003";
    object      mag(U);
}
// * * * * * * * * * * * * * * * * * * * * * * * * * * * * * * * * * * * * * //

dimensions      [0 1 -1 0 0 0 0];

internalField   nonuniform List<scalar> 
100
(
3.56858e-13
2.73368e-13
2.78722e-13
3.03263e-13
1.6644e-13
3.78477e-14
5.32225e-14
6.68292e-14
6.9216e-14
3.2366e-14
4.41208e-14
4.71366e-15
4.30439e-15
1.40535e-14
1.99383e-14
1.81492e-15
4.0844e-14
2.93777e-14
4.22661e-16
2.91946e-15
3.58162e-13
3.31211e-12
3.12826e-11
2.70853e-10
2.20323e-09
1.68679e-08
1.21456e-07
8.21891e-07
5.22197e-06
3.11143e-05
0.000173599
0.000905287
0.00440217
0.0199023
0.0833379
0.321635
1.13721
3.65969
10.6937
27.3653
53.24
80.127
105.402
129.706
153.645
177.666
201.748
225.523
249.578
272.437
288.416
295.369
291.643
292.137
293.292
294.005
294.61
295.058
295.662
290.893
285.126
289.193
293.437
299.768
301.04
293.212
214.362
34.5593
2.41323
0.158904
0.0104906
0.000703247
4.81289e-05
3.3733e-06
2.42338e-07
1.78194e-08
1.33517e-09
1.01083e-10
7.66583e-12
5.72175e-13
3.81575e-14
7.24273e-14
4.43585e-15
7.29672e-14
2.62832e-14
2.03655e-14
6.30872e-14
1.09869e-14
7.2891e-14
1.2854e-13
1.51628e-13
1.58513e-13
1.0087e-13
7.56413e-14
2.16022e-13
2.45243e-13
1.55919e-13
5.37173e-14
4.8615e-14
1.76091e-14
)
;

boundaryField
{
    sides
    {
        type            calculated;
        value           nonuniform List<scalar> 2(1.76091e-14 3.56858e-13);
    }
    empty
    {
        type            empty;
    }
}


// ************************************************************************* //
