/*--------------------------------*- C++ -*----------------------------------*\
  =========                 |
  \\      /  F ield         | OpenFOAM: The Open Source CFD Toolbox
   \\    /   O peration     | Website:  https://openfoam.org
    \\  /    A nd           | Version:  9
     \\/     M anipulation  |
\*---------------------------------------------------------------------------*/
FoamFile
{
    format      ascii;
    class       volScalarField;
    location    "0.018";
    object      ddt0(rho,e);
}
// * * * * * * * * * * * * * * * * * * * * * * * * * * * * * * * * * * * * * //

dimensions      [1 -1 -3 0 0 0 0];

internalField   nonuniform List<scalar> 
1000
(
371008
362163
376793
393013
399341
403332
412968
413257
413170
413594
414245
414969
415715
416469
417226
417984
418744
419506
420268
421033
421799
422567
423335
424106
424879
425653
426428
427204
427982
428762
429544
430327
431112
431898
432685
433475
434265
435057
435851
436646
437442
438240
439040
439841
440643
441447
442253
443059
443868
444677
445489
446302
447116
447931
448748
449566
450385
451206
452029
452853
453678
454504
455332
456160
456991
457822
458655
459490
460325
461162
462000
462839
463680
464521
465364
466208
467054
467900
468747
469596
470445
471296
472148
473001
473854
474709
475565
476421
477279
478138
478997
479857
480719
481581
482443
483307
484171
485036
485902
486768
487636
488503
489372
490240
491110
491980
492851
493722
494593
495466
496338
497212
498085
498959
499834
500709
501584
502460
503336
504212
505089
505966
506843
507721
508599
509477
510356
511234
512114
512993
513873
514753
515633
516513
517394
518275
519156
520037
520919
521800
522681
523563
524444
525325
526206
527087
527967
528846
529725
530603
531481
532357
533231
534104
534975
535844
536710
537574
538434
539290
540141
540988
541829
542664
543492
544311
545121
545920
546708
547482
548241
548982
549708
550401
551093
551713
552387
552863
553602
553744
554816
554122
556266
553510
558478
551030
562334
545532
568285
538312
568147
552533
533514
564089
548434
548504
531591
553748
526569
542248
515450
568044
418149
600416
506331
418039
518847
437651
571815
345157
453186
495665
339556
529071
287212
430048
403664
250048
467659
246988
312306
398512
163826
377921
274770
168518
391923
163180
222600
351424
101080
279627
287250
84632
318962
224736
95971.4
338510
176235
118540
343610
145900
138887
343493
129806
152248
342906
124624
156853
343501
129179
151507
345647
142409
138297
345541
166336
118606
339500
201204
97628.4
321911
244985
84541.9
286638
292930
88569.2
233792
332530
119808
170346
347449
180561
114467
323073
258315
92323.8
256518
324968
124090
168810
344235
206211
104796
294171
300148
109782
194864
344042
192401
111929
296083
299484
115794
184702
339708
214705
105760
267064
320572
143523
145887
319669
266873
109367
203650
334381
208861
108750
254927
321869
163330
127496
290026
296614
134680
152163
308668
270389
119767
173633
316058
249116
113172
188427
316825
235018
111120
194816
314516
229001
110382
193454
310586
230069
111120
184657
304588
237827
114159
169401
294852
251063
121650
149361
278860
267345
136469
127727
254118
282029
160845
110319
219051
288775
194530
104124
176272
280219
232078
116604
133608
250403
263353
150346
104129
200572
273565
199309
101956
143210
251065
244559
134402
101456
196187
261172
191041
98684
129979
232342
240680
141040
90199.8
165595
246088
204843
105745
100173
194193
240648
167653
86591.8
117373
209498
224207
138988
78141.4
129906
216086
207043
115034
74138.5
140752
214159
188485
100672
72816
141462
208362
177014
89759.4
68020.3
138558
200541
168076
84041.5
60771.9
129102
193095
162709
78948
54356.6
117091
179243
158542
83713.5
48110
92896.1
162562
165902
89153.9
31814.9
73599.9
151840
158058
92211.3
38242.8
52288.4
116176
154229
112503
38229.3
26084.2
88045.2
142245
122488
51007.4
10548.5
51336
121879
128424
63975.2
10544.4
23610.9
81209.6
119363
89751.7
21886.8
-2661.89
40498.2
96099.3
102660
47985.5
-11051
-1963.21
62131.3
99700.9
70053.5
5659.37
-27474
12158.3
80353
87883.4
25005.5
-29153.4
-18268.9
36758.6
74098.5
53702.3
-1441.87
-34777
-15415.6
40145
73215.8
35309.5
-33779.7
-47663
3855.94
55820.8
56511.4
3756.9
-50520.4
-41416
21090
61696.9
37460.8
-24654.3
-58980.1
-24286.9
39800.5
56550.1
9426.95
-37426.3
-45241.4
-16898.9
40935.8
35952.9
1243.75
-17277.7
-26245.3
-19184.2
5818.72
21011.1
6312.23
-1648.21
-9890.57
-11419.1
-3270.46
563.976
3710.42
2081.51
2362.47
-11533.9
-8691.61
2762.07
-4329.13
2718.51
3616.9
-4814.1
-5606.23
-2124.56
1485.04
-6366.81
1495.21
2736.33
-4185.92
-10462.9
2717.69
628.023
-4094.38
-5279.59
2688.93
-500.407
-14081.8
5800.21
1034.35
-4546.23
-5456.67
3357.5
3044.71
-7393.85
-3589.77
1794.53
-1116.01
-9569.93
3825.4
-1256.05
-4638.56
-5484.44
1575.16
1602.43
-9847.83
1501.97
410.031
-3279.63
-6396.72
1918.81
732.247
-5242.66
-3422.08
57.4836
-720.884
-6695.45
1871.31
-1453.64
-3462.09
-3821.39
206.084
-356.075
-5086.71
-822.953
-1745.92
-2025.83
-5085.84
512.088
-2925.94
-2334.24
-5448.94
613.567
-2060.12
-2686.69
-6038.32
769.921
-868.495
-2253.64
-3590.06
-2278.83
-1400.45
-1254.5
-5341.75
-3003.62
-372.942
836.416
-3159.79
-6513.68
502.09
-1615.23
-2395.68
-4600.56
-3354.39
-1611.49
-767.108
-2112.37
-5911.98
-380.229
-2274.25
-1780.15
-3162.11
-4324.24
-551.052
-2227.32
-2441.71
-5128.24
-2500.99
-2064.26
-1489.67
-3714.26
-3317.12
-1641.58
-1960.09
-3430.39
-5767.77
-7061.2
2208.31
661.234
-4544.02
-7161.75
-4397.45
434.543
2199.89
-3836.68
-9537.03
-6535.08
1548.49
1231.73
421.601
-6600.64
-8595.43
-646.767
-1410.96
916.605
1649.7
-845.652
-5758.12
-4266.24
-1268.26
-2453.3
-1900.36
-5512.9
-5294.07
-3449.84
-3285.27
-2182.34
-2808.11
-6008.01
-855.062
-2709.49
-3091.39
-5326.03
-5209.23
-1657.79
-3458.31
-2442.95
-6439.92
-6520.17
-3094.3
-3500.07
-527.575
-5981.82
-7279.08
7.07654
-3706.02
-1969.01
-3274.54
-1955.44
-3260.82
-3519.48
-3771.83
-3553.3
-3363.48
-4844.82
-3153.97
-3325.54
-4278.52
-2986.33
-2234.54
-4059.85
-6537.78
-3870.53
-4332.88
-4975.41
-4625.19
-2282.95
-1887.54
-2794.15
-3556.31
-7536.76
-6722.54
-6138.39
-5759.01
-3007.63
-1382.56
-1419.63
-2217.68
-5987.8
-7802.5
-7059.54
-5353.55
-3802.21
-1913.78
-1273.68
-2292.83
-6767.74
-9049.83
-6692.24
-3445.68
-3599.65
-4403.74
-5360.67
-6546.72
-5588.64
-4093.72
-5679.81
-5830.82
-4572
-4859.23
-3452.03
-2814.5
-5943.42
-7946.39
-8350.72
-7470.67
-4441.44
-3332.54
-2439.05
-3486.05
-6523.48
-6852.41
-6387.89
-2402.99
-2475.53
-4091.16
-5127.95
-11697.2
-10128.5
-5551.72
-5703.3
-4210
-1691.21
-1399.27
-2003.82
-2968.13
-10823.1
-11938.4
-9533.56
-14157.9
-7216.98
-3119.84
-4966.12
-5534.47
-5029.89
-7480.02
-8081.66
-6361.91
-5601.13
-4331.47
-4016.68
-6294.36
-8949.56
-10777.9
-8145.66
-5716.83
-6323.83
-7728.5
-8193.43
-6649.24
-10062
-7758.34
-8159.92
-6325.49
-9400.54
-10160.5
-6384.19
-5760.18
-9231.23
-11779.7
-7306.98
-5109.83
-7803.8
-9951.97
-9493.72
-10922.5
-11483.1
-9288.03
-6767.56
-7274.71
-7461.22
-4697.78
-7311.49
-7921.5
-7920.26
-6887.94
-13225.8
-11226.7
-10703.8
-11607.4
-12525.3
-8041.76
-11862.2
-15281.3
-13402
-10502.3
-8664.61
-7924.38
-6652.54
-9297.14
-10450.5
-6898.67
-4808.44
-6486.99
-9879.26
-15218.7
-17542.9
-19535.7
-17638.9
-11798.2
-12104.2
-13295.2
-14133.9
-16221.6
-14888.1
-10726.4
-7536.96
-6371.66
-8034.91
-11430.1
-12113.1
-13803.5
-13992.6
-11941.3
-16920.5
-20883.8
-18772.5
-17180.4
-21896.2
-20067.6
-8444.37
-16698
-16264.3
-13938.4
-12974.6
-21129.4
-5628.37
-16092.4
-17700
-15062.2
-19724.1
-18170
-51502.7
-12151
-29772.5
-25264.8
-29793.4
6938.23
-10170.2
-76530.1
19576.3
-10694
-59415.3
-54157.1
10919.7
47192.5
-163586
45437.9
32243.5
-61326.9
-199521
98548.6
43715.1
-140113
-130319
89133.6
148102
-462535
145523
144000
-196423
-327779
208691
269606
-561454
-87903.5
317836
-99517.5
-446655
255315
404784
-952430
281796
337180
-346530
-655656
771329
126074
-1.31688e+06
575726
602147
-862491
-265647
523334
-116145
-773889
536131
506599
-1.3931e+06
540363
778615
-934863
-178979
583750
-155063
-702348
452033
584665
-1.35019e+06
459437
363952
-462528
-1.17028e+06
527809
123692
-643437
-404475
418308
323375
-691703
455329
456017
-573527
186415
206935
-164292
-359175
159530
871.452
-506768
75223.8
-140993
-234284
-257960
-103057
-44676.7
-279918
15800.8
-96074.1
-175798
-156982
-115125
-125341
-175104
-134644
-281441
-199899
-229285
-99635.5
-148408
-145088
-144464
-161224
-167856
-219168
-202781
-284700
-381624
-307748
-358270
-392542
-266776
-213486
-290470
-182292
-393227
-675900
-835748
-879506
-1.02496e+06
-1.28776e+06
-888872
-1.167e+06
)
;

boundaryField
{
    sides
    {
        type            calculated;
        value           nonuniform List<scalar> 2(-1.167e+06 371008);
    }
    empty
    {
        type            empty;
    }
}


// ************************************************************************* //
