/*--------------------------------*- C++ -*----------------------------------*\
  =========                 |
  \\      /  F ield         | OpenFOAM: The Open Source CFD Toolbox
   \\    /   O peration     | Website:  https://openfoam.org
    \\  /    A nd           | Version:  9
     \\/     M anipulation  |
\*---------------------------------------------------------------------------*/
FoamFile
{
    format      ascii;
    class       volScalarField;
    location    "0.018";
    object      ddt0(rho);
}
// * * * * * * * * * * * * * * * * * * * * * * * * * * * * * * * * * * * * * //

dimensions      [1 -3 -1 0 0 0 0];

internalField   nonuniform List<scalar> 
1000
(
-50.4918
-50.4514
-50.498
-50.547
-50.5618
-50.5693
-50.5958
-50.591
-50.5847
-50.58
-50.5759
-50.5719
-50.5679
-50.5639
-50.5597
-50.5553
-50.5508
-50.5462
-50.5414
-50.5366
-50.5316
-50.5264
-50.5212
-50.5158
-50.5104
-50.5047
-50.4989
-50.4929
-50.4869
-50.4807
-50.4744
-50.468
-50.4615
-50.4548
-50.4479
-50.4409
-50.4338
-50.4265
-50.4191
-50.4115
-50.4038
-50.3959
-50.3879
-50.3797
-50.3714
-50.3629
-50.3542
-50.3454
-50.3365
-50.3274
-50.3181
-50.3087
-50.2992
-50.2894
-50.2795
-50.2694
-50.2591
-50.2487
-50.2381
-50.2273
-50.2163
-50.2052
-50.1938
-50.1823
-50.1706
-50.1587
-50.1466
-50.1344
-50.1219
-50.1093
-50.0964
-50.0834
-50.0701
-50.0566
-50.0429
-50.029
-50.0149
-50.0006
-49.986
-49.9712
-49.9562
-49.9409
-49.9254
-49.9097
-49.8937
-49.8775
-49.861
-49.8443
-49.8273
-49.81
-49.7925
-49.7747
-49.7567
-49.7383
-49.7197
-49.7008
-49.6816
-49.6621
-49.6423
-49.6222
-49.6018
-49.5811
-49.5601
-49.5387
-49.517
-49.495
-49.4727
-49.4501
-49.4271
-49.4037
-49.3801
-49.3561
-49.3317
-49.307
-49.2819
-49.2565
-49.2307
-49.2046
-49.1781
-49.1512
-49.124
-49.0964
-49.0684
-49.04
-49.0112
-48.9821
-48.9526
-48.9227
-48.8924
-48.8618
-48.8307
-48.7993
-48.7675
-48.7353
-48.7026
-48.6696
-48.6362
-48.6024
-48.5681
-48.5335
-48.4984
-48.4629
-48.427
-48.3906
-48.3538
-48.3165
-48.2788
-48.2405
-48.2018
-48.1626
-48.1228
-48.0825
-48.0415
-48
-47.9579
-47.9151
-47.8716
-47.8273
-47.7823
-47.7364
-47.6897
-47.6419
-47.5932
-47.5433
-47.4922
-47.4398
-47.386
-47.3306
-47.2735
-47.2145
-47.1535
-47.0902
-47.0245
-46.956
-46.8845
-46.8094
-46.7309
-46.6477
-46.5607
-46.4667
-46.37
-46.2609
-46.1539
-46.0223
-45.907
-45.7397
-45.6225
-45.398
-45.29
-44.993
-44.8884
-44.584
-44.205
-44.018
-43.6534
-43.2776
-42.7992
-42.42
-41.8396
-41.3649
-40.6856
-40.2243
-39.0345
-38.9214
-37.7768
-36.5056
-36.0657
-34.8566
-34.3054
-32.4485
-31.8783
-30.7254
-29.2302
-28.762
-26.8414
-26.2056
-25.0357
-23.4724
-23.1804
-21.4648
-20.7458
-20.1475
-18.5338
-18.4733
-17.4117
-16.3953
-16.5339
-15.2189
-14.918
-14.8995
-13.6633
-13.901
-13.608
-12.6491
-13.1798
-12.643
-12.0163
-12.6506
-11.9534
-11.6217
-12.2474
-11.4743
-11.3476
-11.9353
-11.1345
-11.1275
-11.6865
-10.8849
-10.9225
-11.4779
-10.6975
-10.7086
-11.2943
-10.5552
-10.4817
-11.114
-10.4574
-10.2402
-10.9196
-10.4008
-9.99842
-10.6903
-10.3771
-9.78567
-10.4042
-10.3693
-9.63182
-10.0612
-10.3354
-9.57042
-9.68436
-10.2206
-9.60896
-9.33414
-9.97605
-9.70565
-9.09785
-9.59212
-9.76675
-9.04281
-9.13888
-9.67104
-9.15716
-8.76596
-9.34528
-9.3124
-8.62461
-8.85643
-9.30199
-8.74367
-8.4234
-8.98633
-8.94583
-8.28131
-8.46021
-8.92626
-8.45778
-8.04346
-8.53121
-8.65894
-8.01746
-7.9753
-8.50512
-8.27856
-7.70303
-7.9682
-8.35474
-7.88606
-7.50279
-7.94163
-8.11573
-7.53748
-7.36936
-7.86324
-7.83639
-7.24745
-7.25787
-7.7321
-7.55601
-7.00545
-7.13785
-7.56555
-7.29432
-6.79336
-6.99767
-7.37904
-7.05872
-6.59853
-6.83154
-7.18438
-6.85221
-6.41017
-6.64162
-6.98641
-6.67143
-6.22879
-6.42895
-6.78362
-6.51504
-6.05712
-6.19675
-6.57039
-6.37898
-5.90231
-5.95056
-6.3383
-6.2551
-5.77395
-5.70102
-6.07898
-6.12789
-5.67945
-5.46749
-5.78712
-5.97615
-5.61798
-5.27328
-5.47139
-5.77526
-5.57136
-5.14328
-5.15785
-5.50526
-5.50574
-5.08613
-4.89009
-5.17022
-5.37168
-5.08169
-4.71522
-4.81173
-5.13022
-5.06674
-4.6577
-4.50696
-4.78233
-4.95803
-4.68278
-4.33394
-4.39816
-4.6993
-4.68632
-4.31326
-4.10367
-4.31549
-4.54393
-4.36596
-3.99538
-3.93744
-4.21175
-4.32693
-4.04353
-3.73377
-3.79761
-4.0659
-4.07551
-3.75184
-3.51009
-3.64434
-3.8931
-3.82383
-3.478
-3.30329
-3.48743
-3.69387
-3.56948
-3.2381
-3.10729
-3.29852
-3.48356
-3.34058
-3.01142
-2.90135
-3.09919
-3.2681
-3.1217
-2.80358
-2.68868
-2.87941
-3.05529
-2.91608
-2.5991
-2.48
-2.65228
-2.82226
-2.71559
-2.42857
-2.27286
-2.38545
-2.58075
-2.55446
-2.26111
-2.03298
-2.13575
-2.35985
-2.3433
-2.08644
-1.86961
-1.87992
-2.05634
-2.14626
-1.96995
-1.68537
-1.60844
-1.77871
-1.92276
-1.81992
-1.54478
-1.37355
-1.4735
-1.67251
-1.65779
-1.4064
-1.19222
-1.20018
-1.35665
-1.44811
-1.31358
-1.05185
-0.935103
-1.04446
-1.19531
-1.18262
-0.966038
-0.735514
-0.732779
-0.913781
-1.00644
-0.87525
-0.628859
-0.48753
-0.58951
-0.787127
-0.782803
-0.544375
-0.336032
-0.345522
-0.502888
-0.601862
-0.509049
-0.301358
-0.167502
-0.210379
-0.374801
-0.464998
-0.319409
-0.0709965
-0.00789131
-0.163846
-0.322062
-0.310134
-0.121003
0.0720784
0.0527571
-0.145427
-0.271258
-0.181637
0.0335066
0.154601
0.0457957
-0.162328
-0.215661
-0.0433026
0.0941375
0.159602
0.0333738
-0.149716
-0.122191
0.00123456
0.0443241
0.0908049
0.0923734
-0.0462311
-0.059038
-0.0206939
0.00499726
0.043584
0.0346788
0.0107613
0.00967211
-0.00720914
0.0124013
-0.029163
0.0506865
0.0436366
-0.038106
0.0728176
0.0206636
-0.0659989
0.0317764
0.0398358
-0.0829752
-0.0295236
0.102345
0.076565
-0.139691
0.0396
0.154951
-0.0263439
-0.115013
0.0528681
0.17277
-0.132904
-0.0364994
0.202172
-0.00353006
-0.188627
0.0253209
0.162815
-0.0568874
-0.131222
0.0995332
0.138456
-0.169701
-0.000825549
0.140235
0.00783132
-0.112052
0.0400789
0.16109
-0.108422
-0.0681143
0.125608
0.0462793
-0.130826
0.0177409
0.121032
-0.0258073
-0.0870686
0.0634228
0.103435
-0.108395
-0.0155751
0.0958414
0.0101094
-0.0754264
0.022199
0.0952697
-0.0492254
-0.0385934
0.0593452
0.0455368
-0.0670565
-0.00348705
0.0677273
0.0200738
-0.0522543
0.000212153
0.0736335
0.018955
-0.058601
0.00449661
0.0771893
0.017978
-0.071641
7.0767e-05
0.05779
0.0376306
-0.0348082
-0.0195338
0.0767969
0.0613411
-0.0645365
-0.0499765
0.0318741
0.0776846
0.00374018
-0.0563768
0.000832912
0.0648972
0.0468107
-0.0363524
-0.039169
0.00614958
0.0660338
0.0198225
-0.0497412
-0.0140365
0.0358842
0.0442647
0.00546582
-0.0481696
0.00314493
0.0592554
0.0306796
-0.0280895
-0.0198802
0.0449853
0.0334479
-0.0139083
-0.0270554
0.0339605
0.0927515
0.0747709
-0.0514077
-0.0833685
0.0457187
0.0924935
0.0508425
-0.0657699
-0.117169
0.0244043
0.172297
0.0913183
-0.0782722
-0.149577
-0.0362721
0.115501
0.105108
0.0303978
-0.116128
-0.0781519
-0.0479825
-0.0145198
0.0739993
0.0459965
0.0101789
-0.0397127
-0.0063584
0.0767146
0.0633395
0.0274559
-0.00932101
-0.0195173
0.0345596
0.055678
0.016438
-0.0395
-0.000102043
0.0611841
0.0460668
0.0246982
-0.0512437
-0.0176251
0.069648
0.0709684
0.0269208
-0.0719946
-0.0415457
0.0805716
0.0845202
0.00613147
-0.0532768
-0.0193337
0.0136566
0.0107816
-0.0133685
0.0128854
0.0317907
-0.0193848
-0.00516603
0.0261891
-0.0215278
-0.00615481
0.0249555
0.0135003
-0.0139551
0.0166723
0.0435624
0.0111331
-0.010173
0.0422011
0.0402502
-0.00613498
0.00341553
0.0262753
0.0266051
0.027605
0.0162004
0.030027
0.0323401
0.0108497
0.00308616
0.00821007
0.00989908
0.0220813
0.0295433
0.0220947
0.0180115
0.0183818
0.00491038
0.00417512
0.00819628
0.0236804
0.0371317
0.0175933
0.00721328
0.0188731
0.0141267
0.0119515
0.0259054
0.0212578
0.00720194
0.0276138
0.0154858
0.00921462
0.0265528
0.00789835
0.00225852
0.0257506
0.026526
0.0276393
0.0313104
0.00669048
0.0161972
0.0082581
0.0116922
0.0193395
0.0187476
0.04054
-0.00593137
0.00746445
0.020465
0.0236882
0.0335571
0.0402606
-0.00605594
0.0331632
0.0407901
-0.0248642
-0.00246509
0.0211898
0.018795
0.0486147
0.0182045
0.00744586
0.104955
0.0129314
-0.0153673
0.0294333
0.0372303
0.000910845
0.0250606
0.0296118
0.0164067
0.033012
0.0139106
0.00604088
0.027998
0.0272721
0.045161
0.0238522
0.00221543
0.0424478
0.0349579
0.0145807
-0.0149677
0.0852249
0.057716
-0.0168727
-0.00922745
0.0692422
0.0804942
-0.0354685
-0.014622
0.0738829
0.0799109
-0.00637136
-0.028351
0.0545938
0.051429
0.0172944
0.0285841
0.0484078
0.0315038
0.00572329
0.0337468
0.0352927
-0.0131276
0.0313524
0.0486
0.00639816
-0.00502861
0.0808924
0.0300769
0.013234
0.0492142
0.0634267
-0.00279036
0.0371326
0.0700717
0.0365933
0.0221126
0.0396549
0.0386662
0.00491674
0.025719
0.0551644
0.0177319
0.00564214
0.0330499
0.0464058
0.0347977
0.0542081
0.0802859
0.0655779
0.0230006
0.0499302
0.0516108
0.037712
0.056621
0.0618141
0.0279457
0.0279057
0.0317492
0.0236401
0.0455964
0.0234648
0.0558759
0.0832638
-0.00194768
0.0654008
0.126384
0.010598
0.0550552
0.155947
0.024677
-0.0249891
0.0960405
0.196408
-0.102093
0.032716
0.215368
0.0852614
-0.142537
0.140473
0.358958
-0.212622
-0.0526345
0.528409
0.330883
-0.485158
0.263657
0.812169
-0.71523
0.0855599
1.09172
-0.150186
-0.933478
0.648636
1.96022
-1.6838
-0.685256
2.26513
0.765414
-2.77639
1.02653
3.48318
-0.952178
-2.93358
1.65792
5.56166
-4.99392
-2.20813
6.45395
1.6916
-7.39685
2.06106
8.80843
-3.45852
-7.32498
7.77458
8.43578
-13.3823
1.06733
11.0979
-2.58129
-10.3347
12.744
4.85165
-15.0779
3.53928
19.3982
-14.1571
-6.79764
17.7489
2.08178
-18.321
8.81261
18.7287
-22.4681
0.145808
20.9034
-8.97557
-13.714
18.9728
4.78409
-21.1964
9.23021
18.1829
-22.8412
0.44442
20.289
-8.17089
-14.7984
19.0849
4.56957
-20.505
4.58509
21.6949
-5.15818
-15.5796
5.12914
19.7955
-17.391
-5.76682
10.6888
1.00095
-10.5752
6.65873
4.09971
-9.16564
0.976174
8.79644
-5.33143
-3.94524
6.09269
1.79847
-5.20414
1.28586
5.51497
-2.28223
-2.00269
3.34558
1.1111
-2.26855
1.18213
2.62454
-0.722708
-0.726312
1.85103
1.85585
-1.05638
0.632045
2.01962
0.430861
-0.302365
0.812284
1.23796
-0.311075
0.377571
1.22537
0.312369
0.963739
1.7113
0.187714
1.3814
1.35862
0.0258171
0.980175
1.43122
0.170285
-0.799121
4.56871
4.23395
-0.447643
3.38157
7.47625
2.22199
2.68875
)
;

boundaryField
{
    sides
    {
        type            calculated;
        value           nonuniform List<scalar> 2(2.68875 -50.4918);
    }
    empty
    {
        type            empty;
    }
}


// ************************************************************************* //
