/*--------------------------------*- C++ -*----------------------------------*\
  =========                 |
  \\      /  F ield         | OpenFOAM: The Open Source CFD Toolbox
   \\    /   O peration     | Website:  https://openfoam.org
    \\  /    A nd           | Version:  9
     \\/     M anipulation  |
\*---------------------------------------------------------------------------*/
FoamFile
{
    format      ascii;
    class       volScalarField;
    location    "0.018";
    object      ddt0(rho,K);
}
// * * * * * * * * * * * * * * * * * * * * * * * * * * * * * * * * * * * * * //

dimensions      [1 -1 -3 0 0 0 0];

internalField   nonuniform List<scalar> 
1000
(
3090.38
2787
2884.4
2604.55
2164.97
1700.05
1170.03
537.517
-198.525
-1026.1
-1943.64
-2953.27
-4056.02
-5251.93
-6540
-7920.16
-9393.24
-10958.8
-12616.5
-14367.1
-16210.4
-18145.7
-20173.6
-22294.6
-24508.4
-26814.5
-29212.5
-31703
-34286.1
-36962.1
-39730.9
-42592.2
-45545.9
-48591.9
-51730.2
-54960.7
-58283.4
-61698.4
-65205.6
-68804.7
-72496.1
-76279.6
-80155.2
-84122.6
-88181.8
-92332.9
-96575.8
-100910
-105337
-109855
-114464
-119165
-123957
-128841
-133815
-138880
-144036
-149283
-154621
-160049
-165568
-171176
-176875
-182664
-188543
-194512
-200570
-206718
-212955
-219282
-225697
-232201
-238794
-245474
-252243
-259100
-266045
-273076
-280196
-287402
-294694
-302074
-309539
-317090
-324727
-332450
-340257
-348149
-356125
-364186
-372330
-380558
-388869
-397262
-405738
-414296
-422935
-431655
-440456
-449338
-458299
-467339
-476459
-485657
-494933
-504287
-513719
-523227
-532811
-542472
-552208
-562019
-571905
-581865
-591898
-602004
-612182
-622433
-632755
-643148
-653611
-664145
-674748
-685420
-696160
-706969
-717845
-728788
-739797
-750872
-762013
-773219
-784488
-795822
-807219
-818678
-830199
-841781
-853424
-865126
-876888
-888708
-900585
-912518
-924507
-936550
-948646
-960794
-972993
-985241
-997537
-1.00988e+06
-1.02226e+06
-1.03469e+06
-1.04716e+06
-1.05966e+06
-1.07219e+06
-1.08476e+06
-1.09735e+06
-1.10997e+06
-1.12261e+06
-1.13526e+06
-1.14791e+06
-1.16058e+06
-1.17323e+06
-1.18588e+06
-1.1985e+06
-1.2111e+06
-1.22366e+06
-1.23616e+06
-1.2486e+06
-1.26095e+06
-1.27321e+06
-1.28536e+06
-1.29736e+06
-1.3092e+06
-1.32086e+06
-1.33228e+06
-1.34345e+06
-1.35431e+06
-1.36484e+06
-1.37491e+06
-1.38462e+06
-1.39359e+06
-1.40223e+06
-1.40966e+06
-1.41699e+06
-1.4222e+06
-1.42784e+06
-1.42971e+06
-1.43243e+06
-1.43279e+06
-1.43064e+06
-1.42856e+06
-1.4222e+06
-1.41248e+06
-1.39905e+06
-1.38544e+06
-1.36572e+06
-1.34391e+06
-1.31501e+06
-1.28573e+06
-1.24283e+06
-1.21125e+06
-1.16562e+06
-1.1099e+06
-1.06033e+06
-1.0021e+06
-946506
-864146
-803381
-733036
-653323
-588914
-499935
-430665
-353521
-271446
-211321
-129745
-66695.3
-8143.33
64146
107381
164214
216894
246832
298242
328963
351834
392740
405258
424672
453391
453790
471355
488744
482162
498318
506658
496759
511620
513850
502437
516263
514831
502587
515627
512533
499538
511840
508800
494698
506114
504479
489107
498960
500064
483472
490688
495492
478387
481553
490276
474421
471953
483838
471674
462774
475439
469724
455202
464855
467340
450371
452896
462616
448605
441543
453980
448508
433508
441533
446819
430571
427991
440059
431439
418012
427354
431260
414967
412549
424520
416947
402700
410292
416610
401673
395258
407122
404689
388548
390606
401104
391207
378347
386411
392388
378086
370331
381295
382032
366162
363392
374844
371100
355521
356573
367266
360357
345780
349368
358982
350121
336576
341564
350294
340575
327623
333053
341478
331695
318803
323892
332514
323487
310165
314091
323319
315893
301877
303735
313683
308784
294199
293034
303309
301876
287400
282426
291947
294608
281676
272545
279581
286268
276816
264162
266713
276055
272064
257953
254360
263620
266080
253888
244078
249490
257334
250756
237187
235589
244926
246138
233802
224595
229813
237448
231803
218460
215271
223834
227110
216571
205435
207699
216391
214734
201972
194486
200391
207240
201484
188752
184786
192224
196911
188681
176453
175202
183587
186064
175996
165095
165810
173872
174879
164435
154162
155598
163753
164070
153260
143446
145068
152987
153523
142841
132653
134068
142099
142831
132706
122617
122863
129915
132064
124075
112907
110126
117542
122513
114813
102407
99232.5
105360
109982
105794
95103.6
87751.8
90823.8
98185.1
97404.1
86851.8
77294.3
77514.7
84618.7
87621.9
79793.8
67966
64694.6
70969
75790.2
71656.9
61494.6
53952.5
55616.5
62512
63530.7
55311.7
45386.7
42190.2
47431.9
53311.2
49828.7
38765.3
31382.9
33340.7
40164.7
42689.7
35123.3
23605.8
20589.6
27461.1
33170.4
29823.2
20332.9
13373.4
14585.6
20751.1
23910.3
19703.9
10453.2
4443.11
8528.04
17086.9
17902.3
9529.69
1161.76
125.817
6731.89
13613.8
11561.8
1995.21
-4397.59
-1529.84
6789.94
11137.9
5861.83
-3713
-6565.53
590.446
5266.84
8841.46
3399.41
-6795.59
-5291.64
654.116
1271.4
4032.88
6347.17
-1732.61
-3807.98
-1756.5
-870.451
1424.59
1113.84
107.762
275.483
-256.794
364.028
-2845.1
1296.39
1611.17
-2705.73
5064.97
3704
-3657.42
240.581
674.087
-8378.86
-5830.93
6296.87
6980.42
-8810.43
-1009.94
11524.6
-158.46
-10327.1
2079.17
11868.1
-6990.59
-4812.66
14497.1
2885.76
-16090.2
-2724.88
11890.4
-2691
-11407
5115.52
10623.3
-9758.39
-3759.99
10535.3
2602.35
-9305.51
1482.22
11384.6
-5571.73
-7260.67
7701.2
5194.36
-9476.11
-1565.11
9071.17
-606.049
-7540.29
3326.18
7822.87
-6147.29
-3522.17
6692.87
2153.66
-6173.21
354.821
6788.75
-2332.27
-3964.48
3436.63
3749.88
-4365.26
-1703.97
4803.46
2154.01
-4135.02
-1074.98
5329.56
2195.92
-4390.63
-952.175
5642.29
2481.38
-5417.14
-2018.11
4361.52
4026.01
-2430.76
-2212.82
5586.44
5518.97
-4166.34
-5667.22
1004.6
6326.66
1707.28
-4663.67
-1660.81
4831.05
4452.24
-2740.85
-4589.18
-321.06
4703.48
1965.03
-4128.44
-2894.4
2243.9
4007.85
471.324
-4207.89
-1021.99
4397.47
3318.1
-2152.31
-2652.01
3079.26
3599.67
-1675.98
-3154.08
3100.23
7960.54
6612.76
-2525.36
-7632.06
846.769
7998.2
5627.04
-5403.08
-11317.1
-350.341
13531.1
10144.9
-5686.7
-15017.8
-6344.17
7772.37
10309.5
3361.03
-9602.22
-10495.6
-6938.21
-2067.73
4995.46
4837.74
1610.25
-3180.51
-1333.93
5468.81
6641.49
3944.74
-981.449
-2548.23
2440.65
4951.71
1638.42
-3207.07
-1016.45
4271.98
4574.74
2027.69
-4165.67
-2809.4
4046.86
6273.18
2839.06
-6183.21
-5252.33
5088.57
7836.04
1484.21
-5139.36
-3895.27
-450.687
-52.5937
-1693.13
101.279
1541.31
-2045.25
-1801.36
540.776
-2176.13
-1679.67
936.305
622.451
-1258.54
526.428
3010.06
881.118
-1089.4
2681.83
3382.05
-9.42463
2.79545
1911.2
2313.73
1821.41
763.252
1761.88
2308.14
978.97
210.508
485.294
639.202
1119.05
1475.37
1028.49
803.474
1004.8
291.808
128.877
357.295
1060.84
1802.05
749.174
106.12
1019.29
697.009
222.9
1111.14
1000.39
157.621
1309.45
684.868
143.765
1384.45
407.04
-303.406
1130.96
1226.3
1175.56
1448.74
214.766
774.948
519.741
634.935
724.451
830.205
2134.12
-463.34
29.7036
1206.67
1107.35
1398.41
1702.78
-944.19
1779.61
2989.43
-1474.66
-857.477
1269.72
1621.55
2723.14
79.1639
-465.443
6114.51
1486.9
-1964.39
1225.76
2615.94
-12.6302
831.373
1430.5
780.504
1914.59
900.097
129.475
1267.08
1306.92
2349.52
1106.46
-22.1702
2271.76
2187.25
-32.4112
-1836.49
5072.86
4484.07
-1798
-2602.68
4030.8
5711.16
-2492.76
-2666.68
3956.61
6000.87
-775.532
-3688.83
2534.8
3498.73
608.406
708.32
2221.21
1338.72
-309.13
1403.97
1799.83
-1526.21
1091.47
3141.59
-343.886
-1561.06
4091.8
1761.28
-671.752
2019.99
3504.78
-778.121
910.077
3659.57
1633.61
231.198
1895.17
2219.26
-157.789
685.814
3027.27
957.581
-304.843
1732.08
2585.58
1238.34
1949.4
3923.49
3177.43
626.295
2198.02
2558.59
1387.61
2407.52
3036.75
1122.07
1102.83
1577.66
1111.18
1752.99
241.56
2393.35
4357.7
-965.367
2074.73
6652.63
-651.129
981.233
9168.45
169.907
-5921.61
3900.63
11462.4
-7530.9
-4534.64
12297.3
5036.41
-14284.8
4671.01
22353.7
-15347.2
-17991.7
26987.7
20710.2
-38910.1
3154.83
49345
-45035.7
-18306.9
74017.7
-8939.8
-95696.1
25767.7
126001
-105718
-100655
131824
70582.5
-217568
-14190.9
253656
-48180.4
-290246
70146.1
366749
-298672
-291457
382812
191337
-574490
-36150.2
615492
-205788
-661785
382721
607429
-869380
-240856
784597
-123179
-902005
687471
512304
-1.10413e+06
-80026.3
1.26192e+06
-720255
-841350
1.0718e+06
309610
-1.39115e+06
308761
1.25979e+06
-1.33391e+06
-391118
1.435e+06
-418467
-1.27094e+06
1.05404e+06
510007
-1.47796e+06
357126
1.28975e+06
-1.31427e+06
-324937
1.44457e+06
-331435
-1.19165e+06
1.15009e+06
668748
-1.44263e+06
-116393
1.62789e+06
-78613.1
-1.392e+06
164057
1.35083e+06
-896037
-781830
612770
214079
-742738
317091
418600
-558256
-77459.3
592141
-239783
-378457
365647
221635
-372823
-8602.11
381269
-93542.7
-192989
206266
125003
-155716
46359.3
201624
-22874.1
-82866.7
110066
132268
-73160.8
270.599
136190
42206.5
-41375.5
38698.8
80386.7
-24790.9
-3153.04
63537.7
12699.3
44961.8
91549.4
-1123.19
56873
74333.6
-16668.2
45317.8
98908.9
-14128.8
-88339.2
222883
240717
-106669
82495.5
419487
87545.8
10429.6
)
;

boundaryField
{
    sides
    {
        type            calculated;
        value           nonuniform List<scalar> 2(10429.6 3090.38);
    }
    empty
    {
        type            empty;
    }
}


// ************************************************************************* //
