/*--------------------------------*- C++ -*----------------------------------*\
  =========                 |
  \\      /  F ield         | OpenFOAM: The Open Source CFD Toolbox
   \\    /   O peration     | Website:  https://openfoam.org
    \\  /    A nd           | Version:  9
     \\/     M anipulation  |
\*---------------------------------------------------------------------------*/
FoamFile
{
    format      ascii;
    class       volScalarField;
    location    "0.018";
    object      rho;
}
// * * * * * * * * * * * * * * * * * * * * * * * * * * * * * * * * * * * * * //

dimensions      [1 -3 0 0 0 0 0];

internalField   nonuniform List<scalar> 
1000
(
0.632083
0.631802
0.631524
0.631357
0.631236
0.631126
0.631034
0.630957
0.630876
0.630793
0.63071
0.630626
0.630541
0.630457
0.630372
0.630287
0.630201
0.630115
0.630029
0.629943
0.629856
0.629769
0.629681
0.629594
0.629505
0.629417
0.629328
0.629239
0.62915
0.62906
0.62897
0.62888
0.628789
0.628698
0.628607
0.628515
0.628423
0.62833
0.628238
0.628145
0.628051
0.627957
0.627863
0.627769
0.627674
0.627579
0.627483
0.627387
0.627291
0.627194
0.627097
0.627
0.626902
0.626804
0.626706
0.626607
0.626508
0.626408
0.626308
0.626208
0.626107
0.626006
0.625904
0.625802
0.6257
0.625597
0.625494
0.625391
0.625287
0.625183
0.625078
0.624973
0.624867
0.624761
0.624655
0.624548
0.624441
0.624333
0.624225
0.624117
0.624008
0.623899
0.623789
0.623678
0.623568
0.623457
0.623345
0.623233
0.62312
0.623007
0.622894
0.62278
0.622666
0.622551
0.622435
0.62232
0.622203
0.622086
0.621969
0.621851
0.621733
0.621614
0.621495
0.621375
0.621254
0.621133
0.621012
0.62089
0.620767
0.620644
0.620521
0.620396
0.620272
0.620146
0.62002
0.619894
0.619767
0.619639
0.619511
0.619382
0.619253
0.619123
0.618992
0.618861
0.618729
0.618596
0.618463
0.618329
0.618195
0.61806
0.617924
0.617788
0.617651
0.617513
0.617375
0.617236
0.617096
0.616956
0.616814
0.616673
0.61653
0.616387
0.616243
0.616098
0.615953
0.615807
0.61566
0.615513
0.615364
0.615215
0.615066
0.614915
0.614764
0.614612
0.614459
0.614305
0.614151
0.613995
0.613839
0.613682
0.613524
0.613366
0.613206
0.613046
0.612884
0.612722
0.612558
0.612394
0.612229
0.612062
0.611895
0.611726
0.611557
0.611386
0.611214
0.61104
0.610865
0.610689
0.610511
0.610332
0.610151
0.609968
0.609783
0.609597
0.609406
0.609218
0.609018
0.60883
0.608616
0.608431
0.608198
0.608015
0.607769
0.607576
0.60732
0.607119
0.606845
0.606631
0.60634
0.60611
0.605796
0.605539
0.605223
0.604881
0.604606
0.604214
0.60389
0.603472
0.603097
0.602702
0.602204
0.601822
0.601284
0.600815
0.600315
0.59972
0.599228
0.598597
0.598006
0.597424
0.596725
0.596125
0.595439
0.594723
0.594085
0.59332
0.592612
0.591913
0.591112
0.590407
0.58965
0.588844
0.588131
0.587333
0.586535
0.585809
0.584986
0.5842
0.58346
0.582626
0.581851
0.581099
0.580264
0.579495
0.578737
0.577902
0.577139
0.576378
0.575547
0.574784
0.574026
0.573198
0.572434
0.571681
0.570857
0.57009
0.569343
0.568526
0.567752
0.567013
0.566205
0.565422
0.564688
0.563894
0.563101
0.562368
0.561592
0.560791
0.560053
0.559297
0.558494
0.557743
0.557006
0.556211
0.555442
0.554715
0.55394
0.553155
0.552426
0.551676
0.550886
0.55014
0.549412
0.548634
0.547866
0.547144
0.546392
0.545611
0.544876
0.544151
0.543379
0.542619
0.541902
0.541158
0.540385
0.539652
0.538934
0.538173
0.537415
0.5367
0.535971
0.535206
0.534468
0.533758
0.533017
0.532258
0.531538
0.530826
0.530078
0.52933
0.528621
0.527905
0.527155
0.52642
0.525718
0.524997
0.52425
0.523526
0.522827
0.522104
0.521361
0.520646
0.519949
0.519226
0.518489
0.51778
0.517086
0.516365
0.515632
0.514928
0.514237
0.513519
0.512792
0.512091
0.511403
0.510691
0.509967
0.509269
0.508585
0.507878
0.507159
0.506461
0.505781
0.505082
0.504367
0.503669
0.502992
0.502302
0.501592
0.500894
0.500219
0.499538
0.498836
0.498136
0.497461
0.496789
0.496096
0.495397
0.494719
0.494054
0.493373
0.492678
0.491997
0.491334
0.490666
0.489979
0.489294
0.488631
0.487973
0.487298
0.486614
0.485946
0.485294
0.484634
0.483957
0.483285
0.482632
0.481984
0.481321
0.480649
0.47999
0.479348
0.478701
0.478038
0.477376
0.476731
0.476095
0.475449
0.47479
0.474139
0.473506
0.472875
0.472231
0.47158
0.470941
0.470316
0.46969
0.469051
0.468409
0.467781
0.467166
0.466545
0.465912
0.465281
0.464664
0.464057
0.463444
0.46282
0.462199
0.461593
0.460996
0.460392
0.459778
0.459168
0.458573
0.457986
0.457393
0.456792
0.456193
0.45561
0.455036
0.454456
0.453868
0.453283
0.452713
0.452152
0.451588
0.451016
0.450446
0.449889
0.449344
0.448799
0.448246
0.447692
0.447152
0.446625
0.4461
0.445569
0.445037
0.444515
0.444007
0.443507
0.443003
0.442495
0.441995
0.44151
0.441036
0.440563
0.440085
0.439612
0.439153
0.438709
0.43827
0.437828
0.437388
0.436961
0.436549
0.436148
0.435748
0.435349
0.434957
0.434582
0.434221
0.433869
0.433517
0.433168
0.432834
0.432518
0.432214
0.431915
0.431618
0.431328
0.431057
0.430805
0.430561
0.430318
0.43008
0.429857
0.429653
0.429461
0.429276
0.429094
0.428919
0.428758
0.428615
0.428484
0.428354
0.428226
0.428107
0.428005
0.427916
0.427834
0.42775
0.427668
0.427597
0.427541
0.427494
0.427448
0.427398
0.427351
0.427316
0.427292
0.427272
0.427248
0.427222
0.4272
0.427186
0.42718
0.427173
0.427163
0.427154
0.427146
0.42714
0.427139
0.427138
0.427137
0.427136
0.427134
0.427133
0.427134
0.427134
0.427135
0.427136
0.427137
0.427136
0.427136
0.427138
0.427138
0.427139
0.427141
0.427142
0.427141
0.427144
0.427146
0.427146
0.427145
0.427149
0.42715
0.427149
0.42715
0.427153
0.427154
0.427153
0.427155
0.427157
0.427156
0.427157
0.427161
0.427162
0.427161
0.427162
0.427166
0.427166
0.427165
0.427168
0.427169
0.427168
0.427169
0.427171
0.427172
0.427171
0.427173
0.427175
0.427174
0.427174
0.427176
0.427177
0.427176
0.427177
0.427179
0.427179
0.427178
0.42718
0.427181
0.42718
0.42718
0.427182
0.427182
0.427181
0.427182
0.427183
0.427183
0.427182
0.427183
0.427184
0.427183
0.427183
0.427184
0.427184
0.427183
0.427183
0.427184
0.427184
0.427183
0.427182
0.427183
0.427184
0.427183
0.427182
0.427183
0.427183
0.427182
0.427181
0.427182
0.427183
0.427182
0.427181
0.427181
0.427182
0.427182
0.427181
0.42718
0.42718
0.427181
0.42718
0.42718
0.427179
0.42718
0.42718
0.427179
0.427178
0.427178
0.427178
0.427178
0.427177
0.427177
0.427177
0.427177
0.427176
0.427175
0.427175
0.427175
0.427175
0.427174
0.427172
0.427172
0.427173
0.427173
0.427171
0.42717
0.427171
0.427172
0.427172
0.42717
0.427168
0.427168
0.42717
0.427171
0.427169
0.427167
0.427167
0.427168
0.427169
0.427169
0.427169
0.427168
0.427167
0.427167
0.427167
0.427167
0.427166
0.427165
0.427164
0.427164
0.427164
0.427163
0.427162
0.427162
0.427162
0.427162
0.427161
0.42716
0.427159
0.427159
0.42716
0.427159
0.427157
0.427156
0.427157
0.427157
0.427156
0.427155
0.427154
0.427155
0.427155
0.427155
0.427154
0.427154
0.427154
0.427153
0.427153
0.427153
0.427152
0.427152
0.427152
0.427151
0.427151
0.427151
0.427151
0.427149
0.427149
0.427149
0.427148
0.427147
0.427147
0.427147
0.427147
0.427146
0.427145
0.427144
0.427143
0.427143
0.427142
0.427142
0.427142
0.427142
0.427141
0.42714
0.427139
0.427139
0.427139
0.427138
0.427138
0.427138
0.427137
0.427136
0.427135
0.427135
0.427135
0.427134
0.427134
0.427133
0.427132
0.427132
0.427131
0.427131
0.42713
0.42713
0.427129
0.427129
0.427128
0.427128
0.427127
0.427126
0.427125
0.427125
0.427125
0.427124
0.427124
0.427123
0.427122
0.427122
0.427122
0.427121
0.427121
0.427119
0.427118
0.427118
0.427117
0.427116
0.427117
0.427117
0.427116
0.427116
0.427114
0.427113
0.427112
0.42711
0.427109
0.427109
0.427109
0.427108
0.427107
0.427106
0.427105
0.427105
0.427104
0.427104
0.427103
0.427102
0.427101
0.4271
0.427099
0.427098
0.427098
0.427096
0.427095
0.427095
0.427093
0.427092
0.427092
0.427091
0.42709
0.427088
0.427088
0.427087
0.427086
0.427084
0.427083
0.427083
0.427082
0.42708
0.427079
0.427078
0.427077
0.427076
0.427075
0.427074
0.427073
0.427073
0.427072
0.427071
0.42707
0.427069
0.427067
0.427066
0.427065
0.427064
0.427062
0.427061
0.42706
0.427058
0.427057
0.427055
0.427054
0.427053
0.427053
0.427052
0.42705
0.42705
0.427049
0.427048
0.427047
0.427045
0.427044
0.427041
0.427039
0.427038
0.427037
0.427035
0.427034
0.427032
0.42703
0.427029
0.427029
0.427028
0.427027
0.427026
0.427025
0.427024
0.427022
0.427021
0.42702
0.427017
0.427016
0.427015
0.427013
0.427012
0.427013
0.427012
0.42701
0.427011
0.427013
0.427011
0.427011
0.427015
0.427016
0.427014
0.427018
0.427024
0.427021
0.427019
0.42703
0.427036
0.427033
0.42705
0.427064
0.427057
0.42707
0.427099
0.427107
0.4271
0.427135
0.427177
0.427171
0.42718
0.427249
0.427281
0.427265
0.427307
0.427399
0.427425
0.427402
0.4275
0.427619
0.427592
0.427619
0.427798
0.427864
0.42784
0.42794
0.428158
0.428179
0.428137
0.428427
0.42854
0.428517
0.428649
0.428975
0.428939
0.42897
0.429336
0.429496
0.429411
0.429653
0.430018
0.42995
0.430081
0.43047
0.430591
0.430507
0.430986
0.431183
0.431131
0.431341
0.431827
0.431768
0.431882
0.432304
0.432422
0.432341
0.432826
0.43301
0.432952
0.43315
0.433569
0.433478
0.433518
0.433931
0.434083
0.433895
0.434041
0.434392
0.43444
0.434304
0.434564
0.434798
0.434754
0.434834
0.435063
0.435063
0.435047
0.435236
0.4353
0.435244
0.435318
0.435429
0.435382
0.435373
0.435451
0.435466
0.43542
0.435443
0.435486
0.435458
0.435449
0.435482
0.435475
0.43545
0.435451
0.435457
0.435438
0.435401
0.435402
0.435394
0.435358
0.435346
0.435346
0.435331
0.435307
0.435301
0.435285
0.435255
0.435235
0.435196
0.435141
0.435108
0.435056
0.434999
0.434967
0.434928
0.434876
0.434832
0.434795
0.434684
0.434528
0.434464
0.434319
0.434164
0.433976
)
;

boundaryField
{
    sides
    {
        type            calculated;
        value           nonuniform List<scalar> 2(0.433976 0.632083);
    }
    empty
    {
        type            empty;
    }
}


// ************************************************************************* //
