/*--------------------------------*- C++ -*----------------------------------*\
  =========                 |
  \\      /  F ield         | OpenFOAM: The Open Source CFD Toolbox
   \\    /   O peration     | Website:  https://openfoam.org
    \\  /    A nd           | Version:  9
     \\/     M anipulation  |
\*---------------------------------------------------------------------------*/
FoamFile
{
    format      ascii;
    class       volScalarField;
    location    "0.05";
    object      mag(U);
}
// * * * * * * * * * * * * * * * * * * * * * * * * * * * * * * * * * * * * * //

dimensions      [0 1 -1 0 0 0 0];

internalField   nonuniform List<scalar> 
100
(
51.823
53.102
55.4651
57.7173
59.4549
61.0702
62.7146
64.3793
66.0421
67.6945
69.3325
70.9551
72.5643
74.1602
75.7394
77.2998
78.84
80.3599
81.8733
83.3949
84.9205
86.433
87.9022
89.2773
90.5167
91.6641
92.7861
93.9002
95.0077
96.1041
97.1866
98.2483
99.2825
100.291
101.275
102.239
103.184
104.109
105.013
105.903
106.779
107.641
108.497
109.347
110.19
111.024
111.852
112.675
113.491
114.304
115.116
115.928
116.733
117.534
118.334
119.136
119.936
120.739
121.545
122.357
123.171
123.989
124.817
125.651
126.494
127.346
128.21
129.08
129.956
130.832
131.71
132.588
133.464
134.326
135.168
135.981
136.765
137.513
138.224
138.897
139.535
140.139
140.72
141.286
141.861
142.459
143.097
143.777
144.508
145.29
146.125
147.006
147.933
148.902
149.911
150.952
152.022
153.118
154.221
156.207
)
;

boundaryField
{
    sides
    {
        type            calculated;
        value           nonuniform List<scalar> 2(156.207 51.823);
    }
    empty
    {
        type            empty;
    }
}


// ************************************************************************* //
