/*--------------------------------*- C++ -*----------------------------------*\
  =========                 |
  \\      /  F ield         | OpenFOAM: The Open Source CFD Toolbox
   \\    /   O peration     | Website:  https://openfoam.org
    \\  /    A nd           | Version:  9
     \\/     M anipulation  |
\*---------------------------------------------------------------------------*/
FoamFile
{
    format      ascii;
    class       surfaceScalarField;
    location    "0.05";
    object      phi;
}
// * * * * * * * * * * * * * * * * * * * * * * * * * * * * * * * * * * * * * //

dimensions      [1 0 -1 0 0 0 0];

internalField   nonuniform List<scalar> 
99
(
47.8331
49.2892
50.7352
52.1704
53.5956
55.0153
56.4283
57.8292
59.2189
60.6017
61.9821
63.352
64.7118
66.0604
67.3964
68.7202
70.0285
71.3201
72.6004
73.8794
75.1527
76.4126
77.656
78.8581
80.0039
81.1333
82.2599
83.3819
84.4992
85.6113
86.7254
87.8387
88.9436
90.0384
91.1189
92.1875
93.2579
94.3343
95.4105
96.4883
97.5665
98.6347
99.6968
100.77
101.857
102.952
104.051
105.158
106.266
107.366
108.47
109.598
110.739
111.886
113.033
114.194
115.356
116.531
117.711
118.919
120.141
121.376
122.624
123.868
125.123
126.396
127.694
129.018
130.362
131.714
133.055
134.388
135.734
137.099
138.477
139.854
141.212
142.534
143.833
145.134
146.45
147.79
149.135
150.478
151.805
153.142
154.524
155.966
157.476
159.043
160.653
162.273
163.893
165.529
167.207
168.934
170.704
172.513
174.352
)
;

boundaryField
{
    sides
    {
        type            calculated;
        value           nonuniform List<scalar> 2(176.199 -46.3724);
    }
    empty
    {
        type            empty;
        value           nonuniform List<scalar> 0();
    }
}


// ************************************************************************* //
