/*--------------------------------*- C++ -*----------------------------------*\
  =========                 |
  \\      /  F ield         | OpenFOAM: The Open Source CFD Toolbox
   \\    /   O peration     | Website:  https://openfoam.org
    \\  /    A nd           | Version:  9
     \\/     M anipulation  |
\*---------------------------------------------------------------------------*/
FoamFile
{
    format      ascii;
    class       volVectorField;
    location    "0.05";
    object      U;
}
// * * * * * * * * * * * * * * * * * * * * * * * * * * * * * * * * * * * * * //

dimensions      [0 1 -1 0 0 0 0];

internalField   nonuniform List<vector> 
100
(
(51.823 0 0)
(53.102 0 0)
(55.4651 0 0)
(57.7173 0 0)
(59.4549 0 0)
(61.0702 0 0)
(62.7146 0 0)
(64.3793 0 0)
(66.0421 0 0)
(67.6945 0 0)
(69.3325 0 0)
(70.9551 0 0)
(72.5643 0 0)
(74.1602 0 0)
(75.7394 0 0)
(77.2998 0 0)
(78.84 0 0)
(80.3599 0 0)
(81.8733 0 0)
(83.3949 0 0)
(84.9205 0 0)
(86.433 0 0)
(87.9022 0 0)
(89.2773 0 0)
(90.5167 0 0)
(91.6641 0 0)
(92.7861 0 0)
(93.9002 0 0)
(95.0077 0 0)
(96.1041 0 0)
(97.1866 0 0)
(98.2483 0 0)
(99.2825 0 0)
(100.291 0 0)
(101.275 0 0)
(102.239 0 0)
(103.184 0 0)
(104.109 0 0)
(105.013 0 0)
(105.903 0 0)
(106.779 0 0)
(107.641 0 0)
(108.497 0 0)
(109.347 0 0)
(110.19 0 0)
(111.024 0 0)
(111.852 0 0)
(112.675 0 0)
(113.491 0 0)
(114.304 0 0)
(115.116 0 0)
(115.928 0 0)
(116.733 0 0)
(117.534 0 0)
(118.334 0 0)
(119.136 0 0)
(119.936 0 0)
(120.739 0 0)
(121.545 0 0)
(122.357 0 0)
(123.171 0 0)
(123.989 0 0)
(124.817 0 0)
(125.651 0 0)
(126.494 0 0)
(127.346 0 0)
(128.21 0 0)
(129.08 0 0)
(129.956 0 0)
(130.832 0 0)
(131.71 0 0)
(132.588 0 0)
(133.464 0 0)
(134.326 0 0)
(135.168 0 0)
(135.981 0 0)
(136.765 0 0)
(137.513 0 0)
(138.224 0 0)
(138.897 0 0)
(139.535 0 0)
(140.139 0 0)
(140.72 0 0)
(141.286 0 0)
(141.861 0 0)
(142.459 0 0)
(143.097 0 0)
(143.777 0 0)
(144.508 0 0)
(145.29 0 0)
(146.125 0 0)
(147.006 0 0)
(147.933 0 0)
(148.902 0 0)
(149.911 0 0)
(150.952 0 0)
(152.022 0 0)
(153.118 0 0)
(154.221 0 0)
(156.207 0 0)
)
;

boundaryField
{
    sides
    {
        type            zeroGradient;
    }
    empty
    {
        type            empty;
    }
}


// ************************************************************************* //
