/*--------------------------------*- C++ -*----------------------------------*\
  =========                 |
  \\      /  F ield         | OpenFOAM: The Open Source CFD Toolbox
   \\    /   O peration     | Website:  https://openfoam.org
    \\  /    A nd           | Version:  9
     \\/     M anipulation  |
\*---------------------------------------------------------------------------*/
FoamFile
{
    format      ascii;
    class       volScalarField;
    location    "0.037";
    object      rho;
}
// * * * * * * * * * * * * * * * * * * * * * * * * * * * * * * * * * * * * * //

dimensions      [1 -3 0 0 0 0 0];

internalField   nonuniform List<scalar> 
10000
(
0.583718
0.583656
0.583619
0.583578
0.583538
0.583498
0.583458
0.583418
0.583378
0.583338
0.583297
0.583257
0.583217
0.583177
0.583137
0.583097
0.583057
0.583017
0.582977
0.582937
0.582897
0.582856
0.582816
0.582776
0.582736
0.582696
0.582656
0.582616
0.582576
0.582536
0.582495
0.582455
0.582415
0.582375
0.582335
0.582295
0.582255
0.582215
0.582175
0.582135
0.582095
0.582055
0.582015
0.581975
0.581935
0.581895
0.581855
0.581814
0.581774
0.581734
0.581694
0.581654
0.581614
0.581574
0.581534
0.581494
0.581454
0.581414
0.581374
0.581334
0.581294
0.581254
0.581214
0.581174
0.581134
0.581094
0.581054
0.581014
0.580974
0.580934
0.580894
0.580854
0.580814
0.580774
0.580734
0.580694
0.580654
0.580614
0.580575
0.580535
0.580495
0.580455
0.580415
0.580375
0.580335
0.580295
0.580255
0.580216
0.580176
0.580135
0.580095
0.580055
0.580015
0.579976
0.579936
0.579896
0.579856
0.579816
0.579776
0.579736
0.579696
0.579656
0.579616
0.579576
0.579537
0.579497
0.579457
0.579417
0.579377
0.579337
0.579297
0.579257
0.579217
0.579178
0.579138
0.579099
0.579058
0.579017
0.578976
0.578936
0.578898
0.578859
0.57882
0.57878
0.578739
0.578698
0.578658
0.578619
0.57858
0.57854
0.5785
0.578459
0.578419
0.578379
0.57834
0.578302
0.578263
0.578223
0.578181
0.578139
0.578098
0.578058
0.578022
0.577986
0.577946
0.577904
0.577861
0.577819
0.577778
0.577739
0.577703
0.577667
0.577627
0.577585
0.577542
0.5775
0.57746
0.577422
0.577389
0.577352
0.57731
0.577265
0.577221
0.577178
0.577141
0.577112
0.577078
0.577034
0.576988
0.576942
0.576899
0.576861
0.576833
0.576798
0.576754
0.576708
0.576663
0.57662
0.576587
0.576562
0.576522
0.576475
0.576428
0.576383
0.576341
0.576311
0.576288
0.576246
0.576198
0.576151
0.576103
0.576059
0.576024
0.576007
0.575973
0.575925
0.575877
0.575829
0.575783
0.575741
0.575714
0.575691
0.575648
0.5756
0.575553
0.575509
0.575473
0.57545
0.575412
0.575365
0.575318
0.575273
0.575234
0.575212
0.575179
0.575132
0.575084
0.575036
0.57499
0.574948
0.574923
0.574903
0.57486
0.574812
0.574763
0.574715
0.574669
0.57463
0.574611
0.574585
0.57454
0.574491
0.574442
0.574395
0.57435
0.574314
0.574297
0.574265
0.574218
0.57417
0.574123
0.57408
0.574047
0.574018
0.573977
0.573934
0.573893
0.573863
0.573834
0.573789
0.573742
0.573693
0.573646
0.573601
0.573563
0.573545
0.573517
0.573471
0.573422
0.573373
0.573326
0.573282
0.573247
0.57323
0.573196
0.573148
0.573099
0.57305
0.573002
0.572957
0.57292
0.572911
0.572897
0.572853
0.572803
0.572752
0.572705
0.57266
0.572626
0.572604
0.572565
0.572518
0.57247
0.572422
0.572377
0.572338
0.572318
0.572292
0.572247
0.572198
0.572148
0.572101
0.572055
0.572015
0.571995
0.571976
0.571933
0.571884
0.571835
0.571787
0.571741
0.571698
0.571667
0.571644
0.571608
0.571568
0.571531
0.571501
0.57146
0.571413
0.571365
0.571318
0.571272
0.571229
0.571201
0.571184
0.571145
0.571097
0.571048
0.570999
0.570952
0.570909
0.570877
0.570864
0.57083
0.570783
0.570732
0.570682
0.570634
0.570589
0.570552
0.570543
0.57053
0.570486
0.570436
0.570385
0.570337
0.570292
0.570254
0.570232
0.570199
0.570152
0.570104
0.570056
0.57001
0.569967
0.569935
0.569921
0.569885
0.569837
0.569788
0.569739
0.569692
0.569648
0.569613
0.569602
0.569573
0.569527
0.569477
0.569428
0.569382
0.569338
0.569306
0.569294
0.56926
0.569213
0.569164
0.569117
0.569072
0.569031
0.569007
0.568978
0.568933
0.568885
0.568837
0.568791
0.568747
0.568712
0.568698
0.568667
0.568621
0.568571
0.568522
0.568475
0.568431
0.568393
0.568378
0.568352
0.568306
0.568258
0.568209
0.568162
0.568118
0.568082
0.568067
0.568039
0.567993
0.567945
0.567897
0.567852
0.56781
0.567785
0.567762
0.567718
0.567671
0.567622
0.567575
0.56753
0.567489
0.567469
0.567453
0.567412
0.567364
0.567315
0.567268
0.567223
0.567184
0.567161
0.56713
0.567084
0.567037
0.566991
0.566946
0.566908
0.566889
0.56686
0.566815
0.566767
0.566719
0.566673
0.56663
0.566596
0.566581
0.566548
0.566501
0.566454
0.566407
0.566362
0.566325
0.566299
0.566262
0.566215
0.566169
0.566123
0.566082
0.566056
0.566033
0.565991
0.565944
0.565895
0.565848
0.565802
0.565761
0.565735
0.565723
0.565685
0.565637
0.565588
0.56554
0.565493
0.56545
0.565419
0.565405
0.56537
0.565324
0.565275
0.565226
0.56518
0.565133
0.565088
0.565049
0.565029
0.565033
0.565001
0.564954
0.564903
0.564854
0.564807
0.56476
0.564714
0.564672
0.56464
0.564627
0.564593
0.564547
0.564498
0.56445
0.564403
0.564359
0.56432
0.564302
0.564279
0.564236
0.564188
0.564141
0.564095
0.564051
0.564015
0.563995
0.56396
0.563915
0.563869
0.563825
0.563786
0.563751
0.563707
0.563661
0.563614
0.563568
0.563522
0.563481
0.563455
0.563466
0.563456
0.563412
0.563361
0.563299
0.563244
0.563197
0.563152
0.563113
0.563091
0.563062
0.563017
0.562969
0.562916
0.562863
0.562816
0.562771
0.562731
0.562711
0.56273
0.562721
0.562678
0.562626
0.56256
0.562488
0.562436
0.56239
0.562344
0.562303
0.562276
0.562291
0.562299
0.562261
0.562212
0.562152
0.562079
0.562023
0.561975
0.56193
0.561889
0.561861
0.561861
0.561834
0.561787
0.561735
0.561681
0.561633
0.561587
0.561546
0.561518
0.561508
0.561472
0.561426
0.561377
0.56133
0.561285
0.561242
0.56121
0.561184
0.561142
0.561096
0.561049
0.561002
0.560957
0.560916
0.560888
0.560887
0.560858
0.560812
0.56076
0.560705
0.560657
0.560612
0.560572
0.56055
0.560547
0.560512
0.560465
0.560413
0.560363
0.560317
0.560273
0.560237
0.560211
0.560172
0.560126
0.560079
0.560031
0.559985
0.559941
0.559903
0.55989
0.559902
0.559874
0.559828
0.559774
0.559713
0.559663
0.559617
0.559574
0.55954
0.559524
0.559491
0.559446
0.559398
0.559351
0.559306
0.559262
0.559227
0.559212
0.559185
0.559141
0.559094
0.559048
0.559002
0.558959
0.558924
0.558893
0.55885
0.558804
0.558759
0.558714
0.558673
0.558649
0.558636
0.558598
0.558551
0.558502
0.558455
0.558409
0.558366
0.55833
0.558313
0.558283
0.558238
0.558191
0.558142
0.558095
0.55805
0.55801
0.557985
0.557986
0.557956
0.557909
0.557856
0.557793
0.557741
0.557695
0.557651
0.557613
0.557601
0.557614
0.557588
0.557541
0.557488
0.55742
0.55736
0.557313
0.557267
0.557223
0.557185
0.557168
0.557174
0.557143
0.557096
0.557043
0.556983
0.556933
0.556888
0.556846
0.556816
0.556821
0.556811
0.556768
0.556719
0.556662
0.55661
0.556565
0.55652
0.55648
0.556453
0.556421
0.556378
0.556334
0.55629
0.55625
0.556221
0.556188
0.556144
0.556099
0.556053
0.556009
0.555967
0.555938
0.555927
0.555893
0.555847
0.5558
0.555753
0.555707
0.555664
0.555628
0.55561
0.555582
0.555538
0.555491
0.555445
0.5554
0.555357
0.555322
0.555303
0.555271
0.555226
0.555181
0.555135
0.555091
0.55505
0.55502
0.554989
0.554946
0.554901
0.554856
0.554812
0.554774
0.554753
0.55473
0.554688
0.554641
0.554593
0.554547
0.554502
0.55446
0.554426
0.55442
0.5544
0.554357
0.554309
0.554259
0.554213
0.554168
0.554128
0.554099
0.554072
0.55403
0.553984
0.553939
0.553895
0.553855
0.553828
0.553802
0.55376
0.553714
0.553669
0.553624
0.553582
0.553546
0.55353
0.553501
0.553457
0.553411
0.553365
0.553321
0.553278
0.553243
0.553209
0.553167
0.553122
0.553077
0.553032
0.552991
0.552959
0.552959
0.552945
0.552902
0.552853
0.5528
0.552751
0.552707
0.552664
0.55263
0.552611
0.552576
0.552532
0.552486
0.552441
0.552397
0.552357
0.552329
0.552307
0.552267
0.552222
0.552175
0.552129
0.552084
0.552039
0.551994
0.55195
0.55191
0.551881
0.551882
0.551862
0.551819
0.551772
0.551721
0.551668
0.551621
0.551576
0.551532
0.551492
0.551464
0.551469
0.55145
0.551406
0.551357
0.551303
0.551255
0.55121
0.551168
0.551133
0.551111
0.551076
0.551032
0.550987
0.550942
0.550897
0.550855
0.550816
0.550777
0.550734
0.55069
0.55065
0.550617
0.550608
0.550587
0.550543
0.550496
0.550442
0.550392
0.550347
0.550304
0.550268
0.550258
0.550268
0.550237
0.550191
0.550138
0.550078
0.550028
0.549983
0.54994
0.549903
0.549883
0.549856
0.549813
0.549768
0.549721
0.549674
0.549629
0.549584
0.54954
0.549496
0.549455
0.549424
0.549425
0.549412
0.549369
0.549323
0.54927
0.549216
0.549169
0.549125
0.549081
0.54904
0.549008
0.549007
0.548991
0.548948
0.548899
0.54884
0.548782
0.548735
0.548691
0.548652
0.548629
0.548639
0.548621
0.548577
0.548527
0.548461
0.548392
0.548342
0.548297
0.548255
0.548221
0.548217
0.548246
0.548228
0.548184
0.548133
0.548066
0.547987
0.547932
0.547886
0.547843
0.547803
0.547775
0.547784
0.547784
0.547745
0.547698
0.547642
0.547585
0.547538
0.547493
0.547452
0.547419
0.547405
0.547377
0.547333
0.547287
0.547242
0.547198
0.547156
0.547119
0.547092
0.547054
0.54701
0.546965
0.54692
0.546875
0.546831
0.546788
0.54675
0.546732
0.546723
0.546686
0.54664
0.546591
0.546538
0.546491
0.546446
0.546402
0.546358
0.546315
0.546278
0.546261
0.546283
0.546275
0.546233
0.546185
0.546123
0.546045
0.545987
0.545942
0.545898
0.545858
0.54583
0.545841
0.545853
0.545819
0.545772
0.545719
0.545649
0.545589
0.545542
0.545498
0.545454
0.545412
0.545376
0.545364
0.545368
0.545336
0.54529
0.545239
0.545181
0.545132
0.545087
0.545043
0.545002
0.544968
0.544957
0.544936
0.544893
0.544848
0.544798
0.544751
0.544707
0.544664
0.544626
0.544608
0.5446
0.544564
0.544519
0.544469
0.544415
0.544367
0.544323
0.544279
0.544235
0.544191
0.544147
0.544104
0.544067
0.544044
0.544065
0.544077
0.544043
0.543997
0.543944
0.543876
0.543813
0.543766
0.543722
0.543679
0.54364
0.543616
0.543602
0.543565
0.54352
0.543475
0.54343
0.543386
0.543344
0.543308
0.543279
0.54324
0.543197
0.543152
0.543108
0.543065
0.543026
0.542998
0.543002
0.542987
0.542944
0.542898
0.542845
0.542798
0.542754
0.542711
0.542671
0.542637
0.542596
0.542552
0.542508
0.542462
0.542417
0.542373
0.542329
0.542289
0.542256
0.542255
0.542269
0.542239
0.542194
0.542143
0.542082
0.542029
0.541985
0.541941
0.5419
0.541867
0.541846
0.54181
0.541767
0.541723
0.541679
0.541637
0.541597
0.541564
0.541525
0.541482
0.541438
0.541394
0.54135
0.541308
0.541272
0.541255
0.541278
0.541271
0.541231
0.541184
0.541128
0.541064
0.541014
0.540969
0.540925
0.540882
0.540838
0.540795
0.540751
0.540708
0.540668
0.540636
0.540632
0.540641
0.540609
0.540565
0.540515
0.540452
0.54039
0.540342
0.540299
0.540255
0.540211
0.540168
0.540125
0.540083
0.540048
0.540036
0.540069
0.540071
0.540033
0.539986
0.539931
0.539858
0.539799
0.539753
0.539709
0.539668
0.53963
0.539609
0.539588
0.539548
0.539504
0.539458
0.539411
0.539367
0.539324
0.539285
0.539256
0.53926
0.539246
0.539205
0.539158
0.539106
0.539058
0.539014
0.538971
0.538932
0.538899
0.53886
0.538817
0.538773
0.538725
0.538673
0.538626
0.538583
0.53854
0.538501
0.538473
0.538484
0.538512
0.538487
0.538444
0.538395
0.538331
0.538267
0.538219
0.538176
0.538133
0.538094
0.538066
0.538046
0.538009
0.537965
0.537922
0.537878
0.537835
0.537794
0.537758
0.53773
0.537692
0.537649
0.537605
0.537562
0.537521
0.537486
0.537472
0.537453
0.537413
0.537369
0.537323
0.537278
0.537235
0.537193
0.537155
0.537128
0.537099
0.537058
0.537015
0.536972
0.53693
0.536894
0.536865
0.536827
0.536784
0.53674
0.536696
0.536652
0.536608
0.536567
0.536529
0.536509
0.536526
0.536518
0.536477
0.536431
0.536373
0.536294
0.536231
0.536185
0.536142
0.5361
0.536061
0.536032
0.536039
0.536057
0.536027
0.535983
0.535933
0.535866
0.535797
0.535748
0.535705
0.535662
0.535622
0.535591
0.53559
0.535586
0.535548
0.535503
0.535454
0.535407
0.535364
0.535322
0.535284
0.535255
0.53522
0.535178
0.535135
0.53509
0.535045
0.535002
0.53496
0.534921
0.534896
0.534899
0.534877
0.534834
0.534787
0.534733
0.534685
0.534641
0.5346
0.534561
0.534536
0.534511
0.534471
0.534428
0.534383
0.534338
0.534294
0.534252
0.534213
0.534185
0.53419
0.534182
0.534142
0.534097
0.534045
0.533992
0.533947
0.533904
0.533862
0.533821
0.533782
0.533742
0.533699
0.533657
0.533615
0.533575
0.533542
0.533533
0.533514
0.533473
0.533429
0.533379
0.53333
0.533286
0.533243
0.533203
0.533171
0.533167
0.53316
0.533122
0.533078
0.533027
0.532971
0.532924
0.532881
0.532838
0.532795
0.532753
0.532712
0.532673
0.532634
0.532597
0.532563
0.532544
0.532556
0.532537
0.532495
0.532449
0.532392
0.532329
0.532281
0.532239
0.532197
0.532162
0.532148
0.53216
0.532134
0.532091
0.532042
0.531976
0.531898
0.531846
0.531802
0.53176
0.531722
0.531695
0.531707
0.531727
0.531698
0.531654
0.531604
0.531536
0.531454
0.531399
0.531356
0.531313
0.531273
0.531239
0.53123
0.53126
0.531252
0.531212
0.531167
0.531111
0.531039
0.530982
0.530937
0.530894
0.530853
0.530815
0.530792
0.530795
0.53077
0.530728
0.530682
0.530631
0.530584
0.530541
0.530498
0.530456
0.530416
0.530383
0.530362
0.530329
0.530287
0.530244
0.530201
0.530158
0.530115
0.530073
0.53003
0.529988
0.529947
0.52991
0.52989
0.529902
0.529886
0.529845
0.529799
0.529745
0.529692
0.529648
0.529606
0.529566
0.529535
0.529523
0.529496
0.529454
0.529409
0.529356
0.529289
0.529235
0.529192
0.52915
0.529109
0.529073
0.529057
0.529083
0.529086
0.52905
0.529006
0.528954
0.528887
0.528828
0.528783
0.528741
0.5287
0.528664
0.528646
0.528648
0.528619
0.528576
0.528528
0.528472
0.528421
0.528377
0.528336
0.528298
0.528271
0.528272
0.528249
0.528207
0.528161
0.528102
0.528034
0.527985
0.527942
0.5279
0.527862
0.527836
0.527847
0.527854
0.52782
0.527777
0.527727
0.527664
0.527608
0.527564
0.527521
0.52748
0.527442
0.527414
0.527385
0.527345
0.527303
0.527261
0.527219
0.527179
0.527143
0.527124
0.527142
0.527135
0.527096
0.527051
0.526998
0.526923
0.526857
0.526811
0.526768
0.526726
0.526684
0.526642
0.526601
0.52656
0.526523
0.526502
0.526521
0.526537
0.526506
0.526463
0.526415
0.526354
0.526295
0.52625
0.526208
0.526167
0.526127
0.526094
0.526062
0.526023
0.525981
0.525939
0.525897
0.525855
0.525813
0.525775
0.525745
0.525739
0.525718
0.525677
0.525633
0.525582
0.525522
0.525474
0.525431
0.52539
0.52535
0.525317
0.525308
0.525327
0.525305
0.525264
0.525219
0.525166
0.525114
0.52507
0.525028
0.524987
0.524946
0.524905
0.524863
0.524821
0.524778
0.524734
0.524691
0.524649
0.524608
0.524572
0.524548
0.524562
0.524569
0.524535
0.524491
0.524442
0.524376
0.524312
0.524266
0.524224
0.524183
0.524146
0.524121
0.524131
0.52413
0.524093
0.52405
0.524001
0.523939
0.523884
0.52384
0.523797
0.523755
0.523713
0.523671
0.523629
0.523587
0.523546
0.523504
0.523464
0.523428
0.523408
0.523427
0.523426
0.52339
0.523346
0.523296
0.523228
0.523163
0.523117
0.523075
0.523034
0.522995
0.522964
0.522961
0.522956
0.52292
0.522877
0.52283
0.522784
0.522742
0.522701
0.522664
0.522639
0.522627
0.522594
0.522552
0.522507
0.522456
0.522407
0.522364
0.522323
0.522282
0.522246
0.522218
0.522183
0.522142
0.522101
0.522059
0.522018
0.521977
0.521941
0.521917
0.521925
0.521911
0.521872
0.521828
0.521777
0.521721
0.521675
0.521634
0.521593
0.521557
0.521534
0.521534
0.521506
0.521464
0.52142
0.521365
0.521308
0.521262
0.52122
0.521179
0.521138
0.521096
0.521055
0.521013
0.520972
0.520931
0.52089
0.520854
0.520831
0.520849
0.520861
0.520829
0.520787
0.52074
0.520682
0.520623
0.520578
0.520537
0.520496
0.520455
0.520417
0.52038
0.52034
0.520299
0.520257
0.520216
0.520175
0.520134
0.520098
0.520072
0.520079
0.520069
0.52003
0.519987
0.519937
0.519874
0.519824
0.519781
0.51974
0.519702
0.51967
0.519666
0.519663
0.519628
0.519585
0.519537
0.519473
0.519414
0.51937
0.519328
0.519288
0.519252
0.519231
0.51924
0.519222
0.519181
0.519137
0.519083
0.519017
0.518965
0.518923
0.518882
0.518843
0.51881
0.518802
0.518819
0.518796
0.518755
0.518711
0.518658
0.518603
0.518558
0.518517
0.518477
0.518438
0.518406
0.518381
0.518345
0.518304
0.518263
0.518222
0.518182
0.518148
0.518128
0.518105
0.518067
0.518025
0.517982
0.517934
0.517887
0.517845
0.517804
0.517765
0.51773
0.517715
0.517715
0.517683
0.517642
0.517597
0.517547
0.517502
0.517461
0.517421
0.517383
0.517355
0.517332
0.517295
0.517254
0.517212
0.517168
0.517126
0.517085
0.517044
0.517007
0.516978
0.516975
0.516959
0.51692
0.516878
0.516831
0.51678
0.516736
0.516695
0.516654
0.516614
0.516573
0.516534
0.516495
0.516455
0.516414
0.516375
0.516338
0.516313
0.51632
0.516311
0.516273
0.516231
0.516183
0.516129
0.516084
0.516043
0.516003
0.515966
0.51594
0.515917
0.51588
0.515838
0.515795
0.515744
0.515685
0.515638
0.515596
0.515556
0.515519
0.51549
0.515495
0.515522
0.5155
0.51546
0.515416
0.515362
0.515288
0.515224
0.51518
0.515139
0.515098
0.515057
0.515016
0.514976
0.514935
0.514895
0.51486
0.514837
0.514855
0.514891
0.51487
0.51483
0.514786
0.514734
0.514661
0.514594
0.514549
0.514508
0.514467
0.514426
0.514386
0.514346
0.514308
0.514274
0.514238
0.514199
0.514159
0.514123
0.514094
0.514094
0.514095
0.514061
0.514019
0.513973
0.513914
0.513848
0.5138
0.513759
0.513719
0.51368
0.513646
0.513631
0.513636
0.513608
0.513567
0.513523
0.513468
0.513408
0.513362
0.513321
0.513281
0.513243
0.513213
0.513213
0.513215
0.513182
0.51314
0.513094
0.513036
0.512979
0.512936
0.512895
0.512855
0.512819
0.512793
0.512791
0.512768
0.512728
0.512686
0.512637
0.512584
0.51254
0.5125
0.51246
0.512425
0.512403
0.512407
0.512383
0.512343
0.5123
0.512248
0.512188
0.512141
0.512101
0.512061
0.512023
0.511993
0.511986
0.51197
0.511932
0.51189
0.511844
0.511789
0.511743
0.511702
0.511662
0.511624
0.511595
0.511591
0.511574
0.511535
0.511493
0.511445
0.511386
0.511337
0.511295
0.511255
0.511217
0.511184
0.511175
0.511188
0.511165
0.511125
0.511082
0.511032
0.510981
0.510938
0.510898
0.510857
0.510818
0.51078
0.510743
0.510703
0.510663
0.510623
0.510583
0.510543
0.510503
0.510468
0.510442
0.510446
0.510432
0.510394
0.510352
0.510305
0.510253
0.510208
0.510168
0.510128
0.510091
0.510063
0.510061
0.510049
0.510011
0.509969
0.509923
0.509864
0.509809
0.509766
0.509726
0.509685
0.509645
0.509605
0.509565
0.509525
0.509485
0.509445
0.509405
0.509366
0.509332
0.509312
0.509328
0.509325
0.509289
0.509248
0.509203
0.509145
0.509091
0.509048
0.509008
0.508968
0.508929
0.508893
0.508863
0.508827
0.508788
0.508748
0.508708
0.508668
0.508629
0.508594
0.508574
0.508583
0.508569
0.508531
0.508489
0.508443
0.508384
0.508331
0.508289
0.508248
0.508208
0.508168
0.508128
0.508089
0.508049
0.508009
0.507971
0.507939
0.507927
0.50795
0.50794
0.507903
0.507861
0.507815
0.507751
0.507676
0.507626
0.507585
0.507544
0.507505
0.507465
0.507425
0.507385
0.507345
0.507306
0.507269
0.507241
0.507241
0.507268
0.507249
0.50721
0.507168
0.50712
0.507061
0.50701
0.506968
0.506929
0.506889
0.506851
0.506817
0.506787
0.50675
0.506711
0.506671
0.506631
0.506592
0.506552
0.506515
0.506484
0.506478
0.506489
0.506462
0.506422
0.50638
0.50633
0.50627
0.506223
0.506182
0.506143
0.506103
0.506065
0.506031
0.506006
0.505973
0.505934
0.505894
0.505854
0.505812
0.505764
0.505715
0.505673
0.505633
0.505594
0.505554
0.505515
0.505476
0.505443
0.505428
0.505454
0.505464
0.505432
0.505391
0.505347
0.505292
0.505215
0.505156
0.505113
0.505074
0.505034
0.504997
0.504966
0.50496
0.50498
0.50496
0.504921
0.504879
0.50483
0.504762
0.504693
0.504647
0.504606
0.504567
0.504527
0.504488
0.504449
0.504412
0.504382
0.504378
0.504402
0.504385
0.504347
0.504305
0.504257
0.504191
0.504114
0.504064
0.504023
0.503984
0.503945
0.503906
0.503873
0.503854
0.503873
0.503874
0.50384
0.5038
0.503756
0.503699
0.503628
0.503578
0.503537
0.503498
0.503459
0.503424
0.503401
0.503412
0.503417
0.503385
0.503345
0.503301
0.503248
0.503181
0.503131
0.50309
0.50305
0.503011
0.502972
0.502932
0.502894
0.502858
0.502831
0.50282
0.502792
0.502753
0.502714
0.502673
0.502632
0.502592
0.502553
0.502513
0.502474
0.502435
0.502397
0.502363
0.502341
0.50235
0.50234
0.502303
0.502263
0.50222
0.502166
0.50211
0.502067
0.502028
0.501988
0.501949
0.50191
0.501871
0.501831
0.501793
0.501757
0.501729
0.50173
0.501736
0.501706
0.501666
0.501624
0.501573
0.501501
0.501436
0.501392
0.501353
0.501314
0.501274
0.501236
0.501202
0.501179
0.501193
0.501204
0.501174
0.501135
0.501092
0.501041
0.500965
0.500893
0.500847
0.500807
0.500768
0.500729
0.50069
0.500654
0.500622
0.500614
0.500651
0.500658
0.500625
0.500586
0.500543
0.500492
0.500424
0.500369
0.500328
0.500288
0.500249
0.50021
0.500171
0.500133
0.500096
0.50006
0.500022
0.499984
0.499945
0.499908
0.499875
0.499857
0.49987
0.499858
0.499821
0.499781
0.499738
0.499686
0.499624
0.499576
0.499535
0.499496
0.499457
0.499418
0.499379
0.49934
0.499301
0.499262
0.499223
0.499185
0.499148
0.499118
0.499112
0.499131
0.499111
0.499073
0.499032
0.498986
0.49892
0.498842
0.498792
0.498751
0.498712
0.498674
0.498637
0.498607
0.498603
0.498617
0.498593
0.498554
0.498514
0.498467
0.498411
0.498364
0.498324
0.498285
0.498247
0.498213
0.49819
0.498186
0.49816
0.498122
0.498081
0.498037
0.497983
0.497937
0.497897
0.497859
0.497821
0.497788
0.497771
0.497766
0.497736
0.497697
0.497656
0.497608
0.497551
0.497506
0.497466
0.497428
0.49739
0.497358
0.497342
0.497357
0.497342
0.497304
0.497265
0.497221
0.497165
0.497104
0.49706
0.49702
0.496982
0.496943
0.496904
0.496866
0.496827
0.496789
0.496753
0.496725
0.496723
0.49674
0.496717
0.496679
0.496638
0.496593
0.49653
0.49646
0.496413
0.496373
0.496334
0.496296
0.496257
0.496219
0.496181
0.496148
0.49613
0.496143
0.496133
0.496097
0.496058
0.496016
0.495964
0.495899
0.49585
0.495809
0.49577
0.495732
0.495693
0.495655
0.495616
0.495578
0.495539
0.495502
0.495469
0.495452
0.495459
0.495438
0.495401
0.495361
0.495317
0.495266
0.495219
0.495179
0.495141
0.495103
0.495068
0.495042
0.49504
0.49502
0.494983
0.494944
0.494901
0.49485
0.494802
0.494762
0.494724
0.494686
0.49465
0.494622
0.494618
0.494609
0.494574
0.494535
0.494494
0.494446
0.494392
0.494347
0.494308
0.49427
0.494231
0.494193
0.494155
0.494116
0.494078
0.49404
0.494003
0.493973
0.493962
0.493968
0.493942
0.493904
0.493864
0.49382
0.493772
0.493731
0.493693
0.493655
0.493617
0.493582
0.493547
0.493509
0.49347
0.493431
0.49339
0.493341
0.493293
0.493252
0.493214
0.493176
0.49314
0.493111
0.493108
0.493131
0.493113
0.493076
0.493036
0.492992
0.492936
0.492873
0.492829
0.49279
0.492752
0.492714
0.49268
0.492654
0.492657
0.492653
0.49262
0.492581
0.492541
0.492495
0.492439
0.492393
0.492354
0.492315
0.492277
0.492238
0.4922
0.492161
0.492119
0.492073
0.492029
0.49199
0.491952
0.491913
0.491875
0.491838
0.491804
0.491779
0.491789
0.491816
0.491795
0.491758
0.491718
0.491676
0.491621
0.491555
0.491508
0.491468
0.49143
0.491392
0.491353
0.491315
0.491277
0.491239
0.4912
0.491161
0.49112
0.491081
0.491042
0.491005
0.490967
0.490931
0.490901
0.490891
0.490916
0.490906
0.490871
0.490832
0.49079
0.490738
0.490668
0.490614
0.490573
0.490535
0.490497
0.490461
0.490428
0.490409
0.490405
0.490377
0.490339
0.4903
0.490258
0.49021
0.490168
0.49013
0.490092
0.490056
0.490023
0.490005
0.489994
0.489962
0.489924
0.489884
0.489841
0.489789
0.489744
0.489705
0.489667
0.48963
0.489596
0.489572
0.489564
0.489538
0.489501
0.489462
0.489421
0.489375
0.489331
0.489292
0.489254
0.489217
0.489182
0.489156
0.489148
0.489125
0.489089
0.48905
0.489011
0.488971
0.488931
0.488893
0.488855
0.488818
0.488781
0.488745
0.488707
0.488669
0.488631
0.488593
0.488553
0.488513
0.488475
0.488437
0.4884
0.488363
0.488331
0.488315
0.488332
0.488326
0.488292
0.488254
0.488213
0.488166
0.488098
0.488035
0.487992
0.487953
0.487916
0.487878
0.48784
0.487803
0.487769
0.487742
0.487741
0.487731
0.487697
0.487659
0.48762
0.487574
0.487518
0.487472
0.487433
0.487395
0.487358
0.487322
0.48729
0.487273
0.487262
0.48723
0.487192
0.487154
0.487113
0.487067
0.487025
0.486987
0.48695
0.486913
0.486879
0.486857
0.486863
0.486851
0.486816
0.486778
0.486738
0.486692
0.486632
0.486581
0.486541
0.486503
0.486466
0.486428
0.48639
0.486353
0.486315
0.486278
0.486241
0.486205
0.486172
0.486155
0.486168
0.486159
0.486124
0.486086
0.486047
0.486003
0.485949
0.485899
0.485859
0.485822
0.485784
0.485746
0.485709
0.485671
0.485634
0.485597
0.485559
0.485522
0.485486
0.485455
0.485441
0.485439
0.48541
0.485373
0.485334
0.485293
0.485241
0.485182
0.485138
0.4851
0.485062
0.485025
0.484989
0.484955
0.484929
0.484931
0.484924
0.484891
0.484853
0.484814
0.48477
0.484714
0.484665
0.484626
0.484589
0.484551
0.484515
0.484481
0.484458
0.484455
0.484434
0.484398
0.48436
0.484321
0.484279
0.484238
0.4842
0.484163
0.484126
0.48409
0.484058
0.48403
0.483996
0.483959
0.483922
0.483885
0.483848
0.483811
0.483775
0.483743
0.48371
0.483674
0.483637
0.4836
0.483563
0.483525
0.483488
0.483452
0.483417
0.483389
0.483382
0.483368
0.483334
0.483297
0.483259
0.483217
0.483166
0.483116
0.483076
0.483038
0.483001
0.482964
0.482927
0.48289
0.482854
0.482822
0.482801
0.48279
0.482759
0.482722
0.482685
0.482647
0.482606
0.482564
0.482526
0.482488
0.482452
0.482415
0.482382
0.482359
0.482356
0.482334
0.482298
0.482261
0.482223
0.482181
0.482133
0.482087
0.482048
0.482011
0.481974
0.481937
0.4819
0.481862
0.481825
0.481788
0.481751
0.481714
0.481678
0.481642
0.481611
0.481594
0.48159
0.481562
0.481525
0.481487
0.481448
0.481403
0.48136
0.481322
0.481285
0.481249
0.481214
0.481185
0.481177
0.481167
0.481134
0.481097
0.481059
0.481016
0.48096
0.480898
0.480854
0.480816
0.480779
0.480742
0.480705
0.480669
0.480632
0.480597
0.480567
0.480554
0.480561
0.480537
0.480501
0.480463
0.480424
0.480378
0.48033
0.48029
0.480253
0.480216
0.48018
0.480146
0.480122
0.480104
0.480072
0.480035
0.479998
0.479961
0.479922
0.479884
0.479847
0.47981
0.479774
0.479741
0.479718
0.479703
0.479672
0.479635
0.479598
0.47956
0.479518
0.479472
0.479432
0.479395
0.479359
0.479322
0.479287
0.479257
0.479235
0.479204
0.479168
0.479131
0.479094
0.479056
0.479018
0.47898
0.478943
0.478906
0.47887
0.478835
0.478805
0.478792
0.478797
0.478773
0.478737
0.4787
0.478661
0.478618
0.47856
0.478501
0.478459
0.478421
0.478385
0.478348
0.478311
0.478274
0.478238
0.478201
0.478165
0.478128
0.478092
0.478057
0.478028
0.478018
0.478009
0.477976
0.47794
0.477902
0.477863
0.477816
0.47777
0.477732
0.477695
0.477659
0.477624
0.477593
0.477579
0.477579
0.477551
0.477515
0.477478
0.477438
0.47739
0.477337
0.477296
0.477259
0.477223
0.477187
0.477154
0.47713
0.47712
0.477093
0.477057
0.47702
0.476983
0.47694
0.476893
0.476853
0.476816
0.476779
0.476743
0.47671
0.476685
0.476675
0.476651
0.476616
0.476579
0.476543
0.476506
0.476469
0.476433
0.476397
0.476361
0.476329
0.476301
0.476266
0.47623
0.476194
0.476156
0.476117
0.476072
0.476024
0.475985
0.475948
0.475912
0.475875
0.47584
0.475809
0.47579
0.475803
0.475798
0.475765
0.475729
0.475692
0.475652
0.475604
0.475541
0.475492
0.475453
0.475417
0.47538
0.475344
0.475308
0.475271
0.475235
0.475199
0.475162
0.475127
0.475095
0.475072
0.475078
0.475071
0.475038
0.475002
0.474965
0.474924
0.474873
0.474801
0.474746
0.474707
0.47467
0.474633
0.474597
0.474561
0.474525
0.474492
0.474465
0.474462
0.474488
0.474474
0.47444
0.474404
0.474366
0.474324
0.474267
0.474188
0.474131
0.474092
0.474055
0.474019
0.473983
0.473947
0.473914
0.473886
0.473883
0.473902
0.473882
0.473848
0.473811
0.473773
0.473731
0.473674
0.473616
0.473575
0.473538
0.473502
0.473466
0.473431
0.473401
0.473388
0.473393
0.473369
0.473333
0.473297
0.473259
0.473218
0.473166
0.473109
0.473067
0.47303
0.472994
0.472958
0.472922
0.472886
0.47285
0.472813
0.472777
0.472742
0.472706
0.472674
0.47265
0.472652
0.472645
0.472613
0.472577
0.472541
0.472502
0.472459
0.472417
0.47238
0.472344
0.472309
0.472274
0.472244
0.472225
0.472199
0.472165
0.472129
0.472092
0.472054
0.472008
0.471945
0.471888
0.471848
0.471811
0.471775
0.471739
0.471703
0.471667
0.471631
0.471596
0.471563
0.471538
0.471541
0.471557
0.471534
0.471499
0.471463
0.471425
0.471383
0.471328
0.471276
0.471236
0.4712
0.471164
0.471129
0.471095
0.471068
0.471061
0.471048
0.471015
0.470979
0.470942
0.470903
0.470857
0.470799
0.470754
0.470716
0.47068
0.470645
0.470609
0.470574
0.470543
0.470523
0.470534
0.470533
0.470502
0.470466
0.47043
0.470392
0.470347
0.470282
0.470213
0.470169
0.470132
0.470096
0.47006
0.470024
0.469988
0.469953
0.469917
0.469882
0.469848
0.469821
0.469814
0.46982
0.469796
0.46976
0.469724
0.469687
0.469644
0.469586
0.469528
0.469488
0.469451
0.469416
0.469381
0.469348
0.469323
0.469325
0.469343
0.469321
0.469287
0.469251
0.469213
0.46917
0.46911
0.469025
0.468969
0.46893
0.468894
0.468858
0.468823
0.468788
0.468754
0.468727
0.468722
0.46875
0.468741
0.468709
0.468673
0.468637
0.468598
0.468553
0.468493
0.468445
0.468408
0.468372
0.468336
0.468301
0.468266
0.468231
0.468197
0.468161
0.468126
0.46809
0.468054
0.468016
0.467977
0.46794
0.467905
0.467869
0.467834
0.467801
0.467773
0.467765
0.467764
0.467735
0.4677
0.467664
0.467627
0.467587
0.467542
0.467503
0.467467
0.467432
0.467396
0.467361
0.467329
0.467302
0.467272
0.467238
0.467203
0.467167
0.467132
0.467096
0.467061
0.467026
0.466992
0.466962
0.466931
0.466897
0.466862
0.466826
0.46679
0.466754
0.466713
0.466668
0.46663
0.466594
0.466559
0.466524
0.466489
0.466458
0.466436
0.466435
0.466414
0.46638
0.466345
0.466309
0.466271
0.46623
0.46619
0.466155
0.466119
0.466084
0.46605
0.466021
0.466001
0.465975
0.465941
0.465906
0.46587
0.465833
0.465792
0.465739
0.465689
0.465651
0.465615
0.46558
0.465545
0.46551
0.465477
0.46545
0.465447
0.46547
0.465456
0.465423
0.465387
0.465352
0.465313
0.465268
0.465199
0.465118
0.465071
0.465033
0.464998
0.464962
0.464927
0.464892
0.464857
0.464822
0.464787
0.464754
0.464728
0.464724
0.464739
0.464718
0.464684
0.464649
0.464613
0.464575
0.464528
0.464476
0.464435
0.464399
0.464364
0.464329
0.464296
0.464267
0.464253
0.464248
0.464219
0.464184
0.464149
0.464113
0.464072
0.46402
0.463954
0.463908
0.463871
0.463836
0.463801
0.463765
0.46373
0.463696
0.463661
0.46363
0.463606
0.463608
0.463602
0.463571
0.463537
0.463501
0.463466
0.463429
0.463391
0.463355
0.46332
0.463285
0.46325
0.463217
0.463183
0.463148
0.463113
0.463078
0.463042
0.463004
0.462957
0.462907
0.462867
0.462832
0.462797
0.462762
0.462728
0.462698