/*--------------------------------*- C++ -*----------------------------------*\
  =========                 |
  \\      /  F ield         | OpenFOAM: The Open Source CFD Toolbox
   \\    /   O peration     | Website:  https://openfoam.org
    \\  /    A nd           | Version:  9
     \\/     M anipulation  |
\*---------------------------------------------------------------------------*/
FoamFile
{
    format      ascii;
    class       volScalarField;
    location    "0.037";
    object      T;
}
// * * * * * * * * * * * * * * * * * * * * * * * * * * * * * * * * * * * * * //

dimensions      [0 0 0 1 0 0 0];

internalField   nonuniform List<scalar> 
10000
(
280.971
280.959
280.952
280.944
280.936
280.928
280.921
280.913
280.905
280.897
280.89
280.882
280.874
280.866
280.859
280.851
280.843
280.836
280.828
280.82
280.812
280.805
280.797
280.789
280.781
280.774
280.766
280.758
280.75
280.743
280.735
280.727
280.72
280.712
280.704
280.696
280.689
280.681
280.673
280.665
280.658
280.65
280.642
280.635
280.627
280.619
280.611
280.604
280.596
280.588
280.58
280.573
280.565
280.557
280.549
280.542
280.534
280.526
280.519
280.511
280.503
280.495
280.488
280.48
280.472
280.465
280.457
280.449
280.441
280.434
280.426
280.418
280.41
280.403
280.395
280.387
280.38
280.372
280.364
280.356
280.349
280.341
280.333
280.325
280.318
280.31
280.302
280.295
280.287
280.279
280.271
280.264
280.256
280.248
280.241
280.233
280.225
280.217
280.21
280.202
280.194
280.187
280.179
280.171
280.163
280.156
280.148
280.14
280.133
280.125
280.117
280.109
280.102
280.094
280.086
280.079
280.071
280.063
280.055
280.047
280.04
280.032
280.025
280.017
280.009
280.001
279.993
279.986
279.978
279.971
279.963
279.955
279.947
279.939
279.932
279.924
279.917
279.909
279.901
279.893
279.885
279.877
279.87
279.863
279.855
279.847
279.839
279.831
279.823
279.815
279.808
279.801
279.794
279.785
279.777
279.769
279.761
279.754
279.747
279.74
279.732
279.723
279.715
279.707
279.699
279.694
279.687
279.679
279.67
279.661
279.652
279.645
279.64
279.633
279.624
279.615
279.606
279.598
279.592
279.587
279.579
279.57
279.561
279.552
279.544
279.538
279.534
279.526
279.516
279.507
279.498
279.489
279.483
279.479
279.473
279.463
279.454
279.445
279.436
279.428
279.422
279.418
279.41
279.4
279.391
279.382
279.376
279.371
279.364
279.354
279.345
279.337
279.329
279.325
279.318
279.309
279.3
279.291
279.282
279.273
279.269
279.265
279.256
279.247
279.237
279.228
279.219
279.212
279.208
279.203
279.194
279.185
279.175
279.166
279.157
279.15
279.147
279.141
279.132
279.122
279.113
279.105
279.098
279.093
279.085
279.076
279.068
279.063
279.057
279.048
279.039
279.029
279.02
279.011
279.004
279.001
278.995
278.986
278.977
278.967
278.958
278.949
278.942
278.939
278.933
278.923
278.914
278.904
278.895
278.886
278.879
278.877
278.874
278.866
278.856
278.846
278.837
278.828
278.821
278.817
278.81
278.8
278.791
278.782
278.773
278.765
278.762
278.756
278.748
278.738
278.728
278.719
278.71
278.702
278.699
278.695
278.686
278.677
278.667
278.658
278.649
278.641
278.635
278.63
278.623
278.615
278.608
278.602
278.594
278.585
278.576
278.566
278.557
278.549
278.544
278.54
278.533
278.523
278.514
278.504
278.495
278.487
278.48
278.478
278.471
278.462
278.452
278.442
278.433
278.424
278.417
278.415
278.413
278.404
278.394
278.384
278.375
278.366
278.359
278.354
278.348
278.339
278.329
278.32
278.311
278.303
278.296
278.294
278.287
278.277
278.268
278.258
278.249
278.24
278.233
278.231
278.226
278.217
278.207
278.197
278.188
278.18
278.173
278.171
278.164
278.155
278.146
278.136
278.128
278.12
278.115
278.109
278.1
278.091
278.082
278.073
278.064
278.057
278.055
278.048
278.039
278.03
278.02
278.011
278.002
277.995
277.992
277.987
277.978
277.968
277.959
277.95
277.941
277.934
277.931
277.925
277.916
277.907
277.898
277.889
277.881
277.876
277.871
277.863
277.853
277.844
277.835
277.826
277.818
277.814
277.811
277.803
277.793
277.784
277.774
277.766
277.758
277.754
277.747
277.738
277.729
277.72
277.711
277.704
277.7
277.694
277.686
277.676
277.667
277.658
277.649
277.643
277.64
277.633
277.624
277.615
277.606
277.597
277.589
277.584
277.577
277.568
277.559
277.55
277.542
277.537
277.532
277.524
277.515
277.505
277.496
277.487
277.479
277.474
277.471
277.464
277.455
277.445
277.435
277.426
277.418
277.412
277.409
277.402
277.393
277.383
277.374
277.365
277.356
277.347
277.339
277.335
277.336
277.33
277.32
277.31
277.301
277.291
277.282
277.273
277.265
277.259
277.256
277.25
277.24
277.231
277.221
277.212
277.203
277.196
277.192
277.188
277.179
277.17
277.161
277.151
277.143
277.136
277.132
277.125
277.116
277.107
277.098
277.091
277.084
277.075
277.066
277.057
277.048
277.039
277.031
277.026
277.028
277.026
277.017
277.007
276.995
276.984
276.975
276.966
276.958
276.954
276.948
276.939
276.93
276.919
276.909
276.9
276.891
276.883
276.879
276.883
276.881
276.873
276.862
276.849
276.835
276.825
276.816
276.807
276.799
276.794
276.796
276.798
276.791
276.781
276.769
276.755
276.744
276.734
276.725
276.717
276.712
276.712
276.706
276.697
276.687
276.676
276.667
276.658
276.65
276.644
276.642
276.635
276.626
276.616
276.607
276.598
276.59
276.583
276.578
276.57
276.561
276.552
276.542
276.533
276.525
276.52
276.52
276.514
276.505
276.495
276.484
276.474
276.465
276.457
276.453
276.453
276.446
276.436
276.426
276.416
276.407
276.398
276.391
276.386
276.379
276.369
276.36
276.351
276.342
276.333
276.325
276.323
276.325
276.32
276.31
276.3
276.288
276.278
276.269
276.26
276.254
276.25
276.244
276.235
276.226
276.216
276.207
276.199
276.192
276.189
276.184
276.175
276.166
276.156
276.147
276.139
276.132
276.126
276.117
276.108
276.099
276.09
276.082
276.077
276.075
276.067
276.058
276.049
276.039
276.03
276.021
276.014
276.011
276.005
275.996
275.987
275.977
275.968
275.959
275.951
275.946
275.946
275.94
275.931
275.921
275.908
275.898
275.889
275.88
275.873
275.87
275.873
275.867
275.858
275.848
275.834
275.822
275.813
275.804
275.795
275.788
275.784
275.786
275.779
275.77
275.76
275.748
275.738
275.729
275.721
275.715
275.716
275.714
275.705
275.695
275.684
275.674
275.665
275.656
275.648
275.643
275.636
275.628
275.619
275.61
275.602
275.597
275.59
275.581
275.572
275.563
275.555
275.546
275.541
275.538
275.532
275.523
275.513
275.504
275.495
275.486
275.479
275.475
275.47
275.461
275.452
275.443
275.434
275.425
275.418
275.415
275.408
275.399
275.39
275.381
275.372
275.364
275.358
275.352
275.344
275.335
275.326
275.317
275.309
275.305
275.301
275.292
275.283
275.274
275.264
275.255
275.247
275.24
275.239
275.235
275.227
275.217
275.207
275.198
275.189
275.181
275.175
275.17
275.162
275.153
275.144
275.135
275.127
275.122
275.116
275.108
275.099
275.09
275.081
275.073
275.065
275.062
275.056
275.048
275.039
275.029
275.021
275.012
275.005
274.998
274.99
274.981
274.972
274.963
274.955
274.949
274.949
274.946
274.937
274.928
274.917
274.907
274.898
274.89
274.883
274.879
274.872
274.864
274.855
274.846
274.837
274.829
274.823
274.819
274.811
274.802
274.793
274.783
274.774
274.765
274.756
274.748
274.74
274.734
274.734
274.73
274.722
274.712
274.702
274.692
274.682
274.673
274.664
274.656
274.651
274.652
274.648
274.639
274.63
274.619
274.609
274.6
274.592
274.585
274.581
274.574
274.565
274.556
274.547
274.538
274.529
274.522
274.514
274.505
274.497
274.488
274.482
274.48
274.476
274.467
274.458
274.447
274.437
274.428
274.42
274.412
274.41
274.412
274.406
274.397
274.386
274.374
274.364
274.356
274.347
274.339
274.335
274.33
274.322
274.313
274.303
274.294
274.285
274.276
274.267
274.258
274.25
274.244
274.244
274.241
274.233
274.224
274.213
274.202
274.193
274.184
274.175
274.167
274.161
274.16
274.157
274.149
274.139
274.127
274.115
274.106
274.097
274.09
274.085
274.087
274.083
274.075
274.064
274.051
274.037
274.027
274.019
274.01
274.003
274.003
274.008
274.005
273.996
273.986
273.972
273.956
273.945
273.936
273.928
273.92
273.914
273.916
273.916
273.908
273.899
273.888
273.876
273.867
273.858
273.849
273.843
273.84
273.834
273.826
273.816
273.807
273.799
273.79
273.783
273.777
273.77
273.761
273.752
273.743
273.734
273.725
273.716
273.709
273.705
273.703
273.696
273.687
273.677
273.666
273.657
273.648
273.639
273.63
273.622
273.614
273.611
273.615
273.614
273.605
273.596
273.583
273.567
273.556
273.547
273.538
273.53
273.524
273.527
273.529
273.522
273.513
273.502
273.488
273.476
273.467
273.458
273.449
273.441
273.433
273.431
273.432
273.425
273.416
273.406
273.394
273.384
273.375
273.367
273.358
273.351
273.349
273.345
273.336
273.327
273.317
273.308
273.299
273.29
273.283
273.279
273.278
273.27
273.261
273.251
273.24
273.231
273.222
273.213
273.204
273.195
273.187
273.178
273.17
273.166
273.17
273.173
273.166
273.156
273.146
273.132
273.119
273.11
273.101
273.092
273.085
273.08
273.077
273.069
273.061
273.051
273.042
273.034
273.025
273.018
273.012
273.004
272.995
272.987
272.978
272.969
272.961
272.955
272.956
272.953
272.945
272.935
272.925
272.915
272.906
272.898
272.89
272.883
272.875
272.866
272.857
272.848
272.839
272.83
272.821
272.813
272.806
272.806
272.809
272.803
272.794
272.783
272.771
272.76
272.752
272.743
272.735
272.728
272.724
272.716
272.708
272.699
272.69
272.681
272.673
272.667
272.659
272.65
272.641
272.632
272.624
272.615
272.608
272.605
272.609
272.608
272.6
272.59
272.579
272.566
272.556
272.547
272.538
272.529
272.52
272.512
272.503
272.494
272.486
272.48
272.479
272.481
272.474
272.465
272.455
272.443
272.43
272.42
272.412
272.403
272.394
272.385
272.376
272.368
272.361
272.359
272.365
272.366
272.358
272.349
272.337
272.323
272.311
272.301
272.293
272.284
272.277
272.272
272.268
272.26
272.251
272.242
272.232
272.224
272.215
272.207
272.201
272.202
272.199
272.191
272.181
272.171
272.161
272.152
272.144
272.136
272.129
272.121
272.112
272.103
272.094
272.083
272.074
272.065
272.056
272.048
272.043
272.045
272.051
272.046
272.037
272.027
272.014
272.001
271.992
271.983
271.974
271.966
271.96
271.956
271.949
271.94
271.931
271.922
271.914
271.905
271.898
271.892
271.885
271.876
271.867
271.859
271.85
271.843
271.84
271.837
271.828
271.819
271.81
271.801
271.792
271.784
271.776
271.771
271.765
271.756
271.748
271.739
271.731
271.723
271.717
271.71
271.701
271.692
271.683
271.674
271.665
271.657
271.649
271.645
271.649
271.647
271.639
271.629
271.618
271.602
271.589
271.58
271.571
271.562
271.554
271.549
271.55
271.554
271.548
271.539
271.529
271.515
271.501
271.491
271.482
271.474
271.466
271.459
271.459
271.458
271.45
271.441
271.431
271.422
271.413
271.405
271.397
271.391
271.384
271.375
271.367
271.357
271.348
271.34
271.331
271.323
271.318
271.319
271.314
271.306
271.296
271.285
271.275
271.266
271.258
271.25
271.245
271.24
271.232
271.223
271.214
271.205
271.196
271.187
271.179
271.174
271.175
271.173
271.165
271.156
271.145
271.134
271.125
271.117
271.108
271.1
271.092
271.084
271.075
271.066
271.058
271.05
271.043
271.041
271.037
271.029
271.02
271.01
271
270.991
270.982
270.974
270.968
270.967
270.965
270.958
270.949
270.938
270.927
270.917
270.909
270.9
270.891
270.883
270.874
270.866
270.858
270.851
270.844
270.84
270.842
270.839
270.83
270.821
270.809
270.796
270.787
270.778
270.769
270.762
270.759
270.762
270.757
270.748
270.738
270.724
270.709
270.698
270.689
270.68
270.673
270.667
270.67
270.674
270.668
270.659
270.649
270.635
270.618
270.607
270.598
270.589
270.581
270.574
270.572
270.578
270.577
270.569
270.559
270.548
270.533
270.522
270.513
270.504
270.495
270.488
270.483
270.484
270.479
270.47
270.461
270.45
270.441
270.432
270.423
270.415
270.406
270.4
270.395
270.388
270.38
270.371
270.362
270.354
270.345
270.336
270.328
270.319
270.311
270.303
270.299
270.301
270.298
270.29
270.28
270.269
270.259
270.25
270.241
270.233
270.226
270.224
270.219
270.21
270.201
270.19
270.176
270.165
270.156
270.148
270.139
270.132
270.129
270.134
270.135
270.127
270.118
270.108
270.094
270.082
270.073
270.064
270.056
270.048
270.045
270.045
270.039
270.03
270.021
270.009
269.999
269.99
269.981
269.974
269.968
269.968
269.964
269.955
269.946
269.934
269.92
269.91
269.901
269.892
269.885
269.879
269.881
269.883
269.876
269.867
269.857
269.844
269.832
269.823
269.815
269.806
269.799
269.793
269.787
269.779
269.77
269.761
269.753
269.745
269.737
269.733
269.737
269.736
269.728
269.718
269.707
269.692
269.679
269.669
269.661
269.652
269.643
269.635
269.626
269.618
269.61
269.606
269.61
269.613
269.607
269.598
269.588
269.576
269.564
269.554
269.546
269.537
269.529
269.522
269.516
269.508
269.499
269.49
269.482
269.473
269.465
269.457
269.451
269.449
269.445
269.437
269.428
269.417
269.405
269.395
269.386
269.378
269.37
269.363
269.361
269.365
269.36
269.352
269.343
269.332
269.321
269.312
269.304
269.295
269.287
269.278
269.27
269.261
269.252
269.243
269.234
269.226
269.217
269.21
269.205
269.208
269.209
269.202
269.193
269.183
269.17
269.157
269.147
269.138
269.13
269.122
269.117
269.119
269.119
269.112
269.103
269.093
269.08
269.069
269.059
269.051
269.042
269.033
269.025
269.016
269.008
268.999
268.99
268.982
268.975
268.971
268.975
268.974
268.967
268.958
268.948
268.934
268.92
268.911
268.902
268.894
268.886
268.879
268.879
268.878
268.87
268.861
268.852
268.842
268.834
268.825
268.818
268.812
268.81
268.803
268.794
268.785
268.775
268.765
268.756
268.747
268.739
268.731
268.726
268.719
268.71
268.702
268.693
268.685
268.676
268.669
268.664
268.665
268.663
268.654
268.645
268.635
268.623
268.614
268.605
268.597
268.589
268.585
268.585
268.579
268.57
268.561
268.55
268.538
268.529
268.52
268.512
268.503
268.495
268.486
268.477
268.469
268.46
268.452
268.445
268.44
268.443
268.446
268.44
268.431
268.421
268.409
268.397
268.388
268.379
268.371
268.362
268.354
268.347
268.338
268.33
268.321
268.313
268.304
268.296
268.288
268.283
268.285
268.283
268.275
268.266
268.255
268.242
268.232
268.223
268.215
268.207
268.2
268.199
268.199
268.192
268.183
268.173
268.16
268.147
268.138
268.13
268.121
268.114
268.109
268.111
268.108
268.099
268.09
268.079
268.065
268.055
268.046
268.037
268.029
268.023
268.021
268.024
268.02
268.011
268.002
267.991
267.98
267.97
267.962
267.953
267.946
267.939
267.934
267.926
267.918
267.909
267.901
267.893
267.885
267.881
267.877
267.869
267.86
267.851
267.841
267.832
267.823
267.814
267.806
267.799
267.796
267.796
267.789
267.781
267.771
267.761
267.752
267.743
267.735
267.727
267.721
267.717
267.709
267.7
267.692
267.683
267.674
267.665
267.657
267.649
267.643
267.643
267.639
267.631
267.622
267.613
267.602
267.593
267.585
267.576
267.568
267.559
267.551
267.543
267.535
267.526
267.518
267.511
267.505
267.507
267.505
267.497
267.488
267.478
267.467
267.458
267.449
267.441
267.433
267.428
267.423
267.416
267.407
267.398
267.387
267.375
267.365
267.357
267.348
267.341
267.335
267.336
267.341
267.337
267.328
267.319
267.308
267.293
267.28
267.27
267.262
267.253
267.245
267.236
267.228
267.219
267.211
267.204
267.199
267.203
267.21
267.206
267.198
267.189
267.178
267.162
267.149
267.139
267.131
267.122
267.114
267.105
267.097
267.089
267.082
267.075
267.066
267.058
267.051
267.045
267.045
267.045
267.038
267.029
267.02
267.007
266.993
266.984
266.975
266.967
266.959
266.951
266.948
266.949
266.944
266.935
266.926
266.915
266.902
266.892
266.884
266.875
266.868
266.861
266.861
266.862
266.855
266.846
266.837
266.825
266.813
266.804
266.795
266.787
266.779
266.774
266.774
266.769
266.76
266.752
266.741
266.73
266.721
266.713
266.705
266.697
266.693
266.694
266.689
266.68
266.671
266.66
266.648
266.638
266.63
266.621
266.614
266.607
266.606
266.603
266.595
266.586
266.576
266.565
266.555
266.547
266.538
266.53
266.524
266.523
266.52
266.512
266.503
266.493
266.481
266.47
266.462
266.453
266.445
266.439
266.437
266.44
266.435
266.426
266.417
266.407
266.396
266.387
266.379
266.37
266.362
266.354
266.347
266.338
266.33
266.322
266.313
266.305
266.297
266.289
266.284
266.285
266.282
266.274
266.265
266.255
266.244
266.235
266.226
266.218
266.21
266.204
266.204
266.202
266.194
266.185
266.175
266.163
266.151
266.143
266.134
266.126
266.117
266.109
266.101
266.092
266.084
266.075
266.067
266.059
266.052
266.048
266.051
266.05
266.043
266.034
266.025
266.013
266.001
265.992
265.984
265.976
265.968
265.96
265.954
265.946
265.938
265.93
265.921
265.913
265.905
265.898
265.893
265.895
265.892
265.884
265.876
265.866
265.854
265.842
265.834
265.825
265.817
265.808
265.8
265.792
265.783
265.775
265.767
265.76
265.758
265.763
265.761
265.753
265.744
265.734
265.721
265.705
265.695
265.686
265.678
265.669
265.661
265.653
265.644
265.636
265.628
265.62
265.614
265.614
265.62
265.616
265.608
265.599
265.589
265.576
265.566
265.557
265.549
265.54
265.532
265.525
265.519
265.511
265.503
265.495
265.486
265.478
265.47
265.462
265.455
265.454
265.456
265.451
265.442
265.434
265.423
265.411
265.401
265.392
265.384
265.376
265.368
265.36
265.355
265.348
265.34
265.332
265.323
265.314
265.304
265.294
265.285
265.277
265.268
265.26
265.252
265.244
265.237
265.234
265.239
265.241
265.234
265.226
265.217
265.205
265.189
265.177
265.168
265.159
265.151
265.143
265.137
265.135
265.14
265.135
265.127
265.118
265.108
265.094
265.079
265.07
265.061
265.053
265.044
265.036
265.028
265.02
265.014
265.013
265.018
265.014
265.006
264.998
264.988
264.974
264.957
264.947
264.938
264.93
264.922
264.914
264.907
264.903
264.907
264.907
264.9
264.891
264.882
264.87
264.855
264.845
264.836
264.828
264.82
264.812
264.807
264.81
264.811
264.804
264.796
264.786
264.775
264.761
264.751
264.742
264.734
264.725
264.717
264.709
264.701
264.693
264.687
264.685
264.679
264.671
264.663
264.654
264.645
264.637
264.629
264.62
264.612
264.604
264.596
264.589
264.584
264.586
264.584
264.576
264.568
264.559
264.547
264.535
264.526
264.518
264.51
264.502
264.493
264.485
264.477
264.469
264.461
264.455
264.455
264.457
264.45
264.442
264.433
264.422
264.407
264.393
264.384
264.376
264.367
264.359
264.351
264.344
264.339
264.342
264.344
264.338
264.33
264.321
264.31
264.294
264.279
264.269
264.26
264.252
264.244
264.236
264.228
264.221
264.22
264.227
264.229
264.222
264.214
264.205
264.194
264.18
264.168
264.159
264.151
264.143
264.134
264.126
264.118
264.11
264.103
264.095
264.086
264.078
264.07
264.063
264.06
264.062
264.06
264.052
264.044
264.035
264.024
264.01
264
263.992
263.983
263.975
263.967
263.959
263.95
263.942
263.934
263.926
263.918
263.91
263.903
263.902
263.906
263.902
263.894
263.885
263.875
263.862
263.845
263.834
263.826
263.817
263.809
263.802
263.795
263.794
263.797
263.792
263.784
263.775
263.766
263.754
263.744
263.735
263.727
263.719
263.712
263.707
263.706
263.701
263.692
263.684
263.674
263.663
263.653
263.645
263.637
263.629
263.622
263.618
263.617
263.611
263.602
263.594
263.583
263.571
263.562
263.553
263.545
263.537
263.53
263.527
263.53
263.527
263.519
263.511
263.501
263.489
263.477
263.467
263.459
263.451
263.442
263.434
263.426
263.418
263.41
263.402
263.396
263.396
263.399
263.394
263.386
263.378
263.368
263.355
263.34
263.33
263.321
263.313
263.305
263.297
263.289
263.281
263.274
263.27
263.273
263.271
263.263
263.255
263.246
263.235
263.221
263.21
263.202
263.193
263.185
263.177
263.169
263.161
263.153
263.144
263.136
263.129
263.126
263.127
263.123
263.115
263.106
263.097
263.086
263.076
263.068
263.06
263.052
263.044
263.039
263.038
263.034
263.026
263.018
263.009
262.998
262.988
262.979
262.971
262.963
262.955
262.949
262.948
262.946
262.939
262.931
262.922
262.912
262.9
262.891
262.882
262.874
262.866
262.858
262.85
262.842
262.833
262.825
262.818
262.811
262.809
262.81
262.804
262.796
262.788
262.779
262.768
262.76
262.751
262.743
262.735
262.728
262.72
262.712
262.704
262.696
262.687
262.677
262.666
262.658
262.649
262.641
262.634
262.627
262.627
262.632
262.628
262.62
262.611
262.602
262.59
262.577
262.567
262.559
262.551
262.543
262.535
262.53
262.531
262.53
262.523
262.514
262.506
262.496
262.484
262.474
262.466
262.458
262.45
262.441
262.433
262.425
262.416
262.406
262.397
262.388
262.38
262.372
262.364
262.356
262.349
262.343
262.345
262.351
262.347
262.339
262.33
262.321
262.31
262.295
262.285
262.277
262.269
262.261
262.252
262.244
262.236
262.228
262.22
262.211
262.202
262.194
262.186
262.178
262.17
262.162
262.156
262.154
262.159
262.157
262.149
262.141
262.132
262.121
262.106
262.094
262.086
262.077
262.069
262.062
262.054
262.05
262.05
262.044
262.036
262.027
262.018
262.008
261.999
261.991
261.983
261.975
261.968
261.964
261.962
261.955
261.947
261.938
261.929
261.918
261.908
261.9
261.892
261.884
261.877
261.871
261.87
261.864
261.856
261.848
261.839
261.829
261.82
261.811
261.803
261.795
261.788
261.782
261.781
261.776
261.768
261.76
261.751
261.743
261.734
261.726
261.718
261.71
261.702
261.694
261.686
261.678
261.67
261.662
261.653
261.644
261.636
261.628
261.62
261.612
261.606
261.602
261.606
261.604
261.597
261.589
261.58
261.57
261.556
261.542
261.533
261.524
261.516
261.508
261.5
261.492
261.485
261.479
261.479
261.477
261.47
261.461
261.453
261.443
261.431
261.421
261.413
261.405
261.397
261.389
261.382
261.378
261.376
261.369
261.361
261.353
261.344
261.334
261.325
261.317
261.309
261.301
261.294
261.289
261.29
261.288
261.28
261.272
261.264
261.254
261.241
261.23
261.221
261.213
261.205
261.197
261.189
261.181
261.173
261.165
261.157
261.149
261.142
261.138
261.141
261.139
261.132
261.123
261.115
261.106
261.094
261.083
261.075
261.067
261.058
261.05
261.042
261.034
261.026
261.018
261.01
261.002
260.994
260.988
260.985
260.984
260.978
260.97
260.962
260.953
260.942
260.929
260.919
260.911
260.903
260.895
260.887
260.88
260.874
260.875
260.873
260.866
260.858
260.85
260.84
260.828
260.818
260.809
260.801
260.793
260.785
260.778
260.773
260.772
260.768
260.76
260.752
260.743
260.734
260.726
260.717
260.709
260.701
260.694
260.687
260.681
260.673
260.666
260.657
260.649
260.641
260.634
260.626
260.619
260.612
260.604
260.596
260.588
260.58
260.572
260.564
260.556
260.549
260.542
260.541
260.538
260.531
260.523
260.514
260.505
260.494
260.484
260.475
260.467
260.459
260.451
260.443
260.435
260.427
260.42
260.416
260.413
260.407
260.399
260.391
260.382
260.373
260.364
260.356
260.348
260.34
260.332
260.325
260.32
260.319
260.315
260.307
260.299
260.291
260.282
260.271
260.261
260.253
260.245
260.237
260.229
260.221
260.213
260.205
260.197
260.189
260.181
260.173
260.165
260.158
260.155
260.154
260.148
260.14
260.132
260.123
260.114
260.104
260.096
260.088
260.08
260.073
260.066
260.065
260.062
260.055
260.047
260.039
260.03
260.018
260.004
259.995
259.987
259.979
259.971
259.963
259.955
259.947
259.939
259.932
259.93
259.931
259.926
259.918
259.91
259.902
259.892
259.881
259.873
259.865
259.857
259.849
259.841
259.836
259.832
259.825
259.817
259.809
259.801
259.793
259.785
259.777
259.769
259.761
259.754
259.749
259.745
259.739
259.731
259.723
259.714
259.705
259.695
259.687
259.679
259.671
259.663
259.655
259.649
259.644
259.637
259.629
259.621
259.613
259.605
259.597
259.589
259.581
259.573
259.565
259.557
259.551
259.548
259.549
259.544
259.536
259.528
259.519
259.51
259.497
259.485
259.476
259.467
259.459
259.451
259.443
259.436
259.428
259.42
259.412
259.404
259.396
259.388
259.382
259.38
259.378
259.371
259.363
259.355
259.346
259.336
259.326
259.318
259.31
259.302
259.294
259.288
259.284
259.284
259.278
259.271
259.262
259.254
259.243
259.232
259.223
259.215
259.207
259.199
259.192
259.187
259.185
259.179
259.171
259.163
259.155
259.146
259.135
259.127
259.118
259.111
259.103
259.095
259.09
259.088
259.083
259.075
259.067
259.059
259.051
259.043
259.035
259.027
259.02
259.013
259.006
258.999
258.991
258.983
258.975
258.966
258.957
258.946
258.938
258.93
258.922
258.914
258.906
258.899
258.895
258.898
258.897
258.89
258.882
258.874
258.865
258.855
258.841
258.83
258.822
258.814
258.806
258.798
258.79
258.782
258.774
258.766
258.758
258.751
258.744
258.739
258.74
258.738
258.731
258.723
258.715
258.706
258.695
258.68
258.668
258.659
258.651
258.643
258.635
258.627
258.62
258.612
258.606
258.606
258.611
258.608
258.601
258.593
258.585
258.576
258.563
258.546
258.534
258.525
258.517
258.509
258.501
258.493
258.486
258.48
258.479
258.483
258.479
258.472
258.464
258.455
258.446
258.434
258.421
258.412
258.404
258.396
258.388
258.381
258.374
258.371
258.372
258.367
258.359
258.351
258.343
258.334
258.323
258.31
258.301
258.293
258.285
258.277
258.269
258.261
258.254
258.246
258.238
258.23
258.222
258.215
258.21
258.21
258.209
258.202
258.194
258.186
258.178
258.168
258.159
258.151
258.143
258.135
258.128
258.121
258.117
258.111
258.104
258.096
258.088
258.079
258.07
258.056
258.043
258.034
258.026
258.018
258.011
258.003
257.995
257.987
257.979
257.972
257.967
257.967
257.971
257.966
257.958
257.95
257.942
257.933
257.921
257.909
257.9
257.893
257.885
257.877
257.87
257.864
257.862
257.859
257.852
257.844
257.836
257.828
257.817
257.805
257.795
257.787
257.779
257.771
257.763
257.755
257.749
257.744
257.747
257.746
257.74
257.732
257.724
257.715
257.706
257.691
257.676
257.666
257.658
257.65
257.643
257.635
257.627
257.619
257.611
257.603
257.596
257.59
257.589
257.59
257.585
257.577
257.569
257.561
257.551
257.539
257.526
257.517
257.509
257.501
257.493
257.486
257.481
257.481
257.485
257.48
257.473
257.465
257.457
257.447
257.434
257.415
257.403
257.394
257.387
257.379
257.371
257.363
257.356
257.35
257.349
257.355
257.353
257.346
257.338
257.33
257.322
257.312
257.298
257.288
257.28
257.272
257.264
257.256
257.248
257.241
257.233
257.226
257.218
257.21
257.202
257.193
257.185
257.177
257.169
257.161
257.154
257.146
257.14
257.138
257.138
257.132
257.124
257.116
257.108
257.099
257.089
257.081
257.073
257.065
257.057
257.049
257.042
257.036
257.03
257.022
257.014
257.007
256.999
256.991
256.983
256.976
256.968
256.961
256.955
256.947
256.939
256.932
256.924
256.916
256.907
256.897
256.888
256.88
256.873
256.865
256.857
256.85
256.846
256.845
256.841
256.833
256.825
256.818
256.809
256.8
256.791
256.784
256.776
256.768
256.761
256.754
256.75
256.744
256.736
256.729
256.721
256.713
256.704
256.692
256.681
256.672
256.665
256.657
256.649
256.641
256.634
256.628
256.627
256.633
256.629
256.622
256.614
256.606
256.598
256.588
256.573
256.555
256.544
256.536
256.528
256.52
256.513
256.505
256.497
256.489
256.482
256.474
256.469
256.468
256.471
256.467
256.459
256.451
256.443
256.435
256.425
256.413
256.404
256.396
256.388
256.381
256.373
256.367
256.364
256.363
256.356
256.349
256.341
256.333
256.324
256.312
256.298
256.287
256.279
256.271
256.264
256.256
256.248
256.24
256.233
256.226
256.221
256.221
256.22
256.213
256.205
256.197
256.19
256.181
256.173
256.165
256.157
256.15
256.142
256.134
256.127
256.119
256.112
256.104
256.096
256.087
256.077
256.066
256.057
256.049
256.041
256.034
256.026
256.02
256.016
256.016
256.01
256.003
255.995
255.987
255.979
255.969
255.96
255.952
255.944
255.936
255.929
255.922
255.916
255.914
255.909
255.902
255.894
255.886
255.879
255.871
255.863
255.855
255.845
255.836
255.828
255.82
255.812
255.805
255.797
255.789
255.781
255.774
255.766
255.758
255.751
255.744
255.737
255.729
255.721
255.713
255.706
255.698
255.69
255.682
255.675
255.667
255.66
255.654
255.651
255.647
255.64
255.632
255.624
255.616
255.608
255.599
255.59
255.583
255.575
255.567
255.56
255.555
255.553
255.549
255.542
255.534
255.527
255.518
255.509
255.497
255.486
255.478
255.47
255.462
255.454
255.447
255.44
255.434
255.429
255.423
255.415
255.407
255.399
255.392
255.383
255.374
255.366
255.359
255.351
255.343
255.336
255.329
255.325
255.32
255.313
255.305
255.297
255.289
255.282
255.274
255.266
255.258
255.251
255.243
255.236
255.23
255.224
255.216
255.209
255.201
255.193
255.185
255.178
255.17
255.162
255.155
255.148
255.142
255.139
255.133
255.126
255.118
255.11
255.102
255.095
255.086
255.077
255.065
255.054
255.046
255.038
255.03
255.022
255.015
255.007
254.999
254.992
254.984
254.977
254.971
254.97
254.97
254.964
254.956
254.948
254.941
254.933
254.924
254.915
254.907
254.9
254.892
254.884
254.877
254.871
254.864
254.856
254.849
254.841
254.833
254.825
254.815
254.804
254.795
254.787
254.779
254.772
254.764
254.756
254.75
254.745
254.746
254.744
254.738
254.73
254.722
254.714
254.706
254.695
254.681
254.672
254.663
254.656
254.648
254.641
254.633
254.626
254.622
254.616
254.608
254.601
254.593
254.585
254.578
254.57
254.562
254.555
254.547
254.54
254.534
254.528
254.521
254.513
254.506
254.498
254.49
254.483
254.475
254.468
254.462
254.457
254.451
254.443
254.435
254.428
254.42
254.412
254.403
254.394
254.386
254.378
254.371
254.363
254.356
254.351
254.348
254.343
254.335
254.328
254.32
254.312
254.304
254.296
254.287
254.278
254.27
254.263
254.255
254.247
254.239
254.231
254.222
254.214
254.206
254.199
254.191
254.183
254.176
254.169
254.164
254.162
254.156
254.149
254.141
254.133
254.126
254.118
254.109
254.101
254.094
254.086
254.078
254.071
254.065
254.058
254.051
254.043
254.036
254.028
254.02
254.01
254
253.992
253.985
253.977
253.97
253.963
253.957
253.956
253.955
253.949
253.942
253.934
253.926
253.918
253.908
253.895
253.881
253.872
253.864
253.856
253.849
253.841
253.834
253.826
253.819
253.814
253.813
253.81
253.803
253.795
253.788
253.78
253.772
253.764
253.755
253.747
253.739
253.731
253.724
253.716
253.709
253.702
253.696
253.689
253.682
253.674
253.667
253.659
253.652
253.646
253.64
253.633
253.625
253.618
253.61
253.602
253.594
253.586
253.576
253.567
253.559
253.552
253.544
253.536
253.529
253.523
253.519
253.515
253.508
253.5
253.493
253.485
253.478
253.47
253.461
253.451
253.443
253.435
253.428
253.42
253.413
253.405
253.397
253.39
253.383
253.377
253.373
253.367
253.36
253.352
253.345
253.337
253.329
253.32
253.309
253.299
253.291
253.284
253.276
253.269
253.261
253.255
253.251
253.252
253.248
253.241
253.234
253.226
253.219
253.211
253.202
253.191
253.18
253.171
253.163
253.156
253.148
253.141
253.133
253.125
253.118
253.11
253.103
253.096
253.089
253.085
253.079
253.072
253.064
253.057
253.049
253.042
253.034
253.026
253.019
253.011
253.004
252.996
252.99
252.985
252.981
252.974
252.967
252.959
252.952
252.944