/*--------------------------------*- C++ -*----------------------------------*\
  =========                 |
  \\      /  F ield         | OpenFOAM: The Open Source CFD Toolbox
   \\    /   O peration     | Website:  https://openfoam.org
    \\  /    A nd           | Version:  9
     \\/     M anipulation  |
\*---------------------------------------------------------------------------*/
FoamFile
{
    format      ascii;
    class       volVectorField;
    location    "0.037";
    object      U;
}
// * * * * * * * * * * * * * * * * * * * * * * * * * * * * * * * * * * * * * //

dimensions      [0 1 -1 0 0 0 0];

internalField   nonuniform List<vector> 
10000
(
(205.263 0 0)
(205.299 0 0)
(205.319 0 0)
(205.342 0 0)
(205.364 0 0)
(205.386 0 0)
(205.408 0 0)
(205.431 0 0)
(205.453 0 0)
(205.475 0 0)
(205.497 0 0)
(205.52 0 0)
(205.542 0 0)
(205.564 0 0)
(205.586 0 0)
(205.608 0 0)
(205.631 0 0)
(205.653 0 0)
(205.675 0 0)
(205.697 0 0)
(205.719 0 0)
(205.742 0 0)
(205.764 0 0)
(205.786 0 0)
(205.808 0 0)
(205.83 0 0)
(205.853 0 0)
(205.875 0 0)
(205.897 0 0)
(205.919 0 0)
(205.942 0 0)
(205.964 0 0)
(205.986 0 0)
(206.008 0 0)
(206.03 0 0)
(206.053 0 0)
(206.075 0 0)
(206.097 0 0)
(206.119 0 0)
(206.141 0 0)
(206.164 0 0)
(206.186 0 0)
(206.208 0 0)
(206.23 0 0)
(206.253 0 0)
(206.275 0 0)
(206.297 0 0)
(206.319 0 0)
(206.341 0 0)
(206.364 0 0)
(206.386 0 0)
(206.408 0 0)
(206.43 0 0)
(206.452 0 0)
(206.475 0 0)
(206.497 0 0)
(206.519 0 0)
(206.541 0 0)
(206.563 0 0)
(206.586 0 0)
(206.608 0 0)
(206.63 0 0)
(206.652 0 0)
(206.674 0 0)
(206.697 0 0)
(206.719 0 0)
(206.741 0 0)
(206.763 0 0)
(206.786 0 0)
(206.808 0 0)
(206.83 0 0)
(206.852 0 0)
(206.875 0 0)
(206.897 0 0)
(206.919 0 0)
(206.941 0 0)
(206.963 0 0)
(206.986 0 0)
(207.008 0 0)
(207.03 0 0)
(207.052 0 0)
(207.074 0 0)
(207.096 0 0)
(207.118 0 0)
(207.141 0 0)
(207.163 0 0)
(207.186 0 0)
(207.208 0 0)
(207.23 0 0)
(207.252 0 0)
(207.274 0 0)
(207.296 0 0)
(207.319 0 0)
(207.341 0 0)
(207.363 0 0)
(207.385 0 0)
(207.408 0 0)
(207.43 0 0)
(207.452 0 0)
(207.474 0 0)
(207.496 0 0)
(207.518 0 0)
(207.541 0 0)
(207.563 0 0)
(207.585 0 0)
(207.607 0 0)
(207.63 0 0)
(207.652 0 0)
(207.674 0 0)
(207.696 0 0)
(207.718 0 0)
(207.74 0 0)
(207.763 0 0)
(207.785 0 0)
(207.808 0 0)
(207.83 0 0)
(207.852 0 0)
(207.873 0 0)
(207.895 0 0)
(207.917 0 0)
(207.94 0 0)
(207.963 0 0)
(207.986 0 0)
(208.008 0 0)
(208.029 0 0)
(208.051 0 0)
(208.073 0 0)
(208.096 0 0)
(208.118 0 0)
(208.141 0 0)
(208.163 0 0)
(208.184 0 0)
(208.206 0 0)
(208.228 0 0)
(208.251 0 0)
(208.274 0 0)
(208.297 0 0)
(208.319 0 0)
(208.34 0 0)
(208.361 0 0)
(208.382 0 0)
(208.405 0 0)
(208.429 0 0)
(208.453 0 0)
(208.476 0 0)
(208.497 0 0)
(208.518 0 0)
(208.538 0 0)
(208.56 0 0)
(208.583 0 0)
(208.607 0 0)
(208.631 0 0)
(208.654 0 0)
(208.675 0 0)
(208.695 0 0)
(208.716 0 0)
(208.737 0 0)
(208.761 0 0)
(208.787 0 0)
(208.811 0 0)
(208.831 0 0)
(208.851 0 0)
(208.87 0 0)
(208.89 0 0)
(208.914 0 0)
(208.942 0 0)
(208.968 0 0)
(208.988 0 0)
(209.007 0 0)
(209.026 0 0)
(209.045 0 0)
(209.069 0 0)
(209.097 0 0)
(209.123 0 0)
(209.143 0 0)
(209.161 0 0)
(209.18 0 0)
(209.2 0 0)
(209.227 0 0)
(209.257 0 0)
(209.28 0 0)
(209.298 0 0)
(209.316 0 0)
(209.334 0 0)
(209.355 0 0)
(209.383 0 0)
(209.415 0 0)
(209.437 0 0)
(209.454 0 0)
(209.471 0 0)
(209.489 0 0)
(209.508 0 0)
(209.534 0 0)
(209.568 0 0)
(209.594 0 0)
(209.612 0 0)
(209.629 0 0)
(209.646 0 0)
(209.664 0 0)
(209.684 0 0)
(209.714 0 0)
(209.746 0 0)
(209.767 0 0)
(209.784 0 0)
(209.802 0 0)
(209.821 0 0)
(209.846 0 0)
(209.877 0 0)
(209.901 0 0)
(209.919 0 0)
(209.936 0 0)
(209.955 0 0)
(209.978 0 0)
(210.01 0 0)
(210.037 0 0)
(210.055 0 0)
(210.072 0 0)
(210.089 0 0)
(210.107 0 0)
(210.128 0 0)
(210.159 0 0)
(210.192 0 0)
(210.214 0 0)
(210.231 0 0)
(210.247 0 0)
(210.265 0 0)
(210.282 0 0)
(210.305 0 0)
(210.339 0 0)
(210.37 0 0)
(210.389 0 0)
(210.406 0 0)
(210.423 0 0)
(210.44 0 0)
(210.459 0 0)
(210.484 0 0)
(210.518 0 0)
(210.546 0 0)
(210.564 0 0)
(210.581 0 0)
(210.599 0 0)
(210.619 0 0)
(210.645 0 0)
(210.673 0 0)
(210.695 0 0)
(210.715 0 0)
(210.737 0 0)
(210.764 0 0)
(210.793 0 0)
(210.812 0 0)
(210.83 0 0)
(210.847 0 0)
(210.864 0 0)
(210.883 0 0)
(210.906 0 0)
(210.94 0 0)
(210.97 0 0)
(210.989 0 0)
(211.006 0 0)
(211.022 0 0)
(211.04 0 0)
(211.058 0 0)
(211.084 0 0)
(211.119 0 0)
(211.145 0 0)
(211.163 0 0)
(211.179 0 0)
(211.196 0 0)
(211.213 0 0)
(211.231 0 0)
(211.255 0 0)
(211.293 0 0)
(211.332 0 0)
(211.352 0 0)
(211.369 0 0)
(211.384 0 0)
(211.402 0 0)
(211.421 0 0)
(211.446 0 0)
(211.478 0 0)
(211.502 0 0)
(211.519 0 0)
(211.536 0 0)
(211.554 0 0)
(211.572 0 0)
(211.595 0 0)
(211.628 0 0)
(211.659 0 0)
(211.678 0 0)
(211.695 0 0)
(211.711 0 0)
(211.728 0 0)
(211.746 0 0)
(211.768 0 0)
(211.801 0 0)
(211.836 0 0)
(211.857 0 0)
(211.874 0 0)
(211.89 0 0)
(211.907 0 0)
(211.925 0 0)
(211.946 0 0)
(211.973 0 0)
(212.005 0 0)
(212.03 0 0)
(212.051 0 0)
(212.075 0 0)
(212.102 0 0)
(212.124 0 0)
(212.142 0 0)
(212.159 0 0)
(212.177 0 0)
(212.195 0 0)
(212.214 0 0)
(212.243 0 0)
(212.279 0 0)
(212.302 0 0)
(212.319 0 0)
(212.335 0 0)
(212.352 0 0)
(212.37 0 0)
(212.389 0 0)
(212.416 0 0)
(212.453 0 0)
(212.48 0 0)
(212.497 0 0)
(212.513 0 0)
(212.529 0 0)
(212.546 0 0)
(212.564 0 0)
(212.588 0 0)
(212.627 0 0)
(212.666 0 0)
(212.686 0 0)
(212.702 0 0)
(212.717 0 0)
(212.735 0 0)
(212.753 0 0)
(212.776 0 0)
(212.808 0 0)
(212.835 0 0)
(212.853 0 0)
(212.87 0 0)
(212.887 0 0)
(212.905 0 0)
(212.924 0 0)
(212.952 0 0)
(212.988 0 0)
(213.013 0 0)
(213.03 0 0)
(213.047 0 0)
(213.063 0 0)
(213.081 0 0)
(213.099 0 0)
(213.125 0 0)
(213.162 0 0)
(213.192 0 0)
(213.211 0 0)
(213.227 0 0)
(213.244 0 0)
(213.261 0 0)
(213.28 0 0)
(213.308 0 0)
(213.344 0 0)
(213.371 0 0)
(213.389 0 0)
(213.406 0 0)
(213.423 0 0)
(213.441 0 0)
(213.463 0 0)
(213.493 0 0)
(213.522 0 0)
(213.541 0 0)
(213.558 0 0)
(213.576 0 0)
(213.593 0 0)
(213.612 0 0)
(213.638 0 0)
(213.674 0 0)
(213.702 0 0)
(213.72 0 0)
(213.737 0 0)
(213.753 0 0)
(213.771 0 0)
(213.789 0 0)
(213.813 0 0)
(213.848 0 0)
(213.879 0 0)
(213.898 0 0)
(213.915 0 0)
(213.932 0 0)
(213.949 0 0)
(213.968 0 0)
(213.992 0 0)
(214.028 0 0)
(214.058 0 0)
(214.076 0 0)
(214.093 0 0)
(214.111 0 0)
(214.128 0 0)
(214.15 0 0)
(214.18 0 0)
(214.211 0 0)
(214.232 0 0)
(214.249 0 0)
(214.266 0 0)
(214.283 0 0)
(214.301 0 0)
(214.322 0 0)
(214.355 0 0)
(214.392 0 0)
(214.413 0 0)
(214.431 0 0)
(214.447 0 0)
(214.465 0 0)
(214.483 0 0)
(214.506 0 0)
(214.537 0 0)
(214.564 0 0)
(214.583 0 0)
(214.601 0 0)
(214.618 0 0)
(214.637 0 0)
(214.66 0 0)
(214.693 0 0)
(214.723 0 0)
(214.742 0 0)
(214.759 0 0)
(214.776 0 0)
(214.794 0 0)
(214.813 0 0)
(214.839 0 0)
(214.875 0 0)
(214.902 0 0)
(214.92 0 0)
(214.937 0 0)
(214.955 0 0)
(214.973 0 0)
(214.997 0 0)
(215.026 0 0)
(215.05 0 0)
(215.068 0 0)
(215.086 0 0)
(215.104 0 0)
(215.125 0 0)
(215.155 0 0)
(215.187 0 0)
(215.207 0 0)
(215.225 0 0)
(215.242 0 0)
(215.259 0 0)
(215.277 0 0)
(215.297 0 0)
(215.328 0 0)
(215.365 0 0)
(215.389 0 0)
(215.406 0 0)
(215.422 0 0)
(215.439 0 0)
(215.457 0 0)
(215.476 0 0)
(215.503 0 0)
(215.54 0 0)
(215.566 0 0)
(215.584 0 0)
(215.6 0 0)
(215.617 0 0)
(215.634 0 0)
(215.652 0 0)
(215.67 0 0)
(215.691 0 0)
(215.726 0 0)
(215.772 0 0)
(215.801 0 0)
(215.818 0 0)
(215.834 0 0)
(215.85 0 0)
(215.867 0 0)
(215.885 0 0)
(215.903 0 0)
(215.922 0 0)
(215.95 0 0)
(215.986 0 0)
(216.013 0 0)
(216.031 0 0)
(216.047 0 0)
(216.064 0 0)
(216.082 0 0)
(216.1 0 0)
(216.123 0 0)
(216.156 0 0)
(216.189 0 0)
(216.209 0 0)
(216.226 0 0)
(216.244 0 0)
(216.261 0 0)
(216.28 0 0)
(216.305 0 0)
(216.338 0 0)
(216.363 0 0)
(216.382 0 0)
(216.4 0 0)
(216.419 0 0)
(216.441 0 0)
(216.466 0 0)
(216.486 0 0)
(216.503 0 0)
(216.521 0 0)
(216.539 0 0)
(216.557 0 0)
(216.576 0 0)
(216.608 0 0)
(216.658 0 0)
(216.698 0 0)
(216.718 0 0)
(216.733 0 0)
(216.742 0 0)
(216.755 0 0)
(216.772 0 0)
(216.79 0 0)
(216.813 0 0)
(216.844 0 0)
(216.873 0 0)
(216.892 0 0)
(216.909 0 0)
(216.923 0 0)
(216.937 0 0)
(216.954 0 0)
(216.972 0 0)
(216.993 0 0)
(217.028 0 0)
(217.083 0 0)
(217.124 0 0)
(217.145 0 0)
(217.16 0 0)
(217.166 0 0)
(217.169 0 0)
(217.183 0 0)
(217.2 0 0)
(217.218 0 0)
(217.238 0 0)
(217.269 0 0)
(217.322 0 0)
(217.371 0 0)
(217.396 0 0)
(217.412 0 0)
(217.422 0 0)
(217.424 0 0)
(217.436 0 0)
(217.453 0 0)
(217.471 0 0)
(217.49 0 0)
(217.52 0 0)
(217.564 0 0)
(217.595 0 0)
(217.613 0 0)
(217.628 0 0)
(217.64 0 0)
(217.657 0 0)
(217.675 0 0)
(217.695 0 0)
(217.725 0 0)
(217.763 0 0)
(217.788 0 0)
(217.806 0 0)
(217.823 0 0)
(217.84 0 0)
(217.858 0 0)
(217.878 0 0)
(217.904 0 0)
(217.934 0 0)
(217.955 0 0)
(217.973 0 0)
(217.99 0 0)
(218.008 0 0)
(218.026 0 0)
(218.045 0 0)
(218.075 0 0)
(218.118 0 0)
(218.148 0 0)
(218.166 0 0)
(218.181 0 0)
(218.193 0 0)
(218.21 0 0)
(218.228 0 0)
(218.248 0 0)
(218.281 0 0)
(218.324 0 0)
(218.35 0 0)
(218.368 0 0)
(218.382 0 0)
(218.398 0 0)
(218.415 0 0)
(218.434 0 0)
(218.459 0 0)
(218.488 0 0)
(218.511 0 0)
(218.529 0 0)
(218.546 0 0)
(218.563 0 0)
(218.581 0 0)
(218.599 0 0)
(218.621 0 0)
(218.66 0 0)
(218.71 0 0)
(218.742 0 0)
(218.759 0 0)
(218.772 0 0)
(218.782 0 0)
(218.797 0 0)
(218.815 0 0)
(218.834 0 0)
(218.859 0 0)
(218.894 0 0)
(218.921 0 0)
(218.939 0 0)
(218.957 0 0)
(218.974 0 0)
(218.992 0 0)
(219.01 0 0)
(219.035 0 0)
(219.071 0 0)
(219.101 0 0)
(219.12 0 0)
(219.138 0 0)
(219.155 0 0)
(219.173 0 0)
(219.193 0 0)
(219.217 0 0)
(219.244 0 0)
(219.264 0 0)
(219.282 0 0)
(219.3 0 0)
(219.318 0 0)
(219.339 0 0)
(219.37 0 0)
(219.407 0 0)
(219.431 0 0)
(219.448 0 0)
(219.465 0 0)
(219.481 0 0)
(219.499 0 0)
(219.518 0 0)
(219.543 0 0)
(219.577 0 0)
(219.606 0 0)
(219.624 0 0)
(219.641 0 0)
(219.657 0 0)
(219.675 0 0)
(219.693 0 0)
(219.712 0 0)
(219.744 0 0)
(219.789 0 0)
(219.818 0 0)
(219.836 0 0)
(219.849 0 0)
(219.857 0 0)
(219.871 0 0)
(219.888 0 0)
(219.907 0 0)
(219.929 0 0)
(219.968 0 0)
(220.02 0 0)
(220.051 0 0)
(220.069 0 0)
(220.082 0 0)
(220.087 0 0)
(220.097 0 0)
(220.114 0 0)
(220.132 0 0)
(220.15 0 0)
(220.172 0 0)
(220.208 0 0)
(220.256 0 0)
(220.285 0 0)
(220.302 0 0)
(220.315 0 0)
(220.325 0 0)
(220.34 0 0)
(220.358 0 0)
(220.377 0 0)
(220.406 0 0)
(220.452 0 0)
(220.493 0 0)
(220.514 0 0)
(220.529 0 0)
(220.541 0 0)
(220.555 0 0)
(220.573 0 0)
(220.591 0 0)
(220.613 0 0)
(220.641 0 0)
(220.668 0 0)
(220.688 0 0)
(220.707 0 0)
(220.725 0 0)
(220.747 0 0)
(220.774 0 0)
(220.801 0 0)
(220.82 0 0)
(220.838 0 0)
(220.856 0 0)
(220.874 0 0)
(220.894 0 0)
(220.923 0 0)
(220.96 0 0)
(220.986 0 0)
(221.005 0 0)
(221.021 0 0)
(221.038 0 0)
(221.056 0 0)
(221.075 0 0)
(221.099 0 0)
(221.133 0 0)
(221.162 0 0)
(221.181 0 0)
(221.199 0 0)
(221.217 0 0)
(221.235 0 0)
(221.254 0 0)
(221.279 0 0)
(221.312 0 0)
(221.339 0 0)
(221.358 0 0)
(221.375 0 0)
(221.393 0 0)
(221.412 0 0)
(221.433 0 0)
(221.46 0 0)
(221.487 0 0)
(221.507 0 0)
(221.525 0 0)
(221.543 0 0)
(221.562 0 0)
(221.584 0 0)
(221.617 0 0)
(221.649 0 0)
(221.669 0 0)
(221.686 0 0)
(221.703 0 0)
(221.72 0 0)
(221.738 0 0)
(221.757 0 0)
(221.783 0 0)
(221.824 0 0)
(221.859 0 0)
(221.878 0 0)
(221.895 0 0)
(221.91 0 0)
(221.928 0 0)
(221.946 0 0)
(221.967 0 0)
(221.995 0 0)
(222.025 0 0)
(222.045 0 0)
(222.063 0 0)
(222.081 0 0)
(222.1 0 0)
(222.121 0 0)
(222.15 0 0)
(222.18 0 0)
(222.2 0 0)
(222.218 0 0)
(222.236 0 0)
(222.254 0 0)
(222.273 0 0)
(222.298 0 0)
(222.332 0 0)
(222.361 0 0)
(222.38 0 0)
(222.398 0 0)
(222.416 0 0)
(222.434 0 0)
(222.454 0 0)
(222.478 0 0)
(222.503 0 0)
(222.523 0 0)
(222.541 0 0)
(222.559 0 0)
(222.578 0 0)
(222.597 0 0)
(222.624 0 0)
(222.668 0 0)
(222.706 0 0)
(222.726 0 0)
(222.742 0 0)
(222.756 0 0)
(222.772 0 0)
(222.79 0 0)
(222.809 0 0)
(222.834 0 0)
(222.867 0 0)
(222.893 0 0)
(222.911 0 0)
(222.929 0 0)
(222.947 0 0)
(222.966 0 0)
(222.987 0 0)
(223.015 0 0)
(223.047 0 0)
(223.069 0 0)
(223.087 0 0)
(223.105 0 0)
(223.122 0 0)
(223.14 0 0)
(223.158 0 0)
(223.177 0 0)
(223.195 0 0)
(223.215 0 0)
(223.244 0 0)
(223.288 0 0)
(223.324 0 0)
(223.343 0 0)
(223.36 0 0)
(223.375 0 0)
(223.388 0 0)
(223.405 0 0)
(223.423 0 0)
(223.442 0 0)
(223.461 0 0)
(223.492 0 0)
(223.538 0 0)
(223.574 0 0)
(223.593 0 0)
(223.609 0 0)
(223.622 0 0)
(223.638 0 0)
(223.656 0 0)
(223.675 0 0)
(223.7 0 0)
(223.732 0 0)
(223.757 0 0)
(223.775 0 0)
(223.793 0 0)
(223.812 0 0)
(223.83 0 0)
(223.85 0 0)
(223.872 0 0)
(223.893 0 0)
(223.913 0 0)
(223.932 0 0)
(223.951 0 0)
(223.977 0 0)
(224.016 0 0)
(224.05 0 0)
(224.07 0 0)
(224.086 0 0)
(224.099 0 0)
(224.114 0 0)
(224.132 0 0)
(224.151 0 0)
(224.174 0 0)
(224.214 0 0)
(224.263 0 0)
(224.292 0 0)
(224.31 0 0)
(224.324 0 0)
(224.333 0 0)
(224.348 0 0)
(224.366 0 0)
(224.384 0 0)
(224.408 0 0)
(224.44 0 0)
(224.47 0 0)
(224.49 0 0)
(224.508 0 0)
(224.524 0 0)
(224.541 0 0)
(224.56 0 0)
(224.578 0 0)
(224.596 0 0)
(224.615 0 0)
(224.634 0 0)
(224.662 0 0)
(224.706 0 0)
(224.745 0 0)
(224.765 0 0)
(224.782 0 0)
(224.796 0 0)
(224.809 0 0)
(224.826 0 0)
(224.844 0 0)
(224.862 0 0)
(224.881 0 0)
(224.909 0 0)
(224.952 0 0)
(224.989 0 0)
(225.009 0 0)
(225.025 0 0)
(225.034 0 0)
(225.044 0 0)
(225.061 0 0)
(225.08 0 0)
(225.1 0 0)
(225.133 0 0)
(225.182 0 0)
(225.219 0 0)
(225.238 0 0)
(225.253 0 0)
(225.258 0 0)
(225.262 0 0)
(225.276 0 0)
(225.295 0 0)
(225.313 0 0)
(225.338 0 0)
(225.382 0 0)
(225.442 0 0)
(225.479 0 0)
(225.498 0 0)
(225.513 0 0)
(225.517 0 0)
(225.515 0 0)
(225.527 0 0)
(225.544 0 0)
(225.563 0 0)
(225.582 0 0)
(225.612 0 0)
(225.662 0 0)
(225.708 0 0)
(225.731 0 0)
(225.748 0 0)
(225.759 0 0)
(225.769 0 0)
(225.786 0 0)
(225.804 0 0)
(225.824 0 0)
(225.85 0 0)
(225.886 0 0)
(225.915 0 0)
(225.934 0 0)
(225.952 0 0)
(225.97 0 0)
(225.988 0 0)
(226.007 0 0)
(226.031 0 0)
(226.059 0 0)
(226.082 0 0)
(226.101 0 0)
(226.119 0 0)
(226.137 0 0)
(226.155 0 0)
(226.173 0 0)
(226.192 0 0)
(226.214 0 0)
(226.248 0 0)
(226.288 0 0)
(226.312 0 0)
(226.33 0 0)
(226.345 0 0)
(226.359 0 0)
(226.375 0 0)
(226.393 0 0)
(226.411 0 0)
(226.43 0 0)
(226.449 0 0)
(226.47 0 0)
(226.507 0 0)
(226.563 0 0)
(226.605 0 0)
(226.626 0 0)
(226.643 0 0)
(226.65 0 0)
(226.648 0 0)
(226.658 0 0)
(226.675 0 0)
(226.694 0 0)
(226.714 0 0)
(226.744 0 0)
(226.795 0 0)
(226.846 0 0)
(226.873 0 0)
(226.89 0 0)
(226.903 0 0)
(226.906 0 0)
(226.915 0 0)
(226.932 0 0)
(226.95 0 0)
(226.968 0 0)
(226.987 0 0)
(227.01 0 0)
(227.049 0 0)
(227.096 0 0)
(227.123 0 0)
(227.141 0 0)
(227.155 0 0)
(227.165 0 0)
(227.18 0 0)
(227.198 0 0)
(227.217 0 0)
(227.236 0 0)
(227.261 0 0)
(227.299 0 0)
(227.332 0 0)
(227.352 0 0)
(227.37 0 0)
(227.385 0 0)
(227.402 0 0)
(227.42 0 0)
(227.439 0 0)
(227.46 0 0)
(227.495 0 0)
(227.535 0 0)
(227.56 0 0)
(227.578 0 0)
(227.593 0 0)
(227.605 0 0)
(227.621 0 0)
(227.639 0 0)
(227.658 0 0)
(227.676 0 0)
(227.695 0 0)
(227.713 0 0)
(227.732 0 0)
(227.753 0 0)
(227.787 0 0)
(227.844 0 0)
(227.896 0 0)
(227.922 0 0)
(227.94 0 0)
(227.953 0 0)
(227.956 0 0)
(227.963 0 0)
(227.98 0 0)
(227.998 0 0)
(228.017 0 0)
(228.038 0 0)
(228.069 0 0)
(228.105 0 0)
(228.129 0 0)
(228.147 0 0)
(228.165 0 0)
(228.183 0 0)
(228.201 0 0)
(228.221 0 0)
(228.244 0 0)
(228.272 0 0)
(228.294 0 0)
(228.312 0 0)
(228.331 0 0)
(228.349 0 0)
(228.368 0 0)
(228.388 0 0)
(228.417 0 0)
(228.463 0 0)
(228.501 0 0)
(228.521 0 0)
(228.538 0 0)
(228.551 0 0)
(228.568 0 0)
(228.586 0 0)
(228.605 0 0)
(228.626 0 0)
(228.65 0 0)
(228.671 0 0)
(228.689 0 0)
(228.708 0 0)
(228.725 0 0)
(228.743 0 0)
(228.761 0 0)
(228.78 0 0)
(228.799 0 0)
(228.825 0 0)
(228.87 0 0)
(228.922 0 0)
(228.951 0 0)
(228.969 0 0)
(228.983 0 0)
(228.991 0 0)
(229.004 0 0)
(229.022 0 0)
(229.041 0 0)
(229.061 0 0)
(229.087 0 0)
(229.118 0 0)
(229.142 0 0)
(229.161 0 0)
(229.18 0 0)
(229.198 0 0)
(229.217 0 0)
(229.239 0 0)
(229.263 0 0)
(229.285 0 0)
(229.304 0 0)
(229.323 0 0)
(229.341 0 0)
(229.36 0 0)
(229.379 0 0)
(229.4 0 0)
(229.438 0 0)
(229.494 0 0)
(229.537 0 0)
(229.559 0 0)
(229.575 0 0)
(229.586 0 0)
(229.592 0 0)
(229.607 0 0)
(229.625 0 0)
(229.643 0 0)
(229.662 0 0)
(229.681 0 0)
(229.699 0 0)
(229.718 0 0)
(229.737 0 0)
(229.757 0 0)
(229.782 0 0)
(229.826 0 0)
(229.875 0 0)
(229.903 0 0)
(229.921 0 0)
(229.936 0 0)
(229.943 0 0)
(229.95 0 0)
(229.966 0 0)
(229.984 0 0)
(230.003 0 0)
(230.022 0 0)
(230.04 0 0)
(230.059 0 0)
(230.078 0 0)
(230.101 0 0)
(230.142 0 0)
(230.205 0 0)
(230.252 0 0)
(230.275 0 0)
(230.292 0 0)
(230.303 0 0)
(230.304 0 0)
(230.313 0 0)
(230.33 0 0)
(230.348 0 0)
(230.367 0 0)
(230.39 0 0)
(230.422 0 0)
(230.455 0 0)
(230.476 0 0)
(230.495 0 0)
(230.511 0 0)
(230.528 0 0)
(230.546 0 0)
(230.565 0 0)
(230.585 0 0)
(230.614 0 0)
(230.659 0 0)
(230.698 0 0)
(230.719 0 0)
(230.735 0 0)
(230.749 0 0)
(230.764 0 0)
(230.782 0 0)
(230.802 0 0)
(230.823 0 0)
(230.848 0 0)
(230.869 0 0)
(230.888 0 0)
(230.906 0 0)
(230.923 0 0)
(230.936 0 0)
(230.952 0 0)
(230.971 0 0)
(230.99 0 0)
(231.01 0 0)
(231.039 0 0)
(231.092 0 0)
(231.152 0 0)
(231.184 0 0)
(231.203 0 0)
(231.218 0 0)
(231.225 0 0)
(231.23 0 0)
(231.246 0 0)
(231.265 0 0)
(231.284 0 0)
(231.304 0 0)
(231.333 0 0)
(231.365 0 0)
(231.388 0 0)
(231.407 0 0)
(231.426 0 0)
(231.444 0 0)
(231.463 0 0)
(231.482 0 0)
(231.506 0 0)
(231.534 0 0)
(231.556 0 0)
(231.575 0 0)
(231.594 0 0)
(231.612 0 0)
(231.632 0 0)
(231.656 0 0)
(231.691 0 0)
(231.726 0 0)
(231.747 0 0)
(231.765 0 0)
(231.782 0 0)
(231.8 0 0)
(231.819 0 0)
(231.838 0 0)
(231.86 0 0)
(231.889 0 0)
(231.916 0 0)
(231.936 0 0)
(231.955 0 0)
(231.974 0 0)
(231.994 0 0)
(232.017 0 0)
(232.044 0 0)
(232.066 0 0)
(232.085 0 0)
(232.103 0 0)
(232.121 0 0)
(232.139 0 0)
(232.158 0 0)
(232.177 0 0)
(232.198 0 0)
(232.233 0 0)
(232.286 0 0)
(232.328 0 0)
(232.349 0 0)
(232.366 0 0)
(232.375 0 0)
(232.372 0 0)
(232.379 0 0)
(232.396 0 0)
(232.414 0 0)
(232.433 0 0)
(232.453 0 0)
(232.482 0 0)
(232.532 0 0)
(232.586 0 0)
(232.615 0 0)
(232.634 0 0)
(232.648 0 0)
(232.652 0 0)
(232.655 0 0)
(232.67 0 0)
(232.688 0 0)
(232.707 0 0)
(232.727 0 0)
(232.753 0 0)
(232.797 0 0)
(232.841 0 0)
(232.864 0 0)
(232.881 0 0)
(232.897 0 0)
(232.913 0 0)
(232.931 0 0)
(232.95 0 0)
(232.972 0 0)
(232.999 0 0)
(233.024 0 0)
(233.043 0 0)
(233.062 0 0)
(233.079 0 0)
(233.097 0 0)
(233.115 0 0)
(233.134 0 0)
(233.155 0 0)
(233.186 0 0)
(233.231 0 0)
(233.264 0 0)
(233.284 0 0)
(233.3 0 0)
(233.312 0 0)
(233.327 0 0)
(233.346 0 0)
(233.365 0 0)
(233.387 0 0)
(233.416 0 0)
(233.446 0 0)
(233.467 0 0)
(233.486 0 0)
(233.503 0 0)
(233.521 0 0)
(233.539 0 0)
(233.558 0 0)
(233.578 0 0)
(233.607 0 0)
(233.654 0 0)
(233.695 0 0)
(233.717 0 0)
(233.734 0 0)
(233.748 0 0)
(233.76 0 0)
(233.778 0 0)
(233.796 0 0)
(233.815 0 0)
(233.835 0 0)
(233.857 0 0)
(233.877 0 0)
(233.896 0 0)
(233.915 0 0)
(233.934 0 0)
(233.954 0 0)
(233.98 0 0)
(234.019 0 0)
(234.053 0 0)
(234.074 0 0)
(234.091 0 0)
(234.106 0 0)
(234.121 0 0)
(234.139 0 0)
(234.157 0 0)
(234.177 0 0)
(234.203 0 0)
(234.245 0 0)
(234.287 0 0)
(234.31 0 0)
(234.327 0 0)
(234.341 0 0)
(234.352 0 0)
(234.368 0 0)
(234.386 0 0)
(234.405 0 0)
(234.424 0 0)
(234.443 0 0)
(234.463 0 0)
(234.484 0 0)
(234.506 0 0)
(234.527 0 0)
(234.55 0 0)
(234.586 0 0)
(234.636 0 0)
(234.672 0 0)
(234.692 0 0)
(234.708 0 0)
(234.718 0 0)
(234.725 0 0)
(234.74 0 0)
(234.759 0 0)
(234.778 0 0)
(234.8 0 0)
(234.838 0 0)
(234.889 0 0)
(234.921 0 0)
(234.94 0 0)
(234.955 0 0)
(234.959 0 0)
(234.956 0 0)
(234.968 0 0)
(234.986 0 0)
(235.005 0 0)
(235.026 0 0)
(235.056 0 0)
(235.108 0 0)
(235.164 0 0)
(235.194 0 0)
(235.212 0 0)
(235.226 0 0)
(235.229 0 0)
(235.224 0 0)
(235.235 0 0)
(235.253 0 0)
(235.272 0 0)
(235.291 0 0)
(235.315 0 0)
(235.357 0 0)
(235.418 0 0)
(235.46 0 0)
(235.481 0 0)
(235.499 0 0)
(235.509 0 0)
(235.51 0 0)
(235.519 0 0)
(235.537 0 0)
(235.556 0 0)
(235.575 0 0)
(235.596 0 0)
(235.627 0 0)
(235.673 0 0)
(235.705 0 0)
(235.724 0 0)
(235.741 0 0)
(235.755 0 0)
(235.77 0 0)
(235.789 0 0)
(235.808 0 0)
(235.827 0 0)
(235.847 0 0)
(235.872 0 0)
(235.904 0 0)
(235.929 0 0)
(235.948 0 0)
(235.967 0 0)
(235.985 0 0)
(236.004 0 0)
(236.023 0 0)
(236.042 0 0)
(236.061 0 0)
(236.079 0 0)
(236.099 0 0)
(236.12 0 0)
(236.155 0 0)
(236.205 0 0)
(236.242 0 0)
(236.263 0 0)
(236.28 0 0)
(236.291 0 0)
(236.303 0 0)
(236.321 0 0)
(236.34 0 0)
(236.36 0 0)
(236.386 0 0)
(236.424 0 0)
(236.453 0 0)
(236.473 0 0)
(236.49 0 0)
(236.502 0 0)
(236.506 0 0)
(236.517 0 0)
(236.535 0 0)
(236.554 0 0)
(236.574 0 0)
(236.596 0 0)
(236.633 0 0)
(236.693 0 0)
(236.741 0 0)
(236.764 0 0)
(236.782 0 0)
(236.795 0 0)
(236.799 0 0)
(236.807 0 0)
(236.824 0 0)
(236.843 0 0)
(236.863 0 0)
(236.884 0 0)
(236.919 0 0)
(236.965 0 0)
(236.994 0 0)
(237.013 0 0)
(237.028 0 0)
(237.038 0 0)
(237.052 0 0)
(237.07 0 0)
(237.089 0 0)
(237.109 0 0)
(237.139 0 0)
(237.183 0 0)
(237.216 0 0)
(237.236 0 0)
(237.252 0 0)
(237.261 0 0)
(237.264 0 0)
(237.278 0 0)
(237.297 0 0)
(237.316 0 0)
(237.336 0 0)
(237.367 0 0)
(237.417 0 0)
(237.467 0 0)
(237.493 0 0)
(237.511 0 0)
(237.525 0 0)
(237.531 0 0)
(237.542 0 0)
(237.559 0 0)
(237.578 0 0)
(237.598 0 0)
(237.619 0 0)
(237.647 0 0)
(237.674 0 0)
(237.695 0 0)
(237.714 0 0)
(237.733 0 0)
(237.752 0 0)
(237.771 0 0)
(237.793 0 0)
(237.828 0 0)
(237.883 0 0)
(237.925 0 0)
(237.947 0 0)
(237.964 0 0)
(237.976 0 0)
(237.975 0 0)
(237.979 0 0)
(237.995 0 0)
(238.014 0 0)
(238.033 0 0)
(238.052 0 0)
(238.071 0 0)
(238.09 0 0)
(238.109 0 0)
(238.131 0 0)
(238.164 0 0)
(238.221 0 0)
(238.275 0 0)
(238.303 0 0)
(238.321 0 0)
(238.336 0 0)
(238.344 0 0)
(238.352 0 0)
(238.369 0 0)
(238.388 0 0)
(238.408 0 0)
(238.428 0 0)
(238.453 0 0)
(238.478 0 0)
(238.499 0 0)
(238.518 0 0)
(238.537 0 0)
(238.556 0 0)
(238.575 0 0)
(238.594 0 0)
(238.614 0 0)
(238.642 0 0)
(238.682 0 0)
(238.715 0 0)
(238.735 0 0)
(238.753 0 0)
(238.767 0 0)
(238.775 0 0)
(238.79 0 0)
(238.808 0 0)
(238.827 0 0)
(238.847 0 0)
(238.871 0 0)
(238.912 0 0)
(238.967 0 0)
(239.001 0 0)
(239.021 0 0)
(239.038 0 0)
(239.05 0 0)
(239.062 0 0)
(239.08 0 0)
(239.099 0 0)
(239.118 0 0)
(239.138 0 0)
(239.158 0 0)
(239.177 0 0)
(239.196 0 0)
(239.214 0 0)
(239.232 0 0)
(239.25 0 0)
(239.269 0 0)
(239.289 0 0)
(239.31 0 0)
(239.342 0 0)
(239.395 0 0)
(239.444 0 0)
(239.469 0 0)
(239.488 0 0)
(239.502 0 0)
(239.506 0 0)
(239.511 0 0)
(239.528 0 0)
(239.546 0 0)
(239.566 0 0)
(239.586 0 0)
(239.618 0 0)
(239.668 0 0)
(239.713 0 0)
(239.736 0 0)
(239.755 0 0)
(239.769 0 0)
(239.776 0 0)
(239.786 0 0)
(239.804 0 0)
(239.822 0 0)
(239.841 0 0)
(239.86 0 0)
(239.879 0 0)
(239.898 0 0)
(239.917 0 0)
(239.936 0 0)
(239.955 0 0)
(239.975 0 0)
(239.997 0 0)
(240.031 0 0)
(240.087 0 0)
(240.132 0 0)
(240.156 0 0)
(240.174 0 0)
(240.187 0 0)
(240.19 0 0)
(240.195 0 0)
(240.211 0 0)
(240.23 0 0)
(240.249 0 0)
(240.269 0 0)
(240.295 0 0)
(240.338 0 0)
(240.381 0 0)
(240.404 0 0)
(240.422 0 0)
(240.438 0 0)
(240.454 0 0)
(240.473 0 0)
(240.493 0 0)
(240.514 0 0)
(240.544 0 0)
(240.581 0 0)
(240.606 0 0)
(240.625 0 0)
(240.643 0 0)
(240.656 0 0)
(240.67 0 0)
(240.688 0 0)
(240.708 0 0)
(240.727 0 0)
(240.75 0 0)
(240.777 0 0)
(240.801 0 0)
(240.821 0 0)
(240.84 0 0)
(240.859 0 0)
(240.878 0 0)
(240.898 0 0)
(240.919 0 0)
(240.95 0 0)
(240.999 0 0)
(241.037 0 0)
(241.058 0 0)
(241.076 0 0)
(241.089 0 0)
(241.099 0 0)
(241.116 0 0)
(241.135 0 0)
(241.154 0 0)
(241.175 0 0)
(241.207 0 0)
(241.252 0 0)
(241.281 0 0)
(241.3 0 0)
(241.317 0 0)
(241.328 0 0)
(241.337 0 0)
(241.354 0 0)
(241.373 0 0)
(241.392 0 0)
(241.411 0 0)
(241.43 0 0)
(241.449 0 0)
(241.469 0 0)
(241.488 0 0)
(241.507 0 0)
(241.527 0 0)
(241.548 0 0)
(241.58 0 0)
(241.636 0 0)
(241.688 0 0)
(241.715 0 0)
(241.734 0 0)
(241.75 0 0)
(241.758 0 0)
(241.766 0 0)
(241.783 0 0)
(241.802 0 0)
(241.822 0 0)
(241.841 0 0)
(241.863 0 0)
(241.885 0 0)
(241.905 0 0)
(241.924 0 0)
(241.943 0 0)
(241.962 0 0)
(241.981 0 0)
(242.001 0 0)
(242.022 0 0)
(242.052 0 0)
(242.101 0 0)
(242.141 0 0)
(242.162 0 0)
(242.18 0 0)
(242.194 0 0)
(242.2 0 0)
(242.213 0 0)
(242.231 0 0)
(242.251 0 0)
(242.271 0 0)
(242.296 0 0)
(242.338 0 0)
(242.383 0 0)
(242.407 0 0)
(242.425 0 0)
(242.44 0 0)
(242.445 0 0)
(242.452 0 0)
(242.47 0 0)
(242.489 0 0)
(242.508 0 0)
(242.53 0 0)
(242.563 0 0)
(242.612 0 0)
(242.647 0 0)
(242.668 0 0)
(242.685 0 0)
(242.696 0 0)
(242.7 0 0)
(242.712 0 0)
(242.731 0 0)
(242.75 0 0)
(242.77 0 0)
(242.794 0 0)
(242.835 0 0)
(242.889 0 0)
(242.922 0 0)
(242.942 0 0)
(242.959 0 0)
(242.971 0 0)
(242.981 0 0)
(242.998 0 0)
(243.017 0 0)
(243.037 0 0)
(243.058 0 0)
(243.083 0 0)
(243.112 0 0)
(243.135 0 0)
(243.154 0 0)
(243.173 0 0)
(243.193 0 0)
(243.213 0 0)
(243.236 0 0)
(243.268 0 0)
(243.3 0 0)
(243.321 0 0)
(243.34 0 0)
(243.358 0 0)
(243.373 0 0)
(243.389 0 0)
(243.407 0 0)
(243.427 0 0)
(243.446 0 0)
(243.469 0 0)
(243.505 0 0)
(243.55 0 0)
(243.577 0 0)
(243.596 0 0)
(243.613 0 0)
(243.626 0 0)
(243.643 0 0)
(243.662 0 0)
(243.682 0 0)
(243.703 0 0)
(243.731 0 0)
(243.761 0 0)
(243.783 0 0)
(243.803 0 0)
(243.821 0 0)
(243.839 0 0)
(243.857 0 0)
(243.877 0 0)
(243.896 0 0)
(243.916 0 0)
(243.944 0 0)
(243.987 0 0)
(244.023 0 0)
(244.044 0 0)
(244.063 0 0)
(244.078 0 0)
(244.091 0 0)
(244.109 0 0)
(244.128 0 0)
(244.147 0 0)
(244.167 0 0)
(244.186 0 0)
(244.207 0 0)
(244.227 0 0)
(244.247 0 0)
(244.266 0 0)
(244.286 0 0)
(244.308 0 0)
(244.338 0 0)
(244.386 0 0)
(244.427 0 0)
(244.449 0 0)
(244.467 0 0)
(244.482 0 0)
(244.493 0 0)
(244.51 0 0)
(244.529 0 0)
(244.549 0 0)
(244.57 0 0)
(244.599 0 0)
(244.63 0 0)
(244.652 0 0)
(244.671 0 0)
(244.689 0 0)
(244.702 0 0)
(244.709 0 0)
(244.725 0 0)
(244.743 0 0)
(244.763 0 0)
(244.783 0 0)
(244.812 0 0)
(244.86 0 0)
(244.921 0 0)
(244.954 0 0)
(244.974 0 0)
(244.992 0 0)
(245.003 0 0)
(245.001 0 0)
(245.006 0 0)
(245.022 0 0)
(245.042 0 0)
(245.061 0 0)
(245.08 0 0)
(245.1 0 0)
(245.119 0 0)
(245.138 0 0)
(245.158 0 0)
(245.18 0 0)
(245.212 0 0)
(245.269 0 0)
(245.335 0 0)
(245.369 0 0)
(245.389 0 0)
(245.406 0 0)
(245.418 0 0)
(245.417 0 0)
(245.42 0 0)
(245.436 0 0)
(245.455 0 0)
(245.475 0 0)
(245.494 0 0)
(245.513 0 0)
(245.533 0 0)
(245.555 0 0)
(245.578 0 0)
(245.6 0 0)
(245.621 0 0)
(245.641 0 0)
(245.662 0 0)
(245.689 0 0)
(245.734 0 0)
(245.78 0 0)
(245.805 0 0)
(245.824 0 0)
(245.84 0 0)
(245.847 0 0)
(245.85 0 0)
(245.865 0 0)
(245.884 0 0)
(245.904 0 0)
(245.924 0 0)
(245.946 0 0)
(245.983 0 0)
(246.031 0 0)
(246.06 0 0)
(246.079 0 0)
(246.096 0 0)
(246.107 0 0)
(246.113 0 0)
(246.129 0 0)
(246.148 0 0)
(246.168 0 0)
(246.188 0 0)
(246.215 0 0)
(246.259 0 0)
(246.306 0 0)
(246.331 0 0)
(246.35 0 0)
(246.366 0 0)
(246.375 0 0)
(246.383 0 0)
(246.401 0 0)
(246.42 0 0)
(246.44 0 0)
(246.461 0 0)
(246.49 0 0)
(246.533 0 0)
(246.565 0 0)
(246.585 0 0)
(246.604 0 0)
(246.618 0 0)
(246.629 0 0)
(246.647 0 0)
(246.666 0 0)
(246.686 0 0)
(246.707 0 0)
(246.74 0 0)
(246.786 0 0)
(246.818 0 0)
(246.837 0 0)
(246.855 0 0)
(246.867 0 0)
(246.874 0 0)
(246.89 0 0)
(246.909 0 0)
(246.928 0 0)
(246.949 0 0)
(246.975 0 0)
(247.016 0 0)
(247.052 0 0)
(247.073 0 0)
(247.092 0 0)
(247.107 0 0)
(247.118 0 0)
(247.133 0 0)
(247.152 0 0)
(247.172 0 0)
(247.192 0 0)
(247.219 0 0)
(247.261 0 0)
(247.297 0 0)
(247.318 0 0)
(247.336 0 0)
(247.351 0 0)
(247.359 0 0)
(247.372 0 0)
(247.391 0 0)
(247.41 0 0)
(247.43 0 0)
(247.455 0 0)
(247.495 0 0)
(247.547 0 0)
(247.579 0 0)
(247.599 0 0)
(247.616 0 0)
(247.63 0 0)
(247.642 0 0)
(247.66 0 0)
(247.68 0 0)
(247.699 0 0)
(247.719 0 0)
(247.74 0 0)
(247.762 0 0)
(247.782 0 0)
(247.801 0 0)
(247.821 0 0)
(247.84 0 0)
(247.86 0 0)
(247.88 0 0)
(247.901 0 0)
(247.931 0 0)
(247.978 0 0)
(248.015 0 0)
(248.036 0 0)
(248.055 0 0)
(248.07 0 0)
(248.082 0 0)
(248.098 0 0)
(248.118 0 0)
(248.137 0 0)
(248.158 0 0)
(248.186 0 0)
(248.229 0 0)
(248.268 0 0)
(248.289 0 0)
(248.308 0 0)
(248.323 0 0)
(248.331 0 0)
(248.341 0 0)
(248.358 0 0)
(248.378 0 0)
(248.397 0 0)
(248.417 0 0)
(248.436 0 0)
(248.456 0 0)
(248.475 0 0)
(248.495 0 0)
(248.514 0 0)
(248.534 0 0)
(248.554 0 0)
(248.576 0 0)
(248.611 0 0)
(248.665 0 0)
(248.709 0 0)
(248.732 0 0)
(248.751 0 0)
(248.767 0 0)
(248.776 0 0)
(248.786 0 0)
(248.803 0 0)
(248.823 0 0)
(248.842 0 0)
(248.863 0 0)
(248.885 0 0)
(248.911 0 0)
(248.933 0 0)
(248.953 0 0)
(248.973 0 0)
(248.992 0 0)
(249.012 0 0)
(249.032 0 0)
(249.054 0 0)
(249.087 0 0)
(249.137 0 0)
(249.175 0 0)
(249.196 0 0)
(249.215 0 0)
(249.23 0 0)
(249.238 0 0)
(249.249 0 0)
(249.267 0 0)
(249.286 0 0)
(249.306 0 0)
(249.325 0 0)
(249.345 0 0)
(249.364 0 0)
(249.384 0 0)
(249.404 0 0)
(249.424 0 0)
(249.448 0 0)
(249.487 0 0)
(249.546 0 0)
(249.586 0 0)
(249.608 0 0)
(249.626 0 0)
(249.641 0 0)
(249.646 0 0)
(249.643 0 0)
(249.656 0 0)
(249.674 0 0)
(249.694 0 0)
(249.713 0 0)
(249.733 0 0)
(249.753 0 0)
(249.772 0 0)
(249.792 0 0)
(249.812 0 0)
(249.833 0 0)
(249.86 0 0)
(249.906 0 0)
(249.967 0 0)
(250.001 0 0)
(250.022 0 0)
(250.041 0 0)
(250.055 0 0)
(250.062 0 0)
(250.074 0 0)
(250.093 0 0)
(250.112 0 0)
(250.132 0 0)
(250.153 0 0)
(250.176 0 0)
(250.202 0 0)
(250.224 0 0)
(250.244 0 0)
(250.263 0 0)
(250.283 0 0)
(250.303 0 0)
(250.323 0 0)
(250.343 0 0)
(250.368 0 0)
(250.41 0 0)
(250.461 0 0)
(250.491 0 0)
(250.511 0 0)
(250.529 0 0)
(250.542 0 0)
(250.549 0 0)
(250.563 0 0)
(250.582 0 0)
(250.602 0 0)
(250.622 0 0)
(250.642 0 0)
(250.666 0 0)
(250.694 0 0)
(250.719 0 0)
(250.739 0 0)
(250.758 0 0)
(250.778 0 0)
(250.796 0 0)
(250.811 0 0)
(250.824 0 0)
(250.842 0 0)
(250.862 0 0)
(250.882 0 0)
(250.901 0 0)
(250.921 0 0)
(250.942 0 0)
(250.965 0 0)
(251.001 0 0)
(251.062 0 0)
(251.114 0 0)
(251.14 0 0)
(251.159 0 0)
(251.176 0 0)
(251.185 0 0)
(251.181 0 0)
(251.188 0 0)
(251.206 0 0)
(251.225 0 0)
(251.245 0 0)
(251.266 0 0)
(251.291 0 0)
(251.333 0 0)
(251.389 0 0)
(251.423 0 0)
(251.444 0 0)
(251.462 0 0)
(251.476 0 0)
(251.477 0 0)
(251.478 0 0)
(251.493 0 0)
(251.512 0 0)
(251.532 0 0)
(251.551 0 0)
(251.571 0 0)
(251.591 0 0)
(251.612 0 0)
(251.638 0 0)
(251.681 0 0)
(251.74 0 0)
(251.776 0 0)
(251.797 0 0)
(251.816 0 0)
(251.83 0 0)
(251.832 0 0)
(251.828 0 0)
(251.841 0 0)
(251.859 0 0)
(251.879 0 0)
(251.899 0 0)
(251.919 0 0)
(251.941 0 0)
(251.976 0 0)
(252.032 0 0)
(252.079 0 0)
(252.103 0 0)
(252.122 0 0)