/*--------------------------------*- C++ -*----------------------------------*\
  =========                 |
  \\      /  F ield         | OpenFOAM: The Open Source CFD Toolbox
   \\    /   O peration     | Website:  https://openfoam.org
    \\  /    A nd           | Version:  9
     \\/     M anipulation  |
\*---------------------------------------------------------------------------*/
FoamFile
{
    format      ascii;
    class       volScalarField;
    location    "0.013";
    object      p;
}
// * * * * * * * * * * * * * * * * * * * * * * * * * * * * * * * * * * * * * //

dimensions      [1 -1 -2 0 0 0 0];

internalField   nonuniform List<scalar> 
1000
(
98275.8
98248
98216
98174.5
98123.9
98064.6
97996.7
97920.5
97836.3
97744.4
97645.1
97538.7
97425.6
97306.1
97180.6
97049.3
96912.7
96771.2
96624.9
96474.2
96319.5
96161
95999.1
95833.8
95665.6
95494.7
95321.2
95145.3
94967.3
94787.3
94605.5
94422
94236.9
94050.4
93862.6
93673.6
93483.5
93292.4
93100.3
92907.3
92713.6
92519.1
92323.9
92128.2
91931.8
91734.9
91537.6
91339.8
91141.6
90943.1
90744.2
90545
90345.6
90145.9
89946
89746
89545.7
89345.4
89144.9
88944.3
88743.6
88542.9
88342.2
88141.4
87940.6
87739.8
87539.1
87338.4
87137.7
86937.1
86736.6
86536.2
86335.8
86135.6
85935.5
85735.6
85535.7
85336.1
85136.6
84937.2
84738
84539.1
84340.3
84141.7
83943.3
83745.1
83547.1
83349.4
83151.9
82954.6
82757.6
82560.8
82364.3
82168
81972
81776.2
81580.7
81385.5
81190.6
80995.9
80801.5
80607.4
80413.6
80220.1
80026.9
79834
79641.4
79449.1
79257.1
79065.4
78874
78682.9
78492.2
78301.7
78111.6
77921.8
77732.3
77543.2
77354.4
77165.9
76977.7
76789.8
76602.3
76415.1
76228.3
76041.8
75855.6
75669.8
75484.3
75299.1
75114.3
74929.8
74745.7
74561.9
74378.4
74195.3
74012.5
73830.1
73648
73466.3
73284.9
73103.8
72923.1
72742.8
72562.8
72383.1
72203.8
72024.8
71846.2
71668
71490
71312.5
71135.3
70958.4
70781.9
70605.7
70429.9
70254.4
70079.3
69904.5
69730.1
69556.1
69382.3
69209
69036
68863.3
68691
68519
68347.4
68176.1
68005.2
67834.6
67664.4
67494.5
67325
67155.8
66987
66818.5
66650.4
66482.6
66315.2
66148.1
65981.4
65815
65648.9
65483.2
65317.9
65152.9
64988.2
64823.9
64659.9
64496.3
64333
64170.1
64007.5
63845.3
63683.4
63521.8
63360.6
63199.7
63039.2
62879
62719.1
62559.6
62400.5
62241.6
62083.2
61925
61767.2
61609.7
61452.6
61295.8
61139.3
60983.2
60827.4
60672
60516.9
60362.1
60207.7
60053.6
59899.8
59746.3
59593.2
59440.5
59288
59135.9
58984.2
58832.7
58681.6
58530.8
58380.4
58230.2
58080.5
57931
57781.9
57633.1
57484.6
57336.4
57188.6
57041.1
56893.9
56747.1
56600.5
56454.3
56308.5
56162.9
56017.7
55872.8
55728.2
55583.9
55440
55296.4
55153.1
55010.1
54867.4
54725.1
54583
54441.3
54299.9
54158.9
54018.1
53877.7
53737.6
53597.7
53458.2
53319.1
53180.2
53041.6
52903.4
52765.5
52627.9
52490.6
52353.6
52216.9
52080.5
51944.5
51808.7
51673.3
51538.1
51403.3
51268.8
51134.6
51000.7
50867.1
50733.8
50600.8
50468.1
50335.7
50203.6
50071.9
49940.4
49809.2
49678.4
49547.8
49417.6
49287.6
49157.9
49028.6
48899.5
48770.8
48642.3
48514.1
48386.3
48258.7
48131.5
48004.5
47877.8
47751.4
47625.4
47499.6
47374.1
47248.9
47124
46999.4
46875.1
46751
46627.3
46503.9
46380.7
46257.9
46135.3
46013.1
45891.1
45769.4
45648
45526.9
45406.1
45285.5
45165.3
45045.4
44925.7
44806.3
44687.2
44568.4
44449.9
44331.7
44213.8
44096.1
43978.8
43861.7
43744.9
43628.4
43512.2
43396.2
43280.6
43165.2
43050.2
42935.4
42820.9
42706.6
42592.7
42479
42365.7
42252.6
42139.8
42027.3
41915
41803.1
41691.4
41580.1
41469
41358.2
41247.6
41137.4
41027.4
40917.8
40808.4
40699.3
40590.5
40481.9
40373.7
40265.7
40158.1
40050.7
39943.6
39836.8
39730.3
39624
39518.1
39412.4
39307.1
39202
39097.2
38992.7
38888.5
38784.6
38681
38577.7
38474.7
38372
38269.6
38167.4
38065.6
37964.1
37862.9
37762
37661.4
37561.1
37461.1
37361.4
37262.1
37163
37064.3
36965.9
36867.8
36770.1
36672.6
36575.5
36478.7
36382.3
36286.2
36190.4
36095
35999.9
35905.2
35810.8
35716.8
35623.2
35529.9
35437
35344.4
35252.3
35160.5
35069.2
34978.2
34887.6
34797.5
34707.8
34618.4
34529.6
34441.1
34353.2
34265.6
34178.6
34092
34005.9
33920.3
33835.3
33750.7
33666.7
33583.2
33500.3
33418
33336.3
33255.1
33174.6
33094.7
33015.5
32937
32859.2
32782.1
32705.7
32630.1
32555.3
32481.2
32408.1
32335.7
32264.3
32193.8
32124.2
32055.6
31988.1
31921.5
31856
31791.7
31728.4
31666.4
31605.5
31545.9
31487.6
31430.6
31375
31320.7
31267.9
31216.5
31166.6
31118.2
31071.3
31026.1
30982.4
30940.3
30899.9
30861.2
30824.1
30788.7
30754.9
30722.9
30692.5
30663.8
30636.7
30611.2
30587.4
30565.1
30544.3
30525.1
30507.2
30490.8
30475.6
30461.8
30449.2
30437.7
30427.3
30418
30409.6
30402
30395.3
30389.4
30384.1
30379.5
30375.5
30371.9
30368.9
30366.2
30363.9
30361.9
30360.3
30358.8
30357.6
30356.6
30355.7
30355
30354.4
30353.9
30353.5
30353.1
30352.8
30352.6
30352.4
30352.2
30352.1
30352
30351.9
30351.8
30351.7
30351.6
30351.6
30351.5
30351.5
30351.5
30351.4
30351.4
30351.4
30351.3
30351.3
30351.3
30351.2
30351.2
30351.2
30351.1
30351.1
30351.1
30351
30351
30351
30351
30350.9
30350.9
30350.9
30350.9
30350.8
30350.8
30350.8
30350.7
30350.7
30350.7
30350.7
30350.7
30350.6
30350.6
30350.6
30350.6
30350.6
30350.5
30350.5
30350.5
30350.5
30350.5
30350.5
30350.5
30350.5
30350.5
30350.4
30350.4
30350.4
30350.4
30350.4
30350.4
30350.4
30350.5
30350.5
30350.5
30350.5
30350.5
30350.5
30350.5
30350.5
30350.5
30350.5
30350.6
30350.6
30350.6
30350.6
30350.6
30350.6
30350.6
30350.6
30350.6
30350.6
30350.6
30350.6
30350.6
30350.6
30350.6
30350.6
30350.6
30350.6
30350.6
30350.6
30350.6
30350.6
30350.6
30350.6
30350.6
30350.6
30350.6
30350.6
30350.6
30350.6
30350.6
30350.6
30350.6
30350.6
30350.6
30350.6
30350.6
30350.6
30350.5
30350.5
30350.5
30350.5
30350.5
30350.5
30350.5
30350.5
30350.5
30350.5
30350.5
30350.5
30350.5
30350.5
30350.5
30350.5
30350.5
30350.5
30350.5
30350.5
30350.5
30350.5
30350.5
30350.5
30350.5
30350.4
30350.4
30350.4
30350.4
30350.4
30350.4
30350.4
30350.4
30350.4
30350.4
30350.4
30350.4
30350.4
30350.4
30350.4
30350.4
30350.4
30350.4
30350.4
30350.4
30350.4
30350.4
30350.4
30350.4
30350.4
30350.4
30350.4
30350.4
30350.4
30350.4
30350.4
30350.4
30350.3
30350.3
30350.3
30350.3
30350.3
30350.3
30350.3
30350.3
30350.3
30350.3
30350.3
30350.3
30350.3
30350.3
30350.3
30350.3
30350.3
30350.3
30350.3
30350.3
30350.3
30350.3
30350.3
30350.3
30350.3
30350.3
30350.3
30350.3
30350.3
30350.3
30350.3
30350.3
30350.3
30350.3
30350.3
30350.3
30350.3
30350.3
30350.3
30350.3
30350.2
30350.2
30350.2
30350.2
30350.2
30350.2
30350.2
30350.2
30350.2
30350.2
30350.2
30350.2
30350.2
30350.2
30350.2
30350.2
30350.2
30350.2
30350.2
30350.2
30350.2
30350.2
30350.2
30350.2
30350.2
30350.2
30350.2
30350.2
30350.2
30350.2
30350.2
30350.2
30350.2
30350.2
30350.2
30350.2
30350.2
30350.2
30350.2
30350.2
30350.2
30350.2
30350.2
30350.2
30350.2
30350.2
30350.2
30350.1
30350.1
30350.1
30350.1
30350.1
30350.1
30350.1
30350.1
30350.1
30350.1
30350.1
30350.1
30350.1
30350.1
30350.1
30350.1
30350.1
30350.1
30350.1
30350.1
30350.1
30350.1
30350.1
30350.1
30350.1
30350.1
30350.1
30350.1
30350.1
30350.1
30350.1
30350.1
30350.1
30350.1
30350.1
30350.1
30350.1
30350.1
30350.1
30350.1
30350.1
30350.1
30350.1
30350.1
30350.1
30350.1
30350.1
30350.1
30350.1
30350.1
30350.1
30350
30350
30350
30350
30350
30350
30350
30350
30350
30350
30350
30350
30350
30350
30350
30350
30350
30350
30350
30350
30350
30350
30350
30350
30350
30349.9
30349.9
30349.9
30349.9
30349.9
30349.8
30349.8
30349.8
30349.7
30349.7
30349.7
30349.6
30349.6
30349.6
30349.5
30349.5
30349.5
30349.5
30349.5
30349.5
30349.6
30349.6
30349.6
30349.7
30349.7
30349.8
30349.8
30349.9
30349.9
30350
30350
30350
30350
30350.1
30350.1
30350.1
30350.1
30350.1
30350.1
30350.1
30350.1
30350
30350
30350
30350
30350
30350
30350
30349.9
30349.9
30349.9
30349.9
30349.9
30349.9
30349.9
30349.9
30349.9
30349.9
30349.9
30349.9
30349.8
30349.8
30349.8
30349.8
30349.8
30349.8
30349.8
30349.8
30349.8
30349.8
30349.8
30349.8
30349.8
30349.8
30349.8
30349.9
30349.9
30350
30350.2
30350.4
30350.7
30351.2
30351.8
30352.6
30353.7
30355.1
30356.8
30359
30361.7
30365
30368.9
30373.5
30378.9
30385.1
30392.1
30399.9
30408.4
30417.7
30427.7
30438.1
30449
30460.2
30471.5
30482.7
30493.7
30504.4
30514.6
30524.1
30532.9
30541
30548.2
30554.5
30560.1
30564.8
30568.8
30572.1
30574.8
30576.9
30578.6
30579.8
30580.8
30581.5
30582
30582.4
30582.6
30582.8
30582.9
30583
30583
30583
30583
30583
30583
30583
30583
30583
30583
30583
30583
30583
30583
30583
30583
30583
)
;

boundaryField
{
    sides
    {
        type            zeroGradient;
    }
    empty
    {
        type            empty;
    }
}


// ************************************************************************* //
