/*--------------------------------*- C++ -*----------------------------------*\
  =========                 |
  \\      /  F ield         | OpenFOAM: The Open Source CFD Toolbox
   \\    /   O peration     | Website:  https://openfoam.org
    \\  /    A nd           | Version:  9
     \\/     M anipulation  |
\*---------------------------------------------------------------------------*/
FoamFile
{
    format      ascii;
    class       surfaceScalarField;
    location    "0.013";
    object      phi;
}
// * * * * * * * * * * * * * * * * * * * * * * * * * * * * * * * * * * * * * //

dimensions      [1 0 -1 0 0 0 0];

internalField   nonuniform List<scalar> 
999
(
3.83381
5.51881
7.20713
8.89959
10.5966
12.2984
14.0054
15.718
17.4367
19.1619
20.8939
22.6334
24.3806
26.1362
27.9005
29.6739
31.4568
33.2495
35.0524
36.8655
38.6892
40.5234
42.3682
44.2235
46.0894
47.9655
49.8517
51.7478
53.6533
55.5681
57.4916
59.4234
61.3632
63.3104
65.2647
67.2254
69.1922
71.1645
73.1418
75.1238
77.1099
79.0997
81.0927
83.0885
85.0867
87.0868
89.0886
91.0916
93.0955
95.1
97.1047
99.1093
101.113
103.117
105.12
107.121
109.121
111.119
113.116
115.11
117.102
119.092
121.079
123.063
125.044
127.022
128.997
130.968
132.936
134.9
136.86
138.816
140.768
142.716
144.66
146.599
148.534
150.464
152.39
154.31
156.226
158.137
160.043
161.945
163.841
165.731
167.617
169.497
171.372
173.242
175.106
176.965
178.818
180.665
182.507
184.343
186.174
187.999
189.818
191.631
193.439
195.241
197.037
198.827
200.611
202.389
204.161
205.927
207.687
209.441
211.19
212.932
214.668
216.398
218.122
219.84
221.551
223.257
224.956
226.65
228.337
230.018
231.693
233.362
235.024
236.681
238.331
239.975
241.613
243.245
244.87
246.49
248.103
249.71
251.311
252.906
254.494
256.076
257.653
259.223
260.786
262.344
263.896
265.441
266.98
268.513
270.04
271.561
273.076
274.584
276.086
277.583
279.073
280.557
282.035
283.506
284.972
286.432
287.885
289.333
290.774
292.21
293.639
295.062
296.479
297.891
299.296
300.695
302.088
303.476
304.857
306.232
307.601
308.965
310.322
311.673
313.019
314.359
315.692
317.02
318.342
319.658
320.968
322.272
323.571
324.863
326.15
327.431
328.706
329.975
331.239
332.497
333.749
334.995
336.235
337.47
338.699
339.923
341.14
342.352
343.558
344.759
345.954
347.143
348.326
349.504
350.677
351.843
353.005
354.16
355.31
356.454
357.593
358.727
359.854
360.977
362.093
363.205
364.311
365.411
366.506
367.595
368.679
369.758
370.831
371.899
372.961
374.018
375.069
376.116
377.157
378.192
379.222
380.247
381.267
382.281
383.29
384.294
385.293
386.286
387.274
388.257
389.235
390.207
391.174
392.136
393.093
394.045
394.992
395.933
396.87
397.801
398.728
399.649
400.565
401.476
402.382
403.283
404.179
405.07
405.956
406.837
407.713
408.584
409.45
410.311
411.168
412.018
412.866
413.706
414.544
415.374
416.204
417.022
417.844
418.651
419.464
420.262
421.065
421.854
422.645
423.429
424.205
424.985
425.747
426.521
427.271
428.036
428.78
429.53
430.27
431.006
431.741
432.466
433.191
433.909
434.622
435.333
436.036
436.737
437.433
438.123
438.811
439.493
440.17
440.844
441.512
442.177
442.836
443.492
444.143
444.789
445.432
446.069
446.703
447.332
447.957
448.577
449.193
449.805
450.412
451.015
451.614
452.209
452.799
453.385
453.967
454.544
455.118
455.687
456.252
456.812
457.369
457.921
458.469
459.014
459.553
460.089
460.621
461.149
461.672
462.191
462.707
463.218
463.725
464.229
464.728
465.223
465.714
466.201
466.684
467.163
467.639
468.11
468.577
469.041
469.5
469.955
470.407
470.855
471.299
471.739
472.175
472.607
473.035
473.46
473.881
474.298
474.711
475.12
475.525
475.927
476.325
476.719
477.11
477.497
477.88
478.259
478.635
479.006
479.375
479.739
480.1
480.457
480.811
481.161
481.507
481.849
482.188
482.524
482.856
483.184
483.508
483.83
484.147
484.461
484.771
485.078
485.382
485.681
485.978
486.27
486.56
486.846
487.128
487.407
487.682
487.954
488.223
488.488
488.749
489.007
489.262
489.514
489.762
490.006
490.247
490.485
490.72
490.951
491.178
491.403
491.624
491.841
492.056
492.267
492.474
492.679
492.88
493.077
493.272
493.463
493.651
493.835
494.016
494.194
494.369
494.541
494.709
494.874
495.035
495.194
495.349
495.501
495.65
495.795
495.937
496.077
496.212
496.345
496.474
496.601
496.724
496.843
496.96
497.074
497.184
497.291
497.395
497.496
497.593
497.688
497.779
497.868
497.953
498.035
498.114
498.191
498.264
498.334
498.401
498.465
498.526
498.585
498.641
498.693
498.744
498.791
498.836
498.878
498.917
498.955
498.989
499.022
499.052
499.08
499.106
499.129
499.151
499.171
499.189
499.206
499.221
499.234
499.246
499.257
499.267
499.275
499.282
499.289
499.294
499.299
499.303
499.307
499.309
499.312
499.314
499.315
499.317
499.317
499.318
499.319
499.319
499.319
499.319
499.319
499.318
499.318
499.318
499.317
499.317
499.316
499.316
499.315
499.315
499.314
499.314
499.313
499.312
499.312
499.311
499.311
499.31
499.309
499.309
499.308
499.307
499.307
499.306
499.305
499.305
499.304
499.303
499.303
499.302
499.301
499.301
499.3
499.299
499.299
499.298
499.297
499.296
499.296
499.295
499.294
499.293
499.293
499.292
499.291
499.291
499.29
499.289
499.288
499.287
499.287
499.286
499.285
499.284
499.283
499.283
499.282
499.281
499.28
499.279
499.278
499.278
499.277
499.276
499.275
499.274
499.273
499.272
499.271
499.271
499.27
499.269
499.268
499.267
499.266
499.265
499.264
499.263
499.262
499.261
499.26
499.259
499.258
499.257
499.256
499.255
499.254
499.253
499.252
499.251
499.25
499.249
499.248
499.247
499.246
499.245
499.244
499.242
499.241
499.24
499.239
499.238
499.237
499.236
499.235
499.233
499.232
499.231
499.23
499.229
499.228
499.226
499.225
499.224
499.223
499.221
499.22
499.219
499.218
499.216
499.215
499.214
499.212
499.211
499.21
499.208
499.207
499.206
499.204
499.203
499.201
499.2
499.198
499.197
499.196
499.194
499.193
499.191
499.19
499.188
499.187
499.185
499.183
499.182
499.18
499.179
499.177
499.175
499.174
499.172
499.17
499.169
499.167
499.165
499.164
499.162
499.16
499.158
499.156
499.155
499.153
499.151
499.149
499.147
499.145
499.143
499.141
499.139
499.137
499.135
499.133
499.131
499.129
499.127
499.125
499.123
499.121
499.118
499.116
499.114
499.112
499.109
499.107
499.105
499.102
499.1
499.098
499.095
499.093
499.09
499.088
499.085
499.083
499.08
499.077
499.075
499.072
499.069
499.067
499.064
499.061
499.058
499.055
499.052
499.049
499.046
499.043
499.04
499.037
499.034
499.031
499.028
499.024
499.021
499.018
499.014
499.011
499.007
499.004
499
498.997
498.993
498.989
498.985
498.982
498.978
498.974
498.97
498.966
498.962
498.957
498.953
498.949
498.944
498.94
498.935
498.931
498.926
498.922
498.917
498.912
498.907
498.902
498.897
498.892
498.886
498.881
498.876
498.87
498.864
498.859
498.853
498.847
498.841
498.835
498.829
498.822
498.816
498.809
498.802
498.795
498.788
498.781
498.774
498.767
498.759
498.751
498.744
498.736
498.727
498.719
498.71
498.702
498.693
498.684
498.674
498.665
498.655
498.645
498.635
498.624
498.614
498.603
498.591
498.58
498.568
498.556
498.544
498.531
498.518
498.504
498.49
498.476
498.462
498.446
498.431
498.415
498.399
498.382
498.364
498.346
498.327
498.308
498.288
498.268
498.246
498.224
498.201
498.178
498.153
498.127
498.101
498.073
498.044
498.014
497.982
497.949
497.915
497.878
497.84
497.8
497.758
497.712
497.665
497.614
497.56
497.504
497.445
497.383
497.319
497.254
497.185
497.113
497.035
496.948
496.844
496.717
496.553
496.339
496.056
495.68
495.185
494.541
493.714
492.669
491.367
489.771
487.845
485.554
482.869
479.764
476.222
472.233
467.797
462.923
457.629
451.944
445.907
439.563
432.966
426.174
419.25
412.258
405.262
398.325
391.507
384.862
378.438
372.278
366.416
360.879
355.689
350.857
346.389
342.286
338.543
335.149
332.091
329.353
326.915
324.758
322.859
321.198
319.753
318.502
317.425
316.503
315.718
315.052
314.491
314.02
313.627
313.3
313.03
312.808
312.626
312.477
312.356
312.259
312.18
312.117
312.066
312.025
311.993
311.967
311.947
311.931
311.918
311.908
311.899
311.893
311.888
311.884
311.88
311.877
311.875
311.873
311.871
311.869
311.868
311.866
311.864
311.861
311.859
311.855
311.851
311.845
311.839
311.831
311.821
311.81
311.797
311.782
311.765
311.745
311.723
311.7
311.674
311.647
311.618
311.588
311.558
311.527
311.497
311.467
311.438
311.411
311.385
311.362
311.34
311.321
311.304
311.29
311.277
311.267
311.258
311.251
311.246
311.242
311.238
311.236
311.234
311.232
311.231
311.23
311.23
311.229
311.229
311.229
311.229
311.229
311.228
311.228
311.228
311.228
311.228
311.228
311.228
311.228
311.228
311.227
311.227
311.227
311.227
)
;

boundaryField
{
    sides
    {
        type            calculated;
        value           nonuniform List<scalar> 2(311.227 -2.1552);
    }
    empty
    {
        type            empty;
        value           nonuniform List<scalar> 0();
    }
}


// ************************************************************************* //
