/*--------------------------------*- C++ -*----------------------------------*\
  =========                 |
  \\      /  F ield         | OpenFOAM: The Open Source CFD Toolbox
   \\    /   O peration     | Website:  https://openfoam.org
    \\  /    A nd           | Version:  9
     \\/     M anipulation  |
\*---------------------------------------------------------------------------*/
FoamFile
{
    format      ascii;
    class       volScalarField;
    location    "0.023";
    object      p;
}
// * * * * * * * * * * * * * * * * * * * * * * * * * * * * * * * * * * * * * //

dimensions      [1 -1 -2 0 0 0 0];

internalField   nonuniform List<scalar> 
100
(
37348.3
37199.3
36991.4
36836.4
36684.7
36529
36373.4
36218.8
36065.3
35911.9
35760.2
35606.9
35457.3
35305
35156.9
35006.9
34859.2
34713.3
34565.8
34422.5
34280.8
34137
33996.4
33860.6
33722.4
33585.6
33452.4
33321.8
33190.9
33062.3
32935.6
32814
32691.1
32571.2
32451.6
32341.7
32224.5
32117.3
32007.9
31903.9
31802.9
31700.6
31607.1
31509.2
31418.3
31326.1
31233.6
31153.2
31062.3
30975.9
30893.7
30805.2
30738.6
30665.7
30593.3
30533.9
30476.4
30423.2
30398
30363
30337.6
30318
30305.3
30294.2
30288.7
30289.8
30290
30290.3
30291.1
30291.7
30294.8
30297.7
30299.4
30302.3
30306.1
30314.5
30326.2
30338.5
30351.6
30370.1
30392.2
30415.9
30439.1
30461.7
30480.3
30501.4
30520.2
30536.2
30546.1
30548.6
30552.2
30555.2
30556.6
30557.5
30557.9
30557.5
30557
30556.4
30554.5
30553.5
)
;

boundaryField
{
    sides
    {
        type            zeroGradient;
    }
    empty
    {
        type            empty;
    }
}


// ************************************************************************* //
