/*--------------------------------*- C++ -*----------------------------------*\
  =========                 |
  \\      /  F ield         | OpenFOAM: The Open Source CFD Toolbox
   \\    /   O peration     | Website:  https://openfoam.org
    \\  /    A nd           | Version:  9
     \\/     M anipulation  |
\*---------------------------------------------------------------------------*/
FoamFile
{
    format      ascii;
    class       volVectorField;
    location    "0.014";
    object      U;
}
// * * * * * * * * * * * * * * * * * * * * * * * * * * * * * * * * * * * * * //

dimensions      [0 1 -1 0 0 0 0];

internalField   nonuniform List<vector> 
1000
(
(1.79879 0 0)
(3.73471 0 0)
(4.19516 0 0)
(5.55024 0 0)
(6.50403 0 0)
(7.53866 0 0)
(8.59259 0 0)
(9.6308 0 0)
(10.6705 0 0)
(11.7077 0 0)
(12.7423 0 0)
(13.7739 0 0)
(14.8022 0 0)
(15.8266 0 0)
(16.8469 0 0)
(17.8624 0 0)
(18.8726 0 0)
(19.877 0 0)
(20.875 0 0)
(21.8658 0 0)
(22.8487 0 0)
(23.8231 0 0)
(24.788 0 0)
(25.7427 0 0)
(26.6862 0 0)
(27.6175 0 0)
(28.5353 0 0)
(29.4383 0 0)
(30.325 0 0)
(31.1937 0 0)
(32.043 0 0)
(32.8715 0 0)
(33.6782 0 0)
(34.4627 0 0)
(35.2248 0 0)
(35.9651 0 0)
(36.6845 0 0)
(37.3843 0 0)
(38.066 0 0)
(38.7315 0 0)
(39.3826 0 0)
(40.021 0 0)
(40.6485 0 0)
(41.2669 0 0)
(41.8775 0 0)
(42.4818 0 0)
(43.081 0 0)
(43.6761 0 0)
(44.2679 0 0)
(44.8571 0 0)
(45.4445 0 0)
(46.0304 0 0)
(46.6152 0 0)
(47.1992 0 0)
(47.7826 0 0)
(48.3657 0 0)
(48.9485 0 0)
(49.5312 0 0)
(50.1139 0 0)
(50.6965 0 0)
(51.2792 0 0)
(51.862 0 0)
(52.4449 0 0)
(53.0279 0 0)
(53.611 0 0)
(54.1942 0 0)
(54.7775 0 0)
(55.361 0 0)
(55.9446 0 0)
(56.5284 0 0)
(57.1122 0 0)
(57.6962 0 0)
(58.2803 0 0)
(58.8646 0 0)
(59.4489 0 0)
(60.0334 0 0)
(60.618 0 0)
(61.2027 0 0)
(61.7875 0 0)
(62.3724 0 0)
(62.9574 0 0)
(63.5425 0 0)
(64.1277 0 0)
(64.713 0 0)
(65.2984 0 0)
(65.8839 0 0)
(66.4695 0 0)
(67.0552 0 0)
(67.6409 0 0)
(68.2268 0 0)
(68.8127 0 0)
(69.3987 0 0)
(69.9848 0 0)
(70.571 0 0)
(71.1573 0 0)
(71.7436 0 0)
(72.33 0 0)
(72.9165 0 0)
(73.503 0 0)
(74.0897 0 0)
(74.6764 0 0)
(75.2631 0 0)
(75.8499 0 0)
(76.4368 0 0)
(77.0238 0 0)
(77.6108 0 0)
(78.1979 0 0)
(78.785 0 0)
(79.3722 0 0)
(79.9595 0 0)
(80.5468 0 0)
(81.1342 0 0)
(81.7216 0 0)
(82.3091 0 0)
(82.8966 0 0)
(83.4842 0 0)
(84.0719 0 0)
(84.6596 0 0)
(85.2473 0 0)
(85.8351 0 0)
(86.4229 0 0)
(87.0108 0 0)
(87.5987 0 0)
(88.1867 0 0)
(88.7748 0 0)
(89.3628 0 0)
(89.9509 0 0)
(90.5391 0 0)
(91.1273 0 0)
(91.7155 0 0)
(92.3038 0 0)
(92.8921 0 0)
(93.4805 0 0)
(94.0689 0 0)
(94.6573 0 0)
(95.2458 0 0)
(95.8343 0 0)
(96.4228 0 0)
(97.0114 0 0)
(97.6 0 0)
(98.1887 0 0)
(98.7774 0 0)
(99.3661 0 0)
(99.9548 0 0)
(100.544 0 0)
(101.132 0 0)
(101.721 0 0)
(102.31 0 0)
(102.899 0 0)
(103.488 0 0)
(104.077 0 0)
(104.666 0 0)
(105.255 0 0)
(105.844 0 0)
(106.433 0 0)
(107.022 0 0)
(107.611 0 0)
(108.2 0 0)
(108.79 0 0)
(109.379 0 0)
(109.968 0 0)
(110.557 0 0)
(111.147 0 0)
(111.736 0 0)
(112.325 0 0)
(112.915 0 0)
(113.504 0 0)
(114.093 0 0)
(114.683 0 0)
(115.272 0 0)
(115.862 0 0)
(116.451 0 0)
(117.04 0 0)
(117.63 0 0)
(118.22 0 0)
(118.809 0 0)
(119.399 0 0)
(119.988 0 0)
(120.578 0 0)
(121.167 0 0)
(121.757 0 0)
(122.347 0 0)
(122.936 0 0)
(123.526 0 0)
(124.116 0 0)
(124.705 0 0)
(125.295 0 0)
(125.885 0 0)
(126.475 0 0)
(127.064 0 0)
(127.654 0 0)
(128.244 0 0)
(128.834 0 0)
(129.424 0 0)
(130.013 0 0)
(130.603 0 0)
(131.193 0 0)
(131.783 0 0)
(132.373 0 0)
(132.963 0 0)
(133.553 0 0)
(134.142 0 0)
(134.732 0 0)
(135.322 0 0)
(135.912 0 0)
(136.502 0 0)
(137.092 0 0)
(137.682 0 0)
(138.272 0 0)
(138.862 0 0)
(139.452 0 0)
(140.042 0 0)
(140.632 0 0)
(141.222 0 0)
(141.812 0 0)
(142.402 0 0)
(142.992 0 0)
(143.582 0 0)
(144.172 0 0)
(144.762 0 0)
(145.352 0 0)
(145.942 0 0)
(146.532 0 0)
(147.122 0 0)
(147.712 0 0)
(148.302 0 0)
(148.892 0 0)
(149.482 0 0)
(150.072 0 0)
(150.662 0 0)
(151.252 0 0)
(151.842 0 0)
(152.432 0 0)
(153.022 0 0)
(153.612 0 0)
(154.202 0 0)
(154.792 0 0)
(155.382 0 0)
(155.972 0 0)
(156.562 0 0)
(157.152 0 0)
(157.742 0 0)
(158.332 0 0)
(158.922 0 0)
(159.511 0 0)
(160.101 0 0)
(160.691 0 0)
(161.281 0 0)
(161.871 0 0)
(162.461 0 0)
(163.051 0 0)
(163.641 0 0)
(164.231 0 0)
(164.82 0 0)
(165.41 0 0)
(166 0 0)
(166.59 0 0)
(167.18 0 0)
(167.77 0 0)
(168.359 0 0)
(168.949 0 0)
(169.539 0 0)
(170.129 0 0)
(170.719 0 0)
(171.309 0 0)
(171.899 0 0)
(172.489 0 0)
(173.078 0 0)
(173.668 0 0)
(174.258 0 0)
(174.848 0 0)
(175.438 0 0)
(176.027 0 0)
(176.617 0 0)
(177.207 0 0)
(177.797 0 0)
(178.386 0 0)
(178.976 0 0)
(179.566 0 0)
(180.155 0 0)
(180.745 0 0)
(181.335 0 0)
(181.924 0 0)
(182.514 0 0)
(183.103 0 0)
(183.693 0 0)
(184.282 0 0)
(184.872 0 0)
(185.461 0 0)
(186.05 0 0)
(186.64 0 0)
(187.229 0 0)
(187.819 0 0)
(188.408 0 0)
(188.997 0 0)
(189.586 0 0)
(190.175 0 0)
(190.765 0 0)
(191.354 0 0)
(191.943 0 0)
(192.532 0 0)
(193.121 0 0)
(193.71 0 0)
(194.299 0 0)
(194.888 0 0)
(195.477 0 0)
(196.065 0 0)
(196.654 0 0)
(197.243 0 0)
(197.832 0 0)
(198.42 0 0)
(199.009 0 0)
(199.597 0 0)
(200.186 0 0)
(200.774 0 0)
(201.363 0 0)
(201.951 0 0)
(202.539 0 0)
(203.128 0 0)
(203.716 0 0)
(204.304 0 0)
(204.892 0 0)
(205.48 0 0)
(206.068 0 0)
(206.656 0 0)
(207.244 0 0)
(207.831 0 0)
(208.419 0 0)
(209.007 0 0)
(209.594 0 0)
(210.182 0 0)
(210.769 0 0)
(211.356 0 0)
(211.944 0 0)
(212.531 0 0)
(213.118 0 0)
(213.705 0 0)
(214.292 0 0)
(214.878 0 0)
(215.465 0 0)
(216.052 0 0)
(216.638 0 0)
(217.225 0 0)
(217.811 0 0)
(218.397 0 0)
(218.983 0 0)
(219.569 0 0)
(220.155 0 0)
(220.741 0 0)
(221.326 0 0)
(221.912 0 0)
(222.497 0 0)
(223.082 0 0)
(223.667 0 0)
(224.253 0 0)
(224.837 0 0)
(225.422 0 0)
(226.007 0 0)
(226.591 0 0)
(227.175 0 0)
(227.759 0 0)
(228.343 0 0)
(228.927 0 0)
(229.511 0 0)
(230.094 0 0)
(230.678 0 0)
(231.261 0 0)
(231.844 0 0)
(232.426 0 0)
(233.009 0 0)
(233.591 0 0)
(234.173 0 0)
(234.755 0 0)
(235.337 0 0)
(235.918 0 0)
(236.5 0 0)
(237.081 0 0)
(237.661 0 0)
(238.242 0 0)
(238.822 0 0)
(239.402 0 0)
(239.982 0 0)
(240.561 0 0)
(241.14 0 0)
(241.719 0 0)
(242.297 0 0)
(242.876 0 0)
(243.453 0 0)
(244.031 0 0)
(244.608 0 0)
(245.185 0 0)
(245.761 0 0)
(246.337 0 0)
(246.913 0 0)
(247.488 0 0)
(248.063 0 0)
(248.637 0 0)
(249.211 0 0)
(249.784 0 0)
(250.357 0 0)
(250.93 0 0)
(251.501 0 0)
(252.073 0 0)
(252.644 0 0)
(253.214 0 0)
(253.783 0 0)
(254.353 0 0)
(254.921 0 0)
(255.489 0 0)
(256.056 0 0)
(256.622 0 0)
(257.187 0 0)
(257.753 0 0)
(258.316 0 0)
(258.88 0 0)
(259.442 0 0)
(260.004 0 0)
(260.564 0 0)
(261.124 0 0)
(261.682 0 0)
(262.24 0 0)
(262.796 0 0)
(263.351 0 0)
(263.905 0 0)
(264.458 0 0)
(265.01 0 0)
(265.56 0 0)
(266.109 0 0)
(266.657 0 0)
(267.203 0 0)
(267.748 0 0)
(268.291 0 0)
(268.832 0 0)
(269.371 0 0)
(269.909 0 0)
(270.445 0 0)
(270.979 0 0)
(271.511 0 0)
(272.04 0 0)
(272.567 0 0)
(273.093 0 0)
(273.615 0 0)
(274.135 0 0)
(274.652 0 0)
(275.166 0 0)
(275.677 0 0)
(276.186 0 0)
(276.691 0 0)
(277.193 0 0)
(277.691 0 0)
(278.185 0 0)
(278.676 0 0)
(279.162 0 0)
(279.645 0 0)
(280.123 0 0)
(280.596 0 0)
(281.065 0 0)
(281.528 0 0)
(281.987 0 0)
(282.439 0 0)
(282.886 0 0)
(283.327 0 0)
(283.762 0 0)
(284.19 0 0)
(284.612 0 0)
(285.026 0 0)
(285.433 0 0)
(285.832 0 0)
(286.223 0 0)
(286.605 0 0)
(286.98 0 0)
(287.344 0 0)
(287.7 0 0)
(288.046 0 0)
(288.383 0 0)
(288.709 0 0)
(289.025 0 0)
(289.329 0 0)
(289.624 0 0)
(289.906 0 0)
(290.178 0 0)
(290.437 0 0)
(290.686 0 0)
(290.922 0 0)
(291.147 0 0)
(291.359 0 0)
(291.56 0 0)
(291.749 0 0)
(291.926 0 0)
(292.092 0 0)
(292.247 0 0)
(292.39 0 0)
(292.522 0 0)
(292.644 0 0)
(292.756 0 0)
(292.858 0 0)
(292.951 0 0)
(293.036 0 0)
(293.112 0 0)
(293.18 0 0)
(293.241 0 0)
(293.295 0 0)
(293.343 0 0)
(293.386 0 0)
(293.424 0 0)
(293.457 0 0)
(293.487 0 0)
(293.512 0 0)
(293.535 0 0)
(293.555 0 0)
(293.573 0 0)
(293.589 0 0)
(293.602 0 0)
(293.614 0 0)
(293.624 0 0)
(293.632 0 0)
(293.637 0 0)
(293.641 0 0)
(293.642 0 0)
(293.641 0 0)
(293.639 0 0)
(293.632 0 0)
(293.616 0 0)
(293.588 0 0)
(293.552 0 0)
(293.514 0 0)
(293.478 0 0)
(293.449 0 0)
(293.425 0 0)
(293.407 0 0)
(293.394 0 0)
(293.388 0 0)
(293.387 0 0)
(293.387 0 0)
(293.388 0 0)
(293.39 0 0)
(293.395 0 0)
(293.406 0 0)
(293.421 0 0)
(293.437 0 0)
(293.453 0 0)
(293.467 0 0)
(293.478 0 0)
(293.488 0 0)
(293.495 0 0)
(293.501 0 0)
(293.504 0 0)
(293.505 0 0)
(293.505 0 0)
(293.505 0 0)
(293.504 0 0)
(293.504 0 0)
(293.503 0 0)
(293.502 0 0)
(293.501 0 0)
(293.5 0 0)
(293.5 0 0)
(293.499 0 0)
(293.499 0 0)
(293.498 0 0)
(293.498 0 0)
(293.498 0 0)
(293.498 0 0)
(293.498 0 0)
(293.499 0 0)
(293.499 0 0)
(293.5 0 0)
(293.501 0 0)
(293.502 0 0)
(293.503 0 0)
(293.503 0 0)
(293.503 0 0)
(293.504 0 0)
(293.504 0 0)
(293.504 0 0)
(293.504 0 0)
(293.504 0 0)
(293.504 0 0)
(293.504 0 0)
(293.504 0 0)
(293.505 0 0)
(293.505 0 0)
(293.505 0 0)
(293.505 0 0)
(293.505 0 0)
(293.505 0 0)
(293.505 0 0)
(293.505 0 0)
(293.505 0 0)
(293.505 0 0)
(293.505 0 0)
(293.505 0 0)
(293.505 0 0)
(293.505 0 0)
(293.505 0 0)
(293.505 0 0)
(293.505 0 0)
(293.505 0 0)
(293.505 0 0)
(293.505 0 0)
(293.505 0 0)
(293.506 0 0)
(293.505 0 0)
(293.505 0 0)
(293.505 0 0)
(293.506 0 0)
(293.506 0 0)
(293.506 0 0)
(293.507 0 0)
(293.507 0 0)
(293.507 0 0)
(293.507 0 0)
(293.508 0 0)
(293.508 0 0)
(293.508 0 0)
(293.508 0 0)
(293.508 0 0)
(293.509 0 0)
(293.509 0 0)
(293.509 0 0)
(293.509 0 0)
(293.509 0 0)
(293.509 0 0)
(293.51 0 0)
(293.51 0 0)
(293.51 0 0)
(293.511 0 0)
(293.511 0 0)
(293.511 0 0)
(293.512 0 0)
(293.512 0 0)
(293.513 0 0)
(293.513 0 0)
(293.514 0 0)
(293.514 0 0)
(293.512 0 0)
(293.51 0 0)
(293.51 0 0)
(293.511 0 0)
(293.514 0 0)
(293.517 0 0)
(293.516 0 0)
(293.514 0 0)
(293.513 0 0)
(293.514 0 0)
(293.516 0 0)
(293.518 0 0)
(293.518 0 0)
(293.517 0 0)
(293.518 0 0)
(293.518 0 0)
(293.519 0 0)
(293.519 0 0)
(293.521 0 0)
(293.521 0 0)
(293.521 0 0)
(293.521 0 0)
(293.523 0 0)
(293.524 0 0)
(293.523 0 0)
(293.523 0 0)
(293.524 0 0)
(293.525 0 0)
(293.526 0 0)
(293.526 0 0)
(293.527 0 0)
(293.528 0 0)
(293.528 0 0)
(293.529 0 0)
(293.53 0 0)
(293.53 0 0)
(293.53 0 0)
(293.532 0 0)
(293.534 0 0)
(293.531 0 0)
(293.528 0 0)
(293.536 0 0)
(293.545 0 0)
(293.536 0 0)
(293.515 0 0)
(293.503 0 0)
(293.494 0 0)
(293.494 0 0)
(293.517 0 0)
(293.542 0 0)
(293.542 0 0)
(293.527 0 0)
(293.514 0 0)
(293.516 0 0)
(293.525 0 0)
(293.529 0 0)
(293.527 0 0)
(293.524 0 0)
(293.522 0 0)
(293.522 0 0)
(293.524 0 0)
(293.524 0 0)
(293.522 0 0)
(293.521 0 0)
(293.523 0 0)
(293.523 0 0)
(293.519 0 0)
(293.52 0 0)
(293.528 0 0)
(293.521 0 0)
(293.507 0 0)
(293.52 0 0)
(293.541 0 0)
(293.519 0 0)
(293.483 0 0)
(293.513 0 0)
(293.565 0 0)
(293.532 0 0)
(293.464 0 0)
(293.486 0 0)
(293.561 0 0)
(293.553 0 0)
(293.481 0 0)
(293.464 0 0)
(293.516 0 0)
(293.558 0 0)
(293.544 0 0)
(293.507 0 0)
(293.495 0 0)
(293.506 0 0)
(293.522 0 0)
(293.525 0 0)
(293.519 0 0)
(293.51 0 0)
(293.51 0 0)
(293.513 0 0)
(293.515 0 0)
(293.514 0 0)
(293.511 0 0)
(293.511 0 0)
(293.512 0 0)
(293.511 0 0)
(293.509 0 0)
(293.509 0 0)
(293.51 0 0)
(293.507 0 0)
(293.505 0 0)
(293.508 0 0)
(293.509 0 0)
(293.501 0 0)
(293.501 0 0)
(293.509 0 0)
(293.507 0 0)
(293.492 0 0)
(293.492 0 0)
(293.507 0 0)
(293.508 0 0)
(293.492 0 0)
(293.484 0 0)
(293.491 0 0)
(293.498 0 0)
(293.494 0 0)
(293.485 0 0)
(293.485 0 0)
(293.488 0 0)
(293.487 0 0)
(293.481 0 0)
(293.478 0 0)
(293.48 0 0)
(293.48 0 0)
(293.475 0 0)
(293.471 0 0)
(293.472 0 0)
(293.472 0 0)
(293.468 0 0)
(293.465 0 0)
(293.466 0 0)
(293.465 0 0)
(293.459 0 0)
(293.457 0 0)
(293.46 0 0)
(293.457 0 0)
(293.447 0 0)
(293.447 0 0)
(293.456 0 0)
(293.453 0 0)
(293.437 0 0)
(293.436 0 0)
(293.451 0 0)
(293.456 0 0)
(293.443 0 0)
(293.43 0 0)
(293.435 0 0)
(293.447 0 0)
(293.445 0 0)
(293.436 0 0)
(293.439 0 0)
(293.452 0 0)
(293.45 0 0)
(293.434 0 0)
(293.438 0 0)
(293.456 0 0)
(293.447 0 0)
(293.421 0 0)
(293.431 0 0)
(293.464 0 0)
(293.451 0 0)
(293.411 0 0)
(293.427 0 0)
(293.473 0 0)
(293.448 0 0)
(293.393 0 0)
(293.429 0 0)
(293.493 0 0)
(293.445 0 0)
(293.371 0 0)
(293.441 0 0)
(293.531 0 0)
(293.44 0 0)
(293.33 0 0)
(293.446 0 0)
(293.582 0 0)
(293.433 0 0)
(293.25 0 0)
(293.418 0 0)
(293.674 0 0)
(293.527 0 0)
(293.181 0 0)
(293.226 0 0)
(293.604 0 0)
(293.73 0 0)
(293.412 0 0)
(293.115 0 0)
(293.289 0 0)
(293.643 0 0)
(293.608 0 0)
(293.259 0 0)
(293.133 0 0)
(293.406 0 0)
(293.64 0 0)
(293.44 0 0)
(293.113 0 0)
(293.188 0 0)
(293.509 0 0)
(293.535 0 0)
(293.215 0 0)
(293.043 0 0)
(293.288 0 0)
(293.546 0 0)
(293.36 0 0)
(292.993 0 0)
(293.033 0 0)
(293.393 0 0)
(293.48 0 0)
(293.111 0 0)
(292.797 0 0)
(293.039 0 0)
(293.481 0 0)
(293.415 0 0)
(292.895 0 0)
(292.531 0 0)
(292.773 0 0)
(293.357 0 0)
(293.573 0 0)
(293.22 0 0)
(292.597 0 0)
(292.424 0 0)
(292.757 0 0)
(293.185 0 0)
(293.123 0 0)
(292.689 0 0)
(292.395 0 0)
(292.537 0 0)
(292.792 0 0)
(292.73 0 0)
(292.427 0 0)
(292.281 0 0)
(292.393 0 0)
(292.463 0 0)
(292.287 0 0)
(292.061 0 0)
(292.065 0 0)
(292.128 0 0)
(292.009 0 0)
(291.772 0 0)
(291.706 0 0)
(291.746 0 0)
(291.661 0 0)
(291.423 0 0)
(291.292 0 0)
(291.305 0 0)
(291.234 0 0)
(290.969 0 0)
(290.769 0 0)
(290.774 0 0)
(290.735 0 0)
(290.455 0 0)
(290.165 0 0)
(290.132 0 0)
(290.141 0 0)
(289.911 0 0)
(289.489 0 0)
(289.22 0 0)
(289.253 0 0)
(289.218 0 0)
(288.869 0 0)
(288.294 0 0)
(287.999 0 0)
(288.063 0 0)
(287.978 0 0)
(287.487 0 0)
(286.622 0 0)
(285.784 0 0)
(285.475 0 0)
(285.33 0 0)
(284.877 0 0)
(284.08 0 0)
(283.246 0 0)
(282.81 0 0)
(282.457 0 0)
(281.817 0 0)
(281.067 0 0)
(280.454 0 0)
(279.785 0 0)
(279.087 0 0)
(278.736 0 0)
(278.38 0 0)
(277.649 0 0)
(276.853 0 0)
(276.331 0 0)
(275.774 0 0)
(274.967 0 0)
(274.409 0 0)
(274.012 0 0)
(273.311 0 0)
(272.456 0 0)
(271.959 0 0)
(271.505 0 0)
(270.684 0 0)
(269.853 0 0)
(269.398 0 0)
(268.89 0 0)
(267.993 0 0)
(267.23 0 0)
(266.83 0 0)
(266.288 0 0)
(265.379 0 0)
(264.646 0 0)
(264.236 0 0)
(263.681 0 0)
(262.825 0 0)
(262.203 0 0)
(261.848 0 0)
(261.321 0 0)
(260.54 0 0)
(259.993 0 0)
(259.712 0 0)
(259.288 0 0)
(258.605 0 0)
(258.038 0 0)
(257.781 0 0)
(257.501 0 0)
(256.964 0 0)
(256.406 0 0)
(256.134 0 0)
(255.935 0 0)
(255.53 0 0)
(255.044 0 0)
(254.779 0 0)
(254.607 0 0)
(254.268 0 0)
(253.864 0 0)
(253.683 0 0)
(253.574 0 0)
(253.282 0 0)
(252.894 0 0)
(252.728 0 0)
(252.671 0 0)
(252.441 0 0)
(252.046 0 0)
(251.865 0 0)
(251.86 0 0)
(251.7 0 0)
(251.331 0 0)
(251.165 0 0)
(251.228 0 0)
(251.156 0 0)
(250.811 0 0)
(250.579 0 0)
(250.642 0 0)
(250.65 0 0)
(250.358 0 0)
(250.061 0 0)
(250.077 0 0)
(250.129 0 0)
(249.914 0 0)
(249.618 0 0)
(249.595 0 0)
(249.654 0 0)
(249.531 0 0)
(249.337 0 0)
(249.352 0 0)
(249.42 0 0)
(249.331 0 0)
(249.254 0 0)
)
;

boundaryField
{
    sides
    {
        type            zeroGradient;
    }
    empty
    {
        type            empty;
    }
}


// ************************************************************************* //
