/*--------------------------------*- C++ -*----------------------------------*\
  =========                 |
  \\      /  F ield         | OpenFOAM: The Open Source CFD Toolbox
   \\    /   O peration     | Website:  https://openfoam.org
    \\  /    A nd           | Version:  9
     \\/     M anipulation  |
\*---------------------------------------------------------------------------*/
FoamFile
{
    format      ascii;
    class       volScalarField;
    location    "0.03";
    object      rho;
}
// * * * * * * * * * * * * * * * * * * * * * * * * * * * * * * * * * * * * * //

dimensions      [1 -3 0 0 0 0 0];

internalField   nonuniform List<scalar> 
10000
(
0.303786
0.303781
0.303773
0.303766
0.303758
0.303751
0.303744
0.303736
0.303729
0.303722
0.303714
0.303707
0.3037
0.303692
0.303685
0.303678
0.303671
0.303663
0.303656
0.303649
0.303642
0.303635
0.303628
0.30362
0.303613
0.303605
0.303598
0.303591
0.303584
0.303578
0.303571
0.303563
0.303556
0.303548
0.303541
0.303534
0.303527
0.30352
0.303514
0.303508
0.303502
0.303495
0.303488
0.303481
0.303473
0.303465
0.303457
0.303449
0.303442
0.303435
0.303428
0.303423
0.303417
0.303413
0.303409
0.303405
0.303402
0.303399
0.303397
0.303395
0.303393
0.303391
0.303389
0.303387
0.303385
0.303384
0.303382
0.303381
0.30338
0.303378
0.303377
0.303376
0.303374
0.303373
0.303372
0.30337
0.303369
0.303368
0.303366
0.303365
0.303363
0.303362
0.303361
0.303359
0.303358
0.303357
0.303355
0.303354
0.303352
0.303351
0.30335
0.303348
0.303347
0.303346
0.303344
0.303343
0.303341
0.30334
0.303339
0.303337
0.303336
0.303335
0.303333
0.303332
0.30333
0.303329
0.303328
0.303326
0.303325
0.303323
0.303322
0.303321
0.303319
0.303318
0.303317
0.303315
0.303314
0.303312
0.303311
0.30331
0.303308
0.303307
0.303305
0.303304
0.303303
0.303301
0.3033
0.303298
0.303297
0.303296
0.303294
0.303293
0.303291
0.30329
0.303289
0.303287
0.303286
0.303284
0.303283
0.303282
0.30328
0.303279
0.303277
0.303276
0.303275
0.303273
0.303272
0.30327
0.303269
0.303268
0.303266
0.303265
0.303263
0.303262
0.30326
0.303259
0.303258
0.303256
0.303255
0.303253
0.303252
0.303251
0.303249
0.303248
0.303246
0.303245
0.303243
0.303242
0.303241
0.303239
0.303238
0.303236
0.303235
0.303234
0.303232
0.303231
0.303229
0.303228
0.303226
0.303225
0.303224
0.303222
0.303221
0.303219
0.303218
0.303216
0.303215
0.303214
0.303212
0.303211
0.303209
0.303208
0.303206
0.303205
0.303204
0.303202
0.303201
0.303199
0.303198
0.303196
0.303195
0.303193
0.303192
0.303191
0.303189
0.303188
0.303186
0.303185
0.303183
0.303182
0.303181
0.303179
0.303178
0.303176
0.303175
0.303173
0.303172
0.30317
0.303169
0.303167
0.303166
0.303165
0.303163
0.303162
0.30316
0.303159
0.303157
0.303156
0.303154
0.303153
0.303152
0.30315
0.303149
0.303147
0.303146
0.303144
0.303143
0.303141
0.30314
0.303138
0.303137
0.303135
0.303134
0.303133
0.303131
0.30313
0.303128
0.303127
0.303125
0.303124
0.303122
0.303121
0.303119
0.303118
0.303116
0.303115
0.303114
0.303112
0.303111
0.303109
0.303108
0.303106
0.303105
0.303103
0.303102
0.3031
0.303099
0.303097
0.303096
0.303094
0.303093
0.303091
0.30309
0.303088
0.303087
0.303085
0.303084
0.303083
0.303081
0.30308
0.303078
0.303077
0.303075
0.303074
0.303072
0.303071
0.303069
0.303068
0.303066
0.303065
0.303063
0.303062
0.30306
0.303059
0.303057
0.303056
0.303054
0.303053
0.303051
0.30305
0.303048
0.303047
0.303045
0.303044
0.303042
0.303041
0.303039
0.303038
0.303036
0.303035
0.303033
0.303032
0.30303
0.303029
0.303027
0.303026
0.303024
0.303023
0.303021
0.30302
0.303018
0.303017
0.303015
0.303014
0.303012
0.303011
0.303009
0.303008
0.303006
0.303005
0.303003
0.303002
0.303
0.302999
0.302997
0.302996
0.302994
0.302993
0.302991
0.30299
0.302988
0.302987
0.302985
0.302984
0.302982
0.302981
0.302979
0.302977
0.302976
0.302974
0.302973
0.302971
0.30297
0.302968
0.302967
0.302965
0.302964
0.302962
0.302961
0.302959
0.302958
0.302956
0.302955
0.302953
0.302952
0.30295
0.302948
0.302947
0.302945
0.302944
0.302942
0.302941
0.302939
0.302938
0.302936
0.302935
0.302933
0.302932
0.30293
0.302929
0.302927
0.302925
0.302924
0.302922
0.302921
0.302919
0.302918
0.302916
0.302915
0.302913
0.302912
0.30291
0.302908
0.302907
0.302905
0.302904
0.302902
0.302901
0.302899
0.302898
0.302896
0.302895
0.302893
0.302891
0.30289
0.302888
0.302887
0.302885
0.302884
0.302882
0.302881
0.302879
0.302877
0.302876
0.302874
0.302873
0.302871
0.30287
0.302868
0.302867
0.302865
0.302863
0.302862
0.30286
0.302859
0.302857
0.302856
0.302854
0.302852
0.302851
0.302849
0.302848
0.302846
0.302845
0.302843
0.302841
0.30284
0.302838
0.302837
0.302835
0.302834
0.302832
0.30283
0.302829
0.302827
0.302826
0.302824
0.302823
0.302821
0.302819
0.302818
0.302816
0.302815
0.302813
0.302811
0.30281
0.302808
0.302807
0.302805
0.302804
0.302802
0.3028
0.302799
0.302797
0.302796
0.302794
0.302792
0.302791
0.302789
0.302788
0.302786
0.302785
0.302783
0.302781
0.30278
0.302778
0.302777
0.302775
0.302773
0.302772
0.30277
0.302769
0.302767
0.302765
0.302764
0.302762
0.302761
0.302759
0.302757
0.302756
0.302754
0.302753
0.302751
0.302749
0.302748
0.302746
0.302745
0.302743
0.302741
0.30274
0.302738
0.302737
0.302735
0.302733
0.302732
0.30273
0.302728
0.302727
0.302725
0.302724
0.302722
0.30272
0.302719
0.302717
0.302716
0.302714
0.302712
0.302711
0.302709
0.302707
0.302706
0.302704
0.302703
0.302701
0.302699
0.302698
0.302696
0.302694
0.302693
0.302691
0.30269
0.302688
0.302686
0.302685
0.302683
0.302681
0.30268
0.302678
0.302677
0.302675
0.302673
0.302672
0.30267
0.302668
0.302667
0.302665
0.302664
0.302662
0.30266
0.302659
0.302657
0.302655
0.302654
0.302652
0.30265
0.302649
0.302647
0.302646
0.302644
0.302642
0.302641
0.302639
0.302637
0.302636
0.302634
0.302632
0.302631
0.302629
0.302627
0.302626
0.302624
0.302622
0.302621
0.302619
0.302618
0.302616
0.302614
0.302613
0.302611
0.302609
0.302608
0.302606
0.302604
0.302603
0.302601
0.302599
0.302598
0.302596
0.302594
0.302593
0.302591
0.302589
0.302588
0.302586
0.302584
0.302583
0.302581
0.302579
0.302578
0.302576
0.302574
0.302573
0.302571
0.302569
0.302568
0.302566
0.302564
0.302563
0.302561
0.302559
0.302558
0.302556
0.302554
0.302553
0.302551
0.302549
0.302548
0.302546
0.302544
0.302543
0.302541
0.302539
0.302538
0.302536
0.302534
0.302533
0.302531
0.302529
0.302528
0.302526
0.302524
0.302523
0.302521
0.302519
0.302517
0.302516
0.302514
0.302512
0.302511
0.302509
0.302507
0.302506
0.302504
0.302502
0.302501
0.302499
0.302497
0.302495
0.302494
0.302492
0.30249
0.302489
0.302487
0.302485
0.302484
0.302482
0.30248
0.302479
0.302477
0.302475
0.302473
0.302472
0.30247
0.302468
0.302467
0.302465
0.302463
0.302462
0.30246
0.302458
0.302456
0.302455
0.302453
0.302451
0.30245
0.302448
0.302446
0.302444
0.302443
0.302441
0.302439
0.302438
0.302436
0.302434
0.302432
0.302431
0.302429
0.302427
0.302426
0.302424
0.302422
0.30242
0.302419
0.302417
0.302415
0.302414
0.302412
0.30241
0.302408
0.302407
0.302405
0.302403
0.302401
0.3024
0.302398
0.302396
0.302395
0.302393
0.302391
0.302389
0.302388
0.302386
0.302384
0.302382
0.302381
0.302379
0.302377
0.302376
0.302374
0.302372
0.30237
0.302369
0.302367
0.302365
0.302363
0.302362
0.30236
0.302358
0.302356
0.302355
0.302353
0.302351
0.302349
0.302348
0.302346
0.302344
0.302342
0.302341
0.302339
0.302337
0.302336
0.302334
0.302332
0.30233
0.302329
0.302327
0.302325
0.302323
0.302322
0.30232
0.302318
0.302316
0.302314
0.302313
0.302311
0.302309
0.302307
0.302306
0.302304
0.302302
0.3023
0.302299
0.302297
0.302295
0.302293
0.302292
0.30229
0.302288
0.302286
0.302285
0.302283
0.302281
0.302279
0.302278
0.302276
0.302274
0.302272
0.30227
0.302269
0.302267
0.302265
0.302263
0.302262
0.30226
0.302258
0.302256
0.302255
0.302253
0.302251
0.302249
0.302247
0.302246
0.302244
0.302242
0.30224
0.302239
0.302237
0.302235
0.302233
0.302231
0.30223
0.302228
0.302226
0.302224
0.302222
0.302221
0.302219
0.302217
0.302215
0.302214
0.302212
0.30221
0.302208
0.302206
0.302205
0.302203
0.302201
0.302199
0.302197
0.302196
0.302194
0.302192
0.30219
0.302188
0.302187
0.302185
0.302183
0.302181
0.302179
0.302178
0.302176
0.302174
0.302172
0.30217
0.302169
0.302167
0.302165
0.302163
0.302161
0.30216
0.302158
0.302156
0.302154
0.302152
0.302151
0.302149
0.302147
0.302145
0.302143
0.302142
0.30214
0.302138
0.302136
0.302134
0.302132
0.302131
0.302129
0.302127
0.302125
0.302123
0.302122
0.30212
0.302118
0.302116
0.302114
0.302112
0.302111
0.302109
0.302107
0.302105
0.302103
0.302102
0.3021
0.302098
0.302096
0.302094
0.302092
0.302091
0.302089
0.302087
0.302085
0.302083
0.302081
0.30208
0.302078
0.302076
0.302074
0.302072
0.30207
0.302069
0.302067
0.302065
0.302063
0.302061
0.302059
0.302058
0.302056
0.302054
0.302052
0.30205
0.302048
0.302047
0.302045
0.302043
0.302041
0.302039
0.302037
0.302036
0.302034
0.302032
0.30203
0.302028
0.302026
0.302025
0.302022
0.302021
0.302019
0.302017
0.302015
0.302013
0.302011
0.30201
0.302008
0.302006
0.302004
0.302002
0.302
0.301999
0.301996
0.301995
0.301993
0.301991
0.301989
0.301987
0.301985
0.301984
0.301982
0.30198
0.301978
0.301976
0.301974
0.301972
0.30197
0.301969
0.301967
0.301965
0.301963
0.301961
0.301959
0.301957
0.301956
0.301954
0.301952
0.30195
0.301948
0.301946
0.301944
0.301942
0.301941
0.301939
0.301937
0.301935
0.301933
0.301931
0.301929
0.301927
0.301926
0.301924
0.301922
0.30192
0.301918
0.301916
0.301914
0.301912
0.30191
0.301909
0.301907
0.301905
0.301903
0.301901
0.301899
0.301897
0.301895
0.301893
0.301892
0.30189
0.301888
0.301886
0.301884
0.301882
0.30188
0.301878
0.301876
0.301875
0.301873
0.301871
0.301869
0.301867
0.301865
0.301863
0.301861
0.301859
0.301857
0.301856
0.301854
0.301852
0.30185
0.301848
0.301846
0.301844
0.301842
0.30184
0.301838
0.301836
0.301835
0.301833
0.301831
0.301829
0.301827
0.301825
0.301823
0.301821
0.301819
0.301817
0.301815
0.301814
0.301812
0.30181
0.301808
0.301806
0.301804
0.301802
0.3018
0.301798
0.301796
0.301794
0.301792
0.301791
0.301789
0.301787
0.301785
0.301783
0.301781
0.301779
0.301777
0.301775
0.301773
0.301771
0.301769
0.301767
0.301765
0.301764
0.301762
0.30176
0.301758
0.301756
0.301754
0.301752
0.30175
0.301748
0.301746
0.301744
0.301742
0.30174
0.301738
0.301736
0.301734
0.301733
0.301731
0.301729
0.301727
0.301725
0.301723
0.301721
0.301719
0.301717
0.301715
0.301713
0.301711
0.301709
0.301707
0.301705
0.301703
0.301701
0.301699
0.301698
0.301696
0.301694
0.301692
0.30169
0.301688
0.301686
0.301684
0.301682
0.30168
0.301678
0.301676
0.301674
0.301672
0.30167
0.301668
0.301666
0.301664
0.301662
0.30166
0.301658
0.301656
0.301654
0.301652
0.30165
0.301649
0.301647
0.301645
0.301643
0.301641
0.301639
0.301637
0.301635
0.301633
0.301631
0.301629
0.301627
0.301625
0.301623
0.301621
0.301619
0.301617
0.301615
0.301613
0.301611
0.301609
0.301607
0.301605
0.301603
0.301601
0.301599
0.301597
0.301595
0.301593
0.301591
0.301589
0.301587
0.301585
0.301583
0.301581
0.301579
0.301577
0.301575
0.301573
0.301571
0.301569
0.301567
0.301565
0.301563
0.301561
0.301559
0.301557
0.301555
0.301553
0.301551
0.301549
0.301547
0.301545
0.301543
0.301541
0.301539
0.301537
0.301535
0.301533
0.301531
0.301529
0.301527
0.301525
0.301523
0.301521
0.301519
0.301517
0.301515
0.301513
0.301511
0.301509
0.301507
0.301505
0.301503
0.301501
0.301499
0.301497
0.301495
0.301493
0.301491
0.301489
0.301487
0.301485
0.301483
0.301481
0.301479
0.301477
0.301475
0.301473
0.301471
0.301469
0.301467
0.301465
0.301463
0.301461
0.301459
0.301457
0.301455
0.301453
0.301451
0.301449
0.301447
0.301445
0.301443
0.301441
0.301439
0.301437
0.301435
0.301433
0.301431
0.301429
0.301427
0.301424
0.301422
0.30142
0.301418
0.301416
0.301414
0.301412
0.30141
0.301408
0.301406
0.301404
0.301402
0.3014
0.301398
0.301396
0.301394
0.301392
0.30139
0.301388
0.301386
0.301384
0.301382
0.30138
0.301378
0.301375
0.301373
0.301371
0.301369
0.301367
0.301365
0.301363
0.301361
0.301359
0.301357
0.301355
0.301353
0.301351
0.301349
0.301347
0.301345
0.301343
0.301341
0.301339
0.301336
0.301334
0.301332
0.30133
0.301328
0.301326
0.301324
0.301322
0.30132
0.301318
0.301316
0.301314
0.301312
0.30131
0.301308
0.301305
0.301303
0.301301
0.301299
0.301297
0.301295
0.301293
0.301291
0.301289
0.301287
0.301285
0.301283
0.301281
0.301279
0.301276
0.301274
0.301272
0.30127
0.301268
0.301266
0.301264
0.301262
0.30126
0.301258
0.301256
0.301254
0.301252
0.301249
0.301247
0.301245
0.301243
0.301241
0.301239
0.301237
0.301235
0.301233
0.301231
0.301229
0.301226
0.301224
0.301222
0.30122
0.301218
0.301216
0.301214
0.301212
0.30121
0.301208
0.301205
0.301203
0.301201
0.301199
0.301197
0.301195
0.301193
0.301191
0.301189
0.301187
0.301184
0.301182
0.30118
0.301178
0.301176
0.301174
0.301172
0.30117
0.301168
0.301166
0.301163
0.301161
0.301159
0.301157
0.301155
0.301153
0.301151
0.301149
0.301147
0.301144
0.301142
0.30114
0.301138
0.301136
0.301134
0.301132
0.30113
0.301127
0.301125
0.301123
0.301121
0.301119
0.301117
0.301115
0.301113
0.30111
0.301108
0.301106
0.301104
0.301102
0.3011
0.301098
0.301096
0.301093
0.301091
0.301089
0.301087
0.301085
0.301083
0.301081
0.301079
0.301076
0.301074
0.301072
0.30107
0.301068
0.301066
0.301064
0.301061
0.301059
0.301057
0.301055
0.301053
0.301051
0.301049
0.301046
0.301044
0.301042
0.30104
0.301038
0.301036
0.301034
0.301031
0.301029
0.301027
0.301025
0.301023
0.301021
0.301019
0.301016
0.301014
0.301012
0.30101
0.301008
0.301006
0.301003
0.301001
0.300999
0.300997
0.300995
0.300993
0.300991
0.300988
0.300986
0.300984
0.300982
0.30098
0.300978
0.300975
0.300973
0.300971
0.300969
0.300967
0.300965
0.300962
0.30096
0.300958
0.300956
0.300954
0.300952
0.300949
0.300947
0.300945
0.300943
0.300941
0.300939
0.300936
0.300934
0.300932
0.30093
0.300928
0.300925
0.300923
0.300921
0.300919
0.300917
0.300915
0.300912
0.30091
0.300908
0.300906
0.300904
0.300901
0.300899
0.300897
0.300895
0.300893
0.300891
0.300888
0.300886
0.300884
0.300882
0.30088
0.300877
0.300875
0.300873
0.300871
0.300869
0.300866
0.300864
0.300862
0.30086
0.300858
0.300855
0.300853
0.300851
0.300849
0.300847
0.300844
0.300842
0.30084
0.300838
0.300836
0.300833
0.300831
0.300829
0.300827
0.300825
0.300822
0.30082
0.300818
0.300816
0.300814
0.300811
0.300809
0.300807
0.300805
0.300803
0.3008
0.300798
0.300796
0.300794
0.300792
0.300789
0.300787
0.300785
0.300783
0.30078
0.300778
0.300776
0.300774
0.300772
0.300769
0.300767
0.300765
0.300763
0.30076
0.300758
0.300756
0.300754
0.300752
0.300749
0.300747
0.300745
0.300743
0.30074
0.300738
0.300736
0.300734
0.300732
0.300729
0.300727
0.300725
0.300723
0.30072
0.300718
0.300716
0.300714
0.300711
0.300709
0.300707
0.300705
0.300702
0.3007
0.300698
0.300696
0.300694
0.300691
0.300689
0.300687
0.300685
0.300682
0.30068
0.300678
0.300676
0.300673
0.300671
0.300669
0.300667
0.300664
0.300662
0.30066
0.300658
0.300655
0.300653
0.300651
0.300649
0.300646
0.300644
0.300642
0.30064
0.300637
0.300635
0.300633
0.300631
0.300628
0.300626
0.300624
0.300621
0.300619
0.300617
0.300615
0.300612
0.30061
0.300608
0.300606
0.300603
0.300601
0.300599
0.300597
0.300594
0.300592
0.30059
0.300588
0.300585
0.300583
0.300581
0.300578
0.300576
0.300574
0.300572
0.300569
0.300567
0.300565
0.300563
0.30056
0.300558
0.300556
0.300553
0.300551
0.300549
0.300547
0.300544
0.300542
0.30054
0.300537
0.300535
0.300533
0.300531
0.300528
0.300526
0.300524
0.300521
0.300519
0.300517
0.300515
0.300512
0.30051
0.300508
0.300505
0.300503
0.300501
0.300499
0.300496
0.300494
0.300492
0.300489
0.300487
0.300485
0.300482
0.30048
0.300478
0.300476
0.300473
0.300471
0.300469
0.300466
0.300464
0.300462
0.300459
0.300457
0.300455
0.300453
0.30045
0.300448
0.300446
0.300443
0.300441
0.300439
0.300436
0.300434
0.300432
0.300429
0.300427
0.300425
0.300423
0.30042
0.300418
0.300416
0.300413
0.300411
0.300409
0.300406
0.300404
0.300402
0.300399
0.300397
0.300395
0.300392
0.30039
0.300388
0.300385
0.300383
0.300381
0.300378
0.300376
0.300374
0.300372
0.300369
0.300367
0.300365
0.300362
0.30036
0.300358
0.300355
0.300353
0.300351
0.300348
0.300346
0.300344
0.300341
0.300339
0.300337
0.300334
0.300332
0.30033
0.300327
0.300325
0.300323
0.30032
0.300318
0.300316
0.300313
0.300311
0.300308
0.300306
0.300304
0.300301
0.300299
0.300297
0.300294
0.300292
0.30029
0.300287
0.300285
0.300283
0.30028
0.300278
0.300276
0.300273
0.300271
0.300269
0.300266
0.300264
0.300261
0.300259
0.300257
0.300254
0.300252
0.30025
0.300247
0.300245
0.300243
0.30024
0.300238
0.300236
0.300233
0.300231
0.300228
0.300226
0.300224
0.300221
0.300219
0.300217
0.300214
0.300212
0.30021
0.300207
0.300205
0.300202
0.3002
0.300198
0.300195
0.300193
0.300191
0.300188
0.300186
0.300183
0.300181
0.300179
0.300176
0.300174
0.300172
0.300169
0.300167
0.300164
0.300162
0.30016
0.300157
0.300155
0.300153
0.30015
0.300148
0.300145
0.300143
0.300141
0.300138
0.300136
0.300133
0.300131
0.300129
0.300126
0.300124
0.300121
0.300119
0.300117
0.300114
0.300112
0.30011
0.300107
0.300105
0.300102
0.3001
0.300098
0.300095
0.300093
0.30009
0.300088
0.300086
0.300083
0.300081
0.300078
0.300076
0.300074
0.300071
0.300069
0.300066
0.300064
0.300062
0.300059
0.300057
0.300054
0.300052
0.300049
0.300047
0.300045
0.300042
0.30004
0.300037
0.300035
0.300033
0.30003
0.300028
0.300025
0.300023
0.300021
0.300018
0.300016
0.300013
0.300011
0.300008
0.300006
0.300004
0.300001
0.299999
0.299996
0.299994
0.299992
0.299989
0.299987
0.299984
0.299982
0.299979
0.299977
0.299975
0.299972
0.29997
0.299967
0.299965
0.299962
0.29996
0.299958
0.299955
0.299953
0.29995
0.299948
0.299945
0.299943
0.29994
0.299938
0.299936
0.299933
0.299931
0.299928
0.299926
0.299923
0.299921
0.299919
0.299916
0.299914
0.299911
0.299909
0.299906
0.299904
0.299901
0.299899
0.299897
0.299894
0.299892
0.299889
0.299887
0.299884
0.299882
0.299879
0.299877
0.299874
0.299872
0.29987
0.299867
0.299865
0.299862
0.29986
0.299857
0.299855
0.299852
0.29985
0.299847
0.299845
0.299843
0.29984
0.299838
0.299835
0.299833
0.29983
0.299828
0.299825
0.299823
0.29982
0.299818
0.299815
0.299813
0.299811
0.299808
0.299806
0.299803
0.299801
0.299798
0.299796
0.299793
0.299791
0.299788
0.299786
0.299783
0.299781
0.299778
0.299776
0.299773
0.299771
0.299768
0.299766
0.299764
0.299761
0.299759
0.299756
0.299754
0.299751
0.299749
0.299746
0.299744
0.299741
0.299739
0.299736
0.299734
0.299731
0.299729
0.299726
0.299724
0.299721
0.299719
0.299716
0.299714
0.299711
0.299709
0.299706
0.299704
0.299701
0.299699
0.299696
0.299694
0.299691
0.299689
0.299686
0.299684
0.299681
0.299679
0.299676
0.299674
0.299671
0.299669
0.299666
0.299664
0.299661
0.299659
0.299656
0.299654
0.299651
0.299649
0.299646
0.299644
0.299641
0.299639
0.299636
0.299634
0.299631
0.299629
0.299626
0.299624
0.299621
0.299619
0.299616
0.299614
0.299611
0.299609
0.299606
0.299604
0.299601
0.299599
0.299596
0.299594
0.299591
0.299588
0.299586
0.299583
0.299581
0.299578
0.299576
0.299573
0.299571
0.299568
0.299566
0.299563
0.299561
0.299558
0.299556
0.299553
0.299551
0.299548
0.299546
0.299543
0.29954
0.299538
0.299535
0.299533
0.29953
0.299528
0.299525
0.299523
0.29952
0.299518
0.299515
0.299513
0.29951
0.299507
0.299505
0.299502
0.2995
0.299497
0.299495
0.299492
0.29949
0.299487
0.299485
0.299482
0.299479
0.299477
0.299474
0.299472
0.299469
0.299467
0.299464
0.299462
0.299459
0.299457
0.299454
0.299451
0.299449
0.299446
0.299444
0.299441
0.299439
0.299436
0.299434
0.299431
0.299428
0.299426
0.299423
0.299421
0.299418
0.299416
0.299413
0.29941
0.299408
0.299405
0.299403
0.2994
0.299398
0.299395
0.299393
0.29939
0.299387
0.299385
0.299382
0.29938
0.299377
0.299375
0.299372
0.299369
0.299367
0.299364
0.299362
0.299359
0.299357
0.299354
0.299351
0.299349
0.299346
0.299344
0.299341
0.299338
0.299336
0.299333
0.299331
0.299328
0.299326
0.299323
0.29932
0.299318
0.299315
0.299313
0.29931
0.299307
0.299305
0.299302
0.2993
0.299297
0.299295
0.299292
0.299289
0.299287
0.299284
0.299282
0.299279
0.299276
0.299274
0.299271
0.299269
0.299266
0.299263
0.299261
0.299258
0.299256
0.299253
0.29925
0.299248
0.299245
0.299243
0.29924
0.299237
0.299235
0.299232
0.29923
0.299227
0.299224
0.299222
0.299219
0.299217
0.299214
0.299211
0.299209
0.299206
0.299204
0.299201
0.299198
0.299196
0.299193
0.29919
0.299188
0.299185
0.299183
0.29918
0.299177
0.299175
0.299172
0.29917
0.299167
0.299164
0.299162
0.299159
0.299156
0.299154
0.299151
0.299149
0.299146
0.299143
0.299141
0.299138
0.299135
0.299133
0.29913
0.299128
0.299125
0.299122
0.29912
0.299117
0.299114
0.299112
0.299109
0.299107
0.299104
0.299101
0.299099
0.299096
0.299093
0.299091
0.299088
0.299085
0.299083
0.29908
0.299078
0.299075
0.299072
0.29907
0.299067
0.299064
0.299062
0.299059
0.299056
0.299054
0.299051
0.299048
0.299046
0.299043
0.299041
0.299038
0.299035
0.299033
0.29903
0.299027
0.299025
0.299022
0.299019
0.299017
0.299014
0.299011
0.299009
0.299006
0.299003
0.299001
0.298998
0.298995
0.298993
0.29899
0.298987
0.298985
0.298982
0.298979
0.298977
0.298974
0.298971
0.298969
0.298966
0.298964
0.298961
0.298958
0.298956
0.298953
0.29895
0.298948
0.298945
0.298942
0.29894
0.298937
0.298934
0.298931
0.298929
0.298926
0.298923
0.298921
0.298918
0.298915
0.298913
0.29891
0.298907
0.298905
0.298902
0.298899
0.298897
0.298894
0.298891
0.298889
0.298886
0.298883
0.298881
0.298878
0.298875
0.298873
0.29887
0.298867
0.298865
0.298862
0.298859
0.298856
0.298854
0.298851
0.298848
0.298846
0.298843
0.29884
0.298838
0.298835
0.298832
0.29883
0.298827
0.298824
0.298821
0.298819
0.298816
0.298813
0.298811
0.298808
0.298805
0.298803
0.2988
0.298797
0.298795
0.298792
0.298789
0.298786
0.298784
0.298781
0.298778
0.298776
0.298773
0.29877
0.298767
0.298765
0.298762
0.298759
0.298757
0.298754
0.298751
0.298749
0.298746
0.298743
0.29874
0.298738
0.298735
0.298732
0.29873
0.298727
0.298724
0.298721
0.298719
0.298716
0.298713
0.298711
0.298708
0.298705
0.298702
0.2987
0.298697
0.298694
0.298691
0.298689
0.298686
0.298683
0.298681
0.298678
0.298675
0.298672
0.29867
0.298667
0.298664
0.298662
0.298659
0.298656
0.298653
0.298651
0.298648
0.298645
0.298642
0.29864
0.298637
0.298634
0.298631
0.298629
0.298626
0.298623
0.298621
0.298618
0.298615
0.298612
0.29861
0.298607
0.298604
0.298601
0.298599
0.298596
0.298593
0.29859
0.298588
0.298585
0.298582
0.298579
0.298577
0.298574
0.298571
0.298568
0.298566
0.298563
0.29856
0.298557
0.298555
0.298552
0.298549
0.298546
0.298544
0.298541
0.298538
0.298535
0.298533
0.29853
0.298527
0.298524
0.298522
0.298519
0.298516
0.298513
0.298511
0.298508
0.298505
0.298502
0.2985
0.298497
0.298494
0.298491
0.298489
0.298486
0.298483
0.29848
0.298477
0.298475
0.298472
0.298469
0.298466
0.298464
0.298461
0.298458
0.298455
0.298453
0.29845
0.298447
0.298444
0.298441
0.298439
0.298436
0.298433
0.29843
0.298428
0.298425
0.298422
0.298419
0.298416
0.298414
0.298411
0.298408
0.298405
0.298403
0.2984
0.298397
0.298394
0.298391
0.298389
0.298386
0.298383
0.29838
0.298378
0.298375
0.298372
0.298369
0.298366
0.298364
0.298361
0.298358
0.298355
0.298352
0.29835
0.298347
0.298344
0.298341
0.298338
0.298336
0.298333
0.29833
0.298327
0.298324
0.298322
0.298319
0.298316
0.298313
0.298311
0.298308
0.298305
0.298302
0.298299
0.298297
0.298294
0.298291
0.298288
0.298285
0.298282
0.29828
0.298277
0.298274
0.298271
0.298268
0.298266
0.298263
0.29826
0.298257
0.298254
0.298252
0.298249
0.298246
0.298243
0.29824
0.298238
0.298235
0.298232
0.298229
0.298226
0.298223
0.298221
0.298218
0.298215
0.298212
0.298209
0.298207
0.298204
0.298201
0.298198
0.298195
0.298192
0.29819
0.298187
0.298184
0.298181
0.298178
0.298176
0.298173
0.29817
0.298167
0.298164
0.298161
0.298159
0.298156
0.298153
0.29815
0.298147
0.298144
0.298142
0.298139
0.298136
0.298133
0.29813
0.298127
0.298125
0.298122
0.298119
0.298116
0.298113
0.29811
0.298108
0.298105
0.298102
0.298099
0.298096
0.298093
0.298091
0.298088
0.298085
0.298082
0.298079
0.298076
0.298074
0.298071
0.298068
0.298065
0.298062
0.298059
0.298056
0.298054
0.298051
0.298048
0.298045
0.298042
0.298039
0.298037
0.298034
0.298031
0.298028
0.298025
0.298022
0.298019
0.298017
0.298014
0.298011
0.298008
0.298005
0.298002
0.297999
0.297997
0.297994
0.297991
0.297988
0.297985
0.297982
0.297979
0.297977
0.297974
0.297971
0.297968
0.297965
0.297962
0.297959
0.297957
0.297954
0.297951
0.297948
0.297945
0.297942
0.297939
0.297936
0.297934
0.297931
0.297928
0.297925
0.297922
0.297919
0.297916
0.297913
0.297911
0.297908
0.297905
0.297902
0.297899
0.297896
0.297893
0.29789
0.297888
0.297885
0.297882
0.297879
0.297876
0.297873
0.29787
0.297867
0.297865
0.297862
0.297859
0.297856
0.297853
0.29785
0.297847
0.297844
0.297842
0.297839
0.297836
0.297833
0.29783
0.297827
0.297824
0.297821
0.297818
0.297816
0.297813
0.29781
0.297807
0.297804
0.297801
0.297798
0.297795
0.297792
0.29779
0.297787
0.297784
0.297781
0.297778
0.297775
0.297772
0.297769
0.297766
0.297763
0.297761
0.297758
0.297755
0.297752
0.297749
0.297746
0.297743
0.29774
0.297737
0.297734
0.297732
0.297729
0.297726
0.297723
0.29772
0.297717
0.297714
0.297711
0.297708
0.297705
0.297703
0.2977
0.297697
0.297694
0.297691
0.297688
0.297685
0.297682
0.297679
0.297676
0.297673
0.29767
0.297668
0.297665
0.297662
0.297659
0.297656
0.297653
0.29765
0.297647
0.297644
0.297641
0.297638
0.297636
0.297633
0.29763
0.297627
0.297624
0.297621
0.297618
0.297615
0.297612
0.297609
0.297606
0.297603
0.2976
0.297598
0.297595
0.297592
0.297589
0.297586
0.297583
0.29758
0.297577
0.297574
0.297571
0.297568
0.297565
0.297562
0.297559
0.297557
0.297554
0.297551
0.297548
0.297545
0.297542
0.297539
0.297536
0.297533
0.29753
0.297527
0.297524
0.297521
0.297518
0.297515
0.297513
0.29751
0.297507
0.297504
0.297501
0.297498
0.297495
0.297492
0.297489
0.297486
0.297483
0.29748
0.297477
0.297474
0.297471
0.297468
0.297465
0.297463
0.29746
0.297457
0.297454
0.297451
0.297448
0.297445
0.297442
0.297439
0.297436
0.297433
0.29743
0.297427
0.297424
0.297421
0.297418
0.297415
0.297412
0.297409
0.297406
0.297404
0.297401
0.297398
0.297395
0.297392
0.297389
0.297386
0.297383
0.29738
0.297377
0.297374
0.297371
0.297368
0.297365
0.297362
0.297359
0.297356
0.297353
0.29735
0.297347
0.297344
0.297341
0.297338
0.297335
0.297333
0.29733
0.297327
0.297324
0.297321
0.297318
0.297315
0.297312
0.297309
0.297306
0.297303
0.2973
0.297297
0.297294
0.297291
0.297288
0.297285
0.297282
0.297279
0.297276
0.297273
0.29727
0.297267
0.297264
0.297261
0.297258
0.297255
0.297252
0.297249
0.297246
0.297243
0.29724
0.297238
0.297235
0.297232
0.297229
0.297226
0.297223
0.29722
0.297217
0.297214
0.297211
0.297208
0.297205
0.297202
0.297199
0.297196
0.297193
0.29719
0.297187
0.297184
0.297181
0.297178
0.297175
0.297172
0.297169
0.297166
0.297163
0.29716
0.297157
0.297154
0.297151
0.297148
0.297145
0.297142
0.297139
0.297136
0.297133
0.29713
0.297127
0.297124
0.297121
0.297118
0.297115
0.297112
0.297109
0.297106
0.297103
0.2971
0.297097
0.297094
0.297091
0.297088
0.297085
0.297082
0.297079
0.297076
0.297073
0.29707
0.297067
0.297064
0.297061
0.297058
0.297055
0.297052
0.297049
0.297046
0.297043
0.29704
0.297037
0.297034
0.297031
0.297028
0.297025
0.297022
0.297019
0.297016
0.297013
0.29701
0.297007
0.297004
0.297001
0.296998
0.296995
0.296992
0.296989
0.296986
0.296983
0.29698
0.296977
0.296974
0.296971
0.296968
0.296965
0.296962
0.296959
0.296956
0.296953
0.29695
0.296947
0.296944
0.296941
0.296938
0.296935
0.296932
0.296929
0.296926
0.296923
0.29692
0.296917
0.296914
0.296911
0.296908
0.296905
0.296902
0.296899
0.296896
0.296893
0.29689
0.296887
0.296884
0.296881
0.296878
0.296875
0.296872
0.296869
0.296866
0.296863
0.29686
0.296857
0.296854
0.296851
0.296848
0.296845
0.296842
0.296839
0.296836
0.296833
0.29683
0.296827
0.296824
0.296821
0.296818
0.296815
0.296812
0.296808
0.296805
0.296802
0.296799
0.296796
0.296793
0.29679
0.296787
0.296784
0.296781
0.296778
0.296775
0.296772
0.296769
0.296766
0.296763
0.29676
0.296757
0.296754
0.296751
0.296748
0.296745
0.296742
0.296739
0.296736
0.296733
0.29673
0.296727
0.296724
0.296721
0.296718
0.296715
0.296712
0.296709
0.296706
0.296703
0.2967
0.296697
0.296694
0.296691
0.296687
0.296684
0.296681
0.296678
0.296675
0.296672
0.296669
0.296666
0.296663
0.29666
0.296657
0.296654
0.296651
0.296648
0.296645
0.296642
0.296639
0.296636
0.296633
0.29663
0.296627
0.296624
0.296621
0.296618
0.296615
0.296612
0.296609
0.296606
0.296603
0.2966
0.296597
0.296593
0.29659
0.296587
0.296584
0.296581
0.296578
0.296575
0.296572
0.296569
0.296566
0.296563
0.29656
0.296557
0.296554
0.296551
0.296548
0.296545
0.296542
0.296539
0.296536
0.296533
0.29653
0.296527
0.296524
0.296521
0.296518
0.296515
0.296512
0.296508
0.296505
0.296502
0.296499
0.296496
0.296493
0.29649
0.296487
0.296484
0.296481
0.296478
0.296475
0.296472
0.296469
0.296466
0.296463
0.29646
0.296457
0.296454
0.296451
0.296448
0.296445
0.296442
0.296439
0.296436
0.296433
0.29643
0.296426
0.296423
0.29642
0.296417
0.296414
0.296411
0.296408
0.296405
0.296402
0.296399
0.296396
0.296393
0.29639
0.296387
0.296384
0.296381
0.296378
0.296375
0.296372
0.296369
0.296366
0.296363
0.29636
0.296357
0.296354
0.296351
0.296348
0.296344
0.296341
0.296338
0.296335
0.296332
0.296329
0.296326
0.296323
0.29632
0.296317
0.296314
0.296311
0.296308
0.296305
0.296302
0.296299
0.296296
0.296293
0.29629
0.296287
0.296284
0.296281
0.296278
0.296275
0.296272
0.296269
0.296266
0.296262
0.296259
0.296256
0.296253
0.29625
0.296247
0.296244
0.296241
0.296238
0.296235
0.296232
0.296229
0.296226
0.296223
0.29622
0.296217
0.296214
0.296211
0.296208
0.296205
0.296202
0.296199
0.296196
0.296193
0.29619
0.296187
0.296184
0.296181
0.296178
0.296175
0.296172
0.296168
0.296165
0.296162
0.296159
0.296156
0.296153
0.29615
0.296147
0.296144
0.296141
0.296138
0.296135
0.296132
0.296129
0.296126
0.296123
0.29612
0.296117
0.296114
0.296111
0.296108
0.296105
0.296102
0.296099
0.296096
0.296093
0.29609
0.296087
0.296084
0.296081
0.296078
0.296075
0.296072
0.296069
0.296066
0.296063
0.29606
0.296057
0.296054
0.296051
0.296048
0.296045
0.296041
0.296038
0.296035
0.296032
0.296029
0.296026
0.296023
0.29602
0.296017
0.296014
0.296011
0.296008
0.296005
0.296002
0.295999
0.295996
0.295993
0.29599
0.295987
0.295984