/*--------------------------------*- C++ -*----------------------------------*\
  =========                 |
  \\      /  F ield         | OpenFOAM: The Open Source CFD Toolbox
   \\    /   O peration     | Website:  https://openfoam.org
    \\  /    A nd           | Version:  9
     \\/     M anipulation  |
\*---------------------------------------------------------------------------*/
FoamFile
{
    format      ascii;
    class       volScalarField;
    location    "0.024";
    object      mag(U);
}
// * * * * * * * * * * * * * * * * * * * * * * * * * * * * * * * * * * * * * //

dimensions      [0 1 -1 0 0 0 0];

internalField   nonuniform List<scalar> 
1000
(
141.889
142.43
142.745
143.088
143.424
143.762
144.1
144.439
144.777
145.116
145.455
145.793
146.131
146.47
146.808
147.146
147.485
147.824
148.163
148.502
148.841
149.18
149.519
149.857
150.194
150.531
150.868
151.204
151.541
151.878
152.215
152.552
152.89
153.228
153.565
153.904
154.242
154.58
154.918
155.256
155.594
155.933
156.271
156.61
156.948
157.287
157.625
157.963
158.301
158.64
158.978
159.316
159.654
159.992
160.331
160.67
161.008
161.347
161.686
162.024
162.362
162.7
163.037
163.375
163.712
164.049
164.387
164.725
165.063
165.401
165.74
166.078
166.416
166.754
167.092
167.429
167.766
168.103
168.441
168.778
169.116
169.453
169.791
170.13
170.468
170.806
171.145
171.483
171.822
172.16
172.498
172.837
173.175
173.514
173.852
174.191
174.53
174.869
175.207
175.546
175.884
176.223
176.561
176.9
177.238
177.577
177.915
178.253
178.591
178.928
179.266
179.603
179.94
180.278
180.615
180.953
181.291
181.629
181.967
182.306
182.645
182.984
183.323
183.662
184.001
184.339
184.677
185.015
185.353
185.691
186.028
186.366
186.705
187.043
187.382
187.72
188.059
188.397
188.735
189.073
189.411
189.75
190.087
190.425
190.763
191.101
191.439
191.777
192.115
192.453
192.791
193.129
193.466
193.804
194.142
194.48
194.818
195.156
195.494
195.831
196.169
196.507
196.844
197.182
197.519
197.857
198.194
198.531
198.867
199.204
199.54
199.877
200.214
200.552
200.89
201.227
201.564
201.901
202.238
202.575
202.913
203.252
203.59
203.928
204.266
204.603
204.94
205.278
205.616
205.955
206.294
206.632
206.969
207.307
207.644
207.982
208.32
208.659
208.997
209.335
209.673
210.011
210.349
210.687
211.025
211.363
211.701
212.039
212.377
212.715
213.054
213.392
213.73
214.068
214.406
214.744
215.083
215.421
215.759
216.097
216.435
216.774
217.112
217.45
217.788
218.127
218.465
218.803
219.141
219.479
219.818
220.156
220.494
220.833
221.171
221.509
221.847
222.186
222.524
222.862
223.201
223.539
223.877
224.216
224.554
224.892
225.23
225.568
225.907
226.247
226.587
226.924
227.258
227.592
227.932
228.285
228.636
228.964
229.28
229.6
229.963
230.364
230.7
231.002
231.3
231.618
232.02
232.439
232.75
233.039
233.328
233.64
234.056
234.49
234.8
235.086
235.372
235.667
236.041
236.511
236.854
237.144
237.427
237.716
238.034
238.469
238.903
239.21
239.495
239.776
240.067
240.404
240.871
241.279
241.579
241.855
242.125
242.415
242.746
243.222
243.674
243.983
244.253
244.472
244.744
245.041
245.454
246.046
246.442
246.731
246.941
247.096
247.368
247.669
248.131
248.799
249.204
249.49
249.674
249.806
250.079
250.382
250.822
251.464
251.872
252.164
252.388
252.601
252.893
253.212
253.649
254.14
254.473
254.773
255.063
255.365
255.686
256.081
256.475
256.79
257.09
257.382
257.686
258.012
258.445
258.904
259.23
259.524
259.754
260.008
260.312
260.664
261.198
261.685
262.007
262.282
262.457
262.702
263.008
263.37
263.909
264.367
264.686
264.964
265.165
265.442
265.754
266.149
266.723
267.138
267.451
267.704
267.821
268.062
268.37
268.73
269.317
269.892
270.23
270.522
270.681
270.822
271.115
271.434
271.853
272.495
272.94
273.26
273.531
273.64
273.82
274.126
274.447
274.877
275.597
276.119
276.45
276.746
276.912
276.979
277.249
277.567
277.895
278.333
279.027
279.5
279.829
280.128
280.299
280.375
280.651
280.971
281.304
281.755
282.456
282.914
283.244
283.542
283.696
283.768
284.049
284.371
284.72
285.231
285.844
286.215
286.537
286.811
286.938
287.17
287.487
287.82
288.236
288.779
289.156
289.477
289.774
289.998
290.257
290.559
290.865
291.21
291.584
291.875
292.139
292.386
292.615
292.834
293.036
293.217
293.373
293.498
293.565
293.612
293.672
293.722
293.793
293.945
294.002
294.011
294
293.903
293.669
293.597
293.569
293.545
293.582
293.836
293.966
293.961
293.936
293.864
293.589
293.344
293.289
293.266
293.261
293.335
293.537
293.567
293.537
293.495
293.405
293.149
293.011
292.991
292.991
293.012
293.11
293.414
293.601
293.669
293.71
293.723
293.635
293.39
293.33
293.331
293.339
293.378
293.548
293.672
293.686
293.684
293.649
293.462
293.259
293.219
293.206
293.216
293.335
293.562
293.596
293.581
293.548
293.447
293.239
293.169
293.148
293.141
293.177
293.257
293.273
293.278
293.284
293.289
293.315
293.345
293.391
293.461
293.487
293.499
293.49
293.379
293.129
293.073
293.072
293.083
293.16
293.484
293.685
293.707
293.703
293.668
293.466
293.119
293.04
293.024
293.024
293.089
293.343
293.45
293.447
293.424
293.372
293.199
293.063
293.042
293.04
293.057
293.153
293.245
293.268
293.292
293.309
293.27
293.239
293.246
293.256
293.277
293.333
293.36
293.367
293.37
293.356
293.33
293.326
293.326
293.329
293.349
293.36
293.359
293.354
293.341
293.318
293.302
293.292
293.284
293.28
293.275
293.265
293.249
293.227
293.205
293.191
293.186
293.184
293.183
293.183
293.185
293.195
293.216
293.24
293.262
293.281
293.295
293.302
293.307
293.311
293.315
293.319
293.325
293.332
293.334
293.335
293.335
293.333
293.331
293.328
293.328
293.326
293.322
293.316
293.305
293.295
293.286
293.279
293.274
293.267
293.257
293.243
293.229
293.22
293.215
293.214
293.215
293.217
293.222
293.235
293.251
293.268
293.285
293.301
293.313
293.321
293.326
293.33
293.333
293.337
293.343
293.346
293.348
293.35
293.351
293.352
293.352
293.348
293.343
293.339
293.336
293.333
293.328
293.323
293.315
293.307
293.299
293.292
293.285
293.275
293.264
293.256
293.252
293.25
293.25
293.252
293.26
293.274
293.286
293.296
293.306
293.315
293.326
293.334
293.339
293.342
293.343
293.345
293.346
293.347
293.35
293.352
293.353
293.353
293.351
293.347
293.341
293.336
293.333
293.33
293.327
293.323
293.315
293.306
293.297
293.29
293.283
293.277
293.27
293.265
293.261
293.26
293.259
293.262
293.271
293.285
293.298
293.306
293.313
293.317
293.322
293.327
293.333
293.337
293.34
293.341
293.342
293.344
293.345
293.346
293.347
293.346
293.343
293.34
293.334
293.327
293.324
293.323
293.322
293.32
293.317
293.308
293.297
293.287
293.281
293.277
293.275
293.274
293.273
293.272
293.272
293.273
293.28
293.293
293.306
293.315
293.321
293.323
293.325
293.326
293.329
293.333
293.337
293.34
293.341
293.34
293.339
293.338
293.338
293.339
293.339
293.338
293.334
293.326
293.319
293.315
293.312
293.311
293.311
293.308
293.3
293.291
293.283
293.279
293.278
293.279
293.281
293.284
293.286
293.287
293.289
293.296
293.307
293.316
293.322
293.326
293.329
293.331
293.33
293.332
293.335
293.336
293.336
293.336
293.334
293.331
293.332
293.334
293.334
293.334
293.333
293.327
293.317
293.31
293.307
293.306
293.305
293.304
293.302
293.295
293.287
293.282
293.281
293.282
293.287
293.293
293.297
293.299
293.299
293.301
293.307
293.316
293.323
293.326
293.328
293.329
293.327
293.328
293.33
293.334
293.337
293.335
293.333
293.328
293.323
293.321
293.321
293.325
293.328
293.327
293.323
293.314
293.307
293.302
293.3
293.299
293.299
293.297
293.29
293.285
293.283
293.283
293.289
293.3
293.306
293.31
293.311
293.311
293.311
293.314
293.32
293.325
293.327
293.327
293.324
293.321
293.324
293.328
293.333
293.337
293.337
293.333
293.321
293.313
293.311
293.312
293.315
293.319
293.323
293.32
293.31
293.304
293.301
293.301
293.3
293.296
293.293
293.288
293.284
293.284
293.288
293.301
293.314
293.319
293.321
293.32
293.315
293.296
293.227
292.944
291.761
289.081
287.154
286.318
286.034
285.95
285.927
285.928
285.934
285.935
285.929
285.926
285.927
285.93
285.937
285.939
285.936
285.931
285.924
285.921
285.925
285.931
285.939
285.944
285.943
285.938
285.934
285.931
285.934
285.939
285.945
285.944
285.941
285.935
285.929
285.931
285.937
285.947
285.958
285.962
285.961
285.957
285.95
285.949
285.956
285.965
285.972
285.975
285.975
285.975
285.976
285.983
285.995
286.004
286.007
286.006
285.999
285.99
285.985
285.984
285.986
285.986
285.973
285.904
285.626
284.636
282.713
281.263
280.533
280.242
280.125
280.08
280.06
280.055
280.055
280.051
280.048
280.048
280.044
280.044
280.05
280.056
280.063
280.065
280.066
280.062
280.055
280.049
280.047
280.049
280.053
)
;

boundaryField
{
    sides
    {
        type            calculated;
        value           nonuniform List<scalar> 2(280.053 141.889);
    }
    empty
    {
        type            empty;
    }
}


// ************************************************************************* //
