/*--------------------------------*- C++ -*----------------------------------*\
  =========                 |
  \\      /  F ield         | OpenFOAM: The Open Source CFD Toolbox
   \\    /   O peration     | Website:  https://openfoam.org
    \\  /    A nd           | Version:  9
     \\/     M anipulation  |
\*---------------------------------------------------------------------------*/
FoamFile
{
    format      ascii;
    class       volScalarField;
    location    "0.024";
    object      rho;
}
// * * * * * * * * * * * * * * * * * * * * * * * * * * * * * * * * * * * * * //

dimensions      [1 -3 0 0 0 0 0];

internalField   nonuniform List<scalar> 
1000
(
0.688439
0.687351
0.686693
0.68598
0.685282
0.684579
0.683878
0.683176
0.682474
0.681774
0.681073
0.680374
0.679675
0.678978
0.67828
0.677583
0.676886
0.676189
0.675492
0.674796
0.6741
0.673406
0.672713
0.672022
0.671332
0.670643
0.669956
0.66927
0.668584
0.667898
0.667212
0.666527
0.665841
0.665156
0.664471
0.663786
0.663102
0.662418
0.661735
0.661052
0.660369
0.659687
0.659006
0.658324
0.657644
0.656964
0.656285
0.655607
0.654929
0.654252
0.653576
0.6529
0.652225
0.65155
0.650875
0.6502
0.649526
0.648853
0.648181
0.647509
0.646839
0.646169
0.645501
0.644833
0.644166
0.6435
0.642834
0.642168
0.641502
0.640836
0.64017
0.639506
0.638842
0.638179
0.637518
0.636857
0.636198
0.635538
0.63488
0.634222
0.633563
0.632905
0.632248
0.63159
0.630933
0.630277
0.629621
0.628965
0.628311
0.627657
0.627003
0.626351
0.625699
0.625047
0.624396
0.623746
0.623097
0.622449
0.621802
0.621156
0.620511
0.619868
0.619225
0.618583
0.617942
0.617301
0.616662
0.616023
0.615384
0.614746
0.614108
0.61347
0.612831
0.612192
0.611552
0.610912
0.610271
0.60963
0.608989
0.608348
0.607706
0.607065
0.606425
0.605786
0.605147
0.604511
0.603875
0.603241
0.602608
0.601975
0.601343
0.60071
0.600078
0.599446
0.598814
0.598183
0.597552
0.596922
0.596293
0.595665
0.595037
0.59441
0.593783
0.593158
0.592532
0.591908
0.591284
0.59066
0.590037
0.589414
0.588792
0.58817
0.58755
0.586929
0.58631
0.58569
0.585071
0.584453
0.583835
0.583218
0.582602
0.581986
0.581371
0.580757
0.580143
0.579529
0.578917
0.578306
0.577696
0.577087
0.576478
0.575869
0.57526
0.574651
0.574042
0.573434
0.572827
0.572221
0.571615
0.571009
0.570403
0.569797
0.569191
0.568586
0.567983
0.56738
0.566779
0.566177
0.565574
0.564972
0.56437
0.563769
0.56317
0.562572
0.561974
0.561376
0.560778
0.56018
0.559582
0.558986
0.558391
0.557796
0.557201
0.556606
0.556013
0.555419
0.554827
0.554235
0.553644
0.553052
0.552461
0.551871
0.551281
0.550693
0.550104
0.549516
0.548928
0.548341
0.547755
0.547169
0.546583
0.545998
0.545413
0.544829
0.544246
0.543663
0.543081
0.542499
0.541917
0.541336
0.540756
0.540176
0.539597
0.539018
0.538439
0.537862
0.537284
0.536707
0.536131
0.535555
0.534979
0.534405
0.53383
0.533257
0.532683
0.53211
0.531537
0.530965
0.530394
0.529826
0.529258
0.528687
0.528111
0.527535
0.52697
0.526426
0.525879
0.525296
0.524694
0.524104
0.523575
0.523115
0.522542
0.521919
0.521297
0.520701
0.520245
0.519805
0.519195
0.518557
0.517927
0.517326
0.516894
0.516478
0.515868
0.515227
0.514592
0.513977
0.513469
0.513125
0.512565
0.511933
0.511293
0.51067
0.510082
0.509688
0.509274
0.508667
0.508033
0.507394
0.506783
0.506222
0.505884
0.505427
0.504817
0.504172
0.503519
0.502911
0.502347
0.502023
0.501638
0.501039
0.500392
0.499664
0.499025
0.498441
0.497998
0.497853
0.497374
0.496756
0.496021
0.495201
0.49457
0.494004
0.493635
0.493602
0.493135
0.492515
0.491742
0.490892
0.490264
0.489699
0.489302
0.489234
0.488779
0.488178
0.487474
0.486756
0.486162
0.485606
0.485226
0.484918
0.484373
0.483785
0.483184
0.482606
0.48205
0.481609
0.48116
0.480596
0.480013
0.479418
0.478848
0.478304
0.477925
0.477572
0.477023
0.476436
0.475752
0.47511
0.474549
0.474044
0.473822
0.473502
0.472951
0.472343
0.47158
0.470931
0.470378
0.469888
0.469675
0.469318
0.468769
0.468165
0.46745
0.466851
0.466313
0.465873
0.465707
0.46529
0.464737
0.464105
0.463272
0.462625
0.462085
0.461604
0.461463
0.461275
0.460759
0.460184
0.459419
0.45863
0.458064
0.457546
0.457146
0.457082
0.456713
0.456178
0.45558
0.454746
0.454024
0.453478
0.452971
0.452588
0.452641
0.452379
0.451864
0.451304
0.450561
0.44968
0.449089
0.448566
0.448069
0.447705
0.447716
0.447393
0.446881
0.446331
0.445601
0.444743
0.444164
0.44365
0.443164
0.442823
0.442842
0.442504
0.441999
0.441453
0.440709
0.439852
0.439288
0.438785
0.43832
0.438074
0.437963
0.437519
0.437013
0.436445
0.435674
0.435052
0.434551
0.434076
0.433711
0.433527
0.433114
0.432635
0.432133
0.431539
0.431008
0.430549
0.430112
0.429749
0.429449
0.429063
0.428674
0.428297
0.427938
0.427612
0.427314
0.427047
0.426811
0.4266
0.42638
0.426202
0.426101
0.426038
0.426046
0.426196
0.42624
0.426232
0.426208
0.426076
0.425773
0.425712
0.425739
0.425796
0.42594
0.426368
0.426611
0.42666
0.426682
0.426645
0.426341
0.426081
0.426076
0.426107
0.426154
0.426308
0.426647
0.426769
0.426824
0.426863
0.426822
0.426532
0.426378
0.426367
0.426368
0.426373
0.426443
0.426748
0.426861
0.426811
0.426749
0.426679
0.4265
0.426128
0.426019
0.426001
0.425999
0.426041
0.426263
0.426426
0.426442
0.426439
0.426398
0.426162
0.425914
0.425895
0.425913
0.425956
0.426148
0.426488
0.426573
0.426602
0.426618
0.426545
0.426326
0.426291
0.426312
0.426337
0.426407
0.426528
0.426552
0.426547
0.426523
0.426468
0.426422
0.426384
0.426381
0.426428
0.426422
0.426401
0.426357
0.426182
0.425825
0.425737
0.425728
0.42574
0.425843
0.42628
0.426553
0.426585
0.426585
0.426547
0.426293
0.425851
0.425778
0.425788
0.425813
0.425923
0.42629
0.426467
0.426505
0.426529
0.426513
0.42632
0.426165
0.426153
0.426158
0.426183
0.42631
0.426424
0.426423
0.426389
0.426331
0.42621
0.426118
0.426093
0.426082
0.42609
0.426149
0.426168
0.426162
0.426152
0.426125
0.426085
0.426078
0.426079
0.426087
0.426119
0.426141
0.426146
0.426151
0.426152
0.426149
0.426161
0.426176
0.426189
0.426204
0.426219
0.426234
0.426254
0.426275
0.426288
0.426299
0.426306
0.426311
0.426313
0.426312
0.426306
0.426289
0.426259
0.426225
0.426196
0.426176
0.426164
0.426153
0.426145
0.426136
0.42613
0.426124
0.426121
0.426123
0.426121
0.426118
0.426115
0.426115
0.426118
0.426124
0.426134
0.426142
0.426148
0.426156
0.426167
0.426182
0.426196
0.426211
0.426225
0.426236
0.42625
0.426267
0.426284
0.426297
0.426307
0.426315
0.42632
0.426318
0.426309
0.426291
0.426269
0.42625
0.426233
0.426218
0.426203
0.42619
0.42618
0.426174
0.426172
0.426172
0.426176
0.426174
0.426169
0.426166
0.426165
0.426166
0.426171
0.426179
0.426188
0.426194
0.426199
0.426204
0.426211
0.426224
0.42624
0.426254
0.426265
0.426275
0.426285
0.426297
0.426309
0.42632
0.426328
0.426333
0.426334
0.426331
0.426319
0.426298
0.426279
0.426264
0.426252
0.426242
0.426233
0.426223
0.426215
0.426207
0.426201
0.426198
0.426197
0.426197
0.426198
0.426198
0.426196
0.426194
0.426194
0.426198
0.426206
0.426214
0.42622
0.426224
0.426228
0.426233
0.426243
0.426256
0.426269
0.426279
0.426288
0.426296
0.426303
0.426311
0.426318
0.426322
0.426322
0.426318
0.426305
0.426283
0.426266
0.426255
0.426251
0.426247
0.42624
0.426231
0.426219
0.42621
0.426206
0.426206
0.426209
0.426213
0.426213
0.426212
0.426209
0.426205
0.426203
0.426206
0.426215
0.426225
0.426235
0.42624
0.426242
0.426243
0.426247
0.426255
0.42627
0.426283
0.426293
0.4263
0.426304
0.426305
0.426305
0.426305
0.426304
0.426303
0.426294
0.426276
0.42626
0.426249
0.426242
0.426238
0.426238
0.426236
0.426231
0.426223
0.426216
0.426212
0.426212
0.426215
0.426219
0.426221
0.42622
0.426218
0.426217
0.426218
0.426223
0.426234
0.426245
0.426251
0.426255
0.426255
0.426254
0.426257
0.426267
0.426281
0.426294
0.426301
0.426305
0.426306
0.426302
0.426298
0.426294
0.426289
0.426281
0.42627
0.426255
0.426242
0.426235
0.426234
0.426239
0.426242
0.426243
0.42624
0.426232
0.426221
0.426214
0.426213
0.426216
0.426222
0.426231
0.426237
0.426237
0.426237
0.426237
0.426241
0.426248
0.426255
0.42626
0.426263
0.426263
0.426264
0.426268
0.426281
0.426295
0.426303
0.426307
0.426306
0.4263
0.426291
0.426283
0.426277
0.426271
0.426265
0.426257
0.426246
0.426238
0.426238
0.42624
0.426246
0.42625
0.426249
0.426247
0.426239
0.42623
0.426223
0.426223
0.426229
0.426237
0.426242
0.426245
0.426247
0.426249
0.426251
0.426257
0.426268
0.426274
0.426273
0.426273
0.426274
0.426275
0.426281
0.426292
0.426301
0.426303
0.426302
0.426294
0.42628
0.426272
0.426272
0.426273
0.426274
0.426272
0.426266
0.426252
0.426239
0.426234
0.426235
0.42624
0.426247
0.426255
0.426257
0.426251
0.426246
0.426244
0.426245
0.426248
0.42625
0.426252
0.426251
0.426249
0.426249
0.426258
0.426271
0.426286
0.426294
0.426297
0.426295
0.42629
0.426282
0.426283
0.42629
0.426295
0.426298
0.426296
0.426285
0.426276
0.426271
0.426269
0.426269
0.426274
0.426297
0.426389
0.42677
0.428368
0.431979
0.43466
0.435873
0.436208
0.436254
0.436288
0.436303
0.436348
0.436385
0.436392
0.43638
0.43634
0.436319
0.436313
0.436327
0.436353
0.436363
0.436367
0.436351
0.436336
0.436328
0.436327
0.436341
0.436348
0.436353
0.43635
0.436339
0.436332
0.436326
0.43633
0.436334
0.436336
0.436337
0.436328
0.436323
0.436317
0.436311
0.436317
0.436319
0.43632
0.43632
0.436311
0.436303
0.436293
0.436284
0.436282
0.436282
0.436281
0.43628
0.436278
0.43627
0.436256
0.436251
0.43625
0.436251
0.436261
0.43627
0.436273
0.436273
0.43627
0.43627
0.436286
0.436379
0.436762
0.438127
0.44078
0.44286
0.443844
0.444194
0.444386
0.44449
0.44454
0.444544
0.444518
0.444485
0.444479
0.444486
0.4445
0.444509
0.444516
0.444512
0.444509
0.444511
0.444515
0.44452
0.444516
0.444505
0.4445
0.444498
0.444503
)
;

boundaryField
{
    sides
    {
        type            calculated;
        value           nonuniform List<scalar> 2(0.444503 0.688439);
    }
    empty
    {
        type            empty;
    }
}


// ************************************************************************* //
