/*--------------------------------*- C++ -*----------------------------------*\
  =========                 |
  \\      /  F ield         | OpenFOAM: The Open Source CFD Toolbox
   \\    /   O peration     | Website:  https://openfoam.org
    \\  /    A nd           | Version:  9
     \\/     M anipulation  |
\*---------------------------------------------------------------------------*/
FoamFile
{
    format      ascii;
    class       volScalarField;
    location    "0.024";
    object      T;
}
// * * * * * * * * * * * * * * * * * * * * * * * * * * * * * * * * * * * * * //

dimensions      [0 0 0 1 0 0 0];

internalField   nonuniform List<scalar> 
1000
(
300.222
300.031
299.916
299.791
299.669
299.545
299.422
299.299
299.176
299.052
298.929
298.806
298.683
298.56
298.437
298.314
298.19
298.067
297.944
297.821
297.697
297.574
297.451
297.329
297.206
297.084
296.962
296.839
296.717
296.595
296.473
296.35
296.228
296.106
295.983
295.861
295.738
295.616
295.493
295.371
295.248
295.126
295.003
294.881
294.758
294.636
294.514
294.391
294.269
294.147
294.025
293.902
293.78
293.658
293.536
293.413
293.291
293.169
293.047
292.925
292.803
292.681
292.559
292.437
292.316
292.194
292.072
291.95
291.828
291.707
291.585
291.463
291.341
291.219
291.098
290.976
290.855
290.733
290.612
290.49
290.369
290.247
290.125
290.004
289.882
289.76
289.638
289.517
289.395
289.273
289.151
289.029
288.907
288.785
288.663
288.54
288.418
288.295
288.172
288.049
287.926
287.802
287.679
287.555
287.431
287.307
287.184
287.061
286.938
286.815
286.693
286.571
286.449
286.328
286.208
286.088
285.968
285.848
285.728
285.608
285.489
285.369
285.249
285.129
285.009
284.889
284.769
284.65
284.53
284.41
284.29
284.17
284.05
283.931
283.811
283.691
283.571
283.451
283.332
283.212
283.093
282.973
282.854
282.735
282.615
282.496
282.377
282.257
282.138
282.019
281.9
281.781
281.662
281.543
281.424
281.304
281.185
281.066
280.948
280.829
280.71
280.591
280.472
280.354
280.235
280.116
279.998
279.879
279.761
279.643
279.525
279.407
279.288
279.17
279.052
278.933
278.815
278.697
278.579
278.461
278.342
278.224
278.105
277.987
277.869
277.751
277.633
277.515
277.397
277.278
277.16
277.042
276.924
276.806
276.688
276.571
276.453
276.334
276.217
276.099
275.981
275.863
275.745
275.628
275.51
275.392
275.275
275.157
275.039
274.922
274.804
274.687
274.569
274.452
274.334
274.217
274.099
273.982
273.865
273.747
273.63
273.513
273.396
273.278
273.161
273.044
272.927
272.81
272.693
272.576
272.459
272.342
272.225
272.108
271.991
271.874
271.758
271.641
271.524
271.407
271.291
271.174
271.057
270.941
270.824
270.707
270.591
270.474
270.358
270.242
270.126
270.009
269.891
269.774
269.658
269.546
269.434
269.315
269.191
269.07
268.961
268.867
268.749
268.62
268.492
268.369
268.275
268.184
268.058
267.926
267.796
267.672
267.582
267.496
267.369
267.237
267.105
266.977
266.871
266.8
266.683
266.552
266.418
266.288
266.166
266.083
265.997
265.87
265.737
265.603
265.475
265.358
265.287
265.191
265.062
264.927
264.79
264.662
264.543
264.475
264.393
264.267
264.13
263.976
263.841
263.718
263.624
263.593
263.492
263.361
263.204
263.03
262.896
262.776
262.697
262.69
262.59
262.458
262.293
262.112
261.977
261.857
261.771
261.757
261.66
261.531
261.38
261.225
261.098
260.978
260.897
260.83
260.713
260.586
260.456
260.332
260.211
260.116
260.019
259.897
259.771
259.642
259.518
259.4
259.318
259.241
259.122
258.994
258.845
258.705
258.583
258.473
258.424
258.354
258.234
258.101
257.934
257.792
257.671
257.563
257.517
257.438
257.318
257.185
257.028
256.896
256.777
256.68
256.643
256.551
256.429
256.29
256.106
255.962
255.843
255.736
255.705
255.663
255.548
255.421
255.251
255.075
254.949
254.834
254.744
254.73
254.648
254.528
254.395
254.208
254.047
253.924
253.811
253.724
253.736
253.678
253.562
253.436
253.269
253.071
252.937
252.819
252.707
252.625
252.628
252.555
252.439
252.314
252.149
251.955
251.823
251.707
251.596
251.519
251.523
251.446
251.331
251.207
251.037
250.842
250.713
250.598
250.492
250.436
250.41
250.308
250.193
250.062
249.885
249.743
249.627
249.518
249.434
249.392
249.297
249.186
249.07
248.933
248.811
248.704
248.603
248.519
248.45
248.36
248.27
248.183
248.1
248.024
247.955
247.893
247.838
247.789
247.738
247.696
247.673
247.658
247.66
247.695
247.705
247.703
247.697
247.667
247.596
247.582
247.588
247.601
247.635
247.734
247.791
247.802
247.807
247.799
247.728
247.667
247.666
247.673
247.684
247.72
247.799
247.827
247.84
247.849
247.839
247.772
247.736
247.733
247.733
247.735
247.751
247.822
247.848
247.836
247.822
247.806
247.764
247.677
247.652
247.648
247.647
247.657
247.709
247.746
247.75
247.749
247.74
247.685
247.627
247.623
247.627
247.637
247.681
247.76
247.78
247.787
247.79
247.773
247.723
247.714
247.719
247.725
247.741
247.769
247.775
247.774
247.768
247.755
247.744
247.736
247.735
247.746
247.744
247.739
247.729
247.688
247.605
247.585
247.583
247.585
247.609
247.711
247.774
247.782
247.782
247.773
247.714
247.611
247.594
247.596
247.602
247.627
247.713
247.754
247.763
247.768
247.765
247.72
247.684
247.681
247.682
247.688
247.717
247.744
247.743
247.735
247.722
247.694
247.672
247.667
247.664
247.666
247.679
247.684
247.682
247.68
247.674
247.665
247.663
247.663
247.664
247.672
247.677
247.679
247.68
247.68
247.679
247.681
247.685
247.688
247.692
247.696
247.699
247.703
247.707
247.71
247.713
247.716
247.717
247.717
247.716
247.714
247.71
247.703
247.697
247.691
247.686
247.682
247.677
247.675
247.675
247.674
247.674
247.672
247.671
247.669
247.669
247.67
247.67
247.672
247.673
247.674
247.675
247.676
247.678
247.681
247.686
247.69
247.692
247.694
247.696
247.699
247.704
247.709
247.714
247.715
247.715
247.715
247.714
247.713
247.71
247.706
247.702
247.697
247.692
247.687
247.684
247.683
247.684
247.683
247.683
247.682
247.68
247.679
247.679
247.68
247.681
247.683
247.684
247.685
247.685
247.686
247.687
247.69
247.694
247.698
247.701
247.702
247.703
247.705
247.709
247.713
247.717
247.719
247.718
247.717
247.716
247.713
247.708
247.706
247.703
247.701
247.698
247.694
247.69
247.687
247.686
247.686
247.687
247.688
247.687
247.686
247.684
247.683
247.684
247.684
247.686
247.688
247.69
247.69
247.691
247.692
247.693
247.696
247.699
247.701
247.703
247.705
247.707
247.71
247.713
247.713
247.713
247.712
247.711
247.709
247.704
247.701
247.699
247.696
247.694
247.692
247.691
247.689
247.688
247.688
247.686
247.685
247.685
247.685
247.686
247.687
247.687
247.686
247.686
247.687
247.688
247.689
247.691
247.693
247.695
247.696
247.698
247.701
247.702
247.703
247.704
247.705
247.708
247.709
247.709
247.708
247.706
247.703
247.698
247.694
247.693
247.694
247.693
247.692
247.689
247.687
247.686
247.685
247.685
247.685
247.685
247.685
247.685
247.686
247.686
247.687
247.687
247.688
247.689
247.689
247.689
247.689
247.691
247.694
247.697
247.7
247.704
247.704
247.704
247.702
247.701
247.701
247.701
247.701
247.7
247.699
247.697
247.693
247.69
247.69
247.689
247.69
247.689
247.687
247.685
247.682
247.682
247.682
247.683
247.685
247.687
247.686
247.686
247.686
247.686
247.686
247.687
247.689
247.691
247.691
247.691
247.691
247.692
247.694
247.698
247.702
247.702
247.701
247.7
247.697
247.694
247.694
247.694
247.695
247.694
247.693
247.689
247.687
247.683
247.682
247.683
247.684
247.685
247.685
247.684
247.684
247.683
247.682
247.684
247.685
247.684
247.683
247.683
247.683
247.684
247.686
247.69
247.692
247.692
247.692
247.691
247.69
247.691
247.693
247.696
247.698
247.698
247.696
247.692
247.69
247.687
247.687
247.687
247.687
247.686
247.684
247.682
247.681
247.682
247.682
247.683
247.682
247.682
247.68
247.678
247.679
247.68
247.682
247.683
247.684
247.684
247.682
247.682
247.683
247.685
247.687
247.689
247.689
247.689
247.689
247.688
247.689
247.691
247.692
247.691
247.69
247.687
247.684
247.681
247.681
247.681
247.683
247.69
247.712
247.801
248.171
249.011
249.653
249.824
249.948
250.03
250.041
250.031
250.004
249.985
249.986
249.998
250.021
250.026
250.022
250.008
249.992
249.99
249.995
250.005
250.014
250.014
250.009
250
249.996
249.998
250.004
250.01
250.01
250.008
250.001
249.993
249.992
249.995
249.999
250.002
250.001
249.998
249.994
249.991
249.992
249.995
249.995
249.994
249.991
249.986
249.982
249.983
249.984
249.987
249.987
249.985
249.981
249.974
249.973
249.973
249.976
249.981
249.981
249.981
249.979
249.978
249.982
250.004
250.093
250.406
251.018
251.467
251.68
251.826
251.855
251.847
251.835
251.838
251.852
251.864
251.864
251.859
251.846
251.841
251.843
251.851
251.86
251.861
251.859
251.852
251.847
251.846
251.847
251.851
251.851
)
;

boundaryField
{
    sides
    {
        type            zeroGradient;
    }
    empty
    {
        type            empty;
    }
}


// ************************************************************************* //
