/*--------------------------------*- C++ -*----------------------------------*\
  =========                 |
  \\      /  F ield         | OpenFOAM: The Open Source CFD Toolbox
   \\    /   O peration     | Website:  https://openfoam.org
    \\  /    A nd           | Version:  9
     \\/     M anipulation  |
\*---------------------------------------------------------------------------*/
FoamFile
{
    format      ascii;
    class       volScalarField;
    location    "0.047";
    object      ddt0(rho,K);
}
// * * * * * * * * * * * * * * * * * * * * * * * * * * * * * * * * * * * * * //

dimensions      [1 -1 -3 0 0 0 0];

internalField   nonuniform List<scalar> 
10000
(
56.793
54.806
52.6336
50.8605
49.2303
47.5657
45.8518
44.1165
42.374
40.6246
38.8659
37.097
35.3178
33.528
31.7274
29.9157
28.093
26.2596
24.4154
22.5603
20.6944
18.8179
16.9305
15.0321
13.1227
11.2029
9.27313
7.33339
5.38314
3.42177
1.44904
-0.534897
-2.52994
-4.53626
-6.55409
-8.58325
-10.6232
-12.6734
-14.7338
-16.8048
-18.8865
-20.9787
-23.0804
-25.1914
-27.3123
-29.4446
-31.5893
-33.7465
-35.9157
-38.0958
-40.287
-42.4898
-44.7049
-46.9319
-49.1696
-51.4166
-53.6723
-55.9371
-58.2122
-60.4979
-62.7941
-65.1003
-67.4166
-69.7442
-72.0849
-74.4397
-76.8087
-79.1902
-81.5825
-83.9846
-86.3969
-88.8206
-91.2564
-93.7033
-96.159
-98.6214
-101.09
-103.566
-106.054
-108.557
-111.076
-113.61
-116.156
-118.712
-121.278
-123.855
-126.445
-129.051
-131.671
-134.302
-136.939
-139.58
-142.225
-144.878
-147.543
-150.224
-152.922
-155.635
-158.36
-161.094
-163.837
-166.59
-169.357
-172.142
-174.944
-177.761
-180.586
-183.415
-186.245
-189.077
-191.917
-194.77
-197.641
-200.533
-203.443
-206.368
-209.303
-212.244
-215.193
-218.152
-221.123
-224.111
-227.116
-230.136
-233.167
-236.204
-239.244
-242.286
-245.331
-248.385
-251.452
-254.541
-257.653
-260.789
-263.947
-267.12
-270.3
-273.482
-276.662
-279.842
-283.028
-286.227
-289.445
-292.687
-295.95
-299.231
-302.522
-305.816
-309.111
-312.408
-315.712
-319.028
-322.363
-325.721
-329.101
-332.504
-335.924
-339.357
-342.798
-346.239
-349.679
-353.117
-356.553
-359.996
-363.455
-366.938
-370.453
-374.001
-377.576
-381.171
-384.775
-388.379
-391.977
-395.567
-399.153
-402.739
-406.334
-409.944
-413.575
-417.233
-420.925
-424.652
-428.411
-432.194
-435.988
-439.783
-443.569
-447.34
-451.098
-454.85
-458.604
-462.371
-466.156
-469.964
-473.801
-477.672
-481.581
-485.527
-489.506
-493.505
-497.515
-501.522
-505.517
-509.494
-513.457
-517.411
-521.366
-525.326
-529.295
-533.278
-537.286
-541.329
-545.415
-549.547
-553.721
-557.929
-562.16
-566.402
-570.641
-574.873
-579.1
-583.326
-587.548
-591.759
-595.957
-600.145
-604.336
-608.54
-612.766
-617.019
-621.305
-625.627
-629.977
-634.348
-638.741
-643.169
-647.637
-652.142
-656.67
-661.207
-665.749
-670.298
-674.855
-679.416
-683.98
-688.552
-693.13
-697.693
-702.225
-706.731
-711.227
-715.732
-720.253
-724.782
-729.308
-733.846
-738.413
-743.008
-747.628
-752.295
-757.027
-761.814
-766.633
-771.466
-776.306
-781.174
-786.102
-791.084
-796.08
-801.09
-806.141
-811.217
-816.294
-821.386
-826.515
-831.688
-836.905
-842.146
-847.339
-852.485
-857.66
-862.871
-868.065
-873.23
-878.415
-883.604
-888.761
-893.928
-899.074
-904.219
-909.454
-914.795
-920.126
-925.332
-930.616
-935.908
-941.148
-946.668
-952.469
-957.711
-963.017
-968.384
-973.724
-979.239
-984.671
-989.985
-995.382
-1000.84
-1006.35
-1011.91
-1017.41
-1022.93
-1028.5
-1034.04
-1039.58
-1045.15
-1050.78
-1056.43
-1062.06
-1067.64
-1073.24
-1078.9
-1084.6
-1090.33
-1096.08
-1101.87
-1107.67
-1113.46
-1119.25
-1125.07
-1130.93
-1136.81
-1142.66
-1148.51
-1154.36
-1160.23
-1166.12
-1172.05
-1178.02
-1184.02
-1190.04
-1196.06
-1202.08
-1208.14
-1214.23
-1220.34
-1226.47
-1232.6
-1238.73
-1244.87
-1251.02
-1257.19
-1263.38
-1269.6
-1275.84
-1282.08
-1288.34
-1294.62
-1300.94
-1307.28
-1313.65
-1320.04
-1326.43
-1332.83
-1339.24
-1345.66
-1352.1
-1358.58
-1365.08
-1371.6
-1378.15
-1384.7
-1391.28
-1397.87
-1404.48
-1411.1
-1417.73
-1424.37
-1431.02
-1437.69
-1444.38
-1451.12
-1457.88
-1464.67
-1471.49
-1478.32
-1485.17
-1492.04
-1498.92
-1505.83
-1512.75
-1519.69
-1526.65
-1533.62
-1540.6
-1547.58
-1554.58
-1561.59
-1568.63
-1575.69
-1582.79
-1589.91
-1597.09
-1604.29
-1611.54
-1618.79
-1626.1
-1633.36
-1640.66
-1647.93
-1655.25
-1662.53
-1669.86
-1677.26
-1684.64
-1692.05
-1699.49
-1706.95
-1714.42
-1721.93
-1729.44
-1737
-1744.56
-1752.19
-1759.84
-1767.53
-1775.21
-1782.93
-1790.64
-1798.4
-1806.15
-1813.91
-1821.63
-1829.51
-1837.22
-1845.21
-1853.03
-1860.92
-1868.9
-1876.84
-1884.83
-1892.79
-1900.86
-1908.78
-1917.01
-1925.05
-1933.26
-1941.5
-1949.65
-1957.94
-1966.07
-1974.4
-1982.56
-1990.92
-1999.19
-2007.48
-2015.9
-2024.12
-2032.61
-2040.95
-2049.47
-2058.03
-2066.5
-2075.12
-2083.53
-2092.24
-2100.83
-2109.5
-2118.38
-2127.09
-2136.01
-2144.73
-2153.5
-2162.33
-2170.96
-2179.85
-2188.63
-2197.63
-2206.51
-2215.19
-2224.24
-2233.14
-2242.46
-2251.66
-2260.57
-2269.86
-2278.9
-2288.32
-2297.62
-2306.67
-2316.2
-2325.47
-2334.87
-2344.26
-2353.45
-2362.99
-2372.2
-2381.58
-2391.2
-2400.61
-2410.29
-2419.81
-2429.45
-2439.36
-2449
-2458.87
-2468.62
-2478.29
-2488.2
-2497.94
-2507.88
-2517.96
-2527.79
-2537.87
-2547.78
-2557.75
-2567.85
-2577.72
-2587.9
-2598.11
-2608.11
-2618.47
-2628.71
-2638.99
-2649.52
-2659.87
-2670.4
-2680.97
-2691.33
-2702.02
-2712.49
-2723.04
-2733.85
-2744.31
-2754.89
-2765.73
-2776.34
-2787.14
-2797.76
-2808.46
-2819.49
-2830.37
-2841.36
-2852.5
-2863.49
-2874.65
-2885.97
-2897.02
-2908.34
-2919.65
-2930.84
-2942.14
-2953.28
-2964.54
-2976.03
-2987.25
-2998.49
-3010.07
-3021.48
-3033.1
-3044.82
-3056.34
-3068.13
-3079.76
-3091.43
-3103.34
-3115.13
-3126.87
-3138.69
-3150.38
-3162.02
-3173.81
-3185.53
-3197.23
-3209.13
-3220.92
-3232.79
-3244.92
-3256.86
-3269.02
-3281.4
-3293.65
-3306.12
-3318.38
-3330.54
-3343.12
-3355.74
-3368.34
-3381.18
-3394.08
-3406.92
-3419.97
-3433
-3445.44
-3455.73
-3466.89
-3480.75
-3497.68
-3516.83
-3533.15
-3545.93
-3558.26
-3571.88
-3585.54
-3598.8
-3612.06
-3625.45
-3639.09
-3652.71
-3666.24
-3679.91
-3693.61
-3707.39
-3721.43
-3735.44
-3749.36
-3763.38
-3777.49
-3791.73
-3806.07
-3820.45
-3834.82
-3849.2
-3863.68
-3878.26
-3892.9
-3907.67
-3922.45
-3937.2
-3952.03
-3966.97
-3981.97
-3997.01
-4012.09
-4027.16
-4042.29
-4057.51
-4072.84
-4088.27
-4103.72
-4119.18
-4134.71
-4150.32
-4166
-4181.8
-4197.68
-4213.55
-4229.44
-4245.44
-4261.53
-4277.74
-4294.05
-4310.31
-4326.58
-4342.99
-4359.44
-4375.94
-4392.55
-4409.2
-4425.84
-4442.57
-4459.38
-4476.27
-4493.3
-4510.39
-4527.47
-4544.61
-4561.83
-4579.1
-4596.49
-4613.99
-4631.53
-4649.11
-4666.78
-4684.51
-4702.34
-4720.3
-4738.31
-4756.37
-4774.55
-4792.78
-4811.06
-4829.44
-4847.85
-4866.29
-4884.82
-4903.47
-4922.16
-4940.96
-4959.86
-4978.8
-4997.82
-5016.95
-5036.13
-5055.38
-5074.75
-5094.18
-5113.65
-5133.24
-5152.91
-5172.64
-5192.5
-5212.46
-5232.46
-5252.57
-5272.82
-5293.14
-5313.56
-5334.11
-5354.68
-5375.27
-5395.99
-5416.78
-5437.62
-5458.61
-5479.69
-5500.79
-5522.03
-5543.41
-5564.85
-5586.4
-5608.08
-5629.78
-5651.55
-5673.46
-5695.45
-5717.51
-5739.71
-5761.99
-5784.33
-5806.79
-5829.4
-5852.1
-5874.92
-5897.89
-5920.95
-5944.08
-5967.33
-5990.68
-6014.05
-6037.55
-6061.17
-6084.84
-6108.6
-6132.53
-6156.54
-6180.64
-6204.93
-6229.32
-6253.76
-6278.34
-6303.06
-6327.85
-6352.75
-6377.79
-6402.91
-6428.09
-6453.4
-6478.87
-6504.41
-6530.09
-6555.97
-6581.92
-6607.97
-6634.23
-6660.59
-6687
-6713.58
-6740.27
-6767.01
-6793.86
-6820.88
-6848
-6875.22
-6902.59
-6930.12
-6957.72
-6985.45
-7013.38
-7041.41
-7069.53
-7097.84
-7126.25
-7154.73
-7183.36
-7212.15
-7241.03
-7270.02
-7299.2
-7328.53
-7357.95
-7387.54
-7417.34
-7447.23
-7477.24
-7507.44
-7537.73
-7568.11
-7598.66
-7629.37
-7660.16
-7691.08
-7722.19
-7753.43
-7784.75
-7816.27
-7848
-7879.8
-7911.74
-7943.9
-7976.16
-8008.53
-8041.07
-8073.79
-8106.6
-8139.51
-8172.66
-8205.94
-8239.31
-8272.91
-8306.71
-8340.62
-8374.67
-8408.92
-8443.34
-8477.83
-8512.5
-8547.37
-8582.33
-8617.4
-8652.69
-8688.14
-8723.68
-8759.4
-8795.34
-8831.42
-8867.6
-8904.01
-8940.63
-8977.32
-9014.18
-9051.26
-9088.46
-9125.76
-9163.25
-9200.95
-9238.77
-9276.71
-9314.91
-9353.28
-9391.75
-9430.44
-9469.34
-9508.37
-9547.51
-9586.88
-9626.45
-9666.08
-9705.87
-9745.91
-9786.08
-9826.35
-9866.82
-9907.52
-9948.35
-9989.29
-10030.5
-10071.9
-10113.3
-10155
-10196.9
-10238.9
-10281.1
-10323.4
-10365.9
-10408.6
-10451.4
-10494.4
-10537.6
-10581
-10624.5
-10668.2
-10712.1
-10756.1
-10800.4
-10844.8
-10889.3
-10934
-10978.9
-11023.9
-11069.1
-11114.4
-11159.9
-11205.6
-11251.4
-11297.4
-11343.6
-11390
-11436.4
-11483.1
-11530
-11576.9
-11624
-11671.3
-11718.8
-11766.4
-11814.1
-11862.1
-11910.1
-11958.3
-12006.8
-12055.4
-12104
-12152.8
-12201.9
-12251.1
-12300.3
-12349.7
-12399.3
-12449.1
-12498.9
-12548.8
-12599
-12649.3
-12699.6
-12750.2
-12800.9
-12851.7
-12902.6
-12953.7
-13005
-13056.3
-13107.7
-13159.3
-13211
-13262.8
-13314.7
-13366.8
-13419
-13471.3
-13523.6
-13576.2
-13628.9
-13681.5
-13734.4
-13787.4
-13840.4
-13893.4
-13946.7
-14000
-14053.4
-14106.8
-14160.4
-14214.1
-14267.8
-14321.6
-14375.5
-14429.5
-14483.5
-14537.5
-14591.8
-14646
-14700.2
-14754.5
-14809
-14863.4
-14917.9
-14972.4
-15027.1
-15081.7
-15136.3
-15191
-15245.8
-15300.6
-15355.3
-15410.2
-15465
-15519.9
-15574.7
-15629.6
-15684.5
-15739.3
-15794.1
-15849
-15903.9
-15958.7
-16013.5
-16068.4
-16123.3
-16178
-16232.7
-16287.5
-16342.2
-16396.7
-16451.3
-16505.9
-16560.5
-16614.9
-16669.3
-16723.7
-16778
-16832.2
-16886.3
-16940.5
-16994.5
-17048.4
-17102.2
-17156
-17209.7
-17263.1
-17316.6
-17370
-17423.3
-17476.4
-17529.4
-17582.4
-17635.2
-17687.8
-17740.3
-17792.8
-17845.1
-17897.2
-17949.2
-18001.1
-18052.8
-18104.3
-18155.8
-18207.1
-18258.1
-18309
-18359.8
-18410.5
-18460.9
-18511.1
-18561.1
-18611.1
-18660.8
-18710.2
-18759.5
-18808.7
-18857.6
-18906.2
-18954.8
-19003.1
-19051.2
-19099
-19146.7
-19194.2
-19241.4
-19288.3
-19335.1
-19381.8
-19428.1
-19474.1
-19519.9
-19565.6
-19611
-19656.1
-19701
-19745.7
-19790.1
-19834.2
-19878.1
-19921.9
-19965.3
-20008.4
-20051.3
-20094
-20136.4
-20178.4
-20220.2
-20261.9
-20303.2
-20344.2
-20385
-20425.6
-20465.9
-20505.8
-20545.4
-20585
-20624.2
-20663
-20701.6
-20740
-20778.1
-20815.9
-20853.3
-20890.7
-20927.7
-20964.4
-21000.8
-21037
-21072.9
-21108.5
-21143.8
-21178.9
-21213.8
-21248.3
-21282.4
-21316.4
-21350.2
-21383.6
-21416.7
-21449.6
-21482.3
-21514.7
-21546.7
-21578.5
-21610.1
-21641.5
-21672.4
-21703.2
-21733.8
-21764.1
-21794
-21823.7
-21853.2
-21882.5
-21911.5
-21940.1
-21968.7
-21997
-22024.9
-22052.6
-22080.2
-22107.5
-22134.5
-22161.2
-22187.8
-22214.2
-22240.3
-22266.1
-22291.7
-22317.2
-22342.4
-22367.3
-22392
-22416.6
-22441
-22465
-22488.8
-22512.6
-22536.1
-22559.3
-22582.3
-22605.2
-22628
-22650.4
-22672.6
-22694.7
-22716.7
-22738.4
-22759.9
-22781.2
-22802.5
-22823.5
-22844.2
-22864.8
-22885.3
-22905.7
-22925.8
-22945.7
-22965.5
-22985.2
-23004.7
-23023.9
-23043.1
-23062.2
-23081.1
-23099.7
-23118.3
-23136.8
-23155.2
-23173.3
-23191.2
-23209.2
-23227
-23244.6
-23262
-23279.5
-23296.8
-23313.9
-23330.9
-23347.8
-23364.7
-23381.4
-23397.8
-23414.2
-23430.7
-23447
-23463
-23479
-23495
-23510.9
-23526.6
-23542.2
-23557.8
-23573.3
-23588.7
-23603.9
-23619.1
-23634.3
-23649.4
-23664.3
-23679.1
-23694
-23708.8
-23723.4
-23737.9
-23752.4
-23767
-23781.3
-23795.6
-23809.8
-23824.1
-23838.2
-23852.2
-23866.1
-23880.1
-23894.1
-23907.9
-23921.6
-23935.3
-23949.1
-23962.7
-23976.2
-23989.7
-24003.3
-24016.8
-24030.1
-24043.3
-24056.7
-24070.1
-24083.3
-24096.3
-24109.5
-24122.7
-24135.8
-24148.8
-24161.7
-24174.7
-24187.8
-24200.6
-24213.4
-24226.3
-24239.2
-24252
-24264.6
-24277.3
-24290.1
-24302.9
-24315.5
-24328
-24340.7
-24353.4
-24365.9
-24378.3
-24390.9
-24403.5
-24416
-24428.4
-24440.8
-24453.3
-24465.8
-24478.1
-24490.4
-24502.8
-24515.3
-24527.6
-24539.8
-24552.1
-24564.5
-24576.9
-24589.1
-24601.3
-24613.5
-24625.9
-24638.1
-24650.2
-24662.4
-24674.7
-24687
-24699.1
-24711.2
-24723.4
-24735.7
-24747.9
-24759.9
-24772
-24784.2
-24796.5
-24808.5
-24820.5
-24832.7
-24844.9
-24857
-24869
-24881.1
-24893.3
-24905.5
-24917.5
-24929.4
-24941.6
-24953.8
-24965.9
-24977.8
-24989.9
-25002
-25014.2
-25026.2
-25038.1
-25050.2
-25062.4
-25074.5
-25086.4
-25098.5
-25110.6
-25122.8
-25134.7
-25146.7
-25158.8
-25171
-25183.1
-25195
-25207
-25219.2
-25231.3
-25243.3
-25255.3
-25267.4
-25279.6
-25291.6
-25303.6
-25315.6
-25327.8
-25339.9
-25351.9
-25363.9
-25376
-25388.2
-25400.3
-25412.3
-25424.3
-25436.4
-25448.6
-25460.7
-25472.6
-25484.7
-25497
-25509.1
-25521.1
-25533.1
-25545.3
-25557.5
-25569.6
-25581.6
-25593.6
-25605.9
-25618.1
-25630.1
-25642.1
-25654.3
-25666.5
-25678.7
-25690.7
-25702.7
-25715
-25727.2
-25739.3
-25751.3
-25763.5
-25775.7
-25787.9
-25800
-25812
-25824.3
-25836.5
-25848.7
-25860.7
-25872.9
-25885.1
-25897.4
-25909.5
-25921.6
-25933.8
-25946.1
-25958.3
-25970.4
-25982.5
-25994.8
-26007.1
-26019.3
-26031.4
-26043.6
-26055.9
-26068.2
-26080.3
-26092.4
-26104.7
-26117
-26129.3
-26141.4
-26153.6
-26165.9
-26178.2
-26190.5
-26202.6
-26214.8
-26227.2
-26239.5
-26251.7
-26263.9
-26276.2
-26288.5
-26300.8
-26313
-26325.2
-26337.6
-26349.9
-26362.2
-26374.4
-26386.7
-26399.1
-26411.4
-26423.7
-26435.9
-26448.2
-26460.6
-26473
-26485.2
-26497.5
-26509.8
-26522.2
-26534.6
-26546.8
-26559.1
-26571.5
-26584
-26596.3
-26608.5
-26620.8
-26633.3
-26645.7
-26658
-26670.3
-26682.7
-26695.1
-26707.5
-26719.8
-26732.1
-26744.6
-26757.1
-26769.5
-26781.7
-26794.1
-26806.6
-26819.1
-26831.4
-26843.7
-26856.1
-26868.6
-26881.1
-26893.4
-26905.8
-26918.2
-26930.7
-26943.2
-26955.6
-26967.9
-26980.4
-26992.9
-27005.4
-27017.8
-27030.1
-27042.7
-27055.2
-27067.7
-27080
-27092.5
-27105
-27117.6
-27130
-27142.4
-27154.8
-27167.4
-27180
-27192.4
-27204.8
-27217.3
-27229.9
-27242.5
-27254.9
-27267.3
-27279.9
-27292.5
-27305
-27317.5
-27329.9
-27342.5
-27355.1
-27367.7
-27380.1
-27392.6
-27405.2
-27417.9
-27430.4
-27442.8
-27455.4
-27468
-27480.7
-27493.2
-27505.6
-27518.2
-27530.9
-27543.5
-27556
-27568.5
-27581.1
-27593.8
-27606.5
-27619
-27631.5
-27644.1
-27656.9
-27669.5
-27682
-27694.5
-27707.2
-27719.9
-27732.6
-27745.1
-27757.7
-27770.4
-27783.1
-27795.8
-27808.3
-27820.9
-27833.6
-27846.4
-27859
-27871.5
-27884.2
-27896.9
-27909.7
-27922.3
-27934.9
-27947.5
-27960.3
-27973.1
-27985.7
-27998.3
-28011
-28023.8
-28036.6
-28049.2
-28061.8
-28074.5
-28087.3
-28100.1
-28112.8
-28125.4
-28138.1
-28151
-28163.8
-28176.4
-28189.1
-28201.8
-28214.7
-28227.5
-28240.1
-28252.8
-28265.6
-28278.5
-28291.3
-28303.9
-28316.6
-28329.4
-28342.3
-28355.1
-28367.8
-28380.5
-28393.4
-28406.3
-28419.1
-28431.8
-28444.5
-28457.4
-28470.3
-28483.1
-28495.8
-28508.6
-28521.5
-28534.4
-28547.2
-28560
-28572.7
-28585.6
-28598.6
-28611.4
-28624.2
-28637
-28649.9
-28662.8
-28675.7
-28688.5
-28701.3
-28714.2
-28727.2
-28740
-28752.8
-28765.6
-28778.6
-28791.6
-28804.5
-28817.3
-28830.1
-28843.1
-28856.1
-28869
-28881.8
-28894.7
-28907.6
-28920.6
-28933.6
-28946.4
-28959.3
-28972.2
-28985.3
-28998.2
-29011.1
-29024
-29037
-29050
-29063
-29075.9
-29088.8
-29101.8
-29114.8
-29127.8
-29140.7
-29153.6
-29166.6
-29179.7
-29192.7
-29205.6
-29218.6
-29231.6
-29244.6
-29257.7
-29270.6
-29283.6
-29296.6
-29309.7
-29322.7
-29335.7
-29348.7
-29361.7
-29374.8
-29387.8
-29400.8
-29413.8
-29426.9
-29440
-29453.1
-29466.1
-29479.1
-29492.1
-29505.2
-29518.4
-29531.4
-29544.4
-29557.4
-29570.6
-29583.7
-29596.8
-29609.8
-29622.8
-29636
-29649.2
-29662.2
-29675.3
-29688.3
-29701.5
-29714.7
-29727.8
-29740.8
-29753.9
-29767.1
-29780.3
-29793.4
-29806.4
-29819.5
-29832.7
-29845.9
-29859.1
-29872.1
-29885.2
-29898.4
-29911.6
-29924.8
-29937.9
-29951
-29964.2
-29977.4
-29990.6
-30003.8
-30016.9
-30030.1
-30043.3
-30056.5
-30069.7
-30082.8
-30096
-30109.3
-30122.5
-30135.7
-30148.9
-30162
-30175.3
-30188.6
-30201.8
-30214.9
-30228.1
-30241.4
-30254.7
-30267.9
-30281.1
-30294.3
-30307.6
-30320.9
-30334.1
-30347.3
-30360.6
-30373.8
-30387.1
-30400.4
-30413.7
-30426.9
-30440.1
-30453.5
-30466.8
-30480
-30493.3
-30506.5
-30519.9
-30533.2
-30546.5
-30559.7
-30573
-30586.4
-30599.7
-30613
-30626.3
-30639.6
-30652.9
-30666.3
-30679.6
-30692.9
-30706.2
-30719.5
-30732.9
-30746.3
-30759.6
-30772.9
-30786.2
-30799.6
-30813
-30826.4
-30839.7
-30853
-30866.4
-30879.8
-30893.2
-30906.5
-30919.9
-30933.3
-30946.7
-30960.1
-30973.5
-30986.8
-31000.2
-31013.6
-31027.1
-31040.5
-31053.8
-31067.2
-31080.7
-31094.1
-31107.5
-31120.9
-31134.3
-31147.8
-31161.2
-31174.7
-31188
-31201.5
-31214.9
-31228.4
-31241.9
-31255.3
-31268.7
-31282.2
-31295.7
-31309.2
-31322.6
-31336
-31349.5
-31363
-31376.5
-31390
-31403.4
-31416.9
-31430.4
-31443.9
-31457.4
-31470.9
-31484.3
-31497.8
-31511.4
-31524.9
-31538.4
-31551.9
-31565.4
-31579
-31592.5
-31606
-31619.5
-31633
-31646.6
-31660.2
-31673.7
-31687.2
-31700.7
-31714.3
-31727.9
-31741.5
-31755
-31768.5
-31782.1
-31795.7
-31809.3
-31822.9
-31836.4
-31850
-31863.6
-31877.2
-31890.8
-31904.3
-31917.9
-31931.5
-31945.1
-31958.8
-31972.4
-31985.9
-31999.5
-32013.2
-32026.8
-32040.4
-32054
-32067.7
-32081.3
-32095
-32108.6
-32122.2
-32135.8
-32149.5
-32163.2
-32176.9
-32190.5
-32204.1
-32217.8
-32231.5
-32245.2
-32258.8
-32272.5
-32286.1
-32299.8
-32313.5
-32327.2
-32340.9
-32354.6
-32368.3
-32382
-32395.7
-32409.4
-32423.1
-32436.8
-32450.5
-32464.3
-32478
-32491.7
-32505.4
-32519.1
-32532.9
-32546.7
-32560.4
-32574.1
-32587.8
-32601.6
-32615.4
-32629.1
-32642.9
-32656.6
-32670.4
-32684.2
-32698
-32711.7
-32725.5
-32739.3
-32753.1
-32766.9
-32780.7
-32794.4
-32808.2
-32822
-32835.9
-32849.7
-32863.5
-32877.3
-32891.1
-32904.9
-32918.8
-32932.6
-32946.4
-32960.2
-32974.1
-32987.9
-33001.8
-33015.6
-33029.4
-33043.3
-33057.2
-33071
-33084.9
-33098.7
-33112.6
-33126.5
-33140.4
-33154.2
-33168.1
-33181.9
-33195.8
-33209.8
-33223.7
-33237.6
-33251.4
-33265.3
-33279.3
-33293.2
-33307.1
-33321
-33334.9
-33348.8
-33362.8
-33376.8
-33390.7
-33404.6
-33418.5
-33432.5
-33446.5
-33460.4
-33474.3
-33488.3
-33502.3
-33516.2
-33530.2
-33544.2
-33558.1
-33572.1
-33586.1
-33600.1
-33614.1
-33628.1
-33642.1
-33656.1
-33670.1
-33684.1
-33698.1
-33712.1
-33726.1
-33740.1
-33754.2
-33768.2
-33782.2
-33796.2
-33810.3
-33824.4
-33838.4
-33852.4
-33866.5
-33880.5
-33894.6
-33908.7
-33922.7
-33936.8
-33950.8
-33964.9
-33979
-33993.1
-34007.2
-34021.2
-34035.3
-34049.4
-34063.6
-34077.7
-34091.8
-34105.8
-34120
-34134.1
-34148.2
-34162.4
-34176.5
-34190.6
-34204.7
-34218.9
-34233
-34247.2
-34261.3
-34275.5
-34289.6
-34303.8
-34318
-34332.1
-34346.3
-34360.5
-34374.6
-34388.8
-34403
-34417.2
-34431.4
-34445.6
-34459.8
-34474
-34488.2
-34502.4
-34516.6
-34530.8
-34545.1
-34559.3
-34573.5
-34587.7
-34602
-34616.2
-34630.5
-34644.7
-34658.9
-34673.2
-34687.5
-34701.7
-34716
-34730.2
-34744.5
-34758.8
-34773.1
-34787.4
-34801.6
-34815.9
-34830.2
-34844.5
-34858.8
-34873.1
-34887.4
-34901.7
-34916
-34930.4
-34944.7
-34959
-34973.3
-34987.7
-35002
-35016.3
-35030.7
-35045
-35059.4
-35073.7
-35088.1
-35102.5
-35116.8
-35131.2
-35145.6
-35159.9
-35174.3
-35188.7
-35203.1
-35217.5
-35231.9
-35246.3
-35260.7
-35275.1
-35289.5
-35303.9
-35318.3
-35332.7
-35347.2
-35361.6
-35376
-35390.4
-35404.9
-35419.3
-35433.8
-35448.2
-35462.7
-35477.1
-35491.6
-35506.1
-35520.5
-35535
-35549.4
-35563.9
-35578.4
-35592.9
-35607.4
-35621.9
-35636.3
-35650.8
-35665.4
-35679.9
-35694.4
-35708.9
-35723.4
-35737.9
-35752.5
-35767
-35781.5
-35796
-35810.6
-35825.1
-35839.7
-35854.2
-35868.8
-35883.3
-35897.9
-35912.5
-35927
-35941.6
-35956.2
-35970.7
-35985.3
-35999.9
-36014.5
-36029.1
-36043.7
-36058.3
-36072.9
-36087.5
-36102.1
-36116.7
-36131.3
-36145.9
-36160.6
-36175.2
-36189.8
-36204.4
-36219.1
-36233.7
-36248.4
-36263
-36277.7
-36292.3
-36307
-36321.6
-36336.3
-36351
-36365.6
-36380.3
-36395
-36409.7
-36424.4
-36439.1
-36453.7
-36468.4
-36483.1
-36497.8
-36512.5
-36527.3
-36542
-36556.7
-36571.4
-36586.1
-36600.9
-36615.6
-36630.3
-36645
-36659.8
-36674.5
-36689.3
-36704
-36718.8
-36733.5
-36748.3
-36763.1
-36777.8
-36792.6
-36807.4
-36822.1
-36836.9
-36851.7
-36866.5
-36881.3
-36896.1
-36910.9
-36925.7
-36940.5
-36955.3
-36970.1
-36984.9
-36999.7
-37014.6
-37029.4
-37044.2
-37059
-37073.9
-37088.7
-37103.6
-37118.4
-37133.2
-37148.1
-37162.9
-37177.8
-37192.7
-37207.5
-37222.4
-37237.3
-37252.1
-37267
-37281.9
-37296.8
-37311.7
-37326.6
-37341.4
-37356.3
-37371.2
-37386.2
-37401.1
-37416
-37430.9
-37445.8
-37460.7
-37475.6
-37490.6
-37505.5
-37520.4
-37535.4
-37550.3
-37565.2
-37580.2
-37595.1
-37610.1
-37625.1
-37640
-37655
-37669.9
-37684.9
-37699.9
-37714.9
-37729.8
-37744.8
-37759.8
-37774.8
-37789.8
-37804.8
-37819.8
-37834.8
-37849.7
-37864.7
-37879.8
-37894.8
-37909.8
-37924.8
-37939.8
-37954.9
-37969.9
-37984.9
-38000
-38015
-38030
-38045.1
-38060.1
-38075.2
-38090.3
-38105.3
-38120.4
-38135.4
-38150.5
-38165.6
-38180.7
-38195.7
-38210.8
-38225.9
-38241
-38256.1
-38271.2
-38286.3
-38301.4
-38316.5
-38331.6
-38346.7
-38361.8
-38376.9
-38392
-38407.2
-38422.3
-38437.4
-38452.6
-38467.7
-38482.8
-38498
-38513.1
-38528.3
-38543.4
-38558.6
-38573.7
-38588.9
-38604.1
-38619.2
-38634.4
-38649.6
-38664.7
-38679.9
-38695.1
-38710.3
-38725.5
-38740.7
-38755.9
-38771.1
-38786.3
-38801.5
-38816.7
-38831.9
-38847.1
-38862.4
-38877.6
-38892.8
-38908
-38923.3
-38938.5
-38953.8
-38969
-38984.3
-38999.5
-39014.8
-39030
-39045.3
-39060.5
-39075.8
-39091.1
-39106.3
-39121.6
-39136.9
-39152.2
-39167.5
-39182.8
-39198
-39213.3
-39228.7
-39244
-39259.3
-39274.6
-39289.9
-39305.2
-39320.5
-39335.8
-39351.2
-39366.5
-39381.8
-39397.1
-39412.5
-39427.8
-39443.2
-39458.5
-39473.9
-39489.2
-39504.6
-39520
-39535.3
-39550.7
-39566.1
-39581.4
-39596.8
-39612.2
-39627.6
-39643
-39658.4
-39673.8
-39689.2
-39704.6
-39720
-39735.4
-39750.8
-39766.2
-39781.6
-39797
-39812.5
-39827.9
-39843.3
-39858.8
-39874.2
-39889.6
-39905.1
-39920.5
-39936
-39951.4
-39966.9
-39982.4
-39997.8
-40013.3
-40028.8
-40044.2
-40059.7
-40075.2
-40090.7
-40106.2
-40121.7
-40137.2
-40152.7
-40168.2
-40183.7
-40199.2
-40214.7
-40230.2
-40245.7
-40261.3
-40276.8
-40292.3
-40307.8
-40323.4
-40338.9
-40354.5
-40370
-40385.6
-40401.1
-40416.7
-40432.2
-40447.8
-40463.4
-40478.9
-40494.5
-40510.1
-40525.7
-40541.2
-40556.8
-40572.4
-40588
-40603.6
-40619.2
-40634.8
-40650.4
-40666
-40681.6
-40697.3
-40712.9
-40728.5
-40744.1
-40759.8
-40775.4
-40791
-40806.7
-40822.3
-40838
-40853.6
-40869.3
-40884.9
-40900.6
-40916.3
-40932
-40947.6
-40963.3
-40979
-40994.7
-41010.4
-41026
-41041.7
-41057.4
-41073.1
-41088.8
-41104.5
-41120.3
-41136
-41151.7
-41167.4
-41183.1
-41198.9
-41214.6
-41230.3
-41246.1
-41261.8
-41277.6
-41293.3
-41309.1
-41324.8
-41340.6
-41356.4
-41372.1
-41387.9
-41403.7
-41419.5
-41435.2
-41451
-41466.8
-41482.6
-41498.4
-41514.2
-41530
-41545.8
-41561.6
-41577.4
-41593.3
-41609.1
-41624.9
-41640.7
-41656.6
-41672.4
-41688.3
-41704.1
-41719.9
-41735.8
-41751.6
-41767.5
-41783.4
-41799.2
-41815.1
-41831
-41846.8
-41862.7
-41878.6
-41894.5
-41910.4
-41926.3
-41942.2
-41958.1
-41974
-41989.9
-42005.8
-42021.7
-42037.6
-42053.6
-42069.5
-42085.4
-42101.4
-42117.3
-42133.2
-42149.2
-42165.1
-42181.1
-42197
-42213
-42229
-42244.9
-42260.9
-42276.9
-42292.9
-42308.8
-42324.8
-42340.8
-42356.8
-42372.8
-42388.8
-42404.8
-42420.8
-42436.8
-42452.8
-42468.9
-42484.9
-42500.9
-42516.9
-42533
-42549
-42565.1
-42581.1
-42597.2
-42613.2
-42629.3
-42645.3
-42661.4
-42677.5
-42693.5
-42709.6
-42725.7
-42741.8
-42757.9
-42773.9
-42790
-42806.1
-42822.2
-42838.3
-42854.5
-42870.6
-42886.7
-42902.8
-42918.9
-42935.1
-42951.2
-42967.3
-42983.5
-42999.6
-43015.8
-43031.9
-43048.1
-43064.2
-43080.4
-43096.6
-43112.7
-43128.9
-43145.1
-43161.3
-43177.5
-43193.7
-43209.8
-43226
-43242.2
-43258.4
-43274.7
-43290.9
-43307.1
-43323.3
-43339.5
-43355.8
-43372
-43388.2
-43404.5
-43420.7
-43437
-43453.2
-43469.5
-43485.7
-43502
-43518.3
-43534.5
-43550.8
-43567.1
-43583.4
-43599.7
-43615.9
-43632.2
-43648.5
-43664.8
-43681.1
-43697.5
-43713.8
-43730.1
-43746.4
-43762.7
-43779.1
-43795.4
-43811.7
-43828.1
-43844.4
-43860.8
-43877.1
-43893.5
-43909.8
-43926.2
-43942.6
-43958.9
-43975.3
-43991.7
-44008.1
-44024.5
-44040.9
-44057.3
-44073.7
-44090.1
-44106.5
-44122.9
-44139.3
-44155.7
-44172.1
-44188.6
-44205
-44221.4
-44237.9
-44254.3
-44270.7
-44287.2
-44303.7
-44320.1
-44336.6
-44353
-44369.5
-44386
-44402.5
-44418.9
-44435.4
-44451.9
-44468.4
-44484.9
-44501.4
-44517.9
-44534.4
-44550.9
-44567.4
-44583.9
-44600.5
-44617
-44633.5
-44650.1
-44666.6
-44683.1
-44699.7
-44716.2
-44732.8
-44749.4
-44765.9
-44782.5
-44799.1
-44815.6
-44832.2
-44848.8
-44865.4
-44882
-44898.5
-44915.1
-44931.7
-44948.3
-44964.9
-44981.6
-44998.2
-45014.8
-45031.4
-45048
-45064.7
-45081.3
-45097.9
-45114.6
-45131.2
-45147.9
-45164.5
-45181.2
-45197.9
-45214.5
-45231.2
-45247.9
-45264.5
-45281.2
-45297.9
-45314.6
-45331.3
-45348
-45364.7
-45381.4
-45398.1
-45414.8
-45431.5
-45448.2
-45464.9
-45481.7
-45498.4
-45515.1
-45531.9
-45548.6
-45565.3
-45582.1
-45598.8
-45615.6
-45632.4
-45649.1
-45665.9
-45682.7
-45699.4
-45716.2
-45733
-45749.8
-45766.6
-45783.4
-45800.2
-45817
-45833.8
-45850.6
-45867.4
-45884.2
-45901
-45917.8
-45934.7
-45951.5
-45968.3
-45985.2
-46002
-46018.8
-46035.7
-46052.6
-46069.4
-46086.3
-46103.1
-46120
-46136.9
-46153.7
-46170.6
-46187.5
-46204.4
-46221.3
-46238.2
-46255.1
-46272
-46288.9
-46305.8
-46322.7
-46339.6
-46356.5
-46373.5
-46390.4
-46407.3
-46424.3
-46441.2
-46458.1
-46475.1
-46492
-46509
-46525.9
-46542.9
-46559.9
-46576.8
-46593.8
-46610.8
-46627.7
-46644.7
-46661.7
-46678.7
-46695.7
-46712.7
-46729.7
-46746.7
-46763.7
-46780.7
-46797.7
-46814.8
-46831.8
-46848.8
-46865.8
-46882.9
-46899.9
-46917
-46934
-46951.1
-46968.1
-46985.2
-47002.2
-47019.3
-47036.3
-47053.4
-47070.5
-47087.6
-47104.7
-47121.7
-47138.8
-47155.9
-47173
-47190.1
-47207.2
-47224.3
-47241.5
-47258.6
-47275.7
-47292.8
-47309.9
-47327.1
-47344.2
-47361.3
-47378.5
-47395.6
-47412.8
-47429.9
-47447.1
-47464.2
-47481.4
-47498.6
-47515.7
-47532.9
-47550.1
-47567.3
-47584.5
-47601.7
-47618.9
-47636.1
-47653.3
-47670.5
-47687.7
-47704.9
-47722.1
-47739.3
-47756.5
-47773.8
-47791
-47808.2
-47825.5
-47842.7
-47859.9
-47877.2
-47894.5
-47911.7
-47929
-47946.2
-47963.5
-47980.8
-47998
-48015.3
-48032.6
-48049.9
-48067.2
-48084.5
-48101.8
-48119.1
-48136.4
-48153.7
-48171
-48188.3
-48205.6
-48223
-48240.3
-48257.6
-48275
-48292.3
-48309.6
-48327
-48344.3
-48361.7
-48379.1
-48396.4
-48413.8
-48431.1
-48448.5
-48465.9
-48483.3
-48500.7
-48518
-48535.4
-48552.8
-48570.2
-48587.6
-48605
-48622.4
-48639.9
-48657.3
-48674.7
-48692.1
-48709.6
-48727
-48744.4
-48761.9
-48779.3
-48796.7
-48814.2
-48831.7
-48849.1
-48866.6
-48884
-48901.5
-48919
-48936.5
-48953.9
-48971.4
-48988.9
-49006.4
-49023.9
-49041.4
-49058.9
-49076.4
-49093.9
-49111.4
-49129
-49146.5
-49164
-49181.5
-49199.1
-49216.6
-49234.2
-49251.7
-49269.2
-49286.8
-49304.4
-49321.9
-49339.5
-49357.1
-49374.6
-49392.2
-49409.8
-49427.4
-49444.9
-49462.5
-49480.1
-49497.7
-49515.3
-49532.9
-49550.5
-49568.2
-49585.8
-49603.4
-49621
-49638.7
-49656.3
-49673.9
-49691.6
-49709.2
-49726.9
-49744.5
-49762.2
-49779.8
-49797.5
-49815.2
-49832.8
-49850.5
-49868.2
-49885.9
-49903.6
-49921.2
-49938.9
-49956.6
-49974.3
-49992
-50009.8
-50027.5
-50045.2
-50062.9
-50080.6
-50098.4
-50116.1
-50133.8
-50151.6
-50169.3
-50187.1
-50204.8
-50222.6
-50240.3
-50258.1
-50275.9
-50293.6
-50311.4
-50329.2
-50347
-50364.7
-50382.5
-50400.3
-50418.1
-50435.9
-50453.7
-50471.5
-50489.4
-50507.2
-50525
-50542.8
-50560.6
-50578.5
-50596.3
-50614.2
-50632
-50649.8
-50667.7
-50685.5
-50703.4
-50721.3
-50739.1
-50757
-50774.9
-50792.8
-50810.6
-50828.5
-50846.4
-50864.3
-50882.2
-50900.1
-50918
-50935.9
-50953.9
-50971.8
-50989.7
-51007.6
-51025.5
-51043.5
-51061.4
-51079.4
-51097.3
-51115.3
-51133.2
-51151.2
-51169.1
-51187.1
-51205.1
-51223
-51241
-51259
-51277
-51295
-51312.9
-51330.9
-51348.9
-51367
-51385
-51403
-51421
-51439
-51457
-51475.1
-51493.1
-51511.1
-51529.2
-51547.2
-51565.3
-51583.3
-51601.4
-51619.4
-51637.5
-51655.6
-51673.6
-51691.7
-51709.8
-51727.9
-51746
-51764
-51782.1
-51800.2
-51818.3
-51836.5
-51854.6
-51872.7
-51890.8
-51908.9
-51927
-51945.2
-51963.3
-51981.4
-51999.6
-52017.7
-52035.9
-52054
-52072.2
-52090.4
-52108.5
-52126.7
-52144.9
-52163.1
-52181.2
-52199.4
-52217.6
-52235.8
-52254
-52272.2
-52290.4
-52308.6
-52326.8
-52345.1
-52363.3
-52381.5
-52399.7
-52418
-52436.2
-52454.4
-52472.7
-52490.9
-52509.2
-52527.5
-52545.7
-52564
-52582.3
-52600.5
-52618.8
-52637.1
-52655.4
-52673.7
-52692
-52710.3
-52728.6
-52746.9
-52765.2
-52783.5
-52801.8
-52820.1
-52838.5
-52856.8
-52875.1
-52893.5
-52911.8
-52930.2
-52948.5
-52966.9
-52985.2
-53003.6
-53022
-53040.3
-53058.7
-53077.1
-53095.5
-53113.9
-53132.2
-53150.6
-53169
-53187.4
-53205.9
-53224.3
-53242.7
-53261.1
-53279.5
-53298
-53316.4
-53334.8
-53353.3
-53371.7
-53390.2
-53408.6
-53427.1
-53445.5
-53464
-53482.5
-53500.9
-53519.4
-53537.9
-53556.4
-53574.9
-53593.4
-53611.9
-53630.3
-53648.9
-53667.4
-53685.9
-53704.4
-53722.9
-53741.4
-53760
-53778.5
-53797
-53815.6
-53834.1
-53852.7
-53871.2
-53889.8
-53908.4
-53926.9
-53945.5
-53964.1
-53982.7
-54001.2
-54019.8
-54038.4
-54057
-54075.6
-54094.2
-54112.8
-54131.4
-54150
-54168.7
-54187.3
-54205.9
-54224.6
-54243.2
-54261.8
-54280.5
-54299.1
-54317.8
-54336.4
-54355.1
-54373.8
-54392.4
-54411.1
-54429.8
-54448.5
-54467.1
-54485.8
-54504.5
-54523.2
-54541.9
-54560.6
-54579.4
-54598.1
-54616.8
-54635.5
-54654.2
-54673
-54691.7
-54710.4
-54729.2
-54747.9
-54766.7
-54785.4
-54804.2
-54823
-54841.7
-54860.5
-54879.3
-54898.1
-54916.9
-54935.6
-54954.4
-54973.2
-54992
-55010.8
-55029.7
-55048.5
-55067.3
-55086.1
-55104.9
-55123.8
-55142.6
-55161.4
-55180.3
-55199.1
-55218
-55236.8
-55255.7
-55274.6
-55293.4
-55312.3
-55331.2
-55350.1
-55368.9
-55387.8
-55406.7
-55425.6
-55444.5
-55463.4
-55482.3
-55501.3
-55520.2
-55539.1
-55558
-55576.9
-55595.9
-55614.8
-55633.8
-55652.7
-55671.7
-55690.6
-55709.6
-55728.5
-55747.5
-55766.5
-55785.5
-55804.4
-55823.4
-55842.4
-55861.4