/*--------------------------------*- C++ -*----------------------------------*\
  =========                 |
  \\      /  F ield         | OpenFOAM: The Open Source CFD Toolbox
   \\    /   O peration     | Website:  https://openfoam.org
    \\  /    A nd           | Version:  9
     \\/     M anipulation  |
\*---------------------------------------------------------------------------*/
FoamFile
{
    format      ascii;
    class       volScalarField;
    location    "0.047";
    object      rho_0;
}
// * * * * * * * * * * * * * * * * * * * * * * * * * * * * * * * * * * * * * //

dimensions      [1 -3 0 0 0 0 0];

internalField   nonuniform List<scalar> 
10000
(
0.174303
0.174301
0.174298
0.174295
0.174292
0.174289
0.174286
0.174283
0.17428
0.174278
0.174275
0.174272
0.174269
0.174266
0.174263
0.17426
0.174257
0.174254
0.174251
0.174248
0.174245
0.174242
0.174239
0.174236
0.174233
0.174231
0.174228
0.174225
0.174222
0.174219
0.174216
0.174213
0.17421
0.174207
0.174204
0.174201
0.174198
0.174195
0.174192
0.17419
0.174187
0.174184
0.174181
0.174178
0.174175
0.174172
0.174169
0.174166
0.174163
0.17416
0.174157
0.174154
0.174152
0.174149
0.174146
0.174143
0.17414
0.174137
0.174134
0.174131
0.174128
0.174125
0.174122
0.17412
0.174117
0.174114
0.174111
0.174108
0.174105
0.174102
0.174099
0.174096
0.174094
0.174091
0.174088
0.174085
0.174082
0.174079
0.174076
0.174073
0.17407
0.174068
0.174065
0.174062
0.174059
0.174056
0.174053
0.17405
0.174047
0.174045
0.174042
0.174039
0.174036
0.174033
0.17403
0.174027
0.174024
0.174022
0.174019
0.174016
0.174013
0.17401
0.174007
0.174004
0.174002
0.173999
0.173996
0.173993
0.17399
0.173987
0.173985
0.173982
0.173979
0.173976
0.173973
0.17397
0.173967
0.173965
0.173962
0.173959
0.173956
0.173953
0.17395
0.173948
0.173945
0.173942
0.173939
0.173936
0.173934
0.173931
0.173928
0.173925
0.173922
0.173919
0.173917
0.173914
0.173911
0.173908
0.173906
0.173903
0.1739
0.173897
0.173894
0.173891
0.173889
0.173886
0.173883
0.17388
0.173878
0.173875
0.173872
0.173869
0.173866
0.173864
0.173861
0.173858
0.173855
0.173852
0.17385
0.173847
0.173844
0.173842
0.173839
0.173836
0.173833
0.17383
0.173828
0.173825
0.173822
0.173819
0.173817
0.173814
0.173811
0.173808
0.173806
0.173803
0.1738
0.173798
0.173795
0.173792
0.173789
0.173786
0.173784
0.173781
0.173778
0.173776
0.173773
0.17377
0.173768
0.173765
0.173762
0.17376
0.173757
0.173754
0.173751
0.173748
0.173746
0.173743
0.17374
0.173737
0.173735
0.173732
0.17373
0.173727
0.173725
0.173722
0.173719
0.173717
0.173714
0.173711
0.173709
0.173706
0.173703
0.1737
0.173697
0.173695
0.173692
0.173689
0.173687
0.173684
0.173682
0.173679
0.173677
0.173674
0.173672
0.173669
0.173667
0.173664
0.173662
0.173659
0.173656
0.173653
0.173651
0.173648
0.173645
0.173642
0.173639
0.173637
0.173634
0.173632
0.173629
0.173627
0.173624
0.173622
0.17362
0.173617
0.173615
0.173613
0.173611
0.173608
0.173606
0.173604
0.173601
0.173598
0.173596
0.173593
0.17359
0.173588
0.173585
0.173582
0.173579
0.173576
0.173573
0.17357
0.173568
0.173565
0.173562
0.173559
0.173557
0.173554
0.173552
0.17355
0.173547
0.173545
0.173543
0.173541
0.17354
0.173538
0.173536
0.173535
0.173534
0.173532
0.173531
0.17353
0.173529
0.173528
0.173526
0.173525
0.173524
0.173523
0.173522
0.173521
0.17352
0.173519
0.173518
0.173517
0.173516
0.173516
0.173515
0.173514
0.173514
0.173513
0.173512
0.173512
0.173511
0.17351
0.17351
0.173509
0.173508
0.173508
0.173507
0.173506
0.173506
0.173505
0.173505
0.173504
0.173503
0.173503
0.173502
0.173501
0.173501
0.1735
0.173499
0.173499
0.173498
0.173498
0.173497
0.173496
0.173496
0.173495
0.173494
0.173494
0.173493
0.173493
0.173492
0.173491
0.173491
0.17349
0.17349
0.173489
0.173488
0.173488
0.173487
0.173486
0.173486
0.173485
0.173485
0.173484
0.173483
0.173483
0.173482
0.173482
0.173481
0.173481
0.17348
0.173479
0.173479
0.173478
0.173478
0.173477
0.173476
0.173476
0.173475
0.173475
0.173474
0.173474
0.173473
0.173472
0.173472
0.173471
0.173471
0.17347
0.17347
0.173469
0.173468
0.173468
0.173467
0.173467
0.173466
0.173466
0.173465
0.173465
0.173464
0.173463
0.173463
0.173462
0.173462
0.173461
0.173461
0.17346
0.17346
0.173459
0.173459
0.173458
0.173458
0.173457
0.173457
0.173456
0.173455
0.173455
0.173454
0.173454
0.173453
0.173453
0.173452
0.173452
0.173451
0.173451
0.17345
0.17345
0.173449
0.173449
0.173448
0.173448
0.173447
0.173447
0.173446
0.173446
0.173445
0.173445
0.173444
0.173444
0.173443
0.173443
0.173443
0.173442
0.173442
0.173441
0.173441
0.17344
0.17344
0.173439
0.173439
0.173438
0.173438
0.173437
0.173437
0.173437
0.173436
0.173436
0.173435
0.173435
0.173434
0.173434
0.173433
0.173433
0.173433
0.173432
0.173432
0.173431
0.173431
0.17343
0.17343
0.17343
0.173429
0.173429
0.173428
0.173428
0.173428
0.173427
0.173427
0.173426
0.173426
0.173426
0.173425
0.173425
0.173424
0.173424
0.173424
0.173423
0.173423
0.173423
0.173422
0.173422
0.173421
0.173421
0.173421
0.17342
0.17342
0.17342
0.173419
0.173419
0.173418
0.173418
0.173418
0.173417
0.173417
0.173417
0.173416
0.173416
0.173416
0.173415
0.173415
0.173415
0.173414
0.173414
0.173414
0.173413
0.173413
0.173413
0.173413
0.173412
0.173412
0.173412
0.173411
0.173411
0.173411
0.17341
0.17341
0.17341
0.17341
0.173409
0.173409
0.173409
0.173409
0.173408
0.173408
0.173408
0.173408
0.173407
0.173407
0.173407
0.173407
0.173406
0.173406
0.173406
0.173406
0.173405
0.173405
0.173405
0.173405
0.173404
0.173404
0.173404
0.173404
0.173404
0.173403
0.173403
0.173403
0.173403
0.173403
0.173402
0.173402
0.173402
0.173402
0.173402
0.173402
0.173401
0.173401
0.173401
0.173401
0.173401
0.173401
0.1734
0.1734
0.1734
0.1734
0.1734
0.1734
0.1734
0.1734
0.173399
0.173399
0.173399
0.173399
0.173399
0.173399
0.173399
0.173399
0.173399
0.173398
0.173398
0.173398
0.173398
0.173398
0.173398
0.173398
0.173398
0.173398
0.173398
0.173398
0.173398
0.173398
0.173398
0.173398
0.173398
0.173398
0.173398
0.173398
0.173398
0.173397
0.173397
0.173397
0.173397
0.173397
0.173397
0.173397
0.173397
0.173398
0.173398
0.173398
0.173398
0.173398
0.173398
0.173398
0.173398
0.173398
0.173398
0.173398
0.173398
0.173398
0.173398
0.173398
0.173398
0.173398
0.173399
0.173399
0.173399
0.173399
0.173399
0.173399
0.173399
0.173399
0.1734
0.1734
0.1734
0.1734
0.1734
0.1734
0.1734
0.173401
0.173401
0.173401
0.173401
0.173401
0.173402
0.173402
0.173402
0.173402
0.173402
0.173403
0.173403
0.173403
0.173403
0.173404
0.173404
0.173404
0.173404
0.173405
0.173405
0.173405
0.173405
0.173406
0.173406
0.173406
0.173407
0.173407
0.173407
0.173408
0.173408
0.173408
0.173409
0.173409
0.173409
0.17341
0.17341
0.17341
0.173411
0.173411
0.173412
0.173412
0.173412
0.173413
0.173413
0.173414
0.173414
0.173414
0.173415
0.173415
0.173416
0.173416
0.173417
0.173417
0.173418
0.173418
0.173419
0.173419
0.17342
0.17342
0.173421
0.173421
0.173422
0.173422
0.173423
0.173423
0.173424
0.173424
0.173425
0.173426
0.173426
0.173427
0.173427
0.173428
0.173429
0.173429
0.17343
0.173431
0.173431
0.173432
0.173433
0.173433
0.173434
0.173435
0.173435
0.173436
0.173437
0.173437
0.173438
0.173439
0.17344
0.17344
0.173441
0.173442
0.173443
0.173443
0.173444
0.173445
0.173446
0.173447
0.173448
0.173448
0.173449
0.17345
0.173451
0.173452
0.173453
0.173454
0.173455
0.173455
0.173456
0.173457
0.173458
0.173459
0.17346
0.173461
0.173462
0.173463
0.173464
0.173465
0.173466
0.173467
0.173468
0.173469
0.17347
0.173471
0.173472
0.173473
0.173475
0.173476
0.173477
0.173478
0.173479
0.17348
0.173481
0.173482
0.173484
0.173485
0.173486
0.173487
0.173488
0.17349
0.173491
0.173492
0.173493
0.173495
0.173496
0.173497
0.173499
0.1735
0.173501
0.173503
0.173504
0.173505
0.173507
0.173508
0.173509
0.173511
0.173512
0.173514
0.173515
0.173517
0.173518
0.17352
0.173521
0.173523
0.173524
0.173526
0.173527
0.173529
0.17353
0.173532
0.173533
0.173535
0.173537
0.173538
0.17354
0.173542
0.173543
0.173545
0.173547
0.173548
0.17355
0.173552
0.173554
0.173555
0.173557
0.173559
0.173561
0.173563
0.173564
0.173566
0.173568
0.17357
0.173572
0.173574
0.173576
0.173578
0.17358
0.173582
0.173584
0.173586
0.173588
0.17359
0.173592
0.173594
0.173596
0.173598
0.1736
0.173602
0.173604
0.173606
0.173609
0.173611
0.173613
0.173615
0.173617
0.17362
0.173622
0.173624
0.173627
0.173629
0.173631
0.173634
0.173636
0.173638
0.173641
0.173643
0.173646
0.173648
0.17365
0.173653
0.173655
0.173658
0.173661
0.173663
0.173666
0.173668
0.173671
0.173673
0.173676
0.173679
0.173681
0.173684
0.173687
0.17369
0.173692
0.173695
0.173698
0.173701
0.173704
0.173706
0.173709
0.173712
0.173715
0.173718
0.173721
0.173724
0.173727
0.17373
0.173733
0.173736
0.173739
0.173742
0.173745
0.173748
0.173751
0.173755
0.173758
0.173761
0.173764
0.173767
0.173771
0.173774
0.173777
0.173781
0.173784
0.173787
0.173791
0.173794
0.173798
0.173801
0.173805
0.173808
0.173812
0.173815
0.173819
0.173822
0.173826
0.173829
0.173833
0.173837
0.17384
0.173844
0.173848
0.173852
0.173855
0.173859
0.173863
0.173867
0.173871
0.173875
0.173879
0.173883
0.173887
0.173891
0.173895
0.173899
0.173903
0.173907
0.173911
0.173915
0.173919
0.173923
0.173927
0.173932
0.173936
0.17394
0.173944
0.173949
0.173953
0.173957
0.173962
0.173966
0.173971
0.173975
0.17398
0.173984
0.173989
0.173993
0.173998
0.174002
0.174007
0.174012
0.174016
0.174021
0.174026
0.17403
0.174035
0.17404
0.174045
0.174049
0.174054
0.174059
0.174064
0.174069
0.174074
0.174079
0.174084
0.174089
0.174094
0.174099
0.174104
0.174109
0.174114
0.17412
0.174125
0.17413
0.174135
0.174141
0.174146
0.174151
0.174156
0.174162
0.174167
0.174173
0.174178
0.174184
0.174189
0.174194
0.1742
0.174206
0.174211
0.174217
0.174222
0.174228
0.174234
0.174239
0.174245
0.174251
0.174257
0.174262
0.174268
0.174274
0.17428
0.174286
0.174292
0.174297
0.174303
0.174309
0.174315
0.174321
0.174327
0.174333
0.17434
0.174346
0.174352
0.174358
0.174364
0.17437
0.174376
0.174383
0.174389
0.174395
0.174401
0.174408
0.174414
0.17442
0.174427
0.174433
0.17444
0.174446
0.174452
0.174459
0.174465
0.174472
0.174479
0.174485
0.174492
0.174498
0.174505
0.174511
0.174518
0.174525
0.174531
0.174538
0.174545
0.174552
0.174558
0.174565
0.174572
0.174579
0.174586
0.174592
0.174599
0.174606
0.174613
0.17462
0.174627
0.174634
0.174641
0.174648
0.174655
0.174662
0.174669
0.174676
0.174683
0.17469
0.174697
0.174704
0.174711
0.174719
0.174726
0.174733
0.17474
0.174747
0.174755
0.174762
0.174769
0.174776
0.174784
0.174791
0.174798
0.174805
0.174813
0.17482
0.174827
0.174835
0.174842
0.17485
0.174857
0.174864
0.174872
0.174879
0.174887
0.174894
0.174902
0.174909
0.174917
0.174924
0.174932
0.174939
0.174947
0.174954
0.174962
0.174969
0.174977
0.174984
0.174992
0.175
0.175007
0.175015
0.175023
0.17503
0.175038
0.175045
0.175053
0.175061
0.175069
0.175076
0.175084
0.175092
0.175099
0.175107
0.175115
0.175123
0.17513
0.175138
0.175146
0.175154
0.175161
0.175169
0.175177
0.175185
0.175193
0.1752
0.175208
0.175216
0.175224
0.175232
0.175239
0.175247
0.175255
0.175263
0.175271
0.175279
0.175287
0.175295
0.175302
0.17531
0.175318
0.175326
0.175334
0.175342
0.17535
0.175358
0.175366
0.175374
0.175382
0.175389
0.175397
0.175405
0.175413
0.175421
0.175429
0.175437
0.175445
0.175453
0.175461
0.175469
0.175477
0.175485
0.175493
0.175501
0.175509
0.175517
0.175525
0.175533
0.175541
0.175549
0.175557
0.175565
0.175573
0.175581
0.175589
0.175597
0.175605
0.175613
0.175621
0.175629
0.175637
0.175645
0.175653
0.175661
0.175669
0.175677
0.175685
0.175693
0.175702
0.17571
0.175718
0.175726
0.175734
0.175742
0.17575
0.175758
0.175766
0.175774
0.175782
0.17579
0.175798
0.175806
0.175814
0.175823
0.175831
0.175839
0.175847
0.175855
0.175863
0.175871
0.175879
0.175887
0.175895
0.175903
0.175911
0.17592
0.175928
0.175936
0.175944
0.175952
0.17596
0.175968
0.175976
0.175984
0.175992
0.176001
0.176009
0.176017
0.176025
0.176033
0.176041
0.176049
0.176057
0.176065
0.176074
0.176082
0.17609
0.176098
0.176106
0.176114
0.176122
0.17613
0.176138
0.176147
0.176155
0.176163
0.176171
0.176179
0.176187
0.176195
0.176203
0.176212
0.17622
0.176228
0.176236
0.176244
0.176252
0.17626
0.176269
0.176277
0.176285
0.176293
0.176301
0.176309
0.176317
0.176325
0.176334
0.176342
0.17635
0.176358
0.176366
0.176374
0.176382
0.176391
0.176399
0.176407
0.176415
0.176423
0.176431
0.176439
0.176448
0.176456
0.176464
0.176472
0.17648
0.176488
0.176496
0.176505
0.176513
0.176521
0.176529
0.176537
0.176545
0.176554
0.176562
0.17657
0.176578
0.176586
0.176594
0.176602
0.176611
0.176619
0.176627
0.176635
0.176643
0.176651
0.17666
0.176668
0.176676
0.176684
0.176692
0.1767
0.176709
0.176717
0.176725
0.176733
0.176741
0.176749
0.176757
0.176766
0.176774
0.176782
0.17679
0.176798
0.176806
0.176815
0.176823
0.176831
0.176839
0.176847
0.176856
0.176864
0.176872
0.17688
0.176888
0.176896
0.176905
0.176913
0.176921
0.176929
0.176937
0.176945
0.176954
0.176962
0.17697
0.176978
0.176986
0.176994
0.177003
0.177011
0.177019
0.177027
0.177035
0.177044
0.177052
0.17706
0.177068
0.177076
0.177085
0.177093
0.177101
0.177109
0.177117
0.177125
0.177134
0.177142
0.17715
0.177158
0.177166
0.177175
0.177183
0.177191
0.177199
0.177207
0.177216
0.177224
0.177232
0.17724
0.177248
0.177256
0.177265
0.177273
0.177281
0.177289
0.177297
0.177306
0.177314
0.177322
0.17733
0.177338
0.177347
0.177355
0.177363
0.177371
0.177379
0.177388
0.177396
0.177404
0.177412
0.177421
0.177429
0.177437
0.177445
0.177453
0.177462
0.17747
0.177478
0.177486
0.177494
0.177503
0.177511
0.177519
0.177527
0.177535
0.177544
0.177552
0.17756
0.177568
0.177576
0.177585
0.177593
0.177601
0.177609
0.177618
0.177626
0.177634
0.177642
0.17765
0.177659
0.177667
0.177675
0.177683
0.177692
0.1777
0.177708
0.177716
0.177724
0.177733
0.177741
0.177749
0.177757
0.177766
0.177774
0.177782
0.17779
0.177798
0.177807
0.177815
0.177823
0.177831
0.17784
0.177848
0.177856
0.177864
0.177873
0.177881
0.177889
0.177897
0.177905
0.177914
0.177922
0.17793
0.177938
0.177947
0.177955
0.177963
0.177971
0.17798
0.177988
0.177996
0.178004
0.178013
0.178021
0.178029
0.178037
0.178046
0.178054
0.178062
0.17807
0.178078
0.178087
0.178095
0.178103
0.178111
0.17812
0.178128
0.178136
0.178144
0.178153
0.178161
0.178169
0.178177
0.178186
0.178194
0.178202
0.17821
0.178219
0.178227
0.178235
0.178243
0.178252
0.17826
0.178268
0.178277
0.178285
0.178293
0.178301
0.17831
0.178318
0.178326
0.178334
0.178343
0.178351
0.178359
0.178367
0.178376
0.178384
0.178392
0.1784
0.178409
0.178417
0.178425
0.178433
0.178442
0.17845
0.178458
0.178467
0.178475
0.178483
0.178491
0.1785
0.178508
0.178516
0.178524
0.178533
0.178541
0.178549
0.178558
0.178566
0.178574
0.178582
0.178591
0.178599
0.178607
0.178615
0.178624
0.178632
0.17864
0.178649
0.178657
0.178665
0.178673
0.178682
0.17869
0.178698
0.178707
0.178715
0.178723
0.178731
0.17874
0.178748
0.178756
0.178764
0.178773
0.178781
0.178789
0.178798
0.178806
0.178814
0.178822
0.178831
0.178839
0.178847
0.178856
0.178864
0.178872
0.178881
0.178889
0.178897
0.178905
0.178914
0.178922
0.17893
0.178939
0.178947
0.178955
0.178963
0.178972
0.17898
0.178988
0.178997
0.179005
0.179013
0.179022
0.17903
0.179038
0.179046
0.179055
0.179063
0.179071
0.17908
0.179088
0.179096
0.179105
0.179113
0.179121
0.17913
0.179138
0.179146
0.179154
0.179163
0.179171
0.179179
0.179188
0.179196
0.179204
0.179213
0.179221
0.179229
0.179238
0.179246
0.179254
0.179263
0.179271
0.179279
0.179287
0.179296
0.179304
0.179312
0.179321
0.179329
0.179337
0.179346
0.179354
0.179362
0.179371
0.179379
0.179387
0.179396
0.179404
0.179412
0.179421
0.179429
0.179437
0.179446
0.179454
0.179462
0.179471
0.179479
0.179487
0.179496
0.179504
0.179512
0.179521
0.179529
0.179537
0.179546
0.179554
0.179562
0.179571
0.179579
0.179587
0.179596
0.179604
0.179612
0.179621
0.179629
0.179637
0.179646
0.179654
0.179662
0.179671
0.179679
0.179687
0.179696
0.179704
0.179712
0.179721
0.179729
0.179737
0.179746
0.179754
0.179762
0.179771
0.179779
0.179787
0.179796
0.179804
0.179812
0.179821
0.179829
0.179837
0.179846
0.179854
0.179862
0.179871
0.179879
0.179888
0.179896
0.179904
0.179913
0.179921
0.179929
0.179938
0.179946
0.179954
0.179963
0.179971
0.179979
0.179988
0.179996
0.180005
0.180013
0.180021
0.18003
0.180038
0.180046
0.180055
0.180063
0.180071
0.18008
0.180088
0.180097
0.180105
0.180113
0.180122
0.18013
0.180138
0.180147
0.180155
0.180163
0.180172
0.18018
0.180189
0.180197
0.180205
0.180214
0.180222
0.18023
0.180239
0.180247
0.180256
0.180264
0.180272
0.180281
0.180289
0.180297
0.180306
0.180314
0.180323
0.180331
0.180339
0.180348
0.180356
0.180364
0.180373
0.180381
0.18039
0.180398
0.180406
0.180415
0.180423
0.180432
0.18044
0.180448
0.180457
0.180465
0.180473
0.180482
0.18049
0.180499
0.180507
0.180515
0.180524
0.180532
0.180541
0.180549
0.180557
0.180566
0.180574
0.180583
0.180591
0.180599
0.180608
0.180616
0.180625
0.180633
0.180641
0.18065
0.180658
0.180666
0.180675
0.180683
0.180692
0.1807
0.180708
0.180717
0.180725
0.180734
0.180742
0.180751
0.180759
0.180767
0.180776
0.180784
0.180793
0.180801
0.180809
0.180818
0.180826
0.180835
0.180843
0.180851
0.18086
0.180868
0.180877
0.180885
0.180893
0.180902
0.18091
0.180919
0.180927
0.180935
0.180944
0.180952
0.180961
0.180969
0.180978
0.180986
0.180994
0.181003
0.181011
0.18102
0.181028
0.181037
0.181045
0.181053
0.181062
0.18107
0.181079
0.181087
0.181095
0.181104
0.181112
0.181121
0.181129
0.181138
0.181146
0.181154
0.181163
0.181171
0.18118
0.181188
0.181197
0.181205
0.181213
0.181222
0.18123
0.181239
0.181247
0.181256
0.181264
0.181272
0.181281
0.181289
0.181298
0.181306
0.181315
0.181323
0.181331
0.18134
0.181348
0.181357
0.181365
0.181374
0.181382
0.181391
0.181399
0.181407
0.181416
0.181424
0.181433
0.181441
0.18145
0.181458
0.181467
0.181475
0.181483
0.181492
0.1815
0.181509
0.181517
0.181526
0.181534
0.181543
0.181551
0.181559
0.181568
0.181576
0.181585
0.181593
0.181602
0.18161
0.181619
0.181627
0.181636
0.181644
0.181652
0.181661
0.181669
0.181678
0.181686
0.181695
0.181703
0.181712
0.18172
0.181729
0.181737
0.181745
0.181754
0.181762
0.181771
0.181779
0.181788
0.181796
0.181805
0.181813
0.181822
0.18183
0.181839
0.181847
0.181856
0.181864
0.181872
0.181881
0.181889
0.181898
0.181906
0.181915
0.181923
0.181932
0.18194
0.181949
0.181957
0.181966
0.181974
0.181983
0.181991
0.182
0.182008
0.182016
0.182025
0.182033
0.182042
0.18205
0.182059
0.182067
0.182076
0.182084
0.182093
0.182101
0.18211
0.182118
0.182127
0.182135
0.182144
0.182152
0.182161
0.182169
0.182178
0.182186
0.182195
0.182203
0.182212
0.18222
0.182229
0.182237
0.182246
0.182254
0.182262
0.182271
0.182279
0.182288
0.182296
0.182305
0.182313
0.182322
0.18233
0.182339
0.182347
0.182356
0.182364
0.182373
0.182381
0.18239
0.182398
0.182407
0.182415
0.182424
0.182432
0.182441
0.182449
0.182458
0.182466
0.182475
0.182483
0.182492
0.1825
0.182509
0.182517
0.182526
0.182534
0.182543
0.182551
0.18256
0.182568
0.182577
0.182585
0.182594
0.182602
0.182611
0.182619
0.182628
0.182637
0.182645
0.182654
0.182662
0.182671
0.182679
0.182688
0.182696
0.182705
0.182713
0.182722
0.18273
0.182739
0.182747
0.182756
0.182764
0.182773
0.182781
0.18279
0.182798
0.182807
0.182815
0.182824
0.182832
0.182841
0.182849
0.182858
0.182867
0.182875
0.182884
0.182892
0.182901
0.182909
0.182918
0.182926
0.182935
0.182943
0.182952
0.18296
0.182969
0.182977
0.182986
0.182994
0.183003
0.183012
0.18302
0.183029
0.183037
0.183046
0.183054
0.183063
0.183071
0.18308
0.183088
0.183097
0.183105
0.183114
0.183122
0.183131
0.18314
0.183148
0.183157
0.183165
0.183174
0.183182
0.183191
0.183199
0.183208
0.183216
0.183225
0.183234
0.183242
0.183251
0.183259
0.183268
0.183276
0.183285
0.183293
0.183302
0.18331
0.183319
0.183328
0.183336
0.183345
0.183353
0.183362
0.18337
0.183379
0.183387
0.183396
0.183405
0.183413
0.183422
0.18343
0.183439
0.183447
0.183456
0.183464
0.183473
0.183482
0.18349
0.183499
0.183507
0.183516
0.183524
0.183533
0.183542
0.18355
0.183559
0.183567
0.183576
0.183584
0.183593
0.183602
0.18361
0.183619
0.183627
0.183636
0.183644
0.183653
0.183662
0.18367
0.183679
0.183687
0.183696
0.183704
0.183713
0.183722
0.18373
0.183739
0.183747
0.183756
0.183764
0.183773
0.183782
0.18379
0.183799
0.183807
0.183816
0.183824
0.183833
0.183842
0.18385
0.183859
0.183867
0.183876
0.183885
0.183893
0.183902
0.18391
0.183919
0.183927
0.183936
0.183945
0.183953
0.183962
0.18397
0.183979
0.183988
0.183996
0.184005
0.184013
0.184022
0.184031
0.184039
0.184048
0.184056
0.184065
0.184074
0.184082
0.184091
0.184099
0.184108
0.184117
0.184125
0.184134
0.184142
0.184151
0.18416
0.184168
0.184177
0.184185
0.184194
0.184203
0.184211
0.18422
0.184228
0.184237
0.184246
0.184254
0.184263
0.184271
0.18428
0.184289
0.184297
0.184306
0.184314
0.184323
0.184332
0.18434
0.184349
0.184357
0.184366
0.184375
0.184383
0.184392
0.184401
0.184409
0.184418
0.184426
0.184435
0.184444
0.184452
0.184461
0.184469
0.184478
0.184487
0.184495
0.184504
0.184513
0.184521
0.18453
0.184538
0.184547
0.184556
0.184564
0.184573
0.184582
0.18459
0.184599
0.184607
0.184616
0.184625
0.184633
0.184642
0.184651
0.184659
0.184668
0.184676
0.184685
0.184694
0.184702
0.184711
0.18472
0.184728
0.184737
0.184746
0.184754
0.184763
0.184771
0.18478
0.184789
0.184797
0.184806
0.184815
0.184823
0.184832
0.184841
0.184849
0.184858
0.184866
0.184875
0.184884
0.184892
0.184901
0.18491
0.184918
0.184927
0.184936
0.184944
0.184953
0.184962
0.18497
0.184979
0.184988
0.184996
0.185005
0.185013
0.185022
0.185031
0.185039
0.185048
0.185057
0.185065
0.185074
0.185083
0.185091
0.1851
0.185109
0.185117
0.185126
0.185135
0.185143
0.185152
0.185161
0.185169
0.185178
0.185187
0.185195
0.185204
0.185213
0.185221
0.18523
0.185239
0.185247
0.185256
0.185265
0.185273
0.185282
0.185291
0.185299
0.185308
0.185317
0.185325
0.185334
0.185343
0.185351
0.18536
0.185369
0.185377
0.185386
0.185395
0.185403
0.185412
0.185421
0.185429
0.185438
0.185447
0.185455
0.185464
0.185473
0.185481
0.18549
0.185499
0.185507
0.185516
0.185525
0.185533
0.185542
0.185551
0.185559
0.185568
0.185577
0.185586
0.185594
0.185603
0.185612
0.18562
0.185629
0.185638
0.185646
0.185655
0.185664
0.185672
0.185681
0.18569
0.185698
0.185707
0.185716
0.185725
0.185733
0.185742
0.185751
0.185759
0.185768
0.185777
0.185785
0.185794
0.185803
0.185811
0.18582
0.185829
0.185838
0.185846
0.185855
0.185864
0.185872
0.185881
0.18589
0.185898
0.185907
0.185916
0.185925
0.185933
0.185942
0.185951
0.185959
0.185968
0.185977
0.185985
0.185994
0.186003
0.186012
0.18602
0.186029
0.186038
0.186046
0.186055
0.186064
0.186073
0.186081
0.18609
0.186099
0.186107
0.186116
0.186125
0.186134
0.186142
0.186151
0.18616
0.186168
0.186177
0.186186
0.186195
0.186203
0.186212
0.186221
0.186229
0.186238
0.186247
0.186256
0.186264
0.186273
0.186282
0.186291
0.186299
0.186308
0.186317
0.186325
0.186334
0.186343
0.186352
0.18636
0.186369
0.186378
0.186387
0.186395
0.186404
0.186413
0.186421
0.18643
0.186439
0.186448
0.186456
0.186465
0.186474
0.186483
0.186491
0.1865
0.186509
0.186517
0.186526
0.186535
0.186544
0.186552
0.186561
0.18657
0.186579
0.186587
0.186596
0.186605
0.186614
0.186622
0.186631
0.18664
0.186649
0.186657
0.186666
0.186675
0.186684
0.186692
0.186701
0.18671
0.186719
0.186727
0.186736
0.186745
0.186754
0.186762
0.186771
0.18678
0.186789
0.186797
0.186806
0.186815
0.186824
0.186832
0.186841
0.18685
0.186859
0.186867
0.186876
0.186885
0.186894
0.186902
0.186911
0.18692
0.186929
0.186937
0.186946
0.186955
0.186964
0.186972
0.186981
0.18699
0.186999
0.187008
0.187016
0.187025
0.187034
0.187043
0.187051
0.18706
0.187069
0.187078
0.187086
0.187095
0.187104
0.187113
0.187121
0.18713
0.187139
0.187148
0.187157
0.187165
0.187174
0.187183
0.187192
0.1872
0.187209
0.187218
0.187227
0.187236
0.187244
0.187253
0.187262
0.187271
0.187279
0.187288
0.187297
0.187306
0.187315
0.187323
0.187332
0.187341
0.18735
0.187358
0.187367
0.187376
0.187385
0.187394
0.187402
0.187411
0.18742
0.187429
0.187438
0.187446
0.187455
0.187464
0.187473
0.187481
0.18749
0.187499
0.187508
0.187517
0.187525
0.187534
0.187543
0.187552
0.187561
0.187569
0.187578
0.187587
0.187596
0.187605
0.187613
0.187622
0.187631
0.18764
0.187649
0.187657
0.187666
0.187675
0.187684
0.187693
0.187701
0.18771
0.187719
0.187728
0.187737
0.187745
0.187754
0.187763
0.187772
0.187781
0.187789
0.187798
0.187807
0.187816
0.187825
0.187834
0.187842
0.187851
0.18786
0.187869
0.187878
0.187886
0.187895
0.187904
0.187913
0.187922
0.18793
0.187939
0.187948
0.187957
0.187966
0.187975
0.187983
0.187992
0.188001
0.18801
0.188019
0.188027
0.188036
0.188045
0.188054
0.188063
0.188072
0.18808
0.188089
0.188098
0.188107
0.188116
0.188125
0.188133
0.188142
0.188151
0.18816
0.188169
0.188178
0.188186
0.188195
0.188204
0.188213
0.188222
0.188231
0.188239
0.188248
0.188257
0.188266
0.188275
0.188284
0.188292
0.188301
0.18831
0.188319
0.188328
0.188337
0.188345
0.188354
0.188363
0.188372
0.188381
0.18839
0.188398
0.188407
0.188416
0.188425
0.188434
0.188443
0.188452
0.18846
0.188469
0.188478
0.188487
0.188496
0.188505
0.188513
0.188522
0.188531
0.18854
0.188549
0.188558
0.188567
0.188575
0.188584
0.188593
0.188602
0.188611
0.18862
0.188629
0.188637
0.188646
0.188655
0.188664
0.188673
0.188682
0.188691
0.188699
0.188708
0.188717
0.188726
0.188735
0.188744
0.188753
0.188761
0.18877
0.188779
0.188788
0.188797
0.188806
0.188815
0.188823
0.188832
0.188841
0.18885
0.188859
0.188868
0.188877
0.188886
0.188894
0.188903
0.188912
0.188921
0.18893
0.188939
0.188948
0.188957
0.188965
0.188974
0.188983
0.188992
0.189001
0.18901
0.189019
0.189028
0.189036
0.189045
0.189054
0.189063
0.189072
0.189081
0.18909
0.189099
0.189108
0.189116
0.189125
0.189134
0.189143
0.189152
0.189161
0.18917
0.189179
0.189187
0.189196
0.189205
0.189214
0.189223
0.189232
0.189241
0.18925
0.189259
0.189268
0.189276
0.189285
0.189294
0.189303
0.189312
0.189321
0.18933
0.189339
0.189348
0.189356
0.189365
0.189374
0.189383
0.189392
0.189401
0.18941
0.189419
0.189428
0.189437
0.189445
0.189454
0.189463
0.189472
0.189481
0.18949
0.189499
0.189508
0.189517
0.189526
0.189535
0.189543
0.189552
0.189561
0.18957
0.189579
0.189588
0.189597
0.189606
0.189615
0.189624
0.189633
0.189641
0.18965
0.189659
0.189668
0.189677
0.189686
0.189695
0.189704
0.189713
0.189722
0.189731
0.18974
0.189748
0.189757
0.189766
0.189775
0.189784
0.189793
0.189802
0.189811
0.18982
0.189829
0.189838
0.189847
0.189856
0.189864
0.189873
0.189882
0.189891
0.1899
0.189909
0.189918
0.189927
0.189936
0.189945
0.189954
0.189963
0.189972
0.189981
0.18999
0.189998
0.190007
0.190016
0.190025
0.190034
0.190043
0.190052
0.190061
0.19007
0.190079
0.190088
0.190097
0.190106
0.190115
0.190124
0.190133
0.190141
0.19015
0.190159
0.190168
0.190177
0.190186
0.190195
0.190204
0.190213
0.190222
0.190231
0.19024
0.190249
0.190258
0.190267
0.190276
0.190285
0.190294
0.190303
0.190311
0.19032
0.190329
0.190338
0.190347
0.190356
0.190365
0.190374
0.190383
0.190392
0.190401
0.19041
0.190419
0.190428
0.190437
0.190446
0.190455
0.190464
0.190473
0.190482
0.190491
0.1905
0.190509
0.190518
0.190526
0.190535
0.190544
0.190553
0.190562
0.190571
0.19058
0.190589
0.190598
0.190607
0.190616
0.190625
0.190634
0.190643
0.190652
0.190661
0.19067
0.190679
0.190688
0.190697
0.190706
0.190715
0.190724
0.190733
0.190742
0.190751
0.19076
0.190769
0.190778
0.190787
0.190796
0.190805
0.190814
0.190823
0.190832
0.190841
0.19085
0.190859
0.190868
0.190876
0.190885
0.190894
0.190903
0.190912
0.190921
0.19093
0.190939
0.190948
0.190957
0.190966
0.190975
0.190984
0.190993
0.191002
0.191011
0.19102
0.191029
0.191038
0.191047
0.191056
0.191065
0.191074
0.191083
0.191092
0.191101
0.19111
0.191119
0.191128
0.191137
0.191146
0.191155
0.191164
0.191173
0.191182
0.191191
0.1912
0.191209
0.191218
0.191227
0.191236
0.191245
0.191254
0.191263
0.191272
0.191281
0.19129
0.191299
0.191308
0.191317
0.191326
0.191335
0.191344
0.191353
0.191362
0.191371
0.19138
0.191389
0.191398
0.191407
0.191416
0.191425
0.191435
0.191444
0.191453
0.191462
0.191471
0.19148
0.191489
0.191498
0.191507
0.191516
0.191525
0.191534
0.191543
0.191552
0.191561
0.19157
0.191579
0.191588
0.191597
0.191606
0.191615
0.191624
0.191633
0.191642
0.191651
0.19166
0.191669
0.191678
0.191687
0.191696
0.191705
0.191714
0.191723
0.191732
0.191741
0.19175
0.191759
0.191768
0.191777
0.191787
0.191796
0.191805
0.191814
0.191823
0.191832
0.191841
0.19185
0.191859
0.191868
0.191877
0.191886
0.191895
0.191904
0.191913
0.191922
0.191931
0.19194
0.191949
0.191958
0.191967
0.191976
0.191985
0.191994
0.192004
0.192013
0.192022
0.192031
0.19204
0.192049
0.192058
0.192067
0.192076
0.192085
0.192094
0.192103
0.192112
0.192121
0.19213
0.192139
0.192148
0.192157
0.192166
0.192176
0.192185
0.192194
0.192203
0.192212
0.192221
0.19223
0.192239
0.192248
0.192257
0.192266
0.192275
0.192284
0.192293
0.192302
0.192311
0.192321
0.19233
0.192339
0.192348
0.192357
0.192366
0.192375
0.192384
0.192393
0.192402
0.192411
0.19242
0.192429
0.192438
0.192447
0.192457
0.192466
0.192475
0.192484
0.192493
0.192502
0.192511
0.19252
0.192529
0.192538
0.192547
0.192556
0.192565
0.192575
0.192584
0.192593
0.192602
0.192611
0.19262
0.192629
0.192638
0.192647
0.192656
0.192665
0.192674
0.192684
0.192693
0.192702
0.192711
0.19272
0.192729
0.192738
0.192747
0.192756
0.192765
0.192774
0.192784
0.192793
0.192802
0.192811
0.19282
0.192829
0.192838
0.192847
0.192856
0.192865
0.192874
0.192884
0.192893
0.192902
0.192911
0.19292
0.192929
0.192938
0.192947
0.192956
0.192965
0.192975
0.192984
0.192993
0.193002
0.193011
0.19302
0.193029
0.193038
0.193047
0.193057
0.193066
0.193075
0.193084
0.193093
0.193102
0.193111
0.19312
0.193129
0.193139
0.193148
0.193157
0.193166
0.193175
0.193184
0.193193
0.193202
0.193211
0.193221
0.19323
0.193239
0.193248
0.193257
0.193266
0.193275
0.193284
0.193293
0.193303
0.193312
0.193321
0.19333
0.193339
0.193348
0.193357
0.193366
0.193376
0.193385
0.193394
0.193403
0.193412
0.193421
0.19343
0.193439
0.193449
0.193458
0.193467
0.193476
0.193485
0.193494
0.193503
0.193513
0.193522
0.193531
0.19354
0.193549
0.193558
0.193567
0.193576
0.193586
0.193595
0.193604
0.193613
0.193622
0.193631
0.19364
0.19365
0.193659
0.193668
0.193677
0.193686
0.193695
0.193704
0.193714