/*--------------------------------*- C++ -*----------------------------------*\
  =========                 |
  \\      /  F ield         | OpenFOAM: The Open Source CFD Toolbox
   \\    /   O peration     | Website:  https://openfoam.org
    \\  /    A nd           | Version:  9
     \\/     M anipulation  |
\*---------------------------------------------------------------------------*/
FoamFile
{
    format      ascii;
    class       volScalarField;
    location    "0.025";
    object      mag(U);
}
// * * * * * * * * * * * * * * * * * * * * * * * * * * * * * * * * * * * * * //

dimensions      [0 1 -1 0 0 0 0];

internalField   nonuniform List<scalar> 
10000
(
3.11151
3.18578
3.25132
3.30633
3.35954
3.41402
3.46929
3.52461
3.57979
3.63491
3.69003
3.74517
3.80031
3.85546
3.91061
3.96575
4.02089
4.07602
4.13116
4.1863
4.24144
4.29659
4.35175
4.4069
4.46206
4.51721
4.57236
4.62751
4.68266
4.73781
4.79296
4.8481
4.90325
4.9584
5.01354
5.06869
5.12384
5.17899
5.23413
5.28928
5.34443
5.39958
5.45472
5.50987
5.56502
5.62017
5.67532
5.73047
5.78562
5.84077
5.89592
5.95107
6.00622
6.06138
6.11653
6.17168
6.22683
6.28199
6.33714
6.39229
6.44745
6.5026
6.55775
6.61291
6.66806
6.72322
6.77837
6.83353
6.88869
6.94384
6.999
7.05416
7.10931
7.16447
7.21963
7.27479
7.32995
7.38511
7.44027
7.49542
7.55058
7.60574
7.66091
7.71607
7.77123
7.82639
7.88155
7.93671
7.99187
8.04704
8.1022
8.15736
8.21253
8.26769
8.32285
8.37802
8.43318
8.48835
8.54351
8.59868
8.65384
8.70901
8.76418
8.81934
8.87451
8.92968
8.98485
9.04001
9.09518
9.15035
9.20552
9.26069
9.31586
9.37103
9.4262
9.48137
9.53654
9.59171
9.64688
9.70205
9.75722
9.8124
9.86757
9.92274
9.97792
10.0331
10.0883
10.1434
10.1986
10.2538
10.309
10.3641
10.4193
10.4745
10.5297
10.5848
10.64
10.6952
10.7504
10.8055
10.8607
10.9159
10.9711
11.0263
11.0814
11.1366
11.1918
11.247
11.3022
11.3573
11.4125
11.4677
11.5229
11.5781
11.6332
11.6884
11.7436
11.7988
11.854
11.9092
11.9643
12.0195
12.0747
12.1299
12.1851
12.2403
12.2955
12.3506
12.4058
12.461
12.5162
12.5714
12.6266
12.6818
12.737
12.7921
12.8473
12.9025
12.9577
13.0129
13.0681
13.1233
13.1785
13.2337
13.2889
13.344
13.3992
13.4544
13.5096
13.5648
13.62
13.6752
13.7304
13.7856
13.8408
13.896
13.9512
14.0064
14.0616
14.1168
14.172
14.2272
14.2824
14.3375
14.3927
14.4479
14.5031
14.5583
14.6135
14.6687
14.7239
14.7791
14.8343
14.8895
14.9447
14.9999
15.0551
15.1103
15.1655
15.2207
15.2759
15.3311
15.3863
15.4416
15.4968
15.552
15.6072
15.6624
15.7176
15.7728
15.828
15.8832
15.9384
15.9936
16.0488
16.104
16.1592
16.2144
16.2696
16.3248
16.38
16.4353
16.4905
16.5457
16.6009
16.6561
16.7113
16.7665
16.8217
16.8769
16.9321
16.9874
17.0426
17.0978
17.153
17.2082
17.2634
17.3186
17.3738
17.4291
17.4843
17.5395
17.5947
17.6499
17.7051
17.7603
17.8156
17.8708
17.926
17.9812
18.0364
18.0916
18.1469
18.2021
18.2573
18.3125
18.3677
18.4229
18.4782
18.5334
18.5886
18.6438
18.699
18.7543
18.8095
18.8647
18.9199
18.9752
19.0304
19.0856
19.1408
19.196
19.2513
19.3065
19.3617
19.4169
19.4722
19.5274
19.5826
19.6378
19.6931
19.7483
19.8035
19.8587
19.914
19.9692
20.0244
20.0797
20.1349
20.1901
20.2453
20.3006
20.3558
20.411
20.4663
20.5215
20.5767
20.632
20.6872
20.7424
20.7977
20.8529
20.9081
20.9634
21.0186
21.0738
21.1291
21.1843
21.2395
21.2948
21.35
21.4052
21.4605
21.5157
21.5709
21.6262
21.6814
21.7366
21.7919
21.8471
21.9024
21.9576
22.0128
22.0681
22.1233
22.1786
22.2338
22.289
22.3443
22.3995
22.4548
22.51
22.5652
22.6205
22.6757
22.731
22.7862
22.8415
22.8967
22.9519
23.0072
23.0624
23.1177
23.1729
23.2282
23.2834
23.3387
23.3939
23.4491
23.5044
23.5596
23.6149
23.6701
23.7254
23.7806
23.8359
23.8911
23.9464
24.0016
24.0569
24.1121
24.1674
24.2226
24.2779
24.3331
24.3884
24.4436
24.4989
24.5541
24.6094
24.6646
24.7199
24.7752
24.8304
24.8857
24.9409
24.9962
25.0514
25.1067
25.1619
25.2172
25.2724
25.3277
25.383
25.4382
25.4935
25.5487
25.604
25.6593
25.7145
25.7698
25.825
25.8803
25.9355
25.9908
26.0461
26.1013
26.1566
26.2119
26.2671
26.3224
26.3776
26.4329
26.4882
26.5434
26.5987
26.654
26.7092
26.7645
26.8197
26.875
26.9303
26.9855
27.0408
27.0961
27.1513
27.2066
27.2619
27.3171
27.3724
27.4277
27.4829
27.5382
27.5935
27.6488
27.704
27.7593
27.8146
27.8698
27.9251
27.9804
28.0356
28.0909
28.1462
28.2015
28.2567
28.312
28.3673
28.4226
28.4778
28.5331
28.5884
28.6436
28.6989
28.7542
28.8095
28.8648
28.92
28.9753
29.0306
29.0859
29.1411
29.1964
29.2517
29.307
29.3622
29.4175
29.4728
29.5281
29.5834
29.6386
29.6939
29.7492
29.8045
29.8598
29.915
29.9703
30.0256
30.0809
30.1362
30.1915
30.2467
30.302
30.3573
30.4126
30.4679
30.5232
30.5784
30.6337
30.689
30.7443
30.7996
30.8549
30.9102
30.9654
31.0207
31.076
31.1313
31.1866
31.2419
31.2972
31.3525
31.4078
31.463
31.5183
31.5736
31.6289
31.6842
31.7395
31.7948
31.8501
31.9054
31.9607
32.016
32.0713
32.1265
32.1818
32.2371
32.2924
32.3477
32.403
32.4583
32.5136
32.5689
32.6242
32.6795
32.7348
32.7901
32.8454
32.9007
32.956
33.0113
33.0666
33.1219
33.1772
33.2325
33.2878
33.3431
33.3984
33.4537
33.509
33.5643
33.6196
33.6749
33.7302
33.7855
33.8408
33.8961
33.9514
34.0067
34.062
34.1173
34.1726
34.2279
34.2832
34.3385
34.3938
34.4491
34.5044
34.5598
34.6151
34.6704
34.7257
34.781
34.8363
34.8916
34.9469
35.0022
35.0575
35.1128
35.1681
35.2235
35.2788
35.3341
35.3894
35.4447
35.5
35.5553
35.6106
35.6659
35.7213
35.7766
35.8319
35.8872
35.9425
35.9978
36.0531
36.1085
36.1638
36.2191
36.2744
36.3297
36.385
36.4404
36.4957
36.551
36.6063
36.6616
36.7169
36.7723
36.8276
36.8829
36.9382
36.9935
37.0489
37.1042
37.1595
37.2148
37.2701
37.3255
37.3808
37.4361
37.4914
37.5467
37.6021
37.6574
37.7127
37.768
37.8234
37.8787
37.934
37.9893
38.0447
38.1
38.1553
38.2106
38.266
38.3213
38.3766
38.4319
38.4873
38.5426
38.5979
38.6533
38.7086
38.7639
38.8192
38.8746
38.9299
38.9852
39.0406
39.0959
39.1512
39.2066
39.2619
39.3172
39.3726
39.4279
39.4832
39.5386
39.5939
39.6492
39.7046
39.7599
39.8152
39.8706
39.9259
39.9812
40.0366
40.0919
40.1472
40.2026
40.2579
40.3133
40.3686
40.4239
40.4793
40.5346
40.59
40.6453
40.7006
40.756
40.8113
40.8667
40.922
40.9773
41.0327
41.088
41.1434
41.1987
41.254
41.3094
41.3647
41.4201
41.4754
41.5308
41.5861
41.6415
41.6968
41.7521
41.8075
41.8628
41.9182
41.9735
42.0289
42.0842
42.1396
42.1949
42.2503
42.3056
42.361
42.4163
42.4717
42.527
42.5824
42.6377
42.6931
42.7484
42.8038
42.8591
42.9145
42.9698
43.0252
43.0805
43.1359
43.1912
43.2466
43.3019
43.3573
43.4126
43.468
43.5234
43.5787
43.6341
43.6894
43.7448
43.8001
43.8555
43.9108
43.9662
44.0216
44.0769
44.1323
44.1876
44.243
44.2984
44.3537
44.4091
44.4644
44.5198
44.5752
44.6305
44.6859
44.7412
44.7966
44.852
44.9073
44.9627
45.0181
45.0734
45.1288
45.1841
45.2395
45.2949
45.3502
45.4056
45.461
45.5163
45.5717
45.6271
45.6824
45.7378
45.7932
45.8485
45.9039
45.9593
46.0146
46.07
46.1254
46.1807
46.2361
46.2915
46.3469
46.4022
46.4576
46.513
46.5683
46.6237
46.6791
46.7345
46.7898
46.8452
46.9006
46.9559
47.0113
47.0667
47.1221
47.1774
47.2328
47.2882
47.3436
47.3989
47.4543
47.5097
47.5651
47.6205
47.6758
47.7312
47.7866
47.842
47.8973
47.9527
48.0081
48.0635
48.1189
48.1742
48.2296
48.285
48.3404
48.3958
48.4511
48.5065
48.5619
48.6173
48.6727
48.7281
48.7834
48.8388
48.8942
48.9496
49.005
49.0604
49.1157
49.1711
49.2265
49.2819
49.3373
49.3927
49.4481
49.5035
49.5588
49.6142
49.6696
49.725
49.7804
49.8358
49.8912
49.9466
50.002
50.0573
50.1127
50.1681
50.2235
50.2789
50.3343
50.3897
50.4451
50.5005
50.5559
50.6113
50.6667
50.722
50.7774
50.8328
50.8882
50.9436
50.999
51.0544
51.1098
51.1652
51.2206
51.276
51.3314
51.3868
51.4422
51.4976
51.553
51.6084
51.6638
51.7192
51.7746
51.83
51.8854
51.9408
51.9962
52.0516
52.107
52.1624
52.2178
52.2732
52.3286
52.384
52.4394
52.4948
52.5502
52.6056
52.661
52.7164
52.7718
52.8272
52.8826
52.938
52.9935
53.0489
53.1043
53.1597
53.2151
53.2705
53.3259
53.3813
53.4367
53.4921
53.5475
53.6029
53.6584
53.7138
53.7692
53.8246
53.88
53.9354
53.9908
54.0462
54.1016
54.1571
54.2125
54.2679
54.3233
54.3787
54.4341
54.4895
54.5449
54.6004
54.6558
54.7112
54.7666
54.822
54.8774
54.9329
54.9883
55.0437
55.0991
55.1545
55.2099
55.2654
55.3208
55.3762
55.4316
55.487
55.5425
55.5979
55.6533
55.7087
55.7641
55.8196
55.875
55.9304
55.9858
56.0412
56.0967
56.1521
56.2075
56.2629
56.3184
56.3738
56.4292
56.4846
56.5401
56.5955
56.6509
56.7063
56.7618
56.8172
56.8726
56.928
56.9835
57.0389
57.0943
57.1498
57.2052
57.2606
57.316
57.3715
57.4269
57.4823
57.5378
57.5932
57.6486
57.7041
57.7595
57.8149
57.8704
57.9258
57.9812
58.0367
58.0921
58.1475
58.203
58.2584
58.3138
58.3693
58.4247
58.4801
58.5356
58.591
58.6464
58.7019
58.7573
58.8128
58.8682
58.9236
58.9791
59.0345
59.0899
59.1454
59.2008
59.2563
59.3117
59.3671
59.4226
59.478
59.5335
59.5889
59.6443
59.6998
59.7552
59.8107
59.8661
59.9216
59.977
60.0324
60.0879
60.1433
60.1988
60.2542
60.3097
60.3651
60.4206
60.476
60.5315
60.5869
60.6423
60.6978
60.7532
60.8087
60.8641
60.9196
60.975
61.0305
61.0859
61.1414
61.1968
61.2523
61.3077
61.3632
61.4186
61.4741
61.5295
61.585
61.6404
61.6959
61.7513
61.8068
61.8623
61.9177
61.9732
62.0286
62.0841
62.1395
62.195
62.2504
62.3059
62.3613
62.4168
62.4723
62.5277
62.5832
62.6386
62.6941
62.7496
62.805
62.8605
62.9159
62.9714
63.0268
63.0823
63.1378
63.1932
63.2487
63.3041
63.3596
63.4151
63.4705
63.526
63.5815
63.6369
63.6924
63.7478
63.8033
63.8588
63.9142
63.9697
64.0252
64.0806
64.1361
64.1916
64.247
64.3025
64.358
64.4134
64.4689
64.5244
64.5798
64.6353
64.6908
64.7462
64.8017
64.8572
64.9126
64.9681
65.0236
65.0791
65.1345
65.19
65.2455
65.3009
65.3564
65.4119
65.4674
65.5228
65.5783
65.6338
65.6893
65.7447
65.8002
65.8557
65.9112
65.9666
66.0221
66.0776
66.1331
66.1885
66.244
66.2995
66.355
66.4104
66.4659
66.5214
66.5769
66.6324
66.6878
66.7433
66.7988
66.8543
66.9098
66.9652
67.0207
67.0762
67.1317
67.1872
67.2426
67.2981
67.3536
67.4091
67.4646
67.5201
67.5755
67.631
67.6865
67.742
67.7975
67.853
67.9084
67.9639
68.0194
68.0749
68.1304
68.1859
68.2414
68.2969
68.3523
68.4078
68.4633
68.5188
68.5743
68.6298
68.6853
68.7408
68.7963
68.8517
68.9072
68.9627
69.0182
69.0737
69.1292
69.1847
69.2402
69.2957
69.3512
69.4067
69.4622
69.5177
69.5731
69.6286
69.6841
69.7396
69.7951
69.8506
69.9061
69.9616
70.0171
70.0726
70.1281
70.1836
70.2391
70.2946
70.3501
70.4056
70.4611
70.5166
70.5721
70.6276
70.6831
70.7386
70.7941
70.8496
70.9051
70.9606
71.0161
71.0716
71.1271
71.1826
71.2381
71.2936
71.3491
71.4046
71.4601
71.5156
71.5711
71.6266
71.6821
71.7376
71.7932
71.8487
71.9042
71.9597
72.0152
72.0707
72.1262
72.1817
72.2372
72.2927
72.3482
72.4037
72.4592
72.5148
72.5703
72.6258
72.6813
72.7368
72.7923
72.8478
72.9033
72.9588
73.0144
73.0699
73.1254
73.1809
73.2364
73.2919
73.3474
73.403
73.4585
73.514
73.5695
73.625
73.6805
73.736
73.7916
73.8471
73.9026
73.9581
74.0136
74.0691
74.1247
74.1802
74.2357
74.2912
74.3467
74.4023
74.4578
74.5133
74.5688
74.6243
74.6799
74.7354
74.7909
74.8464
74.9019
74.9575
75.013
75.0685
75.124
75.1796
75.2351
75.2906
75.3461
75.4017
75.4572
75.5127
75.5682
75.6238
75.6793
75.7348
75.7903
75.8459
75.9014
75.9569
76.0125
76.068
76.1235
76.179
76.2346
76.2901
76.3456
76.4012
76.4567
76.5122
76.5677
76.6233
76.6788
76.7343
76.7899
76.8454
76.9009
76.9565
77.012
77.0675
77.1231
77.1786
77.2341
77.2897
77.3452
77.4007
77.4563
77.5118
77.5674
77.6229
77.6784
77.734
77.7895
77.845
77.9006
77.9561
78.0116
78.0672
78.1227
78.1783
78.2338
78.2893
78.3449
78.4004
78.456
78.5115
78.567
78.6226
78.6781
78.7337
78.7892
78.8448
78.9003
78.9558
79.0114
79.0669
79.1225
79.178
79.2336
79.2891
79.3447
79.4002
79.4557
79.5113
79.5668
79.6224
79.6779
79.7335
79.789
79.8446
79.9001
79.9557
80.0112
80.0668
80.1223
80.1779
80.2334
80.289
80.3445
80.4001
80.4556
80.5112
80.5667
80.6223
80.6778
80.7334
80.7889
80.8445
80.9
80.9556
81.0112
81.0667
81.1223
81.1778
81.2334
81.2889
81.3445
81.4
81.4556
81.5111
81.5667
81.6223
81.6778
81.7334
81.7889
81.8445
81.9001
81.9556
82.0112
82.0667
82.1223
82.1779
82.2334
82.289
82.3445
82.4001
82.4557
82.5112
82.5668
82.6223
82.6779
82.7335
82.789
82.8446
82.9002
82.9557
83.0113
83.0668
83.1224
83.178
83.2335
83.2891
83.3447
83.4002
83.4558
83.5114
83.5669
83.6225
83.6781
83.7336
83.7892
83.8448
83.9004
83.9559
84.0115
84.0671
84.1226
84.1782
84.2338
84.2893
84.3449
84.4005
84.4561
84.5116
84.5672
84.6228
84.6783
84.7339
84.7895
84.8451
84.9006
84.9562
85.0118
85.0674
85.1229
85.1785
85.2341
85.2897
85.3452
85.4008
85.4564
85.512
85.5676
85.6231
85.6787
85.7343
85.7899
85.8454
85.901
85.9566
86.0122
86.0678
86.1233
86.1789
86.2345
86.2901
86.3457
86.4013
86.4568
86.5124
86.568
86.6236
86.6792
86.7347
86.7903
86.8459
86.9015
86.9571
87.0127
87.0683
87.1238
87.1794
87.235
87.2906
87.3462
87.4018
87.4574
87.5129
87.5685
87.6241
87.6797
87.7353
87.7909
87.8465
87.9021
87.9577
88.0132
88.0688
88.1244
88.18
88.2356
88.2912
88.3468
88.4024
88.458
88.5136
88.5692
88.6248
88.6804
88.7359
88.7915
88.8471
88.9027
88.9583
89.0139
89.0695
89.1251
89.1807
89.2363
89.2919
89.3475
89.4031
89.4587
89.5143
89.5699
89.6255
89.6811
89.7367
89.7923
89.8479
89.9035
89.9591
90.0147
90.0703
90.1259
90.1815
90.2371
90.2927
90.3483
90.4039
90.4595
90.5151
90.5707
90.6263
90.6819
90.7375
90.7931
90.8487
90.9043
90.9599
91.0155
91.0711
91.1268
91.1824
91.238
91.2936
91.3492
91.4048
91.4604
91.516
91.5716
91.6272
91.6828
91.7384
91.794
91.8497
91.9053
91.9609
92.0165
92.0721
92.1277
92.1833
92.2389
92.2945
92.3502
92.4058
92.4614
92.517
92.5726
92.6282
92.6838
92.7395
92.7951
92.8507
92.9063
92.9619
93.0175
93.0731
93.1288
93.1844
93.24
93.2956
93.3512
93.4069
93.4625
93.5181
93.5737
93.6293
93.6849
93.7406
93.7962
93.8518
93.9074
93.963
94.0187
94.0743
94.1299
94.1855
94.2412
94.2968
94.3524
94.408
94.4636
94.5193
94.5749
94.6305
94.6861
94.7418
94.7974
94.853
94.9086
94.9643
95.0199
95.0755
95.1311
95.1868
95.2424
95.298
95.3537
95.4093
95.4649
95.5205
95.5762
95.6318
95.6874
95.7431
95.7987
95.8543
95.9099
95.9656
96.0212
96.0768
96.1325
96.1881
96.2437
96.2994
96.355
96.4106
96.4663
96.5219
96.5775
96.6332
96.6888
96.7444
96.8001
96.8557
96.9113
96.967
97.0226
97.0783
97.1339
97.1895
97.2452
97.3008
97.3564
97.4121
97.4677
97.5234
97.579
97.6346
97.6903
97.7459
97.8016
97.8572
97.9128
97.9685
98.0241
98.0798
98.1354
98.191
98.2467
98.3023
98.358
98.4136
98.4693
98.5249
98.5806
98.6362
98.6918
98.7475
98.8031
98.8588
98.9144
98.9701
99.0257
99.0814
99.137
99.1927
99.2483
99.304
99.3596
99.4152
99.4709
99.5265
99.5822
99.6378
99.6935
99.7491
99.8048
99.8604
99.9161
99.9717
100.027
100.083
100.139
100.194
100.25
100.306
100.361
100.417
100.473
100.528
100.584
100.64
100.695
100.751
100.807
100.862
100.918
100.974
101.029
101.085
101.14
101.196
101.252
101.307
101.363
101.419
101.474
101.53
101.586
101.641
101.697
101.753
101.808
101.864
101.92
101.975
102.031
102.087
102.142
102.198
102.254
102.309
102.365
102.421
102.476
102.532
102.588
102.643
102.699
102.755
102.81
102.866
102.922
102.977
103.033
103.089
103.144
103.2
103.256
103.311
103.367
103.423
103.478
103.534
103.59
103.645
103.701
103.757
103.812
103.868
103.924
103.979
104.035
104.091
104.146
104.202
104.258
104.313
104.369
104.425
104.48
104.536
104.592
104.647
104.703
104.759
104.814
104.87
104.926
104.982
105.037
105.093
105.149
105.204
105.26
105.316
105.371
105.427
105.483
105.538
105.594
105.65
105.705
105.761
105.817
105.872
105.928
105.984
106.039
106.095
106.151
106.206
106.262
106.318
106.374
106.429
106.485
106.541
106.596
106.652
106.708
106.763
106.819
106.875
106.93
106.986
107.042
107.097
107.153
107.209
107.265
107.32
107.376
107.432
107.487
107.543
107.599
107.654
107.71
107.766
107.821
107.877
107.933
107.988
108.044
108.1
108.156
108.211
108.267
108.323
108.378
108.434
108.49
108.545
108.601
108.657
108.712
108.768
108.824
108.88
108.935
108.991
109.047
109.102
109.158
109.214
109.269
109.325
109.381
109.437
109.492
109.548
109.604
109.659
109.715
109.771
109.826
109.882
109.938
109.994
110.049
110.105
110.161
110.216
110.272
110.328
110.383
110.439
110.495
110.551
110.606
110.662
110.718
110.773
110.829
110.885
110.941
110.996
111.052
111.108
111.163
111.219
111.275
111.33
111.386
111.442
111.498
111.553
111.609
111.665
111.72
111.776
111.832
111.888
111.943
111.999
112.055
112.11
112.166
112.222
112.278
112.333
112.389
112.445
112.5
112.556
112.612
112.668
112.723
112.779
112.835
112.89
112.946
113.002
113.058
113.113
113.169
113.225
113.28
113.336
113.392
113.448
113.503
113.559
113.615
113.671
113.726
113.782
113.838
113.893
113.949
114.005
114.061
114.116
114.172
114.228
114.283
114.339
114.395
114.451
114.506
114.562
114.618
114.674
114.729
114.785
114.841
114.896
114.952
115.008
115.064
115.119
115.175
115.231
115.287
115.342
115.398
115.454
115.509
115.565
115.621
115.677
115.732
115.788
115.844
115.9
115.955
116.011
116.067
116.122
116.178
116.234
116.29
116.345
116.401
116.457
116.513
116.568
116.624
116.68
116.736
116.791
116.847
116.903
116.958
117.014
117.07
117.126
117.181
117.237
117.293
117.349
117.404
117.46
117.516
117.572
117.627
117.683
117.739
117.795
117.85
117.906
117.962
118.018
118.073
118.129
118.185
118.241
118.296
118.352
118.408
118.463
118.519
118.575
118.631
118.686
118.742
118.798
118.854
118.909
118.965
119.021
119.077
119.132
119.188
119.244
119.3
119.355
119.411
119.467
119.523
119.578
119.634
119.69
119.746
119.801
119.857
119.913
119.969
120.024
120.08
120.136
120.192
120.247
120.303
120.359
120.415
120.47
120.526
120.582
120.638
120.693
120.749
120.805
120.861
120.916
120.972
121.028
121.084
121.14
121.195
121.251
121.307
121.363
121.418
121.474
121.53
121.586
121.641
121.697
121.753
121.809
121.864
121.92
121.976
122.032
122.087
122.143
122.199
122.255
122.31
122.366
122.422
122.478
122.534
122.589
122.645
122.701
122.757
122.812
122.868
122.924
122.98
123.035
123.091
123.147
123.203
123.258
123.314
123.37
123.426
123.482
123.537
123.593
123.649
123.705
123.76
123.816
123.872
123.928
123.983
124.039
124.095
124.151
124.207
124.262
124.318
124.374
124.43
124.485
124.541
124.597
124.653
124.709
124.764
124.82
124.876
124.932
124.987
125.043
125.099
125.155
125.211
125.266
125.322
125.378
125.434
125.489
125.545
125.601
125.657
125.713
125.768
125.824
125.88
125.936
125.991
126.047
126.103
126.159
126.215
126.27
126.326
126.382
126.438
126.493
126.549
126.605
126.661
126.717
126.772
126.828
126.884
126.94
126.996
127.051
127.107
127.163
127.219
127.274
127.33
127.386
127.442
127.498
127.553
127.609
127.665
127.721
127.777
127.832
127.888
127.944
128
128.056
128.111
128.167
128.223
128.279
128.334
128.39
128.446
128.502
128.558
128.613
128.669
128.725
128.781
128.837
128.892
128.948
129.004
129.06
129.116
129.171
129.227
129.283
129.339
129.395
129.45
129.506
129.562
129.618
129.674
129.729
129.785
129.841
129.897
129.953
130.008
130.064
130.12
130.176
130.232
130.287
130.343
130.399
130.455
130.511
130.566
130.622
130.678
130.734
130.79
130.845
130.901
130.957
131.013
131.069
131.124
131.18
131.236
131.292
131.348
131.403
131.459
131.515
131.571
131.627
131.683
131.738
131.794
131.85
131.906
131.962
132.017
132.073
132.129
132.185
132.241
132.296
132.352
132.408
132.464
132.52
132.576
132.631
132.687
132.743
132.799
132.855
132.91
132.966
133.022
133.078
133.134
133.189
133.245
133.301
133.357
133.413
133.469
133.524
133.58
133.636
133.692
133.748
133.803
133.859
133.915
133.971
134.027
134.083
134.138
134.194
134.25
134.306
134.362
134.417
134.473
134.529
134.585
134.641
134.697
134.752
134.808
134.864
134.92
134.976
135.032
135.087
135.143
135.199
135.255
135.311
135.366
135.422
135.478
135.534
135.59
135.646
135.701
135.757
135.813
135.869
135.925
135.981
136.036
136.092
136.148
136.204
136.26
136.316
136.371
136.427
136.483
136.539
136.595
136.651
136.706
136.762
136.818
136.874
136.93
136.986
137.041
137.097
137.153
137.209
137.265
137.321
137.376
137.432
137.488
137.544
137.6
137.656
137.711
137.767
137.823
137.879
137.935
137.991
138.046
138.102
138.158
138.214
138.27
138.326
138.382
138.437
138.493
138.549
138.605
138.661
138.717
138.772
138.828
138.884
138.94
138.996
139.052
139.107
139.163
139.219
139.275
139.331
139.387
139.443
139.498
139.554
139.61
139.666
139.722
139.778
139.833
139.889
139.945
140.001
140.057
140.113
140.169
140.224
140.28
140.336
140.392
140.448
140.504
140.559
140.615
140.671
140.727
140.783
140.839
140.895
140.95
141.006
141.062
141.118
141.174
141.23
141.286
141.341
141.397
141.453
141.509
141.565
141.621
141.677
141.732
141.788
141.844
141.9
141.956
142.012
142.068
142.123
142.179
142.235
142.291
142.347
142.403
142.459
142.514
142.57
142.626
142.682
142.738
142.794
142.85
142.905
142.961
143.017
143.073
143.129
143.185
143.241
143.297
143.352
143.408
143.464
143.52
143.576
143.632
143.688
143.743
143.799
143.855
143.911
143.967
144.023
144.079
144.134
144.19
144.246
144.302
144.358
144.414
144.47
144.526
144.581
144.637
144.693
144.749
144.805
144.861
144.917
144.973
145.028
145.084
145.14
145.196
145.252
145.308
145.364
145.42
145.475
145.531
145.587
145.643
145.699
145.755
145.811
145.867
145.922
145.978
146.034
146.09
146.146
146.202
146.258
146.314
146.369
146.425
146.481
146.537
146.593
146.649
146.705
146.761
146.816
146.872
146.928
146.984
147.04
147.096
147.152
147.208
147.263
147.319
147.375
147.431
147.487
147.543
147.599
147.655
147.711
147.766
147.822
147.878
147.934
147.99
148.046
148.102
148.158
148.214
148.269
148.325
148.381
148.437
148.493
148.549
148.605
148.661
148.716
148.772
148.828
148.884
148.94
148.996
149.052
149.108
149.164
149.22
149.275
149.331
149.387
149.443
149.499
149.555
149.611
149.667
149.723
149.778
149.834
149.89
149.946
150.002
150.058
150.114
150.17
150.226
150.281
150.337
150.393
150.449
150.505
150.561
150.617
150.673
150.729
150.785
150.84
150.896
150.952
151.008
151.064
151.12
151.176
151.232
151.288
151.344
151.399
151.455
151.511
151.567
151.623
151.679
151.735
151.791
151.847
151.903
151.958
152.014
152.07
152.126
152.182
152.238
152.294
152.35
152.406
152.462
152.518
152.573
152.629
152.685
152.741
152.797
152.853
152.909
152.965
153.021
153.077
153.132
153.188
153.244
153.3
153.356
153.412
153.468
153.524
153.58
153.636
153.692
153.747
153.803
153.859
153.915
153.971
154.027
154.083
154.139
154.195
154.251
154.307
154.363
154.418
154.474
154.53
154.586
154.642
154.698
154.754
154.81
154.866
154.922
154.978
155.034
155.089
155.145
155.201
155.257
155.313
155.369
155.425
155.481
155.537
155.593
155.649
155.705
155.76
155.816
155.872
155.928
155.984
156.04
156.096
156.152
156.208
156.264
156.32
156.376
156.431
156.487
156.543
156.599
156.655
156.711
156.767
156.823
156.879
156.935
156.991
157.047
157.103
157.159
157.214
157.27
157.326
157.382
157.438
157.494
157.55
157.606
157.662
157.718
157.774
157.83
157.886
157.941
157.997
158.053
158.109
158.165
158.221
158.277
158.333
158.389
158.445
158.501
158.557
158.613
158.669
158.725
158.78
158.836
158.892
158.948
159.004
159.06
159.116
159.172
159.228
159.284
159.34
159.396
159.452
159.508
159.564
159.619
159.675
159.731
159.787
159.843
159.899
159.955
160.011
160.067
160.123
160.179
160.235
160.291
160.347
160.403
160.459
160.514
160.57
160.626
160.682
160.738
160.794
160.85
160.906
160.962
161.018
161.074
161.13
161.186
161.242
161.298
161.354
161.41
161.465
161.521
161.577
161.633
161.689
161.745
161.801
161.857
161.913
161.969
162.025
162.081
162.137
162.193
162.249
162.305
162.361
162.417
162.473
162.528
162.584
162.64
162.696
162.752
162.808
162.864
162.92
162.976
163.032
163.088
163.144
163.2
163.256
163.312
163.368
163.424
163.48
163.536
163.592
163.647
163.703
163.759
163.815
163.871
163.927
163.983
164.039
164.095
164.151
164.207
164.263
164.319
164.375
164.431
164.487
164.543
164.599
164.655
164.711
164.767
164.823
164.878
164.934
164.99
165.046
165.102
165.158
165.214
165.27
165.326
165.382
165.438
165.494
165.55
165.606
165.662
165.718
165.774
165.83
165.886
165.942
165.998
166.054
166.11
166.166
166.222
166.277
166.333
166.389
166.445
166.501
166.557
166.613
166.669
166.725
166.781
166.837
166.893
166.949
167.005
167.061
167.117
167.173
167.229
167.285
167.341
167.397
167.453
167.509
167.565
167.621
167.677
167.733
167.789
167.845
167.901
167.956
168.012
168.068
168.124
168.18
168.236
168.292
168.348
168.404
168.46
168.516
168.572
168.628
168.684
168.74
168.796
168.852
168.908
168.964
169.02
169.076
169.132
169.188
169.244
169.3
169.356
169.412
169.468
169.524
169.58
169.636
169.692
169.748
169.804
169.86
169.916
169.971
170.027
170.083
170.139
170.195
170.251
170.307
170.363
170.419
170.475
170.531
170.587
170.643
170.699
170.755
170.811
170.867
170.923
170.979
171.035
171.091
171.147
171.203
171.259
171.315
171.371
171.427
171.483
171.539
171.595
171.651
171.707
171.763
171.819
171.875
171.931
171.987
172.043
172.099
172.155
172.211
172.267
172.323
172.379
172.435
172.491
172.547
172.603
172.659
172.715
172.771
172.827
172.883
172.939
172.994
173.05
173.106
173.162
173.218
173.274
173.33
173.386
173.442
173.498
173.554
173.61
173.666
173.722
173.778
173.834
173.89
173.946
174.002
174.058
174.114
174.17
174.226
174.282
174.338
174.394
174.45
174.506
174.562
174.618
174.674
174.73
174.786
174.842
174.898
174.954
175.01
175.066
175.122
175.178
175.234
175.29
175.346
175.402
175.458
175.514
175.57
175.626
175.682
175.738
175.794
175.85
175.906
175.962
176.018
176.074
176.13
176.186
176.242
176.298
176.354
176.41
176.466
176.522
176.578
176.634
176.69
176.746
176.802
176.858
176.914
176.97
177.026
177.082
177.138
177.194
177.25
177.306
177.362
177.418
177.474
177.53
177.586
177.642
177.698
177.754
177.81
177.866
177.922
177.978
178.034
178.09
178.146
178.202
178.258
178.314
178.37
178.426
178.482
178.538
178.594
178.65
178.706
178.762
178.818
178.874
178.93
178.986
179.042
179.098
179.154
179.21
179.266
179.322
179.378
179.434
179.49
179.546
179.602
179.658
179.714
179.77
179.826
179.882
179.938
179.994
180.05
180.106
180.162
180.218
180.274
180.33
180.386
180.442
180.498
180.554
180.61
180.666
180.722
180.778
180.834
180.89
180.946
181.002
181.058
181.114
181.17
181.226
181.282
181.338
181.394
181.45
181.506
181.562
181.618
181.674
181.73
181.786
181.842
181.898
181.955
182.011
182.067
182.123
182.179
182.235
182.291
182.347
182.403
182.459
182.515
182.571
182.627
182.683
182.739
182.795
182.851
182.907
182.963
183.019
183.075
183.131
183.187
183.243
183.299
183.355
183.411
183.467
183.523
183.579
183.635
183.691
183.747
183.803
183.859
183.915
183.971
184.027
184.083
184.139
184.195
184.251
184.307
184.363
184.419
184.475
184.531
184.587
184.643
184.699
184.755
184.811
184.867
184.923
184.979
185.035
185.091
185.147
185.203
185.259
185.315
185.371
185.427
185.483
185.539
185.595
185.652
185.708
185.764
185.82
185.876
185.932
185.988
186.044
186.1
186.156
186.212
186.268
186.324
186.38
186.436
186.492
186.548
186.604
186.66
186.716
186.772
186.828
186.884
186.94
186.996
187.052
187.108
187.164
187.22
187.276
187.332
187.388
187.444
187.5
187.556
187.612
187.668
187.724
187.78
187.836
187.892
187.948
188.004
188.06
188.116
188.172
188.228
188.284
188.34
188.397
188.453
188.509
188.565
188.621
188.677
188.733
188.789
188.845
188.901
188.957
189.013
189.069
189.125
189.181
189.237
189.293
189.349
189.405
189.461
189.517
189.573
189.629
189.685
189.741
189.797
189.853
189.909
189.965
190.021
190.077
190.133
190.189
190.245
190.301
190.357
190.413
190.469
190.525
190.581
190.637
190.693
190.749
190.805
190.862
190.918
190.974
191.03
191.086
191.142
191.198
191.254
191.31
191.366
191.422
191.478
191.534
191.59
191.646
191.702
191.758
191.814
191.87
191.926
191.982
192.038
192.094
192.15
192.206
192.262
192.318
192.374
192.43
192.486
192.542
192.598
192.654
192.71
192.766
192.822
192.878
192.934
192.99
193.046
193.102
193.158
193.215
193.271
193.327
193.383
193.439
193.495
193.551
193.607
193.663
193.719
193.775
193.831
193.887
193.943
193.999
194.055
194.111
194.167
194.223
194.279
194.335
194.391
194.447
194.503
194.559
194.615
194.671
194.727
194.783
194.839
194.895
194.951
195.007
195.063
195.119
195.175
195.231
195.287
195.343
195.399
195.455
195.511
195.567
195.623
195.679
195.736
195.792
195.848
195.904
195.96
196.016
196.072
196.128
196.184
196.24
196.296
196.352
196.408
196.464
196.52
196.576
196.632
196.688
196.744
196.8
196.856
196.912
196.968
197.024
197.08
197.136
197.192
197.248
197.304
197.36
197.416
197.472
197.528
197.584
197.64
197.696
197.752
197.808
197.864
197.92
197.976
198.032
198.088
198.144
198.2
198.256
198.312
198.368
198.424
198.48
198.536
198.592
198.648
198.704
198.76
198.817
198.873
198.929
198.985
199.041
199.097
199.153
199.209
199.265
199.321
199.377
199.433
199.489
199.545
199.601
199.657
199.713
199.769
199.825
199.881
199.937
199.993
200.049
200.105
200.161
200.217
200.273
200.329
200.385
200.441
200.497
200.553
200.609
200.665
200.721
200.777
200.833
200.889
200.945
201.001
201.057
201.113
201.169
201.225
201.281
201.337
201.393
201.449
201.505
201.561
201.617
201.673
201.729
201.785
201.841
201.897
201.953
202.009
202.065
202.121
202.177
202.233
202.289
202.345
202.401
202.457
202.513
202.569
202.625
202.681
202.737
202.793
202.849
202.905
202.961
203.017
203.073
203.129
203.185
203.241
203.297
203.353
203.409
203.465
203.521
203.577
203.633
203.689
203.745
203.801
203.857
203.913
203.969
204.025
204.081
204.137
204.193
204.249
204.305
204.361
204.417
204.473
204.529
204.585
204.641
204.697
204.753
204.809
204.865
204.921
204.977
205.033
205.089
205.145
205.201
205.257
205.313
205.369
205.425
205.481
205.537
205.593
205.649
205.705
205.761
205.817
205.872
205.928
205.984
206.04
206.096
206.152
206.208
206.264
206.32
206.376
206.432
206.488
206.544
206.6
206.656
206.712
206.768
206.824
206.88
206.936
206.992
207.048
207.104
207.16
207.216
207.272
207.328
207.384
207.44
207.496
207.552
207.608
207.664
207.72
207.776
207.831
207.887
207.943
207.999
208.055
208.111
208.167
208.223
208.279
208.335
208.391
208.447
208.503
208.559
208.615
208.671
208.727
208.783
208.839
208.895
208.951
209.007
209.062
209.118
209.174
209.23
209.286
209.342
209.398
209.454
209.51
209.566
209.622
209.678
209.734
209.79