/*--------------------------------*- C++ -*----------------------------------*\
  =========                 |
  \\      /  F ield         | OpenFOAM: The Open Source CFD Toolbox
   \\    /   O peration     | Website:  https://openfoam.org
    \\  /    A nd           | Version:  9
     \\/     M anipulation  |
\*---------------------------------------------------------------------------*/
FoamFile
{
    format      ascii;
    class       volScalarField;
    location    "0.025";
    object      p;
}
// * * * * * * * * * * * * * * * * * * * * * * * * * * * * * * * * * * * * * //

dimensions      [1 -1 -2 0 0 0 0];

internalField   nonuniform List<scalar> 
10000
(
26642.7
26642.6
26642.4
26642.2
26642.1
26641.9
26641.8
26641.6
26641.4
26641.3
26641.1
26641
26640.8
26640.7
26640.5
26640.3
26640.2
26640
26639.9
26639.7
26639.6
26639.4
26639.2
26639.1
26638.9
26638.8
26638.6
26638.4
26638.3
26638.1
26638
26637.8
26637.7
26637.5
26637.3
26637.2
26637
26636.9
26636.7
26636.5
26636.4
26636.2
26636.1
26635.9
26635.7
26635.6
26635.4
26635.2
26635.1
26634.9
26634.8
26634.6
26634.4
26634.3
26634.1
26634
26633.8
26633.6
26633.5
26633.3
26633.1
26633
26632.8
26632.7
26632.5
26632.3
26632.2
26632
26631.8
26631.7
26631.5
26631.3
26631.2
26631
26630.9
26630.7
26630.5
26630.4
26630.2
26630
26629.9
26629.7
26629.5
26629.4
26629.2
26629
26628.9
26628.7
26628.5
26628.4
26628.2
26628
26627.9
26627.7
26627.5
26627.4
26627.2
26627
26626.9
26626.7
26626.5
26626.4
26626.2
26626
26625.9
26625.7
26625.5
26625.4
26625.2
26625
26624.9
26624.7
26624.5
26624.4
26624.2
26624
26623.8
26623.7
26623.5
26623.3
26623.2
26623
26622.8
26622.7
26622.5
26622.3
26622.1
26622
26621.8
26621.6
26621.5
26621.3
26621.1
26620.9
26620.8
26620.6
26620.4
26620.3
26620.1
26619.9
26619.7
26619.6
26619.4
26619.2
26619.1
26618.9
26618.7
26618.5
26618.4
26618.2
26618
26617.8
26617.7
26617.5
26617.3
26617.1
26617
26616.8
26616.6
26616.4
26616.3
26616.1
26615.9
26615.8
26615.6
26615.4
26615.2
26615
26614.9
26614.7
26614.5
26614.3
26614.2
26614
26613.8
26613.6
26613.5
26613.3
26613.1
26612.9
26612.8
26612.6
26612.4
26612.2
26612
26611.9
26611.7
26611.5
26611.3
26611.2
26611
26610.8
26610.6
26610.4
26610.3
26610.1
26609.9
26609.7
26609.6
26609.4
26609.2
26609
26608.8
26608.7
26608.5
26608.3
26608.1
26607.9
26607.8
26607.6
26607.4
26607.2
26607
26606.9
26606.7
26606.5
26606.3
26606.1
26605.9
26605.8
26605.6
26605.4
26605.2
26605
26604.9
26604.7
26604.5
26604.3
26604.1
26603.9
26603.8
26603.6
26603.4
26603.2
26603
26602.8
26602.7
26602.5
26602.3
26602.1
26601.9
26601.7
26601.6
26601.4
26601.2
26601
26600.8
26600.6
26600.4
26600.3
26600.1
26599.9
26599.7
26599.5
26599.3
26599.1
26599
26598.8
26598.6
26598.4
26598.2
26598
26597.8
26597.7
26597.5
26597.3
26597.1
26596.9
26596.7
26596.5
26596.3
26596.2
26596
26595.8
26595.6
26595.4
26595.2
26595
26594.8
26594.6
26594.5
26594.3
26594.1
26593.9
26593.7
26593.5
26593.3
26593.1
26592.9
26592.7
26592.6
26592.4
26592.2
26592
26591.8
26591.6
26591.4
26591.2
26591
26590.8
26590.6
26590.5
26590.3
26590.1
26589.9
26589.7
26589.5
26589.3
26589.1
26588.9
26588.7
26588.5
26588.3
26588.1
26588
26587.8
26587.6
26587.4
26587.2
26587
26586.8
26586.6
26586.4
26586.2
26586
26585.8
26585.6
26585.4
26585.2
26585
26584.8
26584.7
26584.5
26584.3
26584.1
26583.9
26583.7
26583.5
26583.3
26583.1
26582.9
26582.7
26582.5
26582.3
26582.1
26581.9
26581.7
26581.5
26581.3
26581.1
26580.9
26580.7
26580.5
26580.3
26580.1
26579.9
26579.7
26579.5
26579.3
26579.1
26578.9
26578.7
26578.5
26578.3
26578.1
26577.9
26577.7
26577.5
26577.3
26577.1
26576.9
26576.7
26576.5
26576.3
26576.1
26575.9
26575.7
26575.5
26575.3
26575.1
26574.9
26574.7
26574.5
26574.3
26574.1
26573.9
26573.7
26573.5
26573.3
26573.1
26572.9
26572.7
26572.5
26572.3
26572.1
26571.9
26571.7
26571.5
26571.3
26571.1
26570.9
26570.7
26570.5
26570.3
26570.1
26569.9
26569.7
26569.5
26569.3
26569.1
26568.9
26568.6
26568.4
26568.2
26568
26567.8
26567.6
26567.4
26567.2
26567
26566.8
26566.6
26566.4
26566.2
26566
26565.8
26565.6
26565.4
26565.1
26564.9
26564.7
26564.5
26564.3
26564.1
26563.9
26563.7
26563.5
26563.3
26563.1
26562.9
26562.7
26562.4
26562.2
26562
26561.8
26561.6
26561.4
26561.2
26561
26560.8
26560.6
26560.3
26560.1
26559.9
26559.7
26559.5
26559.3
26559.1
26558.9
26558.7
26558.5
26558.2
26558
26557.8
26557.6
26557.4
26557.2
26557
26556.8
26556.6
26556.3
26556.1
26555.9
26555.7
26555.5
26555.3
26555.1
26554.9
26554.6
26554.4
26554.2
26554
26553.8
26553.6
26553.4
26553.1
26552.9
26552.7
26552.5
26552.3
26552.1
26551.9
26551.6
26551.4
26551.2
26551
26550.8
26550.6
26550.4
26550.1
26549.9
26549.7
26549.5
26549.3
26549.1
26548.8
26548.6
26548.4
26548.2
26548
26547.8
26547.5
26547.3
26547.1
26546.9
26546.7
26546.5
26546.2
26546
26545.8
26545.6
26545.4
26545.1
26544.9
26544.7
26544.5
26544.3
26544
26543.8
26543.6
26543.4
26543.2
26543
26542.7
26542.5
26542.3
26542.1
26541.9
26541.6
26541.4
26541.2
26541
26540.7
26540.5
26540.3
26540.1
26539.9
26539.6
26539.4
26539.2
26539
26538.8
26538.5
26538.3
26538.1
26537.9
26537.6
26537.4
26537.2
26537
26536.8
26536.5
26536.3
26536.1
26535.9
26535.6
26535.4
26535.2
26535
26534.7
26534.5
26534.3
26534.1
26533.8
26533.6
26533.4
26533.2
26532.9
26532.7
26532.5
26532.3
26532
26531.8
26531.6
26531.4
26531.1
26530.9
26530.7
26530.5
26530.2
26530
26529.8
26529.5
26529.3
26529.1
26528.9
26528.6
26528.4
26528.2
26528
26527.7
26527.5
26527.3
26527
26526.8
26526.6
26526.4
26526.1
26525.9
26525.7
26525.4
26525.2
26525
26524.7
26524.5
26524.3
26524.1
26523.8
26523.6
26523.4
26523.1
26522.9
26522.7
26522.4
26522.2
26522
26521.8
26521.5
26521.3
26521.1
26520.8
26520.6
26520.4
26520.1
26519.9
26519.7
26519.4
26519.2
26519
26518.7
26518.5
26518.3
26518
26517.8
26517.6
26517.3
26517.1
26516.9
26516.6
26516.4
26516.2
26515.9
26515.7
26515.5
26515.2
26515
26514.8
26514.5
26514.3
26514.1
26513.8
26513.6
26513.3
26513.1
26512.9
26512.6
26512.4
26512.2
26511.9
26511.7
26511.5
26511.2
26511
26510.7
26510.5
26510.3
26510
26509.8
26509.6
26509.3
26509.1
26508.8
26508.6
26508.4
26508.1
26507.9
26507.7
26507.4
26507.2
26506.9
26506.7
26506.5
26506.2
26506
26505.7
26505.5
26505.3
26505
26504.8
26504.5
26504.3
26504.1
26503.8
26503.6
26503.3
26503.1
26502.9
26502.6
26502.4
26502.1
26501.9
26501.6
26501.4
26501.2
26500.9
26500.7
26500.4
26500.2
26500
26499.7
26499.5
26499.2
26499
26498.7
26498.5
26498.2
26498
26497.8
26497.5
26497.3
26497
26496.8
26496.5
26496.3
26496.1
26495.8
26495.6
26495.3
26495.1
26494.8
26494.6
26494.3
26494.1
26493.8
26493.6
26493.4
26493.1
26492.9
26492.6
26492.4
26492.1
26491.9
26491.6
26491.4
26491.1
26490.9
26490.6
26490.4
26490.1
26489.9
26489.6
26489.4
26489.2
26488.9
26488.7
26488.4
26488.2
26487.9
26487.7
26487.4
26487.2
26486.9
26486.7
26486.4
26486.2
26485.9
26485.7
26485.4
26485.2
26484.9
26484.7
26484.4
26484.2
26483.9
26483.7
26483.4
26483.2
26482.9
26482.7
26482.4
26482.2
26481.9
26481.7
26481.4
26481.2
26480.9
26480.6
26480.4
26480.1
26479.9
26479.6
26479.4
26479.1
26478.9
26478.6
26478.4
26478.1
26477.9
26477.6
26477.4
26477.1
26476.8
26476.6
26476.3
26476.1
26475.8
26475.6
26475.3
26475.1
26474.8
26474.6
26474.3
26474
26473.8
26473.5
26473.3
26473
26472.8
26472.5
26472.3
26472
26471.7
26471.5
26471.2
26471
26470.7
26470.5
26470.2
26469.9
26469.7
26469.4
26469.2
26468.9
26468.7
26468.4
26468.1
26467.9
26467.6
26467.4
26467.1
26466.8
26466.6
26466.3
26466.1
26465.8
26465.5
26465.3
26465
26464.8
26464.5
26464.2
26464
26463.7
26463.5
26463.2
26462.9
26462.7
26462.4
26462.2
26461.9
26461.6
26461.4
26461.1
26460.8
26460.6
26460.3
26460.1
26459.8
26459.5
26459.3
26459
26458.8
26458.5
26458.2
26458
26457.7
26457.4
26457.2
26456.9
26456.6
26456.4
26456.1
26455.9
26455.6
26455.3
26455.1
26454.8
26454.5
26454.3
26454
26453.7
26453.5
26453.2
26452.9
26452.7
26452.4
26452.1
26451.9
26451.6
26451.3
26451.1
26450.8
26450.5
26450.3
26450
26449.7
26449.5
26449.2
26448.9
26448.7
26448.4
26448.1
26447.9
26447.6
26447.3
26447.1
26446.8
26446.5
26446.3
26446
26445.7
26445.4
26445.2
26444.9
26444.6
26444.4
26444.1
26443.8
26443.6
26443.3
26443
26442.8
26442.5
26442.2
26441.9
26441.7
26441.4
26441.1
26440.9
26440.6
26440.3
26440
26439.8
26439.5
26439.2
26439
26438.7
26438.4
26438.1
26437.9
26437.6
26437.3
26437
26436.8
26436.5
26436.2
26436
26435.7
26435.4
26435.1
26434.9
26434.6
26434.3
26434
26433.8
26433.5
26433.2
26432.9
26432.7
26432.4
26432.1
26431.8
26431.6
26431.3
26431
26430.7
26430.5
26430.2
26429.9
26429.6
26429.4
26429.1
26428.8
26428.5
26428.2
26428
26427.7
26427.4
26427.1
26426.9
26426.6
26426.3
26426
26425.7
26425.5
26425.2
26424.9
26424.6
26424.4
26424.1
26423.8
26423.5
26423.2
26423
26422.7
26422.4
26422.1
26421.8
26421.6
26421.3
26421
26420.7
26420.4
26420.2
26419.9
26419.6
26419.3
26419
26418.8
26418.5
26418.2
26417.9
26417.6
26417.3
26417.1
26416.8
26416.5
26416.2
26415.9
26415.7
26415.4
26415.1
26414.8
26414.5
26414.2
26414
26413.7
26413.4
26413.1
26412.8
26412.5
26412.2
26412
26411.7
26411.4
26411.1
26410.8
26410.5
26410.3
26410
26409.7
26409.4
26409.1
26408.8
26408.5
26408.3
26408
26407.7
26407.4
26407.1
26406.8
26406.5
26406.3
26406
26405.7
26405.4
26405.1
26404.8
26404.5
26404.2
26404
26403.7
26403.4
26403.1
26402.8
26402.5
26402.2
26401.9
26401.6
26401.4
26401.1
26400.8
26400.5
26400.2
26399.9
26399.6
26399.3
26399
26398.8
26398.5
26398.2
26397.9
26397.6
26397.3
26397
26396.7
26396.4
26396.1
26395.8
26395.6
26395.3
26395
26394.7
26394.4
26394.1
26393.8
26393.5
26393.2
26392.9
26392.6
26392.3
26392
26391.8
26391.5
26391.2
26390.9
26390.6
26390.3
26390
26389.7
26389.4
26389.1
26388.8
26388.5
26388.2
26387.9
26387.6
26387.3
26387
26386.7
26386.5
26386.2
26385.9
26385.6
26385.3
26385
26384.7
26384.4
26384.1
26383.8
26383.5
26383.2
26382.9
26382.6
26382.3
26382
26381.7
26381.4
26381.1
26380.8
26380.5
26380.2
26379.9
26379.6
26379.3
26379
26378.7
26378.4
26378.1
26377.8
26377.5
26377.2
26376.9
26376.6
26376.3
26376
26375.7
26375.4
26375.1
26374.8
26374.5
26374.2
26373.9
26373.6
26373.3
26373
26372.7
26372.4
26372.1
26371.8
26371.5
26371.2
26370.9
26370.6
26370.3
26370
26369.7
26369.4
26369.1
26368.8
26368.5
26368.2
26367.9
26367.6
26367.3
26367
26366.7
26366.4
26366.1
26365.8
26365.5
26365.2
26364.8
26364.5
26364.2
26363.9
26363.6
26363.3
26363
26362.7
26362.4
26362.1
26361.8
26361.5
26361.2
26360.9
26360.6
26360.3
26360
26359.7
26359.3
26359
26358.7
26358.4
26358.1
26357.8
26357.5
26357.2
26356.9
26356.6
26356.3
26356
26355.7
26355.3
26355
26354.7
26354.4
26354.1
26353.8
26353.5
26353.2
26352.9
26352.6
26352.3
26351.9
26351.6
26351.3
26351
26350.7
26350.4
26350.1
26349.8
26349.5
26349.1
26348.8
26348.5
26348.2
26347.9
26347.6
26347.3
26347
26346.7
26346.3
26346
26345.7
26345.4
26345.1
26344.8
26344.5
26344.2
26343.8
26343.5
26343.2
26342.9
26342.6
26342.3
26342
26341.6
26341.3
26341
26340.7
26340.4
26340.1
26339.8
26339.4
26339.1
26338.8
26338.5
26338.2
26337.9
26337.5
26337.2
26336.9
26336.6
26336.3
26336
26335.7
26335.3
26335
26334.7
26334.4
26334.1
26333.7
26333.4
26333.1
26332.8
26332.5
26332.2
26331.8
26331.5
26331.2
26330.9
26330.6
26330.2
26329.9
26329.6
26329.3
26329
26328.7
26328.3
26328
26327.7
26327.4
26327.1
26326.7
26326.4
26326.1
26325.8
26325.5
26325.1
26324.8
26324.5
26324.2
26323.8
26323.5
26323.2
26322.9
26322.6
26322.2
26321.9
26321.6
26321.3
26321
26320.6
26320.3
26320
26319.7
26319.3
26319
26318.7
26318.4
26318
26317.7
26317.4
26317.1
26316.7
26316.4
26316.1
26315.8
26315.4
26315.1
26314.8
26314.5
26314.1
26313.8
26313.5
26313.2
26312.8
26312.5
26312.2
26311.9
26311.5
26311.2
26310.9
26310.6
26310.2
26309.9
26309.6
26309.3
26308.9
26308.6
26308.3
26307.9
26307.6
26307.3
26307
26306.6
26306.3
26306
26305.7
26305.3
26305
26304.7
26304.3
26304
26303.7
26303.3
26303
26302.7
26302.4
26302
26301.7
26301.4
26301
26300.7
26300.4
26300
26299.7
26299.4
26299.1
26298.7
26298.4
26298.1
26297.7
26297.4
26297.1
26296.7
26296.4
26296.1
26295.7
26295.4
26295.1
26294.7
26294.4
26294.1
26293.7
26293.4
26293.1
26292.7
26292.4
26292.1
26291.7
26291.4
26291.1
26290.7
26290.4
26290.1
26289.7
26289.4
26289.1
26288.7
26288.4
26288.1
26287.7
26287.4
26287
26286.7
26286.4
26286
26285.7
26285.4
26285
26284.7
26284.4
26284
26283.7
26283.3
26283
26282.7
26282.3
26282
26281.7
26281.3
26281
26280.6
26280.3
26280
26279.6
26279.3
26279
26278.6
26278.3
26277.9
26277.6
26277.3
26276.9
26276.6
26276.2
26275.9
26275.6
26275.2
26274.9
26274.5
26274.2
26273.9
26273.5
26273.2
26272.8
26272.5
26272.2
26271.8
26271.5
26271.1
26270.8
26270.4
26270.1
26269.8
26269.4
26269.1
26268.7
26268.4
26268
26267.7
26267.4
26267
26266.7
26266.3
26266
26265.6
26265.3
26265
26264.6
26264.3
26263.9
26263.6
26263.2
26262.9
26262.5
26262.2
26261.9
26261.5
26261.2
26260.8
26260.5
26260.1
26259.8
26259.4
26259.1
26258.7
26258.4
26258
26257.7
26257.4
26257
26256.7
26256.3
26256
26255.6
26255.3
26254.9
26254.6
26254.2
26253.9
26253.5
26253.2
26252.8
26252.5
26252.1
26251.8
26251.4
26251.1
26250.7
26250.4
26250
26249.7
26249.3
26249
26248.6
26248.3
26247.9
26247.6
26247.2
26246.9
26246.5
26246.2
26245.8
26245.5
26245.1
26244.8
26244.4
26244.1
26243.7
26243.4
26243
26242.7
26242.3
26242
26241.6
26241.3
26240.9
26240.5
26240.2
26239.8
26239.5
26239.1
26238.8
26238.4
26238.1
26237.7
26237.4
26237
26236.7
26236.3
26235.9
26235.6
26235.2
26234.9
26234.5
26234.2
26233.8
26233.5
26233.1
26232.7
26232.4
26232
26231.7
26231.3
26231
26230.6
26230.2
26229.9
26229.5
26229.2
26228.8
26228.5
26228.1
26227.7
26227.4
26227
26226.7
26226.3
26226
26225.6
26225.2
26224.9
26224.5
26224.2
26223.8
26223.4
26223.1
26222.7
26222.4
26222
26221.6
26221.3
26220.9
26220.6
26220.2
26219.8
26219.5
26219.1
26218.8
26218.4
26218
26217.7
26217.3
26217
26216.6
26216.2
26215.9
26215.5
26215.1
26214.8
26214.4
26214.1
26213.7
26213.3
26213
26212.6
26212.2
26211.9
26211.5
26211.1
26210.8
26210.4
26210.1
26209.7
26209.3
26209
26208.6
26208.2
26207.9
26207.5
26207.1
26206.8
26206.4
26206
26205.7
26205.3
26204.9
26204.6
26204.2
26203.8
26203.5
26203.1
26202.7
26202.4
26202
26201.6
26201.3
26200.9
26200.5
26200.2
26199.8
26199.4
26199.1
26198.7
26198.3
26198
26197.6
26197.2
26196.9
26196.5
26196.1
26195.8
26195.4
26195
26194.6
26194.3
26193.9
26193.5
26193.2
26192.8
26192.4
26192.1
26191.7
26191.3
26190.9
26190.6
26190.2
26189.8
26189.5
26189.1
26188.7
26188.3
26188
26187.6
26187.2
26186.8
26186.5
26186.1
26185.7
26185.4
26185
26184.6
26184.2
26183.9
26183.5
26183.1
26182.7
26182.4
26182
26181.6
26181.2
26180.9
26180.5
26180.1
26179.7
26179.4
26179
26178.6
26178.2
26177.9
26177.5
26177.1
26176.7
26176.4
26176
26175.6
26175.2
26174.9
26174.5
26174.1
26173.7
26173.4
26173
26172.6
26172.2
26171.8
26171.5
26171.1
26170.7
26170.3
26170
26169.6
26169.2
26168.8
26168.4
26168.1
26167.7
26167.3
26166.9
26166.5
26166.2
26165.8
26165.4
26165
26164.6
26164.3
26163.9
26163.5
26163.1
26162.7
26162.4
26162
26161.6
26161.2
26160.8
26160.5
26160.1
26159.7
26159.3
26158.9
26158.5
26158.2
26157.8
26157.4
26157
26156.6
26156.3
26155.9
26155.5
26155.1
26154.7
26154.3
26154
26153.6
26153.2
26152.8
26152.4
26152
26151.6
26151.3
26150.9
26150.5
26150.1
26149.7
26149.3
26149
26148.6
26148.2
26147.8
26147.4
26147
26146.6
26146.3
26145.9
26145.5
26145.1
26144.7
26144.3
26143.9
26143.5
26143.2
26142.8
26142.4
26142
26141.6
26141.2
26140.8
26140.4
26140.1
26139.7
26139.3
26138.9
26138.5
26138.1
26137.7
26137.3
26136.9
26136.6
26136.2
26135.8
26135.4
26135
26134.6
26134.2
26133.8
26133.4
26133
26132.6
26132.3
26131.9
26131.5
26131.1
26130.7
26130.3
26129.9
26129.5
26129.1
26128.7
26128.3
26127.9
26127.6
26127.2
26126.8
26126.4
26126
26125.6
26125.2
26124.8
26124.4
26124
26123.6
26123.2
26122.8
26122.4
26122
26121.6
26121.3
26120.9
26120.5
26120.1
26119.7
26119.3
26118.9
26118.5
26118.1
26117.7
26117.3
26116.9
26116.5
26116.1
26115.7
26115.3
26114.9
26114.5
26114.1
26113.7
26113.3
26112.9
26112.5
26112.1
26111.7
26111.3
26110.9
26110.5
26110.1
26109.8
26109.4
26109
26108.6
26108.2
26107.8
26107.4
26107
26106.6
26106.2
26105.8
26105.4
26105
26104.6
26104.2
26103.8
26103.4
26103
26102.6
26102.2
26101.8
26101.4
26101
26100.5
26100.1
26099.7
26099.3
26098.9
26098.5
26098.1
26097.7
26097.3
26096.9
26096.5
26096.1
26095.7
26095.3
26094.9
26094.5
26094.1
26093.7
26093.3
26092.9
26092.5
26092.1
26091.7
26091.3
26090.9
26090.5
26090.1
26089.7
26089.3
26088.8
26088.4
26088
26087.6
26087.2
26086.8
26086.4
26086
26085.6
26085.2
26084.8
26084.4
26084
26083.6
26083.2
26082.8
26082.3
26081.9
26081.5
26081.1
26080.7
26080.3
26079.9
26079.5
26079.1
26078.7
26078.3
26077.9
26077.4
26077
26076.6
26076.2
26075.8
26075.4
26075
26074.6
26074.2
26073.8
26073.3
26072.9
26072.5
26072.1
26071.7
26071.3
26070.9
26070.5
26070.1
26069.7
26069.2
26068.8
26068.4
26068
26067.6
26067.2
26066.8
26066.4
26065.9
26065.5
26065.1
26064.7
26064.3
26063.9
26063.5
26063
26062.6
26062.2
26061.8
26061.4
26061
26060.6
26060.2
26059.7
26059.3
26058.9
26058.5
26058.1
26057.7
26057.2
26056.8
26056.4
26056
26055.6
26055.2
26054.7
26054.3
26053.9
26053.5
26053.1
26052.7
26052.2
26051.8
26051.4
26051
26050.6
26050.2
26049.7
26049.3
26048.9
26048.5
26048.1
26047.7
26047.2
26046.8
26046.4
26046
26045.6
26045.1
26044.7
26044.3
26043.9
26043.5
26043
26042.6
26042.2
26041.8
26041.4
26040.9
26040.5
26040.1
26039.7
26039.3
26038.8
26038.4
26038
26037.6
26037.2
26036.7
26036.3
26035.9
26035.5
26035
26034.6
26034.2
26033.8
26033.3
26032.9
26032.5
26032.1
26031.7
26031.2
26030.8
26030.4
26030
26029.5
26029.1
26028.7
26028.3
26027.8
26027.4
26027
26026.6
26026.1
26025.7
26025.3
26024.9
26024.4
26024
26023.6
26023.2
26022.7
26022.3
26021.9
26021.5
26021
26020.6
26020.2
26019.7
26019.3
26018.9
26018.5
26018
26017.6
26017.2
26016.8
26016.3
26015.9
26015.5
26015
26014.6
26014.2
26013.8
26013.3
26012.9
26012.5
26012
26011.6
26011.2
26010.7
26010.3
26009.9
26009.5
26009
26008.6
26008.2
26007.7
26007.3
26006.9
26006.4
26006
26005.6
26005.1
26004.7
26004.3
26003.9
26003.4
26003
26002.6
26002.1
26001.7
26001.3
26000.8
26000.4
26000
25999.5
25999.1
25998.7
25998.2
25997.8
25997.4
25996.9
25996.5
25996.1
25995.6
25995.2
25994.7
25994.3
25993.9
25993.4
25993
25992.6
25992.1
25991.7
25991.3
25990.8
25990.4
25990
25989.5
25989.1
25988.6
25988.2
25987.8
25987.3
25986.9
25986.5
25986
25985.6
25985.2
25984.7
25984.3
25983.8
25983.4
25983
25982.5
25982.1
25981.6
25981.2
25980.8
25980.3
25979.9
25979.5
25979
25978.6
25978.1
25977.7
25977.3
25976.8
25976.4
25975.9
25975.5
25975.1
25974.6
25974.2
25973.7
25973.3
25972.8
25972.4
25972
25971.5
25971.1
25970.6
25970.2
25969.8
25969.3
25968.9
25968.4
25968
25967.5
25967.1
25966.7
25966.2
25965.8
25965.3
25964.9
25964.4
25964
25963.5
25963.1
25962.7
25962.2
25961.8
25961.3
25960.9
25960.4
25960
25959.5
25959.1
25958.7
25958.2
25957.8
25957.3
25956.9
25956.4
25956
25955.5
25955.1
25954.6
25954.2
25953.7
25953.3
25952.9
25952.4
25952
25951.5
25951.1
25950.6
25950.2
25949.7
25949.3
25948.8
25948.4
25947.9
25947.5
25947
25946.6
25946.1
25945.7
25945.2
25944.8
25944.3
25943.9
25943.4
25943
25942.5
25942.1
25941.6
25941.2
25940.7
25940.3
25939.8
25939.4
25938.9
25938.5
25938
25937.6
25937.1
25936.7
25936.2
25935.8
25935.3
25934.9
25934.4
25934
25933.5
25933
25932.6
25932.1
25931.7
25931.2
25930.8
25930.3
25929.9
25929.4
25929
25928.5
25928.1
25927.6
25927.1
25926.7
25926.2
25925.8
25925.3
25924.9
25924.4
25924
25923.5
25923
25922.6
25922.1
25921.7
25921.2
25920.8
25920.3
25919.9
25919.4
25918.9
25918.5
25918
25917.6
25917.1
25916.6
25916.2
25915.7
25915.3
25914.8
25914.4
25913.9
25913.4
25913
25912.5
25912.1
25911.6
25911.1
25910.7
25910.2
25909.8
25909.3
25908.8
25908.4
25907.9
25907.5
25907
25906.5
25906.1
25905.6
25905.2
25904.7
25904.2
25903.8
25903.3
25902.9
25902.4
25901.9
25901.5
25901
25900.5
25900.1
25899.6
25899.2
25898.7
25898.2
25897.8
25897.3
25896.8
25896.4
25895.9
25895.5
25895
25894.5
25894.1
25893.6
25893.1
25892.7
25892.2
25891.7
25891.3
25890.8
25890.3
25889.9
25889.4
25888.9
25888.5
25888
25887.6
25887.1
25886.6
25886.2
25885.7
25885.2
25884.8
25884.3
25883.8
25883.4
25882.9
25882.4
25881.9
25881.5
25881
25880.5
25880.1
25879.6
25879.1
25878.7
25878.2
25877.7
25877.3
25876.8
25876.3
25875.9
25875.4
25874.9
25874.5
25874
25873.5
25873
25872.6
25872.1
25871.6
25871.2
25870.7
25870.2
25869.7
25869.3
25868.8
25868.3
25867.9
25867.4
25866.9
25866.4
25866
25865.5
25865
25864.6
25864.1
25863.6
25863.1
25862.7
25862.2
25861.7
25861.2
25860.8
25860.3
25859.8
25859.4
25858.9
25858.4
25857.9
25857.5
25857
25856.5
25856
25855.6
25855.1
25854.6
25854.1
25853.7
25853.2
25852.7
25852.2
25851.8
25851.3
25850.8
25850.3
25849.9
25849.4
25848.9
25848.4
25847.9
25847.5
25847
25846.5
25846
25845.6
25845.1
25844.6
25844.1
25843.6
25843.2
25842.7
25842.2
25841.7
25841.3
25840.8
25840.3
25839.8
25839.3
25838.9
25838.4
25837.9
25837.4
25836.9
25836.5
25836
25835.5
25835
25834.5
25834.1
25833.6
25833.1
25832.6
25832.1
25831.7
25831.2
25830.7
25830.2
25829.7
25829.2
25828.8
25828.3
25827.8
25827.3
25826.8
25826.3
25825.9
25825.4
25824.9
25824.4
25823.9
25823.4
25823
25822.5
25822
25821.5
25821
25820.5
25820.1
25819.6
25819.1
25818.6
25818.1
25817.6
25817.1
25816.7
25816.2
25815.7
25815.2
25814.7
25814.2
25813.7
25813.3
25812.8
25812.3
25811.8
25811.3
25810.8
25810.3
25809.9
25809.4
25808.9
25808.4
25807.9
25807.4
25806.9
25806.4
25806
25805.5
25805
25804.5
25804
25803.5
25803
25802.5
25802
25801.6
25801.1
25800.6
25800.1
25799.6
25799.1
25798.6
25798.1
25797.6
25797.1
25796.6
25796.2
25795.7
25795.2
25794.7
25794.2
25793.7
25793.2
25792.7
25792.2
25791.7
25791.2
25790.8
25790.3
25789.8
25789.3
25788.8
25788.3
25787.8
25787.3
25786.8
25786.3
25785.8
25785.3
25784.8
25784.3
25783.8
25783.4
25782.9
25782.4
25781.9
25781.4
25780.9
25780.4
25779.9
25779.4
25778.9
25778.4
25777.9
25777.4
25776.9
25776.4
25775.9
25775.4
25774.9
25774.4
25773.9
25773.4
25772.9
25772.4
25771.9
25771.5
25771
25770.5
25770
25769.5
25769
25768.5
25768
25767.5
25767
25766.5
25766
25765.5
25765
25764.5
25764
25763.5
25763
25762.5
25762
25761.5
25761
25760.5
25760
25759.5
25759
25758.5
25758
25757.5
25757
25756.5
25756
25755.5
25755
25754.5
25754
25753.5
25753
25752.5
25752
25751.5
25751
25750.4
25749.9
25749.4
25748.9
25748.4
25747.9
25747.4
25746.9
25746.4
25745.9
25745.4
25744.9
25744.4
25743.9
25743.4
25742.9
25742.4
25741.9
25741.4
25740.9
25740.4
25739.9
25739.4
25738.8
25738.3
25737.8
25737.3
25736.8
25736.3
25735.8
25735.3
25734.8
25734.3
25733.8
25733.3
25732.8
25732.3
25731.8
25731.2
25730.7
25730.2
25729.7
25729.2
25728.7
25728.2
25727.7
25727.2
25726.7
25726.2
25725.7
25725.1
25724.6
25724.1
25723.6
25723.1
25722.6
25722.1
25721.6
25721.1
25720.6
25720
25719.5
25719
25718.5
25718
25717.5
25717
25716.5
25716
25715.4
25714.9
25714.4
25713.9
25713.4
25712.9
25712.4
25711.9
25711.4
25710.8
25710.3
25709.8
25709.3
25708.8
25708.3
25707.8
25707.2
25706.7
25706.2
25705.7
25705.2
25704.7
25704.2
25703.6
25703.1
25702.6
25702.1
25701.6
25701.1
25700.6
25700
25699.5
25699
25698.5
25698
25697.5
25696.9
25696.4
25695.9
25695.4
25694.9
25694.4
25693.8
25693.3
25692.8
25692.3
25691.8
25691.3
25690.7
25690.2
25689.7
25689.2
25688.7
25688.2
25687.6
25687.1
25686.6
25686.1
25685.6
25685
25684.5
25684
25683.5
25683
25682.4
25681.9
25681.4
25680.9
25680.4
25679.8
25679.3
25678.8
25678.3
25677.8
25677.2
25676.7
25676.2
25675.7
25675.2
25674.6
25674.1
25673.6
25673.1
25672.5
25672
25671.5
25671
25670.5
25669.9
25669.4
25668.9
25668.4
25667.8
25667.3
25666.8
25666.3
25665.7
25665.2
25664.7
25664.2
25663.6
25663.1
25662.6
25662.1
25661.5
25661
25660.5
25660
25659.4
25658.9
25658.4
25657.9
25657.3
25656.8
25656.3
25655.8
25655.2
25654.7
25654.2
25653.7
25653.1
25652.6
25652.1
25651.6
25651
25650.5
25650
25649.4
25648.9
25648.4
25647.9
25647.3
25646.8
25646.3
25645.7
25645.2
25644.7
25644.2
25643.6
25643.1
25642.6
25642
25641.5
25641
25640.5
25639.9
25639.4
25638.9
25638.3
25637.8
25637.3
25636.7
25636.2
25635.7
25635.1
25634.6
25634.1
25633.6
25633
25632.5
25632
25631.4
25630.9
25630.4
25629.8
25629.3
25628.8
25628.2
25627.7
25627.2
25626.6
25626.1
25625.6
25625
25624.5
25624
25623.4
25622.9
25622.4
25621.8
25621.3
25620.8
25620.2
25619.7
25619.2
25618.6
25618.1
25617.6
25617
25616.5
25615.9
25615.4
25614.9
25614.3
25613.8
25613.3
25612.7
25612.2
25611.7
25611.1
25610.6
25610
25609.5
25609
25608.4
25607.9
25607.4
25606.8
25606.3
25605.7
25605.2
25604.7
25604.1
25603.6
25603.1
25602.5
25602
25601.4
25600.9
25600.4
25599.8
25599.3
25598.7
25598.2
25597.7
25597.1
25596.6
25596
25595.5
25595
25594.4
25593.9
25593.3
25592.8
25592.3
25591.7
25591.2
25590.6
25590.1
25589.6
25589
25588.5
25587.9
25587.4
25586.8
25586.3
25585.8
25585.2
25584.7
25584.1
25583.6
25583
25582.5
25582
25581.4
25580.9
25580.3
25579.8
25579.2
25578.7
25578.2
25577.6
25577.1
25576.5
25576
25575.4
25574.9
25574.3
25573.8
25573.2
25572.7
25572.2
25571.6
25571.1
25570.5
25570
25569.4
25568.9
25568.3
25567.8
25567.2
25566.7
25566.2
25565.6
25565.1
25564.5
25564
25563.4
25562.9
25562.3
25561.8
25561.2
25560.7
25560.1
25559.6
25559
25558.5
25557.9
25557.4
25556.8
25556.3
25555.7
25555.2
25554.6
25554.1
25553.5
25553
25552.4
25551.9
25551.3
25550.8
25550.2
25549.7
25549.1
25548.6
25548
25547.5
25546.9
25546.4
25545.8
25545.3
25544.7
25544.2
25543.6
25543.1
25542.5
25542
25541.4
25540.9
25540.3
25539.8
25539.2
25538.7
25538.1
25537.5
25537
25536.4
25535.9
25535.3
25534.8
25534.2
25533.7
25533.1
25532.6
25532
25531.5
25530.9
25530.3
25529.8
25529.2
25528.7
25528.1
25527.6
25527
25526.5
25525.9
25525.4
25524.8
25524.2
25523.7
25523.1
25522.6
25522
25521.5
25520.9
25520.3
25519.8
25519.2
25518.7
25518.1
25517.6
25517
25516.4
25515.9
25515.3
25514.8
25514.2
25513.7
25513.1
25512.5
25512
25511.4
25510.9
25510.3
25509.7
25509.2
25508.6
25508.1
25507.5
25506.9
25506.4
25505.8
25505.3
25504.7
25504.1
25503.6
25503
25502.5
25501.9
25501.3
25500.8
25500.2
25499.7
25499.1
25498.5
25498
25497.4
25496.9
25496.3
25495.7
25495.2
25494.6
25494
25493.5
25492.9
25492.4
25491.8
25491.2
25490.7
25490.1
25489.5
25489
25488.4
25487.9
25487.3
25486.7
25486.2
25485.6
25485
25484.5
25483.9
25483.3
25482.8
25482.2
25481.6
25481.1
25480.5
25480
25479.4
25478.8
25478.3
25477.7
25477.1
25476.6
25476
25475.4
25474.9
25474.3
25473.7
25473.2
25472.6
25472
25471.5
25470.9
25470.3
25469.8
25469.2
25468.6
25468.1
25467.5
25466.9
25466.4
25465.8
25465.2
25464.7
25464.1
25463.5
25462.9
25462.4
25461.8
25461.2
25460.7
25460.1
25459.5
25459
25458.4
25457.8
25457.3
25456.7
25456.1
25455.5
25455
25454.4
25453.8
25453.3
25452.7
25452.1
25451.6
25451
25450.4
25449.8
25449.3
25448.7
25448.1
25447.6
25447
25446.4
25445.8
25445.3
25444.7
25444.1
25443.5
25443
25442.4
25441.8
25441.3
25440.7
25440.1
25439.5
25439
25438.4
25437.8
25437.2
25436.7
25436.1
25435.5
25435
25434.4
25433.8
25433.2
25432.7
25432.1
25431.5
25430.9
25430.4
25429.8
25429.2
25428.6
25428.1
25427.5
25426.9
25426.3
25425.8
25425.2
25424.6
25424
25423.5
25422.9
25422.3
25421.7
25421.1
25420.6
25420
25419.4
25418.8
25418.3
25417.7
25417.1
25416.5
25416
25415.4
25414.8
25414.2
25413.6
25413.1
25412.5
25411.9
25411.3
25410.8
25410.2
25409.6
25409
25408.4
25407.9
25407.3
25406.7
25406.1
25405.5
25405
25404.4
25403.8
25403.2
25402.6
25402.1
25401.5
25400.9
25400.3
25399.7
25399.2
25398.6
25398
25397.4
25396.8
25396.3
25395.7
25395.1
25394.5
25393.9
25393.4
25392.8
25392.2
25391.6
25391
25390.4
25389.9
25389.3
25388.7
25388.1
25387.5
25387
25386.4
25385.8
25385.2
25384.6
25384
25383.5
25382.9
25382.3
25381.7
25381.1
25380.5
25380
25379.4
25378.8
25378.2
25377.6
25377
25376.4
25375.9
25375.3
25374.7
25374.1
25373.5
25372.9
25372.4
25371.8
25371.2
25370.6
25370
25369.4
25368.8
25368.3
25367.7
25367.1
25366.5
25365.9
25365.3
25364.7
25364.2
25363.6
25363
25362.4
25361.8
25361.2
25360.6
25360
25359.5
25358.9
25358.3
25357.7
25357.1
25356.5
25355.9
25355.3
25354.8
25354.2
25353.6
25353
25352.4
25351.8
25351.2
25350.6
25350.1
25349.5
25348.9
25348.3
25347.7
25347.1
25346.5
25345.9
25345.3
25344.7
25344.2
25343.6
25343
25342.4
25341.8
25341.2
25340.6
25340
25339.4
25338.8
25338.3
25337.7
25337.1
25336.5
25335.9
25335.3
25334.7
25334.1
25333.5
25332.9
25332.3
25331.8
25331.2
25330.6
25330
25329.4
25328.8
25328.2
25327.6
25327
25326.4
25325.8
25325.2
25324.7
25324.1
25323.5
25322.9
25322.3
25321.7
25321.1
25320.5
25319.9
25319.3
25318.7
25318.1
25317.5
25316.9
25316.4
25315.8
25315.2
25314.6
25314
25313.4
25312.8
25312.2
25311.6
25311
25310.4
25309.8
25309.2
25308.6
25308
25307.4
25306.8
25306.2
25305.7
25305.1
25304.5
25303.9
25303.3
25302.7
25302.1
25301.5
25300.9
25300.3
25299.7
25299.1
25298.5
25297.9
25297.3
25296.7
25296.1
25295.5
25294.9
25294.3
25293.7
25293.1
25292.5
25291.9
25291.3
25290.7
25290.2
25289.6
25289
25288.4
25287.8
25287.2
25286.6
25286
25285.4
25284.8
25284.2
25283.6
25283
25282.4
25281.8
25281.2
25280.6
25280
25279.4
25278.8
25278.2
25277.6
25277
25276.4
25275.8
25275.2
25274.6
25274
25273.4
25272.8
25272.2
25271.6
25271
25270.4
25269.8
25269.2
25268.6
25268
25267.4
25266.8
25266.2
25265.6
25265
25264.4
25263.8
25263.2
25262.6
25262
25261.4
25260.8
25260.2
25259.6
25259
25258.4
25257.8
25257.2
25256.6
25256
25255.4
25254.8
25254.2
25253.6
25253
25252.4
25251.8
25251.2
25250.6
25250
25249.4
25248.8
25248.2
25247.6
25247
25246.4
25245.8
25245.2
25244.6
25244
25243.4
25242.8
25242.2
25241.6
25241
25240.4
25239.8
25239.2
25238.6
25238
25237.4
25236.7
25236.1
25235.5
25234.9
25234.3
25233.7
25233.1
25232.5
25231.9
25231.3
25230.7
25230.1
25229.5
25228.9
25228.3
25227.7
25227.1
25226.5
25225.9
25225.3
25224.7
25224.1
25223.5
25222.9
25222.3
25221.7
25221.1
25220.5
25219.9
25219.3
25218.7
25218
25217.4
25216.8
25216.2
25215.6
25215
25214.4
25213.8
25213.2
25212.6
25212
25211.4
25210.8
25210.2
25209.6
25209
25208.4
25207.8
25207.2
25206.6
25206
25205.4
25204.8
25204.2
25203.5
25202.9
25202.3
25201.7
25201.1
25200.5
25199.9
25199.3
25198.7
25198.1
25197.5
25196.9
25196.3
25195.7
25195.1
25194.5
25193.9
25193.3
25192.7
25192.1
25191.5
25190.8
25190.2
25189.6
25189
25188.4
25187.8
25187.2
25186.6
25186
25185.4
25184.8
25184.2
25183.6
25183
25182.4
25181.8
25181.2
25180.6
25180
25179.3
25178.7
25178.1
25177.5
25176.9
25176.3
25175.7
25175.1
25174.5
25173.9
25173.3
25172.7
25172.1
25171.5