/*--------------------------------*- C++ -*----------------------------------*\
  =========                 |
  \\      /  F ield         | OpenFOAM: The Open Source CFD Toolbox
   \\    /   O peration     | Website:  https://openfoam.org
    \\  /    A nd           | Version:  9
     \\/     M anipulation  |
\*---------------------------------------------------------------------------*/
FoamFile
{
    format      ascii;
    class       surfaceScalarField;
    location    "0.025";
    object      phi;
}
// * * * * * * * * * * * * * * * * * * * * * * * * * * * * * * * * * * * * * //

dimensions      [1 0 -1 0 0 0 0];

internalField   nonuniform List<scalar> 
9999
(
4.9186
5.0041
5.0896
5.1751
5.26059
5.34608
5.43156
5.51704
5.60252
5.688
5.77346
5.85891
5.94437
6.02983
6.11529
6.20076
6.28622
6.37167
6.45709
6.5425
6.62791
6.71331
6.79872
6.88415
6.9696
7.05507
7.14057
7.22608
7.31161
7.39714
7.48269
7.56824
7.6538
7.73935
7.8249
7.91046
7.99603
8.0816
8.16716
8.25273
8.33829
8.42385
8.50942
8.59498
8.68054
8.7661
8.85166
8.93723
9.02279
9.10835
9.19391
9.27947
9.36503
9.45059
9.53615
9.62171
9.70727
9.79282
9.87838
9.96394
10.0495
10.1351
10.2206
10.3062
10.3917
10.4773
10.5628
10.6484
10.7339
10.8195
10.9051
10.9906
11.0762
11.1617
11.2473
11.3328
11.4184
11.5039
11.5895
11.675
11.7606
11.8461
11.9317
12.0172
12.1028
12.1883
12.2739
12.3594
12.445
12.5305
12.6161
12.7016
12.7872
12.8727
12.9583
13.0438
13.1294
13.2149
13.3004
13.386
13.4715
13.5571
13.6426
13.7282
13.8137
13.8993
13.9848
14.0703
14.1559
14.2414
14.327
14.4125
14.498
14.5836
14.6691
14.7547
14.8402
14.9257
15.0113
15.0968
15.1824
15.2679
15.3534
15.439
15.5245
15.61
15.6956
15.7811
15.8666
15.9522
16.0377
16.1232
16.2088
16.2943
16.3798
16.4654
16.5509
16.6364
16.722
16.8075
16.893
16.9786
17.0641
17.1496
17.2351
17.3207
17.4062
17.4917
17.5773
17.6628
17.7483
17.8338
17.9194
18.0049
18.0904
18.1759
18.2615
18.347
18.4325
18.518
18.6036
18.6891
18.7746
18.8601
18.9456
19.0312
19.1167
19.2022
19.2877
19.3732
19.4588
19.5443
19.6298
19.7153
19.8008
19.8863
19.9719
20.0574
20.1429
20.2284
20.3139
20.3994
20.485
20.5705
20.656
20.7415
20.827
20.9125
20.998
21.0835
21.169
21.2546
21.3401
21.4256
21.5111
21.5966
21.6821
21.7676
21.8531
21.9386
22.0241
22.1096
22.1951
22.2806
22.3661
22.4517
22.5372
22.6227
22.7082
22.7937
22.8792
22.9647
23.0502
23.1357
23.2212
23.3067
23.3922
23.4777
23.5632
23.6487
23.7342
23.8197
23.9052
23.9907
24.0761
24.1616
24.2471
24.3326
24.4181
24.5036
24.5891
24.6746
24.7601
24.8456
24.9311
25.0166
25.1021
25.1876
25.273
25.3585
25.444
25.5295
25.615
25.7005
25.786
25.8715
25.9569
26.0424
26.1279
26.2134
26.2989
26.3844
26.4698
26.5553
26.6408
26.7263
26.8118
26.8972
26.9827
27.0682
27.1537
27.2392
27.3246
27.4101
27.4956
27.5811
27.6665
27.752
27.8375
27.923
28.0084
28.0939
28.1794
28.2649
28.3503
28.4358
28.5213
28.6067
28.6922
28.7777
28.8632
28.9486
29.0341
29.1196
29.205
29.2905
29.376
29.4614
29.5469
29.6324
29.7178
29.8033
29.8887
29.9742
30.0597
30.1451
30.2306
30.3161
30.4015
30.487
30.5724
30.6579
30.7433
30.8288
30.9143
30.9997
31.0852
31.1706
31.2561
31.3415
31.427
31.5124
31.5979
31.6834
31.7688
31.8543
31.9397
32.0252
32.1106
32.1961
32.2815
32.367
32.4524
32.5378
32.6233
32.7087
32.7942
32.8796
32.9651
33.0505
33.136
33.2214
33.3068
33.3923
33.4777
33.5632
33.6486
33.7341
33.8195
33.9049
33.9904
34.0758
34.1612
34.2467
34.3321
34.4175
34.503
34.5884
34.6739
34.7593
34.8447
34.9301
35.0156
35.101
35.1864
35.2719
35.3573
35.4427
35.5282
35.6136
35.699
35.7844
35.8699
35.9553
36.0407
36.1261
36.2116
36.297
36.3824
36.4678
36.5532
36.6387
36.7241
36.8095
36.8949
36.9803
37.0658
37.1512
37.2366
37.322
37.4074
37.4928
37.5783
37.6637
37.7491
37.8345
37.9199
38.0053
38.0907
38.1761
38.2615
38.347
38.4324
38.5178
38.6032
38.6886
38.774
38.8594
38.9448
39.0302
39.1156
39.201
39.2864
39.3718
39.4572
39.5426
39.628
39.7134
39.7988
39.8842
39.9696
40.055
40.1404
40.2258
40.3112
40.3966
40.482
40.5674
40.6528
40.7382
40.8236
40.9089
40.9943
41.0797
41.1651
41.2505
41.3359
41.4213
41.5067
41.592
41.6774
41.7628
41.8482
41.9336
42.019
42.1043
42.1897
42.2751
42.3605
42.4459
42.5312
42.6166
42.702
42.7874
42.8728
42.9581
43.0435
43.1289
43.2143
43.2996
43.385
43.4704
43.5557
43.6411
43.7265
43.8119
43.8972
43.9826
44.068
44.1533
44.2387
44.3241
44.4094
44.4948
44.5801
44.6655
44.7509
44.8362
44.9216
45.007
45.0923
45.1777
45.263
45.3484
45.4337
45.5191
45.6045
45.6898
45.7752
45.8605
45.9459
46.0312
46.1166
46.2019
46.2873
46.3726
46.458
46.5433
46.6287
46.714
46.7994
46.8847
46.97
47.0554
47.1407
47.2261
47.3114
47.3968
47.4821
47.5674
47.6528
47.7381
47.8235
47.9088
47.9941
48.0795
48.1648
48.2501
48.3355
48.4208
48.5061
48.5915
48.6768
48.7621
48.8475
48.9328
49.0181
49.1034
49.1888
49.2741
49.3594
49.4447
49.5301
49.6154
49.7007
49.786
49.8713
49.9567
50.042
50.1273
50.2126
50.2979
50.3833
50.4686
50.5539
50.6392
50.7245
50.8098
50.8951
50.9805
51.0658
51.1511
51.2364
51.3217
51.407
51.4923
51.5776
51.6629
51.7482
51.8335
51.9188
52.0041
52.0894
52.1747
52.26
52.3453
52.4306
52.5159
52.6012
52.6865
52.7718
52.8571
52.9424
53.0277
53.113
53.1983
53.2836
53.3689
53.4542
53.5395
53.6248
53.71
53.7953
53.8806
53.9659
54.0512
54.1365
54.2218
54.307
54.3923
54.4776
54.5629
54.6482
54.7334
54.8187
54.904
54.9893
55.0745
55.1598
55.2451
55.3304
55.4156
55.5009
55.5862
55.6715
55.7567
55.842
55.9273
56.0125
56.0978
56.1831
56.2683
56.3536
56.4389
56.5241
56.6094
56.6946
56.7799
56.8652
56.9504
57.0357
57.1209
57.2062
57.2915
57.3767
57.462
57.5472
57.6325
57.7177
57.803
57.8882
57.9735
58.0587
58.144
58.2292
58.3145
58.3997
58.485
58.5702
58.6554
58.7407
58.8259
58.9112
58.9964
59.0816
59.1669
59.2521
59.3374
59.4226
59.5078
59.5931
59.6783
59.7635
59.8488
59.934
60.0192
60.1044
60.1897
60.2749
60.3601
60.4454
60.5306
60.6158
60.701
60.7863
60.8715
60.9567
61.0419
61.1271
61.2124
61.2976
61.3828
61.468
61.5532
61.6384
61.7237
61.8089
61.8941
61.9793
62.0645
62.1497
62.2349
62.3201
62.4053
62.4905
62.5757
62.661
62.7462
62.8314
62.9166
63.0018
63.087
63.1722
63.2574
63.3426
63.4278
63.513
63.5981
63.6833
63.7685
63.8537
63.9389
64.0241
64.1093
64.1945
64.2797
64.3649
64.4501
64.5352
64.6204
64.7056
64.7908
64.876
64.9612
65.0463
65.1315
65.2167
65.3019
65.3871
65.4722
65.5574
65.6426
65.7278
65.8129
65.8981
65.9833
66.0684
66.1536
66.2388
66.3239
66.4091
66.4943
66.5794
66.6646
66.7498
66.8349
66.9201
67.0053
67.0904
67.1756
67.2607
67.3459
67.431
67.5162
67.6014
67.6865
67.7717
67.8568
67.942
68.0271
68.1123
68.1974
68.2826
68.3677
68.4528
68.538
68.6231
68.7083
68.7934
68.8786
68.9637
69.0488
69.134
69.2191
69.3043
69.3894
69.4745
69.5597
69.6448
69.7299
69.8151
69.9002
69.9853
70.0704
70.1556
70.2407
70.3258
70.4109
70.4961
70.5812
70.6663
70.7514
70.8366
70.9217
71.0068
71.0919
71.177
71.2621
71.3473
71.4324
71.5175
71.6026
71.6877
71.7728
71.8579
71.943
72.0281
72.1132
72.1983
72.2835
72.3686
72.4537
72.5388
72.6239
72.709
72.7941
72.8792
72.9643
73.0493
73.1344
73.2195
73.3046
73.3897
73.4748
73.5599
73.645
73.7301
73.8152
73.9003
73.9853
74.0704
74.1555
74.2406
74.3257
74.4107
74.4958
74.5809
74.666
74.7511
74.8361
74.9212
75.0063
75.0914
75.1764
75.2615
75.3466
75.4316
75.5167
75.6018
75.6868
75.7719
75.857
75.942
76.0271
76.1122
76.1972
76.2823
76.3673
76.4524
76.5374
76.6225
76.7076
76.7926
76.8777
76.9627
77.0478
77.1328
77.2179
77.3029
77.388
77.473
77.558
77.6431
77.7281
77.8132
77.8982
77.9832
78.0683
78.1533
78.2384
78.3234
78.4084
78.4935
78.5785
78.6635
78.7486
78.8336
78.9186
79.0036
79.0887
79.1737
79.2587
79.3437
79.4288
79.5138
79.5988
79.6838
79.7688
79.8539
79.9389
80.0239
80.1089
80.1939
80.2789
80.3639
80.4489
80.534
80.619
80.704
80.789
80.874
80.959
81.044
81.129
81.214
81.299
81.384
81.469
81.554
81.639
81.724
81.809
81.894
81.9789
82.0639
82.1489
82.2339
82.3189
82.4039
82.4889
82.5739
82.6588
82.7438
82.8288
82.9138
82.9988
83.0837
83.1687
83.2537
83.3387
83.4236
83.5086
83.5936
83.6785
83.7635
83.8485
83.9334
84.0184
84.1034
84.1883
84.2733
84.3583
84.4432
84.5282
84.6131
84.6981
84.7831
84.868
84.953
85.0379
85.1229
85.2078
85.2928
85.3777
85.4627
85.5476
85.6326
85.7175
85.8024
85.8874
85.9723
86.0573
86.1422
86.2271
86.3121
86.397
86.482
86.5669
86.6518
86.7368
86.8217
86.9066
86.9915
87.0765
87.1614
87.2463
87.3312
87.4162
87.5011
87.586
87.6709
87.7558
87.8408
87.9257
88.0106
88.0955
88.1804
88.2653
88.3502
88.4351
88.5201
88.605
88.6899
88.7748
88.8597
88.9446
89.0295
89.1144
89.1993
89.2842
89.3691
89.454
89.5389
89.6238
89.7086
89.7935
89.8784
89.9633
90.0482
90.1331
90.218
90.3029
90.3877
90.4726
90.5575
90.6424
90.7273
90.8121
90.897
90.9819
91.0668
91.1516
91.2365
91.3214
91.4063
91.4911
91.576
91.6609
91.7457
91.8306
91.9154
92.0003
92.0852
92.17
92.2549
92.3397
92.4246
92.5095
92.5943
92.6792
92.764
92.8489
92.9337
93.0186
93.1034
93.1882
93.2731
93.3579
93.4428
93.5276
93.6125
93.6973
93.7821
93.867
93.9518
94.0366
94.1215
94.2063
94.2911
94.376
94.4608
94.5456
94.6304
94.7153
94.8001
94.8849
94.9697
95.0545
95.1394
95.2242
95.309
95.3938
95.4786
95.5634
95.6482
95.7331
95.8179
95.9027
95.9875
96.0723
96.1571
96.2419
96.3267
96.4115
96.4963
96.5811
96.6659
96.7507
96.8355
96.9203
97.0051
97.0898
97.1746
97.2594
97.3442
97.429
97.5138
97.5986
97.6833
97.7681
97.8529
97.9377
98.0225
98.1072
98.192
98.2768
98.3616
98.4463
98.5311
98.6159
98.7006
98.7854
98.8702
98.9549
99.0397
99.1244
99.2092
99.294
99.3787
99.4635
99.5482
99.633
99.7177
99.8025
99.8872
99.972
100.057
100.141
100.226
100.311
100.396
100.48
100.565
100.65
100.735
100.819
100.904
100.989
101.074
101.158
101.243
101.328
101.413
101.497
101.582
101.667
101.751
101.836
101.921
102.006
102.09
102.175
102.26
102.344
102.429
102.514
102.599
102.683
102.768
102.853
102.937
103.022
103.107
103.192
103.276
103.361
103.446
103.53
103.615
103.7
103.784
103.869
103.954
104.038
104.123
104.208
104.293
104.377
104.462
104.547
104.631
104.716
104.801
104.885
104.97
105.055
105.139
105.224
105.309
105.393
105.478
105.563
105.647
105.732
105.817
105.901
105.986
106.071
106.155
106.24
106.325
106.409
106.494
106.578
106.663
106.748
106.832
106.917
107.002
107.086
107.171
107.256
107.34
107.425
107.51
107.594
107.679
107.763
107.848
107.933
108.017
108.102
108.187
108.271
108.356
108.44
108.525
108.61
108.694
108.779
108.863
108.948
109.033
109.117
109.202
109.287
109.371
109.456
109.54
109.625
109.71
109.794
109.879
109.963
110.048
110.133
110.217
110.302
110.386
110.471
110.555
110.64
110.725
110.809
110.894
110.978
111.063
111.148
111.232
111.317
111.401
111.486
111.57
111.655
111.74
111.824
111.909
111.993
112.078
112.162
112.247
112.331
112.416
112.501
112.585
112.67
112.754
112.839
112.923
113.008
113.092
113.177
113.261
113.346
113.431
113.515
113.6
113.684
113.769
113.853
113.938
114.022
114.107
114.191
114.276
114.36
114.445
114.529
114.614
114.698
114.783
114.868
114.952
115.037
115.121
115.206
115.29
115.375
115.459
115.544
115.628
115.713
115.797
115.882
115.966
116.051
116.135
116.22
116.304
116.389
116.473
116.558
116.642
116.726
116.811
116.895
116.98
117.064
117.149
117.233
117.318
117.402
117.487
117.571
117.656
117.74
117.825
117.909
117.994
118.078
118.162
118.247
118.331
118.416
118.5
118.585
118.669
118.754
118.838
118.923
119.007
119.091
119.176
119.26
119.345
119.429
119.514
119.598
119.682
119.767
119.851
119.936
120.02
120.105
120.189
120.273
120.358
120.442
120.527
120.611
120.696
120.78
120.864
120.949
121.033
121.118
121.202
121.286
121.371
121.455
121.54
121.624
121.708
121.793
121.877
121.962
122.046
122.13
122.215
122.299
122.384
122.468
122.552
122.637
122.721
122.805
122.89
122.974
123.059
123.143
123.227
123.312
123.396
123.48
123.565
123.649
123.734
123.818
123.902
123.987
124.071
124.155
124.24
124.324
124.408
124.493
124.577
124.661
124.746
124.83
124.914
124.999
125.083
125.167
125.252
125.336
125.42
125.505
125.589
125.673
125.758
125.842
125.926
126.011
126.095
126.179
126.264
126.348
126.432
126.517
126.601
126.685
126.77
126.854
126.938
127.022
127.107
127.191
127.275
127.36
127.444
127.528
127.612
127.697
127.781
127.865
127.95
128.034
128.118
128.202
128.287
128.371
128.455
128.54
128.624
128.708
128.792
128.877
128.961
129.045
129.129
129.214
129.298
129.382
129.466
129.551
129.635
129.719
129.804
129.888
129.972
130.056
130.14
130.225
130.309
130.393
130.477
130.562
130.646
130.73
130.814
130.899
130.983
131.067
131.151
131.236
131.32
131.404
131.488
131.572
131.657
131.741
131.825
131.909
131.993
132.078
132.162
132.246
132.33
132.414
132.499
132.583
132.667
132.751
132.835
132.92
133.004
133.088
133.172
133.256
133.341
133.425
133.509
133.593
133.677
133.761
133.846
133.93
134.014
134.098
134.182
134.266
134.351
134.435
134.519
134.603
134.687
134.771
134.856
134.94
135.024
135.108
135.192
135.276
135.36
135.445
135.529
135.613
135.697
135.781
135.865
135.949
136.034
136.118
136.202
136.286
136.37
136.454
136.538
136.622
136.707
136.791
136.875
136.959
137.043
137.127
137.211
137.295
137.379
137.463
137.548
137.632
137.716
137.8
137.884
137.968
138.052
138.136
138.22
138.304
138.389
138.473
138.557
138.641
138.725
138.809
138.893
138.977
139.061
139.145
139.229
139.313
139.397
139.481
139.565
139.65
139.734
139.818
139.902
139.986
140.07
140.154
140.238
140.322
140.406
140.49
140.574
140.658
140.742
140.826
140.91
140.994
141.078
141.162
141.246
141.33
141.414
141.498
141.582
141.666
141.75
141.834
141.918
142.002
142.086
142.171
142.255
142.339
142.423
142.507
142.591
142.675
142.759
142.842
142.926
143.01
143.094
143.178
143.262
143.346
143.43
143.514
143.598
143.682
143.766
143.85
143.934
144.018
144.102
144.186
144.27
144.354
144.438
144.522
144.606
144.69
144.774
144.858
144.942
145.026
145.11
145.194
145.278
145.361
145.445
145.529
145.613
145.697
145.781
145.865
145.949
146.033
146.117
146.201
146.285
146.369
146.453
146.536
146.62
146.704
146.788
146.872
146.956
147.04
147.124
147.208
147.292
147.376
147.459
147.543
147.627
147.711
147.795
147.879
147.963
148.047
148.131
148.214
148.298
148.382
148.466
148.55
148.634
148.718
148.802
148.885
148.969
149.053
149.137
149.221
149.305
149.389
149.472
149.556
149.64
149.724
149.808
149.892
149.975
150.059
150.143
150.227
150.311
150.395
150.478
150.562
150.646
150.73
150.814
150.898
150.981
151.065
151.149
151.233
151.317
151.4
151.484
151.568
151.652
151.736
151.82
151.903
151.987
152.071
152.155
152.238
152.322
152.406
152.49
152.574
152.657
152.741
152.825
152.909
152.993
153.076
153.16
153.244
153.328
153.411
153.495
153.579
153.663
153.746
153.83
153.914
153.998
154.081
154.165
154.249
154.333
154.416
154.5
154.584
154.668
154.751
154.835
154.919
155.003
155.086
155.17
155.254
155.338
155.421
155.505
155.589
155.672
155.756
155.84
155.924
156.007
156.091
156.175
156.258
156.342
156.426
156.509
156.593
156.677
156.761
156.844
156.928
157.012
157.095
157.179
157.263
157.346
157.43
157.514
157.597
157.681
157.765
157.848
157.932
158.016
158.099
158.183
158.267
158.35
158.434
158.518
158.601
158.685
158.769
158.852
158.936
159.019
159.103
159.187
159.27
159.354
159.438
159.521
159.605
159.689
159.772
159.856
159.939
160.023
160.107
160.19
160.274
160.357
160.441
160.525
160.608
160.692
160.775
160.859
160.943
161.026
161.11
161.193
161.277
161.361
161.444
161.528
161.611
161.695
161.779
161.862
161.946
162.029
162.113
162.196
162.28
162.364
162.447
162.531
162.614
162.698
162.781
162.865
162.948
163.032
163.115
163.199
163.283
163.366
163.45
163.533
163.617
163.7
163.784
163.867
163.951
164.034
164.118
164.201
164.285
164.368
164.452
164.535
164.619
164.702
164.786
164.869
164.953
165.036
165.12
165.203
165.287
165.37
165.454
165.537
165.621
165.704
165.788
165.871
165.955
166.038
166.122
166.205
166.289
166.372
166.456
166.539
166.623
166.706
166.789
166.873
166.956
167.04
167.123
167.207
167.29
167.374
167.457
167.54
167.624
167.707
167.791
167.874
167.958
168.041
168.125
168.208
168.291
168.375
168.458
168.542
168.625
168.708
168.792
168.875
168.959
169.042
169.125
169.209
169.292
169.376
169.459
169.542
169.626
169.709
169.793
169.876
169.959
170.043
170.126
170.209
170.293
170.376
170.46
170.543
170.626
170.71
170.793
170.876
170.96
171.043
171.126
171.21
171.293
171.376
171.46
171.543
171.626
171.71
171.793
171.876
171.96
172.043
172.126
172.21
172.293
172.376
172.46
172.543
172.626
172.71
172.793
172.876
172.96
173.043
173.126
173.21
173.293
173.376
173.459
173.543
173.626
173.709
173.793
173.876
173.959
174.042
174.126
174.209
174.292
174.375
174.459
174.542
174.625
174.709
174.792
174.875
174.958
175.042
175.125
175.208
175.291
175.375
175.458
175.541
175.624
175.708
175.791
175.874
175.957
176.04
176.124
176.207
176.29
176.373
176.457
176.54
176.623
176.706
176.789
176.873
176.956
177.039
177.122
177.205
177.289
177.372
177.455
177.538
177.621
177.705
177.788
177.871
177.954
178.037
178.12
178.204
178.287
178.37
178.453
178.536
178.619
178.703
178.786
178.869
178.952
179.035
179.118
179.201
179.285
179.368
179.451
179.534
179.617
179.7
179.783
179.867
179.95
180.033
180.116
180.199
180.282
180.365
180.448
180.531
180.615
180.698
180.781
180.864
180.947
181.03
181.113
181.196
181.279
181.362
181.446
181.529
181.612
181.695
181.778
181.861
181.944
182.027
182.11
182.193
182.276
182.359
182.442
182.525
182.609
182.692
182.775
182.858
182.941
183.024
183.107
183.19
183.273
183.356
183.439
183.522
183.605
183.688
183.771
183.854
183.937
184.02
184.103
184.186
184.269
184.352
184.435
184.518
184.601
184.684
184.767
184.85
184.933
185.016
185.099
185.182
185.265
185.348
185.431
185.514
185.597
185.68
185.763
185.846
185.929
186.012
186.095
186.178
186.261
186.344
186.427
186.51
186.593
186.676
186.759
186.841
186.924
187.007
187.09
187.173
187.256
187.339
187.422
187.505
187.588
187.671
187.754
187.837
187.92
188.002
188.085
188.168
188.251
188.334
188.417
188.5
188.583
188.666
188.749
188.831
188.914
188.997
189.08
189.163
189.246
189.329
189.412
189.494
189.577
189.66
189.743
189.826
189.909
189.992
190.074
190.157
190.24
190.323
190.406
190.489
190.572
190.654
190.737
190.82
190.903
190.986
191.068
191.151
191.234
191.317
191.4
191.483
191.565
191.648
191.731
191.814
191.897
191.979
192.062
192.145
192.228
192.311
192.393
192.476
192.559
192.642
192.725
192.807
192.89
192.973
193.056
193.138
193.221
193.304
193.387
193.469
193.552
193.635
193.718
193.8
193.883
193.966
194.049
194.131
194.214
194.297
194.38
194.462
194.545
194.628
194.711
194.793
194.876
194.959
195.041
195.124
195.207
195.29
195.372
195.455
195.538
195.62
195.703
195.786
195.868
195.951
196.034
196.116
196.199
196.282
196.364
196.447
196.53
196.613
196.695
196.778
196.861
196.943
197.026
197.108
197.191
197.274
197.356
197.439
197.522
197.604
197.687
197.77
197.852
197.935
198.018
198.1
198.183
198.265
198.348
198.431
198.513
198.596
198.678
198.761
198.844
198.926
199.009
199.091
199.174
199.257
199.339
199.422
199.504
199.587
199.67
199.752
199.835
199.917
200
200.082
200.165
200.248
200.33
200.413
200.495
200.578
200.66
200.743
200.825
200.908
200.991
201.073
201.156
201.238
201.321
201.403
201.486
201.568
201.651
201.733
201.816
201.898
201.981
202.063
202.146
202.228
202.311
202.393
202.476
202.558
202.641
202.723
202.806
202.888
202.971
203.053
203.136
203.218
203.301
203.383
203.466
203.548
203.631
203.713
203.795
203.878
203.96
204.043
204.125
204.208
204.29
204.373
204.455
204.538
204.62
204.702
204.785
204.867
204.95
205.032
205.114
205.197
205.279
205.362
205.444
205.527
205.609
205.691
205.774
205.856
205.939
206.021
206.103
206.186
206.268
206.35
206.433
206.515
206.598
206.68
206.762
206.845
206.927
207.009
207.092
207.174
207.257
207.339
207.421
207.504
207.586
207.668
207.751
207.833
207.915
207.998
208.08
208.162
208.245
208.327
208.409
208.492
208.574
208.656
208.738
208.821
208.903
208.985
209.068
209.15
209.232
209.315
209.397
209.479
209.561
209.644
209.726
209.808
209.891
209.973
210.055
210.137
210.22
210.302
210.384
210.466
210.549
210.631
210.713
210.795
210.878
210.96
211.042
211.124
211.207
211.289
211.371
211.453
211.535
211.618
211.7
211.782
211.864
211.947
212.029
212.111
212.193
212.275
212.358
212.44
212.522
212.604
212.686
212.768
212.851
212.933
213.015
213.097
213.179
213.262
213.344
213.426
213.508
213.59
213.672
213.754
213.837
213.919
214.001
214.083
214.165
214.247
214.329
214.412
214.494
214.576
214.658
214.74
214.822
214.904
214.986
215.069
215.151
215.233
215.315
215.397
215.479
215.561
215.643
215.725
215.807
215.89
215.972
216.054
216.136
216.218
216.3
216.382
216.464
216.546
216.628
216.71
216.792
216.874
216.956
217.038
217.121
217.203
217.285
217.367
217.449
217.531
217.613
217.695
217.777
217.859
217.941
218.023
218.105
218.187
218.269
218.351
218.433
218.515
218.597
218.679
218.761
218.843
218.925
219.007
219.089
219.171
219.253
219.335
219.417
219.499
219.581
219.663
219.745
219.827
219.909
219.99
220.072
220.154
220.236
220.318
220.4
220.482
220.564
220.646
220.728
220.81
220.892
220.974
221.056
221.138
221.219
221.301
221.383
221.465
221.547
221.629
221.711
221.793
221.875
221.957
222.038
222.12
222.202
222.284
222.366
222.448
222.53
222.612
222.693
222.775
222.857
222.939
223.021
223.103
223.185
223.266
223.348
223.43
223.512
223.594
223.676
223.757
223.839
223.921
224.003
224.085
224.167
224.248
224.33
224.412
224.494
224.576
224.657
224.739
224.821
224.903
224.985
225.066
225.148
225.23
225.312
225.393
225.475
225.557
225.639
225.721
225.802
225.884
225.966
226.048
226.129
226.211
226.293
226.375
226.456
226.538
226.62
226.702
226.783
226.865
226.947
227.028
227.11
227.192
227.274
227.355
227.437
227.519
227.6
227.682
227.764
227.845
227.927
228.009
228.091
228.172
228.254
228.336
228.417
228.499
228.581
228.662
228.744
228.826
228.907
228.989
229.071
229.152
229.234
229.315
229.397
229.479
229.56
229.642
229.724
229.805
229.887
229.969
230.05
230.132
230.213
230.295
230.377
230.458
230.54
230.621
230.703
230.785
230.866
230.948
231.029
231.111
231.193
231.274
231.356
231.437
231.519
231.6
231.682
231.763
231.845
231.927
232.008
232.09
232.171
232.253
232.334
232.416
232.497
232.579
232.66
232.742
232.824
232.905
232.987
233.068
233.15
233.231
233.313
233.394
233.476
233.557
233.639
233.72
233.802
233.883
233.965
234.046
234.127
234.209
234.29
234.372
234.453
234.535
234.616
234.698
234.779
234.861
234.942
235.024
235.105
235.186
235.268
235.349
235.431
235.512
235.594
235.675
235.756
235.838
235.919
236.001
236.082
236.164
236.245
236.326
236.408
236.489
236.57
236.652
236.733
236.815
236.896
236.977
237.059
237.14
237.222
237.303
237.384
237.466
237.547
237.628
237.71
237.791
237.872
237.954
238.035
238.116
238.198
238.279
238.36
238.442
238.523
238.604
238.686
238.767
238.848
238.93
239.011
239.092
239.174
239.255
239.336
239.417
239.499
239.58
239.661
239.743
239.824
239.905
239.986
240.068
240.149
240.23
240.311
240.393
240.474
240.555
240.636
240.718
240.799
240.88
240.961
241.043
241.124
241.205
241.286
241.368
241.449
241.53
241.611
241.692
241.774
241.855
241.936
242.017
242.098
242.18
242.261
242.342
242.423
242.504
242.585
242.667
242.748
242.829
242.91
242.991
243.072
243.154
243.235
243.316
243.397
243.478
243.559
243.64
243.722
243.803
243.884
243.965
244.046
244.127
244.208
244.289
244.371
244.452
244.533
244.614
244.695
244.776
244.857
244.938
245.019
245.1
245.182
245.263
245.344
245.425
245.506
245.587
245.668
245.749
245.83
245.911
245.992
246.073
246.154
246.235
246.316
246.397
246.478
246.559
246.641
246.722
246.803
246.884
246.965
247.046
247.127
247.208
247.289
247.37
247.451
247.532
247.613
247.694
247.775
247.856
247.937
248.018
248.099
248.179
248.26
248.341
248.422
248.503
248.584
248.665
248.746
248.827
248.908
248.989
249.07
249.151
249.232
249.313
249.394
249.475
249.556
249.636
249.717
249.798
249.879
249.96
250.041
250.122
250.203
250.284
250.365
250.445
250.526
250.607
250.688
250.769
250.85
250.931
251.012
251.092
251.173
251.254
251.335
251.416
251.497
251.578
251.658
251.739
251.82
251.901
251.982
252.063
252.143
252.224
252.305
252.386
252.467
252.547
252.628
252.709
252.79
252.871
252.951
253.032
253.113
253.194
253.274
253.355
253.436
253.517
253.598
253.678
253.759
253.84
253.921
254.001
254.082
254.163
254.244
254.324
254.405
254.486
254.567
254.647
254.728
254.809
254.889
254.97
255.051
255.132
255.212
255.293
255.374
255.454
255.535
255.616
255.696
255.777
255.858
255.938
256.019
256.1
256.18
256.261
256.342
256.422
256.503
256.584
256.664
256.745
256.826
256.906
256.987
257.068
257.148
257.229
257.309
257.39
257.471
257.551
257.632
257.713
257.793
257.874
257.954
258.035
258.115
258.196
258.277
258.357
258.438
258.518
258.599
258.68
258.76
258.841
258.921
259.002
259.082
259.163
259.243
259.324
259.405
259.485
259.566
259.646
259.727
259.807
259.888
259.968
260.049
260.129
260.21
260.29
260.371
260.451
260.532
260.612
260.693
260.773
260.854
260.934
261.015
261.095
261.176
261.256
261.337
261.417
261.497
261.578
261.658
261.739
261.819
261.9
261.98
262.061
262.141
262.221
262.302
262.382
262.463
262.543
262.623
262.704
262.784
262.865
262.945
263.026
263.106
263.186
263.267
263.347
263.427
263.508
263.588
263.669
263.749
263.829
263.91
263.99
264.07
264.151
264.231
264.311
264.392
264.472
264.552
264.633
264.713
264.793
264.874
264.954
265.034
265.115
265.195
265.275
265.356
265.436
265.516
265.596
265.677
265.757
265.837
265.918
265.998
266.078
266.158
266.239
266.319
266.399
266.479
266.56
266.64
266.72
266.8
266.881
266.961
267.041
267.121
267.202
267.282
267.362
267.442
267.522
267.603
267.683
267.763
267.843
267.924
268.004
268.084
268.164
268.244
268.324
268.405
268.485
268.565
268.645
268.725
268.805
268.886
268.966
269.046
269.126
269.206
269.286
269.366
269.447
269.527
269.607
269.687
269.767
269.847
269.927
270.007
270.088
270.168
270.248
270.328
270.408
270.488
270.568
270.648
270.728
270.808
270.888
270.969
271.049
271.129
271.209
271.289
271.369
271.449
271.529
271.609
271.689
271.769
271.849
271.929
272.009
272.089
272.169
272.249
272.329
272.409
272.489
272.569
272.649
272.729
272.809
272.889
272.969
273.049
273.129
273.209
273.289
273.369
273.449
273.529
273.609
273.689
273.769
273.849
273.929
274.009
274.089
274.169
274.249
274.328
274.408
274.488
274.568
274.648
274.728
274.808
274.888
274.968
275.048
275.128
275.208
275.287
275.367
275.447
275.527
275.607
275.687
275.767
275.847
275.926
276.006
276.086
276.166
276.246
276.326
276.405
276.485
276.565
276.645
276.725
276.805
276.884
276.964
277.044
277.124
277.204
277.284
277.363
277.443
277.523
277.603
277.682
277.762
277.842
277.922
278.002
278.081
278.161
278.241
278.321
278.4
278.48
278.56
278.64
278.719
278.799
278.879
278.959
279.038
279.118
279.198
279.277
279.357
279.437
279.517
279.596
279.676
279.756
279.835
279.915
279.995
280.074
280.154
280.234
280.313
280.393
280.473
280.552
280.632
280.712
280.791
280.871
280.951
281.03
281.11
281.19
281.269
281.349
281.429
281.508
281.588
281.667
281.747
281.827
281.906
281.986
282.065
282.145
282.225
282.304
282.384
282.463
282.543
282.622
282.702
282.782
282.861
282.941
283.02
283.1
283.179
283.259
283.338
283.418
283.497
283.577
283.657
283.736
283.816
283.895
283.975
284.054
284.134
284.213
284.293
284.372
284.452
284.531
284.611
284.69
284.77
284.849
284.928
285.008
285.087
285.167
285.246
285.326
285.405
285.485
285.564
285.644
285.723
285.802
285.882
285.961
286.041
286.12
286.199
286.279
286.358
286.438
286.517
286.596
286.676
286.755
286.835
286.914
286.993
287.073
287.152
287.231
287.311
287.39
287.47
287.549
287.628
287.708
287.787
287.866
287.946
288.025
288.104
288.184
288.263
288.342
288.422
288.501
288.58
288.659
288.739
288.818
288.897
288.977
289.056
289.135
289.214
289.294
289.373
289.452
289.531
289.611
289.69
289.769
289.848
289.928
290.007
290.086
290.165
290.245
290.324
290.403
290.482
290.562
290.641
290.72
290.799
290.878
290.958
291.037
291.116
291.195
291.274
291.353
291.433
291.512
291.591
291.67
291.749
291.828
291.908
291.987
292.066
292.145
292.224
292.303
292.382
292.462
292.541
292.62
292.699
292.778
292.857
292.936
293.015
293.094
293.173
293.253
293.332
293.411
293.49
293.569
293.648
293.727
293.806
293.885
293.964
294.043
294.122
294.201
294.28
294.359
294.438
294.517
294.596
294.676
294.755
294.834
294.913
294.992
295.071
295.15
295.229
295.308
295.387
295.466
295.545
295.623
295.702
295.781
295.86
295.939
296.018
296.097
296.176
296.255
296.334
296.413
296.492
296.571
296.65
296.729
296.808
296.887
296.965
297.044
297.123
297.202
297.281
297.36
297.439
297.518
297.597
297.676
297.754
297.833
297.912
297.991
298.07
298.149
298.228
298.306
298.385
298.464
298.543
298.622
298.701
298.779
298.858
298.937
299.016
299.095
299.174
299.252
299.331
299.41
299.489
299.567
299.646
299.725
299.804
299.883
299.961
300.04
300.119
300.198
300.276
300.355
300.434
300.513
300.591
300.67
300.749
300.828
300.906
300.985
301.064
301.142
301.221
301.3
301.379
301.457
301.536
301.615
301.693
301.772
301.851
301.929
302.008
302.087
302.165
302.244
302.323
302.401
302.48
302.559
302.637
302.716
302.794
302.873
302.952
303.03
303.109
303.188
303.266
303.345
303.423
303.502
303.581
303.659
303.738
303.816
303.895
303.973
304.052
304.131
304.209
304.288
304.366
304.445
304.523
304.602
304.68
304.759
304.837
304.916
304.995
305.073
305.152
305.23
305.309
305.387
305.466
305.544
305.623
305.701
305.78
305.858
305.936
306.015
306.093
306.172
306.25
306.329
306.407
306.486
306.564
306.643
306.721
306.799
306.878
306.956
307.035
307.113
307.192
307.27
307.348
307.427
307.505
307.583
307.662
307.74
307.819
307.897
307.975
308.054
308.132
308.21
308.289
308.367
308.446
308.524
308.602
308.681
308.759
308.837
308.916
308.994
309.072
309.15
309.229
309.307
309.385
309.464
309.542
309.62
309.699
309.777
309.855
309.933
310.012
310.09
310.168
310.246
310.325
310.403
310.481
310.559
310.638
310.716
310.794
310.872
310.95
311.029
311.107
311.185
311.263
311.341
311.42
311.498
311.576
311.654
311.732
311.811
311.889
311.967
312.045
312.123
312.201
312.28
312.358
312.436
312.514
312.592
312.67
312.748
312.826
312.905
312.983
313.061
313.139
313.217
313.295
313.373