/*--------------------------------*- C++ -*----------------------------------*\
  =========                 |
  \\      /  F ield         | OpenFOAM: The Open Source CFD Toolbox
   \\    /   O peration     | Website:  https://openfoam.org
    \\  /    A nd           | Version:  9
     \\/     M anipulation  |
\*---------------------------------------------------------------------------*/
FoamFile
{
    format      ascii;
    class       volVectorField;
    location    "0.025";
    object      U;
}
// * * * * * * * * * * * * * * * * * * * * * * * * * * * * * * * * * * * * * //

dimensions      [0 1 -1 0 0 0 0];

internalField   nonuniform List<vector> 
10000
(
(3.11151 0 0)
(3.18578 0 0)
(3.25132 0 0)
(3.30633 0 0)
(3.35954 0 0)
(3.41402 0 0)
(3.46929 0 0)
(3.52461 0 0)
(3.57979 0 0)
(3.63491 0 0)
(3.69003 0 0)
(3.74517 0 0)
(3.80031 0 0)
(3.85546 0 0)
(3.91061 0 0)
(3.96575 0 0)
(4.02089 0 0)
(4.07602 0 0)
(4.13116 0 0)
(4.1863 0 0)
(4.24144 0 0)
(4.29659 0 0)
(4.35175 0 0)
(4.4069 0 0)
(4.46206 0 0)
(4.51721 0 0)
(4.57236 0 0)
(4.62751 0 0)
(4.68266 0 0)
(4.73781 0 0)
(4.79296 0 0)
(4.8481 0 0)
(4.90325 0 0)
(4.9584 0 0)
(5.01354 0 0)
(5.06869 0 0)
(5.12384 0 0)
(5.17899 0 0)
(5.23413 0 0)
(5.28928 0 0)
(5.34443 0 0)
(5.39958 0 0)
(5.45472 0 0)
(5.50987 0 0)
(5.56502 0 0)
(5.62017 0 0)
(5.67532 0 0)
(5.73047 0 0)
(5.78562 0 0)
(5.84077 0 0)
(5.89592 0 0)
(5.95107 0 0)
(6.00622 0 0)
(6.06138 0 0)
(6.11653 0 0)
(6.17168 0 0)
(6.22683 0 0)
(6.28199 0 0)
(6.33714 0 0)
(6.39229 0 0)
(6.44745 0 0)
(6.5026 0 0)
(6.55775 0 0)
(6.61291 0 0)
(6.66806 0 0)
(6.72322 0 0)
(6.77837 0 0)
(6.83353 0 0)
(6.88869 0 0)
(6.94384 0 0)
(6.999 0 0)
(7.05416 0 0)
(7.10931 0 0)
(7.16447 0 0)
(7.21963 0 0)
(7.27479 0 0)
(7.32995 0 0)
(7.38511 0 0)
(7.44027 0 0)
(7.49542 0 0)
(7.55058 0 0)
(7.60574 0 0)
(7.66091 0 0)
(7.71607 0 0)
(7.77123 0 0)
(7.82639 0 0)
(7.88155 0 0)
(7.93671 0 0)
(7.99187 0 0)
(8.04704 0 0)
(8.1022 0 0)
(8.15736 0 0)
(8.21253 0 0)
(8.26769 0 0)
(8.32285 0 0)
(8.37802 0 0)
(8.43318 0 0)
(8.48835 0 0)
(8.54351 0 0)
(8.59868 0 0)
(8.65384 0 0)
(8.70901 0 0)
(8.76418 0 0)
(8.81934 0 0)
(8.87451 0 0)
(8.92968 0 0)
(8.98485 0 0)
(9.04001 0 0)
(9.09518 0 0)
(9.15035 0 0)
(9.20552 0 0)
(9.26069 0 0)
(9.31586 0 0)
(9.37103 0 0)
(9.4262 0 0)
(9.48137 0 0)
(9.53654 0 0)
(9.59171 0 0)
(9.64688 0 0)
(9.70205 0 0)
(9.75722 0 0)
(9.8124 0 0)
(9.86757 0 0)
(9.92274 0 0)
(9.97792 0 0)
(10.0331 0 0)
(10.0883 0 0)
(10.1434 0 0)
(10.1986 0 0)
(10.2538 0 0)
(10.309 0 0)
(10.3641 0 0)
(10.4193 0 0)
(10.4745 0 0)
(10.5297 0 0)
(10.5848 0 0)
(10.64 0 0)
(10.6952 0 0)
(10.7504 0 0)
(10.8055 0 0)
(10.8607 0 0)
(10.9159 0 0)
(10.9711 0 0)
(11.0263 0 0)
(11.0814 0 0)
(11.1366 0 0)
(11.1918 0 0)
(11.247 0 0)
(11.3022 0 0)
(11.3573 0 0)
(11.4125 0 0)
(11.4677 0 0)
(11.5229 0 0)
(11.5781 0 0)
(11.6332 0 0)
(11.6884 0 0)
(11.7436 0 0)
(11.7988 0 0)
(11.854 0 0)
(11.9092 0 0)
(11.9643 0 0)
(12.0195 0 0)
(12.0747 0 0)
(12.1299 0 0)
(12.1851 0 0)
(12.2403 0 0)
(12.2955 0 0)
(12.3506 0 0)
(12.4058 0 0)
(12.461 0 0)
(12.5162 0 0)
(12.5714 0 0)
(12.6266 0 0)
(12.6818 0 0)
(12.737 0 0)
(12.7921 0 0)
(12.8473 0 0)
(12.9025 0 0)
(12.9577 0 0)
(13.0129 0 0)
(13.0681 0 0)
(13.1233 0 0)
(13.1785 0 0)
(13.2337 0 0)
(13.2889 0 0)
(13.344 0 0)
(13.3992 0 0)
(13.4544 0 0)
(13.5096 0 0)
(13.5648 0 0)
(13.62 0 0)
(13.6752 0 0)
(13.7304 0 0)
(13.7856 0 0)
(13.8408 0 0)
(13.896 0 0)
(13.9512 0 0)
(14.0064 0 0)
(14.0616 0 0)
(14.1168 0 0)
(14.172 0 0)
(14.2272 0 0)
(14.2824 0 0)
(14.3375 0 0)
(14.3927 0 0)
(14.4479 0 0)
(14.5031 0 0)
(14.5583 0 0)
(14.6135 0 0)
(14.6687 0 0)
(14.7239 0 0)
(14.7791 0 0)
(14.8343 0 0)
(14.8895 0 0)
(14.9447 0 0)
(14.9999 0 0)
(15.0551 0 0)
(15.1103 0 0)
(15.1655 0 0)
(15.2207 0 0)
(15.2759 0 0)
(15.3311 0 0)
(15.3863 0 0)
(15.4416 0 0)
(15.4968 0 0)
(15.552 0 0)
(15.6072 0 0)
(15.6624 0 0)
(15.7176 0 0)
(15.7728 0 0)
(15.828 0 0)
(15.8832 0 0)
(15.9384 0 0)
(15.9936 0 0)
(16.0488 0 0)
(16.104 0 0)
(16.1592 0 0)
(16.2144 0 0)
(16.2696 0 0)
(16.3248 0 0)
(16.38 0 0)
(16.4353 0 0)
(16.4905 0 0)
(16.5457 0 0)
(16.6009 0 0)
(16.6561 0 0)
(16.7113 0 0)
(16.7665 0 0)
(16.8217 0 0)
(16.8769 0 0)
(16.9321 0 0)
(16.9874 0 0)
(17.0426 0 0)
(17.0978 0 0)
(17.153 0 0)
(17.2082 0 0)
(17.2634 0 0)
(17.3186 0 0)
(17.3738 0 0)
(17.4291 0 0)
(17.4843 0 0)
(17.5395 0 0)
(17.5947 0 0)
(17.6499 0 0)
(17.7051 0 0)
(17.7603 0 0)
(17.8156 0 0)
(17.8708 0 0)
(17.926 0 0)
(17.9812 0 0)
(18.0364 0 0)
(18.0916 0 0)
(18.1469 0 0)
(18.2021 0 0)
(18.2573 0 0)
(18.3125 0 0)
(18.3677 0 0)
(18.4229 0 0)
(18.4782 0 0)
(18.5334 0 0)
(18.5886 0 0)
(18.6438 0 0)
(18.699 0 0)
(18.7543 0 0)
(18.8095 0 0)
(18.8647 0 0)
(18.9199 0 0)
(18.9752 0 0)
(19.0304 0 0)
(19.0856 0 0)
(19.1408 0 0)
(19.196 0 0)
(19.2513 0 0)
(19.3065 0 0)
(19.3617 0 0)
(19.4169 0 0)
(19.4722 0 0)
(19.5274 0 0)
(19.5826 0 0)
(19.6378 0 0)
(19.6931 0 0)
(19.7483 0 0)
(19.8035 0 0)
(19.8587 0 0)
(19.914 0 0)
(19.9692 0 0)
(20.0244 0 0)
(20.0797 0 0)
(20.1349 0 0)
(20.1901 0 0)
(20.2453 0 0)
(20.3006 0 0)
(20.3558 0 0)
(20.411 0 0)
(20.4663 0 0)
(20.5215 0 0)
(20.5767 0 0)
(20.632 0 0)
(20.6872 0 0)
(20.7424 0 0)
(20.7977 0 0)
(20.8529 0 0)
(20.9081 0 0)
(20.9634 0 0)
(21.0186 0 0)
(21.0738 0 0)
(21.1291 0 0)
(21.1843 0 0)
(21.2395 0 0)
(21.2948 0 0)
(21.35 0 0)
(21.4052 0 0)
(21.4605 0 0)
(21.5157 0 0)
(21.5709 0 0)
(21.6262 0 0)
(21.6814 0 0)
(21.7366 0 0)
(21.7919 0 0)
(21.8471 0 0)
(21.9024 0 0)
(21.9576 0 0)
(22.0128 0 0)
(22.0681 0 0)
(22.1233 0 0)
(22.1786 0 0)
(22.2338 0 0)
(22.289 0 0)
(22.3443 0 0)
(22.3995 0 0)
(22.4548 0 0)
(22.51 0 0)
(22.5652 0 0)
(22.6205 0 0)
(22.6757 0 0)
(22.731 0 0)
(22.7862 0 0)
(22.8415 0 0)
(22.8967 0 0)
(22.9519 0 0)
(23.0072 0 0)
(23.0624 0 0)
(23.1177 0 0)
(23.1729 0 0)
(23.2282 0 0)
(23.2834 0 0)
(23.3387 0 0)
(23.3939 0 0)
(23.4491 0 0)
(23.5044 0 0)
(23.5596 0 0)
(23.6149 0 0)
(23.6701 0 0)
(23.7254 0 0)
(23.7806 0 0)
(23.8359 0 0)
(23.8911 0 0)
(23.9464 0 0)
(24.0016 0 0)
(24.0569 0 0)
(24.1121 0 0)
(24.1674 0 0)
(24.2226 0 0)
(24.2779 0 0)
(24.3331 0 0)
(24.3884 0 0)
(24.4436 0 0)
(24.4989 0 0)
(24.5541 0 0)
(24.6094 0 0)
(24.6646 0 0)
(24.7199 0 0)
(24.7752 0 0)
(24.8304 0 0)
(24.8857 0 0)
(24.9409 0 0)
(24.9962 0 0)
(25.0514 0 0)
(25.1067 0 0)
(25.1619 0 0)
(25.2172 0 0)
(25.2724 0 0)
(25.3277 0 0)
(25.383 0 0)
(25.4382 0 0)
(25.4935 0 0)
(25.5487 0 0)
(25.604 0 0)
(25.6593 0 0)
(25.7145 0 0)
(25.7698 0 0)
(25.825 0 0)
(25.8803 0 0)
(25.9355 0 0)
(25.9908 0 0)
(26.0461 0 0)
(26.1013 0 0)
(26.1566 0 0)
(26.2119 0 0)
(26.2671 0 0)
(26.3224 0 0)
(26.3776 0 0)
(26.4329 0 0)
(26.4882 0 0)
(26.5434 0 0)
(26.5987 0 0)
(26.654 0 0)
(26.7092 0 0)
(26.7645 0 0)
(26.8197 0 0)
(26.875 0 0)
(26.9303 0 0)
(26.9855 0 0)
(27.0408 0 0)
(27.0961 0 0)
(27.1513 0 0)
(27.2066 0 0)
(27.2619 0 0)
(27.3171 0 0)
(27.3724 0 0)
(27.4277 0 0)
(27.4829 0 0)
(27.5382 0 0)
(27.5935 0 0)
(27.6488 0 0)
(27.704 0 0)
(27.7593 0 0)
(27.8146 0 0)
(27.8698 0 0)
(27.9251 0 0)
(27.9804 0 0)
(28.0356 0 0)
(28.0909 0 0)
(28.1462 0 0)
(28.2015 0 0)
(28.2567 0 0)
(28.312 0 0)
(28.3673 0 0)
(28.4226 0 0)
(28.4778 0 0)
(28.5331 0 0)
(28.5884 0 0)
(28.6436 0 0)
(28.6989 0 0)
(28.7542 0 0)
(28.8095 0 0)
(28.8648 0 0)
(28.92 0 0)
(28.9753 0 0)
(29.0306 0 0)
(29.0859 0 0)
(29.1411 0 0)
(29.1964 0 0)
(29.2517 0 0)
(29.307 0 0)
(29.3622 0 0)
(29.4175 0 0)
(29.4728 0 0)
(29.5281 0 0)
(29.5834 0 0)
(29.6386 0 0)
(29.6939 0 0)
(29.7492 0 0)
(29.8045 0 0)
(29.8598 0 0)
(29.915 0 0)
(29.9703 0 0)
(30.0256 0 0)
(30.0809 0 0)
(30.1362 0 0)
(30.1915 0 0)
(30.2467 0 0)
(30.302 0 0)
(30.3573 0 0)
(30.4126 0 0)
(30.4679 0 0)
(30.5232 0 0)
(30.5784 0 0)
(30.6337 0 0)
(30.689 0 0)
(30.7443 0 0)
(30.7996 0 0)
(30.8549 0 0)
(30.9102 0 0)
(30.9654 0 0)
(31.0207 0 0)
(31.076 0 0)
(31.1313 0 0)
(31.1866 0 0)
(31.2419 0 0)
(31.2972 0 0)
(31.3525 0 0)
(31.4078 0 0)
(31.463 0 0)
(31.5183 0 0)
(31.5736 0 0)
(31.6289 0 0)
(31.6842 0 0)
(31.7395 0 0)
(31.7948 0 0)
(31.8501 0 0)
(31.9054 0 0)
(31.9607 0 0)
(32.016 0 0)
(32.0713 0 0)
(32.1265 0 0)
(32.1818 0 0)
(32.2371 0 0)
(32.2924 0 0)
(32.3477 0 0)
(32.403 0 0)
(32.4583 0 0)
(32.5136 0 0)
(32.5689 0 0)
(32.6242 0 0)
(32.6795 0 0)
(32.7348 0 0)
(32.7901 0 0)
(32.8454 0 0)
(32.9007 0 0)
(32.956 0 0)
(33.0113 0 0)
(33.0666 0 0)
(33.1219 0 0)
(33.1772 0 0)
(33.2325 0 0)
(33.2878 0 0)
(33.3431 0 0)
(33.3984 0 0)
(33.4537 0 0)
(33.509 0 0)
(33.5643 0 0)
(33.6196 0 0)
(33.6749 0 0)
(33.7302 0 0)
(33.7855 0 0)
(33.8408 0 0)
(33.8961 0 0)
(33.9514 0 0)
(34.0067 0 0)
(34.062 0 0)
(34.1173 0 0)
(34.1726 0 0)
(34.2279 0 0)
(34.2832 0 0)
(34.3385 0 0)
(34.3938 0 0)
(34.4491 0 0)
(34.5044 0 0)
(34.5598 0 0)
(34.6151 0 0)
(34.6704 0 0)
(34.7257 0 0)
(34.781 0 0)
(34.8363 0 0)
(34.8916 0 0)
(34.9469 0 0)
(35.0022 0 0)
(35.0575 0 0)
(35.1128 0 0)
(35.1681 0 0)
(35.2235 0 0)
(35.2788 0 0)
(35.3341 0 0)
(35.3894 0 0)
(35.4447 0 0)
(35.5 0 0)
(35.5553 0 0)
(35.6106 0 0)
(35.6659 0 0)
(35.7213 0 0)
(35.7766 0 0)
(35.8319 0 0)
(35.8872 0 0)
(35.9425 0 0)
(35.9978 0 0)
(36.0531 0 0)
(36.1085 0 0)
(36.1638 0 0)
(36.2191 0 0)
(36.2744 0 0)
(36.3297 0 0)
(36.385 0 0)
(36.4404 0 0)
(36.4957 0 0)
(36.551 0 0)
(36.6063 0 0)
(36.6616 0 0)
(36.7169 0 0)
(36.7723 0 0)
(36.8276 0 0)
(36.8829 0 0)
(36.9382 0 0)
(36.9935 0 0)
(37.0489 0 0)
(37.1042 0 0)
(37.1595 0 0)
(37.2148 0 0)
(37.2701 0 0)
(37.3255 0 0)
(37.3808 0 0)
(37.4361 0 0)
(37.4914 0 0)
(37.5467 0 0)
(37.6021 0 0)
(37.6574 0 0)
(37.7127 0 0)
(37.768 0 0)
(37.8234 0 0)
(37.8787 0 0)
(37.934 0 0)
(37.9893 0 0)
(38.0447 0 0)
(38.1 0 0)
(38.1553 0 0)
(38.2106 0 0)
(38.266 0 0)
(38.3213 0 0)
(38.3766 0 0)
(38.4319 0 0)
(38.4873 0 0)
(38.5426 0 0)
(38.5979 0 0)
(38.6533 0 0)
(38.7086 0 0)
(38.7639 0 0)
(38.8192 0 0)
(38.8746 0 0)
(38.9299 0 0)
(38.9852 0 0)
(39.0406 0 0)
(39.0959 0 0)
(39.1512 0 0)
(39.2066 0 0)
(39.2619 0 0)
(39.3172 0 0)
(39.3726 0 0)
(39.4279 0 0)
(39.4832 0 0)
(39.5386 0 0)
(39.5939 0 0)
(39.6492 0 0)
(39.7046 0 0)
(39.7599 0 0)
(39.8152 0 0)
(39.8706 0 0)
(39.9259 0 0)
(39.9812 0 0)
(40.0366 0 0)
(40.0919 0 0)
(40.1472 0 0)
(40.2026 0 0)
(40.2579 0 0)
(40.3133 0 0)
(40.3686 0 0)
(40.4239 0 0)
(40.4793 0 0)
(40.5346 0 0)
(40.59 0 0)
(40.6453 0 0)
(40.7006 0 0)
(40.756 0 0)
(40.8113 0 0)
(40.8667 0 0)
(40.922 0 0)
(40.9773 0 0)
(41.0327 0 0)
(41.088 0 0)
(41.1434 0 0)
(41.1987 0 0)
(41.254 0 0)
(41.3094 0 0)
(41.3647 0 0)
(41.4201 0 0)
(41.4754 0 0)
(41.5308 0 0)
(41.5861 0 0)
(41.6415 0 0)
(41.6968 0 0)
(41.7521 0 0)
(41.8075 0 0)
(41.8628 0 0)
(41.9182 0 0)
(41.9735 0 0)
(42.0289 0 0)
(42.0842 0 0)
(42.1396 0 0)
(42.1949 0 0)
(42.2503 0 0)
(42.3056 0 0)
(42.361 0 0)
(42.4163 0 0)
(42.4717 0 0)
(42.527 0 0)
(42.5824 0 0)
(42.6377 0 0)
(42.6931 0 0)
(42.7484 0 0)
(42.8038 0 0)
(42.8591 0 0)
(42.9145 0 0)
(42.9698 0 0)
(43.0252 0 0)
(43.0805 0 0)
(43.1359 0 0)
(43.1912 0 0)
(43.2466 0 0)
(43.3019 0 0)
(43.3573 0 0)
(43.4126 0 0)
(43.468 0 0)
(43.5234 0 0)
(43.5787 0 0)
(43.6341 0 0)
(43.6894 0 0)
(43.7448 0 0)
(43.8001 0 0)
(43.8555 0 0)
(43.9108 0 0)
(43.9662 0 0)
(44.0216 0 0)
(44.0769 0 0)
(44.1323 0 0)
(44.1876 0 0)
(44.243 0 0)
(44.2984 0 0)
(44.3537 0 0)
(44.4091 0 0)
(44.4644 0 0)
(44.5198 0 0)
(44.5752 0 0)
(44.6305 0 0)
(44.6859 0 0)
(44.7412 0 0)
(44.7966 0 0)
(44.852 0 0)
(44.9073 0 0)
(44.9627 0 0)
(45.0181 0 0)
(45.0734 0 0)
(45.1288 0 0)
(45.1841 0 0)
(45.2395 0 0)
(45.2949 0 0)
(45.3502 0 0)
(45.4056 0 0)
(45.461 0 0)
(45.5163 0 0)
(45.5717 0 0)
(45.6271 0 0)
(45.6824 0 0)
(45.7378 0 0)
(45.7932 0 0)
(45.8485 0 0)
(45.9039 0 0)
(45.9593 0 0)
(46.0146 0 0)
(46.07 0 0)
(46.1254 0 0)
(46.1807 0 0)
(46.2361 0 0)
(46.2915 0 0)
(46.3469 0 0)
(46.4022 0 0)
(46.4576 0 0)
(46.513 0 0)
(46.5683 0 0)
(46.6237 0 0)
(46.6791 0 0)
(46.7345 0 0)
(46.7898 0 0)
(46.8452 0 0)
(46.9006 0 0)
(46.9559 0 0)
(47.0113 0 0)
(47.0667 0 0)
(47.1221 0 0)
(47.1774 0 0)
(47.2328 0 0)
(47.2882 0 0)
(47.3436 0 0)
(47.3989 0 0)
(47.4543 0 0)
(47.5097 0 0)
(47.5651 0 0)
(47.6205 0 0)
(47.6758 0 0)
(47.7312 0 0)
(47.7866 0 0)
(47.842 0 0)
(47.8973 0 0)
(47.9527 0 0)
(48.0081 0 0)
(48.0635 0 0)
(48.1189 0 0)
(48.1742 0 0)
(48.2296 0 0)
(48.285 0 0)
(48.3404 0 0)
(48.3958 0 0)
(48.4511 0 0)
(48.5065 0 0)
(48.5619 0 0)
(48.6173 0 0)
(48.6727 0 0)
(48.7281 0 0)
(48.7834 0 0)
(48.8388 0 0)
(48.8942 0 0)
(48.9496 0 0)
(49.005 0 0)
(49.0604 0 0)
(49.1157 0 0)
(49.1711 0 0)
(49.2265 0 0)
(49.2819 0 0)
(49.3373 0 0)
(49.3927 0 0)
(49.4481 0 0)
(49.5035 0 0)
(49.5588 0 0)
(49.6142 0 0)
(49.6696 0 0)
(49.725 0 0)
(49.7804 0 0)
(49.8358 0 0)
(49.8912 0 0)
(49.9466 0 0)
(50.002 0 0)
(50.0573 0 0)
(50.1127 0 0)
(50.1681 0 0)
(50.2235 0 0)
(50.2789 0 0)
(50.3343 0 0)
(50.3897 0 0)
(50.4451 0 0)
(50.5005 0 0)
(50.5559 0 0)
(50.6113 0 0)
(50.6667 0 0)
(50.722 0 0)
(50.7774 0 0)
(50.8328 0 0)
(50.8882 0 0)
(50.9436 0 0)
(50.999 0 0)
(51.0544 0 0)
(51.1098 0 0)
(51.1652 0 0)
(51.2206 0 0)
(51.276 0 0)
(51.3314 0 0)
(51.3868 0 0)
(51.4422 0 0)
(51.4976 0 0)
(51.553 0 0)
(51.6084 0 0)
(51.6638 0 0)
(51.7192 0 0)
(51.7746 0 0)
(51.83 0 0)
(51.8854 0 0)
(51.9408 0 0)
(51.9962 0 0)
(52.0516 0 0)
(52.107 0 0)
(52.1624 0 0)
(52.2178 0 0)
(52.2732 0 0)
(52.3286 0 0)
(52.384 0 0)
(52.4394 0 0)
(52.4948 0 0)
(52.5502 0 0)
(52.6056 0 0)
(52.661 0 0)
(52.7164 0 0)
(52.7718 0 0)
(52.8272 0 0)
(52.8826 0 0)
(52.938 0 0)
(52.9935 0 0)
(53.0489 0 0)
(53.1043 0 0)
(53.1597 0 0)
(53.2151 0 0)
(53.2705 0 0)
(53.3259 0 0)
(53.3813 0 0)
(53.4367 0 0)
(53.4921 0 0)
(53.5475 0 0)
(53.6029 0 0)
(53.6584 0 0)
(53.7138 0 0)
(53.7692 0 0)
(53.8246 0 0)
(53.88 0 0)
(53.9354 0 0)
(53.9908 0 0)
(54.0462 0 0)
(54.1016 0 0)
(54.1571 0 0)
(54.2125 0 0)
(54.2679 0 0)
(54.3233 0 0)
(54.3787 0 0)
(54.4341 0 0)
(54.4895 0 0)
(54.5449 0 0)
(54.6004 0 0)
(54.6558 0 0)
(54.7112 0 0)
(54.7666 0 0)
(54.822 0 0)
(54.8774 0 0)
(54.9329 0 0)
(54.9883 0 0)
(55.0437 0 0)
(55.0991 0 0)
(55.1545 0 0)
(55.2099 0 0)
(55.2654 0 0)
(55.3208 0 0)
(55.3762 0 0)
(55.4316 0 0)
(55.487 0 0)
(55.5425 0 0)
(55.5979 0 0)
(55.6533 0 0)
(55.7087 0 0)
(55.7641 0 0)
(55.8196 0 0)
(55.875 0 0)
(55.9304 0 0)
(55.9858 0 0)
(56.0412 0 0)
(56.0967 0 0)
(56.1521 0 0)
(56.2075 0 0)
(56.2629 0 0)
(56.3184 0 0)
(56.3738 0 0)
(56.4292 0 0)
(56.4846 0 0)
(56.5401 0 0)
(56.5955 0 0)
(56.6509 0 0)
(56.7063 0 0)
(56.7618 0 0)
(56.8172 0 0)
(56.8726 0 0)
(56.928 0 0)
(56.9835 0 0)
(57.0389 0 0)
(57.0943 0 0)
(57.1498 0 0)
(57.2052 0 0)
(57.2606 0 0)
(57.316 0 0)
(57.3715 0 0)
(57.4269 0 0)
(57.4823 0 0)
(57.5378 0 0)
(57.5932 0 0)
(57.6486 0 0)
(57.7041 0 0)
(57.7595 0 0)
(57.8149 0 0)
(57.8704 0 0)
(57.9258 0 0)
(57.9812 0 0)
(58.0367 0 0)
(58.0921 0 0)
(58.1475 0 0)
(58.203 0 0)
(58.2584 0 0)
(58.3138 0 0)
(58.3693 0 0)
(58.4247 0 0)
(58.4801 0 0)
(58.5356 0 0)
(58.591 0 0)
(58.6464 0 0)
(58.7019 0 0)
(58.7573 0 0)
(58.8128 0 0)
(58.8682 0 0)
(58.9236 0 0)
(58.9791 0 0)
(59.0345 0 0)
(59.0899 0 0)
(59.1454 0 0)
(59.2008 0 0)
(59.2563 0 0)
(59.3117 0 0)
(59.3671 0 0)
(59.4226 0 0)
(59.478 0 0)
(59.5335 0 0)
(59.5889 0 0)
(59.6443 0 0)
(59.6998 0 0)
(59.7552 0 0)
(59.8107 0 0)
(59.8661 0 0)
(59.9216 0 0)
(59.977 0 0)
(60.0324 0 0)
(60.0879 0 0)
(60.1433 0 0)
(60.1988 0 0)
(60.2542 0 0)
(60.3097 0 0)
(60.3651 0 0)
(60.4206 0 0)
(60.476 0 0)
(60.5315 0 0)
(60.5869 0 0)
(60.6423 0 0)
(60.6978 0 0)
(60.7532 0 0)
(60.8087 0 0)
(60.8641 0 0)
(60.9196 0 0)
(60.975 0 0)
(61.0305 0 0)
(61.0859 0 0)
(61.1414 0 0)
(61.1968 0 0)
(61.2523 0 0)
(61.3077 0 0)
(61.3632 0 0)
(61.4186 0 0)
(61.4741 0 0)
(61.5295 0 0)
(61.585 0 0)
(61.6404 0 0)
(61.6959 0 0)
(61.7513 0 0)
(61.8068 0 0)
(61.8623 0 0)
(61.9177 0 0)
(61.9732 0 0)
(62.0286 0 0)
(62.0841 0 0)
(62.1395 0 0)
(62.195 0 0)
(62.2504 0 0)
(62.3059 0 0)
(62.3613 0 0)
(62.4168 0 0)
(62.4723 0 0)
(62.5277 0 0)
(62.5832 0 0)
(62.6386 0 0)
(62.6941 0 0)
(62.7496 0 0)
(62.805 0 0)
(62.8605 0 0)
(62.9159 0 0)
(62.9714 0 0)
(63.0268 0 0)
(63.0823 0 0)
(63.1378 0 0)
(63.1932 0 0)
(63.2487 0 0)
(63.3041 0 0)
(63.3596 0 0)
(63.4151 0 0)
(63.4705 0 0)
(63.526 0 0)
(63.5815 0 0)
(63.6369 0 0)
(63.6924 0 0)
(63.7478 0 0)
(63.8033 0 0)
(63.8588 0 0)
(63.9142 0 0)
(63.9697 0 0)
(64.0252 0 0)
(64.0806 0 0)
(64.1361 0 0)
(64.1916 0 0)
(64.247 0 0)
(64.3025 0 0)
(64.358 0 0)
(64.4134 0 0)
(64.4689 0 0)
(64.5244 0 0)
(64.5798 0 0)
(64.6353 0 0)
(64.6908 0 0)
(64.7462 0 0)
(64.8017 0 0)
(64.8572 0 0)
(64.9126 0 0)
(64.9681 0 0)
(65.0236 0 0)
(65.0791 0 0)
(65.1345 0 0)
(65.19 0 0)
(65.2455 0 0)
(65.3009 0 0)
(65.3564 0 0)
(65.4119 0 0)
(65.4674 0 0)
(65.5228 0 0)
(65.5783 0 0)
(65.6338 0 0)
(65.6893 0 0)
(65.7447 0 0)
(65.8002 0 0)
(65.8557 0 0)
(65.9112 0 0)
(65.9666 0 0)
(66.0221 0 0)
(66.0776 0 0)
(66.1331 0 0)
(66.1885 0 0)
(66.244 0 0)
(66.2995 0 0)
(66.355 0 0)
(66.4104 0 0)
(66.4659 0 0)
(66.5214 0 0)
(66.5769 0 0)
(66.6324 0 0)
(66.6878 0 0)
(66.7433 0 0)
(66.7988 0 0)
(66.8543 0 0)
(66.9098 0 0)
(66.9652 0 0)
(67.0207 0 0)
(67.0762 0 0)
(67.1317 0 0)
(67.1872 0 0)
(67.2426 0 0)
(67.2981 0 0)
(67.3536 0 0)
(67.4091 0 0)
(67.4646 0 0)
(67.5201 0 0)
(67.5755 0 0)
(67.631 0 0)
(67.6865 0 0)
(67.742 0 0)
(67.7975 0 0)
(67.853 0 0)
(67.9084 0 0)
(67.9639 0 0)
(68.0194 0 0)
(68.0749 0 0)
(68.1304 0 0)
(68.1859 0 0)
(68.2414 0 0)
(68.2969 0 0)
(68.3523 0 0)
(68.4078 0 0)
(68.4633 0 0)
(68.5188 0 0)
(68.5743 0 0)
(68.6298 0 0)
(68.6853 0 0)
(68.7408 0 0)
(68.7963 0 0)
(68.8517 0 0)
(68.9072 0 0)
(68.9627 0 0)
(69.0182 0 0)
(69.0737 0 0)
(69.1292 0 0)
(69.1847 0 0)
(69.2402 0 0)
(69.2957 0 0)
(69.3512 0 0)
(69.4067 0 0)
(69.4622 0 0)
(69.5177 0 0)
(69.5731 0 0)
(69.6286 0 0)
(69.6841 0 0)
(69.7396 0 0)
(69.7951 0 0)
(69.8506 0 0)
(69.9061 0 0)
(69.9616 0 0)
(70.0171 0 0)
(70.0726 0 0)
(70.1281 0 0)
(70.1836 0 0)
(70.2391 0 0)
(70.2946 0 0)
(70.3501 0 0)
(70.4056 0 0)
(70.4611 0 0)
(70.5166 0 0)
(70.5721 0 0)
(70.6276 0 0)
(70.6831 0 0)
(70.7386 0 0)
(70.7941 0 0)
(70.8496 0 0)
(70.9051 0 0)
(70.9606 0 0)
(71.0161 0 0)
(71.0716 0 0)
(71.1271 0 0)
(71.1826 0 0)
(71.2381 0 0)
(71.2936 0 0)
(71.3491 0 0)
(71.4046 0 0)
(71.4601 0 0)
(71.5156 0 0)
(71.5711 0 0)
(71.6266 0 0)
(71.6821 0 0)
(71.7376 0 0)
(71.7932 0 0)
(71.8487 0 0)
(71.9042 0 0)
(71.9597 0 0)
(72.0152 0 0)
(72.0707 0 0)
(72.1262 0 0)
(72.1817 0 0)
(72.2372 0 0)
(72.2927 0 0)
(72.3482 0 0)
(72.4037 0 0)
(72.4592 0 0)
(72.5148 0 0)
(72.5703 0 0)
(72.6258 0 0)
(72.6813 0 0)
(72.7368 0 0)
(72.7923 0 0)
(72.8478 0 0)
(72.9033 0 0)
(72.9588 0 0)
(73.0144 0 0)
(73.0699 0 0)
(73.1254 0 0)
(73.1809 0 0)
(73.2364 0 0)
(73.2919 0 0)
(73.3474 0 0)
(73.403 0 0)
(73.4585 0 0)
(73.514 0 0)
(73.5695 0 0)
(73.625 0 0)
(73.6805 0 0)
(73.736 0 0)
(73.7916 0 0)
(73.8471 0 0)
(73.9026 0 0)
(73.9581 0 0)
(74.0136 0 0)
(74.0691 0 0)
(74.1247 0 0)
(74.1802 0 0)
(74.2357 0 0)
(74.2912 0 0)
(74.3467 0 0)
(74.4023 0 0)
(74.4578 0 0)
(74.5133 0 0)
(74.5688 0 0)
(74.6243 0 0)
(74.6799 0 0)
(74.7354 0 0)
(74.7909 0 0)
(74.8464 0 0)
(74.9019 0 0)
(74.9575 0 0)
(75.013 0 0)
(75.0685 0 0)
(75.124 0 0)
(75.1796 0 0)
(75.2351 0 0)
(75.2906 0 0)
(75.3461 0 0)
(75.4017 0 0)
(75.4572 0 0)
(75.5127 0 0)
(75.5682 0 0)
(75.6238 0 0)
(75.6793 0 0)
(75.7348 0 0)
(75.7903 0 0)
(75.8459 0 0)
(75.9014 0 0)
(75.9569 0 0)
(76.0125 0 0)
(76.068 0 0)
(76.1235 0 0)
(76.179 0 0)
(76.2346 0 0)
(76.2901 0 0)
(76.3456 0 0)
(76.4012 0 0)
(76.4567 0 0)
(76.5122 0 0)
(76.5677 0 0)
(76.6233 0 0)
(76.6788 0 0)
(76.7343 0 0)
(76.7899 0 0)
(76.8454 0 0)
(76.9009 0 0)
(76.9565 0 0)
(77.012 0 0)
(77.0675 0 0)
(77.1231 0 0)
(77.1786 0 0)
(77.2341 0 0)
(77.2897 0 0)
(77.3452 0 0)
(77.4007 0 0)
(77.4563 0 0)
(77.5118 0 0)
(77.5674 0 0)
(77.6229 0 0)
(77.6784 0 0)
(77.734 0 0)
(77.7895 0 0)
(77.845 0 0)
(77.9006 0 0)
(77.9561 0 0)
(78.0116 0 0)
(78.0672 0 0)
(78.1227 0 0)
(78.1783 0 0)
(78.2338 0 0)
(78.2893 0 0)
(78.3449 0 0)
(78.4004 0 0)
(78.456 0 0)
(78.5115 0 0)
(78.567 0 0)
(78.6226 0 0)
(78.6781 0 0)
(78.7337 0 0)
(78.7892 0 0)
(78.8448 0 0)
(78.9003 0 0)
(78.9558 0 0)
(79.0114 0 0)
(79.0669 0 0)
(79.1225 0 0)
(79.178 0 0)
(79.2336 0 0)
(79.2891 0 0)
(79.3447 0 0)
(79.4002 0 0)
(79.4557 0 0)
(79.5113 0 0)
(79.5668 0 0)
(79.6224 0 0)
(79.6779 0 0)
(79.7335 0 0)
(79.789 0 0)
(79.8446 0 0)
(79.9001 0 0)
(79.9557 0 0)
(80.0112 0 0)
(80.0668 0 0)
(80.1223 0 0)
(80.1779 0 0)
(80.2334 0 0)
(80.289 0 0)
(80.3445 0 0)
(80.4001 0 0)
(80.4556 0 0)
(80.5112 0 0)
(80.5667 0 0)
(80.6223 0 0)
(80.6778 0 0)
(80.7334 0 0)
(80.7889 0 0)
(80.8445 0 0)
(80.9 0 0)
(80.9556 0 0)
(81.0112 0 0)
(81.0667 0 0)
(81.1223 0 0)
(81.1778 0 0)
(81.2334 0 0)
(81.2889 0 0)
(81.3445 0 0)
(81.4 0 0)
(81.4556 0 0)
(81.5111 0 0)
(81.5667 0 0)
(81.6223 0 0)
(81.6778 0 0)
(81.7334 0 0)
(81.7889 0 0)
(81.8445 0 0)
(81.9001 0 0)
(81.9556 0 0)
(82.0112 0 0)
(82.0667 0 0)
(82.1223 0 0)
(82.1779 0 0)
(82.2334 0 0)
(82.289 0 0)
(82.3445 0 0)
(82.4001 0 0)
(82.4557 0 0)
(82.5112 0 0)
(82.5668 0 0)
(82.6223 0 0)
(82.6779 0 0)
(82.7335 0 0)
(82.789 0 0)
(82.8446 0 0)
(82.9002 0 0)
(82.9557 0 0)
(83.0113 0 0)
(83.0668 0 0)
(83.1224 0 0)
(83.178 0 0)
(83.2335 0 0)
(83.2891 0 0)
(83.3447 0 0)
(83.4002 0 0)
(83.4558 0 0)
(83.5114 0 0)
(83.5669 0 0)
(83.6225 0 0)
(83.6781 0 0)
(83.7336 0 0)
(83.7892 0 0)
(83.8448 0 0)
(83.9004 0 0)
(83.9559 0 0)
(84.0115 0 0)
(84.0671 0 0)
(84.1226 0 0)
(84.1782 0 0)
(84.2338 0 0)
(84.2893 0 0)
(84.3449 0 0)
(84.4005 0 0)
(84.4561 0 0)
(84.5116 0 0)
(84.5672 0 0)
(84.6228 0 0)
(84.6783 0 0)
(84.7339 0 0)
(84.7895 0 0)
(84.8451 0 0)
(84.9006 0 0)
(84.9562 0 0)
(85.0118 0 0)
(85.0674 0 0)
(85.1229 0 0)
(85.1785 0 0)
(85.2341 0 0)
(85.2897 0 0)
(85.3452 0 0)
(85.4008 0 0)
(85.4564 0 0)
(85.512 0 0)
(85.5676 0 0)
(85.6231 0 0)
(85.6787 0 0)
(85.7343 0 0)
(85.7899 0 0)
(85.8454 0 0)
(85.901 0 0)
(85.9566 0 0)
(86.0122 0 0)
(86.0678 0 0)
(86.1233 0 0)
(86.1789 0 0)
(86.2345 0 0)
(86.2901 0 0)
(86.3457 0 0)
(86.4013 0 0)
(86.4568 0 0)
(86.5124 0 0)
(86.568 0 0)
(86.6236 0 0)
(86.6792 0 0)
(86.7347 0 0)
(86.7903 0 0)
(86.8459 0 0)
(86.9015 0 0)
(86.9571 0 0)
(87.0127 0 0)
(87.0683 0 0)
(87.1238 0 0)
(87.1794 0 0)
(87.235 0 0)
(87.2906 0 0)
(87.3462 0 0)
(87.4018 0 0)
(87.4574 0 0)
(87.5129 0 0)
(87.5685 0 0)
(87.6241 0 0)
(87.6797 0 0)
(87.7353 0 0)
(87.7909 0 0)
(87.8465 0 0)
(87.9021 0 0)
(87.9577 0 0)
(88.0132 0 0)
(88.0688 0 0)
(88.1244 0 0)
(88.18 0 0)
(88.2356 0 0)
(88.2912 0 0)
(88.3468 0 0)
(88.4024 0 0)
(88.458 0 0)
(88.5136 0 0)
(88.5692 0 0)
(88.6248 0 0)
(88.6804 0 0)
(88.7359 0 0)
(88.7915 0 0)
(88.8471 0 0)
(88.9027 0 0)
(88.9583 0 0)
(89.0139 0 0)
(89.0695 0 0)
(89.1251 0 0)
(89.1807 0 0)
(89.2363 0 0)
(89.2919 0 0)
(89.3475 0 0)
(89.4031 0 0)
(89.4587 0 0)
(89.5143 0 0)
(89.5699 0 0)
(89.6255 0 0)
(89.6811 0 0)
(89.7367 0 0)
(89.7923 0 0)
(89.8479 0 0)
(89.9035 0 0)
(89.9591 0 0)
(90.0147 0 0)
(90.0703 0 0)
(90.1259 0 0)
(90.1815 0 0)
(90.2371 0 0)
(90.2927 0 0)
(90.3483 0 0)
(90.4039 0 0)
(90.4595 0 0)
(90.5151 0 0)
(90.5707 0 0)
(90.6263 0 0)
(90.6819 0 0)
(90.7375 0 0)
(90.7931 0 0)
(90.8487 0 0)
(90.9043 0 0)
(90.9599 0 0)
(91.0155 0 0)
(91.0711 0 0)
(91.1268 0 0)
(91.1824 0 0)
(91.238 0 0)
(91.2936 0 0)
(91.3492 0 0)
(91.4048 0 0)
(91.4604 0 0)
(91.516 0 0)
(91.5716 0 0)
(91.6272 0 0)
(91.6828 0 0)
(91.7384 0 0)
(91.794 0 0)
(91.8497 0 0)
(91.9053 0 0)
(91.9609 0 0)
(92.0165 0 0)
(92.0721 0 0)
(92.1277 0 0)
(92.1833 0 0)
(92.2389 0 0)
(92.2945 0 0)
(92.3502 0 0)
(92.4058 0 0)
(92.4614 0 0)
(92.517 0 0)
(92.5726 0 0)
(92.6282 0 0)
(92.6838 0 0)
(92.7395 0 0)
(92.7951 0 0)
(92.8507 0 0)
(92.9063 0 0)
(92.9619 0 0)
(93.0175 0 0)
(93.0731 0 0)
(93.1288 0 0)
(93.1844 0 0)
(93.24 0 0)
(93.2956 0 0)
(93.3512 0 0)
(93.4069 0 0)
(93.4625 0 0)
(93.5181 0 0)
(93.5737 0 0)
(93.6293 0 0)
(93.6849 0 0)
(93.7406 0 0)
(93.7962 0 0)
(93.8518 0 0)
(93.9074 0 0)
(93.963 0 0)
(94.0187 0 0)
(94.0743 0 0)
(94.1299 0 0)
(94.1855 0 0)
(94.2412 0 0)
(94.2968 0 0)
(94.3524 0 0)
(94.408 0 0)
(94.4636 0 0)
(94.5193 0 0)
(94.5749 0 0)
(94.6305 0 0)
(94.6861 0 0)
(94.7418 0 0)
(94.7974 0 0)
(94.853 0 0)
(94.9086 0 0)
(94.9643 0 0)
(95.0199 0 0)
(95.0755 0 0)
(95.1311 0 0)
(95.1868 0 0)
(95.2424 0 0)
(95.298 0 0)
(95.3537 0 0)
(95.4093 0 0)
(95.4649 0 0)
(95.5205 0 0)
(95.5762 0 0)
(95.6318 0 0)
(95.6874 0 0)
(95.7431 0 0)
(95.7987 0 0)
(95.8543 0 0)
(95.9099 0 0)
(95.9656 0 0)
(96.0212 0 0)
(96.0768 0 0)
(96.1325 0 0)
(96.1881 0 0)
(96.2437 0 0)
(96.2994 0 0)
(96.355 0 0)
(96.4106 0 0)
(96.4663 0 0)
(96.5219 0 0)
(96.5775 0 0)
(96.6332 0 0)
(96.6888 0 0)
(96.7444 0 0)
(96.8001 0 0)
(96.8557 0 0)
(96.9113 0 0)
(96.967 0 0)
(97.0226 0 0)
(97.0783 0 0)
(97.1339 0 0)
(97.1895 0 0)
(97.2452 0 0)
(97.3008 0 0)
(97.3564 0 0)
(97.4121 0 0)
(97.4677 0 0)
(97.5234 0 0)
(97.579 0 0)
(97.6346 0 0)
(97.6903 0 0)
(97.7459 0 0)
(97.8016 0 0)
(97.8572 0 0)
(97.9128 0 0)
(97.9685 0 0)
(98.0241 0 0)
(98.0798 0 0)
(98.1354 0 0)
(98.191 0 0)
(98.2467 0 0)
(98.3023 0 0)
(98.358 0 0)
(98.4136 0 0)
(98.4693 0 0)
(98.5249 0 0)
(98.5806 0 0)
(98.6362 0 0)
(98.6918 0 0)
(98.7475 0 0)
(98.8031 0 0)
(98.8588 0 0)
(98.9144 0 0)
(98.9701 0 0)
(99.0257 0 0)
(99.0814 0 0)
(99.137 0 0)
(99.1927 0 0)
(99.2483 0 0)
(99.304 0 0)
(99.3596 0 0)
(99.4152 0 0)
(99.4709 0 0)
(99.5265 0 0)
(99.5822 0 0)
(99.6378 0 0)
(99.6935 0 0)
(99.7491 0 0)
(99.8048 0 0)
(99.8604 0 0)
(99.9161 0 0)
(99.9717 0 0)
(100.027 0 0)
(100.083 0 0)
(100.139 0 0)
(100.194 0 0)
(100.25 0 0)
(100.306 0 0)
(100.361 0 0)
(100.417 0 0)
(100.473 0 0)
(100.528 0 0)
(100.584 0 0)
(100.64 0 0)
(100.695 0 0)
(100.751 0 0)
(100.807 0 0)
(100.862 0 0)
(100.918 0 0)
(100.974 0 0)
(101.029 0 0)
(101.085 0 0)
(101.14 0 0)
(101.196 0 0)
(101.252 0 0)
(101.307 0 0)
(101.363 0 0)
(101.419 0 0)
(101.474 0 0)
(101.53 0 0)
(101.586 0 0)
(101.641 0 0)
(101.697 0 0)
(101.753 0 0)
(101.808 0 0)
(101.864 0 0)
(101.92 0 0)
(101.975 0 0)
(102.031 0 0)
(102.087 0 0)
(102.142 0 0)
(102.198 0 0)
(102.254 0 0)
(102.309 0 0)
(102.365 0 0)
(102.421 0 0)
(102.476 0 0)
(102.532 0 0)
(102.588 0 0)
(102.643 0 0)
(102.699 0 0)
(102.755 0 0)
(102.81 0 0)
(102.866 0 0)
(102.922 0 0)
(102.977 0 0)
(103.033 0 0)
(103.089 0 0)
(103.144 0 0)
(103.2 0 0)
(103.256 0 0)
(103.311 0 0)
(103.367 0 0)
(103.423 0 0)
(103.478 0 0)
(103.534 0 0)
(103.59 0 0)
(103.645 0 0)
(103.701 0 0)
(103.757 0 0)
(103.812 0 0)
(103.868 0 0)
(103.924 0 0)
(103.979 0 0)
(104.035 0 0)
(104.091 0 0)
(104.146 0 0)
(104.202 0 0)
(104.258 0 0)
(104.313 0 0)
(104.369 0 0)
(104.425 0 0)
(104.48 0 0)
(104.536 0 0)
(104.592 0 0)
(104.647 0 0)
(104.703 0 0)
(104.759 0 0)
(104.814 0 0)
(104.87 0 0)
(104.926 0 0)
(104.982 0 0)
(105.037 0 0)
(105.093 0 0)
(105.149 0 0)
(105.204 0 0)
(105.26 0 0)
(105.316 0 0)
(105.371 0 0)
(105.427 0 0)
(105.483 0 0)
(105.538 0 0)
(105.594 0 0)
(105.65 0 0)
(105.705 0 0)
(105.761 0 0)
(105.817 0 0)
(105.872 0 0)
(105.928 0 0)
(105.984 0 0)
(106.039 0 0)
(106.095 0 0)
(106.151 0 0)
(106.206 0 0)
(106.262 0 0)
(106.318 0 0)
(106.374 0 0)
(106.429 0 0)
(106.485 0 0)
(106.541 0 0)
(106.596 0 0)
(106.652 0 0)
(106.708 0 0)
(106.763 0 0)
(106.819 0 0)
(106.875 0 0)
(106.93 0 0)
(106.986 0 0)
(107.042 0 0)
(107.097 0 0)
(107.153 0 0)
(107.209 0 0)
(107.265 0 0)
(107.32 0 0)
(107.376 0 0)
(107.432 0 0)
(107.487 0 0)
(107.543 0 0)
(107.599 0 0)
(107.654 0 0)
(107.71 0 0)
(107.766 0 0)
(107.821 0 0)
(107.877 0 0)
(107.933 0 0)
(107.988 0 0)
(108.044 0 0)
(108.1 0 0)
(108.156 0 0)
(108.211 0 0)
(108.267 0 0)
(108.323 0 0)
(108.378 0 0)
(108.434 0 0)
(108.49 0 0)
(108.545 0 0)
(108.601 0 0)
(108.657 0 0)
(108.712 0 0)
(108.768 0 0)
(108.824 0 0)
(108.88 0 0)
(108.935 0 0)
(108.991 0 0)
(109.047 0 0)
(109.102 0 0)
(109.158 0 0)
(109.214 0 0)
(109.269 0 0)
(109.325 0 0)
(109.381 0 0)
(109.437 0 0)
(109.492 0 0)
(109.548 0 0)
(109.604 0 0)
(109.659 0 0)
(109.715 0 0)
(109.771 0 0)
(109.826 0 0)
(109.882 0 0)
(109.938 0 0)
(109.994 0 0)
(110.049 0 0)
(110.105 0 0)
(110.161 0 0)
(110.216 0 0)
(110.272 0 0)
(110.328 0 0)
(110.383 0 0)
(110.439 0 0)
(110.495 0 0)
(110.551 0 0)
(110.606 0 0)
(110.662 0 0)
(110.718 0 0)
(110.773 0 0)
(110.829 0 0)
(110.885 0 0)
(110.941 0 0)
(110.996 0 0)
(111.052 0 0)
(111.108 0 0)
(111.163 0 0)
(111.219 0 0)
(111.275 0 0)
(111.33 0 0)
(111.386 0 0)
(111.442 0 0)
(111.498 0 0)
(111.553 0 0)
(111.609 0 0)
(111.665 0 0)
(111.72 0 0)
(111.776 0 0)
(111.832 0 0)
(111.888 0 0)
(111.943 0 0)
(111.999 0 0)
(112.055 0 0)
(112.11 0 0)
(112.166 0 0)
(112.222 0 0)
(112.278 0 0)
(112.333 0 0)
(112.389 0 0)
(112.445 0 0)
(112.5 0 0)
(112.556 0 0)
(112.612 0 0)
(112.668 0 0)
(112.723 0 0)
(112.779 0 0)
(112.835 0 0)
(112.89 0 0)
(112.946 0 0)
(113.002 0 0)
(113.058 0 0)
(113.113 0 0)
(113.169 0 0)
(113.225 0 0)
(113.28 0 0)
(113.336 0 0)
(113.392 0 0)
(113.448 0 0)
(113.503 0 0)
(113.559 0 0)
(113.615 0 0)
(113.671 0 0)
(113.726 0 0)
(113.782 0 0)
(113.838 0 0)
(113.893 0 0)
(113.949 0 0)
(114.005 0 0)
(114.061 0 0)
(114.116 0 0)
(114.172 0 0)
(114.228 0 0)
(114.283 0 0)
(114.339 0 0)
(114.395 0 0)
(114.451 0 0)
(114.506 0 0)
(114.562 0 0)
(114.618 0 0)
(114.674 0 0)
(114.729 0 0)
(114.785 0 0)
(114.841 0 0)
(114.896 0 0)
(114.952 0 0)
(115.008 0 0)
(115.064 0 0)
(115.119 0 0)
(115.175 0 0)
(115.231 0 0)
(115.287 0 0)
(115.342 0 0)
(115.398 0 0)
(115.454 0 0)
(115.509 0 0)
(115.565 0 0)
(115.621 0 0)
(115.677 0 0)
(115.732 0 0)
(115.788 0 0)
(115.844 0 0)
(115.9 0 0)
(115.955 0 0)
(116.011 0 0)
(116.067 0 0)
(116.122 0 0)
(116.178 0 0)
(116.234 0 0)
(116.29 0 0)
(116.345 0 0)
(116.401 0 0)
(116.457 0 0)
(116.513 0 0)
(116.568 0 0)
(116.624 0 0)
(116.68 0 0)
(116.736 0 0)
(116.791 0 0)
(116.847 0 0)
(116.903 0 0)
(116.958 0 0)
(117.014 0 0)
(117.07 0 0)
(117.126 0 0)
(117.181 0 0)
(117.237 0 0)
(117.293 0 0)
(117.349 0 0)
(117.404 0 0)
(117.46 0 0)
(117.516 0 0)
(117.572 0 0)
(117.627 0 0)
(117.683 0 0)
(117.739 0 0)
(117.795 0 0)
(117.85 0 0)
(117.906 0 0)
(117.962 0 0)
(118.018 0 0)
(118.073 0 0)
(118.129 0 0)
(118.185 0 0)
(118.241 0 0)
(118.296 0 0)
(118.352 0 0)
(118.408 0 0)
(118.463 0 0)
(118.519 0 0)
(118.575 0 0)
(118.631 0 0)
(118.686 0 0)
(118.742 0 0)
(118.798 0 0)
(118.854 0 0)
(118.909 0 0)
(118.965 0 0)
(119.021 0 0)
(119.077 0 0)
(119.132 0 0)
(119.188 0 0)
(119.244 0 0)
(119.3 0 0)
(119.355 0 0)
(119.411 0 0)
(119.467 0 0)
(119.523 0 0)
(119.578 0 0)
(119.634 0 0)
(119.69 0 0)
(119.746 0 0)
(119.801 0 0)
(119.857 0 0)
(119.913 0 0)
(119.969 0 0)
(120.024 0 0)
(120.08 0 0)