/*--------------------------------*- C++ -*----------------------------------*\
  =========                 |
  \\      /  F ield         | OpenFOAM: The Open Source CFD Toolbox
   \\    /   O peration     | Website:  https://openfoam.org
    \\  /    A nd           | Version:  9
     \\/     M anipulation  |
\*---------------------------------------------------------------------------*/
FoamFile
{
    format      ascii;
    class       volScalarField;
    location    "0.048";
    object      p;
}
// * * * * * * * * * * * * * * * * * * * * * * * * * * * * * * * * * * * * * //

dimensions      [1 -1 -2 0 0 0 0];

internalField   nonuniform List<scalar> 
100
(
12789.7
12777.8
12746.2
12709.6
12684
12662.9
12642.7
12623.2
12604.6
12587.4
12571.5
12556.9
12543.5
12531.5
12520.9
12511.7
12504
12497.9
12493.3
12490.5
12489.5
12489.6
12490
12491.2
12493.9
12499.4
12510.7
12531.8
12557.9
12586.6
12616.1
12647.2
12680.1
12714.8
12751.7
12790.8
12832.1
12875.8
12921.7
12969.7
13019.7
13071.7
13125.4
13180.6
13237.5
13295.7
13355.3
13416.1
13478.2
13541.3
13605.5
13670.8
13737.2
13804.7
13873.1
13942.6
14013
14084.4
14156.5
14229.8
14303.4
14378.4
14453.2
14529.4
14605
14681.7
14757.9
14835.1
14911.8
14989.6
15066.6
15144.7
15222.3
15301.6
15381.1
15462.7
15545.1
15630.8
15718.3
15810.4
15904.9
16005
16108.6
16217.9
16329.3
16445.2
16561.7
16680.6
16797.3
16913.2
17025.4
17135.8
17240.7
17343.5
17441.8
17538.4
17631.2
17723.1
17812.3
17902.8
)
;

boundaryField
{
    sides
    {
        type            zeroGradient;
    }
    empty
    {
        type            empty;
    }
}


// ************************************************************************* //
