/*--------------------------------*- C++ -*----------------------------------*\
  =========                 |
  \\      /  F ield         | OpenFOAM: The Open Source CFD Toolbox
   \\    /   O peration     | Website:  https://openfoam.org
    \\  /    A nd           | Version:  9
     \\/     M anipulation  |
\*---------------------------------------------------------------------------*/
FoamFile
{
    format      ascii;
    class       volScalarField;
    location    "0.048";
    object      T;
}
// * * * * * * * * * * * * * * * * * * * * * * * * * * * * * * * * * * * * * //

dimensions      [0 0 0 1 0 0 0];

internalField   nonuniform List<scalar> 
100
(
192.045
191.979
191.863
191.769
191.719
191.665
191.615
191.592
191.577
191.542
191.509
191.493
191.486
191.49
191.503
191.526
191.57
191.628
191.689
191.753
191.823
191.897
191.951
191.982
192.004
192.034
192.097
192.209
192.326
192.451
192.557
192.67
192.81
192.972
193.152
193.329
193.487
193.653
193.842
194.041
194.265
194.521
194.76
194.973
195.196
195.436
195.68
195.936
196.222
196.511
196.764
197.008
197.279
197.575
197.854
198.154
198.443
198.758
199.007
199.326
199.565
199.947
200.191
200.609
200.82
201.202
201.393
201.758
201.981
202.416
202.663
203.054
203.244
203.608
203.827
204.259
204.542
204.994
205.239
205.645
205.873
206.34
206.671
207.263
207.603
208.157
208.434
208.947
209.21
209.76
210.095
210.678
210.972
211.46
211.681
212.101
212.304
212.754
212.93
213.494
)
;

boundaryField
{
    sides
    {
        type            zeroGradient;
    }
    empty
    {
        type            empty;
    }
}


// ************************************************************************* //
