/*--------------------------------*- C++ -*----------------------------------*\
  =========                 |
  \\      /  F ield         | OpenFOAM: The Open Source CFD Toolbox
   \\    /   O peration     | Website:  https://openfoam.org
    \\  /    A nd           | Version:  9
     \\/     M anipulation  |
\*---------------------------------------------------------------------------*/
FoamFile
{
    format      ascii;
    class       volScalarField;
    location    "0.016";
    object      p;
}
// * * * * * * * * * * * * * * * * * * * * * * * * * * * * * * * * * * * * * //

dimensions      [1 -1 -2 0 0 0 0];

internalField   nonuniform List<scalar> 
100
(
81333.6
78811.7
77341.6
75792.7
74302.2
72835
71397.5
69987.7
68606.2
67253.2
65928.5
64630.1
63355
62100.9
60867
59653.5
58460.9
57289.1
56137.5
55005.7
53893
52799.3
51724.3
50667.7
49629.3
48608.6
47605.5
46619.7
45651
44699.2
43764
42845.3
41942.8
41056.5
40186.3
39331.9
38493.4
37670.6
36863.6
36072.3
35296.9
34537.7
33795.4
33072.6
32375.4
31723.3
31147.2
30707.9
30454
30356
30340.6
30347
30316.7
30275.1
30258.1
30250.1
30249.3
30258.8
30266.6
30268.3
30269.4
30269.2
30265.8
30262.6
30266.2
30282.6
30292.9
30295.8
30296.2
30293.9
30289.9
30287.2
30289.1
30301.8
30311.7
30314.4
30314.9
30314.6
30314.1
30311.5
30310.2
30318.9
30332.1
30337.2
30341.1
30345.3
30348.6
30343.9
30333.9
30305.9
30255.8
30318.9
30641.7
31062
31255.7
31292.9
31304.6
31552.8
31050.8
30890.7
)
;

boundaryField
{
    sides
    {
        type            zeroGradient;
    }
    empty
    {
        type            empty;
    }
}


// ************************************************************************* //
