/*--------------------------------*- C++ -*----------------------------------*\
  =========                 |
  \\      /  F ield         | OpenFOAM: The Open Source CFD Toolbox
   \\    /   O peration     | Website:  https://openfoam.org
    \\  /    A nd           | Version:  9
     \\/     M anipulation  |
\*---------------------------------------------------------------------------*/
FoamFile
{
    format      ascii;
    class       surfaceScalarField;
    location    "0.02";
    object      phi;
}
// * * * * * * * * * * * * * * * * * * * * * * * * * * * * * * * * * * * * * //

dimensions      [1 0 -1 0 0 0 0];

internalField   nonuniform List<scalar> 
99
(
83.3601
97.0321
110.712
124.366
137.957
151.476
164.923
178.295
191.589
204.803
217.935
230.977
243.938
256.779
269.545
282.142
294.587
306.975
319.179
331.26
343.013
354.651
366.187
377.187
387.919
398.691
408.685
418.113
427.611
436.414
444.187
451.552
458.62
464.7
469.665
474.195
478.545
482.162
484.749
486.854
489.054
491.154
492.599
493.365
494.04
495.071
496.216
496.861
496.846
496.757
497.168
497.931
498.335
498.174
497.723
497.454
497.828
498.254
498.296
498.125
497.86
497.531
497.441
497.609
497.678
497.725
497.714
497.482
497.321
497.251
497.261
497.244
497.281
497.224
497.047
496.935
496.792
496.649
496.464
496.613
496.563
496.301
496.033
495.903
495.933
496.019
495.962
495.793
495.606
495.409
495.27
495.101
494.8
494.346
493.519
493.001
492.599
492.529
492.024
)
;

boundaryField
{
    sides
    {
        type            calculated;
        value           nonuniform List<scalar> 2(491.886 -69.5272);
    }
    empty
    {
        type            empty;
        value           nonuniform List<scalar> 0();
    }
}


// ************************************************************************* //
