/*--------------------------------*- C++ -*----------------------------------*\
  =========                 |
  \\      /  F ield         | OpenFOAM: The Open Source CFD Toolbox
   \\    /   O peration     | Website:  https://openfoam.org
    \\  /    A nd           | Version:  9
     \\/     M anipulation  |
\*---------------------------------------------------------------------------*/
FoamFile
{
    format      ascii;
    class       volScalarField;
    location    "0.041";
    object      mag(U);
}
// * * * * * * * * * * * * * * * * * * * * * * * * * * * * * * * * * * * * * //

dimensions      [0 1 -1 0 0 0 0];

internalField   nonuniform List<scalar> 
10000
(
6.08235
6.11686
6.15683
6.18976
6.21916
6.24857
6.27867
6.30905
6.3394
6.36968
6.39994
6.4302
6.46047
6.49075
6.52102
6.55129
6.58156
6.61184
6.64211
6.67238
6.70265
6.73293
6.7632
6.79347
6.82375
6.85402
6.88429
6.91457
6.94484
6.97512
7.00539
7.03567
7.06594
7.09621
7.12649
7.15676
7.18704
7.21731
7.24759
7.27786
7.30814
7.33842
7.36869
7.39897
7.42924
7.45952
7.4898
7.52007
7.55035
7.58063
7.6109
7.64118
7.67146
7.70174
7.73201
7.76229
7.79257
7.82285
7.85313
7.8834
7.91368
7.94396
7.97424
8.00452
8.0348
8.06508
8.09535
8.12563
8.15591
8.18619
8.21647
8.24675
8.27703
8.30731
8.33759
8.36787
8.39815
8.42843
8.45871
8.489
8.51928
8.54956
8.57984
8.61012
8.6404
8.67068
8.70097
8.73125
8.76153
8.79181
8.82209
8.85238
8.88266
8.91294
8.94322
8.97351
9.00379
9.03407
9.06436
9.09464
9.12492
9.15521
9.18549
9.21578
9.24606
9.27635
9.30663
9.33691
9.3672
9.39748
9.42777
9.45805
9.48834
9.51862
9.54891
9.57919
9.60948
9.63977
9.67005
9.70034
9.73063
9.76091
9.7912
9.82149
9.85177
9.88206
9.91234
9.94263
9.97292
10.0032
10.0335
10.0638
10.0941
10.1244
10.1546
10.1849
10.2152
10.2455
10.2758
10.3061
10.3364
10.3667
10.397
10.4272
10.4575
10.4878
10.5181
10.5484
10.5787
10.609
10.6393
10.6696
10.6999
10.7301
10.7604
10.7907
10.821
10.8513
10.8816
10.9119
10.9422
10.9725
11.0028
11.0331
11.0634
11.0936
11.1239
11.1542
11.1845
11.2148
11.2451
11.2754
11.3057
11.336
11.3663
11.3966
11.4269
11.4572
11.4874
11.5177
11.548
11.5783
11.6086
11.6389
11.6692
11.6995
11.7298
11.7601
11.7904
11.8207
11.851
11.8813
11.9116
11.9419
11.9722
12.0025
12.0327
12.063
12.0933
12.1236
12.1539
12.1842
12.2145
12.2448
12.2751
12.3054
12.3357
12.366
12.3963
12.4266
12.4569
12.4872
12.5175
12.5478
12.5781
12.6084
12.6387
12.669
12.6993
12.7296
12.7599
12.7902
12.8205
12.8508
12.8811
12.9114
12.9417
12.972
13.0023
13.0326
13.0629
13.0932
13.1235
13.1538
13.1841
13.2144
13.2447
13.275
13.3053
13.3356
13.3659
13.3962
13.4265
13.4568
13.4871
13.5174
13.5477
13.578
13.6083
13.6386
13.6689
13.6992
13.7295
13.7598
13.7901
13.8204
13.8507
13.881
13.9113
13.9416
13.9719
14.0022
14.0325
14.0628
14.0931
14.1234
14.1537
14.184
14.2143
14.2446
14.2749
14.3052
14.3356
14.3659
14.3962
14.4265
14.4568
14.4871
14.5174
14.5477
14.578
14.6083
14.6386
14.6689
14.6992
14.7295
14.7598
14.7901
14.8204
14.8507
14.881
14.9114
14.9417
14.972
15.0023
15.0326
15.0629
15.0932
15.1235
15.1538
15.1841
15.2144
15.2447
15.275
15.3053
15.3356
15.366
15.3963
15.4266
15.4569
15.4872
15.5175
15.5478
15.5781
15.6084
15.6387
15.669
15.6994
15.7297
15.76
15.7903
15.8206
15.8509
15.8812
15.9115
15.9418
15.9721
16.0024
16.0328
16.0631
16.0934
16.1237
16.154
16.1843
16.2146
16.2449
16.2752
16.3056
16.3359
16.3662
16.3965
16.4268
16.4571
16.4874
16.5177
16.548
16.5784
16.6087
16.639
16.6693
16.6996
16.7299
16.7602
16.7905
16.8209
16.8512
16.8815
16.9118
16.9421
16.9724
17.0027
17.033
17.0634
17.0937
17.124
17.1543
17.1846
17.2149
17.2452
17.2756
17.3059
17.3362
17.3665
17.3968
17.4271
17.4574
17.4878
17.5181
17.5484
17.5787
17.609
17.6393
17.6696
17.7
17.7303
17.7606
17.7909
17.8212
17.8515
17.8819
17.9122
17.9425
17.9728
18.0031
18.0334
18.0638
18.0941
18.1244
18.1547
18.185
18.2153
18.2457
18.276
18.3063
18.3366
18.3669
18.3972
18.4276
18.4579
18.4882
18.5185
18.5488
18.5792
18.6095
18.6398
18.6701
18.7004
18.7307
18.7611
18.7914
18.8217
18.852
18.8823
18.9127
18.943
18.9733
19.0036
19.0339
19.0643
19.0946
19.1249
19.1552
19.1855
19.2159
19.2462
19.2765
19.3068
19.3371
19.3675
19.3978
19.4281
19.4584
19.4887
19.5191
19.5494
19.5797
19.61
19.6403
19.6707
19.701
19.7313
19.7616
19.7919
19.8223
19.8526
19.8829
19.9132
19.9436
19.9739
20.0042
20.0345
20.0648
20.0952
20.1255
20.1558
20.1861
20.2165
20.2468
20.2771
20.3074
20.3378
20.3681
20.3984
20.4287
20.459
20.4894
20.5197
20.55
20.5803
20.6107
20.641
20.6713
20.7016
20.732
20.7623
20.7926
20.8229
20.8533
20.8836
20.9139
20.9442
20.9746
21.0049
21.0352
21.0655
21.0959
21.1262
21.1565
21.1868
21.2172
21.2475
21.2778
21.3081
21.3385
21.3688
21.3991
21.4294
21.4598
21.4901
21.5204
21.5507
21.5811
21.6114
21.6417
21.672
21.7024
21.7327
21.763
21.7933
21.8237
21.854
21.8843
21.9147
21.945
21.9753
22.0056
22.036
22.0663
22.0966
22.1269
22.1573
22.1876
22.2179
22.2483
22.2786
22.3089
22.3392
22.3696
22.3999
22.4302
22.4605
22.4909
22.5212
22.5515
22.5819
22.6122
22.6425
22.6728
22.7032
22.7335
22.7638
22.7942
22.8245
22.8548
22.8851
22.9155
22.9458
22.9761
23.0065
23.0368
23.0671
23.0975
23.1278
23.1581
23.1884
23.2188
23.2491
23.2794
23.3098
23.3401
23.3704
23.4008
23.4311
23.4614
23.4917
23.5221
23.5524
23.5827
23.6131
23.6434
23.6737
23.7041
23.7344
23.7647
23.795
23.8254
23.8557
23.886
23.9164
23.9467
23.977
24.0074
24.0377
24.068
24.0984
24.1287
24.159
24.1894
24.2197
24.25
24.2803
24.3107
24.341
24.3713
24.4017
24.432
24.4623
24.4927
24.523
24.5533
24.5837
24.614
24.6443
24.6747
24.705
24.7353
24.7657
24.796
24.8263
24.8567
24.887
24.9173
24.9477
24.978
25.0083
25.0387
25.069
25.0993
25.1297
25.16
25.1903
25.2207
25.251
25.2813
25.3117
25.342
25.3723
25.4027
25.433
25.4633
25.4937
25.524
25.5543
25.5847
25.615
25.6453
25.6757
25.706
25.7363
25.7667
25.797
25.8273
25.8577
25.888
25.9183
25.9487
25.979
26.0093
26.0397
26.07
26.1003
26.1307
26.161
26.1913
26.2217
26.252
26.2824
26.3127
26.343
26.3734
26.4037
26.434
26.4644
26.4947
26.525
26.5554
26.5857
26.616
26.6464
26.6767
26.707
26.7374
26.7677
26.798
26.8284
26.8587
26.8891
26.9194
26.9497
26.9801
27.0104
27.0407
27.0711
27.1014
27.1317
27.1621
27.1924
27.2227
27.2531
27.2834
27.3138
27.3441
27.3744
27.4048
27.4351
27.4654
27.4958
27.5261
27.5564
27.5868
27.6171
27.6475
27.6778
27.7081
27.7385
27.7688
27.7991
27.8295
27.8598
27.8901
27.9205
27.9508
27.9812
28.0115
28.0418
28.0722
28.1025
28.1328
28.1632
28.1935
28.2238
28.2542
28.2845
28.3149
28.3452
28.3755
28.4059
28.4362
28.4665
28.4969
28.5272
28.5576
28.5879
28.6182
28.6486
28.6789
28.7092
28.7396
28.7699
28.8002
28.8306
28.8609
28.8913
28.9216
28.9519
28.9823
29.0126
29.0429
29.0733
29.1036
29.134
29.1643
29.1946
29.225
29.2553
29.2856
29.316
29.3463
29.3767
29.407
29.4373
29.4677
29.498
29.5283
29.5587
29.589
29.6194
29.6497
29.68
29.7104
29.7407
29.771
29.8014
29.8317
29.8621
29.8924
29.9227
29.9531
29.9834
30.0137
30.0441
30.0744
30.1048
30.1351
30.1654
30.1958
30.2261
30.2564
30.2868
30.3171
30.3475
30.3778
30.4081
30.4385
30.4688
30.4991
30.5295
30.5598
30.5902
30.6205
30.6508
30.6812
30.7115
30.7418
30.7722
30.8025
30.8329
30.8632
30.8935
30.9239
30.9542
30.9845
31.0149
31.0452
31.0756
31.1059
31.1362
31.1666
31.1969
31.2272
31.2576
31.2879
31.3183
31.3486
31.3789
31.4093
31.4396
31.4699
31.5003
31.5306
31.561
31.5913
31.6216
31.652
31.6823
31.7126
31.743
31.7733
31.8037
31.834
31.8643
31.8947
31.925
31.9553
31.9857
32.016
32.0464
32.0767
32.107
32.1374
32.1677
32.198
32.2284
32.2587
32.289
32.3194
32.3497
32.3801
32.4104
32.4407
32.4711
32.5014
32.5317
32.5621
32.5924
32.6228
32.6531
32.6834
32.7138
32.7441
32.7744
32.8048
32.8351
32.8654
32.8958
32.9261
32.9565
32.9868
33.0171
33.0475
33.0778
33.1081
33.1385
33.1688
33.1991
33.2295
33.2598
33.2901
33.3205
33.3508
33.3812
33.4115
33.4418
33.4722
33.5025
33.5328
33.5632
33.5935
33.6238
33.6542
33.6845
33.7148
33.7452
33.7755
33.8059
33.8362
33.8665
33.8969
33.9272
33.9575
33.9879
34.0182
34.0485
34.0789
34.1092
34.1395
34.1699
34.2002
34.2305
34.2609
34.2912
34.3215
34.3519
34.3822
34.4125
34.4429
34.4732
34.5036
34.5339
34.5642
34.5946
34.6249
34.6552
34.6856
34.7159
34.7462
34.7766
34.8069
34.8372
34.8676
34.8979
34.9282
34.9586
34.9889
35.0192
35.0496
35.0799
35.1102
35.1406
35.1709
35.2012
35.2316
35.2619
35.2922
35.3225
35.3529
35.3832
35.4135
35.4439
35.4742
35.5045
35.5349
35.5652
35.5955
35.6259
35.6562
35.6865
35.7169
35.7472
35.7775
35.8079
35.8382
35.8685
35.8989
35.9292
35.9595
35.9898
36.0202
36.0505
36.0808
36.1112
36.1415
36.1718
36.2022
36.2325
36.2628
36.2931
36.3235
36.3538
36.3841
36.4145
36.4448
36.4751
36.5055
36.5358
36.5661
36.5964
36.6268
36.6571
36.6874
36.7178
36.7481
36.7784
36.8087
36.8391
36.8694
36.8997
36.9301
36.9604
36.9907
37.021
37.0514
37.0817
37.112
37.1424
37.1727
37.203
37.2333
37.2637
37.294
37.3243
37.3546
37.385
37.4153
37.4456
37.4759
37.5063
37.5366
37.5669
37.5973
37.6276
37.6579
37.6882
37.7186
37.7489
37.7792
37.8095
37.8399
37.8702
37.9005
37.9308
37.9612
37.9915
38.0218
38.0521
38.0824
38.1128
38.1431
38.1734
38.2037
38.2341
38.2644
38.2947
38.325
38.3554
38.3857
38.416
38.4463
38.4766
38.507
38.5373
38.5676
38.5979
38.6283
38.6586
38.6889
38.7192
38.7495
38.7799
38.8102
38.8405
38.8708
38.9011
38.9315
38.9618
38.9921
39.0224
39.0527
39.0831
39.1134
39.1437
39.174
39.2043
39.2347
39.265
39.2953
39.3256
39.3559
39.3863
39.4166
39.4469
39.4772
39.5075
39.5378
39.5682
39.5985
39.6288
39.6591
39.6894
39.7197
39.7501
39.7804
39.8107
39.841
39.8713
39.9016
39.932
39.9623
39.9926
40.0229
40.0532
40.0835
40.1138
40.1442
40.1745
40.2048
40.2351
40.2654
40.2957
40.326
40.3563
40.3867
40.417
40.4473
40.4776
40.5079
40.5382
40.5685
40.5988
40.6292
40.6595
40.6898
40.7201
40.7504
40.7807
40.811
40.8413
40.8716
40.9019
40.9323
40.9626
40.9929
41.0232
41.0535
41.0838
41.1141
41.1444
41.1747
41.205
41.2353
41.2656
41.296
41.3263
41.3566
41.3869
41.4172
41.4475
41.4778
41.5081
41.5384
41.5687
41.599
41.6293
41.6596
41.6899
41.7202
41.7505
41.7808
41.8111
41.8414
41.8717
41.902
41.9324
41.9627
41.993
42.0233
42.0536
42.0839
42.1142
42.1445
42.1748
42.2051
42.2354
42.2657
42.296
42.3263
42.3566
42.3869
42.4172
42.4475
42.4778
42.5081
42.5384
42.5686
42.5989
42.6292
42.6595
42.6898
42.7201
42.7504
42.7807
42.811
42.8413
42.8716
42.9019
42.9322
42.9625
42.9928
43.0231
43.0534
43.0837
43.114
43.1443
43.1745
43.2048
43.2351
43.2654
43.2957
43.326
43.3563
43.3866
43.4169
43.4472
43.4775
43.5077
43.538
43.5683
43.5986
43.6289
43.6592
43.6895
43.7198
43.75
43.7803
43.8106
43.8409
43.8712
43.9015
43.9318
43.962
43.9923
44.0226
44.0529
44.0832
44.1135
44.1437
44.174
44.2043
44.2346
44.2649
44.2952
44.3254
44.3557
44.386
44.4163
44.4466
44.4768
44.5071
44.5374
44.5677
44.598
44.6282
44.6585
44.6888
44.7191
44.7493
44.7796
44.8099
44.8402
44.8704
44.9007
44.931
44.9613
44.9915
45.0218
45.0521
45.0824
45.1126
45.1429
45.1732
45.2034
45.2337
45.264
45.2943
45.3245
45.3548
45.3851
45.4153
45.4456
45.4759
45.5061
45.5364
45.5667
45.5969
45.6272
45.6575
45.6877
45.718
45.7483
45.7785
45.8088
45.8391
45.8693
45.8996
45.9298
45.9601
45.9904
46.0206
46.0509
46.0811
46.1114
46.1417
46.1719
46.2022
46.2324
46.2627
46.293
46.3232
46.3535
46.3837
46.414
46.4442
46.4745
46.5047
46.535
46.5653
46.5955
46.6258
46.656
46.6863
46.7165
46.7468
46.777
46.8073
46.8375
46.8678
46.898
46.9283
46.9585
46.9888
47.019
47.0493
47.0795
47.1097
47.14
47.1702
47.2005
47.2307
47.261
47.2912
47.3214
47.3517
47.3819
47.4122
47.4424
47.4727
47.5029
47.5331
47.5634
47.5936
47.6238
47.6541
47.6843
47.7146
47.7448
47.775
47.8053
47.8355
47.8657
47.896
47.9262
47.9564
47.9867
48.0169
48.0471
48.0773
48.1076
48.1378
48.168
48.1983
48.2285
48.2587
48.2889
48.3192
48.3494
48.3796
48.4098
48.4401
48.4703
48.5005
48.5307
48.5609
48.5912
48.6214
48.6516
48.6818
48.712
48.7423
48.7725
48.8027
48.8329
48.8631
48.8933
48.9235
48.9538
48.984
49.0142
49.0444
49.0746
49.1048
49.135
49.1652
49.1954
49.2257
49.2559
49.2861
49.3163
49.3465
49.3767
49.4069
49.4371
49.4673
49.4975
49.5277
49.5579
49.5881
49.6183
49.6485
49.6787
49.7089
49.7391
49.7693
49.7995
49.8297
49.8599
49.8901
49.9203
49.9505
49.9806
50.0108
50.041
50.0712
50.1014
50.1316
50.1618
50.192
50.2222
50.2523
50.2825
50.3127
50.3429
50.3731
50.4033
50.4334
50.4636
50.4938
50.524
50.5542
50.5843
50.6145
50.6447
50.6749
50.705
50.7352
50.7654
50.7955
50.8257
50.8559
50.8861
50.9162
50.9464
50.9766
51.0067
51.0369
51.0671
51.0972
51.1274
51.1576
51.1877
51.2179
51.248
51.2782
51.3084
51.3385
51.3687
51.3988
51.429
51.4591
51.4893
51.5194
51.5496
51.5797
51.6099
51.64
51.6702
51.7003
51.7305
51.7606
51.7908
51.8209
51.8511
51.8812
51.9114
51.9415
51.9716
52.0018
52.0319
52.062
52.0922
52.1223
52.1524
52.1826
52.2127
52.2428
52.273
52.3031
52.3332
52.3634
52.3935
52.4236
52.4537
52.4839
52.514
52.5441
52.5742
52.6044
52.6345
52.6646
52.6947
52.7248
52.7549
52.785
52.8152
52.8453
52.8754
52.9055
52.9356
52.9657
52.9958
53.0259
53.056
53.0861
53.1162
53.1463
53.1764
53.2065
53.2366
53.2667
53.2968
53.3269
53.357
53.3871
53.4172
53.4473
53.4774
53.5075
53.5376
53.5676
53.5977
53.6278
53.6579
53.688
53.7181
53.7481
53.7782
53.8083
53.8384
53.8684
53.8985
53.9286
53.9587
53.9887
54.0188
54.0489
54.0789
54.109
54.1391
54.1691
54.1992
54.2293
54.2593
54.2894
54.3194
54.3495
54.3795
54.4096
54.4396
54.4697
54.4997
54.5298
54.5598
54.5899
54.6199
54.65
54.68
54.71
54.7401
54.7701
54.8002
54.8302
54.8602
54.8903
54.9203
54.9503
54.9803
55.0104
55.0404
55.0704
55.1004
55.1305
55.1605
55.1905
55.2205
55.2505
55.2805
55.3106
55.3406
55.3706
55.4006
55.4306
55.4606
55.4906
55.5206
55.5506
55.5806
55.6106
55.6406
55.6706
55.7006
55.7306
55.7606
55.7905
55.8205
55.8505
55.8805
55.9105
55.9405
55.9704
56.0004
56.0304
56.0604
56.0903
56.1203
56.1503
56.1803
56.2102
56.2402
56.2701
56.3001
56.3301
56.36
56.39
56.4199
56.4499
56.4798
56.5098
56.5397
56.5697
56.5996
56.6296
56.6595
56.6894
56.7194
56.7493
56.7792
56.8092
56.8391
56.869
56.899
56.9289
56.9588
56.9887
57.0186
57.0486
57.0785
57.1084
57.1383
57.1682
57.1981
57.228
57.2579
57.2878
57.3177
57.3476
57.3775
57.4074
57.4373
57.4672
57.4971
57.5269
57.5568
57.5867
57.6166
57.6465
57.6763
57.7062
57.7361
57.766
57.7958
57.8257
57.8555
57.8854
57.9153
57.9451
57.975
58.0048
58.0347
58.0645
58.0944
58.1242
58.154
58.1839
58.2137
58.2436
58.2734
58.3032
58.333
58.3629
58.3927
58.4225
58.4523
58.4821
58.512
58.5418
58.5716
58.6014
58.6312
58.661
58.6908
58.7206
58.7504
58.7802
58.8099
58.8397
58.8695
58.8993
58.9291
58.9588
58.9886
59.0184
59.0482
59.0779
59.1077
59.1375
59.1672
59.197
59.2267
59.2565
59.2862
59.316
59.3457
59.3754
59.4052
59.4349
59.4646
59.4944
59.5241
59.5538
59.5835
59.6132
59.643
59.6727
59.7024
59.7321
59.7618
59.7915
59.8212
59.8509
59.8806
59.9103
59.9399
59.9696
59.9993
60.029
60.0586
60.0883
60.118
60.1476
60.1773
60.207
60.2366
60.2663
60.2959
60.3256
60.3552
60.3848
60.4145
60.4441
60.4737
60.5034
60.533
60.5626
60.5922
60.6218
60.6514
60.681
60.7106
60.7402
60.7698
60.7994
60.829
60.8586
60.8882
60.9177
60.9473
60.9769
61.0065
61.036
61.0656
61.0951
61.1247
61.1542
61.1838
61.2133
61.2429
61.2724
61.3019
61.3314
61.361
61.3905
61.42
61.4495
61.479
61.5085
61.538
61.5675
61.597
61.6265
61.656
61.6855
61.7149
61.7444
61.7739
61.8033
61.8328
61.8622
61.8917
61.9211
61.9506
61.98
62.0094
62.0389
62.0683
62.0977
62.1271
62.1565
62.1859
62.2154
62.2447
62.2741
62.3035
62.3329
62.3623
62.3917
62.421
62.4504
62.4798
62.5091
62.5385
62.5678
62.5972
62.6265
62.6558
62.6852
62.7145
62.7438
62.7731
62.8024
62.8317
62.861
62.8903
62.9196
62.9489
62.9782
63.0074
63.0367
63.066
63.0952
63.1245
63.1537
63.183
63.2122
63.2414
63.2707
63.2999
63.3291
63.3583
63.3875
63.4167
63.4459
63.4751
63.5043
63.5334
63.5626
63.5918
63.6209
63.6501
63.6792
63.7084
63.7375
63.7666
63.7957
63.8249
63.854
63.8831
63.9122
63.9413
63.9704
63.9994
64.0285
64.0576
64.0866
64.1157
64.1447
64.1738
64.2028
64.2318
64.2609
64.2899
64.3189
64.3479
64.3769
64.4059
64.4348
64.4638
64.4928
64.5218
64.5507
64.5797
64.6086
64.6376
64.6665
64.6954
64.7243
64.7532
64.7821
64.811
64.8399
64.8688
64.8977
64.9265
64.9554
64.9842
65.0131
65.0419
65.0707
65.0995
65.1283
65.1571
65.1859
65.2147
65.2435
65.2723
65.301
65.3298
65.3585
65.3873
65.416
65.4447
65.4734
65.5021
65.5308
65.5595
65.5882
65.6169
65.6455
65.6742
65.7028
65.7315
65.7601
65.7887
65.8173
65.8459
65.8745
65.9031
65.9317
65.9603
65.9888
66.0174
66.0459
66.0744
66.1029
66.1314
66.1599
66.1884
66.2169
66.2454
66.2738
66.3023
66.3307
66.3592
66.3876
66.416
66.4444
66.4728
66.5012
66.5295
66.5579
66.5863
66.6146
66.6429
66.6712
66.6995
66.7278
66.7561
66.7844
66.8127
66.8409
66.8692
66.8974
66.9256
66.9538
66.982
67.0102
67.0384
67.0665
67.0947
67.1228
67.1509
67.1791
67.2072
67.2353
67.2633
67.2914
67.3195
67.3475
67.3755
67.4036
67.4316
67.4596
67.4875
67.5155
67.5435
67.5714
67.5993
67.6272
67.6551
67.683
67.7109
67.7388
67.7666
67.7945
67.8223
67.8501
67.8779
67.9057
67.9334
67.9612
67.9889
68.0167
68.0444
68.0721
68.0998
68.1274
68.1551
68.1827
68.2103
68.2379
68.2655
68.2931
68.3207
68.3482
68.3758
68.4033
68.4308
68.4583
68.4857
68.5132
68.5406
68.5681
68.5955
68.6229
68.6502
68.6776
68.7049
68.7323
68.7596
68.7869
68.8141
68.8414
68.8686
68.8959
68.9231
68.9503
68.9774
69.0046
69.0317
69.0588
69.086
69.113
69.1401
69.1671
69.1942
69.2212
69.2482
69.2751
69.3021
69.329
69.356
69.3829
69.4097
69.4366
69.4634
69.4902
69.517
69.5438
69.5706
69.5973
69.624
69.6507
69.6774
69.7041
69.7307
69.7573
69.7839
69.8105
69.8371
69.8636
69.8901
69.9166
69.9431
69.9695
69.9959
70.0223
70.0487
70.0751
70.1014
70.1277
70.154
70.1803
70.2065
70.2327
70.2589
70.2851
70.3113
70.3374
70.3635
70.3896
70.4156
70.4417
70.4677
70.4937
70.5196
70.5455
70.5715
70.5973
70.6232
70.649
70.6748
70.7006
70.7264
70.7521
70.7778
70.8035
70.8291
70.8548
70.8804
70.9059
70.9315
70.957
70.9825
71.008
71.0334
71.0588
71.0842
71.1095
71.1349
71.1602
71.1854
71.2107
71.2359
71.2611
71.2862
71.3113
71.3364
71.3615
71.3865
71.4115
71.4365
71.4615
71.4864
71.5113
71.5361
71.5609
71.5857
71.6105
71.6352
71.6599
71.6846
71.7092
71.7338
71.7584
71.783
71.8075
71.8319
71.8564
71.8808
71.9052
71.9295
71.9538
71.9781
72.0024
72.0266
72.0507
72.0749
72.099
72.1231
72.1471
72.1711
72.1951
72.219
72.2429
72.2668
72.2906
72.3144
72.3382
72.3619
72.3856
72.4093
72.4329
72.4564
72.48
72.5035
72.527
72.5504
72.5738
72.5972
72.6205
72.6438
72.667
72.6902
72.7134
72.7365
72.7596
72.7827
72.8057
72.8286
72.8516
72.8745
72.8973
72.9202
72.9429
72.9657
72.9884
73.011
73.0337
73.0562
73.0788
73.1013
73.1238
73.1462
73.1686
73.1909
73.2132
73.2354
73.2577
73.2798
73.302
73.3241
73.3461
73.3681
73.3901
73.412
73.4339
73.4557
73.4775
73.4993
73.521
73.5427
73.5643
73.5859
73.6074
73.6289
73.6504
73.6718
73.6932
73.7145
73.7358
73.757
73.7782
73.7994
73.8205
73.8416
73.8626
73.8836
73.9045
73.9254
73.9463
73.9671
73.9878
74.0085
74.0292
74.0499
74.0704
74.091
74.1115
74.1319
74.1523
74.1727
74.193
74.2133
74.2336
74.2537
74.2739
74.294
74.3141
74.3341
74.354
74.374
74.3938
74.4137
74.4335
74.4532
74.4729
74.4926
74.5122
74.5318
74.5513
74.5708
74.5903
74.6097
74.629
74.6483
74.6676
74.6868
74.706
74.7252
74.7443
74.7633
74.7823
74.8013
74.8202
74.8391
74.858
74.8768
74.8955
74.9142
74.9329
74.9515
74.9701
74.9887
75.0072
75.0257
75.0441
75.0625
75.0808
75.0991
75.1174
75.1356
75.1538
75.1719
75.19
75.2081
75.2261
75.2441
75.262
75.2799
75.2978
75.3156
75.3334
75.3512
75.3689
75.3865
75.4042
75.4218
75.4393
75.4569
75.4743
75.4918
75.5092
75.5266
75.5439
75.5612
75.5785
75.5957
75.6129
75.6301
75.6472
75.6643
75.6814
75.6984
75.7154
75.7324
75.7493
75.7662
75.7831
75.7999
75.8167
75.8335
75.8502
75.8669
75.8836
75.9002
75.9168
75.9334
75.9499
75.9665
75.9829
75.9994
76.0158
76.0322
76.0486
76.065
76.0813
76.0976
76.1138
76.1301
76.1463
76.1625
76.1786
76.1948
76.2109
76.227
76.243
76.259
76.275
76.291
76.307
76.3229
76.3388
76.3547
76.3706
76.3864
76.4022
76.418
76.4338
76.4496
76.4653
76.481
76.4967
76.5124
76.528
76.5437
76.5593
76.5749
76.5904
76.606
76.6215
76.637
76.6525
76.668
76.6835
76.6989
76.7143
76.7298
76.7452
76.7605
76.7759
76.7912
76.8066
76.8219
76.8372
76.8525
76.8677
76.883
76.8982
76.9135
76.9287
76.9439
76.9591
76.9742
76.9894
77.0046
77.0197
77.0348
77.0499
77.065
77.0801
77.0952
77.1103
77.1253
77.1404
77.1554
77.1704
77.1854
77.2004
77.2154
77.2304
77.2454
77.2604
77.2753
77.2903
77.3052
77.3201
77.3351
77.35
77.3649
77.3798
77.3947
77.4095
77.4244
77.4393
77.4541
77.469
77.4838
77.4987
77.5135
77.5283
77.5432
77.558
77.5728
77.5876
77.6024
77.6172
77.632
77.6467
77.6615
77.6763
77.691
77.7058
77.7206
77.7353
77.7501
77.7648
77.7795
77.7943
77.809
77.8237
77.8384
77.8532
77.8679
77.8826
77.8973
77.912
77.9267
77.9414
77.9561
77.9708
77.9854
78.0001
78.0148
78.0295
78.0442
78.0588
78.0735
78.0882
78.1028
78.1175
78.1322
78.1468
78.1615
78.1761
78.1908
78.2054
78.2201
78.2347
78.2494
78.264
78.2786
78.2933
78.3079
78.3226
78.3372
78.3518
78.3665
78.3811
78.3957
78.4103
78.425
78.4396
78.4542
78.4688
78.4835
78.4981
78.5127
78.5273
78.5419
78.5565
78.5712
78.5858
78.6004
78.615
78.6296
78.6442
78.6588
78.6734
78.688
78.7027
78.7173
78.7319
78.7465
78.7611
78.7757
78.7903
78.8049
78.8195
78.8341
78.8487
78.8633
78.8779
78.8925
78.9071
78.9217
78.9363
78.9509
78.9655
78.9801
78.9947
79.0093
79.0239
79.0385
79.0531
79.0677
79.0823
79.0969
79.1115
79.1261
79.1407
79.1553
79.1699
79.1845
79.1991
79.2137
79.2283
79.2429
79.2575
79.2721
79.2867
79.3013
79.3159
79.3305
79.3451
79.3597
79.3743
79.3889
79.4035
79.4181
79.4327
79.4473
79.4619
79.4765
79.4911
79.5057
79.5203
79.5349
79.5495
79.5641
79.5787
79.5933
79.6079
79.6225
79.6371
79.6517
79.6663
79.6809
79.6955
79.7101
79.7247
79.7394
79.754
79.7686
79.7832
79.7978
79.8124
79.827
79.8416
79.8562
79.8708
79.8854
79.9
79.9146
79.9292
79.9438
79.9584
79.973
79.9876
80.0022
80.0168
80.0315
80.0461
80.0607
80.0753
80.0899
80.1045
80.1191
80.1337
80.1483
80.1629
80.1775
80.1922
80.2068
80.2214
80.236
80.2506
80.2652
80.2798
80.2944
80.309
80.3237
80.3383
80.3529
80.3675
80.3821
80.3967
80.4113
80.426
80.4406
80.4552
80.4698
80.4844
80.499
80.5136
80.5283
80.5429
80.5575
80.5721
80.5867
80.6013
80.616
80.6306
80.6452
80.6598
80.6744
80.6891
80.7037
80.7183
80.7329
80.7475
80.7622
80.7768
80.7914
80.806
80.8206
80.8353
80.8499
80.8645
80.8791
80.8938
80.9084
80.923
80.9376
80.9522
80.9669
80.9815
80.9961
81.0107
81.0254
81.04
81.0546
81.0692
81.0839
81.0985
81.1131
81.1278
81.1424
81.157
81.1716
81.1863
81.2009
81.2155
81.2302
81.2448
81.2594
81.274
81.2887
81.3033
81.3179
81.3326
81.3472
81.3618
81.3765
81.3911
81.4057
81.4204
81.435
81.4496
81.4643
81.4789
81.4935
81.5082
81.5228
81.5374
81.5521
81.5667
81.5813
81.596
81.6106
81.6252
81.6399
81.6545
81.6691
81.6838
81.6984
81.7131
81.7277
81.7423
81.757
81.7716
81.7863
81.8009
81.8155
81.8302
81.8448
81.8595
81.8741
81.8887
81.9034
81.918
81.9327
81.9473
81.9619
81.9766
81.9912
82.0059
82.0205
82.0352
82.0498
82.0644
82.0791
82.0937
82.1084
82.123
82.1377
82.1523
82.167
82.1816
82.1963
82.2109
82.2255
82.2402
82.2548
82.2695
82.2841
82.2988
82.3134
82.3281
82.3427
82.3574
82.372
82.3867
82.4013
82.416
82.4306
82.4453
82.4599
82.4746
82.4892
82.5039
82.5185
82.5332
82.5478
82.5625
82.5771
82.5918
82.6065
82.6211
82.6358
82.6504
82.6651
82.6797
82.6944
82.709
82.7237
82.7383
82.753
82.7677
82.7823
82.797
82.8116
82.8263
82.8409
82.8556
82.8703
82.8849
82.8996
82.9142
82.9289
82.9436
82.9582
82.9729
82.9875
83.0022
83.0169
83.0315
83.0462
83.0608
83.0755
83.0902
83.1048
83.1195
83.1341
83.1488
83.1635
83.1781
83.1928
83.2075
83.2221
83.2368
83.2515
83.2661
83.2808
83.2955
83.3101
83.3248
83.3395
83.3541
83.3688
83.3835
83.3981
83.4128
83.4275
83.4421
83.4568
83.4715
83.4861
83.5008
83.5155
83.5301
83.5448
83.5595
83.5742
83.5888
83.6035
83.6182
83.6328
83.6475
83.6622
83.6769
83.6915
83.7062
83.7209
83.7356
83.7502
83.7649
83.7796
83.7943
83.8089
83.8236
83.8383
83.853
83.8676
83.8823
83.897
83.9117
83.9263
83.941
83.9557
83.9704
83.9851
83.9997
84.0144
84.0291
84.0438
84.0585
84.0731
84.0878
84.1025
84.1172
84.1319
84.1465
84.1612
84.1759
84.1906
84.2053
84.22
84.2346
84.2493
84.264
84.2787
84.2934
84.3081
84.3227
84.3374
84.3521
84.3668
84.3815
84.3962
84.4109
84.4255
84.4402
84.4549
84.4696
84.4843
84.499
84.5137
84.5284
84.543
84.5577
84.5724
84.5871
84.6018
84.6165
84.6312
84.6459
84.6606
84.6753
84.6899
84.7046
84.7193
84.734
84.7487
84.7634
84.7781
84.7928
84.8075
84.8222
84.8369
84.8516
84.8663
84.881
84.8957
84.9104
84.925
84.9397
84.9544
84.9691
84.9838
84.9985
85.0132
85.0279
85.0426
85.0573
85.072
85.0867
85.1014
85.1161
85.1308
85.1455
85.1602
85.1749
85.1896
85.2043
85.219
85.2337
85.2484
85.2631
85.2778
85.2925
85.3072
85.3219
85.3366
85.3514
85.3661
85.3808
85.3955
85.4102
85.4249
85.4396
85.4543
85.469
85.4837
85.4984
85.5131
85.5278
85.5425
85.5572
85.5719
85.5866
85.6014
85.6161
85.6308
85.6455
85.6602
85.6749
85.6896
85.7043
85.719
85.7337
85.7485
85.7632
85.7779
85.7926
85.8073
85.822
85.8367
85.8514
85.8662
85.8809
85.8956
85.9103
85.925
85.9397
85.9544
85.9692
85.9839
85.9986
86.0133
86.028
86.0427
86.0575
86.0722
86.0869
86.1016
86.1163
86.131
86.1458
86.1605
86.1752
86.1899
86.2046
86.2194
86.2341
86.2488
86.2635
86.2782
86.293
86.3077
86.3224
86.3371
86.3518
86.3666
86.3813
86.396
86.4107
86.4255
86.4402
86.4549
86.4696
86.4844
86.4991
86.5138
86.5285
86.5433
86.558
86.5727
86.5874
86.6022
86.6169
86.6316
86.6464
86.6611
86.6758
86.6905
86.7053
86.72
86.7347
86.7495
86.7642
86.7789
86.7936
86.8084
86.8231
86.8378
86.8526
86.8673
86.882
86.8968
86.9115
86.9262
86.941
86.9557
86.9704
86.9852
86.9999
87.0146
87.0294
87.0441
87.0588
87.0736
87.0883
87.103
87.1178
87.1325
87.1473
87.162
87.1767
87.1915
87.2062
87.2209
87.2357
87.2504
87.2652
87.2799
87.2946
87.3094
87.3241
87.3389
87.3536
87.3683
87.3831
87.3978
87.4126
87.4273
87.4421
87.4568
87.4715
87.4863
87.501
87.5158
87.5305
87.5453
87.56
87.5748
87.5895
87.6042
87.619
87.6337
87.6485
87.6632
87.678
87.6927
87.7075
87.7222
87.737
87.7517
87.7665
87.7812
87.796
87.8107
87.8255
87.8402
87.855
87.8697
87.8845
87.8992
87.914
87.9287
87.9435
87.9582
87.973
87.9877
88.0025
88.0172
88.032
88.0467
88.0615
88.0762
88.091
88.1057
88.1205
88.1353
88.15
88.1648
88.1795
88.1943
88.209
88.2238
88.2385
88.2533
88.2681
88.2828
88.2976
88.3123
88.3271
88.3419
88.3566
88.3714
88.3861
88.4009
88.4157
88.4304
88.4452
88.4599
88.4747
88.4895
88.5042
88.519
88.5337
88.5485
88.5633
88.578
88.5928
88.6076
88.6223
88.6371
88.6519
88.6666
88.6814
88.6962
88.7109
88.7257
88.7404
88.7552
88.77
88.7848
88.7995
88.8143
88.8291
88.8438
88.8586
88.8734
88.8881
88.9029
88.9177
88.9324
88.9472
88.962
88.9767
88.9915
89.0063
89.0211
89.0358
89.0506
89.0654
89.0801
89.0949
89.1097
89.1245
89.1392
89.154
89.1688
89.1836
89.1983
89.2131
89.2279
89.2427
89.2574
89.2722
89.287
89.3018
89.3165
89.3313
89.3461
89.3609
89.3757
89.3904
89.4052
89.42
89.4348
89.4495
89.4643
89.4791
89.4939
89.5087
89.5234
89.5382
89.553
89.5678
89.5826
89.5974
89.6121
89.6269
89.6417
89.6565
89.6713
89.6861
89.7008
89.7156
89.7304
89.7452
89.76
89.7748
89.7895
89.8043
89.8191
89.8339
89.8487
89.8635
89.8783
89.893
89.9078
89.9226
89.9374
89.9522
89.967
89.9818
89.9966
90.0114
90.0261
90.0409
90.0557
90.0705
90.0853
90.1001
90.1149
90.1297
90.1445
90.1593
90.1741
90.1889
90.2036
90.2184
90.2332
90.248
90.2628
90.2776
90.2924
90.3072
90.322
90.3368
90.3516
90.3664
90.3812
90.396
90.4108
90.4256
90.4404
90.4552
90.47
90.4848
90.4996
90.5144
90.5292
90.544
90.5588
90.5736
90.5884
90.6032
90.618
90.6328
90.6476
90.6624
90.6772
90.692
90.7068
90.7216
90.7364
90.7512
90.766
90.7808
90.7956
90.8104
90.8252
90.84
90.8548
90.8696
90.8844
90.8992
90.914
90.9288
90.9436
90.9584
90.9732
90.988
91.0029
91.0177
91.0325
91.0473
91.0621
91.0769
91.0917
91.1065
91.1213
91.1361
91.1509
91.1658
91.1806
91.1954
91.2102
91.225
91.2398
91.2546
91.2694
91.2842
91.2991
91.3139
91.3287
91.3435
91.3583
91.3731
91.3879
91.4027
91.4176
91.4324
91.4472
91.462
91.4768
91.4916
91.5065
91.5213
91.5361
91.5509
91.5657
91.5805
91.5954
91.6102
91.625
91.6398
91.6546
91.6694
91.6843
91.6991
91.7139
91.7287
91.7435
91.7584
91.7732
91.788
91.8028
91.8176
91.8325
91.8473
91.8621
91.8769
91.8918
91.9066
91.9214
91.9362
91.951
91.9659
91.9807
91.9955
92.0103
92.0252
92.04
92.0548
92.0696
92.0845
92.0993
92.1141
92.129
92.1438
92.1586
92.1734
92.1883
92.2031
92.2179
92.2327
92.2476
92.2624
92.2772
92.2921
92.3069
92.3217
92.3366
92.3514
92.3662
92.381
92.3959
92.4107
92.4255
92.4404
92.4552
92.47
92.4849
92.4997
92.5145
92.5294
92.5442
92.559
92.5739
92.5887
92.6035
92.6184
92.6332
92.648
92.6629
92.6777
92.6926
92.7074
92.7222
92.7371
92.7519
92.7667
92.7816
92.7964
92.8113
92.8261
92.8409
92.8558
92.8706
92.8854
92.9003
92.9151
92.93
92.9448
92.9597
92.9745
92.9893
93.0042
93.019
93.0339
93.0487
93.0635
93.0784
93.0932
93.1081
93.1229
93.1378
93.1526
93.1675
93.1823
93.1971
93.212
93.2268
93.2417
93.2565
93.2714
93.2862
93.3011
93.3159
93.3308
93.3456
93.3605
93.3753
93.3902
93.405
93.4199
93.4347
93.4496
93.4644
93.4793
93.4941
93.509
93.5238
93.5387
93.5535
93.5684
93.5832
93.5981
93.6129
93.6278
93.6426
93.6575
93.6724
93.6872
93.7021
93.7169
93.7318
93.7466
93.7615
93.7763
93.7912
93.8061
93.8209
93.8358
93.8506
93.8655
93.8803
93.8952
93.9101
93.9249
93.9398
93.9546
93.9695
93.9844
93.9992
94.0141
94.0289
94.0438
94.0587
94.0735
94.0884
94.1033
94.1181
94.133
94.1478
94.1627
94.1776
94.1924
94.2073
94.2222
94.237
94.2519
94.2668
94.2816
94.2965
94.3114
94.3262
94.3411
94.356
94.3708
94.3857
94.4006
94.4154
94.4303
94.4452
94.46
94.4749
94.4898
94.5047
94.5195
94.5344
94.5493
94.5641
94.579
94.5939
94.6087
94.6236
94.6385
94.6534
94.6682
94.6831
94.698
94.7129
94.7277
94.7426
94.7575
94.7724
94.7872
94.8021
94.817
94.8319
94.8467
94.8616
94.8765
94.8914
94.9062
94.9211
94.936
94.9509
94.9658
94.9806
94.9955
95.0104
95.0253
95.0402
95.055
95.0699
95.0848
95.0997
95.1146
95.1294
95.1443
95.1592
95.1741
95.189
95.2039
95.2187
95.2336
95.2485
95.2634
95.2783
95.2932
95.308
95.3229
95.3378
95.3527