/*--------------------------------*- C++ -*----------------------------------*\
  =========                 |
  \\      /  F ield         | OpenFOAM: The Open Source CFD Toolbox
   \\    /   O peration     | Website:  https://openfoam.org
    \\  /    A nd           | Version:  9
     \\/     M anipulation  |
\*---------------------------------------------------------------------------*/
FoamFile
{
    format      ascii;
    class       volScalarField;
    location    "0.041";
    object      p;
}
// * * * * * * * * * * * * * * * * * * * * * * * * * * * * * * * * * * * * * //

dimensions      [1 -1 -2 0 0 0 0];

internalField   nonuniform List<scalar> 
10000
(
10779.6
10779.5
10779.5
10779.4
10779.3
10779.2
10779.2
10779.1
10779
10779
10778.9
10778.8
10778.8
10778.7
10778.6
10778.6
10778.5
10778.4
10778.3
10778.3
10778.2
10778.1
10778.1
10778
10777.9
10777.9
10777.8
10777.7
10777.7
10777.6
10777.5
10777.5
10777.4
10777.3
10777.3
10777.2
10777.1
10777
10777
10776.9
10776.8
10776.8
10776.7
10776.6
10776.6
10776.5
10776.4
10776.4
10776.3
10776.2
10776.2
10776.1
10776
10775.9
10775.9
10775.8
10775.7
10775.7
10775.6
10775.5
10775.5
10775.4
10775.3
10775.3
10775.2
10775.1
10775.1
10775
10774.9
10774.8
10774.8
10774.7
10774.6
10774.6
10774.5
10774.4
10774.4
10774.3
10774.2
10774.2
10774.1
10774
10774
10773.9
10773.8
10773.7
10773.7
10773.6
10773.5
10773.5
10773.4
10773.3
10773.3
10773.2
10773.1
10773.1
10773
10772.9
10772.9
10772.8
10772.7
10772.6
10772.6
10772.5
10772.4
10772.4
10772.3
10772.2
10772.2
10772.1
10772
10772
10771.9
10771.8
10771.7
10771.7
10771.6
10771.5
10771.5
10771.4
10771.3
10771.3
10771.2
10771.1
10771.1
10771
10770.9
10770.9
10770.8
10770.7
10770.6
10770.6
10770.5
10770.4
10770.4
10770.3
10770.2
10770.2
10770.1
10770
10770
10769.9
10769.8
10769.7
10769.7
10769.6
10769.5
10769.5
10769.4
10769.3
10769.3
10769.2
10769.1
10769.1
10769
10768.9
10768.8
10768.8
10768.7
10768.6
10768.6
10768.5
10768.4
10768.4
10768.3
10768.2
10768.2
10768.1
10768
10767.9
10767.9
10767.8
10767.7
10767.7
10767.6
10767.5
10767.5
10767.4
10767.3
10767.3
10767.2
10767.1
10767
10767
10766.9
10766.8
10766.8
10766.7
10766.6
10766.6
10766.5
10766.4
10766.4
10766.3
10766.2
10766.1
10766.1
10766
10765.9
10765.9
10765.8
10765.7
10765.7
10765.6
10765.5
10765.5
10765.4
10765.3
10765.2
10765.2
10765.1
10765
10765
10764.9
10764.8
10764.8
10764.7
10764.6
10764.5
10764.5
10764.4
10764.3
10764.3
10764.2
10764.1
10764.1
10764
10763.9
10763.9
10763.8
10763.7
10763.6
10763.6
10763.5
10763.4
10763.4
10763.3
10763.2
10763.2
10763.1
10763
10762.9
10762.9
10762.8
10762.7
10762.7
10762.6
10762.5
10762.5
10762.4
10762.3
10762.3
10762.2
10762.1
10762
10762
10761.9
10761.8
10761.8
10761.7
10761.6
10761.6
10761.5
10761.4
10761.3
10761.3
10761.2
10761.1
10761.1
10761
10760.9
10760.9
10760.8
10760.7
10760.7
10760.6
10760.5
10760.4
10760.4
10760.3
10760.2
10760.2
10760.1
10760
10760
10759.9
10759.8
10759.7
10759.7
10759.6
10759.5
10759.5
10759.4
10759.3
10759.3
10759.2
10759.1
10759
10759
10758.9
10758.8
10758.8
10758.7
10758.6
10758.6
10758.5
10758.4
10758.3
10758.3
10758.2
10758.1
10758.1
10758
10757.9
10757.9
10757.8
10757.7
10757.6
10757.6
10757.5
10757.4
10757.4
10757.3
10757.2
10757.2
10757.1
10757
10756.9
10756.9
10756.8
10756.7
10756.7
10756.6
10756.5
10756.5
10756.4
10756.3
10756.2
10756.2
10756.1
10756
10756
10755.9
10755.8
10755.8
10755.7
10755.6
10755.5
10755.5
10755.4
10755.3
10755.3
10755.2
10755.1
10755.1
10755
10754.9
10754.8
10754.8
10754.7
10754.6
10754.6
10754.5
10754.4
10754.3
10754.3
10754.2
10754.1
10754.1
10754
10753.9
10753.9
10753.8
10753.7
10753.6
10753.6
10753.5
10753.4
10753.4
10753.3
10753.2
10753.2
10753.1
10753
10752.9
10752.9
10752.8
10752.7
10752.7
10752.6
10752.5
10752.5
10752.4
10752.3
10752.2
10752.2
10752.1
10752
10752
10751.9
10751.8
10751.7
10751.7
10751.6
10751.5
10751.5
10751.4
10751.3
10751.3
10751.2
10751.1
10751
10751
10750.9
10750.8
10750.8
10750.7
10750.6
10750.6
10750.5
10750.4
10750.3
10750.3
10750.2
10750.1
10750.1
10750
10749.9
10749.8
10749.8
10749.7
10749.6
10749.6
10749.5
10749.4
10749.4
10749.3
10749.2
10749.1
10749.1
10749
10748.9
10748.9
10748.8
10748.7
10748.6
10748.6
10748.5
10748.4
10748.4
10748.3
10748.2
10748.2
10748.1
10748
10747.9
10747.9
10747.8
10747.7
10747.7
10747.6
10747.5
10747.4
10747.4
10747.3
10747.2
10747.2
10747.1
10747
10746.9
10746.9
10746.8
10746.7
10746.7
10746.6
10746.5
10746.5
10746.4
10746.3
10746.2
10746.2
10746.1
10746
10746
10745.9
10745.8
10745.7
10745.7
10745.6
10745.5
10745.5
10745.4
10745.3
10745.3
10745.2
10745.1
10745
10745
10744.9
10744.8
10744.8
10744.7
10744.6
10744.5
10744.5
10744.4
10744.3
10744.3
10744.2
10744.1
10744
10744
10743.9
10743.8
10743.8
10743.7
10743.6
10743.5
10743.5
10743.4
10743.3
10743.3
10743.2
10743.1
10743.1
10743
10742.9
10742.8
10742.8
10742.7
10742.6
10742.6
10742.5
10742.4
10742.3
10742.3
10742.2
10742.1
10742.1
10742
10741.9
10741.8
10741.8
10741.7
10741.6
10741.6
10741.5
10741.4
10741.3
10741.3
10741.2
10741.1
10741.1
10741
10740.9
10740.9
10740.8
10740.7
10740.6
10740.6
10740.5
10740.4
10740.4
10740.3
10740.2
10740.1
10740.1
10740
10739.9
10739.9
10739.8
10739.7
10739.6
10739.6
10739.5
10739.4
10739.4
10739.3
10739.2
10739.1
10739.1
10739
10738.9
10738.9
10738.8
10738.7
10738.6
10738.6
10738.5
10738.4
10738.4
10738.3
10738.2
10738.1
10738.1
10738
10737.9
10737.9
10737.8
10737.7
10737.6
10737.6
10737.5
10737.4
10737.4
10737.3
10737.2
10737.1
10737.1
10737
10736.9
10736.9
10736.8
10736.7
10736.7
10736.6
10736.5
10736.4
10736.4
10736.3
10736.2
10736.2
10736.1
10736
10735.9
10735.9
10735.8
10735.7
10735.7
10735.6
10735.5
10735.4
10735.4
10735.3
10735.2
10735.2
10735.1
10735
10734.9
10734.9
10734.8
10734.7
10734.7
10734.6
10734.5
10734.4
10734.4
10734.3
10734.2
10734.2
10734.1
10734
10733.9
10733.9
10733.8
10733.7
10733.7
10733.6
10733.5
10733.4
10733.4
10733.3
10733.2
10733.2
10733.1
10733
10732.9
10732.9
10732.8
10732.7
10732.7
10732.6
10732.5
10732.4
10732.4
10732.3
10732.2
10732.2
10732.1
10732
10731.9
10731.9
10731.8
10731.7
10731.7
10731.6
10731.5
10731.4
10731.4
10731.3
10731.2
10731.1
10731.1
10731
10730.9
10730.9
10730.8
10730.7
10730.6
10730.6
10730.5
10730.4
10730.4
10730.3
10730.2
10730.1
10730.1
10730
10729.9
10729.9
10729.8
10729.7
10729.6
10729.6
10729.5
10729.4
10729.4
10729.3
10729.2
10729.1
10729.1
10729
10728.9
10728.9
10728.8
10728.7
10728.6
10728.6
10728.5
10728.4
10728.4
10728.3
10728.2
10728.1
10728.1
10728
10727.9
10727.9
10727.8
10727.7
10727.6
10727.6
10727.5
10727.4
10727.4
10727.3
10727.2
10727.1
10727.1
10727
10726.9
10726.9
10726.8
10726.7
10726.6
10726.6
10726.5
10726.4
10726.3
10726.3
10726.2
10726.1
10726.1
10726
10725.9
10725.8
10725.8
10725.7
10725.6
10725.6
10725.5
10725.4
10725.3
10725.3
10725.2
10725.1
10725.1
10725
10724.9
10724.8
10724.8
10724.7
10724.6
10724.6
10724.5
10724.4
10724.3
10724.3
10724.2
10724.1
10724.1
10724
10723.9
10723.8
10723.8
10723.7
10723.6
10723.6
10723.5
10723.4
10723.3
10723.3
10723.2
10723.1
10723
10723
10722.9
10722.8
10722.8
10722.7
10722.6
10722.5
10722.5
10722.4
10722.3
10722.3
10722.2
10722.1
10722
10722
10721.9
10721.8
10721.8
10721.7
10721.6
10721.5
10721.5
10721.4
10721.3
10721.3
10721.2
10721.1
10721
10721
10720.9
10720.8
10720.8
10720.7
10720.6
10720.5
10720.5
10720.4
10720.3
10720.2
10720.2
10720.1
10720
10720
10719.9
10719.8
10719.7
10719.7
10719.6
10719.5
10719.5
10719.4
10719.3
10719.2
10719.2
10719.1
10719
10719
10718.9
10718.8
10718.7
10718.7
10718.6
10718.5
10718.5
10718.4
10718.3
10718.2
10718.2
10718.1
10718
10717.9
10717.9
10717.8
10717.7
10717.7
10717.6
10717.5
10717.4
10717.4
10717.3
10717.2
10717.2
10717.1
10717
10716.9
10716.9
10716.8
10716.7
10716.7
10716.6
10716.5
10716.4
10716.4
10716.3
10716.2
10716.2
10716.1
10716
10715.9
10715.9
10715.8
10715.7
10715.7
10715.6
10715.5
10715.4
10715.4
10715.3
10715.2
10715.1
10715.1
10715
10714.9
10714.9
10714.8
10714.7
10714.6
10714.6
10714.5
10714.4
10714.4
10714.3
10714.2
10714.1
10714.1
10714
10713.9
10713.9
10713.8
10713.7
10713.6
10713.6
10713.5
10713.4
10713.4
10713.3
10713.2
10713.1
10713.1
10713
10712.9
10712.8
10712.8
10712.7
10712.6
10712.6
10712.5
10712.4
10712.3
10712.3
10712.2
10712.1
10712.1
10712
10711.9
10711.8
10711.8
10711.7
10711.6
10711.6
10711.5
10711.4
10711.3
10711.3
10711.2
10711.1
10711.1
10711
10710.9
10710.8
10710.8
10710.7
10710.6
10710.6
10710.5
10710.4
10710.3
10710.3
10710.2
10710.1
10710
10710
10709.9
10709.8
10709.8
10709.7
10709.6
10709.5
10709.5
10709.4
10709.3
10709.3
10709.2
10709.1
10709
10709
10708.9
10708.8
10708.8
10708.7
10708.6
10708.5
10708.5
10708.4
10708.3
10708.3
10708.2
10708.1
10708
10708
10707.9
10707.8
10707.8
10707.7
10707.6
10707.5
10707.5
10707.4
10707.3
10707.3
10707.2
10707.1
10707
10707
10706.9
10706.8
10706.8
10706.7
10706.6
10706.5
10706.5
10706.4
10706.3
10706.3
10706.2
10706.1
10706
10706
10705.9
10705.8
10705.8
10705.7
10705.6
10705.5
10705.5
10705.4
10705.3
10705.3
10705.2
10705.1
10705
10705
10704.9
10704.8
10704.7
10704.7
10704.6
10704.5
10704.5
10704.4
10704.3
10704.2
10704.2
10704.1
10704
10704
10703.9
10703.8
10703.7
10703.7
10703.6
10703.5
10703.5
10703.4
10703.3
10703.2
10703.2
10703.1
10703
10703
10702.9
10702.8
10702.8
10702.7
10702.6
10702.5
10702.5
10702.4
10702.3
10702.3
10702.2
10702.1
10702
10702
10701.9
10701.8
10701.8
10701.7
10701.6
10701.5
10701.5
10701.4
10701.3
10701.3
10701.2
10701.1
10701
10701
10700.9
10700.8
10700.8
10700.7
10700.6
10700.5
10700.5
10700.4
10700.3
10700.3
10700.2
10700.1
10700
10700
10699.9
10699.8
10699.8
10699.7
10699.6
10699.5
10699.5
10699.4
10699.3
10699.3
10699.2
10699.1
10699
10699
10698.9
10698.8
10698.8
10698.7
10698.6
10698.6
10698.5
10698.4
10698.3
10698.3
10698.2
10698.1
10698.1
10698
10697.9
10697.8
10697.8
10697.7
10697.6
10697.6
10697.5
10697.4
10697.3
10697.3
10697.2
10697.1
10697.1
10697
10696.9
10696.9
10696.8
10696.7
10696.6
10696.6
10696.5
10696.4
10696.4
10696.3
10696.2
10696.1
10696.1
10696
10695.9
10695.9
10695.8
10695.7
10695.7
10695.6
10695.5
10695.4
10695.4
10695.3
10695.2
10695.2
10695.1
10695
10694.9
10694.9
10694.8
10694.7
10694.7
10694.6
10694.5
10694.5
10694.4
10694.3
10694.2
10694.2
10694.1
10694
10694
10693.9
10693.8
10693.8
10693.7
10693.6
10693.5
10693.5
10693.4
10693.3
10693.3
10693.2
10693.1
10693
10693
10692.9
10692.8
10692.8
10692.7
10692.6
10692.6
10692.5
10692.4
10692.3
10692.3
10692.2
10692.1
10692.1
10692
10691.9
10691.9
10691.8
10691.7
10691.6
10691.6
10691.5
10691.4
10691.4
10691.3
10691.2
10691.2
10691.1
10691
10691
10690.9
10690.8
10690.7
10690.7
10690.6
10690.5
10690.5
10690.4
10690.3
10690.3
10690.2
10690.1
10690
10690
10689.9
10689.8
10689.8
10689.7
10689.6
10689.6
10689.5
10689.4
10689.4
10689.3
10689.2
10689.1
10689.1
10689
10688.9
10688.9
10688.8
10688.7
10688.7
10688.6
10688.5
10688.5
10688.4
10688.3
10688.2
10688.2
10688.1
10688
10688
10687.9
10687.8
10687.8
10687.7
10687.6
10687.6
10687.5
10687.4
10687.3
10687.3
10687.2
10687.1
10687.1
10687
10686.9
10686.9
10686.8
10686.7
10686.7
10686.6
10686.5
10686.5
10686.4
10686.3
10686.2
10686.2
10686.1
10686
10686
10685.9
10685.8
10685.8
10685.7
10685.6
10685.6
10685.5
10685.4
10685.4
10685.3
10685.2
10685.2
10685.1
10685
10684.9
10684.9
10684.8
10684.7
10684.7
10684.6
10684.5
10684.5
10684.4
10684.3
10684.3
10684.2
10684.1
10684.1
10684
10683.9
10683.9
10683.8
10683.7
10683.7
10683.6
10683.5
10683.5
10683.4
10683.3
10683.2
10683.2
10683.1
10683
10683
10682.9
10682.8
10682.8
10682.7
10682.6
10682.6
10682.5
10682.4
10682.4
10682.3
10682.2
10682.2
10682.1
10682
10682
10681.9
10681.8
10681.8
10681.7
10681.6
10681.6
10681.5
10681.4
10681.4
10681.3
10681.2
10681.2
10681.1
10681
10681
10680.9
10680.8
10680.8
10680.7
10680.6
10680.6
10680.5
10680.4
10680.4
10680.3
10680.2
10680.2
10680.1
10680
10680
10679.9
10679.8
10679.8
10679.7
10679.6
10679.6
10679.5
10679.4
10679.4
10679.3
10679.2
10679.2
10679.1
10679
10679
10678.9
10678.8
10678.8
10678.7
10678.6
10678.6
10678.5
10678.5
10678.4
10678.3
10678.3
10678.2
10678.1
10678.1
10678
10677.9
10677.9
10677.8
10677.7
10677.7
10677.6
10677.5
10677.5
10677.4
10677.3
10677.3
10677.2
10677.1
10677.1
10677
10677
10676.9
10676.8
10676.8
10676.7
10676.6
10676.6
10676.5
10676.4
10676.4
10676.3
10676.2
10676.2
10676.1
10676
10676
10675.9
10675.9
10675.8
10675.7
10675.7
10675.6
10675.5
10675.5
10675.4
10675.3
10675.3
10675.2
10675.2
10675.1
10675
10675
10674.9
10674.8
10674.8
10674.7
10674.6
10674.6
10674.5
10674.5
10674.4
10674.3
10674.3
10674.2
10674.1
10674.1
10674
10674
10673.9
10673.8
10673.8
10673.7
10673.6
10673.6
10673.5
10673.4
10673.4
10673.3
10673.3
10673.2
10673.1
10673.1
10673
10673
10672.9
10672.8
10672.8
10672.7
10672.6
10672.6
10672.5
10672.5
10672.4
10672.3
10672.3
10672.2
10672.1
10672.1
10672
10672
10671.9
10671.8
10671.8
10671.7
10671.7
10671.6
10671.5
10671.5
10671.4
10671.4
10671.3
10671.2
10671.2
10671.1
10671.1
10671
10670.9
10670.9
10670.8
10670.7
10670.7
10670.6
10670.6
10670.5
10670.4
10670.4
10670.3
10670.3
10670.2
10670.1
10670.1
10670
10670
10669.9
10669.9
10669.8
10669.7
10669.7
10669.6
10669.6
10669.5
10669.4
10669.4
10669.3
10669.3
10669.2
10669.1
10669.1
10669
10669
10668.9
10668.9
10668.8
10668.7
10668.7
10668.6
10668.6
10668.5
10668.4
10668.4
10668.3
10668.3
10668.2
10668.2
10668.1
10668
10668
10667.9
10667.9
10667.8
10667.8
10667.7
10667.6
10667.6
10667.5
10667.5
10667.4
10667.4
10667.3
10667.2
10667.2
10667.1
10667.1
10667
10667
10666.9
10666.9
10666.8
10666.7
10666.7
10666.6
10666.6
10666.5
10666.5
10666.4
10666.4
10666.3
10666.2
10666.2
10666.1
10666.1
10666
10666
10665.9
10665.9
10665.8
10665.8
10665.7
10665.6
10665.6
10665.5
10665.5
10665.4
10665.4
10665.3
10665.3
10665.2
10665.2
10665.1
10665.1
10665
10665
10664.9
10664.9
10664.8
10664.7
10664.7
10664.6
10664.6
10664.5
10664.5
10664.4
10664.4
10664.3
10664.3
10664.2
10664.2
10664.1
10664.1
10664
10664
10663.9
10663.9
10663.8
10663.8
10663.7
10663.7
10663.6
10663.6
10663.5
10663.5
10663.4
10663.4
10663.3
10663.3
10663.2
10663.2
10663.1
10663.1
10663
10663
10662.9
10662.9
10662.8
10662.8
10662.7
10662.7
10662.6
10662.6
10662.5
10662.5
10662.4
10662.4
10662.3
10662.3
10662.2
10662.2
10662.2
10662.1
10662.1
10662
10662
10661.9
10661.9
10661.8
10661.8
10661.7
10661.7
10661.6
10661.6
10661.6
10661.5
10661.5
10661.4
10661.4
10661.3
10661.3
10661.2
10661.2
10661.2
10661.1
10661.1
10661
10661
10660.9
10660.9
10660.8
10660.8
10660.8
10660.7
10660.7
10660.6
10660.6
10660.5
10660.5
10660.5
10660.4
10660.4
10660.3
10660.3
10660.3
10660.2
10660.2
10660.1
10660.1
10660
10660
10660
10659.9
10659.9
10659.8
10659.8
10659.8
10659.7
10659.7
10659.7
10659.6
10659.6
10659.5
10659.5
10659.5
10659.4
10659.4
10659.3
10659.3
10659.3
10659.2
10659.2
10659.2
10659.1
10659.1
10659
10659
10659
10658.9
10658.9
10658.9
10658.8
10658.8
10658.8
10658.7
10658.7
10658.7
10658.6
10658.6
10658.6
10658.5
10658.5
10658.5
10658.4
10658.4
10658.4
10658.3
10658.3
10658.3
10658.2
10658.2
10658.2
10658.1
10658.1
10658.1
10658
10658
10658
10658
10657.9
10657.9
10657.9
10657.8
10657.8
10657.8
10657.7
10657.7
10657.7
10657.7
10657.6
10657.6
10657.6
10657.5
10657.5
10657.5
10657.5
10657.4
10657.4
10657.4
10657.4
10657.3
10657.3
10657.3
10657.3
10657.2
10657.2
10657.2
10657.2
10657.1
10657.1
10657.1
10657.1
10657.1
10657
10657
10657
10657
10656.9
10656.9
10656.9
10656.9
10656.9
10656.8
10656.8
10656.8
10656.8
10656.8
10656.7
10656.7
10656.7
10656.7
10656.7
10656.7
10656.6
10656.6
10656.6
10656.6
10656.6
10656.6
10656.5
10656.5
10656.5
10656.5
10656.5
10656.5
10656.5
10656.4
10656.4
10656.4
10656.4
10656.4
10656.4
10656.4
10656.4
10656.3
10656.3
10656.3
10656.3
10656.3
10656.3
10656.3
10656.3
10656.3
10656.3
10656.2
10656.2
10656.2
10656.2
10656.2
10656.2
10656.2
10656.2
10656.2
10656.2
10656.2
10656.2
10656.2
10656.2
10656.2
10656.2
10656.2
10656.2
10656.2
10656.2
10656.2
10656.2
10656.2
10656.2
10656.2
10656.2
10656.2
10656.2
10656.2
10656.2
10656.2
10656.2
10656.2
10656.2
10656.2
10656.2
10656.2
10656.2
10656.2
10656.2
10656.2
10656.2
10656.2
10656.2
10656.3
10656.3
10656.3
10656.3
10656.3
10656.3
10656.3
10656.3
10656.3
10656.3
10656.4
10656.4
10656.4
10656.4
10656.4
10656.4
10656.4
10656.5
10656.5
10656.5
10656.5
10656.5
10656.5
10656.6
10656.6
10656.6
10656.6
10656.6
10656.7
10656.7
10656.7
10656.7
10656.8
10656.8
10656.8
10656.8
10656.9
10656.9
10656.9
10656.9
10657
10657
10657
10657
10657.1
10657.1
10657.1
10657.2
10657.2
10657.2
10657.3
10657.3
10657.3
10657.4
10657.4
10657.4
10657.5
10657.5
10657.5
10657.6
10657.6
10657.7
10657.7
10657.7
10657.8
10657.8
10657.9
10657.9
10658
10658
10658
10658.1
10658.1
10658.2
10658.2
10658.3
10658.3
10658.4
10658.4
10658.5
10658.5
10658.6
10658.6
10658.7
10658.7
10658.8
10658.8
10658.9
10659
10659
10659.1
10659.1
10659.2
10659.3
10659.3
10659.4
10659.4
10659.5
10659.6
10659.6
10659.7
10659.8
10659.8
10659.9
10660
10660
10660.1
10660.2
10660.2
10660.3
10660.4
10660.5
10660.5
10660.6
10660.7
10660.8
10660.9
10660.9
10661
10661.1
10661.2
10661.3
10661.3
10661.4
10661.5
10661.6
10661.7
10661.8
10661.9
10661.9
10662
10662.1
10662.2
10662.3
10662.4
10662.5
10662.6
10662.7
10662.8
10662.9
10663
10663.1
10663.2
10663.3
10663.4
10663.5
10663.6
10663.7
10663.8
10663.9
10664.1
10664.2
10664.3
10664.4
10664.5
10664.6
10664.7
10664.9
10665
10665.1
10665.2
10665.3
10665.5
10665.6
10665.7
10665.8
10666
10666.1
10666.2
10666.4
10666.5
10666.6
10666.8
10666.9
10667
10667.2
10667.3
10667.4
10667.6
10667.7
10667.9
10668
10668.2
10668.3
10668.5
10668.6
10668.8
10668.9
10669.1
10669.2
10669.4
10669.5
10669.7
10669.9
10670
10670.2
10670.3
10670.5
10670.7
10670.8
10671
10671.2
10671.4
10671.5
10671.7
10671.9
10672.1
10672.3
10672.4
10672.6
10672.8
10673
10673.2
10673.4
10673.6
10673.7
10673.9
10674.1
10674.3
10674.5
10674.7
10674.9
10675.1
10675.3
10675.5
10675.7
10676
10676.2
10676.4
10676.6
10676.8
10677
10677.2
10677.5
10677.7
10677.9
10678.1
10678.4
10678.6
10678.8
10679.1
10679.3
10679.5
10679.8
10680
10680.2
10680.5
10680.7
10681
10681.2
10681.5
10681.7
10682
10682.2
10682.5
10682.7
10683
10683.3
10683.5
10683.8
10684.1
10684.3
10684.6
10684.9
10685.2
10685.4
10685.7
10686
10686.3
10686.6
10686.9
10687.2
10687.4
10687.7
10688
10688.3
10688.6
10688.9
10689.2
10689.5
10689.9
10690.2
10690.5
10690.8
10691.1
10691.4
10691.7
10692.1
10692.4
10692.7
10693
10693.4
10693.7
10694
10694.4
10694.7
10695.1
10695.4
10695.8
10696.1
10696.5
10696.8
10697.2
10697.5
10697.9
10698.2
10698.6
10699
10699.3
10699.7
10700.1
10700.5
10700.8
10701.2
10701.6
10702
10702.4
10702.8
10703.2
10703.6
10704
10704.4
10704.8
10705.2
10705.6
10706
10706.4
10706.8
10707.2
10707.6
10708.1
10708.5
10708.9
10709.3
10709.8
10710.2
10710.6
10711.1
10711.5
10711.9
10712.4
10712.8
10713.3
10713.7
10714.2
10714.7
10715.1
10715.6
10716
10716.5
10717
10717.4
10717.9
10718.4
10718.9
10719.4
10719.8
10720.3
10720.8
10721.3
10721.8
10722.3
10722.8
10723.3
10723.8
10724.3
10724.8
10725.3
10725.8
10726.4
10726.9
10727.4
10727.9
10728.5
10729
10729.5
10730
10730.6
10731.1
10731.7
10732.2
10732.7
10733.3
10733.8
10734.4
10735
10735.5
10736.1
10736.6
10737.2
10737.8
10738.3
10738.9
10739.5
10740.1
10740.6
10741.2
10741.8
10742.4
10743
10743.6
10744.2
10744.8
10745.4
10746
10746.6
10747.2
10747.8
10748.4
10749
10749.6
10750.2
10750.8
10751.5
10752.1
10752.7
10753.3
10754
10754.6
10755.2
10755.9
10756.5
10757.1
10757.8
10758.4
10759.1
10759.7
10760.4
10761
10761.7
10762.3
10763
10763.6
10764.3
10765
10765.6
10766.3
10767
10767.6
10768.3
10769
10769.7
10770.3
10771
10771.7
10772.4
10773.1
10773.8
10774.4
10775.1
10775.8
10776.5
10777.2
10777.9
10778.6
10779.3
10780
10780.7
10781.4
10782.1
10782.8
10783.6
10784.3
10785
10785.7
10786.4
10787.1
10787.9
10788.6
10789.3
10790
10790.7
10791.5
10792.2
10792.9
10793.7
10794.4
10795.1
10795.9
10796.6
10797.3
10798.1
10798.8
10799.6
10800.3
10801
10801.8
10802.5
10803.3
10804
10804.8
10805.5
10806.3
10807
10807.8
10808.5
10809.3
10810.1
10810.8
10811.6
10812.3
10813.1
10813.9
10814.6
10815.4
10816.2
10816.9
10817.7
10818.5
10819.2
10820
10820.8
10821.5
10822.3
10823.1
10823.9
10824.6
10825.4
10826.2
10827
10827.7
10828.5
10829.3
10830.1
10830.9
10831.6
10832.4
10833.2
10834
10834.8
10835.6
10836.3
10837.1
10837.9
10838.7
10839.5
10840.3
10841.1
10841.9
10842.6
10843.4
10844.2
10845
10845.8
10846.6
10847.4
10848.2
10849
10849.8
10850.6
10851.4
10852.2
10853
10853.8
10854.5
10855.3
10856.1
10856.9
10857.7
10858.5
10859.3
10860.1
10860.9
10861.7
10862.5
10863.3
10864.1
10864.9
10865.7
10866.5
10867.4
10868.2
10869
10869.8
10870.6
10871.4
10872.2
10873
10873.8
10874.6
10875.4
10876.2
10877
10877.8
10878.6
10879.4
10880.2
10881
10881.9
10882.7
10883.5
10884.3
10885.1
10885.9
10886.7
10887.5
10888.3
10889.1
10889.9
10890.8
10891.6
10892.4
10893.2
10894
10894.8
10895.6
10896.4
10897.2
10898.1
10898.9
10899.7
10900.5
10901.3
10902.1
10902.9
10903.7
10904.5
10905.4
10906.2
10907
10907.8
10908.6
10909.4
10910.2
10911.1
10911.9
10912.7
10913.5
10914.3
10915.1
10915.9
10916.8
10917.6
10918.4
10919.2
10920
10920.8
10921.7
10922.5
10923.3
10924.1
10924.9
10925.7
10926.5
10927.4
10928.2
10929
10929.8
10930.6
10931.4
10932.3
10933.1
10933.9
10934.7
10935.5
10936.3
10937.2
10938
10938.8
10939.6
10940.4
10941.3
10942.1
10942.9
10943.7
10944.5
10945.3
10946.2
10947
10947.8
10948.6
10949.4
10950.3
10951.1
10951.9
10952.7
10953.5
10954.4
10955.2
10956
10956.8
10957.6
10958.4
10959.3
10960.1
10960.9
10961.7
10962.5
10963.4
10964.2
10965
10965.8
10966.7
10967.5
10968.3
10969.1
10969.9
10970.8
10971.6
10972.4
10973.2
10974
10974.9
10975.7
10976.5
10977.3
10978.1
10979
10979.8
10980.6
10981.4
10982.3
10983.1
10983.9
10984.7
10985.5
10986.4
10987.2
10988
10988.8
10989.7
10990.5
10991.3
10992.1
10992.9
10993.8
10994.6
10995.4
10996.2
10997.1
10997.9
10998.7
10999.5
11000.4
11001.2
11002
11002.8
11003.6
11004.5
11005.3
11006.1
11006.9
11007.8
11008.6
11009.4
11010.2
11011.1
11011.9
11012.7
11013.5
11014.4
11015.2
11016
11016.8
11017.7
11018.5
11019.3
11020.1
11021
11021.8
11022.6
11023.4
11024.3
11025.1
11025.9
11026.7
11027.6
11028.4
11029.2
11030
11030.9
11031.7
11032.5
11033.3
11034.2
11035
11035.8
11036.7
11037.5
11038.3
11039.1
11040
11040.8
11041.6
11042.4
11043.3
11044.1
11044.9
11045.7
11046.6
11047.4
11048.2
11049.1
11049.9
11050.7
11051.5
11052.4
11053.2
11054
11054.9
11055.7
11056.5
11057.3
11058.2
11059
11059.8
11060.6
11061.5
11062.3
11063.1
11064
11064.8
11065.6
11066.5
11067.3
11068.1
11068.9
11069.8
11070.6
11071.4
11072.3
11073.1
11073.9
11074.7
11075.6
11076.4
11077.2
11078.1
11078.9
11079.7
11080.6
11081.4
11082.2
11083
11083.9
11084.7
11085.5
11086.4
11087.2
11088
11088.9
11089.7
11090.5
11091.4
11092.2
11093
11093.8
11094.7
11095.5
11096.3
11097.2
11098
11098.8
11099.7
11100.5
11101.3
11102.2
11103
11103.8
11104.7
11105.5
11106.3
11107.2
11108
11108.8
11109.7
11110.5
11111.3
11112.2
11113
11113.8
11114.7
11115.5
11116.3
11117.2
11118
11118.8
11119.7
11120.5
11121.3
11122.2
11123
11123.8
11124.7
11125.5
11126.3
11127.2
11128
11128.8
11129.7
11130.5
11131.3
11132.2
11133
11133.8
11134.7
11135.5
11136.3
11137.2
11138
11138.8
11139.7
11140.5
11141.3
11142.2
11143
11143.9
11144.7
11145.5
11146.4
11147.2
11148
11148.9
11149.7
11150.5
11151.4
11152.2
11153
11153.9
11154.7
11155.6
11156.4
11157.2
11158.1
11158.9
11159.7
11160.6
11161.4
11162.3
11163.1
11163.9
11164.8
11165.6
11166.4
11167.3
11168.1
11169
11169.8
11170.6
11171.5
11172.3
11173.1
11174
11174.8
11175.7
11176.5
11177.3
11178.2
11179
11179.8
11180.7
11181.5
11182.4
11183.2
11184
11184.9
11185.7
11186.6
11187.4
11188.2
11189.1
11189.9
11190.8
11191.6
11192.4
11193.3
11194.1
11195
11195.8
11196.6
11197.5
11198.3
11199.2
11200
11200.8
11201.7
11202.5
11203.4
11204.2
11205
11205.9
11206.7
11207.6
11208.4
11209.2
11210.1
11210.9
11211.8
11212.6
11213.4
11214.3
11215.1
11216
11216.8
11217.7
11218.5
11219.3
11220.2
11221
11221.9
11222.7
11223.6
11224.4
11225.2
11226.1
11226.9
11227.8
11228.6
11229.4
11230.3
11231.1
11232
11232.8
11233.7
11234.5
11235.3
11236.2
11237
11237.9
11238.7
11239.6
11240.4
11241.3
11242.1
11242.9
11243.8
11244.6
11245.5
11246.3
11247.2
11248
11248.9
11249.7
11250.5
11251.4
11252.2
11253.1
11253.9
11254.8
11255.6
11256.5
11257.3
11258.1
11259
11259.8
11260.7
11261.5
11262.4
11263.2
11264.1
11264.9
11265.8
11266.6
11267.4
11268.3
11269.1
11270
11270.8
11271.7
11272.5
11273.4
11274.2
11275.1
11275.9
11276.8
11277.6
11278.4
11279.3
11280.1
11281
11281.8
11282.7
11283.5
11284.4
11285.2
11286.1
11286.9
11287.8
11288.6
11289.5
11290.3
11291.2
11292
11292.9
11293.7
11294.5
11295.4
11296.2
11297.1
11297.9
11298.8
11299.6
11300.5
11301.3
11302.2
11303
11303.9
11304.7
11305.6
11306.4
11307.3
11308.1
11309
11309.8
11310.7
11311.5
11312.4
11313.2
11314.1
11314.9
11315.8
11316.6
11317.5
11318.3
11319.2
11320
11320.9
11321.7
11322.6
11323.4
11324.3
11325.1
11326
11326.8
11327.7
11328.5
11329.4
11330.2
11331.1
11331.9
11332.8
11333.6
11334.5
11335.3
11336.2
11337
11337.9
11338.8
11339.6
11340.5
11341.3
11342.2
11343
11343.9
11344.7
11345.6
11346.4
11347.3
11348.1
11349
11349.8
11350.7
11351.5
11352.4
11353.2
11354.1
11354.9
11355.8
11356.7
11357.5
11358.4
11359.2
11360.1
11360.9
11361.8
11362.6
11363.5
11364.3
11365.2
11366
11366.9
11367.8
11368.6
11369.5
11370.3
11371.2
11372
11372.9
11373.7
11374.6
11375.4
11376.3
11377.2
11378
11378.9
11379.7
11380.6
11381.4
11382.3
11383.1
11384
11384.9
11385.7
11386.6
11387.4
11388.3
11389.1
11390
11390.8
11391.7
11392.6
11393.4
11394.3
11395.1
11396
11396.8
11397.7
11398.6
11399.4
11400.3
11401.1
11402
11402.8
11403.7
11404.6
11405.4
11406.3
11407.1
11408
11408.8
11409.7
11410.6
11411.4
11412.3
11413.1
11414
11414.8
11415.7
11416.6
11417.4
11418.3
11419.1
11420
11420.9
11421.7
11422.6
11423.4
11424.3
11425.2
11426
11426.9
11427.7
11428.6
11429.4
11430.3
11431.2
11432
11432.9
11433.7
11434.6
11435.5
11436.3
11437.2
11438
11438.9
11439.8
11440.6
11441.5
11442.3
11443.2
11444.1
11444.9
11445.8
11446.7
11447.5
11448.4
11449.2
11450.1
11451
11451.8
11452.7
11453.5
11454.4
11455.3
11456.1
11457
11457.8
11458.7
11459.6
11460.4
11461.3
11462.2
11463
11463.9
11464.7
11465.6
11466.5
11467.3
11468.2
11469.1
11469.9
11470.8
11471.6
11472.5
11473.4
11474.2
11475.1
11476
11476.8
11477.7
11478.6
11479.4
11480.3
11481.1
11482
11482.9
11483.7
11484.6
11485.5
11486.3
11487.2
11488.1
11488.9
11489.8
11490.6
11491.5
11492.4
11493.2
11494.1
11495
11495.8
11496.7
11497.6
11498.4
11499.3
11500.2
11501
11501.9
11502.8
11503.6
11504.5
11505.4
11506.2
11507.1
11508
11508.8
11509.7
11510.6
11511.4
11512.3
11513.1
11514
11514.9
11515.7
11516.6
11517.5
11518.3
11519.2
11520.1
11520.9
11521.8
11522.7
11523.6
11524.4
11525.3
11526.2
11527
11527.9
11528.8
11529.6
11530.5
11531.4
11532.2
11533.1
11534
11534.8
11535.7
11536.6
11537.4
11538.3
11539.2
11540
11540.9
11541.8
11542.6
11543.5
11544.4
11545.3
11546.1
11547
11547.9
11548.7
11549.6
11550.5
11551.3
11552.2
11553.1
11553.9
11554.8
11555.7
11556.6
11557.4
11558.3
11559.2
11560
11560.9
11561.8
11562.6
11563.5
11564.4
11565.3
11566.1
11567
11567.9
11568.7
11569.6
11570.5
11571.4
11572.2
11573.1
11574
11574.8
11575.7
11576.6
11577.5
11578.3
11579.2
11580.1
11580.9
11581.8
11582.7
11583.6
11584.4
11585.3
11586.2
11587.1
11587.9
11588.8
11589.7
11590.5
11591.4
11592.3
11593.2
11594
11594.9
11595.8
11596.7
11597.5
11598.4
11599.3
11600.1
11601
11601.9
11602.8
11603.6
11604.5
11605.4
11606.3
11607.1
11608
11608.9
11609.8
11610.6
11611.5
11612.4
11613.3
11614.1
11615
11615.9
11616.8
11617.6
11618.5
11619.4
11620.3
11621.1
11622
11622.9
11623.8
11624.6
11625.5
11626.4
11627.3
11628.1
11629
11629.9
11630.8
11631.6
11632.5
11633.4
11634.3
11635.1
11636
11636.9
11637.8
11638.7
11639.5
11640.4
11641.3
11642.2
11643
11643.9
11644.8
11645.7
11646.6
11647.4
11648.3
11649.2
11650.1
11650.9
11651.8
11652.7
11653.6
11654.5
11655.3
11656.2
11657.1
11658
11658.8
11659.7
11660.6
11661.5
11662.4
11663.2
11664.1
11665
11665.9
11666.8
11667.6
11668.5
11669.4
11670.3
11671.1
11672
11672.9
11673.8
11674.7
11675.5
11676.4
11677.3
11678.2
11679.1
11679.9
11680.8
11681.7
11682.6
11683.5
11684.3
11685.2
11686.1
11687
11687.9
11688.8
11689.6
11690.5
11691.4
11692.3
11693.2
11694
11694.9
11695.8
11696.7
11697.6
11698.4
11699.3
11700.2
11701.1
11702
11702.9
11703.7
11704.6
11705.5
11706.4
11707.3
11708.2
11709
11709.9
11710.8
11711.7
11712.6
11713.5
11714.3
11715.2
11716.1
11717
11717.9
11718.8
11719.6
11720.5
11721.4
11722.3
11723.2
11724.1
11724.9
11725.8
11726.7
11727.6
11728.5
11729.4
11730.2
11731.1
11732
11732.9
11733.8
11734.7
11735.6
11736.4
11737.3
11738.2
11739.1
11740
11740.9
11741.7
11742.6
11743.5
11744.4
11745.3
11746.2
11747.1
11747.9
11748.8
11749.7
11750.6
11751.5
11752.4
11753.3
11754.2
11755
11755.9
11756.8
11757.7
11758.6
11759.5
11760.4
11761.2
11762.1
11763
11763.9
11764.8
11765.7
11766.6
11767.5
11768.3
11769.2
11770.1
11771
11771.9
11772.8
11773.7
11774.6
11775.4
11776.3
11777.2
11778.1
11779
11779.9
11780.8
11781.7
11782.6
11783.4
11784.3
11785.2
11786.1
11787
11787.9
11788.8
11789.7
11790.6
11791.4
11792.3
11793.2
11794.1
11795
11795.9
11796.8
11797.7
11798.6
11799.5
11800.3
11801.2
11802.1
11803
11803.9
11804.8
11805.7
11806.6
11807.5
11808.4
11809.2
11810.1
11811
11811.9
11812.8
11813.7
11814.6
11815.5
11816.4
11817.3
11818.2
11819.1
11819.9
11820.8
11821.7
11822.6
11823.5
11824.4
11825.3
11826.2
11827.1
11828
11828.9
11829.8
11830.7
11831.5
11832.4
11833.3
11834.2
11835.1
11836
11836.9
11837.8
11838.7
11839.6
11840.5
11841.4
11842.3
11843.2
11844.1
11844.9
11845.8
11846.7
11847.6
11848.5
11849.4
11850.3
11851.2
11852.1
11853
11853.9
11854.8
11855.7
11856.6
11857.5
11858.4
11859.3
11860.2
11861
11861.9
11862.8
11863.7
11864.6
11865.5
11866.4
11867.3
11868.2
11869.1
11870
11870.9
11871.8
11872.7
11873.6
11874.5
11875.4
11876.3
11877.2
11878.1
11879
11879.9
11880.8
11881.7
11882.6
11883.5
11884.3
11885.2
11886.1
11887
11887.9
11888.8
11889.7
11890.6
11891.5
11892.4
11893.3
11894.2
11895.1
11896
11896.9
11897.8
11898.7
11899.6
11900.5
11901.4
11902.3
11903.2
11904.1
11905
11905.9
11906.8
11907.7
11908.6
11909.5
11910.4
11911.3
11912.2
11913.1
11914
11914.9
11915.8
11916.7
11917.6
11918.5
11919.4
11920.3
11921.2
11922.1
11923
11923.9
11924.8