/*--------------------------------*- C++ -*----------------------------------*\
  =========                 |
  \\      /  F ield         | OpenFOAM: The Open Source CFD Toolbox
   \\    /   O peration     | Website:  https://openfoam.org
    \\  /    A nd           | Version:  9
     \\/     M anipulation  |
\*---------------------------------------------------------------------------*/
FoamFile
{
    format      ascii;
    class       volScalarField;
    location    "0.003";
    object      ddt0(rho,e);
}
// * * * * * * * * * * * * * * * * * * * * * * * * * * * * * * * * * * * * * //

dimensions      [1 -1 -3 0 0 0 0];

internalField   nonuniform List<scalar> 
1000
(
3.57441e-06
1.23976e-06
-1.77536e-06
3.73686e-06
-3.68184e-06
5.96397e-07
-1.23311e-06
4.30116e-06
-1.14196e-06
-3.961e-06
-3.06442e-06
2.7532e-06
4.02113e-06
2.58073e-06
-7.31869e-07
1.91575e-06
-9.29916e-07
-8.50057e-07
-3.42484e-06
6.56206e-07
-3.05862e-06
-5.08555e-06
-4.16162e-06
2.71823e-06
-1.09216e-06
4.27526e-06
-1.93084e-07
6.73424e-06
2.95801e-06
-8.42341e-07
-2.60027e-06
-3.57073e-06
-1.38737e-06
-1.9676e-06
-4.03083e-06
1.24984e-06
8.46374e-07
1.44396e-06
-1.81052e-06
-5.99568e-07
-2.21641e-06
-9.48753e-07
-3.88827e-06
-3.03801e-06
-8.70058e-07
-6.26486e-06
-1.67494e-06
4.17616e-06
-2.42771e-06
1.05883e-06
-2.07578e-06
-1.23168e-06
-3.96779e-06
-3.24474e-06
4.99973e-06
9.42752e-07
-1.33561e-06
1.81962e-06
-1.55682e-06
1.50634e-06
-2.23392e-06
4.76483e-07
-3.27018e-07
9.73106e-07
-2.9277e-07
1.6354e-08
8.13061e-06
-5.86514e-07
5.31352e-07
-8.67348e-07
-8.4243e-07
-3.49283e-06
1.55674e-06
-7.45954e-06
9.17475e-07
-5.84467e-06
1.97494e-08
2.71615e-06
-1.39435e-06
1.62694e-06
2.01121e-06
1.94668e-06
1.99198e-06
6.11458e-08
-4.2808e-06
-5.45151e-06
2.32333e-06
9.10081e-07
-5.51286e-07
-6.00923e-06
1.97465e-08
7.56479e-07
5.70304e-07
-1.46341e-06
2.35895e-06
-2.27346e-06
2.04702e-06
-1.29621e-08
7.74181e-08
-8.40925e-07
4.696e-06
2.15764e-06
-4.1454e-06
-1.20238e-06
1.80191e-07
-2.67615e-06
-4.27852e-06
-3.76969e-07
3.17633e-06
-4.40509e-07
1.29396e-06
-2.64917e-06
-3.06974e-06
2.4699e-06
1.20027e-06
3.68522e-06
-1.37601e-06
1.92263e-06
-2.34671e-06
1.04028e-06
-3.19316e-06
-2.56208e-07
-3.43996e-07
2.73246e-06
-2.29896e-06
-1.8831e-07
2.23396e-06
3.19878e-06
5.31751e-07
1.69943e-06
-1.08667e-06
-2.77451e-06
-3.00447e-06
-2.03089e-06
-5.16019e-06
-4.19852e-07
-2.62292e-06
7.12756e-06
-1.47683e-06
5.10018e-06
5.55887e-06
-2.09819e-06
-3.68624e-06
-2.54273e-06
-3.39976e-06
2.00249e-07
-6.99445e-07
-2.23552e-07
-1.30386e-06
-7.01624e-07
4.43939e-06
-1.49956e-07
3.75796e-06
-9.76486e-07
3.42039e-06
1.39724e-06
4.30723e-06
-2.2856e-06
-1.23922e-06
-1.10572e-06
-3.66469e-06
6.25182e-09
5.26817e-07
-4.58204e-06
5.28533e-08
7.27214e-07
-1.76207e-06
-3.22261e-06
-2.73587e-06
-1.50102e-06
-2.40042e-06
-1.57623e-06
1.02135e-07
3.32746e-06
3.06314e-06
2.30596e-06
-5.07263e-06
-8.08265e-08
3.55791e-06
-2.93498e-08
3.04357e-07
-6.12235e-06
1.29073e-06
-2.96686e-06
-4.23625e-06
-1.30985e-06
1.21834e-06
8.39514e-07
1.79569e-06
1.2606e-06
-1.83843e-06
3.25324e-06
-3.45781e-07
-2.61456e-06
2.45623e-07
3.8705e-06
-1.74113e-07
2.83954e-07
-9.97394e-07
6.28588e-07
-2.20703e-06
-3.27263e-06
-4.76089e-06
3.017e-06
1.55842e-06
9.25459e-07
3.13778e-06
2.10691e-06
3.53511e-07
2.68291e-06
-1.13276e-08
-7.78535e-07
1.84375e-06
-8.36454e-07
-3.04648e-06
-2.85881e-06
3.59077e-06
1.75529e-06
-7.90246e-07
-3.66285e-06
1.33559e-06
3.67284e-06
7.65343e-07
-2.94571e-06
-1.29125e-06
-6.59481e-07
7.41884e-07
-2.26828e-06
-5.88078e-06
9.39078e-07
8.98083e-07
2.53053e-08
-3.1299e-06
1.39579e-06
-1.87585e-06
2.23004e-07
-2.1803e-06
-5.91324e-06
-1.77467e-06
-1.69212e-06
-2.60341e-06
-9.53744e-07
9.0715e-07
1.44209e-06
-4.00544e-06
3.15572e-06
1.27947e-06
1.26741e-06
6.84233e-07
5.66966e-07
-5.56516e-06
-3.09047e-06
-5.45036e-07
-2.08489e-06
-4.14542e-06
-5.44361e-06
6.70731e-07
2.6686e-06
2.35495e-06
3.14912e-06
-1.10329e-07
1.82906e-06
3.78678e-06
3.39759e-06
-1.03549e-06
-1.10409e-06
-4.92226e-07
-4.84369e-06
1.66586e-06
7.86925e-07
-3.26787e-06
2.52505e-06
3.87921e-06
1.71649e-06
2.77574e-07
2.29563e-06
-4.47094e-06
-2.53829e-06
-2.14471e-06
-3.74252e-06
-1.02274e-06
-2.76955e-06
3.7783e-06
3.65565e-06
1.39851e-06
2.17792e-07
2.88918e-06
-1.69272e-06
1.34378e-06
4.1782e-06
8.22949e-07
4.0044e-06
8.65758e-07
-1.26653e-07
-2.55594e-06
1.13917e-06
4.06213e-06
-3.49255e-06
-2.41726e-06
2.13732e-06
1.54079e-06
3.6074e-06
5.67051e-07
1.38829e-06
-5.17514e-06
-1.66515e-06
-1.40798e-06
-6.2395e-07
-6.87367e-08
1.93866e-06
4.68758e-06
-1.56312e-06
2.24597e-06
5.17794e-06
5.39609e-06
-2.51753e-07
-8.80532e-07
-6.27309e-06
3.16442e-06
1.93988e-06
4.66513e-07
-3.16855e-06
2.91823e-07
-2.29543e-06
2.16573e-06
-1.57141e-06
2.94705e-07
-2.15204e-06
-4.71237e-06
-3.73874e-07
-3.58836e-06
8.76904e-08
1.56572e-06
-3.91709e-06
-2.22257e-06
3.67851e-06
3.78763e-06
7.9246e-07
7.13632e-07
4.1865e-06
6.20399e-07
-1.52007e-06
-1.91924e-06
-5.79495e-06
-9.40942e-06
-1.15429e-05
-2.47736e-05
-5.73707e-05
-0.000157832
-0.000404977
-0.00103656
-0.00262998
-0.00657186
-0.0162369
-0.0396186
-0.0954693
-0.22718
-0.533639
-1.23702
-2.82888
-6.37999
-14.1853
-31.0818
-67.0881
-142.582
-298.237
-613.634
-1241.27
-2466.98
-4814.07
-9216.82
-17298.4
-31796.7
-57180.1
-100478
-172295
-287856
-467756
-737840
-1.12741e+06
-1.66498e+06
-2.37114e+06
-3.24936e+06
-4.27712e+06
-5.40124e+06
-6.54109e+06
-7.60108e+06
-8.48881e+06
-9.13295e+06
-9.51044e+06
-9.6551e+06
-9.62755e+06
-9.48718e+06
-9.27903e+06
-9.03259e+06
-8.76566e+06
-8.48855e+06
-8.20723e+06
-7.92518e+06
-7.64443e+06
-7.36617e+06
-7.09111e+06
-6.81966e+06
-6.55203e+06
-6.28836e+06
-6.02871e+06
-5.77315e+06
-5.52171e+06
-5.27442e+06
-5.03133e+06
-4.79249e+06
-4.55795e+06
-4.32779e+06
-4.10206e+06
-3.88083e+06
-3.66419e+06
-3.4522e+06
-3.24493e+06
-3.04244e+06
-2.84479e+06
-2.65204e+06
-2.46423e+06
-2.2814e+06
-2.10358e+06
-1.93078e+06
-1.76303e+06
-1.60033e+06
-1.44267e+06
-1.29004e+06
-1.14243e+06
-999805
-862147
-729415
-601574
-478574
-360379
-246913
-138196
-33941.5
65149.3
161557
248032
345321
398994
541973
476500
811497
424473
1.15035e+06
406182
1.14621e+06
1.03864e+06
327265
2.08479e+06
1060.26
1.43811e+06
1.84577e+06
-204806
1.96087e+06
1.82289e+06
-266515
1.84751e+06
2.32008e+06
-190912
1.01593e+06
2.89147e+06
712537
-231555
2.31188e+06
2.47602e+06
-138847
146474
2.70014e+06
2.21553e+06
-368779
-21638.2
2.52929e+06
2.49569e+06
-92658.4
-712293
1.62981e+06
2.94119e+06
1.01887e+06
-1.10712e+06
-184515
2.33039e+06
2.60409e+06
125369
-1.55882e+06
-91924.9
2.32237e+06
2.32536e+06
31476.6
-1.61853e+06
-862177
1.33684e+06
2.57539e+06
1.12816e+06
-1.6642e+06
-2.32809e+06
86657.7
2.53495e+06
2.02535e+06
-499209
-2.00677e+06
-2.05266e+06
120048
2.28187e+06
1.13274e+06
-252516
-766085
-1.20617e+06
-569759
214498
664167
269765
70167.2
-566352
-595466
-126175
-41100.7
161627
217227
2191.86
-465406
-407163
-22758.1
-172325
18821.3
48088.9
-146834
-327915
-401054
-112156
41589.8
-104916
-127593
-93216.8
-351614
-314687
-240528
-19121.7
-81040
-194398
-497603
-367360
-207899
-244516
-180180
-87002.8
-376068
-398600
-607240
-609633
-279531
-180433
-229048
-367899
-923722
-751725
-438286
-389247
-694305
-973266
-1.0118e+06
-714629
-446018
-551661
-910596
-1.55521e+06
-1.89301e+06
-2.11669e+06
-2.01151e+06
-1.84457e+06
-1.46563e+06
-858707
-795842
-772441
-852665
-2.52124e+06
-3.38127e+06
-2.28813e+07
-4.82912e+07
-1.95646e+08
-2.50625e+08
-2.07689e+08
-1.67924e+08
-1.29934e+08
-9.78432e+07
-7.14107e+07
-5.06466e+07
-3.53155e+07
-2.42675e+07
-1.60699e+07
-1.02267e+07
-6.44576e+06
-3.98556e+06
-2.38541e+06
-1.27484e+06
-724193
-376825
-111653
-30366.4
9612.87
200732
201186
231750
174762
115314
131664
77634.1
80263.9
77190.8
40399.9
75675.6
77953.5
28524.4
58906.3
52165.4
11298
5218.95
50013.4
7972
2840.8
30790.1
121970
95643.7
103851
159687
39153.1
24282
109318
-7222.6
183428
-61586.5
-39440.7
249658
-168506
231399
250803
-327351
324208
179056
-176598
713969
-362857
9842.55
2.32444e+06
-2.65288e+06
4.17515e+06
846971
-2.29402e+06
4.52487e+06
3.1096e+06
-2.34284e+06
1.11527e+07
-6.60035e+06
7.39598e+06
2.56497e+07
-4.83157e+07
1.01887e+08
-2.74635e+07
1.36637e+08
2.04193e+08
-3.90748e+06
-5.8055e+06
-852974
-102269
-13057.2
-1723.67
-229.501
-30.5966
-4.07749
-0.543069
-0.0723001
-0.00962312
-0.00128046
-0.000170368
-2.27744e-05
-2.32372e-06
-4.15139e-07
-4.26322e-07
7.01968e-09
1.44064e-08
4.51618e-08
-4.99906e-08
2.9839e-07
-1.69711e-07
-1.39108e-07
2.80934e-07
4.6763e-07
-8.35308e-08
1.02376e-07
-4.6153e-07
6.08431e-07
1.51514e-07
-4.38233e-07
-4.12103e-07
-3.9912e-07
8.04648e-07
9.28614e-07
-5.16282e-07
1.47466e-07
3.02169e-07
-1.50944e-07
3.52428e-07
-6.77924e-08
4.31574e-08
-4.44331e-07
7.01633e-07
-5.11051e-07
6.74661e-08
3.03504e-08
-3.33688e-07
-4.31877e-07
1.15288e-07
1.15697e-07
-3.91078e-07
-3.64573e-07
-3.37736e-07
-8.25498e-07
-1.75766e-07
-4.01025e-07
-1.51347e-07
1.08338e-06
-3.04455e-07
-2.54608e-07
6.07375e-08
-2.11437e-08
-3.81327e-07
1.91772e-07
6.4994e-07
2.87465e-07
2.58854e-07
-2.25773e-07
7.08467e-07
2.60533e-07
-3.87801e-08
3.06692e-07
4.03287e-07
8.00878e-07
-4.99246e-07
2.09655e-07
5.35352e-07
9.2756e-07
5.45184e-08
-4.72817e-07
5.64141e-07
-1.29641e-08
-3.26201e-07
-3.49529e-07
5.81497e-07
2.67424e-07
2.44793e-07
7.20708e-07
1.28034e-07
-2.74865e-07
-3.26784e-07
-6.60087e-08
-7.55354e-07
1.04765e-07
-1.58971e-07
8.97168e-08
3.15822e-07
3.95224e-08
1.95064e-07
-3.02253e-07
2.51697e-07
-2.29062e-07
-2.10722e-07
1.56613e-07
-1.00339e-07
-6.69197e-08
5.84018e-07
-5.7757e-07
9.80199e-07
-2.80095e-08
-5.16138e-08
8.91053e-08
-1.21025e-08
-2.01543e-07
2.83335e-08
-3.49101e-07
2.0907e-07
4.48961e-07
1.00404e-06
-6.43727e-07
5.22998e-07
4.12873e-07
2.30614e-07
2.24467e-07
6.95249e-08
-1.13923e-06
2.49388e-08
3.63039e-07
3.83525e-07
2.66759e-08
3.09797e-09
7.19236e-07
-2.52671e-07
5.27759e-07
-5.3003e-07
2.74654e-07
-6.8761e-07
-4.48108e-07
-5.03593e-07
1.1176e-07
-6.24265e-07
-5.3771e-07
1.52893e-07
1.49676e-07
-6.14886e-08
-1.59852e-08
1.33603e-07
-1.16269e-06
-7.51651e-07
-3.67357e-07
-2.22773e-07
6.03937e-07
-8.84267e-07
-9.44985e-08
2.56596e-07
8.58057e-08
2.56e-07
-8.651e-07
2.5735e-07
-1.12842e-07
-1.01899e-06
-9.48968e-07
4.16731e-08
1.22116e-07
-1.09124e-07
-4.14495e-07
8.34686e-09
4.64665e-07
8.68781e-07
-1.2186e-07
4.00205e-07
1.44656e-06
-6.18122e-08
-7.40371e-07
1.78864e-07
-1.03902e-06
-2.462e-07
-1.19169e-07
2.91908e-08
-4.3989e-07
-7.0077e-07
-5.76017e-07
-6.02322e-07
4.45047e-07
-4.98641e-08
2.52445e-07
3.79199e-07
-4.79226e-07
-9.14616e-07
-4.04742e-07
1.11058e-06
-2.77524e-07
-3.75484e-07
4.60441e-07
2.7069e-07
5.21894e-07
4.71045e-07
4.49195e-07
3.87016e-07
-1.6602e-07
-2.70163e-07
-7.45077e-07
7.30742e-08
1.91401e-07
-5.50771e-07
-6.08492e-07
1.79932e-07
-3.29456e-07
-3.87008e-07
-7.38511e-07
-3.65263e-07
7.51229e-07
8.54462e-07
2.01734e-07
-1.57857e-07
-7.05911e-07
1.18544e-07
-2.16794e-07
-3.47686e-07
1.97748e-07
6.49846e-08
1.20315e-07
2.64897e-08
-2.97501e-07
-3.77668e-07
-7.94971e-07
1.34845e-07
4.38902e-07
-7.8398e-07
-6.28515e-07
-6.98417e-08
-1.415e-07
4.76418e-08
-1.75129e-07
-1.99076e-07
-5.87197e-08
-2.6935e-07
1.92682e-07
9.84807e-07
-3.74093e-07
-4.93888e-07
-4.97991e-07
-1.2327e-07
3.16639e-07
-3.46254e-07
3.76962e-07
1.28492e-07
5.16592e-09
-1.62975e-07
-3.53673e-07
-1.14301e-08
1.01197e-06
2.95832e-07
7.30593e-07
-1.99127e-07
8.8482e-09
-2.18743e-07
1.21985e-07
-2.57458e-08
-1.10549e-07
-4.55981e-07
-5.06921e-07
1.78969e-07
-1.72999e-07
-2.68904e-07
-5.58176e-07
8.48035e-08
2.53784e-07
4.49844e-07
-3.75279e-07
-6.18443e-07
-1.85415e-07
-3.55807e-07
-7.30935e-07
2.32045e-07
6.46066e-07
1.32283e-07
-3.97883e-07
1.07891e-06
-7.0075e-07
-1.70771e-07
3.26805e-07
-5.15746e-08
-3.85019e-07
-2.35444e-07
-7.12831e-07
-2.13086e-07
-7.79299e-07
-3.42496e-07
4.93292e-07
-2.97744e-07
1.55039e-08
4.69939e-07
-5.73212e-07
9.35923e-07
3.6659e-07
2.57262e-07
3.45244e-07
-6.23386e-07
5.21352e-07
-1.39812e-06
-1.95855e-07
4.14434e-07
4.30056e-07
-1.03992e-06
-3.25379e-07
5.12134e-08
3.66449e-07
2.56876e-07
2.79705e-07
7.48989e-07
-1.03997e-06
4.93408e-07
-1.84081e-09
-1.75906e-07
-5.06963e-07
-7.35404e-07
4.79562e-07
4.08852e-08
-1.1935e-06
1.03058e-07
2.50776e-08
-3.74075e-08
-4.47001e-07
-1.29075e-06
-1.69004e-08
4.7439e-07
4.06876e-08
1.25969e-06
-6.21257e-07
7.71165e-08
-3.01918e-07
4.43187e-07
)
;

boundaryField
{
    sides
    {
        type            calculated;
        value           nonuniform List<scalar> 2(4.43187e-07 3.57441e-06);
    }
    empty
    {
        type            empty;
    }
}


// ************************************************************************* //
