/*--------------------------------*- C++ -*----------------------------------*\
  =========                 |
  \\      /  F ield         | OpenFOAM: The Open Source CFD Toolbox
   \\    /   O peration     | Website:  https://openfoam.org
    \\  /    A nd           | Version:  9
     \\/     M anipulation  |
\*---------------------------------------------------------------------------*/
FoamFile
{
    format      ascii;
    class       volScalarField;
    location    "0.003";
    object      ddt0(p);
}
// * * * * * * * * * * * * * * * * * * * * * * * * * * * * * * * * * * * * * //

dimensions      [1 -1 -3 0 0 0 0];

internalField   nonuniform List<scalar> 
1000
(
-2.5376e-06
-2.93073e-06
-1.43693e-05
1.04307e-05
-7.66505e-06
-9.88559e-07
5.05342e-06
3.19009e-06
-1.86848e-06
1.44625e-05
-2.37807e-06
1.05237e-05
5.90297e-06
5.35626e-06
1.59131e-06
-7.51227e-06
1.63782e-06
-1.1121e-06
3.41088e-06
-1.47791e-05
-1.08858e-05
-3.84158e-06
-6.70423e-07
7.17615e-06
-1.32724e-05
8.38264e-06
1.66209e-05
5.40459e-06
3.77175e-06
-3.61317e-06
1.2429e-06
-1.75066e-05
-1.38275e-06
-6.57938e-07
-1.81592e-05
4.23812e-06
1.01174e-05
-2.71487e-06
1.72746e-05
1.04976e-05
-1.853e-06
6.35102e-06
-1.26734e-05
-4.469e-06
8.21288e-07
-3.0811e-06
-1.42046e-05
-5.65082e-06
-1.49838e-05
-6.19599e-06
-1.8746e-07
3.27689e-06
-4.87667e-06
-5.16545e-06
9.9035e-06
-1.01383e-06
1.9469e-06
4.97498e-06
-3.52557e-06
3.37264e-06
1.5005e-06
5.33368e-06
1.78138e-06
2.00346e-07
6.61455e-07
-4.91154e-06
-1.04796e-06
1.39309e-05
-4.10373e-06
-1.03039e-05
8.1822e-06
5.39069e-06
-4.09501e-06
-7.84146e-06
-2.24208e-06
-8.99268e-06
-4.09232e-06
2.01711e-06
-1.06164e-06
-3.28624e-06
1.02759e-05
2.00891e-05
6.60444e-06
-1.32874e-05
-3.93827e-06
-1.65233e-05
-1.61999e-05
-1.39896e-06
-1.09129e-05
5.15957e-07
-4.62831e-06
5.00483e-06
-3.62257e-06
1.81497e-07
6.76622e-06
-6.25015e-06
6.2533e-06
8.83948e-06
2.62728e-06
1.48205e-05
1.60379e-07
-3.51792e-06
-4.86102e-06
-7.32441e-07
-2.36643e-06
-4.99812e-06
-2.38463e-06
1.04554e-05
1.0254e-05
1.27198e-05
-3.26753e-06
7.85459e-06
1.82404e-05
-1.03383e-06
6.88529e-06
1.53128e-06
-2.5022e-06
1.68187e-06
-3.44253e-06
-6.28193e-06
-8.05923e-07
1.33515e-05
-7.74919e-06
-6.41412e-06
-2.63429e-06
-1.61328e-06
9.52318e-06
6.6555e-06
-4.92918e-06
-7.32646e-07
3.63062e-06
-9.79496e-06
-1.20716e-05
-2.47253e-05
1.77269e-06
-2.16868e-06
-2.54844e-06
-4.39844e-08
8.16617e-06
9.67921e-06
6.56235e-06
6.80694e-06
3.43509e-06
1.49884e-06
1.17046e-05
7.42731e-07
1.58752e-06
-5.93863e-06
-4.51981e-06
-1.30269e-06
7.81258e-07
5.2956e-06
3.83921e-06
-1.34696e-06
-5.66723e-06
-1.62978e-06
1.57569e-06
-5.2034e-06
-4.85691e-06
-7.17778e-06
-3.75633e-06
-6.79004e-06
8.0927e-06
9.1605e-06
3.49852e-06
1.17449e-05
1.62284e-05
-1.15633e-05
2.38353e-06
-1.3883e-05
-4.8044e-06
-7.25087e-06
-3.57972e-06
2.29777e-06
7.32107e-06
1.55165e-05
1.04311e-05
1.59437e-05
1.8933e-05
6.82636e-07
-4.04389e-06
-1.17257e-05
-5.50756e-08
2.04937e-06
-2.62188e-06
-1.8854e-05
-4.40348e-06
-4.05677e-06
6.83269e-06
7.8359e-06
-1.23667e-05
-2.2364e-06
9.46647e-06
3.97331e-06
5.504e-06
-2.18106e-06
-4.3103e-06
-8.23515e-06
-2.71961e-06
1.65539e-06
-1.04189e-05
-2.43025e-06
-1.65051e-05
-9.98314e-06
-4.18842e-06
-1.3129e-06
2.11512e-06
-7.4178e-06
2.33494e-06
-4.27724e-06
-1.32829e-05
6.40918e-06
2.52784e-06
2.96926e-06
1.05599e-06
3.65705e-06
-7.55211e-06
3.60986e-06
4.76497e-06
-7.09692e-06
5.97121e-06
8.19201e-07
6.19087e-07
-8.19934e-06
-4.17202e-06
2.19235e-06
-1.48562e-05
-1.78289e-05
4.33144e-06
6.19622e-07
7.12681e-08
4.70452e-06
2.66412e-08
2.82379e-06
8.37338e-06
1.89133e-05
-1.364e-05
-1.13005e-05
-3.45362e-06
-1.34313e-05
-5.28548e-06
-3.8107e-06
4.72256e-07
-6.77423e-06
-9.25597e-06
1.86732e-07
8.98705e-07
3.16126e-06
1.54717e-05
-9.00311e-06
6.3657e-06
-1.48362e-05
4.68168e-06
-1.51588e-05
4.58522e-06
9.43247e-06
5.19782e-06
1.90469e-05
3.46776e-06
-3.00864e-06
4.44424e-06
9.62916e-06
-2.63655e-06
6.23506e-06
-3.43532e-06
-1.22096e-06
-1.21722e-05
-1.27006e-07
-2.88121e-06
2.96822e-06
1.24399e-06
1.00456e-05
6.23775e-06
1.03669e-05
6.15337e-06
1.56268e-06
5.98195e-06
6.99916e-06
4.81082e-07
-2.60366e-06
8.92615e-06
3.0258e-06
9.35603e-06
-1.66543e-06
-1.32706e-06
5.88764e-07
-3.79267e-06
7.88223e-06
7.03343e-06
2.78982e-06
8.64968e-06
6.6348e-06
-1.15647e-05
-1.12452e-05
4.61908e-06
1.02449e-05
7.32764e-06
-1.32694e-05
-6.42912e-06
5.13291e-06
1.63135e-06
-4.8168e-06
5.97157e-06
-5.39682e-06
5.06426e-06
2.63208e-06
6.28865e-06
9.03496e-07
-1.58229e-06
-2.05867e-06
-1.28399e-06
6.65843e-06
6.74196e-06
-4.12922e-06
1.4359e-05
8.11273e-06
-1.96566e-06
3.55001e-06
-3.06187e-06
6.86325e-06
-1.18062e-05
7.2051e-06
-1.79868e-06
-5.53513e-06
-1.97617e-06
3.47401e-07
8.04583e-06
-1.14712e-05
-9.87294e-06
-3.0912e-06
3.30336e-06
7.71445e-06
6.0266e-06
1.4198e-06
4.59976e-06
1.12147e-05
3.5638e-06
1.36335e-05
7.41852e-06
1.1051e-05
1.71015e-06
-3.89137e-06
-1.04823e-05
-1.21948e-05
-2.01461e-05
-2.40573e-05
-5.24215e-05
-0.000172544
-0.000428104
-0.0011149
-0.00289693
-0.00734285
-0.0183589
-0.0453323
-0.110626
-0.266523
-0.634069
-1.48908
-3.45109
-7.89051
-17.792
-39.5509
-86.644
-186.979
-397.311
-830.893
-1709.28
-3456.94
-6869.32
-13402.5
-25655.7
-48144.1
-88482.9
-159102
-279562
-479389
-801036
-1.3021e+06
-2.05524e+06
-3.14374e+06
-4.65053e+06
-6.63956e+06
-9.13136e+06
-1.20787e+07
-1.53521e+07
-1.87446e+07
-2.20009e+07
-2.48616e+07
-2.71106e+07
-2.86546e+07
-2.95611e+07
-2.99816e+07
-3.00737e+07
-2.9961e+07
-2.97259e+07
-2.94192e+07
-2.90708e+07
-2.86982e+07
-2.83117e+07
-2.79173e+07
-2.75188e+07
-2.71184e+07
-2.67172e+07
-2.63159e+07
-2.59148e+07
-2.55141e+07
-2.51137e+07
-2.47138e+07
-2.43142e+07
-2.39149e+07
-2.35159e+07
-2.31174e+07
-2.27192e+07
-2.23217e+07
-2.19247e+07
-2.15287e+07
-2.11336e+07
-2.07397e+07
-2.03472e+07
-1.99563e+07
-1.95673e+07
-1.91803e+07
-1.87956e+07
-1.84133e+07
-1.80338e+07
-1.76571e+07
-1.72834e+07
-1.69129e+07
-1.65457e+07
-1.61821e+07
-1.5822e+07
-1.54656e+07
-1.5113e+07
-1.47643e+07
-1.44195e+07
-1.40787e+07
-1.3742e+07
-1.34093e+07
-1.30808e+07
-1.27564e+07
-1.24362e+07
-1.21201e+07
-1.18082e+07
-1.15006e+07
-1.1197e+07
-1.08978e+07
-1.06022e+07
-1.03117e+07
-1.00239e+07
-9.74173e+06
-9.4625e+06
-9.17902e+06
-8.92725e+06
-8.63758e+06
-8.39293e+06
-8.13334e+06
-7.87168e+06
-7.62725e+06
-7.37596e+06
-7.13052e+06
-6.89391e+06
-6.65772e+06
-6.42633e+06
-6.199e+06
-5.97446e+06
-5.75285e+06
-5.53309e+06
-5.3194e+06
-5.11032e+06
-4.90287e+06
-4.69805e+06
-4.50018e+06
-4.305e+06
-4.10887e+06
-3.91601e+06
-3.73152e+06
-3.55034e+06
-3.36806e+06
-3.18797e+06
-3.01684e+06
-2.84991e+06
-2.68182e+06
-2.51271e+06
-2.35131e+06
-2.19841e+06
-2.04738e+06
-1.89466e+06
-1.74355e+06
-1.60223e+06
-1.46815e+06
-1.33543e+06
-1.20189e+06
-1.07211e+06
-952926
-842411
-736078
-631368
-533348
-437269
-371761
-277262
-244790
-158560
-93632.7
-157820
88697.7
-158013
-29996.2
83681.8
-15204.2
49167.8
-6219.72
147011
-67807.7
59050
64741.9
-39701.2
30657.1
-41437.3
-1476.21
112929
-39534.5
-128072
-55866.2
43970.4
263399
-211324
161247
175200
-252673
-84326.3
59759.2
393740
-217746
-244669
72657.4
244306
-36040.3
-282718
-19588.8
216247
-206995
-25279.1
124474
213665
76451.3
-350263
53412.6
158545
80196.5
-167109
-108668
153065
121056
-162755
-6139.39
55655.7
-6774.16
-146628
-2930.13
139225
46167.9
-23562.7
-72040.1
140776
1511.92
-86032.7
49575.1
104595
-94441.1
-126846
156094
-35362.6
-7561.33
114931
-296556
111591
105619
-55105
137662
-693763
1.1345e+06
-3.8641e+06
7.9201e+06
-4.36241e+06
216928
-109622
-292160
-374461
-89473.6
418216
205269
-256290
-200475
136462
173494
34124.3
-10824.2
123087
-28535.5
-92047.7
9443.15
-16613
-24671
-41914.3
-49348.2
38704
26177.7
-33285.6
37235.2
-31242.3
-3026.39
24887.1
-42009.8
19471.1
40439.9
-23877.4
29469.5
43780.4
-11415.7
6644.76
41602.3
-2932.75
-10781.6
10288.3
38351.6
-1074.62
-6260.04
122543
-1949.4
-37173.3
-7752.24
-49451.3
190880
-191820
63169.5
288191
-169163
519835
262769
-312513
900214
-379910
140934
825219
-1.19782e+06
1.01049e+06
2.44791e+06
-2.89683e+06
6.98272e+06
-59512.2
-1.14714e+06
9.40831e+06
-3.58402e+06
1.75118e+06
1.38513e+07
-1.6326e+07
2.61667e+07
7.25286e+06
-2.97071e+07
1.35389e+08
-1.32172e+08
3.74354e+08
5.48068e+08
1.35171e+08
2.52124e+07
3.57576e+06
480127
64015.3
8538.5
1139.17
151.904
20.2405
2.69529
0.358783
0.0477549
0.00635521
0.000847351
0.000114195
1.44519e-05
1.18198e-06
2.48946e-07
2.92335e-07
-3.40189e-07
1.05715e-06
-8.55367e-07
6.71327e-09
-2.13474e-07
-3.00312e-07
-9.71506e-07
5.52614e-07
-5.56601e-07
-7.97959e-07
-1.25836e-06
-1.87619e-06
6.87622e-07
1.14222e-07
1.06238e-06
-6.35478e-07
-6.48259e-07
-1.06535e-06
-1.58271e-07
-7.50896e-07
-3.36134e-07
4.69467e-08
7.29973e-07
-2.51103e-08
1.39671e-07
-1.34169e-07
1.37374e-06
-1.61451e-07
-7.24343e-07
1.10557e-06
3.2286e-07
-2.55158e-07
2.35851e-08
-7.41893e-07
6.55491e-07
6.88733e-07
9.7825e-07
1.3366e-06
1.07101e-06
3.99443e-07
2.4839e-07
1.2635e-06
2.50137e-08
5.99401e-07
-9.48727e-07
-2.18529e-07
2.78294e-07
-6.28791e-07
-2.2005e-06
5.94828e-07
3.23007e-07
2.28569e-07
-1.11325e-07
7.5233e-07
-1.163e-07
-5.02395e-07
-1.16878e-06
2.15768e-07
-7.13938e-07
4.10386e-07
-9.33749e-07
2.95638e-07
7.02853e-07
9.21779e-08
4.10502e-07
-6.9178e-07
3.07113e-07
-1.58793e-07
-6.77699e-07
-2.44126e-08
-1.07926e-08
-1.12994e-06
-1.01238e-06
2.60392e-07
-1.5834e-07
2.37896e-07
5.89593e-07
-1.23271e-06
-3.36e-07
2.05728e-07
-4.14432e-07
-5.20067e-07
-2.27713e-07
3.32654e-08
-1.10054e-06
5.47039e-07
-4.67261e-07
4.65007e-07
-1.90395e-07
5.62285e-07
-1.02758e-07
-9.62325e-07
8.68083e-08
-1.45898e-07
-1.06859e-06
5.05414e-07
-1.0403e-06
1.32261e-06
7.43241e-07
-7.19362e-08
8.72831e-07
-5.87395e-08
-7.86479e-07
-1.28185e-06
-8.37763e-07
7.09258e-07
8.7647e-07
-1.24326e-07
8.16585e-07
3.46997e-07
-1.20558e-07
-1.35099e-06
5.9423e-07
-3.1242e-07
-1.18558e-06
-1.17665e-07
2.45767e-07
6.85978e-07
2.84874e-07
1.09603e-07
-7.2217e-07
-1.57749e-07
-8.54465e-07
5.60364e-07
3.21972e-07
9.78571e-08
2.06977e-07
-5.63862e-07
-7.77935e-07
-1.91863e-06
-8.49192e-07
-4.22896e-07
4.45076e-09
1.03368e-07
7.70615e-07
5.8403e-07
-8.73144e-07
-1.3254e-06
-2.48195e-07
-5.92185e-07
3.15209e-07
-3.97484e-07
-1.20598e-07
9.06559e-08
-1.54872e-07
-4.69427e-08
-6.76889e-07
6.45302e-09
8.6633e-07
-5.21987e-07
-9.11308e-08
-6.72922e-07
-1.49122e-07
-5.15453e-07
6.54529e-08
-9.83869e-08
-2.99181e-07
3.30251e-07
-2.07693e-07
6.35252e-07
4.08637e-07
3.00581e-07
-1.57044e-07
3.93797e-07
7.14717e-08
8.88327e-07
6.14129e-08
-4.93201e-07
2.92392e-07
-6.74802e-07
-1.48212e-06
-1.30775e-06
7.12659e-07
-1.64704e-06
3.3482e-07
3.50676e-07
-5.55102e-07
1.39339e-06
5.47189e-07
5.63974e-07
6.60166e-08
3.72632e-07
3.15151e-07
-6.47285e-07
-1.04348e-06
-4.42431e-07
5.6933e-07
-3.99024e-07
1.22162e-06
1.38163e-07
1.83604e-06
-1.02968e-06
1.06088e-06
1.59007e-06
-5.89954e-08
-7.25089e-07
-8.67511e-07
-1.05238e-06
4.70026e-08
-9.61883e-07
2.75535e-07
-8.34071e-07
2.20666e-07
-1.98383e-08
1.21114e-06
2.81811e-07
-1.05998e-07
-1.15457e-06
1.29797e-06
1.47368e-07
1.05617e-06
2.84072e-07
-5.29548e-08
4.61728e-07
5.02457e-07
2.22299e-07
-6.42738e-07
-1.40925e-06
-1.16296e-06
3.24388e-07
-2.99376e-07
4.90506e-07
-3.7187e-07
-1.60859e-08
-1.05996e-06
-1.32406e-06
9.26996e-07
1.7072e-08
-1.8301e-07
-9.49514e-08
-6.56748e-07
-5.32795e-07
-6.97922e-07
-3.134e-07
5.49409e-07
-1.70363e-06
-9.34339e-07
3.88506e-08
2.6031e-07
-2.13792e-07
-4.56731e-07
-8.07023e-07
-3.99898e-07
-6.92117e-07
4.041e-08
-9.42306e-07
7.8987e-07
-1.0846e-06
-7.71504e-07
-4.23003e-07
-9.84213e-07
-6.33153e-07
-5.55092e-07
6.05855e-07
-1.03147e-06
4.98382e-09
1.01638e-06
-4.13627e-07
-1.06844e-07
-1.95078e-07
4.83515e-07
2.4471e-08
7.19018e-07
6.92688e-07
-7.70815e-07
7.3326e-07
-4.95851e-08
-6.31637e-07
-1.40904e-07
-5.56398e-07
1.24151e-06
8.78604e-07
2.78866e-07
2.71187e-07
-1.00926e-06
-8.06238e-07
-1.21055e-06
2.91923e-07
2.85209e-07
4.2464e-07
1.46118e-07
1.25441e-06
-1.01775e-06
-4.37504e-07
1.13315e-06
4.32065e-07
7.44036e-07
8.10661e-08
-5.00811e-07
-3.23961e-08
-6.25278e-07
4.49419e-08
7.55495e-07
7.02095e-08
2.30532e-07
-3.88825e-07
2.16764e-06
2.60452e-07
-1.45254e-06
-1.04303e-06
-6.40677e-07
-1.18471e-06
-1.62276e-07
9.16988e-07
6.50766e-07
-3.51535e-07
3.37099e-07
-2.86714e-07
-1.04601e-06
3.83059e-07
6.43857e-07
8.59712e-07
-1.34567e-07
-4.63272e-07
-9.97041e-07
-9.86523e-08
-7.50395e-07
)
;

boundaryField
{
    sides
    {
        type            calculated;
        value           nonuniform List<scalar> 2(-7.50395e-07 -2.5376e-06);
    }
    empty
    {
        type            empty;
    }
}


// ************************************************************************* //
