/*--------------------------------*- C++ -*----------------------------------*\
  =========                 |
  \\      /  F ield         | OpenFOAM: The Open Source CFD Toolbox
   \\    /   O peration     | Website:  https://openfoam.org
    \\  /    A nd           | Version:  9
     \\/     M anipulation  |
\*---------------------------------------------------------------------------*/
FoamFile
{
    format      ascii;
    class       volScalarField;
    location    "0.003";
    object      ddt0(rho,K);
}
// * * * * * * * * * * * * * * * * * * * * * * * * * * * * * * * * * * * * * //

dimensions      [1 -1 -3 0 0 0 0];

internalField   nonuniform List<scalar> 
1000
(
-9.03954e-22
-6.97462e-21
-4.82464e-21
-4.82546e-21
-5.48128e-21
-2.40763e-21
-7.09025e-24
-6.42023e-22
2.40009e-22
-2.11695e-23
-9.70837e-23
-3.75964e-21
-8.3992e-23
2.45873e-21
5.40188e-21
5.06061e-21
1.99246e-21
-7.06217e-21
-8.08128e-21
-4.67543e-23
-8.66109e-22
-3.74874e-21
-9.9099e-21
-4.0416e-21
-4.76122e-21
2.72204e-21
3.16113e-21
-1.38537e-22
-2.19194e-21
-7.29527e-21
-2.43072e-21
1.0371e-21
1.40262e-21
-4.07322e-21
2.07135e-21
1.14556e-20
3.58617e-21
-1.52796e-21
-4.2115e-21
-5.76159e-21
-4.2953e-21
-1.4611e-21
-1.89878e-21
-2.52082e-21
-5.84231e-23
9.92086e-21
1.41138e-20
1.4786e-20
2.71194e-20
2.03104e-20
2.14469e-22
-9.78986e-21
-1.05086e-20
1.40145e-20
1.34632e-20
-5.4109e-21
-2.74232e-21
8.3177e-23
3.21558e-23
-4.54104e-21
-9.38326e-21
8.76333e-21
-6.56243e-21
-2.7226e-20
-2.32519e-20
-6.24912e-21
-6.56153e-21
-7.84283e-22
-1.29978e-22
3.49978e-23
4.66292e-21
8.84477e-21
1.95778e-20
8.32096e-21
2.48049e-21
-8.00461e-23
2.99869e-21
-8.14382e-21
-1.24156e-20
-1.09325e-20
-1.8625e-20
-7.28426e-21
-1.46262e-21
-8.58801e-22
-7.97269e-22
4.8122e-21
9.69863e-21
4.45972e-21
4.1274e-21
7.41695e-21
2.0687e-21
-6.37904e-21
1.55346e-21
-1.08549e-22
-1.29093e-20
-9.55964e-21
1.62457e-22
-9.30093e-22
-2.91694e-21
7.92907e-23
-2.17991e-22
-6.98191e-22
1.48698e-21
5.74844e-22
-6.28224e-21
-2.80546e-21
1.2879e-20
1.06295e-20
-6.62444e-21
-6.54889e-21
-7.9718e-21
-3.33808e-21
3.19407e-21
5.28963e-22
-3.69101e-21
-1.0113e-20
-1.14305e-21
3.48595e-21
-3.77212e-23
-6.198e-24
-3.91887e-21
1.13407e-21
6.5181e-21
1.25498e-21
-1.3692e-21
-1.59542e-21
3.03373e-21
1.11676e-21
7.47471e-22
2.85573e-21
2.96771e-21
5.05825e-22
1.01592e-21
1.3241e-22
1.90283e-20
3.18107e-20
3.41917e-20
5.27676e-20
1.65218e-20
8.50546e-21
4.47132e-22
9.64132e-22
5.28416e-21
3.07213e-21
8.62487e-22
-3.2118e-21
1.17201e-21
-2.98485e-23
-5.04012e-23
-2.97832e-21
-2.37266e-21
-2.67659e-21
3.63345e-22
-1.33407e-21
-3.3562e-21
-1.87094e-21
2.72596e-21
2.78765e-21
-4.78661e-23
6.2961e-23
2.83962e-21
4.1599e-21
2.36169e-21
-4.07666e-23
1.26727e-21
6.22951e-21
2.04653e-21
-3.7228e-22
6.25922e-22
8.78978e-21
1.8616e-20
3.89925e-20
2.13121e-20
-4.76885e-21
-5.47077e-21
-4.20265e-21
-4.11703e-22
5.65882e-23
-3.63381e-21
-8.96761e-21
-2.41902e-21
4.77251e-21
-2.08121e-22
6.94816e-21
1.86515e-21
-8.83926e-25
-1.32258e-21
-2.66344e-21
-1.98028e-21
1.91991e-21
3.03771e-23
-1.03068e-21
-1.31697e-21
-2.29658e-21
-6.12181e-21
-5.80916e-21
1.2775e-21
5.55562e-21
8.97744e-21
1.94023e-20
2.29274e-20
1.3267e-20
1.69823e-22
9.65369e-21
1.5473e-20
1.97556e-20
1.13543e-20
2.27737e-21
-5.15016e-22
1.29736e-22
2.27037e-21
1.6303e-21
3.63995e-21
5.43002e-21
1.7441e-21
-5.3559e-22
-9.28061e-22
1.90078e-21
5.76098e-22
6.89466e-23
-2.48635e-22
-4.66739e-21
-7.85951e-21
-1.00723e-20
-6.92995e-21
-3.04336e-21
1.12756e-21
-1.34549e-21
3.06914e-21
-1.28029e-21
-1.48365e-20
-1.2507e-20
-2.64719e-21
2.41247e-21
1.4629e-21
-1.95696e-21
-4.00228e-21
-2.89725e-21
-1.95322e-21
1.48138e-21
-3.88553e-21
-5.32035e-21
-4.88033e-21
-6.01749e-21
-2.15488e-21
-3.25885e-23
-4.50836e-21
-2.15506e-21
-8.36766e-22
-6.74512e-21
-3.27634e-21
4.65026e-21
7.47658e-21
1.54392e-21
-3.56812e-21
-1.04939e-20
-1.99563e-20
-1.69777e-20
-7.86408e-21
-2.8826e-21
-3.69602e-22
3.73699e-22
1.29556e-22
1.15178e-21
1.48528e-21
-5.86673e-23
1.78665e-21
1.84539e-24
3.93886e-21
6.40198e-22
-1.39992e-21
-2.25444e-21
-7.97761e-22
2.43083e-21
-6.30021e-21
-1.13457e-20
-8.30483e-21
3.38087e-22
9.17271e-22
1.12097e-21
-1.91278e-21
-1.96512e-21
1.07148e-21
6.26899e-21
5.6242e-21
8.64744e-22
3.93715e-22
2.24128e-21
2.30421e-21
4.36425e-22
-1.22232e-21
-2.11437e-21
4.74359e-21
5.98739e-21
9.1546e-23
-5.52858e-22
-5.10183e-21
1.08021e-21
1.48495e-20
1.01285e-20
2.35891e-21
4.3242e-22
-6.20146e-23
4.50185e-22
-1.29717e-21
1.66807e-22
-4.88706e-21
4.08305e-21
6.34161e-21
8.2805e-22
-1.97812e-21
-1.25789e-20
-8.2732e-21
-6.53954e-21
3.22969e-21
-4.77177e-21
-1.31067e-20
-1.01297e-20
-8.28372e-21
-7.63889e-21
-9.74117e-22
4.5151e-21
6.27678e-21
5.86656e-21
1.11487e-21
-6.24148e-21
-6.84608e-21
-4.88901e-21
-1.02762e-21
9.31363e-23
-6.7502e-22
-9.4048e-21
-9.1151e-21
-1.08388e-20
-8.7972e-21
-1.02575e-21
-3.07429e-22
8.65228e-21
4.14129e-21
3.52044e-21
-3.98927e-21
1.51867e-20
1.06064e-20
-3.54433e-21
-6.42767e-21
1.07924e-19
8.72429e-19
5.75543e-18
3.84759e-17
2.57765e-16
1.70084e-15
1.10455e-14
6.99919e-14
4.32756e-13
2.6109e-12
1.53692e-11
8.82387e-11
4.93868e-10
2.69324e-09
1.4302e-08
7.39103e-08
3.71463e-07
1.81434e-06
8.60572e-06
3.96068e-05
0.000176721
0.000763718
0.00319347
0.012906
0.0503498
0.189363
0.685559
2.38525
7.96106
25.4373
77.6336
225.742
623.665
1632.16
4033.27
9380.24
20466.6
41773.6
79576.5
141284
233747
360797
520907
706384
905726
1.10816e+06
1.30661e+06
1.4978e+06
1.68092e+06
1.85625e+06
2.02436e+06
2.18576e+06
2.34086e+06
2.48996e+06
2.63327e+06
2.77095e+06
2.90309e+06
3.02974e+06
3.15094e+06
3.26669e+06
3.377e+06
3.48186e+06
3.58124e+06
3.67514e+06
3.76354e+06
3.84645e+06
3.92388e+06
3.99584e+06
4.06235e+06
4.12346e+06
4.17922e+06
4.22968e+06
4.27492e+06
4.31502e+06
4.35007e+06
4.38017e+06
4.40542e+06
4.42593e+06
4.44181e+06
4.4532e+06
4.46021e+06
4.46297e+06
4.4616e+06
4.45623e+06
4.44699e+06
4.43401e+06
4.41741e+06
4.39732e+06
4.37386e+06
4.34715e+06
4.31732e+06
4.28449e+06
4.24876e+06
4.21026e+06
4.16912e+06
4.12537e+06
4.07938e+06
4.03049e+06
3.98088e+06
3.92544e+06
3.8764e+06
3.80807e+06
3.76997e+06
3.6781e+06
3.65623e+06
3.55452e+06
3.50329e+06
3.46841e+06
3.32055e+06
3.36216e+06
3.20822e+06
3.12395e+06
3.17031e+06
2.96757e+06
2.90964e+06
2.96656e+06
2.75229e+06
2.6488e+06
2.74486e+06
2.58122e+06
2.37118e+06
2.4578e+06
2.45063e+06
2.17398e+06
2.08368e+06
2.21848e+06
2.1145e+06
1.81677e+06
1.78091e+06
1.93404e+06
1.82359e+06
1.50559e+06
1.42883e+06
1.60262e+06
1.58661e+06
1.27051e+06
1.05521e+06
1.18058e+06
1.33456e+06
1.15901e+06
801745
693060
905596
1.03339e+06
789062
425456
354344
574676
722088
565840
221245
293.476
137653
468290
508409
155614
-240845
-183961
145872
274437
434104
-30273.2
-417057
-153050
15749.8
70476.1
163742
203822
-43267
-113227
-29132.8
-59935.5
62894.6
46002.6
4210.04
87364.8
-23849.3
-147170
-120040
70666.4
203625
-73176.9
128098
144186
-120387
-84266.2
88914.4
310653
-80502.3
-222040
50537.4
218670
19601.8
-159231
-11864.6
147706
-97269.7
-31914.8
132748
264525
119376
-192288
17746.7
161406
88433.8
-48162.8
-51203.1
171820
182885
-47439.8
-544.638
66041.9
43053
30158.8
86968.5
165199
123005
90496.7
94838.4
223698
126803
1063.29
94922.7
211287
171783
176956
373583
283129
257459
273080
-21793.8
106936
167266
25698
211335
-302409
2.93257e+06
4.07743e+06
3.12539e+07
3.62182e+07
3.0532e+07
2.42645e+07
1.81519e+07
1.34141e+07
9.90707e+06
7.40865e+06
5.20032e+06
3.29983e+06
2.1052e+06
1.51809e+06
1.06683e+06
621629
347199
258730
95876.1
-17903.7
1642.72
-4769.42
-19161.9
-62212.8
-67373.4
-14213.8
-108.393
-25715.6
1595.35
-22098.6
-13322.6
10851.3
-22364.1
1438.35
21720.5
-13142.9
6183.66
22216.2
-6877.26
1541.36
21400.5
10331.7
5166.2
15035.2
17025.1
-19796.4
-33533.4
38019.8
-2153.78
-29842.5
-9720.2
29669.4
151097
-12040.2
95225.4
157428
-39202.4
262809
133820
-56574.9
557032
46010.8
388852
904466
-140512
1.18493e+06
1.5478e+06
-378330
3.33644e+06
1.01128e+06
935140
6.52244e+06
356091
4.59979e+06
9.61809e+06
-2.0491e+06
1.97312e+07
6.12796e+06
5.0374e+06
6.18352e+07
-1.44513e+07
2.64647e+08
2.26712e+08
1.85977e+07
524364
11583.3
214.047
3.8234
0.0680359
0.00121011
2.1503e-05
3.81633e-07
6.76647e-09
1.19906e-10
2.12467e-12
3.76746e-14
6.7108e-16
1.1969e-17
2.24445e-19
6.41944e-21
3.70677e-22
-7.39705e-23
-2.82882e-22
-7.02934e-23
-8.43629e-24
2.44336e-22
4.88603e-22
2.67887e-21
1.53994e-21
-2.89798e-24
1.93178e-21
2.21327e-21
4.11766e-22
1.65403e-21
2.31903e-21
2.43466e-21
1.78474e-21
4.26895e-22
-2.42849e-21
-3.65711e-24
1.7311e-21
-4.5295e-22
-2.3168e-21
-1.30494e-21
4.22793e-22
4.3924e-22
-1.68853e-24
-4.38335e-22
-1.99797e-21
-1.34878e-21
-9.04517e-22
-3.29631e-24
1.59218e-21
2.1429e-21
1.81161e-21
2.02033e-21
2.49716e-21
-7.06186e-22
-2.05741e-21
-1.83119e-21
-1.53976e-21
6.19465e-24
-1.11389e-22
2.13317e-23
-2.85473e-23
-1.13628e-22
-2.34471e-22
4.68871e-23
4.21436e-22
4.30647e-22
2.38207e-22
7.57942e-22
4.59141e-22
4.0004e-22
4.44373e-22
1.45742e-23
-8.15104e-22
-6.67548e-22
-3.41079e-22
-3.95838e-22
2.03602e-22
-7.03117e-22
-4.055e-22
9.33926e-22
-1.06266e-22
-9.04041e-23
4.30565e-24
8.89734e-24
-4.44403e-24
1.53029e-22
8.77642e-23
-6.95326e-23
1.1627e-22
-1.66809e-22
-6.54215e-24
2.12095e-23
-2.54477e-22
-6.41986e-24
-8.96229e-24
3.35219e-22
4.47909e-22
1.25885e-22
-8.04221e-23
-1.74021e-22
-1.42191e-22
2.21786e-22
-1.06377e-23
-4.38826e-23
-2.76687e-23
-1.11615e-22
-4.22549e-22
2.21919e-22
1.10825e-21
5.63952e-22
4.40168e-22
7.82609e-22
2.12926e-22
-1.5434e-22
-9.91383e-23
-3.93055e-23
-3.09375e-22
-2.34231e-22
-1.1005e-24
-8.81615e-23
1.88649e-22
3.60278e-23
1.28098e-22
1.09841e-22
-7.16287e-23
-8.67445e-22
-2.94179e-22
2.10923e-23
-3.22982e-22
-4.09783e-22
-3.37434e-24
6.01128e-24
9.13102e-23
4.42413e-23
5.60974e-23
4.24942e-23
-1.02597e-22
1.59088e-22
-2.88288e-22
1.31156e-22
1.85611e-22
7.04889e-23
-4.56499e-22
-9.40957e-22
-8.18352e-22
-1.1505e-22
1.22139e-22
2.34579e-22
7.69913e-23
1.72597e-22
2.91536e-22
-2.56819e-22
-1.68228e-22
1.84518e-22
1.80059e-22
-1.6604e-22
2.15517e-23
4.75e-23
-5.8231e-24
-1.94467e-22
1.49446e-22
-3.84828e-22
9.44542e-23
-1.93936e-22
-4.80486e-22
2.39653e-22
2.02126e-22
-1.79991e-22
-1.22922e-22
7.67917e-26
-2.18981e-22
-4.91247e-22
2.27143e-24
2.25223e-22
3.12519e-22
3.49246e-22
8.55349e-22
1.24946e-21
5.90383e-22
-1.07221e-22
-6.00515e-22
-6.97249e-22
5.51517e-24
3.15383e-22
4.57382e-22
2.05704e-22
-2.74591e-22
-9.17754e-22
-1.80531e-22
1.05927e-22
-2.41648e-22
-2.4396e-23
-2.80387e-22
-2.55893e-22
2.10277e-23
-6.90291e-22
-1.43659e-21
-1.17076e-21
-2.3335e-22
1.48503e-21
7.63193e-22
5.8553e-22
3.42128e-22
-9.04572e-23
-7.03052e-22
-4.27499e-22
2.89885e-22
-1.51655e-22
-7.57081e-23
-9.80691e-22
-1.57975e-21
-1.54387e-21
-1.62182e-22
2.25092e-22
8.79193e-22
2.35967e-21
1.11773e-21
8.93487e-22
4.64282e-22
4.64983e-22
-2.80093e-24
-4.91075e-23
-1.56756e-23
-8.78913e-23
1.76892e-23
-1.24461e-22
-5.84117e-22
-1.9849e-21
-1.01975e-21
-9.5611e-22
-7.33179e-22
-1.11849e-21
3.74084e-22
2.01219e-21
1.78234e-21
2.42493e-21
2.8193e-22
2.8103e-22
7.13478e-23
-2.82121e-22
-1.04761e-22
8.01578e-23
6.09242e-23
1.05545e-22
-3.71341e-23
-8.75274e-23
-9.84618e-23
8.30068e-23
3.29447e-22
4.91143e-22
6.04479e-23
2.86058e-24
1.45851e-22
1.20615e-22
1.93374e-24
-2.23342e-22
-2.10379e-23
9.62312e-24
9.32357e-24
1.54919e-22
-1.01806e-23
1.19547e-22
6.57451e-22
1.56151e-22
-5.10876e-22
-4.13071e-22
2.20862e-22
1.75353e-21
2.48263e-21
1.79436e-21
1.1814e-21
-7.70012e-22
-1.22706e-21
-6.67367e-22
-1.3023e-21
-1.63488e-21
-2.47097e-22
-2.75697e-22
-8.31709e-22
-4.03018e-22
1.60472e-22
3.45699e-22
-2.80442e-23
-2.30728e-23
-2.91767e-22
-4.14745e-22
-9.18369e-22
-1.22544e-21
-7.63969e-22
2.32768e-22
1.88397e-22
-1.36484e-23
8.83575e-23
-1.02354e-23
4.08522e-22
8.5885e-22
5.43053e-22
-2.23269e-22
7.77218e-22
7.58918e-22
-3.26751e-23
-5.15184e-23
-5.2431e-23
1.8092e-23
-8.99665e-23
-4.59623e-23
3.47232e-23
-2.44978e-22
-3.33794e-22
-3.03312e-22
-1.49338e-22
-4.14384e-23
-1.16542e-22
-1.02516e-24
4.59996e-23
-7.76515e-23
-7.09776e-23
-5.89287e-23
-1.06162e-22
-1.97762e-24
1.80776e-22
8.76453e-23
5.75396e-23
-5.5631e-23
-8.72143e-23
-2.44926e-22
4.13333e-22
6.25406e-22
4.34065e-22
2.3247e-23
-2.11068e-23
-1.59531e-23
2.73124e-23
-3.91437e-23
-2.65166e-24
)
;

boundaryField
{
    sides
    {
        type            calculated;
        value           nonuniform List<scalar> 2(-2.65166e-24 -9.03954e-22);
    }
    empty
    {
        type            empty;
    }
}


// ************************************************************************* //
