/*--------------------------------*- C++ -*----------------------------------*\
  =========                 |
  \\      /  F ield         | OpenFOAM: The Open Source CFD Toolbox
   \\    /   O peration     | Website:  https://openfoam.org
    \\  /    A nd           | Version:  9
     \\/     M anipulation  |
\*---------------------------------------------------------------------------*/
FoamFile
{
    format      ascii;
    class       volVectorField;
    location    "0.003";
    object      ddtCorrDdt0(rho,U);
}
// * * * * * * * * * * * * * * * * * * * * * * * * * * * * * * * * * * * * * //

dimensions      [1 -2 -2 0 0 0 0];

internalField   nonuniform List<vector> 
1000
(
(1.45519e-09 0 0)
(7.27596e-09 0 0)
(8.73115e-09 0 0)
(1.01863e-08 0 0)
(1.30967e-08 0 0)
(1.01863e-08 0 0)
(2.91038e-09 0 0)
(1.45519e-09 0 0)
(-1.45519e-09 0 0)
(-1.23416e-23 0 0)
(-2.39882e-23 0 0)
(-5.82077e-09 0 0)
(-1.01863e-08 0 0)
(-1.16415e-08 0 0)
(-1.01863e-08 0 0)
(-8.73115e-09 0 0)
(-2.91038e-09 0 0)
(8.73115e-09 0 0)
(1.16415e-08 0 0)
(1.19303e-23 0 0)
(-2.91038e-09 0 0)
(-4.36557e-09 0 0)
(-7.27596e-09 0 0)
(-2.91038e-09 0 0)
(-2.91038e-09 0 0)
(2.91038e-09 0 0)
(5.82077e-09 0 0)
(2.91038e-09 0 0)
(5.82077e-09 0 0)
(1.30967e-08 0 0)
(8.73115e-09 0 0)
(2.91038e-09 0 0)
(1.45519e-09 0 0)
(-2.91038e-09 0 0)
(1.45519e-09 0 0)
(7.27596e-09 0 0)
(2.91038e-09 0 0)
(-1.45519e-09 0 0)
(-4.36557e-09 0 0)
(-7.27596e-09 0 0)
(-4.36557e-09 0 0)
(-2.91038e-09 0 0)
(-4.36557e-09 0 0)
(-4.36557e-09 0 0)
(-1.44757e-23 0 0)
(1.01863e-08 0 0)
(1.16415e-08 0 0)
(1.16415e-08 0 0)
(2.03727e-08 0 0)
(1.01863e-08 0 0)
(1.80325e-22 0 0)
(-5.82077e-09 0 0)
(-7.27596e-09 0 0)
(7.27596e-09 0 0)
(7.27596e-09 0 0)
(-2.91038e-09 0 0)
(-1.45519e-09 0 0)
(3.41212e-23 0 0)
(-5.35599e-23 0 0)
(-2.91038e-09 0 0)
(-5.82077e-09 0 0)
(5.82077e-09 0 0)
(-4.36557e-09 0 0)
(-2.03727e-08 0 0)
(-1.60071e-08 0 0)
(-5.82077e-09 0 0)
(-8.73115e-09 0 0)
(-4.36557e-09 0 0)
(-1.45519e-09 0 0)
(-3.72231e-24 0 0)
(1.01863e-08 0 0)
(2.32831e-08 0 0)
(2.47383e-08 0 0)
(8.73115e-09 0 0)
(1.45519e-09 0 0)
(3.90843e-23 0 0)
(1.45519e-09 0 0)
(-4.36557e-09 0 0)
(-7.27596e-09 0 0)
(-5.82077e-09 0 0)
(-1.30967e-08 0 0)
(-7.27596e-09 0 0)
(-5.82077e-09 0 0)
(-1.16415e-08 0 0)
(-4.36557e-09 0 0)
(1.16415e-08 0 0)
(1.01863e-08 0 0)
(7.27596e-09 0 0)
(7.27596e-09 0 0)
(7.27596e-09 0 0)
(1.45519e-09 0 0)
(-4.36557e-09 0 0)
(1.45519e-09 0 0)
(-8.4786e-24 0 0)
(-1.30967e-08 0 0)
(-1.01863e-08 0 0)
(2.33679e-23 0 0)
(-1.45519e-09 0 0)
(-4.36557e-09 0 0)
(3.47416e-23 0 0)
(-2.91038e-09 0 0)
(2.91038e-09 0 0)
(1.16415e-08 0 0)
(1.45519e-09 0 0)
(-8.73115e-09 0 0)
(-2.91038e-09 0 0)
(1.16415e-08 0 0)
(7.27596e-09 0 0)
(-5.82077e-09 0 0)
(-8.73115e-09 0 0)
(-1.16415e-08 0 0)
(-7.27596e-09 0 0)
(7.27596e-09 0 0)
(1.45519e-08 0 0)
(1.74623e-08 0 0)
(1.60071e-08 0 0)
(5.82077e-09 0 0)
(-7.27596e-09 0 0)
(-8.73115e-09 0 0)
(-1.45519e-08 0 0)
(-8.73115e-09 0 0)
(5.82077e-09 0 0)
(1.16415e-08 0 0)
(5.82077e-09 0 0)
(-5.82077e-09 0 0)
(-2.91038e-09 0 0)
(7.27596e-09 0 0)
(8.73115e-09 0 0)
(-1.45519e-09 0 0)
(-8.73115e-09 0 0)
(-5.82077e-09 0 0)
(1.45519e-09 0 0)
(2.91038e-09 0 0)
(-1.57164e-22 0 0)
(1.30967e-08 0 0)
(1.45519e-08 0 0)
(1.45519e-08 0 0)
(2.18279e-08 0 0)
(8.73115e-09 0 0)
(7.27596e-09 0 0)
(1.45519e-09 0 0)
(-4.36557e-09 0 0)
(-1.01863e-08 0 0)
(-1.45519e-08 0 0)
(-1.45519e-08 0 0)
(-1.16415e-08 0 0)
(-5.82077e-09 0 0)
(1.45519e-09 0 0)
(-5.4896e-24 0 0)
(-1.01863e-08 0 0)
(-8.73115e-09 0 0)
(-1.16415e-08 0 0)
(-4.36557e-09 0 0)
(7.27596e-09 0 0)
(8.73115e-09 0 0)
(4.36557e-09 0 0)
(-1.01863e-08 0 0)
(-1.01863e-08 0 0)
(-2.91038e-09 0 0)
(-1.40621e-23 0 0)
(7.27596e-09 0 0)
(4.36557e-09 0 0)
(4.36557e-09 0 0)
(-1.45519e-09 0 0)
(-1.16415e-08 0 0)
(-1.16415e-08 0 0)
(-2.91038e-09 0 0)
(1.45519e-09 0 0)
(7.27596e-09 0 0)
(1.60071e-08 0 0)
(1.45519e-08 0 0)
(2.18279e-08 0 0)
(1.01863e-08 0 0)
(-2.91038e-09 0 0)
(-4.36557e-09 0 0)
(-5.82077e-09 0 0)
(-1.45519e-09 0 0)
(-2.64698e-23 0 0)
(4.36557e-09 0 0)
(8.73115e-09 0 0)
(1.45519e-09 0 0)
(-4.36557e-09 0 0)
(-4.46678e-24 0 0)
(-5.82077e-09 0 0)
(-2.91038e-09 0 0)
(-1.45519e-09 0 0)
(-5.82077e-09 0 0)
(-7.27596e-09 0 0)
(-7.27596e-09 0 0)
(-1.01863e-08 0 0)
(-1.45519e-09 0 0)
(8.73115e-09 0 0)
(8.73115e-09 0 0)
(1.01863e-08 0 0)
(1.16415e-08 0 0)
(7.27596e-09 0 0)
(-1.45519e-09 0 0)
(-7.27596e-09 0 0)
(-1.30967e-08 0 0)
(-1.74623e-08 0 0)
(-2.32831e-08 0 0)
(-1.74623e-08 0 0)
(2.91038e-09 0 0)
(1.60071e-08 0 0)
(2.03727e-08 0 0)
(2.76486e-08 0 0)
(2.61934e-08 0 0)
(1.45519e-08 0 0)
(4.36557e-09 0 0)
(-2.91038e-09 0 0)
(-5.82077e-09 0 0)
(-7.27596e-09 0 0)
(-1.16415e-08 0 0)
(-1.16415e-08 0 0)
(-1.01863e-08 0 0)
(-1.30967e-08 0 0)
(-8.73115e-09 0 0)
(-7.27596e-09 0 0)
(-5.82077e-09 0 0)
(-1.45519e-09 0 0)
(2.91038e-09 0 0)
(1.16415e-08 0 0)
(1.01863e-08 0 0)
(1.30967e-08 0 0)
(1.16415e-08 0 0)
(7.27596e-09 0 0)
(-5.82077e-09 0 0)
(-4.36557e-09 0 0)
(4.36557e-09 0 0)
(-1.45519e-09 0 0)
(-1.74623e-08 0 0)
(-1.74623e-08 0 0)
(-4.36557e-09 0 0)
(4.36557e-09 0 0)
(8.73115e-09 0 0)
(4.36557e-09 0 0)
(4.36557e-09 0 0)
(7.27596e-09 0 0)
(1.45519e-08 0 0)
(4.36557e-09 0 0)
(-8.73115e-09 0 0)
(-8.73115e-09 0 0)
(-1.01863e-08 0 0)
(-8.73115e-09 0 0)
(-2.91038e-09 0 0)
(-3.55688e-23 0 0)
(-7.27596e-09 0 0)
(-1.01863e-08 0 0)
(4.36557e-09 0 0)
(2.32831e-08 0 0)
(3.20142e-08 0 0)
(2.32831e-08 0 0)
(1.01863e-08 0 0)
(1.45519e-09 0 0)
(-2.91038e-09 0 0)
(-7.27596e-09 0 0)
(-1.30967e-08 0 0)
(-1.74623e-08 0 0)
(-1.74623e-08 0 0)
(-1.01863e-08 0 0)
(-1.16415e-08 0 0)
(-1.16415e-08 0 0)
(-1.45519e-09 0 0)
(-2.91038e-09 0 0)
(-2.91038e-09 0 0)
(1.57164e-23 0 0)
(-5.82077e-09 0 0)
(-6.42858e-24 0 0)
(1.01863e-08 0 0)
(1.45519e-09 0 0)
(-1.45519e-09 0 0)
(-2.91038e-09 0 0)
(-5.82077e-09 0 0)
(-4.36557e-09 0 0)
(8.73115e-09 0 0)
(1.89175e-08 0 0)
(2.18279e-08 0 0)
(1.30967e-08 0 0)
(7.27596e-09 0 0)
(2.91038e-09 0 0)
(-7.27596e-09 0 0)
(-1.30967e-08 0 0)
(-1.60071e-08 0 0)
(-1.30967e-08 0 0)
(-8.73115e-09 0 0)
(-4.36557e-09 0 0)
(4.36557e-09 0 0)
(8.73115e-09 0 0)
(8.73115e-09 0 0)
(5.82077e-09 0 0)
(1.01863e-08 0 0)
(4.36557e-09 0 0)
(-5.82077e-09 0 0)
(-1.74623e-08 0 0)
(-2.18279e-08 0 0)
(-2.91038e-09 0 0)
(1.89175e-08 0 0)
(1.74623e-08 0 0)
(1.89175e-08 0 0)
(1.60071e-08 0 0)
(8.73115e-09 0 0)
(1.45519e-09 0 0)
(4.3427e-24 0 0)
(1.45519e-09 0 0)
(-1.45519e-09 0 0)
(-1.54967e-24 0 0)
(-4.36557e-09 0 0)
(4.36557e-09 0 0)
(1.16415e-08 0 0)
(1.45519e-09 0 0)
(-4.36557e-09 0 0)
(-1.89175e-08 0 0)
(-2.91038e-08 0 0)
(-2.18279e-08 0 0)
(-1.01863e-08 0 0)
(7.27596e-09 0 0)
(1.60071e-08 0 0)
(2.03727e-08 0 0)
(1.60071e-08 0 0)
(8.73115e-09 0 0)
(1.45519e-09 0 0)
(-4.36557e-09 0 0)
(-7.27596e-09 0 0)
(-5.82077e-09 0 0)
(-1.45519e-09 0 0)
(5.82077e-09 0 0)
(1.45519e-08 0 0)
(7.27596e-09 0 0)
(7.27596e-09 0 0)
(7.27596e-09 0 0)
(-2.91038e-09 0 0)
(-1.45519e-08 0 0)
(-2.61934e-08 0 0)
(-2.18279e-08 0 0)
(-1.01863e-08 0 0)
(-2.91038e-09 0 0)
(-5.82077e-09 0 0)
(-8.73115e-09 0 0)
(-2.91038e-09 0 0)
(-1.45519e-09 0 0)
(1.45519e-09 0 0)
(-5.82077e-09 0 0)
(-5.82077e-09 0 0)
(2.91038e-09 0 0)
(2.32831e-08 0 0)
(7.27596e-08 0 0)
(1.9063e-07 0 0)
(4.91855e-07 0 0)
(1.27038e-06 0 0)
(3.24799e-06 0 0)
(8.26694e-06 0 0)
(2.08704e-05 0 0)
(5.20798e-05 0 0)
(0.000128421 0 0)
(0.00031283 0 0)
(0.000752624 0 0)
(0.00178787 0 0)
(0.00419242 0 0)
(0.00970136 0 0)
(0.0221465 0 0)
(0.0498579 0 0)
(0.110654 0 0)
(0.242013 0 0)
(0.521401 0 0)
(1.10605 0 0)
(2.30908 0 0)
(4.74179 0 0)
(9.57283 0 0)
(18.9874 0 0)
(36.9759 0 0)
(70.6441 0 0)
(132.303 0 0)
(242.658 0 0)
(435.398 0 0)
(763.357 0 0)
(1305.97 0 0)
(2176.93 0 0)
(3529.61 0 0)
(5556.09 0 0)
(8474.27 0 0)
(12497.3 0 0)
(17783.4 0 0)
(24370.4 0 0)
(32113.4 0 0)
(40649.3 0 0)
(49416 0 0)
(57732.7 0 0)
(64922.2 0 0)
(70461.4 0 0)
(74154.1 0 0)
(76176 0 0)
(76916.5 0 0)
(76786 0 0)
(76111 0 0)
(75112.9 0 0)
(73928.7 0 0)
(72639.2 0 0)
(71291.8 0 0)
(69913.9 0 0)
(68522 0 0)
(67125.8 0 0)
(65730.9 0 0)
(64340.7 0 0)
(62957.2 0 0)
(61581.3 0 0)
(60213.7 0 0)
(58854.7 0 0)
(57504.6 0 0)
(56163.6 0 0)
(54832 0 0)
(53510.3 0 0)
(52198.7 0 0)
(50897.8 0 0)
(49608.1 0 0)
(48330.1 0 0)
(47064.7 0 0)
(45812.2 0 0)
(44573.5 0 0)
(43349.1 0 0)
(42139.8 0 0)
(40946 0 0)
(39768.5 0 0)
(38607.7 0 0)
(37464.1 0 0)
(36338.2 0 0)
(35230.4 0 0)
(34141 0 0)
(33070.4 0 0)
(32018.8 0 0)
(30986.5 0 0)
(29973.5 0 0)
(28980.1 0 0)
(28006.3 0 0)
(27052.1 0 0)
(26117.7 0 0)
(25202.9 0 0)
(24307.8 0 0)
(23432.4 0 0)
(22576.4 0 0)
(21740.1 0 0)
(20922.3 0 0)
(20126.4 0 0)
(19342 0 0)
(18596.4 0 0)
(17821.4 0 0)
(17172.2 0 0)
(16325 0 0)
(15887.6 0 0)
(14846 0 0)
(14659.1 0 0)
(13607.5 0 0)
(13124.2 0 0)
(12913.8 0 0)
(11389.9 0 0)
(12063.7 0 0)
(10630.1 0 0)
(9916.51 0 0)
(10678.2 0 0)
(8820.39 0 0)
(8471.83 0 0)
(9361.24 0 0)
(7512.83 0 0)
(6782.19 0 0)
(8061.19 0 0)
(6818.35 0 0)
(5136.21 0 0)
(6303.5 0 0)
(6603.69 0 0)
(4412.09 0 0)
(3955.61 0 0)
(5555.97 0 0)
(5015.51 0 0)
(2774.81 0 0)
(2853.9 0 0)
(4571.38 0 0)
(4023.49 0 0)
(1738.31 0 0)
(1507.04 0 0)
(3353.12 0 0)
(3622.8 0 0)
(1464.2 0 0)
(151.039 0 0)
(1561.44 0 0)
(3173.23 0 0)
(2196.52 0 0)
(-162.397 0 0)
(-581.77 0 0)
(1435.34 0 0)
(2779.05 0 0)
(1324.99 0 0)
(-991.79 0 0)
(-1130.85 0 0)
(846.358 0 0)
(2256.92 0 0)
(1454.52 0 0)
(-694.482 0 0)
(-1950.51 0 0)
(-675.918 0 0)
(1918 0 0)
(2447.04 0 0)
(169.869 0 0)
(-2347.63 0 0)
(-1803.55 0 0)
(632.166 0 0)
(1726.89 0 0)
(2596.18 0 0)
(-353.735 0 0)
(-2576.95 0 0)
(-974.439 0 0)
(158.526 0 0)
(674.553 0 0)
(1140.94 0 0)
(1153.84 0 0)
(-335.131 0 0)
(-639.399 0 0)
(-152.476 0 0)
(-287.451 0 0)
(528.774 0 0)
(397.498 0 0)
(74.1862 0 0)
(456.161 0 0)
(-208.533 0 0)
(-765.039 0 0)
(-479.47 0 0)
(522.257 0 0)
(1215.44 0 0)
(-496.233 0 0)
(718.321 0 0)
(697.075 0 0)
(-742.571 0 0)
(-319.165 0 0)
(536.789 0 0)
(1737.19 0 0)
(-485.502 0 0)
(-1077.44 0 0)
(312.426 0 0)
(1107.46 0 0)
(68.7072 0 0)
(-717.105 0 0)
(89.0611 0 0)
(885.63 0 0)
(-575.184 0 0)
(-100.417 0 0)
(700.373 0 0)
(1407.61 0 0)
(680.59 0 0)
(-982.479 0 0)
(244.902 0 0)
(832.951 0 0)
(442.556 0 0)
(-184.608 0 0)
(-112.975 0 0)
(1070.17 0 0)
(1070.3 0 0)
(-223.916 0 0)
(78.6495 0 0)
(405.355 0 0)
(318.487 0 0)
(375.352 0 0)
(660.601 0 0)
(948.318 0 0)
(666.888 0 0)
(619.595 0 0)
(711.534 0 0)
(1430.05 0 0)
(784.25 0 0)
(116.51 0 0)
(654.103 0 0)
(1294.26 0 0)
(1231.37 0 0)
(1374.37 0 0)
(2500.35 0 0)
(1906.75 0 0)
(1771.29 0 0)
(1788.91 0 0)
(-16.43 0 0)
(889.665 0 0)
(1077.45 0 0)
(436.683 0 0)
(2119.96 0 0)
(-228.735 0 0)
(22574.1 0 0)
(32814.4 0 0)
(211978 0 0)
(240840 0 0)
(206020 0 0)
(164786 0 0)
(125119 0 0)
(93157.9 0 0)
(68614.7 0 0)
(50557.6 0 0)
(35266 0 0)
(22813.9 0 0)
(14796.3 0 0)
(10347.7 0 0)
(7004.88 0 0)
(4112.24 0 0)
(2338.17 0 0)
(1656.71 0 0)
(646.518 0 0)
(10.4871 0 0)
(71.4771 0 0)
(-21.7574 0 0)
(-100.3 0 0)
(-361.757 0 0)
(-388.624 0 0)
(-114.466 0 0)
(-53.5867 0 0)
(-184.551 0 0)
(-13.3344 0 0)
(-151.445 0 0)
(-88.5491 0 0)
(29.3895 0 0)
(-147.821 0 0)
(-8.7915 0 0)
(85.0359 0 0)
(-88.0444 0 0)
(28.5964 0 0)
(104.935 0 0)
(-41.312 0 0)
(12.6168 0 0)
(100.91 0 0)
(28.4926 0 0)
(2.33693 0 0)
(45.6199 0 0)
(40.2718 0 0)
(-121.652 0 0)
(-177.78 0 0)
(198.934 0 0)
(-26.6767 0 0)
(-149.134 0 0)
(-79.5281 0 0)
(64.5706 0 0)
(675.334 0 0)
(-235.331 0 0)
(417.192 0 0)
(738.012 0 0)
(-309.736 0 0)
(1358.11 0 0)
(603.915 0 0)
(-448.334 0 0)
(2851.45 0 0)
(-307.318 0 0)
(1754.15 0 0)
(3959.59 0 0)
(-1592.18 0 0)
(5410.67 0 0)
(7138.09 0 0)
(-3762.74 0 0)
(17373.4 0 0)
(2343.14 0 0)
(2386.7 0 0)
(31206.6 0 0)
(-4602.87 0 0)
(19859.3 0 0)
(46337 0 0)
(-21291.9 0 0)
(98682.7 0 0)
(20016.1 0 0)
(6115.93 0 0)
(330897 0 0)
(-194984 0 0)
(1.39027e+06 0 0)
(1.82978e+06 0 0)
(538519 0 0)
(87717.2 0 0)
(13280 0 0)
(1813.88 0 0)
(242.478 0 0)
(32.3403 0 0)
(4.31388 0 0)
(0.575268 0 0)
(0.0766645 0 0)
(0.0102105 0 0)
(0.00135932 0 0)
(0.000180935 0 0)
(2.40831e-05 0 0)
(3.20524e-06 0 0)
(4.25462e-07 0 0)
(5.52973e-08 0 0)
(6.91216e-09 0 0)
(5.45697e-10 0 0)
(-3.63798e-10 0 0)
(-7.27596e-10 0 0)
(-1.81899e-10 0 0)
(3.63798e-10 0 0)
(9.09495e-10 0 0)
(1.09139e-09 0 0)
(2.18279e-09 0 0)
(1.09139e-09 0 0)
(-5.78097e-24 0 0)
(1.09139e-09 0 0)
(1.09139e-09 0 0)
(1.81899e-10 0 0)
(7.27596e-10 0 0)
(9.09495e-10 0 0)
(1.09139e-09 0 0)
(7.27596e-10 0 0)
(1.81899e-10 0 0)
(-9.09495e-10 0 0)
(7.80652e-24 0 0)
(7.27596e-10 0 0)
(-1.81899e-10 0 0)
(-9.09495e-10 0 0)
(-5.45697e-10 0 0)
(1.81899e-10 0 0)
(1.81899e-10 0 0)
(9.39787e-24 0 0)
(-1.81899e-10 0 0)
(-9.09495e-10 0 0)
(-7.27596e-10 0 0)
(-5.45697e-10 0 0)
(2.79173e-24 0 0)
(9.09495e-10 0 0)
(1.09139e-09 0 0)
(7.27596e-10 0 0)
(9.09495e-10 0 0)
(1.09139e-09 0 0)
(-3.63798e-10 0 0)
(-1.09139e-09 0 0)
(-1.81899e-09 0 0)
(-1.81899e-09 0 0)
(-1.45519e-09 0 0)
(-1.45519e-09 0 0)
(-5.45697e-10 0 0)
(3.63798e-10 0 0)
(1.81899e-10 0 0)
(5.45697e-10 0 0)
(1.63709e-09 0 0)
(1.81899e-09 0 0)
(7.27596e-10 0 0)
(1.81899e-10 0 0)
(5.45697e-10 0 0)
(3.63798e-10 0 0)
(3.63798e-10 0 0)
(5.45697e-10 0 0)
(-1.22581e-23 0 0)
(-9.09495e-10 0 0)
(-7.27596e-10 0 0)
(-7.27596e-10 0 0)
(-3.63798e-10 0 0)
(1.81899e-10 0 0)
(-5.45697e-10 0 0)
(-3.63798e-10 0 0)
(7.27596e-10 0 0)
(-3.63798e-10 0 0)
(-3.63798e-10 0 0)
(3.63798e-10 0 0)
(7.27596e-10 0 0)
(9.30578e-26 0 0)
(3.63798e-10 0 0)
(1.81899e-10 0 0)
(-5.45697e-10 0 0)
(-1.09139e-09 0 0)
(-7.27596e-10 0 0)
(-7.85822e-24 0 0)
(8.27181e-25 0 0)
(-9.09495e-10 0 0)
(9.82277e-25 0 0)
(7.27596e-10 0 0)
(1.45519e-09 0 0)
(1.81899e-09 0 0)
(7.27596e-10 0 0)
(-1.81899e-10 0 0)
(-5.45697e-10 0 0)
(-1.09139e-09 0 0)
(-1.09139e-09 0 0)
(4.80799e-24 0 0)
(5.45697e-10 0 0)
(7.27596e-10 0 0)
(7.27596e-10 0 0)
(7.27596e-10 0 0)
(-3.63798e-10 0 0)
(-1.45519e-09 0 0)
(-1.09139e-09 0 0)
(-1.09139e-09 0 0)
(-9.09495e-10 0 0)
(-3.63798e-10 0 0)
(5.45697e-10 0 0)
(3.63798e-10 0 0)
(5.45697e-10 0 0)
(1.09139e-09 0 0)
(1.09139e-09 0 0)
(-2.84206e-24 0 0)
(1.81899e-10 0 0)
(-3.63798e-10 0 0)
(1.81899e-10 0 0)
(7.27596e-10 0 0)
(3.63798e-10 0 0)
(-7.27596e-10 0 0)
(-1.81899e-09 0 0)
(-9.09495e-10 0 0)
(1.81899e-10 0 0)
(1.27329e-09 0 0)
(7.27596e-10 0 0)
(3.28287e-24 0 0)
(3.87741e-24 0 0)
(-5.45697e-10 0 0)
(1.81899e-10 0 0)
(7.27596e-10 0 0)
(7.27596e-10 0 0)
(1.81899e-10 0 0)
(-1.81899e-10 0 0)
(3.63798e-10 0 0)
(-1.81899e-10 0 0)
(-1.45519e-09 0 0)
(-5.45697e-10 0 0)
(9.09495e-10 0 0)
(1.27329e-09 0 0)
(9.09495e-10 0 0)
(1.81899e-10 0 0)
(-1.81899e-10 0 0)
(-5.45697e-10 0 0)
(-1.81899e-10 0 0)
(-5.45697e-10 0 0)
(-5.45697e-10 0 0)
(5.45697e-10 0 0)
(1.81899e-10 0 0)
(-1.81899e-10 0 0)
(-1.81899e-10 0 0)
(5.45697e-10 0 0)
(3.10193e-25 0 0)
(-5.45697e-10 0 0)
(-1.27329e-09 0 0)
(-5.45697e-10 0 0)
(9.09495e-10 0 0)
(1.09139e-09 0 0)
(-3.63798e-10 0 0)
(3.63798e-10 0 0)
(1.09139e-09 0 0)
(-3.63798e-10 0 0)
(-3.63798e-10 0 0)
(1.81899e-10 0 0)
(1.81899e-10 0 0)
(3.24135e-24 0 0)
(5.45697e-10 0 0)
(9.09495e-10 0 0)
(1.80946e-25 0 0)
(-3.63798e-10 0 0)
(-3.63798e-10 0 0)
(-3.63798e-10 0 0)
(-1.09139e-09 0 0)
(-1.63709e-09 0 0)
(-9.09495e-10 0 0)
(1.81899e-10 0 0)
(1.27329e-09 0 0)
(1.09139e-09 0 0)
(2.1617e-24 0 0)
(-3.63798e-10 0 0)
(-3.63798e-10 0 0)
(-1.81899e-10 0 0)
(1.81899e-10 0 0)
(7.27596e-10 0 0)
(1.81899e-10 0 0)
(-1.81899e-10 0 0)
(5.45697e-10 0 0)
(2.58494e-26 0 0)
(-1.09139e-09 0 0)
(-1.45519e-09 0 0)
(-1.81899e-10 0 0)
(1.45519e-09 0 0)
(1.45519e-09 0 0)
(1.09139e-09 0 0)
(1.81899e-10 0 0)
(-1.27329e-09 0 0)
(-9.09495e-10 0 0)
(-9.09495e-10 0 0)
(-2.00089e-09 0 0)
(-2.00089e-09 0 0)
(-1.63709e-09 0 0)
(-9.09495e-10 0 0)
(7.27596e-10 0 0)
(1.45519e-09 0 0)
(5.45697e-10 0 0)
(1.27329e-09 0 0)
(2.91038e-09 0 0)
(1.63709e-09 0 0)
(1.81899e-10 0 0)
(-1.81899e-10 0 0)
(-9.09495e-10 0 0)
(-1.81899e-09 0 0)
(-1.27329e-09 0 0)
(-7.27596e-10 0 0)
(-1.09139e-09 0 0)
(-1.27329e-09 0 0)
(3.10193e-25 0 0)
(5.45697e-10 0 0)
(-1.81899e-10 0 0)
(5.45697e-10 0 0)
(5.45697e-10 0 0)
(1.09139e-09 0 0)
(2.00089e-09 0 0)
(2.36469e-09 0 0)
(1.09139e-09 0 0)
(7.27596e-10 0 0)
(1.09139e-09 0 0)
(9.09495e-10 0 0)
(-3.63798e-10 0 0)
(-1.45519e-09 0 0)
(-1.81899e-09 0 0)
(-2.00089e-09 0 0)
(-3.63798e-10 0 0)
(-3.63798e-10 0 0)
(-1.27329e-09 0 0)
(-1.09139e-09 0 0)
(-5.45697e-10 0 0)
(1.81899e-10 0 0)
(1.81899e-10 0 0)
(1.81899e-10 0 0)
(-1.81899e-10 0 0)
(1.81899e-10 0 0)
(1.81899e-10 0 0)
(-1.81899e-10 0 0)
(-5.45697e-10 0 0)
(-9.09495e-10 0 0)
(-1.81899e-10 0 0)
(5.45697e-10 0 0)
(7.27596e-10 0 0)
(3.63798e-10 0 0)
(9.30578e-25 0 0)
(-3.63798e-10 0 0)
(-1.81899e-10 0 0)
(2.06795e-25 0 0)
(-3.63798e-10 0 0)
(3.63798e-10 0 0)
(1.10601e-24 0 0)
(3.63798e-10 0 0)
(1.09139e-09 0 0)
(1.81899e-10 0 0)
(-7.27596e-10 0 0)
(-5.45697e-10 0 0)
(3.63798e-10 0 0)
(1.81899e-09 0 0)
(2.18279e-09 0 0)
(1.81899e-09 0 0)
(9.09495e-10 0 0)
(-7.27596e-10 0 0)
(-1.27329e-09 0 0)
(-7.27596e-10 0 0)
(-1.09139e-09 0 0)
(-1.09139e-09 0 0)
(-1.81899e-10 0 0)
(-1.81899e-10 0 0)
(-7.27596e-10 0 0)
(-7.27596e-10 0 0)
(3.63798e-10 0 0)
(1.81899e-09 0 0)
(2.00089e-09 0 0)
(5.45697e-10 0 0)
(-5.45697e-10 0 0)
(-9.09495e-10 0 0)
(-1.09139e-09 0 0)
(-1.45519e-09 0 0)
(-7.27596e-10 0 0)
(3.63798e-10 0 0)
(7.27596e-10 0 0)
(1.81899e-10 0 0)
(-5.45697e-10 0 0)
(8.78879e-25 0 0)
(7.27596e-10 0 0)
(7.27596e-10 0 0)
(5.45697e-10 0 0)
(-1.81899e-10 0 0)
(1.09139e-09 0 0)
(1.63709e-09 0 0)
(-1.81899e-10 0 0)
(-9.09495e-10 0 0)
(1.81899e-10 0 0)
(-8.78708e-25 0 0)
(3.63798e-10 0 0)
(1.27329e-09 0 0)
(-3.63798e-10 0 0)
(-2.00089e-09 0 0)
(-1.45519e-09 0 0)
(-7.27596e-10 0 0)
(-7.27596e-10 0 0)
(-5.45697e-10 0 0)
(-3.63798e-10 0 0)
(2.06795e-25 0 0)
(1.81899e-10 0 0)
(3.63798e-10 0 0)
(3.63798e-10 0 0)
(-3.63798e-10 0 0)
(-7.27596e-10 0 0)
(-1.81899e-10 0 0)
(3.63798e-10 0 0)
(1.81899e-10 0 0)
(5.45697e-10 0 0)
(1.81899e-10 0 0)
(-3.63798e-10 0 0)
(-7.27596e-10 0 0)
(7.27596e-10 0 0)
(1.63709e-09 0 0)
(1.27329e-09 0 0)
(1.81899e-10 0 0)
(-1.81899e-10 0 0)
(8.91289e-25 0 0)
(1.81899e-10 0 0)
(5.45697e-10 0 0)
(-4.3944e-25 0 0)
)
;

boundaryField
{
    sides
    {
        type            calculated;
        value           nonuniform List<vector> 2((-4.3944e-25 0 0) (1.45519e-09 0 0));
    }
    empty
    {
        type            empty;
    }
}


// ************************************************************************* //
