/*--------------------------------*- C++ -*----------------------------------*\
  =========                 |
  \\      /  F ield         | OpenFOAM: The Open Source CFD Toolbox
   \\    /   O peration     | Website:  https://openfoam.org
    \\  /    A nd           | Version:  9
     \\/     M anipulation  |
\*---------------------------------------------------------------------------*/
FoamFile
{
    format      ascii;
    class       surfaceScalarField;
    location    "0.003";
    object      phi_0;
}
// * * * * * * * * * * * * * * * * * * * * * * * * * * * * * * * * * * * * * //

dimensions      [1 0 -1 0 0 0 0];

internalField   nonuniform List<scalar> 
999
(
-3.24007e-12
-3.0127e-12
-1.90425e-12
-1.7053e-12
-1.36424e-12
-4.26326e-13
-7.38964e-13
-1.33582e-12
-8.52651e-14
2.16005e-12
2.92744e-12
1.19371e-12
-3.12639e-13
-1.47793e-12
-2.27374e-12
-2.6148e-12
-2.64322e-12
-2.95586e-12
-1.7053e-12
1.42109e-13
2.47269e-12
4.17799e-12
5.88329e-12
6.08225e-12
5.65592e-12
2.67164e-12
1.16529e-12
-1.13687e-12
-1.53477e-12
-1.90425e-12
8.52651e-14
2.67164e-12
4.40536e-12
4.88853e-12
6.42331e-12
5.20117e-12
4.77485e-12
4.26326e-12
3.21165e-12
3.55271e-12
3.43903e-12
1.56319e-12
2.07478e-12
2.6148e-12
3.15481e-12
4.37694e-12
5.34328e-12
4.80327e-12
7.21911e-12
7.30438e-12
6.48015e-12
5.88329e-12
6.56541e-12
8.44125e-12
7.3328e-12
7.7307e-12
7.27596e-12
6.9349e-12
6.9349e-12
6.30962e-12
5.99698e-12
6.36646e-12
5.57066e-12
5.31486e-12
5.34328e-12
3.49587e-12
1.76215e-12
8.81073e-13
2.55795e-13
1.50635e-12
1.47793e-12
2.84217e-12
3.6664e-12
5.65592e-12
6.08225e-12
7.47491e-12
7.81597e-12
6.79279e-12
7.36122e-12
6.6791e-12
4.83169e-12
2.30216e-12
9.66338e-13
1.98952e-13
1.36424e-12
2.92744e-12
3.21165e-12
2.24532e-12
2.78533e-12
5.20117e-12
6.13909e-12
4.718e-12
3.89377e-12
4.40536e-12
3.21165e-12
3.9222e-12
2.81375e-12
2.89901e-12
1.76215e-12
7.67386e-13
-2.84217e-13
-2.84217e-14
1.39266e-12
2.07478e-12
3.38218e-12
3.97904e-12
5.54223e-12
5.42855e-12
3.86535e-12
2.55795e-12
2.18847e-12
1.81899e-12
1.08002e-12
-1.98952e-13
-1.84741e-12
-1.7053e-12
-1.39266e-12
-1.02318e-12
0
6.25278e-13
1.47793e-12
1.62004e-12
1.9611e-12
7.67386e-13
1.44951e-12
2.01794e-12
1.13687e-12
-5.40012e-13
-2.10321e-12
-1.62004e-12
-5.11591e-13
1.33582e-12
3.29692e-12
4.94538e-12
7.3328e-12
8.95284e-12
1.03455e-11
8.61178e-12
6.45173e-12
3.0127e-12
2.84217e-14
-1.44951e-12
-1.7053e-12
-5.40012e-13
1.7053e-13
2.84217e-13
-5.40012e-13
6.25278e-13
9.66338e-13
1.3074e-12
7.95808e-13
8.52651e-14
-4.54747e-13
-9.09495e-13
-1.84741e-12
-1.08002e-12
-1.42109e-12
-3.69482e-13
3.69482e-13
1.44951e-12
2.52953e-12
3.32534e-12
1.10845e-12
-1.42109e-13
-1.7053e-12
-2.18847e-12
-1.79057e-12
-2.27374e-13
1.42109e-12
4.12115e-12
6.36646e-12
7.92966e-12
7.41807e-12
6.08225e-12
3.63798e-12
1.87583e-12
6.82121e-13
-1.56319e-12
-4.0643e-12
-5.05906e-12
-5.45697e-12
-3.15481e-12
-4.49063e-12
-3.46745e-12
-1.02318e-12
5.40012e-13
1.08002e-12
1.36424e-12
8.52651e-14
-7.67386e-13
-1.7053e-13
-6.82121e-13
-8.81073e-13
-1.44951e-12
-2.21689e-12
-3.63798e-12
-3.18323e-12
-2.89901e-12
-3.21165e-12
-4.66116e-12
-3.75167e-12
-1.53477e-12
1.53477e-12
2.87059e-12
2.6148e-12
2.70006e-12
1.16529e-12
-8.52651e-14
-3.12639e-13
-9.66338e-13
-1.27898e-12
-9.66338e-13
-1.76215e-12
-1.25056e-12
-2.84217e-13
2.84217e-13
-3.69482e-13
-9.66338e-13
-2.84217e-13
-3.69482e-13
-9.66338e-13
-2.58638e-12
-3.35376e-12
-2.44427e-12
-1.67688e-12
-1.3074e-12
-5.68434e-14
2.21689e-12
3.21165e-12
3.89377e-12
2.67164e-12
2.27374e-12
2.87059e-12
1.13687e-12
-3.41061e-13
-3.09797e-12
-2.95586e-12
-7.38964e-13
6.25278e-13
1.0516e-12
2.33058e-12
2.16005e-12
1.84741e-12
3.09797e-12
3.55271e-12
3.41061e-12
1.44951e-12
0
-8.2423e-13
-7.95808e-13
4.83169e-13
2.01794e-12
3.49587e-12
4.66116e-12
4.83169e-12
6.22435e-12
5.22959e-12
2.27374e-12
1.59162e-12
7.10543e-13
-1.13687e-13
-3.97904e-13
-9.66338e-13
-1.53477e-12
-2.04636e-12
-1.53477e-12
-6.25278e-13
1.22213e-12
1.93268e-12
2.72848e-12
3.86535e-12
1.81899e-12
-1.08002e-12
-2.75691e-12
-2.72848e-12
-1.67688e-12
-8.52651e-13
2.84217e-13
1.19371e-12
1.02318e-12
5.11591e-13
3.41061e-13
-1.19371e-12
-2.359e-12
-2.10321e-12
-1.13687e-13
7.38964e-13
1.3074e-12
6.25278e-13
-1.7053e-13
-8.52651e-13
-2.58638e-12
-2.07478e-12
-9.09495e-13
8.52651e-14
-8.52651e-14
-5.68434e-13
1.50635e-12
3.18323e-12
1.50635e-12
1.50635e-12
4.83169e-13
5.68434e-13
2.13163e-12
3.46745e-12
4.68958e-12
3.75167e-12
3.04112e-12
2.58638e-12
2.359e-12
2.16005e-12
1.76215e-12
1.02318e-12
5.68434e-14
-2.21689e-12
-3.2685e-12
-2.33058e-12
-2.04636e-12
-2.6148e-12
-3.24007e-12
-3.58114e-12
-3.80851e-12
-4.23483e-12
-3.12639e-12
-3.83693e-12
-2.72848e-12
-2.50111e-12
-1.56319e-12
-8.52651e-14
5.11591e-13
1.79057e-12
2.21689e-12
9.37916e-13
2.78533e-12
2.64322e-12
1.02318e-12
-2.24532e-12
-4.60432e-12
-6.70752e-12
-9.83391e-12
-1.03455e-11
-8.95284e-12
-6.36646e-12
-3.12639e-12
2.41585e-12
1.11413e-11
3.00986e-11
7.66534e-11
2.00771e-10
5.21936e-10
1.34833e-09
3.44181e-09
8.6759e-09
2.15998e-08
5.31275e-08
1.29087e-07
3.09796e-07
7.34172e-07
1.71767e-06
3.96624e-06
9.03629e-06
2.03064e-05
4.49951e-05
9.82719e-05
0.000211476
0.000448211
0.000935197
0.00192007
0.00387707
0.00769521
0.0150038
0.0287185
0.0539237
0.0992448
0.178879
0.315434
0.543617
0.914554
1.5001
2.39594
3.72152
5.61484
8.22028
11.6695
16.0581
21.4237
27.7317
34.8732
42.6773
50.9448
59.4948
68.1884
76.9314
85.6647
94.3526
102.974
111.517
119.973
128.338
136.609
144.785
152.864
160.846
168.73
176.516
184.203
191.791
199.279
206.668
213.956
221.143
228.229
235.213
242.094
248.874
255.55
262.123
268.592
274.959
281.221
287.379
293.434
299.386
305.233
310.978
316.619
322.158
327.595
332.929
338.163
343.295
348.328
353.26
358.094
362.829
367.467
372.008
376.453
380.802
385.056
389.217
393.284
397.26
401.141
404.94
408.631
412.268
415.757
419.247
422.543
425.846
429.039
432.054
435.208
438.001
440.9
443.766
446.278
448.994
451.611
453.87
456.333
458.781
460.819
462.943
465.244
467.18
468.92
470.929
472.892
474.437
475.954
477.748
479.411
480.665
481.904
483.423
484.878
485.926
486.835
488.001
489.287
490.259
490.894
491.601
492.593
493.572
494.169
494.494
494.97
495.725
496.435
496.796
496.897
497.062
497.486
498.04
498.368
498.291
498.104
498.208
498.628
498.951
498.916
498.7
498.397
498.465
498.78
498.903
498.875
498.756
498.597
498.472
498.523
498.592
498.607
498.629
498.544
498.478
498.462
498.418
498.453
498.525
498.544
498.467
498.325
498.392
498.316
498.26
498.35
498.359
498.295
498.111
498.168
498.255
498.217
498.118
498.118
498.165
498.13
498.026
498.092
498.09
498.022
497.885
497.81
497.899
497.849
497.772
497.733
497.739
497.722
497.59
497.468
497.485
497.463
497.414
497.367
497.292
497.193
497.088
497.021
496.936
496.83
496.648
496.552
496.521
496.431
496.275
496.099
495.888
495.554
495.297
495.053
494.819
494.803
494.66
494.522
494.426
494.044
493.823
490.391
485.231
456.477
424.473
396.675
374.295
357.047
344.11
334.607
327.707
322.924
319.77
317.692
316.281
315.363
314.819
314.505
314.293
314.206
314.187
314.169
314.17
314.18
314.22
314.264
314.282
314.296
314.323
314.328
314.349
314.36
314.362
314.382
314.385
314.382
314.394
314.392
314.385
314.39
314.388
314.381
314.383
314.387
314.388
314.391
314.405
314.42
314.401
314.407
314.422
314.44
314.455
314.416
314.472
314.445
314.383
314.417
314.275
314.221
314.281
314.025
314.175
314.104
313.925
314.275
313.94
313.436
314.046
312.279
312.412
312.488
309.96
311.568
310.673
307.551
312.104
304.382
305.392
308.83
277.369
317.694
211.337
56.1814
10.6705
1.50404
0.200048
0.0265942
0.00354481
0.000472829
6.30424e-05
8.39946e-06
1.11846e-06
1.48883e-07
1.9817e-08
2.63822e-09
3.51626e-10
4.70592e-11
6.37357e-12
9.73444e-13
3.83693e-13
2.4869e-13
1.1724e-13
2.02505e-13
1.24345e-13
6.75016e-14
1.7053e-13
4.22773e-13
7.74492e-13
7.67386e-13
7.88702e-13
9.80549e-13
1.12266e-12
1.10134e-12
1.25411e-12
1.12621e-12
1.21148e-12
1.18305e-12
1.28964e-12
1.28608e-12
1.1795e-12
1.15108e-12
1.27542e-12
1.19016e-12
1.1795e-12
1.2399e-12
1.21148e-12
1.07647e-12
1.20792e-12
9.45022e-13
9.45022e-13
7.31859e-13
8.2423e-13
8.98837e-13
1.19371e-12
1.15463e-12
1.14397e-12
1.02673e-12
1.00187e-12
7.8515e-13
3.90799e-13
2.0961e-13
0
1.77636e-14
-4.26326e-14
-1.59872e-13
-2.62901e-13
-1.13687e-13
6.75016e-14
2.13163e-13
4.44089e-13
6.53699e-13
6.71463e-13
5.96856e-13
4.61853e-13
5.15143e-13
5.43565e-13
4.22773e-13
3.30402e-13
3.58824e-13
5.71987e-13
6.92779e-13
4.9738e-13
6.43041e-13
4.36984e-13
1.03029e-13
6.75016e-14
2.13163e-14
2.84217e-14
1.27898e-13
2.23821e-13
1.88294e-13
1.06581e-14
3.19744e-14
2.66454e-13
4.26326e-13
2.4869e-13
-3.19744e-14
-8.17124e-14
4.9738e-14
1.38556e-13
1.06581e-13
1.38556e-13
1.77636e-13
1.27898e-13
-1.77636e-14
-2.16716e-13
-1.1724e-13
-1.77636e-14
-7.4607e-14
-1.77636e-13
-2.59348e-13
-3.33955e-13
-3.73035e-13
-2.0961e-13
-3.16192e-13
-3.83693e-13
-2.38032e-13
-1.03029e-13
-1.45661e-13
-5.68434e-14
-1.38556e-13
-1.77636e-13
-3.23297e-13
-2.38032e-13
-1.03029e-13
1.3145e-13
9.23706e-14
1.38556e-13
1.13687e-13
1.74083e-13
8.88178e-14
-8.17124e-14
-2.20268e-13
-2.45137e-13
-2.23821e-13
-1.20792e-13
-2.13163e-14
9.23706e-14
2.4869e-14
-9.59233e-14
-3.97904e-13
-3.73035e-13
-3.87246e-13
-2.20268e-13
-9.59233e-14
-1.56319e-13
-3.16192e-13
-3.6593e-13
-4.54747e-13
-2.8777e-13
-3.48166e-13
-1.98952e-13
-1.56319e-13
-2.38032e-13
-2.70006e-13
-2.84217e-13
-5.08038e-13
-5.22249e-13
-3.05533e-13
-6.75016e-14
-3.19744e-14
-2.4869e-14
4.9738e-14
1.52767e-13
-5.32907e-14
-1.24345e-13
-2.30926e-13
-2.41585e-13
-2.52243e-13
-3.12639e-13
-4.08562e-13
-4.01457e-13
-3.30402e-13
-3.16192e-13
-1.7053e-13
-2.70006e-13
-2.41585e-13
-3.51719e-13
-4.9738e-13
-4.29878e-13
-3.58824e-13
-3.90799e-13
-3.37508e-13
-2.59348e-13
-2.38032e-13
-3.90799e-13
-3.90799e-13
-5.25802e-13
-6.00409e-13
-6.53699e-13
-6.89226e-13
-5.79092e-13
-3.94351e-13
-2.70006e-13
-9.59233e-14
6.39488e-14
1.06581e-13
-3.55271e-15
-9.59233e-14
-3.97904e-13
-4.44089e-13
-6.25278e-13
-5.86198e-13
-5.7554e-13
-3.16192e-13
-1.98952e-13
-5.32907e-14
1.06581e-13
2.30926e-13
1.81188e-13
8.88178e-14
-4.26326e-14
-2.8777e-13
-3.23297e-13
-2.98428e-13
-5.11591e-13
-6.07514e-13
-4.90274e-13
-6.35936e-13
-5.18696e-13
-5.82645e-13
-4.583e-13
-1.74083e-13
-8.88178e-14
4.9738e-14
-1.77636e-14
-4.26326e-14
-2.4869e-14
-4.9738e-14
-8.88178e-14
-2.27374e-13
-4.68958e-13
-6.07514e-13
-4.44089e-13
-4.86722e-13
-5.3646e-13
-6.03961e-13
-6.00409e-13
-5.61329e-13
-5.82645e-13
-3.2685e-13
-2.34479e-13
4.61853e-14
1.38556e-13
1.59872e-13
2.0961e-13
2.70006e-13
1.7053e-13
-7.81597e-14
-2.13163e-13
-2.45137e-13
-2.70006e-13
-2.55795e-13
-2.66454e-13
-6.39488e-14
6.75016e-14
1.63425e-13
2.16716e-13
2.84217e-13
1.77636e-13
4.61853e-14
-3.90799e-14
9.9476e-14
1.20792e-13
3.19744e-14
2.91323e-13
3.83693e-13
3.51719e-13
3.6593e-13
2.94875e-13
3.97904e-13
6.00409e-13
5.22249e-13
5.61329e-13
6.71463e-13
3.97904e-13
4.90274e-13
5.00933e-13
6.21725e-13
7.78044e-13
6.96332e-13
7.42517e-13
3.94351e-13
1.98952e-13
2.0961e-13
4.9738e-14
1.06581e-14
9.9476e-14
2.8777e-13
2.77112e-13
3.90799e-13
4.93827e-13
4.40536e-13
2.52243e-13
2.4869e-14
-7.81597e-14
0
2.52243e-13
4.1922e-13
5.43565e-13
5.61329e-13
4.44089e-13
3.55271e-13
1.77636e-13
1.06581e-14
-2.13163e-14
-8.52651e-14
-9.59233e-14
-3.55271e-14
3.55271e-15
-2.84217e-14
1.10134e-13
1.45661e-13
1.7053e-13
7.10543e-14
8.52651e-14
1.7053e-13
9.23706e-14
-3.55271e-15
-1.38556e-13
-3.55271e-15
8.17124e-14
1.06581e-14
1.27898e-13
2.38032e-13
1.7053e-13
-4.26326e-14
-7.10543e-15
1.42109e-13
2.27374e-13
2.8777e-13
1.7053e-13
1.63425e-13
4.9738e-14
1.03029e-13
4.26326e-14
2.13163e-14
-1.06581e-14
)
;

boundaryField
{
    sides
    {
        type            calculated;
        value           nonuniform List<scalar> 2(4.36557e-14 2.38651e-12);
    }
    empty
    {
        type            empty;
        value           nonuniform List<scalar> 0();
    }
}


// ************************************************************************* //
