/*--------------------------------*- C++ -*----------------------------------*\
  =========                 |
  \\      /  F ield         | OpenFOAM: The Open Source CFD Toolbox
   \\    /   O peration     | Website:  https://openfoam.org
    \\  /    A nd           | Version:  9
     \\/     M anipulation  |
\*---------------------------------------------------------------------------*/
FoamFile
{
    format      ascii;
    class       volScalarField;
    location    "0.04";
    object      mag(U);
}
// * * * * * * * * * * * * * * * * * * * * * * * * * * * * * * * * * * * * * //

dimensions      [0 1 -1 0 0 0 0];

internalField   nonuniform List<scalar> 
10000
(
5.92857
5.96431
6.00539
6.03922
6.06949
6.0998
6.13082
6.16211
6.19337
6.22456
6.25573
6.28691
6.31809
6.34928
6.38046
6.41165
6.44283
6.47402
6.5052
6.53639
6.56757
6.59876
6.62995
6.66113
6.69232
6.7235
6.75469
6.78588
6.81706
6.84825
6.87944
6.91062
6.94181
6.973
7.00419
7.03537
7.06656
7.09775
7.12894
7.16013
7.19131
7.2225
7.25369
7.28488
7.31607
7.34726
7.37845
7.40964
7.44083
7.47202
7.50321
7.5344
7.56559
7.59678
7.62797
7.65916
7.69035
7.72154
7.75273
7.78392
7.81511
7.8463
7.87749
7.90869
7.93988
7.97107
8.00226
8.03345
8.06465
8.09584
8.12703
8.15823
8.18942
8.22061
8.2518
8.283
8.31419
8.34538
8.37658
8.40777
8.43897
8.47016
8.50136
8.53255
8.56374
8.59494
8.62613
8.65733
8.68852
8.71972
8.75091
8.78211
8.81331
8.8445
8.8757
8.9069
8.93809
8.96929
9.00048
9.03168
9.06288
9.09407
9.12527
9.15647
9.18767
9.21886
9.25006
9.28126
9.31246
9.34366
9.37485
9.40605
9.43725
9.46845
9.49965
9.53085
9.56205
9.59325
9.62444
9.65564
9.68684
9.71804
9.74924
9.78044
9.81164
9.84284
9.87404
9.90524
9.93645
9.96765
9.99885
10.0301
10.0613
10.0925
10.1237
10.1549
10.1861
10.2173
10.2485
10.2797
10.3109
10.3421
10.3733
10.4045
10.4357
10.4669
10.4981
10.5293
10.5605
10.5917
10.6229
10.6541
10.6853
10.7165
10.7477
10.7789
10.8101
10.8413
10.8725
10.9037
10.935
10.9662
10.9974
11.0286
11.0598
11.091
11.1222
11.1534
11.1846
11.2158
11.247
11.2782
11.3094
11.3406
11.3718
11.403
11.4342
11.4655
11.4967
11.5279
11.5591
11.5903
11.6215
11.6527
11.6839
11.7151
11.7463
11.7775
11.8087
11.84
11.8712
11.9024
11.9336
11.9648
11.996
12.0272
12.0584
12.0896
12.1208
12.1521
12.1833
12.2145
12.2457
12.2769
12.3081
12.3393
12.3705
12.4017
12.4329
12.4642
12.4954
12.5266
12.5578
12.589
12.6202
12.6514
12.6826
12.7139
12.7451
12.7763
12.8075
12.8387
12.8699
12.9011
12.9323
12.9636
12.9948
13.026
13.0572
13.0884
13.1196
13.1508
13.1821
13.2133
13.2445
13.2757
13.3069
13.3381
13.3694
13.4006
13.4318
13.463
13.4942
13.5254
13.5566
13.5879
13.6191
13.6503
13.6815
13.7127
13.7439
13.7752
13.8064
13.8376
13.8688
13.9
13.9312
13.9625
13.9937
14.0249
14.0561
14.0873
14.1186
14.1498
14.181
14.2122
14.2434
14.2746
14.3059
14.3371
14.3683
14.3995
14.4307
14.462
14.4932
14.5244
14.5556
14.5868
14.6181
14.6493
14.6805
14.7117
14.7429
14.7742
14.8054
14.8366
14.8678
14.8991
14.9303
14.9615
14.9927
15.0239
15.0552
15.0864
15.1176
15.1488
15.1801
15.2113
15.2425
15.2737
15.3049
15.3362
15.3674
15.3986
15.4298
15.4611
15.4923
15.5235
15.5547
15.586
15.6172
15.6484
15.6796
15.7109
15.7421
15.7733
15.8045
15.8358
15.867
15.8982
15.9294
15.9607
15.9919
16.0231
16.0543
16.0856
16.1168
16.148
16.1792
16.2105
16.2417
16.2729
16.3041
16.3354
16.3666
16.3978
16.429
16.4603
16.4915
16.5227
16.554
16.5852
16.6164
16.6476
16.6789
16.7101
16.7413
16.7726
16.8038
16.835
16.8662
16.8975
16.9287
16.9599
16.9912
17.0224
17.0536
17.0848
17.1161
17.1473
17.1785
17.2098
17.241
17.2722
17.3035
17.3347
17.3659
17.3972
17.4284
17.4596
17.4908
17.5221
17.5533
17.5845
17.6158
17.647
17.6782
17.7095
17.7407
17.7719
17.8032
17.8344
17.8656
17.8969
17.9281
17.9593
17.9906
18.0218
18.053
18.0843
18.1155
18.1467
18.178
18.2092
18.2404
18.2717
18.3029
18.3341
18.3654
18.3966
18.4278
18.4591
18.4903
18.5215
18.5528
18.584
18.6152
18.6465
18.6777
18.7089
18.7402
18.7714
18.8027
18.8339
18.8651
18.8964
18.9276
18.9588
18.9901
19.0213
19.0525
19.0838
19.115
19.1463
19.1775
19.2087
19.24
19.2712
19.3024
19.3337
19.3649
19.3962
19.4274
19.4586
19.4899
19.5211
19.5523
19.5836
19.6148
19.6461
19.6773
19.7085
19.7398
19.771
19.8023
19.8335
19.8647
19.896
19.9272
19.9585
19.9897
20.0209
20.0522
20.0834
20.1147
20.1459
20.1771
20.2084
20.2396
20.2709
20.3021
20.3333
20.3646
20.3958
20.4271
20.4583
20.4896
20.5208
20.552
20.5833
20.6145
20.6458
20.677
20.7082
20.7395
20.7707
20.802
20.8332
20.8645
20.8957
20.9269
20.9582
20.9894
21.0207
21.0519
21.0832
21.1144
21.1456
21.1769
21.2081
21.2394
21.2706
21.3019
21.3331
21.3644
21.3956
21.4268
21.4581
21.4893
21.5206
21.5518
21.5831
21.6143
21.6456
21.6768
21.7081
21.7393
21.7705
21.8018
21.833
21.8643
21.8955
21.9268
21.958
21.9893
22.0205
22.0518
22.083
22.1143
22.1455
22.1767
22.208
22.2392
22.2705
22.3017
22.333
22.3642
22.3955
22.4267
22.458
22.4892
22.5205
22.5517
22.583
22.6142
22.6455
22.6767
22.708
22.7392
22.7705
22.8017
22.833
22.8642
22.8955
22.9267
22.958
22.9892
23.0205
23.0517
23.083
23.1142
23.1455
23.1767
23.208
23.2392
23.2705
23.3017
23.333
23.3642
23.3955
23.4267
23.458
23.4892
23.5205
23.5517
23.583
23.6142
23.6455
23.6767
23.708
23.7392
23.7705
23.8017
23.833
23.8642
23.8955
23.9267
23.958
23.9892
24.0205
24.0517
24.083
24.1142
24.1455
24.1768
24.208
24.2393
24.2705
24.3018
24.333
24.3643
24.3955
24.4268
24.458
24.4893
24.5205
24.5518
24.583
24.6143
24.6456
24.6768
24.7081
24.7393
24.7706
24.8018
24.8331
24.8643
24.8956
24.9268
24.9581
24.9894
25.0206
25.0519
25.0831
25.1144
25.1456
25.1769
25.2081
25.2394
25.2707
25.3019
25.3332
25.3644
25.3957
25.4269
25.4582
25.4894
25.5207
25.552
25.5832
25.6145
25.6457
25.677
25.7082
25.7395
25.7708
25.802
25.8333
25.8645
25.8958
25.927
25.9583
25.9896
26.0208
26.0521
26.0833
26.1146
26.1459
26.1771
26.2084
26.2396
26.2709
26.3021
26.3334
26.3647
26.3959
26.4272
26.4584
26.4897
26.521
26.5522
26.5835
26.6147
26.646
26.6773
26.7085
26.7398
26.771
26.8023
26.8336
26.8648
26.8961
26.9273
26.9586
26.9899
27.0211
27.0524
27.0836
27.1149
27.1462
27.1774
27.2087
27.2399
27.2712
27.3025
27.3337
27.365
27.3962
27.4275
27.4588
27.49
27.5213
27.5525
27.5838
27.6151
27.6463
27.6776
27.7089
27.7401
27.7714
27.8026
27.8339
27.8652
27.8964
27.9277
27.959
27.9902
28.0215
28.0527
28.084
28.1153
28.1465
28.1778
28.2091
28.2403
28.2716
28.3028
28.3341
28.3654
28.3966
28.4279
28.4592
28.4904
28.5217
28.553
28.5842
28.6155
28.6467
28.678
28.7093
28.7405
28.7718
28.8031
28.8343
28.8656
28.8969
28.9281
28.9594
28.9906
29.0219
29.0532
29.0844
29.1157
29.147
29.1782
29.2095
29.2408
29.272
29.3033
29.3346
29.3658
29.3971
29.4284
29.4596
29.4909
29.5222
29.5534
29.5847
29.616
29.6472
29.6785
29.7098
29.741
29.7723
29.8035
29.8348
29.8661
29.8973
29.9286
29.9599
29.9911
30.0224
30.0537
30.0849
30.1162
30.1475
30.1787
30.21
30.2413
30.2725
30.3038
30.3351
30.3663
30.3976
30.4289
30.4602
30.4914
30.5227
30.554
30.5852
30.6165
30.6478
30.679
30.7103
30.7416
30.7728
30.8041
30.8354
30.8666
30.8979
30.9292
30.9604
30.9917
31.023
31.0542
31.0855
31.1168
31.148
31.1793
31.2106
31.2419
31.2731
31.3044
31.3357
31.3669
31.3982
31.4295
31.4607
31.492
31.5233
31.5545
31.5858
31.6171
31.6483
31.6796
31.7109
31.7422
31.7734
31.8047
31.836
31.8672
31.8985
31.9298
31.961
31.9923
32.0236
32.0548
32.0861
32.1174
32.1487
32.1799
32.2112
32.2425
32.2737
32.305
32.3363
32.3675
32.3988
32.4301
32.4614
32.4926
32.5239
32.5552
32.5864
32.6177
32.649
32.6803
32.7115
32.7428
32.7741
32.8053
32.8366
32.8679
32.8991
32.9304
32.9617
32.993
33.0242
33.0555
33.0868
33.118
33.1493
33.1806
33.2119
33.2431
33.2744
33.3057
33.3369
33.3682
33.3995
33.4308
33.462
33.4933
33.5246
33.5558
33.5871
33.6184
33.6497
33.6809
33.7122
33.7435
33.7747
33.806
33.8373
33.8686
33.8998
33.9311
33.9624
33.9936
34.0249
34.0562
34.0875
34.1187
34.15
34.1813
34.2126
34.2438
34.2751
34.3064
34.3376
34.3689
34.4002
34.4315
34.4627
34.494
34.5253
34.5565
34.5878
34.6191
34.6504
34.6816
34.7129
34.7442
34.7755
34.8067
34.838
34.8693
34.9005
34.9318
34.9631
34.9944
35.0256
35.0569
35.0882
35.1195
35.1507
35.182
35.2133
35.2445
35.2758
35.3071
35.3384
35.3696
35.4009
35.4322
35.4635
35.4947
35.526
35.5573
35.5885
35.6198
35.6511
35.6824
35.7136
35.7449
35.7762
35.8075
35.8387
35.87
35.9013
35.9326
35.9638
35.9951
36.0264
36.0576
36.0889
36.1202
36.1515
36.1827
36.214
36.2453
36.2766
36.3078
36.3391
36.3704
36.4016
36.4329
36.4642
36.4955
36.5267
36.558
36.5893
36.6206
36.6518
36.6831
36.7144
36.7457
36.7769
36.8082
36.8395
36.8707
36.902
36.9333
36.9646
36.9958
37.0271
37.0584
37.0897
37.1209
37.1522
37.1835
37.2148
37.246
37.2773
37.3086
37.3398
37.3711
37.4024
37.4337
37.4649
37.4962
37.5275
37.5588
37.59
37.6213
37.6526
37.6839
37.7151
37.7464
37.7777
37.8089
37.8402
37.8715
37.9028
37.934
37.9653
37.9966
38.0279
38.0591
38.0904
38.1217
38.153
38.1842
38.2155
38.2468
38.278
38.3093
38.3406
38.3719
38.4031
38.4344
38.4657
38.497
38.5282
38.5595
38.5908
38.622
38.6533
38.6846
38.7159
38.7471
38.7784
38.8097
38.841
38.8722
38.9035
38.9348
38.966
38.9973
39.0286
39.0599
39.0911
39.1224
39.1537
39.185
39.2162
39.2475
39.2788
39.31
39.3413
39.3726
39.4039
39.4351
39.4664
39.4977
39.5289
39.5602
39.5915
39.6228
39.654
39.6853
39.7166
39.7479
39.7791
39.8104
39.8417
39.8729
39.9042
39.9355
39.9668
39.998
40.0293
40.0606
40.0918
40.1231
40.1544
40.1857
40.2169
40.2482
40.2795
40.3107
40.342
40.3733
40.4046
40.4358
40.4671
40.4984
40.5296
40.5609
40.5922
40.6235
40.6547
40.686
40.7173
40.7485
40.7798
40.8111
40.8423
40.8736
40.9049
40.9362
40.9674
40.9987
41.03
41.0612
41.0925
41.1238
41.155
41.1863
41.2176
41.2489
41.2801
41.3114
41.3427
41.3739
41.4052
41.4365
41.4677
41.499
41.5303
41.5616
41.5928
41.6241
41.6554
41.6866
41.7179
41.7492
41.7804
41.8117
41.843
41.8742
41.9055
41.9368
41.968
41.9993
42.0306
42.0619
42.0931
42.1244
42.1557
42.1869
42.2182
42.2495
42.2807
42.312
42.3433
42.3745
42.4058
42.4371
42.4683
42.4996
42.5309
42.5621
42.5934
42.6247
42.6559
42.6872
42.7185
42.7497
42.781
42.8123
42.8435
42.8748
42.9061
42.9373
42.9686
42.9999
43.0311
43.0624
43.0937
43.1249
43.1562
43.1875
43.2187
43.25
43.2813
43.3125
43.3438
43.3751
43.4063
43.4376
43.4689
43.5001
43.5314
43.5626
43.5939
43.6252
43.6564
43.6877
43.719
43.7502
43.7815
43.8128
43.844
43.8753
43.9066
43.9378
43.9691
44.0003
44.0316
44.0629
44.0941
44.1254
44.1567
44.1879
44.2192
44.2504
44.2817
44.313
44.3442
44.3755
44.4068
44.438
44.4693
44.5005
44.5318
44.5631
44.5943
44.6256
44.6568
44.6881
44.7194
44.7506
44.7819
44.8131
44.8444
44.8757
44.9069
44.9382
44.9694
45.0007
45.032
45.0632
45.0945
45.1257
45.157
45.1883
45.2195
45.2508
45.282
45.3133
45.3446
45.3758
45.4071
45.4383
45.4696
45.5008
45.5321
45.5634
45.5946
45.6259
45.6571
45.6884
45.7196
45.7509
45.7822
45.8134
45.8447
45.8759
45.9072
45.9384
45.9697
46.0009
46.0322
46.0635
46.0947
46.126
46.1572
46.1885
46.2197
46.251
46.2822
46.3135
46.3448
46.376
46.4073
46.4385
46.4698
46.501
46.5323
46.5635
46.5948
46.626
46.6573
46.6885
46.7198
46.751
46.7823
46.8135
46.8448
46.876
46.9073
46.9385
46.9698
47.001
47.0323
47.0635
47.0948
47.126
47.1573
47.1885
47.2198
47.251
47.2823
47.3135
47.3448
47.376
47.4073
47.4385
47.4698
47.501
47.5323
47.5635
47.5948
47.626
47.6573
47.6885
47.7198
47.751
47.7823
47.8135
47.8447
47.876
47.9072
47.9385
47.9697
48.001
48.0322
48.0635
48.0947
48.1259
48.1572
48.1884
48.2197
48.2509
48.2822
48.3134
48.3447
48.3759
48.4071
48.4384
48.4696
48.5009
48.5321
48.5633
48.5946
48.6258
48.6571
48.6883
48.7195
48.7508
48.782
48.8133
48.8445
48.8757
48.907
48.9382
48.9695
49.0007
49.0319
49.0632
49.0944
49.1256
49.1569
49.1881
49.2194
49.2506
49.2818
49.3131
49.3443
49.3755
49.4068
49.438
49.4692
49.5005
49.5317
49.5629
49.5942
49.6254
49.6566
49.6879
49.7191
49.7503
49.7816
49.8128
49.844
49.8753
49.9065
49.9377
49.969
50.0002
50.0314
50.0626
50.0939
50.1251
50.1563
50.1876
50.2188
50.25
50.2813
50.3125
50.3437
50.3749
50.4062
50.4374
50.4686
50.4998
50.5311
50.5623
50.5935
50.6247
50.656
50.6872
50.7184
50.7496
50.7809
50.8121
50.8433
50.8745
50.9058
50.937
50.9682
50.9994
51.0306
51.0619
51.0931
51.1243
51.1555
51.1867
51.218
51.2492
51.2804
51.3116
51.3428
51.374
51.4053
51.4365
51.4677
51.4989
51.5301
51.5613
51.5926
51.6238
51.655
51.6862
51.7174
51.7486
51.7799
51.8111
51.8423
51.8735
51.9047
51.9359
51.9671
51.9983
52.0295
52.0608
52.092
52.1232
52.1544
52.1856
52.2168
52.248
52.2792
52.3104
52.3416
52.3728
52.4041
52.4353
52.4665
52.4977
52.5289
52.5601
52.5913
52.6225
52.6537
52.6849
52.7161
52.7473
52.7785
52.8097
52.8409
52.8721
52.9033
52.9345
52.9657
52.9969
53.0281
53.0593
53.0905
53.1217
53.1529
53.1841
53.2153
53.2465
53.2777
53.3089
53.3401
53.3713
53.4025
53.4337
53.4649
53.496
53.5272
53.5584
53.5896
53.6208
53.652
53.6832
53.7144
53.7456
53.7768
53.808
53.8391
53.8703
53.9015
53.9327
53.9639
53.9951
54.0263
54.0575
54.0886
54.1198
54.151
54.1822
54.2134
54.2446
54.2757
54.3069
54.3381
54.3693
54.4005
54.4316
54.4628
54.494
54.5252
54.5564
54.5875
54.6187
54.6499
54.6811
54.7122
54.7434
54.7746
54.8058
54.8369
54.8681
54.8993
54.9305
54.9616
54.9928
55.024
55.0551
55.0863
55.1175
55.1486
55.1798
55.211
55.2421
55.2733
55.3045
55.3356
55.3668
55.398
55.4291
55.4603
55.4915
55.5226
55.5538
55.5849
55.6161
55.6473
55.6784
55.7096
55.7407
55.7719
55.8031
55.8342
55.8654
55.8965
55.9277
55.9588
55.99
56.0211
56.0523
56.0835
56.1146
56.1458
56.1769
56.2081
56.2392
56.2704
56.3015
56.3326
56.3638
56.3949
56.4261
56.4572
56.4884
56.5195
56.5507
56.5818
56.6129
56.6441
56.6752
56.7064
56.7375
56.7686
56.7998
56.8309
56.8621
56.8932
56.9243
56.9555
56.9866
57.0177
57.0489
57.08
57.1111
57.1423
57.1734
57.2045
57.2356
57.2668
57.2979
57.329
57.3602
57.3913
57.4224
57.4535
57.4847
57.5158
57.5469
57.578
57.6091
57.6403
57.6714
57.7025
57.7336
57.7647
57.7958
57.827
57.8581
57.8892
57.9203
57.9514
57.9825
58.0136
58.0447
58.0759
58.107
58.1381
58.1692
58.2003
58.2314
58.2625
58.2936
58.3247
58.3558
58.3869
58.418
58.4491
58.4802
58.5113
58.5424
58.5735
58.6046
58.6357
58.6668
58.6979
58.729
58.7601
58.7912
58.8222
58.8533
58.8844
58.9155
58.9466
58.9777
59.0088
59.0399
59.0709
59.102
59.1331
59.1642
59.1953
59.2263
59.2574
59.2885
59.3196
59.3506
59.3817
59.4128
59.4439
59.4749
59.506
59.5371
59.5681
59.5992
59.6303
59.6614
59.6924
59.7235
59.7545
59.7856
59.8167
59.8477
59.8788
59.9098
59.9409
59.972
60.003
60.0341
60.0651
60.0962
60.1272
60.1583
60.1893
60.2204
60.2514
60.2825
60.3135
60.3446
60.3756
60.4066
60.4377
60.4687
60.4998
60.5308
60.5618
60.5929
60.6239
60.6549
60.686
60.717
60.748
60.7791
60.8101
60.8411
60.8722
60.9032
60.9342
60.9652
60.9962
61.0273
61.0583
61.0893
61.1203
61.1513
61.1824
61.2134
61.2444
61.2754
61.3064
61.3374
61.3684
61.3994
61.4304
61.4614
61.4924
61.5234
61.5544
61.5854
61.6164
61.6474
61.6784
61.7094
61.7404
61.7714
61.8024
61.8334
61.8644
61.8954
61.9264
61.9573
61.9883
62.0193
62.0503
62.0813
62.1122
62.1432
62.1742
62.2052
62.2361
62.2671
62.2981
62.329
62.36
62.391
62.4219
62.4529
62.4839
62.5148
62.5458
62.5767
62.6077
62.6387
62.6696
62.7006
62.7315
62.7625
62.7934
62.8243
62.8553
62.8862
62.9172
62.9481
62.9791
63.01
63.0409
63.0719
63.1028
63.1337
63.1647
63.1956
63.2265
63.2574
63.2884
63.3193
63.3502
63.3811
63.412
63.4429
63.4739
63.5048
63.5357
63.5666
63.5975
63.6284
63.6593
63.6902
63.7211
63.752
63.7829
63.8138
63.8447
63.8756
63.9065
63.9374
63.9682
63.9991
64.03
64.0609
64.0918
64.1227
64.1535
64.1844
64.2153
64.2461
64.277
64.3079
64.3387
64.3696
64.4005
64.4313
64.4622
64.493
64.5239
64.5548
64.5856
64.6165
64.6473
64.6781
64.709
64.7398
64.7707
64.8015
64.8323
64.8632
64.894
64.9248
64.9557
64.9865
65.0173
65.0481
65.0789
65.1098
65.1406
65.1714
65.2022
65.233
65.2638
65.2946
65.3254
65.3562
65.387
65.4178
65.4486
65.4794
65.5102
65.541
65.5718
65.6025
65.6333
65.6641
65.6949
65.7256
65.7564
65.7872
65.818
65.8487
65.8795
65.9102
65.941
65.9718
66.0025
66.0333
66.064
66.0948
66.1255
66.1562
66.187
66.2177
66.2484
66.2792
66.3099
66.3406
66.3714
66.4021
66.4328
66.4635
66.4942
66.5249
66.5556
66.5863
66.617
66.6477
66.6784
66.7091
66.7398
66.7705
66.8012
66.8319
66.8626
66.8933
66.9239
66.9546
66.9853
67.0159
67.0466
67.0773
67.1079
67.1386
67.1692
67.1999
67.2305
67.2612
67.2918
67.3225
67.3531
67.3837
67.4144
67.445
67.4756
67.5062
67.5369
67.5675
67.5981
67.6287
67.6593
67.6899
67.7205
67.7511
67.7817
67.8123
67.8429
67.8735
67.904
67.9346
67.9652
67.9958
68.0263
68.0569
68.0875
68.118
68.1486
68.1791
68.2097
68.2402
68.2708
68.3013
68.3318
68.3624
68.3929
68.4234
68.4539
68.4845
68.515
68.5455
68.576
68.6065
68.637
68.6675
68.698
68.7285
68.7589
68.7894
68.8199
68.8504
68.8808
68.9113
68.9418
68.9722
69.0027
69.0331
69.0636
69.094
69.1245
69.1549
69.1853
69.2158
69.2462
69.2766
69.307
69.3374
69.3678
69.3982
69.4286
69.459
69.4894
69.5198
69.5502
69.5805
69.6109
69.6413
69.6717
69.702
69.7324
69.7627
69.7931
69.8234
69.8537
69.8841
69.9144
69.9447
69.975
70.0054
70.0357
70.066
70.0963
70.1266
70.1569
70.1871
70.2174
70.2477
70.278
70.3082
70.3385
70.3688
70.399
70.4293
70.4595
70.4897
70.52
70.5502
70.5804
70.6106
70.6408
70.6711
70.7013
70.7314
70.7616
70.7918
70.822
70.8522
70.8823
70.9125
70.9427
70.9728
71.003
71.0331
71.0632
71.0934
71.1235
71.1536
71.1837
71.2138
71.2439
71.274
71.3041
71.3342
71.3643
71.3944
71.4244
71.4545
71.4845
71.5146
71.5446
71.5747
71.6047
71.6347
71.6647
71.6947
71.7247
71.7547
71.7847
71.8147
71.8447
71.8747
71.9046
71.9346
71.9646
71.9945
72.0244
72.0544
72.0843
72.1142
72.1441
72.174
72.2039
72.2338
72.2637
72.2936
72.3234
72.3533
72.3832
72.413
72.4428
72.4727
72.5025
72.5323
72.5621
72.5919
72.6218
72.6515
72.6813
72.7111
72.7409
72.7706
72.8004
72.8301
72.8599
72.8896
72.9193
72.949
72.9787
73.0084
73.0381
73.0678
73.0975
73.1271
73.1568
73.1864
73.2161
73.2457
73.2753
73.3049
73.3345
73.3641
73.3937
73.4233
73.4529
73.4824
73.512
73.5415
73.571
73.6006
73.6301
73.6596
73.6891
73.7186
73.748
73.7775
73.807
73.8364
73.8658
73.8953
73.9247
73.9541
73.9835
74.0129
74.0423
74.0716
74.101
74.1304
74.1597
74.189
74.2183
74.2476
74.2769
74.3062
74.3355
74.3648
74.394
74.4233
74.4525
74.4817
74.5109
74.5401
74.5693
74.5985
74.6277
74.6568
74.686
74.7151
74.7442
74.7733
74.8024
74.8315
74.8606
74.8897
74.9187
74.9477
74.9768
75.0058
75.0348
75.0638
75.0928
75.1217
75.1507
75.1796
75.2085
75.2374
75.2663
75.2952
75.3241
75.353
75.3818
75.4107
75.4395
75.4683
75.4971
75.5259
75.5546
75.5834
75.6121
75.6408
75.6696
75.6983
75.7269
75.7556
75.7843
75.8129
75.8415
75.8701
75.8987
75.9273
75.9559
75.9844
76.013
76.0415
76.07
76.0985
76.127
76.1554
76.1839
76.2123
76.2407
76.2691
76.2975
76.3258
76.3542
76.3825
76.4108
76.4391
76.4674
76.4957
76.5239
76.5522
76.5804
76.6086
76.6367
76.6649
76.6931
76.7212
76.7493
76.7774
76.8055
76.8335
76.8615
76.8896
76.9176
76.9455
76.9735
77.0014
77.0294
77.0573
77.0852
77.113
77.1409
77.1687
77.1965
77.2243
77.2521
77.2798
77.3076
77.3353
77.363
77.3906
77.4183
77.4459
77.4735
77.5011
77.5287
77.5562
77.5837
77.6112
77.6387
77.6662
77.6936
77.721
77.7484
77.7758
77.8031
77.8305
77.8578
77.885
77.9123
77.9395
77.9667
77.9939
78.0211
78.0482
78.0754
78.1024
78.1295
78.1566
78.1836
78.2106
78.2375
78.2645
78.2914
78.3183
78.3452
78.372
78.3989
78.4256
78.4524
78.4792
78.5059
78.5326
78.5592
78.5859
78.6125
78.6391
78.6656
78.6922
78.7187
78.7451
78.7716
78.798
78.8244
78.8508
78.8771
78.9034
78.9297
78.956
78.9822
79.0084
79.0345
79.0607
79.0868
79.1129
79.1389
79.1649
79.1909
79.2169
79.2428
79.2687
79.2946
79.3204
79.3462
79.372
79.3977
79.4234
79.4491
79.4747
79.5003
79.5259
79.5515
79.577
79.6025
79.6279
79.6533
79.6787
79.7041
79.7294
79.7547
79.7799
79.8051
79.8303
79.8555
79.8806
79.9057
79.9307
79.9557
79.9807
80.0056
80.0305
80.0554
80.0802
80.105
80.1298
80.1545
80.1792
80.2038
80.2284
80.253
80.2775
80.302
80.3265
80.3509
80.3753
80.3997
80.424
80.4482
80.4725
80.4967
80.5208
80.5449
80.569
80.593
80.617
80.641
80.6649
80.6888
80.7126
80.7364
80.7602
80.7839
80.8076
80.8312
80.8548
80.8784
80.9019
80.9254
80.9488
80.9722
80.9955
81.0188
81.0421
81.0653
81.0885
81.1116
81.1347
81.1578
81.1808
81.2038
81.2267
81.2496
81.2724
81.2952
81.3179
81.3406
81.3633
81.3859
81.4085
81.431
81.4535
81.4759
81.4983
81.5207
81.543
81.5653
81.5875
81.6097
81.6318
81.6539
81.6759
81.6979
81.7198
81.7417
81.7636
81.7854
81.8072
81.8289
81.8506
81.8722
81.8938
81.9153
81.9368
81.9583
81.9797
82.001
82.0223
82.0436
82.0648
82.086
82.1071
82.1282
82.1492
82.1702
82.1911
82.212
82.2329
82.2537
82.2744
82.2951
82.3158
82.3364
82.357
82.3775
82.398
82.4184
82.4388
82.4591
82.4794
82.4997
82.5199
82.54
82.5601
82.5802
82.6002
82.6202
82.6401
82.66
82.6798
82.6996
82.7194
82.7391
82.7587
82.7783
82.7979
82.8174
82.8369
82.8563
82.8757
82.895
82.9143
82.9336
82.9528
82.972
82.9911
83.0102
83.0292
83.0482
83.0671
83.086
83.1049
83.1237
83.1425
83.1612
83.1799
83.1986
83.2172
83.2358
83.2543
83.2728
83.2912
83.3096
83.328
83.3463
83.3646
83.3829
83.4011
83.4192
83.4373
83.4554
83.4735
83.4915
83.5095
83.5274
83.5453
83.5631
83.581
83.5987
83.6165
83.6342
83.6519
83.6695
83.6871
83.7046
83.7222
83.7397
83.7571
83.7745
83.7919
83.8093
83.8266
83.8439
83.8611
83.8784
83.8955
83.9127
83.9298
83.9469
83.964
83.981
83.998
84.015
84.0319
84.0488
84.0657
84.0825
84.0993
84.1161
84.1329
84.1496
84.1663
84.183
84.1996
84.2162
84.2328
84.2494
84.2659
84.2824
84.2989
84.3154
84.3318
84.3482
84.3646
84.381
84.3973
84.4136
84.4299
84.4462
84.4624
84.4786
84.4948
84.511
84.5271
84.5433
84.5594
84.5755
84.5915
84.6076
84.6236
84.6396
84.6556
84.6716
84.6875
84.7035
84.7194
84.7353
84.7512
84.767
84.7829
84.7987
84.8145
84.8303
84.8461
84.8618
84.8776
84.8933
84.909
84.9247
84.9404
84.956
84.9717
84.9873
85.003
85.0186
85.0342
85.0498
85.0653
85.0809
85.0964
85.112
85.1275
85.143
85.1585
85.174
85.1895
85.2049
85.2204
85.2358
85.2513
85.2667
85.2821
85.2975
85.3129
85.3283
85.3436
85.359
85.3744
85.3897
85.4051
85.4204
85.4357
85.451
85.4663
85.4816
85.4969
85.5122
85.5275
85.5428
85.558
85.5733
85.5885
85.6038
85.619
85.6342
85.6495
85.6647
85.6799
85.6951
85.7103
85.7255
85.7407
85.7559
85.771
85.7862
85.8014
85.8166
85.8317
85.8469
85.862
85.8772
85.8923
85.9075
85.9226
85.9377
85.9529
85.968
85.9831
85.9982
86.0133
86.0285
86.0436
86.0587
86.0738
86.0889
86.104
86.1191
86.1342
86.1492
86.1643
86.1794
86.1945
86.2096
86.2246
86.2397
86.2548
86.2699
86.2849
86.3
86.3151
86.3301
86.3452
86.3602
86.3753
86.3903
86.4054
86.4205
86.4355
86.4506
86.4656
86.4806
86.4957
86.5107
86.5258
86.5408
86.5559
86.5709
86.5859
86.601
86.616
86.631
86.6461
86.6611
86.6761
86.6912
86.7062
86.7212
86.7363
86.7513
86.7663
86.7814
86.7964
86.8114
86.8264
86.8415
86.8565
86.8715
86.8865
86.9016
86.9166
86.9316
86.9466
86.9616
86.9767
86.9917
87.0067
87.0217
87.0368
87.0518
87.0668
87.0818
87.0968
87.1118
87.1269
87.1419
87.1569
87.1719
87.1869
87.202
87.217
87.232
87.247
87.262
87.2771
87.2921
87.3071
87.3221
87.3371
87.3521
87.3672
87.3822
87.3972
87.4122
87.4272
87.4423
87.4573
87.4723
87.4873
87.5023
87.5173
87.5324
87.5474
87.5624
87.5774
87.5924
87.6075
87.6225
87.6375
87.6525
87.6675
87.6826
87.6976
87.7126
87.7276
87.7426
87.7577
87.7727
87.7877
87.8027
87.8178
87.8328
87.8478
87.8628
87.8778
87.8929
87.9079
87.9229
87.9379
87.953
87.968
87.983
87.998
88.0131
88.0281
88.0431
88.0581
88.0732
88.0882
88.1032
88.1182
88.1333
88.1483
88.1633
88.1783
88.1934
88.2084
88.2234
88.2385
88.2535
88.2685
88.2835
88.2986
88.3136
88.3286
88.3437
88.3587
88.3737
88.3888
88.4038
88.4188
88.4338
88.4489
88.4639
88.4789
88.494
88.509
88.524
88.5391
88.5541
88.5691
88.5842
88.5992
88.6143
88.6293
88.6443
88.6594
88.6744
88.6894
88.7045
88.7195
88.7345
88.7496
88.7646
88.7797
88.7947
88.8097
88.8248
88.8398
88.8548
88.8699
88.8849
88.9
88.915
88.93
88.9451
88.9601
88.9752
88.9902
89.0053
89.0203
89.0353
89.0504
89.0654
89.0805
89.0955
89.1106
89.1256
89.1406
89.1557
89.1707
89.1858
89.2008
89.2159
89.2309
89.246
89.261
89.2761
89.2911
89.3062
89.3212
89.3363
89.3513
89.3664
89.3814
89.3965
89.4115
89.4265
89.4416
89.4567
89.4717
89.4868
89.5018
89.5169
89.5319
89.547
89.562
89.5771
89.5921
89.6072
89.6222
89.6373
89.6523
89.6674
89.6824
89.6975
89.7125
89.7276
89.7427
89.7577
89.7728
89.7878
89.8029
89.8179
89.833
89.8481
89.8631
89.8782
89.8932
89.9083
89.9233
89.9384
89.9535
89.9685
89.9836
89.9986
90.0137
90.0288
90.0438
90.0589
90.0739
90.089
90.1041
90.1191
90.1342
90.1493
90.1643
90.1794
90.1944
90.2095
90.2246
90.2396
90.2547
90.2698
90.2848
90.2999
90.315
90.33
90.3451
90.3602
90.3752
90.3903
90.4054
90.4204
90.4355
90.4506
90.4656
90.4807
90.4958
90.5108
90.5259
90.541
90.556
90.5711
90.5862
90.6013
90.6163
90.6314
90.6465
90.6615
90.6766
90.6917
90.7068
90.7218
90.7369
90.752
90.767
90.7821
90.7972
90.8123
90.8273
90.8424
90.8575
90.8726
90.8876
90.9027
90.9178
90.9329
90.9479
90.963
90.9781
90.9932
91.0083
91.0233
91.0384
91.0535
91.0686
91.0836
91.0987
91.1138
91.1289
91.144
91.159
91.1741
91.1892
91.2043
91.2194
91.2345
91.2495
91.2646
91.2797
91.2948
91.3099
91.3249
91.34
91.3551
91.3702
91.3853
91.4004
91.4155
91.4305
91.4456
91.4607
91.4758
91.4909
91.506
91.5211
91.5361
91.5512
91.5663
91.5814
91.5965
91.6116
91.6267
91.6418
91.6569
91.6719
91.687
91.7021
91.7172
91.7323
91.7474
91.7625
91.7776
91.7927
91.8078
91.8229
91.8379
91.853
91.8681
91.8832
91.8983
91.9134
91.9285
91.9436
91.9587
91.9738
91.9889
92.004
92.0191
92.0342
92.0493
92.0644
92.0795
92.0946
92.1097
92.1248
92.1399
92.155
92.1701
92.1852
92.2003
92.2154
92.2305
92.2456
92.2607
92.2758
92.2909
92.306
92.3211
92.3362
92.3513
92.3664
92.3815
92.3966
92.4117
92.4268
92.4419
92.457
92.4721
92.4872
92.5023
92.5174
92.5325
92.5476
92.5627
92.5778
92.5929
92.608
92.6231
92.6383
92.6534
92.6685
92.6836
92.6987
92.7138
92.7289
92.744
92.7591
92.7742
92.7893
92.8045
92.8196
92.8347
92.8498
92.8649
92.88
92.8951
92.9102
92.9254
92.9405
92.9556
92.9707
92.9858
93.0009
93.016
93.0311
93.0463
93.0614
93.0765
93.0916
93.1067
93.1218
93.137
93.1521
93.1672
93.1823
93.1974
93.2125
93.2277
93.2428
93.2579
93.273
93.2881
93.3033
93.3184
93.3335
93.3486
93.3637
93.3789
93.394
93.4091
93.4242
93.4393
93.4545
93.4696
93.4847
93.4998
93.515
93.5301
93.5452
93.5603
93.5755
93.5906
93.6057
93.6208
93.636
93.6511
93.6662
93.6813
93.6965
93.7116
93.7267
93.7419
93.757
93.7721
93.7872
93.8024
93.8175
93.8326
93.8478
93.8629
93.878
93.8931
93.9083
93.9234
93.9385
93.9537
93.9688
93.9839
93.9991
94.0142
94.0293
94.0445
94.0596
94.0747
94.0899
94.105
94.1201
94.1353
94.1504
94.1655
94.1807
94.1958
94.2109
94.2261
94.2412
94.2564
94.2715
94.2866
94.3018
94.3169
94.3321
94.3472
94.3623
94.3775
94.3926
94.4077
94.4229
94.438
94.4532
94.4683
94.4835
94.4986
94.5137
94.5289
94.544
94.5592
94.5743
94.5894
94.6046
94.6197
94.6349
94.65
94.6652
94.6803
94.6955
94.7106
94.7258
94.7409
94.756
94.7712
94.7863
94.8015
94.8166
94.8318
94.8469
94.8621
94.8772
94.8924
94.9075
94.9227
94.9378
94.953
94.9681
94.9833
94.9984
95.0136
95.0287
95.0439
95.059
95.0742
95.0893
95.1045
95.1196
95.1348
95.1499
95.1651
95.1803
95.1954
95.2106
95.2257
95.2409
95.256
95.2712
95.2863
95.3015
95.3167
95.3318
95.347
95.3621
95.3773
95.3924
95.4076
95.4228
95.4379
95.4531
95.4682
95.4834
95.4986
95.5137
95.5289
95.544
95.5592
95.5744
95.5895
95.6047
95.6198
95.635
95.6502
95.6653
95.6805
95.6957
95.7108
95.726
95.7412
95.7563
95.7715
95.7867
95.8018
95.817
95.8321
95.8473
95.8625
95.8776
95.8928
95.908
95.9232
95.9383
95.9535
95.9687
95.9838
95.999
96.0142
96.0293
96.0445
96.0597
96.0748
96.09
96.1052
96.1204
96.1355
96.1507
96.1659
96.181
96.1962
96.2114
96.2266
96.2417
96.2569
96.2721
96.2873
96.3024
96.3176
96.3328
96.348
96.3631
96.3783
96.3935
96.4087
96.4238
96.439
96.4542
96.4694
96.4846
96.4997
96.5149
96.5301
96.5453
96.5605
96.5756
96.5908
96.606
96.6212
96.6364
96.6515
96.6667
96.6819
96.6971
96.7123
96.7274
96.7426
96.7578
96.773
96.7882
96.8034
96.8185
96.8337
96.8489
96.8641
96.8793
96.8945
96.9097
96.9248
96.94
96.9552
96.9704
96.9856
97.0008
97.016
97.0312
97.0463
97.0615
97.0767
97.0919
97.1071
97.1223
97.1375
97.1527
97.1679
97.183
97.1982
97.2134
97.2286
97.2438
97.259
97.2742
97.2894
97.3046
97.3198
97.335
97.3502
97.3654
97.3806
97.3957
97.4109
97.4261
97.4413
97.4565
97.4717
97.4869
97.5021
97.5173
97.5325
97.5477
97.5629
97.5781
97.5933
97.6085
97.6237
97.6389
97.6541
97.6693
97.6845
97.6997
97.7149
97.7301
97.7453
97.7605
97.7757
97.7909
97.8061
97.8213
97.8365
97.8517
97.8669
97.8821
97.8973
97.9125
97.9277
97.9429
97.9581
97.9733
97.9886
98.0038
98.019
98.0342
98.0494
98.0646
98.0798
98.095
98.1102
98.1254
98.1406
98.1558
98.171
98.1862
98.2015
98.2167
98.2319
98.2471
98.2623
98.2775
98.2927
98.3079
98.3231
98.3384
98.3536
98.3688
98.384
98.3992
98.4144
98.4296
98.4448
98.4601
98.4753
98.4905
98.5057
98.5209
98.5361
98.5513
98.5666
98.5818
98.597
98.6122
98.6274
98.6426
98.6579
98.6731
98.6883
98.7035
98.7187
98.734
98.7492
98.7644
98.7796
98.7948
98.8101
98.8253
98.8405
98.8557
98.8709
98.8862
98.9014
98.9166
98.9318
98.9471
98.9623
98.9775
98.9927
99.0079
99.0232
99.0384
99.0536
99.0688
99.0841
99.0993
99.1145
99.1297
99.145
99.1602
99.1754
99.1907
99.2059
99.2211
99.2363
99.2516
99.2668
99.282
99.2972
99.3125
99.3277
99.3429
99.3582
99.3734
99.3886
99.4039
99.4191
99.4343
99.4496
99.4648
99.48
99.4952
99.5105
99.5257
99.5409
99.5562
99.5714
99.5866
99.6019
99.6171
99.6324
99.6476
99.6628
99.6781
99.6933
99.7085
99.7238
99.739
99.7542
99.7695
99.7847
99.8
99.8152
99.8304
99.8457
99.8609
99.8761
99.8914
99.9066
99.9219
99.9371
99.9523
99.9676
99.9828
99.9981
100.013
100.029
100.044
100.059
100.074
100.09
100.105
100.12
100.135
100.15
100.166
100.181
100.196
100.211
100.227
100.242
100.257
100.272
100.288
100.303
100.318
100.333
100.349
100.364
100.379
100.394
100.41
100.425
100.44
100.455
100.471
100.486
100.501
100.516
100.532
100.547
100.562
100.577
100.593
100.608
100.623
100.638
100.654
100.669
100.684
100.699
100.715
100.73
100.745
100.76
100.776
100.791
100.806
100.821
100.837
100.852
100.867
100.882
100.898
100.913
100.928
100.944
100.959
100.974
100.989
101.005
101.02