/*--------------------------------*- C++ -*----------------------------------*\
  =========                 |
  \\      /  F ield         | OpenFOAM: The Open Source CFD Toolbox
   \\    /   O peration     | Website:  https://openfoam.org
    \\  /    A nd           | Version:  9
     \\/     M anipulation  |
\*---------------------------------------------------------------------------*/
FoamFile
{
    format      ascii;
    class       volScalarField;
    location    "0.04";
    object      p;
}
// * * * * * * * * * * * * * * * * * * * * * * * * * * * * * * * * * * * * * //

dimensions      [1 -1 -2 0 0 0 0];

internalField   nonuniform List<scalar> 
10000
(
11253.3
11253.2
11253.1
11253.1
11253
11252.9
11252.8
11252.8
11252.7
11252.6
11252.6
11252.5
11252.4
11252.3
11252.3
11252.2
11252.1
11252.1
11252
11251.9
11251.8
11251.8
11251.7
11251.6
11251.6
11251.5
11251.4
11251.3
11251.3
11251.2
11251.1
11251.1
11251
11250.9
11250.8
11250.8
11250.7
11250.6
11250.6
11250.5
11250.4
11250.3
11250.3
11250.2
11250.1
11250
11250
11249.9
11249.8
11249.8
11249.7
11249.6
11249.5
11249.5
11249.4
11249.3
11249.3
11249.2
11249.1
11249
11249
11248.9
11248.8
11248.8
11248.7
11248.6
11248.5
11248.5
11248.4
11248.3
11248.3
11248.2
11248.1
11248
11248
11247.9
11247.8
11247.8
11247.7
11247.6
11247.5
11247.5
11247.4
11247.3
11247.2
11247.2
11247.1
11247
11247
11246.9
11246.8
11246.7
11246.7
11246.6
11246.5
11246.5
11246.4
11246.3
11246.2
11246.2
11246.1
11246
11246
11245.9
11245.8
11245.7
11245.7
11245.6
11245.5
11245.4
11245.4
11245.3
11245.2
11245.2
11245.1
11245
11244.9
11244.9
11244.8
11244.7
11244.7
11244.6
11244.5
11244.4
11244.4
11244.3
11244.2
11244.1
11244.1
11244
11243.9
11243.9
11243.8
11243.7
11243.6
11243.6
11243.5
11243.4
11243.4
11243.3
11243.2
11243.1
11243.1
11243
11242.9
11242.8
11242.8
11242.7
11242.6
11242.6
11242.5
11242.4
11242.3
11242.3
11242.2
11242.1
11242
11242
11241.9
11241.8
11241.8
11241.7
11241.6
11241.5
11241.5
11241.4
11241.3
11241.3
11241.2
11241.1
11241
11241
11240.9
11240.8
11240.7
11240.7
11240.6
11240.5
11240.5
11240.4
11240.3
11240.2
11240.2
11240.1
11240
11239.9
11239.9
11239.8
11239.7
11239.7
11239.6
11239.5
11239.4
11239.4
11239.3
11239.2
11239.1
11239.1
11239
11238.9
11238.9
11238.8
11238.7
11238.6
11238.6
11238.5
11238.4
11238.3
11238.3
11238.2
11238.1
11238.1
11238
11237.9
11237.8
11237.8
11237.7
11237.6
11237.5
11237.5
11237.4
11237.3
11237.2
11237.2
11237.1
11237
11237
11236.9
11236.8
11236.7
11236.7
11236.6
11236.5
11236.4
11236.4
11236.3
11236.2
11236.2
11236.1
11236
11235.9
11235.9
11235.8
11235.7
11235.6
11235.6
11235.5
11235.4
11235.3
11235.3
11235.2
11235.1
11235.1
11235
11234.9
11234.8
11234.8
11234.7
11234.6
11234.5
11234.5
11234.4
11234.3
11234.3
11234.2
11234.1
11234
11234
11233.9
11233.8
11233.7
11233.7
11233.6
11233.5
11233.4
11233.4
11233.3
11233.2
11233.2
11233.1
11233
11232.9
11232.9
11232.8
11232.7
11232.6
11232.6
11232.5
11232.4
11232.3
11232.3
11232.2
11232.1
11232
11232
11231.9
11231.8
11231.8
11231.7
11231.6
11231.5
11231.5
11231.4
11231.3
11231.2
11231.2
11231.1
11231
11230.9
11230.9
11230.8
11230.7
11230.7
11230.6
11230.5
11230.4
11230.4
11230.3
11230.2
11230.1
11230.1
11230
11229.9
11229.8
11229.8
11229.7
11229.6
11229.5
11229.5
11229.4
11229.3
11229.3
11229.2
11229.1
11229
11229
11228.9
11228.8
11228.7
11228.7
11228.6
11228.5
11228.4
11228.4
11228.3
11228.2
11228.1
11228.1
11228
11227.9
11227.8
11227.8
11227.7
11227.6
11227.6
11227.5
11227.4
11227.3
11227.3
11227.2
11227.1
11227
11227
11226.9
11226.8
11226.7
11226.7
11226.6
11226.5
11226.4
11226.4
11226.3
11226.2
11226.1
11226.1
11226
11225.9
11225.8
11225.8
11225.7
11225.6
11225.6
11225.5
11225.4
11225.3
11225.3
11225.2
11225.1
11225
11225
11224.9
11224.8
11224.7
11224.7
11224.6
11224.5
11224.4
11224.4
11224.3
11224.2
11224.1
11224.1
11224
11223.9
11223.8
11223.8
11223.7
11223.6
11223.5
11223.5
11223.4
11223.3
11223.2
11223.2
11223.1
11223
11223
11222.9
11222.8
11222.7
11222.7
11222.6
11222.5
11222.4
11222.4
11222.3
11222.2
11222.1
11222.1
11222
11221.9
11221.8
11221.8
11221.7
11221.6
11221.5
11221.5
11221.4
11221.3
11221.2
11221.2
11221.1
11221
11220.9
11220.9
11220.8
11220.7
11220.6
11220.6
11220.5
11220.4
11220.3
11220.3
11220.2
11220.1
11220
11220
11219.9
11219.8
11219.7
11219.7
11219.6
11219.5
11219.4
11219.4
11219.3
11219.2
11219.1
11219.1
11219
11218.9
11218.8
11218.8
11218.7
11218.6
11218.5
11218.5
11218.4
11218.3
11218.2
11218.2
11218.1
11218
11217.9
11217.9
11217.8
11217.7
11217.6
11217.6
11217.5
11217.4
11217.4
11217.3
11217.2
11217.1
11217.1
11217
11216.9
11216.8
11216.8
11216.7
11216.6
11216.5
11216.4
11216.4
11216.3
11216.2
11216.1
11216.1
11216
11215.9
11215.8
11215.8
11215.7
11215.6
11215.5
11215.5
11215.4
11215.3
11215.2
11215.2
11215.1
11215
11214.9
11214.9
11214.8
11214.7
11214.6
11214.6
11214.5
11214.4
11214.3
11214.3
11214.2
11214.1
11214
11214
11213.9
11213.8
11213.7
11213.7
11213.6
11213.5
11213.4
11213.4
11213.3
11213.2
11213.1
11213.1
11213
11212.9
11212.8
11212.8
11212.7
11212.6
11212.5
11212.5
11212.4
11212.3
11212.2
11212.2
11212.1
11212
11211.9
11211.9
11211.8
11211.7
11211.6
11211.6
11211.5
11211.4
11211.3
11211.3
11211.2
11211.1
11211
11211
11210.9
11210.8
11210.7
11210.6
11210.6
11210.5
11210.4
11210.3
11210.3
11210.2
11210.1
11210
11210
11209.9
11209.8
11209.7
11209.7
11209.6
11209.5
11209.4
11209.4
11209.3
11209.2
11209.1
11209.1
11209
11208.9
11208.8
11208.8
11208.7
11208.6
11208.5
11208.5
11208.4
11208.3
11208.2
11208.2
11208.1
11208
11207.9
11207.8
11207.8
11207.7
11207.6
11207.5
11207.5
11207.4
11207.3
11207.2
11207.2
11207.1
11207
11206.9
11206.9
11206.8
11206.7
11206.6
11206.6
11206.5
11206.4
11206.3
11206.3
11206.2
11206.1
11206
11205.9
11205.9
11205.8
11205.7
11205.6
11205.6
11205.5
11205.4
11205.3
11205.3
11205.2
11205.1
11205
11205
11204.9
11204.8
11204.7
11204.7
11204.6
11204.5
11204.4
11204.4
11204.3
11204.2
11204.1
11204
11204
11203.9
11203.8
11203.7
11203.7
11203.6
11203.5
11203.4
11203.4
11203.3
11203.2
11203.1
11203.1
11203
11202.9
11202.8
11202.8
11202.7
11202.6
11202.5
11202.4
11202.4
11202.3
11202.2
11202.1
11202.1
11202
11201.9
11201.8
11201.8
11201.7
11201.6
11201.5
11201.5
11201.4
11201.3
11201.2
11201.1
11201.1
11201
11200.9
11200.8
11200.8
11200.7
11200.6
11200.5
11200.5
11200.4
11200.3
11200.2
11200.2
11200.1
11200
11199.9
11199.8
11199.8
11199.7
11199.6
11199.5
11199.5
11199.4
11199.3
11199.2
11199.2
11199.1
11199
11198.9
11198.9
11198.8
11198.7
11198.6
11198.5
11198.5
11198.4
11198.3
11198.2
11198.2
11198.1
11198
11197.9
11197.9
11197.8
11197.7
11197.6
11197.6
11197.5
11197.4
11197.3
11197.2
11197.2
11197.1
11197
11196.9
11196.9
11196.8
11196.7
11196.6
11196.6
11196.5
11196.4
11196.3
11196.2
11196.2
11196.1
11196
11195.9
11195.9
11195.8
11195.7
11195.6
11195.6
11195.5
11195.4
11195.3
11195.2
11195.2
11195.1
11195
11194.9
11194.9
11194.8
11194.7
11194.6
11194.6
11194.5
11194.4
11194.3
11194.2
11194.2
11194.1
11194
11193.9
11193.9
11193.8
11193.7
11193.6
11193.6
11193.5
11193.4
11193.3
11193.2
11193.2
11193.1
11193
11192.9
11192.9
11192.8
11192.7
11192.6
11192.6
11192.5
11192.4
11192.3
11192.2
11192.2
11192.1
11192
11191.9
11191.9
11191.8
11191.7
11191.6
11191.6
11191.5
11191.4
11191.3
11191.2
11191.2
11191.1
11191
11190.9
11190.9
11190.8
11190.7
11190.6
11190.5
11190.5
11190.4
11190.3
11190.2
11190.2
11190.1
11190
11189.9
11189.9
11189.8
11189.7
11189.6
11189.5
11189.5
11189.4
11189.3
11189.2
11189.2
11189.1
11189
11188.9
11188.8
11188.8
11188.7
11188.6
11188.5
11188.5
11188.4
11188.3
11188.2
11188.2
11188.1
11188
11187.9
11187.8
11187.8
11187.7
11187.6
11187.5
11187.5
11187.4
11187.3
11187.2
11187.1
11187.1
11187
11186.9
11186.8
11186.8
11186.7
11186.6
11186.5
11186.4
11186.4
11186.3
11186.2
11186.1
11186.1
11186
11185.9
11185.8
11185.8
11185.7
11185.6
11185.5
11185.4
11185.4
11185.3
11185.2
11185.1
11185.1
11185
11184.9
11184.8
11184.7
11184.7
11184.6
11184.5
11184.4
11184.4
11184.3
11184.2
11184.1
11184
11184
11183.9
11183.8
11183.7
11183.7
11183.6
11183.5
11183.4
11183.3
11183.3
11183.2
11183.1
11183
11183
11182.9
11182.8
11182.7
11182.6
11182.6
11182.5
11182.4
11182.3
11182.3
11182.2
11182.1
11182
11181.9
11181.9
11181.8
11181.7
11181.6
11181.6
11181.5
11181.4
11181.3
11181.2
11181.2
11181.1
11181
11180.9
11180.9
11180.8
11180.7
11180.6
11180.5
11180.5
11180.4
11180.3
11180.2
11180.2
11180.1
11180
11179.9
11179.8
11179.8
11179.7
11179.6
11179.5
11179.5
11179.4
11179.3
11179.2
11179.1
11179.1
11179
11178.9
11178.8
11178.8
11178.7
11178.6
11178.5
11178.4
11178.4
11178.3
11178.2
11178.1
11178.1
11178
11177.9
11177.8
11177.7
11177.7
11177.6
11177.5
11177.4
11177.4
11177.3
11177.2
11177.1
11177
11177
11176.9
11176.8
11176.7
11176.7
11176.6
11176.5
11176.4
11176.3
11176.3
11176.2
11176.1
11176
11176
11175.9
11175.8
11175.7
11175.6
11175.6
11175.5
11175.4
11175.3
11175.3
11175.2
11175.1
11175
11174.9
11174.9
11174.8
11174.7
11174.6
11174.6
11174.5
11174.4
11174.3
11174.2
11174.2
11174.1
11174
11173.9
11173.8
11173.8
11173.7
11173.6
11173.5
11173.5
11173.4
11173.3
11173.2
11173.1
11173.1
11173
11172.9
11172.8
11172.8
11172.7
11172.6
11172.5
11172.4
11172.4
11172.3
11172.2
11172.1
11172.1
11172
11171.9
11171.8
11171.7
11171.7
11171.6
11171.5
11171.4
11171.4
11171.3
11171.2
11171.1
11171
11171
11170.9
11170.8
11170.7
11170.6
11170.6
11170.5
11170.4
11170.3
11170.3
11170.2
11170.1
11170
11169.9
11169.9
11169.8
11169.7
11169.6
11169.6
11169.5
11169.4
11169.3
11169.2
11169.2
11169.1
11169
11168.9
11168.9
11168.8
11168.7
11168.6
11168.5
11168.5
11168.4
11168.3
11168.2
11168.1
11168.1
11168
11167.9
11167.8
11167.8
11167.7
11167.6
11167.5
11167.4
11167.4
11167.3
11167.2
11167.1
11167.1
11167
11166.9
11166.8
11166.7
11166.7
11166.6
11166.5
11166.4
11166.4
11166.3
11166.2
11166.1
11166
11166
11165.9
11165.8
11165.7
11165.7
11165.6
11165.5
11165.4
11165.3
11165.3
11165.2
11165.1
11165
11164.9
11164.9
11164.8
11164.7
11164.6
11164.6
11164.5
11164.4
11164.3
11164.2
11164.2
11164.1
11164
11163.9
11163.9
11163.8
11163.7
11163.6
11163.5
11163.5
11163.4
11163.3
11163.2
11163.2
11163.1
11163
11162.9
11162.8
11162.8
11162.7
11162.6
11162.5
11162.4
11162.4
11162.3
11162.2
11162.1
11162.1
11162
11161.9
11161.8
11161.7
11161.7
11161.6
11161.5
11161.4
11161.4
11161.3
11161.2
11161.1
11161
11161
11160.9
11160.8
11160.7
11160.7
11160.6
11160.5
11160.4
11160.3
11160.3
11160.2
11160.1
11160
11159.9
11159.9
11159.8
11159.7
11159.6
11159.6
11159.5
11159.4
11159.3
11159.2
11159.2
11159.1
11159
11158.9
11158.9
11158.8
11158.7
11158.6
11158.5
11158.5
11158.4
11158.3
11158.2
11158.2
11158.1
11158
11157.9
11157.8
11157.8
11157.7
11157.6
11157.5
11157.5
11157.4
11157.3
11157.2
11157.1
11157.1
11157
11156.9
11156.8
11156.8
11156.7
11156.6
11156.5
11156.4
11156.4
11156.3
11156.2
11156.1
11156.1
11156
11155.9
11155.8
11155.7
11155.7
11155.6
11155.5
11155.4
11155.4
11155.3
11155.2
11155.1
11155
11155
11154.9
11154.8
11154.7
11154.7
11154.6
11154.5
11154.4
11154.3
11154.3
11154.2
11154.1
11154
11154
11153.9
11153.8
11153.7
11153.6
11153.6
11153.5
11153.4
11153.3
11153.3
11153.2
11153.1
11153
11152.9
11152.9
11152.8
11152.7
11152.6
11152.6
11152.5
11152.4
11152.3
11152.2
11152.2
11152.1
11152
11151.9
11151.9
11151.8
11151.7
11151.6
11151.5
11151.5
11151.4
11151.3
11151.2
11151.2
11151.1
11151
11150.9
11150.8
11150.8
11150.7
11150.6
11150.5
11150.5
11150.4
11150.3
11150.2
11150.2
11150.1
11150
11149.9
11149.8
11149.8
11149.7
11149.6
11149.5
11149.5
11149.4
11149.3
11149.2
11149.1
11149.1
11149
11148.9
11148.8
11148.8
11148.7
11148.6
11148.5
11148.5
11148.4
11148.3
11148.2
11148.1
11148.1
11148
11147.9
11147.8
11147.8
11147.7
11147.6
11147.5
11147.4
11147.4
11147.3
11147.2
11147.1
11147.1
11147
11146.9
11146.8
11146.8
11146.7
11146.6
11146.5
11146.4
11146.4
11146.3
11146.2
11146.1
11146.1
11146
11145.9
11145.8
11145.8
11145.7
11145.6
11145.5
11145.4
11145.4
11145.3
11145.2
11145.1
11145.1
11145
11144.9
11144.8
11144.8
11144.7
11144.6
11144.5
11144.4
11144.4
11144.3
11144.2
11144.1
11144.1
11144
11143.9
11143.8
11143.8
11143.7
11143.6
11143.5
11143.5
11143.4
11143.3
11143.2
11143.1
11143.1
11143
11142.9
11142.8
11142.8
11142.7
11142.6
11142.5
11142.5
11142.4
11142.3
11142.2
11142.2
11142.1
11142
11141.9
11141.8
11141.8
11141.7
11141.6
11141.5
11141.5
11141.4
11141.3
11141.2
11141.2
11141.1
11141
11140.9
11140.9
11140.8
11140.7
11140.6
11140.6
11140.5
11140.4
11140.3
11140.3
11140.2
11140.1
11140
11139.9
11139.9
11139.8
11139.7
11139.6
11139.6
11139.5
11139.4
11139.3
11139.3
11139.2
11139.1
11139
11139
11138.9
11138.8
11138.7
11138.7
11138.6
11138.5
11138.4
11138.4
11138.3
11138.2
11138.1
11138.1
11138
11137.9
11137.8
11137.8
11137.7
11137.6
11137.5
11137.5
11137.4
11137.3
11137.2
11137.2
11137.1
11137
11136.9
11136.9
11136.8
11136.7
11136.6
11136.6
11136.5
11136.4
11136.3
11136.3
11136.2
11136.1
11136
11136
11135.9
11135.8
11135.7
11135.7
11135.6
11135.5
11135.4
11135.4
11135.3
11135.2
11135.1
11135.1
11135
11134.9
11134.8
11134.8
11134.7
11134.6
11134.5
11134.5
11134.4
11134.3
11134.2
11134.2
11134.1
11134
11133.9
11133.9
11133.8
11133.7
11133.6
11133.6
11133.5
11133.4
11133.4
11133.3
11133.2
11133.1
11133.1
11133
11132.9
11132.8
11132.8
11132.7
11132.6
11132.5
11132.5
11132.4
11132.3
11132.2
11132.2
11132.1
11132
11132
11131.9
11131.8
11131.7
11131.7
11131.6
11131.5
11131.4
11131.4
11131.3
11131.2
11131.1
11131.1
11131
11130.9
11130.9
11130.8
11130.7
11130.6
11130.6
11130.5
11130.4
11130.3
11130.3
11130.2
11130.1
11130.1
11130
11129.9
11129.8
11129.8
11129.7
11129.6
11129.5
11129.5
11129.4
11129.3
11129.3
11129.2
11129.1
11129
11129
11128.9
11128.8
11128.8
11128.7
11128.6
11128.5
11128.5
11128.4
11128.3
11128.2
11128.2
11128.1
11128
11128
11127.9
11127.8
11127.7
11127.7
11127.6
11127.5
11127.5
11127.4
11127.3
11127.2
11127.2
11127.1
11127
11127
11126.9
11126.8
11126.7
11126.7
11126.6
11126.5
11126.5
11126.4
11126.3
11126.3
11126.2
11126.1
11126
11126
11125.9
11125.8
11125.8
11125.7
11125.6
11125.5
11125.5
11125.4
11125.3
11125.3
11125.2
11125.1
11125.1
11125
11124.9
11124.8
11124.8
11124.7
11124.6
11124.6
11124.5
11124.4
11124.4
11124.3
11124.2
11124.1
11124.1
11124
11123.9
11123.9
11123.8
11123.7
11123.7
11123.6
11123.5
11123.5
11123.4
11123.3
11123.2
11123.2
11123.1
11123
11123
11122.9
11122.8
11122.8
11122.7
11122.6
11122.6
11122.5
11122.4
11122.4
11122.3
11122.2
11122.2
11122.1
11122
11122
11121.9
11121.8
11121.7
11121.7
11121.6
11121.5
11121.5
11121.4
11121.3
11121.3
11121.2
11121.1
11121.1
11121
11120.9
11120.9
11120.8
11120.7
11120.7
11120.6
11120.5
11120.5
11120.4
11120.3
11120.3
11120.2
11120.1
11120.1
11120
11119.9
11119.9
11119.8
11119.7
11119.7
11119.6
11119.5
11119.5
11119.4
11119.4
11119.3
11119.2
11119.2
11119.1
11119
11119
11118.9
11118.8
11118.8
11118.7
11118.6
11118.6
11118.5
11118.4
11118.4
11118.3
11118.2
11118.2
11118.1
11118.1
11118
11117.9
11117.9
11117.8
11117.7
11117.7
11117.6
11117.5
11117.5
11117.4
11117.4
11117.3
11117.2
11117.2
11117.1
11117
11117
11116.9
11116.9
11116.8
11116.7
11116.7
11116.6
11116.5
11116.5
11116.4
11116.4
11116.3
11116.2
11116.2
11116.1
11116
11116
11115.9
11115.9
11115.8
11115.7
11115.7
11115.6
11115.6
11115.5
11115.4
11115.4
11115.3
11115.2
11115.2
11115.1
11115.1
11115
11114.9
11114.9
11114.8
11114.8
11114.7
11114.6
11114.6
11114.5
11114.5
11114.4
11114.4
11114.3
11114.2
11114.2
11114.1
11114.1
11114
11113.9
11113.9
11113.8
11113.8
11113.7
11113.6
11113.6
11113.5
11113.5
11113.4
11113.4
11113.3
11113.2
11113.2
11113.1
11113.1
11113
11113
11112.9
11112.8
11112.8
11112.7
11112.7
11112.6
11112.6
11112.5
11112.5
11112.4
11112.3
11112.3
11112.2
11112.2
11112.1
11112.1
11112
11112
11111.9
11111.8
11111.8
11111.7
11111.7
11111.6
11111.6
11111.5
11111.5
11111.4
11111.4
11111.3
11111.3
11111.2
11111.2
11111.1
11111
11111
11110.9
11110.9
11110.8
11110.8
11110.7
11110.7
11110.6
11110.6
11110.5
11110.5
11110.4
11110.4
11110.3
11110.3
11110.2
11110.2
11110.1
11110.1
11110
11110
11109.9
11109.9
11109.8
11109.8
11109.7
11109.7
11109.6
11109.6
11109.5
11109.5
11109.4
11109.4
11109.3
11109.3
11109.2
11109.2
11109.1
11109.1
11109.1
11109
11109
11108.9
11108.9
11108.8
11108.8
11108.7
11108.7
11108.6
11108.6
11108.5
11108.5
11108.5
11108.4
11108.4
11108.3
11108.3
11108.2
11108.2
11108.1
11108.1
11108.1
11108
11108
11107.9
11107.9
11107.8
11107.8
11107.8
11107.7
11107.7
11107.6
11107.6
11107.6
11107.5
11107.5
11107.4
11107.4
11107.3
11107.3
11107.3
11107.2
11107.2
11107.2
11107.1
11107.1
11107
11107
11107
11106.9
11106.9
11106.8
11106.8
11106.8
11106.7
11106.7
11106.7
11106.6
11106.6
11106.6
11106.5
11106.5
11106.4
11106.4
11106.4
11106.3
11106.3
11106.3
11106.2
11106.2
11106.2
11106.1
11106.1
11106.1
11106
11106
11106
11105.9
11105.9
11105.9
11105.8
11105.8
11105.8
11105.8
11105.7
11105.7
11105.7
11105.6
11105.6
11105.6
11105.5
11105.5
11105.5
11105.5
11105.4
11105.4
11105.4
11105.4
11105.3
11105.3
11105.3
11105.2
11105.2
11105.2
11105.2
11105.1
11105.1
11105.1
11105.1
11105
11105
11105
11105
11105
11104.9
11104.9
11104.9
11104.9
11104.8
11104.8
11104.8
11104.8
11104.8
11104.7
11104.7
11104.7
11104.7
11104.7
11104.7
11104.6
11104.6
11104.6
11104.6
11104.6
11104.6
11104.5
11104.5
11104.5
11104.5
11104.5
11104.5
11104.4
11104.4
11104.4
11104.4
11104.4
11104.4
11104.4
11104.4
11104.4
11104.3
11104.3
11104.3
11104.3
11104.3
11104.3
11104.3
11104.3
11104.3
11104.3
11104.3
11104.2
11104.2
11104.2
11104.2
11104.2
11104.2
11104.2
11104.2
11104.2
11104.2
11104.2
11104.2
11104.2
11104.2
11104.2
11104.2
11104.2
11104.2
11104.2
11104.2
11104.2
11104.2
11104.2
11104.2
11104.2
11104.2
11104.2
11104.2
11104.2
11104.2
11104.2
11104.2
11104.2
11104.3
11104.3
11104.3
11104.3
11104.3
11104.3
11104.3
11104.3
11104.3
11104.3
11104.3
11104.4
11104.4
11104.4
11104.4
11104.4
11104.4
11104.4
11104.5
11104.5
11104.5
11104.5
11104.5
11104.5
11104.6
11104.6
11104.6
11104.6
11104.6
11104.7
11104.7
11104.7
11104.7
11104.8
11104.8
11104.8
11104.8
11104.9
11104.9
11104.9
11104.9
11105
11105
11105
11105.1
11105.1
11105.1
11105.2
11105.2
11105.2
11105.3
11105.3
11105.3
11105.4
11105.4
11105.4
11105.5
11105.5
11105.5
11105.6
11105.6
11105.7
11105.7
11105.8
11105.8
11105.8
11105.9
11105.9
11106
11106
11106.1
11106.1
11106.2
11106.2
11106.3
11106.3
11106.4
11106.4
11106.5
11106.5
11106.6
11106.6
11106.7
11106.7
11106.8
11106.9
11106.9
11107
11107
11107.1
11107.2
11107.2
11107.3
11107.4
11107.4
11107.5
11107.6
11107.6
11107.7
11107.8
11107.8
11107.9
11108
11108
11108.1
11108.2
11108.3
11108.3
11108.4
11108.5
11108.6
11108.7
11108.7
11108.8
11108.9
11109
11109.1
11109.2
11109.2
11109.3
11109.4
11109.5
11109.6
11109.7
11109.8
11109.9
11110
11110.1
11110.2
11110.3
11110.4
11110.5
11110.6
11110.7
11110.8
11110.9
11111
11111.1
11111.2
11111.3
11111.4
11111.5
11111.6
11111.7
11111.8
11112
11112.1
11112.2
11112.3
11112.4
11112.5
11112.7
11112.8
11112.9
11113
11113.2
11113.3
11113.4
11113.5
11113.7
11113.8
11113.9
11114.1
11114.2
11114.4
11114.5
11114.6
11114.8
11114.9
11115.1
11115.2
11115.3
11115.5
11115.6
11115.8
11115.9
11116.1
11116.2
11116.4
11116.6
11116.7
11116.9
11117
11117.2
11117.4
11117.5
11117.7
11117.9
11118
11118.2
11118.4
11118.5
11118.7
11118.9
11119.1
11119.3
11119.4
11119.6
11119.8
11120
11120.2
11120.4
11120.6
11120.7
11120.9
11121.1
11121.3
11121.5
11121.7
11121.9
11122.1
11122.3
11122.5
11122.8
11123
11123.2
11123.4
11123.6
11123.8
11124
11124.3
11124.5
11124.7
11124.9
11125.2
11125.4
11125.6
11125.8
11126.1
11126.3
11126.6
11126.8
11127
11127.3
11127.5
11127.8
11128
11128.3
11128.5
11128.8
11129
11129.3
11129.6
11129.8
11130.1
11130.4
11130.6
11130.9
11131.2
11131.4
11131.7
11132
11132.3
11132.6
11132.8
11133.1
11133.4
11133.7
11134
11134.3
11134.6
11134.9
11135.2
11135.5
11135.8
11136.1
11136.4
11136.7
11137
11137.4
11137.7
11138
11138.3
11138.7
11139
11139.3
11139.6
11140
11140.3
11140.7
11141
11141.3
11141.7
11142
11142.4
11142.7
11143.1
11143.5
11143.8
11144.2
11144.5
11144.9
11145.3
11145.7
11146
11146.4
11146.8
11147.2
11147.6
11147.9
11148.3
11148.7
11149.1
11149.5
11149.9
11150.3
11150.7
11151.1
11151.5
11151.9
11152.4
11152.8
11153.2
11153.6
11154
11154.5
11154.9
11155.3
11155.8
11156.2
11156.6
11157.1
11157.5
11158
11158.4
11158.9
11159.3
11159.8
11160.3
11160.7
11161.2
11161.7
11162.1
11162.6
11163.1
11163.6
11164
11164.5
11165
11165.5
11166
11166.5
11167
11167.5
11168
11168.5
11169
11169.5
11170
11170.6
11171.1
11171.6
11172.1
11172.7
11173.2
11173.7
11174.3
11174.8
11175.3
11175.9
11176.4
11177
11177.5
11178.1
11178.6
11179.2
11179.8
11180.3
11180.9
11181.5
11182
11182.6
11183.2
11183.8
11184.4
11184.9
11185.5
11186.1
11186.7
11187.3
11187.9
11188.5
11189.1
11189.7
11190.3
11190.9
11191.6
11192.2
11192.8
11193.4
11194
11194.7
11195.3
11195.9
11196.6
11197.2
11197.8
11198.5
11199.1
11199.8
11200.4
11201.1
11201.7
11202.4
11203.1
11203.7
11204.4
11205
11205.7
11206.4
11207.1
11207.7
11208.4
11209.1
11209.8
11210.5
11211.1
11211.8
11212.5
11213.2
11213.9
11214.6
11215.3
11216
11216.7
11217.4
11218.1
11218.8
11219.6
11220.3
11221
11221.7
11222.4
11223.2
11223.9
11224.6
11225.3
11226.1
11226.8
11227.5
11228.3
11229
11229.7
11230.5
11231.2
11232
11232.7
11233.5
11234.2
11235
11235.7
11236.5
11237.2
11238
11238.8
11239.5
11240.3
11241.1
11241.8
11242.6
11243.4
11244.1
11244.9
11245.7
11246.5
11247.2
11248
11248.8
11249.6
11250.4
11251.2
11251.9
11252.7
11253.5
11254.3
11255.1
11255.9
11256.7
11257.5
11258.3
11259.1
11259.9
11260.7
11261.5
11262.3
11263.1
11263.9
11264.7
11265.5
11266.3
11267.1
11267.9
11268.8
11269.6
11270.4
11271.2
11272
11272.8
11273.7
11274.5
11275.3
11276.1
11276.9
11277.8
11278.6
11279.4
11280.2
11281.1
11281.9
11282.7
11283.5
11284.4
11285.2
11286
11286.9
11287.7
11288.5
11289.4
11290.2
11291
11291.9
11292.7
11293.5
11294.4
11295.2
11296.1
11296.9
11297.7
11298.6
11299.4
11300.3
11301.1
11302
11302.8
11303.6
11304.5
11305.3
11306.2
11307
11307.9
11308.7
11309.6
11310.4
11311.3
11312.1
11313
11313.8
11314.7
11315.5
11316.4
11317.2
11318.1
11318.9
11319.8
11320.6
11321.5
11322.4
11323.2
11324.1
11324.9
11325.8
11326.6
11327.5
11328.3
11329.2
11330.1
11330.9
11331.8
11332.6
11333.5
11334.4
11335.2
11336.1
11336.9
11337.8
11338.7
11339.5
11340.4
11341.2
11342.1
11343
11343.8
11344.7
11345.5
11346.4
11347.3
11348.1
11349
11349.9
11350.7
11351.6
11352.4
11353.3
11354.2
11355
11355.9
11356.8
11357.6
11358.5
11359.4
11360.2
11361.1
11362
11362.8
11363.7
11364.6
11365.4
11366.3
11367.2
11368
11368.9
11369.8
11370.6
11371.5
11372.4
11373.2
11374.1
11375
11375.8
11376.7
11377.6
11378.4
11379.3
11380.2
11381.1
11381.9
11382.8
11383.7
11384.5
11385.4
11386.3
11387.1
11388
11388.9
11389.7
11390.6
11391.5
11392.4
11393.2
11394.1
11395
11395.8
11396.7
11397.6
11398.5
11399.3
11400.2
11401.1
11401.9
11402.8
11403.7
11404.6
11405.4
11406.3
11407.2
11408
11408.9
11409.8
11410.7
11411.5
11412.4
11413.3
11414.2
11415
11415.9
11416.8
11417.6
11418.5
11419.4
11420.3
11421.1
11422
11422.9
11423.8
11424.6
11425.5
11426.4
11427.3
11428.1
11429
11429.9
11430.8
11431.6
11432.5
11433.4
11434.3
11435.1
11436
11436.9
11437.8
11438.6
11439.5
11440.4
11441.3
11442.1
11443
11443.9
11444.8
11445.6
11446.5
11447.4
11448.3
11449.1
11450
11450.9
11451.8
11452.6
11453.5
11454.4
11455.3
11456.2
11457
11457.9
11458.8
11459.7
11460.5
11461.4
11462.3
11463.2
11464
11464.9
11465.8
11466.7
11467.6
11468.4
11469.3
11470.2
11471.1
11471.9
11472.8
11473.7
11474.6
11475.5
11476.3
11477.2
11478.1
11479
11479.9
11480.7
11481.6
11482.5
11483.4
11484.3
11485.1
11486
11486.9
11487.8
11488.6
11489.5
11490.4
11491.3
11492.2
11493
11493.9
11494.8
11495.7
11496.6
11497.4
11498.3
11499.2
11500.1
11501
11501.9
11502.7
11503.6
11504.5
11505.4
11506.3
11507.1
11508
11508.9
11509.8
11510.7
11511.5
11512.4
11513.3
11514.2
11515.1
11516
11516.8
11517.7
11518.6
11519.5
11520.4
11521.2
11522.1
11523
11523.9
11524.8
11525.7
11526.5
11527.4
11528.3
11529.2
11530.1
11531
11531.8
11532.7
11533.6
11534.5
11535.4
11536.3
11537.1
11538
11538.9
11539.8
11540.7
11541.6
11542.4
11543.3
11544.2
11545.1
11546
11546.9
11547.8
11548.6
11549.5
11550.4
11551.3
11552.2
11553.1
11554
11554.8
11555.7
11556.6
11557.5
11558.4
11559.3
11560.1
11561
11561.9
11562.8
11563.7
11564.6
11565.5
11566.4
11567.2
11568.1
11569
11569.9
11570.8
11571.7
11572.6
11573.4
11574.3
11575.2
11576.1
11577
11577.9
11578.8
11579.7
11580.5
11581.4
11582.3
11583.2
11584.1
11585
11585.9
11586.8
11587.6
11588.5
11589.4
11590.3
11591.2
11592.1
11593
11593.9
11594.8
11595.6
11596.5
11597.4
11598.3
11599.2
11600.1
11601
11601.9
11602.8
11603.6
11604.5
11605.4
11606.3
11607.2
11608.1
11609
11609.9
11610.8
11611.7
11612.5
11613.4
11614.3
11615.2
11616.1
11617
11617.9
11618.8
11619.7
11620.6
11621.5
11622.3
11623.2
11624.1
11625
11625.9
11626.8
11627.7
11628.6
11629.5
11630.4
11631.3
11632.1
11633
11633.9
11634.8
11635.7
11636.6
11637.5
11638.4
11639.3
11640.2
11641.1
11642
11642.9
11643.8
11644.6
11645.5
11646.4
11647.3
11648.2
11649.1
11650
11650.9
11651.8
11652.7
11653.6
11654.5
11655.4
11656.3
11657.2
11658
11658.9
11659.8
11660.7
11661.6
11662.5
11663.4
11664.3
11665.2
11666.1
11667
11667.9
11668.8
11669.7
11670.6
11671.5
11672.4
11673.3
11674.2
11675.1
11675.9
11676.8
11677.7
11678.6
11679.5
11680.4
11681.3
11682.2
11683.1
11684
11684.9
11685.8
11686.7
11687.6
11688.5
11689.4
11690.3
11691.2
11692.1
11693
11693.9
11694.8
11695.7
11696.6
11697.5
11698.4
11699.3
11700.2
11701.1
11702
11702.9
11703.8
11704.7
11705.5
11706.4
11707.3
11708.2
11709.1
11710
11710.9
11711.8
11712.7
11713.6
11714.5
11715.4
11716.3
11717.2
11718.1
11719
11719.9
11720.8
11721.7
11722.6
11723.5
11724.4
11725.3
11726.2
11727.1
11728
11728.9
11729.8
11730.7
11731.6
11732.5
11733.4
11734.3
11735.2
11736.1
11737
11737.9
11738.8
11739.7
11740.6
11741.5
11742.4
11743.3
11744.2
11745.1
11746
11746.9
11747.9
11748.8
11749.7
11750.6
11751.5
11752.4
11753.3
11754.2
11755.1
11756
11756.9
11757.8
11758.7
11759.6
11760.5
11761.4
11762.3
11763.2
11764.1
11765
11765.9
11766.8
11767.7
11768.6
11769.5
11770.4
11771.3
11772.2
11773.1
11774
11774.9
11775.8
11776.7
11777.7
11778.6
11779.5
11780.4
11781.3
11782.2
11783.1
11784
11784.9
11785.8
11786.7
11787.6
11788.5
11789.4
11790.3
11791.2
11792.1
11793
11793.9
11794.8
11795.8
11796.7
11797.6
11798.5
11799.4
11800.3
11801.2
11802.1
11803
11803.9
11804.8
11805.7
11806.6
11807.5
11808.4
11809.4
11810.3
11811.2
11812.1
11813
11813.9
11814.8
11815.7
11816.6
11817.5
11818.4
11819.3
11820.2
11821.1
11822.1
11823
11823.9
11824.8
11825.7
11826.6
11827.5
11828.4
11829.3
11830.2
11831.1
11832.1
11833
11833.9
11834.8
11835.7
11836.6
11837.5
11838.4
11839.3
11840.2
11841.1
11842.1
11843
11843.9
11844.8
11845.7
11846.6
11847.5
11848.4
11849.3
11850.2
11851.2
11852.1
11853
11853.9
11854.8
11855.7
11856.6
11857.5
11858.4
11859.4
11860.3
11861.2
11862.1
11863
11863.9
11864.8
11865.7
11866.6
11867.6
11868.5
11869.4
11870.3
11871.2
11872.1
11873
11873.9
11874.9
11875.8
11876.7
11877.6
11878.5
11879.4
11880.3
11881.2
11882.2
11883.1
11884
11884.9
11885.8
11886.7
11887.6
11888.6
11889.5
11890.4
11891.3
11892.2
11893.1
11894
11895
11895.9
11896.8
11897.7
11898.6
11899.5
11900.4
11901.4
11902.3
11903.2
11904.1
11905
11905.9
11906.8
11907.8
11908.7
11909.6
11910.5
11911.4
11912.3
11913.3
11914.2
11915.1
11916
11916.9
11917.8
11918.7
11919.7
11920.6
11921.5
11922.4
11923.3
11924.2
11925.2
11926.1
11927
11927.9
11928.8
11929.8
11930.7
11931.6
11932.5
11933.4
11934.3
11935.3
11936.2
11937.1
11938
11938.9
11939.8
11940.8
11941.7
11942.6
11943.5
11944.4
11945.4
11946.3
11947.2
11948.1
11949
11949.9
11950.9
11951.8
11952.7
11953.6
11954.5
11955.5
11956.4
11957.3
11958.2
11959.1
11960.1
11961
11961.9
11962.8
11963.7
11964.7
11965.6
11966.5
11967.4
11968.3
11969.3
11970.2
11971.1
11972
11972.9
11973.9
11974.8
11975.7
11976.6
11977.6
11978.5
11979.4
11980.3
11981.2
11982.2
11983.1
11984
11984.9
11985.8
11986.8
11987.7
11988.6
11989.5
11990.5
11991.4
11992.3
11993.2
11994.1
11995.1
11996
11996.9
11997.8
11998.8
11999.7
12000.6
12001.5
12002.5
12003.4
12004.3
12005.2
12006.1
12007.1
12008
12008.9
12009.8
12010.8
12011.7
12012.6
12013.5
12014.5
12015.4
12016.3
12017.2
12018.2
12019.1
12020
12020.9
12021.9
12022.8
12023.7
12024.6
12025.6
12026.5
12027.4
12028.3
12029.3
12030.2
12031.1
12032
12033
12033.9
12034.8
12035.7
12036.7
12037.6
12038.5
12039.4
12040.4
12041.3
12042.2
12043.2
12044.1
12045
12045.9
12046.9
12047.8
12048.7
12049.6
12050.6
12051.5
12052.4
12053.4
12054.3
12055.2
12056.1
12057.1
12058
12058.9
12059.9
12060.8
12061.7
12062.6
12063.6
12064.5
12065.4
12066.4
12067.3
12068.2
12069.1
12070.1
12071
12071.9
12072.9
12073.8
12074.7
12075.6
12076.6
12077.5
12078.4
12079.4
12080.3
12081.2
12082.2
12083.1
12084
12084.9
12085.9
12086.8
12087.7
12088.7
12089.6
12090.5
12091.5
12092.4
12093.3
12094.2
12095.2
12096.1
12097
12098
12098.9
12099.8
12100.8
12101.7
12102.6
12103.6
12104.5
12105.4
12106.4
12107.3
12108.2
12109.2
12110.1
12111
12112
12112.9
12113.8
12114.8
12115.7
12116.6
12117.6
12118.5
12119.4
12120.4
12121.3
12122.2
12123.2
12124.1
12125
12126
12126.9
12127.8
12128.8
12129.7
12130.6
12131.6
12132.5
12133.4
12134.4
12135.3
12136.2
12137.2
12138.1
12139
12140
12140.9
12141.8
12142.8
12143.7
12144.6
12145.6
12146.5
12147.4
12148.4
12149.3
12150.3
12151.2
12152.1
12153.1
12154
12154.9
12155.9
12156.8
12157.7
12158.7
12159.6
12160.6
12161.5
12162.4
12163.4
12164.3
12165.2
12166.2
12167.1
12168.1
12169
12169.9
12170.9
12171.8
12172.7
12173.7
12174.6
12175.6
12176.5
12177.4
12178.4
12179.3
12180.2
12181.2
12182.1
12183.1
12184
12184.9
12185.9
12186.8
12187.8
12188.7
12189.6
12190.6
12191.5
12192.5
12193.4
12194.3
12195.3
12196.2
12197.1
12198.1
12199
12200
12200.9
12201.8
12202.8
12203.7
12204.7
12205.6
12206.6
12207.5
12208.4
12209.4
12210.3
12211.3
12212.2
12213.1
12214.1
12215
12216
12216.9
12217.8
12218.8
12219.7
12220.7
12221.6
12222.6
12223.5
12224.4
12225.4
12226.3
12227.3
12228.2
12229.1
12230.1
12231
12232
12232.9
12233.9
12234.8
12235.7
12236.7
12237.6
12238.6
12239.5
12240.5
12241.4
12242.4
12243.3
12244.2
12245.2
12246.1
12247.1
12248
12249
12249.9
12250.8
12251.8
12252.7
12253.7
12254.6
12255.6
12256.5
12257.5
12258.4
12259.4
12260.3
12261.2
12262.2
12263.1
12264.1
12265
12266
12266.9