/*--------------------------------*- C++ -*----------------------------------*\
  =========                 |
  \\      /  F ield         | OpenFOAM: The Open Source CFD Toolbox
   \\    /   O peration     | Website:  https://openfoam.org
    \\  /    A nd           | Version:  9
     \\/     M anipulation  |
\*---------------------------------------------------------------------------*/
FoamFile
{
    format      ascii;
    class       volScalarField;
    location    "0.01";
    object      ddt0(p);
}
// * * * * * * * * * * * * * * * * * * * * * * * * * * * * * * * * * * * * * //

dimensions      [1 -1 -3 0 0 0 0];

internalField   nonuniform List<scalar> 
1000
(
2.78892e-06
-5.29714e-06
1.31118e-05
6.76267e-06
-2.79847e-06
-2.8121e-06
1.3817e-06
-4.68615e-06
1.51519e-06
-8.54878e-06
-6.0671e-06
-1.86128e-05
-1.02968e-05
7.39482e-06
-2.14105e-06
5.35628e-06
3.14509e-06
1.04453e-05
-5.42698e-06
-7.70559e-06
-2.57498e-06
-3.17433e-06
2.46134e-06
-1.92273e-06
-2.02732e-06
-8.02809e-06
-1.66152e-05
-9.8967e-06
-1.60213e-05
-2.89488e-06
-1.91592e-06
-1.75296e-05
-2.97727e-06
2.86549e-06
-6.37302e-07
-2.9612e-07
-7.9314e-06
-3.6489e-06
5.20352e-06
-6.68177e-06
-7.29217e-06
7.51031e-06
1.91767e-06
6.93332e-06
5.12508e-06
-5.60278e-06
-5.04944e-06
4.17957e-06
1.05861e-05
2.49577e-06
8.71892e-06
4.92462e-06
-6.73512e-06
2.04574e-06
-4.91291e-06
6.56678e-06
6.16632e-06
1.90692e-06
-2.0849e-05
-4.73467e-06
1.0028e-06
9.22647e-06
1.57329e-06
-1.40781e-05
-2.10066e-05
-4.52472e-05
-9.01697e-05
-0.00018854
-0.000333222
-0.000638894
-0.00123383
-0.00232073
-0.00439257
-0.00819558
-0.0152373
-0.0281759
-0.0517818
-0.094564
-0.171645
-0.309611
-0.554934
-0.988153
-1.74803
-3.0716
-5.36066
-9.29107
-15.9902
-27.3231
-46.3486
-78.0393
-130.406
-216.234
-355.729
-580.511
-939.547
-1507.85
-2399.04
-3783.22
-5911.89
-9152.08
-14032
-21301
-32004.8
-47579.1
-69957.9
-101695
-146086
-207281
-290355
-401313
-546982
-734754
-972144
-1.26614e+06
-1.62236e+06
-2.04409e+06
-2.53135e+06
-3.08003e+06
-3.68153e+06
-4.32277e+06
-4.987e+06
-5.65501e+06
-6.30693e+06
-6.92409e+06
-7.49063e+06
-7.99462e+06
-8.42859e+06
-8.7904e+06
-9.08343e+06
-9.31466e+06
-9.49275e+06
-9.62659e+06
-9.72444e+06
-9.79347e+06
-9.83965e+06
-9.86781e+06
-9.88179e+06
-9.8846e+06
-9.87861e+06
-9.86565e+06
-9.84718e+06
-9.82433e+06
-9.79798e+06
-9.76886e+06
-9.73752e+06
-9.70441e+06
-9.66989e+06
-9.63424e+06
-9.59769e+06
-9.56042e+06
-9.52257e+06
-9.48426e+06
-9.44557e+06
-9.40659e+06
-9.36735e+06
-9.32791e+06
-9.28829e+06
-9.24852e+06
-9.20861e+06
-9.16858e+06
-9.12843e+06
-9.08817e+06
-9.0478e+06
-9.00732e+06
-8.96673e+06
-8.92604e+06
-8.88523e+06
-8.84431e+06
-8.80327e+06
-8.76212e+06
-8.72086e+06
-8.67948e+06
-8.63799e+06
-8.59638e+06
-8.55467e+06
-8.51284e+06
-8.47092e+06
-8.42889e+06
-8.38677e+06
-8.34455e+06
-8.30226e+06
-8.25988e+06
-8.21743e+06
-8.17492e+06
-8.13235e+06
-8.08973e+06
-8.04706e+06
-8.00436e+06
-7.96163e+06
-7.91887e+06
-7.8761e+06
-7.83333e+06
-7.79055e+06
-7.74778e+06
-7.70503e+06
-7.6623e+06
-7.61959e+06
-7.57692e+06
-7.53428e+06
-7.49169e+06
-7.44916e+06
-7.40668e+06
-7.36426e+06
-7.3219e+06
-7.27962e+06
-7.23742e+06
-7.19529e+06
-7.15324e+06
-7.11129e+06
-7.06942e+06
-7.02765e+06
-6.98598e+06
-6.9444e+06
-6.90293e+06
-6.86157e+06
-6.82031e+06
-6.77916e+06
-6.73813e+06
-6.69721e+06
-6.65641e+06
-6.61573e+06
-6.57516e+06
-6.53472e+06
-6.4944e+06
-6.45421e+06
-6.41414e+06
-6.3742e+06
-6.33438e+06
-6.2947e+06
-6.25515e+06
-6.21572e+06
-6.17643e+06
-6.13727e+06
-6.09825e+06
-6.05936e+06
-6.02061e+06
-5.98199e+06
-5.9435e+06
-5.90515e+06
-5.86694e+06
-5.82887e+06
-5.79094e+06
-5.75314e+06
-5.71548e+06
-5.67796e+06
-5.64058e+06
-5.60334e+06
-5.56623e+06
-5.52927e+06
-5.49245e+06
-5.45577e+06
-5.41922e+06
-5.38282e+06
-5.34655e+06
-5.31043e+06
-5.27445e+06
-5.23861e+06
-5.2029e+06
-5.16734e+06
-5.13192e+06
-5.09664e+06
-5.06149e+06
-5.02649e+06
-4.99163e+06
-4.95691e+06
-4.92232e+06
-4.88788e+06
-4.85358e+06
-4.81941e+06
-4.78539e+06
-4.7515e+06
-4.71775e+06
-4.68414e+06
-4.65067e+06
-4.61734e+06
-4.58414e+06
-4.55108e+06
-4.51816e+06
-4.48538e+06
-4.45274e+06
-4.42023e+06
-4.38785e+06
-4.35562e+06
-4.32352e+06
-4.29155e+06
-4.25973e+06
-4.22803e+06
-4.19648e+06
-4.16505e+06
-4.13376e+06
-4.10261e+06
-4.07159e+06
-4.0407e+06
-4.00995e+06
-3.97932e+06
-3.94884e+06
-3.91848e+06
-3.88826e+06
-3.85816e+06
-3.8282e+06
-3.79837e+06
-3.76867e+06
-3.7391e+06
-3.70967e+06
-3.68036e+06
-3.65118e+06
-3.62213e+06
-3.5932e+06
-3.56441e+06
-3.53575e+06
-3.50721e+06
-3.4788e+06
-3.45051e+06
-3.42236e+06
-3.39433e+06
-3.36642e+06
-3.33864e+06
-3.31099e+06
-3.28346e+06
-3.25606e+06
-3.22878e+06
-3.20162e+06
-3.17458e+06
-3.14768e+06
-3.12088e+06
-3.09424e+06
-3.06767e+06
-3.04128e+06
-3.01493e+06
-2.9888e+06
-2.96267e+06
-2.93678e+06
-2.9107e+06
-2.88436e+06
-2.86058e+06
-2.83345e+06
-2.8084e+06
-2.7843e+06
-2.75844e+06
-2.73374e+06
-2.7088e+06
-2.68375e+06
-2.65912e+06
-2.63472e+06
-2.61035e+06
-2.58618e+06
-2.56213e+06
-2.53788e+06
-2.51387e+06
-2.49002e+06
-2.46618e+06
-2.44272e+06
-2.4193e+06
-2.39591e+06
-2.37272e+06
-2.34946e+06
-2.3263e+06
-2.3034e+06
-2.28053e+06
-2.25783e+06
-2.23535e+06
-2.21283e+06
-2.19039e+06
-2.16812e+06
-2.14589e+06
-2.12376e+06
-2.10184e+06
-2.08003e+06
-2.05827e+06
-2.03664e+06
-2.01513e+06
-1.99364e+06
-1.97224e+06
-1.95107e+06
-1.92996e+06
-1.9089e+06
-1.88803e+06
-1.86727e+06
-1.8465e+06
-1.82582e+06
-1.80538e+06
-1.78498e+06
-1.76458e+06
-1.74444e+06
-1.72442e+06
-1.70434e+06
-1.68435e+06
-1.66464e+06
-1.64495e+06
-1.6252e+06
-1.60571e+06
-1.58642e+06
-1.56706e+06
-1.5477e+06
-1.52865e+06
-1.50971e+06
-1.49066e+06
-1.4717e+06
-1.45309e+06
-1.43452e+06
-1.4158e+06
-1.39726e+06
-1.37904e+06
-1.3608e+06
-1.34241e+06
-1.32425e+06
-1.30642e+06
-1.28854e+06
-1.2705e+06
-1.2527e+06
-1.23523e+06
-1.21771e+06
-1.20002e+06
-1.18254e+06
-1.16542e+06
-1.14828e+06
-1.13095e+06
-1.11376e+06
-1.09696e+06
-1.08021e+06
-1.06326e+06
-1.04633e+06
-1.0298e+06
-1.01344e+06
-996899
-980253
-963922
-947902
-931798
-915492
-899323
-883555
-867881
-851997
-836032
-820391
-805056
-789639
-774007
-758457
-743293
-728297
-713129
-697798
-682661
-667897
-653198
-638290
-623277
-608526
-594108
-579691
-565066
-550378
-535960
-521849
-507736
-493425
-479044
-464929
-451136
-437349
-423369
-409325
-395536
-382057
-368635
-355083
-341467
-328016
-314906
-301988
-288995
-275899
-262959
-250407
-238123
-225870
-213595
-201454
-189683
-178312
-167139
-156046
-145119
-134554
-124473
-114793
-105354
-96134.4
-87272.4
-78944.8
-71195.3
-63837.4
-56749
-50025.7
-43838.6
-38299.2
-33165.3
-28484.5
-24050.2
-19740
-17338.4
-13380.3
-7189.71
-12491.8
-9652.76
1124.84
-7093.15
-2929.22
15729.3
-16841
-4065.84
5573.82
-2783.65
4031.96
-951.005
8894.66
-3071.6
773.218
6073.24
1160.59
396.439
9906.56
-6121.05
437.425
19421.7
-12801.5
-22771.6
-8069.18
26412.7
10717.3
-15181.9
26316
7780.57
-44470.9
10504.4
47236.7
-12437.6
-38598.9
10548.2
51803.2
-42472.1
-12604.6
29779.4
6118.42
-40615
9572.48
49569.9
-34485.1
-21064.7
29518
17365.4
-41178.7
4981.09
32636.8
-7169.83
-33031.4
15547.5
36934.9
-15479.4
-27910.6
4799.97
30003.5
-19489.7
-16525
14535.4
16928.1
-25118.5
-115.888
15080.4
1326.7
-17964.2
3745.94
16871.7
-4878.27
-11409.6
1683.34
13000.6
-8866.47
-6811.07
8647.3
9910.86
-12686.9
-3744.76
7237.37
8056.03
-11778
-2180.76
6604.94
2038.96
-7391.03
172.111
6591.5
-2080.12
-5280.83
1972.71
6100.76
-3985.94
-3249.05
3835.72
6837.73
-7718.57
-2894.1
8731.49
230.891
-5922.49
2406.15
6547.62
-5111.33
-2972.81
7562.25
956.245
-7534.78
2896.34
7189.73
-4436.19
-6272.02
4203.97
7599.59
-8070.6
-3398.13
7858.51
-2349.19
-4680.26
3415.48
4364.83
-5603.18
-5707.23
9411.35
3872.32
-13057.4
3446.42
10523.5
-5001.12
-9942.04
7142.85
11022.4
-12534.6
-4120.28
9536.24
674.225
-6332.69
-5160.49
13671.4
6967.11
-16138.1
-6630.74
15593.7
7805.94
-16881.5
3359.84
7632.65
-3266.74
-5193.92
7568.53
324.881
-6289.74
3515.13
5794.44
-6878.61
-2445.69
8675.01
-4636.63
-6808.09
13884.1
-3105.82
-9486.71
5997.81
7406.5
-10194.4
1120.07
5258.46
-2239.07
-3865.13
3774.36
1537.99
-3407.4
1534.89
3469.22
-5212.74
1694.64
3098.32
-1266.2
-2295.39
3272.64
263.611
-1111.9
793.022
1332.86
-967.94
435.91
734.9
-726.113
576.784
1127.91
-718.378
-241.995
1301.44
-717.794
-472.041
1679.9
117.973
-1712.35
1920.58
326.523
-1628.46
2036.43
-1339.33
645.612
970.384
-1460.06
1041.07
-527.958
1859.21
-1491.36
1436.97
1157.93
-1597.26
816.797
1756.22
-1639.67
851.516
1751.28
-1514.65
783.575
1836.09
-1279.75
-301.265
1222.26
1980.68
-1410.15
-1968.31
5278.11
-1227.56
-1179.11
-1220.28
2813.23
195.269
-2777.78
2080.12
-1295.22
2824.99
-1686.19
-54.7304
2612.87
-1334.09
-1997.97
2779.33
2089.26
-3385.55
1251.09
1494.28
-4471.04
11838.7
-6223.83
841.491
-2709.7
-28.3479
4650.52
-3745.22
-2798.62
7063.96
-3250.86
943.62
2417.27
-22780.2
38844.2
-10790.2
-8995.59
-1584.09
11723.3
-1606.2
-6436
11002.5
-670.218
-29396
15414.1
49547.7
-57956.7
-3046.25
-95979
113335
-340293
512913
-1.26318e+06
1.76263e+06
-397345
-300482
4525.69
-17951.6
-33273
35419.1
5900.32
-10517
-30421.4
14750.4
36976.1
4055.84
-21331.4
16844
23918.4
4570.84
-8675.8
-6975.85
4449.46
-11955.4
-2036.33
14384.2
-5255.92
-4689.03
9846.69
-839.924
-5453.69
1476.97
3246.47
-2911.14
-2870.82
-1127.76
1268.92
-2352.28
6989.65
2957.77
-3006.86
-5803.2
-1821.09
3894.93
5478.05
-5900.48
-5427.7
11630.3
808.854
-10013.7
959.614
7084.15
2196.19
219.7
1354.14
399.694
-2587.87
2942.82
3628.3
1504.02
1966.3
1075.98
2746.77
606.292
-1056.47
1148.91
255.495
-1957.45
-2203.45
395.008
-1606.88
1251.27
-2337.07
-3923.05
6575.78
219.711
-6753.53
5140.73
618.415
-2250.3
-1638.81
5415.04
2955.99
-4755.08
792.352
3352.38
-240.484
21.5325
1378.46
866.851
1161.2
-1470.98
2742.83
-1914.84
2560.33
-389.092
-1300.01
3221.26
-136.994
-1689.52
1110.32
3882.95
-1660.08
6175.17
-2057.8
-3388.7
6915.15
923.767
-46.3458
2636.92
3513.6
1104.64
-3215.61
803.663
8274.33
2679.2
-6069.59
-8070.5
10221.3
2489.4
-989.296
-3880.37
-6165.65
7557.93
8305.58
-3.34586
-14275.2
424.615
8771.44
-2013.65
-5572.25
-5990.49
11252.8
7800.18
-6033.32
-11169.4
10630.1
7081.89
-2723.14
461.006
5354.85
1893.43
-4685.65
-2936.37
1101.86
14835.1
499.752
-13508.4
6632.44
14537
-8678.21
-1632.36
-321.701
5296.39
10029.5
-7186.75
-14224.1
11315.1
16627.5
-11083.4
-11867.9
9584.34
3160.89
-451.925
590.792
-4165.09
-5044.46
19783.3
-4018.94
-12540.5
5527.59
6711.6
1672.49
-1919.13
-2866.95
-7112.98
12785.5
3757.58
-12767.4
-4590.02
12440.5
1566.85
-8535.4
-5478.19
7890.71
10310
3062.43
-12733.9
2684.41
34422.8
46257.1
-24300.4
570.917
54816.1
137287
172407
58730.6
263249
485480
544659
714206
855978
935476
936338
891599
808486
680150
533229
391617
271350
166720
92040.3
46732.8
27524.3
17922.5
11327
3718.81
)
;

boundaryField
{
    sides
    {
        type            calculated;
        value           nonuniform List<scalar> 2(3718.81 2.78892e-06);
    }
    empty
    {
        type            empty;
    }
}


// ************************************************************************* //
