/*--------------------------------*- C++ -*----------------------------------*\
  =========                 |
  \\      /  F ield         | OpenFOAM: The Open Source CFD Toolbox
   \\    /   O peration     | Website:  https://openfoam.org
    \\  /    A nd           | Version:  9
     \\/     M anipulation  |
\*---------------------------------------------------------------------------*/
FoamFile
{
    format      ascii;
    class       surfaceScalarField;
    location    "0.01";
    object      ddtCorrDdt0(phi);
}
// * * * * * * * * * * * * * * * * * * * * * * * * * * * * * * * * * * * * * //

dimensions      [1 0 -2 0 0 0 0];

internalField   nonuniform List<scalar> 
999
(
-3.2674e-08
-5.13568e-08
-6.28983e-08
-3.09279e-08
-7.25078e-08
-2.38705e-08
-5.7262e-08
-6.29076e-08
-4.15135e-08
-1.10636e-08
8.11822e-08
6.25675e-08
1.53368e-08
3.3669e-08
2.08101e-08
2.1453e-08
-4.49922e-08
-5.77242e-08
-4.21772e-08
-2.48757e-08
-9.85235e-09
1.06284e-08
1.3142e-08
-1.10208e-08
5.65302e-08
4.00646e-08
1.85425e-08
6.10962e-08
1.23291e-08
-2.21834e-08
5.08803e-08
2.92204e-08
7.04361e-10
5.43941e-09
3.7146e-08
5.64271e-08
4.58165e-08
2.49844e-08
-2.76269e-08
-2.01037e-08
8.15821e-09
6.57115e-08
4.65233e-08
3.01173e-08
4.44326e-08
3.11191e-08
3.50184e-08
-8.99736e-08
-1.6215e-07
-1.3355e-07
-7.91012e-08
-6.38787e-08
-2.48103e-08
-2.1083e-08
1.64025e-08
-2.43087e-08
-5.82306e-08
-2.35429e-08
1.16823e-08
8.89944e-09
6.87947e-08
8.65108e-08
1.06702e-07
1.59547e-07
3.67656e-07
6.72151e-07
1.349e-06
2.6289e-06
5.03874e-06
9.60489e-06
1.83586e-05
3.46713e-05
6.5011e-05
0.000121165
0.000224663
0.000413945
0.000758174
0.00138004
0.00249645
0.00448722
0.00801363
0.014218
0.0250585
0.0438669
0.0762672
0.131676
0.225729
0.384176
0.649043
1.08832
1.81098
2.99004
4.8975
7.95661
12.8191
20.4773
32.4252
50.8844
79.1176
121.852
185.838
280.573
419.198
619.58
905.54
1308.17
1867.1
2631.48
3660.46
5022.62
6794.09
9054.77
11882.5
15345
19490.1
24335.3
29858
35988.7
42609.1
49556.5
56634.7
63631.4
70337.1
76565.5
82167.7
87041.3
91133.6
94455.5
97068.4
99060.7
100530
101570
102264
102685
102889
102924
102825
102622
102336
101986
101584
101143
100669
100171
99652.6
99119.1
98573.4
98018.5
97456.3
96888.7
96317
95742.2
95165.2
94586.7
94007.2
93427
92846.4
92265.6
91684.9
91104.2
90523.7
89943.3
89363.2
88783.3
88203.6
87624.1
87044.7
86465.6
85886.6
85307.8
84729.1
84150.7
83572.4
82994.3
82416.4
81838.9
81261.7
80684.8
80108.3
79532.4
78956.9
78382.1
77808
77234.6
76662.1
76090.4
75519.8
74950.2
74381.7
73814.5
73248.5
72683.9
72120.8
71559.1
70999.1
70440.7
69884
69329
68775.9
68224.7
67675.5
67128.2
66583
66039.9
65498.9
64960.1
64423.5
63889.2
63357.2
62827.4
62300.1
61775.1
61252.5
60732.3
60214.6
59699.4
59186.6
58676.4
58168.6
57663.5
57160.8
56660.8
56163.3
55668.3
55176
54686.3
54199.2
53714.7
53232.9
52753.6
52277
51803
51331.7
50863
50396.9
49933.5
49472.8
49014.6
48559.1
48106.3
47656.1
47208.6
46763.6
46321.4
45881.7
45444.7
45010.3
44578.6
44149.4
43722.9
43299
42877.7
42459
42043
41629.5
41218.6
40810.3
40404.6
40001.4
39600.8
39202.8
38807.4
38414.5
38024.1
37636.3
37251
36868.3
36488
36110.3
35735.1
35362.4
34992.2
34624.5
34259.2
33896.5
33536.2
33178.3
32822.9
32470
32119.4
31771.3
31425.7
31082.4
30741.6
30403.1
30067
29733.4
29402
29073.1
28746.5
28422.3
28100.4
27780.8
27463.6
27148.7
26836.1
26525.8
26217.8
25912.1
25608.6
25307.4
25008.5
24711.9
24417.5
24125.3
23835.3
23547.6
23262.1
22978.8
22697.7
22418.7
22142
21867.4
21595
21324.8
21056.5
20790.8
20526.4
20265.7
20004.2
19750
19488.9
19244.7
18979.6
18750.3
18476.5
18263.9
17986.2
17774.8
17522.9
17267.1
17096.9
16742
16676
16267.5
16204.5
15901
15605.8
15606.2
15063.6
15169.1
14778.7
14495.2
14605.5
13948.1
14077.9
13851.6
13303
13631.4
13060.5
12801.6
13087.2
12322.9
12336.9
12495.3
11665.9
11864.7
11917
11062.6
11357.7
11374.7
10495
10809.3
10890.7
9971.1
10214
10452.2
9506.92
9563.6
10018.9
9146.66
8883.07
9525.17
8913.95
8244.98
8885.43
8758.73
7781.06
8083.81
8526.97
7606.2
7257.86
8000.73
7652.3
6707.47
7118.35
7576.2
6661.07
6207.49
6973.02
6878.41
5835.11
5925.98
6664.74
6114.64
5215.32
5679.57
6234.1
5417.47
4724.55
5383.4
5764.82
4829.94
4281.8
5025.09
5320.74
4349.15
3846.63
4605.42
4922.81
3977.16
3408.41
4120.75
4565.44
3718.98
2992.55
3563.19
4203.72
3575.82
2659.26
2943.27
3763.79
3515.04
2487.31
2326.88
3169
3430.36
2529.92
1857.45
2414.23
3147.16
2720.66
1715.17
1653.29
2518.91
2809.84
1958.79
1209.23
1626.99
2456.59
2329.08
1347.06
903.281
1580.66
2279.61
1869.06
877.163
685.004
1484.36
2033.66
1486.85
563.954
478.885
1272.32
1798.97
1271.84
323.868
197.283
1036.69
1632.94
1107.12
141.336
-11.3153
751.185
1354.92
1047.52
207.488
-236.092
245.175
1119.47
1198.77
254.702
-483.365
-91.5733
820.384
1114.8
471.345
-391.831
-476.773
318.884
993.857
729.945
-127.99
-623.723
-246.201
586.369
926.744
354.882
-511.338
-723.61
-7.7723
883.372
850.893
-164.515
-910.367
-482.76
500.598
904.069
384.457
-495.015
-816.735
-191.852
612.646
894.875
94.0162
-694.146
-647.165
57.9742
304.954
741.153
485.649
-579.193
-479.889
-144.05
70.7701
231.07
283.572
126.704
-155.965
-22.9774
74.0994
-104.72
240.467
365.5
-449.471
242.505
139.947
-841.684
-254.048
211.613
933.438
-802.077
265.156
1002.15
-1169.74
-319.144
855.115
939.255
-2125.75
-125.592
1019.05
308.311
-1081.13
272.828
1229.44
-1649.47
-138.713
1136.7
318.319
-1113.33
83.7923
1245.41
-659.346
-321.807
555.54
671.487
-1356.65
-186.447
1221.62
603.966
-1478.36
-161.54
782.565
228.549
-798.307
-8.31295
666.659
-36.2669
-237.791
182.052
538.353
-624.227
-105.704
458.9
286.136
-566.231
-37.165
323.09
157.128
-384.46
18.9547
361.723
35.1658
-88.0732
45.7743
287.612
-10.0758
-73.9332
74.6584
262.783
-138.933
-33.9898
142.687
146.929
-204.396
-15.2058
241.734
113.824
-217.129
21.4985
311.128
45.9764
-49.7454
105.885
242.619
-134.953
-13.1938
324.628
77.3802
-71.8868
129.128
175.458
-124.104
-47.0552
268.695
163.189
-274.35
-19.4846
395.525
66.8138
-54.7854
101.835
184.891
-118.722
1.04326
374.207
68.5354
-168.684
160.399
204.931
-93.4308
-114.529
396.746
232.301
-417.181
-36.4332
596.111
65.7866
-112.118
163.594
207.123
45.1301
-287.467
173.643
456.726
-58.1036
-183.077
253.32
280.871
-55.033
-129.416
457.435
163.547
-152.268
112.404
194.669
-38.7369
0.944692
410.407
120.279
-44.6365
271.076
197.963
-190.633
174.435
333.625
-354.575
15.3826
507.225
84.7009
-28.4175
315.21
186.616
-93.5922
87.4022
206.102
60.103
74.6296
314.754
186.889
122.923
336.836
191.36
-10.2073
119.382
172.368
129.947
157.818
227.147
162.222
118.18
202.339
181.664
149.111
217.025
160.771
138.382
244.966
269.916
243.741
288.131
226.068
123.671
149.448
263.652
251.356
361.305
358.391
259.811
262.475
120.138
60.7116
135.855
293.922
414.789
482.121
581.386
414.702
276.496
261.756
130.473
141.139
348.581
447.779
574.846
715.702
683.976
459.892
402.272
324.225
94.4639
184.377
219.895
896.382
984.713
737.722
686.427
464.413
163.99
166.214
269.08
699.967
1057.2
1161.42
1467.87
1371.53
1091.88
1002.39
711.806
444.886
239.977
182.739
519.183
516.292
2439.51
2652.79
2617.52
2420.95
2257.59
1580.37
1113.45
722.89
628.039
458.651
175.225
914.28
1730.61
6261.67
6447.28
6647.45
6581.88
6063.16
4405.68
4156.6
4017.21
2120.51
972.373
1324.81
811.521
746.693
-834.057
7401.79
-1527.41
63849.1
39527.7
559297
668783
610552
561565
494978
425456
362985
304659
252204
205852
166870
134837
106564
82898
64324.7
50305.4
37855.2
28196.4
20790.2
15260
11050.7
7664.89
5763.49
3906.35
2359.59
1745.81
1106.88
494.719
247.955
296.295
3.8065
-16.65
-227.584
-70.2614
-128.051
19.6095
16.6599
-48.9645
-273.06
-299.568
-259.633
-155.354
-312.866
-410.358
-257.156
-106.302
-428.631
-310.79
-30.2673
-54.7407
-66.8276
-64.7925
9.36378
-70.0371
-24.0141
96.5499
50.8133
106.794
124.414
133.841
110.196
52.6248
38.5842
48.9137
-1.82006
-26.136
-24.8201
-17.905
-147.166
-92.0681
-218.921
-78.1715
-15.3582
-138.006
-51.9574
65.8742
-22.4474
-13.7062
72.8571
136.783
56.6352
-17.3357
133.428
48.7321
-8.74484
12.2333
8.05673
11.8163
-103.684
-77.2935
-69.404
-57.4974
25.8186
-123.712
3.22127
13.5794
-56.1865
-1.0293
98.4248
83.6706
123.522
175.166
-113.614
54.1494
150.849
-68.0358
23.2197
43.2217
19.263
-192.955
-125.212
21.9447
51.2535
-48.1544
-231.275
0.527203
117.256
24.4297
-22.8419
-37.0905
146.911
260.677
187.851
-22.562
-240.106
280.656
76.416
-59.4081
-160.513
7.83647
132.537
11.2659
-350.429
-75.4832
159.217
31.5379
-81.6628
35.8721
73.7831
-127.302
-29.026
36.3725
217.079
382.763
-315.717
-34.2878
350.398
69.0144
-53.3933
-19.2745
29.6765
-84.1323
-54.305
-517.601
-262.734
523.617
73.7084
-414.671
-58.3756
68.2603
41.3666
3.94145
191.025
8.66144
236.009
310.58
-311.947
-80.0599
243.159
60.5902
17.7168
-146.158
-247.891
-53.5173
95.5282
-84.0228
-254.005
225.589
108.835
-37.7312
-197.732
142.822
151.671
273.02
10.007
-46.3726
239.955
555.16
-255.046
-871.739
-246.619
360.683
1051.28
-3294.34
-1936.44
-614.995
-1439.37
-2416.19
-2176.32
-2176.96
-2376.97
-2318.54
-2166.42
-1989.76
-1247.6
-766.221
-886.152
-352.012
183.729
24.8234
-189.799
-136.934
89.1312
101.504
)
;

boundaryField
{
    sides
    {
        type            calculated;
        value           nonuniform List<scalar> 2(11.4829 1.17741e-08);
    }
    empty
    {
        type            empty;
        value           nonuniform List<scalar> 0();
    }
}


// ************************************************************************* //
