/*--------------------------------*- C++ -*----------------------------------*\
  =========                 |
  \\      /  F ield         | OpenFOAM: The Open Source CFD Toolbox
   \\    /   O peration     | Website:  https://openfoam.org
    \\  /    A nd           | Version:  9
     \\/     M anipulation  |
\*---------------------------------------------------------------------------*/
FoamFile
{
    format      ascii;
    class       volScalarField;
    location    "0.01";
    object      mag(U);
}
// * * * * * * * * * * * * * * * * * * * * * * * * * * * * * * * * * * * * * //

dimensions      [0 1 -1 0 0 0 0];

internalField   nonuniform List<scalar> 
1000
(
5.22072e-14
4.77542e-13
9.45104e-13
1.08944e-12
1.11938e-12
1.46948e-12
1.12476e-12
1.63685e-12
8.20728e-13
9.34355e-13
3.45489e-14
1.5048e-13
7.67753e-13
5.69672e-13
1.11785e-12
7.96159e-13
7.42417e-13
6.2188e-14
1.42034e-13
3.30901e-13
2.27255e-13
4.67561e-13
5.89634e-13
1.01958e-12
7.78501e-13
9.52013e-13
8.52205e-14
1.5048e-13
5.42033e-13
6.78693e-13
1.1309e-12
1.50403e-12
1.50326e-12
1.59002e-12
1.32975e-12
1.77581e-12
1.88483e-12
2.09596e-12
1.9547e-12
2.33243e-12
2.15124e-12
1.81804e-12
1.76813e-12
1.65835e-12
1.80499e-12
1.8856e-12
2.2403e-12
2.65259e-12
1.93243e-12
1.95239e-12
1.32744e-12
1.74664e-12
1.74741e-12
2.10595e-12
2.10748e-12
2.07754e-12
1.55086e-12
1.40576e-12
1.32821e-12
1.68522e-12
1.92783e-12
2.02533e-12
2.04299e-12
2.44069e-12
4.08521e-12
7.24989e-12
1.34464e-11
2.54433e-11
4.85181e-11
9.2194e-11
1.75144e-10
3.32832e-10
6.29266e-10
1.18367e-09
2.21622e-09
4.12512e-09
7.63567e-09
1.40491e-08
2.56954e-08
4.67077e-08
8.43812e-08
1.51486e-07
2.70233e-07
4.78959e-07
8.43363e-07
1.47517e-06
2.56294e-06
4.42236e-06
7.57779e-06
1.28929e-05
2.17784e-05
3.65185e-05
6.07787e-05
0.000100387
0.000164525
0.000267511
0.000431451
0.000690125
0.00109458
0.00172108
0.00268225
0.00414231
0.00633757
0.00960352
0.0144093
0.0214012
0.031454
0.0457317
0.0657523
0.0934551
0.131261
0.182114
0.249502
0.33742
0.45029
0.592811
0.769736
0.985599
1.24441
1.54932
1.90239
2.30438
2.75466
3.25128
3.79115
4.37026
4.984
5.62753
6.29614
6.9855
7.69186
8.41204
9.14344
9.88396
10.6319
11.386
12.1451
12.9084
13.6753
14.4453
15.2179
15.9927
16.7696
17.5483
18.3286
19.1104
19.8936
20.6781
21.4638
22.2507
23.0387
23.8277
24.6177
25.4088
26.2008
26.9937
27.7876
28.5824
29.3781
30.1746
30.972
31.7703
32.5694
33.3693
34.1699
34.9714
35.7736
36.5766
37.3802
38.1846
38.9897
39.7954
40.6018
41.4089
42.2165
43.0248
43.8336
44.643
45.4529
46.2633
47.0743
47.8857
48.6976
49.51
50.3228
51.136
51.9496
52.7637
53.5781
54.3928
55.2079
56.0234
56.8391
57.6552
58.4716
59.2882
60.1052
60.9224
61.7398
62.5575
63.3754
64.1936
65.012
65.8306
66.6494
67.4683
68.2875
69.1069
69.9264
70.7461
71.566
72.386
73.2061
74.0264
74.8469
75.6675
76.4882
77.309
78.13
78.9511
79.7723
80.5936
81.415
82.2365
83.0581
83.8798
84.7016
85.5235
86.3454
87.1675
87.9896
88.8118
89.6341
90.4565
91.2789
92.1014
92.9239
93.7465
94.5692
95.3919
96.2147
97.0375
97.8604
98.6833
99.5063
100.329
101.152
101.975
102.799
103.622
104.445
105.268
106.092
106.915
107.738
108.562
109.385
110.208
111.032
111.855
112.679
113.502
114.326
115.149
115.973
116.796
117.62
118.444
119.267
120.091
120.914
121.738
122.562
123.385
124.209
125.032
125.856
126.68
127.503
128.327
129.15
129.974
130.798
131.621
132.445
133.268
134.092
134.915
135.739
136.562
137.386
138.209
139.033
139.856
140.679
141.503
142.326
143.15
143.973
144.796
145.619
146.443
147.266
148.089
148.912
149.735
150.558
151.381
152.204
153.027
153.85
154.673
155.496
156.318
157.141
157.964
158.786
159.609
160.431
161.254
162.076
162.899
163.721
164.543
165.365
166.187
167.009
167.831
168.653
169.475
170.297
171.118
171.94
172.761
173.583
174.404
175.225
176.047
176.868
177.689
178.51
179.331
180.151
180.972
181.793
182.613
183.433
184.254
185.074
185.894
186.714
187.533
188.353
189.173
189.992
190.811
191.63
192.449
193.268
194.087
194.905
195.724
196.542
197.36
198.178
198.996
199.814
200.631
201.448
202.265
203.082
203.899
204.715
205.532
206.348
207.163
207.979
208.794
209.609
210.424
211.239
212.053
212.867
213.681
214.495
215.308
216.121
216.934
217.746
218.558
219.369
220.181
220.992
221.802
222.612
223.422
224.232
225.04
225.849
226.657
227.465
228.272
229.079
229.885
230.69
231.495
232.3
233.104
233.907
234.71
235.512
236.313
237.114
237.913
238.713
239.511
240.308
241.105
241.901
242.696
243.49
244.283
245.075
245.866
246.655
247.444
248.231
249.018
249.802
250.586
251.368
252.148
252.927
253.705
254.48
255.254
256.026
256.796
257.564
258.33
259.094
259.855
260.614
261.37
262.124
262.874
263.622
264.367
265.108
265.846
266.58
267.311
268.037
268.759
269.477
270.19
270.899
271.602
272.3
272.992
273.678
274.357
275.03
275.696
276.355
277.006
277.649
278.283
278.908
279.524
280.13
280.726
281.311
281.885
282.446
282.996
283.532
284.055
284.564
285.059
285.539
286.003
286.451
286.883
287.298
287.696
288.076
288.438
288.782
289.108
289.415
289.704
289.974
290.226
290.46
290.676
290.875
291.057
291.222
291.372
291.506
291.627
291.733
291.827
291.909
291.979
292.041
292.093
292.137
292.174
292.203
292.225
292.244
292.261
292.274
292.283
292.289
292.293
292.293
292.294
292.295
292.295
292.294
292.293
292.292
292.29
292.289
292.287
292.285
292.285
292.284
292.282
292.279
292.277
292.273
292.27
292.269
292.267
292.263
292.26
292.259
292.257
292.253
292.251
292.25
292.247
292.243
292.242
292.24
292.236
292.234
292.234
292.231
292.228
292.227
292.226
292.223
292.221
292.22
292.219
292.216
292.214
292.214
292.213
292.211
292.21
292.21
292.209
292.207
292.206
292.206
292.205
292.203
292.203
292.203
292.202
292.201
292.201
292.2
292.199
292.199
292.199
292.198
292.198
292.197
292.197
292.197
292.196
292.196
292.196
292.196
292.195
292.195
292.195
292.195
292.195
292.195
292.195
292.194
292.194
292.194
292.194
292.193
292.193
292.193
292.193
292.192
292.193
292.192
292.192
292.192
292.192
292.192
292.191
292.192
292.192
292.191
292.191
292.191
292.191
292.191
292.191
292.191
292.191
292.191
292.191
292.191
292.191
292.191
292.191
292.191
292.191
292.191
292.191
292.191
292.191
292.191
292.191
292.191
292.191
292.191
292.191
292.191
292.191
292.191
292.191
292.191
292.191
292.192
292.191
292.191
292.191
292.191
292.191
292.191
292.191
292.191
292.191
292.191
292.191
292.191
292.191
292.191
292.191
292.191
292.191
292.191
292.191
292.191
292.191
292.191
292.191
292.192
292.191
292.191
292.191
292.191
292.191
292.191
292.191
292.191
292.191
292.191
292.191
292.191
292.191
292.191
292.191
292.191
292.191
292.191
292.191
292.191
292.191
292.191
292.191
292.191
292.191
292.191
292.191
292.191
292.191
292.191
292.191
292.191
292.191
292.191
292.191
292.191
292.191
292.191
292.191
292.191
292.191
292.191
292.191
292.191
292.191
292.191
292.191
292.191
292.191
292.191
292.191
292.191
292.191
292.191
292.191
292.191
292.191
292.191
292.19
292.19
292.191
292.191
292.19
292.19
292.19
292.189
292.189
292.189
292.189
292.189
292.189
292.189
292.189
292.189
292.189
292.189
292.189
292.189
292.189
292.189
292.189
292.19
292.19
292.19
292.189
292.189
292.189
292.189
292.189
292.189
292.189
292.189
292.189
292.191
292.193
292.193
292.191
292.19
292.189
292.189
292.189
292.189
292.189
292.189
292.19
292.191
292.195
292.205
292.227
292.257
292.327
292.411
292.681
292.761
292.379
292.089
292.023
292.045
292.075
292.103
292.124
292.14
292.154
292.165
292.173
292.175
292.177
292.18
292.182
292.181
292.181
292.182
292.183
292.183
292.184
292.185
292.185
292.185
292.185
292.185
292.185
292.186
292.186
292.186
292.186
292.186
292.187
292.187
292.187
292.187
292.187
292.187
292.187
292.187
292.187
292.187
292.187
292.187
292.186
292.186
292.186
292.186
292.186
292.185
292.185
292.185
292.185
292.185
292.185
292.184
292.184
292.184
292.184
292.184
292.183
292.184
292.184
292.184
292.184
292.184
292.184
292.184
292.185
292.185
292.186
292.186
292.186
292.186
292.187
292.187
292.187
292.188
292.187
292.187
292.187
292.187
292.187
292.187
292.187
292.187
292.187
292.187
292.186
292.186
292.186
292.186
292.185
292.185
292.185
292.184
292.184
292.183
292.183
292.182
292.182
292.181
292.181
292.18
292.179
292.179
292.178
292.177
292.176
292.176
292.176
292.176
292.175
292.175
292.176
292.176
292.176
292.176
292.177
292.178
292.178
292.178
292.178
292.18
292.181
292.181
292.181
292.182
292.183
292.183
292.183
292.183
292.184
292.183
292.183
292.182
292.182
292.181
292.18
292.18
292.18
292.179
292.178
292.176
292.176
292.176
292.174
292.173
292.173
292.172
292.172
292.171
292.171
292.172
292.172
292.171
292.171
292.172
292.172
292.172
292.172
292.172
292.172
292.172
292.172
292.171
292.172
292.172
292.171
292.171
292.17
292.171
292.172
292.172
292.171
292.172
292.174
292.174
292.174
292.175
292.177
292.178
292.177
292.176
292.176
292.174
292.169
292.16
292.146
292.126
292.09
292.023
291.912
291.753
291.506
291.142
290.668
290.08
289.395
288.648
287.884
287.148
286.48
285.913
285.462
285.128
284.897
284.751
284.668
284.624
284.604
284.596
284.593
)
;

boundaryField
{
    sides
    {
        type            calculated;
        value           nonuniform List<scalar> 2(284.593 5.22072e-14);
    }
    empty
    {
        type            empty;
    }
}


// ************************************************************************* //
