/*--------------------------------*- C++ -*----------------------------------*\
  =========                 |
  \\      /  F ield         | OpenFOAM: The Open Source CFD Toolbox
   \\    /   O peration     | Website:  https://openfoam.org
    \\  /    A nd           | Version:  9
     \\/     M anipulation  |
\*---------------------------------------------------------------------------*/
FoamFile
{
    format      ascii;
    class       volScalarField;
    location    "0.01";
    object      rho;
}
// * * * * * * * * * * * * * * * * * * * * * * * * * * * * * * * * * * * * * //

dimensions      [1 -3 0 0 0 0 0];

internalField   nonuniform List<scalar> 
1000
(
0.997574
0.997574
0.997574
0.997574
0.997574
0.997574
0.997574
0.997574
0.997574
0.997574
0.997574
0.997574
0.997574
0.997574
0.997574
0.997574
0.997574
0.997574
0.997574
0.997574
0.997574
0.997574
0.997574
0.997574
0.997574
0.997574
0.997574
0.997574
0.997574
0.997574
0.997574
0.997574
0.997574
0.997574
0.997574
0.997574
0.997574
0.997574
0.997574
0.997574
0.997574
0.997574
0.997574
0.997574
0.997574
0.997574
0.997574
0.997574
0.997574
0.997574
0.997574
0.997574
0.997574
0.997574
0.997574
0.997574
0.997574
0.997574
0.997574
0.997574
0.997574
0.997574
0.997574
0.997574
0.997574
0.997574
0.997574
0.997574
0.997574
0.997574
0.997574
0.997574
0.997574
0.997574
0.997574
0.997574
0.997574
0.997574
0.997574
0.997574
0.997574
0.997574
0.997574
0.997574
0.997574
0.997574
0.997574
0.997574
0.997574
0.997574
0.997574
0.997574
0.997574
0.997574
0.997574
0.997574
0.997573
0.997572
0.997571
0.99757
0.997567
0.997563
0.997558
0.997549
0.997536
0.997518
0.997492
0.997454
0.997401
0.997328
0.997228
0.997094
0.996915
0.996682
0.996383
0.996006
0.995536
0.994964
0.994277
0.993468
0.992531
0.991465
0.990272
0.988957
0.987529
0.985998
0.984378
0.982682
0.980923
0.979111
0.977258
0.975372
0.97346
0.971527
0.969579
0.967617
0.965646
0.963667
0.961683
0.959693
0.957701
0.955706
0.95371
0.951712
0.949713
0.947714
0.945715
0.943717
0.941718
0.93972
0.937723
0.935727
0.933731
0.931737
0.929743
0.927751
0.92576
0.92377
0.921781
0.919794
0.917807
0.915823
0.913839
0.911857
0.909877
0.907898
0.905921
0.903945
0.901971
0.899999
0.898029
0.89606
0.894093
0.892128
0.890165
0.888204
0.886245
0.884289
0.882334
0.880382
0.878431
0.876483
0.874538
0.872595
0.870654
0.868715
0.866779
0.864846
0.862915
0.860987
0.859061
0.857138
0.855218
0.8533
0.851385
0.849473
0.847563
0.845657
0.843753
0.841852
0.839954
0.838059
0.836167
0.834277
0.832391
0.830508
0.828627
0.82675
0.824875
0.823004
0.821135
0.81927
0.817408
0.815548
0.813692
0.811839
0.809989
0.808142
0.806298
0.804457
0.802619
0.800785
0.798953
0.797125
0.7953
0.793478
0.791659
0.789843
0.78803
0.786221
0.784414
0.782611
0.780811
0.779014
0.77722
0.77543
0.773642
0.771858
0.770077
0.768299
0.766524
0.764752
0.762984
0.761218
0.759456
0.757697
0.755941
0.754189
0.752439
0.750693
0.74895
0.74721
0.745473
0.743739
0.742009
0.740281
0.738557
0.736836
0.735118
0.733404
0.731692
0.729984
0.728278
0.726576
0.724877
0.723182
0.721489
0.7198
0.718113
0.71643
0.71475
0.713073
0.711399
0.709729
0.708061
0.706397
0.704735
0.703077
0.701422
0.69977
0.698122
0.696476
0.694833
0.693194
0.691558
0.689925
0.688295
0.686668
0.685044
0.683423
0.681805
0.680191
0.678579
0.676971
0.675366
0.673763
0.672164
0.670568
0.668975
0.667385
0.665799
0.664215
0.662634
0.661057
0.659482
0.657911
0.656342
0.654777
0.653215
0.651655
0.650099
0.648546
0.646996
0.645449
0.643905
0.642364
0.640826
0.639292
0.637759
0.636231
0.634704
0.633184
0.63166
0.630151
0.628624
0.627135
0.625593
0.624142
0.622562
0.621171
0.619535
0.618215
0.61653
0.615246
0.613578
0.612237
0.61069
0.6092
0.607824
0.606209
0.604893
0.603332
0.601881
0.60051
0.598918
0.59759
0.5961
0.594594
0.59328
0.591728
0.590319
0.588963
0.587411
0.58606
0.584666
0.583137
0.581813
0.580401
0.578894
0.577585
0.576169
0.574679
0.573374
0.571974
0.570491
0.569183
0.567812
0.566331
0.565013
0.563677
0.562208
0.560862
0.559565
0.558121
0.556739
0.555465
0.554073
0.552653
0.551374
0.550049
0.548621
0.547297
0.546031
0.544642
0.543261
0.542003
0.540694
0.539293
0.537983
0.536737
0.535389
0.534018
0.532759
0.5315
0.530138
0.528808
0.527577
0.526304
0.524948
0.523654
0.522437
0.521159
0.519818
0.518549
0.517344
0.51607
0.514745
0.513494
0.512299
0.511039
0.50973
0.508488
0.507305
0.506068
0.504775
0.503536
0.502364
0.501155
0.499883
0.498642
0.497475
0.4963
0.495057
0.493814
0.492644
0.491498
0.490296
0.489061
0.487878
0.486751
0.485597
0.484388
0.483192
0.482063
0.480953
0.479792
0.4786
0.477454
0.476364
0.475262
0.474108
0.472951
0.47185
0.470788
0.4697
0.468567
0.467448
0.466389
0.465356
0.46429
0.463189
0.462112
0.461091
0.460091
0.459061
0.458001
0.456964
0.455983
0.455029
0.454046
0.453032
0.452042
0.451111
0.450207
0.449281
0.448331
0.447399
0.446515
0.44567
0.444828
0.443957
0.443082
0.442261
0.441499
0.440742
0.439962
0.43918
0.438435
0.437749
0.437098
0.436437
0.435761
0.435111
0.434518
0.433973
0.433445
0.432907
0.432371
0.431876
0.431442
0.43105
0.430664
0.430261
0.429871
0.429544
0.429281
0.429033
0.428767
0.428502
0.428271
0.428094
0.427961
0.427827
0.427675
0.427526
0.427412
0.427348
0.427302
0.427242
0.427178
0.427116
0.427065
0.427048
0.427042
0.427029
0.427013
0.426996
0.426982
0.426976
0.426978
0.426983
0.426984
0.426984
0.426981
0.426979
0.426981
0.426984
0.426985
0.426988
0.426993
0.426995
0.426993
0.426995
0.427
0.426999
0.427001
0.427009
0.427011
0.427007
0.427011
0.427019
0.427021
0.427018
0.427023
0.427029
0.427027
0.427029
0.427036
0.427037
0.427034
0.427039
0.427045
0.427043
0.427042
0.427048
0.427051
0.427047
0.427049
0.427055
0.427054
0.427051
0.427052
0.427057
0.427057
0.427055
0.427057
0.42706
0.427059
0.427057
0.427059
0.42706
0.427058
0.427058
0.42706
0.427059
0.427058
0.427057
0.427059
0.427058
0.427056
0.427056
0.427057
0.427056
0.427054
0.427054
0.427054
0.427053
0.427051
0.427051
0.42705
0.427049
0.427048
0.427047
0.427047
0.427045
0.427044
0.427044
0.427043
0.427041
0.42704
0.42704
0.427038
0.427036
0.427036
0.427035
0.427033
0.427031
0.427031
0.427029
0.427027
0.427026
0.427025
0.427022
0.427021
0.427021
0.427019
0.427017
0.427015
0.427015
0.427013
0.427011
0.42701
0.427009
0.427006
0.427004
0.427003
0.427001
0.426998
0.426997
0.426996
0.426993
0.42699
0.42699
0.426988
0.426984
0.426982
0.426982
0.426979
0.426975
0.426975
0.426974
0.42697
0.426967
0.426965
0.426963
0.426959
0.426955
0.426955
0.426954
0.42695
0.426947
0.426947
0.426944
0.426941
0.426938
0.426936
0.426933
0.42693
0.426928
0.426925
0.426921
0.426918
0.426915
0.42691
0.426907
0.426906
0.426901
0.426899
0.426896
0.426892
0.426887
0.426885
0.426882
0.426878
0.426875
0.426872
0.426869
0.426866
0.426863
0.426859
0.426852
0.426847
0.42684
0.426835
0.426832
0.42683
0.426826
0.426821
0.426816
0.426811
0.426806
0.426802
0.426798
0.426792
0.426787
0.426782
0.426777
0.426773
0.426767
0.42676
0.426751
0.426743
0.426736
0.426731
0.426728
0.426722
0.426714
0.426704
0.426693
0.426683
0.426676
0.426672
0.42667
0.426668
0.426662
0.42665
0.426636
0.42662
0.426606
0.426596
0.42659
0.426587
0.426584
0.426577
0.426565
0.426549
0.426529
0.426509
0.426491
0.426479
0.426471
0.426467
0.426463
0.426457
0.426436
0.426408
0.426381
0.426361
0.426347
0.42634
0.426336
0.42633
0.426316
0.426288
0.426252
0.426211
0.42617
0.426133
0.426102
0.42608
0.426065
0.426057
0.426052
0.426043
0.426028
0.425973
0.425896
0.425817
0.425742
0.425676
0.425624
0.425586
0.425563
0.425547
0.425537
0.425526
0.425506
0.425464
0.425322
0.42513
0.424933
0.424737
0.424558
0.4244
0.424276
0.424169
0.424098
0.424052
0.424029
0.424009
0.424004
0.424
0.423914
0.423766
0.422707
0.420395
0.409997
0.390686
0.372127
0.355168
0.340059
0.326955
0.315784
0.306386
0.298584
0.292186
0.286998
0.282834
0.279525
0.276929
0.274915
0.273364
0.272183
0.271297
0.27064
0.270158
0.269807
0.269557
0.269382
0.269259
0.269178
0.269125
0.26909
0.269071
0.26906
0.269056
0.269054
0.269054
0.269057
0.269061
0.269064
0.269065
0.269066
0.269067
0.269071
0.269078
0.269085
0.269094
0.269102
0.269112
0.269121
0.269128
0.269135
0.269143
0.269148
0.269152
0.269155
0.269157
0.269158
0.269158
0.269159
0.269159
0.269158
0.269157
0.269153
0.26915
0.269148
0.269146
0.269145
0.269144
0.269144
0.269144
0.269144
0.269144
0.269147
0.269151
0.269155
0.269158
0.26916
0.269161
0.269162
0.269162
0.269162
0.269162
0.269161
0.269159
0.269157
0.269155
0.269154
0.269153
0.269153
0.269153
0.269153
0.269153
0.269155
0.269158
0.26916
0.269162
0.269163
0.269164
0.269165
0.269165
0.269165
0.269166
0.269164
0.269162
0.269159
0.269157
0.269155
0.269155
0.269154
0.269154
0.269154
0.269155
0.269155
0.269158
0.269161
0.269164
0.269165
0.269166
0.269167
0.269168
0.269168
0.269167
0.269166
0.269165
0.269161
0.269157
0.269153
0.269151
0.269151
0.26915
0.269148
0.269148
0.269148
0.269149
0.26915
0.269151
0.269152
0.269154
0.269154
0.269154
0.269154
0.269155
0.269155
0.269155
0.269155
0.269155
0.269152
0.269148
0.269146
0.269145
0.269144
0.269143
0.269144
0.269145
0.269146
0.269151
0.269156
0.269161
0.269166
0.269168
0.269169
0.26917
0.269171
0.269171
0.26917
0.26917
0.269165
0.26916
0.269157
0.269152
0.269151
0.269151
0.26915
0.26915
0.26915
0.269152
0.269156
0.26916
0.269162
0.269162
0.269163
0.269164
0.269162
0.269161
0.269161
0.26916
0.269158
0.269153
0.269148
0.269145
0.269145
0.269144
0.269144
0.269152
0.26917
0.269195
0.269231
0.269291
0.269402
0.269562
0.269777
0.270099
0.270473
0.270923
0.271429
0.271942
0.272438
0.272924
0.273327
0.273624
0.273891
0.274072
0.274158
0.274217
0.274259
0.27428
0.274285
0.274288
)
;

boundaryField
{
    sides
    {
        type            calculated;
        value           nonuniform List<scalar> 2(0.274288 0.997574);
    }
    empty
    {
        type            empty;
    }
}


// ************************************************************************* //
