/*--------------------------------*- C++ -*----------------------------------*\
  =========                 |
  \\      /  F ield         | OpenFOAM: The Open Source CFD Toolbox
   \\    /   O peration     | Website:  https://openfoam.org
    \\  /    A nd           | Version:  9
     \\/     M anipulation  |
\*---------------------------------------------------------------------------*/
FoamFile
{
    format      ascii;
    class       volScalarField;
    location    "0.038";
    object      p;
}
// * * * * * * * * * * * * * * * * * * * * * * * * * * * * * * * * * * * * * //

dimensions      [1 -1 -2 0 0 0 0];

internalField   nonuniform List<scalar> 
10000
(
12313.3
12313.2
12313.1
12313.1
12313
12312.9
12312.8
12312.8
12312.7
12312.6
12312.5
12312.4
12312.4
12312.3
12312.2
12312.1
12312.1
12312
12311.9
12311.8
12311.7
12311.7
12311.6
12311.5
12311.4
12311.3
12311.3
12311.2
12311.1
12311
12311
12310.9
12310.8
12310.7
12310.6
12310.6
12310.5
12310.4
12310.3
12310.3
12310.2
12310.1
12310
12309.9
12309.9
12309.8
12309.7
12309.6
12309.5
12309.5
12309.4
12309.3
12309.2
12309.2
12309.1
12309
12308.9
12308.8
12308.8
12308.7
12308.6
12308.5
12308.4
12308.4
12308.3
12308.2
12308.1
12308.1
12308
12307.9
12307.8
12307.7
12307.7
12307.6
12307.5
12307.4
12307.3
12307.3
12307.2
12307.1
12307
12307
12306.9
12306.8
12306.7
12306.6
12306.6
12306.5
12306.4
12306.3
12306.2
12306.2
12306.1
12306
12305.9
12305.8
12305.8
12305.7
12305.6
12305.5
12305.5
12305.4
12305.3
12305.2
12305.1
12305.1
12305
12304.9
12304.8
12304.7
12304.7
12304.6
12304.5
12304.4
12304.3
12304.3
12304.2
12304.1
12304
12304
12303.9
12303.8
12303.7
12303.6
12303.6
12303.5
12303.4
12303.3
12303.2
12303.2
12303.1
12303
12302.9
12302.8
12302.8
12302.7
12302.6
12302.5
12302.4
12302.4
12302.3
12302.2
12302.1
12302
12302
12301.9
12301.8
12301.7
12301.6
12301.6
12301.5
12301.4
12301.3
12301.3
12301.2
12301.1
12301
12300.9
12300.9
12300.8
12300.7
12300.6
12300.5
12300.5
12300.4
12300.3
12300.2
12300.1
12300.1
12300
12299.9
12299.8
12299.7
12299.7
12299.6
12299.5
12299.4
12299.3
12299.3
12299.2
12299.1
12299
12298.9
12298.9
12298.8
12298.7
12298.6
12298.5
12298.5
12298.4
12298.3
12298.2
12298.1
12298.1
12298
12297.9
12297.8
12297.7
12297.7
12297.6
12297.5
12297.4
12297.3
12297.3
12297.2
12297.1
12297
12296.9
12296.9
12296.8
12296.7
12296.6
12296.5
12296.5
12296.4
12296.3
12296.2
12296.1
12296
12296
12295.9
12295.8
12295.7
12295.6
12295.6
12295.5
12295.4
12295.3
12295.2
12295.2
12295.1
12295
12294.9
12294.8
12294.8
12294.7
12294.6
12294.5
12294.4
12294.4
12294.3
12294.2
12294.1
12294
12294
12293.9
12293.8
12293.7
12293.6
12293.5
12293.5
12293.4
12293.3
12293.2
12293.1
12293.1
12293
12292.9
12292.8
12292.7
12292.7
12292.6
12292.5
12292.4
12292.3
12292.3
12292.2
12292.1
12292
12291.9
12291.8
12291.8
12291.7
12291.6
12291.5
12291.4
12291.4
12291.3
12291.2
12291.1
12291
12291
12290.9
12290.8
12290.7
12290.6
12290.5
12290.5
12290.4
12290.3
12290.2
12290.1
12290.1
12290
12289.9
12289.8
12289.7
12289.7
12289.6
12289.5
12289.4
12289.3
12289.2
12289.2
12289.1
12289
12288.9
12288.8
12288.8
12288.7
12288.6
12288.5
12288.4
12288.4
12288.3
12288.2
12288.1
12288
12287.9
12287.9
12287.8
12287.7
12287.6
12287.5
12287.5
12287.4
12287.3
12287.2
12287.1
12287
12287
12286.9
12286.8
12286.7
12286.6
12286.6
12286.5
12286.4
12286.3
12286.2
12286.1
12286.1
12286
12285.9
12285.8
12285.7
12285.7
12285.6
12285.5
12285.4
12285.3
12285.2
12285.2
12285.1
12285
12284.9
12284.8
12284.7
12284.7
12284.6
12284.5
12284.4
12284.3
12284.3
12284.2
12284.1
12284
12283.9
12283.8
12283.8
12283.7
12283.6
12283.5
12283.4
12283.3
12283.3
12283.2
12283.1
12283
12282.9
12282.9
12282.8
12282.7
12282.6
12282.5
12282.4
12282.4
12282.3
12282.2
12282.1
12282
12281.9
12281.9
12281.8
12281.7
12281.6
12281.5
12281.5
12281.4
12281.3
12281.2
12281.1
12281
12281
12280.9
12280.8
12280.7
12280.6
12280.5
12280.5
12280.4
12280.3
12280.2
12280.1
12280
12280
12279.9
12279.8
12279.7
12279.6
12279.5
12279.5
12279.4
12279.3
12279.2
12279.1
12279
12279
12278.9
12278.8
12278.7
12278.6
12278.6
12278.5
12278.4
12278.3
12278.2
12278.1
12278.1
12278
12277.9
12277.8
12277.7
12277.6
12277.6
12277.5
12277.4
12277.3
12277.2
12277.1
12277.1
12277
12276.9
12276.8
12276.7
12276.6
12276.6
12276.5
12276.4
12276.3
12276.2
12276.1
12276.1
12276
12275.9
12275.8
12275.7
12275.6
12275.6
12275.5
12275.4
12275.3
12275.2
12275.1
12275.1
12275
12274.9
12274.8
12274.7
12274.6
12274.5
12274.5
12274.4
12274.3
12274.2
12274.1
12274
12274
12273.9
12273.8
12273.7
12273.6
12273.5
12273.5
12273.4
12273.3
12273.2
12273.1
12273
12273
12272.9
12272.8
12272.7
12272.6
12272.5
12272.5
12272.4
12272.3
12272.2
12272.1
12272
12271.9
12271.9
12271.8
12271.7
12271.6
12271.5
12271.4
12271.4
12271.3
12271.2
12271.1
12271
12270.9
12270.9
12270.8
12270.7
12270.6
12270.5
12270.4
12270.3
12270.3
12270.2
12270.1
12270
12269.9
12269.8
12269.8
12269.7
12269.6
12269.5
12269.4
12269.3
12269.3
12269.2
12269.1
12269
12268.9
12268.8
12268.7
12268.7
12268.6
12268.5
12268.4
12268.3
12268.2
12268.2
12268.1
12268
12267.9
12267.8
12267.7
12267.6
12267.6
12267.5
12267.4
12267.3
12267.2
12267.1
12267.1
12267
12266.9
12266.8
12266.7
12266.6
12266.5
12266.5
12266.4
12266.3
12266.2
12266.1
12266
12265.9
12265.9
12265.8
12265.7
12265.6
12265.5
12265.4
12265.4
12265.3
12265.2
12265.1
12265
12264.9
12264.8
12264.8
12264.7
12264.6
12264.5
12264.4
12264.3
12264.2
12264.2
12264.1
12264
12263.9
12263.8
12263.7
12263.7
12263.6
12263.5
12263.4
12263.3
12263.2
12263.1
12263.1
12263
12262.9
12262.8
12262.7
12262.6
12262.5
12262.5
12262.4
12262.3
12262.2
12262.1
12262
12261.9
12261.9
12261.8
12261.7
12261.6
12261.5
12261.4
12261.3
12261.3
12261.2
12261.1
12261
12260.9
12260.8
12260.7
12260.7
12260.6
12260.5
12260.4
12260.3
12260.2
12260.1
12260.1
12260
12259.9
12259.8
12259.7
12259.6
12259.5
12259.5
12259.4
12259.3
12259.2
12259.1
12259
12258.9
12258.9
12258.8
12258.7
12258.6
12258.5
12258.4
12258.3
12258.3
12258.2
12258.1
12258
12257.9
12257.8
12257.7
12257.7
12257.6
12257.5
12257.4
12257.3
12257.2
12257.1
12257
12257
12256.9
12256.8
12256.7
12256.6
12256.5
12256.4
12256.4
12256.3
12256.2
12256.1
12256
12255.9
12255.8
12255.8
12255.7
12255.6
12255.5
12255.4
12255.3
12255.2
12255.1
12255.1
12255
12254.9
12254.8
12254.7
12254.6
12254.5
12254.5
12254.4
12254.3
12254.2
12254.1
12254
12253.9
12253.8
12253.8
12253.7
12253.6
12253.5
12253.4
12253.3
12253.2
12253.2
12253.1
12253
12252.9
12252.8
12252.7
12252.6
12252.5
12252.5
12252.4
12252.3
12252.2
12252.1
12252
12251.9
12251.9
12251.8
12251.7
12251.6
12251.5
12251.4
12251.3
12251.2
12251.2
12251.1
12251
12250.9
12250.8
12250.7
12250.6
12250.5
12250.5
12250.4
12250.3
12250.2
12250.1
12250
12249.9
12249.8
12249.8
12249.7
12249.6
12249.5
12249.4
12249.3
12249.2
12249.2
12249.1
12249
12248.9
12248.8
12248.7
12248.6
12248.5
12248.5
12248.4
12248.3
12248.2
12248.1
12248
12247.9
12247.8
12247.8
12247.7
12247.6
12247.5
12247.4
12247.3
12247.2
12247.1
12247.1
12247
12246.9
12246.8
12246.7
12246.6
12246.5
12246.4
12246.4
12246.3
12246.2
12246.1
12246
12245.9
12245.8
12245.7
12245.6
12245.6
12245.5
12245.4
12245.3
12245.2
12245.1
12245
12244.9
12244.9
12244.8
12244.7
12244.6
12244.5
12244.4
12244.3
12244.2
12244.2
12244.1
12244
12243.9
12243.8
12243.7
12243.6
12243.5
12243.4
12243.4
12243.3
12243.2
12243.1
12243
12242.9
12242.8
12242.7
12242.7
12242.6
12242.5
12242.4
12242.3
12242.2
12242.1
12242
12241.9
12241.9
12241.8
12241.7
12241.6
12241.5
12241.4
12241.3
12241.2
12241.2
12241.1
12241
12240.9
12240.8
12240.7
12240.6
12240.5
12240.4
12240.4
12240.3
12240.2
12240.1
12240
12239.9
12239.8
12239.7
12239.6
12239.6
12239.5
12239.4
12239.3
12239.2
12239.1
12239
12238.9
12238.9
12238.8
12238.7
12238.6
12238.5
12238.4
12238.3
12238.2
12238.1
12238.1
12238
12237.9
12237.8
12237.7
12237.6
12237.5
12237.4
12237.3
12237.3
12237.2
12237.1
12237
12236.9
12236.8
12236.7
12236.6
12236.5
12236.5
12236.4
12236.3
12236.2
12236.1
12236
12235.9
12235.8
12235.7
12235.7
12235.6
12235.5
12235.4
12235.3
12235.2
12235.1
12235
12234.9
12234.8
12234.8
12234.7
12234.6
12234.5
12234.4
12234.3
12234.2
12234.1
12234
12234
12233.9
12233.8
12233.7
12233.6
12233.5
12233.4
12233.3
12233.2
12233.2
12233.1
12233
12232.9
12232.8
12232.7
12232.6
12232.5
12232.4
12232.3
12232.3
12232.2
12232.1
12232
12231.9
12231.8
12231.7
12231.6
12231.5
12231.4
12231.4
12231.3
12231.2
12231.1
12231
12230.9
12230.8
12230.7
12230.6
12230.6
12230.5
12230.4
12230.3
12230.2
12230.1
12230
12229.9
12229.8
12229.7
12229.7
12229.6
12229.5
12229.4
12229.3
12229.2
12229.1
12229
12228.9
12228.8
12228.8
12228.7
12228.6
12228.5
12228.4
12228.3
12228.2
12228.1
12228
12227.9
12227.9
12227.8
12227.7
12227.6
12227.5
12227.4
12227.3
12227.2
12227.1
12227
12227
12226.9
12226.8
12226.7
12226.6
12226.5
12226.4
12226.3
12226.2
12226.1
12226
12226
12225.9
12225.8
12225.7
12225.6
12225.5
12225.4
12225.3
12225.2
12225.1
12225.1
12225
12224.9
12224.8
12224.7
12224.6
12224.5
12224.4
12224.3
12224.2
12224.1
12224.1
12224
12223.9
12223.8
12223.7
12223.6
12223.5
12223.4
12223.3
12223.2
12223.2
12223.1
12223
12222.9
12222.8
12222.7
12222.6
12222.5
12222.4
12222.3
12222.2
12222.2
12222.1
12222
12221.9
12221.8
12221.7
12221.6
12221.5
12221.4
12221.3
12221.2
12221.2
12221.1
12221
12220.9
12220.8
12220.7
12220.6
12220.5
12220.4
12220.3
12220.2
12220.2
12220.1
12220
12219.9
12219.8
12219.7
12219.6
12219.5
12219.4
12219.3
12219.2
12219.2
12219.1
12219
12218.9
12218.8
12218.7
12218.6
12218.5
12218.4
12218.3
12218.2
12218.1
12218.1
12218
12217.9
12217.8
12217.7
12217.6
12217.5
12217.4
12217.3
12217.2
12217.1
12217.1
12217
12216.9
12216.8
12216.7
12216.6
12216.5
12216.4
12216.3
12216.2
12216.1
12216
12216
12215.9
12215.8
12215.7
12215.6
12215.5
12215.4
12215.3
12215.2
12215.1
12215
12214.9
12214.9
12214.8
12214.7
12214.6
12214.5
12214.4
12214.3
12214.2
12214.1
12214
12213.9
12213.8
12213.8
12213.7
12213.6
12213.5
12213.4
12213.3
12213.2
12213.1
12213
12212.9
12212.8
12212.7
12212.7
12212.6
12212.5
12212.4
12212.3
12212.2
12212.1
12212
12211.9
12211.8
12211.7
12211.6
12211.6
12211.5
12211.4
12211.3
12211.2
12211.1
12211
12210.9
12210.8
12210.7
12210.6
12210.5
12210.4
12210.4
12210.3
12210.2
12210.1
12210
12209.9
12209.8
12209.7
12209.6
12209.5
12209.4
12209.3
12209.3
12209.2
12209.1
12209
12208.9
12208.8
12208.7
12208.6
12208.5
12208.4
12208.3
12208.2
12208.1
12208.1
12208
12207.9
12207.8
12207.7
12207.6
12207.5
12207.4
12207.3
12207.2
12207.1
12207
12206.9
12206.9
12206.8
12206.7
12206.6
12206.5
12206.4
12206.3
12206.2
12206.1
12206
12205.9
12205.8
12205.7
12205.6
12205.6
12205.5
12205.4
12205.3
12205.2
12205.1
12205
12204.9
12204.8
12204.7
12204.6
12204.5
12204.4
12204.4
12204.3
12204.2
12204.1
12204
12203.9
12203.8
12203.7
12203.6
12203.5
12203.4
12203.3
12203.2
12203.1
12203.1
12203
12202.9
12202.8
12202.7
12202.6
12202.5
12202.4
12202.3
12202.2
12202.1
12202
12201.9
12201.8
12201.8
12201.7
12201.6
12201.5
12201.4
12201.3
12201.2
12201.1
12201
12200.9
12200.8
12200.7
12200.6
12200.5
12200.5
12200.4
12200.3
12200.2
12200.1
12200
12199.9
12199.8
12199.7
12199.6
12199.5
12199.4
12199.3
12199.2
12199.1
12199.1
12199
12198.9
12198.8
12198.7
12198.6
12198.5
12198.4
12198.3
12198.2
12198.1
12198
12197.9
12197.8
12197.7
12197.7
12197.6
12197.5
12197.4
12197.3
12197.2
12197.1
12197
12196.9
12196.8
12196.7
12196.6
12196.5
12196.4
12196.3
12196.3
12196.2
12196.1
12196
12195.9
12195.8
12195.7
12195.6
12195.5
12195.4
12195.3
12195.2
12195.1
12195
12194.9
12194.9
12194.8
12194.7
12194.6
12194.5
12194.4
12194.3
12194.2
12194.1
12194
12193.9
12193.8
12193.7
12193.6
12193.5
12193.4
12193.4
12193.3
12193.2
12193.1
12193
12192.9
12192.8
12192.7
12192.6
12192.5
12192.4
12192.3
12192.2
12192.1
12192
12192
12191.9
12191.8
12191.7
12191.6
12191.5
12191.4
12191.3
12191.2
12191.1
12191
12190.9
12190.8
12190.7
12190.6
12190.5
12190.5
12190.4
12190.3
12190.2
12190.1
12190
12189.9
12189.8
12189.7
12189.6
12189.5
12189.4
12189.3
12189.2
12189.1
12189
12188.9
12188.9
12188.8
12188.7
12188.6
12188.5
12188.4
12188.3
12188.2
12188.1
12188
12187.9
12187.8
12187.7
12187.6
12187.5
12187.4
12187.4
12187.3
12187.2
12187.1
12187
12186.9
12186.8
12186.7
12186.6
12186.5
12186.4
12186.3
12186.2
12186.1
12186
12185.9
12185.8
12185.8
12185.7
12185.6
12185.5
12185.4
12185.3
12185.2
12185.1
12185
12184.9
12184.8
12184.7
12184.6
12184.5
12184.4
12184.3
12184.2
12184.2
12184.1
12184
12183.9
12183.8
12183.7
12183.6
12183.5
12183.4
12183.3
12183.2
12183.1
12183
12182.9
12182.8
12182.7
12182.6
12182.5
12182.5
12182.4
12182.3
12182.2
12182.1
12182
12181.9
12181.8
12181.7
12181.6
12181.5
12181.4
12181.3
12181.2
12181.1
12181
12180.9
12180.9
12180.8
12180.7
12180.6
12180.5
12180.4
12180.3
12180.2
12180.1
12180
12179.9
12179.8
12179.7
12179.6
12179.5
12179.4
12179.3
12179.2
12179.2
12179.1
12179
12178.9
12178.8
12178.7
12178.6
12178.5
12178.4
12178.3
12178.2
12178.1
12178
12177.9
12177.8
12177.7
12177.6
12177.5
12177.5
12177.4
12177.3
12177.2
12177.1
12177
12176.9
12176.8
12176.7
12176.6
12176.5
12176.4
12176.3
12176.2
12176.1
12176
12175.9
12175.8
12175.8
12175.7
12175.6
12175.5
12175.4
12175.3
12175.2
12175.1
12175
12174.9
12174.8
12174.7
12174.6
12174.5
12174.4
12174.3
12174.2
12174.1
12174.1
12174
12173.9
12173.8
12173.7
12173.6
12173.5
12173.4
12173.3
12173.2
12173.1
12173
12172.9
12172.8
12172.7
12172.6
12172.5
12172.4
12172.3
12172.3
12172.2
12172.1
12172
12171.9
12171.8
12171.7
12171.6
12171.5
12171.4
12171.3
12171.2
12171.1
12171
12170.9
12170.8
12170.7
12170.6
12170.6
12170.5
12170.4
12170.3
12170.2
12170.1
12170
12169.9
12169.8
12169.7
12169.6
12169.5
12169.4
12169.3
12169.2
12169.1
12169
12168.9
12168.8
12168.8
12168.7
12168.6
12168.5
12168.4
12168.3
12168.2
12168.1
12168
12167.9
12167.8
12167.7
12167.6
12167.5
12167.4
12167.3
12167.2
12167.1
12167.1
12167
12166.9
12166.8
12166.7
12166.6
12166.5
12166.4
12166.3
12166.2
12166.1
12166
12165.9
12165.8
12165.7
12165.6
12165.5
12165.4
12165.3
12165.3
12165.2
12165.1
12165
12164.9
12164.8
12164.7
12164.6
12164.5
12164.4
12164.3
12164.2
12164.1
12164
12163.9
12163.8
12163.7
12163.6
12163.6
12163.5
12163.4
12163.3
12163.2
12163.1
12163
12162.9
12162.8
12162.7
12162.6
12162.5
12162.4
12162.3
12162.2
12162.1
12162
12161.9
12161.9
12161.8
12161.7
12161.6
12161.5
12161.4
12161.3
12161.2
12161.1
12161
12160.9
12160.8
12160.7
12160.6
12160.5
12160.4
12160.3
12160.2
12160.2
12160.1
12160
12159.9
12159.8
12159.7
12159.6
12159.5
12159.4
12159.3
12159.2
12159.1
12159
12158.9
12158.8
12158.7
12158.6
12158.6
12158.5
12158.4
12158.3
12158.2
12158.1
12158
12157.9
12157.8
12157.7
12157.6
12157.5
12157.4
12157.3
12157.2
12157.1
12157
12157
12156.9
12156.8
12156.7
12156.6
12156.5
12156.4
12156.3
12156.2
12156.1
12156
12155.9
12155.8
12155.7
12155.6
12155.5
12155.4
12155.4
12155.3
12155.2
12155.1
12155
12154.9
12154.8
12154.7
12154.6
12154.5
12154.4
12154.3
12154.2
12154.1
12154
12153.9
12153.8
12153.8
12153.7
12153.6
12153.5
12153.4
12153.3
12153.2
12153.1
12153
12152.9
12152.8
12152.7
12152.6
12152.5
12152.4
12152.3
12152.3
12152.2
12152.1
12152
12151.9
12151.8
12151.7
12151.6
12151.5
12151.4
12151.3
12151.2
12151.1
12151
12150.9
12150.8
12150.8
12150.7
12150.6
12150.5
12150.4
12150.3
12150.2
12150.1
12150
12149.9
12149.8
12149.7
12149.6
12149.5
12149.4
12149.4
12149.3
12149.2
12149.1
12149
12148.9
12148.8
12148.7
12148.6
12148.5
12148.4
12148.3
12148.2
12148.1
12148
12148
12147.9
12147.8
12147.7
12147.6
12147.5
12147.4
12147.3
12147.2
12147.1
12147
12146.9
12146.8
12146.7
12146.7
12146.6
12146.5
12146.4
12146.3
12146.2
12146.1
12146
12145.9
12145.8
12145.7
12145.6
12145.5
12145.4
12145.4
12145.3
12145.2
12145.1
12145
12144.9
12144.8
12144.7
12144.6
12144.5
12144.4
12144.3
12144.2
12144.2
12144.1
12144
12143.9
12143.8
12143.7
12143.6
12143.5
12143.4
12143.3
12143.2
12143.1
12143
12143
12142.9
12142.8
12142.7
12142.6
12142.5
12142.4
12142.3
12142.2
12142.1
12142
12141.9
12141.8
12141.8
12141.7
12141.6
12141.5
12141.4
12141.3
12141.2
12141.1
12141
12140.9
12140.8
12140.7
12140.7
12140.6
12140.5
12140.4
12140.3
12140.2
12140.1
12140
12139.9
12139.8
12139.7
12139.7
12139.6
12139.5
12139.4
12139.3
12139.2
12139.1
12139
12138.9
12138.8
12138.7
12138.6
12138.6
12138.5
12138.4
12138.3
12138.2
12138.1
12138
12137.9
12137.8
12137.7
12137.6
12137.6
12137.5
12137.4
12137.3
12137.2
12137.1
12137
12136.9
12136.8
12136.7
12136.7
12136.6
12136.5
12136.4
12136.3
12136.2
12136.1
12136
12135.9
12135.8
12135.7
12135.7
12135.6
12135.5
12135.4
12135.3
12135.2
12135.1
12135
12134.9
12134.9
12134.8
12134.7
12134.6
12134.5
12134.4
12134.3
12134.2
12134.1
12134
12134
12133.9
12133.8
12133.7
12133.6
12133.5
12133.4
12133.3
12133.2
12133.2
12133.1
12133
12132.9
12132.8
12132.7
12132.6
12132.5
12132.4
12132.4
12132.3
12132.2
12132.1
12132
12131.9
12131.8
12131.7
12131.6
12131.6
12131.5
12131.4
12131.3
12131.2
12131.1
12131
12130.9
12130.8
12130.8
12130.7
12130.6
12130.5
12130.4
12130.3
12130.2
12130.1
12130.1
12130
12129.9
12129.8
12129.7
12129.6
12129.5
12129.4
12129.4
12129.3
12129.2
12129.1
12129
12128.9
12128.8
12128.7
12128.7
12128.6
12128.5
12128.4
12128.3
12128.2
12128.1
12128.1
12128
12127.9
12127.8
12127.7
12127.6
12127.5
12127.4
12127.4
12127.3
12127.2
12127.1
12127
12126.9
12126.8
12126.8
12126.7
12126.6
12126.5
12126.4
12126.3
12126.2
12126.2
12126.1
12126
12125.9
12125.8
12125.7
12125.6
12125.6
12125.5
12125.4
12125.3
12125.2
12125.1
12125.1
12125
12124.9
12124.8
12124.7
12124.6
12124.5
12124.5
12124.4
12124.3
12124.2
12124.1
12124
12124
12123.9
12123.8
12123.7
12123.6
12123.5
12123.5
12123.4
12123.3
12123.2
12123.1
12123
12123
12122.9
12122.8
12122.7
12122.6
12122.5
12122.5
12122.4
12122.3
12122.2
12122.1
12122
12122
12121.9
12121.8
12121.7
12121.6
12121.6
12121.5
12121.4
12121.3
12121.2
12121.1
12121.1
12121
12120.9
12120.8
12120.7
12120.7
12120.6
12120.5
12120.4
12120.3
12120.3
12120.2
12120.1
12120
12119.9
12119.9
12119.8
12119.7
12119.6
12119.5
12119.5
12119.4
12119.3
12119.2
12119.1
12119.1
12119
12118.9
12118.8
12118.7
12118.7
12118.6
12118.5
12118.4
12118.3
12118.3
12118.2
12118.1
12118
12118
12117.9
12117.8
12117.7
12117.6
12117.6
12117.5
12117.4
12117.3
12117.3
12117.2
12117.1
12117
12116.9
12116.9
12116.8
12116.7
12116.6
12116.6
12116.5
12116.4
12116.3
12116.3
12116.2
12116.1
12116
12116
12115.9
12115.8
12115.7
12115.6
12115.6
12115.5
12115.4
12115.3
12115.3
12115.2
12115.1
12115.1
12115
12114.9
12114.8
12114.8
12114.7
12114.6
12114.5
12114.5
12114.4
12114.3
12114.2
12114.2
12114.1
12114
12113.9
12113.9
12113.8
12113.7
12113.7
12113.6
12113.5
12113.4
12113.4
12113.3
12113.2
12113.2
12113.1
12113
12112.9
12112.9
12112.8
12112.7
12112.7
12112.6
12112.5
12112.5
12112.4
12112.3
12112.2
12112.2
12112.1
12112
12112
12111.9
12111.8
12111.8
12111.7
12111.6
12111.6
12111.5
12111.4
12111.4
12111.3
12111.2
12111.2
12111.1
12111
12110.9
12110.9
12110.8
12110.7
12110.7
12110.6
12110.6
12110.5
12110.4
12110.4
12110.3
12110.2
12110.2
12110.1
12110
12110
12109.9
12109.8
12109.8
12109.7
12109.6
12109.6
12109.5
12109.5
12109.4
12109.3
12109.3
12109.2
12109.1
12109.1
12109
12109
12108.9
12108.8
12108.8
12108.7
12108.7
12108.6
12108.5
12108.5
12108.4
12108.4
12108.3
12108.2
12108.2
12108.1
12108.1
12108
12107.9
12107.9
12107.8
12107.8
12107.7
12107.6
12107.6
12107.5
12107.5
12107.4
12107.4
12107.3
12107.3
12107.2
12107.1
12107.1
12107
12107
12106.9
12106.9
12106.8
12106.8
12106.7
12106.6
12106.6
12106.5
12106.5
12106.4
12106.4
12106.3
12106.3
12106.2
12106.2
12106.1
12106.1
12106
12106
12105.9
12105.9
12105.8
12105.8
12105.7
12105.7
12105.6
12105.6
12105.5
12105.5
12105.4
12105.4
12105.3
12105.3
12105.2
12105.2
12105.1
12105.1
12105.1
12105
12105
12104.9
12104.9
12104.8
12104.8
12104.7
12104.7
12104.7
12104.6
12104.6
12104.5
12104.5
12104.4
12104.4
12104.4
12104.3
12104.3
12104.2
12104.2
12104.2
12104.1
12104.1
12104
12104
12104
12103.9
12103.9
12103.8
12103.8
12103.8
12103.7
12103.7
12103.7
12103.6
12103.6
12103.6
12103.5
12103.5
12103.5
12103.4
12103.4
12103.4
12103.3
12103.3
12103.3
12103.2
12103.2
12103.2
12103.1
12103.1
12103.1
12103
12103
12103
12103
12102.9
12102.9
12102.9
12102.8
12102.8
12102.8
12102.8
12102.7
12102.7
12102.7
12102.7
12102.6
12102.6
12102.6
12102.6
12102.6
12102.5
12102.5
12102.5
12102.5
12102.5
12102.4
12102.4
12102.4
12102.4
12102.4
12102.3
12102.3
12102.3
12102.3
12102.3
12102.3
12102.2
12102.2
12102.2
12102.2
12102.2
12102.2
12102.2
12102.2
12102.1
12102.1
12102.1
12102.1
12102.1
12102.1
12102.1
12102.1
12102.1
12102.1
12102.1
12102.1
12102.1
12102
12102
12102
12102
12102
12102
12102
12102
12102
12102
12102
12102
12102
12102
12102
12102
12102
12102
12102.1
12102.1
12102.1
12102.1
12102.1
12102.1
12102.1
12102.1
12102.1
12102.1
12102.1
12102.1
12102.2
12102.2
12102.2
12102.2
12102.2
12102.2
12102.2
12102.3
12102.3
12102.3
12102.3
12102.3
12102.4
12102.4
12102.4
12102.4
12102.4
12102.5
12102.5
12102.5
12102.5
12102.6
12102.6
12102.6
12102.6
12102.7
12102.7
12102.7
12102.8
12102.8
12102.8
12102.9
12102.9
12102.9
12103
12103
12103
12103.1
12103.1
12103.2
12103.2
12103.2
12103.3
12103.3
12103.4
12103.4
12103.5
12103.5
12103.6
12103.6
12103.7
12103.7
12103.7
12103.8
12103.9
12103.9
12104
12104
12104.1
12104.1
12104.2
12104.2
12104.3
12104.4
12104.4
12104.5
12104.5
12104.6
12104.7
12104.7
12104.8
12104.9
12104.9
12105
12105.1
12105.2
12105.2
12105.3
12105.4
12105.5
12105.5
12105.6
12105.7
12105.8
12105.8
12105.9
12106
12106.1
12106.2
12106.3
12106.4
12106.4
12106.5
12106.6
12106.7
12106.8
12106.9
12107
12107.1
12107.2
12107.3
12107.4
12107.5
12107.6
12107.7
12107.8
12107.9
12108
12108.1
12108.2
12108.4
12108.5
12108.6
12108.7
12108.8
12108.9
12109
12109.2
12109.3
12109.4
12109.5
12109.7
12109.8
12109.9
12110
12110.2
12110.3
12110.4
12110.6
12110.7
12110.8
12111
12111.1
12111.3
12111.4
12111.6
12111.7
12111.9
12112
12112.2
12112.3
12112.5
12112.6
12112.8
12112.9
12113.1
12113.3
12113.4
12113.6
12113.7
12113.9
12114.1
12114.3
12114.4
12114.6
12114.8
12115
12115.1
12115.3
12115.5
12115.7
12115.9
12116.1
12116.3
12116.4
12116.6
12116.8
12117
12117.2
12117.4
12117.6
12117.8
12118
12118.3
12118.5
12118.7
12118.9
12119.1
12119.3
12119.5
12119.8
12120
12120.2
12120.4
12120.7
12120.9
12121.1
12121.4
12121.6
12121.8
12122.1
12122.3
12122.6
12122.8
12123.1
12123.3
12123.6
12123.8
12124.1
12124.4
12124.6
12124.9
12125.1
12125.4
12125.7
12126
12126.2
12126.5
12126.8
12127.1
12127.4
12127.6
12127.9
12128.2
12128.5
12128.8
12129.1
12129.4
12129.7
12130
12130.3
12130.6
12131
12131.3
12131.6
12131.9
12132.2
12132.6
12132.9
12133.2
12133.6
12133.9
12134.2
12134.6
12134.9
12135.3
12135.6
12136
12136.3
12136.7
12137
12137.4
12137.7
12138.1
12138.5
12138.9
12139.2
12139.6
12140
12140.4
12140.8
12141.1
12141.5
12141.9
12142.3
12142.7
12143.1
12143.5
12143.9
12144.4
12144.8
12145.2
12145.6
12146
12146.5
12146.9
12147.3
12147.7
12148.2
12148.6
12149.1
12149.5
12150
12150.4
12150.9
12151.3
12151.8
12152.2
12152.7
12153.2
12153.7
12154.1
12154.6
12155.1
12155.6
12156.1
12156.6
12157
12157.5
12158
12158.6
12159.1
12159.6
12160.1
12160.6
12161.1
12161.6
12162.2
12162.7
12163.2
12163.8
12164.3
12164.8
12165.4
12165.9
12166.5
12167
12167.6
12168.1
12168.7
12169.3
12169.8
12170.4
12171
12171.6
12172.2
12172.7
12173.3
12173.9
12174.5
12175.1
12175.7
12176.3
12176.9
12177.5
12178.2
12178.8
12179.4
12180
12180.6
12181.3
12181.9
12182.5
12183.2
12183.8
12184.5
12185.1
12185.8
12186.4
12187.1
12187.7
12188.4
12189.1
12189.7
12190.4
12191.1
12191.8
12192.5
12193.1
12193.8
12194.5
12195.2
12195.9
12196.6
12197.3
12198
12198.7
12199.5
12200.2
12200.9
12201.6
12202.3
12203.1
12203.8
12204.5
12205.3
12206
12206.8
12207.5
12208.3
12209
12209.8
12210.5
12211.3
12212
12212.8
12213.6
12214.3
12215.1
12215.9
12216.7
12217.4
12218.2
12219
12219.8
12220.6
12221.4
12222.2
12223
12223.8
12224.6
12225.4
12226.2
12227
12227.8
12228.7
12229.5
12230.3
12231.1
12231.9
12232.8
12233.6
12234.4
12235.3
12236.1
12237
12237.8
12238.6
12239.5
12240.3
12241.2
12242
12242.9
12243.7
12244.6
12245.5
12246.3
12247.2
12248.1
12248.9
12249.8
12250.7
12251.6
12252.4
12253.3
12254.2
12255.1
12256
12256.8
12257.7
12258.6
12259.5
12260.4
12261.3
12262.2
12263.1
12264
12264.9
12265.8
12266.7
12267.6
12268.5
12269.4
12270.3
12271.2
12272.2
12273.1
12274
12274.9
12275.8
12276.7
12277.7
12278.6
12279.5
12280.4
12281.4
12282.3
12283.2
12284.1
12285.1
12286
12286.9
12287.9
12288.8
12289.7
12290.7
12291.6
12292.6
12293.5
12294.4
12295.4
12296.3
12297.3
12298.2
12299.2
12300.1
12301.1
12302
12303
12303.9
12304.9
12305.8
12306.8
12307.7
12308.7
12309.6
12310.6
12311.6
12312.5
12313.5
12314.4
12315.4
12316.4
12317.3
12318.3
12319.2
12320.2
12321.2
12322.1
12323.1
12324.1
12325
12326
12327
12327.9
12328.9
12329.9
12330.9
12331.8
12332.8
12333.8
12334.7
12335.7
12336.7
12337.7
12338.6
12339.6
12340.6
12341.6
12342.5
12343.5
12344.5
12345.5
12346.4
12347.4
12348.4
12349.4
12350.4
12351.3
12352.3
12353.3
12354.3
12355.3
12356.2
12357.2
12358.2
12359.2
12360.2
12361.1
12362.1
12363.1
12364.1
12365.1
12366.1
12367
12368
12369
12370
12371
12372
12373
12373.9
12374.9
12375.9
12376.9
12377.9
12378.9
12379.9
12380.9
12381.8
12382.8
12383.8
12384.8
12385.8
12386.8
12387.8
12388.8
12389.7
12390.7
12391.7
12392.7
12393.7
12394.7
12395.7
12396.7
12397.7
12398.7
12399.6
12400.6
12401.6
12402.6
12403.6
12404.6
12405.6
12406.6
12407.6
12408.6
12409.6
12410.6
12411.5
12412.5
12413.5
12414.5
12415.5
12416.5
12417.5
12418.5
12419.5
12420.5
12421.5
12422.5
12423.5
12424.5
12425.5
12426.5
12427.4
12428.4
12429.4
12430.4
12431.4
12432.4
12433.4
12434.4
12435.4
12436.4
12437.4
12438.4
12439.4
12440.4
12441.4
12442.4
12443.4
12444.4
12445.4
12446.4
12447.4
12448.4
12449.4
12450.4
12451.4
12452.3
12453.3
12454.3
12455.3
12456.3
12457.3
12458.3
12459.3
12460.3
12461.3
12462.3
12463.3
12464.3
12465.3
12466.3
12467.3
12468.3
12469.3
12470.3
12471.3
12472.3
12473.3
12474.3
12475.3
12476.3
12477.3
12478.3
12479.3
12480.3
12481.3
12482.3
12483.3
12484.3
12485.3
12486.3
12487.3
12488.3
12489.3
12490.3
12491.3
12492.3
12493.3
12494.3
12495.3
12496.3
12497.3
12498.3
12499.3
12500.3
12501.3
12502.3
12503.3
12504.3
12505.3
12506.3
12507.3
12508.3
12509.3
12510.3
12511.4
12512.4
12513.4
12514.4
12515.4
12516.4
12517.4
12518.4
12519.4
12520.4
12521.4
12522.4
12523.4
12524.4
12525.4
12526.4
12527.4
12528.4
12529.4
12530.4
12531.4
12532.4
12533.4
12534.4
12535.4
12536.4
12537.5
12538.5
12539.5
12540.5
12541.5
12542.5
12543.5
12544.5
12545.5
12546.5
12547.5
12548.5
12549.5
12550.5
12551.5
12552.5
12553.5
12554.6
12555.6
12556.6
12557.6
12558.6
12559.6
12560.6
12561.6
12562.6
12563.6
12564.6
12565.6
12566.6
12567.6
12568.7
12569.7
12570.7
12571.7
12572.7
12573.7
12574.7
12575.7
12576.7
12577.7
12578.7
12579.7
12580.8
12581.8
12582.8
12583.8
12584.8
12585.8
12586.8
12587.8
12588.8
12589.8
12590.8
12591.9
12592.9
12593.9
12594.9
12595.9
12596.9
12597.9
12598.9
12599.9
12600.9
12602
12603
12604
12605
12606
12607
12608
12609
12610
12611.1
12612.1
12613.1
12614.1
12615.1
12616.1
12617.1
12618.1
12619.2
12620.2
12621.2
12622.2
12623.2
12624.2
12625.2
12626.2
12627.3
12628.3
12629.3
12630.3
12631.3
12632.3
12633.3
12634.4
12635.4
12636.4
12637.4
12638.4
12639.4
12640.4
12641.4
12642.5
12643.5
12644.5
12645.5
12646.5
12647.5
12648.6
12649.6
12650.6
12651.6
12652.6
12653.6
12654.6
12655.7
12656.7
12657.7
12658.7
12659.7
12660.7
12661.8
12662.8
12663.8
12664.8
12665.8
12666.8
12667.9
12668.9
12669.9
12670.9
12671.9
12672.9
12674
12675
12676
12677
12678
12679
12680.1
12681.1
12682.1
12683.1
12684.1
12685.1
12686.2
12687.2
12688.2
12689.2
12690.2
12691.3
12692.3
12693.3
12694.3
12695.3
12696.4
12697.4
12698.4
12699.4
12700.4
12701.5
12702.5
12703.5
12704.5
12705.5
12706.5
12707.6
12708.6
12709.6
12710.6
12711.7
12712.7
12713.7
12714.7
12715.7
12716.8
12717.8
12718.8
12719.8
12720.8
12721.9
12722.9
12723.9
12724.9
12725.9
12727
12728
12729
12730
12731.1
12732.1
12733.1
12734.1
12735.1
12736.2
12737.2
12738.2
12739.2
12740.3
12741.3
12742.3
12743.3
12744.4
12745.4
12746.4
12747.4
12748.4
12749.5
12750.5
12751.5
12752.5
12753.6
12754.6
12755.6
12756.6
12757.7
12758.7
12759.7
12760.7
12761.8
12762.8
12763.8
12764.8
12765.9
12766.9
12767.9
12768.9
12770
12771
12772
12773
12774.1
12775.1
12776.1
12777.1
12778.2
12779.2
12780.2
12781.3
12782.3
12783.3
12784.3
12785.4
12786.4
12787.4
12788.4
12789.5
12790.5
12791.5
12792.6
12793.6
12794.6
12795.6
12796.7
12797.7
12798.7
12799.7
12800.8
12801.8
12802.8
12803.9
12804.9
12805.9
12806.9
12808
12809
12810
12811.1
12812.1
12813.1
12814.2
12815.2
12816.2
12817.2
12818.3
12819.3
12820.3
12821.4
12822.4
12823.4
12824.5
12825.5
12826.5
12827.5
12828.6
12829.6
12830.6
12831.7
12832.7
12833.7
12834.8
12835.8
12836.8
12837.9
12838.9
12839.9
12841
12842
12843
12844
12845.1
12846.1
12847.1
12848.2
12849.2
12850.2
12851.3
12852.3
12853.3
12854.4
12855.4
12856.4
12857.5
12858.5
12859.5
12860.6
12861.6
12862.6
12863.7
12864.7
12865.7
12866.8
12867.8
12868.8
12869.9
12870.9
12872
12873
12874
12875.1
12876.1
12877.1
12878.2
12879.2
12880.2
12881.3
12882.3
12883.3
12884.4
12885.4
12886.4
12887.5
12888.5
12889.6
12890.6
12891.6
12892.7
12893.7
12894.7
12895.8
12896.8
12897.8
12898.9
12899.9
12901
12902
12903
12904.1
12905.1
12906.1
12907.2
12908.2
12909.3
12910.3
12911.3
12912.4
12913.4
12914.4
12915.5
12916.5
12917.6
12918.6
12919.6
12920.7
12921.7
12922.8
12923.8
12924.8
12925.9
12926.9
12928
12929
12930
12931.1
12932.1
12933.2
12934.2
12935.2
12936.3
12937.3
12938.4
12939.4
12940.4
12941.5
12942.5
12943.6
12944.6
12945.6
12946.7
12947.7
12948.8
12949.8
12950.8
12951.9
12952.9
12954
12955
12956.1
12957.1
12958.1
12959.2
12960.2
12961.3
12962.3
12963.3
12964.4
12965.4
12966.5
12967.5
12968.6
12969.6
12970.6
12971.7
12972.7
12973.8
12974.8
12975.9
12976.9
12978
12979
12980
12981.1
12982.1
12983.2
12984.2
12985.3
12986.3
12987.4
12988.4
12989.4
12990.5
12991.5
12992.6
12993.6
12994.7
12995.7
12996.8
12997.8
12998.9
12999.9
13000.9
13002
13003
13004.1
13005.1
13006.2
13007.2
13008.3
13009.3
13010.4
13011.4
13012.5
13013.5
13014.5
13015.6
13016.6
13017.7
13018.7
13019.8
13020.8
13021.9
13022.9
13024
13025
13026.1
13027.1
13028.2
13029.2
13030.3
13031.3
13032.4
13033.4
13034.5
13035.5
13036.6
13037.6
13038.7