/*--------------------------------*- C++ -*----------------------------------*\
  =========                 |
  \\      /  F ield         | OpenFOAM: The Open Source CFD Toolbox
   \\    /   O peration     | Website:  https://openfoam.org
    \\  /    A nd           | Version:  9
     \\/     M anipulation  |
\*---------------------------------------------------------------------------*/
FoamFile
{
    format      ascii;
    class       volScalarField;
    location    "0.038";
    object      rho;
}
// * * * * * * * * * * * * * * * * * * * * * * * * * * * * * * * * * * * * * //

dimensions      [1 -3 0 0 0 0 0];

internalField   nonuniform List<scalar> 
10000
(
0.224106
0.224103
0.224098
0.224093
0.224089
0.224085
0.22408
0.224076
0.224071
0.224067
0.224063
0.224058
0.224054
0.224049
0.224045
0.224041
0.224036
0.224032
0.224028
0.224023
0.224019
0.224014
0.22401
0.224006
0.224001
0.223997
0.223993
0.223988
0.223984
0.22398
0.223975
0.223971
0.223966
0.223962
0.223958
0.223953
0.223949
0.223945
0.22394
0.223936
0.223932
0.223927
0.223923
0.223919
0.223914
0.22391
0.223906
0.223901
0.223897
0.223893
0.223889
0.223884
0.22388
0.223876
0.223871
0.223867
0.223863
0.223859
0.223854
0.22385
0.223846
0.223842
0.223837
0.223833
0.223829
0.223824
0.22382
0.223816
0.223812
0.223808
0.223804
0.223799
0.223795
0.223791
0.223786
0.223782
0.223778
0.223773
0.223769
0.223765
0.223761
0.223757
0.223753
0.223749
0.223745
0.223741
0.223736
0.223732
0.223728
0.223723
0.223719
0.223715
0.223711
0.223707
0.223703
0.223699
0.223696
0.223692
0.223688
0.223684
0.223681
0.223676
0.223672
0.223668
0.223663
0.223659
0.223654
0.223649
0.223645
0.22364
0.223636
0.223632
0.223628
0.223624
0.223621
0.223618
0.223615
0.223612
0.223609
0.223607
0.223605
0.223603
0.223601
0.223599
0.223598
0.223596
0.223595
0.223593
0.223592
0.22359
0.223589
0.223588
0.223586
0.223585
0.223584
0.223583
0.223582
0.223581
0.22358
0.223579
0.223578
0.223577
0.223576
0.223575
0.223574
0.223573
0.223572
0.223571
0.22357
0.223569
0.223568
0.223567
0.223566
0.223565
0.223564
0.223563
0.223561
0.22356
0.223559
0.223558
0.223557
0.223556
0.223555
0.223554
0.223553
0.223552
0.223551
0.22355
0.223549
0.223548
0.223547
0.223546
0.223545
0.223544
0.223543
0.223542
0.223541
0.22354
0.223539
0.223538
0.223537
0.223536
0.223535
0.223534
0.223533
0.223531
0.22353
0.223529
0.223528
0.223527
0.223526
0.223525
0.223524
0.223523
0.223522
0.223521
0.22352
0.223519
0.223518
0.223517
0.223516
0.223515
0.223514
0.223513
0.223512
0.223511
0.22351
0.223509
0.223508
0.223507
0.223506
0.223504
0.223503
0.223502
0.223501
0.2235
0.223499
0.223498
0.223497
0.223496
0.223495
0.223494
0.223493
0.223492
0.223491
0.22349
0.223489
0.223488
0.223487
0.223486
0.223485
0.223484
0.223483
0.223482
0.22348
0.223479
0.223478
0.223477
0.223476
0.223475
0.223474
0.223473
0.223472
0.223471
0.22347
0.223469
0.223468
0.223467
0.223466
0.223465
0.223464
0.223463
0.223462
0.223461
0.22346
0.223459
0.223457
0.223456
0.223455
0.223454
0.223453
0.223452
0.223451
0.22345
0.223449
0.223448
0.223447
0.223446
0.223445
0.223444
0.223443
0.223442
0.223441
0.22344
0.223439
0.223438
0.223436
0.223435
0.223434
0.223433
0.223432
0.223431
0.22343
0.223429
0.223428
0.223427
0.223426
0.223425
0.223424
0.223423
0.223422
0.223421
0.22342
0.223419
0.223418
0.223416
0.223415
0.223414
0.223413
0.223412
0.223411
0.22341
0.223409
0.223408
0.223407
0.223406
0.223405
0.223404
0.223403
0.223402
0.223401
0.2234
0.223399
0.223397
0.223396
0.223395
0.223394
0.223393
0.223392
0.223391
0.22339
0.223389
0.223388
0.223387
0.223386
0.223385
0.223384
0.223383
0.223382
0.223381
0.223379
0.223378
0.223377
0.223376
0.223375
0.223374
0.223373
0.223372
0.223371
0.22337
0.223369
0.223368
0.223367
0.223366
0.223365
0.223364
0.223362
0.223361
0.22336
0.223359
0.223358
0.223357
0.223356
0.223355
0.223354
0.223353
0.223352
0.223351
0.22335
0.223349
0.223348
0.223346
0.223345
0.223344
0.223343
0.223342
0.223341
0.22334
0.223339
0.223338
0.223337
0.223336
0.223335
0.223334
0.223333
0.223332
0.22333
0.223329
0.223328
0.223327
0.223326
0.223325
0.223324
0.223323
0.223322
0.223321
0.22332
0.223319
0.223318
0.223317
0.223316
0.223314
0.223313
0.223312
0.223311
0.22331
0.223309
0.223308
0.223307
0.223306
0.223305
0.223304
0.223303
0.223302
0.223301
0.223299
0.223298
0.223297
0.223296
0.223295
0.223294
0.223293
0.223292
0.223291
0.22329
0.223289
0.223288
0.223287
0.223285
0.223284
0.223283
0.223282
0.223281
0.22328
0.223279
0.223278
0.223277
0.223276
0.223275
0.223274
0.223273
0.223272
0.22327
0.223269
0.223268
0.223267
0.223266
0.223265
0.223264
0.223263
0.223262
0.223261
0.22326
0.223259
0.223257
0.223256
0.223255
0.223254
0.223253
0.223252
0.223251
0.22325
0.223249
0.223248
0.223247
0.223246
0.223245
0.223243
0.223242
0.223241
0.22324
0.223239
0.223238
0.223237
0.223236
0.223235
0.223234
0.223233
0.223232
0.22323
0.223229
0.223228
0.223227
0.223226
0.223225
0.223224
0.223223
0.223222
0.223221
0.22322
0.223219
0.223217
0.223216
0.223215
0.223214
0.223213
0.223212
0.223211
0.22321
0.223209
0.223208
0.223207
0.223206
0.223204
0.223203
0.223202
0.223201
0.2232
0.223199
0.223198
0.223197
0.223196
0.223195
0.223194
0.223192
0.223191
0.22319
0.223189
0.223188
0.223187
0.223186
0.223185
0.223184
0.223183
0.223182
0.22318
0.223179
0.223178
0.223177
0.223176
0.223175
0.223174
0.223173
0.223172
0.223171
0.22317
0.223168
0.223167
0.223166
0.223165
0.223164
0.223163
0.223162
0.223161
0.22316
0.223159
0.223158
0.223156
0.223155
0.223154
0.223153
0.223152
0.223151
0.22315
0.223149
0.223148
0.223147
0.223145
0.223144
0.223143
0.223142
0.223141
0.22314
0.223139
0.223138
0.223137
0.223136
0.223135
0.223133
0.223132
0.223131
0.22313
0.223129
0.223128
0.223127
0.223126
0.223125
0.223124
0.223122
0.223121
0.22312
0.223119
0.223118
0.223117
0.223116
0.223115
0.223114
0.223113
0.223111
0.22311
0.223109
0.223108
0.223107
0.223106
0.223105
0.223104
0.223103
0.223102
0.2231
0.223099
0.223098
0.223097
0.223096
0.223095
0.223094
0.223093
0.223092
0.22309
0.223089
0.223088
0.223087
0.223086
0.223085
0.223084
0.223083
0.223082
0.223081
0.223079
0.223078
0.223077
0.223076
0.223075
0.223074
0.223073
0.223072
0.223071
0.223069
0.223068
0.223067
0.223066
0.223065
0.223064
0.223063
0.223062
0.223061
0.22306
0.223058
0.223057
0.223056
0.223055
0.223054
0.223053
0.223052
0.223051
0.223049
0.223048
0.223047
0.223046
0.223045
0.223044
0.223043
0.223042
0.223041
0.22304
0.223038
0.223037
0.223036
0.223035
0.223034
0.223033
0.223032
0.223031
0.223029
0.223028
0.223027
0.223026
0.223025
0.223024
0.223023
0.223022
0.223021
0.22302
0.223018
0.223017
0.223016
0.223015
0.223014
0.223013
0.223012
0.223011
0.223009
0.223008
0.223007
0.223006
0.223005
0.223004
0.223003
0.223002
0.223001
0.222999
0.222998
0.222997
0.222996
0.222995
0.222994
0.222993
0.222992
0.22299
0.222989
0.222988
0.222987
0.222986
0.222985
0.222984
0.222983
0.222982
0.22298
0.222979
0.222978
0.222977
0.222976
0.222975
0.222974
0.222973
0.222971
0.22297
0.222969
0.222968
0.222967
0.222966
0.222965
0.222964
0.222962
0.222961
0.22296
0.222959
0.222958
0.222957
0.222956
0.222955
0.222953
0.222952
0.222951
0.22295
0.222949
0.222948
0.222947
0.222946
0.222944
0.222943
0.222942
0.222941
0.22294
0.222939
0.222938
0.222937
0.222935
0.222934
0.222933
0.222932
0.222931
0.22293
0.222929
0.222928
0.222926
0.222925
0.222924
0.222923
0.222922
0.222921
0.22292
0.222919
0.222917
0.222916
0.222915
0.222914
0.222913
0.222912
0.222911
0.22291
0.222908
0.222907
0.222906
0.222905
0.222904
0.222903
0.222902
0.2229
0.222899
0.222898
0.222897
0.222896
0.222895
0.222894
0.222893
0.222891
0.22289
0.222889
0.222888
0.222887
0.222886
0.222885
0.222883
0.222882
0.222881
0.22288
0.222879
0.222878
0.222877
0.222876
0.222874
0.222873
0.222872
0.222871
0.22287
0.222869
0.222868
0.222866
0.222865
0.222864
0.222863
0.222862
0.222861
0.22286
0.222858
0.222857
0.222856
0.222855
0.222854
0.222853
0.222852
0.222851
0.222849
0.222848
0.222847
0.222846
0.222845
0.222844
0.222843
0.222841
0.22284
0.222839
0.222838
0.222837
0.222836
0.222835
0.222833
0.222832
0.222831
0.22283
0.222829
0.222828
0.222827
0.222825
0.222824
0.222823
0.222822
0.222821
0.22282
0.222819
0.222817
0.222816
0.222815
0.222814
0.222813
0.222812
0.222811
0.222809
0.222808
0.222807
0.222806
0.222805
0.222804
0.222803
0.222801
0.2228
0.222799
0.222798
0.222797
0.222796
0.222795
0.222793
0.222792
0.222791
0.22279
0.222789
0.222788
0.222787
0.222785
0.222784
0.222783
0.222782
0.222781
0.22278
0.222779
0.222777
0.222776
0.222775
0.222774
0.222773
0.222772
0.22277
0.222769
0.222768
0.222767
0.222766
0.222765
0.222764
0.222762
0.222761
0.22276
0.222759
0.222758
0.222757
0.222756
0.222754
0.222753
0.222752
0.222751
0.22275
0.222749
0.222747
0.222746
0.222745
0.222744
0.222743
0.222742
0.222741
0.222739
0.222738
0.222737
0.222736
0.222735
0.222734
0.222732
0.222731
0.22273
0.222729
0.222728
0.222727
0.222726
0.222724
0.222723
0.222722
0.222721
0.22272
0.222719
0.222717
0.222716
0.222715
0.222714
0.222713
0.222712
0.22271
0.222709
0.222708
0.222707
0.222706
0.222705
0.222704
0.222702
0.222701
0.2227
0.222699
0.222698
0.222697
0.222695
0.222694
0.222693
0.222692
0.222691
0.22269
0.222688
0.222687
0.222686
0.222685
0.222684
0.222683
0.222682
0.22268
0.222679
0.222678
0.222677
0.222676
0.222675
0.222673
0.222672
0.222671
0.22267
0.222669
0.222668
0.222666
0.222665
0.222664
0.222663
0.222662
0.222661
0.222659
0.222658
0.222657
0.222656
0.222655
0.222654
0.222652
0.222651
0.22265
0.222649
0.222648
0.222647
0.222645
0.222644
0.222643
0.222642
0.222641
0.22264
0.222638
0.222637
0.222636
0.222635
0.222634
0.222633
0.222631
0.22263
0.222629
0.222628
0.222627
0.222626
0.222624
0.222623
0.222622
0.222621
0.22262
0.222619
0.222617
0.222616
0.222615
0.222614
0.222613
0.222612
0.22261
0.222609
0.222608
0.222607
0.222606
0.222605
0.222603
0.222602
0.222601
0.2226
0.222599
0.222598
0.222596
0.222595
0.222594
0.222593
0.222592
0.222591
0.222589
0.222588
0.222587
0.222586
0.222585
0.222583
0.222582
0.222581
0.22258
0.222579
0.222578
0.222576
0.222575
0.222574
0.222573
0.222572
0.222571
0.222569
0.222568
0.222567
0.222566
0.222565
0.222563
0.222562
0.222561
0.22256
0.222559
0.222558
0.222556
0.222555
0.222554
0.222553
0.222552
0.222551
0.222549
0.222548
0.222547
0.222546
0.222545
0.222543
0.222542
0.222541
0.22254
0.222539
0.222538
0.222536
0.222535
0.222534
0.222533
0.222532
0.222531
0.222529
0.222528
0.222527
0.222526
0.222525
0.222523
0.222522
0.222521
0.22252
0.222519
0.222518
0.222516
0.222515
0.222514
0.222513
0.222512
0.22251
0.222509
0.222508
0.222507
0.222506
0.222505
0.222503
0.222502
0.222501
0.2225
0.222499
0.222497
0.222496
0.222495
0.222494
0.222493
0.222492
0.22249
0.222489
0.222488
0.222487
0.222486
0.222484
0.222483
0.222482
0.222481
0.22248
0.222478
0.222477
0.222476
0.222475
0.222474
0.222473
0.222471
0.22247
0.222469
0.222468
0.222467
0.222465
0.222464
0.222463
0.222462
0.222461
0.222459
0.222458
0.222457
0.222456
0.222455
0.222454
0.222452
0.222451
0.22245
0.222449
0.222448
0.222446
0.222445
0.222444
0.222443
0.222442
0.22244
0.222439
0.222438
0.222437
0.222436
0.222435
0.222433
0.222432
0.222431
0.22243
0.222429
0.222427
0.222426
0.222425
0.222424
0.222423
0.222421
0.22242
0.222419
0.222418
0.222417
0.222415
0.222414
0.222413
0.222412
0.222411
0.222409
0.222408
0.222407
0.222406
0.222405
0.222403
0.222402
0.222401
0.2224
0.222399
0.222398
0.222396
0.222395
0.222394
0.222393
0.222392
0.22239
0.222389
0.222388
0.222387
0.222386
0.222384
0.222383
0.222382
0.222381
0.22238
0.222378
0.222377
0.222376
0.222375
0.222374
0.222372
0.222371
0.22237
0.222369
0.222368
0.222366
0.222365
0.222364
0.222363
0.222362
0.22236
0.222359
0.222358
0.222357
0.222356
0.222354
0.222353
0.222352
0.222351
0.22235
0.222348
0.222347
0.222346
0.222345
0.222344
0.222342
0.222341
0.22234
0.222339
0.222338
0.222336
0.222335
0.222334
0.222333
0.222332
0.22233
0.222329
0.222328
0.222327
0.222326
0.222324
0.222323
0.222322
0.222321
0.22232
0.222318
0.222317
0.222316
0.222315
0.222314
0.222312
0.222311
0.22231
0.222309
0.222308
0.222306
0.222305
0.222304
0.222303
0.222302
0.2223
0.222299
0.222298
0.222297
0.222296
0.222294
0.222293
0.222292
0.222291
0.222289
0.222288
0.222287
0.222286
0.222285
0.222283
0.222282
0.222281
0.22228
0.222279
0.222277
0.222276
0.222275
0.222274
0.222273
0.222271
0.22227
0.222269
0.222268
0.222267
0.222265
0.222264
0.222263
0.222262
0.222261
0.222259
0.222258
0.222257
0.222256
0.222254
0.222253
0.222252
0.222251
0.22225
0.222248
0.222247
0.222246
0.222245
0.222244
0.222242
0.222241
0.22224
0.222239
0.222238
0.222236
0.222235
0.222234
0.222233
0.222231
0.22223
0.222229
0.222228
0.222227
0.222225
0.222224
0.222223
0.222222
0.222221
0.222219
0.222218
0.222217
0.222216
0.222215
0.222213
0.222212
0.222211
0.22221
0.222208
0.222207
0.222206
0.222205
0.222204
0.222202
0.222201
0.2222
0.222199
0.222198
0.222196
0.222195
0.222194
0.222193
0.222191
0.22219
0.222189
0.222188
0.222187
0.222185
0.222184
0.222183
0.222182
0.222181
0.222179
0.222178
0.222177
0.222176
0.222174
0.222173
0.222172
0.222171
0.22217
0.222168
0.222167
0.222166
0.222165
0.222164
0.222162
0.222161
0.22216
0.222159
0.222157
0.222156
0.222155
0.222154
0.222153
0.222151
0.22215
0.222149
0.222148
0.222146
0.222145
0.222144
0.222143
0.222142
0.22214
0.222139
0.222138
0.222137
0.222136
0.222134
0.222133
0.222132
0.222131
0.222129
0.222128
0.222127
0.222126
0.222125
0.222123
0.222122
0.222121
0.22212
0.222118
0.222117
0.222116
0.222115
0.222114
0.222112
0.222111
0.22211
0.222109
0.222107
0.222106
0.222105
0.222104
0.222103
0.222101
0.2221
0.222099
0.222098
0.222096
0.222095
0.222094
0.222093
0.222092
0.22209
0.222089
0.222088
0.222087
0.222085
0.222084
0.222083
0.222082
0.222081
0.222079
0.222078
0.222077
0.222076
0.222074
0.222073
0.222072
0.222071
0.22207
0.222068
0.222067
0.222066
0.222065
0.222063
0.222062
0.222061
0.22206
0.222059
0.222057
0.222056
0.222055
0.222054
0.222052
0.222051
0.22205
0.222049
0.222048
0.222046
0.222045
0.222044
0.222043
0.222041
0.22204
0.222039
0.222038
0.222037
0.222035
0.222034
0.222033
0.222032
0.22203
0.222029
0.222028
0.222027
0.222026
0.222024
0.222023
0.222022
0.222021
0.222019
0.222018
0.222017
0.222016
0.222015
0.222013
0.222012
0.222011
0.22201
0.222008
0.222007
0.222006
0.222005
0.222003
0.222002
0.222001
0.222
0.221999
0.221997
0.221996
0.221995
0.221994
0.221992
0.221991
0.22199
0.221989
0.221988
0.221986
0.221985
0.221984
0.221983
0.221981
0.22198
0.221979
0.221978
0.221976
0.221975
0.221974
0.221973
0.221972
0.22197
0.221969
0.221968
0.221967
0.221965
0.221964
0.221963
0.221962
0.221961
0.221959
0.221958
0.221957
0.221956
0.221954
0.221953
0.221952
0.221951
0.221949
0.221948
0.221947
0.221946
0.221945
0.221943
0.221942
0.221941
0.22194
0.221938
0.221937
0.221936
0.221935
0.221933
0.221932
0.221931
0.22193
0.221929
0.221927
0.221926
0.221925
0.221924
0.221922
0.221921
0.22192
0.221919
0.221918
0.221916
0.221915
0.221914
0.221913
0.221911
0.22191
0.221909
0.221908
0.221906
0.221905
0.221904
0.221903
0.221902
0.2219
0.221899
0.221898
0.221897
0.221895
0.221894
0.221893
0.221892
0.22189
0.221889
0.221888
0.221887
0.221886
0.221884
0.221883
0.221882
0.221881
0.221879
0.221878
0.221877
0.221876
0.221874
0.221873
0.221872
0.221871
0.22187
0.221868
0.221867
0.221866
0.221865
0.221863
0.221862
0.221861
0.22186
0.221859
0.221857
0.221856
0.221855
0.221854
0.221852
0.221851
0.22185
0.221849
0.221847
0.221846
0.221845
0.221844
0.221843
0.221841
0.22184
0.221839
0.221838
0.221836
0.221835
0.221834
0.221833
0.221831
0.22183
0.221829
0.221828
0.221827
0.221825
0.221824
0.221823
0.221822
0.22182
0.221819
0.221818
0.221817
0.221815
0.221814
0.221813
0.221812
0.221811
0.221809
0.221808
0.221807
0.221806
0.221804
0.221803
0.221802
0.221801
0.221799
0.221798
0.221797
0.221796
0.221795
0.221793
0.221792
0.221791
0.22179
0.221788
0.221787
0.221786
0.221785
0.221784
0.221782
0.221781
0.22178
0.221779
0.221777
0.221776
0.221775
0.221774
0.221772
0.221771
0.22177
0.221769
0.221768
0.221766
0.221765
0.221764
0.221763
0.221761
0.22176
0.221759
0.221758
0.221756
0.221755
0.221754
0.221753
0.221752
0.22175
0.221749
0.221748
0.221747
0.221745
0.221744
0.221743
0.221742
0.221741
0.221739
0.221738
0.221737
0.221736
0.221734
0.221733
0.221732
0.221731
0.221729
0.221728
0.221727
0.221726
0.221725
0.221723
0.221722
0.221721
0.22172
0.221718
0.221717
0.221716
0.221715
0.221714
0.221712
0.221711
0.22171
0.221709
0.221707
0.221706
0.221705
0.221704
0.221703
0.221701
0.2217
0.221699
0.221698
0.221696
0.221695
0.221694
0.221693
0.221691
0.22169
0.221689
0.221688
0.221687
0.221685
0.221684
0.221683
0.221682
0.22168
0.221679
0.221678
0.221677
0.221676
0.221674
0.221673
0.221672
0.221671
0.221669
0.221668
0.221667
0.221666
0.221665
0.221663
0.221662
0.221661
0.22166
0.221658
0.221657
0.221656
0.221655
0.221654
0.221652
0.221651
0.22165
0.221649
0.221647
0.221646
0.221645
0.221644
0.221643
0.221641
0.22164
0.221639
0.221638
0.221636
0.221635
0.221634
0.221633
0.221632
0.22163
0.221629
0.221628
0.221627
0.221626
0.221624
0.221623
0.221622
0.221621
0.221619
0.221618
0.221617
0.221616
0.221615
0.221613
0.221612
0.221611
0.22161
0.221608
0.221607
0.221606
0.221605
0.221604
0.221602
0.221601
0.2216
0.221599
0.221598
0.221596
0.221595
0.221594
0.221593
0.221591
0.22159
0.221589
0.221588
0.221587
0.221585
0.221584
0.221583
0.221582
0.221581
0.221579
0.221578
0.221577
0.221576
0.221575
0.221573
0.221572
0.221571
0.22157
0.221568
0.221567
0.221566
0.221565
0.221564
0.221562
0.221561
0.22156
0.221559
0.221558
0.221556
0.221555
0.221554
0.221553
0.221552
0.22155
0.221549
0.221548
0.221547
0.221546
0.221544
0.221543
0.221542
0.221541
0.221539
0.221538
0.221537
0.221536
0.221535
0.221533
0.221532
0.221531
0.22153
0.221529
0.221527
0.221526
0.221525
0.221524
0.221523
0.221521
0.22152
0.221519
0.221518
0.221517
0.221515
0.221514
0.221513
0.221512
0.221511
0.221509
0.221508
0.221507
0.221506
0.221505
0.221503
0.221502
0.221501
0.2215
0.221499
0.221497
0.221496
0.221495
0.221494
0.221493
0.221491
0.22149
0.221489
0.221488
0.221487
0.221486
0.221484
0.221483
0.221482
0.221481
0.22148
0.221478
0.221477
0.221476
0.221475
0.221474
0.221472
0.221471
0.22147
0.221469
0.221468
0.221466
0.221465
0.221464
0.221463
0.221462
0.221461
0.221459
0.221458
0.221457
0.221456
0.221455
0.221453
0.221452
0.221451
0.22145
0.221449
0.221447
0.221446
0.221445
0.221444
0.221443
0.221442
0.22144
0.221439
0.221438
0.221437
0.221436
0.221435
0.221433
0.221432
0.221431
0.22143
0.221429
0.221427
0.221426
0.221425
0.221424
0.221423
0.221422
0.22142
0.221419
0.221418
0.221417
0.221416
0.221415
0.221413
0.221412
0.221411
0.22141
0.221409
0.221407
0.221406
0.221405
0.221404
0.221403
0.221402
0.2214
0.221399
0.221398
0.221397
0.221396
0.221395
0.221393
0.221392
0.221391
0.22139
0.221389
0.221388
0.221387
0.221385
0.221384
0.221383
0.221382
0.221381
0.22138
0.221378
0.221377
0.221376
0.221375
0.221374
0.221373
0.221371
0.22137
0.221369
0.221368
0.221367
0.221366
0.221365
0.221363
0.221362
0.221361
0.22136
0.221359
0.221358
0.221356
0.221355
0.221354
0.221353
0.221352
0.221351
0.22135
0.221348
0.221347
0.221346
0.221345
0.221344
0.221343
0.221342
0.22134
0.221339
0.221338
0.221337
0.221336
0.221335
0.221334
0.221333
0.221331
0.22133
0.221329
0.221328
0.221327
0.221326
0.221325
0.221323
0.221322
0.221321
0.22132
0.221319
0.221318
0.221317
0.221316
0.221314
0.221313
0.221312
0.221311
0.22131
0.221309
0.221308
0.221307
0.221305
0.221304
0.221303
0.221302
0.221301
0.2213
0.221299
0.221298
0.221296
0.221295
0.221294
0.221293
0.221292
0.221291
0.22129
0.221289
0.221288
0.221286
0.221285
0.221284
0.221283
0.221282
0.221281
0.22128
0.221279
0.221278
0.221277
0.221275
0.221274
0.221273
0.221272
0.221271
0.22127
0.221269
0.221268
0.221267
0.221266
0.221264
0.221263
0.221262
0.221261
0.22126
0.221259
0.221258
0.221257
0.221256
0.221255
0.221254
0.221252
0.221251
0.22125
0.221249
0.221248
0.221247
0.221246
0.221245
0.221244
0.221243
0.221242
0.221241
0.22124
0.221238
0.221237
0.221236
0.221235
0.221234
0.221233
0.221232
0.221231
0.22123
0.221229
0.221228
0.221227
0.221226
0.221225
0.221224
0.221222
0.221221
0.22122
0.221219
0.221218
0.221217
0.221216
0.221215
0.221214
0.221213
0.221212
0.221211
0.22121
0.221209
0.221208
0.221207
0.221206
0.221205
0.221204
0.221203
0.221202
0.2212
0.221199
0.221198
0.221197
0.221196
0.221195
0.221194
0.221193
0.221192
0.221191
0.22119
0.221189
0.221188
0.221187
0.221186
0.221185
0.221184
0.221183
0.221182
0.221181
0.22118
0.221179
0.221178
0.221177
0.221176
0.221175
0.221174
0.221173
0.221172
0.221171
0.22117
0.221169
0.221168
0.221167
0.221166
0.221165
0.221164
0.221163
0.221162
0.221161
0.22116
0.221159
0.221158
0.221157
0.221156
0.221155
0.221154
0.221153
0.221152
0.221151
0.22115
0.221149
0.221148
0.221147
0.221146
0.221145
0.221144
0.221143
0.221142
0.221141
0.221141
0.22114
0.221139
0.221138
0.221137
0.221136
0.221135
0.221134
0.221133
0.221132
0.221131
0.22113
0.221129
0.221128
0.221127
0.221126
0.221125
0.221124
0.221124
0.221123
0.221122
0.221121
0.22112
0.221119
0.221118
0.221117
0.221116
0.221115
0.221114
0.221113
0.221112
0.221112
0.221111
0.22111
0.221109
0.221108
0.221107
0.221106
0.221105
0.221104
0.221103
0.221103
0.221102
0.221101
0.2211
0.221099
0.221098
0.221097
0.221096
0.221096
0.221095
0.221094
0.221093
0.221092
0.221091
0.22109
0.221089
0.221089
0.221088
0.221087
0.221086
0.221085
0.221084
0.221083
0.221083
0.221082
0.221081
0.22108
0.221079
0.221078
0.221078
0.221077
0.221076
0.221075
0.221074
0.221073
0.221073
0.221072
0.221071
0.22107
0.221069
0.221069
0.221068
0.221067
0.221066
0.221065
0.221065
0.221064
0.221063
0.221062
0.221061
0.221061
0.22106
0.221059
0.221058
0.221058
0.221057
0.221056
0.221055
0.221054
0.221054
0.221053
0.221052
0.221051
0.221051
0.22105
0.221049
0.221048
0.221048
0.221047
0.221046
0.221045
0.221045
0.221044
0.221043
0.221043
0.221042
0.221041
0.22104
0.22104
0.221039
0.221038
0.221038
0.221037
0.221036
0.221036
0.221035
0.221034
0.221033
0.221033
0.221032
0.221031
0.221031
0.22103
0.221029
0.221029
0.221028
0.221027
0.221027
0.221026
0.221025
0.221025
0.221024
0.221024
0.221023
0.221022
0.221022
0.221021
0.22102
0.22102
0.221019
0.221019
0.221018
0.221017
0.221017
0.221016
0.221016
0.221015
0.221014
0.221014
0.221013
0.221013
0.221012
0.221012
0.221011
0.22101
0.22101
0.221009
0.221009
0.221008
0.221008
0.221007
0.221007
0.221006
0.221006
0.221005
0.221004
0.221004
0.221003
0.221003
0.221002
0.221002
0.221001
0.221001
0.221
0.221
0.220999
0.220999
0.220999
0.220998
0.220998
0.220997
0.220997
0.220996
0.220996
0.220995
0.220995
0.220994
0.220994
0.220994
0.220993
0.220993
0.220992
0.220992
0.220992
0.220991
0.220991
0.22099
0.22099
0.22099
0.220989
0.220989
0.220989
0.220988
0.220988
0.220987
0.220987
0.220987
0.220986
0.220986
0.220986
0.220986
0.220985
0.220985
0.220985
0.220984
0.220984
0.220984
0.220983
0.220983
0.220983
0.220983
0.220982
0.220982
0.220982
0.220982
0.220981
0.220981
0.220981
0.220981
0.22098
0.22098
0.22098
0.22098
0.22098
0.220979
0.220979
0.220979
0.220979
0.220979
0.220979
0.220978
0.220978
0.220978
0.220978
0.220978
0.220978
0.220978
0.220978
0.220978
0.220977
0.220977
0.220977
0.220977
0.220977
0.220977
0.220977
0.220977
0.220977
0.220977
0.220977
0.220977
0.220977
0.220977
0.220977
0.220977
0.220977
0.220977
0.220977
0.220977
0.220977
0.220977
0.220977
0.220977
0.220977
0.220977
0.220977
0.220977
0.220978
0.220978
0.220978
0.220978
0.220978
0.220978
0.220978
0.220979
0.220979
0.220979
0.220979
0.220979
0.220979
0.22098
0.22098
0.22098
0.22098
0.220981
0.220981
0.220981
0.220981
0.220982
0.220982
0.220982
0.220983
0.220983
0.220983
0.220984
0.220984
0.220984
0.220985
0.220985
0.220985
0.220986
0.220986
0.220986
0.220987
0.220987
0.220988
0.220988
0.220989
0.220989
0.22099
0.22099
0.220991
0.220991
0.220992
0.220992
0.220993
0.220993
0.220994
0.220994
0.220995
0.220996
0.220996
0.220997
0.220997
0.220998
0.220999
0.220999
0.221
0.221001
0.221001
0.221002
0.221003
0.221003
0.221004
0.221005
0.221006
0.221006
0.221007
0.221008
0.221009
0.22101
0.221011
0.221011
0.221012
0.221013
0.221014
0.221015
0.221016
0.221017
0.221018
0.221019
0.22102
0.221021
0.221022
0.221023
0.221024
0.221025
0.221026
0.221027
0.221028
0.221029
0.22103
0.221031
0.221032
0.221033
0.221034
0.221036
0.221037
0.221038
0.221039
0.22104
0.221042
0.221043
0.221044
0.221046
0.221047
0.221048
0.221049
0.221051
0.221052
0.221054
0.221055
0.221056
0.221058
0.221059
0.221061
0.221062
0.221064
0.221065
0.221067
0.221068
0.22107
0.221071
0.221073
0.221075
0.221076
0.221078
0.22108
0.221081
0.221083
0.221085
0.221086
0.221088
0.22109
0.221092
0.221094
0.221095
0.221097
0.221099
0.221101
0.221103
0.221105
0.221107
0.221109
0.221111
0.221113
0.221115
0.221117
0.221119
0.221121
0.221123
0.221125
0.221127
0.22113
0.221132
0.221134
0.221136
0.221139
0.221141
0.221143
0.221145
0.221148
0.22115
0.221152
0.221155
0.221157
0.22116
0.221162
0.221165
0.221167
0.22117
0.221172
0.221175
0.221178
0.22118
0.221183
0.221186
0.221188
0.221191
0.221194
0.221197
0.221199
0.221202
0.221205
0.221208
0.221211
0.221214
0.221217
0.22122
0.221223
0.221226
0.221229
0.221232
0.221235
0.221238
0.221241
0.221245
0.221248
0.221251
0.221254
0.221258
0.221261
0.221264
0.221268
0.221271
0.221275
0.221278
0.221282
0.221285
0.221289
0.221292
0.221296
0.2213
0.221303
0.221307
0.221311
0.221314
0.221318
0.221322
0.221326
0.22133
0.221334
0.221338
0.221342
0.221346
0.22135
0.221354
0.221358
0.221362
0.221366
0.22137
0.221375
0.221379
0.221383
0.221388
0.221392
0.221396
0.221401
0.221405
0.22141
0.221414
0.221419
0.221423
0.221428
0.221433
0.221437
0.221442
0.221447
0.221452
0.221457
0.221462
0.221466
0.221471
0.221476
0.221481
0.221486
0.221492
0.221497
0.221502
0.221507
0.221512
0.221518
0.221523
0.221528
0.221534
0.221539
0.221544
0.22155
0.221556
0.221561
0.221567
0.221572
0.221578
0.221584
0.22159
0.221595
0.221601
0.221607
0.221613
0.221619
0.221625
0.221631
0.221637
0.221643
0.221649
0.221655
0.221662
0.221668
0.221674
0.221681
0.221687
0.221693
0.2217
0.221706
0.221713
0.22172
0.221726
0.221733
0.22174
0.221746
0.221753
0.22176
0.221767
0.221774
0.221781
0.221788
0.221795
0.221802
0.221809
0.221816
0.221823
0.221831
0.221838
0.221845
0.221853
0.22186
0.221868
0.221875
0.221883
0.22189
0.221898
0.221905
0.221913
0.221921
0.221929
0.221936
0.221944
0.221952
0.22196
0.221968
0.221976
0.221984
0.221992
0.222
0.222009
0.222017
0.222025
0.222033
0.222042
0.22205
0.222059
0.222067
0.222076
0.222084
0.222093
0.222101
0.22211
0.222119
0.222128
0.222136
0.222145
0.222154
0.222163
0.222172
0.222181
0.22219
0.222199
0.222208
0.222218
0.222226
0.222236
0.222245
0.222255
0.222264
0.222273
0.222282
0.222292
0.222301
0.222311
0.222321
0.222331
0.22234
0.22235
0.222359
0.222369
0.222379
0.222389
0.222398
0.222409
0.222418
0.222429
0.222438
0.222449
0.222458
0.222469
0.222479
0.222489
0.222499
0.22251
0.22252
0.22253
0.22254
0.222551
0.222561
0.222572
0.222582
0.222593
0.222603
0.222614
0.222624
0.222636
0.222646
0.222657
0.222667
0.222678
0.222689
0.2227
0.22271
0.222722
0.222732
0.222744
0.222754
0.222766
0.222776
0.222788
0.222798
0.22281
0.22282
0.222832
0.222843
0.222855
0.222865
0.222877
0.222888
0.2229
0.22291
0.222922
0.222933
0.222945
0.222956
0.222968
0.222979
0.222991
0.223002
0.223014
0.223025
0.223037
0.223048
0.223061
0.223071
0.223084
0.223095
0.223107
0.223118
0.223131
0.223142
0.223154
0.223165
0.223178
0.223189
0.223202
0.223213
0.223226
0.223237
0.22325
0.223261
0.223273
0.223284
0.223297
0.223308
0.223322
0.223333
0.223346
0.223357
0.22337
0.223381
0.223394
0.223405
0.223418
0.223429
0.223443
0.223454
0.223467
0.223478
0.223492
0.223503
0.223516
0.223527
0.223541
0.223552
0.223565
0.223576
0.22359
0.223601
0.223615
0.223626
0.223639
0.223651
0.223664
0.223675
0.223689
0.2237
0.223714
0.223725
0.223739
0.22375
0.223764
0.223775
0.223789
0.2238
0.223814
0.223825
0.223839
0.22385
0.223864
0.223875
0.223889
0.2239
0.223914
0.223925
0.223939
0.22395
0.223964
0.223976
0.223989
0.224001
0.224014
0.224026
0.22404
0.224051
0.224065
0.224077
0.22409
0.224102
0.224115
0.224127
0.224141
0.224153
0.224166
0.224178
0.224191
0.224204
0.224216
0.224229
0.224242
0.224254
0.224267
0.22428
0.224293
0.224305
0.224318
0.224331
0.224343
0.224356
0.224369
0.224382
0.224394
0.224407
0.22442
0.224433
0.224445
0.224458
0.224471
0.224484
0.224496
0.224509
0.224522
0.224535
0.224548
0.22456
0.224573
0.224586
0.224599
0.224611
0.224624
0.224637
0.22465
0.224663
0.224675
0.224688
0.224701
0.224714
0.224727
0.224739
0.224752
0.224765
0.224778
0.224791
0.224804
0.224816
0.224829
0.224842
0.224855
0.224868
0.22488
0.224893
0.224906
0.224919
0.224932
0.224945
0.224957
0.22497
0.224983
0.224996
0.225009
0.225022
0.225035
0.225047
0.22506
0.225073
0.225086
0.225099
0.225112
0.225125
0.225137
0.22515
0.225163
0.225176
0.225189
0.225202
0.225215
0.225227
0.22524
0.225253
0.225266
0.225279
0.225292
0.225305
0.225318
0.22533
0.225343
0.225356
0.225369
0.225382
0.225395
0.225408
0.225421
0.225433
0.225446
0.225459
0.225472
0.225485
0.225498
0.225511
0.225524
0.225537
0.225549
0.225562
0.225575
0.225588
0.225601
0.225614
0.225627
0.22564
0.225653
0.225666
0.225678
0.225691
0.225704
0.225717
0.22573
0.225743
0.225756
0.225769
0.225782
0.225795
0.225808
0.22582
0.225833
0.225846
0.225859
0.225872
0.225885
0.225898
0.225911
0.225924
0.225937
0.22595
0.225963
0.225975
0.225988
0.226001
0.226014
0.226027
0.22604
0.226053
0.226066
0.226079
0.226092
0.226105
0.226118
0.226131
0.226144
0.226156
0.226169
0.226182
0.226195
0.226208
0.226221
0.226234
0.226247
0.22626
0.226273
0.226286
0.226299
0.226312
0.226325
0.226338
0.226351
0.226364
0.226376
0.226389
0.226402
0.226415
0.226428
0.226441
0.226454
0.226467
0.22648
0.226493
0.226506
0.226519
0.226532
0.226545
0.226558
0.226571
0.226584
0.226597
0.22661
0.226623
0.226636
0.226649
0.226662
0.226675
0.226688
0.226701
0.226714
0.226726
0.226739
0.226752
0.226765
0.226778
0.226791
0.226804
0.226817
0.22683
0.226843
0.226856
0.226869
0.226882
0.226895
0.226908
0.226921
0.226934
0.226947
0.22696
0.226973
0.226986