/*--------------------------------*- C++ -*----------------------------------*\
  =========                 |
  \\      /  F ield         | OpenFOAM: The Open Source CFD Toolbox
   \\    /   O peration     | Website:  https://openfoam.org
    \\  /    A nd           | Version:  9
     \\/     M anipulation  |
\*---------------------------------------------------------------------------*/
FoamFile
{
    format      ascii;
    class       volScalarField;
    location    "0.025";
    object      T;
}
// * * * * * * * * * * * * * * * * * * * * * * * * * * * * * * * * * * * * * //

dimensions      [0 0 0 1 0 0 0];

internalField   nonuniform List<scalar> 
10000
(
297.788
297.77
297.759
297.747
297.735
297.723
297.712
297.7
297.688
297.676
297.665
297.653
297.641
297.629
297.618
297.606
297.594
297.582
297.571
297.559
297.547
297.535
297.524
297.512
297.5
297.488
297.477
297.465
297.453
297.441
297.43
297.418
297.406
297.394
297.382
297.371
297.359
297.347
297.335
297.324
297.312
297.3
297.288
297.276
297.265
297.253
297.241
297.229
297.217
297.206
297.194
297.182
297.17
297.158
297.147
297.135
297.123
297.111
297.1
297.088
297.076
297.064
297.052
297.041
297.029
297.017
297.006
296.994
296.982
296.97
296.959
296.947
296.935
296.923
296.912
296.9
296.888
296.876
296.865
296.853
296.841
296.829
296.818
296.806
296.794
296.782
296.77
296.759
296.747
296.735
296.723
296.712
296.7
296.688
296.676
296.665
296.653
296.641
296.629
296.618
296.606
296.594
296.582
296.571
296.559
296.547
296.535
296.523
296.512
296.5
296.488
296.476
296.465
296.453
296.441
296.429
296.418
296.406
296.394
296.382
296.371
296.359
296.347
296.335
296.323
296.312
296.3
296.288
296.276
296.265
296.253
296.241
296.23
296.218
296.206
296.194
296.183
296.171
296.159
296.148
296.136
296.124
296.112
296.101
296.089
296.077
296.065
296.053
296.042
296.03
296.018
296.007
295.995
295.983
295.971
295.959
295.948
295.936
295.925
295.913
295.901
295.889
295.877
295.866
295.854
295.842
295.83
295.818
295.806
295.795
295.784
295.773
295.761
295.748
295.735
295.723
295.712
295.702
295.692
295.681
295.668
295.655
295.641
295.628
295.617
295.607
295.598
295.588
295.575
295.562
295.549
295.536
295.523
295.512
295.503
295.494
295.483
295.47
295.456
295.442
295.428
295.417
295.409
295.403
295.391
295.377
295.362
295.347
295.334
295.322
295.314
295.309
295.299
295.284
295.269
295.254
295.24
295.228
295.219
295.217
295.209
295.193
295.177
295.161
295.145
295.131
295.122
295.123
295.118
295.102
295.084
295.067
295.051
295.037
295.025
295.022
295.021
295.008
294.991
294.975
294.96
294.948
294.938
294.928
294.916
294.905
294.9
294.894
294.88
294.863
294.846
294.83
294.815
294.804
294.805
294.802
294.787
294.769
294.75
294.734
294.721
294.716
294.718
294.707
294.69
294.67
294.653
294.639
294.63
294.632
294.626
294.61
294.591
294.572
294.557
294.544
294.543
294.545
294.533
294.515
294.494
294.475
294.461
294.448
294.448
294.451
294.44
294.423
294.402
294.382
294.366
294.352
294.343
294.347
294.35
294.338
294.321
294.299
294.281
294.265
294.251
294.242
294.246
294.243
294.228
294.209
294.188
294.171
294.157
294.147
294.15
294.149
294.135
294.116
294.094
294.077
294.063
294.053
294.056
294.054
294.04
294.021
294.001
293.984
293.971
293.964
293.968
293.961
293.945
293.924
293.904
293.888
293.875
293.871
293.877
293.869
293.853
293.832
293.811
293.795
293.782
293.776
293.781
293.775
293.759
293.739
293.719
293.704
293.691
293.688
293.69
293.679
293.661
293.64
293.623
293.609
293.599
293.601
293.597
293.582
293.563
293.543
293.527
293.514
293.511
293.514
293.504
293.487
293.465
293.446
293.43
293.418
293.417
293.422
293.413
293.396
293.374
293.353
293.338
293.324
293.319
293.325
293.319
293.304
293.285
293.268
293.253
293.241
293.234
293.223
293.208
293.192
293.177
293.166
293.167
293.17
293.158
293.14
293.119
293.099
293.083
293.068
293.055
293.049
293.055
293.054
293.039
293.021
292.997
292.978
292.964
292.951
292.95
292.956
292.946
292.929
292.907
292.885
292.868
292.855
292.848
292.855
292.861
292.85
292.833
292.81
292.786
292.769
292.753
292.738
292.725
292.717
292.722
292.726
292.713
292.696
292.674
292.655
292.64
292.628
292.626
292.626
292.614
292.596
292.575
292.558
292.544
292.535
292.54
292.538
292.523
292.504
292.482
292.464
292.45
292.44
292.443
292.443
292.429
292.411
292.39
292.373
292.36
292.351
292.355
292.35
292.335
292.315
292.293
292.277
292.263
292.255
292.26
292.262
292.249
292.231
292.212
292.195
292.18
292.166
292.153
292.14
292.127
292.114
292.108
292.111
292.103
292.087
292.068
292.049
292.034
292.022
292.02
292.019
292.005
291.987
291.964
291.947
291.933
291.925
291.933
291.943
291.934
291.918
291.895
291.863
291.84
291.824
291.81
291.801
291.808
291.818
291.809
291.793
291.772
291.747
291.729
291.715
291.703
291.702
291.707
291.696
291.68
291.659
291.64
291.626
291.613
291.612
291.613
291.6
291.583
291.563
291.547
291.533
291.525
291.526
291.518
291.501
291.483
291.466
291.452
291.443
291.445
291.437
291.421
291.402
291.384
291.369
291.358
291.358
291.357
291.343
291.325
291.304
291.288
291.274
291.266
291.271
291.267
291.252
291.233
291.213
291.197
291.183
291.175
291.177
291.167
291.151
291.133
291.117
291.104
291.098
291.098
291.087
291.07
291.05
291.034
291.02
291.011
291.014
291.009
290.994
290.975
290.954
290.939
290.925
290.92
290.925
290.918
290.902
290.88
290.852
290.834
290.82
290.809
290.814
290.834
290.838
290.825
290.807
290.78
290.742
290.716
290.7
290.685
290.674
290.675
290.691
290.697
290.685
290.667
290.642
290.611
290.59
290.575
290.563
290.56
290.574
290.586
290.576
290.56
290.537
290.503
290.476
290.459
290.445
290.434
290.435
290.45
290.45
290.436
290.418
290.392
290.369
290.352
290.339
290.329
290.333
290.344
290.336
290.32
290.3
290.274
290.253
290.237
290.222
290.207
290.194
290.185
290.189
290.2
290.193
290.178
290.158
290.133
290.115
290.1
290.087
290.081
290.086
290.081
290.065
290.047
290.029
290.014
290.001
289.993
289.986
289.972
289.956
289.941
289.928
289.921
289.922
289.912
289.896
289.878
289.863
289.85
289.846
289.852
289.845
289.829
289.807
289.776
289.751
289.735
289.721
289.711
289.713
289.73
289.733
289.719
289.702
289.677
289.65
289.633
289.618
289.606
289.603
289.61
289.604
289.588
289.569
289.548
289.532
289.519
289.51
289.513
289.51
289.496
289.477
289.457
289.441
289.428
289.419
289.423
289.418
289.403
289.383
289.362
289.345
289.332
289.322
289.326
289.325
289.311
289.293
289.271
289.254
289.24
289.229
289.23
289.233
289.221
289.204
289.182
289.162
289.147
289.134
289.129
289.134
289.129
289.113
289.094
289.073
289.057
289.043
289.034
289.036
289.032
289.018
289
288.981
288.966
288.953
288.949
288.95
288.939
288.923
288.904
288.887
288.873
288.863
288.864
288.86
288.846
288.827
288.805
288.788
288.774
288.764
288.767
288.77
288.758
288.741
288.718
288.697
288.681
288.668
288.661
288.667
288.667
288.653
288.636
288.614
288.597
288.583
288.572
288.573
288.577
288.565
288.548
288.523
288.494
288.476
288.462
288.45
288.451
288.467
288.47
288.458
288.44
288.415
288.385
288.366
288.352
288.339
288.334
288.342
288.345
288.332
288.315
288.292
288.27
288.254
288.24
288.231
288.234
288.236
288.225
288.208
288.189
288.173
288.16
288.152
288.152
288.141
288.125
288.101
288.073
288.055
288.041
288.03
288.033
288.052
288.057
288.045
288.027
288.002
287.969
287.948
287.932
287.919
287.911
287.918
287.93
287.922
287.907
287.886
287.859
287.838
287.823
287.81
287.803
287.81
287.814
287.802
287.785
287.762
287.738
287.722
287.708
287.697
287.698
287.704
287.694
287.678
287.657
287.636
287.621
287.607
287.598
287.6
287.598
287.584
287.566
287.546
287.53
287.516
287.506
287.508
287.504
287.49
287.472
287.453
287.437
287.424
287.415
287.419
287.414
287.4
287.381
287.359
287.342
287.328
287.316
287.316
287.322
287.312
287.296
287.276
287.256
287.24
287.227
287.217
287.22
287.217
287.203
287.186
287.169
287.156
287.145
287.145
287.143
287.129
287.111
287.082
287.053
287.035
287.021
287.009
287.006
287.021
287.036
287.029
287.013
286.993
286.963
286.937
286.92
286.906
286.894
286.89
286.9
286.9
286.886
286.869
286.845
286.824
286.808
286.794
286.785
286.787
286.79
286.779
286.763
286.742
286.723
286.708
286.695
286.687
286.69
286.683
286.668
286.651
286.636
286.622
286.612
286.607
286.596
286.581
286.564
286.549
286.535
286.525
286.526
286.523
286.509
286.491
286.47
286.454
286.44
286.429
286.429
286.43
286.417
286.401
286.381
286.363
286.349
286.337
286.334
286.335
286.323
286.307
286.29
286.274
286.261
286.253
286.25
286.239
286.224
286.207
286.191
286.178
286.169
286.172
286.166
286.151
286.132
286.111
286.094
286.081
286.07
286.071
286.076
286.066
286.05
286.03
286.011
285.996
285.982
285.972
285.968
285.958
285.944
285.928
285.914
285.901
285.894
285.895
285.885
285.869
285.85
285.832
285.818
285.806
285.801
285.804
285.794
285.779
285.762
285.746
285.732
285.722
285.715
285.704
285.689
285.674
285.659
285.646
285.639
285.641
285.634
285.618
285.6
285.581
285.566
285.553
285.546
285.548
285.54
285.525
285.506
285.488
285.473
285.461
285.455
285.458
285.449
285.433
285.414
285.394
285.379
285.366
285.358
285.362
285.357
285.343
285.325
285.306
285.29
285.277
285.267
285.268
285.262
285.247
285.229
285.21
285.195
285.182
285.175
285.18
285.178
285.164
285.146
285.122
285.101
285.085
285.072
285.063
285.066
285.076
285.068
285.054
285.037
285.017
284.999
284.983
284.968
284.953
284.939
284.924
284.911
284.902
284.905
284.914
284.907
284.891
284.872
284.844
284.822
284.807
284.793
284.784
284.787
284.796
284.787
284.772
284.752
284.727
284.709
284.695
284.682
284.677
284.685
284.684
284.67
284.653
284.631
284.61
284.595
284.582
284.571
284.572
284.571
284.558
284.542
284.525
284.51
284.497
284.489
284.484
284.472
284.457
284.44
284.425
284.412
284.403
284.407
284.404
284.39
284.372
284.348
284.328
284.313
284.3
284.293
284.299
284.303
284.291
284.275
284.253
284.228
284.211
284.196
284.184
284.181
284.189
284.186
284.172
284.155
284.132
284.113
284.098
284.084
284.075
284.079
284.079
284.067
284.051
284.033
284.018
284.004
283.991
283.981
283.968
283.953
283.939
283.925
283.912
283.907
283.911
283.903
283.887
283.869
283.849
283.834
283.82
283.81
283.81
283.806
283.792
283.776
283.759
283.745
283.732
283.728
283.726
283.713
283.697
283.676
283.658
283.643
283.631
283.625
283.632
283.628
283.614
283.596
283.573
283.554
283.54
283.527
283.519
283.523
283.519
283.504
283.487
283.467
283.451
283.437
283.426
283.427
283.427
283.414
283.397
283.375
283.353
283.338
283.325
283.316
283.322
283.332
283.325
283.31
283.291
283.269
283.252
283.238
283.225
283.213
283.199
283.184
283.168
283.149
283.132
283.119
283.107
283.106
283.124
283.137
283.129
283.113
283.093
283.061
283.026
283.007
282.992
282.979
282.969
282.973
282.99
282.99
282.976
282.96
282.936
282.909
282.891
282.876
282.864
282.855
282.859
282.863
282.852
282.837
282.817
282.796
282.78
282.767
282.755
282.754
282.755
282.743
282.728
282.708
282.689
282.675
282.662
282.654
282.658
282.654
282.64
282.623
282.602
282.585
282.571
282.559
282.553
282.56
282.557
282.544
282.527
282.51
282.496
282.482
282.469
282.455
282.441
282.426
282.411
282.396
282.384
282.375
282.379
282.388
282.38
282.365
282.345
282.316
282.292
282.277
282.263
282.253
282.256
282.275
282.281
282.27
282.254
282.233
282.2
282.172
282.155
282.141
282.126
282.112
282.098
282.084
282.072
282.065
282.072
282.091
282.089
282.076
282.059
282.034
282
281.979
281.964
281.95
281.94
281.94
281.956
281.958
281.945
281.929
281.906
281.878
281.859
281.844
281.831
281.822
281.827
281.836
281.828
281.813
281.794
281.769
281.748
281.734
281.72
281.71
281.711
281.718
281.708
281.693
281.674
281.651
281.634
281.619
281.607
281.6
281.606
281.603
281.589
281.573
281.551
281.532
281.518
281.505
281.495
281.498
281.496
281.483
281.467
281.45
281.435
281.422
281.412
281.415
281.418
281.407
281.391
281.371
281.343
281.324
281.309
281.295
281.281
281.267
281.254
281.245
281.248
281.264
281.263
281.25
281.234
281.211
281.183
281.165
281.151
281.138
281.128
281.13
281.134
281.124
281.109
281.089
281.067
281.05
281.036
281.025
281.021
281.029
281.026
281.012
280.995
280.969
280.945
280.929
280.916
280.904
280.903
280.916
280.916
280.903
280.887
280.864
280.834
280.815
280.801
280.788
280.778
280.781
280.794
280.791
280.777
280.761
280.74
280.721
280.706
280.693
280.68
280.67
280.658
280.644
280.629
280.615
280.602
280.592
280.591
280.6
280.593
280.579
280.561
280.534
280.508
280.492
280.478
280.467
280.464
280.477
280.484
280.473
280.458
280.438
280.41
280.388
280.373
280.36
280.348
280.343
280.351
280.349
280.335
280.319
280.3
280.284
280.27
280.257
280.251
280.252
280.241
280.226
280.206
280.183
280.167
280.154
280.142
280.142
280.155
280.156
280.143
280.127
280.104
280.07
280.049
280.034
280.021
280.01
280.011
280.026
280.029
280.017
280.001
279.979
279.947
279.925
279.91
279.897
279.886
279.884
279.898
279.901
279.889
279.873
279.851
279.822
279.802
279.788
279.775
279.764
279.763
279.775
279.772
279.759
279.742
279.72
279.697
279.681
279.668
279.655
279.649
279.655
279.658
279.647
279.632
279.615
279.596
279.58
279.566
279.551
279.536
279.519
279.504
279.49
279.477
279.466
279.463
279.476
279.482
279.471
279.456
279.437
279.413
279.394
279.379
279.365
279.351
279.337
279.324
279.31
279.298
279.291
279.297
279.304
279.295
279.28
279.262
279.237
279.216
279.201
279.188
279.177
279.176
279.183
279.177
279.163
279.146
279.121
279.1
279.085
279.072
279.061
279.058
279.067
279.063
279.049
279.033
279.01
278.989
278.974
278.961
278.949
278.945
278.951
278.944
278.93
278.913
278.893
278.877
278.863
278.851
278.844
278.846
278.839
278.825
278.808
278.791
278.776
278.763
278.752
278.752
278.75
278.737
278.721
278.701
278.684
278.669
278.657
278.647
278.649
278.647
278.634
278.618
278.599
278.581
278.567
278.555
278.546
278.548
278.544
278.531
278.515
278.498
278.483
278.47
278.459
278.459
278.461
278.451
278.435
278.415
278.387
278.367
278.352
278.339
278.329
278.329
278.342
278.341
278.328
278.312
278.29
278.261
278.241
278.227
278.214
278.202
278.196
278.205
278.211
278.2
278.185
278.167
278.141
278.122
278.108
278.094
278.084
278.084
278.092
278.085
278.071
278.054
278.029
278.007
277.992
277.978
277.967
277.963
277.973
277.972
277.959
277.944
277.923
277.899
277.883
277.869
277.857
277.849
277.852
277.852
277.84
277.824
277.806
277.789
277.775
277.763
277.757
277.765
277.77
277.76
277.745
277.725
277.692
277.659
277.641
277.626
277.613
277.6
277.59
277.591
277.61
277.622
277.614
277.6
277.582
277.554
277.52
277.5
277.485
277.472
277.461
277.458
277.471
277.479
277.469
277.454
277.435
277.407
277.382
277.366
277.352
277.34
277.333
277.339
277.348
277.339
277.325
277.307
277.281
277.259
277.244
277.231
277.219
277.215
277.226
277.229
277.218
277.203
277.183
277.156
277.137
277.122
277.109
277.099
277.097
277.105
277.1
277.086
277.069
277.044
277.013
276.994
276.98
276.967
276.956
276.951
276.963
276.982
276.977
276.964
276.948
276.924
276.89
276.867
276.852
276.838
276.826
276.82
276.829
276.841
276.834
276.82
276.803
276.777
276.75
276.733
276.719
276.707
276.697
276.7
276.712
276.707
276.693
276.677
276.654
276.626
276.609
276.595
276.583
276.572
276.573
276.583
276.577
276.563
276.547
276.525
276.504
276.489
276.475
276.463
276.456
276.46
276.456
276.443
276.428
276.409
276.392
276.379
276.366
276.357
276.359
276.356
276.343
276.328
276.31
276.294
276.281
276.269
276.263
276.265
276.256
276.242
276.224
276.197
276.175
276.16
276.147
276.135
276.131
276.143
276.151
276.142
276.127
276.11
276.083
276.059
276.044
276.03
276.018
276.009
276.012
276.018
276.009
275.995
275.977
275.954
275.935
275.921
275.908
275.898
275.897
275.908
275.906
275.893
275.878
275.859
275.839
275.824
275.81
275.796
275.783
275.769
275.754
275.738
275.722
275.709
275.696
275.684
275.679
275.69
275.699
275.69
275.676
275.658
275.632
275.605
275.589
275.576
275.563
275.554
275.556
275.565
275.559
275.545
275.529
275.505
275.483
275.468
275.455
275.443
275.437
275.445
275.448
275.437
275.423
275.404
275.376
275.355
275.341
275.328
275.316
275.31
275.318
275.321
275.31
275.295
275.277
275.254
275.237
275.224
275.211
275.2
275.198
275.199
275.188
275.174
275.157
275.139
275.124
275.111
275.1
275.096
275.099
275.09
275.076
275.059
275.039
275.022
275.009
274.996
274.987
274.987
274.985
274.972
274.957
274.939
274.923
274.909
274.897
274.887
274.887
274.883
274.869
274.854
274.835
274.818
274.804
274.792
274.783
274.785
274.789
274.779
274.765
274.747
274.722
274.703
274.69
274.677
274.666
274.664
274.671
274.666
274.652
274.636
274.613
274.589
274.573
274.559
274.547
274.539
274.544
274.555
274.549
274.535
274.519
274.497
274.471
274.455
274.441
274.428
274.417
274.412
274.418
274.416
274.404
274.389
274.371
274.352
274.337
274.324
274.31
274.297
274.284
274.27
274.258
274.25
274.253
274.254
274.243
274.229
274.211
274.191
274.175
274.162
274.149
274.14
274.14
274.141
274.129
274.115
274.098
274.08
274.066
274.053
274.042
274.037
274.036
274.024
274.01
273.992
273.974
273.96
273.947
273.935
273.931
273.937
273.931
273.917
273.901
273.88
273.86
273.846
273.833
273.821
273.814
273.818
273.814
273.801
273.786
273.767
273.751
273.737
273.725
273.714
273.713
273.71
273.697
273.683
273.664
273.647
273.633
273.62
273.61
273.607
273.612
273.603
273.589
273.573
273.553
273.536
273.523
273.51
273.5
273.498
273.497
273.485
273.47
273.452
273.434
273.42
273.407
273.395
273.39
273.395
273.389
273.376
273.36
273.338
273.317
273.303
273.29
273.278
273.271
273.278
273.28
273.268
273.254
273.236
273.212
273.194
273.181
273.168
273.157
273.153
273.16
273.156
273.144
273.129
273.11
273.09
273.076
273.063
273.051
273.042
273.043
273.038
273.025
273.011
272.992
272.972
272.957
272.944
272.931
272.918
272.906
272.897
272.901
272.905
272.895
272.881
272.865
272.843
272.826
272.812
272.799
272.788
272.783
272.788
272.782
272.769
272.754
272.735
272.718
272.704
272.691
272.681
272.677
272.676
272.664
272.65
272.631
272.604
272.584
272.57
272.557
272.547
272.545
272.56
272.572
272.564
272.55
272.534
272.509
272.476
272.455
272.441
272.428
272.416
272.406
272.409
272.422
272.418
272.406
272.391
272.372
272.346
272.328
272.314
272.301
272.289
272.281
272.284
272.284
272.272
272.258
272.241
272.222
272.208
272.195
272.182
272.173
272.172
272.166
272.153
272.139
272.124
272.11
272.097
272.085
272.078
272.073
272.062
272.049
272.034
272.02
272.006
271.994
271.983
271.981
271.978
271.966
271.951
271.934
271.917
271.903
271.89
271.879
271.873
271.875
271.868
271.854
271.839
271.821
271.806
271.793
271.781
271.771
271.769
271.763
271.75
271.735
271.718
271.702
271.689
271.676
271.666
271.666
271.668
271.658
271.644
271.627
271.605
271.587
271.574
271.561
271.55
271.545
271.551
271.547
271.534
271.52
271.501
271.48
271.465
271.452
271.44
271.43
271.428
271.426
271.415
271.401
271.385
271.368
271.355
271.342
271.331
271.326
271.324
271.313
271.299
271.284
271.267
271.253
271.241
271.229
271.223
271.223
271.214
271.201
271.185
271.168
271.154
271.141
271.13
271.121
271.122
271.115
271.103
271.089
271.075
271.061
271.049
271.037
271.024
271.011
270.998
270.983
270.966
270.951
270.938
270.927
270.918
270.923
270.935
270.929
270.916
270.901
270.88
270.851
270.832
270.818
270.806
270.794
270.786
270.79
270.795
270.785
270.772
270.756
270.734
270.715
270.701
270.688
270.676
270.669
270.673
270.675
270.663
270.649
270.632
270.608
270.588
270.574
270.561
270.55
270.542
270.547
270.555
270.547
270.534
270.518
270.497
270.473
270.457
270.443
270.43
270.417
270.404
270.391
270.379
270.368
270.364
270.372
270.372
270.361
270.347
270.33
270.307
270.288
270.275
270.262
270.25
270.242
270.244
270.244
270.232
270.218
270.201
270.18
270.164
270.151
270.138
270.128
270.125
270.134
270.131
270.119
270.105
270.087
270.065
270.049
270.036
270.023
270.011
270.001
269.995
269.984
269.971
269.958
269.945
269.933
269.922
269.918
269.927
269.926
269.914
269.9
269.882
269.853
269.823
269.806
269.792
269.779
269.767
269.754
269.742
269.733
269.735
269.753
269.758
269.747
269.734
269.717
269.694
269.665
269.647
269.633
269.621
269.609
269.599
269.599
269.607
269.6
269.587
269.572
269.553
269.531
269.516
269.503
269.491
269.48
269.475
269.479
269.473
269.46
269.445
269.427
269.409
269.395
269.382
269.37
269.362
269.362
269.356
269.344
269.33
269.313
269.297
269.284
269.272
269.261
269.256
269.259
269.251
269.238
269.224
269.206
269.19
269.177
269.165
269.154
269.15
269.146
269.134
269.12
269.103
269.077
269.056
269.042
269.029
269.017
269.01
269.016
269.037
269.038
269.026
269.012
268.995
268.968
268.938
268.92
268.907
268.894
268.882
268.872
268.871
268.88
268.875
268.863
268.849
268.831
268.809
268.793
268.78
268.767
268.756
268.75
268.753
268.746
268.734
268.719
268.7
268.68
268.666
268.653
268.642
268.632
268.634
268.639
268.63
268.617
268.602
268.581
268.559
268.545
268.532
268.52
268.51
268.511
268.515
268.507
268.494
268.478
268.455
268.427
268.409
268.396
268.384
268.373
268.37
268.385
268.4
268.394
268.381
268.366
268.345
268.31
268.276
268.259
268.246
268.233
268.222
268.216
268.225
268.253
268.257
268.247
268.234
268.218
268.194
268.153
268.123
268.107
268.094
268.081
268.068
268.056
268.043
268.033
268.028
268.04
268.056
268.051
268.038
268.024
268.006
267.978
267.952
267.936
267.923
267.911
267.899
267.891
267.896
267.904
267.896
267.883
267.869
267.849
267.825
267.809
267.796
267.784
267.773
267.766
267.771
267.774
267.763
267.75
267.734
267.712
267.689
267.675
267.662
267.649
267.638
267.631
267.634
267.633
267.621
267.608
267.592
267.575
267.561
267.549
267.537
267.526
267.522
267.515
267.503
267.49
267.476
267.462
267.449
267.437
267.426
267.419
267.415
267.404
267.391
267.377
267.362
267.348
267.335
267.323
267.313
267.311
267.309
267.297
267.284
267.268
267.25
267.236
267.223
267.211
267.2
267.196
267.194
267.183
267.17
267.157
267.142
267.13
267.117
267.106
267.097
267.088
267.076
267.064
267.05
267.037
267.024
267.012
267
266.992
266.991
266.984
266.971
266.958
266.941
266.925
266.912
266.899
266.888
266.88
266.882
266.877
266.865
266.852
266.835
266.817
266.803
266.79
266.779
266.769
266.77
266.775
266.767
266.754
266.739
266.718
266.687
266.664
266.65
266.637
266.625
266.612
266.6
266.59
266.587
266.6
266.612
266.605
266.592
266.578
266.56
266.532
266.508
266.493
266.481
266.468
266.457
266.45
266.457
266.462
266.453
266.44
266.426
266.405
266.379
266.362
266.349
266.336
266.324
266.315
266.315
266.323
266.318
266.305
266.292
266.275
266.253
266.236
266.223
266.21
266.199
266.189
266.188
266.191
266.181
266.169
266.154
266.136
266.115
266.101
266.088
266.075
266.063
266.05
266.038
266.025
266.014
266.005
266.007
266.017
266.012
266
265.986
265.968
265.941
265.916
265.901
265.889
265.876
265.865
265.859
265.866
265.876
265.869
265.857
265.843
265.825
265.803
265.787
265.774
265.762
265.75
265.741
265.737
265.728
265.715
265.701
265.684
265.658
265.638
265.625
265.613
265.601
265.594
265.6
265.624
265.627
265.617
265.604
265.589
265.567
265.532
265.506
265.492
265.479
265.467
265.455
265.446
265.446
265.454
265.447
265.435
265.421
265.404
265.382
265.367
265.354
265.342
265.33
265.324
265.329
265.331
265.321
265.308
265.293
265.271
265.245
265.228
265.215
265.203
265.191
265.184
265.188
265.198
265.192
265.18
265.166
265.148
265.122
265.099
265.085
265.073
265.061
265.05
265.045
265.054
265.057
265.047
265.035
265.02
264.999
264.972
264.954
264.941
264.928
264.916
264.906
264.902
264.91
264.908
264.896
264.883
264.868
264.848
264.83
264.817
264.805
264.793
264.782
264.778
264.782
264.775
264.763
264.75
264.736
264.721
264.709
264.696
264.684
264.671
264.659
264.646
264.631
264.611
264.589
264.575
264.562
264.55
264.539
264.534
264.545
264.565
264.562
264.55
264.537
264.521
264.496
264.461
264.441
264.428
264.415
264.403
264.392
264.386
264.394
264.399
264.39
264.378
264.364
264.346
264.323
264.307
264.295
264.282
264.271
264.263
264.266
264.269
264.26
264.247
264.233
264.212
264.183
264.162
264.149
264.137
264.125
264.116
264.116
264.132
264.138
264.128
264.115
264.101
264.08
264.043
264.011
263.994
263.981
263.969
263.958
263.949
263.952
263.975
263.985
263.976
263.964
263.95
263.932
263.902
263.874
263.858
263.846
263.833
263.822
263.813
263.816
263.834
263.838
263.828
263.815
263.801
263.782
263.749
263.718
263.702
263.689
263.677
263.664
263.652
263.64
263.627
263.615
263.603
263.591
263.581
263.577
263.589
263.6
263.593
263.581
263.568
263.551
263.524
263.496
263.48
263.467
263.455
263.443
263.434
263.433
263.445
263.444
263.433
263.42
263.406
263.385
263.358
263.342
263.329
263.317
263.305
263.295
263.294
263.302
263.298
263.286
263.273
263.258
263.235
263.214
263.199
263.187
263.175
263.164
263.156
263.159
263.163
263.154
263.142
263.128
263.111
263.091
263.077
263.064
263.052
263.041
263.033
263.031
263.024
263.012
262.999
262.982
262.958
262.935
262.92
262.908
262.896
262.885
262.879
262.886
262.904
262.901
262.89
262.877
262.862
262.84
262.808
262.788
262.774
262.762
262.75
262.739
262.733
262.739
262.749
262.742
262.73
262.717
262.701
262.677
262.652
262.637
262.624
262.612
262.6
262.589
262.58
262.577
262.569
262.557
262.545
262.533
262.521
262.509
262.5
262.499
262.509
262.505
262.493
262.48
262.465
262.44
262.402
262.378
262.364
262.352
262.34
262.329
262.323
262.332
262.357
262.359
262.349
262.336
262.322
262.304
262.275
262.25
262.235
262.222
262.21
262.198
262.186
262.175
262.165
262.155
262.143
262.131
262.119
262.108
262.097
262.09
262.093
262.09
262.078
262.066
262.052
262.034
262.017
262.004
261.992
261.98
261.969
261.963
261.963
261.955
261.943
261.93
261.915
261.897
261.882
261.87
261.858
261.847
261.838
261.838
261.835
261.824
261.812
261.798
261.78
261.764
261.751
261.739
261.727
261.717
261.712
261.714
261.707
261.695
261.682
261.667
261.646
261.63
261.617
261.605
261.593
261.583
261.576
261.582
261.585
261.575
261.563
261.551
261.537
261.52
261.493
261.469
261.455
261.442
261.43
261.418
261.406
261.394
261.382
261.371
261.362
261.361
261.374
261.375
261.365
261.352
261.339
261.321
261.297
261.279
261.266
261.254
261.242
261.232
261.226
261.233
261.233
261.223
261.21
261.196
261.177
261.146
261.119
261.105
261.092
261.08
261.069
261.059
261.057
261.073
261.088
261.082
261.07
261.057
261.042
261.019
260.978
260.949
260.934
260.922
260.91
260.898
260.889
260.888
260.905
260.919
260.912
260.9
260.888
260.873
260.85
260.818
260.799
260.785
260.773
260.761
260.75
260.742
260.742
260.75
260.744
260.733
260.72
260.706
260.686
260.665
260.651
260.638
260.627
260.615
260.606
260.603
260.605
260.597
260.585
260.572
260.557
260.537
260.522
260.509
260.497
260.485
260.475
260.469
260.47
260.462
260.45
260.437
260.423
260.406
260.391
260.379
260.367
260.356
260.346
260.341
260.335
260.323
260.311
260.299
260.286
260.273
260.261
260.249
260.238
260.23
260.225
260.215
260.203
260.191
260.178
260.164
260.151
260.139
260.127
260.116
260.11
260.114
260.117
260.107
260.095
260.082
260.068
260.05
260.032
260.019
260.007
259.995
259.982
259.969
259.953
259.931
259.91
259.896
259.884
259.872
259.86
259.849
259.839
259.835
259.846
259.86
259.854
259.843
259.83
259.816
259.797
259.768
259.748
259.735
259.722
259.711
259.7
259.691
259.691
259.698
259.692
259.68
259.668
259.654
259.633
259.61
259.595
259.583
259.571
259.559
259.55
259.546
259.552
259.548
259.537
259.525
259.511
259.492
259.47
259.455
259.442
259.43
259.419
259.409
259.404
259.409
259.406
259.395
259.382
259.369
259.352
259.33
259.315
259.303
259.291
259.279
259.268
259.261
259.261
259.256
259.245
259.233
259.22
259.206
259.193
259.181
259.169
259.157
259.146
259.139
259.132
259.121
259.11
259.098
259.086
259.074
259.064
259.056
259.054
259.046
259.035
259.023
259.009
258.991
258.964
258.943
258.929
258.917
258.905
258.894
258.883
258.873
258.872
258.885
258.887
258.878
258.866
258.853
258.838
258.816
258.792
258.777
258.764
258.753
258.741
258.73
258.723
258.725
258.729
258.72
258.708
258.696
258.682
258.664
258.646
258.633
258.621
258.609
258.597
258.585
258.573
258.561
258.55
258.538
258.528
258.523
258.519
258.509
258.497
258.485
258.473
258.461
258.448
258.436
258.424
258.412
258.401
258.39
258.382
258.379
258.37
258.359
258.347
258.334
258.32
258.306
258.294
258.282
258.27
258.26
258.253
258.254
258.249
258.238
258.226
258.213
258.198
258.179
258.165
258.152
258.14
258.129
258.117
258.105
258.093
258.082
258.07
258.06
258.053
258.054
258.05
258.039
258.027
258.014
257.998
257.976
257.96
257.948
257.936
257.924
257.914
257.908
257.916
257.936
257.934
257.924
257.912
257.898
257.881
257.851
257.792
257.752
257.735
257.722
257.71
257.698
257.687
257.677
257.67
257.676
257.713
257.741
257.738
257.727
257.715
257.703
257.687
257.661
257.62
257.596
257.582
257.57
257.558
257.547
257.537
257.53
257.535
257.536
257.526
257.514
257.502
257.487
257.465
257.443
257.429
257.418
257.406
257.395
257.386
257.385
257.397
257.397
257.387
257.375
257.362
257.347
257.325
257.305
257.291
257.279
257.268
257.257
257.248
257.247
257.255
257.249
257.238
257.226
257.212
257.193
257.159
257.116
257.096
257.083
257.071
257.059
257.048
257.037
257.028
257.029
257.055
257.094
257.096
257.087
257.075
257.063
257.048
257.026
256.983
256.927
256.903
256.889
256.877
256.866
256.854
256.843
256.835
256.835
256.856
256.877
256.873
256.862
256.85
256.837
256.822
256.798
256.771
256.755
256.743
256.731
256.72
256.709
256.703
256.708
256.71
256.7
256.689
256.676
256.661
256.638
256.603
256.582
256.569
256.557
256.546
256.535
256.528
256.531
256.546
256.543
256.532
256.52
256.507
256.49
256.461
256.424
256.405
256.393
256.381
256.37
256.36
256.355
256.365
256.399
256.407
256.398
256.387
256.375
256.361
256.34
256.302
256.264
256.247
256.234
256.223
256.211
256.201
256.194
256.201
256.219
256.217
256.207
256.195
256.183
256.168
256.145
256.112
256.093
256.08
256.068
256.057
256.046
256.036
256.034
256.039
256.033
256.021
256.01
255.997
255.981
255.959
255.943
255.931
255.92
255.908
255.898
255.892
255.897
255.902
255.894
255.882
255.87
255.857
255.839
255.813
255.795
255.782
255.771
255.759
255.749
255.741
255.742
255.749
255.742
255.731
255.719
255.706
255.689
255.662
255.637
255.623