/*--------------------------------*- C++ -*----------------------------------*\
  =========                 |
  \\      /  F ield         | OpenFOAM: The Open Source CFD Toolbox
   \\    /   O peration     | Website:  https://openfoam.org
    \\  /    A nd           | Version:  9
     \\/     M anipulation  |
\*---------------------------------------------------------------------------*/
FoamFile
{
    format      ascii;
    class       volScalarField;
    location    "0.008";
    object      mag(U);
}
// * * * * * * * * * * * * * * * * * * * * * * * * * * * * * * * * * * * * * //

dimensions      [0 1 -1 0 0 0 0];

internalField   nonuniform List<scalar> 
10000
(
8.46063e-13
9.19e-13
1.09405e-12
1.13781e-12
1.12322e-12
1.2691e-12
1.66295e-12
1.79424e-12
1.96929e-12
1.96929e-12
2.21727e-12
2.34856e-12
2.33397e-12
2.69865e-12
2.59654e-12
3.04875e-12
2.65489e-12
3.15086e-12
3.29673e-12
3.47178e-12
3.25297e-12
3.3259e-12
3.13627e-12
3.51554e-12
3.88022e-12
3.73435e-12
4.12821e-12
3.80729e-12
4.11362e-12
3.99692e-12
4.25949e-12
4.02609e-12
4.44913e-12
4.08444e-12
4.06986e-12
3.93857e-12
3.71976e-12
3.85105e-12
3.48636e-12
3.51554e-12
3.53013e-12
3.13627e-12
3.23838e-12
2.91746e-12
3.19462e-12
3.16544e-12
2.90287e-12
3.15086e-12
2.96122e-12
2.93205e-12
3.26756e-12
2.77159e-12
3.18003e-12
2.90287e-12
3.16544e-12
3.09251e-12
3.22379e-12
3.01957e-12
3.01957e-12
3.20921e-12
2.85911e-12
3.04875e-12
2.88829e-12
2.66948e-12
2.6403e-12
2.58195e-12
1.86717e-12
2.14433e-12
1.44414e-12
1.64836e-12
1.0357e-12
1.56084e-12
6.56429e-13
1.09405e-12
5.10556e-13
5.54317e-13
1.31286e-13
2.91746e-13
4.66794e-13
5.83492e-14
6.41841e-13
5.3973e-13
1.51708e-12
1.21075e-12
1.99846e-12
1.82341e-12
2.29021e-12
2.08598e-12
2.96122e-12
2.47984e-12
3.47178e-12
2.90287e-12
3.58848e-12
3.19462e-12
3.80729e-12
3.28214e-12
3.93857e-12
3.48636e-12
3.93857e-12
2.97581e-12
3.88022e-12
2.97581e-12
3.41343e-12
2.93205e-12
3.01957e-12
2.59654e-12
3.00498e-12
2.43608e-12
2.81535e-12
2.49443e-12
2.27562e-12
2.15892e-12
1.79424e-12
1.76506e-12
1.4879e-12
1.61919e-12
1.37121e-12
1.29827e-12
1.12322e-12
1.25451e-12
9.77349e-13
1.10863e-12
4.95968e-13
7.87714e-13
4.37619e-14
4.23032e-13
3.06333e-13
1.16698e-13
3.93857e-13
2.04222e-13
3.93857e-13
1.16698e-13
1.75048e-13
4.37619e-14
2.47984e-13
5.46441e-24
1.6046e-13
8.75238e-14
2.91746e-14
1.75048e-13
7.29365e-14
1.16698e-13
2.04222e-13
3.50095e-13
3.64683e-13
3.20921e-13
5.68905e-13
2.62571e-13
5.98079e-13
1.89635e-13
5.68905e-13
2.47984e-13
4.95968e-13
1.31286e-13
2.91746e-14
3.64683e-13
5.10556e-13
7.43952e-13
4.81381e-13
1.12322e-12
9.04413e-13
1.82341e-12
1.50249e-12
2.20268e-12
1.91094e-12
2.66948e-12
2.15892e-12
3.34049e-12
2.15892e-12
3.04875e-12
2.33397e-12
2.94663e-12
2.30479e-12
3.13627e-12
1.89635e-12
3.13627e-12
1.66295e-12
2.77159e-12
1.91094e-12
2.74241e-12
2.12975e-12
2.39232e-12
1.80883e-12
2.14433e-12
2.04222e-12
1.73589e-12
1.73589e-12
1.05029e-12
1.16698e-12
1.89635e-13
7.0019e-13
4.52206e-13
2.33397e-13
5.83492e-13
1.45873e-13
7.87714e-13
3.20921e-13
7.5854e-13
5.3973e-13
8.60651e-13
9.33587e-13
1.35662e-12
1.25451e-12
1.94011e-12
1.76506e-12
1.86717e-12
2.0714e-12
2.15892e-12
2.34856e-12
2.42149e-12
2.42149e-12
2.45067e-12
2.55278e-12
2.50902e-12
2.55278e-12
2.42149e-12
2.80076e-12
2.68406e-12
2.93205e-12
2.43608e-12
2.62571e-12
2.04222e-12
2.12975e-12
1.88176e-12
1.82341e-12
1.32744e-12
1.63378e-12
1.22533e-12
1.21075e-12
1.1524e-12
1.50249e-12
8.75238e-13
1.44414e-12
8.46063e-13
1.21075e-12
1.22533e-12
1.41497e-12
1.23992e-12
1.63378e-12
1.35662e-12
1.64836e-12
1.59002e-12
1.64836e-12
1.69213e-12
1.54625e-12
1.82341e-12
1.59002e-12
1.73589e-12
1.54625e-12
2.11516e-12
1.75048e-12
2.14433e-12
1.7213e-12
2.02763e-12
1.56084e-12
2.11516e-12
1.61919e-12
1.86717e-12
1.76506e-12
1.70671e-12
1.89635e-12
1.70671e-12
1.73589e-12
1.76506e-12
1.51708e-12
1.51708e-12
1.35662e-12
1.37121e-12
1.63378e-12
1.44414e-12
1.51708e-12
1.82341e-12
1.57543e-12
1.88176e-12
1.50249e-12
1.79424e-12
1.59002e-12
1.76506e-12
1.44414e-12
1.63378e-12
1.13781e-12
1.56084e-12
1.23992e-12
1.56084e-12
1.07946e-12
1.4879e-12
1.31286e-12
1.4879e-12
1.22533e-12
1.34203e-12
1.10863e-12
1.28368e-12
1.06487e-12
1.13781e-12
1.18157e-12
1.34203e-12
1.28368e-12
1.4879e-12
1.47332e-12
1.19616e-12
1.40038e-12
1.2691e-12
1.2691e-12
1.34203e-12
1.50249e-12
1.34203e-12
1.53167e-12
1.13781e-12
1.31286e-12
1.10863e-12
1.19616e-12
5.25143e-13
9.62762e-13
2.33397e-13
8.46063e-13
2.62571e-13
8.60651e-13
2.33397e-13
8.02302e-13
7.29365e-14
7.5854e-13
2.33397e-13
8.75238e-13
1.89635e-13
6.12667e-13
1.45873e-14
8.75238e-13
2.47984e-13
7.5854e-13
3.50095e-13
5.54317e-13
4.08444e-13
7.29365e-13
3.7927e-13
5.68905e-13
3.20921e-13
5.68905e-13
4.95968e-13
6.41841e-13
5.3973e-13
8.60651e-13
8.02302e-13
8.31476e-13
6.85603e-13
7.29365e-13
7.0019e-13
8.02302e-13
9.91936e-13
8.46063e-13
8.02302e-13
1.07946e-12
5.83492e-13
8.60651e-13
5.68905e-13
6.41841e-13
6.41841e-13
9.33587e-13
8.02302e-13
9.91936e-13
7.87714e-13
5.54317e-13
4.81381e-13
6.27254e-13
4.66794e-13
5.68905e-13
2.47984e-13
3.20921e-13
2.1881e-13
4.37619e-14
4.37619e-14
5.98079e-13
7.29365e-13
9.91936e-13
8.75238e-13
1.22533e-12
7.5854e-13
1.05029e-12
5.54317e-13
9.48175e-13
2.77159e-13
7.5854e-13
3.50095e-13
6.41841e-13
3.93857e-13
5.83492e-13
4.37619e-13
6.27254e-13
1.89635e-13
6.71016e-13
2.33397e-13
5.54317e-13
1.45873e-14
1.16698e-13
4.52206e-13
3.7927e-13
7.0019e-13
7.87714e-13
9.91936e-13
7.43952e-13
1.12322e-12
1.16698e-12
1.07946e-12
1.13781e-12
1.32744e-12
1.56084e-12
1.29827e-12
1.57543e-12
1.59002e-12
1.6046e-12
1.54625e-12
1.88176e-12
1.53167e-12
2.14433e-12
1.98387e-12
2.04222e-12
2.33397e-12
2.43608e-12
2.93205e-12
2.96122e-12
3.22379e-12
2.94663e-12
3.07792e-12
3.18003e-12
3.69059e-12
3.18003e-12
4.15738e-12
3.71976e-12
4.68252e-12
4.37619e-12
4.98886e-12
4.94509e-12
5.54317e-12
5.29519e-12
5.93703e-12
5.98079e-12
6.40382e-12
6.09749e-12
7.10402e-12
5.96621e-12
7.352e-12
6.53511e-12
7.24989e-12
6.1996e-12
7.57081e-12
5.92244e-12
7.41035e-12
6.30171e-12
7.04567e-12
5.90786e-12
6.98732e-12
5.52859e-12
6.60805e-12
5.71822e-12
6.11208e-12
5.48482e-12
6.05373e-12
5.00344e-12
6.17043e-12
4.87216e-12
5.87868e-12
5.14932e-12
5.26602e-12
5.01803e-12
5.514e-12
5.38271e-12
5.32436e-12
5.17849e-12
5.3973e-12
5.58694e-12
5.71822e-12
5.60152e-12
5.42648e-12
5.6307e-12
5.60152e-12
5.55776e-12
6.00997e-12
5.41189e-12
5.68905e-12
5.7474e-12
5.86409e-12
5.514e-12
5.96621e-12
5.30978e-12
6.11208e-12
5.99538e-12
5.70363e-12
6.1996e-12
6.41841e-12
6.11208e-12
7.06025e-12
5.80575e-12
6.65181e-12
6.1996e-12
6.15584e-12
6.0829e-12
6.02455e-12
5.86409e-12
5.95162e-12
5.55776e-12
5.86409e-12
5.68905e-12
5.98079e-12
5.22225e-12
5.67446e-12
5.71822e-12
5.48482e-12
5.49941e-12
5.6307e-12
5.6307e-12
4.94509e-12
5.73281e-12
4.595e-12
5.38271e-12
4.74087e-12
4.49289e-12
4.33243e-12
4.63876e-12
3.77811e-12
4.50748e-12
3.96775e-12
4.41995e-12
4.25949e-12
4.06986e-12
4.09903e-12
3.85105e-12
3.45719e-12
3.73435e-12
3.66141e-12
3.29673e-12
3.42802e-12
3.36967e-12
3.10709e-12
2.78617e-12
3.18003e-12
2.62571e-12
3.00498e-12
3.06333e-12
2.72783e-12
2.77159e-12
3.01957e-12
2.9904e-12
2.71324e-12
3.20921e-12
2.37773e-12
2.82994e-12
2.27562e-12
2.15892e-12
1.75048e-12
2.20268e-12
1.53167e-12
1.9547e-12
1.50249e-12
1.82341e-12
1.40038e-12
1.51708e-12
1.18157e-12
1.40038e-12
8.31476e-13
1.35662e-12
7.5854e-13
1.05029e-12
6.12667e-13
1.34203e-12
5.25143e-13
1.44414e-12
7.0019e-13
1.67754e-12
9.04413e-13
1.76506e-12
9.77349e-13
1.88176e-12
9.48175e-13
1.77965e-12
8.75238e-13
1.67754e-12
9.77349e-13
1.89635e-12
8.60651e-13
2.08598e-12
9.91936e-13
2.08598e-12
1.25451e-12
2.37773e-12
1.53167e-12
2.72783e-12
1.88176e-12
2.71324e-12
2.20268e-12
3.35508e-12
2.81535e-12
3.53013e-12
3.38425e-12
4.11362e-12
3.88022e-12
4.87216e-12
4.595e-12
5.35354e-12
5.33895e-12
5.93703e-12
5.48482e-12
7.03108e-12
6.0829e-12
6.65181e-12
6.79768e-12
6.89979e-12
6.06832e-12
7.01649e-12
5.98079e-12
6.33089e-12
6.1996e-12
5.60152e-12
5.84951e-12
5.80575e-12
5.1639e-12
5.82033e-12
4.84298e-12
5.3973e-12
4.88675e-12
4.81381e-12
4.56582e-12
4.43454e-12
4.21573e-12
4.11362e-12
3.60306e-12
3.60306e-12
3.50095e-12
3.88022e-12
3.53013e-12
3.53013e-12
3.34049e-12
3.34049e-12
3.51554e-12
3.39884e-12
3.83646e-12
3.676e-12
3.95316e-12
3.69059e-12
4.31784e-12
3.88022e-12
4.21573e-12
4.30325e-12
4.81381e-12
4.40536e-12
5.64529e-12
4.55124e-12
5.48482e-12
4.90133e-12
5.14932e-12
5.13473e-12
5.79116e-12
4.95968e-12
5.3973e-12
5.19308e-12
5.47024e-12
5.22225e-12
5.61611e-12
5.19308e-12
5.41189e-12
5.42648e-12
5.3973e-12
5.48482e-12
5.77657e-12
5.3973e-12
5.84951e-12
5.57235e-12
5.93703e-12
5.12014e-12
6.22878e-12
4.95968e-12
5.90786e-12
5.60152e-12
5.67446e-12
5.76198e-12
5.93703e-12
5.52859e-12
6.46217e-12
5.49941e-12
6.09749e-12
5.7474e-12
5.89327e-12
5.87868e-12
6.09749e-12
5.60152e-12
5.99538e-12
6.36006e-12
5.65987e-12
5.86409e-12
6.18502e-12
5.49941e-12
6.03914e-12
5.87868e-12
5.52859e-12
5.20767e-12
5.60152e-12
4.62417e-12
5.23684e-12
4.77005e-12
4.77005e-12
4.68252e-12
4.90133e-12
4.65335e-12
4.75546e-12
4.81381e-12
4.3616e-12
4.85757e-12
4.79922e-12
4.595e-12
4.78463e-12
4.39078e-12
4.595e-12
4.40536e-12
4.2449e-12
4.40536e-12
4.08444e-12
3.63224e-12
3.80729e-12
3.60306e-12
3.16544e-12
3.18003e-12
2.74241e-12
2.82994e-12
2.59654e-12
2.77159e-12
2.33397e-12
2.42149e-12
1.9547e-12
1.89635e-12
1.44414e-12
1.40038e-12
9.33587e-13
1.13781e-12
2.47984e-13
6.27254e-13
2.1881e-13
1.89635e-13
3.20921e-13
1.16698e-13
1.6046e-13
1.6046e-13
1.02111e-13
2.1881e-13
7.29365e-14
1.6046e-13
1.31286e-13
2.47984e-13
2.91746e-13
5.54317e-13
3.50095e-13
7.14778e-13
4.08444e-13
8.46063e-13
4.81381e-13
1.02111e-12
6.85603e-13
7.87714e-13
7.29365e-13
1.22533e-12
5.3973e-13
1.51708e-12
9.04413e-13
1.25451e-12
1.05029e-12
1.77965e-12
1.13781e-12
1.94011e-12
1.9547e-12
1.9547e-12
2.02763e-12
2.6403e-12
2.24644e-12
2.78617e-12
2.24644e-12
3.34049e-12
2.66948e-12
3.51554e-12
3.03416e-12
3.98233e-12
3.53013e-12
4.44913e-12
4.25949e-12
4.65335e-12
4.93051e-12
5.52859e-12
5.45565e-12
5.95162e-12
5.77657e-12
6.3163e-12
5.89327e-12
6.05373e-12
6.21419e-12
5.89327e-12
5.55776e-12
5.54317e-12
5.58694e-12
5.98079e-12
5.96621e-12
5.86409e-12
5.83492e-12
6.46217e-12
5.54317e-12
6.95814e-12
5.42648e-12
6.50594e-12
5.7474e-12
6.25795e-12
5.84951e-12
6.15584e-12
5.73281e-12
6.47676e-12
6.11208e-12
5.95162e-12
6.0829e-12
6.37465e-12
5.61611e-12
6.09749e-12
5.76198e-12
5.47024e-12
5.07638e-12
5.30978e-12
4.62417e-12
4.63876e-12
4.91592e-12
4.39078e-12
4.43454e-12
4.15738e-12
4.21573e-12
4.14279e-12
4.01151e-12
3.9094e-12
4.08444e-12
3.96775e-12
3.88022e-12
4.09903e-12
3.80729e-12
4.27408e-12
3.76352e-12
4.04068e-12
3.53013e-12
3.98233e-12
3.54471e-12
3.86563e-12
3.39884e-12
3.9094e-12
3.58848e-12
4.20114e-12
3.66141e-12
4.33243e-12
4.14279e-12
4.84298e-12
4.05527e-12
4.87216e-12
4.33243e-12
4.90133e-12
4.63876e-12
5.07638e-12
4.33243e-12
5.47024e-12
4.46371e-12
5.33895e-12
4.53665e-12
5.14932e-12
4.7117e-12
5.514e-12
4.20114e-12
5.71822e-12
4.37619e-12
5.48482e-12
4.85757e-12
4.91592e-12
4.79922e-12
4.94509e-12
4.63876e-12
5.10556e-12
4.63876e-12
5.19308e-12
4.91592e-12
5.60152e-12
4.77005e-12
5.65987e-12
5.44106e-12
5.47024e-12
5.07638e-12
6.00997e-12
5.36813e-12
5.3973e-12
5.77657e-12
5.23684e-12
5.25143e-12
5.71822e-12
4.69711e-12
5.17849e-12
5.44106e-12
5.07638e-12
5.55776e-12
4.81381e-12
5.42648e-12
5.1639e-12
4.98886e-12
5.07638e-12
4.98886e-12
4.37619e-12
4.94509e-12
4.50748e-12
4.74087e-12
4.30325e-12
4.52206e-12
3.53013e-12
4.04068e-12
3.53013e-12
4.04068e-12
3.15086e-12
3.80729e-12
2.757e-12
3.63224e-12
2.81535e-12
3.13627e-12
2.47984e-12
2.37773e-12
2.15892e-12
2.5236e-12
1.63378e-12
2.56736e-12
1.6046e-12
2.34856e-12
1.69213e-12
2.50902e-12
2.01305e-12
2.68406e-12
1.63378e-12
2.81535e-12
1.76506e-12
2.68406e-12
2.26103e-12
2.55278e-12
2.33397e-12
3.09251e-12
2.71324e-12
3.53013e-12
3.35508e-12
4.06986e-12
3.54471e-12
4.55124e-12
3.5593e-12
4.05527e-12
3.63224e-12
4.43454e-12
3.16544e-12
4.12821e-12
3.71976e-12
4.05527e-12
3.57389e-12
3.98233e-12
3.3259e-12
4.44913e-12
3.06333e-12
4.01151e-12
3.15086e-12
3.83646e-12
2.8737e-12
3.5593e-12
2.47984e-12
3.80729e-12
2.50902e-12
4.30325e-12
3.03416e-12
4.18656e-12
3.06333e-12
4.75546e-12
3.50095e-12
5.17849e-12
4.02609e-12
5.55776e-12
3.93857e-12
5.95162e-12
4.30325e-12
6.12667e-12
4.72629e-12
6.68098e-12
4.74087e-12
6.6664e-12
5.06179e-12
6.89979e-12
5.13473e-12
7.06025e-12
5.45565e-12
7.0019e-12
5.87868e-12
7.27906e-12
5.87868e-12
7.59998e-12
6.33089e-12
7.45411e-12
6.92897e-12
7.78962e-12
7.70209e-12
7.97925e-12
7.74586e-12
8.06678e-12
8.06678e-12
8.0376e-12
7.76044e-12
8.09595e-12
7.96467e-12
8.05219e-12
8.05219e-12
7.70209e-12
8.22724e-12
7.71668e-12
7.80421e-12
7.352e-12
7.71668e-12
7.03108e-12
7.16236e-12
6.89979e-12
6.433e-12
6.52052e-12
6.27254e-12
6.22878e-12
6.03914e-12
6.27254e-12
6.02455e-12
6.21419e-12
6.00997e-12
5.96621e-12
6.21419e-12
5.96621e-12
6.17043e-12
5.68905e-12
5.89327e-12
5.52859e-12
5.99538e-12
5.38271e-12
6.00997e-12
5.80575e-12
5.68905e-12
5.57235e-12
6.12667e-12
5.41189e-12
6.14125e-12
5.22225e-12
6.11208e-12
5.06179e-12
5.84951e-12
4.90133e-12
5.45565e-12
5.01803e-12
5.00344e-12
4.72629e-12
5.04721e-12
4.63876e-12
4.93051e-12
4.55124e-12
4.81381e-12
4.4783e-12
4.90133e-12
3.77811e-12
4.56582e-12
3.63224e-12
3.9094e-12
3.39884e-12
3.60306e-12
3.18003e-12
2.97581e-12
2.47984e-12
2.757e-12
2.26103e-12
2.1881e-12
2.11516e-12
1.73589e-12
1.38579e-12
1.32744e-12
8.16889e-13
6.41841e-13
4.23032e-13
8.75238e-14
5.83492e-14
1.31286e-13
4.08444e-13
5.83492e-14
3.06333e-13
2.62571e-13
1.45873e-14
5.25143e-13
5.54317e-13
5.3973e-13
7.43952e-13
6.56429e-13
1.31286e-12
9.77349e-13
1.50249e-12
1.41497e-12
1.53167e-12
1.59002e-12
1.9547e-12
1.89635e-12
2.15892e-12
2.23186e-12
2.31938e-12
2.05681e-12
2.42149e-12
2.66948e-12
2.61113e-12
2.5236e-12
2.757e-12
2.80076e-12
2.72783e-12
2.94663e-12
3.16544e-12
3.51554e-12
3.58848e-12
3.9094e-12
4.20114e-12
4.25949e-12
4.43454e-12
4.58041e-12
4.65335e-12
4.90133e-12
5.10556e-12
5.09097e-12
5.54317e-12
5.22225e-12
5.83492e-12
5.22225e-12
6.17043e-12
4.95968e-12
6.11208e-12
5.07638e-12
6.06832e-12
5.1639e-12
6.06832e-12
5.13473e-12
6.09749e-12
5.71822e-12
5.47024e-12
5.49941e-12
5.96621e-12
5.514e-12
5.52859e-12
5.79116e-12
5.45565e-12
5.70363e-12
5.36813e-12
5.20767e-12
5.26602e-12
5.17849e-12
4.88675e-12
4.84298e-12
4.65335e-12
4.63876e-12
4.28867e-12
4.62417e-12
4.04068e-12
4.43454e-12
4.25949e-12
4.27408e-12
3.88022e-12
3.92398e-12
3.66141e-12
3.64683e-12
3.4426e-12
3.28214e-12
3.25297e-12
2.66948e-12
2.50902e-12
1.94011e-12
1.88176e-12
1.44414e-12
1.56084e-12
1.18157e-12
1.13781e-12
6.27254e-13
5.3973e-13
5.83492e-14
3.20921e-13
1.02111e-13
3.06333e-13
2.91746e-14
4.23032e-13
7.29365e-14
1.75048e-13
1.75048e-13
7.29365e-14
5.83492e-14
1.89635e-13
2.91746e-14
2.04222e-13
4.37619e-14
4.37619e-14
7.29365e-14
4.37619e-14
1.89635e-13
3.20921e-13
1.31286e-13
1.16698e-13
3.20921e-13
1.45873e-13
4.52206e-13
4.95968e-13
5.68905e-13
5.3973e-13
7.43952e-13
9.33587e-13
4.37619e-13
1.51708e-12
9.91936e-13
1.53167e-12
1.59002e-12
1.4879e-12
1.54625e-12
2.05681e-12
1.99846e-12
2.21727e-12
2.42149e-12
2.46525e-12
2.58195e-12
2.96122e-12
2.84452e-12
3.01957e-12
3.22379e-12
3.03416e-12
3.5593e-12
3.74894e-12
4.20114e-12
4.09903e-12
4.94509e-12
4.75546e-12
5.52859e-12
5.55776e-12
5.96621e-12
5.79116e-12
5.87868e-12
6.02455e-12
5.73281e-12
5.55776e-12
5.76198e-12
5.6307e-12
5.44106e-12
5.60152e-12
4.88675e-12
5.80575e-12
4.77005e-12
5.29519e-12
4.05527e-12
4.98886e-12
3.74894e-12
4.66794e-12
3.53013e-12
4.04068e-12
3.39884e-12
3.50095e-12
3.15086e-12
2.97581e-12
2.65489e-12
2.36314e-12
2.26103e-12
2.21727e-12
1.70671e-12
1.63378e-12
1.88176e-12
1.41497e-12
1.50249e-12
1.00652e-12
1.57543e-12
6.71016e-13
1.21075e-12
7.14778e-13
1.19616e-12
1.28368e-12
9.77349e-13
1.35662e-12
1.21075e-12
1.88176e-12
1.2691e-12
1.88176e-12
1.4879e-12
1.94011e-12
1.61919e-12
1.91094e-12
1.50249e-12
2.12975e-12
1.76506e-12
2.49443e-12
1.94011e-12
2.45067e-12
2.53819e-12
2.85911e-12
2.757e-12
3.25297e-12
3.31132e-12
3.34049e-12
4.21573e-12
4.17197e-12
4.595e-12
4.58041e-12
5.13473e-12
4.88675e-12
5.48482e-12
5.22225e-12
6.1996e-12
5.70363e-12
6.71016e-12
6.33089e-12
6.89979e-12
6.56429e-12
7.41035e-12
6.60805e-12
7.45411e-12
6.82686e-12
7.16236e-12
7.30824e-12
6.81227e-12
6.85603e-12
6.82686e-12
6.44759e-12
6.91438e-12
6.44759e-12
6.12667e-12
6.05373e-12
6.22878e-12
5.90786e-12
6.18502e-12
5.80575e-12
6.00997e-12
5.82033e-12
6.50594e-12
5.80575e-12
6.3163e-12
6.17043e-12
6.17043e-12
6.06832e-12
6.6664e-12
5.76198e-12
7.39576e-12
6.12667e-12
6.68098e-12
6.44759e-12
7.04567e-12
5.93703e-12
6.87062e-12
5.89327e-12
6.60805e-12
6.03914e-12
6.36006e-12
6.22878e-12
6.14125e-12
6.27254e-12
5.86409e-12
5.92244e-12
6.02455e-12
5.90786e-12
5.3973e-12
6.02455e-12
5.98079e-12
5.514e-12
5.44106e-12
5.13473e-12
5.65987e-12
4.93051e-12
4.85757e-12
4.90133e-12
4.60959e-12
4.75546e-12
4.4783e-12
4.3616e-12
4.58041e-12
4.88675e-12
4.4783e-12
4.77005e-12
4.84298e-12
4.74087e-12
4.60959e-12
4.69711e-12
4.72629e-12
5.09097e-12
4.78463e-12
5.19308e-12
5.00344e-12
4.97427e-12
4.78463e-12
5.1639e-12
4.2449e-12
4.97427e-12
4.37619e-12
4.40536e-12
4.21573e-12
4.81381e-12
4.18656e-12
4.37619e-12
4.2449e-12
3.98233e-12
3.98233e-12
3.71976e-12
3.48636e-12
3.5593e-12
3.45719e-12
3.07792e-12
2.84452e-12
2.81535e-12
2.45067e-12
2.14433e-12
2.23186e-12
1.79424e-12
1.94011e-12
1.80883e-12
1.99846e-12
1.57543e-12
1.64836e-12
1.23992e-12
1.21075e-12
8.75238e-13
9.48175e-13
5.54317e-13
4.23032e-13
4.81381e-13
3.06333e-13
5.10556e-13
1.75048e-13
4.66794e-13
1.6046e-13
2.04222e-13
2.1881e-13
3.35508e-13
6.41841e-13
8.16889e-13
8.46063e-13
9.91936e-13
1.23992e-12
1.44414e-12
1.34203e-12
1.35662e-12
1.53167e-12
1.70671e-12
1.61919e-12
1.7213e-12
1.88176e-12
1.85259e-12
2.02763e-12
1.75048e-12
1.42956e-12
1.64836e-12
1.75048e-12
1.38579e-12
1.29827e-12
1.29827e-12
9.04413e-13
1.19616e-12
1.06487e-12
1.23992e-12
1.12322e-12
1.44414e-12
1.06487e-12
1.12322e-12
9.91936e-13
6.12667e-13
5.25143e-13
4.52206e-13
1.45873e-14
2.1881e-13
1.45873e-13
1.31286e-13
1.02111e-13
5.83492e-14
3.06333e-13
1.31286e-13
2.04222e-13
2.47984e-13
3.52585e-24
2.47984e-13
4.37619e-13
8.02302e-13
6.85603e-13
1.19616e-12
1.02111e-12
1.42956e-12
1.4879e-12
2.01305e-12
1.73589e-12
2.23186e-12
2.08598e-12
2.91746e-12
2.56736e-12
3.41343e-12
3.20921e-12
3.676e-12
3.71976e-12
4.21573e-12
4.34702e-12
4.98886e-12
4.25949e-12
5.42648e-12
5.06179e-12
5.61611e-12
5.23684e-12
5.92244e-12
5.25143e-12
5.33895e-12
5.49941e-12
5.32436e-12
5.98079e-12
5.33895e-12
6.17043e-12
5.45565e-12
6.30171e-12
5.42648e-12
6.17043e-12
4.65335e-12
6.40382e-12
4.75546e-12
5.68905e-12
4.74087e-12
6.22878e-12
4.43454e-12
5.67446e-12
4.4783e-12
5.48482e-12
4.34702e-12
5.23684e-12
3.96775e-12
5.20767e-12
3.95316e-12
4.84298e-12
3.71976e-12
4.8284e-12
3.38425e-12
4.50748e-12
3.4426e-12
4.15738e-12
3.4426e-12
3.96775e-12
3.36967e-12
3.80729e-12
3.20921e-12
3.89481e-12
3.50095e-12
3.60306e-12
3.53013e-12
3.85105e-12
3.07792e-12
3.57389e-12
2.9904e-12
2.96122e-12
2.74241e-12
2.8737e-12
2.36314e-12
2.72783e-12
2.46525e-12
2.39232e-12
1.96929e-12
2.26103e-12
1.32744e-12
1.69213e-12
7.0019e-13
1.28368e-12
4.95968e-13
1.19616e-12
4.95968e-13
1.29827e-12
5.83492e-13
1.19616e-12
7.0019e-13
1.22533e-12
6.85603e-13
1.44414e-12
9.19e-13
1.50249e-12
1.12322e-12
1.7213e-12
1.07946e-12
1.92552e-12
1.40038e-12
1.59002e-12
1.21075e-12
2.08598e-12
1.6046e-12
2.26103e-12
1.89635e-12
2.39232e-12
2.21727e-12
2.72783e-12
2.53819e-12
3.28214e-12
2.84452e-12
3.80729e-12
3.10709e-12
4.30325e-12
3.92398e-12
5.07638e-12
4.14279e-12
5.7474e-12
4.97427e-12
6.00997e-12
5.60152e-12
6.21419e-12
5.41189e-12
6.11208e-12
5.6307e-12
5.71822e-12
5.41189e-12
5.77657e-12
5.2806e-12
5.58694e-12
5.52859e-12
6.17043e-12
5.12014e-12
5.86409e-12
4.79922e-12
5.58694e-12
4.72629e-12
4.79922e-12
4.595e-12
4.79922e-12
4.53665e-12
4.87216e-12
4.06986e-12
4.81381e-12
4.53665e-12
4.65335e-12
4.43454e-12
4.78463e-12
4.34702e-12
4.53665e-12
4.33243e-12
4.41995e-12
4.53665e-12
4.23032e-12
4.4783e-12
3.76352e-12
3.95316e-12
3.64683e-12
3.93857e-12
3.51554e-12
4.05527e-12
3.51554e-12
3.45719e-12
3.18003e-12
3.58848e-12
2.96122e-12
3.16544e-12
3.15086e-12
3.54471e-12
3.28214e-12
3.57389e-12
2.9904e-12
3.39884e-12
3.16544e-12
2.90287e-12
2.90287e-12
2.72783e-12
2.56736e-12
2.45067e-12
2.27562e-12
2.21727e-12
2.33397e-12
1.94011e-12
1.99846e-12
1.4879e-12
1.77965e-12
1.50249e-12
1.6046e-12
9.77349e-13
1.45873e-12
1.02111e-12
9.04413e-13
4.37619e-13
4.37619e-13
7.29365e-14
1.75048e-13
4.66794e-13
2.04222e-13
7.29365e-13
7.14778e-13
1.0357e-12
1.28368e-12
1.54625e-12
1.75048e-12
2.10057e-12
2.20268e-12
2.05681e-12
2.23186e-12
2.45067e-12
2.17351e-12
2.29021e-12
2.15892e-12
2.24644e-12
2.30479e-12
1.94011e-12
2.37773e-12
1.86717e-12
2.27562e-12
2.12975e-12
2.56736e-12
1.70671e-12
2.61113e-12
1.64836e-12
2.21727e-12
1.6046e-12
2.61113e-12
1.50249e-12
2.46525e-12
1.79424e-12
2.62571e-12
1.85259e-12
3.19462e-12
1.86717e-12
3.03416e-12
2.08598e-12
2.47984e-12
1.88176e-12
2.37773e-12
1.75048e-12
2.1881e-12
1.66295e-12
1.59002e-12
1.09405e-12
1.29827e-12
6.41841e-13
8.46063e-13
1.45873e-13
7.29365e-14
9.19e-13
6.41841e-13
1.40038e-12
1.37121e-12
2.0714e-12
2.04222e-12
2.21727e-12
2.4069e-12
2.757e-12
2.55278e-12
2.68406e-12
2.42149e-12
2.757e-12
2.27562e-12
2.15892e-12
2.21727e-12
1.79424e-12
2.23186e-12
1.66295e-12
1.75048e-12
1.19616e-12
1.02111e-12
8.75238e-14
5.83492e-14
1.29827e-12
1.51708e-12
3.22379e-12
3.99692e-12
5.61611e-12
7.41035e-12
9.59844e-12
1.23409e-11
1.52729e-11
1.90364e-11
2.35147e-11
2.88245e-11
3.4922e-11
4.28429e-11
5.15807e-11
6.21711e-11
7.4862e-11
9.06455e-11
1.08209e-10
1.29958e-10
1.56347e-10
1.8714e-10
2.24455e-10
2.68756e-10
3.21606e-10
3.84696e-10
4.60331e-10
5.49183e-10
6.56297e-10
7.829e-10
9.33908e-10
1.11301e-09
1.32552e-09
1.57784e-09
1.87766e-09
2.23171e-09
2.65193e-09
3.14744e-09
3.73556e-09
4.4287e-09
5.2485e-09
6.21407e-09
7.35407e-09
8.69737e-09
1.02763e-08
1.21385e-08
1.43246e-08
1.6894e-08
1.99119e-08
2.34521e-08
2.76023e-08
3.24651e-08
3.81601e-08
4.48198e-08
5.26109e-08
6.17105e-08
7.23346e-08
8.4731e-08
9.91829e-08
1.16019e-07
1.35622e-07
1.58428e-07
1.84938e-07
2.15739e-07
2.51493e-07
2.92971e-07
3.41054e-07
3.96752e-07
4.61228e-07
5.35806e-07
6.22013e-07
7.21586e-07
8.36515e-07
9.69071e-07
1.12185e-06
1.2978e-06
1.5003e-06
1.73318e-06
2.0008e-06
2.30812e-06
2.66077e-06
3.06514e-06
3.52846e-06
4.05896e-06
4.6659e-06
5.3598e-06
6.15253e-06
7.05749e-06
8.0898e-06
9.2665e-06
1.06068e-05
1.21323e-05
1.38672e-05
1.5839e-05
1.80781e-05
2.06189e-05
2.35e-05
2.67643e-05
3.04602e-05
3.46414e-05
3.93681e-05
4.47074e-05
5.07342e-05
5.75316e-05
6.51924e-05
7.38196e-05
8.35277e-05
9.44437e-05
0.000106708
0.000120478
0.000135924
0.000153239
0.000172633
0.000194339
0.000218613
0.000245738
0.000276025
0.000309817
0.000347488
0.000389452
0.000436161
0.000488109
0.000545839
0.000609943
0.000681069
0.000759923
0.000847274
0.00094396
0.00105089
0.00116906
0.00129955
0.00144352
0.00160223
0.00177705
0.00196946
0.00218107
0.00241358
0.00266887
0.00294893
0.00325591
0.00359212
0.00396005
0.00436235
0.00480187
0.00528165
0.00580494
0.00637523
0.0069962
0.0076718
0.00840621
0.0092039
0.0100696
0.0110082
0.0120252
0.013126
0.0143167
0.0156034
0.0169927
0.0184915
0.020107
0.021847
0.0237193
0.0257323
0.0278948
0.0302158
0.0327048
0.0353718
0.0382269
0.041281
0.0445449
0.0480303
0.0517488
0.0557127
0.0599346
0.0644275
0.0692047
0.0742797
0.0796667
0.0853799
0.091434
0.0978438
0.104625
0.111792
0.119361
0.127348
0.135769
0.14464
0.153977
0.163798
0.174118
0.184953
0.196321
0.208238
0.220721
0.233785
0.247447
0.261723
0.27663
0.292182
0.308395
0.325285
0.342865
0.361152
0.380158
0.399898
0.420384
0.44163
0.463648
0.486449
0.510046
0.534449
0.559667
0.585711
0.61259
0.640312
0.668885
0.698315
0.72861
0.759776
0.791817
0.824738
0.858544
0.893236
0.928819
0.965294
1.00266
1.04092
1.08008
1.12013
1.16108
1.20291
1.24563
1.28925
1.33374
1.37911
1.42536
1.47248
1.52047
1.56931
1.61901
1.66955
1.72094
1.77316
1.82621
1.88008
1.93475
1.99023
2.0465
2.10356
2.16139
2.21999
2.27935
2.33945
2.4003
2.46187
2.52416
2.58716
2.65085
2.71524
2.7803
2.84604
2.91243
2.97946
3.04714
3.11544
3.18436
3.25388
3.324
3.39471
3.466
3.53785
3.61026
3.68321
3.7567
3.83072
3.90526
3.9803
4.05585
4.13188
4.2084
4.28539
4.36284
4.44075
4.5191
4.59789
4.67711
4.75674
4.8368
4.91725
4.9981
5.07935
5.16097
5.24297
5.32533
5.40805
5.49113
5.57455
5.65831
5.74241
5.82682
5.91156
5.99661
6.08197
6.16763
6.25358
6.33982
6.42635
6.51315
6.60022
6.68756
6.77517
6.86303
6.95114
7.0395
7.1281
7.21693
7.306
7.3953
7.48482
7.57456
7.66452
7.75468
7.84506
7.93563
8.02641
8.11738
8.20854
8.29989
8.39142
8.48314
8.57503
8.6671
8.75934
8.85174
8.94431
9.03704
9.12993
9.22298
9.31618
9.40953
9.50303
9.59667
9.69045
9.78437
9.87843
9.97263
10.067
10.1614
10.256
10.3507
10.4455
10.5405
10.6356
10.7308
10.8261
10.9215
11.017
11.1127
11.2084
11.3043
11.4002
11.4963
11.5924
11.6887
11.785
11.8815
11.978
12.0747
12.1714
12.2682
12.3651
12.4621
12.5592
12.6563
12.7536
12.8509
12.9483
13.0458
13.1433
13.2409
13.3387
13.4364
13.5343
13.6322
13.7302
13.8283
13.9264
14.0246
14.1229
14.2212
14.3196
14.418
14.5166
14.6151
14.7138
14.8125
14.9112
15.0101
15.1089
15.2079
15.3069
15.4059
15.505
15.6041
15.7033
15.8026
15.9019
16.0012
16.1006
16.2001
16.2996
16.3991
16.4987
16.5983
16.698
16.7977
16.8975
16.9973
17.0972
17.1971
17.297
17.397
17.497
17.5971
17.6972
17.7973
17.8975
17.9977
18.0979
18.1982
18.2985
18.3989
18.4993
18.5997
18.7002
18.8007
18.9012
19.0018
19.1024
19.203
19.3037
19.4044
19.5051
19.6058
19.7066
19.8074
19.9083
20.0092
20.1101
20.211
20.312
20.4129
20.514
20.615
20.7161
20.8171
20.9183
21.0194
21.1206
21.2218
21.323
21.4242
21.5255
21.6268
21.7281
21.8295
21.9308
22.0322
22.1336
22.235
22.3365
22.438
22.5395
22.641
22.7425
22.8441
22.9456
23.0472
23.1489
23.2505
23.3522
23.4538
23.5555
23.6573
23.759
23.8607
23.9625
24.0643
24.1661
24.2679
24.3698
24.4716
24.5735
24.6754
24.7773
24.8792
24.9812
25.0831
25.1851
25.2871
25.3891
25.4911
25.5932
25.6952
25.7973
25.8994
26.0015
26.1036
26.2057
26.3079
26.41
26.5122
26.6144
26.7166
26.8188
26.921
27.0233
27.1255
27.2278
27.33
27.4323
27.5346
27.637
27.7393
27.8416
27.944
28.0463
28.1487
28.2511
28.3535
28.4559
28.5583
28.6608
28.7632
28.8657
28.9681
29.0706
29.1731
29.2756
29.3781
29.4806
29.5832
29.6857
29.7883
29.8908
29.9934
30.096
30.1986
30.3012
30.4038
30.5064
30.6091
30.7117
30.8143
30.917
31.0197
31.1224
31.225
31.3277
31.4304
31.5332
31.6359
31.7386
31.8414
31.9441
32.0469
32.1496
32.2524
32.3552
32.458
32.5608
32.6636
32.7664
32.8692
32.972
33.0749
33.1777
33.2806
33.3834
33.4863
33.5892
33.6921
33.7949
33.8978
34.0007
34.1037
34.2066
34.3095
34.4124
34.5154
34.6183
34.7213
34.8242
34.9272
35.0302
35.1332
35.2361
35.3391
35.4421
35.5451
35.6481
35.7512
35.8542
35.9572
36.0603
36.1633
36.2663
36.3694
36.4725
36.5755
36.6786
36.7817
36.8848
36.9878
37.0909
37.194
37.2971
37.4003
37.5034
37.6065
37.7096
37.8128
37.9159
38.019
38.1222
38.2253
38.3285
38.4317
38.5348
38.638
38.7412
38.8444
38.9476
39.0508
39.154
39.2572
39.3604
39.4636
39.5668
39.67
39.7733
39.8765
39.9797
40.083
40.1862
40.2895
40.3927
40.496
40.5993
40.7025
40.8058
40.9091
41.0124
41.1156
41.2189
41.3222
41.4255
41.5288
41.6321
41.7354
41.8388
41.9421
42.0454
42.1487
42.2521
42.3554
42.4587
42.5621
42.6654
42.7688
42.8721
42.9755
43.0788
43.1822
43.2856
43.3889
43.4923
43.5957
43.6991
43.8025
43.9059
44.0093
44.1127
44.2161
44.3195
44.4229
44.5263
44.6297
44.7331
44.8365
44.94
45.0434
45.1468
45.2503
45.3537
45.4571
45.5606
45.664
45.7675
45.8709
45.9744
46.0779
46.1813
46.2848
46.3882
46.4917
46.5952
46.6987
46.8022
46.9056
47.0091
47.1126
47.2161
47.3196
47.4231
47.5266
47.6301
47.7336
47.8371
47.9406
48.0442
48.1477
48.2512
48.3547
48.4582
48.5618
48.6653
48.7688
48.8724
48.9759
49.0795
49.183
49.2866
49.3901
49.4937
49.5972
49.7008
49.8043
49.9079
50.0115
50.115
50.2186
50.3222
50.4257
50.5293
50.6329
50.7365
50.8401
50.9437
51.0472
51.1508
51.2544
51.358
51.4616
51.5652
51.6688
51.7724
51.876
51.9796
52.0833
52.1869
52.2905
52.3941
52.4977
52.6013
52.705
52.8086
52.9122
53.0159
53.1195
53.2231
53.3268
53.4304
53.534
53.6377
53.7413
53.845
53.9486
54.0523
54.1559
54.2596
54.3632
54.4669
54.5706
54.6742
54.7779
54.8816
54.9852
55.0889
55.1926
55.2962
55.3999
55.5036
55.6073
55.711
55.8146
55.9183
56.022
56.1257
56.2294
56.3331
56.4368
56.5405
56.6442
56.7479
56.8516
56.9553
57.059
57.1627
57.2664
57.3701
57.4738
57.5775
57.6812
57.785
57.8887
57.9924
58.0961
58.1998
58.3036
58.4073
58.511
58.6147
58.7185
58.8222
58.9259
59.0297
59.1334
59.2371
59.3409
59.4446
59.5484
59.6521
59.7559
59.8596
59.9634
60.0671
60.1709
60.2746
60.3784
60.4821
60.5859
60.6896
60.7934
60.8972
61.0009
61.1047
61.2084
61.3122
61.416
61.5198
61.6235
61.7273
61.8311
61.9348
62.0386
62.1424
62.2462
62.35
62.4537
62.5575
62.6613
62.7651
62.8689
62.9727
63.0765
63.1803
63.284
63.3878
63.4916
63.5954
63.6992
63.803
63.9068
64.0106
64.1144
64.2182
64.322
64.4258
64.5296
64.6335
64.7373
64.8411
64.9449
65.0487
65.1525
65.2563
65.3601
65.464
65.5678
65.6716
65.7754
65.8792
65.9831
66.0869
66.1907
66.2945
66.3984
66.5022
66.606
66.7098
66.8137
66.9175
67.0213
67.1252
67.229
67.3329
67.4367
67.5405
67.6444
67.7482
67.8521
67.9559
68.0597
68.1636
68.2674
68.3713
68.4751
68.579
68.6828
68.7867
68.8905
68.9944
69.0982
69.2021
69.3059
69.4098
69.5137
69.6175
69.7214
69.8252
69.9291
70.033
70.1368
70.2407
70.3446
70.4484
70.5523
70.6562
70.76
70.8639
70.9678
71.0716
71.1755
71.2794
71.3833
71.4871
71.591
71.6949
71.7988
71.9026
72.0065
72.1104
72.2143
72.3182
72.4221
72.5259
72.6298
72.7337
72.8376
72.9415
73.0454
73.1493
73.2531
73.357
73.4609
73.5648
73.6687
73.7726
73.8765
73.9804
74.0843
74.1882
74.2921
74.396
74.4999
74.6038
74.7077
74.8116
74.9155
75.0194
75.1233
75.2272
75.3311
75.435
75.5389
75.6428
75.7467
75.8506
75.9546
76.0585
76.1624
76.2663
76.3702
76.4741
76.578
76.6819
76.7859
76.8898
76.9937
77.0976
77.2015
77.3054
77.4094