/*--------------------------------*- C++ -*----------------------------------*\
  =========                 |
  \\      /  F ield         | OpenFOAM: The Open Source CFD Toolbox
   \\    /   O peration     | Website:  https://openfoam.org
    \\  /    A nd           | Version:  9
     \\/     M anipulation  |
\*---------------------------------------------------------------------------*/
FoamFile
{
    format      ascii;
    class       surfaceScalarField;
    location    "0.008";
    object      phi;
}
// * * * * * * * * * * * * * * * * * * * * * * * * * * * * * * * * * * * * * //

dimensions      [1 0 -1 0 0 0 0];

internalField   nonuniform List<scalar> 
9999
(
3.29692e-12
4.03588e-12
4.43379e-12
4.3201e-12
4.718e-12
5.79803e-12
6.87805e-12
7.38964e-12
8.12861e-12
8.58336e-12
8.92442e-12
9.37916e-12
1.00044e-11
1.0516e-11
1.09139e-11
1.11413e-11
1.20508e-11
1.26192e-11
1.31308e-11
1.38698e-11
1.3074e-11
1.31877e-11
1.36424e-11
1.43814e-11
1.55751e-11
1.58593e-11
1.56319e-11
1.58025e-11
1.62572e-11
1.6712e-11
1.69393e-11
1.7053e-11
1.7053e-11
1.60298e-11
1.58593e-11
1.56888e-11
1.50635e-11
1.45519e-11
1.39835e-11
1.36993e-11
1.32445e-11
1.25056e-11
1.21076e-11
1.26192e-11
1.2335e-11
1.24487e-11
1.17666e-11
1.21645e-11
1.20508e-11
1.21076e-11
1.21076e-11
1.11413e-11
1.1994e-11
1.21645e-11
1.29035e-11
1.28466e-11
1.2335e-11
1.21076e-11
1.21076e-11
1.20508e-11
1.19371e-11
1.17097e-11
1.08002e-11
1.09139e-11
1.0175e-11
8.75389e-12
8.18545e-12
7.21911e-12
6.08225e-12
5.68434e-12
5.00222e-12
4.26326e-12
3.80851e-12
3.12639e-12
2.16005e-12
6.82121e-13
1.7053e-13
-5.68434e-14
-9.66338e-13
-1.64846e-12
-2.33058e-12
-3.75167e-12
-5.51381e-12
-6.59384e-12
-7.3328e-12
-8.12861e-12
-8.86757e-12
-9.77707e-12
-1.04592e-11
-1.1994e-11
-1.21076e-11
-1.26761e-11
-1.37561e-11
-1.39266e-11
-1.40972e-11
-1.46088e-11
-1.4893e-11
-1.48361e-11
-1.43814e-11
-1.36424e-11
-1.31877e-11
-1.28466e-11
-1.21645e-11
-1.15392e-11
-1.13118e-11
-1.13687e-11
-1.10276e-11
-1.07434e-11
-1.06297e-11
-9.37916e-12
-8.98126e-12
-7.56017e-12
-7.27596e-12
-6.76437e-12
-6.25278e-12
-6.25278e-12
-5.40012e-12
-5.34328e-12
-4.66116e-12
-4.54747e-12
-3.69482e-12
-3.35376e-12
-2.89901e-12
-1.87583e-12
-5.68434e-13
-3.97904e-13
3.97904e-13
6.25278e-13
3.97904e-13
5.11591e-13
7.95808e-13
1.13687e-13
4.54747e-13
7.95808e-13
3.41061e-13
3.97904e-13
2.27374e-13
-2.84217e-13
-3.97904e-13
-2.27374e-13
-1.13687e-13
-7.95808e-13
-1.19371e-12
-1.3074e-12
-1.81899e-12
-1.64846e-12
-1.53477e-12
-1.53477e-12
-1.42109e-12
-1.3074e-12
-2.10321e-12
-1.36424e-12
-9.09495e-13
5.68434e-14
8.52651e-13
1.53477e-12
2.16005e-12
2.95586e-12
3.24007e-12
4.43379e-12
5.17275e-12
6.42331e-12
7.21911e-12
8.52651e-12
9.09495e-12
9.83391e-12
1.10276e-11
1.08002e-11
1.0516e-11
1.02318e-11
1.0516e-11
1.06866e-11
1.06866e-11
1.04023e-11
9.72022e-12
9.49285e-12
8.81073e-12
9.43601e-12
9.15179e-12
9.9476e-12
8.46967e-12
8.41283e-12
8.2423e-12
7.7307e-12
7.84439e-12
7.21911e-12
5.6275e-12
4.3201e-12
2.89901e-12
1.53477e-12
4.54747e-13
-1.7053e-13
-9.66338e-13
-1.47793e-12
-1.53477e-12
-2.21689e-12
-2.44427e-12
-2.21689e-12
-2.72848e-12
-3.75167e-12
-4.49063e-12
-5.74119e-12
-6.48015e-12
-7.21911e-12
-7.27596e-12
-7.95808e-12
-8.35598e-12
-9.43601e-12
-9.54969e-12
-9.89075e-12
-1.02318e-11
-9.9476e-12
-1.02318e-11
-9.77707e-12
-9.83391e-12
-1.0516e-11
-1.09708e-11
-1.10276e-11
-1.11413e-11
-1.04023e-11
-9.32232e-12
-8.35598e-12
-8.07177e-12
-7.04858e-12
-6.42331e-12
-5.96856e-12
-5.51381e-12
-4.60432e-12
-5.05906e-12
-5.22959e-12
-4.77485e-12
-4.77485e-12
-4.20641e-12
-4.37694e-12
-4.54747e-12
-5.00222e-12
-5.57066e-12
-5.96856e-12
-5.91172e-12
-6.19593e-12
-5.91172e-12
-6.87805e-12
-6.65068e-12
-6.82121e-12
-6.53699e-12
-6.87805e-12
-6.65068e-12
-6.42331e-12
-7.16227e-12
-7.95808e-12
-7.3328e-12
-7.7307e-12
-7.56017e-12
-7.61702e-12
-7.04858e-12
-7.10543e-12
-7.27596e-12
-6.99174e-12
-6.82121e-12
-6.87805e-12
-7.50333e-12
-6.70752e-12
-6.9349e-12
-6.65068e-12
-5.96856e-12
-6.0254e-12
-5.74119e-12
-6.13909e-12
-5.91172e-12
-5.91172e-12
-6.30962e-12
-7.21911e-12
-6.82121e-12
-6.76437e-12
-6.25278e-12
-7.16227e-12
-6.76437e-12
-6.42331e-12
-6.30962e-12
-5.22959e-12
-5.17275e-12
-5.96856e-12
-5.57066e-12
-5.00222e-12
-5.45697e-12
-5.34328e-12
-5.85487e-12
-5.51381e-12
-5.00222e-12
-5.00222e-12
-4.718e-12
-4.60432e-12
-4.43379e-12
-4.54747e-12
-4.718e-12
-5.22959e-12
-5.74119e-12
-6.13909e-12
-5.28644e-12
-5.34328e-12
-5.11591e-12
-5.40012e-12
-5.00222e-12
-5.6275e-12
-5.6275e-12
-5.79803e-12
-5.40012e-12
-4.718e-12
-4.88853e-12
-4.43379e-12
-3.80851e-12
-3.06954e-12
-2.6148e-12
-2.33058e-12
-1.98952e-12
-2.04636e-12
-2.38742e-12
-2.04636e-12
-1.64846e-12
-1.36424e-12
-2.04636e-12
-2.33058e-12
-2.16005e-12
-1.36424e-12
-1.19371e-12
-2.21689e-12
-1.76215e-12
-2.27374e-12
-2.27374e-12
-1.87583e-12
-1.98952e-12
-2.33058e-12
-2.21689e-12
-1.98952e-12
-1.53477e-12
-1.7053e-12
-2.50111e-12
-2.16005e-12
-2.33058e-12
-2.95586e-12
-3.29692e-12
-3.35376e-12
-3.24007e-12
-2.67164e-12
-2.84217e-12
-3.12639e-12
-3.52429e-12
-3.63798e-12
-3.24007e-12
-3.69482e-12
-3.24007e-12
-2.84217e-12
-2.84217e-12
-2.44427e-12
-2.55795e-12
-3.18323e-12
-3.46745e-12
-3.80851e-12
-3.24007e-12
-2.33058e-12
-2.33058e-12
-1.98952e-12
-2.33058e-12
-2.16005e-12
-1.36424e-12
-1.08002e-12
-1.19371e-12
-4.54747e-13
0
1.25056e-12
2.78533e-12
3.58114e-12
4.03588e-12
4.14957e-12
3.80851e-12
3.80851e-12
2.89901e-12
3.0127e-12
2.33058e-12
2.04636e-12
2.21689e-12
1.53477e-12
2.10321e-12
2.04636e-12
1.81899e-12
1.98952e-12
1.47793e-12
1.42109e-12
2.04636e-12
1.93268e-12
9.09495e-13
2.84217e-13
-6.82121e-13
-1.81899e-12
-2.04636e-12
-3.12639e-12
-3.80851e-12
-3.58114e-12
-3.35376e-12
-4.83169e-12
-4.3201e-12
-4.26326e-12
-5.05906e-12
-5.57066e-12
-5.96856e-12
-5.79803e-12
-5.91172e-12
-6.53699e-12
-6.53699e-12
-6.87805e-12
-6.9349e-12
-7.84439e-12
-7.78755e-12
-8.75389e-12
-8.6402e-12
-9.49285e-12
-1.05729e-11
-1.13687e-11
-1.23919e-11
-1.25056e-11
-1.21076e-11
-1.26192e-11
-1.32445e-11
-1.39266e-11
-1.42677e-11
-1.54614e-11
-1.6712e-11
-1.79625e-11
-1.87583e-11
-1.98384e-11
-2.06342e-11
-2.13731e-11
-2.27942e-11
-2.39311e-11
-2.46132e-11
-2.52953e-11
-2.58638e-11
-2.58638e-11
-2.69438e-11
-2.73417e-11
-2.73417e-11
-2.73417e-11
-2.67733e-11
-2.67164e-11
-2.67733e-11
-2.71712e-11
-2.66027e-11
-2.58638e-11
-2.52385e-11
-2.46132e-11
-2.44427e-11
-2.4329e-11
-2.38174e-11
-2.29079e-11
-2.26805e-11
-2.27942e-11
-2.19984e-11
-2.22258e-11
-2.1771e-11
-2.14868e-11
-2.143e-11
-2.08615e-11
-2.12026e-11
-2.16005e-11
-2.143e-11
-2.09184e-11
-2.09184e-11
-2.16573e-11
-2.27374e-11
-2.22826e-11
-2.23395e-11
-2.17142e-11
-2.22826e-11
-2.26805e-11
-2.27374e-11
-2.26805e-11
-2.21689e-11
-2.22258e-11
-2.29079e-11
-2.29079e-11
-2.26237e-11
-2.23963e-11
-2.30216e-11
-2.38174e-11
-2.38174e-11
-2.39311e-11
-2.44427e-11
-2.54659e-11
-2.58638e-11
-2.51816e-11
-2.52385e-11
-2.52953e-11
-2.49543e-11
-2.4329e-11
-2.40448e-11
-2.42721e-11
-2.33058e-11
-2.26237e-11
-2.27942e-11
-2.33626e-11
-2.30784e-11
-2.24532e-11
-2.23963e-11
-2.19416e-11
-2.26237e-11
-2.25668e-11
-2.20552e-11
-2.13731e-11
-2.17142e-11
-2.12026e-11
-2.03499e-11
-2.00089e-11
-2.00089e-11
-1.89289e-11
-1.78488e-11
-1.75078e-11
-1.71099e-11
-1.64846e-11
-1.65414e-11
-1.7053e-11
-1.6712e-11
-1.62004e-11
-1.64846e-11
-1.54046e-11
-1.46656e-11
-1.46656e-11
-1.44382e-11
-1.39266e-11
-1.36993e-11
-1.34719e-11
-1.27329e-11
-1.18803e-11
-1.14255e-11
-1.15392e-11
-1.1255e-11
-1.17666e-11
-1.15961e-11
-1.13687e-11
-1.15392e-11
-1.17097e-11
-1.20508e-11
-1.13687e-11
-1.11982e-11
-1.09708e-11
-9.89075e-12
-8.6402e-12
-8.2423e-12
-7.90124e-12
-7.61702e-12
-6.65068e-12
-6.76437e-12
-7.16227e-12
-6.59384e-12
-6.0254e-12
-5.6275e-12
-5.00222e-12
-4.20641e-12
-4.49063e-12
-4.03588e-12
-3.58114e-12
-3.58114e-12
-3.52429e-12
-3.9222e-12
-3.58114e-12
-4.20641e-12
-4.88853e-12
-5.28644e-12
-5.05906e-12
-5.51381e-12
-5.79803e-12
-5.79803e-12
-5.68434e-12
-4.88853e-12
-5.05906e-12
-5.40012e-12
-5.74119e-12
-5.74119e-12
-5.85487e-12
-5.57066e-12
-6.25278e-12
-7.04858e-12
-7.44649e-12
-7.44649e-12
-8.12861e-12
-9.15179e-12
-9.54969e-12
-1.00044e-11
-1.09708e-11
-1.21076e-11
-1.29603e-11
-1.34719e-11
-1.46088e-11
-1.63141e-11
-1.76215e-11
-1.93268e-11
-2.03499e-11
-2.09184e-11
-2.19984e-11
-2.29647e-11
-2.52385e-11
-2.6148e-11
-2.62048e-11
-2.6489e-11
-2.67733e-11
-2.68301e-11
-2.6489e-11
-2.5409e-11
-2.47837e-11
-2.44995e-11
-2.38742e-11
-2.33626e-11
-2.29647e-11
-2.18847e-11
-2.18279e-11
-2.10889e-11
-2.08615e-11
-2.04068e-11
-1.95541e-11
-1.8872e-11
-1.80762e-11
-1.75078e-11
-1.7053e-11
-1.49498e-11
-1.47224e-11
-1.44951e-11
-1.47224e-11
-1.44951e-11
-1.43814e-11
-1.37561e-11
-1.35287e-11
-1.33582e-11
-1.43814e-11
-1.39266e-11
-1.46088e-11
-1.5234e-11
-1.50635e-11
-1.60867e-11
-1.61435e-11
-1.60867e-11
-1.68257e-11
-1.79625e-11
-1.92131e-11
-1.97247e-11
-2.05773e-11
-2.04068e-11
-2.03499e-11
-2.05773e-11
-2.05205e-11
-2.16005e-11
-2.16573e-11
-2.02931e-11
-2.08047e-11
-2.14868e-11
-2.143e-11
-2.12594e-11
-2.13163e-11
-2.17142e-11
-2.12026e-11
-2.13163e-11
-2.20552e-11
-2.19984e-11
-2.22258e-11
-2.251e-11
-2.22258e-11
-2.251e-11
-2.25668e-11
-2.18847e-11
-2.251e-11
-2.19416e-11
-2.23395e-11
-2.28511e-11
-2.27374e-11
-2.22826e-11
-2.31921e-11
-2.35332e-11
-2.39879e-11
-2.33626e-11
-2.33058e-11
-2.37037e-11
-2.33058e-11
-2.37037e-11
-2.31353e-11
-2.35332e-11
-2.37037e-11
-2.39879e-11
-2.38174e-11
-2.31353e-11
-2.359e-11
-2.33626e-11
-2.31353e-11
-2.25668e-11
-2.19416e-11
-2.13163e-11
-2.05205e-11
-2.01794e-11
-1.95541e-11
-1.87583e-11
-1.92699e-11
-1.87583e-11
-1.87583e-11
-1.84741e-11
-1.87583e-11
-1.87015e-11
-1.87583e-11
-1.87015e-11
-1.90994e-11
-1.8872e-11
-1.83604e-11
-1.81331e-11
-1.81331e-11
-1.72804e-11
-1.71667e-11
-1.65983e-11
-1.58593e-11
-1.48361e-11
-1.46656e-11
-1.34719e-11
-1.29603e-11
-1.18803e-11
-1.14255e-11
-1.10276e-11
-1.0175e-11
-9.83391e-12
-9.83391e-12
-8.81073e-12
-7.7307e-12
-6.9349e-12
-5.6275e-12
-5.00222e-12
-3.86535e-12
-2.89901e-12
-1.76215e-12
-6.25278e-13
-1.13687e-13
5.11591e-13
6.25278e-13
1.13687e-13
-5.68434e-14
-5.68434e-14
-3.41061e-13
-5.68434e-14
-3.97904e-13
-3.97904e-13
-8.52651e-13
-1.13687e-12
-1.76215e-12
-1.93268e-12
-2.04636e-12
-2.33058e-12
-2.38742e-12
-2.78533e-12
-3.06954e-12
-3.12639e-12
-3.52429e-12
-3.0127e-12
-3.46745e-12
-3.69482e-12
-4.26326e-12
-4.54747e-12
-4.54747e-12
-4.77485e-12
-5.11591e-12
-5.79803e-12
-6.42331e-12
-7.10543e-12
-8.01492e-12
-8.52651e-12
-8.98126e-12
-9.20863e-12
-9.9476e-12
-1.0175e-11
-1.13118e-11
-1.18803e-11
-1.23919e-11
-1.25056e-11
-1.35287e-11
-1.47224e-11
-1.62572e-11
-1.67688e-11
-1.77351e-11
-1.93268e-11
-2.03499e-11
-2.1771e-11
-2.26805e-11
-2.31921e-11
-2.37605e-11
-2.43858e-11
-2.44995e-11
-2.38174e-11
-2.37605e-11
-2.30784e-11
-2.22826e-11
-2.25668e-11
-2.3249e-11
-2.39879e-11
-2.359e-11
-2.38174e-11
-2.4329e-11
-2.42153e-11
-2.45564e-11
-2.52953e-11
-2.40448e-11
-2.43858e-11
-2.41585e-11
-2.39311e-11
-2.37605e-11
-2.39879e-11
-2.41016e-11
-2.467e-11
-2.46132e-11
-2.42721e-11
-2.47269e-11
-2.42153e-11
-2.36469e-11
-2.31353e-11
-2.21689e-11
-2.11458e-11
-2.05205e-11
-1.95541e-11
-1.8872e-11
-1.87583e-11
-1.81899e-11
-1.76783e-11
-1.71099e-11
-1.6712e-11
-1.65414e-11
-1.60867e-11
-1.56319e-11
-1.60867e-11
-1.5973e-11
-1.5973e-11
-1.62004e-11
-1.59162e-11
-1.60298e-11
-1.57456e-11
-1.56888e-11
-1.4893e-11
-1.51203e-11
-1.49498e-11
-1.49498e-11
-1.55183e-11
-1.4154e-11
-1.50067e-11
-1.58025e-11
-1.57456e-11
-1.5973e-11
-1.72236e-11
-1.76783e-11
-1.80762e-11
-1.78488e-11
-1.8531e-11
-1.85878e-11
-1.89289e-11
-1.89857e-11
-1.92131e-11
-1.90994e-11
-1.98384e-11
-1.94404e-11
-1.92131e-11
-1.9952e-11
-1.98952e-11
-1.97247e-11
-2.02363e-11
-1.98384e-11
-2.00089e-11
-2.00089e-11
-1.98952e-11
-2.00089e-11
-2.00089e-11
-1.97247e-11
-1.94404e-11
-1.90994e-11
-1.89857e-11
-1.94404e-11
-2.05205e-11
-2.0691e-11
-2.0691e-11
-2.13163e-11
-2.14868e-11
-2.13731e-11
-2.16005e-11
-2.18847e-11
-2.21121e-11
-2.22258e-11
-2.22826e-11
-2.18279e-11
-2.1771e-11
-2.10321e-11
-2.08615e-11
-2.05205e-11
-2.05205e-11
-2.09184e-11
-2.09752e-11
-2.08047e-11
-2.06342e-11
-2.04068e-11
-2.00089e-11
-2.07478e-11
-2.00657e-11
-1.94404e-11
-1.90994e-11
-1.86446e-11
-1.8872e-11
-1.81899e-11
-1.74509e-11
-1.58593e-11
-1.54046e-11
-1.47224e-11
-1.50067e-11
-1.44382e-11
-1.36993e-11
-1.30171e-11
-1.32445e-11
-1.28466e-11
-1.1994e-11
-1.13687e-11
-1.00044e-11
-8.81073e-12
-9.20863e-12
-8.6402e-12
-8.41283e-12
-8.2423e-12
-8.07177e-12
-8.12861e-12
-8.69704e-12
-9.20863e-12
-9.32232e-12
-8.86757e-12
-9.15179e-12
-8.98126e-12
-9.54969e-12
-9.72022e-12
-9.60654e-12
-1.03455e-11
-1.09708e-11
-1.17097e-11
-1.25624e-11
-1.35856e-11
-1.44382e-11
-1.56319e-11
-1.62572e-11
-1.56888e-11
-1.51772e-11
-1.55751e-11
-1.55183e-11
-1.53477e-11
-1.50635e-11
-1.54046e-11
-1.54046e-11
-1.53477e-11
-1.53477e-11
-1.50067e-11
-1.5234e-11
-1.47793e-11
-1.48361e-11
-1.40403e-11
-1.36424e-11
-1.3074e-11
-1.25056e-11
-1.1994e-11
-1.29035e-11
-1.32445e-11
-1.40972e-11
-1.45519e-11
-1.43245e-11
-1.49498e-11
-1.56319e-11
-1.62004e-11
-1.67688e-11
-1.83604e-11
-1.90994e-11
-1.90994e-11
-1.95541e-11
-2.00089e-11
-2.0691e-11
-2.19416e-11
-2.27942e-11
-2.26805e-11
-2.27374e-11
-2.359e-11
-2.38742e-11
-2.39879e-11
-2.48406e-11
-2.47269e-11
-2.50679e-11
-2.55227e-11
-2.64322e-11
-2.66596e-11
-2.73985e-11
-2.73985e-11
-2.74554e-11
-2.85354e-11
-2.9786e-11
-3.07523e-11
-3.18892e-11
-3.14913e-11
-3.17186e-11
-3.14344e-11
-3.20028e-11
-3.20597e-11
-3.21165e-11
-3.22871e-11
-3.22871e-11
-3.16618e-11
-3.21165e-11
-3.17755e-11
-3.14344e-11
-3.12639e-11
-3.0866e-11
-2.99565e-11
-2.91607e-11
-2.81375e-11
-2.75691e-11
-2.6489e-11
-2.56932e-11
-2.56364e-11
-2.44427e-11
-2.47269e-11
-2.47837e-11
-2.47269e-11
-2.44995e-11
-2.44427e-11
-2.42153e-11
-2.46132e-11
-2.49543e-11
-2.46132e-11
-2.38174e-11
-2.359e-11
-2.29647e-11
-2.33626e-11
-2.30216e-11
-2.27942e-11
-2.3249e-11
-2.3249e-11
-2.29079e-11
-2.30784e-11
-2.29079e-11
-2.27942e-11
-2.28511e-11
-2.27374e-11
-2.20552e-11
-2.17142e-11
-2.12026e-11
-2.05773e-11
-2.04636e-11
-2.02931e-11
-1.9611e-11
-1.94404e-11
-1.89289e-11
-1.87583e-11
-1.87583e-11
-1.8872e-11
-1.90425e-11
-1.80762e-11
-1.74509e-11
-1.71667e-11
-1.61435e-11
-1.54046e-11
-1.44382e-11
-1.3813e-11
-1.3415e-11
-1.22782e-11
-1.11413e-11
-1.02887e-11
-9.9476e-12
-9.0381e-12
-8.29914e-12
-7.21911e-12
-6.76437e-12
-5.34328e-12
-3.9222e-12
-3.12639e-12
-2.33058e-12
-6.25278e-13
2.84217e-13
5.11591e-13
9.09495e-13
6.82121e-13
7.38964e-13
0
-4.54747e-13
-1.3074e-12
-2.21689e-12
-2.33058e-12
-2.44427e-12
-2.89901e-12
-3.80851e-12
-4.37694e-12
-5.17275e-12
-5.40012e-12
-6.36646e-12
-6.65068e-12
-6.87805e-12
-7.61702e-12
-8.01492e-12
-8.35598e-12
-8.92442e-12
-9.43601e-12
-9.26548e-12
-9.49285e-12
-1.02318e-11
-1.07434e-11
-1.06866e-11
-1.10845e-11
-1.15392e-11
-1.21076e-11
-1.1994e-11
-1.26192e-11
-1.40972e-11
-1.4893e-11
-1.63709e-11
-1.6712e-11
-1.76215e-11
-1.81899e-11
-1.87015e-11
-1.92131e-11
-1.98952e-11
-2.0691e-11
-2.12026e-11
-2.18279e-11
-2.20552e-11
-2.20552e-11
-2.25668e-11
-2.21121e-11
-2.22826e-11
-2.26805e-11
-2.19416e-11
-2.22826e-11
-2.20552e-11
-2.23395e-11
-2.27942e-11
-2.28511e-11
-2.25668e-11
-2.26237e-11
-2.23395e-11
-2.26237e-11
-2.251e-11
-2.23963e-11
-2.22826e-11
-2.23395e-11
-2.17142e-11
-2.14868e-11
-2.06342e-11
-2.06342e-11
-2.03499e-11
-1.97815e-11
-1.89857e-11
-1.87583e-11
-1.80194e-11
-1.77351e-11
-1.71099e-11
-1.71099e-11
-1.72236e-11
-1.71099e-11
-1.68257e-11
-1.55183e-11
-1.51203e-11
-1.50067e-11
-1.43814e-11
-1.36424e-11
-1.30171e-11
-1.18234e-11
-1.01181e-11
-8.2423e-12
-7.7307e-12
-6.70752e-12
-6.19593e-12
-5.40012e-12
-4.94538e-12
-3.80851e-12
-1.93268e-12
-1.53477e-12
-5.68434e-13
-6.82121e-13
-2.84217e-13
-7.95808e-13
-6.25278e-13
-1.02318e-12
-6.82121e-13
-6.82121e-13
-6.25278e-13
-2.27374e-13
-5.11591e-13
-5.68434e-13
-2.27374e-13
-3.97904e-13
-5.68434e-14
-1.7053e-13
0
-2.27374e-13
-9.66338e-13
-9.09495e-13
-8.52651e-13
-6.82121e-13
-9.66338e-13
-1.36424e-12
-1.76215e-12
-1.87583e-12
-2.50111e-12
-2.6148e-12
-3.0127e-12
-3.06954e-12
-3.80851e-12
-5.05906e-12
-5.6275e-12
-6.0254e-12
-5.79803e-12
-6.65068e-12
-6.82121e-12
-7.95808e-12
-8.92442e-12
-8.81073e-12
-9.83391e-12
-1.04023e-11
-1.08571e-11
-1.14255e-11
-1.15961e-11
-1.2335e-11
-1.25624e-11
-1.31877e-11
-1.43814e-11
-1.54614e-11
-1.65414e-11
-1.82467e-11
-1.91562e-11
-2.03499e-11
-2.16005e-11
-2.28511e-11
-2.359e-11
-2.36469e-11
-2.33058e-11
-2.30216e-11
-2.30216e-11
-2.27942e-11
-2.22826e-11
-2.22258e-11
-2.18279e-11
-2.13731e-11
-2.13731e-11
-2.10321e-11
-2.01226e-11
-1.89857e-11
-1.80194e-11
-1.71099e-11
-1.66551e-11
-1.62004e-11
-1.49498e-11
-1.42677e-11
-1.35856e-11
-1.31308e-11
-1.22213e-11
-1.13118e-11
-1.03455e-11
-9.54969e-12
-8.58336e-12
-8.01492e-12
-7.10543e-12
-6.65068e-12
-6.30962e-12
-6.13909e-12
-4.94538e-12
-4.77485e-12
-4.43379e-12
-3.75167e-12
-3.86535e-12
-4.14957e-12
-4.83169e-12
-4.88853e-12
-4.43379e-12
-5.45697e-12
-5.96856e-12
-6.30962e-12
-6.08225e-12
-6.53699e-12
-6.70752e-12
-7.38964e-12
-7.27596e-12
-7.16227e-12
-7.61702e-12
-7.78755e-12
-8.12861e-12
-8.75389e-12
-9.43601e-12
-9.9476e-12
-1.04592e-11
-1.14824e-11
-1.15961e-11
-1.31877e-11
-1.35287e-11
-1.52909e-11
-1.64277e-11
-1.78488e-11
-1.84173e-11
-1.94404e-11
-2.01794e-11
-2.07478e-11
-2.143e-11
-2.251e-11
-2.35332e-11
-2.50679e-11
-2.56364e-11
-2.6489e-11
-2.73417e-11
-2.77396e-11
-2.7967e-11
-2.84217e-11
-2.88765e-11
-2.85354e-11
-2.84786e-11
-2.77964e-11
-2.73417e-11
-2.69438e-11
-2.65459e-11
-2.67164e-11
-2.63185e-11
-2.55227e-11
-2.47837e-11
-2.42153e-11
-2.42153e-11
-2.41585e-11
-2.42153e-11
-2.38742e-11
-2.42721e-11
-2.44427e-11
-2.46132e-11
-2.45564e-11
-2.43858e-11
-2.46132e-11
-2.46132e-11
-2.48406e-11
-2.55795e-11
-2.55795e-11
-2.64322e-11
-2.59774e-11
-2.62048e-11
-2.66027e-11
-2.60911e-11
-2.5409e-11
-2.51248e-11
-2.51816e-11
-2.47837e-11
-2.48974e-11
-2.43858e-11
-2.43858e-11
-2.46132e-11
-2.43858e-11
-2.39879e-11
-2.33626e-11
-2.359e-11
-2.3249e-11
-2.35332e-11
-2.34763e-11
-2.26237e-11
-2.19984e-11
-2.13731e-11
-2.11458e-11
-2.08047e-11
-2.01794e-11
-1.92699e-11
-1.8872e-11
-1.90994e-11
-1.80762e-11
-1.76783e-11
-1.7792e-11
-1.85878e-11
-1.87015e-11
-1.88152e-11
-1.88152e-11
-1.92131e-11
-1.89289e-11
-1.87583e-11
-1.86446e-11
-1.92699e-11
-1.93268e-11
-1.9952e-11
-2.01794e-11
-1.98384e-11
-1.94404e-11
-1.95541e-11
-1.92131e-11
-1.86446e-11
-1.80194e-11
-1.79057e-11
-1.79057e-11
-1.75078e-11
-1.7792e-11
-1.79625e-11
-1.69962e-11
-1.63141e-11
-1.63141e-11
-1.49498e-11
-1.43814e-11
-1.42677e-11
-1.40403e-11
-1.28466e-11
-1.20508e-11
-1.11982e-11
-1.0516e-11
-9.26548e-12
-8.69704e-12
-8.2423e-12
-7.38964e-12
-7.3328e-12
-7.61702e-12
-7.16227e-12
-6.59384e-12
-5.79803e-12
-4.66116e-12
-4.26326e-12
-3.80851e-12
-2.95586e-12
-2.10321e-12
-1.7053e-12
-1.59162e-12
-1.42109e-12
-1.42109e-12
-1.3074e-12
-1.13687e-12
-8.52651e-13
1.7053e-13
1.19371e-12
2.10321e-12
2.95586e-12
3.18323e-12
3.63798e-12
4.60432e-12
5.28644e-12
5.28644e-12
5.79803e-12
5.74119e-12
6.48015e-12
6.65068e-12
6.9349e-12
7.50333e-12
7.50333e-12
7.7307e-12
6.9349e-12
6.53699e-12
6.0254e-12
6.65068e-12
6.70752e-12
5.34328e-12
4.88853e-12
4.77485e-12
4.09273e-12
4.54747e-12
4.60432e-12
4.83169e-12
4.77485e-12
5.17275e-12
4.88853e-12
3.80851e-12
3.29692e-12
2.16005e-12
1.98952e-12
1.13687e-12
3.97904e-13
1.13687e-13
-3.97904e-13
-6.82121e-13
-2.84217e-13
-9.66338e-13
-8.52651e-13
-9.09495e-13
-7.38964e-13
-2.84217e-13
-8.52651e-13
-1.25056e-12
-2.21689e-12
-3.46745e-12
-3.29692e-12
-4.26326e-12
-4.94538e-12
-6.0254e-12
-6.87805e-12
-7.21911e-12
-7.90124e-12
-8.69704e-12
-9.60654e-12
-1.0516e-11
-1.16529e-11
-1.29603e-11
-1.36993e-11
-1.43245e-11
-1.58593e-11
-1.71667e-11
-1.81899e-11
-1.88152e-11
-1.96678e-11
-2.03499e-11
-2.13163e-11
-2.22826e-11
-2.20552e-11
-2.19984e-11
-2.17142e-11
-2.19984e-11
-2.16573e-11
-2.19416e-11
-2.22258e-11
-2.26237e-11
-2.3249e-11
-2.34195e-11
-2.30784e-11
-2.27374e-11
-2.24532e-11
-2.21689e-11
-2.16005e-11
-2.13163e-11
-2.11458e-11
-2.14868e-11
-2.12026e-11
-2.10889e-11
-2.04068e-11
-1.96678e-11
-1.94404e-11
-1.85878e-11
-1.88152e-11
-1.80194e-11
-1.79625e-11
-1.78488e-11
-1.71099e-11
-1.7053e-11
-1.65983e-11
-1.5973e-11
-1.55751e-11
-1.55183e-11
-1.4893e-11
-1.43245e-11
-1.43245e-11
-1.45519e-11
-1.44382e-11
-1.4154e-11
-1.42677e-11
-1.43245e-11
-1.43814e-11
-1.4154e-11
-1.39835e-11
-1.3415e-11
-1.27898e-11
-1.21076e-11
-1.15961e-11
-1.13687e-11
-1.05729e-11
-1.01181e-11
-1.04592e-11
-9.54969e-12
-8.98126e-12
-8.01492e-12
-7.04858e-12
-6.13909e-12
-4.60432e-12
-4.03588e-12
-3.35376e-12
-3.46745e-12
-3.06954e-12
-3.63798e-12
-3.75167e-12
-3.80851e-12
-3.52429e-12
-3.9222e-12
-4.09273e-12
-4.14957e-12
-5.05906e-12
-5.05906e-12
-5.34328e-12
-5.57066e-12
-5.96856e-12
-6.30962e-12
-6.36646e-12
-5.96856e-12
-5.57066e-12
-6.42331e-12
-7.16227e-12
-7.84439e-12
-8.12861e-12
-8.41283e-12
-9.32232e-12
-9.89075e-12
-1.08571e-11
-1.16529e-11
-1.23919e-11
-1.31308e-11
-1.3813e-11
-1.44951e-11
-1.61435e-11
-1.73941e-11
-1.88152e-11
-1.97815e-11
-2.10889e-11
-2.251e-11
-2.29079e-11
-2.29647e-11
-2.34195e-11
-2.28511e-11
-2.3249e-11
-2.27942e-11
-2.24532e-11
-2.19984e-11
-2.17142e-11
-2.24532e-11
-2.27942e-11
-2.28511e-11
-2.23395e-11
-2.20552e-11
-2.16005e-11
-2.13163e-11
-2.04636e-11
-1.92131e-11
-1.88152e-11
-1.85878e-11
-1.89857e-11
-1.81899e-11
-1.83604e-11
-1.79057e-11
-1.78488e-11
-1.87583e-11
-1.84741e-11
-1.84173e-11
-1.81331e-11
-1.79057e-11
-1.80762e-11
-1.76783e-11
-1.71667e-11
-1.7792e-11
-1.71667e-11
-1.63709e-11
-1.54046e-11
-1.5234e-11
-1.51203e-11
-1.50635e-11
-1.50635e-11
-1.45519e-11
-1.42109e-11
-1.38698e-11
-1.30171e-11
-1.29603e-11
-1.22782e-11
-1.26192e-11
-1.3074e-11
-1.32445e-11
-1.31308e-11
-1.31308e-11
-1.23919e-11
-1.31877e-11
-1.22213e-11
-1.19371e-11
-1.13118e-11
-1.05729e-11
-1.02887e-11
-9.77707e-12
-9.43601e-12
-9.20863e-12
-8.2423e-12
-7.38964e-12
-6.65068e-12
-6.76437e-12
-6.42331e-12
-6.25278e-12
-5.05906e-12
-5.22959e-12
-4.718e-12
-3.97904e-12
-2.95586e-12
-1.47793e-12
-7.95808e-13
-2.27374e-13
5.68434e-13
1.36424e-12
1.81899e-12
2.67164e-12
3.35376e-12
4.83169e-12
5.51381e-12
6.87805e-12
7.84439e-12
8.58336e-12
9.0381e-12
8.58336e-12
9.0381e-12
9.20863e-12
8.52651e-12
8.98126e-12
9.09495e-12
8.92442e-12
8.46967e-12
8.86757e-12
8.46967e-12
8.46967e-12
8.52651e-12
8.92442e-12
8.81073e-12
8.98126e-12
8.2423e-12
8.07177e-12
7.7307e-12
8.01492e-12
8.6402e-12
8.12861e-12
8.46967e-12
8.86757e-12
9.20863e-12
9.9476e-12
1.06297e-11
1.00044e-11
1.01181e-11
9.43601e-12
8.29914e-12
8.41283e-12
8.35598e-12
8.12861e-12
7.56017e-12
6.48015e-12
5.51381e-12
4.66116e-12
4.09273e-12
2.84217e-12
1.53477e-12
-1.7053e-13
-1.93268e-12
-2.84217e-12
-3.75167e-12
-5.34328e-12
-6.76437e-12
-8.12861e-12
-8.6402e-12
-9.60654e-12
-1.01181e-11
-1.02318e-11
-1.03455e-11
-1.04592e-11
-1.03455e-11
-9.9476e-12
-8.92442e-12
-8.86757e-12
-7.90124e-12
-7.84439e-12
-7.90124e-12
-7.21911e-12
-6.08225e-12
-4.3201e-12
-1.93268e-12
1.7053e-13
2.16005e-12
5.17275e-12
9.66338e-12
1.46088e-11
1.90425e-11
2.5409e-11
3.36513e-11
4.32578e-11
5.49107e-11
6.79847e-11
8.39577e-11
1.03341e-10
1.26306e-10
1.54046e-10
1.86958e-10
2.26009e-10
2.72109e-10
3.27589e-10
3.93754e-10
4.72994e-10
5.67468e-10
6.80245e-10
8.1485e-10
9.76684e-10
1.16978e-09
1.3996e-09
1.67364e-09
2.00009e-09
2.38919e-09
2.85132e-09
3.40225e-09
4.05601e-09
4.83237e-09
5.75483e-09
6.8477e-09
8.14384e-09
9.67918e-09
1.14958e-08
1.36444e-08
1.61849e-08
1.91847e-08
2.27259e-08
2.69023e-08
3.18251e-08
3.76228e-08
4.44484e-08
5.24761e-08
6.19127e-08
7.2996e-08
8.60052e-08
1.01263e-07
1.19147e-07
1.40093e-07
1.64611e-07
1.93287e-07
2.26803e-07
2.65949e-07
3.11637e-07
3.64923e-07
4.27028e-07
4.99358e-07
5.83539e-07
6.8144e-07
7.95217e-07
9.27351e-07
1.08069e-06
1.25852e-06
1.46459e-06
1.70322e-06
1.97935e-06
2.29866e-06
2.66762e-06
3.09364e-06
3.58519e-06
4.15194e-06
4.80492e-06
5.55671e-06
6.42161e-06
7.41592e-06
8.55817e-06
9.86941e-06
1.13735e-05
1.30976e-05
1.50724e-05
1.73327e-05
1.99179e-05
2.28723e-05
2.62464e-05
3.00968e-05
3.44875e-05
3.94905e-05
4.51871e-05
5.16685e-05
5.90372e-05
6.74086e-05
7.69118e-05
8.76918e-05
9.99108e-05
0.00011375
0.000129414
0.000147128
0.000167146
0.00018975
0.000215255
0.000244011
0.000276407
0.000312878
0.000353902
0.000400014
0.000451804
0.000509926
0.000575105
0.000648139
0.000729912
0.000821399
0.000923673
0.00103792
0.00116543
0.00130764
0.00146613
0.0016426
0.00183895
0.00205725
0.00229975
0.00256893
0.00286747
0.00319833
0.00356469
0.00397006
0.00441821
0.00491327
0.0054597
0.00606235
0.00672647
0.00745772
0.00826224
0.00914664
0.0101181
0.0111842
0.0123533
0.0136343
0.0150368
0.0165709
0.0182477
0.0200788
0.0220769
0.0242553
0.0266284
0.0292113
0.0320204
0.0350727
0.0383866
0.0419815
0.045878
0.0500976
0.0546635
0.0595998
0.064932
0.070687
0.076893
0.0835797
0.0907782
0.0985211
0.106842
0.115777
0.125363
0.135639
0.146645
0.158422
0.171014
0.184466
0.198824
0.214136
0.230451
0.24782
0.266297
0.285933
0.306785
0.328909
0.352362
0.377203
0.403492
0.431291
0.46066
0.491662
0.524362
0.558822
0.595109
0.633285
0.673418
0.715572
0.759814
0.806208
0.85482
0.905715
0.958958
1.01461
1.07274
1.13341
1.19667
1.2626
1.33124
1.40266
1.47691
1.55405
1.63413
1.71719
1.8033
1.89249
1.98482
2.08032
2.17904
2.281
2.38626
2.49484
2.60677
2.72209
2.84081
2.96296
3.08856
3.21762
3.35017
3.48622
3.62577
3.76883
3.91541
4.06551
4.21913
4.37627
4.53691
4.70106
4.86871
5.03983
5.21443
5.39247
5.57395
5.75884
5.94712
6.13877
6.33376
6.53207
6.73366
6.93851
7.14658
7.35784
7.57226
7.78981
8.01044
8.23412
8.46081
8.69047
8.92307
9.15856
9.3969
9.63806
9.88198
10.1286
10.378
10.63
10.8845
11.1417
11.4013
11.6635
11.928
12.195
12.4642
12.7358
13.0097
13.2857
13.564
13.8443
14.1268
14.4113
14.6978
14.9863
15.2767
15.569
15.8631
16.1591
16.4568
16.7563
17.0575
17.3603
17.6648
17.9708
18.2784
18.5875
18.8982
19.2102
19.5237
19.8386
20.1548
20.4724
20.7913
21.1114
21.4327
21.7553
22.0791
22.404
22.73
23.0571
23.3853
23.7146
24.0448
24.3761
24.7083
25.0415
25.3756
25.7106
26.0465
26.3832
26.7208
27.0592
27.3984
27.7383
28.079
28.4205
28.7627
29.1055
29.4491
29.7933
30.1382
30.4837
30.8298
31.1765
31.5238
31.8716
32.22
32.569
32.9184
33.2684
33.6189
33.9698
34.3212
34.6731
35.0254
35.3782
35.7313
36.0849
36.4389
36.7932
37.148
37.503
37.8585
38.2143
38.5704
38.9268
39.2835
39.6406
39.9979
40.3555
40.7134
41.0716
41.43
41.7887
42.1476
42.5068
42.8661
43.2257
43.5855
43.9455
44.3057
44.6661
45.0267
45.3874
45.7484
46.1094
46.4707
46.8321
47.1936
47.5553
47.9171
48.279
48.6411
49.0032
49.3655
49.7279
50.0904
50.453
50.8157
51.1784
51.5413
51.9042
52.2672
52.6302
52.9933
53.3565
53.7197
54.083
54.4463
54.8097
55.1731
55.5365
55.9
56.2635
56.627
56.9906
57.3541
57.7177
58.0813
58.4448
58.8084
59.172
59.5356
59.8992
60.2627
60.6263
60.9898
61.3533
61.7168
62.0803
62.4438
62.8072
63.1706
63.5339
63.8972
64.2605
64.6237
64.9869
65.3501
65.7132
66.0762
66.4392
66.8021
67.165
67.5278
67.8906
68.2533
68.6159
68.9784
69.3409
69.7033
70.0657
70.4279
70.7901
71.1522
71.5143
71.8762
72.2381
72.5998
72.9615
73.3231
73.6846
74.046
74.4074
74.7686
75.1297
75.4907
75.8517
76.2125
76.5732
76.9339
77.2944
77.6548
78.0151
78.3753
78.7354
79.0954
79.4552
79.815
80.1746
80.5341
80.8935
81.2528
81.612
81.971
82.3299
82.6887
83.0474
83.4059
83.7644
84.1227
84.4808
84.8389
85.1968
85.5546
85.9122
86.2697
86.6271
86.9844
87.3415
87.6984
88.0553
88.412
88.7686
89.125
89.4813
89.8374
90.1934
90.5493
90.905
91.2606
91.616
91.9713
92.3265
92.6815
93.0363
93.3911
93.7456
94.1
94.4543
94.8084
95.1624
95.5162
95.8698
96.2233
96.5767
96.9299
97.2829
97.6358
97.9886
98.3412
98.6936
99.0459
99.398
99.7499
100.102
100.453
100.805
101.156
101.507
101.858
102.209
102.56
102.91
103.261
103.611
103.961
104.311
104.661
105.01
105.359
105.709
106.058
106.407
106.755
107.104
107.452
107.801
108.149
108.496
108.844
109.192
109.539
109.886
110.233
110.58
110.927
111.274
111.62
111.966
112.312
112.658
113.004
113.349
113.694
114.04
114.385
114.729
115.074
115.419
115.763
116.107
116.451
116.795
117.138
117.482
117.825
118.168
118.511
118.854
119.196
119.539
119.881
120.223
120.565
120.906
121.248
121.589
121.93
122.271
122.612
122.953
123.293
123.634
123.974
124.313
124.653
124.993
125.332
125.671
126.01
126.349
126.688
127.026
127.365
127.703
128.041
128.378
128.716
129.053
129.39
129.728
130.064
130.401
130.737
131.074
131.41
131.746
132.082
132.417
132.753
133.088
133.423
133.758
134.092
134.427
134.761
135.095
135.429
135.763
136.096
136.43
136.763
137.096
137.429
137.762
138.094
138.426
138.758
139.09
139.422
139.754
140.085
140.416
140.747
141.078
141.409
141.739
142.069
142.399
142.729
143.059
143.389
143.718
144.047
144.376
144.705
145.033
145.362
145.69
146.018
146.346
146.674
147.001
147.329
147.656
147.983
148.309
148.636
148.962
149.288
149.614
149.94
150.266
150.591
150.917
151.242
151.567
151.891
152.216
152.54
152.864
153.188
153.512
153.836
154.159
154.482
154.805
155.128
155.451
155.773
156.096
156.418
156.74
157.061
157.383
157.704
158.026
158.347
158.667
158.988
159.308
159.629
159.949
160.269
160.588
160.908
161.227
161.546
161.865
162.184
162.502
162.821
163.139
163.457
163.775
164.092
164.41
164.727
165.044
165.361
165.678
165.994
166.311
166.627
166.943
167.259
167.574
167.89
168.205
168.52
168.835
169.149
169.464
169.778
170.092
170.406
170.72
171.033
171.347
171.66
171.973
172.286
172.598
172.911
173.223
173.535
173.847
174.158
174.47
174.781
175.092
175.403
175.714
176.024
176.335
176.645
176.955
177.265
177.574
177.884
178.193
178.502
178.811
179.12
179.428
179.737
180.045
180.353
180.66
180.968
181.275
181.582
181.89
182.196
182.503
182.809
183.116
183.422
183.728
184.033
184.339
184.644
184.949
185.254
185.559
185.864
186.168
186.472
186.776
187.08
187.384
187.687
187.991
188.294
188.597
188.9
189.202
189.504
189.807
190.109
190.41
190.712
191.014
191.315
191.616
191.917
192.217
192.518
192.818
193.118
193.418
193.718
194.018
194.317
194.616
194.915
195.214
195.513
195.811
196.11
196.408
196.706
197.004
197.301
197.598
197.896
198.193
198.49
198.786
199.083
199.379
199.675
199.971
200.267
200.562
200.857
201.153
201.448