/*--------------------------------*- C++ -*----------------------------------*\
  =========                 |
  \\      /  F ield         | OpenFOAM: The Open Source CFD Toolbox
   \\    /   O peration     | Website:  https://openfoam.org
    \\  /    A nd           | Version:  9
     \\/     M anipulation  |
\*---------------------------------------------------------------------------*/
FoamFile
{
    format      ascii;
    class       volScalarField;
    location    "0.008";
    object      rho;
}
// * * * * * * * * * * * * * * * * * * * * * * * * * * * * * * * * * * * * * //

dimensions      [1 -3 0 0 0 0 0];

internalField   nonuniform List<scalar> 
10000
(
0.997574
0.997574
0.997574
0.997574
0.997574
0.997574
0.997574
0.997574
0.997574
0.997574
0.997574
0.997574
0.997574
0.997574
0.997574
0.997574
0.997574
0.997574
0.997574
0.997574
0.997574
0.997574
0.997574
0.997574
0.997574
0.997574
0.997574
0.997574
0.997574
0.997574
0.997574
0.997574
0.997574
0.997574
0.997574
0.997574
0.997574
0.997574
0.997574
0.997574
0.997574
0.997574
0.997574
0.997574
0.997574
0.997574
0.997574
0.997574
0.997574
0.997574
0.997574
0.997574
0.997574
0.997574
0.997574
0.997574
0.997574
0.997574
0.997574
0.997574
0.997574
0.997574
0.997574
0.997574
0.997574
0.997574
0.997574
0.997574
0.997574
0.997574
0.997574
0.997574
0.997574
0.997574
0.997574
0.997574
0.997574
0.997574
0.997574
0.997574
0.997574
0.997574
0.997574
0.997574
0.997574
0.997574
0.997574
0.997574
0.997574
0.997574
0.997574
0.997574
0.997574
0.997574
0.997574
0.997574
0.997574
0.997574
0.997574
0.997574
0.997574
0.997574
0.997574
0.997574
0.997574
0.997574
0.997574
0.997574
0.997574
0.997574
0.997574
0.997574
0.997574
0.997574
0.997574
0.997574
0.997574
0.997574
0.997574
0.997574
0.997574
0.997574
0.997574
0.997574
0.997574
0.997574
0.997574
0.997574
0.997574
0.997574
0.997574
0.997574
0.997574
0.997574
0.997574
0.997574
0.997574
0.997574
0.997574
0.997574
0.997574
0.997574
0.997574
0.997574
0.997574
0.997574
0.997574
0.997574
0.997574
0.997574
0.997574
0.997574
0.997574
0.997574
0.997574
0.997574
0.997574
0.997574
0.997574
0.997574
0.997574
0.997574
0.997574
0.997574
0.997574
0.997574
0.997574
0.997574
0.997574
0.997574
0.997574
0.997574
0.997574
0.997574
0.997574
0.997574
0.997574
0.997574
0.997574
0.997574
0.997574
0.997574
0.997574
0.997574
0.997574
0.997574
0.997574
0.997574
0.997574
0.997574
0.997574
0.997574
0.997574
0.997574
0.997574
0.997574
0.997574
0.997574
0.997574
0.997574
0.997574
0.997574
0.997574
0.997574
0.997574
0.997574
0.997574
0.997574
0.997574
0.997574
0.997574
0.997574
0.997574
0.997574
0.997574
0.997574
0.997574
0.997574
0.997574
0.997574
0.997574
0.997574
0.997574
0.997574
0.997574
0.997574
0.997574
0.997574
0.997574
0.997574
0.997574
0.997574
0.997574
0.997574
0.997574
0.997574
0.997574
0.997574
0.997574
0.997574
0.997574
0.997574
0.997574
0.997574
0.997574
0.997574
0.997574
0.997574
0.997574
0.997574
0.997574
0.997574
0.997574
0.997574
0.997574
0.997574
0.997574
0.997574
0.997574
0.997574
0.997574
0.997574
0.997574
0.997574
0.997574
0.997574
0.997574
0.997574
0.997574
0.997574
0.997574
0.997574
0.997574
0.997574
0.997574
0.997574
0.997574
0.997574
0.997574
0.997574
0.997574
0.997574
0.997574
0.997574
0.997574
0.997574
0.997574
0.997574
0.997574
0.997574
0.997574
0.997574
0.997574
0.997574
0.997574
0.997574
0.997574
0.997574
0.997574
0.997574
0.997574
0.997574
0.997574
0.997574
0.997574
0.997574
0.997574
0.997574
0.997574
0.997574
0.997574
0.997574
0.997574
0.997574
0.997574
0.997574
0.997574
0.997574
0.997574
0.997574
0.997574
0.997574
0.997574
0.997574
0.997574
0.997574
0.997574
0.997574
0.997574
0.997574
0.997574
0.997574
0.997574
0.997574
0.997574
0.997574
0.997574
0.997574
0.997574
0.997574
0.997574
0.997574
0.997574
0.997574
0.997574
0.997574
0.997574
0.997574
0.997574
0.997574
0.997574
0.997574
0.997574
0.997574
0.997574
0.997574
0.997574
0.997574
0.997574
0.997574
0.997574
0.997574
0.997574
0.997574
0.997574
0.997574
0.997574
0.997574
0.997574
0.997574
0.997574
0.997574
0.997574
0.997574
0.997574
0.997574
0.997574
0.997574
0.997574
0.997574
0.997574
0.997574
0.997574
0.997574
0.997574
0.997574
0.997574
0.997574
0.997574
0.997574
0.997574
0.997574
0.997574
0.997574
0.997574
0.997574
0.997574
0.997574
0.997574
0.997574
0.997574
0.997574
0.997574
0.997574
0.997574
0.997574
0.997574
0.997574
0.997574
0.997574
0.997574
0.997574
0.997574
0.997574
0.997574
0.997574
0.997574
0.997574
0.997574
0.997574
0.997574
0.997574
0.997574
0.997574
0.997574
0.997574
0.997574
0.997574
0.997574
0.997574
0.997574
0.997574
0.997574
0.997574
0.997574
0.997574
0.997574
0.997574
0.997574
0.997574
0.997574
0.997574
0.997574
0.997574
0.997574
0.997574
0.997574
0.997574
0.997574
0.997574
0.997574
0.997574
0.997574
0.997574
0.997574
0.997574
0.997574
0.997574
0.997574
0.997574
0.997574
0.997574
0.997574
0.997574
0.997574
0.997574
0.997574
0.997574
0.997574
0.997574
0.997574
0.997574
0.997574
0.997574
0.997574
0.997574
0.997574
0.997574
0.997574
0.997574
0.997574
0.997574
0.997574
0.997574
0.997574
0.997574
0.997574
0.997574
0.997574
0.997574
0.997574
0.997574
0.997574
0.997574
0.997574
0.997574
0.997574
0.997574
0.997574
0.997574
0.997574
0.997574
0.997574
0.997574
0.997574
0.997574
0.997574
0.997574
0.997574
0.997574
0.997574
0.997574
0.997574
0.997574
0.997574
0.997574
0.997574
0.997574
0.997574
0.997574
0.997574
0.997574
0.997574
0.997574
0.997574
0.997574
0.997574
0.997574
0.997574
0.997574
0.997574
0.997574
0.997574
0.997574
0.997574
0.997574
0.997574
0.997574
0.997574
0.997574
0.997574
0.997574
0.997574
0.997574
0.997574
0.997574
0.997574
0.997574
0.997574
0.997574
0.997574
0.997574
0.997574
0.997574
0.997574
0.997574
0.997574
0.997574
0.997574
0.997574
0.997574
0.997574
0.997574
0.997574
0.997574
0.997574
0.997574
0.997574
0.997574
0.997574
0.997574
0.997574
0.997574
0.997574
0.997574
0.997574
0.997574
0.997574
0.997574
0.997574
0.997574
0.997574
0.997574
0.997574
0.997574
0.997574
0.997574
0.997574
0.997574
0.997574
0.997574
0.997574
0.997574
0.997574
0.997574
0.997574
0.997574
0.997574
0.997574
0.997574
0.997574
0.997574
0.997574
0.997574
0.997574
0.997574
0.997574
0.997574
0.997574
0.997574
0.997574
0.997574
0.997574
0.997574
0.997574
0.997574
0.997574
0.997574
0.997574
0.997574
0.997574
0.997574
0.997574
0.997574
0.997574
0.997574
0.997574
0.997574
0.997574
0.997574
0.997574
0.997574
0.997574
0.997574
0.997574
0.997574
0.997574
0.997574
0.997574
0.997574
0.997574
0.997574
0.997574
0.997574
0.997574
0.997574
0.997574
0.997574
0.997574
0.997574
0.997574
0.997574
0.997574
0.997574
0.997574
0.997574
0.997574
0.997574
0.997574
0.997574
0.997574
0.997574
0.997574
0.997574
0.997574
0.997574
0.997574
0.997574
0.997574
0.997574
0.997574
0.997574
0.997574
0.997574
0.997574
0.997574
0.997574
0.997574
0.997574
0.997574
0.997574
0.997574
0.997574
0.997574
0.997574
0.997574
0.997574
0.997574
0.997574
0.997574
0.997574
0.997574
0.997574
0.997574
0.997574
0.997574
0.997574
0.997574
0.997574
0.997574
0.997574
0.997574
0.997574
0.997574
0.997574
0.997574
0.997574
0.997574
0.997574
0.997574
0.997574
0.997574
0.997574
0.997574
0.997574
0.997574
0.997574
0.997574
0.997574
0.997574
0.997574
0.997574
0.997574
0.997574
0.997574
0.997574
0.997574
0.997574
0.997574
0.997574
0.997574
0.997574
0.997574
0.997574
0.997574
0.997574
0.997574
0.997574
0.997574
0.997574
0.997574
0.997574
0.997574
0.997574
0.997574
0.997574
0.997574
0.997574
0.997574
0.997574
0.997574
0.997574
0.997574
0.997574
0.997574
0.997574
0.997574
0.997574
0.997574
0.997574
0.997574
0.997574
0.997574
0.997574
0.997574
0.997574
0.997574
0.997574
0.997574
0.997574
0.997574
0.997574
0.997574
0.997574
0.997574
0.997574
0.997574
0.997574
0.997574
0.997574
0.997574
0.997574
0.997574
0.997574
0.997574
0.997574
0.997574
0.997574
0.997574
0.997574
0.997574
0.997574
0.997574
0.997574
0.997574
0.997574
0.997574
0.997574
0.997574
0.997574
0.997574
0.997574
0.997574
0.997574
0.997574
0.997574
0.997574
0.997574
0.997574
0.997574
0.997574
0.997574
0.997574
0.997574
0.997574
0.997574
0.997574
0.997574
0.997574
0.997574
0.997574
0.997574
0.997574
0.997574
0.997574
0.997574
0.997574
0.997574
0.997574
0.997574
0.997574
0.997574
0.997574
0.997574
0.997574
0.997574
0.997574
0.997574
0.997574
0.997574
0.997574
0.997574
0.997574
0.997574
0.997574
0.997574
0.997574
0.997574
0.997574
0.997574
0.997574
0.997574
0.997574
0.997574
0.997574
0.997574
0.997574
0.997574
0.997574
0.997574
0.997574
0.997574
0.997574
0.997574
0.997574
0.997574
0.997574
0.997574
0.997574
0.997574
0.997574
0.997574
0.997574
0.997574
0.997574
0.997574
0.997574
0.997574
0.997574
0.997574
0.997574
0.997574
0.997574
0.997574
0.997574
0.997574
0.997574
0.997574
0.997574
0.997574
0.997574
0.997574
0.997574
0.997574
0.997574
0.997574
0.997574
0.997574
0.997574
0.997574
0.997574
0.997574
0.997574
0.997574
0.997574
0.997574
0.997574
0.997574
0.997574
0.997574
0.997574
0.997574
0.997574
0.997574
0.997574
0.997574
0.997574
0.997574
0.997574
0.997574
0.997574
0.997574
0.997574
0.997574
0.997574
0.997574
0.997574
0.997574
0.997574
0.997574
0.997574
0.997574
0.997574
0.997574
0.997574
0.997574
0.997574
0.997574
0.997574
0.997574
0.997574
0.997574
0.997574
0.997574
0.997574
0.997574
0.997574
0.997574
0.997574
0.997574
0.997574
0.997574
0.997574
0.997574
0.997574
0.997574
0.997574
0.997574
0.997574
0.997574
0.997574
0.997574
0.997574
0.997574
0.997574
0.997574
0.997574
0.997574
0.997574
0.997574
0.997574
0.997574
0.997574
0.997574
0.997574
0.997574
0.997574
0.997574
0.997574
0.997574
0.997574
0.997574
0.997574
0.997574
0.997574
0.997574
0.997574
0.997574
0.997574
0.997574
0.997574
0.997574
0.997574
0.997574
0.997574
0.997574
0.997574
0.997574
0.997574
0.997574
0.997574
0.997574
0.997574
0.997574
0.997574
0.997574
0.997574
0.997574
0.997574
0.997574
0.997574
0.997574
0.997574
0.997574
0.997574
0.997574
0.997574
0.997574
0.997574
0.997574
0.997574
0.997574
0.997574
0.997574
0.997574
0.997574
0.997574
0.997574
0.997574
0.997574
0.997574
0.997574
0.997574
0.997574
0.997574
0.997574
0.997574
0.997574
0.997574
0.997574
0.997574
0.997574
0.997574
0.997574
0.997574
0.997574
0.997574
0.997574
0.997574
0.997574
0.997574
0.997574
0.997574
0.997574
0.997574
0.997574
0.997574
0.997574
0.997574
0.997574
0.997574
0.997574
0.997574
0.997574
0.997574
0.997574
0.997574
0.997574
0.997574
0.997574
0.997574
0.997574
0.997574
0.997574
0.997574
0.997574
0.997574
0.997574
0.997574
0.997574
0.997574
0.997574
0.997574
0.997574
0.997574
0.997574
0.997574
0.997574
0.997574
0.997574
0.997574
0.997574
0.997574
0.997574
0.997574
0.997574
0.997574
0.997574
0.997574
0.997574
0.997574
0.997574
0.997574
0.997574
0.997574
0.997574
0.997574
0.997574
0.997574
0.997574
0.997574
0.997574
0.997574
0.997574
0.997574
0.997574
0.997574
0.997574
0.997574
0.997574
0.997574
0.997574
0.997574
0.997574
0.997574
0.997574
0.997574
0.997574
0.997574
0.997574
0.997574
0.997574
0.997574
0.997574
0.997574
0.997574
0.997574
0.997574
0.997574
0.997574
0.997574
0.997574
0.997574
0.997574
0.997574
0.997574
0.997574
0.997574
0.997574
0.997574
0.997574
0.997574
0.997574
0.997574
0.997574
0.997574
0.997574
0.997574
0.997574
0.997574
0.997574
0.997574
0.997574
0.997574
0.997574
0.997574
0.997574
0.997574
0.997574
0.997574
0.997574
0.997574
0.997574
0.997574
0.997574
0.997574
0.997574
0.997574
0.997574
0.997574
0.997574
0.997574
0.997574
0.997574
0.997574
0.997574
0.997574
0.997574
0.997574
0.997574
0.997574
0.997574
0.997574
0.997574
0.997574
0.997574
0.997574
0.997574
0.997574
0.997574
0.997574
0.997574
0.997574
0.997574
0.997574
0.997574
0.997574
0.997574
0.997574
0.997574
0.997574
0.997574
0.997574
0.997574
0.997574
0.997574
0.997574
0.997574
0.997574
0.997574
0.997574
0.997574
0.997574
0.997574
0.997574
0.997574
0.997574
0.997574
0.997574
0.997574
0.997574
0.997574
0.997574
0.997574
0.997574
0.997574
0.997574
0.997574
0.997574
0.997574
0.997574
0.997574
0.997574
0.997574
0.997574
0.997574
0.997574
0.997574
0.997574
0.997574
0.997574
0.997574
0.997574
0.997574
0.997574
0.997574
0.997574
0.997574
0.997574
0.997574
0.997574
0.997574
0.997574
0.997574
0.997574
0.997574
0.997574
0.997574
0.997574
0.997574
0.997574
0.997574
0.997574
0.997574
0.997574
0.997574
0.997574
0.997574
0.997574
0.997574
0.997574
0.997574
0.997574
0.997574
0.997574
0.997574
0.997574
0.997574
0.997574
0.997574
0.997574
0.997574
0.997574
0.997574
0.997574
0.997574
0.997574
0.997574
0.997574
0.997574
0.997574
0.997574
0.997574
0.997574
0.997574
0.997574
0.997574
0.997574
0.997574
0.997574
0.997574
0.997574
0.997574
0.997574
0.997574
0.997574
0.997574
0.997574
0.997574
0.997574
0.997574
0.997574
0.997574
0.997574
0.997574
0.997574
0.997574
0.997574
0.997574
0.997574
0.997574
0.997574
0.997574
0.997574
0.997574
0.997574
0.997574
0.997574
0.997574
0.997574
0.997574
0.997574
0.997574
0.997574
0.997574
0.997574
0.997574
0.997574
0.997574
0.997574
0.997574
0.997574
0.997574
0.997574
0.997574
0.997574
0.997574
0.997574
0.997574
0.997574
0.997574
0.997574
0.997574
0.997574
0.997574
0.997574
0.997574
0.997574
0.997574
0.997574
0.997574
0.997574
0.997574
0.997574
0.997574
0.997574
0.997574
0.997574
0.997574
0.997574
0.997574
0.997574
0.997574
0.997574
0.997574
0.997574
0.997574
0.997574
0.997574
0.997574
0.997574
0.997574
0.997574
0.997574
0.997574
0.997574
0.997574
0.997574
0.997574
0.997574
0.997574
0.997574
0.997574
0.997574
0.997574
0.997574
0.997574
0.997574
0.997574
0.997574
0.997574
0.997574
0.997574
0.997574
0.997574
0.997574
0.997574
0.997574
0.997574
0.997574
0.997574
0.997574
0.997574
0.997574
0.997574
0.997574
0.997574
0.997574
0.997574
0.997574
0.997574
0.997574
0.997574
0.997574
0.997574
0.997574
0.997574
0.997574
0.997574
0.997574
0.997574
0.997574
0.997574
0.997574
0.997574
0.997574
0.997574
0.997574
0.997574
0.997574
0.997574
0.997574
0.997574
0.997574
0.997574
0.997574
0.997574
0.997574
0.997574
0.997574
0.997574
0.997574
0.997574
0.997574
0.997574
0.997574
0.997574
0.997574
0.997574
0.997574
0.997574
0.997574
0.997574
0.997574
0.997574
0.997574
0.997574
0.997574
0.997574
0.997574
0.997574
0.997574
0.997574
0.997574
0.997574
0.997574
0.997574
0.997574
0.997574
0.997574
0.997574
0.997574
0.997574
0.997574
0.997574
0.997574
0.997574
0.997574
0.997574
0.997574
0.997574
0.997574
0.997574
0.997574
0.997574
0.997574
0.997574
0.997574
0.997574
0.997574
0.997574
0.997574
0.997574
0.997574
0.997574
0.997574
0.997574
0.997574
0.997574
0.997574
0.997574
0.997574
0.997574
0.997574
0.997574
0.997574
0.997574
0.997574
0.997574
0.997574
0.997574
0.997574
0.997574
0.997574
0.997574
0.997574
0.997574
0.997574
0.997574
0.997574
0.997574
0.997574
0.997574
0.997574
0.997574
0.997574
0.997574
0.997574
0.997574
0.997574
0.997574
0.997574
0.997574
0.997574
0.997574
0.997574
0.997574
0.997574
0.997574
0.997574
0.997574
0.997574
0.997574
0.997574
0.997574
0.997574
0.997574
0.997574
0.997574
0.997574
0.997574
0.997574
0.997574
0.997574
0.997574
0.997574
0.997574
0.997574
0.997574
0.997574
0.997574
0.997574
0.997574
0.997574
0.997574
0.997574
0.997574
0.997574
0.997574
0.997574
0.997574
0.997574
0.997574
0.997574
0.997574
0.997574
0.997574
0.997574
0.997574
0.997574
0.997574
0.997574
0.997574
0.997574
0.997574
0.997574
0.997574
0.997574
0.997574
0.997574
0.997574
0.997574
0.997574
0.997574
0.997574
0.997574
0.997574
0.997574
0.997574
0.997574
0.997574
0.997574
0.997574
0.997574
0.997574
0.997574
0.997574
0.997574
0.997574
0.997574
0.997574
0.997574
0.997574
0.997574
0.997574
0.997574
0.997574
0.997574
0.997574
0.997574
0.997574
0.997574
0.997574
0.997574
0.997574
0.997574
0.997574
0.997574
0.997574
0.997574
0.997574
0.997574
0.997574
0.997574
0.997574
0.997574
0.997574
0.997574
0.997574
0.997574
0.997574
0.997574
0.997574
0.997574
0.997574
0.997574
0.997574
0.997574
0.997574
0.997574
0.997574
0.997574
0.997574
0.997574
0.997574
0.997574
0.997574
0.997574
0.997574
0.997574
0.997574
0.997574
0.997574
0.997574
0.997574
0.997574
0.997574
0.997574
0.997574
0.997574
0.997574
0.997574
0.997574
0.997574
0.997574
0.997574
0.997574
0.997574
0.997574
0.997574
0.997574
0.997574
0.997574
0.997574
0.997574
0.997574
0.997574
0.997574
0.997574
0.997574
0.997574
0.997574
0.997574
0.997574
0.997574
0.997574
0.997574
0.997574
0.997574
0.997574
0.997574
0.997574
0.997574
0.997574
0.997574
0.997574
0.997574
0.997574
0.997574
0.997574
0.997574
0.997574
0.997574
0.997574
0.997574
0.997574
0.997574
0.997574
0.997574
0.997574
0.997574
0.997574
0.997574
0.997574
0.997574
0.997574
0.997574
0.997574
0.997574
0.997574
0.997574
0.997574
0.997574
0.997574
0.997574
0.997574
0.997574
0.997574
0.997574
0.997574
0.997574
0.997574
0.997574
0.997574
0.997574
0.997574
0.997574
0.997574
0.997574
0.997574
0.997574
0.997574
0.997574
0.997574
0.997574
0.997574
0.997574
0.997574
0.997574
0.997574
0.997574
0.997574
0.997574
0.997574
0.997574
0.997574
0.997574
0.997574
0.997574
0.997574
0.997574
0.997574
0.997574
0.997574
0.997574
0.997574
0.997574
0.997574
0.997574
0.997574
0.997574
0.997574
0.997574
0.997574
0.997574
0.997574
0.997574
0.997574
0.997574
0.997574
0.997574
0.997574
0.997574
0.997574
0.997574
0.997574
0.997574
0.997574
0.997574
0.997574
0.997574
0.997574
0.997574
0.997574
0.997574
0.997574
0.997574
0.997574
0.997574
0.997574
0.997574
0.997574
0.997574
0.997574
0.997574
0.997574
0.997574
0.997574
0.997574
0.997574
0.997574
0.997574
0.997574
0.997574
0.997574
0.997574
0.997574
0.997574
0.997574
0.997574
0.997574
0.997574
0.997574
0.997574
0.997574
0.997574
0.997574
0.997574
0.997574
0.997574
0.997573
0.997573
0.997573
0.997573
0.997573
0.997573
0.997573
0.997572
0.997572
0.997572
0.997572
0.997571
0.997571
0.997571
0.99757
0.99757
0.99757
0.997569
0.997568
0.997568
0.997567
0.997566
0.997566
0.997565
0.997564
0.997563
0.997561
0.99756
0.997559
0.997557
0.997556
0.997554
0.997552
0.99755
0.997547
0.997545
0.997542
0.997539
0.997536
0.997533
0.997529
0.997525
0.997521
0.997516
0.997511
0.997506
0.9975
0.997494
0.997487
0.99748
0.997473
0.997464
0.997456
0.997446
0.997437
0.997426
0.997415
0.997403
0.99739
0.997377
0.997362
0.997347
0.997331
0.997314
0.997296
0.997277
0.997257
0.997235
0.997213
0.997189
0.997165
0.997138
0.997111
0.997082
0.997052
0.99702
0.996987
0.996952
0.996916
0.996878
0.996838
0.996797
0.996754
0.996709
0.996662
0.996614
0.996563
0.99651
0.996456
0.996399
0.996341
0.99628
0.996218
0.996153
0.996086
0.996016
0.995945
0.995871
0.995795
0.995717
0.995637
0.995554
0.995469
0.995381
0.995291
0.995199
0.995105
0.995008
0.994908
0.994807
0.994703
0.994596
0.994488
0.994377
0.994263
0.994147
0.994029
0.993909
0.993786
0.993661
0.993534
0.993404
0.993272
0.993138
0.993002
0.992863
0.992723
0.99258
0.992435
0.992288
0.992139
0.991988
0.991834
0.991679
0.991522
0.991363
0.991201
0.991038
0.990873
0.990707
0.990538
0.990368
0.990195
0.990022
0.989846
0.989669
0.98949
0.989309
0.989127
0.988943
0.988758
0.988571
0.988382
0.988192
0.988001
0.987808
0.987614
0.987419
0.987222
0.987024
0.986825
0.986624
0.986422
0.986219
0.986015
0.985809
0.985603
0.985395
0.985186
0.984976
0.984765
0.984554
0.984341
0.984127
0.983912
0.983696
0.983479
0.983261
0.983043
0.982823
0.982603
0.982382
0.98216
0.981937
0.981714
0.981489
0.981264
0.981039
0.980812
0.980585
0.980357
0.980128
0.979899
0.979669
0.979439
0.979208
0.978976
0.978744
0.978511
0.978277
0.978043
0.977809
0.977574
0.977338
0.977102
0.976866
0.976629
0.976391
0.976153
0.975915
0.975676
0.975436
0.975197
0.974956
0.974716
0.974475
0.974233
0.973992
0.973749
0.973507
0.973264
0.973021
0.972777
0.972533
0.972289
0.972045
0.9718
0.971555
0.971309
0.971063
0.970817
0.970571
0.970324
0.970078
0.96983
0.969583
0.969335
0.969088
0.968839
0.968591
0.968342
0.968094
0.967844
0.967595
0.967346
0.967096
0.966846
0.966596
0.966346
0.966095
0.965845
0.965594
0.965343
0.965091
0.96484
0.964588
0.964337
0.964085
0.963833
0.963581
0.963328
0.963076
0.962823
0.96257
0.962317
0.962064
0.961811
0.961558
0.961304
0.961051
0.960797
0.960543
0.96029
0.960035
0.959781
0.959527
0.959273
0.959018
0.958764
0.958509
0.958254
0.958
0.957745
0.95749
0.957235
0.956979
0.956724
0.956469
0.956213
0.955958
0.955702
0.955447
0.955191
0.954935
0.954679
0.954424
0.954168
0.953912
0.953655
0.953399
0.953143
0.952887
0.952631
0.952374
0.952118
0.951861
0.951605
0.951348
0.951092
0.950835
0.950578
0.950322
0.950065
0.949808
0.949551
0.949294
0.949038
0.948781
0.948524
0.948267
0.94801
0.947753
0.947495
0.947238
0.946981
0.946724
0.946467
0.94621
0.945953
0.945695
0.945438
0.945181
0.944924
0.944666
0.944409
0.944152
0.943894
0.943637
0.94338
0.943122
0.942865
0.942607
0.94235
0.942093
0.941835
0.941578
0.94132
0.941063
0.940805
0.940548
0.940291
0.940033
0.939776
0.939518
0.939261
0.939003
0.938746
0.938489
0.938231
0.937974
0.937716
0.937459
0.937202
0.936944
0.936687
0.936429
0.936172
0.935915
0.935657
0.9354
0.935143
0.934885
0.934628
0.934371
0.934114
0.933856
0.933599
0.933342
0.933085
0.932827
0.93257
0.932313
0.932056
0.931799
0.931542
0.931284
0.931027
0.93077
0.930513
0.930256
0.929999
0.929742
0.929485
0.929228
0.928971
0.928715
0.928458
0.928201
0.927944
0.927687
0.92743
0.927174
0.926917
0.92666
0.926403
0.926147
0.92589
0.925633
0.925377
0.92512
0.924864
0.924607
0.924351
0.924094
0.923838
0.923582
0.923325
0.923069
0.922813
0.922556
0.9223
0.922044
0.921788
0.921531
0.921275
0.921019
0.920763
0.920507
0.920251
0.919995
0.919739
0.919483
0.919227
0.918972
0.918716
0.91846
0.918204
0.917949
0.917693
0.917437
0.917182
0.916926
0.916671
0.916415
0.91616
0.915904
0.915649
0.915393
0.915138
0.914883
0.914628
0.914372
0.914117
0.913862
0.913607
0.913352
0.913097
0.912842
0.912587
0.912332
0.912077
0.911822
0.911567
0.911313
0.911058
0.910803
0.910549
0.910294
0.91004
0.909785
0.909531
0.909276
0.909022
0.908767
0.908513
0.908259
0.908004
0.90775
0.907496
0.907242
0.906988
0.906734
0.90648
0.906226
0.905972
0.905718
0.905464
0.90521
0.904957
0.904703
0.904449
0.904196
0.903942
0.903689
0.903435
0.903182
0.902928
0.902675
0.902422
0.902168
0.901915
0.901662
0.901409
0.901156
0.900902
0.900649
0.900396
0.900144
0.899891
0.899638
0.899385
0.899132
0.89888
0.898627
0.898374
0.898122
0.897869
0.897617
0.897364
0.897112
0.896859
0.896607
0.896355
0.896103
0.895851
0.895598
0.895346
0.895094
0.894842
0.89459
0.894338
0.894087
0.893835
0.893583
0.893331
0.89308
0.892828
0.892576
0.892325
0.892073
0.891822
0.891571
0.891319
0.891068
0.890817
0.890566
0.890314
0.890063
0.889812
0.889561
0.88931
0.889059
0.888808
0.888558
0.888307
0.888056
0.887805
0.887555
0.887304
0.887054
0.886803
0.886553
0.886302
0.886052
0.885802
0.885551
0.885301
0.885051
0.884801
0.884551
0.884301
0.884051
0.883801
0.883551
0.883301
0.883052
0.882802
0.882552
0.882303
0.882053
0.881803
0.881554
0.881305
0.881055
0.880806
0.880557
0.880307
0.880058
0.879809
0.87956
0.879311
0.879062
0.878813
0.878564
0.878315
0.878067
0.877818
0.877569
0.87732
0.877072
0.876823
0.876575
0.876326
0.876078
0.87583
0.875581
0.875333
0.875085
0.874837
0.874589
0.874341
0.874093
0.873845
0.873597
0.873349
0.873101
0.872853
0.872606
0.872358
0.872111
0.871863
0.871615
0.871368
0.871121
0.870873
0.870626
0.870379
0.870132
0.869884
0.869637
0.86939
0.869143
0.868896
0.86865
0.868403
0.868156
0.867909
0.867662
0.867416
0.867169
0.866923
0.866676
0.86643
0.866183
0.865937
0.865691
0.865445
0.865198
0.864952
0.864706
0.86446
0.864214
0.863968
0.863722
0.863477
0.863231
0.862985
0.862739
0.862494
0.862248
0.862003
0.861757
0.861512
0.861267
0.861021
0.860776
0.860531
0.860286
0.860041
0.859795
0.85955
0.859306
0.859061
0.858816
0.858571
0.858326
0.858082
0.857837
0.857592
0.857348
0.857103
0.856859
0.856614
0.85637
0.856126
0.855882
0.855637
0.855393
0.855149
0.854905
0.854661
0.854417
0.854174
0.85393
0.853686
0.853442
0.853199
0.852955
0.852711
0.852468
0.852224
0.851981
0.851738
0.851494
0.851251
0.851008
0.850765
0.850522
0.850279
0.850036
0.849793
0.84955
0.849307
0.849064
0.848822
0.848579
0.848336
0.848094
0.847851
0.847609
0.847366
0.847124
0.846882
0.846639
0.846397
0.846155
0.845913
0.845671
0.845429
0.845187
0.844945
0.844703
0.844461
0.84422
0.843978
0.843736
0.843495
0.843253
0.843012
0.84277
0.842529
0.842288
0.842046
0.841805
0.841564
0.841323
0.841082
0.840841
0.8406
0.840359
0.840118
0.839877
0.839637
0.839396
0.839155
0.838915
0.838674
0.838434
0.838193
0.837953
0.837713
0.837472
0.837232
0.836992
0.836752
0.836512
0.836272
0.836032
0.835792
0.835552
0.835312
0.835073
0.834833
0.834593
0.834354
0.834114
0.833875
0.833635
0.833396
0.833156
0.832917
0.832678
0.832439
0.8322
0.831961
0.831722
0.831483
0.831244
0.831005
0.830766
0.830527
0.830289
0.83005
0.829811
0.829573
0.829334
0.829096
0.828857
0.828619
0.828381
0.828143
0.827904
0.827666
0.827428
0.82719
0.826952
0.826714
0.826476
0.826239
0.826001
0.825763
0.825526
0.825288
0.82505
0.824813
0.824576
0.824338
0.824101
0.823864
0.823626
0.823389
0.823152
0.822915
0.822678
0.822441
0.822204
0.821967
0.82173
0.821494
0.821257
0.82102
0.820784
0.820547
0.820311
0.820074
0.819838
0.819601
0.819365
0.819129
0.818893
0.818657
0.818421
0.818184
0.817949
0.817713
0.817477
0.817241
0.817005
0.816769
0.816534
0.816298
0.816063
0.815827
0.815592
0.815356
0.815121
0.814886
0.81465
0.814415
0.81418
0.813945
0.81371
0.813475
0.81324
0.813005
0.812771
0.812536
0.812301
0.812066
0.811832
0.811597
0.811363
0.811128
0.810894
0.81066
0.810425
0.810191
0.809957
0.809723
0.809489
0.809255
0.809021
0.808787
0.808553
0.808319
0.808085
0.807852
0.807618
0.807384
0.807151
0.806917
0.806684
0.80645
0.806217
0.805984
0.805751
0.805517
0.805284
0.805051
0.804818
0.804585
0.804352
0.804119
0.803887
0.803654
0.803421
0.803188
0.802956
0.802723
0.802491
0.802258
0.802026
0.801794
0.801561
0.801329
0.801097
0.800865
0.800633
0.800401
0.800169
0.799937
0.799705
0.799473
0.799241
0.799009
0.798778
0.798546
0.798315
0.798083
0.797852
0.79762
0.797389
0.797158
0.796926
0.796695
0.796464
0.796233
0.796002
0.795771
0.79554
0.795309
0.795078
0.794848
0.794617
0.794386
0.794156
0.793925
0.793694
0.793464
0.793234
0.793003
0.792773
0.792543
0.792312
0.792082
0.791852
0.791622
0.791392
0.791162
0.790932
0.790703
0.790473
0.790243
0.790013
0.789784
0.789554
0.789325
0.789095
0.788866
0.788636
0.788407
0.788178
0.787949
0.787719
0.78749
0.787261
0.787032
0.786803
0.786574
0.786346
0.786117
0.785888
0.785659
0.785431
0.785202
0.784974
0.784745
0.784517
0.784288
0.78406
0.783832
0.783604
0.783375
0.783147
0.782919
0.782691
0.782463
0.782235
0.782008
0.78178
0.781552
0.781324
0.781097
0.780869
0.780642
0.780414
0.780187
0.779959
0.779732
0.779505
0.779277
0.77905
0.778823
0.778596
0.778369
0.778142
0.777915
0.777688
0.777462
0.777235
0.777008
0.776781
0.776555
0.776328
0.776102
0.775875
0.775649
0.775423
0.775196
0.77497
0.774744
0.774518
0.774292
0.774066
0.77384
0.773614
0.773388
0.773162
0.772936
0.772711
0.772485
0.772259
0.772034
0.771808
0.771583
0.771357
0.771132
0.770907
0.770681
0.770456
0.770231
0.770006
0.769781
0.769556
0.769331
0.769106
0.768881
0.768657
0.768432
0.768207
0.767983
0.767758
0.767533
0.767309
0.767085
0.76686
0.766636
0.766412
0.766187
0.765963
0.765739
0.765515
0.765291
0.765067
0.764843
0.764619
0.764396
0.764172
0.763948
0.763724
0.763501
0.763277
0.763054
0.76283
0.762607
0.762384
0.76216
0.761937
0.761714
0.761491
0.761268
0.761045
0.760822
0.760599
0.760376
0.760153
0.75993
0.759708
0.759485
0.759262
0.75904
0.758817
0.758595
0.758372
0.75815
0.757928
0.757706
0.757483
0.757261
0.757039
0.756817
0.756595
0.756373
0.756151
0.755929
0.755708
0.755486
0.755264
0.755043
0.754821
0.754599
0.754378
0.754156
0.753935
0.753714
0.753493
0.753271
0.75305
0.752829
0.752608
0.752387
0.752166
0.751945
0.751724
0.751503
0.751283
0.751062
0.750841
0.750621
0.7504
0.75018
0.749959
0.749739
0.749518
0.749298
0.749078
0.748858
0.748637
0.748417
0.748197
0.747977
0.747757
0.747538
0.747318
0.747098
0.746878
0.746658
0.746439
0.746219
0.746
0.74578
0.745561
0.745341
0.745122
0.744903
0.744684
0.744464
0.744245
0.744026
0.743807
0.743588
0.743369
0.74315
0.742932
0.742713
0.742494
0.742275
0.742057
0.741838
0.74162
0.741401
0.741183
0.740965
0.740746
0.740528
0.74031
0.740092
0.739874
0.739656
0.739438
0.73922
0.739002
0.738784
0.738566
0.738348
0.738131
0.737913
0.737695
0.737478
0.73726
0.737043
0.736825
0.736608
0.736391
0.736174
0.735956
0.735739
0.735522
0.735305
0.735088
0.734871
0.734654
0.734438
0.734221
0.734004
0.733787
0.733571
0.733354
0.733138
0.732921
0.732705
0.732488
0.732272
0.732056
0.73184
0.731623
0.731407
0.731191
0.730975
0.730759
0.730543
0.730327
0.730112
0.729896
0.72968
0.729464
0.729249
0.729033
0.728818
0.728602
0.728387
0.728172
0.727956
0.727741
0.727526
0.727311
0.727096
0.72688
0.726665
0.726451
0.726236
0.726021
0.725806
0.725591
0.725377
0.725162
0.724947
0.724733
0.724518
0.724304
0.724089
0.723875
0.723661
0.723446
0.723232
0.723018
0.722804
0.72259
0.722376
0.722162
0.721948
0.721734
0.72152
0.721307
0.721093
0.720879
0.720666
0.720452
0.720239
0.720025
0.719812
0.719599
0.719385
0.719172
0.718959
0.718746
0.718533
0.71832
0.718107
0.717894
0.717681
0.717468
0.717255
0.717042
0.71683
0.716617
0.716405
0.716192
0.715979
0.715767
0.715555
0.715342
0.71513
0.714918
0.714706
0.714493
0.714281
0.714069
0.713857
0.713645
0.713434
0.713222
0.71301
0.712798
0.712586
0.712375
0.712163
0.711952
0.71174
0.711529
0.711317
0.711106
0.710895
0.710684
0.710472
0.710261
0.71005
0.709839
0.709628
0.709417
0.709206
0.708995
0.708785
0.708574
0.708363
0.708153
0.707942
0.707732
0.707521
0.707311
0.7071
0.70689
0.70668
0.706469
0.706259
0.706049
0.705839
0.705629
0.705419
0.705209
0.704999
0.704789
0.704579
0.70437
0.70416
0.70395
0.703741
0.703531
0.703322
0.703112
0.702903
0.702694
0.702484
0.702275
0.702066
0.701857
0.701648
0.701439
0.70123
0.701021
0.700812
0.700603
0.700394
0.700185
0.699977
0.699768
0.699559
0.699351
0.699142
0.698934
0.698726
0.698517
0.698309
0.698101
0.697892
0.697684
0.697476
0.697268
0.69706
0.696852
0.696644
0.696436
0.696229
0.696021
0.695813
0.695605
0.695398
0.69519
0.694983
0.694775
0.694568
0.694361
0.694153
0.693946
0.693739
0.693532
0.693324
0.693117
0.69291
0.692703
0.692497
0.69229
0.692083