/*--------------------------------*- C++ -*----------------------------------*\
  =========                 |
  \\      /  F ield         | OpenFOAM: The Open Source CFD Toolbox
   \\    /   O peration     | Website:  https://openfoam.org
    \\  /    A nd           | Version:  9
     \\/     M anipulation  |
\*---------------------------------------------------------------------------*/
FoamFile
{
    format      ascii;
    class       volScalarField;
    location    "0.008";
    object      T;
}
// * * * * * * * * * * * * * * * * * * * * * * * * * * * * * * * * * * * * * //

dimensions      [0 0 0 1 0 0 0];

internalField   nonuniform List<scalar> 
10000
(
348.432
348.432
348.432
348.432
348.432
348.432
348.432
348.432
348.432
348.432
348.432
348.432
348.432
348.432
348.432
348.432
348.432
348.432
348.432
348.432
348.432
348.432
348.432
348.432
348.432
348.432
348.432
348.432
348.432
348.432
348.432
348.432
348.432
348.432
348.432
348.432
348.432
348.432
348.432
348.432
348.432
348.432
348.432
348.432
348.432
348.432
348.432
348.432
348.432
348.432
348.432
348.432
348.432
348.432
348.432
348.432
348.432
348.432
348.432
348.432
348.432
348.432
348.432
348.432
348.432
348.432
348.432
348.432
348.432
348.432
348.432
348.432
348.432
348.432
348.432
348.432
348.432
348.432
348.432
348.432
348.432
348.432
348.432
348.432
348.432
348.432
348.432
348.432
348.432
348.432
348.432
348.432
348.432
348.432
348.432
348.432
348.432
348.432
348.432
348.432
348.432
348.432
348.432
348.432
348.432
348.432
348.432
348.432
348.432
348.432
348.432
348.432
348.432
348.432
348.432
348.432
348.432
348.432
348.432
348.432
348.432
348.432
348.432
348.432
348.432
348.432
348.432
348.432
348.432
348.432
348.432
348.432
348.432
348.432
348.432
348.432
348.432
348.432
348.432
348.432
348.432
348.432
348.432
348.432
348.432
348.432
348.432
348.432
348.432
348.432
348.432
348.432
348.432
348.432
348.432
348.432
348.432
348.432
348.432
348.432
348.432
348.432
348.432
348.432
348.432
348.432
348.432
348.432
348.432
348.432
348.432
348.432
348.432
348.432
348.432
348.432
348.432
348.432
348.432
348.432
348.432
348.432
348.432
348.432
348.432
348.432
348.432
348.432
348.432
348.432
348.432
348.432
348.432
348.432
348.432
348.432
348.432
348.432
348.432
348.432
348.432
348.432
348.432
348.432
348.432
348.432
348.432
348.432
348.432
348.432
348.432
348.432
348.432
348.432
348.432
348.432
348.432
348.432
348.432
348.432
348.432
348.432
348.432
348.432
348.432
348.432
348.432
348.432
348.432
348.432
348.432
348.432
348.432
348.432
348.432
348.432
348.432
348.432
348.432
348.432
348.432
348.432
348.432
348.432
348.432
348.432
348.432
348.432
348.432
348.432
348.432
348.432
348.432
348.432
348.432
348.432
348.432
348.432
348.432
348.432
348.432
348.432
348.432
348.432
348.432
348.432
348.432
348.432
348.432
348.432
348.432
348.432
348.432
348.432
348.432
348.432
348.432
348.432
348.432
348.432
348.432
348.432
348.432
348.432
348.432
348.432
348.432
348.432
348.432
348.432
348.432
348.432
348.432
348.432
348.432
348.432
348.432
348.432
348.432
348.432
348.432
348.432
348.432
348.432
348.432
348.432
348.432
348.432
348.432
348.432
348.432
348.432
348.432
348.432
348.432
348.432
348.432
348.432
348.432
348.432
348.432
348.432
348.432
348.432
348.432
348.432
348.432
348.432
348.432
348.432
348.432
348.432
348.432
348.432
348.432
348.432
348.432
348.432
348.432
348.432
348.432
348.432
348.432
348.432
348.432
348.432
348.432
348.432
348.432
348.432
348.432
348.432
348.432
348.432
348.432
348.432
348.432
348.432
348.432
348.432
348.432
348.432
348.432
348.432
348.432
348.432
348.432
348.432
348.432
348.432
348.432
348.432
348.432
348.432
348.432
348.432
348.432
348.432
348.432
348.432
348.432
348.432
348.432
348.432
348.432
348.432
348.432
348.432
348.432
348.432
348.432
348.432
348.432
348.432
348.432
348.432
348.432
348.432
348.432
348.432
348.432
348.432
348.432
348.432
348.432
348.432
348.432
348.432
348.432
348.432
348.432
348.432
348.432
348.432
348.432
348.432
348.432
348.432
348.432
348.432
348.432
348.432
348.432
348.432
348.432
348.432
348.432
348.432
348.432
348.432
348.432
348.432
348.432
348.432
348.432
348.432
348.432
348.432
348.432
348.432
348.432
348.432
348.432
348.432
348.432
348.432
348.432
348.432
348.432
348.432
348.432
348.432
348.432
348.432
348.432
348.432
348.432
348.432
348.432
348.432
348.432
348.432
348.432
348.432
348.432
348.432
348.432
348.432
348.432
348.432
348.432
348.432
348.432
348.432
348.432
348.432
348.432
348.432
348.432
348.432
348.432
348.432
348.432
348.432
348.432
348.432
348.432
348.432
348.432
348.432
348.432
348.432
348.432
348.432
348.432
348.432
348.432
348.432
348.432
348.432
348.432
348.432
348.432
348.432
348.432
348.432
348.432
348.432
348.432
348.432
348.432
348.432
348.432
348.432
348.432
348.432
348.432
348.432
348.432
348.432
348.432
348.432
348.432
348.432
348.432
348.432
348.432
348.432
348.432
348.432
348.432
348.432
348.432
348.432
348.432
348.432
348.432
348.432
348.432
348.432
348.432
348.432
348.432
348.432
348.432
348.432
348.432
348.432
348.432
348.432
348.432
348.432
348.432
348.432
348.432
348.432
348.432
348.432
348.432
348.432
348.432
348.432
348.432
348.432
348.432
348.432
348.432
348.432
348.432
348.432
348.432
348.432
348.432
348.432
348.432
348.432
348.432
348.432
348.432
348.432
348.432
348.432
348.432
348.432
348.432
348.432
348.432
348.432
348.432
348.432
348.432
348.432
348.432
348.432
348.432
348.432
348.432
348.432
348.432
348.432
348.432
348.432
348.432
348.432
348.432
348.432
348.432
348.432
348.432
348.432
348.432
348.432
348.432
348.432
348.432
348.432
348.432
348.432
348.432
348.432
348.432
348.432
348.432
348.432
348.432
348.432
348.432
348.432
348.432
348.432
348.432
348.432
348.432
348.432
348.432
348.432
348.432
348.432
348.432
348.432
348.432
348.432
348.432
348.432
348.432
348.432
348.432
348.432
348.432
348.432
348.432
348.432
348.432
348.432
348.432
348.432
348.432
348.432
348.432
348.432
348.432
348.432
348.432
348.432
348.432
348.432
348.432
348.432
348.432
348.432
348.432
348.432
348.432
348.432
348.432
348.432
348.432
348.432
348.432
348.432
348.432
348.432
348.432
348.432
348.432
348.432
348.432
348.432
348.432
348.432
348.432
348.432
348.432
348.432
348.432
348.432
348.432
348.432
348.432
348.432
348.432
348.432
348.432
348.432
348.432
348.432
348.432
348.432
348.432
348.432
348.432
348.432
348.432
348.432
348.432
348.432
348.432
348.432
348.432
348.432
348.432
348.432
348.432
348.432
348.432
348.432
348.432
348.432
348.432
348.432
348.432
348.432
348.432
348.432
348.432
348.432
348.432
348.432
348.432
348.432
348.432
348.432
348.432
348.432
348.432
348.432
348.432
348.432
348.432
348.432
348.432
348.432
348.432
348.432
348.432
348.432
348.432
348.432
348.432
348.432
348.432
348.432
348.432
348.432
348.432
348.432
348.432
348.432
348.432
348.432
348.432
348.432
348.432
348.432
348.432
348.432
348.432
348.432
348.432
348.432
348.432
348.432
348.432
348.432
348.432
348.432
348.432
348.432
348.432
348.432
348.432
348.432
348.432
348.432
348.432
348.432
348.432
348.432
348.432
348.432
348.432
348.432
348.432
348.432
348.432
348.432
348.432
348.432
348.432
348.432
348.432
348.432
348.432
348.432
348.432
348.432
348.432
348.432
348.432
348.432
348.432
348.432
348.432
348.432
348.432
348.432
348.432
348.432
348.432
348.432
348.432
348.432
348.432
348.432
348.432
348.432
348.432
348.432
348.432
348.432
348.432
348.432
348.432
348.432
348.432
348.432
348.432
348.432
348.432
348.432
348.432
348.432
348.432
348.432
348.432
348.432
348.432
348.432
348.432
348.432
348.432
348.432
348.432
348.432
348.432
348.432
348.432
348.432
348.432
348.432
348.432
348.432
348.432
348.432
348.432
348.432
348.432
348.432
348.432
348.432
348.432
348.432
348.432
348.432
348.432
348.432
348.432
348.432
348.432
348.432
348.432
348.432
348.432
348.432
348.432
348.432
348.432
348.432
348.432
348.432
348.432
348.432
348.432
348.432
348.432
348.432
348.432
348.432
348.432
348.432
348.432
348.432
348.432
348.432
348.432
348.432
348.432
348.432
348.432
348.432
348.432
348.432
348.432
348.432
348.432
348.432
348.432
348.432
348.432
348.432
348.432
348.432
348.432
348.432
348.432
348.432
348.432
348.432
348.432
348.432
348.432
348.432
348.432
348.432
348.432
348.432
348.432
348.432
348.432
348.432
348.432
348.432
348.432
348.432
348.432
348.432
348.432
348.432
348.432
348.432
348.432
348.432
348.432
348.432
348.432
348.432
348.432
348.432
348.432
348.432
348.432
348.432
348.432
348.432
348.432
348.432
348.432
348.432
348.432
348.432
348.432
348.432
348.432
348.432
348.432
348.432
348.432
348.432
348.432
348.432
348.432
348.432
348.432
348.432
348.432
348.432
348.432
348.432
348.432
348.432
348.432
348.432
348.432
348.432
348.432
348.432
348.432
348.432
348.432
348.432
348.432
348.432
348.432
348.432
348.432
348.432
348.432
348.432
348.432
348.432
348.432
348.432
348.432
348.432
348.432
348.432
348.432
348.432
348.432
348.432
348.432
348.432
348.432
348.432
348.432
348.432
348.432
348.432
348.432
348.432
348.432
348.432
348.432
348.432
348.432
348.432
348.432
348.432
348.432
348.432
348.432
348.432
348.432
348.432
348.432
348.432
348.432
348.432
348.432
348.432
348.432
348.432
348.432
348.432
348.432
348.432
348.432
348.432
348.432
348.432
348.432
348.432
348.432
348.432
348.432
348.432
348.432
348.432
348.432
348.432
348.432
348.432
348.432
348.432
348.432
348.432
348.432
348.432
348.432
348.432
348.432
348.432
348.432
348.432
348.432
348.432
348.432
348.432
348.432
348.432
348.432
348.432
348.432
348.432
348.432
348.432
348.432
348.432
348.432
348.432
348.432
348.432
348.432
348.432
348.432
348.432
348.432
348.432
348.432
348.432
348.432
348.432
348.432
348.432
348.432
348.432
348.432
348.432
348.432
348.432
348.432
348.432
348.432
348.432
348.432
348.432
348.432
348.432
348.432
348.432
348.432
348.432
348.432
348.432
348.432
348.432
348.432
348.432
348.432
348.432
348.432
348.432
348.432
348.432
348.432
348.432
348.432
348.432
348.432
348.432
348.432
348.432
348.432
348.432
348.432
348.432
348.432
348.432
348.432
348.432
348.432
348.432
348.432
348.432
348.432
348.432
348.432
348.432
348.432
348.432
348.432
348.432
348.432
348.432
348.432
348.432
348.432
348.432
348.432
348.432
348.432
348.432
348.432
348.432
348.432
348.432
348.432
348.432
348.432
348.432
348.432
348.432
348.432
348.432
348.432
348.432
348.432
348.432
348.432
348.432
348.432
348.432
348.432
348.432
348.432
348.432
348.432
348.432
348.432
348.432
348.432
348.432
348.432
348.432
348.432
348.432
348.432
348.432
348.432
348.432
348.432
348.432
348.432
348.432
348.432
348.432
348.432
348.432
348.432
348.432
348.432
348.432
348.432
348.432
348.432
348.432
348.432
348.432
348.432
348.432
348.432
348.432
348.432
348.432
348.432
348.432
348.432
348.432
348.432
348.432
348.432
348.432
348.432
348.432
348.432
348.432
348.432
348.432
348.432
348.432
348.432
348.432
348.432
348.432
348.432
348.432
348.432
348.432
348.432
348.432
348.432
348.432
348.432
348.432
348.432
348.432
348.432
348.432
348.432
348.432
348.432
348.432
348.432
348.432
348.432
348.432
348.432
348.432
348.432
348.432
348.432
348.432
348.432
348.432
348.432
348.432
348.432
348.432
348.432
348.432
348.432
348.432
348.432
348.432
348.432
348.432
348.432
348.432
348.432
348.432
348.432
348.432
348.432
348.432
348.432
348.432
348.432
348.432
348.432
348.432
348.432
348.432
348.432
348.432
348.432
348.432
348.432
348.432
348.432
348.432
348.432
348.432
348.432
348.432
348.432
348.432
348.432
348.432
348.432
348.432
348.432
348.432
348.432
348.432
348.432
348.432
348.432
348.432
348.432
348.432
348.432
348.432
348.432
348.432
348.432
348.432
348.432
348.432
348.432
348.432
348.432
348.432
348.432
348.432
348.432
348.432
348.432
348.432
348.432
348.432
348.432
348.432
348.432
348.432
348.432
348.432
348.432
348.432
348.432
348.432
348.432
348.432
348.432
348.432
348.432
348.432
348.432
348.432
348.432
348.432
348.432
348.432
348.432
348.432
348.432
348.432
348.432
348.432
348.432
348.432
348.432
348.432
348.432
348.432
348.432
348.432
348.432
348.432
348.432
348.432
348.432
348.432
348.432
348.432
348.432
348.432
348.432
348.432
348.432
348.432
348.432
348.432
348.432
348.432
348.432
348.432
348.432
348.432
348.432
348.432
348.432
348.432
348.432
348.432
348.432
348.432
348.432
348.432
348.432
348.432
348.432
348.432
348.432
348.432
348.432
348.432
348.432
348.432
348.432
348.432
348.432
348.432
348.432
348.432
348.432
348.432
348.432
348.432
348.432
348.432
348.432
348.432
348.432
348.432
348.432
348.432
348.432
348.432
348.432
348.432
348.432
348.432
348.432
348.432
348.432
348.432
348.432
348.432
348.432
348.432
348.432
348.432
348.432
348.432
348.432
348.432
348.432
348.432
348.432
348.432
348.432
348.432
348.432
348.432
348.432
348.432
348.432
348.432
348.432
348.432
348.432
348.432
348.432
348.432
348.432
348.432
348.432
348.432
348.432
348.432
348.432
348.432
348.432
348.432
348.432
348.432
348.432
348.432
348.432
348.432
348.432
348.432
348.432
348.432
348.432
348.432
348.432
348.432
348.432
348.432
348.432
348.432
348.432
348.432
348.432
348.432
348.432
348.432
348.432
348.432
348.432
348.432
348.432
348.432
348.432
348.432
348.432
348.432
348.432
348.432
348.432
348.432
348.432
348.432
348.432
348.432
348.432
348.432
348.432
348.432
348.432
348.432
348.432
348.432
348.432
348.432
348.432
348.432
348.432
348.432
348.432
348.432
348.432
348.432
348.432
348.432
348.432
348.432
348.432
348.432
348.432
348.432
348.432
348.432
348.432
348.432
348.432
348.432
348.432
348.432
348.432
348.432
348.432
348.432
348.432
348.432
348.432
348.432
348.432
348.432
348.432
348.432
348.432
348.432
348.432
348.432
348.432
348.432
348.432
348.432
348.432
348.432
348.432
348.432
348.432
348.432
348.432
348.432
348.432
348.432
348.432
348.432
348.432
348.432
348.432
348.432
348.432
348.432
348.432
348.432
348.432
348.432
348.432
348.432
348.432
348.432
348.432
348.432
348.432
348.432
348.432
348.432
348.432
348.432
348.432
348.432
348.432
348.432
348.432
348.432
348.432
348.432
348.432
348.432
348.432
348.432
348.432
348.432
348.432
348.432
348.432
348.432
348.432
348.432
348.432
348.432
348.432
348.432
348.432
348.432
348.432
348.432
348.432
348.432
348.432
348.432
348.432
348.432
348.432
348.432
348.432
348.432
348.432
348.432
348.432
348.432
348.432
348.432
348.432
348.432
348.432
348.432
348.432
348.432
348.432
348.432
348.432
348.432
348.432
348.432
348.432
348.432
348.432
348.432
348.432
348.432
348.432
348.432
348.432
348.432
348.432
348.432
348.432
348.432
348.432
348.432
348.432
348.432
348.432
348.432
348.432
348.432
348.432
348.432
348.432
348.432
348.432
348.432
348.432
348.432
348.432
348.432
348.432
348.432
348.432
348.432
348.432
348.432
348.432
348.432
348.432
348.432
348.432
348.432
348.432
348.432
348.432
348.432
348.432
348.432
348.432
348.432
348.432
348.432
348.432
348.432
348.432
348.432
348.432
348.432
348.432
348.432
348.432
348.432
348.432
348.432
348.432
348.432
348.432
348.432
348.432
348.432
348.432
348.432
348.432
348.432
348.432
348.432
348.432
348.432
348.432
348.432
348.432
348.432
348.432
348.432
348.432
348.432
348.432
348.432
348.432
348.432
348.432
348.432
348.432
348.432
348.432
348.432
348.432
348.432
348.432
348.432
348.432
348.432
348.432
348.432
348.432
348.432
348.432
348.432
348.432
348.432
348.432
348.432
348.432
348.432
348.432
348.432
348.432
348.432
348.432
348.432
348.432
348.432
348.432
348.432
348.432
348.432
348.432
348.432
348.432
348.432
348.432
348.432
348.432
348.432
348.432
348.432
348.432
348.432
348.432
348.432
348.432
348.432
348.432
348.432
348.432
348.432
348.432
348.432
348.432
348.432
348.432
348.432
348.432
348.432
348.432
348.432
348.432
348.432
348.432
348.432
348.432
348.432
348.431
348.431
348.431
348.431
348.431
348.431
348.431
348.431
348.431
348.431
348.431
348.43
348.43
348.43
348.43
348.43
348.429
348.429
348.429
348.429
348.428
348.428
348.428
348.427
348.427
348.426
348.426
348.425
348.425
348.424
348.423
348.422
348.422
348.421
348.42
348.419
348.418
348.417
348.415
348.414
348.413
348.411
348.41
348.408
348.406
348.404
348.402
348.4
348.398
348.396
348.393
348.39
348.388
348.385
348.381
348.378
348.375
348.371
348.367
348.363
348.359
348.354
348.35
348.345
348.34
348.334
348.329
348.323
348.317
348.311
348.304
348.297
348.29
348.283
348.275
348.267
348.259
348.251
348.242
348.233
348.223
348.214
348.204
348.193
348.183
348.172
348.16
348.149
348.137
348.125
348.112
348.099
348.086
348.072
348.058
348.044
348.029
348.014
347.999
347.984
347.968
347.951
347.935
347.918
347.901
347.883
347.865
347.847
347.829
347.81
347.791
347.771
347.751
347.731
347.711
347.69
347.669
347.648
347.627
347.605
347.583
347.56
347.538
347.515
347.491
347.468
347.444
347.42
347.396
347.372
347.347
347.322
347.297
347.271
347.246
347.22
347.194
347.167
347.141
347.114
347.087
347.06
347.033
347.005
346.977
346.949
346.921
346.893
346.865
346.836
346.807
346.778
346.749
346.72
346.69
346.661
346.631
346.601
346.571
346.541
346.51
346.48
346.449
346.418
346.388
346.356
346.325
346.294
346.263
346.231
346.2
346.168
346.136
346.104
346.072
346.04
346.008
345.975
345.943
345.91
345.878
345.845
345.812
345.779
345.746
345.713
345.68
345.647
345.613
345.58
345.547
345.513
345.479
345.446
345.412
345.378
345.344
345.31
345.276
345.242
345.208
345.174
345.139
345.105
345.071
345.036
345.002
344.967
344.932
344.898
344.863
344.828
344.793
344.758
344.723
344.688
344.653
344.618
344.583
344.548
344.513
344.478
344.442
344.407
344.372
344.336
344.301
344.265
344.23
344.194
344.159
344.123
344.087
344.052
344.016
343.98
343.944
343.909
343.873
343.837
343.801
343.765
343.729
343.693
343.657
343.621
343.585
343.549
343.512
343.476
343.44
343.404
343.368
343.331
343.295
343.259
343.222
343.186
343.15
343.113
343.077
343.04
343.004
342.967
342.931
342.894
342.858
342.821
342.785
342.748
342.711
342.675
342.638
342.602
342.565
342.528
342.491
342.455
342.418
342.381
342.344
342.308
342.271
342.234
342.197
342.16
342.123
342.086
342.049
342.013
341.976
341.939
341.902
341.865
341.828
341.791
341.754
341.717
341.68
341.643
341.606
341.569
341.532
341.494
341.457
341.42
341.383
341.346
341.309
341.272
341.235
341.197
341.16
341.123
341.086
341.049
341.011
340.974
340.937
340.9
340.863
340.825
340.788
340.751
340.713
340.676
340.639
340.602
340.564
340.527
340.49
340.452
340.415
340.378
340.34
340.303
340.266
340.228
340.191
340.154
340.116
340.079
340.041
340.004
339.967
339.929
339.892
339.854
339.817
339.78
339.742
339.705
339.667
339.63
339.592
339.555
339.517
339.48
339.442
339.405
339.367
339.33
339.292
339.255
339.217
339.18
339.142
339.105
339.067
339.03
338.992
338.955
338.917
338.88
338.842
338.805
338.767
338.73
338.692
338.655
338.617
338.579
338.542
338.504
338.467
338.429
338.392
338.354
338.316
338.279
338.241
338.204
338.166
338.129
338.091
338.053
338.016
337.978
337.941
337.903
337.865
337.828
337.79
337.753
337.715
337.677
337.64
337.602
337.564
337.527
337.489
337.452
337.414
337.376
337.339
337.301
337.263
337.226
337.188
337.151
337.113
337.075
337.038
337
336.962
336.925
336.887
336.849
336.812
336.774
336.736
336.699
336.661
336.623
336.586
336.548
336.51
336.473
336.435
336.397
336.36
336.322
336.284
336.247
336.209
336.171
336.134
336.096
336.058
336.021
335.983
335.945
335.908
335.87
335.832
335.795
335.757
335.719
335.682
335.644
335.606
335.569
335.531
335.493
335.456
335.418
335.38
335.343
335.305
335.267
335.23
335.192
335.154
335.117
335.079
335.041
335.004
334.966
334.928
334.891
334.853
334.815
334.778
334.74
334.702
334.665
334.627
334.589
334.551
334.514
334.476
334.438
334.401
334.363
334.325
334.288
334.25
334.212
334.175
334.137
334.099
334.062
334.024
333.986
333.949
333.911
333.873
333.836
333.798
333.76
333.723
333.685
333.647
333.61
333.572
333.534
333.497
333.459
333.421
333.384
333.346
333.308
333.271
333.233
333.195
333.158
333.12
333.082
333.045
333.007
332.969
332.932
332.894
332.856
332.819
332.781
332.743
332.706
332.668
332.63
332.593
332.555
332.518
332.48
332.442
332.405
332.367
332.329
332.292
332.254
332.216
332.179
332.141
332.103
332.066
332.028
331.991
331.953
331.915
331.878
331.84
331.802
331.765
331.727
331.689
331.652
331.614
331.577
331.539
331.501
331.464
331.426
331.388
331.351
331.313
331.276
331.238
331.2
331.163
331.125
331.087
331.05
331.012
330.975
330.937
330.899
330.862
330.824
330.787
330.749
330.711
330.674
330.636
330.599
330.561
330.523
330.486
330.448
330.411
330.373
330.335
330.298
330.26
330.223
330.185
330.147
330.11
330.072
330.035
329.997
329.96
329.922
329.884
329.847
329.809
329.772
329.734
329.697
329.659
329.621
329.584
329.546
329.509
329.471
329.434
329.396
329.358
329.321
329.283
329.246
329.208
329.171
329.133
329.096
329.058
329.02
328.983
328.945
328.908
328.87
328.833
328.795
328.758
328.72
328.683
328.645
328.608
328.57
328.532
328.495
328.457
328.42
328.382
328.345
328.307
328.27
328.232
328.195
328.157
328.12
328.082
328.045
328.007
327.97
327.932
327.895
327.857
327.82
327.782
327.745
327.707
327.67
327.632
327.595
327.557
327.52
327.482
327.445
327.407
327.37
327.332
327.295
327.257
327.22
327.182
327.145
327.107
327.07
327.033
326.995
326.958
326.92
326.883
326.845
326.808
326.77
326.733
326.695
326.658
326.621
326.583
326.546
326.508
326.471
326.433
326.396
326.358
326.321
326.284
326.246
326.209
326.171
326.134
326.096
326.059
326.022
325.984
325.947
325.909
325.872
325.834
325.797
325.76
325.722
325.685
325.647
325.61
325.573
325.535
325.498
325.46
325.423
325.386
325.348
325.311
325.273
325.236
325.199
325.161
325.124
325.086
325.049
325.012
324.974
324.937
324.9
324.862
324.825
324.787
324.75
324.713
324.675
324.638
324.601
324.563
324.526
324.489
324.451
324.414
324.376
324.339
324.302
324.264
324.227
324.19
324.152
324.115
324.078
324.04
324.003
323.966
323.928
323.891
323.854
323.816
323.779
323.742
323.704
323.667
323.63
323.593
323.555
323.518
323.481
323.443
323.406
323.369
323.331
323.294
323.257
323.219
323.182
323.145
323.108
323.07
323.033
322.996
322.958
322.921
322.884
322.847
322.809
322.772
322.735
322.698
322.66
322.623
322.586
322.548
322.511
322.474
322.437
322.399
322.362
322.325
322.288
322.25
322.213
322.176
322.139
322.101
322.064
322.027
321.99
321.952
321.915
321.878
321.841
321.804
321.766
321.729
321.692
321.655
321.617
321.58
321.543
321.506
321.469
321.431
321.394
321.357
321.32
321.283
321.245
321.208
321.171
321.134
321.097
321.059
321.022
320.985
320.948
320.911
320.874
320.836
320.799
320.762
320.725
320.688
320.65
320.613
320.576
320.539
320.502
320.465
320.428
320.39
320.353
320.316
320.279
320.242
320.205
320.167
320.13
320.093
320.056
320.019
319.982
319.945
319.908
319.87
319.833
319.796
319.759
319.722
319.685
319.648
319.611
319.573
319.536
319.499
319.462
319.425
319.388
319.351
319.314
319.277
319.239
319.202
319.165
319.128
319.091
319.054
319.017
318.98
318.943
318.906
318.869
318.832
318.795
318.757
318.72
318.683
318.646
318.609
318.572
318.535
318.498
318.461
318.424
318.387
318.35
318.313
318.276
318.239
318.202
318.165
318.128
318.09
318.053
318.016
317.979
317.942
317.905
317.868
317.831
317.794
317.757
317.72
317.683
317.646
317.609
317.572
317.535
317.498
317.461
317.424
317.387
317.35
317.313
317.276
317.239
317.202
317.165
317.128
317.091
317.054
317.017
316.98
316.943
316.906
316.869
316.832
316.795
316.759
316.722
316.685
316.648
316.611
316.574
316.537
316.5
316.463
316.426
316.389
316.352
316.315
316.278
316.241
316.204
316.167
316.13
316.094
316.057
316.02
315.983
315.946
315.909
315.872
315.835
315.798
315.761
315.724
315.687
315.651
315.614
315.577
315.54
315.503
315.466
315.429
315.392
315.355
315.318
315.282
315.245
315.208
315.171
315.134
315.097
315.06
315.023
314.987
314.95
314.913
314.876
314.839
314.802
314.765
314.729
314.692
314.655
314.618
314.581
314.544
314.507
314.471
314.434
314.397
314.36
314.323
314.286
314.25
314.213
314.176
314.139
314.102
314.066
314.029
313.992
313.955
313.918
313.881
313.845
313.808
313.771
313.734
313.697
313.661
313.624
313.587
313.55
313.514
313.477
313.44
313.403
313.366
313.33
313.293
313.256
313.219
313.183
313.146
313.109
313.072
313.035
312.999
312.962
312.925
312.888
312.852
312.815
312.778
312.741
312.705
312.668
312.631
312.594
312.558
312.521
312.484
312.448
312.411
312.374
312.337
312.301
312.264
312.227
312.191
312.154
312.117
312.08
312.044
312.007
311.97
311.934
311.897
311.86
311.824
311.787
311.75
311.713
311.677
311.64
311.603
311.567
311.53
311.493
311.457
311.42
311.383
311.347
311.31
311.273
311.237
311.2
311.163
311.127
311.09
311.053
311.017
310.98
310.943
310.907
310.87
310.834
310.797
310.76
310.724
310.687
310.65
310.614
310.577
310.541
310.504
310.467
310.431
310.394
310.357
310.321
310.284
310.248
310.211
310.174
310.138
310.101
310.065
310.028
309.991
309.955
309.918
309.882
309.845
309.809
309.772
309.735
309.699
309.662
309.626
309.589
309.553
309.516
309.479
309.443
309.406
309.37
309.333
309.297
309.26
309.224
309.187
309.151
309.114
309.077
309.041
309.004
308.968
308.931
308.895
308.858
308.822
308.785
308.749
308.712
308.676
308.639
308.603
308.566
308.53
308.493
308.457
308.42
308.384
308.347
308.311
308.274
308.238
308.201
308.165
308.128
308.092
308.055
308.019
307.982
307.946
307.909
307.873
307.836
307.8
307.763
307.727
307.691
307.654
307.618
307.581
307.545
307.508
307.472
307.435
307.399
307.363
307.326
307.29
307.253
307.217
307.18
307.144
307.108
307.071
307.035
306.998
306.962
306.925
306.889
306.853
306.816
306.78
306.743
306.707
306.671
306.634
306.598
306.561
306.525
306.489
306.452
306.416
306.379
306.343
306.307
306.27
306.234
306.198
306.161
306.125
306.088
306.052
306.016
305.979
305.943
305.907
305.87
305.834
305.798
305.761
305.725
305.689
305.652
305.616
305.58
305.543
305.507
305.471
305.434
305.398
305.362
305.325
305.289
305.253
305.216
305.18
305.144
305.107
305.071
305.035
304.998
304.962
304.926
304.89
304.853
304.817
304.781
304.744
304.708
304.672
304.636
304.599
304.563
304.527
304.49
304.454
304.418
304.382
304.345
304.309
304.273
304.237
304.2
304.164
304.128
304.092
304.055
304.019
303.983
303.947
303.91
303.874
303.838
303.802
303.765
303.729
303.693
303.657
303.621
303.584
303.548
303.512
303.476
303.44
303.403
303.367
303.331
303.295
303.258
303.222
303.186
303.15
303.114
303.078
303.041
303.005
302.969
302.933
302.897
302.86
302.824
302.788
302.752
302.716
302.68
302.643
302.607
302.571
302.535
302.499
302.463
302.426
302.39
302.354
302.318
302.282
302.246
302.21
302.173
302.137
302.101
302.065
302.029
301.993
301.957
301.921
301.884
301.848
301.812
301.776
301.74
301.704
301.668
301.632
301.596
301.559
301.523
301.487
301.451
301.415
301.379
301.343
301.307
301.271
301.235
301.199
301.163
301.126
301.09
301.054
301.018
300.982
300.946
300.91
300.874
300.838
300.802
300.766
300.73
300.694
300.658
300.622
300.586
300.55
300.514
300.477
300.441
300.405
300.369
300.333
300.297
300.261
300.225
300.189
300.153
300.117
300.081
300.045
300.009
299.973
299.937
299.901
299.865
299.829
299.793
299.757
299.721
299.685
299.649
299.613
299.577
299.541
299.505
299.469
299.433
299.397
299.361
299.325
299.29
299.254
299.218
299.182
299.146
299.11
299.074
299.038
299.002
298.966
298.93
298.894
298.858
298.822
298.786
298.75
298.714
298.678
298.643
298.607
298.571
298.535
298.499
298.463
298.427
298.391
298.355
298.319
298.283
298.247
298.212
298.176
298.14
298.104
298.068
298.032
297.996
297.96
297.924
297.889
297.853
297.817
297.781
297.745
297.709
297.673
297.637
297.602
297.566
297.53
297.494
297.458
297.422
297.386
297.351
297.315
297.279
297.243
297.207
297.171
297.136
297.1
297.064
297.028
296.992
296.956
296.921
296.885
296.849
296.813
296.777
296.742
296.706
296.67
296.634
296.598
296.562
296.527
296.491
296.455
296.419
296.384
296.348
296.312
296.276
296.24
296.205
296.169
296.133
296.097
296.062
296.026
295.99
295.954
295.918
295.883
295.847
295.811
295.775
295.74
295.704
295.668
295.632
295.597
295.561
295.525
295.489
295.454
295.418
295.382
295.347
295.311
295.275
295.239
295.204
295.168
295.132
295.097
295.061
295.025
294.989
294.954
294.918
294.882
294.847
294.811
294.775
294.74
294.704
294.668
294.632
294.597
294.561
294.525
294.49
294.454
294.418
294.383
294.347
294.311
294.276
294.24
294.204
294.169
294.133
294.097
294.062
294.026
293.991
293.955
293.919
293.884
293.848
293.812
293.777
293.741
293.705
293.67
293.634
293.599
293.563
293.527
293.492
293.456
293.421
293.385
293.349
293.314
293.278
293.242
293.207
293.171
293.136
293.1
293.065
293.029
292.993
292.958
292.922
292.887
292.851
292.815
292.78
292.744
292.709
292.673
292.638
292.602
292.567
292.531
292.495
292.46
292.424
292.389
292.353
292.318
292.282
292.247
292.211
292.176
292.14
292.104
292.069
292.033
291.998
291.962
291.927
291.891
291.856
291.82
291.785
291.749
291.714
291.678
291.643
291.607
291.572
291.536
291.501
291.465
291.43
291.394
291.359
291.323
291.288
291.252
291.217
291.181
291.146
291.111
291.075
291.04
291.004
290.969
290.933
290.898
290.862
290.827
290.791
290.756
290.721
290.685
290.65
290.614
290.579
290.543
290.508
290.472
290.437
290.402
290.366
290.331
290.295
290.26
290.225
290.189
290.154
290.118
290.083
290.048
290.012
289.977
289.941
289.906
289.871
289.835
289.8
289.764
289.729
289.694
289.658
289.623
289.587
289.552
289.517
289.481
289.446
289.411
289.375
289.34
289.305
289.269
289.234
289.199
289.163
289.128
289.092
289.057
289.022
288.986
288.951
288.916
288.88
288.845
288.81
288.775
288.739
288.704
288.668
288.634
288.597
288.563
288.527
288.493
288.456
288.422
288.385
288.352
288.314
288.282
288.243
288.212
288.172
288.142
288.1
288.072
288.029
288.002
287.958
287.932
287.887
287.862
287.816
287.792
287.746
287.721
287.675
287.65
287.605
287.579
287.535
287.508
287.465
287.437
287.396
287.366
287.326
287.294
287.256
287.223
287.187
287.152
287.117
287.082
287.046
287.011
286.976
286.941
286.906
286.87
286.835
286.8
286.765
286.729
286.694
286.659
286.624
286.589
286.554
286.518
286.483
286.448
286.413
286.378
286.342
286.307
286.272
286.237
286.202
286.167
286.131
286.096
286.061
286.026
285.991
285.956