/*--------------------------------*- C++ -*----------------------------------*\
  =========                 |
  \\      /  F ield         | OpenFOAM: The Open Source CFD Toolbox
   \\    /   O peration     | Website:  https://openfoam.org
    \\  /    A nd           | Version:  9
     \\/     M anipulation  |
\*---------------------------------------------------------------------------*/
FoamFile
{
    format      ascii;
    class       volVectorField;
    location    "0.001";
    object      U;
}
// * * * * * * * * * * * * * * * * * * * * * * * * * * * * * * * * * * * * * //

dimensions      [0 1 -1 0 0 0 0];

internalField   nonuniform List<vector> 
100
(
(4.79466e-23 0 0)
(5.59696e-23 0 0)
(5.51679e-23 0 0)
(-1.44524e-22 0 0)
(-4.15116e-22 0 0)
(1.15682e-21 0 0)
(4.93026e-21 0 0)
(-3.21276e-21 0 0)
(-3.10696e-20 0 0)
(-5.78895e-21 0 0)
(8.73507e-20 0 0)
(3.28693e-23 0 0)
(-8.72797e-20 0 0)
(5.87104e-21 0 0)
(3.10435e-20 0 0)
(2.68394e-21 0 0)
(-4.24168e-21 0 0)
(1.22523e-20 0 0)
(1.98293e-20 0 0)
(-1.71527e-19 0 0)
(-6.25134e-19 0 0)
(9.67178e-19 0 0)
(6.68452e-18 0 0)
(-2.32276e-17 0 0)
(5.15807e-17 0 0)
(-9.48119e-17 0 0)
(1.56394e-16 0 0)
(-2.40457e-16 0 0)
(3.52105e-16 0 0)
(-5.20744e-16 0 0)
(7.58179e-16 0 0)
(-1.07857e-15 0 0)
(1.49653e-15 0 0)
(-2.02424e-15 0 0)
(2.66837e-15 0 0)
(-3.42678e-15 0 0)
(4.28539e-15 0 0)
(-5.2156e-15 0 0)
(6.17284e-15 0 0)
(-7.09706e-15 0 0)
(7.91511e-15 0 0)
(-8.5448e-15 0 0)
(8.9027e-15 0 0)
(-8.94469e-15 0 0)
(8.56953e-15 0 0)
(-7.77811e-15 0 0)
(6.57399e-15 0 0)
(-4.99778e-15 0 0)
(3.12598e-15 0 0)
(-1.06397e-15 0 0)
(-1.06375e-15 0 0)
(3.12588e-15 0 0)
(-4.99785e-15 0 0)
(6.57412e-15 0 0)
(-7.77819e-15 0 0)
(8.56956e-15 0 0)
(-8.94469e-15 0 0)
(8.9027e-15 0 0)
(-8.5448e-15 0 0)
(7.91511e-15 0 0)
(-7.09705e-15 0 0)
(6.17283e-15 0 0)
(-5.2156e-15 0 0)
(4.28539e-15 0 0)
(-3.42677e-15 0 0)
(2.66836e-15 0 0)
(-2.02424e-15 0 0)
(1.49653e-15 0 0)
(-1.07857e-15 0 0)
(7.58173e-16 0 0)
(-5.20738e-16 0 0)
(3.52097e-16 0 0)
(-2.40449e-16 0 0)
(1.56387e-16 0 0)
(-9.48053e-17 0 0)
(5.15748e-17 0 0)
(-2.32228e-17 0 0)
(6.68095e-18 0 0)
(9.68956e-19 0 0)
(-6.24182e-19 0 0)
(-1.71724e-19 0 0)
(1.93084e-20 0 0)
(1.33628e-20 0 0)
(6.57518e-22 0 0)
(-5.61142e-22 0 0)
(-6.001e-23 0 0)
(4.88278e-23 0 0)
(3.81002e-23 0 0)
(3.28071e-23 0 0)
(3.28594e-23 0 0)
(3.31661e-23 0 0)
(3.32257e-23 0 0)
(3.31495e-23 0 0)
(3.2946e-23 0 0)
(3.27418e-23 0 0)
(3.27214e-23 0 0)
(3.28711e-23 0 0)
(3.30652e-23 0 0)
(3.31337e-23 0 0)
(3.301e-23 0 0)
)
;

boundaryField
{
    inlet
    {
        type            zeroGradient;
    }
    outlet
    {
        type            zeroGradient;
    }
    lowerWall
    {
        type            empty;
    }
    upperWall
    {
        type            empty;
    }
    frontAndBack
    {
        type            empty;
    }
}


// ************************************************************************* //
