/*--------------------------------*- C++ -*----------------------------------*\
  =========                 |
  \\      /  F ield         | OpenFOAM: The Open Source CFD Toolbox
   \\    /   O peration     | Website:  https://openfoam.org
    \\  /    A nd           | Version:  9
     \\/     M anipulation  |
\*---------------------------------------------------------------------------*/
FoamFile
{
    format      ascii;
    class       volScalarField;
    location    "0.001";
    object      Ux;
}
// * * * * * * * * * * * * * * * * * * * * * * * * * * * * * * * * * * * * * //

dimensions      [0 1 -1 0 0 0 0];

internalField   nonuniform List<scalar> 
100
(
4.79466e-23
5.59696e-23
5.51679e-23
-1.44524e-22
-4.15116e-22
1.15682e-21
4.93026e-21
-3.21276e-21
-3.10696e-20
-5.78895e-21
8.73507e-20
3.28693e-23
-8.72797e-20
5.87104e-21
3.10435e-20
2.68394e-21
-4.24168e-21
1.22523e-20
1.98293e-20
-1.71527e-19
-6.25134e-19
9.67178e-19
6.68452e-18
-2.32276e-17
5.15807e-17
-9.48119e-17
1.56394e-16
-2.40457e-16
3.52105e-16
-5.20744e-16
7.58179e-16
-1.07857e-15
1.49653e-15
-2.02424e-15
2.66837e-15
-3.42678e-15
4.28539e-15
-5.2156e-15
6.17284e-15
-7.09706e-15
7.91511e-15
-8.5448e-15
8.9027e-15
-8.94469e-15
8.56953e-15
-7.77811e-15
6.57399e-15
-4.99778e-15
3.12598e-15
-1.06397e-15
-1.06375e-15
3.12588e-15
-4.99785e-15
6.57412e-15
-7.77819e-15
8.56956e-15
-8.94469e-15
8.9027e-15
-8.5448e-15
7.91511e-15
-7.09705e-15
6.17283e-15
-5.2156e-15
4.28539e-15
-3.42677e-15
2.66836e-15
-2.02424e-15
1.49653e-15
-1.07857e-15
7.58173e-16
-5.20738e-16
3.52097e-16
-2.40449e-16
1.56387e-16
-9.48053e-17
5.15748e-17
-2.32228e-17
6.68095e-18
9.68956e-19
-6.24182e-19
-1.71724e-19
1.93084e-20
1.33628e-20
6.57518e-22
-5.61142e-22
-6.001e-23
4.88278e-23
3.81002e-23
3.28071e-23
3.28594e-23
3.31661e-23
3.32257e-23
3.31495e-23
3.2946e-23
3.27418e-23
3.27214e-23
3.28711e-23
3.30652e-23
3.31337e-23
3.301e-23
)
;

boundaryField
{
    inlet
    {
        type            calculated;
        value           uniform 4.79466e-23;
    }
    outlet
    {
        type            calculated;
        value           uniform 3.301e-23;
    }
    lowerWall
    {
        type            empty;
    }
    upperWall
    {
        type            empty;
    }
    frontAndBack
    {
        type            empty;
    }
}


// ************************************************************************* //
