/*--------------------------------*- C++ -*----------------------------------*\
  =========                 |
  \\      /  F ield         | OpenFOAM: The Open Source CFD Toolbox
   \\    /   O peration     | Website:  https://openfoam.org
    \\  /    A nd           | Version:  9
     \\/     M anipulation  |
\*---------------------------------------------------------------------------*/
FoamFile
{
    format      ascii;
    class       volVectorField;
    location    "0.034";
    object      U;
}
// * * * * * * * * * * * * * * * * * * * * * * * * * * * * * * * * * * * * * //

dimensions      [0 1 -1 0 0 0 0];

internalField   nonuniform List<vector> 
10000
(
(2.38722 0 0)
(2.43526 0 0)
(2.49171 0 0)
(2.53081 0 0)
(2.56668 0 0)
(2.60396 0 0)
(2.643 0 0)
(2.6831 0 0)
(2.72341 0 0)
(2.76374 0 0)
(2.80327 0 0)
(2.84219 0 0)
(2.88119 0 0)
(2.92045 0 0)
(2.95994 0 0)
(2.99949 0 0)
(3.03897 0 0)
(3.07819 0 0)
(3.11736 0 0)
(3.15652 0 0)
(3.19569 0 0)
(3.23483 0 0)
(3.27393 0 0)
(3.31295 0 0)
(3.35192 0 0)
(3.39083 0 0)
(3.42969 0 0)
(3.4685 0 0)
(3.50725 0 0)
(3.54597 0 0)
(3.58463 0 0)
(3.62324 0 0)
(3.6618 0 0)
(3.70029 0 0)
(3.73872 0 0)
(3.7771 0 0)
(3.81543 0 0)
(3.8537 0 0)
(3.8919 0 0)
(3.93004 0 0)
(3.96811 0 0)
(4.00613 0 0)
(4.0441 0 0)
(4.08202 0 0)
(4.11987 0 0)
(4.15768 0 0)
(4.19543 0 0)
(4.23313 0 0)
(4.27079 0 0)
(4.3084 0 0)
(4.34598 0 0)
(4.38351 0 0)
(4.42099 0 0)
(4.45844 0 0)
(4.49585 0 0)
(4.53323 0 0)
(4.57058 0 0)
(4.6079 0 0)
(4.64519 0 0)
(4.68245 0 0)
(4.7197 0 0)
(4.75692 0 0)
(4.79412 0 0)
(4.83131 0 0)
(4.86848 0 0)
(4.90564 0 0)
(4.9428 0 0)
(4.97995 0 0)
(5.0171 0 0)
(5.05424 0 0)
(5.09139 0 0)
(5.12855 0 0)
(5.16571 0 0)
(5.20288 0 0)
(5.24006 0 0)
(5.27726 0 0)
(5.31448 0 0)
(5.35172 0 0)
(5.38898 0 0)
(5.42627 0 0)
(5.46359 0 0)
(5.50093 0 0)
(5.53829 0 0)
(5.57568 0 0)
(5.61311 0 0)
(5.65059 0 0)
(5.68811 0 0)
(5.72567 0 0)
(5.76327 0 0)
(5.80091 0 0)
(5.8386 0 0)
(5.87635 0 0)
(5.91414 0 0)
(5.95198 0 0)
(5.98987 0 0)
(6.02782 0 0)
(6.06582 0 0)
(6.10388 0 0)
(6.14199 0 0)
(6.18016 0 0)
(6.21839 0 0)
(6.25668 0 0)
(6.29502 0 0)
(6.33342 0 0)
(6.37188 0 0)
(6.4104 0 0)
(6.44897 0 0)
(6.48761 0 0)
(6.5263 0 0)
(6.56505 0 0)
(6.60385 0 0)
(6.64271 0 0)
(6.68163 0 0)
(6.72059 0 0)
(6.75961 0 0)
(6.79867 0 0)
(6.83779 0 0)
(6.87695 0 0)
(6.91617 0 0)
(6.95543 0 0)
(6.99473 0 0)
(7.03406 0 0)
(7.07343 0 0)
(7.11284 0 0)
(7.15229 0 0)
(7.19178 0 0)
(7.2313 0 0)
(7.27083 0 0)
(7.31039 0 0)
(7.34998 0 0)
(7.38959 0 0)
(7.42921 0 0)
(7.46885 0 0)
(7.5085 0 0)
(7.54816 0 0)
(7.58783 0 0)
(7.62751 0 0)
(7.66718 0 0)
(7.70686 0 0)
(7.74653 0 0)
(7.7862 0 0)
(7.82586 0 0)
(7.86551 0 0)
(7.90514 0 0)
(7.94476 0 0)
(7.98435 0 0)
(8.02393 0 0)
(8.06349 0 0)
(8.10302 0 0)
(8.14252 0 0)
(8.18198 0 0)
(8.22141 0 0)
(8.26082 0 0)
(8.30018 0 0)
(8.33951 0 0)
(8.3788 0 0)
(8.41804 0 0)
(8.45724 0 0)
(8.4964 0 0)
(8.53551 0 0)
(8.57457 0 0)
(8.61359 0 0)
(8.65255 0 0)
(8.69146 0 0)
(8.73032 0 0)
(8.76912 0 0)
(8.80787 0 0)
(8.84657 0 0)
(8.88521 0 0)
(8.92379 0 0)
(8.96233 0 0)
(9.0008 0 0)
(9.03922 0 0)
(9.07757 0 0)
(9.11587 0 0)
(9.15411 0 0)
(9.1923 0 0)
(9.23044 0 0)
(9.26853 0 0)
(9.30656 0 0)
(9.34454 0 0)
(9.38247 0 0)
(9.42034 0 0)
(9.45815 0 0)
(9.49592 0 0)
(9.53364 0 0)
(9.57133 0 0)
(9.60897 0 0)
(9.64657 0 0)
(9.68413 0 0)
(9.72165 0 0)
(9.75912 0 0)
(9.79656 0 0)
(9.83397 0 0)
(9.87135 0 0)
(9.9087 0 0)
(9.94603 0 0)
(9.98332 0 0)
(10.0206 0 0)
(10.0579 0 0)
(10.0951 0 0)
(10.1323 0 0)
(10.1695 0 0)
(10.2067 0 0)
(10.2439 0 0)
(10.2811 0 0)
(10.3183 0 0)
(10.3554 0 0)
(10.3926 0 0)
(10.4298 0 0)
(10.467 0 0)
(10.5042 0 0)
(10.5414 0 0)
(10.5786 0 0)
(10.6159 0 0)
(10.6531 0 0)
(10.6904 0 0)
(10.7277 0 0)
(10.7651 0 0)
(10.8024 0 0)
(10.8398 0 0)
(10.8772 0 0)
(10.9147 0 0)
(10.9522 0 0)
(10.9897 0 0)
(11.0273 0 0)
(11.0649 0 0)
(11.1026 0 0)
(11.1403 0 0)
(11.178 0 0)
(11.2158 0 0)
(11.2537 0 0)
(11.2916 0 0)
(11.3295 0 0)
(11.3675 0 0)
(11.4056 0 0)
(11.4437 0 0)
(11.4819 0 0)
(11.5201 0 0)
(11.5584 0 0)
(11.5967 0 0)
(11.6351 0 0)
(11.6736 0 0)
(11.7121 0 0)
(11.7507 0 0)
(11.7893 0 0)
(11.828 0 0)
(11.8667 0 0)
(11.9055 0 0)
(11.9444 0 0)
(11.9833 0 0)
(12.0223 0 0)
(12.0613 0 0)
(12.1004 0 0)
(12.1395 0 0)
(12.1786 0 0)
(12.2179 0 0)
(12.2571 0 0)
(12.2964 0 0)
(12.3357 0 0)
(12.3751 0 0)
(12.4145 0 0)
(12.454 0 0)
(12.4935 0 0)
(12.533 0 0)
(12.5725 0 0)
(12.6121 0 0)
(12.6517 0 0)
(12.6913 0 0)
(12.7309 0 0)
(12.7706 0 0)
(12.8102 0 0)
(12.8499 0 0)
(12.8896 0 0)
(12.9293 0 0)
(12.9689 0 0)
(13.0086 0 0)
(13.0483 0 0)
(13.088 0 0)
(13.1277 0 0)
(13.1673 0 0)
(13.207 0 0)
(13.2466 0 0)
(13.2862 0 0)
(13.3258 0 0)
(13.3654 0 0)
(13.4049 0 0)
(13.4445 0 0)
(13.484 0 0)
(13.5234 0 0)
(13.5628 0 0)
(13.6022 0 0)
(13.6416 0 0)
(13.6809 0 0)
(13.7202 0 0)
(13.7594 0 0)
(13.7986 0 0)
(13.8378 0 0)
(13.8769 0 0)
(13.916 0 0)
(13.955 0 0)
(13.9939 0 0)
(14.0328 0 0)
(14.0717 0 0)
(14.1105 0 0)
(14.1492 0 0)
(14.1879 0 0)
(14.2266 0 0)
(14.2652 0 0)
(14.3038 0 0)
(14.3422 0 0)
(14.3807 0 0)
(14.4191 0 0)
(14.4574 0 0)
(14.4956 0 0)
(14.5339 0 0)
(14.572 0 0)
(14.6101 0 0)
(14.6482 0 0)
(14.6862 0 0)
(14.7242 0 0)
(14.7621 0 0)
(14.8 0 0)
(14.8378 0 0)
(14.8756 0 0)
(14.9133 0 0)
(14.951 0 0)
(14.9886 0 0)
(15.0262 0 0)
(15.0638 0 0)
(15.1013 0 0)
(15.1388 0 0)
(15.1763 0 0)
(15.2137 0 0)
(15.2511 0 0)
(15.2885 0 0)
(15.3258 0 0)
(15.3632 0 0)
(15.4005 0 0)
(15.4378 0 0)
(15.475 0 0)
(15.5123 0 0)
(15.5495 0 0)
(15.5868 0 0)
(15.624 0 0)
(15.6612 0 0)
(15.6984 0 0)
(15.7356 0 0)
(15.7729 0 0)
(15.8101 0 0)
(15.8473 0 0)
(15.8846 0 0)
(15.9218 0 0)
(15.9591 0 0)
(15.9964 0 0)
(16.0336 0 0)
(16.0709 0 0)
(16.1083 0 0)
(16.1456 0 0)
(16.183 0 0)
(16.2204 0 0)
(16.2578 0 0)
(16.2953 0 0)
(16.3328 0 0)
(16.3703 0 0)
(16.4079 0 0)
(16.4455 0 0)
(16.4831 0 0)
(16.5208 0 0)
(16.5585 0 0)
(16.5963 0 0)
(16.6341 0 0)
(16.672 0 0)
(16.7099 0 0)
(16.7478 0 0)
(16.7859 0 0)
(16.8239 0 0)
(16.862 0 0)
(16.9002 0 0)
(16.9384 0 0)
(16.9767 0 0)
(17.015 0 0)
(17.0534 0 0)
(17.0918 0 0)
(17.1303 0 0)
(17.1688 0 0)
(17.2074 0 0)
(17.2461 0 0)
(17.2848 0 0)
(17.3235 0 0)
(17.3623 0 0)
(17.4012 0 0)
(17.4401 0 0)
(17.4791 0 0)
(17.5181 0 0)
(17.5571 0 0)
(17.5962 0 0)
(17.6354 0 0)
(17.6746 0 0)
(17.7138 0 0)
(17.7531 0 0)
(17.7924 0 0)
(17.8317 0 0)
(17.8711 0 0)
(17.9105 0 0)
(17.9499 0 0)
(17.9894 0 0)
(18.0289 0 0)
(18.0684 0 0)
(18.108 0 0)
(18.1475 0 0)
(18.1871 0 0)
(18.2267 0 0)
(18.2663 0 0)
(18.3059 0 0)
(18.3455 0 0)
(18.3851 0 0)
(18.4248 0 0)
(18.4644 0 0)
(18.504 0 0)
(18.5436 0 0)
(18.5832 0 0)
(18.6229 0 0)
(18.6624 0 0)
(18.702 0 0)
(18.7416 0 0)
(18.7811 0 0)
(18.8207 0 0)
(18.8602 0 0)
(18.8997 0 0)
(18.9391 0 0)
(18.9786 0 0)
(19.018 0 0)
(19.0574 0 0)
(19.0967 0 0)
(19.136 0 0)
(19.1753 0 0)
(19.2146 0 0)
(19.2538 0 0)
(19.293 0 0)
(19.3321 0 0)
(19.3712 0 0)
(19.4103 0 0)
(19.4493 0 0)
(19.4883 0 0)
(19.5272 0 0)
(19.5661 0 0)
(19.6049 0 0)
(19.6437 0 0)
(19.6825 0 0)
(19.7212 0 0)
(19.7599 0 0)
(19.7985 0 0)
(19.837 0 0)
(19.8756 0 0)
(19.9141 0 0)
(19.9525 0 0)
(19.9909 0 0)
(20.0292 0 0)
(20.0676 0 0)
(20.1058 0 0)
(20.144 0 0)
(20.1822 0 0)
(20.2203 0 0)
(20.2584 0 0)
(20.2964 0 0)
(20.3344 0 0)
(20.3724 0 0)
(20.4103 0 0)
(20.4482 0 0)
(20.4861 0 0)
(20.5239 0 0)
(20.5617 0 0)
(20.5994 0 0)
(20.6371 0 0)
(20.6748 0 0)
(20.7124 0 0)
(20.75 0 0)
(20.7876 0 0)
(20.8252 0 0)
(20.8627 0 0)
(20.9003 0 0)
(20.9378 0 0)
(20.9752 0 0)
(21.0127 0 0)
(21.0501 0 0)
(21.0876 0 0)
(21.125 0 0)
(21.1624 0 0)
(21.1999 0 0)
(21.2373 0 0)
(21.2747 0 0)
(21.3121 0 0)
(21.3495 0 0)
(21.3869 0 0)
(21.4243 0 0)
(21.4617 0 0)
(21.4991 0 0)
(21.5365 0 0)
(21.5739 0 0)
(21.6113 0 0)
(21.6487 0 0)
(21.6862 0 0)
(21.7237 0 0)
(21.7611 0 0)
(21.7986 0 0)
(21.8361 0 0)
(21.8737 0 0)
(21.9112 0 0)
(21.9488 0 0)
(21.9864 0 0)
(22.0241 0 0)
(22.0617 0 0)
(22.0994 0 0)
(22.1371 0 0)
(22.1749 0 0)
(22.2126 0 0)
(22.2504 0 0)
(22.2883 0 0)
(22.3262 0 0)
(22.3641 0 0)
(22.402 0 0)
(22.44 0 0)
(22.478 0 0)
(22.5161 0 0)
(22.5542 0 0)
(22.5923 0 0)
(22.6305 0 0)
(22.6687 0 0)
(22.707 0 0)
(22.7453 0 0)
(22.7837 0 0)
(22.8221 0 0)
(22.8605 0 0)
(22.899 0 0)
(22.9375 0 0)
(22.9761 0 0)
(23.0147 0 0)
(23.0534 0 0)
(23.0921 0 0)
(23.1309 0 0)
(23.1697 0 0)
(23.2085 0 0)
(23.2474 0 0)
(23.2863 0 0)
(23.3253 0 0)
(23.3643 0 0)
(23.4034 0 0)
(23.4424 0 0)
(23.4815 0 0)
(23.5206 0 0)
(23.5598 0 0)
(23.599 0 0)
(23.6382 0 0)
(23.6774 0 0)
(23.7167 0 0)
(23.756 0 0)
(23.7953 0 0)
(23.8346 0 0)
(23.874 0 0)
(23.9133 0 0)
(23.9527 0 0)
(23.9921 0 0)
(24.0315 0 0)
(24.071 0 0)
(24.1104 0 0)
(24.1498 0 0)
(24.1893 0 0)
(24.2287 0 0)
(24.2682 0 0)
(24.3077 0 0)
(24.3471 0 0)
(24.3866 0 0)
(24.4261 0 0)
(24.4655 0 0)
(24.5049 0 0)
(24.5444 0 0)
(24.5838 0 0)
(24.6232 0 0)
(24.6626 0 0)
(24.702 0 0)
(24.7414 0 0)
(24.7808 0 0)
(24.8201 0 0)
(24.8594 0 0)
(24.8987 0 0)
(24.938 0 0)
(24.9772 0 0)
(25.0165 0 0)
(25.0557 0 0)
(25.0949 0 0)
(25.134 0 0)
(25.1732 0 0)
(25.2123 0 0)
(25.2514 0 0)
(25.2904 0 0)
(25.3295 0 0)
(25.3685 0 0)
(25.4075 0 0)
(25.4464 0 0)
(25.4853 0 0)
(25.5242 0 0)
(25.563 0 0)
(25.6018 0 0)
(25.6406 0 0)
(25.6793 0 0)
(25.718 0 0)
(25.7567 0 0)
(25.7953 0 0)
(25.8339 0 0)
(25.8725 0 0)
(25.911 0 0)
(25.9494 0 0)
(25.9879 0 0)
(26.0263 0 0)
(26.0647 0 0)
(26.103 0 0)
(26.1413 0 0)
(26.1796 0 0)
(26.2178 0 0)
(26.256 0 0)
(26.2941 0 0)
(26.3322 0 0)
(26.3703 0 0)
(26.4084 0 0)
(26.4464 0 0)
(26.4844 0 0)
(26.5223 0 0)
(26.5602 0 0)
(26.5981 0 0)
(26.6359 0 0)
(26.6738 0 0)
(26.7116 0 0)
(26.7494 0 0)
(26.7871 0 0)
(26.8248 0 0)
(26.8625 0 0)
(26.9002 0 0)
(26.9378 0 0)
(26.9754 0 0)
(27.013 0 0)
(27.0506 0 0)
(27.0882 0 0)
(27.1257 0 0)
(27.1633 0 0)
(27.2008 0 0)
(27.2383 0 0)
(27.2758 0 0)
(27.3133 0 0)
(27.3507 0 0)
(27.3882 0 0)
(27.4256 0 0)
(27.4631 0 0)
(27.5005 0 0)
(27.538 0 0)
(27.5754 0 0)
(27.6128 0 0)
(27.6502 0 0)
(27.6877 0 0)
(27.7251 0 0)
(27.7625 0 0)
(27.7999 0 0)
(27.8374 0 0)
(27.8748 0 0)
(27.9123 0 0)
(27.9497 0 0)
(27.9872 0 0)
(28.0247 0 0)
(28.0622 0 0)
(28.0997 0 0)
(28.1372 0 0)
(28.1748 0 0)
(28.2124 0 0)
(28.25 0 0)
(28.2876 0 0)
(28.3253 0 0)
(28.3629 0 0)
(28.4006 0 0)
(28.4384 0 0)
(28.4761 0 0)
(28.5139 0 0)
(28.5518 0 0)
(28.5897 0 0)
(28.6276 0 0)
(28.6656 0 0)
(28.7036 0 0)
(28.7416 0 0)
(28.7797 0 0)
(28.8178 0 0)
(28.856 0 0)
(28.8942 0 0)
(28.9325 0 0)
(28.9708 0 0)
(29.0092 0 0)
(29.0476 0 0)
(29.0861 0 0)
(29.1246 0 0)
(29.1632 0 0)
(29.2018 0 0)
(29.2405 0 0)
(29.2792 0 0)
(29.318 0 0)
(29.3568 0 0)
(29.3957 0 0)
(29.4346 0 0)
(29.4736 0 0)
(29.5126 0 0)
(29.5516 0 0)
(29.5907 0 0)
(29.6299 0 0)
(29.669 0 0)
(29.7083 0 0)
(29.7475 0 0)
(29.7868 0 0)
(29.8262 0 0)
(29.8655 0 0)
(29.9049 0 0)
(29.9444 0 0)
(29.9838 0 0)
(30.0233 0 0)
(30.0629 0 0)
(30.1024 0 0)
(30.142 0 0)
(30.1816 0 0)
(30.2213 0 0)
(30.2609 0 0)
(30.3006 0 0)
(30.3403 0 0)
(30.38 0 0)
(30.4197 0 0)
(30.4595 0 0)
(30.4992 0 0)
(30.539 0 0)
(30.5787 0 0)
(30.6185 0 0)
(30.6582 0 0)
(30.698 0 0)
(30.7378 0 0)
(30.7775 0 0)
(30.8173 0 0)
(30.857 0 0)
(30.8968 0 0)
(30.9365 0 0)
(30.9762 0 0)
(31.0159 0 0)
(31.0556 0 0)
(31.0953 0 0)
(31.1349 0 0)
(31.1745 0 0)
(31.2141 0 0)
(31.2537 0 0)
(31.2932 0 0)
(31.3328 0 0)
(31.3723 0 0)
(31.4117 0 0)
(31.4511 0 0)
(31.4905 0 0)
(31.5299 0 0)
(31.5692 0 0)
(31.6085 0 0)
(31.6477 0 0)
(31.6869 0 0)
(31.726 0 0)
(31.7651 0 0)
(31.8042 0 0)
(31.8432 0 0)
(31.8822 0 0)
(31.9211 0 0)
(31.9599 0 0)
(31.9987 0 0)
(32.0375 0 0)
(32.0762 0 0)
(32.1148 0 0)
(32.1534 0 0)
(32.1919 0 0)
(32.2304 0 0)
(32.2688 0 0)
(32.3072 0 0)
(32.3455 0 0)
(32.3837 0 0)
(32.4219 0 0)
(32.4601 0 0)
(32.4981 0 0)
(32.5362 0 0)
(32.5741 0 0)
(32.612 0 0)
(32.6499 0 0)
(32.6877 0 0)
(32.7254 0 0)
(32.7631 0 0)
(32.8008 0 0)
(32.8384 0 0)
(32.8759 0 0)
(32.9134 0 0)
(32.9509 0 0)
(32.9883 0 0)
(33.0257 0 0)
(33.063 0 0)
(33.1003 0 0)
(33.1376 0 0)
(33.1748 0 0)
(33.212 0 0)
(33.2492 0 0)
(33.2863 0 0)
(33.3234 0 0)
(33.3605 0 0)
(33.3975 0 0)
(33.4345 0 0)
(33.4715 0 0)
(33.5085 0 0)
(33.5454 0 0)
(33.5824 0 0)
(33.6193 0 0)
(33.6562 0 0)
(33.6931 0 0)
(33.7299 0 0)
(33.7668 0 0)
(33.8037 0 0)
(33.8406 0 0)
(33.8774 0 0)
(33.9143 0 0)
(33.9512 0 0)
(33.9881 0 0)
(34.025 0 0)
(34.0619 0 0)
(34.0989 0 0)
(34.1358 0 0)
(34.1728 0 0)
(34.2098 0 0)
(34.2468 0 0)
(34.2839 0 0)
(34.321 0 0)
(34.3581 0 0)
(34.3952 0 0)
(34.4324 0 0)
(34.4697 0 0)
(34.5069 0 0)
(34.5443 0 0)
(34.5816 0 0)
(34.619 0 0)
(34.6565 0 0)
(34.694 0 0)
(34.7315 0 0)
(34.7691 0 0)
(34.8068 0 0)
(34.8446 0 0)
(34.8824 0 0)
(34.9203 0 0)
(34.9582 0 0)
(34.9962 0 0)
(35.0343 0 0)
(35.0725 0 0)
(35.1108 0 0)
(35.1491 0 0)
(35.1875 0 0)
(35.2259 0 0)
(35.2645 0 0)
(35.3031 0 0)
(35.3418 0 0)
(35.3806 0 0)
(35.4194 0 0)
(35.4583 0 0)
(35.4973 0 0)
(35.5363 0 0)
(35.5755 0 0)
(35.6147 0 0)
(35.6539 0 0)
(35.6933 0 0)
(35.7327 0 0)
(35.7721 0 0)
(35.8117 0 0)
(35.8512 0 0)
(35.8909 0 0)
(35.9306 0 0)
(35.9703 0 0)
(36.0101 0 0)
(36.05 0 0)
(36.0899 0 0)
(36.1298 0 0)
(36.1698 0 0)
(36.2099 0 0)
(36.2499 0 0)
(36.2901 0 0)
(36.3302 0 0)
(36.3704 0 0)
(36.4106 0 0)
(36.4508 0 0)
(36.491 0 0)
(36.5313 0 0)
(36.5716 0 0)
(36.6119 0 0)
(36.6522 0 0)
(36.6925 0 0)
(36.7328 0 0)
(36.7731 0 0)
(36.8134 0 0)
(36.8537 0 0)
(36.894 0 0)
(36.9343 0 0)
(36.9746 0 0)
(37.0149 0 0)
(37.0551 0 0)
(37.0954 0 0)
(37.1356 0 0)
(37.1757 0 0)
(37.2159 0 0)
(37.256 0 0)
(37.2961 0 0)
(37.3361 0 0)
(37.3761 0 0)
(37.4161 0 0)
(37.456 0 0)
(37.4959 0 0)
(37.5358 0 0)
(37.5755 0 0)
(37.6153 0 0)
(37.655 0 0)
(37.6946 0 0)
(37.7341 0 0)
(37.7737 0 0)
(37.8131 0 0)
(37.8525 0 0)
(37.8918 0 0)
(37.9311 0 0)
(37.9703 0 0)
(38.0094 0 0)
(38.0485 0 0)
(38.0875 0 0)
(38.1264 0 0)
(38.1653 0 0)
(38.2041 0 0)
(38.2428 0 0)
(38.2814 0 0)
(38.32 0 0)
(38.3585 0 0)
(38.397 0 0)
(38.4354 0 0)
(38.4737 0 0)
(38.5119 0 0)
(38.55 0 0)
(38.5881 0 0)
(38.6262 0 0)
(38.6641 0 0)
(38.702 0 0)
(38.7398 0 0)
(38.7776 0 0)
(38.8153 0 0)
(38.8529 0 0)
(38.8905 0 0)
(38.928 0 0)
(38.9655 0 0)
(39.0029 0 0)
(39.0402 0 0)
(39.0775 0 0)
(39.1148 0 0)
(39.152 0 0)
(39.1892 0 0)
(39.2264 0 0)
(39.2635 0 0)
(39.3006 0 0)
(39.3377 0 0)
(39.3747 0 0)
(39.4117 0 0)
(39.4486 0 0)
(39.4856 0 0)
(39.5225 0 0)
(39.5593 0 0)
(39.5962 0 0)
(39.633 0 0)
(39.6698 0 0)
(39.7066 0 0)
(39.7434 0 0)
(39.7802 0 0)
(39.8169 0 0)
(39.8537 0 0)
(39.8904 0 0)
(39.9272 0 0)
(39.9639 0 0)
(40.0007 0 0)
(40.0374 0 0)
(40.0742 0 0)
(40.111 0 0)
(40.1477 0 0)
(40.1845 0 0)
(40.2213 0 0)
(40.2581 0 0)
(40.295 0 0)
(40.3318 0 0)
(40.3687 0 0)
(40.4056 0 0)
(40.4426 0 0)
(40.4795 0 0)
(40.5166 0 0)
(40.5536 0 0)
(40.5907 0 0)
(40.6278 0 0)
(40.665 0 0)
(40.7022 0 0)
(40.7394 0 0)
(40.7767 0 0)
(40.8141 0 0)
(40.8515 0 0)
(40.8889 0 0)
(40.9264 0 0)
(40.964 0 0)
(41.0016 0 0)
(41.0392 0 0)
(41.0769 0 0)
(41.1146 0 0)
(41.1525 0 0)
(41.1904 0 0)
(41.2283 0 0)
(41.2664 0 0)
(41.3045 0 0)
(41.3427 0 0)
(41.381 0 0)
(41.4194 0 0)
(41.4578 0 0)
(41.4963 0 0)
(41.5349 0 0)
(41.5736 0 0)
(41.6124 0 0)
(41.6512 0 0)
(41.6901 0 0)
(41.7291 0 0)
(41.7682 0 0)
(41.8074 0 0)
(41.8466 0 0)
(41.8859 0 0)
(41.9253 0 0)
(41.9647 0 0)
(42.0042 0 0)
(42.0438 0 0)
(42.0835 0 0)
(42.1232 0 0)
(42.1629 0 0)
(42.2028 0 0)
(42.2426 0 0)
(42.2825 0 0)
(42.3225 0 0)
(42.3625 0 0)
(42.4026 0 0)
(42.4427 0 0)
(42.4828 0 0)
(42.523 0 0)
(42.5632 0 0)
(42.6034 0 0)
(42.6437 0 0)
(42.6839 0 0)
(42.7242 0 0)
(42.7645 0 0)
(42.8048 0 0)
(42.8451 0 0)
(42.8854 0 0)
(42.9258 0 0)
(42.9661 0 0)
(43.0064 0 0)
(43.0467 0 0)
(43.0869 0 0)
(43.1272 0 0)
(43.1674 0 0)
(43.2076 0 0)
(43.2478 0 0)
(43.288 0 0)
(43.3281 0 0)
(43.3682 0 0)
(43.4083 0 0)
(43.4483 0 0)
(43.4883 0 0)
(43.5282 0 0)
(43.5681 0 0)
(43.608 0 0)
(43.6478 0 0)
(43.6875 0 0)
(43.7272 0 0)
(43.7669 0 0)
(43.8065 0 0)
(43.846 0 0)
(43.8855 0 0)
(43.9249 0 0)
(43.9643 0 0)
(44.0036 0 0)
(44.0428 0 0)
(44.082 0 0)
(44.1211 0 0)
(44.1601 0 0)
(44.1991 0 0)
(44.238 0 0)
(44.2769 0 0)
(44.3156 0 0)
(44.3544 0 0)
(44.393 0 0)
(44.4316 0 0)
(44.4701 0 0)
(44.5085 0 0)
(44.5469 0 0)
(44.5852 0 0)
(44.6235 0 0)
(44.6617 0 0)
(44.6998 0 0)
(44.7379 0 0)
(44.7759 0 0)
(44.8138 0 0)
(44.8517 0 0)
(44.8895 0 0)
(44.9273 0 0)
(44.965 0 0)
(45.0027 0 0)
(45.0403 0 0)
(45.0778 0 0)
(45.1153 0 0)
(45.1528 0 0)
(45.1903 0 0)
(45.2277 0 0)
(45.2651 0 0)
(45.3024 0 0)
(45.3397 0 0)
(45.377 0 0)
(45.4143 0 0)
(45.4515 0 0)
(45.4887 0 0)
(45.5259 0 0)
(45.563 0 0)
(45.6002 0 0)
(45.6373 0 0)
(45.6744 0 0)
(45.7114 0 0)
(45.7485 0 0)
(45.7856 0 0)
(45.8226 0 0)
(45.8597 0 0)
(45.8967 0 0)
(45.9337 0 0)
(45.9707 0 0)
(46.0078 0 0)
(46.0448 0 0)
(46.0819 0 0)
(46.1189 0 0)
(46.156 0 0)
(46.1931 0 0)
(46.2302 0 0)
(46.2673 0 0)
(46.3045 0 0)
(46.3417 0 0)
(46.3789 0 0)
(46.4161 0 0)
(46.4534 0 0)
(46.4907 0 0)
(46.5281 0 0)
(46.5654 0 0)
(46.6028 0 0)
(46.6402 0 0)
(46.6777 0 0)
(46.7152 0 0)
(46.7528 0 0)
(46.7905 0 0)
(46.8282 0 0)
(46.866 0 0)
(46.9038 0 0)
(46.9417 0 0)
(46.9797 0 0)
(47.0178 0 0)
(47.0559 0 0)
(47.0941 0 0)
(47.1324 0 0)
(47.1708 0 0)
(47.2092 0 0)
(47.2477 0 0)
(47.2863 0 0)
(47.325 0 0)
(47.3637 0 0)
(47.4026 0 0)
(47.4415 0 0)
(47.4805 0 0)
(47.5195 0 0)
(47.5587 0 0)
(47.5979 0 0)
(47.6371 0 0)
(47.6765 0 0)
(47.7158 0 0)
(47.7553 0 0)
(47.7948 0 0)
(47.8344 0 0)
(47.874 0 0)
(47.9137 0 0)
(47.9534 0 0)
(47.9932 0 0)
(48.033 0 0)
(48.0728 0 0)
(48.1127 0 0)
(48.1526 0 0)
(48.1925 0 0)
(48.2325 0 0)
(48.2725 0 0)
(48.3124 0 0)
(48.3524 0 0)
(48.3924 0 0)
(48.4324 0 0)
(48.4724 0 0)
(48.5124 0 0)
(48.5523 0 0)
(48.5923 0 0)
(48.6322 0 0)
(48.6721 0 0)
(48.712 0 0)
(48.7519 0 0)
(48.7918 0 0)
(48.8316 0 0)
(48.8713 0 0)
(48.9111 0 0)
(48.9508 0 0)
(48.9905 0 0)
(49.0301 0 0)
(49.0697 0 0)
(49.1092 0 0)
(49.1487 0 0)
(49.1881 0 0)
(49.2275 0 0)
(49.2668 0 0)
(49.3061 0 0)
(49.3453 0 0)
(49.3845 0 0)
(49.4236 0 0)
(49.4626 0 0)
(49.5016 0 0)
(49.5405 0 0)
(49.5793 0 0)
(49.6181 0 0)
(49.6568 0 0)
(49.6955 0 0)
(49.7341 0 0)
(49.7726 0 0)
(49.8111 0 0)
(49.8494 0 0)
(49.8878 0 0)
(49.926 0 0)
(49.9642 0 0)
(50.0024 0 0)
(50.0404 0 0)
(50.0784 0 0)
(50.1164 0 0)
(50.1543 0 0)
(50.1921 0 0)
(50.2299 0 0)
(50.2676 0 0)
(50.3053 0 0)
(50.3429 0 0)
(50.3804 0 0)
(50.4179 0 0)
(50.4554 0 0)
(50.4928 0 0)
(50.5302 0 0)
(50.5675 0 0)
(50.6048 0 0)
(50.6421 0 0)
(50.6794 0 0)
(50.7166 0 0)
(50.7538 0 0)
(50.791 0 0)
(50.8282 0 0)
(50.8653 0 0)
(50.9024 0 0)
(50.9395 0 0)
(50.9766 0 0)
(51.0136 0 0)
(51.0507 0 0)
(51.0877 0 0)
(51.1247 0 0)
(51.1618 0 0)
(51.1988 0 0)
(51.2359 0 0)
(51.2729 0 0)
(51.31 0 0)
(51.347 0 0)
(51.3841 0 0)
(51.4212 0 0)
(51.4584 0 0)
(51.4955 0 0)
(51.5327 0 0)
(51.5699 0 0)
(51.6071 0 0)
(51.6443 0 0)
(51.6816 0 0)
(51.719 0 0)
(51.7563 0 0)
(51.7937 0 0)
(51.8312 0 0)
(51.8687 0 0)
(51.9063 0 0)
(51.944 0 0)
(51.9817 0 0)
(52.0195 0 0)
(52.0574 0 0)
(52.0953 0 0)
(52.1333 0 0)
(52.1714 0 0)
(52.2096 0 0)
(52.2479 0 0)
(52.2862 0 0)
(52.3246 0 0)
(52.3632 0 0)
(52.4018 0 0)
(52.4404 0 0)
(52.4792 0 0)
(52.5181 0 0)
(52.557 0 0)
(52.596 0 0)
(52.6351 0 0)
(52.6743 0 0)
(52.7135 0 0)
(52.7529 0 0)
(52.7923 0 0)
(52.8318 0 0)
(52.8713 0 0)
(52.9109 0 0)
(52.9506 0 0)
(52.9904 0 0)
(53.0302 0 0)
(53.0701 0 0)
(53.11 0 0)
(53.15 0 0)
(53.19 0 0)
(53.2301 0 0)
(53.2702 0 0)
(53.3104 0 0)
(53.3506 0 0)
(53.3908 0 0)
(53.431 0 0)
(53.4713 0 0)
(53.5116 0 0)
(53.5519 0 0)
(53.5922 0 0)
(53.6325 0 0)
(53.6729 0 0)
(53.7132 0 0)
(53.7535 0 0)
(53.7938 0 0)
(53.8341 0 0)
(53.8744 0 0)
(53.9147 0 0)
(53.9549 0 0)
(53.9952 0 0)
(54.0354 0 0)
(54.0755 0 0)
(54.1157 0 0)
(54.1558 0 0)
(54.1958 0 0)
(54.2359 0 0)
(54.2758 0 0)
(54.3158 0 0)
(54.3556 0 0)
(54.3955 0 0)
(54.4352 0 0)
(54.4749 0 0)
(54.5146 0 0)
(54.5542 0 0)
(54.5937 0 0)
(54.6332 0 0)
(54.6726 0 0)
(54.7119 0 0)
(54.7512 0 0)
(54.7904 0 0)
(54.8295 0 0)
(54.8686 0 0)
(54.9075 0 0)
(54.9464 0 0)
(54.9852 0 0)
(55.024 0 0)
(55.0627 0 0)
(55.1013 0 0)
(55.1398 0 0)
(55.1782 0 0)
(55.2166 0 0)
(55.2548 0 0)
(55.293 0 0)
(55.3311 0 0)
(55.3692 0 0)
(55.4072 0 0)
(55.4451 0 0)
(55.4829 0 0)
(55.5206 0 0)
(55.5583 0 0)
(55.5959 0 0)
(55.6335 0 0)
(55.6709 0 0)
(55.7083 0 0)
(55.7457 0 0)
(55.783 0 0)
(55.8202 0 0)
(55.8574 0 0)
(55.8946 0 0)
(55.9317 0 0)
(55.9688 0 0)
(56.0058 0 0)
(56.0429 0 0)
(56.0798 0 0)
(56.1168 0 0)
(56.1537 0 0)
(56.1905 0 0)
(56.2273 0 0)
(56.2641 0 0)
(56.3009 0 0)
(56.3377 0 0)
(56.3744 0 0)
(56.4111 0 0)
(56.4478 0 0)
(56.4844 0 0)
(56.5211 0 0)
(56.5577 0 0)
(56.5944 0 0)
(56.631 0 0)
(56.6676 0 0)
(56.7043 0 0)
(56.7409 0 0)
(56.7776 0 0)
(56.8142 0 0)
(56.8509 0 0)
(56.8876 0 0)
(56.9243 0 0)
(56.961 0 0)
(56.9978 0 0)
(57.0346 0 0)
(57.0714 0 0)
(57.1082 0 0)
(57.1451 0 0)
(57.1821 0 0)
(57.2191 0 0)
(57.2561 0 0)
(57.2932 0 0)
(57.3303 0 0)
(57.3675 0 0)
(57.4047 0 0)
(57.4419 0 0)
(57.4792 0 0)
(57.5166 0 0)
(57.554 0 0)
(57.5915 0 0)
(57.6291 0 0)
(57.6668 0 0)
(57.7045 0 0)
(57.7424 0 0)
(57.7803 0 0)
(57.8183 0 0)
(57.8565 0 0)
(57.8947 0 0)
(57.933 0 0)
(57.9714 0 0)
(58.0099 0 0)
(58.0485 0 0)
(58.0872 0 0)
(58.126 0 0)
(58.1649 0 0)
(58.2039 0 0)
(58.243 0 0)
(58.2821 0 0)
(58.3214 0 0)
(58.3608 0 0)
(58.4002 0 0)
(58.4397 0 0)
(58.4793 0 0)
(58.519 0 0)
(58.5588 0 0)
(58.5986 0 0)
(58.6385 0 0)
(58.6785 0 0)
(58.7186 0 0)
(58.7587 0 0)
(58.7989 0 0)
(58.8391 0 0)
(58.8794 0 0)
(58.9197 0 0)
(58.9601 0 0)
(59.0005 0 0)
(59.041 0 0)
(59.0815 0 0)
(59.122 0 0)
(59.1626 0 0)
(59.2031 0 0)
(59.2438 0 0)
(59.2844 0 0)
(59.325 0 0)
(59.3657 0 0)
(59.4063 0 0)
(59.447 0 0)
(59.4877 0 0)
(59.5283 0 0)
(59.569 0 0)
(59.6097 0 0)
(59.6503 0 0)
(59.6909 0 0)
(59.7315 0 0)
(59.7721 0 0)
(59.8126 0 0)
(59.8532 0 0)
(59.8937 0 0)
(59.9341 0 0)
(59.9745 0 0)
(60.0149 0 0)
(60.0553 0 0)
(60.0956 0 0)
(60.1358 0 0)
(60.176 0 0)
(60.2161 0 0)
(60.2562 0 0)
(60.2962 0 0)
(60.3362 0 0)
(60.3761 0 0)
(60.4159 0 0)
(60.4557 0 0)
(60.4954 0 0)
(60.535 0 0)
(60.5746 0 0)
(60.6141 0 0)
(60.6534 0 0)
(60.6928 0 0)
(60.732 0 0)
(60.7712 0 0)
(60.8102 0 0)
(60.8492 0 0)
(60.8882 0 0)
(60.927 0 0)
(60.9657 0 0)
(61.0044 0 0)
(61.043 0 0)
(61.0815 0 0)
(61.1199 0 0)
(61.1582 0 0)
(61.1964 0 0)
(61.2346 0 0)
(61.2727 0 0)
(61.3107 0 0)
(61.3486 0 0)
(61.3864 0 0)
(61.4242 0 0)
(61.4619 0 0)
(61.4995 0 0)
(61.5371 0 0)
(61.5745 0 0)
(61.612 0 0)
(61.6493 0 0)
(61.6866 0 0)
(61.7238 0 0)
(61.761 0 0)
(61.7981 0 0)
(61.8353 0 0)
(61.8724 0 0)
(61.9095 0 0)
(61.9465 0 0)
(61.9834 0 0)
(62.0204 0 0)
(62.0573 0 0)
(62.0941 0 0)
(62.1309 0 0)
(62.1677 0 0)
(62.2045 0 0)
(62.2412 0 0)
(62.278 0 0)
(62.3147 0 0)
(62.3513 0 0)
(62.388 0 0)
(62.4246 0 0)
(62.4613 0 0)
(62.4979 0 0)
(62.5345 0 0)
(62.5711 0 0)
(62.6077 0 0)
(62.6444 0 0)
(62.681 0 0)
(62.7176 0 0)
(62.7543 0 0)
(62.7909 0 0)
(62.8276 0 0)
(62.8643 0 0)
(62.901 0 0)
(62.9378 0 0)
(62.9745 0 0)
(63.0114 0 0)
(63.0482 0 0)
(63.0851 0 0)
(63.122 0 0)
(63.159 0 0)
(63.1961 0 0)
(63.2331 0 0)
(63.2703 0 0)
(63.3075 0 0)
(63.3447 0 0)
(63.3819 0 0)
(63.4192 0 0)
(63.4566 0 0)
(63.494 0 0)
(63.5316 0 0)
(63.5692 0 0)
(63.6069 0 0)
(63.6447 0 0)
(63.6826 0 0)
(63.7206 0 0)
(63.7587 0 0)
(63.7969 0 0)
(63.8352 0 0)
(63.8737 0 0)
(63.9122 0 0)
(63.9508 0 0)
(63.9895 0 0)
(64.0283 0 0)
(64.0672 0 0)
(64.1062 0 0)
(64.1453 0 0)
(64.1845 0 0)
(64.2238 0 0)
(64.2631 0 0)
(64.3025 0 0)
(64.342 0 0)
(64.3816 0 0)
(64.4212 0 0)
(64.4609 0 0)
(64.5006 0 0)
(64.5404 0 0)
(64.5802 0 0)
(64.62 0 0)
(64.6599 0 0)
(64.6998 0 0)
(64.7397 0 0)
(64.7797 0 0)
(64.8196 0 0)
(64.8595 0 0)
(64.8995 0 0)
(64.9394 0 0)
(64.9793 0 0)
(65.0192 0 0)
(65.0591 0 0)
(65.0989 0 0)
(65.1387 0 0)
(65.1785 0 0)
(65.2183 0 0)
(65.258 0 0)
(65.2978 0 0)
(65.3374 0 0)
(65.3771 0 0)
(65.4167 0 0)
(65.4562 0 0)
(65.4958 0 0)
(65.5353 0 0)
(65.5747 0 0)
(65.6142 0 0)
(65.6536 0 0)
(65.6929 0 0)
(65.7323 0 0)
(65.7716 0 0)
(65.8109 0 0)
(65.8501 0 0)
(65.8894 0 0)
(65.9286 0 0)
(65.9678 0 0)
(66.0069 0 0)
(66.0461 0 0)
(66.0852 0 0)
(66.1243 0 0)
(66.1635 0 0)
(66.2025 0 0)
(66.2416 0 0)
(66.2807 0 0)
(66.3198 0 0)
(66.3588 0 0)
(66.3979 0 0)
(66.4369 0 0)
(66.476 0 0)
(66.515 0 0)
(66.5541 0 0)
(66.5931 0 0)
(66.6322 0 0)
(66.6712 0 0)
(66.7103 0 0)
(66.7493 0 0)
(66.7884 0 0)
(66.8274 0 0)
(66.8665 0 0)
(66.9055 0 0)
(66.9446 0 0)
(66.9836 0 0)
(67.0226 0 0)
(67.0617 0 0)
(67.1007 0 0)
(67.1397 0 0)
(67.1787 0 0)
(67.2176 0 0)
(67.2566 0 0)
(67.2955 0 0)
(67.3344 0 0)
(67.3733 0 0)
(67.4122 0 0)
(67.451 0 0)
(67.4898 0 0)
(67.5286 0 0)
(67.5673 0 0)
(67.606 0 0)
(67.6446 0 0)
(67.6832 0 0)
(67.7218 0 0)
(67.7603 0 0)
(67.7988 0 0)
(67.8372 0 0)
(67.8756 0 0)
(67.914 0 0)
(67.9522 0 0)
(67.9905 0 0)
(68.0287 0 0)
(68.0668 0 0)
(68.1049 0 0)
(68.1429 0 0)
(68.1808 0 0)
(68.2188 0 0)
(68.2566 0 0)
(68.2944 0 0)
(68.3321 0 0)
(68.3698 0 0)
(68.4075 0 0)
(68.4451 0 0)
(68.4826 0 0)
(68.5201 0 0)
(68.5575 0 0)
(68.5949 0 0)
(68.6322 0 0)
(68.6695 0 0)
(68.7067 0 0)
(68.7439 0 0)
(68.781 0 0)
(68.8181 0 0)
(68.8552 0 0)
(68.8922 0 0)
(68.9293 0 0)
(68.9663 0 0)
(69.0033 0 0)
(69.0402 0 0)
(69.0772 0 0)
(69.1141 0 0)
(69.151 0 0)
(69.1879 0 0)
(69.2248 0 0)
(69.2617 0 0)
(69.2986 0 0)
(69.3355 0 0)
(69.3723 0 0)
(69.4092 0 0)
(69.4461 0 0)
(69.483 0 0)
(69.5199 0 0)
(69.5569 0 0)
(69.5938 0 0)
(69.6308 0 0)
(69.6679 0 0)
(69.7049 0 0)
(69.742 0 0)
(69.7791 0 0)
(69.8162 0 0)
(69.8534 0 0)
(69.8906 0 0)
(69.928 0 0)
(69.9653 0 0)
(70.0028 0 0)
(70.0404 0 0)
(70.078 0 0)
(70.1158 0 0)
(70.1536 0 0)
(70.1916 0 0)
(70.2297 0 0)
(70.2679 0 0)
(70.3062 0 0)
(70.3446 0 0)
(70.3832 0 0)
(70.4219 0 0)
(70.4607 0 0)
(70.4997 0 0)
(70.5388 0 0)
(70.578 0 0)
(70.6173 0 0)
(70.6568 0 0)
(70.6964 0 0)
(70.7361 0 0)
(70.776 0 0)
(70.816 0 0)
(70.856 0 0)
(70.8962 0 0)
(70.9365 0 0)
(70.9769 0 0)
(71.0173 0 0)
(71.0579 0 0)
(71.0985 0 0)
(71.1392 0 0)
(71.18 0 0)
(71.2208 0 0)
(71.2616 0 0)
(71.3025 0 0)
(71.3434 0 0)
(71.3843 0 0)
(71.4253 0 0)
(71.4662 0 0)
(71.5071 0 0)
(71.548 0 0)
(71.5889 0 0)
(71.6297 0 0)
(71.6705 0 0)
(71.7113 0 0)
(71.752 0 0)
(71.7927 0 0)
(71.8333 0 0)
(71.8738 0 0)
(71.9143 0 0)
(71.9547 0 0)
(71.995 0 0)
(72.0353 0 0)
(72.0755 0 0)
(72.1156 0 0)
(72.1556 0 0)
(72.1955 0 0)
(72.2353 0 0)
(72.275 0 0)
(72.3147 0 0)
(72.3542 0 0)
(72.3936 0 0)
(72.433 0 0)
(72.4722 0 0)
(72.5114 0 0)
(72.5505 0 0)
(72.5894 0 0)
(72.6283 0 0)
(72.667 0 0)
(72.7057 0 0)
(72.7443 0 0)
(72.7828 0 0)
(72.8212 0 0)
(72.8595 0 0)
(72.8978 0 0)
(72.9359 0 0)
(72.974 0 0)
(73.012 0 0)
(73.05 0 0)
(73.0879 0 0)
(73.1257 0 0)
(73.1634 0 0)
(73.2011 0 0)
(73.2388 0 0)
(73.2764 0 0)
(73.3139 0 0)
(73.3515 0 0)
(73.3889 0 0)
(73.4264 0 0)
(73.4638 0 0)
(73.5012 0 0)
(73.5386 0 0)
(73.576 0 0)
(73.6134 0 0)
(73.6508 0 0)
(73.6881 0 0)
(73.7255 0 0)
(73.7629 0 0)
(73.8003 0 0)
(73.8377 0 0)
(73.8752 0 0)
(73.9127 0 0)
(73.9502 0 0)
(73.9877 0 0)
(74.0253 0 0)
(74.063 0 0)
(74.1006 0 0)
(74.1384 0 0)
(74.1762 0 0)
(74.214 0 0)
(74.2519 0 0)
(74.2899 0 0)
(74.3279 0 0)
(74.366 0 0)
(74.4042 0 0)
(74.4424 0 0)
(74.4807 0 0)
(74.519 0 0)
(74.5574 0 0)
(74.5959 0 0)
(74.6344 0 0)
(74.6729 0 0)
(74.7115 0 0)
(74.7501 0 0)
(74.7888 0 0)
(74.8275 0 0)
(74.8662 0 0)
(74.905 0 0)
(74.9437 0 0)
(74.9825 0 0)
(75.0213 0 0)
(75.0601 0 0)
(75.0988 0 0)
(75.1376 0 0)
(75.1763 0 0)
(75.215 0 0)
(75.2537 0 0)
(75.2924 0 0)
(75.331 0 0)
(75.3696 0 0)
(75.4082 0 0)
(75.4467 0 0)
(75.4852 0 0)
(75.5236 0 0)
(75.562 0 0)
(75.6004 0 0)
(75.6387 0 0)
(75.6769 0 0)
(75.7151 0 0)
(75.7532 0 0)
(75.7913 0 0)
(75.8294 0 0)
(75.8673 0 0)
(75.9053 0 0)
(75.9431 0 0)
(75.981 0 0)
(76.0187 0 0)
(76.0564 0 0)
(76.0941 0 0)
(76.1317 0 0)
(76.1693 0 0)
(76.2068 0 0)
(76.2443 0 0)
(76.2818 0 0)
(76.3192 0 0)
(76.3566 0 0)
(76.394 0 0)
(76.4313 0 0)
(76.4687 0 0)
(76.506 0 0)
(76.5433 0 0)
(76.5806 0 0)
(76.6179 0 0)
(76.6552 0 0)
(76.6925 0 0)
(76.7298 0 0)
(76.7671 0 0)
(76.8044 0 0)
(76.8418 0 0)
(76.8792 0 0)
(76.9167 0 0)
(76.9541 0 0)
(76.9917 0 0)
(77.0292 0 0)
(77.0669 0 0)
(77.1046 0 0)
(77.1424 0 0)
(77.1802 0 0)
(77.2182 0 0)
(77.2562 0 0)
(77.2943 0 0)
(77.3325 0 0)
(77.3708 0 0)
(77.4092 0 0)
(77.4477 0 0)
(77.4864 0 0)
(77.5251 0 0)
(77.5639 0 0)
(77.6028 0 0)
(77.6419 0 0)
(77.681 0 0)
(77.7202 0 0)
(77.7596 0 0)
(77.799 0 0)
(77.8385 0 0)
(77.8782 0 0)
(77.9179 0 0)
(77.9576 0 0)
(77.9975 0 0)
(78.0374 0 0)
(78.0773 0 0)
(78.1173 0 0)
(78.1573 0 0)
(78.1974 0 0)
(78.2375 0 0)
(78.2776 0 0)
(78.3177 0 0)
(78.3578 0 0)
(78.3979 0 0)
(78.438 0 0)
(78.478 0 0)
(78.518 0 0)
(78.558 0 0)
(78.598 0 0)
(78.6378 0 0)
(78.6777 0 0)
(78.7175 0 0)
(78.7572 0 0)
(78.7969 0 0)
(78.8365 0 0)
(78.8761 0 0)
(78.9156 0 0)
(78.955 0 0)
(78.9943 0 0)
(79.0336 0 0)
(79.0728 0 0)
(79.1119 0 0)
(79.1509 0 0)
(79.1898 0 0)
(79.2287 0 0)
(79.2675 0 0)
(79.3062 0 0)
(79.3448 0 0)
(79.3833 0 0)
(79.4218 0 0)
(79.4602 0 0)
(79.4985 0 0)
(79.5367 0 0)
(79.5749 0 0)
(79.613 0 0)
(79.651 0 0)
(79.689 0 0)
(79.7269 0 0)
(79.7647 0 0)
(79.8025 0 0)
(79.8403 0 0)
(79.878 0 0)
(79.9156 0 0)
(79.9532 0 0)
(79.9908 0 0)
(80.0284 0 0)
(80.0659 0 0)
(80.1035 0 0)
(80.141 0 0)
(80.1785 0 0)
(80.216 0 0)
(80.2535 0 0)
(80.291 0 0)
(80.3285 0 0)
(80.3661 0 0)
(80.4037 0 0)
(80.4413 0 0)
(80.4789 0 0)
(80.5166 0 0)
(80.5543 0 0)
(80.5921 0 0)
(80.6299 0 0)
(80.6679 0 0)
(80.7059 0 0)
(80.7439 0 0)
(80.7821 0 0)
(80.8203 0 0)
(80.8586 0 0)
(80.8971 0 0)
(80.9356 0 0)
(80.9741 0 0)
(81.0128 0 0)
(81.0516 0 0)
(81.0904 0 0)
(81.1294 0 0)
(81.1684 0 0)
(81.2075 0 0)
(81.2466 0 0)
(81.2859 0 0)
(81.3252 0 0)
(81.3645 0 0)
(81.4039 0 0)
(81.4433 0 0)
(81.4828 0 0)
(81.5223 0 0)
(81.5618 0 0)
(81.6014 0 0)
(81.6409 0 0)
(81.6805 0 0)
(81.72 0 0)
(81.7595 0 0)
(81.799 0 0)
(81.8385 0 0)
(81.8779 0 0)
(81.9173 0 0)
(81.9567 0 0)
(81.996 0 0)
(82.0353 0 0)
(82.0745 0 0)
(82.1137 0 0)
(82.1528 0 0)
(82.1919 0 0)
(82.2309 0 0)
(82.2699 0 0)
(82.3089 0 0)
(82.3477 0 0)
(82.3866 0 0)
(82.4253 0 0)
(82.464 0 0)
(82.5027 0 0)
(82.5413 0 0)
(82.5799 0 0)
(82.6184 0 0)
(82.6569 0 0)
(82.6953 0 0)
(82.7337 0 0)
(82.772 0 0)
(82.8103 0 0)
(82.8485 0 0)
(82.8868 0 0)
(82.9249 0 0)
(82.9631 0 0)
(83.0011 0 0)
(83.0392 0 0)
(83.0772 0 0)
(83.1152 0 0)
(83.1532 0 0)
(83.1911 0 0)
(83.229 0 0)
(83.2669 0 0)
(83.3047 0 0)
(83.3425 0 0)
(83.3803 0 0)
(83.4181 0 0)
(83.4558 0 0)
(83.4935 0 0)
(83.5312 0 0)
(83.5689 0 0)
(83.6066 0 0)
(83.6442 0 0)