/*--------------------------------*- C++ -*----------------------------------*\
  =========                 |
  \\      /  F ield         | OpenFOAM: The Open Source CFD Toolbox
   \\    /   O peration     | Website:  https://openfoam.org
    \\  /    A nd           | Version:  9
     \\/     M anipulation  |
\*---------------------------------------------------------------------------*/
FoamFile
{
    format      ascii;
    class       volScalarField;
    location    "0.029";
    object      mag(U);
}
// * * * * * * * * * * * * * * * * * * * * * * * * * * * * * * * * * * * * * //

dimensions      [0 1 -1 0 0 0 0];

internalField   nonuniform List<scalar> 
10000
(
3.97997
4.03786
4.09528
4.14274
4.18706
4.23211
4.27803
4.32413
4.37015
4.41609
4.46202
4.50795
4.5539
4.59985
4.64579
4.69174
4.73768
4.78363
4.82957
4.87552
4.92147
4.96742
5.01337
5.05931
5.10526
5.1512
5.19715
5.2431
5.28905
5.335
5.38095
5.4269
5.47285
5.5188
5.56475
5.6107
5.65664
5.70259
5.74854
5.79449
5.84044
5.8864
5.93235
5.97831
6.02427
6.07022
6.11618
6.16214
6.20809
6.25405
6.3
6.34596
6.39191
6.43787
6.48382
6.52977
6.57573
6.62169
6.66764
6.7136
6.75955
6.80551
6.85146
6.89742
6.94338
6.98933
7.03529
7.08125
7.12721
7.17316
7.21912
7.26508
7.31104
7.357
7.40296
7.44891
7.49487
7.54083
7.58679
7.63275
7.67871
7.72467
7.77063
7.8166
7.86256
7.90852
7.95448
8.00044
8.0464
8.09237
8.13833
8.18429
8.23025
8.27622
8.32218
8.36815
8.41411
8.46007
8.50604
8.552
8.59797
8.64393
8.6899
8.73586
8.78183
8.8278
8.87376
8.91973
8.9657
9.01166
9.05763
9.1036
9.14957
9.19553
9.2415
9.28747
9.33344
9.37941
9.42538
9.47135
9.51732
9.56329
9.60926
9.65523
9.7012
9.74717
9.79314
9.83911
9.88508
9.93105
9.97703
10.023
10.069
10.1149
10.1609
10.2069
10.2529
10.2988
10.3448
10.3908
10.4368
10.4827
10.5287
10.5747
10.6207
10.6666
10.7126
10.7586
10.8046
10.8505
10.8965
10.9425
10.9885
11.0344
11.0804
11.1264
11.1724
11.2184
11.2643
11.3103
11.3563
11.4023
11.4483
11.4942
11.5402
11.5862
11.6322
11.6782
11.7241
11.7701
11.8161
11.8621
11.9081
11.954
12
12.046
12.092
12.138
12.184
12.2299
12.2759
12.3219
12.3679
12.4139
12.4599
12.5059
12.5518
12.5978
12.6438
12.6898
12.7358
12.7818
12.8278
12.8737
12.9197
12.9657
13.0117
13.0577
13.1037
13.1497
13.1957
13.2416
13.2876
13.3336
13.3796
13.4256
13.4716
13.5176
13.5636
13.6096
13.6555
13.7015
13.7475
13.7935
13.8395
13.8855
13.9315
13.9775
14.0235
14.0695
14.1155
14.1615
14.2075
14.2535
14.2994
14.3454
14.3914
14.4374
14.4834
14.5294
14.5754
14.6214
14.6674
14.7134
14.7594
14.8054
14.8514
14.8974
14.9434
14.9894
15.0354
15.0814
15.1274
15.1734
15.2194
15.2654
15.3114
15.3574
15.4034
15.4494
15.4954
15.5414
15.5874
15.6334
15.6794
15.7254
15.7714
15.8174
15.8634
15.9094
15.9554
16.0014
16.0474
16.0934
16.1394
16.1854
16.2314
16.2774
16.3234
16.3694
16.4154
16.4614
16.5074
16.5534
16.5994
16.6454
16.6915
16.7375
16.7835
16.8295
16.8755
16.9215
16.9675
17.0135
17.0595
17.1055
17.1515
17.1975
17.2435
17.2896
17.3356
17.3816
17.4276
17.4736
17.5196
17.5656
17.6116
17.6576
17.7036
17.7497
17.7957
17.8417
17.8877
17.9337
17.9797
18.0257
18.0717
18.1178
18.1638
18.2098
18.2558
18.3018
18.3478
18.3938
18.4399
18.4859
18.5319
18.5779
18.6239
18.6699
18.7159
18.762
18.808
18.854
18.9
18.946
18.9921
19.0381
19.0841
19.1301
19.1761
19.2221
19.2682
19.3142
19.3602
19.4062
19.4522
19.4983
19.5443
19.5903
19.6363
19.6823
19.7284
19.7744
19.8204
19.8664
19.9124
19.9585
20.0045
20.0505
20.0965
20.1426
20.1886
20.2346
20.2806
20.3267
20.3727
20.4187
20.4647
20.5108
20.5568
20.6028
20.6488
20.6949
20.7409
20.7869
20.8329
20.879
20.925
20.971
21.0171
21.0631
21.1091
21.1551
21.2012
21.2472
21.2932
21.3392
21.3853
21.4313
21.4773
21.5234
21.5694
21.6154
21.6615
21.7075
21.7535
21.7996
21.8456
21.8916
21.9377
21.9837
22.0297
22.0757
22.1218
22.1678
22.2138
22.2599
22.3059
22.352
22.398
22.444
22.4901
22.5361
22.5821
22.6282
22.6742
22.7202
22.7663
22.8123
22.8583
22.9044
22.9504
22.9965
23.0425
23.0885
23.1346
23.1806
23.2266
23.2727
23.3187
23.3648
23.4108
23.4568
23.5029
23.5489
23.595
23.641
23.687
23.7331
23.7791
23.8252
23.8712
23.9173
23.9633
24.0093
24.0554
24.1014
24.1475
24.1935
24.2396
24.2856
24.3316
24.3777
24.4237
24.4698
24.5158
24.5619
24.6079
24.654
24.7
24.746
24.7921
24.8381
24.8842
24.9302
24.9763
25.0223
25.0684
25.1144
25.1605
25.2065
25.2526
25.2986
25.3447
25.3907
25.4368
25.4828
25.5289
25.5749
25.621
25.667
25.7131
25.7591
25.8052
25.8512
25.8973
25.9433
25.9894
26.0354
26.0815
26.1275
26.1736
26.2196
26.2657
26.3117
26.3578
26.4039
26.4499
26.496
26.542
26.5881
26.6341
26.6802
26.7262
26.7723
26.8183
26.8644
26.9105
26.9565
27.0026
27.0486
27.0947
27.1407
27.1868
27.2329
27.2789
27.325
27.371
27.4171
27.4632
27.5092
27.5553
27.6013
27.6474
27.6935
27.7395
27.7856
27.8316
27.8777
27.9238
27.9698
28.0159
28.062
28.108
28.1541
28.2001
28.2462
28.2923
28.3383
28.3844
28.4305
28.4765
28.5226
28.5687
28.6147
28.6608
28.7068
28.7529
28.799
28.845
28.8911
28.9372
28.9832
29.0293
29.0754
29.1214
29.1675
29.2136
29.2596
29.3057
29.3518
29.3979
29.4439
29.49
29.5361
29.5821
29.6282
29.6743
29.7203
29.7664
29.8125
29.8586
29.9046
29.9507
29.9968
30.0428
30.0889
30.135
30.1811
30.2271
30.2732
30.3193
30.3653
30.4114
30.4575
30.5036
30.5496
30.5957
30.6418
30.6879
30.7339
30.78
30.8261
30.8722
30.9182
30.9643
31.0104
31.0565
31.1026
31.1486
31.1947
31.2408
31.2869
31.3329
31.379
31.4251
31.4712
31.5173
31.5633
31.6094
31.6555
31.7016
31.7477
31.7937
31.8398
31.8859
31.932
31.9781
32.0241
32.0702
32.1163
32.1624
32.2085
32.2546
32.3006
32.3467
32.3928
32.4389
32.485
32.5311
32.5771
32.6232
32.6693
32.7154
32.7615
32.8076
32.8536
32.8997
32.9458
32.9919
33.038
33.0841
33.1302
33.1762
33.2223
33.2684
33.3145
33.3606
33.4067
33.4528
33.4989
33.545
33.591
33.6371
33.6832
33.7293
33.7754
33.8215
33.8676
33.9137
33.9598
34.0059
34.0519
34.098
34.1441
34.1902
34.2363
34.2824
34.3285
34.3746
34.4207
34.4668
34.5129
34.559
34.6051
34.6511
34.6972
34.7433
34.7894
34.8355
34.8816
34.9277
34.9738
35.0199
35.066
35.1121
35.1582
35.2043
35.2504
35.2965
35.3426
35.3887
35.4348
35.4809
35.527
35.5731
35.6192
35.6653
35.7114
35.7575
35.8036
35.8497
35.8958
35.9419
35.988
36.0341
36.0802
36.1263
36.1724
36.2185
36.2646
36.3107
36.3568
36.4029
36.449
36.4951
36.5412
36.5873
36.6334
36.6795
36.7256
36.7717
36.8178
36.8639
36.91
36.9561
37.0022
37.0483
37.0944
37.1406
37.1867
37.2328
37.2789
37.325
37.3711
37.4172
37.4633
37.5094
37.5555
37.6016
37.6477
37.6938
37.7399
37.7861
37.8322
37.8783
37.9244
37.9705
38.0166
38.0627
38.1088
38.1549
38.201
38.2472
38.2933
38.3394
38.3855
38.4316
38.4777
38.5238
38.5699
38.6161
38.6622
38.7083
38.7544
38.8005
38.8466
38.8927
38.9389
38.985
39.0311
39.0772
39.1233
39.1694
39.2155
39.2617
39.3078
39.3539
39.4
39.4461
39.4922
39.5384
39.5845
39.6306
39.6767
39.7228
39.769
39.8151
39.8612
39.9073
39.9534
39.9995
40.0457
40.0918
40.1379
40.184
40.2301
40.2763
40.3224
40.3685
40.4146
40.4608
40.5069
40.553
40.5991
40.6452
40.6914
40.7375
40.7836
40.8297
40.8759
40.922
40.9681
41.0142
41.0604
41.1065
41.1526
41.1987
41.2449
41.291
41.3371
41.3832
41.4294
41.4755
41.5216
41.5677
41.6139
41.66
41.7061
41.7522
41.7984
41.8445
41.8906
41.9368
41.9829
42.029
42.0751
42.1213
42.1674
42.2135
42.2597
42.3058
42.3519
42.3981
42.4442
42.4903
42.5365
42.5826
42.6287
42.6748
42.721
42.7671
42.8132
42.8594
42.9055
42.9516
42.9978
43.0439
43.09
43.1362
43.1823
43.2284
43.2746
43.3207
43.3669
43.413
43.4591
43.5053
43.5514
43.5975
43.6437
43.6898
43.7359
43.7821
43.8282
43.8744
43.9205
43.9666
44.0128
44.0589
44.105
44.1512
44.1973
44.2435
44.2896
44.3357
44.3819
44.428
44.4742
44.5203
44.5664
44.6126
44.6587
44.7049
44.751
44.7972
44.8433
44.8894
44.9356
44.9817
45.0279
45.074
45.1202
45.1663
45.2124
45.2586
45.3047
45.3509
45.397
45.4432
45.4893
45.5355
45.5816
45.6277
45.6739
45.72
45.7662
45.8123
45.8585
45.9046
45.9508
45.9969
46.0431
46.0892
46.1354
46.1815
46.2277
46.2738
46.32
46.3661
46.4123
46.4584
46.5046
46.5507
46.5969
46.643
46.6892
46.7353
46.7815
46.8276
46.8738
46.9199
46.9661
47.0122
47.0584
47.1045
47.1507
47.1968
47.243
47.2891
47.3353
47.3815
47.4276
47.4738
47.5199
47.5661
47.6122
47.6584
47.7045
47.7507
47.7968
47.843
47.8892
47.9353
47.9815
48.0276
48.0738
48.1199
48.1661
48.2123
48.2584
48.3046
48.3507
48.3969
48.4431
48.4892
48.5354
48.5815
48.6277
48.6739
48.72
48.7662
48.8123
48.8585
48.9047
48.9508
48.997
49.0431
49.0893
49.1355
49.1816
49.2278
49.274
49.3201
49.3663
49.4124
49.4586
49.5048
49.5509
49.5971
49.6433
49.6894
49.7356
49.7818
49.8279
49.8741
49.9203
49.9664
50.0126
50.0587
50.1049
50.1511
50.1972
50.2434
50.2896
50.3358
50.3819
50.4281
50.4743
50.5204
50.5666
50.6128
50.6589
50.7051
50.7513
50.7974
50.8436
50.8898
50.9359
50.9821
51.0283
51.0745
51.1206
51.1668
51.213
51.2591
51.3053
51.3515
51.3977
51.4438
51.49
51.5362
51.5824
51.6285
51.6747
51.7209
51.7671
51.8132
51.8594
51.9056
51.9517
51.9979
52.0441
52.0903
52.1365
52.1826
52.2288
52.275
52.3212
52.3673
52.4135
52.4597
52.5059
52.552
52.5982
52.6444
52.6906
52.7368
52.7829
52.8291
52.8753
52.9215
52.9677
53.0138
53.06
53.1062
53.1524
53.1986
53.2447
53.2909
53.3371
53.3833
53.4295
53.4756
53.5218
53.568
53.6142
53.6604
53.7066
53.7527
53.7989
53.8451
53.8913
53.9375
53.9837
54.0298
54.076
54.1222
54.1684
54.2146
54.2608
54.307
54.3531
54.3993
54.4455
54.4917
54.5379
54.5841
54.6303
54.6765
54.7226
54.7688
54.815
54.8612
54.9074
54.9536
54.9998
55.046
55.0922
55.1383
55.1845
55.2307
55.2769
55.3231
55.3693
55.4155
55.4617
55.5079
55.5541
55.6003
55.6464
55.6926
55.7388
55.785
55.8312
55.8774
55.9236
55.9698
56.016
56.0622
56.1084
56.1546
56.2008
56.247
56.2932
56.3393
56.3855
56.4317
56.4779
56.5241
56.5703
56.6165
56.6627
56.7089
56.7551
56.8013
56.8475
56.8937
56.9399
56.9861
57.0323
57.0785
57.1247
57.1709
57.2171
57.2633
57.3095
57.3557
57.4019
57.4481
57.4943
57.5405
57.5867
57.6329
57.6791
57.7253
57.7715
57.8177
57.8639
57.9101
57.9563
58.0025
58.0487
58.0949
58.1411
58.1873
58.2335
58.2797
58.3259
58.3721
58.4183
58.4646
58.5108
58.557
58.6032
58.6494
58.6956
58.7418
58.788
58.8342
58.8804
58.9266
58.9728
59.019
59.0652
59.1114
59.1576
59.2039
59.2501
59.2963
59.3425
59.3887
59.4349
59.4811
59.5273
59.5735
59.6197
59.6659
59.7122
59.7584
59.8046
59.8508
59.897
59.9432
59.9894
60.0356
60.0818
60.1281
60.1743
60.2205
60.2667
60.3129
60.3591
60.4053
60.4516
60.4978
60.544
60.5902
60.6364
60.6826
60.7288
60.7751
60.8213
60.8675
60.9137
60.9599
61.0061
61.0524
61.0986
61.1448
61.191
61.2372
61.2834
61.3297
61.3759
61.4221
61.4683
61.5145
61.5607
61.607
61.6532
61.6994
61.7456
61.7918
61.8381
61.8843
61.9305
61.9767
62.0229
62.0692
62.1154
62.1616
62.2078
62.254
62.3003
62.3465
62.3927
62.4389
62.4852
62.5314
62.5776
62.6238
62.6701
62.7163
62.7625
62.8087
62.855
62.9012
62.9474
62.9936
63.0399
63.0861
63.1323
63.1785
63.2248
63.271
63.3172
63.3634
63.4097
63.4559
63.5021
63.5483
63.5946
63.6408
63.687
63.7333
63.7795
63.8257
63.8719
63.9182
63.9644
64.0106
64.0569
64.1031
64.1493
64.1956
64.2418
64.288
64.3342
64.3805
64.4267
64.4729
64.5192
64.5654
64.6116
64.6579
64.7041
64.7503
64.7966
64.8428
64.889
64.9353
64.9815
65.0277
65.074
65.1202
65.1664
65.2127
65.2589
65.3051
65.3514
65.3976
65.4439
65.4901
65.5363
65.5826
65.6288
65.675
65.7213
65.7675
65.8137
65.86
65.9062
65.9525
65.9987
66.0449
66.0912
66.1374
66.1837
66.2299
66.2761
66.3224
66.3686
66.4149
66.4611
66.5073
66.5536
66.5998
66.6461
66.6923
66.7385
66.7848
66.831
66.8773
66.9235
66.9698
67.016
67.0622
67.1085
67.1547
67.201
67.2472
67.2935
67.3397
67.3859
67.4322
67.4784
67.5247
67.5709
67.6172
67.6634
67.7097
67.7559
67.8022
67.8484
67.8947
67.9409
67.9871
68.0334
68.0796
68.1259
68.1721
68.2184
68.2646
68.3109
68.3571
68.4034
68.4496
68.4959
68.5421
68.5884
68.6346
68.6809
68.7271
68.7734
68.8196
68.8659
68.9121
68.9584
69.0046
69.0509
69.0971
69.1434
69.1896
69.2359
69.2822
69.3284
69.3747
69.4209
69.4672
69.5134
69.5597
69.6059
69.6522
69.6984
69.7447
69.7909
69.8372
69.8835
69.9297
69.976
70.0222
70.0685
70.1147
70.161
70.2073
70.2535
70.2998
70.346
70.3923
70.4385
70.4848
70.5311
70.5773
70.6236
70.6698
70.7161
70.7624
70.8086
70.8549
70.9011
70.9474
70.9937
71.0399
71.0862
71.1324
71.1787
71.225
71.2712
71.3175
71.3637
71.41
71.4563
71.5025
71.5488
71.5951
71.6413
71.6876
71.7339
71.7801
71.8264
71.8726
71.9189
71.9652
72.0114
72.0577
72.104
72.1502
72.1965
72.2428
72.289
72.3353
72.3816
72.4278
72.4741
72.5204
72.5666
72.6129
72.6592
72.7054
72.7517
72.798
72.8442
72.8905
72.9368
72.983
73.0293
73.0756
73.1219
73.1681
73.2144
73.2607
73.3069
73.3532
73.3995
73.4457
73.492
73.5383
73.5846
73.6308
73.6771
73.7234
73.7697
73.8159
73.8622
73.9085
73.9547
74.001
74.0473
74.0936
74.1398
74.1861
74.2324
74.2787
74.3249
74.3712
74.4175
74.4638
74.51
74.5563
74.6026
74.6489
74.6951
74.7414
74.7877
74.834
74.8803
74.9265
74.9728
75.0191
75.0654
75.1116
75.1579
75.2042
75.2505
75.2968
75.343
75.3893
75.4356
75.4819
75.5282
75.5744
75.6207
75.667
75.7133
75.7596
75.8058
75.8521
75.8984
75.9447
75.991
76.0373
76.0835
76.1298
76.1761
76.2224
76.2687
76.315
76.3612
76.4075
76.4538
76.5001
76.5464
76.5927
76.6389
76.6852
76.7315
76.7778
76.8241
76.8704
76.9167
76.9629
77.0092
77.0555
77.1018
77.1481
77.1944
77.2407
77.287
77.3332
77.3795
77.4258
77.4721
77.5184
77.5647
77.611
77.6573
77.7036
77.7498
77.7961
77.8424
77.8887
77.935
77.9813
78.0276
78.0739
78.1202
78.1665
78.2127
78.259
78.3053
78.3516
78.3979
78.4442
78.4905
78.5368
78.5831
78.6294
78.6757
78.722
78.7683
78.8146
78.8609
78.9071
78.9534
78.9997
79.046
79.0923
79.1386
79.1849
79.2312
79.2775
79.3238
79.3701
79.4164
79.4627
79.509
79.5553
79.6016
79.6479
79.6942
79.7405
79.7868
79.8331
79.8794
79.9257
79.972
80.0183
80.0646
80.1109
80.1572
80.2035
80.2498
80.2961
80.3424
80.3887
80.435
80.4813
80.5276
80.5739
80.6202
80.6665
80.7128
80.7591
80.8054
80.8517
80.898
80.9443
80.9906
81.0369
81.0832
81.1295
81.1758
81.2221
81.2684
81.3147
81.361
81.4074
81.4537
81.5
81.5463
81.5926
81.6389
81.6852
81.7315
81.7778
81.8241
81.8704
81.9167
81.963
82.0093
82.0556
82.102
82.1483
82.1946
82.2409
82.2872
82.3335
82.3798
82.4261
82.4724
82.5187
82.565
82.6114
82.6577
82.704
82.7503
82.7966
82.8429
82.8892
82.9355
82.9818
83.0282
83.0745
83.1208
83.1671
83.2134
83.2597
83.306
83.3524
83.3987
83.445
83.4913
83.5376
83.5839
83.6302
83.6766
83.7229
83.7692
83.8155
83.8618
83.9081
83.9544
84.0008
84.0471
84.0934
84.1397
84.186
84.2323
84.2787
84.325
84.3713
84.4176
84.4639
84.5103
84.5566
84.6029
84.6492
84.6955
84.7418
84.7882
84.8345
84.8808
84.9271
84.9734
85.0198
85.0661
85.1124
85.1587
85.2051
85.2514
85.2977
85.344
85.3903
85.4367
85.483
85.5293
85.5756
85.622
85.6683
85.7146
85.7609
85.8072
85.8536
85.8999
85.9462
85.9925
86.0389
86.0852
86.1315
86.1778
86.2242
86.2705
86.3168
86.3631
86.4095
86.4558
86.5021
86.5485
86.5948
86.6411
86.6874
86.7338
86.7801
86.8264
86.8727
86.9191
86.9654
87.0117
87.0581
87.1044
87.1507
87.197
87.2434
87.2897
87.336
87.3824
87.4287
87.475
87.5214
87.5677
87.614
87.6604
87.7067
87.753
87.7993
87.8457
87.892
87.9383
87.9847
88.031
88.0773
88.1237
88.17
88.2163
88.2627
88.309
88.3553
88.4017
88.448
88.4944
88.5407
88.587
88.6334
88.6797
88.726
88.7724
88.8187
88.865
88.9114
88.9577
89.004
89.0504
89.0967
89.1431
89.1894
89.2357
89.2821
89.3284
89.3747
89.4211
89.4674
89.5138
89.5601
89.6064
89.6528
89.6991
89.7455
89.7918
89.8381
89.8845
89.9308
89.9772
90.0235
90.0698
90.1162
90.1625
90.2089
90.2552
90.3016
90.3479
90.3942
90.4406
90.4869
90.5333
90.5796
90.626
90.6723
90.7186
90.765
90.8113
90.8577
90.904
90.9504
90.9967
91.0431
91.0894
91.1358
91.1821
91.2284
91.2748
91.3211
91.3675
91.4138
91.4602
91.5065
91.5529
91.5992
91.6456
91.6919
91.7383
91.7846
91.831
91.8773
91.9237
91.97
92.0164
92.0627
92.1091
92.1554
92.2018
92.2481
92.2945
92.3408
92.3872
92.4335
92.4799
92.5262
92.5726
92.6189
92.6653
92.7116
92.758
92.8043
92.8507
92.897
92.9434
92.9897
93.0361
93.0824
93.1288
93.1751
93.2215
93.2679
93.3142
93.3606
93.4069
93.4533
93.4996
93.546
93.5923
93.6387
93.6851
93.7314
93.7778
93.8241
93.8705
93.9168
93.9632
94.0095
94.0559
94.1023
94.1486
94.195
94.2413
94.2877
94.3341
94.3804
94.4268
94.4731
94.5195
94.5658
94.6122
94.6586
94.7049
94.7513
94.7976
94.844
94.8904
94.9367
94.9831
95.0295
95.0758
95.1222
95.1685
95.2149
95.2613
95.3076
95.354
95.4004
95.4467
95.4931
95.5394
95.5858
95.6322
95.6785
95.7249
95.7713
95.8176
95.864
95.9104
95.9567
96.0031
96.0494
96.0958
96.1422
96.1885
96.2349
96.2813
96.3276
96.374
96.4204
96.4667
96.5131
96.5595
96.6058
96.6522
96.6986
96.745
96.7913
96.8377
96.8841
96.9304
96.9768
97.0232
97.0695
97.1159
97.1623
97.2086
97.255
97.3014
97.3478
97.3941
97.4405
97.4869
97.5332
97.5796
97.626
97.6724
97.7187
97.7651
97.8115
97.8578
97.9042
97.9506
97.997
98.0433
98.0897
98.1361
98.1825
98.2288
98.2752
98.3216
98.3679
98.4143
98.4607
98.5071
98.5534
98.5998
98.6462
98.6926
98.739
98.7853
98.8317
98.8781
98.9245
98.9708
99.0172
99.0636
99.11
99.1563
99.2027
99.2491
99.2955
99.3419
99.3882
99.4346
99.481
99.5274
99.5737
99.6201
99.6665
99.7129
99.7593
99.8056
99.852
99.8984
99.9448
99.9912
100.038
100.084
100.13
100.177
100.223
100.269
100.316
100.362
100.409
100.455
100.501
100.548
100.594
100.641
100.687
100.733
100.78
100.826
100.872
100.919
100.965
101.012
101.058
101.104
101.151
101.197
101.244
101.29
101.336
101.383
101.429
101.475
101.522
101.568
101.615
101.661
101.707
101.754
101.8
101.847
101.893
101.939
101.986
102.032
102.078
102.125
102.171
102.218
102.264
102.31
102.357
102.403
102.45
102.496
102.542
102.589
102.635
102.682
102.728
102.774
102.821
102.867
102.914
102.96
103.006
103.053
103.099
103.145
103.192
103.238
103.285
103.331
103.377
103.424
103.47
103.517
103.563
103.609
103.656
103.702
103.749
103.795
103.841
103.888
103.934
103.981
104.027
104.073
104.12
104.166
104.213
104.259
104.305
104.352
104.398
104.445
104.491
104.537
104.584
104.63
104.677
104.723
104.769
104.816
104.862
104.909
104.955
105.001
105.048
105.094
105.141
105.187
105.233
105.28
105.326
105.373
105.419
105.465
105.512
105.558
105.605
105.651
105.697
105.744
105.79
105.837
105.883
105.929
105.976
106.022
106.069
106.115
106.161
106.208
106.254
106.301
106.347
106.393
106.44
106.486
106.533
106.579
106.625
106.672
106.718
106.765
106.811
106.857
106.904
106.95
106.997
107.043
107.089
107.136
107.182
107.229
107.275
107.322
107.368
107.414
107.461
107.507
107.554
107.6
107.646
107.693
107.739
107.786
107.832
107.878
107.925
107.971
108.018
108.064
108.11
108.157
108.203
108.25
108.296
108.343
108.389
108.435
108.482
108.528
108.575
108.621
108.667
108.714
108.76
108.807
108.853
108.9
108.946
108.992
109.039
109.085
109.132
109.178
109.224
109.271
109.317
109.364
109.41
109.456
109.503
109.549
109.596
109.642
109.689
109.735
109.781
109.828
109.874
109.921
109.967
110.013
110.06
110.106
110.153
110.199
110.246
110.292
110.338
110.385
110.431
110.478
110.524
110.571
110.617
110.663
110.71
110.756
110.803
110.849
110.895
110.942
110.988
111.035
111.081
111.128
111.174
111.22
111.267
111.313
111.36
111.406
111.453
111.499
111.545
111.592
111.638
111.685
111.731
111.777
111.824
111.87
111.917
111.963
112.01
112.056
112.102
112.149
112.195
112.242
112.288
112.335
112.381
112.427
112.474
112.52
112.567
112.613
112.66
112.706
112.752
112.799
112.845
112.892
112.938
112.985
113.031
113.077
113.124
113.17
113.217
113.263
113.31
113.356
113.402
113.449
113.495
113.542
113.588
113.635
113.681
113.727
113.774
113.82
113.867
113.913
113.96
114.006
114.052
114.099
114.145
114.192
114.238
114.285
114.331
114.377
114.424
114.47
114.517
114.563
114.61
114.656
114.702
114.749
114.795
114.842
114.888
114.935
114.981
115.028
115.074
115.12
115.167
115.213
115.26
115.306
115.353
115.399
115.445
115.492
115.538
115.585
115.631
115.678
115.724
115.77
115.817
115.863
115.91
115.956
116.003
116.049
116.096
116.142
116.188
116.235
116.281
116.328
116.374
116.421
116.467
116.514
116.56
116.606
116.653
116.699
116.746
116.792
116.839
116.885
116.931
116.978
117.024
117.071
117.117
117.164
117.21
117.257
117.303
117.349
117.396
117.442
117.489
117.535
117.582
117.628
117.675
117.721
117.767
117.814
117.86
117.907
117.953
118
118.046
118.093
118.139
118.185
118.232
118.278
118.325
118.371
118.418
118.464
118.511
118.557
118.603
118.65
118.696
118.743
118.789
118.836
118.882
118.929
118.975
119.021
119.068
119.114
119.161
119.207
119.254
119.3
119.347
119.393
119.439
119.486
119.532
119.579
119.625
119.672
119.718
119.765
119.811
119.858
119.904
119.95
119.997
120.043
120.09
120.136
120.183
120.229
120.276
120.322
120.368
120.415
120.461
120.508
120.554
120.601
120.647
120.694
120.74
120.787
120.833
120.879
120.926
120.972
121.019
121.065
121.112
121.158
121.205
121.251
121.297
121.344
121.39
121.437
121.483
121.53
121.576
121.623
121.669
121.716
121.762
121.808
121.855
121.901
121.948
121.994
122.041
122.087
122.134
122.18
122.227
122.273
122.319
122.366
122.412
122.459
122.505
122.552
122.598
122.645
122.691
122.738
122.784
122.831
122.877
122.923
122.97
123.016
123.063
123.109
123.156
123.202
123.249
123.295
123.342
123.388
123.434
123.481
123.527
123.574
123.62
123.667
123.713
123.76
123.806
123.853
123.899
123.946
123.992
124.038
124.085
124.131
124.178
124.224
124.271
124.317
124.364
124.41
124.457
124.503
124.55
124.596
124.642
124.689
124.735
124.782
124.828
124.875
124.921
124.968
125.014
125.061
125.107
125.154
125.2
125.246
125.293
125.339
125.386
125.432
125.479
125.525
125.572
125.618
125.665
125.711
125.758
125.804
125.85
125.897
125.943
125.99
126.036
126.083
126.129
126.176
126.222
126.269
126.315
126.362
126.408
126.455
126.501
126.547
126.594
126.64
126.687
126.733
126.78
126.826
126.873
126.919
126.966
127.012
127.059
127.105
127.152
127.198
127.244
127.291
127.337
127.384
127.43
127.477
127.523
127.57
127.616
127.663
127.709
127.756
127.802
127.849
127.895
127.941
127.988
128.034
128.081
128.127
128.174
128.22
128.267
128.313
128.36
128.406
128.453
128.499
128.546
128.592
128.639
128.685
128.731
128.778
128.824
128.871
128.917
128.964
129.01
129.057
129.103
129.15
129.196
129.243
129.289
129.336
129.382
129.429
129.475
129.521
129.568
129.614
129.661
129.707
129.754
129.8
129.847
129.893
129.94
129.986
130.033
130.079
130.126
130.172
130.219
130.265
130.312
130.358
130.404
130.451
130.497
130.544
130.59
130.637
130.683
130.73
130.776
130.823
130.869
130.916
130.962
131.009
131.055
131.102
131.148
131.195
131.241
131.287
131.334
131.38
131.427
131.473
131.52
131.566
131.613
131.659
131.706
131.752
131.799
131.845
131.892
131.938
131.985
132.031
132.078
132.124
132.171
132.217
132.263
132.31
132.356
132.403
132.449
132.496
132.542
132.589
132.635
132.682
132.728
132.775
132.821
132.868
132.914
132.961
133.007
133.054
133.1
133.147
133.193
133.239
133.286
133.332
133.379
133.425
133.472
133.518
133.565
133.611
133.658
133.704
133.751
133.797
133.844
133.89
133.937
133.983
134.03
134.076
134.123
134.169
134.216
134.262
134.308
134.355
134.401
134.448
134.494
134.541
134.587
134.634
134.68
134.727
134.773
134.82
134.866
134.913
134.959
135.006
135.052
135.099
135.145
135.192
135.238
135.285
135.331
135.377
135.424
135.47
135.517
135.563
135.61
135.656
135.703
135.749
135.796
135.842
135.889
135.935
135.982
136.028
136.075
136.121
136.168
136.214
136.261
136.307
136.354
136.4
136.447
136.493
136.539
136.586
136.632
136.679
136.725
136.772
136.818
136.865
136.911
136.958
137.004
137.051
137.097
137.144
137.19
137.237
137.283
137.33
137.376
137.423
137.469
137.516
137.562
137.609
137.655
137.701
137.748
137.794
137.841
137.887
137.934
137.98
138.027
138.073
138.12
138.166
138.213
138.259
138.306
138.352
138.399
138.445
138.492
138.538
138.585
138.631
138.678
138.724
138.771
138.817
138.864
138.91
138.956
139.003
139.049
139.096
139.142
139.189
139.235
139.282
139.328
139.375
139.421
139.468
139.514
139.561
139.607
139.654
139.7
139.747
139.793
139.84
139.886
139.933
139.979
140.026
140.072
140.118
140.165
140.211
140.258
140.304
140.351
140.397
140.444
140.49
140.537
140.583
140.63
140.676
140.723
140.769
140.816
140.862
140.909
140.955
141.002
141.048
141.095
141.141
141.187
141.234
141.28
141.327
141.373
141.42
141.466
141.513
141.559
141.606
141.652
141.699
141.745
141.792
141.838
141.885
141.931
141.978
142.024
142.071
142.117
142.164
142.21
142.257
142.303
142.349
142.396
142.442
142.489
142.535
142.582
142.628
142.675
142.721
142.768
142.814
142.861
142.907
142.954
143
143.047
143.093
143.14
143.186
143.233
143.279
143.325
143.372
143.418
143.465
143.511
143.558
143.604
143.651
143.697
143.744
143.79
143.837
143.883
143.93
143.976
144.023
144.069
144.116
144.162
144.209
144.255
144.301
144.348
144.394
144.441
144.487
144.534
144.58
144.627
144.673
144.72
144.766
144.813
144.859
144.906
144.952
144.999
145.045
145.092
145.138
145.184
145.231
145.277
145.324
145.37
145.417
145.463
145.51
145.556
145.603
145.649
145.696
145.742
145.789
145.835
145.882
145.928
145.974
146.021
146.067
146.114
146.16
146.207
146.253
146.3
146.346
146.393
146.439
146.486
146.532
146.579
146.625
146.672
146.718
146.764
146.811
146.857
146.904
146.95
146.997
147.043
147.09
147.136
147.183
147.229
147.276
147.322
147.369
147.415
147.461
147.508
147.554
147.601
147.647
147.694
147.74
147.787
147.833
147.88
147.926
147.973
148.019
148.066
148.112
148.158
148.205
148.251
148.298
148.344
148.391
148.437
148.484
148.53
148.577
148.623
148.67
148.716
148.762
148.809
148.855
148.902
148.948
148.995
149.041
149.088
149.134
149.181
149.227
149.274
149.32
149.366
149.413
149.459
149.506
149.552
149.599
149.645
149.692
149.738
149.785
149.831
149.877
149.924
149.97
150.017
150.063
150.11
150.156
150.203
150.249
150.296
150.342
150.388
150.435
150.481
150.528
150.574
150.621
150.667
150.714
150.76
150.807
150.853
150.899
150.946
150.992
151.039
151.085
151.132
151.178
151.225
151.271
151.317
151.364
151.41
151.457
151.503
151.55
151.596
151.643
151.689
151.736
151.782
151.828
151.875
151.921
151.968
152.014
152.061
152.107
152.153
152.2
152.246
152.293
152.339
152.386
152.432
152.479
152.525
152.571
152.618
152.664
152.711
152.757
152.804
152.85
152.897
152.943
152.989
153.036
153.082
153.129
153.175
153.222
153.268
153.314
153.361
153.407
153.454
153.5
153.547
153.593
153.639
153.686
153.732
153.779
153.825
153.872
153.918
153.964
154.011
154.057
154.104
154.15
154.197
154.243
154.289
154.336
154.382
154.429
154.475
154.522
154.568
154.614
154.661
154.707
154.754
154.8
154.847
154.893
154.939
154.986
155.032
155.079
155.125
155.172
155.218
155.264
155.311
155.357
155.404
155.45
155.496
155.543
155.589
155.636
155.682
155.728
155.775
155.821
155.868
155.914
155.961
156.007
156.053
156.1
156.146
156.193
156.239
156.285
156.332
156.378
156.425
156.471
156.517
156.564
156.61
156.657
156.703
156.749
156.796
156.842
156.889
156.935
156.981
157.028
157.074
157.121
157.167
157.213
157.26
157.306
157.353
157.399
157.445
157.492
157.538
157.585
157.631
157.677
157.724
157.77
157.817
157.863
157.909
157.956
158.002
158.048
158.095
158.141
158.188
158.234
158.28
158.327
158.373
158.42
158.466
158.512
158.559
158.605
158.651
158.698
158.744
158.791
158.837
158.883
158.93
158.976
159.022
159.069
159.115
159.162
159.208
159.254
159.301
159.347
159.393
159.44
159.486
159.532
159.579
159.625
159.672
159.718
159.764
159.811
159.857
159.903
159.95
159.996
160.042
160.089
160.135
160.181
160.228
160.274
160.321
160.367
160.413
160.46
160.506
160.552
160.599
160.645
160.691
160.738
160.784
160.83
160.877
160.923
160.969
161.016
161.062
161.108
161.155
161.201
161.247
161.294
161.34
161.386
161.433
161.479
161.525
161.572
161.618
161.664
161.711
161.757
161.803
161.85
161.896
161.942
161.989
162.035
162.081
162.128
162.174
162.22
162.266
162.313
162.359
162.405
162.452
162.498
162.544
162.591
162.637
162.683
162.73
162.776
162.822
162.868
162.915
162.961
163.007
163.054
163.1
163.146
163.193
163.239
163.285
163.331
163.378
163.424
163.47
163.517
163.563
163.609
163.655
163.702
163.748
163.794
163.841
163.887
163.933
163.979
164.026
164.072
164.118
164.164
164.211
164.257
164.303
164.349
164.396
164.442
164.488
164.535
164.581
164.627
164.673
164.72
164.766
164.812
164.858
164.905
164.951
164.997
165.043
165.09
165.136
165.182
165.228
165.274
165.321
165.367
165.413
165.459
165.506
165.552
165.598
165.644
165.691
165.737
165.783
165.829
165.875
165.922
165.968
166.014
166.06
166.106
166.153
166.199
166.245
166.291
166.338
166.384
166.43
166.476
166.522
166.569
166.615
166.661
166.707
166.753
166.799
166.846
166.892
166.938
166.984
167.03
167.077
167.123
167.169
167.215
167.261
167.307
167.354
167.4
167.446
167.492
167.538
167.584
167.631
167.677
167.723
167.769
167.815
167.861
167.907
167.954
168
168.046
168.092
168.138
168.184
168.23
168.276
168.323
168.369
168.415
168.461
168.507
168.553
168.599
168.645
168.692
168.738
168.784
168.83
168.876
168.922
168.968
169.014
169.06
169.106
169.153
169.199
169.245
169.291
169.337
169.383
169.429
169.475
169.521
169.567
169.613
169.659
169.705
169.751
169.798
169.844
169.89
169.936
169.982
170.028
170.074
170.12
170.166
170.212
170.258
170.304
170.35
170.396
170.442
170.488
170.534
170.58
170.626
170.672
170.718
170.764
170.81
170.856
170.902
170.948
170.994
171.04
171.086
171.132
171.178
171.224
171.27
171.316
171.362
171.408
171.454
171.5
171.546
171.592
171.638
171.684
171.73
171.775
171.821
171.867
171.913
171.959
172.005
172.051
172.097
172.143
172.189
172.235
172.281
172.326
172.372
172.418
172.464
172.51
172.556
172.602
172.648
172.694
172.739
172.785
172.831
172.877
172.923
172.969
173.015
173.06
173.106
173.152
173.198
173.244
173.29
173.335
173.381
173.427
173.473
173.519
173.564
173.61
173.656
173.702
173.748
173.793
173.839
173.885
173.931
173.977
174.022
174.068
174.114
174.16
174.205
174.251
174.297
174.343
174.388
174.434
174.48
174.525
174.571
174.617
174.663
174.708
174.754
174.8
174.845
174.891
174.937
174.982
175.028
175.074
175.119
175.165
175.211
175.256
175.302
175.348
175.393
175.439
175.484
175.53
175.576
175.621
175.667
175.712
175.758
175.804
175.849
175.895
175.94
175.986