/*--------------------------------*- C++ -*----------------------------------*\
  =========                 |
  \\      /  F ield         | OpenFOAM: The Open Source CFD Toolbox
   \\    /   O peration     | Website:  https://openfoam.org
    \\  /    A nd           | Version:  9
     \\/     M anipulation  |
\*---------------------------------------------------------------------------*/
FoamFile
{
    format      ascii;
    class       surfaceScalarField;
    location    "0.029";
    object      phi;
}
// * * * * * * * * * * * * * * * * * * * * * * * * * * * * * * * * * * * * * //

dimensions      [1 0 -1 0 0 0 0];

internalField   nonuniform List<scalar> 
9999
(
5.11631
5.17457
5.23283
5.29108
5.34933
5.40758
5.46583
5.52407
5.58231
5.64055
5.69879
5.75702
5.81525
5.87348
5.93171
5.98994
6.04816
6.10638
6.1646
6.22281
6.28102
6.33923
6.39744
6.45566
6.51387
6.57207
6.63027
6.68845
6.74664
6.80483
6.86302
6.92122
6.97942
7.03763
7.09583
7.15402
7.21219
7.27036
7.32851
7.38666
7.44481
7.50295
7.56111
7.61928
7.67746
7.73565
7.79387
7.85209
7.91033
7.96859
8.02685
8.08513
8.14341
8.20169
8.25997
8.31826
8.37654
8.43483
8.49312
8.55142
8.60972
8.66801
8.72631
8.78461
8.84291
8.9012
8.9595
9.0178
9.07609
9.13439
9.19268
9.25098
9.30927
9.36757
9.42586
9.48416
9.54245
9.60074
9.65904
9.71733
9.77562
9.83392
9.89221
9.9505
10.0088
10.0671
10.1254
10.1837
10.242
10.3002
10.3585
10.4168
10.4751
10.5334
10.5917
10.65
10.7083
10.7666
10.8249
10.8831
10.9414
10.9997
11.058
11.1163
11.1746
11.2329
11.2911
11.3494
11.4077
11.466
11.5243
11.5826
11.6409
11.6991
11.7574
11.8157
11.874
11.9323
11.9906
12.0488
12.1071
12.1654
12.2237
12.282
12.3403
12.3985
12.4568
12.5151
12.5734
12.6317
12.6899
12.7482
12.8065
12.8648
12.9231
12.9813
13.0396
13.0979
13.1562
13.2144
13.2727
13.331
13.3893
13.4476
13.5058
13.5641
13.6224
13.6807
13.7389
13.7972
13.8555
13.9138
13.972
14.0303
14.0886
14.1469
14.2051
14.2634
14.3217
14.3799
14.4382
14.4965
14.5548
14.613
14.6713
14.7296
14.7878
14.8461
14.9044
14.9627
15.0209
15.0792
15.1375
15.1957
15.254
15.3123
15.3705
15.4288
15.4871
15.5453
15.6036
15.6619
15.7201
15.7784
15.8367
15.8949
15.9532
16.0115
16.0697
16.128
16.1862
16.2445
16.3028
16.361
16.4193
16.4776
16.5358
16.5941
16.6523
16.7106
16.7689
16.8271
16.8854
16.9436
17.0019
17.0602
17.1184
17.1767
17.2349
17.2932
17.3514
17.4097
17.468
17.5262
17.5845
17.6427
17.701
17.7592
17.8175
17.8758
17.934
17.9923
18.0505
18.1088
18.167
18.2253
18.2835
18.3418
18.4
18.4583
18.5165
18.5748
18.633
18.6913
18.7495
18.8078
18.866
18.9243
18.9825
19.0408
19.099
19.1573
19.2155
19.2738
19.332
19.3903
19.4485
19.5068
19.565
19.6233
19.6815
19.7397
19.798
19.8562
19.9145
19.9727
20.031
20.0892
20.1475
20.2057
20.2639
20.3222
20.3804
20.4387
20.4969
20.5551
20.6134
20.6716
20.7299
20.7881
20.8463
20.9046
20.9628
21.0211
21.0793
21.1375
21.1958
21.254
21.3122
21.3705
21.4287
21.4869
21.5452
21.6034
21.6617
21.7199
21.7781
21.8364
21.8946
21.9528
22.0111
22.0693
22.1275
22.1857
22.244
22.3022
22.3604
22.4187
22.4769
22.5351
22.5934
22.6516
22.7098
22.768
22.8263
22.8845
22.9427
23.001
23.0592
23.1174
23.1756
23.2339
23.2921
23.3503
23.4085
23.4668
23.525
23.5832
23.6414
23.6996
23.7579
23.8161
23.8743
23.9325
23.9908
24.049
24.1072
24.1654
24.2236
24.2819
24.3401
24.3983
24.4565
24.5147
24.5729
24.6312
24.6894
24.7476
24.8058
24.864
24.9222
24.9805
25.0387
25.0969
25.1551
25.2133
25.2715
25.3297
25.388
25.4462
25.5044
25.5626
25.6208
25.679
25.7372
25.7954
25.8536
25.9119
25.9701
26.0283
26.0865
26.1447
26.2029
26.2611
26.3193
26.3775
26.4357
26.4939
26.5521
26.6103
26.6685
26.7267
26.7849
26.8432
26.9014
26.9596
27.0178
27.076
27.1342
27.1924
27.2506
27.3088
27.367
27.4252
27.4834
27.5416
27.5998
27.658
27.7162
27.7744
27.8326
27.8908
27.949
28.0071
28.0653
28.1235
28.1817
28.2399
28.2981
28.3563
28.4145
28.4727
28.5309
28.5891
28.6473
28.7055
28.7637
28.8219
28.88
28.9382
28.9964
29.0546
29.1128
29.171
29.2292
29.2874
29.3456
29.4037
29.4619
29.5201
29.5783
29.6365
29.6947
29.7529
29.811
29.8692
29.9274
29.9856
30.0438
30.102
30.1601
30.2183
30.2765
30.3347
30.3929
30.451
30.5092
30.5674
30.6256
30.6838
30.7419
30.8001
30.8583
30.9165
30.9747
31.0328
31.091
31.1492
31.2074
31.2655
31.3237
31.3819
31.4401
31.4982
31.5564
31.6146
31.6727
31.7309
31.7891
31.8473
31.9054
31.9636
32.0218
32.0799
32.1381
32.1963
32.2544
32.3126
32.3708
32.4289
32.4871
32.5453
32.6034
32.6616
32.7198
32.7779
32.8361
32.8943
32.9524
33.0106
33.0687
33.1269
33.1851
33.2432
33.3014
33.3596
33.4177
33.4759
33.534
33.5922
33.6503
33.7085
33.7667
33.8248
33.883
33.9411
33.9993
34.0574
34.1156
34.1738
34.2319
34.2901
34.3482
34.4064
34.4645
34.5227
34.5808
34.639
34.6971
34.7553
34.8134
34.8716
34.9297
34.9879
35.046
35.1042
35.1623
35.2205
35.2786
35.3368
35.3949
35.453
35.5112
35.5693
35.6275
35.6856
35.7438
35.8019
35.86
35.9182
35.9763
36.0345
36.0926
36.1508
36.2089
36.267
36.3252
36.3833
36.4414
36.4996
36.5577
36.6159
36.674
36.7321
36.7903
36.8484
36.9065
36.9647
37.0228
37.0809
37.1391
37.1972
37.2553
37.3135
37.3716
37.4297
37.4879
37.546
37.6041
37.6622
37.7204
37.7785
37.8366
37.8948
37.9529
38.011
38.0691
38.1273
38.1854
38.2435
38.3016
38.3598
38.4179
38.476
38.5341
38.5922
38.6504
38.7085
38.7666
38.8247
38.8828
38.941
38.9991
39.0572
39.1153
39.1734
39.2316
39.2897
39.3478
39.4059
39.464
39.5221
39.5802
39.6384
39.6965
39.7546
39.8127
39.8708
39.9289
39.987
40.0451
40.1032
40.1614
40.2195
40.2776
40.3357
40.3938
40.4519
40.51
40.5681
40.6262
40.6843
40.7424
40.8005
40.8586
40.9167
40.9748
41.0329
41.091
41.1491
41.2072
41.2653
41.3234
41.3815
41.4396
41.4977
41.5558
41.6139
41.672
41.7301
41.7882
41.8463
41.9044
41.9625
42.0206
42.0787
42.1368
42.1949
42.253
42.3111
42.3692
42.4273
42.4854
42.5434
42.6015
42.6596
42.7177
42.7758
42.8339
42.892
42.9501
43.0081
43.0662
43.1243
43.1824
43.2405
43.2986
43.3567
43.4147
43.4728
43.5309
43.589
43.6471
43.7051
43.7632
43.8213
43.8794
43.9375
43.9955
44.0536
44.1117
44.1698
44.2278
44.2859
44.344
44.4021
44.4601
44.5182
44.5763
44.6344
44.6924
44.7505
44.8086
44.8667
44.9247
44.9828
45.0409
45.0989
45.157
45.2151
45.2731
45.3312
45.3893
45.4473
45.5054
45.5635
45.6215
45.6796
45.7377
45.7957
45.8538
45.9118
45.9699
46.028
46.086
46.1441
46.2021
46.2602
46.3183
46.3763
46.4344
46.4924
46.5505
46.6086
46.6666
46.7247
46.7827
46.8408
46.8988
46.9569
47.0149
47.073
47.131
47.1891
47.2471
47.3052
47.3632
47.4213
47.4793
47.5374
47.5954
47.6535
47.7115
47.7696
47.8276
47.8857
47.9437
48.0017
48.0598
48.1178
48.1759
48.2339
48.292
48.35
48.408
48.4661
48.5241
48.5821
48.6402
48.6982
48.7563
48.8143
48.8723
48.9304
48.9884
49.0464
49.1045
49.1625
49.2205
49.2786
49.3366
49.3946
49.4527
49.5107
49.5687
49.6268
49.6848
49.7428
49.8008
49.8589
49.9169
49.9749
50.0329
50.091
50.149
50.207
50.265
50.3231
50.3811
50.4391
50.4971
50.5551
50.6132
50.6712
50.7292
50.7872
50.8452
50.9033
50.9613
51.0193
51.0773
51.1353
51.1933
51.2513
51.3094
51.3674
51.4254
51.4834
51.5414
51.5994
51.6574
51.7154
51.7735
51.8315
51.8895
51.9475
52.0055
52.0635
52.1215
52.1795
52.2375
52.2955
52.3535
52.4115
52.4695
52.5275
52.5855
52.6435
52.7015
52.7595
52.8175
52.8755
52.9335
52.9915
53.0495
53.1075
53.1655
53.2235
53.2815
53.3395
53.3975
53.4555
53.5135
53.5715
53.6295
53.6875
53.7454
53.8034
53.8614
53.9194
53.9774
54.0354
54.0934
54.1514
54.2093
54.2673
54.3253
54.3833
54.4413
54.4993
54.5573
54.6152
54.6732
54.7312
54.7892
54.8472
54.9051
54.9631
55.0211
55.0791
55.137
55.195
55.253
55.311
55.369
55.4269
55.4849
55.5429
55.6008
55.6588
55.7168
55.7748
55.8327
55.8907
55.9487
56.0066
56.0646
56.1226
56.1805
56.2385
56.2965
56.3544
56.4124
56.4704
56.5283
56.5863
56.6443
56.7022
56.7602
56.8181
56.8761
56.9341
56.992
57.05
57.1079
57.1659
57.2238
57.2818
57.3398
57.3977
57.4557
57.5136
57.5716
57.6295
57.6875
57.7454
57.8034
57.8613
57.9193
57.9772
58.0352
58.0931
58.1511
58.209
58.267
58.3249
58.3829
58.4408
58.4987
58.5567
58.6146
58.6726
58.7305
58.7884
58.8464
58.9043
58.9623
59.0202
59.0781
59.1361
59.194
59.252
59.3099
59.3678
59.4258
59.4837
59.5416
59.5996
59.6575
59.7154
59.7733
59.8313
59.8892
59.9471
60.0051
60.063
60.1209
60.1788
60.2368
60.2947
60.3526
60.4105
60.4685
60.5264
60.5843
60.6422
60.7002
60.7581
60.816
60.8739
60.9318
60.9897
61.0477
61.1056
61.1635
61.2214
61.2793
61.3372
61.3952
61.4531
61.511
61.5689
61.6268
61.6847
61.7426
61.8005
61.8584
61.9163
61.9743
62.0322
62.0901
62.148
62.2059
62.2638
62.3217
62.3796
62.4375
62.4954
62.5533
62.6112
62.6691
62.727
62.7849
62.8428
62.9007
62.9586
63.0165
63.0744
63.1323
63.1902
63.2481
63.3059
63.3638
63.4217
63.4796
63.5375
63.5954
63.6533
63.7112
63.7691
63.8269
63.8848
63.9427
64.0006
64.0585
64.1164
64.1743
64.2321
64.29
64.3479
64.4058
64.4637
64.5215
64.5794
64.6373
64.6952
64.7531
64.8109
64.8688
64.9267
64.9846
65.0424
65.1003
65.1582
65.2161
65.2739
65.3318
65.3897
65.4475
65.5054
65.5633
65.6211
65.679
65.7369
65.7947
65.8526
65.9105
65.9683
66.0262
66.0841
66.1419
66.1998
66.2576
66.3155
66.3734
66.4312
66.4891
66.5469
66.6048
66.6626
66.7205
66.7783
66.8362
66.8941
66.9519
67.0098
67.0676
67.1255
67.1833
67.2412
67.299
67.3569
67.4147
67.4726
67.5304
67.5882
67.6461
67.7039
67.7618
67.8196
67.8775
67.9353
67.9931
68.051
68.1088
68.1667
68.2245
68.2823
68.3402
68.398
68.4558
68.5137
68.5715
68.6293
68.6872
68.745
68.8028
68.8607
68.9185
68.9763
69.0342
69.092
69.1498
69.2076
69.2655
69.3233
69.3811
69.4389
69.4968
69.5546
69.6124
69.6702
69.7281
69.7859
69.8437
69.9015
69.9593
70.0172
70.075
70.1328
70.1906
70.2484
70.3062
70.364
70.4219
70.4797
70.5375
70.5953
70.6531
70.7109
70.7687
70.8265
70.8843
70.9421
70.9999
71.0577
71.1156
71.1734
71.2312
71.289
71.3468
71.4046
71.4624
71.5202
71.578
71.6358
71.6936
71.7514
71.8092
71.8669
71.9247
71.9825
72.0403
72.0981
72.1559
72.2137
72.2715
72.3293
72.3871
72.4449
72.5027
72.5604
72.6182
72.676
72.7338
72.7916
72.8494
72.9071
72.9649
73.0227
73.0805
73.1383
73.1961
73.2538
73.3116
73.3694
73.4272
73.4849
73.5427
73.6005
73.6583
73.716
73.7738
73.8316
73.8894
73.9471
74.0049
74.0627
74.1204
74.1782
74.236
74.2937
74.3515
74.4093
74.467
74.5248
74.5826
74.6403
74.6981
74.7558
74.8136
74.8714
74.9291
74.9869
75.0446
75.1024
75.1601
75.2179
75.2756
75.3334
75.3912
75.4489
75.5067
75.5644
75.6222
75.6799
75.7377
75.7954
75.8531
75.9109
75.9686
76.0264
76.0841
76.1419
76.1996
76.2574
76.3151
76.3728
76.4306
76.4883
76.5461
76.6038
76.6615
76.7193
76.777
76.8347
76.8925
76.9502
77.0079
77.0657
77.1234
77.1811
77.2389
77.2966
77.3543
77.412
77.4698
77.5275
77.5852
77.6429
77.7007
77.7584
77.8161
77.8738
77.9316
77.9893
78.047
78.1047
78.1624
78.2201
78.2779
78.3356
78.3933
78.451
78.5087
78.5664
78.6241
78.6819
78.7396
78.7973
78.855
78.9127
78.9704
79.0281
79.0858
79.1435
79.2012
79.2589
79.3166
79.3743
79.432
79.4897
79.5474
79.6051
79.6628
79.7205
79.7782
79.8359
79.8936
79.9513
80.009
80.0667
80.1244
80.1821
80.2398
80.2975
80.3552
80.4128
80.4705
80.5282
80.5859
80.6436
80.7013
80.759
80.8166
80.8743
80.932
80.9897
81.0474
81.105
81.1627
81.2204
81.2781
81.3358
81.3934
81.4511
81.5088
81.5665
81.6241
81.6818
81.7395
81.7971
81.8548
81.9125
81.9701
82.0278
82.0855
82.1431
82.2008
82.2585
82.3161
82.3738
82.4315
82.4891
82.5468
82.6044
82.6621
82.7198
82.7774
82.8351
82.8927
82.9504
83.008
83.0657
83.1233
83.181
83.2387
83.2963
83.354
83.4116
83.4692
83.5269
83.5845
83.6422
83.6998
83.7575
83.8151
83.8728
83.9304
83.988
84.0457
84.1033
84.161
84.2186
84.2762
84.3339
84.3915
84.4491
84.5068
84.5644
84.622
84.6797
84.7373
84.7949
84.8526
84.9102
84.9678
85.0255
85.0831
85.1407
85.1983
85.256
85.3136
85.3712
85.4288
85.4864
85.5441
85.6017
85.6593
85.7169
85.7745
85.8321
85.8898
85.9474
86.005
86.0626
86.1202
86.1778
86.2354
86.293
86.3507
86.4083
86.4659
86.5235
86.5811
86.6387
86.6963
86.7539
86.8115
86.8691
86.9267
86.9843
87.0419
87.0995
87.1571
87.2147
87.2723
87.3299
87.3875
87.4451
87.5027
87.5603
87.6178
87.6754
87.733
87.7906
87.8482
87.9058
87.9634
88.021
88.0785
88.1361
88.1937
88.2513
88.3089
88.3665
88.424
88.4816
88.5392
88.5968
88.6543
88.7119
88.7695
88.8271
88.8846
88.9422
88.9998
89.0574
89.1149
89.1725
89.2301
89.2876
89.3452
89.4028
89.4603
89.5179
89.5755
89.633
89.6906
89.7481
89.8057
89.8633
89.9208
89.9784
90.0359
90.0935
90.151
90.2086
90.2662
90.3237
90.3813
90.4388
90.4964
90.5539
90.6115
90.669
90.7266
90.7841
90.8416
90.8992
90.9567
91.0143
91.0718
91.1294
91.1869
91.2444
91.302
91.3595
91.417
91.4746
91.5321
91.5897
91.6472
91.7047
91.7623
91.8198
91.8773
91.9348
91.9924
92.0499
92.1074
92.1649
92.2225
92.28
92.3375
92.395
92.4526
92.5101
92.5676
92.6251
92.6826
92.7402
92.7977
92.8552
92.9127
92.9702
93.0277
93.0852
93.1428
93.2003
93.2578
93.3153
93.3728
93.4303
93.4878
93.5453
93.6028
93.6603
93.7178
93.7753
93.8328
93.8903
93.9478
94.0053
94.0628
94.1203
94.1778
94.2353
94.2928
94.3503
94.4078
94.4653
94.5228
94.5803
94.6378
94.6952
94.7527
94.8102
94.8677
94.9252
94.9827
95.0402
95.0976
95.1551
95.2126
95.2701
95.3276
95.385
95.4425
95.5
95.5575
95.6149
95.6724
95.7299
95.7874
95.8448
95.9023
95.9598
96.0172
96.0747
96.1322
96.1896
96.2471
96.3046
96.362
96.4195
96.477
96.5344
96.5919
96.6493
96.7068
96.7643
96.8217
96.8792
96.9366
96.9941
97.0515
97.109
97.1664
97.2239
97.2813
97.3388
97.3962
97.4537
97.5111
97.5686
97.626
97.6834
97.7409
97.7983
97.8558
97.9132
97.9706
98.0281
98.0855
98.143
98.2004
98.2578
98.3153
98.3727
98.4301
98.4876
98.545
98.6024
98.6598
98.7173
98.7747
98.8321
98.8895
98.947
99.0044
99.0618
99.1192
99.1767
99.2341
99.2915
99.3489
99.4063
99.4637
99.5212
99.5786
99.636
99.6934
99.7508
99.8082
99.8656
99.923
99.9804
100.038
100.095
100.153
100.21
100.267
100.325
100.382
100.44
100.497
100.554
100.612
100.669
100.727
100.784
100.841
100.899
100.956
101.014
101.071
101.128
101.186
101.243
101.301
101.358
101.415
101.473
101.53
101.587
101.645
101.702
101.76
101.817
101.874
101.932
101.989
102.046
102.104
102.161
102.219
102.276
102.333
102.391
102.448
102.505
102.563
102.62
102.678
102.735
102.792
102.85
102.907
102.964
103.022
103.079
103.136
103.194
103.251
103.309
103.366
103.423
103.481
103.538
103.595
103.653
103.71
103.767
103.825
103.882
103.939
103.997
104.054
104.111
104.169
104.226
104.283
104.341
104.398
104.455
104.513
104.57
104.627
104.685
104.742
104.799
104.857
104.914
104.971
105.029
105.086
105.143
105.201
105.258
105.315
105.373
105.43
105.487
105.545
105.602
105.659
105.717
105.774
105.831
105.888
105.946
106.003
106.06
106.118
106.175
106.232
106.29
106.347
106.404
106.462
106.519
106.576
106.633
106.691
106.748
106.805
106.863
106.92
106.977
107.035
107.092
107.149
107.206
107.264
107.321
107.378
107.436
107.493
107.55
107.607
107.665
107.722
107.779
107.837
107.894
107.951
108.008
108.066
108.123
108.18
108.237
108.295
108.352
108.409
108.467
108.524
108.581
108.638
108.696
108.753
108.81
108.867
108.925
108.982
109.039
109.096
109.154
109.211
109.268
109.325
109.383
109.44
109.497
109.554
109.612
109.669
109.726
109.783
109.841
109.898
109.955
110.012
110.07
110.127
110.184
110.241
110.299
110.356
110.413
110.47
110.528
110.585
110.642
110.699
110.756
110.814
110.871
110.928
110.985
111.043
111.1
111.157
111.214
111.272
111.329
111.386
111.443
111.5
111.558
111.615
111.672
111.729
111.786
111.844
111.901
111.958
112.015
112.073
112.13
112.187
112.244
112.301
112.359
112.416
112.473
112.53
112.587
112.645
112.702
112.759
112.816
112.873
112.93
112.988
113.045
113.102
113.159
113.216
113.274
113.331
113.388
113.445
113.502
113.56
113.617
113.674
113.731
113.788
113.845
113.903
113.96
114.017
114.074
114.131
114.188
114.246
114.303
114.36
114.417
114.474
114.531
114.589
114.646
114.703
114.76
114.817
114.874
114.932
114.989
115.046
115.103
115.16
115.217
115.274
115.332
115.389
115.446
115.503
115.56
115.617
115.675
115.732
115.789
115.846
115.903
115.96
116.017
116.074
116.132
116.189
116.246
116.303
116.36
116.417
116.474
116.532
116.589
116.646
116.703
116.76
116.817
116.874
116.931
116.989
117.046
117.103
117.16
117.217
117.274
117.331
117.388
117.445
117.503
117.56
117.617
117.674
117.731
117.788
117.845
117.902
117.959
118.017
118.074
118.131
118.188
118.245
118.302
118.359
118.416
118.473
118.53
118.587
118.645
118.702
118.759
118.816
118.873
118.93
118.987
119.044
119.101
119.158
119.215
119.272
119.33
119.387
119.444
119.501
119.558
119.615
119.672
119.729
119.786
119.843
119.9
119.957
120.014
120.071
120.129
120.186
120.243
120.3
120.357
120.414
120.471
120.528
120.585
120.642
120.699
120.756
120.813
120.87
120.927
120.984
121.041
121.098
121.155
121.213
121.27
121.327
121.384
121.441
121.498
121.555
121.612
121.669
121.726
121.783
121.84
121.897
121.954
122.011
122.068
122.125
122.182
122.239
122.296
122.353
122.41
122.467
122.524
122.581
122.638
122.695
122.752
122.809
122.866
122.923
122.98
123.037
123.094
123.151
123.208
123.265
123.322
123.379
123.436
123.493
123.55
123.607
123.664
123.721
123.778
123.835
123.892
123.949
124.006
124.063
124.12
124.177
124.234
124.291
124.348
124.405
124.462
124.519
124.576
124.633
124.69
124.747
124.804
124.861
124.918
124.975
125.032
125.089
125.146
125.203
125.26
125.317
125.374
125.431
125.488
125.545
125.602
125.658
125.715
125.772
125.829
125.886
125.943
126
126.057
126.114
126.171
126.228
126.285
126.342
126.399
126.456
126.513
126.57
126.627
126.684
126.74
126.797
126.854
126.911
126.968
127.025
127.082
127.139
127.196
127.253
127.31
127.367
127.424
127.481
127.537
127.594
127.651
127.708
127.765
127.822
127.879
127.936
127.993
128.05
128.107
128.163
128.22
128.277
128.334
128.391
128.448
128.505
128.562
128.619
128.676
128.733
128.789
128.846
128.903
128.96
129.017
129.074
129.131
129.188
129.245
129.301
129.358
129.415
129.472
129.529
129.586
129.643
129.7
129.756
129.813
129.87
129.927
129.984
130.041
130.098
130.155
130.211
130.268
130.325
130.382
130.439
130.496
130.553
130.609
130.666
130.723
130.78
130.837
130.894
130.951
131.007
131.064
131.121
131.178
131.235
131.292
131.349
131.405
131.462
131.519
131.576
131.633
131.69
131.746
131.803
131.86
131.917
131.974
132.031
132.087
132.144
132.201
132.258
132.315
132.372
132.428
132.485
132.542
132.599
132.656
132.712
132.769
132.826
132.883
132.94
132.997
133.053
133.11
133.167
133.224
133.281
133.337
133.394
133.451
133.508
133.565
133.621
133.678
133.735
133.792
133.849
133.905
133.962
134.019
134.076
134.133
134.189
134.246
134.303
134.36
134.416
134.473
134.53
134.587
134.644
134.7
134.757
134.814
134.871
134.927
134.984
135.041
135.098
135.155
135.211
135.268
135.325
135.382
135.438
135.495
135.552
135.609
135.665
135.722
135.779
135.836
135.892
135.949
136.006
136.063
136.119
136.176
136.233
136.29
136.346
136.403
136.46
136.517
136.573
136.63
136.687
136.744
136.8
136.857
136.914
136.97
137.027
137.084
137.141
137.197
137.254
137.311
137.368
137.424
137.481
137.538
137.594
137.651
137.708
137.765
137.821
137.878
137.935
137.991
138.048
138.105
138.161
138.218
138.275
138.332
138.388
138.445
138.502
138.558
138.615
138.672
138.728
138.785
138.842
138.899
138.955
139.012
139.069
139.125
139.182
139.239
139.295
139.352
139.409
139.465
139.522
139.579
139.635
139.692
139.749
139.805
139.862
139.919
139.975
140.032
140.089
140.145
140.202
140.259
140.315
140.372
140.429
140.485
140.542
140.599
140.655
140.712
140.769
140.825
140.882
140.938
140.995
141.052
141.108
141.165
141.222
141.278
141.335
141.392
141.448
141.505
141.561
141.618
141.675
141.731
141.788
141.845
141.901
141.958
142.014
142.071
142.128
142.184
142.241
142.298
142.354
142.411
142.467
142.524
142.581
142.637
142.694
142.75
142.807
142.864
142.92
142.977
143.033
143.09
143.147
143.203
143.26
143.316
143.373
143.43
143.486
143.543
143.599
143.656
143.713
143.769
143.826
143.882
143.939
143.995
144.052
144.109
144.165
144.222
144.278
144.335
144.391
144.448
144.505
144.561
144.618
144.674
144.731
144.787
144.844
144.9
144.957
145.014
145.07
145.127
145.183
145.24
145.296
145.353
145.409
145.466
145.523
145.579
145.636
145.692
145.749
145.805
145.862
145.918
145.975
146.031
146.088
146.144
146.201
146.257
146.314
146.37
146.427
146.484
146.54
146.597
146.653
146.71
146.766
146.823
146.879
146.936
146.992
147.049
147.105
147.162
147.218
147.275
147.331
147.388
147.444
147.501
147.557
147.614
147.67
147.727
147.783
147.84
147.896
147.953
148.009
148.066
148.122
148.179
148.235
148.292
148.348
148.404
148.461
148.517
148.574
148.63
148.687
148.743
148.8
148.856
148.913
148.969
149.026
149.082
149.139
149.195
149.251
149.308
149.364
149.421
149.477
149.534
149.59
149.647
149.703
149.76
149.816
149.872
149.929
149.985
150.042
150.098
150.155
150.211
150.268
150.324
150.38
150.437
150.493
150.55
150.606
150.663
150.719
150.775
150.832
150.888
150.945
151.001
151.057
151.114
151.17
151.227
151.283
151.34
151.396
151.452
151.509
151.565
151.622
151.678
151.734
151.791
151.847
151.904
151.96
152.016
152.073
152.129
152.185
152.242
152.298
152.355
152.411
152.467
152.524
152.58
152.637
152.693
152.749
152.806
152.862
152.918
152.975
153.031
153.088
153.144
153.2
153.257
153.313
153.369
153.426
153.482
153.538
153.595
153.651
153.707
153.764
153.82
153.877
153.933
153.989
154.046
154.102
154.158
154.215
154.271
154.327
154.384
154.44
154.496
154.553
154.609
154.665
154.722
154.778
154.834
154.891
154.947
155.003
155.06
155.116
155.172
155.229
155.285
155.341
155.397
155.454
155.51
155.566
155.623
155.679
155.735
155.792
155.848
155.904
155.961
156.017
156.073
156.129
156.186
156.242
156.298
156.355
156.411
156.467
156.523
156.58
156.636
156.692
156.749
156.805
156.861
156.917
156.974
157.03
157.086
157.142
157.199
157.255
157.311
157.368
157.424
157.48
157.536
157.593
157.649
157.705
157.761
157.818
157.874
157.93
157.986
158.043
158.099
158.155
158.211
158.268
158.324
158.38
158.436
158.493
158.549
158.605
158.661
158.717
158.774
158.83
158.886
158.942
158.999
159.055
159.111
159.167
159.223
159.28
159.336
159.392
159.448
159.505
159.561
159.617
159.673
159.729
159.786
159.842
159.898
159.954
160.01
160.067
160.123
160.179
160.235
160.291
160.348
160.404
160.46
160.516
160.572
160.628
160.685
160.741
160.797
160.853
160.909
160.966
161.022
161.078
161.134
161.19
161.246
161.303
161.359
161.415
161.471
161.527
161.583
161.64
161.696
161.752
161.808
161.864
161.92
161.976
162.033
162.089
162.145
162.201
162.257
162.313
162.369
162.426
162.482
162.538
162.594
162.65
162.706
162.762
162.818
162.875
162.931
162.987
163.043
163.099
163.155
163.211
163.267
163.324
163.38
163.436
163.492
163.548
163.604
163.66
163.716
163.772
163.829
163.885
163.941
163.997
164.053
164.109
164.165
164.221
164.277
164.333
164.389
164.446
164.502
164.558
164.614
164.67
164.726
164.782
164.838
164.894
164.95
165.006
165.062
165.118
165.175
165.231
165.287
165.343
165.399
165.455
165.511
165.567
165.623
165.679
165.735
165.791
165.847
165.903
165.959
166.015
166.071
166.127
166.183
166.24
166.296
166.352
166.408
166.464
166.52
166.576
166.632
166.688
166.744
166.8
166.856
166.912
166.968
167.024
167.08
167.136
167.192
167.248
167.304
167.36
167.416
167.472
167.528
167.584
167.64
167.696
167.752
167.808
167.864
167.92
167.976
168.032
168.088
168.144
168.2
168.256
168.312
168.368
168.424
168.48
168.536
168.592
168.648
168.704
168.76
168.816
168.872
168.928
168.984
169.04
169.095
169.151
169.207
169.263
169.319
169.375
169.431
169.487
169.543
169.599
169.655
169.711
169.767
169.823
169.879
169.935
169.991
170.047
170.103
170.158
170.214
170.27
170.326
170.382
170.438
170.494
170.55
170.606
170.662
170.718
170.774
170.83
170.885
170.941
170.997
171.053
171.109
171.165
171.221
171.277
171.333
171.389
171.445
171.5
171.556
171.612
171.668
171.724
171.78
171.836
171.892
171.948
172.003
172.059
172.115
172.171
172.227
172.283
172.339
172.395
172.45
172.506
172.562
172.618
172.674
172.73
172.786
172.841
172.897
172.953
173.009
173.065
173.121
173.177
173.232
173.288
173.344
173.4
173.456
173.512
173.567
173.623
173.679
173.735
173.791
173.847
173.902
173.958
174.014
174.07
174.126
174.182
174.237
174.293
174.349
174.405
174.461
174.517
174.572
174.628
174.684
174.74
174.796
174.851
174.907
174.963
175.019
175.075
175.13
175.186
175.242
175.298
175.354
175.409
175.465
175.521
175.577
175.632
175.688
175.744
175.8
175.856
175.911
175.967
176.023
176.079
176.134
176.19
176.246
176.302
176.357
176.413
176.469
176.525
176.58
176.636
176.692
176.748
176.803
176.859
176.915
176.971
177.026
177.082
177.138
177.194
177.249
177.305
177.361
177.417
177.472
177.528
177.584
177.639
177.695
177.751
177.807
177.862
177.918
177.974
178.029
178.085
178.141
178.197
178.252
178.308
178.364
178.419
178.475
178.531
178.586
178.642
178.698
178.754
178.809
178.865
178.921
178.976
179.032
179.088
179.143
179.199
179.255
179.31
179.366
179.422
179.477
179.533
179.589
179.644
179.7
179.756
179.811
179.867
179.923
179.978
180.034
180.09
180.145
180.201
180.257
180.312
180.368
180.423
180.479
180.535
180.59
180.646
180.702
180.757
180.813
180.869
180.924
180.98
181.035
181.091
181.147
181.202
181.258
181.313
181.369
181.425
181.48
181.536
181.592
181.647
181.703
181.758
181.814
181.87
181.925
181.981
182.036
182.092
182.147
182.203
182.259
182.314
182.37
182.425
182.481
182.537
182.592
182.648
182.703
182.759
182.814
182.87
182.926
182.981
183.037
183.092
183.148
183.203
183.259
183.314
183.37
183.426
183.481
183.537
183.592
183.648
183.703
183.759
183.814
183.87
183.925
183.981
184.036
184.092
184.148
184.203
184.259
184.314
184.37
184.425
184.481
184.536
184.592
184.647
184.703
184.758
184.814
184.869
184.925
184.98
185.036
185.091
185.147
185.202
185.258
185.313
185.369
185.424
185.48
185.535
185.591
185.646
185.702
185.757
185.813
185.868
185.923
185.979
186.034
186.09
186.145
186.201
186.256
186.312
186.367
186.423
186.478
186.534
186.589
186.644
186.7
186.755
186.811
186.866
186.922
186.977
187.033
187.088
187.143
187.199
187.254
187.31
187.365
187.421
187.476
187.531
187.587
187.642
187.698
187.753
187.808
187.864
187.919
187.975
188.03
188.085
188.141
188.196
188.252
188.307
188.362
188.418
188.473
188.529
188.584
188.639
188.695
188.75
188.805
188.861
188.916
188.972
189.027
189.082
189.138
189.193
189.248
189.304
189.359
189.415
189.47
189.525
189.581
189.636
189.691
189.747
189.802
189.857
189.913
189.968
190.023
190.079
190.134
190.189
190.245
190.3
190.355
190.411
190.466
190.521
190.577
190.632
190.687
190.743
190.798
190.853
190.908
190.964
191.019
191.074
191.13
191.185
191.24
191.296
191.351
191.406
191.461
191.517
191.572
191.627
191.683
191.738
191.793
191.848
191.904
191.959
192.014
192.07
192.125
192.18
192.235
192.291
192.346
192.401
192.456
192.512
192.567
192.622
192.677
192.733
192.788
192.843
192.898
192.954
193.009
193.064
193.119
193.174
193.23
193.285
193.34
193.395
193.451
193.506
193.561
193.616
193.671
193.727
193.782
193.837
193.892
193.947
194.003
194.058
194.113
194.168
194.223
194.279
194.334
194.389
194.444
194.499
194.555
194.61
194.665
194.72
194.775
194.83
194.886
194.941
194.996
195.051
195.106
195.161
195.217
195.272
195.327
195.382
195.437
195.492
195.547
195.603
195.658
195.713
195.768
195.823
195.878
195.933
195.989
196.044
196.099
196.154
196.209
196.264
196.319
196.374
196.43
196.485
196.54
196.595
196.65
196.705
196.76
196.815
196.87
196.925
196.981
197.036
197.091
197.146
197.201
197.256
197.311
197.366
197.421
197.476
197.531
197.586
197.642
197.697
197.752
197.807
197.862
197.917
197.972
198.027
198.082
198.137
198.192
198.247
198.302
198.357
198.412
198.467
198.522
198.577
198.632
198.687
198.742
198.797
198.852
198.907
198.963
199.018
199.073
199.128
199.183
199.238
199.293
199.348
199.403
199.458
199.513
199.568
199.623
199.678
199.733
199.788
199.843
199.897
199.952
200.007
200.062
200.117
200.172
200.227
200.282
200.337
200.392
200.447
200.502
200.557
200.612
200.667
200.722
200.777
200.832
200.887
200.942
200.997
201.052
201.107
201.161
201.216
201.271
201.326
201.381
201.436
201.491
201.546
201.601
201.656
201.711
201.766
201.82
201.875
201.93
201.985
202.04
202.095
202.15
202.205
202.26
202.314
202.369
202.424
202.479
202.534
202.589
202.644
202.699
202.753
202.808
202.863
202.918
202.973
203.028
203.083
203.137
203.192
203.247
203.302
203.357
203.412
203.466
203.521
203.576
203.631
203.686
203.741
203.795
203.85
203.905
203.96
204.015
204.069
204.124
204.179
204.234
204.289
204.343
204.398
204.453
204.508
204.563
204.617
204.672
204.727
204.782
204.837
204.891
204.946
205.001
205.056
205.11
205.165
205.22
205.275
205.329
205.384
205.439
205.494
205.548
205.603
205.658
205.713
205.767
205.822
205.877
205.932
205.986
206.041
206.096
206.15
206.205
206.26
206.315
206.369
206.424
206.479
206.533
206.588
206.643
206.697
206.752
206.807
206.861
206.916
206.971
207.025
207.08
207.135
207.189
207.244
207.299
207.353
207.408
207.463
207.517
207.572
207.627
207.681
207.736
207.791
207.845
207.9
207.955
208.009
208.064
208.118
208.173
208.228
208.282
208.337
208.391
208.446
208.501
208.555
208.61
208.664
208.719
208.774
208.828
208.883
208.937
208.992
209.047
209.101
209.156
209.21
209.265
209.319
209.374
209.428
209.483
209.538
209.592
209.647
209.701
209.756
209.81
209.865
209.919
209.974
210.028
210.083
210.137
210.192
210.246
210.301
210.355
210.41
210.464
210.519
210.573
210.628
210.682
210.737
210.791
210.846
210.9
210.955
211.009
211.064
211.118
211.173
211.227
211.282
211.336
211.39
211.445
211.499
211.554
211.608
211.663
211.717
211.771
211.826
211.88
211.935
211.989
212.044
212.098
212.152
212.207
212.261
212.316
212.37
212.424
212.479
212.533
212.587
212.642
212.696
212.751
212.805
212.859
212.914
212.968
213.022
213.077
213.131
213.185
213.24
213.294
213.348
213.403
213.457
213.511
213.566
213.62
213.674
213.729
213.783
213.837
213.891
213.946
214
214.054
214.109
214.163
214.217
214.271
214.326
214.38
214.434
214.489
214.543
214.597
214.651
214.705
214.76
214.814
214.868
214.922
214.977
215.031
215.085
215.139
215.194
215.248
215.302
215.356
215.41
215.464
215.519
215.573
215.627
215.681
215.735
215.79
215.844
215.898
215.952
216.006
216.06
216.114
216.169
216.223
216.277
216.331
216.385
216.439
216.493