/*--------------------------------*- C++ -*----------------------------------*\
  =========                 |
  \\      /  F ield         | OpenFOAM: The Open Source CFD Toolbox
   \\    /   O peration     | Website:  https://openfoam.org
    \\  /    A nd           | Version:  9
     \\/     M anipulation  |
\*---------------------------------------------------------------------------*/
FoamFile
{
    format      ascii;
    class       volVectorField;
    location    "0.029";
    object      U;
}
// * * * * * * * * * * * * * * * * * * * * * * * * * * * * * * * * * * * * * //

dimensions      [0 1 -1 0 0 0 0];

internalField   nonuniform List<vector> 
10000
(
(3.97997 0 0)
(4.03786 0 0)
(4.09528 0 0)
(4.14274 0 0)
(4.18706 0 0)
(4.23211 0 0)
(4.27803 0 0)
(4.32413 0 0)
(4.37015 0 0)
(4.41609 0 0)
(4.46202 0 0)
(4.50795 0 0)
(4.5539 0 0)
(4.59985 0 0)
(4.64579 0 0)
(4.69174 0 0)
(4.73768 0 0)
(4.78363 0 0)
(4.82957 0 0)
(4.87552 0 0)
(4.92147 0 0)
(4.96742 0 0)
(5.01337 0 0)
(5.05931 0 0)
(5.10526 0 0)
(5.1512 0 0)
(5.19715 0 0)
(5.2431 0 0)
(5.28905 0 0)
(5.335 0 0)
(5.38095 0 0)
(5.4269 0 0)
(5.47285 0 0)
(5.5188 0 0)
(5.56475 0 0)
(5.6107 0 0)
(5.65664 0 0)
(5.70259 0 0)
(5.74854 0 0)
(5.79449 0 0)
(5.84044 0 0)
(5.8864 0 0)
(5.93235 0 0)
(5.97831 0 0)
(6.02427 0 0)
(6.07022 0 0)
(6.11618 0 0)
(6.16214 0 0)
(6.20809 0 0)
(6.25405 0 0)
(6.3 0 0)
(6.34596 0 0)
(6.39191 0 0)
(6.43787 0 0)
(6.48382 0 0)
(6.52977 0 0)
(6.57573 0 0)
(6.62169 0 0)
(6.66764 0 0)
(6.7136 0 0)
(6.75955 0 0)
(6.80551 0 0)
(6.85146 0 0)
(6.89742 0 0)
(6.94338 0 0)
(6.98933 0 0)
(7.03529 0 0)
(7.08125 0 0)
(7.12721 0 0)
(7.17316 0 0)
(7.21912 0 0)
(7.26508 0 0)
(7.31104 0 0)
(7.357 0 0)
(7.40296 0 0)
(7.44891 0 0)
(7.49487 0 0)
(7.54083 0 0)
(7.58679 0 0)
(7.63275 0 0)
(7.67871 0 0)
(7.72467 0 0)
(7.77063 0 0)
(7.8166 0 0)
(7.86256 0 0)
(7.90852 0 0)
(7.95448 0 0)
(8.00044 0 0)
(8.0464 0 0)
(8.09237 0 0)
(8.13833 0 0)
(8.18429 0 0)
(8.23025 0 0)
(8.27622 0 0)
(8.32218 0 0)
(8.36815 0 0)
(8.41411 0 0)
(8.46007 0 0)
(8.50604 0 0)
(8.552 0 0)
(8.59797 0 0)
(8.64393 0 0)
(8.6899 0 0)
(8.73586 0 0)
(8.78183 0 0)
(8.8278 0 0)
(8.87376 0 0)
(8.91973 0 0)
(8.9657 0 0)
(9.01166 0 0)
(9.05763 0 0)
(9.1036 0 0)
(9.14957 0 0)
(9.19553 0 0)
(9.2415 0 0)
(9.28747 0 0)
(9.33344 0 0)
(9.37941 0 0)
(9.42538 0 0)
(9.47135 0 0)
(9.51732 0 0)
(9.56329 0 0)
(9.60926 0 0)
(9.65523 0 0)
(9.7012 0 0)
(9.74717 0 0)
(9.79314 0 0)
(9.83911 0 0)
(9.88508 0 0)
(9.93105 0 0)
(9.97703 0 0)
(10.023 0 0)
(10.069 0 0)
(10.1149 0 0)
(10.1609 0 0)
(10.2069 0 0)
(10.2529 0 0)
(10.2988 0 0)
(10.3448 0 0)
(10.3908 0 0)
(10.4368 0 0)
(10.4827 0 0)
(10.5287 0 0)
(10.5747 0 0)
(10.6207 0 0)
(10.6666 0 0)
(10.7126 0 0)
(10.7586 0 0)
(10.8046 0 0)
(10.8505 0 0)
(10.8965 0 0)
(10.9425 0 0)
(10.9885 0 0)
(11.0344 0 0)
(11.0804 0 0)
(11.1264 0 0)
(11.1724 0 0)
(11.2184 0 0)
(11.2643 0 0)
(11.3103 0 0)
(11.3563 0 0)
(11.4023 0 0)
(11.4483 0 0)
(11.4942 0 0)
(11.5402 0 0)
(11.5862 0 0)
(11.6322 0 0)
(11.6782 0 0)
(11.7241 0 0)
(11.7701 0 0)
(11.8161 0 0)
(11.8621 0 0)
(11.9081 0 0)
(11.954 0 0)
(12 0 0)
(12.046 0 0)
(12.092 0 0)
(12.138 0 0)
(12.184 0 0)
(12.2299 0 0)
(12.2759 0 0)
(12.3219 0 0)
(12.3679 0 0)
(12.4139 0 0)
(12.4599 0 0)
(12.5059 0 0)
(12.5518 0 0)
(12.5978 0 0)
(12.6438 0 0)
(12.6898 0 0)
(12.7358 0 0)
(12.7818 0 0)
(12.8278 0 0)
(12.8737 0 0)
(12.9197 0 0)
(12.9657 0 0)
(13.0117 0 0)
(13.0577 0 0)
(13.1037 0 0)
(13.1497 0 0)
(13.1957 0 0)
(13.2416 0 0)
(13.2876 0 0)
(13.3336 0 0)
(13.3796 0 0)
(13.4256 0 0)
(13.4716 0 0)
(13.5176 0 0)
(13.5636 0 0)
(13.6096 0 0)
(13.6555 0 0)
(13.7015 0 0)
(13.7475 0 0)
(13.7935 0 0)
(13.8395 0 0)
(13.8855 0 0)
(13.9315 0 0)
(13.9775 0 0)
(14.0235 0 0)
(14.0695 0 0)
(14.1155 0 0)
(14.1615 0 0)
(14.2075 0 0)
(14.2535 0 0)
(14.2994 0 0)
(14.3454 0 0)
(14.3914 0 0)
(14.4374 0 0)
(14.4834 0 0)
(14.5294 0 0)
(14.5754 0 0)
(14.6214 0 0)
(14.6674 0 0)
(14.7134 0 0)
(14.7594 0 0)
(14.8054 0 0)
(14.8514 0 0)
(14.8974 0 0)
(14.9434 0 0)
(14.9894 0 0)
(15.0354 0 0)
(15.0814 0 0)
(15.1274 0 0)
(15.1734 0 0)
(15.2194 0 0)
(15.2654 0 0)
(15.3114 0 0)
(15.3574 0 0)
(15.4034 0 0)
(15.4494 0 0)
(15.4954 0 0)
(15.5414 0 0)
(15.5874 0 0)
(15.6334 0 0)
(15.6794 0 0)
(15.7254 0 0)
(15.7714 0 0)
(15.8174 0 0)
(15.8634 0 0)
(15.9094 0 0)
(15.9554 0 0)
(16.0014 0 0)
(16.0474 0 0)
(16.0934 0 0)
(16.1394 0 0)
(16.1854 0 0)
(16.2314 0 0)
(16.2774 0 0)
(16.3234 0 0)
(16.3694 0 0)
(16.4154 0 0)
(16.4614 0 0)
(16.5074 0 0)
(16.5534 0 0)
(16.5994 0 0)
(16.6454 0 0)
(16.6915 0 0)
(16.7375 0 0)
(16.7835 0 0)
(16.8295 0 0)
(16.8755 0 0)
(16.9215 0 0)
(16.9675 0 0)
(17.0135 0 0)
(17.0595 0 0)
(17.1055 0 0)
(17.1515 0 0)
(17.1975 0 0)
(17.2435 0 0)
(17.2896 0 0)
(17.3356 0 0)
(17.3816 0 0)
(17.4276 0 0)
(17.4736 0 0)
(17.5196 0 0)
(17.5656 0 0)
(17.6116 0 0)
(17.6576 0 0)
(17.7036 0 0)
(17.7497 0 0)
(17.7957 0 0)
(17.8417 0 0)
(17.8877 0 0)
(17.9337 0 0)
(17.9797 0 0)
(18.0257 0 0)
(18.0717 0 0)
(18.1178 0 0)
(18.1638 0 0)
(18.2098 0 0)
(18.2558 0 0)
(18.3018 0 0)
(18.3478 0 0)
(18.3938 0 0)
(18.4399 0 0)
(18.4859 0 0)
(18.5319 0 0)
(18.5779 0 0)
(18.6239 0 0)
(18.6699 0 0)
(18.7159 0 0)
(18.762 0 0)
(18.808 0 0)
(18.854 0 0)
(18.9 0 0)
(18.946 0 0)
(18.9921 0 0)
(19.0381 0 0)
(19.0841 0 0)
(19.1301 0 0)
(19.1761 0 0)
(19.2221 0 0)
(19.2682 0 0)
(19.3142 0 0)
(19.3602 0 0)
(19.4062 0 0)
(19.4522 0 0)
(19.4983 0 0)
(19.5443 0 0)
(19.5903 0 0)
(19.6363 0 0)
(19.6823 0 0)
(19.7284 0 0)
(19.7744 0 0)
(19.8204 0 0)
(19.8664 0 0)
(19.9124 0 0)
(19.9585 0 0)
(20.0045 0 0)
(20.0505 0 0)
(20.0965 0 0)
(20.1426 0 0)
(20.1886 0 0)
(20.2346 0 0)
(20.2806 0 0)
(20.3267 0 0)
(20.3727 0 0)
(20.4187 0 0)
(20.4647 0 0)
(20.5108 0 0)
(20.5568 0 0)
(20.6028 0 0)
(20.6488 0 0)
(20.6949 0 0)
(20.7409 0 0)
(20.7869 0 0)
(20.8329 0 0)
(20.879 0 0)
(20.925 0 0)
(20.971 0 0)
(21.0171 0 0)
(21.0631 0 0)
(21.1091 0 0)
(21.1551 0 0)
(21.2012 0 0)
(21.2472 0 0)
(21.2932 0 0)
(21.3392 0 0)
(21.3853 0 0)
(21.4313 0 0)
(21.4773 0 0)
(21.5234 0 0)
(21.5694 0 0)
(21.6154 0 0)
(21.6615 0 0)
(21.7075 0 0)
(21.7535 0 0)
(21.7996 0 0)
(21.8456 0 0)
(21.8916 0 0)
(21.9377 0 0)
(21.9837 0 0)
(22.0297 0 0)
(22.0757 0 0)
(22.1218 0 0)
(22.1678 0 0)
(22.2138 0 0)
(22.2599 0 0)
(22.3059 0 0)
(22.352 0 0)
(22.398 0 0)
(22.444 0 0)
(22.4901 0 0)
(22.5361 0 0)
(22.5821 0 0)
(22.6282 0 0)
(22.6742 0 0)
(22.7202 0 0)
(22.7663 0 0)
(22.8123 0 0)
(22.8583 0 0)
(22.9044 0 0)
(22.9504 0 0)
(22.9965 0 0)
(23.0425 0 0)
(23.0885 0 0)
(23.1346 0 0)
(23.1806 0 0)
(23.2266 0 0)
(23.2727 0 0)
(23.3187 0 0)
(23.3648 0 0)
(23.4108 0 0)
(23.4568 0 0)
(23.5029 0 0)
(23.5489 0 0)
(23.595 0 0)
(23.641 0 0)
(23.687 0 0)
(23.7331 0 0)
(23.7791 0 0)
(23.8252 0 0)
(23.8712 0 0)
(23.9173 0 0)
(23.9633 0 0)
(24.0093 0 0)
(24.0554 0 0)
(24.1014 0 0)
(24.1475 0 0)
(24.1935 0 0)
(24.2396 0 0)
(24.2856 0 0)
(24.3316 0 0)
(24.3777 0 0)
(24.4237 0 0)
(24.4698 0 0)
(24.5158 0 0)
(24.5619 0 0)
(24.6079 0 0)
(24.654 0 0)
(24.7 0 0)
(24.746 0 0)
(24.7921 0 0)
(24.8381 0 0)
(24.8842 0 0)
(24.9302 0 0)
(24.9763 0 0)
(25.0223 0 0)
(25.0684 0 0)
(25.1144 0 0)
(25.1605 0 0)
(25.2065 0 0)
(25.2526 0 0)
(25.2986 0 0)
(25.3447 0 0)
(25.3907 0 0)
(25.4368 0 0)
(25.4828 0 0)
(25.5289 0 0)
(25.5749 0 0)
(25.621 0 0)
(25.667 0 0)
(25.7131 0 0)
(25.7591 0 0)
(25.8052 0 0)
(25.8512 0 0)
(25.8973 0 0)
(25.9433 0 0)
(25.9894 0 0)
(26.0354 0 0)
(26.0815 0 0)
(26.1275 0 0)
(26.1736 0 0)
(26.2196 0 0)
(26.2657 0 0)
(26.3117 0 0)
(26.3578 0 0)
(26.4039 0 0)
(26.4499 0 0)
(26.496 0 0)
(26.542 0 0)
(26.5881 0 0)
(26.6341 0 0)
(26.6802 0 0)
(26.7262 0 0)
(26.7723 0 0)
(26.8183 0 0)
(26.8644 0 0)
(26.9105 0 0)
(26.9565 0 0)
(27.0026 0 0)
(27.0486 0 0)
(27.0947 0 0)
(27.1407 0 0)
(27.1868 0 0)
(27.2329 0 0)
(27.2789 0 0)
(27.325 0 0)
(27.371 0 0)
(27.4171 0 0)
(27.4632 0 0)
(27.5092 0 0)
(27.5553 0 0)
(27.6013 0 0)
(27.6474 0 0)
(27.6935 0 0)
(27.7395 0 0)
(27.7856 0 0)
(27.8316 0 0)
(27.8777 0 0)
(27.9238 0 0)
(27.9698 0 0)
(28.0159 0 0)
(28.062 0 0)
(28.108 0 0)
(28.1541 0 0)
(28.2001 0 0)
(28.2462 0 0)
(28.2923 0 0)
(28.3383 0 0)
(28.3844 0 0)
(28.4305 0 0)
(28.4765 0 0)
(28.5226 0 0)
(28.5687 0 0)
(28.6147 0 0)
(28.6608 0 0)
(28.7068 0 0)
(28.7529 0 0)
(28.799 0 0)
(28.845 0 0)
(28.8911 0 0)
(28.9372 0 0)
(28.9832 0 0)
(29.0293 0 0)
(29.0754 0 0)
(29.1214 0 0)
(29.1675 0 0)
(29.2136 0 0)
(29.2596 0 0)
(29.3057 0 0)
(29.3518 0 0)
(29.3979 0 0)
(29.4439 0 0)
(29.49 0 0)
(29.5361 0 0)
(29.5821 0 0)
(29.6282 0 0)
(29.6743 0 0)
(29.7203 0 0)
(29.7664 0 0)
(29.8125 0 0)
(29.8586 0 0)
(29.9046 0 0)
(29.9507 0 0)
(29.9968 0 0)
(30.0428 0 0)
(30.0889 0 0)
(30.135 0 0)
(30.1811 0 0)
(30.2271 0 0)
(30.2732 0 0)
(30.3193 0 0)
(30.3653 0 0)
(30.4114 0 0)
(30.4575 0 0)
(30.5036 0 0)
(30.5496 0 0)
(30.5957 0 0)
(30.6418 0 0)
(30.6879 0 0)
(30.7339 0 0)
(30.78 0 0)
(30.8261 0 0)
(30.8722 0 0)
(30.9182 0 0)
(30.9643 0 0)
(31.0104 0 0)
(31.0565 0 0)
(31.1026 0 0)
(31.1486 0 0)
(31.1947 0 0)
(31.2408 0 0)
(31.2869 0 0)
(31.3329 0 0)
(31.379 0 0)
(31.4251 0 0)
(31.4712 0 0)
(31.5173 0 0)
(31.5633 0 0)
(31.6094 0 0)
(31.6555 0 0)
(31.7016 0 0)
(31.7477 0 0)
(31.7937 0 0)
(31.8398 0 0)
(31.8859 0 0)
(31.932 0 0)
(31.9781 0 0)
(32.0241 0 0)
(32.0702 0 0)
(32.1163 0 0)
(32.1624 0 0)
(32.2085 0 0)
(32.2546 0 0)
(32.3006 0 0)
(32.3467 0 0)
(32.3928 0 0)
(32.4389 0 0)
(32.485 0 0)
(32.5311 0 0)
(32.5771 0 0)
(32.6232 0 0)
(32.6693 0 0)
(32.7154 0 0)
(32.7615 0 0)
(32.8076 0 0)
(32.8536 0 0)
(32.8997 0 0)
(32.9458 0 0)
(32.9919 0 0)
(33.038 0 0)
(33.0841 0 0)
(33.1302 0 0)
(33.1762 0 0)
(33.2223 0 0)
(33.2684 0 0)
(33.3145 0 0)
(33.3606 0 0)
(33.4067 0 0)
(33.4528 0 0)
(33.4989 0 0)
(33.545 0 0)
(33.591 0 0)
(33.6371 0 0)
(33.6832 0 0)
(33.7293 0 0)
(33.7754 0 0)
(33.8215 0 0)
(33.8676 0 0)
(33.9137 0 0)
(33.9598 0 0)
(34.0059 0 0)
(34.0519 0 0)
(34.098 0 0)
(34.1441 0 0)
(34.1902 0 0)
(34.2363 0 0)
(34.2824 0 0)
(34.3285 0 0)
(34.3746 0 0)
(34.4207 0 0)
(34.4668 0 0)
(34.5129 0 0)
(34.559 0 0)
(34.6051 0 0)
(34.6511 0 0)
(34.6972 0 0)
(34.7433 0 0)
(34.7894 0 0)
(34.8355 0 0)
(34.8816 0 0)
(34.9277 0 0)
(34.9738 0 0)
(35.0199 0 0)
(35.066 0 0)
(35.1121 0 0)
(35.1582 0 0)
(35.2043 0 0)
(35.2504 0 0)
(35.2965 0 0)
(35.3426 0 0)
(35.3887 0 0)
(35.4348 0 0)
(35.4809 0 0)
(35.527 0 0)
(35.5731 0 0)
(35.6192 0 0)
(35.6653 0 0)
(35.7114 0 0)
(35.7575 0 0)
(35.8036 0 0)
(35.8497 0 0)
(35.8958 0 0)
(35.9419 0 0)
(35.988 0 0)
(36.0341 0 0)
(36.0802 0 0)
(36.1263 0 0)
(36.1724 0 0)
(36.2185 0 0)
(36.2646 0 0)
(36.3107 0 0)
(36.3568 0 0)
(36.4029 0 0)
(36.449 0 0)
(36.4951 0 0)
(36.5412 0 0)
(36.5873 0 0)
(36.6334 0 0)
(36.6795 0 0)
(36.7256 0 0)
(36.7717 0 0)
(36.8178 0 0)
(36.8639 0 0)
(36.91 0 0)
(36.9561 0 0)
(37.0022 0 0)
(37.0483 0 0)
(37.0944 0 0)
(37.1406 0 0)
(37.1867 0 0)
(37.2328 0 0)
(37.2789 0 0)
(37.325 0 0)
(37.3711 0 0)
(37.4172 0 0)
(37.4633 0 0)
(37.5094 0 0)
(37.5555 0 0)
(37.6016 0 0)
(37.6477 0 0)
(37.6938 0 0)
(37.7399 0 0)
(37.7861 0 0)
(37.8322 0 0)
(37.8783 0 0)
(37.9244 0 0)
(37.9705 0 0)
(38.0166 0 0)
(38.0627 0 0)
(38.1088 0 0)
(38.1549 0 0)
(38.201 0 0)
(38.2472 0 0)
(38.2933 0 0)
(38.3394 0 0)
(38.3855 0 0)
(38.4316 0 0)
(38.4777 0 0)
(38.5238 0 0)
(38.5699 0 0)
(38.6161 0 0)
(38.6622 0 0)
(38.7083 0 0)
(38.7544 0 0)
(38.8005 0 0)
(38.8466 0 0)
(38.8927 0 0)
(38.9389 0 0)
(38.985 0 0)
(39.0311 0 0)
(39.0772 0 0)
(39.1233 0 0)
(39.1694 0 0)
(39.2155 0 0)
(39.2617 0 0)
(39.3078 0 0)
(39.3539 0 0)
(39.4 0 0)
(39.4461 0 0)
(39.4922 0 0)
(39.5384 0 0)
(39.5845 0 0)
(39.6306 0 0)
(39.6767 0 0)
(39.7228 0 0)
(39.769 0 0)
(39.8151 0 0)
(39.8612 0 0)
(39.9073 0 0)
(39.9534 0 0)
(39.9995 0 0)
(40.0457 0 0)
(40.0918 0 0)
(40.1379 0 0)
(40.184 0 0)
(40.2301 0 0)
(40.2763 0 0)
(40.3224 0 0)
(40.3685 0 0)
(40.4146 0 0)
(40.4608 0 0)
(40.5069 0 0)
(40.553 0 0)
(40.5991 0 0)
(40.6452 0 0)
(40.6914 0 0)
(40.7375 0 0)
(40.7836 0 0)
(40.8297 0 0)
(40.8759 0 0)
(40.922 0 0)
(40.9681 0 0)
(41.0142 0 0)
(41.0604 0 0)
(41.1065 0 0)
(41.1526 0 0)
(41.1987 0 0)
(41.2449 0 0)
(41.291 0 0)
(41.3371 0 0)
(41.3832 0 0)
(41.4294 0 0)
(41.4755 0 0)
(41.5216 0 0)
(41.5677 0 0)
(41.6139 0 0)
(41.66 0 0)
(41.7061 0 0)
(41.7522 0 0)
(41.7984 0 0)
(41.8445 0 0)
(41.8906 0 0)
(41.9368 0 0)
(41.9829 0 0)
(42.029 0 0)
(42.0751 0 0)
(42.1213 0 0)
(42.1674 0 0)
(42.2135 0 0)
(42.2597 0 0)
(42.3058 0 0)
(42.3519 0 0)
(42.3981 0 0)
(42.4442 0 0)
(42.4903 0 0)
(42.5365 0 0)
(42.5826 0 0)
(42.6287 0 0)
(42.6748 0 0)
(42.721 0 0)
(42.7671 0 0)
(42.8132 0 0)
(42.8594 0 0)
(42.9055 0 0)
(42.9516 0 0)
(42.9978 0 0)
(43.0439 0 0)
(43.09 0 0)
(43.1362 0 0)
(43.1823 0 0)
(43.2284 0 0)
(43.2746 0 0)
(43.3207 0 0)
(43.3669 0 0)
(43.413 0 0)
(43.4591 0 0)
(43.5053 0 0)
(43.5514 0 0)
(43.5975 0 0)
(43.6437 0 0)
(43.6898 0 0)
(43.7359 0 0)
(43.7821 0 0)
(43.8282 0 0)
(43.8744 0 0)
(43.9205 0 0)
(43.9666 0 0)
(44.0128 0 0)
(44.0589 0 0)
(44.105 0 0)
(44.1512 0 0)
(44.1973 0 0)
(44.2435 0 0)
(44.2896 0 0)
(44.3357 0 0)
(44.3819 0 0)
(44.428 0 0)
(44.4742 0 0)
(44.5203 0 0)
(44.5664 0 0)
(44.6126 0 0)
(44.6587 0 0)
(44.7049 0 0)
(44.751 0 0)
(44.7972 0 0)
(44.8433 0 0)
(44.8894 0 0)
(44.9356 0 0)
(44.9817 0 0)
(45.0279 0 0)
(45.074 0 0)
(45.1202 0 0)
(45.1663 0 0)
(45.2124 0 0)
(45.2586 0 0)
(45.3047 0 0)
(45.3509 0 0)
(45.397 0 0)
(45.4432 0 0)
(45.4893 0 0)
(45.5355 0 0)
(45.5816 0 0)
(45.6277 0 0)
(45.6739 0 0)
(45.72 0 0)
(45.7662 0 0)
(45.8123 0 0)
(45.8585 0 0)
(45.9046 0 0)
(45.9508 0 0)
(45.9969 0 0)
(46.0431 0 0)
(46.0892 0 0)
(46.1354 0 0)
(46.1815 0 0)
(46.2277 0 0)
(46.2738 0 0)
(46.32 0 0)
(46.3661 0 0)
(46.4123 0 0)
(46.4584 0 0)
(46.5046 0 0)
(46.5507 0 0)
(46.5969 0 0)
(46.643 0 0)
(46.6892 0 0)
(46.7353 0 0)
(46.7815 0 0)
(46.8276 0 0)
(46.8738 0 0)
(46.9199 0 0)
(46.9661 0 0)
(47.0122 0 0)
(47.0584 0 0)
(47.1045 0 0)
(47.1507 0 0)
(47.1968 0 0)
(47.243 0 0)
(47.2891 0 0)
(47.3353 0 0)
(47.3815 0 0)
(47.4276 0 0)
(47.4738 0 0)
(47.5199 0 0)
(47.5661 0 0)
(47.6122 0 0)
(47.6584 0 0)
(47.7045 0 0)
(47.7507 0 0)
(47.7968 0 0)
(47.843 0 0)
(47.8892 0 0)
(47.9353 0 0)
(47.9815 0 0)
(48.0276 0 0)
(48.0738 0 0)
(48.1199 0 0)
(48.1661 0 0)
(48.2123 0 0)
(48.2584 0 0)
(48.3046 0 0)
(48.3507 0 0)
(48.3969 0 0)
(48.4431 0 0)
(48.4892 0 0)
(48.5354 0 0)
(48.5815 0 0)
(48.6277 0 0)
(48.6739 0 0)
(48.72 0 0)
(48.7662 0 0)
(48.8123 0 0)
(48.8585 0 0)
(48.9047 0 0)
(48.9508 0 0)
(48.997 0 0)
(49.0431 0 0)
(49.0893 0 0)
(49.1355 0 0)
(49.1816 0 0)
(49.2278 0 0)
(49.274 0 0)
(49.3201 0 0)
(49.3663 0 0)
(49.4124 0 0)
(49.4586 0 0)
(49.5048 0 0)
(49.5509 0 0)
(49.5971 0 0)
(49.6433 0 0)
(49.6894 0 0)
(49.7356 0 0)
(49.7818 0 0)
(49.8279 0 0)
(49.8741 0 0)
(49.9203 0 0)
(49.9664 0 0)
(50.0126 0 0)
(50.0587 0 0)
(50.1049 0 0)
(50.1511 0 0)
(50.1972 0 0)
(50.2434 0 0)
(50.2896 0 0)
(50.3358 0 0)
(50.3819 0 0)
(50.4281 0 0)
(50.4743 0 0)
(50.5204 0 0)
(50.5666 0 0)
(50.6128 0 0)
(50.6589 0 0)
(50.7051 0 0)
(50.7513 0 0)
(50.7974 0 0)
(50.8436 0 0)
(50.8898 0 0)
(50.9359 0 0)
(50.9821 0 0)
(51.0283 0 0)
(51.0745 0 0)
(51.1206 0 0)
(51.1668 0 0)
(51.213 0 0)
(51.2591 0 0)
(51.3053 0 0)
(51.3515 0 0)
(51.3977 0 0)
(51.4438 0 0)
(51.49 0 0)
(51.5362 0 0)
(51.5824 0 0)
(51.6285 0 0)
(51.6747 0 0)
(51.7209 0 0)
(51.7671 0 0)
(51.8132 0 0)
(51.8594 0 0)
(51.9056 0 0)
(51.9517 0 0)
(51.9979 0 0)
(52.0441 0 0)
(52.0903 0 0)
(52.1365 0 0)
(52.1826 0 0)
(52.2288 0 0)
(52.275 0 0)
(52.3212 0 0)
(52.3673 0 0)
(52.4135 0 0)
(52.4597 0 0)
(52.5059 0 0)
(52.552 0 0)
(52.5982 0 0)
(52.6444 0 0)
(52.6906 0 0)
(52.7368 0 0)
(52.7829 0 0)
(52.8291 0 0)
(52.8753 0 0)
(52.9215 0 0)
(52.9677 0 0)
(53.0138 0 0)
(53.06 0 0)
(53.1062 0 0)
(53.1524 0 0)
(53.1986 0 0)
(53.2447 0 0)
(53.2909 0 0)
(53.3371 0 0)
(53.3833 0 0)
(53.4295 0 0)
(53.4756 0 0)
(53.5218 0 0)
(53.568 0 0)
(53.6142 0 0)
(53.6604 0 0)
(53.7066 0 0)
(53.7527 0 0)
(53.7989 0 0)
(53.8451 0 0)
(53.8913 0 0)
(53.9375 0 0)
(53.9837 0 0)
(54.0298 0 0)
(54.076 0 0)
(54.1222 0 0)
(54.1684 0 0)
(54.2146 0 0)
(54.2608 0 0)
(54.307 0 0)
(54.3531 0 0)
(54.3993 0 0)
(54.4455 0 0)
(54.4917 0 0)
(54.5379 0 0)
(54.5841 0 0)
(54.6303 0 0)
(54.6765 0 0)
(54.7226 0 0)
(54.7688 0 0)
(54.815 0 0)
(54.8612 0 0)
(54.9074 0 0)
(54.9536 0 0)
(54.9998 0 0)
(55.046 0 0)
(55.0922 0 0)
(55.1383 0 0)
(55.1845 0 0)
(55.2307 0 0)
(55.2769 0 0)
(55.3231 0 0)
(55.3693 0 0)
(55.4155 0 0)
(55.4617 0 0)
(55.5079 0 0)
(55.5541 0 0)
(55.6003 0 0)
(55.6464 0 0)
(55.6926 0 0)
(55.7388 0 0)
(55.785 0 0)
(55.8312 0 0)
(55.8774 0 0)
(55.9236 0 0)
(55.9698 0 0)
(56.016 0 0)
(56.0622 0 0)
(56.1084 0 0)
(56.1546 0 0)
(56.2008 0 0)
(56.247 0 0)
(56.2932 0 0)
(56.3393 0 0)
(56.3855 0 0)
(56.4317 0 0)
(56.4779 0 0)
(56.5241 0 0)
(56.5703 0 0)
(56.6165 0 0)
(56.6627 0 0)
(56.7089 0 0)
(56.7551 0 0)
(56.8013 0 0)
(56.8475 0 0)
(56.8937 0 0)
(56.9399 0 0)
(56.9861 0 0)
(57.0323 0 0)
(57.0785 0 0)
(57.1247 0 0)
(57.1709 0 0)
(57.2171 0 0)
(57.2633 0 0)
(57.3095 0 0)
(57.3557 0 0)
(57.4019 0 0)
(57.4481 0 0)
(57.4943 0 0)
(57.5405 0 0)
(57.5867 0 0)
(57.6329 0 0)
(57.6791 0 0)
(57.7253 0 0)
(57.7715 0 0)
(57.8177 0 0)
(57.8639 0 0)
(57.9101 0 0)
(57.9563 0 0)
(58.0025 0 0)
(58.0487 0 0)
(58.0949 0 0)
(58.1411 0 0)
(58.1873 0 0)
(58.2335 0 0)
(58.2797 0 0)
(58.3259 0 0)
(58.3721 0 0)
(58.4183 0 0)
(58.4646 0 0)
(58.5108 0 0)
(58.557 0 0)
(58.6032 0 0)
(58.6494 0 0)
(58.6956 0 0)
(58.7418 0 0)
(58.788 0 0)
(58.8342 0 0)
(58.8804 0 0)
(58.9266 0 0)
(58.9728 0 0)
(59.019 0 0)
(59.0652 0 0)
(59.1114 0 0)
(59.1576 0 0)
(59.2039 0 0)
(59.2501 0 0)
(59.2963 0 0)
(59.3425 0 0)
(59.3887 0 0)
(59.4349 0 0)
(59.4811 0 0)
(59.5273 0 0)
(59.5735 0 0)
(59.6197 0 0)
(59.6659 0 0)
(59.7122 0 0)
(59.7584 0 0)
(59.8046 0 0)
(59.8508 0 0)
(59.897 0 0)
(59.9432 0 0)
(59.9894 0 0)
(60.0356 0 0)
(60.0818 0 0)
(60.1281 0 0)
(60.1743 0 0)
(60.2205 0 0)
(60.2667 0 0)
(60.3129 0 0)
(60.3591 0 0)
(60.4053 0 0)
(60.4516 0 0)
(60.4978 0 0)
(60.544 0 0)
(60.5902 0 0)
(60.6364 0 0)
(60.6826 0 0)
(60.7288 0 0)
(60.7751 0 0)
(60.8213 0 0)
(60.8675 0 0)
(60.9137 0 0)
(60.9599 0 0)
(61.0061 0 0)
(61.0524 0 0)
(61.0986 0 0)
(61.1448 0 0)
(61.191 0 0)
(61.2372 0 0)
(61.2834 0 0)
(61.3297 0 0)
(61.3759 0 0)
(61.4221 0 0)
(61.4683 0 0)
(61.5145 0 0)
(61.5607 0 0)
(61.607 0 0)
(61.6532 0 0)
(61.6994 0 0)
(61.7456 0 0)
(61.7918 0 0)
(61.8381 0 0)
(61.8843 0 0)
(61.9305 0 0)
(61.9767 0 0)
(62.0229 0 0)
(62.0692 0 0)
(62.1154 0 0)
(62.1616 0 0)
(62.2078 0 0)
(62.254 0 0)
(62.3003 0 0)
(62.3465 0 0)
(62.3927 0 0)
(62.4389 0 0)
(62.4852 0 0)
(62.5314 0 0)
(62.5776 0 0)
(62.6238 0 0)
(62.6701 0 0)
(62.7163 0 0)
(62.7625 0 0)
(62.8087 0 0)
(62.855 0 0)
(62.9012 0 0)
(62.9474 0 0)
(62.9936 0 0)
(63.0399 0 0)
(63.0861 0 0)
(63.1323 0 0)
(63.1785 0 0)
(63.2248 0 0)
(63.271 0 0)
(63.3172 0 0)
(63.3634 0 0)
(63.4097 0 0)
(63.4559 0 0)
(63.5021 0 0)
(63.5483 0 0)
(63.5946 0 0)
(63.6408 0 0)
(63.687 0 0)
(63.7333 0 0)
(63.7795 0 0)
(63.8257 0 0)
(63.8719 0 0)
(63.9182 0 0)
(63.9644 0 0)
(64.0106 0 0)
(64.0569 0 0)
(64.1031 0 0)
(64.1493 0 0)
(64.1956 0 0)
(64.2418 0 0)
(64.288 0 0)
(64.3342 0 0)
(64.3805 0 0)
(64.4267 0 0)
(64.4729 0 0)
(64.5192 0 0)
(64.5654 0 0)
(64.6116 0 0)
(64.6579 0 0)
(64.7041 0 0)
(64.7503 0 0)
(64.7966 0 0)
(64.8428 0 0)
(64.889 0 0)
(64.9353 0 0)
(64.9815 0 0)
(65.0277 0 0)
(65.074 0 0)
(65.1202 0 0)
(65.1664 0 0)
(65.2127 0 0)
(65.2589 0 0)
(65.3051 0 0)
(65.3514 0 0)
(65.3976 0 0)
(65.4439 0 0)
(65.4901 0 0)
(65.5363 0 0)
(65.5826 0 0)
(65.6288 0 0)
(65.675 0 0)
(65.7213 0 0)
(65.7675 0 0)
(65.8137 0 0)
(65.86 0 0)
(65.9062 0 0)
(65.9525 0 0)
(65.9987 0 0)
(66.0449 0 0)
(66.0912 0 0)
(66.1374 0 0)
(66.1837 0 0)
(66.2299 0 0)
(66.2761 0 0)
(66.3224 0 0)
(66.3686 0 0)
(66.4149 0 0)
(66.4611 0 0)
(66.5073 0 0)
(66.5536 0 0)
(66.5998 0 0)
(66.6461 0 0)
(66.6923 0 0)
(66.7385 0 0)
(66.7848 0 0)
(66.831 0 0)
(66.8773 0 0)
(66.9235 0 0)
(66.9698 0 0)
(67.016 0 0)
(67.0622 0 0)
(67.1085 0 0)
(67.1547 0 0)
(67.201 0 0)
(67.2472 0 0)
(67.2935 0 0)
(67.3397 0 0)
(67.3859 0 0)
(67.4322 0 0)
(67.4784 0 0)
(67.5247 0 0)
(67.5709 0 0)
(67.6172 0 0)
(67.6634 0 0)
(67.7097 0 0)
(67.7559 0 0)
(67.8022 0 0)
(67.8484 0 0)
(67.8947 0 0)
(67.9409 0 0)
(67.9871 0 0)
(68.0334 0 0)
(68.0796 0 0)
(68.1259 0 0)
(68.1721 0 0)
(68.2184 0 0)
(68.2646 0 0)
(68.3109 0 0)
(68.3571 0 0)
(68.4034 0 0)
(68.4496 0 0)
(68.4959 0 0)
(68.5421 0 0)
(68.5884 0 0)
(68.6346 0 0)
(68.6809 0 0)
(68.7271 0 0)
(68.7734 0 0)
(68.8196 0 0)
(68.8659 0 0)
(68.9121 0 0)
(68.9584 0 0)
(69.0046 0 0)
(69.0509 0 0)
(69.0971 0 0)
(69.1434 0 0)
(69.1896 0 0)
(69.2359 0 0)
(69.2822 0 0)
(69.3284 0 0)
(69.3747 0 0)
(69.4209 0 0)
(69.4672 0 0)
(69.5134 0 0)
(69.5597 0 0)
(69.6059 0 0)
(69.6522 0 0)
(69.6984 0 0)
(69.7447 0 0)
(69.7909 0 0)
(69.8372 0 0)
(69.8835 0 0)
(69.9297 0 0)
(69.976 0 0)
(70.0222 0 0)
(70.0685 0 0)
(70.1147 0 0)
(70.161 0 0)
(70.2073 0 0)
(70.2535 0 0)
(70.2998 0 0)
(70.346 0 0)
(70.3923 0 0)
(70.4385 0 0)
(70.4848 0 0)
(70.5311 0 0)
(70.5773 0 0)
(70.6236 0 0)
(70.6698 0 0)
(70.7161 0 0)
(70.7624 0 0)
(70.8086 0 0)
(70.8549 0 0)
(70.9011 0 0)
(70.9474 0 0)
(70.9937 0 0)
(71.0399 0 0)
(71.0862 0 0)
(71.1324 0 0)
(71.1787 0 0)
(71.225 0 0)
(71.2712 0 0)
(71.3175 0 0)
(71.3637 0 0)
(71.41 0 0)
(71.4563 0 0)
(71.5025 0 0)
(71.5488 0 0)
(71.5951 0 0)
(71.6413 0 0)
(71.6876 0 0)
(71.7339 0 0)
(71.7801 0 0)
(71.8264 0 0)
(71.8726 0 0)
(71.9189 0 0)
(71.9652 0 0)
(72.0114 0 0)
(72.0577 0 0)
(72.104 0 0)
(72.1502 0 0)
(72.1965 0 0)
(72.2428 0 0)
(72.289 0 0)
(72.3353 0 0)
(72.3816 0 0)
(72.4278 0 0)
(72.4741 0 0)
(72.5204 0 0)
(72.5666 0 0)
(72.6129 0 0)
(72.6592 0 0)
(72.7054 0 0)
(72.7517 0 0)
(72.798 0 0)
(72.8442 0 0)
(72.8905 0 0)
(72.9368 0 0)
(72.983 0 0)
(73.0293 0 0)
(73.0756 0 0)
(73.1219 0 0)
(73.1681 0 0)
(73.2144 0 0)
(73.2607 0 0)
(73.3069 0 0)
(73.3532 0 0)
(73.3995 0 0)
(73.4457 0 0)
(73.492 0 0)
(73.5383 0 0)
(73.5846 0 0)
(73.6308 0 0)
(73.6771 0 0)
(73.7234 0 0)
(73.7697 0 0)
(73.8159 0 0)
(73.8622 0 0)
(73.9085 0 0)
(73.9547 0 0)
(74.001 0 0)
(74.0473 0 0)
(74.0936 0 0)
(74.1398 0 0)
(74.1861 0 0)
(74.2324 0 0)
(74.2787 0 0)
(74.3249 0 0)
(74.3712 0 0)
(74.4175 0 0)
(74.4638 0 0)
(74.51 0 0)
(74.5563 0 0)
(74.6026 0 0)
(74.6489 0 0)
(74.6951 0 0)
(74.7414 0 0)
(74.7877 0 0)
(74.834 0 0)
(74.8803 0 0)
(74.9265 0 0)
(74.9728 0 0)
(75.0191 0 0)
(75.0654 0 0)
(75.1116 0 0)
(75.1579 0 0)
(75.2042 0 0)
(75.2505 0 0)
(75.2968 0 0)
(75.343 0 0)
(75.3893 0 0)
(75.4356 0 0)
(75.4819 0 0)
(75.5282 0 0)
(75.5744 0 0)
(75.6207 0 0)
(75.667 0 0)
(75.7133 0 0)
(75.7596 0 0)
(75.8058 0 0)
(75.8521 0 0)
(75.8984 0 0)
(75.9447 0 0)
(75.991 0 0)
(76.0373 0 0)
(76.0835 0 0)
(76.1298 0 0)
(76.1761 0 0)
(76.2224 0 0)
(76.2687 0 0)
(76.315 0 0)
(76.3612 0 0)
(76.4075 0 0)
(76.4538 0 0)
(76.5001 0 0)
(76.5464 0 0)
(76.5927 0 0)
(76.6389 0 0)
(76.6852 0 0)
(76.7315 0 0)
(76.7778 0 0)
(76.8241 0 0)
(76.8704 0 0)
(76.9167 0 0)
(76.9629 0 0)
(77.0092 0 0)
(77.0555 0 0)
(77.1018 0 0)
(77.1481 0 0)
(77.1944 0 0)
(77.2407 0 0)
(77.287 0 0)
(77.3332 0 0)
(77.3795 0 0)
(77.4258 0 0)
(77.4721 0 0)
(77.5184 0 0)
(77.5647 0 0)
(77.611 0 0)
(77.6573 0 0)
(77.7036 0 0)
(77.7498 0 0)
(77.7961 0 0)
(77.8424 0 0)
(77.8887 0 0)
(77.935 0 0)
(77.9813 0 0)
(78.0276 0 0)
(78.0739 0 0)
(78.1202 0 0)
(78.1665 0 0)
(78.2127 0 0)
(78.259 0 0)
(78.3053 0 0)
(78.3516 0 0)
(78.3979 0 0)
(78.4442 0 0)
(78.4905 0 0)
(78.5368 0 0)
(78.5831 0 0)
(78.6294 0 0)
(78.6757 0 0)
(78.722 0 0)
(78.7683 0 0)
(78.8146 0 0)
(78.8609 0 0)
(78.9071 0 0)
(78.9534 0 0)
(78.9997 0 0)
(79.046 0 0)
(79.0923 0 0)
(79.1386 0 0)
(79.1849 0 0)
(79.2312 0 0)
(79.2775 0 0)
(79.3238 0 0)
(79.3701 0 0)
(79.4164 0 0)
(79.4627 0 0)
(79.509 0 0)
(79.5553 0 0)
(79.6016 0 0)
(79.6479 0 0)
(79.6942 0 0)
(79.7405 0 0)
(79.7868 0 0)
(79.8331 0 0)
(79.8794 0 0)
(79.9257 0 0)
(79.972 0 0)
(80.0183 0 0)
(80.0646 0 0)
(80.1109 0 0)
(80.1572 0 0)
(80.2035 0 0)
(80.2498 0 0)
(80.2961 0 0)
(80.3424 0 0)
(80.3887 0 0)
(80.435 0 0)
(80.4813 0 0)
(80.5276 0 0)
(80.5739 0 0)
(80.6202 0 0)
(80.6665 0 0)
(80.7128 0 0)
(80.7591 0 0)
(80.8054 0 0)
(80.8517 0 0)
(80.898 0 0)
(80.9443 0 0)
(80.9906 0 0)
(81.0369 0 0)
(81.0832 0 0)
(81.1295 0 0)
(81.1758 0 0)
(81.2221 0 0)
(81.2684 0 0)
(81.3147 0 0)
(81.361 0 0)
(81.4074 0 0)
(81.4537 0 0)
(81.5 0 0)
(81.5463 0 0)
(81.5926 0 0)
(81.6389 0 0)
(81.6852 0 0)
(81.7315 0 0)
(81.7778 0 0)
(81.8241 0 0)
(81.8704 0 0)
(81.9167 0 0)
(81.963 0 0)
(82.0093 0 0)
(82.0556 0 0)
(82.102 0 0)
(82.1483 0 0)
(82.1946 0 0)
(82.2409 0 0)
(82.2872 0 0)
(82.3335 0 0)
(82.3798 0 0)
(82.4261 0 0)
(82.4724 0 0)
(82.5187 0 0)
(82.565 0 0)
(82.6114 0 0)
(82.6577 0 0)
(82.704 0 0)
(82.7503 0 0)
(82.7966 0 0)
(82.8429 0 0)
(82.8892 0 0)
(82.9355 0 0)
(82.9818 0 0)
(83.0282 0 0)
(83.0745 0 0)
(83.1208 0 0)
(83.1671 0 0)
(83.2134 0 0)
(83.2597 0 0)
(83.306 0 0)
(83.3524 0 0)
(83.3987 0 0)
(83.445 0 0)
(83.4913 0 0)
(83.5376 0 0)
(83.5839 0 0)
(83.6302 0 0)
(83.6766 0 0)
(83.7229 0 0)
(83.7692 0 0)
(83.8155 0 0)
(83.8618 0 0)
(83.9081 0 0)
(83.9544 0 0)
(84.0008 0 0)
(84.0471 0 0)
(84.0934 0 0)
(84.1397 0 0)
(84.186 0 0)
(84.2323 0 0)
(84.2787 0 0)
(84.325 0 0)
(84.3713 0 0)
(84.4176 0 0)
(84.4639 0 0)
(84.5103 0 0)
(84.5566 0 0)
(84.6029 0 0)
(84.6492 0 0)
(84.6955 0 0)
(84.7418 0 0)
(84.7882 0 0)
(84.8345 0 0)
(84.8808 0 0)
(84.9271 0 0)
(84.9734 0 0)
(85.0198 0 0)
(85.0661 0 0)
(85.1124 0 0)
(85.1587 0 0)
(85.2051 0 0)
(85.2514 0 0)
(85.2977 0 0)
(85.344 0 0)
(85.3903 0 0)
(85.4367 0 0)
(85.483 0 0)
(85.5293 0 0)
(85.5756 0 0)
(85.622 0 0)
(85.6683 0 0)
(85.7146 0 0)
(85.7609 0 0)
(85.8072 0 0)
(85.8536 0 0)
(85.8999 0 0)
(85.9462 0 0)
(85.9925 0 0)
(86.0389 0 0)
(86.0852 0 0)
(86.1315 0 0)
(86.1778 0 0)
(86.2242 0 0)
(86.2705 0 0)
(86.3168 0 0)
(86.3631 0 0)
(86.4095 0 0)
(86.4558 0 0)
(86.5021 0 0)
(86.5485 0 0)
(86.5948 0 0)
(86.6411 0 0)
(86.6874 0 0)
(86.7338 0 0)
(86.7801 0 0)
(86.8264 0 0)
(86.8727 0 0)
(86.9191 0 0)
(86.9654 0 0)
(87.0117 0 0)
(87.0581 0 0)
(87.1044 0 0)
(87.1507 0 0)
(87.197 0 0)
(87.2434 0 0)
(87.2897 0 0)
(87.336 0 0)
(87.3824 0 0)
(87.4287 0 0)
(87.475 0 0)
(87.5214 0 0)
(87.5677 0 0)
(87.614 0 0)
(87.6604 0 0)
(87.7067 0 0)
(87.753 0 0)
(87.7993 0 0)
(87.8457 0 0)
(87.892 0 0)
(87.9383 0 0)
(87.9847 0 0)
(88.031 0 0)
(88.0773 0 0)
(88.1237 0 0)
(88.17 0 0)
(88.2163 0 0)
(88.2627 0 0)
(88.309 0 0)
(88.3553 0 0)
(88.4017 0 0)
(88.448 0 0)
(88.4944 0 0)
(88.5407 0 0)
(88.587 0 0)
(88.6334 0 0)
(88.6797 0 0)
(88.726 0 0)
(88.7724 0 0)
(88.8187 0 0)
(88.865 0 0)
(88.9114 0 0)
(88.9577 0 0)
(89.004 0 0)
(89.0504 0 0)
(89.0967 0 0)
(89.1431 0 0)
(89.1894 0 0)
(89.2357 0 0)
(89.2821 0 0)
(89.3284 0 0)
(89.3747 0 0)
(89.4211 0 0)
(89.4674 0 0)
(89.5138 0 0)
(89.5601 0 0)
(89.6064 0 0)
(89.6528 0 0)
(89.6991 0 0)
(89.7455 0 0)
(89.7918 0 0)
(89.8381 0 0)
(89.8845 0 0)
(89.9308 0 0)
(89.9772 0 0)
(90.0235 0 0)
(90.0698 0 0)
(90.1162 0 0)
(90.1625 0 0)
(90.2089 0 0)
(90.2552 0 0)
(90.3016 0 0)
(90.3479 0 0)
(90.3942 0 0)
(90.4406 0 0)
(90.4869 0 0)
(90.5333 0 0)
(90.5796 0 0)
(90.626 0 0)
(90.6723 0 0)
(90.7186 0 0)
(90.765 0 0)
(90.8113 0 0)
(90.8577 0 0)
(90.904 0 0)
(90.9504 0 0)
(90.9967 0 0)
(91.0431 0 0)
(91.0894 0 0)
(91.1358 0 0)
(91.1821 0 0)
(91.2284 0 0)
(91.2748 0 0)
(91.3211 0 0)
(91.3675 0 0)
(91.4138 0 0)
(91.4602 0 0)
(91.5065 0 0)
(91.5529 0 0)
(91.5992 0 0)
(91.6456 0 0)
(91.6919 0 0)
(91.7383 0 0)
(91.7846 0 0)
(91.831 0 0)
(91.8773 0 0)
(91.9237 0 0)
(91.97 0 0)
(92.0164 0 0)
(92.0627 0 0)
(92.1091 0 0)
(92.1554 0 0)
(92.2018 0 0)
(92.2481 0 0)
(92.2945 0 0)
(92.3408 0 0)
(92.3872 0 0)
(92.4335 0 0)
(92.4799 0 0)
(92.5262 0 0)
(92.5726 0 0)
(92.6189 0 0)
(92.6653 0 0)
(92.7116 0 0)
(92.758 0 0)
(92.8043 0 0)
(92.8507 0 0)
(92.897 0 0)
(92.9434 0 0)
(92.9897 0 0)
(93.0361 0 0)
(93.0824 0 0)
(93.1288 0 0)
(93.1751 0 0)
(93.2215 0 0)
(93.2679 0 0)
(93.3142 0 0)
(93.3606 0 0)
(93.4069 0 0)
(93.4533 0 0)
(93.4996 0 0)
(93.546 0 0)
(93.5923 0 0)
(93.6387 0 0)
(93.6851 0 0)
(93.7314 0 0)
(93.7778 0 0)
(93.8241 0 0)
(93.8705 0 0)
(93.9168 0 0)
(93.9632 0 0)
(94.0095 0 0)
(94.0559 0 0)
(94.1023 0 0)
(94.1486 0 0)
(94.195 0 0)
(94.2413 0 0)
(94.2877 0 0)
(94.3341 0 0)
(94.3804 0 0)
(94.4268 0 0)
(94.4731 0 0)
(94.5195 0 0)
(94.5658 0 0)
(94.6122 0 0)
(94.6586 0 0)
(94.7049 0 0)
(94.7513 0 0)
(94.7976 0 0)
(94.844 0 0)
(94.8904 0 0)
(94.9367 0 0)
(94.9831 0 0)
(95.0295 0 0)
(95.0758 0 0)
(95.1222 0 0)
(95.1685 0 0)
(95.2149 0 0)
(95.2613 0 0)
(95.3076 0 0)
(95.354 0 0)
(95.4004 0 0)
(95.4467 0 0)
(95.4931 0 0)
(95.5394 0 0)
(95.5858 0 0)
(95.6322 0 0)
(95.6785 0 0)
(95.7249 0 0)
(95.7713 0 0)
(95.8176 0 0)
(95.864 0 0)
(95.9104 0 0)
(95.9567 0 0)
(96.0031 0 0)
(96.0494 0 0)
(96.0958 0 0)
(96.1422 0 0)
(96.1885 0 0)
(96.2349 0 0)
(96.2813 0 0)
(96.3276 0 0)
(96.374 0 0)
(96.4204 0 0)
(96.4667 0 0)
(96.5131 0 0)
(96.5595 0 0)
(96.6058 0 0)
(96.6522 0 0)
(96.6986 0 0)
(96.745 0 0)
(96.7913 0 0)
(96.8377 0 0)
(96.8841 0 0)
(96.9304 0 0)
(96.9768 0 0)
(97.0232 0 0)
(97.0695 0 0)
(97.1159 0 0)
(97.1623 0 0)
(97.2086 0 0)
(97.255 0 0)
(97.3014 0 0)
(97.3478 0 0)
(97.3941 0 0)
(97.4405 0 0)
(97.4869 0 0)
(97.5332 0 0)
(97.5796 0 0)
(97.626 0 0)
(97.6724 0 0)
(97.7187 0 0)
(97.7651 0 0)
(97.8115 0 0)
(97.8578 0 0)
(97.9042 0 0)
(97.9506 0 0)
(97.997 0 0)
(98.0433 0 0)
(98.0897 0 0)
(98.1361 0 0)
(98.1825 0 0)
(98.2288 0 0)
(98.2752 0 0)
(98.3216 0 0)
(98.3679 0 0)
(98.4143 0 0)
(98.4607 0 0)
(98.5071 0 0)
(98.5534 0 0)
(98.5998 0 0)
(98.6462 0 0)
(98.6926 0 0)
(98.739 0 0)
(98.7853 0 0)
(98.8317 0 0)
(98.8781 0 0)
(98.9245 0 0)
(98.9708 0 0)
(99.0172 0 0)
(99.0636 0 0)
(99.11 0 0)
(99.1563 0 0)
(99.2027 0 0)
(99.2491 0 0)
(99.2955 0 0)
(99.3419 0 0)
(99.3882 0 0)
(99.4346 0 0)
(99.481 0 0)
(99.5274 0 0)
(99.5737 0 0)
(99.6201 0 0)
(99.6665 0 0)
(99.7129 0 0)
(99.7593 0 0)
(99.8056 0 0)
(99.852 0 0)
(99.8984 0 0)
(99.9448 0 0)
(99.9912 0 0)
(100.038 0 0)
(100.084 0 0)
(100.13 0 0)
(100.177 0 0)
(100.223 0 0)
(100.269 0 0)
(100.316 0 0)
(100.362 0 0)
(100.409 0 0)
(100.455 0 0)
(100.501 0 0)
(100.548 0 0)
(100.594 0 0)
(100.641 0 0)
(100.687 0 0)
(100.733 0 0)
(100.78 0 0)
(100.826 0 0)
(100.872 0 0)
(100.919 0 0)
(100.965 0 0)
(101.012 0 0)
(101.058 0 0)
(101.104 0 0)
(101.151 0 0)
(101.197 0 0)
(101.244 0 0)
(101.29 0 0)
(101.336 0 0)
(101.383 0 0)
(101.429 0 0)
(101.475 0 0)