/*--------------------------------*- C++ -*----------------------------------*\
  =========                 |
  \\      /  F ield         | OpenFOAM: The Open Source CFD Toolbox
   \\    /   O peration     | Website:  https://openfoam.org
    \\  /    A nd           | Version:  9
     \\/     M anipulation  |
\*---------------------------------------------------------------------------*/
FoamFile
{
    format      ascii;
    class       volScalarField;
    location    "0.032";
    object      mag(U);
}
// * * * * * * * * * * * * * * * * * * * * * * * * * * * * * * * * * * * * * //

dimensions      [0 1 -1 0 0 0 0];

internalField   nonuniform List<scalar> 
10000
(
4.56673
4.61633
4.66841
4.7113
4.75069
4.79052
4.8312
4.87211
4.91296
4.95373
4.99449
5.03525
5.07602
5.11679
5.15756
5.19833
5.2391
5.27987
5.32064
5.36142
5.40219
5.44296
5.48373
5.5245
5.56527
5.60605
5.64682
5.68759
5.72837
5.76914
5.80991
5.85069
5.89146
5.93223
5.97301
6.01378
6.05456
6.09534
6.13611
6.17689
6.21766
6.25843
6.29921
6.33999
6.38076
6.42154
6.46232
6.5031
6.54387
6.58465
6.62543
6.66621
6.70698
6.74776
6.78854
6.82931
6.87009
6.91087
6.95165
6.99243
7.03321
7.07399
7.11477
7.15556
7.19634
7.23712
7.27791
7.31869
7.35947
7.40026
7.44104
7.48182
7.5226
7.56339
7.60417
7.64495
7.68573
7.72652
7.7673
7.80808
7.84887
7.88965
7.93044
7.97122
8.012
8.05279
8.09357
8.13436
8.17514
8.21593
8.25672
8.2975
8.33829
8.37907
8.41986
8.46065
8.50143
8.54222
8.58301
8.62379
8.66458
8.70537
8.74616
8.78695
8.82773
8.86852
8.90931
8.9501
8.99089
9.03168
9.07247
9.11326
9.15405
9.19484
9.23563
9.27642
9.31721
9.358
9.39879
9.43958
9.48038
9.52117
9.56196
9.60275
9.64354
9.68434
9.72513
9.76592
9.80672
9.84751
9.8883
9.9291
9.96989
10.0107
10.0515
10.0923
10.1331
10.1739
10.2147
10.2555
10.2963
10.337
10.3778
10.4186
10.4594
10.5002
10.541
10.5818
10.6226
10.6634
10.7042
10.745
10.7858
10.8266
10.8674
10.9082
10.949
10.9898
11.0306
11.0714
11.1122
11.153
11.1938
11.2346
11.2754
11.3162
11.357
11.3978
11.4386
11.4794
11.5202
11.561
11.6018
11.6426
11.6834
11.7242
11.765
11.8058
11.8466
11.8874
11.9282
11.969
12.0099
12.0507
12.0915
12.1323
12.1731
12.2139
12.2547
12.2955
12.3363
12.3771
12.4179
12.4587
12.4995
12.5403
12.5811
12.6219
12.6627
12.7036
12.7444
12.7852
12.826
12.8668
12.9076
12.9484
12.9892
13.03
13.0708
13.1116
13.1525
13.1933
13.2341
13.2749
13.3157
13.3565
13.3973
13.4381
13.4789
13.5197
13.5606
13.6014
13.6422
13.683
13.7238
13.7646
13.8054
13.8462
13.8871
13.9279
13.9687
14.0095
14.0503
14.0911
14.1319
14.1728
14.2136
14.2544
14.2952
14.336
14.3768
14.4177
14.4585
14.4993
14.5401
14.5809
14.6217
14.6626
14.7034
14.7442
14.785
14.8258
14.8666
14.9075
14.9483
14.9891
15.0299
15.0707
15.1116
15.1524
15.1932
15.234
15.2748
15.3157
15.3565
15.3973
15.4381
15.4789
15.5198
15.5606
15.6014
15.6422
15.683
15.7239
15.7647
15.8055
15.8463
15.8872
15.928
15.9688
16.0096
16.0505
16.0913
16.1321
16.1729
16.2138
16.2546
16.2954
16.3362
16.3771
16.4179
16.4587
16.4995
16.5404
16.5812
16.622
16.6628
16.7037
16.7445
16.7853
16.8261
16.867
16.9078
16.9486
16.9895
17.0303
17.0711
17.1119
17.1528
17.1936
17.2344
17.2753
17.3161
17.3569
17.3978
17.4386
17.4794
17.5202
17.5611
17.6019
17.6427
17.6836
17.7244
17.7652
17.8061
17.8469
17.8877
17.9286
17.9694
18.0102
18.0511
18.0919
18.1327
18.1736
18.2144
18.2552
18.2961
18.3369
18.3777
18.4186
18.4594
18.5002
18.5411
18.5819
18.6228
18.6636
18.7044
18.7453
18.7861
18.8269
18.8678
18.9086
18.9495
18.9903
19.0311
19.072
19.1128
19.1536
19.1945
19.2353
19.2762
19.317
19.3578
19.3987
19.4395
19.4804
19.5212
19.562
19.6029
19.6437
19.6846
19.7254
19.7662
19.8071
19.8479
19.8888
19.9296
19.9705
20.0113
20.0521
20.093
20.1338
20.1747
20.2155
20.2564
20.2972
20.3381
20.3789
20.4197
20.4606
20.5014
20.5423
20.5831
20.624
20.6648
20.7057
20.7465
20.7874
20.8282
20.869
20.9099
20.9507
20.9916
21.0324
21.0733
21.1141
21.155
21.1958
21.2367
21.2775
21.3184
21.3592
21.4001
21.4409
21.4818
21.5226
21.5635
21.6043
21.6452
21.686
21.7269
21.7677
21.8086
21.8494
21.8903
21.9311
21.972
22.0128
22.0537
22.0945
22.1354
22.1763
22.2171
22.258
22.2988
22.3397
22.3805
22.4214
22.4622
22.5031
22.5439
22.5848
22.6257
22.6665
22.7074
22.7482
22.7891
22.8299
22.8708
22.9116
22.9525
22.9934
23.0342
23.0751
23.1159
23.1568
23.1976
23.2385
23.2794
23.3202
23.3611
23.4019
23.4428
23.4837
23.5245
23.5654
23.6062
23.6471
23.688
23.7288
23.7697
23.8105
23.8514
23.8923
23.9331
23.974
24.0148
24.0557
24.0966
24.1374
24.1783
24.2192
24.26
24.3009
24.3417
24.3826
24.4235
24.4643
24.5052
24.5461
24.5869
24.6278
24.6687
24.7095
24.7504
24.7913
24.8321
24.873
24.9139
24.9547
24.9956
25.0365
25.0773
25.1182
25.1591
25.1999
25.2408
25.2817
25.3225
25.3634
25.4043
25.4451
25.486
25.5269
25.5677
25.6086
25.6495
25.6903
25.7312
25.7721
25.813
25.8538
25.8947
25.9356
25.9764
26.0173
26.0582
26.099
26.1399
26.1808
26.2217
26.2625
26.3034
26.3443
26.3852
26.426
26.4669
26.5078
26.5486
26.5895
26.6304
26.6713
26.7121
26.753
26.7939
26.8348
26.8756
26.9165
26.9574
26.9983
27.0391
27.08
27.1209
27.1618
27.2026
27.2435
27.2844
27.3253
27.3662
27.407
27.4479
27.4888
27.5297
27.5705
27.6114
27.6523
27.6932
27.7341
27.7749
27.8158
27.8567
27.8976
27.9385
27.9793
28.0202
28.0611
28.102
28.1429
28.1837
28.2246
28.2655
28.3064
28.3473
28.3882
28.429
28.4699
28.5108
28.5517
28.5926
28.6334
28.6743
28.7152
28.7561
28.797
28.8379
28.8788
28.9196
28.9605
29.0014
29.0423
29.0832
29.1241
29.1649
29.2058
29.2467
29.2876
29.3285
29.3694
29.4103
29.4512
29.492
29.5329
29.5738
29.6147
29.6556
29.6965
29.7374
29.7783
29.8191
29.86
29.9009
29.9418
29.9827
30.0236
30.0645
30.1054
30.1463
30.1871
30.228
30.2689
30.3098
30.3507
30.3916
30.4325
30.4734
30.5143
30.5552
30.5961
30.637
30.6778
30.7187
30.7596
30.8005
30.8414
30.8823
30.9232
30.9641
31.005
31.0459
31.0868
31.1277
31.1686
31.2095
31.2504
31.2913
31.3321
31.373
31.4139
31.4548
31.4957
31.5366
31.5775
31.6184
31.6593
31.7002
31.7411
31.782
31.8229
31.8638
31.9047
31.9456
31.9865
32.0274
32.0683
32.1092
32.1501
32.191
32.2319
32.2728
32.3137
32.3546
32.3955
32.4364
32.4773
32.5182
32.5591
32.6
32.6409
32.6818
32.7227
32.7636
32.8045
32.8454
32.8863
32.9272
32.9681
33.009
33.0499
33.0908
33.1317
33.1726
33.2135
33.2544
33.2953
33.3363
33.3772
33.4181
33.459
33.4999
33.5408
33.5817
33.6226
33.6635
33.7044
33.7453
33.7862
33.8271
33.868
33.9089
33.9498
33.9907
34.0317
34.0726
34.1135
34.1544
34.1953
34.2362
34.2771
34.318
34.3589
34.3998
34.4407
34.4817
34.5226
34.5635
34.6044
34.6453
34.6862
34.7271
34.768
34.8089
34.8498
34.8908
34.9317
34.9726
35.0135
35.0544
35.0953
35.1362
35.1771
35.2181
35.259
35.2999
35.3408
35.3817
35.4226
35.4635
35.5045
35.5454
35.5863
35.6272
35.6681
35.709
35.7499
35.7909
35.8318
35.8727
35.9136
35.9545
35.9954
36.0364
36.0773
36.1182
36.1591
36.2
36.2409
36.2819
36.3228
36.3637
36.4046
36.4455
36.4864
36.5274
36.5683
36.6092
36.6501
36.691
36.732
36.7729
36.8138
36.8547
36.8956
36.9366
36.9775
37.0184
37.0593
37.1002
37.1412
37.1821
37.223
37.2639
37.3049
37.3458
37.3867
37.4276
37.4685
37.5095
37.5504
37.5913
37.6322
37.6732
37.7141
37.755
37.7959
37.8369
37.8778
37.9187
37.9596
38.0006
38.0415
38.0824
38.1233
38.1643
38.2052
38.2461
38.287
38.328
38.3689
38.4098
38.4507
38.4917
38.5326
38.5735
38.6145
38.6554
38.6963
38.7372
38.7782
38.8191
38.86
38.901
38.9419
38.9828
39.0237
39.0647
39.1056
39.1465
39.1875
39.2284
39.2693
39.3103
39.3512
39.3921
39.4331
39.474
39.5149
39.5558
39.5968
39.6377
39.6786
39.7196
39.7605
39.8014
39.8424
39.8833
39.9242
39.9652
40.0061
40.047
40.088
40.1289
40.1698
40.2108
40.2517
40.2927
40.3336
40.3745
40.4155
40.4564
40.4973
40.5383
40.5792
40.6201
40.6611
40.702
40.743
40.7839
40.8248
40.8658
40.9067
40.9476
40.9886
41.0295
41.0705
41.1114
41.1523
41.1933
41.2342
41.2751
41.3161
41.357
41.398
41.4389
41.4798
41.5208
41.5617
41.6027
41.6436
41.6846
41.7255
41.7664
41.8074
41.8483
41.8893
41.9302
41.9711
42.0121
42.053
42.094
42.1349
42.1759
42.2168
42.2577
42.2987
42.3396
42.3806
42.4215
42.4625
42.5034
42.5444
42.5853
42.6263
42.6672
42.7081
42.7491
42.79
42.831
42.8719
42.9129
42.9538
42.9948
43.0357
43.0767
43.1176
43.1586
43.1995
43.2405
43.2814
43.3223
43.3633
43.4042
43.4452
43.4861
43.5271
43.568
43.609
43.6499
43.6909
43.7318
43.7728
43.8137
43.8547
43.8956
43.9366
43.9775
44.0185
44.0594
44.1004
44.1413
44.1823
44.2233
44.2642
44.3052
44.3461
44.3871
44.428
44.469
44.5099
44.5509
44.5918
44.6328
44.6737
44.7147
44.7556
44.7966
44.8376
44.8785
44.9195
44.9604
45.0014
45.0423
45.0833
45.1242
45.1652
45.2062
45.2471
45.2881
45.329
45.37
45.4109
45.4519
45.4929
45.5338
45.5748
45.6157
45.6567
45.6976
45.7386
45.7796
45.8205
45.8615
45.9024
45.9434
45.9844
46.0253
46.0663
46.1072
46.1482
46.1892
46.2301
46.2711
46.312
46.353
46.394
46.4349
46.4759
46.5168
46.5578
46.5988
46.6397
46.6807
46.7217
46.7626
46.8036
46.8445
46.8855
46.9265
46.9674
47.0084
47.0494
47.0903
47.1313
47.1723
47.2132
47.2542
47.2952
47.3361
47.3771
47.418
47.459
47.5
47.5409
47.5819
47.6229
47.6638
47.7048
47.7458
47.7867
47.8277
47.8687
47.9096
47.9506
47.9916
48.0326
48.0735
48.1145
48.1555
48.1964
48.2374
48.2784
48.3193
48.3603
48.4013
48.4422
48.4832
48.5242
48.5652
48.6061
48.6471
48.6881
48.729
48.77
48.811
48.852
48.8929
48.9339
48.9749
49.0158
49.0568
49.0978
49.1388
49.1797
49.2207
49.2617
49.3026
49.3436
49.3846
49.4256
49.4665
49.5075
49.5485
49.5895
49.6304
49.6714
49.7124
49.7534
49.7943
49.8353
49.8763
49.9173
49.9582
49.9992
50.0402
50.0812
50.1222
50.1631
50.2041
50.2451
50.2861
50.327
50.368
50.409
50.45
50.491
50.5319
50.5729
50.6139
50.6549
50.6958
50.7368
50.7778
50.8188
50.8598
50.9007
50.9417
50.9827
51.0237
51.0647
51.1056
51.1466
51.1876
51.2286
51.2696
51.3106
51.3515
51.3925
51.4335
51.4745
51.5155
51.5564
51.5974
51.6384
51.6794
51.7204
51.7614
51.8023
51.8433
51.8843
51.9253
51.9663
52.0073
52.0483
52.0892
52.1302
52.1712
52.2122
52.2532
52.2942
52.3351
52.3761
52.4171
52.4581
52.4991
52.5401
52.5811
52.6221
52.663
52.704
52.745
52.786
52.827
52.868
52.909
52.95
52.9909
53.0319
53.0729
53.1139
53.1549
53.1959
53.2369
53.2779
53.3189
53.3598
53.4008
53.4418
53.4828
53.5238
53.5648
53.6058
53.6468
53.6878
53.7288
53.7698
53.8107
53.8517
53.8927
53.9337
53.9747
54.0157
54.0567
54.0977
54.1387
54.1797
54.2207
54.2617
54.3027
54.3437
54.3847
54.4256
54.4666
54.5076
54.5486
54.5896
54.6306
54.6716
54.7126
54.7536
54.7946
54.8356
54.8766
54.9176
54.9586
54.9996
55.0406
55.0816
55.1226
55.1636
55.2046
55.2456
55.2866
55.3276
55.3686
55.4096
55.4506
55.4916
55.5326
55.5736
55.6146
55.6556
55.6966
55.7376
55.7786
55.8196
55.8606
55.9016
55.9426
55.9836
56.0246
56.0656
56.1066
56.1476
56.1886
56.2296
56.2706
56.3116
56.3526
56.3936
56.4346
56.4756
56.5166
56.5576
56.5986
56.6396
56.6806
56.7216
56.7626
56.8036
56.8446
56.8856
56.9266
56.9676
57.0086
57.0496
57.0906
57.1316
57.1726
57.2136
57.2546
57.2957
57.3367
57.3777
57.4187
57.4597
57.5007
57.5417
57.5827
57.6237
57.6647
57.7057
57.7467
57.7877
57.8287
57.8698
57.9108
57.9518
57.9928
58.0338
58.0748
58.1158
58.1568
58.1978
58.2388
58.2798
58.3208
58.3619
58.4029
58.4439
58.4849
58.5259
58.5669
58.6079
58.6489
58.6899
58.731
58.772
58.813
58.854
58.895
58.936
58.977
59.018
59.0591
59.1001
59.1411
59.1821
59.2231
59.2641
59.3051
59.3461
59.3872
59.4282
59.4692
59.5102
59.5512
59.5922
59.6332
59.6743
59.7153
59.7563
59.7973
59.8383
59.8793
59.9204
59.9614
60.0024
60.0434
60.0844
60.1254
60.1665
60.2075
60.2485
60.2895
60.3305
60.3715
60.4126
60.4536
60.4946
60.5356
60.5766
60.6176
60.6587
60.6997
60.7407
60.7817
60.8227
60.8638
60.9048
60.9458
60.9868
61.0278
61.0689
61.1099
61.1509
61.1919
61.2329
61.274
61.315
61.356
61.397
61.4381
61.4791
61.5201
61.5611
61.6021
61.6432
61.6842
61.7252
61.7662
61.8073
61.8483
61.8893
61.9303
61.9714
62.0124
62.0534
62.0944
62.1354
62.1765
62.2175
62.2585
62.2995
62.3406
62.3816
62.4226
62.4636
62.5047
62.5457
62.5867
62.6278
62.6688
62.7098
62.7508
62.7919
62.8329
62.8739
62.9149
62.956
62.997
63.038
63.0791
63.1201
63.1611
63.2021
63.2432
63.2842
63.3252
63.3663
63.4073
63.4483
63.4893
63.5304
63.5714
63.6124
63.6535
63.6945
63.7355
63.7766
63.8176
63.8586
63.8996
63.9407
63.9817
64.0227
64.0638
64.1048
64.1458
64.1869
64.2279
64.2689
64.31
64.351
64.392
64.4331
64.4741
64.5151
64.5562
64.5972
64.6382
64.6793
64.7203
64.7613
64.8024
64.8434
64.8844
64.9255
64.9665
65.0075
65.0486
65.0896
65.1306
65.1717
65.2127
65.2538
65.2948
65.3358
65.3769
65.4179
65.4589
65.5
65.541
65.5821
65.6231
65.6641
65.7052
65.7462
65.7872
65.8283
65.8693
65.9104
65.9514
65.9924
66.0335
66.0745
66.1155
66.1566
66.1976
66.2387
66.2797
66.3207
66.3618
66.4028
66.4439
66.4849
66.526
66.567
66.608
66.6491
66.6901
66.7312
66.7722
66.8132
66.8543
66.8953
66.9364
66.9774
67.0185
67.0595
67.1005
67.1416
67.1826
67.2237
67.2647
67.3058
67.3468
67.3878
67.4289
67.4699
67.511
67.552
67.5931
67.6341
67.6752
67.7162
67.7572
67.7983
67.8393
67.8804
67.9214
67.9625
68.0035
68.0446
68.0856
68.1267
68.1677
68.2088
68.2498
68.2908
68.3319
68.3729
68.414
68.455
68.4961
68.5371
68.5782
68.6192
68.6603
68.7013
68.7424
68.7834
68.8245
68.8655
68.9066
68.9476
68.9887
69.0297
69.0708
69.1118
69.1529
69.1939
69.235
69.276
69.3171
69.3581
69.3992
69.4402
69.4813
69.5223
69.5634
69.6044
69.6455
69.6865
69.7276
69.7686
69.8097
69.8507
69.8918
69.9329
69.9739
70.015
70.056
70.0971
70.1381
70.1792
70.2202
70.2613
70.3023
70.3434
70.3844
70.4255
70.4666
70.5076
70.5487
70.5897
70.6308
70.6718
70.7129
70.7539
70.795
70.8361
70.8771
70.9182
70.9592
71.0003
71.0413
71.0824
71.1235
71.1645
71.2056
71.2466
71.2877
71.3287
71.3698
71.4109
71.4519
71.493
71.534
71.5751
71.6162
71.6572
71.6983
71.7393
71.7804
71.8214
71.8625
71.9036
71.9446
71.9857
72.0267
72.0678
72.1089
72.1499
72.191
72.2321
72.2731
72.3142
72.3552
72.3963
72.4374
72.4784
72.5195
72.5605
72.6016
72.6427
72.6837
72.7248
72.7659
72.8069
72.848
72.889
72.9301
72.9712
73.0122
73.0533
73.0944
73.1354
73.1765
73.2176
73.2586
73.2997
73.3408
73.3818
73.4229
73.4639
73.505
73.5461
73.5871
73.6282
73.6693
73.7103
73.7514
73.7925
73.8335
73.8746
73.9157
73.9567
73.9978
74.0389
74.0799
74.121
74.1621
74.2031
74.2442
74.2853
74.3264
74.3674
74.4085
74.4496
74.4906
74.5317
74.5728
74.6138
74.6549
74.696
74.737
74.7781
74.8192
74.8602
74.9013
74.9424
74.9835
75.0245
75.0656
75.1067
75.1477
75.1888
75.2299
75.271
75.312
75.3531
75.3942
75.4352
75.4763
75.5174
75.5585
75.5995
75.6406
75.6817
75.7227
75.7638
75.8049
75.846
75.887
75.9281
75.9692
76.0103
76.0513
76.0924
76.1335
76.1746
76.2156
76.2567
76.2978
76.3389
76.3799
76.421
76.4621
76.5032
76.5442
76.5853
76.6264
76.6675
76.7085
76.7496
76.7907
76.8318
76.8728
76.9139
76.955
76.9961
77.0371
77.0782
77.1193
77.1604
77.2015
77.2425
77.2836
77.3247
77.3658
77.4068
77.4479
77.489
77.5301
77.5712
77.6122
77.6533
77.6944
77.7355
77.7766
77.8176
77.8587
77.8998
77.9409
77.982
78.023
78.0641
78.1052
78.1463
78.1874
78.2284
78.2695
78.3106
78.3517
78.3928
78.4338
78.4749
78.516
78.5571
78.5982
78.6393
78.6803
78.7214
78.7625
78.8036
78.8447
78.8857
78.9268
78.9679
79.009
79.0501
79.0912
79.1322
79.1733
79.2144
79.2555
79.2966
79.3377
79.3787
79.4198
79.4609
79.502
79.5431
79.5842
79.6253
79.6663
79.7074
79.7485
79.7896
79.8307
79.8718
79.9129
79.9539
79.995
80.0361
80.0772
80.1183
80.1594
80.2005
80.2416
80.2826
80.3237
80.3648
80.4059
80.447
80.4881
80.5292
80.5703
80.6113
80.6524
80.6935
80.7346
80.7757
80.8168
80.8579
80.899
80.94
80.9811
81.0222
81.0633
81.1044
81.1455
81.1866
81.2277
81.2688
81.3099
81.3509
81.392
81.4331
81.4742
81.5153
81.5564
81.5975
81.6386
81.6797
81.7208
81.7619
81.8029
81.844
81.8851
81.9262
81.9673
82.0084
82.0495
82.0906
82.1317
82.1728
82.2139
82.255
82.2961
82.3372
82.3782
82.4193
82.4604
82.5015
82.5426
82.5837
82.6248
82.6659
82.707
82.7481
82.7892
82.8303
82.8714
82.9125
82.9536
82.9947
83.0358
83.0768
83.1179
83.159
83.2001
83.2412
83.2823
83.3234
83.3645
83.4056
83.4467
83.4878
83.5289
83.57
83.6111
83.6522
83.6933
83.7344
83.7755
83.8166
83.8577
83.8988
83.9399
83.981
84.0221
84.0632
84.1043
84.1454
84.1865
84.2276
84.2687
84.3098
84.3509
84.392
84.4331
84.4742
84.5153
84.5564
84.5975
84.6386
84.6797
84.7208
84.7619
84.803
84.8441
84.8852
84.9263
84.9674
85.0085
85.0496
85.0907
85.1318
85.1729
85.214
85.2551
85.2962
85.3373
85.3784
85.4195
85.4606
85.5017
85.5428
85.5839
85.625
85.6661
85.7072
85.7483
85.7894
85.8305
85.8716
85.9127
85.9538
85.9949
86.036
86.0771
86.1182
86.1593
86.2004
86.2415
86.2826
86.3237
86.3648
86.406
86.4471
86.4882
86.5293
86.5704
86.6115
86.6526
86.6937
86.7348
86.7759
86.817
86.8581
86.8992
86.9403
86.9814
87.0225
87.0636
87.1047
87.1458
87.187
87.2281
87.2692
87.3103
87.3514
87.3925
87.4336
87.4747
87.5158
87.5569
87.598
87.6391
87.6802
87.7213
87.7625
87.8036
87.8447
87.8858
87.9269
87.968
88.0091
88.0502
88.0913
88.1324
88.1735
88.2147
88.2558
88.2969
88.338
88.3791
88.4202
88.4613
88.5024
88.5435
88.5846
88.6257
88.6669
88.708
88.7491
88.7902
88.8313
88.8724
88.9135
88.9546
88.9957
89.0369
89.078
89.1191
89.1602
89.2013
89.2424
89.2835
89.3246
89.3657
89.4069
89.448
89.4891
89.5302
89.5713
89.6124
89.6535
89.6946
89.7358
89.7769
89.818
89.8591
89.9002
89.9413
89.9824
90.0235
90.0647
90.1058
90.1469
90.188
90.2291
90.2702
90.3113
90.3525
90.3936
90.4347
90.4758
90.5169
90.558
90.5991
90.6403
90.6814
90.7225
90.7636
90.8047
90.8458
90.8869
90.9281
90.9692
91.0103
91.0514
91.0925
91.1336
91.1747
91.2159
91.257
91.2981
91.3392
91.3803
91.4214
91.4626
91.5037
91.5448
91.5859
91.627
91.6681
91.7093
91.7504
91.7915
91.8326
91.8737
91.9148
91.956
91.9971
92.0382
92.0793
92.1204
92.1616
92.2027
92.2438
92.2849
92.326
92.3671
92.4083
92.4494
92.4905
92.5316
92.5727
92.6139
92.655
92.6961
92.7372
92.7783
92.8195
92.8606
92.9017
92.9428
92.9839
93.025
93.0662
93.1073
93.1484
93.1895
93.2306
93.2718
93.3129
93.354
93.3951
93.4363
93.4774
93.5185
93.5596
93.6007
93.6419
93.683
93.7241
93.7652
93.8063
93.8475
93.8886
93.9297
93.9708
94.0119
94.0531
94.0942
94.1353
94.1764
94.2176
94.2587
94.2998
94.3409
94.382
94.4232
94.4643
94.5054
94.5465
94.5877
94.6288
94.6699
94.711
94.7521
94.7933
94.8344
94.8755
94.9166
94.9578
94.9989
95.04
95.0811
95.1223
95.1634
95.2045
95.2456
95.2867
95.3279
95.369
95.4101
95.4512
95.4924
95.5335
95.5746
95.6157
95.6569
95.698
95.7391
95.7802
95.8214
95.8625
95.9036
95.9447
95.9859
96.027
96.0681
96.1092
96.1504
96.1915
96.2326
96.2737
96.3149
96.356
96.3971
96.4382
96.4794
96.5205
96.5616
96.6027
96.6439
96.685
96.7261
96.7673
96.8084
96.8495
96.8906
96.9318
96.9729
97.014
97.0551
97.0963
97.1374
97.1785
97.2196
97.2608
97.3019
97.343
97.3842
97.4253
97.4664
97.5075
97.5487
97.5898
97.6309
97.672
97.7132
97.7543
97.7954
97.8366
97.8777
97.9188
97.9599
98.0011
98.0422
98.0833
98.1244
98.1656
98.2067
98.2478
98.289
98.3301
98.3712
98.4123
98.4535
98.4946
98.5357
98.5769
98.618
98.6591
98.7002
98.7414
98.7825
98.8236
98.8648
98.9059
98.947
98.9881
99.0293
99.0704
99.1115
99.1527
99.1938
99.2349
99.276
99.3172
99.3583
99.3994
99.4406
99.4817
99.5228
99.564
99.6051
99.6462
99.6873
99.7285
99.7696
99.8107
99.8519
99.893
99.9341
99.9753
100.016
100.058
100.099
100.14
100.181
100.222
100.263
100.304
100.345
100.387
100.428
100.469
100.51
100.551
100.592
100.633
100.674
100.716
100.757
100.798
100.839
100.88
100.921
100.962
101.004
101.045
101.086
101.127
101.168
101.209
101.25
101.291
101.333
101.374
101.415
101.456
101.497
101.538
101.579
101.62
101.662
101.703
101.744
101.785
101.826
101.867
101.908
101.95
101.991
102.032
102.073
102.114
102.155
102.196
102.237
102.279
102.32
102.361
102.402
102.443
102.484
102.525
102.567
102.608
102.649
102.69
102.731
102.772
102.813
102.854
102.896
102.937
102.978
103.019
103.06
103.101
103.142
103.183
103.225
103.266
103.307
103.348
103.389
103.43
103.471
103.513
103.554
103.595
103.636
103.677
103.718
103.759
103.8
103.842
103.883
103.924
103.965
104.006
104.047
104.088
104.13
104.171
104.212
104.253
104.294
104.335
104.376
104.417
104.459
104.5
104.541
104.582
104.623
104.664
104.705
104.747
104.788
104.829
104.87
104.911
104.952
104.993
105.034
105.076
105.117
105.158
105.199
105.24
105.281
105.322
105.364
105.405
105.446
105.487
105.528
105.569
105.61
105.651
105.693
105.734
105.775
105.816
105.857
105.898
105.939
105.98
106.022
106.063
106.104
106.145
106.186
106.227
106.268
106.31
106.351
106.392
106.433
106.474
106.515
106.556
106.597
106.639
106.68
106.721
106.762
106.803
106.844
106.885
106.927
106.968
107.009
107.05
107.091
107.132
107.173
107.214
107.256
107.297
107.338
107.379
107.42
107.461
107.502
107.543
107.585
107.626
107.667
107.708
107.749
107.79
107.831
107.873
107.914
107.955
107.996
108.037
108.078
108.119
108.16
108.202
108.243
108.284
108.325
108.366
108.407
108.448
108.489
108.531
108.572
108.613
108.654
108.695
108.736
108.777
108.819
108.86
108.901
108.942
108.983
109.024
109.065
109.106
109.148
109.189
109.23
109.271
109.312
109.353
109.394
109.435
109.477
109.518
109.559
109.6
109.641
109.682
109.723
109.764
109.806
109.847
109.888
109.929
109.97
110.011
110.052
110.094
110.135
110.176
110.217
110.258
110.299
110.34
110.381
110.423
110.464
110.505
110.546
110.587
110.628
110.669
110.71
110.752
110.793
110.834
110.875
110.916
110.957
110.998
111.039
111.081
111.122
111.163
111.204
111.245
111.286
111.327
111.368
111.41
111.451
111.492
111.533
111.574
111.615
111.656
111.697
111.739
111.78
111.821
111.862
111.903
111.944
111.985
112.026
112.068
112.109
112.15
112.191
112.232
112.273
112.314
112.355
112.397
112.438
112.479
112.52
112.561
112.602
112.643
112.684
112.726
112.767
112.808
112.849
112.89
112.931
112.972
113.013
113.054
113.096
113.137
113.178
113.219
113.26
113.301
113.342
113.383
113.425
113.466
113.507
113.548
113.589
113.63
113.671
113.712
113.754
113.795
113.836
113.877
113.918
113.959
114
114.041
114.082
114.124
114.165
114.206
114.247
114.288
114.329
114.37
114.411
114.453
114.494
114.535
114.576
114.617
114.658
114.699
114.74
114.781
114.823
114.864
114.905
114.946
114.987
115.028
115.069
115.11
115.151
115.193
115.234
115.275
115.316
115.357
115.398
115.439
115.48
115.521
115.563
115.604
115.645
115.686
115.727
115.768
115.809
115.85
115.891
115.933
115.974
116.015
116.056
116.097
116.138
116.179
116.22
116.261
116.303
116.344
116.385
116.426
116.467
116.508
116.549
116.59
116.631
116.673
116.714
116.755
116.796
116.837
116.878
116.919
116.96
117.001
117.042
117.084
117.125
117.166
117.207
117.248
117.289
117.33
117.371
117.412
117.453
117.495
117.536
117.577
117.618
117.659
117.7
117.741
117.782
117.823
117.865
117.906
117.947
117.988
118.029
118.07
118.111
118.152
118.193
118.234
118.275
118.317
118.358
118.399
118.44
118.481
118.522
118.563
118.604
118.645
118.686
118.728
118.769
118.81
118.851
118.892
118.933
118.974
119.015
119.056
119.097
119.138
119.18
119.221
119.262
119.303
119.344
119.385
119.426
119.467
119.508
119.549
119.59
119.632
119.673
119.714
119.755
119.796
119.837
119.878
119.919
119.96
120.001
120.042
120.083
120.125
120.166
120.207
120.248
120.289
120.33
120.371
120.412
120.453
120.494
120.535
120.576
120.618
120.659
120.7
120.741
120.782
120.823
120.864
120.905
120.946
120.987
121.028
121.069
121.11
121.152
121.193
121.234
121.275
121.316
121.357
121.398
121.439
121.48
121.521
121.562
121.603
121.644
121.686
121.727
121.768
121.809
121.85
121.891
121.932
121.973
122.014
122.055
122.096
122.137
122.178
122.219
122.26
122.302
122.343
122.384
122.425
122.466
122.507
122.548
122.589
122.63
122.671
122.712
122.753
122.794
122.835
122.876
122.917
122.958
123
123.041
123.082
123.123
123.164
123.205
123.246
123.287
123.328
123.369
123.41
123.451
123.492
123.533
123.574
123.615
123.656
123.697
123.738
123.78
123.821
123.862
123.903
123.944
123.985
124.026
124.067
124.108
124.149
124.19
124.231
124.272
124.313
124.354
124.395
124.436
124.477
124.518
124.559
124.6
124.641
124.682
124.724
124.765
124.806
124.847
124.888
124.929
124.97
125.011
125.052
125.093
125.134
125.175
125.216
125.257
125.298
125.339
125.38
125.421
125.462
125.503
125.544
125.585
125.626
125.667
125.708
125.749
125.79
125.831
125.872
125.913
125.954
125.995
126.036
126.077
126.118
126.159
126.2
126.241
126.282
126.323
126.364
126.405
126.446
126.487
126.528
126.57
126.611
126.652
126.693
126.734
126.775
126.816
126.857
126.898
126.939
126.98
127.021
127.062
127.103
127.144
127.185
127.226
127.267
127.308
127.349
127.39
127.431
127.471
127.512
127.553
127.594
127.635
127.676
127.717
127.758
127.799
127.84
127.881
127.922
127.963
128.004
128.045
128.086
128.127
128.168
128.209
128.25
128.291
128.332
128.373
128.414
128.455
128.496
128.537
128.578
128.619
128.66
128.701
128.742
128.783
128.824
128.865
128.906
128.947
128.988
129.029
129.07
129.111
129.151
129.192
129.233
129.274
129.315
129.356
129.397
129.438
129.479
129.52
129.561
129.602
129.643
129.684
129.725
129.766
129.807
129.848
129.889
129.929
129.97
130.011
130.052
130.093
130.134
130.175
130.216
130.257
130.298
130.339
130.38
130.421
130.462
130.503
130.543
130.584
130.625
130.666
130.707
130.748
130.789
130.83
130.871
130.912
130.953
130.994
131.034
131.075
131.116
131.157
131.198
131.239
131.28
131.321
131.362
131.403
131.444
131.484
131.525
131.566
131.607
131.648
131.689
131.73
131.771
131.812
131.852
131.893
131.934
131.975
132.016
132.057
132.098
132.139
132.179
132.22
132.261
132.302
132.343
132.384
132.425
132.466
132.506
132.547
132.588
132.629
132.67
132.711
132.752
132.792
132.833
132.874
132.915
132.956
132.997
133.038
133.078
133.119
133.16
133.201
133.242
133.283
133.323
133.364
133.405
133.446
133.487
133.528
133.568
133.609
133.65
133.691
133.732
133.773
133.813
133.854
133.895
133.936
133.977
134.017
134.058
134.099
134.14
134.181
134.221
134.262
134.303
134.344
134.385
134.425
134.466
134.507
134.548
134.589
134.629
134.67
134.711
134.752
134.792
134.833
134.874
134.915
134.956
134.996
135.037
135.078
135.119
135.159
135.2
135.241
135.282
135.322
135.363
135.404
135.445
135.485
135.526
135.567
135.608
135.648
135.689
135.73
135.771
135.811
135.852
135.893
135.933
135.974
136.015
136.056
136.096
136.137
136.178
136.218
136.259
136.3
136.34
136.381
136.422
136.463
136.503
136.544
136.585
136.625
136.666
136.707
136.747
136.788
136.829
136.869
136.91
136.951
136.991
137.032
137.073
137.113
137.154
137.195
137.235
137.276
137.317
137.357
137.398
137.438
137.479
137.52
137.56
137.601
137.642
137.682
137.723
137.763
137.804
137.845
137.885
137.926
137.967
138.007
138.048
138.088
138.129
138.169
138.21
138.251
138.291
138.332
138.372
138.413
138.453
138.494
138.535
138.575
138.616
138.656
138.697
138.737
138.778
138.818
138.859
138.9
138.94
138.981
139.021
139.062
139.102
139.143
139.183
139.224
139.264
139.305
139.345
139.386
139.426
139.467
139.507
139.548
139.588
139.629
139.669
139.709
139.75
139.79
139.831
139.871
139.912
139.952
139.993
140.033
140.074
140.114
140.154
140.195
140.235
140.276
140.316
140.356
140.397
140.437
140.478
140.518
140.558
140.599
140.639
140.68
140.72
140.76
140.801
140.841
140.881
140.922
140.962
141.002
141.043
141.083
141.123
141.164
141.204
141.244
141.285
141.325
141.365
141.406
141.446
141.486
141.526
141.567
141.607
141.647
141.688
141.728
141.768
141.808
141.849
141.889
141.929
141.969
142.009
142.05
142.09
142.13
142.17
142.211
142.251
142.291
142.331
142.371
142.411
142.452
142.492
142.532
142.572
142.612
142.652
142.693
142.733
142.773
142.813
142.853
142.893
142.933
142.973
143.013
143.054
143.094
143.134
143.174
143.214
143.254
143.294
143.334
143.374
143.414
143.454
143.494
143.534
143.574
143.614
143.654
143.694
143.734
143.774
143.814
143.854
143.894
143.934
143.974
144.014
144.054
144.094
144.134
144.173
144.213
144.253
144.293
144.333
144.373
144.413
144.453
144.492
144.532
144.572
144.612
144.652
144.692
144.731
144.771
144.811
144.851
144.891
144.93
144.97
145.01
145.05
145.089
145.129
145.169
145.209
145.248
145.288
145.328
145.367
145.407
145.447
145.486
145.526
145.566
145.605
145.645
145.684
145.724
145.764
145.803
145.843
145.882
145.922
145.961
146.001
146.04
146.08
146.119
146.159
146.198
146.238
146.277
146.317
146.356
146.396
146.435
146.475
146.514
146.553
146.593
146.632
146.672
146.711
146.75
146.79
146.829
146.868
146.907
146.947
146.986
147.025
147.065
147.104
147.143
147.182
147.221
147.261
147.3
147.339
147.378
147.417
147.456
147.496
147.535
147.574
147.613
147.652
147.691
147.73
147.769
147.808
147.847
147.886
147.925
147.964
148.003
148.042
148.081
148.12
148.159
148.198
148.236
148.275
148.314
148.353
148.392
148.431
148.469
148.508
148.547
148.586
148.624
148.663
148.702
148.741
148.779
148.818
148.856
148.895
148.934
148.972
149.011
149.049
149.088
149.126
149.165
149.203
149.242
149.28
149.319
149.357
149.396
149.434
149.472
149.511
149.549
149.587
149.626
149.664
149.702
149.74
149.779
149.817
149.855
149.893
149.931
149.97
150.008
150.046
150.084
150.122
150.16
150.198
150.236
150.274
150.312
150.35
150.388
150.425
150.463
150.501
150.539
150.577
150.615
150.652
150.69
150.728
150.765
150.803
150.841
150.878
150.916
150.953
150.991
151.028
151.066
151.103
151.141
151.178
151.216
151.253
151.29
151.328
151.365
151.402
151.44
151.477
151.514
151.551
151.588
151.625
151.662
151.699
151.737
151.774
151.81
151.847
151.884
151.921
151.958
151.995
152.032
152.068
152.105
152.142
152.179
152.215
152.252
152.288
152.325
152.362
152.398
152.434
152.471
152.507
152.544
152.58
152.616
152.653
152.689
152.725
152.761
152.797
152.833
152.869
152.906
152.942
152.977
153.013
153.049
153.085
153.121
153.157
153.192
153.228
153.264
153.299
153.335
153.371
153.406
153.442
153.477
153.512
153.548
153.583
153.618
153.654
153.689
153.724
153.759
153.794
153.829
153.864
153.899
153.934
153.969
154.004
154.039
154.073
154.108
154.143
154.177
154.212
154.246
154.281
154.315
154.35
154.384
154.418
154.452
154.487
154.521
154.555
154.589
154.623
154.657
154.691
154.725
154.758
154.792
154.826
154.86
154.893
154.927
154.96
154.994
155.027
155.06
155.094
155.127
155.16
155.193
155.226
155.259
155.292
155.325
155.358
155.391
155.424
155.456
155.489
155.522
155.554
155.587
155.619
155.651