/*--------------------------------*- C++ -*----------------------------------*\
  =========                 |
  \\      /  F ield         | OpenFOAM: The Open Source CFD Toolbox
   \\    /   O peration     | Website:  https://openfoam.org
    \\  /    A nd           | Version:  9
     \\/     M anipulation  |
\*---------------------------------------------------------------------------*/
FoamFile
{
    format      ascii;
    class       volVectorField;
    location    "0.032";
    object      U;
}
// * * * * * * * * * * * * * * * * * * * * * * * * * * * * * * * * * * * * * //

dimensions      [0 1 -1 0 0 0 0];

internalField   nonuniform List<vector> 
10000
(
(4.56673 0 0)
(4.61633 0 0)
(4.66841 0 0)
(4.7113 0 0)
(4.75069 0 0)
(4.79052 0 0)
(4.8312 0 0)
(4.87211 0 0)
(4.91296 0 0)
(4.95373 0 0)
(4.99449 0 0)
(5.03525 0 0)
(5.07602 0 0)
(5.11679 0 0)
(5.15756 0 0)
(5.19833 0 0)
(5.2391 0 0)
(5.27987 0 0)
(5.32064 0 0)
(5.36142 0 0)
(5.40219 0 0)
(5.44296 0 0)
(5.48373 0 0)
(5.5245 0 0)
(5.56527 0 0)
(5.60605 0 0)
(5.64682 0 0)
(5.68759 0 0)
(5.72837 0 0)
(5.76914 0 0)
(5.80991 0 0)
(5.85069 0 0)
(5.89146 0 0)
(5.93223 0 0)
(5.97301 0 0)
(6.01378 0 0)
(6.05456 0 0)
(6.09534 0 0)
(6.13611 0 0)
(6.17689 0 0)
(6.21766 0 0)
(6.25843 0 0)
(6.29921 0 0)
(6.33999 0 0)
(6.38076 0 0)
(6.42154 0 0)
(6.46232 0 0)
(6.5031 0 0)
(6.54387 0 0)
(6.58465 0 0)
(6.62543 0 0)
(6.66621 0 0)
(6.70698 0 0)
(6.74776 0 0)
(6.78854 0 0)
(6.82931 0 0)
(6.87009 0 0)
(6.91087 0 0)
(6.95165 0 0)
(6.99243 0 0)
(7.03321 0 0)
(7.07399 0 0)
(7.11477 0 0)
(7.15556 0 0)
(7.19634 0 0)
(7.23712 0 0)
(7.27791 0 0)
(7.31869 0 0)
(7.35947 0 0)
(7.40026 0 0)
(7.44104 0 0)
(7.48182 0 0)
(7.5226 0 0)
(7.56339 0 0)
(7.60417 0 0)
(7.64495 0 0)
(7.68573 0 0)
(7.72652 0 0)
(7.7673 0 0)
(7.80808 0 0)
(7.84887 0 0)
(7.88965 0 0)
(7.93044 0 0)
(7.97122 0 0)
(8.012 0 0)
(8.05279 0 0)
(8.09357 0 0)
(8.13436 0 0)
(8.17514 0 0)
(8.21593 0 0)
(8.25672 0 0)
(8.2975 0 0)
(8.33829 0 0)
(8.37907 0 0)
(8.41986 0 0)
(8.46065 0 0)
(8.50143 0 0)
(8.54222 0 0)
(8.58301 0 0)
(8.62379 0 0)
(8.66458 0 0)
(8.70537 0 0)
(8.74616 0 0)
(8.78695 0 0)
(8.82773 0 0)
(8.86852 0 0)
(8.90931 0 0)
(8.9501 0 0)
(8.99089 0 0)
(9.03168 0 0)
(9.07247 0 0)
(9.11326 0 0)
(9.15405 0 0)
(9.19484 0 0)
(9.23563 0 0)
(9.27642 0 0)
(9.31721 0 0)
(9.358 0 0)
(9.39879 0 0)
(9.43958 0 0)
(9.48038 0 0)
(9.52117 0 0)
(9.56196 0 0)
(9.60275 0 0)
(9.64354 0 0)
(9.68434 0 0)
(9.72513 0 0)
(9.76592 0 0)
(9.80672 0 0)
(9.84751 0 0)
(9.8883 0 0)
(9.9291 0 0)
(9.96989 0 0)
(10.0107 0 0)
(10.0515 0 0)
(10.0923 0 0)
(10.1331 0 0)
(10.1739 0 0)
(10.2147 0 0)
(10.2555 0 0)
(10.2963 0 0)
(10.337 0 0)
(10.3778 0 0)
(10.4186 0 0)
(10.4594 0 0)
(10.5002 0 0)
(10.541 0 0)
(10.5818 0 0)
(10.6226 0 0)
(10.6634 0 0)
(10.7042 0 0)
(10.745 0 0)
(10.7858 0 0)
(10.8266 0 0)
(10.8674 0 0)
(10.9082 0 0)
(10.949 0 0)
(10.9898 0 0)
(11.0306 0 0)
(11.0714 0 0)
(11.1122 0 0)
(11.153 0 0)
(11.1938 0 0)
(11.2346 0 0)
(11.2754 0 0)
(11.3162 0 0)
(11.357 0 0)
(11.3978 0 0)
(11.4386 0 0)
(11.4794 0 0)
(11.5202 0 0)
(11.561 0 0)
(11.6018 0 0)
(11.6426 0 0)
(11.6834 0 0)
(11.7242 0 0)
(11.765 0 0)
(11.8058 0 0)
(11.8466 0 0)
(11.8874 0 0)
(11.9282 0 0)
(11.969 0 0)
(12.0099 0 0)
(12.0507 0 0)
(12.0915 0 0)
(12.1323 0 0)
(12.1731 0 0)
(12.2139 0 0)
(12.2547 0 0)
(12.2955 0 0)
(12.3363 0 0)
(12.3771 0 0)
(12.4179 0 0)
(12.4587 0 0)
(12.4995 0 0)
(12.5403 0 0)
(12.5811 0 0)
(12.6219 0 0)
(12.6627 0 0)
(12.7036 0 0)
(12.7444 0 0)
(12.7852 0 0)
(12.826 0 0)
(12.8668 0 0)
(12.9076 0 0)
(12.9484 0 0)
(12.9892 0 0)
(13.03 0 0)
(13.0708 0 0)
(13.1116 0 0)
(13.1525 0 0)
(13.1933 0 0)
(13.2341 0 0)
(13.2749 0 0)
(13.3157 0 0)
(13.3565 0 0)
(13.3973 0 0)
(13.4381 0 0)
(13.4789 0 0)
(13.5197 0 0)
(13.5606 0 0)
(13.6014 0 0)
(13.6422 0 0)
(13.683 0 0)
(13.7238 0 0)
(13.7646 0 0)
(13.8054 0 0)
(13.8462 0 0)
(13.8871 0 0)
(13.9279 0 0)
(13.9687 0 0)
(14.0095 0 0)
(14.0503 0 0)
(14.0911 0 0)
(14.1319 0 0)
(14.1728 0 0)
(14.2136 0 0)
(14.2544 0 0)
(14.2952 0 0)
(14.336 0 0)
(14.3768 0 0)
(14.4177 0 0)
(14.4585 0 0)
(14.4993 0 0)
(14.5401 0 0)
(14.5809 0 0)
(14.6217 0 0)
(14.6626 0 0)
(14.7034 0 0)
(14.7442 0 0)
(14.785 0 0)
(14.8258 0 0)
(14.8666 0 0)
(14.9075 0 0)
(14.9483 0 0)
(14.9891 0 0)
(15.0299 0 0)
(15.0707 0 0)
(15.1116 0 0)
(15.1524 0 0)
(15.1932 0 0)
(15.234 0 0)
(15.2748 0 0)
(15.3157 0 0)
(15.3565 0 0)
(15.3973 0 0)
(15.4381 0 0)
(15.4789 0 0)
(15.5198 0 0)
(15.5606 0 0)
(15.6014 0 0)
(15.6422 0 0)
(15.683 0 0)
(15.7239 0 0)
(15.7647 0 0)
(15.8055 0 0)
(15.8463 0 0)
(15.8872 0 0)
(15.928 0 0)
(15.9688 0 0)
(16.0096 0 0)
(16.0505 0 0)
(16.0913 0 0)
(16.1321 0 0)
(16.1729 0 0)
(16.2138 0 0)
(16.2546 0 0)
(16.2954 0 0)
(16.3362 0 0)
(16.3771 0 0)
(16.4179 0 0)
(16.4587 0 0)
(16.4995 0 0)
(16.5404 0 0)
(16.5812 0 0)
(16.622 0 0)
(16.6628 0 0)
(16.7037 0 0)
(16.7445 0 0)
(16.7853 0 0)
(16.8261 0 0)
(16.867 0 0)
(16.9078 0 0)
(16.9486 0 0)
(16.9895 0 0)
(17.0303 0 0)
(17.0711 0 0)
(17.1119 0 0)
(17.1528 0 0)
(17.1936 0 0)
(17.2344 0 0)
(17.2753 0 0)
(17.3161 0 0)
(17.3569 0 0)
(17.3978 0 0)
(17.4386 0 0)
(17.4794 0 0)
(17.5202 0 0)
(17.5611 0 0)
(17.6019 0 0)
(17.6427 0 0)
(17.6836 0 0)
(17.7244 0 0)
(17.7652 0 0)
(17.8061 0 0)
(17.8469 0 0)
(17.8877 0 0)
(17.9286 0 0)
(17.9694 0 0)
(18.0102 0 0)
(18.0511 0 0)
(18.0919 0 0)
(18.1327 0 0)
(18.1736 0 0)
(18.2144 0 0)
(18.2552 0 0)
(18.2961 0 0)
(18.3369 0 0)
(18.3777 0 0)
(18.4186 0 0)
(18.4594 0 0)
(18.5002 0 0)
(18.5411 0 0)
(18.5819 0 0)
(18.6228 0 0)
(18.6636 0 0)
(18.7044 0 0)
(18.7453 0 0)
(18.7861 0 0)
(18.8269 0 0)
(18.8678 0 0)
(18.9086 0 0)
(18.9495 0 0)
(18.9903 0 0)
(19.0311 0 0)
(19.072 0 0)
(19.1128 0 0)
(19.1536 0 0)
(19.1945 0 0)
(19.2353 0 0)
(19.2762 0 0)
(19.317 0 0)
(19.3578 0 0)
(19.3987 0 0)
(19.4395 0 0)
(19.4804 0 0)
(19.5212 0 0)
(19.562 0 0)
(19.6029 0 0)
(19.6437 0 0)
(19.6846 0 0)
(19.7254 0 0)
(19.7662 0 0)
(19.8071 0 0)
(19.8479 0 0)
(19.8888 0 0)
(19.9296 0 0)
(19.9705 0 0)
(20.0113 0 0)
(20.0521 0 0)
(20.093 0 0)
(20.1338 0 0)
(20.1747 0 0)
(20.2155 0 0)
(20.2564 0 0)
(20.2972 0 0)
(20.3381 0 0)
(20.3789 0 0)
(20.4197 0 0)
(20.4606 0 0)
(20.5014 0 0)
(20.5423 0 0)
(20.5831 0 0)
(20.624 0 0)
(20.6648 0 0)
(20.7057 0 0)
(20.7465 0 0)
(20.7874 0 0)
(20.8282 0 0)
(20.869 0 0)
(20.9099 0 0)
(20.9507 0 0)
(20.9916 0 0)
(21.0324 0 0)
(21.0733 0 0)
(21.1141 0 0)
(21.155 0 0)
(21.1958 0 0)
(21.2367 0 0)
(21.2775 0 0)
(21.3184 0 0)
(21.3592 0 0)
(21.4001 0 0)
(21.4409 0 0)
(21.4818 0 0)
(21.5226 0 0)
(21.5635 0 0)
(21.6043 0 0)
(21.6452 0 0)
(21.686 0 0)
(21.7269 0 0)
(21.7677 0 0)
(21.8086 0 0)
(21.8494 0 0)
(21.8903 0 0)
(21.9311 0 0)
(21.972 0 0)
(22.0128 0 0)
(22.0537 0 0)
(22.0945 0 0)
(22.1354 0 0)
(22.1763 0 0)
(22.2171 0 0)
(22.258 0 0)
(22.2988 0 0)
(22.3397 0 0)
(22.3805 0 0)
(22.4214 0 0)
(22.4622 0 0)
(22.5031 0 0)
(22.5439 0 0)
(22.5848 0 0)
(22.6257 0 0)
(22.6665 0 0)
(22.7074 0 0)
(22.7482 0 0)
(22.7891 0 0)
(22.8299 0 0)
(22.8708 0 0)
(22.9116 0 0)
(22.9525 0 0)
(22.9934 0 0)
(23.0342 0 0)
(23.0751 0 0)
(23.1159 0 0)
(23.1568 0 0)
(23.1976 0 0)
(23.2385 0 0)
(23.2794 0 0)
(23.3202 0 0)
(23.3611 0 0)
(23.4019 0 0)
(23.4428 0 0)
(23.4837 0 0)
(23.5245 0 0)
(23.5654 0 0)
(23.6062 0 0)
(23.6471 0 0)
(23.688 0 0)
(23.7288 0 0)
(23.7697 0 0)
(23.8105 0 0)
(23.8514 0 0)
(23.8923 0 0)
(23.9331 0 0)
(23.974 0 0)
(24.0148 0 0)
(24.0557 0 0)
(24.0966 0 0)
(24.1374 0 0)
(24.1783 0 0)
(24.2192 0 0)
(24.26 0 0)
(24.3009 0 0)
(24.3417 0 0)
(24.3826 0 0)
(24.4235 0 0)
(24.4643 0 0)
(24.5052 0 0)
(24.5461 0 0)
(24.5869 0 0)
(24.6278 0 0)
(24.6687 0 0)
(24.7095 0 0)
(24.7504 0 0)
(24.7913 0 0)
(24.8321 0 0)
(24.873 0 0)
(24.9139 0 0)
(24.9547 0 0)
(24.9956 0 0)
(25.0365 0 0)
(25.0773 0 0)
(25.1182 0 0)
(25.1591 0 0)
(25.1999 0 0)
(25.2408 0 0)
(25.2817 0 0)
(25.3225 0 0)
(25.3634 0 0)
(25.4043 0 0)
(25.4451 0 0)
(25.486 0 0)
(25.5269 0 0)
(25.5677 0 0)
(25.6086 0 0)
(25.6495 0 0)
(25.6903 0 0)
(25.7312 0 0)
(25.7721 0 0)
(25.813 0 0)
(25.8538 0 0)
(25.8947 0 0)
(25.9356 0 0)
(25.9764 0 0)
(26.0173 0 0)
(26.0582 0 0)
(26.099 0 0)
(26.1399 0 0)
(26.1808 0 0)
(26.2217 0 0)
(26.2625 0 0)
(26.3034 0 0)
(26.3443 0 0)
(26.3852 0 0)
(26.426 0 0)
(26.4669 0 0)
(26.5078 0 0)
(26.5486 0 0)
(26.5895 0 0)
(26.6304 0 0)
(26.6713 0 0)
(26.7121 0 0)
(26.753 0 0)
(26.7939 0 0)
(26.8348 0 0)
(26.8756 0 0)
(26.9165 0 0)
(26.9574 0 0)
(26.9983 0 0)
(27.0391 0 0)
(27.08 0 0)
(27.1209 0 0)
(27.1618 0 0)
(27.2026 0 0)
(27.2435 0 0)
(27.2844 0 0)
(27.3253 0 0)
(27.3662 0 0)
(27.407 0 0)
(27.4479 0 0)
(27.4888 0 0)
(27.5297 0 0)
(27.5705 0 0)
(27.6114 0 0)
(27.6523 0 0)
(27.6932 0 0)
(27.7341 0 0)
(27.7749 0 0)
(27.8158 0 0)
(27.8567 0 0)
(27.8976 0 0)
(27.9385 0 0)
(27.9793 0 0)
(28.0202 0 0)
(28.0611 0 0)
(28.102 0 0)
(28.1429 0 0)
(28.1837 0 0)
(28.2246 0 0)
(28.2655 0 0)
(28.3064 0 0)
(28.3473 0 0)
(28.3882 0 0)
(28.429 0 0)
(28.4699 0 0)
(28.5108 0 0)
(28.5517 0 0)
(28.5926 0 0)
(28.6334 0 0)
(28.6743 0 0)
(28.7152 0 0)
(28.7561 0 0)
(28.797 0 0)
(28.8379 0 0)
(28.8788 0 0)
(28.9196 0 0)
(28.9605 0 0)
(29.0014 0 0)
(29.0423 0 0)
(29.0832 0 0)
(29.1241 0 0)
(29.1649 0 0)
(29.2058 0 0)
(29.2467 0 0)
(29.2876 0 0)
(29.3285 0 0)
(29.3694 0 0)
(29.4103 0 0)
(29.4512 0 0)
(29.492 0 0)
(29.5329 0 0)
(29.5738 0 0)
(29.6147 0 0)
(29.6556 0 0)
(29.6965 0 0)
(29.7374 0 0)
(29.7783 0 0)
(29.8191 0 0)
(29.86 0 0)
(29.9009 0 0)
(29.9418 0 0)
(29.9827 0 0)
(30.0236 0 0)
(30.0645 0 0)
(30.1054 0 0)
(30.1463 0 0)
(30.1871 0 0)
(30.228 0 0)
(30.2689 0 0)
(30.3098 0 0)
(30.3507 0 0)
(30.3916 0 0)
(30.4325 0 0)
(30.4734 0 0)
(30.5143 0 0)
(30.5552 0 0)
(30.5961 0 0)
(30.637 0 0)
(30.6778 0 0)
(30.7187 0 0)
(30.7596 0 0)
(30.8005 0 0)
(30.8414 0 0)
(30.8823 0 0)
(30.9232 0 0)
(30.9641 0 0)
(31.005 0 0)
(31.0459 0 0)
(31.0868 0 0)
(31.1277 0 0)
(31.1686 0 0)
(31.2095 0 0)
(31.2504 0 0)
(31.2913 0 0)
(31.3321 0 0)
(31.373 0 0)
(31.4139 0 0)
(31.4548 0 0)
(31.4957 0 0)
(31.5366 0 0)
(31.5775 0 0)
(31.6184 0 0)
(31.6593 0 0)
(31.7002 0 0)
(31.7411 0 0)
(31.782 0 0)
(31.8229 0 0)
(31.8638 0 0)
(31.9047 0 0)
(31.9456 0 0)
(31.9865 0 0)
(32.0274 0 0)
(32.0683 0 0)
(32.1092 0 0)
(32.1501 0 0)
(32.191 0 0)
(32.2319 0 0)
(32.2728 0 0)
(32.3137 0 0)
(32.3546 0 0)
(32.3955 0 0)
(32.4364 0 0)
(32.4773 0 0)
(32.5182 0 0)
(32.5591 0 0)
(32.6 0 0)
(32.6409 0 0)
(32.6818 0 0)
(32.7227 0 0)
(32.7636 0 0)
(32.8045 0 0)
(32.8454 0 0)
(32.8863 0 0)
(32.9272 0 0)
(32.9681 0 0)
(33.009 0 0)
(33.0499 0 0)
(33.0908 0 0)
(33.1317 0 0)
(33.1726 0 0)
(33.2135 0 0)
(33.2544 0 0)
(33.2953 0 0)
(33.3363 0 0)
(33.3772 0 0)
(33.4181 0 0)
(33.459 0 0)
(33.4999 0 0)
(33.5408 0 0)
(33.5817 0 0)
(33.6226 0 0)
(33.6635 0 0)
(33.7044 0 0)
(33.7453 0 0)
(33.7862 0 0)
(33.8271 0 0)
(33.868 0 0)
(33.9089 0 0)
(33.9498 0 0)
(33.9907 0 0)
(34.0317 0 0)
(34.0726 0 0)
(34.1135 0 0)
(34.1544 0 0)
(34.1953 0 0)
(34.2362 0 0)
(34.2771 0 0)
(34.318 0 0)
(34.3589 0 0)
(34.3998 0 0)
(34.4407 0 0)
(34.4817 0 0)
(34.5226 0 0)
(34.5635 0 0)
(34.6044 0 0)
(34.6453 0 0)
(34.6862 0 0)
(34.7271 0 0)
(34.768 0 0)
(34.8089 0 0)
(34.8498 0 0)
(34.8908 0 0)
(34.9317 0 0)
(34.9726 0 0)
(35.0135 0 0)
(35.0544 0 0)
(35.0953 0 0)
(35.1362 0 0)
(35.1771 0 0)
(35.2181 0 0)
(35.259 0 0)
(35.2999 0 0)
(35.3408 0 0)
(35.3817 0 0)
(35.4226 0 0)
(35.4635 0 0)
(35.5045 0 0)
(35.5454 0 0)
(35.5863 0 0)
(35.6272 0 0)
(35.6681 0 0)
(35.709 0 0)
(35.7499 0 0)
(35.7909 0 0)
(35.8318 0 0)
(35.8727 0 0)
(35.9136 0 0)
(35.9545 0 0)
(35.9954 0 0)
(36.0364 0 0)
(36.0773 0 0)
(36.1182 0 0)
(36.1591 0 0)
(36.2 0 0)
(36.2409 0 0)
(36.2819 0 0)
(36.3228 0 0)
(36.3637 0 0)
(36.4046 0 0)
(36.4455 0 0)
(36.4864 0 0)
(36.5274 0 0)
(36.5683 0 0)
(36.6092 0 0)
(36.6501 0 0)
(36.691 0 0)
(36.732 0 0)
(36.7729 0 0)
(36.8138 0 0)
(36.8547 0 0)
(36.8956 0 0)
(36.9366 0 0)
(36.9775 0 0)
(37.0184 0 0)
(37.0593 0 0)
(37.1002 0 0)
(37.1412 0 0)
(37.1821 0 0)
(37.223 0 0)
(37.2639 0 0)
(37.3049 0 0)
(37.3458 0 0)
(37.3867 0 0)
(37.4276 0 0)
(37.4685 0 0)
(37.5095 0 0)
(37.5504 0 0)
(37.5913 0 0)
(37.6322 0 0)
(37.6732 0 0)
(37.7141 0 0)
(37.755 0 0)
(37.7959 0 0)
(37.8369 0 0)
(37.8778 0 0)
(37.9187 0 0)
(37.9596 0 0)
(38.0006 0 0)
(38.0415 0 0)
(38.0824 0 0)
(38.1233 0 0)
(38.1643 0 0)
(38.2052 0 0)
(38.2461 0 0)
(38.287 0 0)
(38.328 0 0)
(38.3689 0 0)
(38.4098 0 0)
(38.4507 0 0)
(38.4917 0 0)
(38.5326 0 0)
(38.5735 0 0)
(38.6145 0 0)
(38.6554 0 0)
(38.6963 0 0)
(38.7372 0 0)
(38.7782 0 0)
(38.8191 0 0)
(38.86 0 0)
(38.901 0 0)
(38.9419 0 0)
(38.9828 0 0)
(39.0237 0 0)
(39.0647 0 0)
(39.1056 0 0)
(39.1465 0 0)
(39.1875 0 0)
(39.2284 0 0)
(39.2693 0 0)
(39.3103 0 0)
(39.3512 0 0)
(39.3921 0 0)
(39.4331 0 0)
(39.474 0 0)
(39.5149 0 0)
(39.5558 0 0)
(39.5968 0 0)
(39.6377 0 0)
(39.6786 0 0)
(39.7196 0 0)
(39.7605 0 0)
(39.8014 0 0)
(39.8424 0 0)
(39.8833 0 0)
(39.9242 0 0)
(39.9652 0 0)
(40.0061 0 0)
(40.047 0 0)
(40.088 0 0)
(40.1289 0 0)
(40.1698 0 0)
(40.2108 0 0)
(40.2517 0 0)
(40.2927 0 0)
(40.3336 0 0)
(40.3745 0 0)
(40.4155 0 0)
(40.4564 0 0)
(40.4973 0 0)
(40.5383 0 0)
(40.5792 0 0)
(40.6201 0 0)
(40.6611 0 0)
(40.702 0 0)
(40.743 0 0)
(40.7839 0 0)
(40.8248 0 0)
(40.8658 0 0)
(40.9067 0 0)
(40.9476 0 0)
(40.9886 0 0)
(41.0295 0 0)
(41.0705 0 0)
(41.1114 0 0)
(41.1523 0 0)
(41.1933 0 0)
(41.2342 0 0)
(41.2751 0 0)
(41.3161 0 0)
(41.357 0 0)
(41.398 0 0)
(41.4389 0 0)
(41.4798 0 0)
(41.5208 0 0)
(41.5617 0 0)
(41.6027 0 0)
(41.6436 0 0)
(41.6846 0 0)
(41.7255 0 0)
(41.7664 0 0)
(41.8074 0 0)
(41.8483 0 0)
(41.8893 0 0)
(41.9302 0 0)
(41.9711 0 0)
(42.0121 0 0)
(42.053 0 0)
(42.094 0 0)
(42.1349 0 0)
(42.1759 0 0)
(42.2168 0 0)
(42.2577 0 0)
(42.2987 0 0)
(42.3396 0 0)
(42.3806 0 0)
(42.4215 0 0)
(42.4625 0 0)
(42.5034 0 0)
(42.5444 0 0)
(42.5853 0 0)
(42.6263 0 0)
(42.6672 0 0)
(42.7081 0 0)
(42.7491 0 0)
(42.79 0 0)
(42.831 0 0)
(42.8719 0 0)
(42.9129 0 0)
(42.9538 0 0)
(42.9948 0 0)
(43.0357 0 0)
(43.0767 0 0)
(43.1176 0 0)
(43.1586 0 0)
(43.1995 0 0)
(43.2405 0 0)
(43.2814 0 0)
(43.3223 0 0)
(43.3633 0 0)
(43.4042 0 0)
(43.4452 0 0)
(43.4861 0 0)
(43.5271 0 0)
(43.568 0 0)
(43.609 0 0)
(43.6499 0 0)
(43.6909 0 0)
(43.7318 0 0)
(43.7728 0 0)
(43.8137 0 0)
(43.8547 0 0)
(43.8956 0 0)
(43.9366 0 0)
(43.9775 0 0)
(44.0185 0 0)
(44.0594 0 0)
(44.1004 0 0)
(44.1413 0 0)
(44.1823 0 0)
(44.2233 0 0)
(44.2642 0 0)
(44.3052 0 0)
(44.3461 0 0)
(44.3871 0 0)
(44.428 0 0)
(44.469 0 0)
(44.5099 0 0)
(44.5509 0 0)
(44.5918 0 0)
(44.6328 0 0)
(44.6737 0 0)
(44.7147 0 0)
(44.7556 0 0)
(44.7966 0 0)
(44.8376 0 0)
(44.8785 0 0)
(44.9195 0 0)
(44.9604 0 0)
(45.0014 0 0)
(45.0423 0 0)
(45.0833 0 0)
(45.1242 0 0)
(45.1652 0 0)
(45.2062 0 0)
(45.2471 0 0)
(45.2881 0 0)
(45.329 0 0)
(45.37 0 0)
(45.4109 0 0)
(45.4519 0 0)
(45.4929 0 0)
(45.5338 0 0)
(45.5748 0 0)
(45.6157 0 0)
(45.6567 0 0)
(45.6976 0 0)
(45.7386 0 0)
(45.7796 0 0)
(45.8205 0 0)
(45.8615 0 0)
(45.9024 0 0)
(45.9434 0 0)
(45.9844 0 0)
(46.0253 0 0)
(46.0663 0 0)
(46.1072 0 0)
(46.1482 0 0)
(46.1892 0 0)
(46.2301 0 0)
(46.2711 0 0)
(46.312 0 0)
(46.353 0 0)
(46.394 0 0)
(46.4349 0 0)
(46.4759 0 0)
(46.5168 0 0)
(46.5578 0 0)
(46.5988 0 0)
(46.6397 0 0)
(46.6807 0 0)
(46.7217 0 0)
(46.7626 0 0)
(46.8036 0 0)
(46.8445 0 0)
(46.8855 0 0)
(46.9265 0 0)
(46.9674 0 0)
(47.0084 0 0)
(47.0494 0 0)
(47.0903 0 0)
(47.1313 0 0)
(47.1723 0 0)
(47.2132 0 0)
(47.2542 0 0)
(47.2952 0 0)
(47.3361 0 0)
(47.3771 0 0)
(47.418 0 0)
(47.459 0 0)
(47.5 0 0)
(47.5409 0 0)
(47.5819 0 0)
(47.6229 0 0)
(47.6638 0 0)
(47.7048 0 0)
(47.7458 0 0)
(47.7867 0 0)
(47.8277 0 0)
(47.8687 0 0)
(47.9096 0 0)
(47.9506 0 0)
(47.9916 0 0)
(48.0326 0 0)
(48.0735 0 0)
(48.1145 0 0)
(48.1555 0 0)
(48.1964 0 0)
(48.2374 0 0)
(48.2784 0 0)
(48.3193 0 0)
(48.3603 0 0)
(48.4013 0 0)
(48.4422 0 0)
(48.4832 0 0)
(48.5242 0 0)
(48.5652 0 0)
(48.6061 0 0)
(48.6471 0 0)
(48.6881 0 0)
(48.729 0 0)
(48.77 0 0)
(48.811 0 0)
(48.852 0 0)
(48.8929 0 0)
(48.9339 0 0)
(48.9749 0 0)
(49.0158 0 0)
(49.0568 0 0)
(49.0978 0 0)
(49.1388 0 0)
(49.1797 0 0)
(49.2207 0 0)
(49.2617 0 0)
(49.3026 0 0)
(49.3436 0 0)
(49.3846 0 0)
(49.4256 0 0)
(49.4665 0 0)
(49.5075 0 0)
(49.5485 0 0)
(49.5895 0 0)
(49.6304 0 0)
(49.6714 0 0)
(49.7124 0 0)
(49.7534 0 0)
(49.7943 0 0)
(49.8353 0 0)
(49.8763 0 0)
(49.9173 0 0)
(49.9582 0 0)
(49.9992 0 0)
(50.0402 0 0)
(50.0812 0 0)
(50.1222 0 0)
(50.1631 0 0)
(50.2041 0 0)
(50.2451 0 0)
(50.2861 0 0)
(50.327 0 0)
(50.368 0 0)
(50.409 0 0)
(50.45 0 0)
(50.491 0 0)
(50.5319 0 0)
(50.5729 0 0)
(50.6139 0 0)
(50.6549 0 0)
(50.6958 0 0)
(50.7368 0 0)
(50.7778 0 0)
(50.8188 0 0)
(50.8598 0 0)
(50.9007 0 0)
(50.9417 0 0)
(50.9827 0 0)
(51.0237 0 0)
(51.0647 0 0)
(51.1056 0 0)
(51.1466 0 0)
(51.1876 0 0)
(51.2286 0 0)
(51.2696 0 0)
(51.3106 0 0)
(51.3515 0 0)
(51.3925 0 0)
(51.4335 0 0)
(51.4745 0 0)
(51.5155 0 0)
(51.5564 0 0)
(51.5974 0 0)
(51.6384 0 0)
(51.6794 0 0)
(51.7204 0 0)
(51.7614 0 0)
(51.8023 0 0)
(51.8433 0 0)
(51.8843 0 0)
(51.9253 0 0)
(51.9663 0 0)
(52.0073 0 0)
(52.0483 0 0)
(52.0892 0 0)
(52.1302 0 0)
(52.1712 0 0)
(52.2122 0 0)
(52.2532 0 0)
(52.2942 0 0)
(52.3351 0 0)
(52.3761 0 0)
(52.4171 0 0)
(52.4581 0 0)
(52.4991 0 0)
(52.5401 0 0)
(52.5811 0 0)
(52.6221 0 0)
(52.663 0 0)
(52.704 0 0)
(52.745 0 0)
(52.786 0 0)
(52.827 0 0)
(52.868 0 0)
(52.909 0 0)
(52.95 0 0)
(52.9909 0 0)
(53.0319 0 0)
(53.0729 0 0)
(53.1139 0 0)
(53.1549 0 0)
(53.1959 0 0)
(53.2369 0 0)
(53.2779 0 0)
(53.3189 0 0)
(53.3598 0 0)
(53.4008 0 0)
(53.4418 0 0)
(53.4828 0 0)
(53.5238 0 0)
(53.5648 0 0)
(53.6058 0 0)
(53.6468 0 0)
(53.6878 0 0)
(53.7288 0 0)
(53.7698 0 0)
(53.8107 0 0)
(53.8517 0 0)
(53.8927 0 0)
(53.9337 0 0)
(53.9747 0 0)
(54.0157 0 0)
(54.0567 0 0)
(54.0977 0 0)
(54.1387 0 0)
(54.1797 0 0)
(54.2207 0 0)
(54.2617 0 0)
(54.3027 0 0)
(54.3437 0 0)
(54.3847 0 0)
(54.4256 0 0)
(54.4666 0 0)
(54.5076 0 0)
(54.5486 0 0)
(54.5896 0 0)
(54.6306 0 0)
(54.6716 0 0)
(54.7126 0 0)
(54.7536 0 0)
(54.7946 0 0)
(54.8356 0 0)
(54.8766 0 0)
(54.9176 0 0)
(54.9586 0 0)
(54.9996 0 0)
(55.0406 0 0)
(55.0816 0 0)
(55.1226 0 0)
(55.1636 0 0)
(55.2046 0 0)
(55.2456 0 0)
(55.2866 0 0)
(55.3276 0 0)
(55.3686 0 0)
(55.4096 0 0)
(55.4506 0 0)
(55.4916 0 0)
(55.5326 0 0)
(55.5736 0 0)
(55.6146 0 0)
(55.6556 0 0)
(55.6966 0 0)
(55.7376 0 0)
(55.7786 0 0)
(55.8196 0 0)
(55.8606 0 0)
(55.9016 0 0)
(55.9426 0 0)
(55.9836 0 0)
(56.0246 0 0)
(56.0656 0 0)
(56.1066 0 0)
(56.1476 0 0)
(56.1886 0 0)
(56.2296 0 0)
(56.2706 0 0)
(56.3116 0 0)
(56.3526 0 0)
(56.3936 0 0)
(56.4346 0 0)
(56.4756 0 0)
(56.5166 0 0)
(56.5576 0 0)
(56.5986 0 0)
(56.6396 0 0)
(56.6806 0 0)
(56.7216 0 0)
(56.7626 0 0)
(56.8036 0 0)
(56.8446 0 0)
(56.8856 0 0)
(56.9266 0 0)
(56.9676 0 0)
(57.0086 0 0)
(57.0496 0 0)
(57.0906 0 0)
(57.1316 0 0)
(57.1726 0 0)
(57.2136 0 0)
(57.2546 0 0)
(57.2957 0 0)
(57.3367 0 0)
(57.3777 0 0)
(57.4187 0 0)
(57.4597 0 0)
(57.5007 0 0)
(57.5417 0 0)
(57.5827 0 0)
(57.6237 0 0)
(57.6647 0 0)
(57.7057 0 0)
(57.7467 0 0)
(57.7877 0 0)
(57.8287 0 0)
(57.8698 0 0)
(57.9108 0 0)
(57.9518 0 0)
(57.9928 0 0)
(58.0338 0 0)
(58.0748 0 0)
(58.1158 0 0)
(58.1568 0 0)
(58.1978 0 0)
(58.2388 0 0)
(58.2798 0 0)
(58.3208 0 0)
(58.3619 0 0)
(58.4029 0 0)
(58.4439 0 0)
(58.4849 0 0)
(58.5259 0 0)
(58.5669 0 0)
(58.6079 0 0)
(58.6489 0 0)
(58.6899 0 0)
(58.731 0 0)
(58.772 0 0)
(58.813 0 0)
(58.854 0 0)
(58.895 0 0)
(58.936 0 0)
(58.977 0 0)
(59.018 0 0)
(59.0591 0 0)
(59.1001 0 0)
(59.1411 0 0)
(59.1821 0 0)
(59.2231 0 0)
(59.2641 0 0)
(59.3051 0 0)
(59.3461 0 0)
(59.3872 0 0)
(59.4282 0 0)
(59.4692 0 0)
(59.5102 0 0)
(59.5512 0 0)
(59.5922 0 0)
(59.6332 0 0)
(59.6743 0 0)
(59.7153 0 0)
(59.7563 0 0)
(59.7973 0 0)
(59.8383 0 0)
(59.8793 0 0)
(59.9204 0 0)
(59.9614 0 0)
(60.0024 0 0)
(60.0434 0 0)
(60.0844 0 0)
(60.1254 0 0)
(60.1665 0 0)
(60.2075 0 0)
(60.2485 0 0)
(60.2895 0 0)
(60.3305 0 0)
(60.3715 0 0)
(60.4126 0 0)
(60.4536 0 0)
(60.4946 0 0)
(60.5356 0 0)
(60.5766 0 0)
(60.6176 0 0)
(60.6587 0 0)
(60.6997 0 0)
(60.7407 0 0)
(60.7817 0 0)
(60.8227 0 0)
(60.8638 0 0)
(60.9048 0 0)
(60.9458 0 0)
(60.9868 0 0)
(61.0278 0 0)
(61.0689 0 0)
(61.1099 0 0)
(61.1509 0 0)
(61.1919 0 0)
(61.2329 0 0)
(61.274 0 0)
(61.315 0 0)
(61.356 0 0)
(61.397 0 0)
(61.4381 0 0)
(61.4791 0 0)
(61.5201 0 0)
(61.5611 0 0)
(61.6021 0 0)
(61.6432 0 0)
(61.6842 0 0)
(61.7252 0 0)
(61.7662 0 0)
(61.8073 0 0)
(61.8483 0 0)
(61.8893 0 0)
(61.9303 0 0)
(61.9714 0 0)
(62.0124 0 0)
(62.0534 0 0)
(62.0944 0 0)
(62.1354 0 0)
(62.1765 0 0)
(62.2175 0 0)
(62.2585 0 0)
(62.2995 0 0)
(62.3406 0 0)
(62.3816 0 0)
(62.4226 0 0)
(62.4636 0 0)
(62.5047 0 0)
(62.5457 0 0)
(62.5867 0 0)
(62.6278 0 0)
(62.6688 0 0)
(62.7098 0 0)
(62.7508 0 0)
(62.7919 0 0)
(62.8329 0 0)
(62.8739 0 0)
(62.9149 0 0)
(62.956 0 0)
(62.997 0 0)
(63.038 0 0)
(63.0791 0 0)
(63.1201 0 0)
(63.1611 0 0)
(63.2021 0 0)
(63.2432 0 0)
(63.2842 0 0)
(63.3252 0 0)
(63.3663 0 0)
(63.4073 0 0)
(63.4483 0 0)
(63.4893 0 0)
(63.5304 0 0)
(63.5714 0 0)
(63.6124 0 0)
(63.6535 0 0)
(63.6945 0 0)
(63.7355 0 0)
(63.7766 0 0)
(63.8176 0 0)
(63.8586 0 0)
(63.8996 0 0)
(63.9407 0 0)
(63.9817 0 0)
(64.0227 0 0)
(64.0638 0 0)
(64.1048 0 0)
(64.1458 0 0)
(64.1869 0 0)
(64.2279 0 0)
(64.2689 0 0)
(64.31 0 0)
(64.351 0 0)
(64.392 0 0)
(64.4331 0 0)
(64.4741 0 0)
(64.5151 0 0)
(64.5562 0 0)
(64.5972 0 0)
(64.6382 0 0)
(64.6793 0 0)
(64.7203 0 0)
(64.7613 0 0)
(64.8024 0 0)
(64.8434 0 0)
(64.8844 0 0)
(64.9255 0 0)
(64.9665 0 0)
(65.0075 0 0)
(65.0486 0 0)
(65.0896 0 0)
(65.1306 0 0)
(65.1717 0 0)
(65.2127 0 0)
(65.2538 0 0)
(65.2948 0 0)
(65.3358 0 0)
(65.3769 0 0)
(65.4179 0 0)
(65.4589 0 0)
(65.5 0 0)
(65.541 0 0)
(65.5821 0 0)
(65.6231 0 0)
(65.6641 0 0)
(65.7052 0 0)
(65.7462 0 0)
(65.7872 0 0)
(65.8283 0 0)
(65.8693 0 0)
(65.9104 0 0)
(65.9514 0 0)
(65.9924 0 0)
(66.0335 0 0)
(66.0745 0 0)
(66.1155 0 0)
(66.1566 0 0)
(66.1976 0 0)
(66.2387 0 0)
(66.2797 0 0)
(66.3207 0 0)
(66.3618 0 0)
(66.4028 0 0)
(66.4439 0 0)
(66.4849 0 0)
(66.526 0 0)
(66.567 0 0)
(66.608 0 0)
(66.6491 0 0)
(66.6901 0 0)
(66.7312 0 0)
(66.7722 0 0)
(66.8132 0 0)
(66.8543 0 0)
(66.8953 0 0)
(66.9364 0 0)
(66.9774 0 0)
(67.0185 0 0)
(67.0595 0 0)
(67.1005 0 0)
(67.1416 0 0)
(67.1826 0 0)
(67.2237 0 0)
(67.2647 0 0)
(67.3058 0 0)
(67.3468 0 0)
(67.3878 0 0)
(67.4289 0 0)
(67.4699 0 0)
(67.511 0 0)
(67.552 0 0)
(67.5931 0 0)
(67.6341 0 0)
(67.6752 0 0)
(67.7162 0 0)
(67.7572 0 0)
(67.7983 0 0)
(67.8393 0 0)
(67.8804 0 0)
(67.9214 0 0)
(67.9625 0 0)
(68.0035 0 0)
(68.0446 0 0)
(68.0856 0 0)
(68.1267 0 0)
(68.1677 0 0)
(68.2088 0 0)
(68.2498 0 0)
(68.2908 0 0)
(68.3319 0 0)
(68.3729 0 0)
(68.414 0 0)
(68.455 0 0)
(68.4961 0 0)
(68.5371 0 0)
(68.5782 0 0)
(68.6192 0 0)
(68.6603 0 0)
(68.7013 0 0)
(68.7424 0 0)
(68.7834 0 0)
(68.8245 0 0)
(68.8655 0 0)
(68.9066 0 0)
(68.9476 0 0)
(68.9887 0 0)
(69.0297 0 0)
(69.0708 0 0)
(69.1118 0 0)
(69.1529 0 0)
(69.1939 0 0)
(69.235 0 0)
(69.276 0 0)
(69.3171 0 0)
(69.3581 0 0)
(69.3992 0 0)
(69.4402 0 0)
(69.4813 0 0)
(69.5223 0 0)
(69.5634 0 0)
(69.6044 0 0)
(69.6455 0 0)
(69.6865 0 0)
(69.7276 0 0)
(69.7686 0 0)
(69.8097 0 0)
(69.8507 0 0)
(69.8918 0 0)
(69.9329 0 0)
(69.9739 0 0)
(70.015 0 0)
(70.056 0 0)
(70.0971 0 0)
(70.1381 0 0)
(70.1792 0 0)
(70.2202 0 0)
(70.2613 0 0)
(70.3023 0 0)
(70.3434 0 0)
(70.3844 0 0)
(70.4255 0 0)
(70.4666 0 0)
(70.5076 0 0)
(70.5487 0 0)
(70.5897 0 0)
(70.6308 0 0)
(70.6718 0 0)
(70.7129 0 0)
(70.7539 0 0)
(70.795 0 0)
(70.8361 0 0)
(70.8771 0 0)
(70.9182 0 0)
(70.9592 0 0)
(71.0003 0 0)
(71.0413 0 0)
(71.0824 0 0)
(71.1235 0 0)
(71.1645 0 0)
(71.2056 0 0)
(71.2466 0 0)
(71.2877 0 0)
(71.3287 0 0)
(71.3698 0 0)
(71.4109 0 0)
(71.4519 0 0)
(71.493 0 0)
(71.534 0 0)
(71.5751 0 0)
(71.6162 0 0)
(71.6572 0 0)
(71.6983 0 0)
(71.7393 0 0)
(71.7804 0 0)
(71.8214 0 0)
(71.8625 0 0)
(71.9036 0 0)
(71.9446 0 0)
(71.9857 0 0)
(72.0267 0 0)
(72.0678 0 0)
(72.1089 0 0)
(72.1499 0 0)
(72.191 0 0)
(72.2321 0 0)
(72.2731 0 0)
(72.3142 0 0)
(72.3552 0 0)
(72.3963 0 0)
(72.4374 0 0)
(72.4784 0 0)
(72.5195 0 0)
(72.5605 0 0)
(72.6016 0 0)
(72.6427 0 0)
(72.6837 0 0)
(72.7248 0 0)
(72.7659 0 0)
(72.8069 0 0)
(72.848 0 0)
(72.889 0 0)
(72.9301 0 0)
(72.9712 0 0)
(73.0122 0 0)
(73.0533 0 0)
(73.0944 0 0)
(73.1354 0 0)
(73.1765 0 0)
(73.2176 0 0)
(73.2586 0 0)
(73.2997 0 0)
(73.3408 0 0)
(73.3818 0 0)
(73.4229 0 0)
(73.4639 0 0)
(73.505 0 0)
(73.5461 0 0)
(73.5871 0 0)
(73.6282 0 0)
(73.6693 0 0)
(73.7103 0 0)
(73.7514 0 0)
(73.7925 0 0)
(73.8335 0 0)
(73.8746 0 0)
(73.9157 0 0)
(73.9567 0 0)
(73.9978 0 0)
(74.0389 0 0)
(74.0799 0 0)
(74.121 0 0)
(74.1621 0 0)
(74.2031 0 0)
(74.2442 0 0)
(74.2853 0 0)
(74.3264 0 0)
(74.3674 0 0)
(74.4085 0 0)
(74.4496 0 0)
(74.4906 0 0)
(74.5317 0 0)
(74.5728 0 0)
(74.6138 0 0)
(74.6549 0 0)
(74.696 0 0)
(74.737 0 0)
(74.7781 0 0)
(74.8192 0 0)
(74.8602 0 0)
(74.9013 0 0)
(74.9424 0 0)
(74.9835 0 0)
(75.0245 0 0)
(75.0656 0 0)
(75.1067 0 0)
(75.1477 0 0)
(75.1888 0 0)
(75.2299 0 0)
(75.271 0 0)
(75.312 0 0)
(75.3531 0 0)
(75.3942 0 0)
(75.4352 0 0)
(75.4763 0 0)
(75.5174 0 0)
(75.5585 0 0)
(75.5995 0 0)
(75.6406 0 0)
(75.6817 0 0)
(75.7227 0 0)
(75.7638 0 0)
(75.8049 0 0)
(75.846 0 0)
(75.887 0 0)
(75.9281 0 0)
(75.9692 0 0)
(76.0103 0 0)
(76.0513 0 0)
(76.0924 0 0)
(76.1335 0 0)
(76.1746 0 0)
(76.2156 0 0)
(76.2567 0 0)
(76.2978 0 0)
(76.3389 0 0)
(76.3799 0 0)
(76.421 0 0)
(76.4621 0 0)
(76.5032 0 0)
(76.5442 0 0)
(76.5853 0 0)
(76.6264 0 0)
(76.6675 0 0)
(76.7085 0 0)
(76.7496 0 0)
(76.7907 0 0)
(76.8318 0 0)
(76.8728 0 0)
(76.9139 0 0)
(76.955 0 0)
(76.9961 0 0)
(77.0371 0 0)
(77.0782 0 0)
(77.1193 0 0)
(77.1604 0 0)
(77.2015 0 0)
(77.2425 0 0)
(77.2836 0 0)
(77.3247 0 0)
(77.3658 0 0)
(77.4068 0 0)
(77.4479 0 0)
(77.489 0 0)
(77.5301 0 0)
(77.5712 0 0)
(77.6122 0 0)
(77.6533 0 0)
(77.6944 0 0)
(77.7355 0 0)
(77.7766 0 0)
(77.8176 0 0)
(77.8587 0 0)
(77.8998 0 0)
(77.9409 0 0)
(77.982 0 0)
(78.023 0 0)
(78.0641 0 0)
(78.1052 0 0)
(78.1463 0 0)
(78.1874 0 0)
(78.2284 0 0)
(78.2695 0 0)
(78.3106 0 0)
(78.3517 0 0)
(78.3928 0 0)
(78.4338 0 0)
(78.4749 0 0)
(78.516 0 0)
(78.5571 0 0)
(78.5982 0 0)
(78.6393 0 0)
(78.6803 0 0)
(78.7214 0 0)
(78.7625 0 0)
(78.8036 0 0)
(78.8447 0 0)
(78.8857 0 0)
(78.9268 0 0)
(78.9679 0 0)
(79.009 0 0)
(79.0501 0 0)
(79.0912 0 0)
(79.1322 0 0)
(79.1733 0 0)
(79.2144 0 0)
(79.2555 0 0)
(79.2966 0 0)
(79.3377 0 0)
(79.3787 0 0)
(79.4198 0 0)
(79.4609 0 0)
(79.502 0 0)
(79.5431 0 0)
(79.5842 0 0)
(79.6253 0 0)
(79.6663 0 0)
(79.7074 0 0)
(79.7485 0 0)
(79.7896 0 0)
(79.8307 0 0)
(79.8718 0 0)
(79.9129 0 0)
(79.9539 0 0)
(79.995 0 0)
(80.0361 0 0)
(80.0772 0 0)
(80.1183 0 0)
(80.1594 0 0)
(80.2005 0 0)
(80.2416 0 0)
(80.2826 0 0)
(80.3237 0 0)
(80.3648 0 0)
(80.4059 0 0)
(80.447 0 0)
(80.4881 0 0)
(80.5292 0 0)
(80.5703 0 0)
(80.6113 0 0)
(80.6524 0 0)
(80.6935 0 0)
(80.7346 0 0)
(80.7757 0 0)
(80.8168 0 0)
(80.8579 0 0)
(80.899 0 0)
(80.94 0 0)
(80.9811 0 0)
(81.0222 0 0)
(81.0633 0 0)
(81.1044 0 0)
(81.1455 0 0)
(81.1866 0 0)
(81.2277 0 0)
(81.2688 0 0)
(81.3099 0 0)
(81.3509 0 0)
(81.392 0 0)
(81.4331 0 0)
(81.4742 0 0)
(81.5153 0 0)
(81.5564 0 0)
(81.5975 0 0)
(81.6386 0 0)
(81.6797 0 0)
(81.7208 0 0)
(81.7619 0 0)
(81.8029 0 0)
(81.844 0 0)
(81.8851 0 0)
(81.9262 0 0)
(81.9673 0 0)
(82.0084 0 0)
(82.0495 0 0)
(82.0906 0 0)
(82.1317 0 0)
(82.1728 0 0)
(82.2139 0 0)
(82.255 0 0)
(82.2961 0 0)
(82.3372 0 0)
(82.3782 0 0)
(82.4193 0 0)
(82.4604 0 0)
(82.5015 0 0)
(82.5426 0 0)
(82.5837 0 0)
(82.6248 0 0)
(82.6659 0 0)
(82.707 0 0)
(82.7481 0 0)
(82.7892 0 0)
(82.8303 0 0)
(82.8714 0 0)
(82.9125 0 0)
(82.9536 0 0)
(82.9947 0 0)
(83.0358 0 0)
(83.0768 0 0)
(83.1179 0 0)
(83.159 0 0)
(83.2001 0 0)
(83.2412 0 0)
(83.2823 0 0)
(83.3234 0 0)
(83.3645 0 0)
(83.4056 0 0)
(83.4467 0 0)
(83.4878 0 0)
(83.5289 0 0)
(83.57 0 0)
(83.6111 0 0)
(83.6522 0 0)
(83.6933 0 0)
(83.7344 0 0)
(83.7755 0 0)
(83.8166 0 0)
(83.8577 0 0)
(83.8988 0 0)
(83.9399 0 0)
(83.981 0 0)
(84.0221 0 0)
(84.0632 0 0)
(84.1043 0 0)
(84.1454 0 0)
(84.1865 0 0)
(84.2276 0 0)
(84.2687 0 0)
(84.3098 0 0)
(84.3509 0 0)
(84.392 0 0)
(84.4331 0 0)
(84.4742 0 0)
(84.5153 0 0)
(84.5564 0 0)
(84.5975 0 0)
(84.6386 0 0)
(84.6797 0 0)
(84.7208 0 0)
(84.7619 0 0)
(84.803 0 0)
(84.8441 0 0)
(84.8852 0 0)
(84.9263 0 0)
(84.9674 0 0)
(85.0085 0 0)
(85.0496 0 0)
(85.0907 0 0)
(85.1318 0 0)
(85.1729 0 0)
(85.214 0 0)
(85.2551 0 0)
(85.2962 0 0)
(85.3373 0 0)
(85.3784 0 0)
(85.4195 0 0)
(85.4606 0 0)
(85.5017 0 0)
(85.5428 0 0)
(85.5839 0 0)
(85.625 0 0)
(85.6661 0 0)
(85.7072 0 0)
(85.7483 0 0)
(85.7894 0 0)
(85.8305 0 0)
(85.8716 0 0)
(85.9127 0 0)
(85.9538 0 0)
(85.9949 0 0)
(86.036 0 0)
(86.0771 0 0)
(86.1182 0 0)
(86.1593 0 0)
(86.2004 0 0)
(86.2415 0 0)
(86.2826 0 0)
(86.3237 0 0)
(86.3648 0 0)
(86.406 0 0)
(86.4471 0 0)
(86.4882 0 0)
(86.5293 0 0)
(86.5704 0 0)
(86.6115 0 0)
(86.6526 0 0)
(86.6937 0 0)
(86.7348 0 0)
(86.7759 0 0)
(86.817 0 0)
(86.8581 0 0)
(86.8992 0 0)
(86.9403 0 0)
(86.9814 0 0)
(87.0225 0 0)
(87.0636 0 0)
(87.1047 0 0)
(87.1458 0 0)
(87.187 0 0)
(87.2281 0 0)
(87.2692 0 0)
(87.3103 0 0)
(87.3514 0 0)
(87.3925 0 0)
(87.4336 0 0)
(87.4747 0 0)
(87.5158 0 0)
(87.5569 0 0)
(87.598 0 0)
(87.6391 0 0)
(87.6802 0 0)
(87.7213 0 0)
(87.7625 0 0)
(87.8036 0 0)
(87.8447 0 0)
(87.8858 0 0)
(87.9269 0 0)
(87.968 0 0)
(88.0091 0 0)
(88.0502 0 0)
(88.0913 0 0)
(88.1324 0 0)
(88.1735 0 0)
(88.2147 0 0)
(88.2558 0 0)
(88.2969 0 0)
(88.338 0 0)
(88.3791 0 0)
(88.4202 0 0)
(88.4613 0 0)
(88.5024 0 0)
(88.5435 0 0)
(88.5846 0 0)
(88.6257 0 0)
(88.6669 0 0)
(88.708 0 0)
(88.7491 0 0)
(88.7902 0 0)
(88.8313 0 0)
(88.8724 0 0)
(88.9135 0 0)
(88.9546 0 0)
(88.9957 0 0)
(89.0369 0 0)
(89.078 0 0)
(89.1191 0 0)
(89.1602 0 0)
(89.2013 0 0)
(89.2424 0 0)
(89.2835 0 0)
(89.3246 0 0)
(89.3657 0 0)
(89.4069 0 0)
(89.448 0 0)
(89.4891 0 0)
(89.5302 0 0)
(89.5713 0 0)
(89.6124 0 0)
(89.6535 0 0)
(89.6946 0 0)
(89.7358 0 0)
(89.7769 0 0)
(89.818 0 0)
(89.8591 0 0)
(89.9002 0 0)
(89.9413 0 0)
(89.9824 0 0)
(90.0235 0 0)
(90.0647 0 0)
(90.1058 0 0)
(90.1469 0 0)
(90.188 0 0)
(90.2291 0 0)
(90.2702 0 0)
(90.3113 0 0)
(90.3525 0 0)
(90.3936 0 0)
(90.4347 0 0)
(90.4758 0 0)
(90.5169 0 0)
(90.558 0 0)
(90.5991 0 0)
(90.6403 0 0)
(90.6814 0 0)
(90.7225 0 0)
(90.7636 0 0)
(90.8047 0 0)
(90.8458 0 0)
(90.8869 0 0)
(90.9281 0 0)
(90.9692 0 0)
(91.0103 0 0)