/*--------------------------------*- C++ -*----------------------------------*\
  =========                 |
  \\      /  F ield         | OpenFOAM: The Open Source CFD Toolbox
   \\    /   O peration     | Website:  https://openfoam.org
    \\  /    A nd           | Version:  9
     \\/     M anipulation  |
\*---------------------------------------------------------------------------*/
FoamFile
{
    format      ascii;
    class       volScalarField;
    location    "0.004";
    object      mag(U);
}
// * * * * * * * * * * * * * * * * * * * * * * * * * * * * * * * * * * * * * //

dimensions      [0 1 -1 0 0 0 0];

internalField   nonuniform List<scalar> 
1000
(
5.94141e-12
4.82256e-12
4.80141e-12
4.8284e-12
3.83719e-12
6.29807e-12
5.62924e-12
7.08068e-12
5.832e-12
7.22728e-12
4.29377e-12
6.23024e-12
4.24053e-12
4.87653e-12
3.04218e-12
4.37254e-12
4.0932e-12
3.65339e-12
3.09834e-12
4.06475e-12
3.3332e-12
3.4127e-12
4.86486e-12
3.69715e-12
4.12821e-12
3.22233e-12
4.76057e-12
5.60152e-12
5.7773e-12
4.77734e-12
6.38705e-12
5.67008e-12
6.41622e-12
5.07492e-12
5.12598e-12
3.51408e-12
3.54107e-12
4.05746e-12
4.62563e-12
2.43608e-12
2.44702e-12
1.70015e-12
1.04664e-12
8.31476e-13
9.32858e-13
1.67025e-13
5.1712e-13
1.9e-12
1.60825e-12
4.23761e-13
2.12537e-12
1.81612e-12
1.48426e-12
1.69942e-13
5.39001e-13
1.04299e-12
4.92321e-13
7.22071e-13
1.06268e-12
1.03789e-12
1.59439e-12
4.63147e-13
1.07508e-12
1.82341e-14
1.95835e-12
2.25374e-12
2.30917e-12
2.0094e-12
2.50318e-12
2.31646e-12
3.30475e-12
2.60456e-12
4.26241e-12
2.39596e-12
2.65708e-12
2.16257e-12
3.30621e-12
1.44123e-12
1.60169e-12
1.56959e-12
4.61688e-13
3.47178e-13
2.34856e-13
9.49633e-13
1.80445e-12
2.30042e-12
9.21917e-13
9.81725e-13
2.14215e-12
3.91669e-13
1.87447e-12
5.60152e-13
5.06909e-13
8.11054e-13
3.15086e-13
1.9299e-12
1.32015e-13
2.1757e-12
2.04879e-12
3.40541e-12
2.04295e-12
1.32161e-12
2.63738e-12
1.12176e-12
9.13894e-13
1.9722e-12
2.57247e-12
3.03051e-12
3.4127e-12
2.69136e-12
5.11504e-12
3.51408e-12
5.40095e-12
2.20779e-12
3.16763e-12
9.10248e-13
3.70517e-13
6.6591e-13
7.1186e-13
1.23263e-12
1.07144e-12
1.76069e-12
1.396e-12
1.12541e-12
1.81831e-12
4.98886e-13
1.41497e-13
9.48175e-14
4.65335e-13
1.85259e-12
1.89489e-12
2.81608e-12
3.2712e-12
2.77596e-12
1.55719e-12
1.98387e-12
2.21727e-12
2.34199e-12
9.39422e-13
1.22242e-12
1.71328e-12
1.90656e-12
1.73078e-12
3.234e-12
3.22452e-12
4.92103e-12
3.44114e-12
4.12602e-12
3.01957e-12
2.69209e-12
1.44268e-12
2.53819e-12
2.45869e-12
2.41566e-12
2.10786e-12
2.25811e-12
2.17788e-12
2.71761e-12
3.1793e-12
4.07788e-12
4.59719e-12
3.74529e-12
2.97216e-12
2.7147e-12
2.85546e-12
3.69569e-12
3.60306e-12
2.64905e-12
3.36894e-12
2.75773e-12
4.24782e-12
2.7322e-12
3.96702e-12
4.6446e-12
4.77224e-12
3.36018e-12
2.76429e-12
2.25374e-12
2.31209e-12
1.9175e-12
1.26764e-12
2.04806e-12
2.87662e-12
1.17063e-12
1.70453e-12
2.35147e-12
2.32303e-12
9.15353e-13
1.23919e-12
1.85842e-12
2.57466e-12
2.18737e-12
2.61696e-12
2.40545e-12
2.71251e-12
1.26034e-12
1.60533e-12
1.75266e-12
2.74168e-12
3.10709e-13
2.30406e-12
7.25718e-13
1.04153e-12
1.64326e-12
1.55865e-12
3.19827e-12
2.156e-12
3.01228e-12
8.24912e-13
3.11293e-12
9.32128e-13
1.92261e-12
2.1881e-14
1.13562e-12
1.13125e-12
3.28944e-13
4.23032e-14
1.36172e-12
1.19835e-12
5.87868e-13
1.96199e-12
3.31132e-13
9.40881e-14
2.04952e-12
1.33109e-12
2.04514e-12
1.40913e-12
7.51246e-14
8.14701e-13
8.97119e-13
5.19308e-13
7.9209e-13
4.7117e-13
7.04567e-13
2.09474e-12
1.28514e-12
2.38284e-12
1.48353e-12
1.7089e-12
3.91669e-13
3.01957e-13
1.396e-12
1.43466e-12
3.358e-12
3.33028e-12
3.37477e-12
1.40111e-12
3.6636e-12
3.24422e-12
3.33393e-12
2.18007e-12
8.37311e-13
9.38693e-13
2.67166e-12
3.29089e-12
1.21148e-12
1.13416e-12
6.22878e-13
7.19154e-13
1.90948e-12
1.13781e-13
3.47178e-13
4.9378e-13
1.47769e-12
9.17541e-13
1.64764e-12
4.92321e-13
1.95397e-12
2.35512e-12
4.15155e-12
2.89485e-12
3.16763e-12
2.79857e-12
2.62061e-12
1.04007e-12
4.93051e-13
3.14794e-12
3.25953e-12
3.33466e-12
2.74168e-12
3.50022e-12
1.7461e-12
2.75262e-12
2.70157e-12
4.07569e-12
4.14571e-12
2.48859e-12
2.42806e-12
2.97289e-12
2.65489e-12
3.56732e-12
2.93569e-12
3.71393e-12
2.65562e-12
4.92613e-12
2.33032e-12
4.45059e-12
3.68111e-12
5.09243e-12
4.0188e-12
2.12391e-12
3.95826e-12
1.64997e-11
4.32258e-11
1.01228e-10
2.35583e-10
5.33117e-10
1.18553e-09
2.60826e-09
5.67509e-09
1.22336e-08
2.61193e-08
5.5249e-08
1.1576e-07
2.40235e-07
4.9372e-07
1.00468e-06
2.02394e-06
4.03571e-06
7.96356e-06
1.5548e-05
3.00284e-05
5.73562e-05
0.000108323
0.000202227
0.000373099
0.00068007
0.00122432
0.00217624
0.00381801
0.00660885
0.0112822
0.0189869
0.0314846
0.0514164
0.0826463
0.130678
0.203122
0.310159
0.46491
0.683549
0.984976
1.38975
1.91789
2.58448
3.39282
4.33319
5.39195
6.55833
7.82316
9.17712
10.6106
12.114
13.6784
15.2956
16.9584
18.6605
20.3964
22.1616
23.9523
25.7651
27.5973
29.4467
31.3112
33.1892
35.0793
36.9802
38.8909
40.8105
42.7381
44.673
46.6147
48.5625
50.5159
52.4747
54.4382
56.4062
58.3784
60.3544
62.334
64.317
66.3031
68.2922
70.284
72.2784
74.2752
76.2742
78.2754
80.2787
82.2838
84.2907
86.2992
88.3094
90.3211
92.3342
94.3486
96.3643
98.3812
100.399
102.418
104.438
106.459
108.481
110.504
112.528
114.552
116.577
118.602
120.629
122.655
124.683
126.711
128.739
130.767
132.796
134.826
136.855
138.885
140.915
142.945
144.975
147.006
149.036
151.066
153.096
155.126
157.156
159.185
161.215
163.244
165.274
167.301
169.331
171.357
173.385
175.412
177.436
179.464
181.487
183.511
185.536
187.556
189.578
191.599
193.615
195.634
197.651
199.662
201.676
203.688
205.694
207.701
209.707
211.706
213.704
215.703
217.694
219.681
221.67
223.651
225.626
227.598
229.569
231.527
233.484
235.434
237.378
239.311
241.239
243.158
245.068
246.965
248.852
250.729
252.59
254.439
256.268
258.086
259.881
261.661
263.411
265.145
266.847
268.53
270.173
271.791
273.364
274.907
276.401
277.854
279.253
280.606
281.898
283.135
284.308
285.417
286.46
287.423
288.324
289.148
289.907
290.596
291.219
291.773
292.262
292.676
293.037
293.349
293.619
293.856
294.072
294.251
294.425
294.551
294.641
294.702
294.717
294.715
294.703
294.666
294.579
294.413
294.179
293.923
293.666
293.449
293.299
293.234
293.23
293.232
293.241
293.259
293.285
293.325
293.367
293.387
293.396
293.401
293.405
293.41
293.416
293.422
293.427
293.432
293.433
293.434
293.437
293.438
293.438
293.438
293.439
293.441
293.442
293.441
293.44
293.44
293.44
293.44
293.441
293.441
293.44
293.44
293.441
293.439
293.436
293.436
293.44
293.443
293.442
293.441
293.443
293.446
293.449
293.451
293.453
293.456
293.457
293.459
293.462
293.463
293.466
293.469
293.471
293.472
293.476
293.479
293.48
293.483
293.487
293.485
293.483
293.493
293.501
293.479
293.445
293.458
293.51
293.535
293.518
293.493
293.491
293.504
293.513
293.511
293.509
293.514
293.519
293.519
293.521
293.533
293.56
293.605
293.715
293.937
293.954
293.807
293.578
293.412
293.376
293.394
293.407
293.415
293.442
293.464
293.467
293.477
293.494
293.493
293.5
293.525
293.515
293.501
293.555
293.583
293.525
293.519
293.596
293.56
293.427
293.498
293.718
293.73
293.567
293.477
293.512
293.569
293.583
293.58
293.578
293.581
293.586
293.591
293.599
293.612
293.616
293.613
293.613
293.609
293.597
293.589
293.595
293.604
293.597
293.586
293.614
293.668
293.666
293.614
293.562
293.526
293.536
293.591
293.607
293.543
293.443
293.431
293.482
293.523
293.554
293.554
293.501
293.433
293.415
293.402
293.256
292.943
292.768
292.841
293.032
293.094
292.955
292.718
292.591
292.534
292.48
292.414
292.401
292.499
292.588
292.513
292.284
291.97
291.591
291.455
291.41
291.4
291.409
291.306
290.976
290.518
289.983
289.249
288.341
287.466
286.94
286.576
286.435
286.265
285.274
282.322
275.663
259.471
204.441
85.0708
15.2616
2.38371
0.351205
0.0512951
0.00748077
0.00108979
0.000158663
2.30988e-05
3.36315e-06
4.89779e-07
7.13669e-08
1.04058e-08
1.5215e-09
2.2471e-10
3.39812e-11
7.82099e-12
4.50165e-12
2.17278e-12
3.24203e-12
2.61842e-12
1.59075e-12
1.65274e-12
2.11224e-12
1.20127e-12
7.32284e-13
1.7709e-12
1.60315e-12
4.13551e-13
1.08967e-12
7.33013e-13
1.23992e-14
8.33665e-13
8.32207e-13
2.12173e-12
8.30748e-13
1.35152e-12
1.2195e-12
1.2618e-12
6.98003e-13
3.18952e-12
1.86718e-13
1.38871e-12
1.0977e-12
1.30557e-13
4.2522e-13
2.83796e-12
3.34779e-13
4.05528e-13
1.69067e-12
6.4476e-13
5.22226e-13
5.12015e-13
2.3048e-13
5.41919e-13
4.11362e-13
1.21075e-12
6.42571e-13
1.4952e-13
6.4403e-13
1.69723e-12
3.58119e-13
7.46871e-13
3.57389e-13
1.81977e-12
9.47447e-13
5.95163e-13
3.40614e-13
7.60729e-13
1.7038e-12
1.79132e-12
4.11362e-12
2.60019e-12
3.19827e-12
7.20614e-13
3.34341e-12
4.81309e-12
3.91159e-12
3.74238e-12
1.86134e-12
3.93858e-13
3.8e-13
1.08092e-12
5.79846e-13
1.78622e-12
6.63723e-14
2.32084e-12
2.04733e-12
1.75996e-12
1.76069e-12
6.14126e-13
2.64468e-12
1.58929e-12
2.03493e-12
2.55424e-12
9.68598e-13
2.218e-12
4.77005e-13
4.27409e-13
1.75485e-12
9.23377e-13
2.19247e-12
1.09988e-12
1.01382e-13
2.53819e-13
2.69136e-12
3.00134e-12
1.70161e-12
1.96345e-12
1.70015e-12
1.61044e-12
1.0532e-12
2.41858e-12
2.39888e-12
2.94883e-12
2.31282e-12
3.42583e-12
3.83647e-12
3.73435e-12
2.79785e-12
3.92691e-12
5.02971e-12
5.91151e-12
4.18656e-12
4.64096e-12
3.42729e-12
4.26752e-12
1.53677e-12
2.98457e-12
8.83262e-13
2.04222e-13
1.16844e-12
1.4828e-12
1.50833e-12
2.70595e-12
7.95009e-14
8.43147e-13
3.20556e-12
9.32859e-13
3.98963e-13
1.48791e-13
4.05528e-13
1.94595e-12
9.97773e-13
1.98169e-12
2.94007e-12
3.19098e-12
3.21286e-12
1.57251e-12
9.65681e-13
1.27931e-12
2.68261e-12
2.82994e-12
1.03424e-12
1.59002e-13
8.52629e-13
1.39892e-12
6.25067e-13
9.90479e-13
2.97508e-12
4.15082e-12
4.01735e-12
3.33612e-12
4.21647e-12
2.23624e-12
1.43904e-12
2.62645e-12
1.28587e-12
1.01236e-12
9.86832e-13
2.59508e-12
8.66487e-13
1.27785e-12
7.72399e-13
7.87715e-14
2.3595e-12
2.73512e-13
7.33013e-13
1.44487e-12
2.30698e-12
5.47754e-13
1.07946e-13
1.6542e-12
1.32453e-12
3.32956e-12
1.82852e-12
1.28806e-12
1.03351e-12
8.24184e-14
2.71908e-12
9.74433e-13
2.47984e-13
1.41789e-12
2.059e-12
4.29597e-13
2.35221e-12
1.78768e-12
2.36533e-12
2.66948e-13
8.81074e-13
1.38288e-12
2.16768e-12
5.2879e-13
1.86791e-12
2.47693e-12
1.3909e-12
3.61839e-12
2.99769e-12
2.35804e-12
1.4157e-12
2.74606e-12
2.07359e-12
4.68107e-12
4.70952e-12
4.38203e-12
3.6884e-12
4.69201e-12
2.09766e-12
3.27339e-12
3.63881e-12
4.0684e-12
3.57827e-12
4.39881e-12
3.74019e-12
3.30403e-13
1.51854e-12
2.87443e-12
3.08595e-12
2.53528e-12
2.25009e-12
1.96783e-12
1.57543e-12
4.82111e-13
3.46959e-12
6.12157e-12
5.35792e-12
7.01723e-12
5.65113e-12
8.13462e-12
7.65251e-12
9.00548e-12
8.22068e-12
8.61017e-12
7.81953e-12
8.45627e-12
9.50145e-12
8.96172e-12
8.19443e-12
6.03186e-12
5.84368e-12
5.35428e-12
4.09174e-12
1.25232e-12
1.69651e-12
2.44484e-12
2.69136e-13
6.4476e-13
1.86353e-12
3.95025e-12
2.60967e-12
2.00576e-12
3.59577e-13
1.57178e-12
2.26541e-12
2.6651e-12
3.9094e-12
2.33397e-12
5.94944e-12
2.21873e-12
2.73877e-12
1.37704e-12
1.22752e-12
1.90365e-13
1.01382e-13
1.02257e-12
3.68695e-12
3.94976e-12
)
;

boundaryField
{
    sides
    {
        type            calculated;
        value           nonuniform List<scalar> 2(3.94976e-12 5.94141e-12);
    }
    empty
    {
        type            empty;
    }
}


// ************************************************************************* //
