/*--------------------------------*- C++ -*----------------------------------*\
  =========                 |
  \\      /  F ield         | OpenFOAM: The Open Source CFD Toolbox
   \\    /   O peration     | Website:  https://openfoam.org
    \\  /    A nd           | Version:  9
     \\/     M anipulation  |
\*---------------------------------------------------------------------------*/
FoamFile
{
    format      ascii;
    class       volScalarField;
    location    "0.042";
    object      ddt0(rho,e);
}
// * * * * * * * * * * * * * * * * * * * * * * * * * * * * * * * * * * * * * //

dimensions      [1 -1 -3 0 0 0 0];

internalField   nonuniform List<scalar> 
10000
(
673092
673062
673014
672966
672919
672870
672822
672775
672728
672679
672630
672584
672539
672492
672441
672393
672350
672306
672257
672205
672156
672114
672072
672024
671970
671918
671874
671837
671793
671740
671682
671633
671596
671562
671518
671459
671399
671350
671318
671289
671246
671185
671118
671065
671032
671011
670978
670921
670848
670779
670736
670717
670702
670667
670601
670519
670447
670407
670396
670392
670365
670299
670208
670121
670067
670053
670063
670059
670016
669929
669822
669732
669687
669690
669715
669724
669685
669592
669471
669360
669296
669292
669330
669370
669369
669304
669183
669039
668920
668860
668870
668928
668992
669014
668964
668844
668682
668524
668419
668391
668438
668528
668613
668644
668594
668462
668276
668086
667941
667877
667904
668001
668127
668229
668263
668204
668055
667845
667620
667433
667325
667315
667399
667544
667706
667832
667881
667829
667678
667451
667189
666943
666758
666667
666683
666797
666978
667183
667366
667482
667503
667415
667225
666960
666658
666363
666119
665960
665908
665964
666118
666341
666597
666845
667045
667166
667185
667095
666903
666626
666293
665939
665600
665310
665097
664981
664972
665068
665258
665522
665834
666164
666484
666764
666980
667112
667149
667086
666924
666671
666342
665954
665528
665087
664655
664252
663897
663607
663393
663268
663235
663297
663452
663697
664026
664430
664900
665426
665995
666597
667219
667849
668477
669094
669684
670237
670741
671189
671572
671885
672128
672302
672413
672474
672493
672492
672498
672524
672596
672804
673480
674099
674141
674193
674235
674268
674288
674301
674308
674310
674310
674307
674302
674298
674293
674286
674280
674275
674270
674265
674259
674253
674248
674244
674240
674236
674233
674229
674226
674223
674220
674217
674213
674210
674207
674205
674202
674199
674196
674192
674189
674185
674182
674180
674177
674174
674171
674168
674165
674162
674159
674156
674153
674151
674148
674145
674142
674139
674135
674132
674129
674126
674123
674120
674117
674114
674111
674108
674105
674102
674099
674096
674093
674090
674087
674084
674081
674077
674074
674071
674067
674064
674061
674058
674055
674052
674049
674046
674043
674040
674037
674034
674031
674027
674024
674021
674017
674014
674010
674007
674004
674001
673998
673995
673991
673988
673985
673982
673979
673976
673973
673969
673966
673963
673959
673956
673952
673949
673945
673942
673938
673935
673932
673929
673925
673922
673919
673916
673913
673909
673906
673903
673900
673896
673892
673889
673885
673881
673878
673874
673871
673867
673864
673861
673857
673854
673851
673847
673844
673841
673838
673834
673831
673827
673823
673820
673816
673812
673809
673805
673801
673798
673794
673791
673787
673784
673780
673777
673774
673770
673767
673763
673760
673756
673752
673748
673745
673741
673737
673734
673730
673726
673723
673719
673715
673712
673708
673704
673701
673697
673694
673690
673686
673682
673679
673675
673671
673667
673663
673660
673656
673652
673648
673645
673641
673637
673634
673630
673626
673622
673618
673615
673611
673607
673603
673599
673595
673591
673587
673583
673580
673576
673572
673568
673564
673560
673557
673553
673549
673545
673541
673537
673533
673529
673525
673521
673517
673513
673509
673505
673501
673497
673493
673489
673485
673481
673477
673473
673469
673465
673461
673457
673453
673449
673445
673440
673436
673432
673428
673424
673420
673416
673411
673407
673403
673399
673395
673391
673387
673383
673379
673375
673371
673366
673362
673357
673354
673348
673346
673339
673338
673329
673331
673319
673325
673307
673320
673294
673318
673279
673318
673261
673319
673242
673319
673226
673316
673215
673303
673218
673273
673241
673231
673244
673235
673223
673222
673224
673214
673210
673204
673206
673190
673209
673157
673234
673107
673270
673055
673296
673023
673291
673035
673233
673101
673122
673206
673009
673288
672931
673306
672945
673219
673066
673049
673222
672896
673307
672860
673246
672983
673042
673190
672844
673304
672803
673216
672976
672958
673220
672754
673294
672802
673095
673071
672792
673281
672699
673192
672922
672861
673222
672650
673240
672803
672916
673158
672623
673257
672718
672952
673098
672600
673255
672664
672947
673070
672562
673244
672640
672902
673080
672508
673222
672650
672808
673125
672449
673170
672710
672679
673178
672418
673067
672820
672522
673212
672443
672894
672971
672379
673176
672558
672658
673115
672317
673025
672764
672413
673180
672390
672750
673008
672250
673069
672636
672411
673155
672300
672749
672959
672189
673044
672600
672339
673137
672270
672650
672981
672121
672953
672661
672206
673104
672314
672472
673026
672103
672796
672747
672104
673001
672417
672291
673024
672153
672560
672869
672038
672807
672607
672083
672949
672326
672249
672954
672104
672474
672834
671982
672687
672630
671975
672840
672393
672063
672907
672171
672214
672885
671998
672390
672786
671890
672560
672636
671850
672696
672460
671869
672788
672282
671930
672834
672117
672017
672840
671974
672117
672811
671854
672220
672759
671758
672320
672689
671685
672414
672603
671631
672499
672510
671595
672570
672414
671574
672627
672319
671566
672669
672229
671563
672699
672149
671563
672715
672080
671563
672722
672022
671559
672722
671976
671549
672716
671942
671533
672703
671919
671512
672685
671906
671485
672662
671905
671452
672631
671916
671416
672592
671938
671378
672543
671970
671339
672485
672012
671301
672414
672063
671268
672330
672118
671244
672235
672176
671229
672128
672234
671227
672007
672289
671243
671875
672334
671279
671735
672365
671336
671590
672378
671418
671441
672365
671526
671297
672317
671659
671170
672226
671811
671073
672089
671969
671021
671906
672119
671028
671681
672236
671108
671433
672292
671260
671192
672265
671470
670993
672145
671709
670868
671934
671941
670846
671652
672120
670939
671337
672202
671139
671042
672158
671410
670824
671984
671701
670724
671699
671950
670769
671351
672096
670957
671003
672092
671253
670734
671919
671589
670611
671600
671877
670673
671201
672030
670913
670814
671986
671277
670547
671730
671660
670490
671312
671932
670677
670848
671979
671058
670492
671756
671500
670376
671316
671832
670551
670804
671911
670959
670408
671677
671440
670288
671199
671786
670501
670660
671826
670957
670288
671517
671447
670251
670981
671730
670563
670453
671656
671070
670173
671243
671516
670272
670679
671663
670692
670236
671416
671208
670138
670883
671532
670431
670335
671469
670945
670062
671035
671375
670209
670463
671454
670678
670073
671116
671180
670086
670540
671393
670486
670062
671161
671012
669973
670603
671307
670328
670061
671145
670886
669888
670600
671246
670203
670024
671119
670778
669820
670559
671174
670137
669949
671059
670730
669739
670481
671123
670090
669859
670965
670719
669679
670339
671090
670088
669731
670851
670733
669640
670162
671034
670144
669588
670682
670785
669629
669947
670951
670241
669474
670444
670835
669689
669700
670817
670373
669402
670161
670840
669823
669471
670592
670524
669406
669839
670772
670009
669310
670276
670633
669521
669514
670597
670222
669249
669906
670641
669732
669257
670294
670412
669321
669520
670512
669993
669137
669884
670492
669536
669195
670220
670231
669191
669448
670388
669839
669030
669785
670347
669417
669091
670075
670114
669093
669304
670242
669752
668928
669601
670221
669370
668937
669876
670042
669038
669098
670054
669741
668834
669336
670101
669387
668769
669595
669997
669059
668835
669800
669784
668795
669002
669912
669493
668644
669209
669919
669178
668597
669423
669811
668890
668648
669589
669625
668652
668773
669687
669379
668495
668929
669710
669110
668413
669099
669648
668852
668403
669244
669526
668617
668456
669350
669349
668432
668542
669412
669142
668294
668654
669416
668927
668205
668765
669376
668709
668166
668865
669291
668511
668157
668950
669172
668334
668180
669002
669034
668181
668219
669030
668877
668060
668264
669030
668717
667959
668315
669002
668559
667883
668357
668958
668403
667827
668391
668891
668261
667781
668416
668812
668125
667750
668425
668726
668001
667723
668427
668629
667891
667698
668415
668533
667786
667678
668390
668436
667692
667652
668361
668336
667606
667624
668320
668245
667521
667592
668274
668155
667446
667550
668224
668070
667373
667506
668165
667994
667303
667452
668104
667920
667240
667390
668038
667853
667176
667325
667963
667792
667118
667251
667888
667731
667066
667171
667804
667677
667014
667091
667713
667624
666969
667005
667621
667568
666928
666920
667521
667516
666886
666835
667416
667460
666851
666746
667311
667402
666817
666661
667197
667345
666783
666575
667082
667282
666756
666488
666962
667217
666730
666407
666833
667148
666708
666330
666701
667069
666691
666257
666564
666982
666676
666195
666420
666885
666662
666144
666277
666769
666649
666106
666136
666639
666625
666086
666001
666493
666591
666077
665880
666330
666542
666079
665776
666157
666467
666091
665693
665978
666368
666099
665638
665801
666242
666099
665606
665637
666088
666082
665594
665492
665915
666039
665600
665370
665731
665967
665610
665280
665540
665864
665615
665219
665358
665728
665608
665182
665193
665569
665578
665165
665047
665394
665521
665159
664928
665205
665438
665158
664838
665013
665320
665154
664776
664830
665168
665135
664745
664663
664990
665088
664738
664524
664789
665008
664741
664425
664578
664883
664745
664367
664378
664709
664726
664351
664208
664500
664662
664362
664085
664274
664543
664372
664019
664057
664369
664354
663998
663879
664153
664288
664001
663754
663924
664160
664001
663683
663713
663980
663968
663653
663540
663770
663884
663640
663417
663552
663751
663615
663339
663351
663575
663563
663290
663183
663372
663473
663255
663051
663162
663339
663220
662957
662957
663163
663164
662903
662777
662951
663069
662873
662643
662722
662919
662839
662565
662507
662711
662772
662530
662341
662468
662642
662508
662239
662232
662440
662456
662195
662042
662193
662335
662174
661923
661945
662139
662122
661867
661744
661896
662004
661832
661611
661649
661817
661771
661535
661442
661584
661656
661479
661291
661342
661482
661410
661190
661126
661260
661302
661117
660954
661018
661139
661047
660831
660787
660920
660945
660752
660596
660669
660784
660684
660466
660423
660559
660582
660387
660224
660294
660412
660319
660096
660039
660171
660207
660021
659844
659894
660018
659946
659724
659640
659758
659814
659648
659457
659475
659600
659557
659346
659232
659323
659398
659263
659066
659044
659157
659147
658958
658819
658873
658956
658858
658664
658606
658695
658711
658551
658397
658413
658492
658428
658246
658160
658222
658252
658120
657959
657944
658014
657975
657806
657696
657735
657777
657671
657500
657454
657518
657507
657351
657211
657224
657282
657208
657030
656941
656994
657018
656888
656717
656685
656751
656725
656557
656418
656434
656488
656408
656226
656133
656179
656201
656074
655902
655858
655912
655889
655730
655587
655584
655627
655555
655385
655282
655305
655319
655206
655043
654982
655015
654990
654847
654707
654683
654707
654641
654484
654376
654378
654381
654277
654120
654048
654064
654036
653901
653757
653719
653735
653673
653517
653397
653386
653391
653294
653129
653036
653044
653029
652902
652738
652673
652689
652651
652500
652347
652305
652320
652257
652091
651954
651929
651935
651847
651676
651558
651544
651535
651423
651255
651157
651148
651118
650988
650830
650750
650739
650685
650542
650398
650335
650316
650238
650087
649959
649909
649879
649777
649623
649511
649472
649427
649304
649150
649054
649021
648960
648821
648668
648585
648555
648478
648326
648177
648106
648073
647981
647820
647676
647614
647576
647470
647302
647164
647108
647063
646945
646772
646641
646587
646533
646405
646231
646106
646050
645986
645849
645676
645558
645499
645423
645276
645107
644995
644932
644844
644689
644523
644415
644348
644248
644086
643923
643817
643747
643635
643467
643306
643203
643126
643004
642832
642674
642573
642489
642357
642181
642025
641926
641837
641696
641516
641362
641265
641172
641026
640846
640689
640663
640685
640658
640445
640323
640118
639956
639801
639588
639392
639254
639128
638968
638779
638601
638464
638347
638190
638004
637829
637691
637566
637415
637229
637052
636908
636778
636623
636435
636251
636103
635967
635807
635616
635432
635278
635134
634965
634770
634585
634427
634278
634101
633902
633709
633551
633395
633212
633002
632809
632648
632491
632298
632080
631882
631715
631552
631355
631136
630929
630753
630585
630390
630166
629946
629759
629589
629395
629167
628936
628740
628565
628370
628136
627899
627692
627509
627308
627075
626834
626616
626422
626214
625981
625736
625511
625304
625090
624851
624604
624373
624156
623933
623688
623436
623199
622976
622743
622490
622232
621988
621758
621522
621263
620992
620735
620505
620266
619999
619714
619449
619211
618969
618698
618405
618127
617873
617629
617357
617061
616766
616497
616245
615975
615677
615370
615084
614819
614546
614247
613933
613634
613353
613073
612771
612453
612142
611847
611556
611247
610925
610605
610301
609998
609678
609346
609021
608711
608395
608063
607721
607388
607067
606745
606408
606053
605703
605370
605046
604704
604338
603970
603623
603291
602947
602575
602193
601826
601481
601132
600759
600367
599982
599617
599260
598887
598489
598088
597703
597333
596954
596552
596141
595740
595351
594961
594557
594139
593722
593316
592914
592500
592072
591645
591228
590811
590383
589944
589509
589080
588652
588210
587758
587308
586868
586431
585980
585514
585046
584590
584144
583689
583213
582726
582250
581791
581330
580848
580349
579852
579372
578900
578416
577910
577396
576892
576404
575913
575403
574878
574355
573846
573340
572825
572293
571756
571226
570704
570177
569638
569089
568544
568005
567464
566912
566353
565796
565243
564687
564121
563549
562978
562413
561846
561268
560680
560092
559513
558937
558351
557749
557143
556546
555958
555365
554756
554134
553516
552910
552309
551695
551064
550428
549801
549185
548565
547930
547281
546635
546000
545368
544728
544073
543413
542759
542111
541461
540800
540131
539463
538800
538137
537466
536789
536110
535436
534761
534079
533390
532700
532016
531332
530642
529942
529239
528542
527851
527156
526449
525734
525022
524319
523620
522911
522190
521465
520747
520038
519328
518605
517873
517141
516420
515703
514981
514247
513508
512774
512047
511321
510588
509847
509106
508370
507638
506902
506160
505416
504676
503938
503199
502455
501710
500967
500227
499487
498742
497993
497248
496508
495771
495028
494279
493529
492788
492053
491317
490573
489823
489077
488340
487611
486877
486134
485388
484649
483920
483194
482464
481726
480988
480258
479537
478817
478092
477363
476637
475919
475206
474492
473775
473060
472349
471643
470938
470233
469529
468830
468136
467443
466749
466056
465368
464688
464011
463333
462652
461974
461305
460645
459987
459325
458661
458002
457355
456715
456076
455432
454789
454152
453527
452908
452290
451668
451048
450436
449834
449237
448640
448043
447449
446863
446286
445711
445138
444567
444002
443444
442891
442340
441792
441250
440715
440186
439658
439132
438612
438100
437595
437094
436593
436094
435603
435122
434647
434175
433702
433232
432771
432320
431876
431432
430987
430548
430118
429698
429282
428867
428453
428045
427646
427256
426869
426483
426100
425723
425355
424994
424635
424278
423926
423581
423243
422909
422578
422251
421930
421615
421306
421000
420697
420398
420107
419822
419541
419261
418985
418715
418453
418197
417942
417688
417438
417196
416962
416732
416503
416274
416050
415834
415626
415421
415216
415012
414813
414621
414437
414255
414074
413894
413718
413550
413388
413227
413068
412910
412758
412612
412469
412328
412189
412054
411923
411797
411672
411549
411429
411314
411203
411095
410988
410882
410779
410682
410590
410499
410407
410317
410230
410150
410074
409998
409921
409845
409774
409708
409646
409583
409520
409458
409401
409348
409298
409248
409197
409148
409103
409062
409022
408983
408943
408906
408872
408841
408811
408781
408752
408725
408701
408679
408656
408635
408615
408598
408583
408568
408553
408538
408527
408518
408511
408503
408494
408486
408481
408479
408479
408477
408474
408472
408473
408477
408482
408486
408488
408491
408497
408506
408516
408524
408531
408539
408549
408562
408575
408588
408599
408612
408625
408641
408657
408673
408688
408705
408722
408740
408758
408777
408795
408815
408836
408857
408876
408896
408917
408941
408964
408987
409008
409029
409052
409078
409104
409129
409152
409174
409198
409225
409253
409280
409305
409329
409354
409381
409410
409439
409465
409492
409518
409546
409575
409604
409632
409660
409688
409717
409745
409774
409803
409832
409862
409892
409921
409950
409979
410009
410041
410072
410101
410129
410158
410189
410221
410253
410284
410312
410341
410371
410404
410437
410468
410498
410527
410557
410589
410622
410654
410685
410715
410745
410776
410808
410840
410872
410903
410934
410965
410997
411028
411060
411092
411124
411156
411187
411217
411249
411281
411314
411348
411379
411408
411439
411471
411504
411538
411570
411600
411630
411661
411694
411729
411762
411792
411822
411853
411885
411919
411952
411984
412015
412046
412077
412110
412142
412175
412207
412239
412270
412302
412333
412365
412398
412431
412464
412495
412526
412556
412589
412622
412656
412688
412719
412749
412780
412813
412847
412880
412912
412942
412972
413004
413038
413072
413104
413135
413166
413197
413229
413262
413295
413328
413359
413390
413422
413453
413486
413518
413552
413584
413615
413646
413677
413709
413742
413776
413808
413840
413870
413900
413933
413966
414000
414033
414063
414093
414124
414157
414191
414224
414256
414287
414317
414348
414381
414415
414448
414480
414511
414542
414573
414605
414638
414671
414703
414735
414766
414797
414828
414861
414894
414928
414960
414990
415021
415052
415085
415118
415152
415184
415214
415244
415276
415309
415343
415376
415407
415437
415468
415500
415533
415566
415599
415631
415662
415692
415724
415757
415790
415822
415854
415886
415917
415948
415980
416013
416046
416078
416110
416141
416172
416203
416236
416269
416303
416334
416365
416395
416427
416460
416493
416525
416558
416589
416619
416650
416683
416716
416749
416781
416812
416843
416875
416907
416939
416971
417004
417037
417068
417098
417129
417161
417196
417229
417260
417290
417321
417353
417386
417419
417452
417483
417514
417545
417576
417609
417642
417674
417706
417738
417768
417800
417832
417865
417897
417929
417961
417992
418024
418055
418088
418120
418153
418184
418216
418247
418278
418310
418343
418375
418407
418439
418471
418502
418533
418566
418598
418631
418662
418694
418725
418756
418789
418821
418854
418886
418916
418948
418979
419011
419044
419076
419108
419140
419171
419202
419234
419266
419299
419330
419363
419394
419426
419457
419489
419521
419553
419586
419617
419649
419680
419712
419744
419776
419809
419840
419872
419902
419934
419966
419999
420031
420062
420095
420125
420158
420189
420221
420254
420285
420317
420349
420380
420412
420444
420476
420508
420540
420572
420603
420635
420666
420698
420730
420763
420795
420826
420858
420889
420921
420953
420985
421017
421049
421080
421112
421144
421175
421208
421239
421272
421303
421335
421367
421398
421431
421462
421495
421526
421558
421590
421621
421654
421684
421717
421749
421782
421813
421845
421876
421907
421941
421971
422005
422036
422067
422099
422131
422164
422194
422228
422258
422291
422323
422354
422387
422418
422450
422482
422514
422546
422578
422610
422641
422673
422705
422738
422770
422802
422833
422865
422897
422929
422962
422993
423025
423057
423088
423120
423152
423184
423217
423249
423281
423313
423345
423376
423408
423440
423472
423505
423537
423569
423601
423632
423664
423696
423729
423761
423793
423825
423856
423888
423920
423953
423985
424017
424050
424081
424113
424145
424176
424209
424241
424274
424306
424338
424369
424401
424433
424465
424499
424530
424563
424595
424626
424658
424690
424723
424755
424788
424820
424852
424883
424915
424947
424980
425012
425045
425077
425109
425140
425172
425205
425237
425270
425302
425335
425366
425398
425430
425462
425495
425527
425560
425592
425624
425655
425687
425720
425753
425786
425818
425850
425882
425913
425945
425978
426011
426044
426076
426108
426140
426172
426204
426236
426269
426302
426334
426366
426398
426430
426462
426494
426528
426560
426593
426625
426656
426688
426720
426753
426786
426819
426851
426883
426915
426947
426979
427012
427045
427078
427110
427142
427174
427206
427238
427271
427304
427337
427369
427401
427433
427465
427497
427530
427563
427596
427628
427660
427692
427724
427756
427789
427822
427855
427887
427919
427951
427983
428015
428048
428081
428114
428146
428178
428210
428242
428274
428307
428340
428373
428405
428438
428470
428502
428534
428567
428600
428633
428665
428697
428729
428761
428793
428826
428859
428892
428924
428956
428989
429020
429053
429085
429119
429151
429184
429216
429248
429280
429312
429345
429378
429411
429443
429475
429507
429539
429572
429604
429637
429670
429702
429735
429767
429799
429831
429864
429897
429929
429962
429994
430026
430058
430091
430123
430156
430189
430221
430253
430285
430317
430350
430382
430415
430448
430480
430513
430545
430577
430609
430641
430674
430707
430740
430772
430804
430836
430868
430901
430933
430966
430999
431031
431063
431095
431127
431159
431192
431225
431258
431290
431322
431354
431386
431418
431451
431483
431517
431549
431581
431613
431645
431677
431709
431743
431774
431808
431839
431872
431903
431936
431968
432001
432034
432066
432098
432130
432162
432194
432227
432259
432292
432324
432356
432388
432420
432452
432485
432517
432550
432582
432615
432646
432679
432710
432743
432775
432808
432840
432872
432905
432936
432969
433000
433033
433065
433098
433129
433163
433194
433226
433258
433290
433323
433355
433388
433419
433452
433483
433516
433548
433580
433612
433645
433677
433709
433741
433773
433805
433837
433870
433902
433934
433966
433998
434030
434062
434094
434126
434159
434191
434223
434255
434287
434319
434351
434383
434415
434448
434479
434512
434543
434576
434608
434640
434672
434704
434736
434768
434800
434832
434864
434896
434928
434960
434993
435024
435056
435088
435120
435152
435185
435217
435249
435281
435312
435345
435376
435409
435440
435473
435505
435537
435569
435600
435632
435664
435697
435729
435761
435793
435825
435856
435888
435920
435952
435985
436017
436049
436081
436112
436144
436176
436208
436240
436273
436305
436337
436369
436400
436432
436464
436496
436528
436560
436592
436624
436656
436688
436719
436752
436783
436816
436848
436880
436912
436944
436976
437007
437039
437071
437104
437136
437168
437200
437231
437263
437295
437327
437359
437392
437424
437456
437488
437519
437551
437583
437615
437647
437680
437712
437744
437776
437807
437839
437871
437903
437935
437968
438000
438032
438064
438095
438127
438159
438192
438223
438256
438288
438320
438352
438383
438416
438447
438480
438512
438544
438576
438608
438640
438672
438704
438736
438768
438800
438832
438864
438897
438928
438960
438992
439025
439057
439089
439121
439153
439185
439217
439249
439281
439313
439346
439377
439410
439442
439474
439506
439538
439570
439602
439635
439666
439699
439731
439763
439795
439827
439860
439891
439924
439956
439988
440020
440052
440085
440117
440149
440181
440213
440245
440278
440310
440342
440374
440406
440439
440471
440503
440535
440567
440599
440632
440664
440696
440728
440761
440793
440825
440857
440889
440922
440954
440986
441018
441051
441083
441115
441147
441180
441212
441244
441276
441309
441341
441373
441405
441438
441470
441503
441535
441567
441599
441631
441664
441696
441729
441761
441793
441826
441858
441890
441922
441955
441987
442019
442052
442084
442117
442149
442181
442213
442245
442278
442310
442343
442375
442408
442440
442472
442504
442536
442569
442601
442634
442667
442699
442731
442763
442796
442828
442860
442893
442925
442958
442990
443023
443054
443087
443119
443152
443184
443217
443249
443282
443314
443346
443378
443411
443443
443476
443508
443542
443574
443606
443638
443670
443703
443735
443768
443800
443834
443866
443899
443930
443963
443994
444027
444059
444092
444125
444158
444191
444223
444255
444287
444319
444352
444385
444417
444451
444482
444516
444547
444579
444611
444644
444677
444709
444743
444775
444808
444840
444872
444904
444936
444969
445002
445035
445068
445100
445132
445165
445196
445229
445261
445295
445327
445360
445393
445425
445457
445489
445522
445554
445587
445620
445653
445686
445718
445750
445782
445815
445847
445880
445913
445945
445978
446011
446043
446075
446107
446140
446173
446205
446238
446271
446303
446336
446368
446400
446433
446466
446498
446531
446564
446596
446629
446661
446693
446726
446758
446791
446824
446857
446889
446922
446954
446986
447019
447051
447084
447117
447150
447183
447215
447247
447279
447312
447344
447377
447410
447443
447476
447508
447540
447572
447605
447637
447669
447703
447735
447769
447801
447833
447866
447897
447930
447962
447996
448028
448061
448093
448126
448159
448191
448223
448255
448288
448320
448354
448386
448419
448451
448484
448516
448548
448581
448613
448647
448679
448712
448744
448777
448809
448841
448874
448906
448939
448971
449005
449036
449070
449101
449134
449166
449198
449232
449264
449297
449329
449362
449394
449426
449459
449491
449524
449556
449589
449622
449654
449687
449719
449751
449783
449816
449849
449881
449914
449947
449979
450011
450043
450076
450108
450140
450173
450206
450239
450271
450303
450336
450368
450400
450432
450465
450497
450531
450563
450596
450628
450660
450692
450724
450757
450789
450822
450854
450887
450919
450952
450984
451016
451049
451081
451114
451146
451179
451211
451243
451275
451308
451340
451372
451405
451437
451470
451502
451535
451567
451599
451631
451664
451696
451728
451762
451793
451826
451858
451891
451923
451955
451988
452019
452052
452084
452117
452149
452182
452214
452246
452278
452311
452343
452375
452408
452440
452473
452505
452537
452570
452602
452634
452666
452699
452731
452763
452796
452828
452860
452893
452925
452957
452990
453022
453054
453086
453119
453151
453183
453216
453248
453280
453313
453345
453377
453410
453442
453474
453506
453538
453571
453603
453636
453668
453700
453732
453765
453797
453829
453862
453894
453926
453958
453991
454023
454055
454087
454120
454152
454184
454217
454249
454281
454313
454346
454378
454410
454443
454475
454507
454539
454572
454604
454636
454668
454701
454733
454765
454798
454830
454862
454895
454927
454959
454991
455024
455056
455088
455121
455153
455185
455217
455250
455282
455314
455346
455379
455411
455443
455476
455508
455540
455573
455605
455637
455669
455702
455734
455766
455799
455831
455863
455895
455928
455960
455992
456025
456057
456090
456122
456154
456186
456218
456250
456283
456315
456348
456380
456413
456445
456477
456510
456541
456574
456606
456638
456671
456703
456736
456768
456801
456833
456865
456897
456929
456961
456994
457026
457059
457092
457124
457156
457188
457220
457252
457285
457317
457350
457382
457415
457447
457480
457512
457544
457576
457608
457641
457673
457706
457738
457771
457803
457835
457867
457900
457931
457964
457996
458030
458062
458095
458127
458159
458191
458223
458255
458288
458320
458353
458386
458418
458451
458483
458515
458547
458579
458611
458644
458676
458709
458742
458774
458807
458839
458871
458903
458936
458968
459000
459033
459066
459098
459131
459163
459195
459227
459259
459292
459324
459357
459389
459423
459455
459487
459519
459551
459584
459616
459648
459681
459714
459746
459779
459812
459844
459876
459908
459940
459972
460005
460038
460070
460103
460136
460168
460200
460233
460265
460297
460329
460362
460394
460427
460460
460493
460525
460557
460589
460621
460654
460686
460719
460751
460784
460817
460849
460882
460914
460946
460978
461011
461043
461076
461108
461141
461174
461206
461239
461271
461303
461335
461368
461400
461433
461466
461498
461531
461563
461596
461628
461660
461692
461725
461757
461790
461823
461855
461888
461920
461953
461985
462017
462050
462082
462115
462147
462180
462213
462245
462277
462310
462342
462375
462407
462439
462472
462505
462538
462570
462603
462635
462667
462700
462732
462765
462797
462830
462862
462895
462928
462960
462993
463025
463057
463089
463122
463154
463187
463220
463252
463285
463317
463350
463382
463415
463447
463480
463512
463545
463578
463610
463643
463675
463707
463740
463772
463805
463837
463870
463902
463935
463968
464000
464033
464065
464097
464130
464162
464195
464228
464260
464293
464325
464358
464390
464422
464455
464487
464520
464552
464585
464618
464650
464683
464715
464748
464780
464813
464845
464877
464910
464943
464975
465008
465041
465073
465106
465138
465171
465203
465235
465268
465300
465333
465366
465398
465431
465463
465496
465528
465561
465593
465625
465658
465691
465723
465756
465788
465821
465853
465886
465918
465951
465983
466016
466048
466081
466114
466146
466179
466211
466244
466276
466308
466341
466373
466406
466439
466471
466504
466536
466569
466601
466634
466666
466699
466731
466764
466796
466829
466862
466894
466927
466959
466992
467024
467056
467089
467121
467154
467186
467219
467252
467284
467317
467349
467382
467414
467446
467479
467511
467544
467577
467609
467642
467674
467707
467739
467772
467804
467837
467869
467901
467934
467967
467999
468032
468065
468097
468129
468162
468194
468226
468259
468291
468324
468357
468389
468422
468455