/*--------------------------------*- C++ -*----------------------------------*\
  =========                 |
  \\      /  F ield         | OpenFOAM: The Open Source CFD Toolbox
   \\    /   O peration     | Website:  https://openfoam.org
    \\  /    A nd           | Version:  9
     \\/     M anipulation  |
\*---------------------------------------------------------------------------*/
FoamFile
{
    format      ascii;
    class       volScalarField;
    location    "0.042";
    object      ddt0(p);
}
// * * * * * * * * * * * * * * * * * * * * * * * * * * * * * * * * * * * * * //

dimensions      [1 -1 -3 0 0 0 0];

internalField   nonuniform List<scalar> 
10000
(
-427323
-427319
-427315
-427311
-427307
-427304
-427300
-427296
-427293
-427289
-427285
-427282
-427278
-427275
-427272
-427268
-427265
-427261
-427258
-427254
-427250
-427247
-427243
-427240
-427236
-427232
-427228
-427224
-427221
-427217
-427213
-427210
-427206
-427203
-427199
-427196
-427192
-427189
-427185
-427182
-427178
-427174
-427171
-427167
-427163
-427159
-427155
-427152
-427148
-427144
-427140
-427137
-427133
-427129
-427126
-427122
-427119
-427115
-427112
-427108
-427104
-427101
-427097
-427093
-427089
-427086
-427082
-427078
-427074
-427070
-427066
-427063
-427059
-427055
-427052
-427048
-427044
-427041
-427037
-427033
-427030
-427026
-427022
-427019
-427015
-427011
-427007
-427003
-426999
-426995
-426991
-426988
-426984
-426980
-426976
-426972
-426969
-426965
-426961
-426958
-426954
-426950
-426947
-426943
-426939
-426935
-426931
-426927
-426923
-426919
-426915
-426911
-426908
-426904
-426900
-426896
-426892
-426889
-426885
-426881
-426877
-426874
-426870
-426866
-426862
-426858
-426854
-426850
-426846
-426842
-426838
-426834
-426830
-426826
-426823
-426819
-426815
-426811
-426807
-426803
-426800
-426796
-426792
-426788
-426784
-426779
-426775
-426772
-426768
-426764
-426760
-426756
-426752
-426748
-426744
-426740
-426736
-426732
-426729
-426725
-426721
-426717
-426713
-426708
-426704
-426700
-426696
-426693
-426689
-426685
-426681
-426677
-426673
-426669
-426665
-426661
-426657
-426653
-426649
-426645
-426641
-426637
-426632
-426628
-426624
-426620
-426616
-426612
-426608
-426604
-426600
-426596
-426592
-426588
-426584
-426580
-426576
-426573
-426569
-426565
-426560
-426555
-426550
-426547
-426543
-426539
-426534
-426531
-426527
-426522
-426519
-426515
-426510
-426507
-426502
-426498
-426495
-426492
-426488
-426480
-426477
-426473
-426471
-426463
-426459
-426456
-426452
-426448
-426444
-426440
-426436
-426432
-426427
-426424
-426420
-426415
-426411
-426407
-426403
-426399
-426394
-426389
-426385
-426381
-426377
-426373
-426369
-426364
-426360
-426356
-426352
-426348
-426344
-426339
-426335
-426331
-426327
-426323
-426318
-426314
-426309
-426305
-426300
-426296
-426292
-426288
-426284
-426279
-426275
-426271
-426267
-426262
-426258
-426254
-426250
-426246
-426241
-426237
-426232
-426228
-426223
-426219
-426215
-426210
-426206
-426202
-426198
-426193
-426189
-426185
-426180
-426176
-426172
-426167
-426163
-426159
-426154
-426150
-426145
-426141
-426136
-426132
-426127
-426123
-426119
-426115
-426110
-426106
-426101
-426097
-426093
-426088
-426084
-426080
-426075
-426071
-426066
-426061
-426057
-426052
-426048
-426043
-426039
-426035
-426030
-426026
-426022
-426017
-426013
-426008
-426004
-426000
-425995
-425991
-425986
-425981
-425977
-425972
-425967
-425963
-425958
-425954
-425949
-425945
-425940
-425936
-425932
-425927
-425923
-425918
-425914
-425909
-425905
-425900
-425896
-425891
-425886
-425881
-425877
-425872
-425867
-425863
-425858
-425854
-425849
-425845
-425840
-425836
-425831
-425827
-425822
-425818
-425813
-425808
-425804
-425799
-425794
-425789
-425785
-425780
-425775
-425771
-425766
-425761
-425757
-425752
-425748
-425743
-425738
-425734
-425729
-425725
-425720
-425715
-425710
-425706
-425701
-425696
-425691
-425687
-425682
-425677
-425672
-425668
-425663
-425658
-425654
-425649
-425644
-425640
-425635
-425630
-425625
-425621
-425616
-425611
-425606
-425601
-425597
-425592
-425587
-425582
-425577
-425573
-425568
-425563
-425558
-425554
-425549
-425544
-425539
-425534
-425530
-425525
-425520
-425515
-425510
-425505
-425500
-425495
-425491
-425486
-425481
-425476
-425471
-425466
-425462
-425457
-425452
-425447
-425442
-425437
-425432
-425427
-425422
-425417
-425412
-425407
-425402
-425397
-425393
-425388
-425383
-425378
-425373
-425368
-425363
-425358
-425353
-425349
-425344
-425339
-425334
-425329
-425323
-425318
-425313
-425308
-425303
-425298
-425293
-425288
-425283
-425278
-425273
-425268
-425263
-425258
-425253
-425248
-425243
-425238
-425233
-425228
-425223
-425218
-425213
-425208
-425202
-425197
-425192
-425187
-425182
-425177
-425172
-425167
-425162
-425157
-425152
-425147
-425142
-425136
-425131
-425126
-425121
-425116
-425110
-425105
-425100
-425095
-425090
-425084
-425079
-425074
-425069
-425064
-425058
-425053
-425048
-425043
-425038
-425033
-425027
-425022
-425017
-425012
-425007
-425001
-424996
-424991
-424985
-424980
-424975
-424970
-424964
-424959
-424954
-424949
-424943
-424938
-424932
-424927
-424922
-424917
-424911
-424906
-424901
-424895
-424890
-424885
-424880
-424874
-424869
-424863
-424858
-424852
-424847
-424842
-424836
-424831
-424825
-424820
-424815
-424810
-424804
-424798
-424792
-424788
-424783
-424776
-424772
-424765
-424761
-424755
-424750
-424745
-424739
-424733
-424727
-424722
-424717
-424712
-424706
-424700
-424695
-424689
-424683
-424679
-424672
-424667
-424662
-424656
-424650
-424645
-424640
-424634
-424628
-424622
-424616
-424613
-424606
-424601
-424595
-424589
-424584
-424579
-424573
-424567
-424561
-424555
-424550
-424545
-424537
-424533
-424527
-424523
-424515
-424510
-424505
-424499
-424493
-424488
-424482
-424476
-424470
-424465
-424459
-424454
-424447
-424443
-424437
-424431
-424424
-424419
-424412
-424408
-424402
-424395
-424390
-424384
-424378
-424373
-424367
-424362
-424355
-424348
-424345
-424338
-424332
-424326
-424320
-424314
-424309
-424303
-424297
-424291
-424285
-424279
-424273
-424267
-424262
-424256
-424249
-424243
-424238
-424232
-424226
-424220
-424214
-424208
-424202
-424196
-424190
-424184
-424178
-424172
-424166
-424160
-424154
-424148
-424142
-424136
-424130
-424124
-424118
-424112
-424106
-424100
-424094
-424088
-424082
-424076
-424069
-424063
-424057
-424051
-424045
-424039
-424033
-424026
-424020
-424014
-424008
-424002
-423996
-423990
-423984
-423977
-423971
-423965
-423959
-423953
-423946
-423940
-423934
-423928
-423921
-423915
-423909
-423902
-423896
-423890
-423884
-423878
-423871
-423865
-423859
-423852
-423846
-423840
-423833
-423827
-423821
-423814
-423808
-423802
-423795
-423789
-423782
-423776
-423769
-423763
-423757
-423750
-423744
-423737
-423731
-423725
-423718
-423712
-423705
-423699
-423692
-423686
-423679
-423673
-423666
-423660
-423653
-423647
-423640
-423633
-423627
-423620
-423614
-423607
-423601
-423594
-423587
-423581
-423574
-423568
-423561
-423554
-423548
-423541
-423534
-423528
-423521
-423514
-423508
-423501
-423494
-423487
-423481
-423474
-423467
-423461
-423454
-423447
-423440
-423434
-423427
-423420
-423413
-423406
-423400
-423393
-423386
-423379
-423372
-423365
-423359
-423352
-423345
-423338
-423331
-423324
-423317
-423310
-423303
-423296
-423289
-423282
-423276
-423269
-423262
-423255
-423248
-423241
-423234
-423227
-423220
-423213
-423206
-423198
-423191
-423184
-423177
-423170
-423163
-423156
-423149
-423142
-423134
-423127
-423120
-423113
-423106
-423099
-423092
-423084
-423077
-423070
-423063
-423056
-423048
-423041
-423034
-423027
-423019
-423012
-423005
-422997
-422990
-422983
-422975
-422968
-422961
-422953
-422946
-422939
-422931
-422924
-422916
-422909
-422902
-422894
-422887
-422879
-422872
-422864
-422857
-422849
-422842
-422834
-422827
-422819
-422812
-422804
-422797
-422789
-422782
-422774
-422766
-422759
-422751
-422743
-422736
-422728
-422720
-422713
-422705
-422697
-422690
-422682
-422674
-422666
-422659
-422651
-422643
-422635
-422628
-422620
-422612
-422604
-422597
-422589
-422581
-422573
-422565
-422557
-422549
-422541
-422533
-422525
-422517
-422509
-422501
-422494
-422486
-422478
-422470
-422462
-422454
-422446
-422438
-422429
-422421
-422413
-422405
-422397
-422389
-422381
-422373
-422364
-422356
-422348
-422340
-422332
-422323
-422315
-422307
-422299
-422290
-422282
-422274
-422266
-422257
-422249
-422241
-422232
-422224
-422216
-422207
-422199
-422190
-422182
-422173
-422165
-422156
-422148
-422139
-422131
-422122
-422114
-422105
-422097
-422088
-422080
-422071
-422062
-422054
-422045
-422036
-422028
-422019
-422010
-422002
-421993
-421984
-421976
-421967
-421958
-421949
-421940
-421932
-421923
-421914
-421905
-421896
-421887
-421878
-421869
-421860
-421851
-421843
-421834
-421825
-421816
-421807
-421798
-421789
-421779
-421770
-421761
-421752
-421743
-421734
-421725
-421716
-421706
-421697
-421688
-421679
-421670
-421660
-421651
-421642
-421632
-421623
-421614
-421604
-421595
-421586
-421576
-421567
-421557
-421548
-421538
-421529
-421519
-421510
-421500
-421491
-421481
-421472
-421462
-421453
-421443
-421433
-421424
-421414
-421404
-421394
-421385
-421375
-421365
-421355
-421346
-421336
-421326
-421316
-421306
-421296
-421286
-421276
-421267
-421257
-421247
-421237
-421227
-421217
-421206
-421196
-421186
-421176
-421166
-421156
-421146
-421136
-421125
-421115
-421105
-421095
-421084
-421074
-421064
-421053
-421043
-421033
-421022
-421012
-421001
-420991
-420980
-420970
-420960
-420949
-420938
-420928
-420917
-420907
-420896
-420885
-420875
-420864
-420853
-420842
-420832
-420821
-420810
-420799
-420788
-420778
-420767
-420756
-420745
-420734
-420723
-420712
-420701
-420690
-420679
-420668
-420657
-420646
-420634
-420623
-420612
-420601
-420590
-420578
-420567
-420556
-420544
-420533
-420522
-420510
-420499
-420487
-420476
-420464
-420453
-420441
-420430
-420418
-420407
-420395
-420383
-420372
-420360
-420348
-420336
-420324
-420313
-420301
-420289
-420277
-420265
-420253
-420241
-420229
-420217
-420205
-420193
-420181
-420169
-420157
-420144
-420132
-420120
-420108
-420096
-420083
-420071
-420059
-420046
-420034
-420021
-420009
-419996
-419984
-419971
-419959
-419946
-419933
-419921
-419908
-419895
-419882
-419870
-419857
-419844
-419831
-419818
-419805
-419792
-419779
-419766
-419753
-419740
-419727
-419714
-419701
-419688
-419674
-419661
-419648
-419634
-419621
-419608
-419594
-419581
-419567
-419554
-419540
-419527
-419513
-419499
-419486
-419472
-419458
-419444
-419431
-419417
-419403
-419389
-419375
-419361
-419347
-419333
-419319
-419305
-419291
-419276
-419262
-419248
-419234
-419219
-419205
-419190
-419176
-419162
-419147
-419132
-419118
-419103
-419089
-419074
-419059
-419044
-419030
-419015
-419000
-418985
-418970
-418955
-418940
-418925
-418910
-418895
-418879
-418864
-418849
-418834
-418818
-418803
-418787
-418772
-418756
-418741
-418725
-418710
-418694
-418678
-418662
-418647
-418631
-418615
-418599
-418583
-418567
-418551
-418535
-418519
-418502
-418486
-418470
-418454
-418437
-418421
-418404
-418388
-418371
-418355
-418338
-418321
-418305
-418288
-418271
-418254
-418237
-418220
-418203
-418186
-418169
-418152
-418135
-418117
-418100
-418083
-418065
-418048
-418030
-418013
-417995
-417978
-417960
-417942
-417924
-417906
-417888
-417870
-417852
-417834
-417816
-417798
-417780
-417762
-417743
-417725
-417706
-417688
-417669
-417651
-417632
-417613
-417595
-417576
-417557
-417538
-417519
-417500
-417481
-417462
-417442
-417423
-417404
-417384
-417365
-417345
-417326
-417306
-417286
-417266
-417247
-417227
-417207
-417187
-417167
-417147
-417126
-417106
-417086
-417065
-417045
-417024
-417004
-416983
-416962
-416942
-416921
-416900
-416879
-416858
-416837
-416816
-416794
-416773
-416752
-416730
-416709
-416687
-416665
-416644
-416622
-416600
-416578
-416556
-416534
-416512
-416489
-416467
-416445
-416422
-416400
-416377
-416354
-416332
-416309
-416286
-416263
-416240
-416217
-416193
-416170
-416147
-416123
-416100
-416076
-416052
-416029
-416005
-415981
-415957
-415933
-415908
-415884
-415860
-415835
-415811
-415786
-415761
-415737
-415712
-415687
-415662
-415637
-415611
-415586
-415561
-415535
-415510
-415484
-415458
-415432
-415406
-415380
-415354
-415328
-415302
-415275
-415249
-415222
-415195
-415169
-415142
-415115
-415088
-415060
-415033
-415006
-414978
-414951
-414923
-414895
-414867
-414839
-414811
-414783
-414755
-414726
-414698
-414669
-414640
-414611
-414582
-414553
-414524
-414495
-414466
-414436
-414406
-414377
-414347
-414317
-414287
-414257
-414226
-414196
-414165
-414135
-414104
-414073
-414042
-414011
-413980
-413948
-413917
-413885
-413853
-413821
-413789
-413757
-413725
-413693
-413660
-413628
-413595
-413562
-413529
-413496
-413462
-413429
-413395
-413362
-413328
-413294
-413260
-413226
-413191
-413157
-413122
-413087
-413052
-413017
-412982
-412947
-412911
-412876
-412840
-412804
-412768
-412732
-412695
-412659
-412622
-412585
-412548
-412511
-412474
-412436
-412398
-412361
-412323
-412285
-412246
-412208
-412169
-412131
-412092
-412053
-412013
-411974
-411934
-411895
-411855
-411815
-411774
-411734
-411693
-411652
-411611
-411570
-411529
-411487
-411446
-411404
-411362
-411320
-411277
-411235
-411192
-411149
-411106
-411062
-411019
-410975
-410931
-410887
-410843
-410798
-410753
-410708
-410663
-410618
-410572
-410527
-410481
-410434
-410388
-410341
-410295
-410248
-410200
-410153
-410105
-410057
-410009
-409961
-409913
-409864
-409815
-409766
-409716
-409666
-409617
-409566
-409516
-409465
-409415
-409364
-409312
-409261
-409209
-409157
-409105
-409052
-408999
-408946
-408893
-408839
-408786
-408732
-408677
-408623
-408568
-408513
-408457
-408402
-408346
-408290
-408233
-408176
-408119
-408062
-408005
-407947
-407889
-407830
-407772
-407713
-407653
-407594
-407534
-407474
-407413
-407353
-407292
-407230
-407169
-407107
-407044
-406982
-406919
-406856
-406792
-406728
-406664
-406599
-406535
-406469
-406404
-406338
-406272
-406205
-406138
-406071
-406004
-405936
-405867
-405799
-405730
-405660
-405591
-405521
-405450
-405379
-405308
-405236
-405164
-405092
-405019
-404946
-404872
-404799
-404724
-404649
-404574
-404499
-404423
-404346
-404269
-404192
-404114
-404036
-403958
-403879
-403800
-403720
-403640
-403559
-403478
-403397
-403315
-403233
-403151
-403068
-402985
-402901
-402818
-402734
-402650
-402566
-402481
-402396
-402314
-402281
-402255
-402245
-402139
-402087
-401932
-401810
-401709
-401600
-401493
-401393
-401290
-401189
-401094
-400995
-400896
-400801
-400703
-400606
-400510
-400411
-400315
-400218
-400119
-400021
-399923
-399823
-399722
-399621
-399519
-399418
-399316
-399213
-399110
-399005
-398901
-398795
-398688
-398582
-398475
-398367
-398259
-398150
-398040
-397929
-397818
-397706
-397593
-397481
-397368
-397254
-397139
-397023
-396906
-396789
-396671
-396553
-396434
-396315
-396195
-396074
-395952
-395830
-395707
-395583
-395458
-395333
-395207
-395080
-394953
-394825
-394696
-394567
-394436
-394305
-394173
-394040
-393907
-393773
-393638
-393503
-393366
-393229
-393091
-392952
-392812
-392672
-392531
-392389
-392246
-392102
-391958
-391812
-391666
-391519
-391371
-391222
-391073
-390922
-390771
-390619
-390466
-390312
-390157
-390001
-389844
-389686
-389528
-389368
-389208
-389047
-388884
-388721
-388557
-388392
-388226
-388059
-387891
-387722
-387552
-387381
-387209
-387036
-386862
-386687
-386511
-386333
-386155
-385976
-385796
-385615
-385432
-385249
-385065
-384879
-384693
-384505
-384316
-384126
-383935
-383743
-383550
-383356
-383160
-382963
-382766
-382567
-382367
-382165
-381963
-381759
-381554
-381349
-381141
-380933
-380723
-380513
-380301
-380087
-379873
-379657
-379440
-379222
-379002
-378782
-378560
-378336
-378112
-377886
-377658
-377430
-377200
-376969
-376736
-376503
-376268
-376031
-375793
-375554
-375313
-375071
-374828
-374583
-374337
-374090
-373841
-373591
-373339
-373086
-372831
-372575
-372318
-372059
-371799
-371537
-371274
-371009
-370743
-370475
-370206
-369935
-369663
-369390
-369114
-368838
-368560
-368280
-367999
-367716
-367432
-367146
-366859
-366570
-366279
-365987
-365694
-365399
-365102
-364804
-364504
-364203
-363900
-363595
-363289
-362981
-362672
-362361
-362048
-361734
-361418
-361101
-360781
-360461
-360138
-359815
-359489
-359162
-358833
-358503
-358171
-357837
-357502
-357165
-356826
-356486
-356144
-355800
-355455
-355109
-354760
-354410
-354058
-353705
-353350
-352994
-352635
-352276
-351914
-351551
-351187
-350820
-350452
-350083
-349712
-349339
-348965
-348589
-348211
-347832
-347452
-347069
-346686
-346300
-345913
-345525
-345135
-344743
-344350
-343956
-343560
-343162
-342763
-342363
-341961
-341557
-341152
-340746
-340338
-339929
-339519
-339107
-338693
-338278
-337862
-337445
-337026
-336606
-336185
-335762
-335338
-334913
-334487
-334059
-333630
-333200
-332769
-332337
-331903
-331469
-331033
-330596
-330158
-329720
-329280
-328839
-328397
-327954
-327511
-327066
-326621
-326174
-325727
-325279
-324831
-324381
-323931
-323480
-323029
-322577
-322124
-321670
-321216
-320762
-320307
-319851
-319395
-318939
-318482
-318025
-317568
-317110
-316652
-316194
-315736
-315277
-314819
-314360
-313901
-313442
-312984
-312525
-312066
-311608
-311149
-310691
-310233
-309775
-309318
-308861
-308404
-307948
-307492
-307037
-306582
-306128
-305674
-305221
-304769
-304318
-303867
-303417
-302968
-302520
-302072
-301626
-301181
-300736
-300293
-299851
-299410
-298970
-298532
-298095
-297659
-297225
-296792
-296360
-295930
-295501
-295074
-294649
-294225
-293803
-293382
-292964
-292547
-292132
-291719
-291308
-290898
-290491
-290086
-289683
-289282
-288883
-288486
-288091
-287699
-287309
-286921
-286535
-286152
-285772
-285393
-285017
-284644
-284273
-283905
-283539
-283176
-282816
-282458
-282103
-281751
-281401
-281054
-280710
-280369
-280030
-279695
-279362
-279032
-278705
-278381
-278060
-277742
-277427
-277115
-276806
-276500
-276198
-275898
-275601
-275307
-275017
-274729
-274445
-274164
-273886
-273611
-273339
-273071
-272805
-272543
-272284
-272028
-271775
-271526
-271279
-271036
-270796
-270559
-270325
-270095
-269868
-269643
-269422
-269204
-268990
-268778
-268570
-268364
-268162
-267963
-267767
-267574
-267384
-267197
-267013
-266833
-266655
-266480
-266308
-266140
-265974
-265811
-265651
-265494
-265340
-265188
-265040
-264894
-264751
-264611
-264474
-264339
-264207
-264078
-263952
-263828
-263706
-263588
-263472
-263358
-263247
-263139
-263033
-262930
-262828
-262730
-262634
-262540
-262448
-262359
-262272
-262187
-262105
-262024
-261946
-261870
-261797
-261725
-261655
-261587
-261522
-261458
-261397
-261337
-261279
-261223
-261169
-261117
-261066
-261018
-260971
-260926
-260882
-260840
-260800
-260761
-260724
-260689
-260655
-260623
-260592
-260563
-260535
-260508
-260483
-260459
-260437
-260416
-260396
-260378
-260360
-260344
-260330
-260316
-260304
-260292
-260282
-260273
-260265
-260258
-260252
-260247
-260243
-260240
-260238
-260237
-260237
-260238
-260240
-260242
-260245
-260250
-260255
-260260
-260267
-260274
-260282
-260291
-260300
-260310
-260321
-260333
-260345
-260358
-260371
-260385
-260399
-260414
-260430
-260446
-260463
-260480
-260498
-260516
-260535
-260554
-260574
-260594
-260615
-260636
-260657
-260679
-260701
-260723
-260746
-260770
-260793
-260817
-260841
-260866
-260891
-260916
-260942
-260968
-260994
-261020
-261047
-261074
-261101
-261128
-261156
-261184
-261212
-261240
-261269
-261298
-261327
-261356
-261385
-261415
-261444
-261474
-261504
-261534
-261565
-261595
-261626
-261657
-261688
-261719
-261750
-261781
-261813
-261844
-261876
-261908
-261940
-261972
-262004
-262036
-262068
-262101
-262133
-262166
-262198
-262231
-262264
-262297
-262330
-262363
-262396
-262429
-262462
-262495
-262529
-262562
-262595
-262629
-262662
-262696
-262730
-262763
-262797
-262831
-262864
-262898
-262932
-262966
-263000
-263034
-263068
-263102
-263136
-263170
-263205
-263239
-263273
-263307
-263341
-263376
-263410
-263444
-263479
-263513
-263547
-263582
-263616
-263651
-263685
-263719
-263754
-263788
-263823
-263857
-263892
-263927
-263961
-263996
-264030
-264065
-264100
-264134
-264169
-264203
-264238
-264273
-264307
-264342
-264377
-264412
-264446
-264481
-264516
-264550
-264585
-264620
-264655
-264689
-264724
-264759
-264794
-264829
-264863
-264898
-264933
-264968
-265003
-265037
-265072
-265107
-265142
-265177
-265212
-265246
-265281
-265316
-265351
-265386
-265421
-265456
-265490
-265525
-265560
-265595
-265630
-265665
-265700
-265735
-265770
-265804
-265839
-265874
-265909
-265944
-265979
-266014
-266049
-266084
-266119
-266154
-266189
-266224
-266259
-266294
-266329
-266363
-266398
-266433
-266468
-266503
-266538
-266573
-266608
-266643
-266678
-266713
-266748
-266783
-266818
-266853
-266888
-266923
-266958
-266993
-267028
-267063
-267098
-267133
-267169
-267204
-267239
-267274
-267309
-267344
-267379
-267414
-267449
-267484
-267519
-267554
-267589
-267624
-267659
-267694
-267730
-267765
-267800
-267835
-267870
-267905
-267940
-267975
-268010
-268046
-268081
-268116
-268151
-268186
-268221
-268256
-268292
-268327
-268362
-268397
-268432
-268467
-268502
-268538
-268573
-268608
-268643
-268678
-268713
-268749
-268784
-268819
-268854
-268889
-268925
-268960
-268995
-269030
-269065
-269101
-269136
-269171
-269206
-269242
-269277
-269312
-269347
-269383
-269418
-269453
-269488
-269524
-269559
-269594
-269629
-269665
-269700
-269735
-269770
-269806
-269841
-269876
-269911
-269947
-269982
-270017
-270053
-270088
-270123
-270159
-270194
-270229
-270265
-270300
-270335
-270370
-270406
-270441
-270476
-270512
-270547
-270582
-270618
-270653
-270689
-270724
-270759
-270795
-270830
-270865
-270901
-270936
-270971
-271007
-271042
-271077
-271113
-271148
-271184
-271219
-271254
-271290
-271325
-271361
-271396
-271431
-271467
-271502
-271538
-271573
-271609
-271644
-271679
-271715
-271750
-271786
-271821
-271857
-271892
-271927
-271963
-271998
-272034
-272069
-272105
-272140
-272176
-272211
-272247
-272282
-272318
-272353
-272389
-272424
-272459
-272495
-272530
-272566
-272601
-272637
-272673
-272708
-272744
-272779
-272815
-272850
-272886
-272921
-272957
-272992
-273028
-273063
-273099
-273134
-273170
-273206
-273241
-273277
-273312
-273348
-273383
-273419
-273455
-273490
-273526
-273561
-273597
-273632
-273668
-273704
-273739
-273775
-273810
-273846
-273882
-273917
-273953
-273989
-274024
-274060
-274096
-274131
-274167
-274203
-274238
-274274
-274310
-274345
-274381
-274417
-274452
-274488
-274524
-274559
-274595
-274631
-274667
-274702
-274738
-274774
-274809
-274845
-274881
-274917
-274952
-274988
-275024
-275060
-275095
-275131
-275167
-275203
-275238
-275274
-275310
-275346
-275382
-275417
-275453
-275489
-275525
-275561
-275597
-275632
-275668
-275704
-275740
-275776
-275812
-275848
-275883
-275919
-275955
-275991
-276027
-276063
-276099
-276135
-276171
-276207
-276243
-276278
-276314
-276350
-276386
-276422
-276458
-276494
-276530
-276566
-276602
-276638
-276674
-276710
-276746
-276782
-276818
-276854
-276890
-276926
-276962
-276998
-277034
-277070
-277106
-277143
-277179
-277215
-277251
-277287
-277323
-277359
-277395
-277431
-277467
-277504
-277540
-277576
-277612
-277648
-277684
-277721
-277757
-277793
-277829
-277865
-277901
-277938
-277974
-278010
-278046
-278082
-278119
-278155
-278191
-278227
-278264
-278300
-278336
-278372
-278409
-278445
-278481
-278518
-278554
-278590
-278627
-278663
-278699
-278736
-278772
-278808
-278845
-278881
-278917
-278954
-278990
-279027
-279063
-279099
-279136
-279172
-279209
-279245
-279281
-279318
-279354
-279391
-279427
-279464
-279500
-279537
-279573
-279610
-279646
-279683
-279719
-279756
-279792
-279829
-279865
-279902
-279938
-279975
-280011
-280048
-280084
-280121
-280158
-280194
-280231
-280267
-280304
-280340
-280377
-280414
-280450
-280487
-280524
-280560
-280597
-280633
-280670
-280707
-280743
-280780
-280817
-280853
-280890
-280927
-280964
-281000
-281037
-281074
-281110
-281147
-281184
-281221
-281257
-281294
-281331
-281368
-281404
-281441
-281478
-281515
-281551
-281588
-281625
-281662
-281699
-281735
-281772
-281809
-281846
-281883
-281920
-281956
-281993
-282030
-282067
-282104
-282141
-282178
-282214
-282251
-282288
-282325
-282362
-282399
-282436
-282473
-282510
-282547
-282583
-282620
-282657
-282694
-282731
-282768
-282805
-282842
-282879
-282916
-282953
-282990
-283027
-283064
-283101
-283138
-283175
-283212
-283249
-283286
-283323
-283360
-283397
-283434
-283471
-283508
-283545
-283582
-283619
-283656
-283693
-283730
-283767
-283804
-283841
-283878
-283916
-283953
-283990
-284027
-284064
-284101
-284138
-284175
-284212
-284249
-284287
-284324
-284361
-284398
-284435
-284472
-284509
-284546
-284584
-284621
-284658
-284695
-284732
-284769
-284807
-284844
-284881
-284918
-284955
-284992
-285030
-285067
-285104
-285141
-285178
-285216
-285253
-285290
-285327
-285364
-285402
-285439
-285476
-285513
-285550
-285588
-285625
-285662
-285699
-285737
-285774
-285811
-285848
-285886
-285923
-285960
-285997
-286035
-286072
-286109
-286146
-286184
-286221
-286258
-286296
-286333
-286370
-286407
-286445
-286482
-286519
-286557
-286594
-286631
-286668
-286706
-286743
-286780
-286818
-286855
-286892
-286930
-286967
-287004
-287042
-287079
-287116
-287154
-287191
-287228
-287266
-287303
-287340
-287378
-287415
-287452
-287490
-287527
-287564
-287602
-287639
-287676
-287714
-287751
-287788
-287826
-287863
-287901
-287938
-287975
-288013
-288050
-288087
-288125
-288162
-288200
-288237
-288274
-288312
-288349
-288387
-288424
-288461
-288499
-288536
-288574
-288611
-288648
-288686
-288723
-288761
-288798
-288835
-288873
-288910
-288948
-288985
-289023
-289060
-289097
-289135
-289172
-289210
-289247
-289285
-289322
-289359
-289397
-289434
-289472
-289509
-289547
-289584
-289622
-289659
-289697
-289734
-289771
-289809
-289846
-289884
-289921
-289959
-289996
-290034
-290071
-290109
-290146
-290184
-290221
-290259
-290296
-290334
-290371
-290409
-290446
-290484
-290521
-290559
-290596
-290634
-290671
-290709
-290746
-290784
-290822
-290859
-290897
-290934
-290972
-291009
-291047
-291084
-291122
-291159
-291197
-291235
-291272
-291310
-291347
-291385
-291422
-291460
-291498
-291535
-291573
-291610
-291648
-291686
-291723
-291761
-291798
-291836
-291874
-291911
-291949
-291987
-292024
-292062
-292099
-292137
-292175
-292212
-292250
-292288
-292325
-292363
-292401
-292438
-292476
-292514
-292551
-292589
-292627
-292665
-292702
-292740
-292778
-292815
-292853
-292891
-292929
-292966
-293004
-293042
-293079
-293117
-293155
-293193
-293231
-293268
-293306
-293344
-293382
-293419
-293457
-293495
-293533
-293571
-293608
-293646
-293684
-293722
-293760
-293798
-293835
-293873
-293911
-293949
-293987
-294025
-294063
-294100
-294138
-294176
-294214
-294252
-294290
-294328
-294366
-294404
-294442
-294479
-294517
-294555
-294593
-294631
-294669
-294707
-294745
-294783
-294821
-294859
-294897
-294935
-294973
-295011
-295049
-295087
-295125
-295163
-295201
-295239
-295277
-295315
-295353
-295391
-295430
-295468
-295506
-295544
-295582
-295620
-295658
-295696
-295734
-295772
-295811
-295849
-295887
-295925
-295963
-296001
-296039
-296078
-296116
-296154
-296192
-296230
-296268
-296307
-296345
-296383
-296421
-296460
-296498
-296536
-296574
-296613
-296651
-296689
-296727
-296766
-296804
-296842
-296880
-296919
-296957
-296995
-297034
-297072
-297110
-297149
-297187
-297225
-297264
-297302
-297340
-297379
-297417
-297456
-297494
-297532
-297571
-297609
-297648
-297686
-297724
-297763
-297801
-297840
-297878
-297917
-297955
-297994
-298032
-298070
-298109
-298147
-298186
-298224
-298263
-298301
-298340
-298378
-298417
-298456
-298494
-298533
-298571
-298610
-298648
-298687
-298725
-298764
-298803
-298841
-298880
-298918
-298957
-298996
-299034
-299073
-299112
-299150
-299189
-299227
-299266
-299305
-299343
-299382
-299421
-299459
-299498
-299537
-299576
-299614
-299653
-299692
-299730
-299769
-299808
-299847
-299885
-299924
-299963
-300002
-300040
-300079
-300118
-300157
-300196
-300234
-300273
-300312
-300351
-300390
-300428
-300467
-300506
-300545
-300584
-300623
-300662
-300700
-300739
-300778
-300817
-300856
-300895
-300934
-300973
-301012
-301050
-301089
-301128
-301167
-301206
-301245
-301284
-301323
-301362
-301401
-301440
-301479
-301518
-301557
-301596
-301635
-301674
-301713
-301752
-301791
-301830
-301869
-301908
-301947
-301986
-302025
-302064
-302103
-302142
-302181
-302220
-302259
-302298
-302338
-302377
-302416
-302455
-302494
-302533
-302572
-302611
-302650
-302690
-302729
-302768
-302807
-302846
-302885
-302924
-302964
-303003
-303042
-303081
-303120
-303160
-303199
-303238
-303277
-303316
-303356
-303395
-303434
-303473
-303513
-303552
-303591
-303630
-303670
-303709
-303748
-303787
-303827
-303866
-303905
-303944
-303984
-304023
-304062
-304102
-304141
-304180
-304220
-304259
-304298
-304338
-304377
-304416
-304456
-304495
-304534
-304574
-304613
-304652
-304692
-304731
-304771
-304810
-304849
-304889
-304928
-304968
-305007
-305046
-305086
-305125
-305165
-305204
-305244
-305283
-305322
-305362
-305401
-305441
-305480
-305520
-305559
-305599
-305638
-305678
-305717
-305757
-305796
-305835
-305875
-305914
-305954
-305994
-306033
-306073
-306112
-306152
-306191
-306231
-306270
-306310
-306349
-306389
-306428
-306468
-306507
-306547
-306587
-306626
-306666
-306705
-306745
-306784
-306824
-306864
-306903
-306943
-306982
-307022
-307062
-307101
-307141
-307180
-307220
-307260
-307299
-307339
-307379
-307418
-307458
-307497
-307537
-307577
-307616
-307656
-307696
-307735
-307775
-307815
-307854
-307894
-307934
-307973
-308013
-308053
-308092
-308132
-308172
-308212
-308251
-308291
-308331
-308370
-308410
-308450
-308490
-308529
-308569
-308609
-308648
-308688
-308728
-308768
-308807
-308847
-308887
-308927
-308966
-309006
-309046
-309086
-309125
-309165
-309205
-309245
-309285
-309324
-309364
-309404
-309444
-309484
-309523
-309563
-309603
-309643
-309683
-309722
-309762
-309802
-309842
-309882
-309921
-309961
-310001
-310041
-310081
-310121
-310160
-310200
-310240
-310280
-310320