/*--------------------------------*- C++ -*----------------------------------*\
  =========                 |
  \\      /  F ield         | OpenFOAM: The Open Source CFD Toolbox
   \\    /   O peration     | Website:  https://openfoam.org
    \\  /    A nd           | Version:  9
     \\/     M anipulation  |
\*---------------------------------------------------------------------------*/
FoamFile
{
    format      ascii;
    class       volScalarField;
    location    "0.042";
    object      ddt0(rho);
}
// * * * * * * * * * * * * * * * * * * * * * * * * * * * * * * * * * * * * * //

dimensions      [1 -3 -1 0 0 0 0];

internalField   nonuniform List<scalar> 
10000
(
-5.80199
-5.80186
-5.80166
-5.80148
-5.80129
-5.80109
-5.8009
-5.80071
-5.80053
-5.80033
-5.80014
-5.79996
-5.79978
-5.79959
-5.7994
-5.79921
-5.79903
-5.79886
-5.79866
-5.79846
-5.79827
-5.7981
-5.79793
-5.79774
-5.79752
-5.79732
-5.79714
-5.79698
-5.79681
-5.7966
-5.79638
-5.79618
-5.79603
-5.79589
-5.79571
-5.79549
-5.79526
-5.79506
-5.79493
-5.7948
-5.79463
-5.79439
-5.79414
-5.79393
-5.79379
-5.79369
-5.79354
-5.79332
-5.79305
-5.79279
-5.79261
-5.79252
-5.79244
-5.79229
-5.79204
-5.79174
-5.79147
-5.7913
-5.79124
-5.7912
-5.79107
-5.79083
-5.79049
-5.79017
-5.78995
-5.78988
-5.78988
-5.78983
-5.78966
-5.78933
-5.78895
-5.78861
-5.78843
-5.78841
-5.78847
-5.78846
-5.7883
-5.78797
-5.78753
-5.78713
-5.78689
-5.78684
-5.78694
-5.78704
-5.787
-5.78675
-5.78632
-5.7858
-5.78537
-5.78514
-5.78514
-5.78531
-5.78549
-5.78553
-5.78533
-5.7849
-5.78433
-5.78377
-5.78339
-5.78327
-5.78339
-5.78366
-5.78391
-5.78399
-5.78379
-5.78331
-5.78266
-5.78199
-5.78148
-5.78123
-5.78129
-5.78158
-5.78197
-5.78228
-5.78236
-5.78213
-5.7816
-5.78087
-5.78009
-5.77943
-5.77904
-5.77898
-5.77922
-5.77968
-5.78018
-5.78057
-5.7807
-5.78049
-5.77995
-5.77917
-5.77826
-5.77741
-5.77676
-5.77642
-5.77644
-5.77679
-5.77736
-5.77801
-5.77859
-5.77895
-5.77899
-5.77866
-5.778
-5.77708
-5.77603
-5.77501
-5.77417
-5.7736
-5.7734
-5.77356
-5.77404
-5.77475
-5.77557
-5.77636
-5.777
-5.77737
-5.7774
-5.77707
-5.77639
-5.77544
-5.7743
-5.77308
-5.77191
-5.77091
-5.77016
-5.76974
-5.76968
-5.76997
-5.77057
-5.77142
-5.77243
-5.7735
-5.77453
-5.77543
-5.77612
-5.77653
-5.77662
-5.77638
-5.7758
-5.77493
-5.7738
-5.77246
-5.771
-5.7695
-5.76802
-5.76664
-5.76543
-5.76443
-5.76368
-5.76322
-5.76309
-5.76326
-5.76374
-5.76453
-5.76559
-5.76691
-5.76844
-5.77017
-5.77204
-5.77401
-5.77605
-5.77811
-5.78016
-5.78219
-5.78413
-5.78594
-5.78759
-5.78905
-5.7903
-5.79131
-5.79208
-5.79263
-5.79297
-5.79314
-5.79317
-5.79313
-5.79312
-5.79318
-5.79339
-5.79402
-5.79625
-5.79829
-5.79841
-5.79852
-5.79862
-5.79871
-5.79874
-5.79875
-5.79874
-5.79871
-5.79868
-5.79864
-5.79858
-5.79854
-5.79849
-5.79843
-5.79837
-5.79832
-5.79827
-5.79822
-5.79816
-5.7981
-5.79805
-5.798
-5.79795
-5.7979
-5.79786
-5.79781
-5.79777
-5.79772
-5.79768
-5.79763
-5.79759
-5.79754
-5.79749
-5.79745
-5.79741
-5.79737
-5.79732
-5.79727
-5.79722
-5.79717
-5.79712
-5.79708
-5.79704
-5.79699
-5.79695
-5.7969
-5.79686
-5.79681
-5.79677
-5.79672
-5.79667
-5.79663
-5.79659
-5.79655
-5.7965
-5.79645
-5.7964
-5.79635
-5.7963
-5.79626
-5.79621
-5.79617
-5.79612
-5.79608
-5.79603
-5.79599
-5.79594
-5.79589
-5.79584
-5.7958
-5.79575
-5.79571
-5.79566
-5.79562
-5.79557
-5.79552
-5.79547
-5.79542
-5.79537
-5.79533
-5.79528
-5.79524
-5.79519
-5.79515
-5.7951
-5.79505
-5.795
-5.79496
-5.79491
-5.79486
-5.79482
-5.79477
-5.79472
-5.79467
-5.79462
-5.79457
-5.79452
-5.79447
-5.79443
-5.79438
-5.79433
-5.79429
-5.79424
-5.79419
-5.79415
-5.7941
-5.79405
-5.794
-5.79396
-5.79391
-5.79386
-5.79381
-5.79376
-5.79371
-5.79366
-5.79361
-5.79356
-5.79351
-5.79346
-5.79341
-5.79337
-5.79332
-5.79327
-5.79322
-5.79318
-5.79313
-5.79308
-5.79303
-5.79299
-5.79294
-5.79289
-5.79284
-5.79279
-5.79274
-5.79268
-5.79263
-5.79258
-5.79253
-5.79248
-5.79243
-5.79238
-5.79233
-5.79229
-5.79224
-5.79219
-5.79214
-5.79209
-5.79204
-5.792
-5.79195
-5.7919
-5.79185
-5.79179
-5.79174
-5.79169
-5.79164
-5.79159
-5.79154
-5.79148
-5.79143
-5.79138
-5.79133
-5.79128
-5.79123
-5.79118
-5.79113
-5.79108
-5.79103
-5.79099
-5.79093
-5.79088
-5.79083
-5.79078
-5.79073
-5.79068
-5.79062
-5.79057
-5.79052
-5.79047
-5.79042
-5.79036
-5.79031
-5.79026
-5.79021
-5.79016
-5.79011
-5.79006
-5.79001
-5.78996
-5.7899
-5.78985
-5.7898
-5.78975
-5.78969
-5.78964
-5.78959
-5.78954
-5.78948
-5.78943
-5.78938
-5.78933
-5.78927
-5.78922
-5.78917
-5.78912
-5.78907
-5.78901
-5.78896
-5.78891
-5.78886
-5.7888
-5.78875
-5.78869
-5.78864
-5.78859
-5.78853
-5.78848
-5.78843
-5.78837
-5.78832
-5.78827
-5.78822
-5.78816
-5.78811
-5.78806
-5.788
-5.78795
-5.7879
-5.78784
-5.78779
-5.78773
-5.78768
-5.78762
-5.78757
-5.78751
-5.78746
-5.7874
-5.78735
-5.7873
-5.78724
-5.78719
-5.78713
-5.78708
-5.78703
-5.78697
-5.78692
-5.78687
-5.78681
-5.78676
-5.7867
-5.78665
-5.78659
-5.78653
-5.78648
-5.78642
-5.78636
-5.78631
-5.78625
-5.7862
-5.78614
-5.78609
-5.78603
-5.78598
-5.78592
-5.78587
-5.78581
-5.78576
-5.7857
-5.78565
-5.78559
-5.78554
-5.78548
-5.78542
-5.78536
-5.78531
-5.78525
-5.7852
-5.78513
-5.78508
-5.78501
-5.78498
-5.78489
-5.78487
-5.78477
-5.78477
-5.78464
-5.78468
-5.78451
-5.7846
-5.78437
-5.78451
-5.78421
-5.78443
-5.78407
-5.78433
-5.78395
-5.7842
-5.78387
-5.78402
-5.78387
-5.78379
-5.78379
-5.78371
-5.78363
-5.78358
-5.78355
-5.78347
-5.78342
-5.78336
-5.78332
-5.78322
-5.78324
-5.78303
-5.78324
-5.78277
-5.78327
-5.78251
-5.78327
-5.78231
-5.78316
-5.78227
-5.78288
-5.78239
-5.78242
-5.78266
-5.78196
-5.78285
-5.78161
-5.78282
-5.78157
-5.78244
-5.78189
-5.78178
-5.78232
-5.78118
-5.78251
-5.78098
-5.78222
-5.7813
-5.78145
-5.7819
-5.78069
-5.78219
-5.78047
-5.78181
-5.78096
-5.78085
-5.78169
-5.78008
-5.78184
-5.78016
-5.78109
-5.78097
-5.77999
-5.78157
-5.77959
-5.78119
-5.78024
-5.77999
-5.78115
-5.7792
-5.78112
-5.77962
-5.77995
-5.78071
-5.77888
-5.78095
-5.7791
-5.77984
-5.78029
-5.77858
-5.78072
-5.7787
-5.7796
-5.77996
-5.77822
-5.78045
-5.77839
-5.77922
-5.77976
-5.77781
-5.78014
-5.77819
-5.77867
-5.77968
-5.77737
-5.77973
-5.77817
-5.77801
-5.77963
-5.77705
-5.77916
-5.7783
-5.77726
-5.77951
-5.7769
-5.77835
-5.77856
-5.77654
-5.77916
-5.77703
-5.77733
-5.77881
-5.77611
-5.77841
-5.77749
-5.77628
-5.77879
-5.7761
-5.77726
-5.77808
-5.7755
-5.77818
-5.7767
-5.77589
-5.77833
-5.77542
-5.77688
-5.77754
-5.77491
-5.77771
-5.77619
-5.77526
-5.77789
-5.77494
-5.77616
-5.77722
-5.7743
-5.77702
-5.77601
-5.77444
-5.77739
-5.7747
-5.77517
-5.777
-5.77385
-5.77612
-5.77591
-5.7737
-5.77665
-5.77466
-5.77419
-5.77659
-5.77363
-5.77494
-5.77592
-5.7731
-5.77562
-5.7749
-5.7731
-5.77594
-5.77381
-5.77351
-5.77581
-5.77293
-5.77411
-5.77526
-5.77237
-5.77467
-5.77444
-5.7722
-5.77504
-5.77349
-5.77234
-5.77511
-5.7726
-5.7727
-5.77489
-5.77188
-5.77314
-5.7744
-5.77136
-5.77355
-5.77375
-5.77108
-5.77385
-5.77302
-5.77099
-5.77401
-5.77227
-5.77104
-5.77401
-5.77157
-5.77118
-5.77388
-5.77094
-5.77136
-5.77363
-5.77038
-5.77155
-5.7733
-5.76991
-5.77173
-5.77291
-5.76951
-5.77189
-5.77247
-5.76918
-5.77202
-5.77201
-5.7689
-5.7721
-5.77153
-5.76868
-5.77214
-5.77106
-5.76849
-5.77212
-5.7706
-5.76833
-5.77207
-5.77018
-5.76817
-5.77196
-5.76979
-5.76801
-5.77183
-5.76944
-5.76784
-5.77167
-5.76913
-5.76765
-5.77149
-5.76886
-5.76744
-5.77129
-5.76862
-5.76721
-5.77107
-5.76841
-5.76695
-5.77083
-5.76825
-5.76668
-5.77057
-5.76813
-5.76641
-5.77028
-5.76804
-5.76612
-5.76995
-5.76798
-5.76582
-5.76959
-5.76796
-5.76553
-5.76919
-5.76797
-5.76526
-5.76875
-5.76799
-5.76502
-5.76827
-5.76802
-5.7648
-5.76775
-5.76805
-5.76463
-5.76718
-5.76807
-5.76452
-5.76658
-5.76805
-5.76448
-5.76594
-5.76799
-5.7645
-5.76529
-5.76786
-5.7646
-5.76462
-5.76765
-5.7648
-5.76398
-5.76732
-5.76507
-5.76338
-5.76685
-5.76541
-5.76289
-5.76623
-5.76577
-5.76255
-5.76545
-5.7661
-5.7624
-5.76453
-5.76632
-5.7625
-5.76353
-5.76634
-5.76284
-5.76255
-5.76608
-5.76336
-5.76171
-5.7655
-5.76399
-5.76113
-5.76463
-5.76459
-5.76088
-5.76351
-5.76501
-5.76101
-5.76229
-5.76511
-5.76151
-5.76113
-5.76479
-5.76224
-5.76022
-5.76403
-5.76303
-5.75971
-5.76291
-5.76369
-5.75969
-5.76157
-5.764
-5.76014
-5.76023
-5.7638
-5.76095
-5.75915
-5.76305
-5.76189
-5.75857
-5.76181
-5.76267
-5.75859
-5.76029
-5.763
-5.75922
-5.75882
-5.76268
-5.76025
-5.75775
-5.76164
-5.76135
-5.75738
-5.76006
-5.76207
-5.75782
-5.75833
-5.76204
-5.75891
-5.75696
-5.76111
-5.7602
-5.75639
-5.75946
-5.76112
-5.75679
-5.75757
-5.7612
-5.75796
-5.75606
-5.76023
-5.75938
-5.75548
-5.75845
-5.76035
-5.756
-5.75647
-5.76029
-5.75733
-5.75504
-5.75908
-5.75878
-5.75473
-5.7571
-5.75953
-5.75558
-5.75514
-5.7591
-5.75708
-5.75402
-5.75753
-5.75837
-5.75416
-5.75545
-5.75867
-5.75537
-5.75378
-5.75765
-5.7569
-5.75326
-5.75568
-5.75778
-5.75405
-5.75366
-5.75738
-5.75557
-5.75255
-5.75573
-5.7568
-5.75285
-5.75363
-5.75687
-5.75422
-5.75213
-5.75554
-5.75569
-5.75198
-5.75342
-5.75621
-5.75311
-5.75163
-5.75523
-5.75467
-5.75113
-5.75317
-5.75545
-5.75212
-5.75116
-5.75471
-5.75378
-5.75038
-5.75269
-5.75478
-5.75123
-5.75057
-5.75415
-5.75295
-5.74968
-5.75208
-5.75406
-5.75053
-5.74984
-5.75347
-5.7523
-5.74893
-5.75133
-5.75341
-5.74989
-5.74905
-5.75268
-5.75178
-5.74825
-5.75038
-5.75281
-5.7494
-5.74814
-5.75181
-5.75134
-5.74763
-5.7493
-5.75214
-5.74909
-5.74717
-5.75075
-5.75102
-5.74709
-5.74808
-5.75136
-5.74892
-5.74629
-5.74946
-5.75069
-5.74679
-5.74676
-5.75041
-5.74886
-5.74555
-5.74801
-5.7502
-5.74673
-5.74549
-5.74916
-5.74886
-5.74505
-5.74642
-5.74946
-5.74684
-5.74444
-5.74759
-5.7487
-5.74492
-5.74482
-5.74836
-5.74704
-5.74372
-5.74583
-5.74821
-5.7451
-5.74344
-5.74683
-5.74715
-5.74343
-5.74402
-5.74726
-5.74545
-5.74252
-5.74493
-5.74689
-5.74362
-5.74241
-5.74575
-5.74571
-5.74216
-5.74294
-5.746
-5.7441
-5.74132
-5.74376
-5.74556
-5.74238
-5.74121
-5.74442
-5.74447
-5.74099
-5.74161
-5.74466
-5.74295
-5.74012
-5.74229
-5.74428
-5.74136
-5.73984
-5.74289
-5.74337
-5.73994
-5.74006
-5.74317
-5.74204
-5.73894
-5.74053
-5.743
-5.74054
-5.7384
-5.74107
-5.74233
-5.73912
-5.73829
-5.74143
-5.7413
-5.73792
-5.73852
-5.74148
-5.74
-5.73708
-5.73889
-5.74117
-5.73862
-5.7366
-5.73927
-5.74048
-5.73733
-5.73644
-5.73949
-5.73953
-5.7362
-5.73652
-5.73949
-5.73837
-5.73534
-5.7367
-5.73922
-5.73714
-5.73472
-5.73693
-5.73868
-5.73593
-5.73435
-5.73707
-5.73793
-5.73481
-5.73418
-5.73708
-5.73699
-5.73384
-5.73412
-5.73694
-5.73595
-5.73303
-5.73415
-5.7366
-5.73488
-5.73239
-5.73417
-5.73611
-5.7338
-5.7319
-5.73414
-5.73547
-5.73278
-5.73151
-5.73407
-5.73472
-5.73183
-5.73123
-5.73388
-5.7339
-5.73096
-5.731
-5.73361
-5.73301
-5.73019
-5.73078
-5.73325
-5.73211
-5.72949
-5.73058
-5.73278
-5.73121
-5.72886
-5.73035
-5.73226
-5.73032
-5.7283
-5.73009
-5.73166
-5.72947
-5.72777
-5.7298
-5.73102
-5.72864
-5.72729
-5.72945
-5.73035
-5.72784
-5.72681
-5.72907
-5.72965
-5.72709
-5.72634
-5.72864
-5.72894
-5.72635
-5.72589
-5.72817
-5.72822
-5.72564
-5.72541
-5.72768
-5.7275
-5.72496
-5.72492
-5.72714
-5.72679
-5.72428
-5.72441
-5.72659
-5.72609
-5.72363
-5.72387
-5.72602
-5.7254
-5.72297
-5.72331
-5.72541
-5.72474
-5.72233
-5.72273
-5.7248
-5.72408
-5.72171
-5.7221
-5.72416
-5.72344
-5.72108
-5.72147
-5.7235
-5.72282
-5.72046
-5.7208
-5.72282
-5.72219
-5.71987
-5.72011
-5.72211
-5.72159
-5.71926
-5.71941
-5.72138
-5.72098
-5.71868
-5.7187
-5.72064
-5.72036
-5.71811
-5.71797
-5.71987
-5.71974
-5.71753
-5.71725
-5.71908
-5.71911
-5.71697
-5.71651
-5.71828
-5.71847
-5.7164
-5.71577
-5.71745
-5.71783
-5.71584
-5.71503
-5.71661
-5.71716
-5.71529
-5.71428
-5.71575
-5.71648
-5.71474
-5.71355
-5.71485
-5.71579
-5.7142
-5.71283
-5.71395
-5.71506
-5.71368
-5.71211
-5.71302
-5.71429
-5.71315
-5.71143
-5.71206
-5.71349
-5.71263
-5.71078
-5.7111
-5.71262
-5.7121
-5.71016
-5.71014
-5.7117
-5.71153
-5.7096
-5.7092
-5.71071
-5.71092
-5.70908
-5.7083
-5.70967
-5.71025
-5.70858
-5.70745
-5.70859
-5.7095
-5.70812
-5.70666
-5.70749
-5.70866
-5.70763
-5.70597
-5.70638
-5.70772
-5.70712
-5.70534
-5.70531
-5.70669
-5.70654
-5.70478
-5.7043
-5.70558
-5.70587
-5.70427
-5.70337
-5.70444
-5.70509
-5.70376
-5.70253
-5.70326
-5.70421
-5.70324
-5.70178
-5.70211
-5.70321
-5.70267
-5.70111
-5.70101
-5.70213
-5.70202
-5.7005
-5.69997
-5.70098
-5.70127
-5.69992
-5.699
-5.69979
-5.70042
-5.69935
-5.69814
-5.69858
-5.69946
-5.69876
-5.69736
-5.69739
-5.69837
-5.69812
-5.69667
-5.69625
-5.69719
-5.69737
-5.69606
-5.6952
-5.69593
-5.69651
-5.69547
-5.69427
-5.69463
-5.69549
-5.69488
-5.69347
-5.69335
-5.69431
-5.69421
-5.6928
-5.69217
-5.69299
-5.69338
-5.69222
-5.69114
-5.69162
-5.69236
-5.69163
-5.69029
-5.69026
-5.69114
-5.69094
-5.68959
-5.68903
-5.68978
-5.69007
-5.68896
-5.68797
-5.68838
-5.689
-5.68831
-5.68708
-5.68702
-5.68774
-5.68754
-5.68632
-5.68578
-5.68637
-5.68659
-5.68561
-5.68469
-5.68497
-5.68547
-5.68485
-5.68375
-5.68362
-5.6842
-5.68398
-5.6829
-5.68237
-5.68283
-5.68299
-5.68209
-5.68123
-5.68142
-5.68184
-5.68126
-5.68021
-5.68003
-5.68054
-5.68036
-5.67931
-5.67871
-5.67911
-5.67932
-5.67848
-5.67753
-5.67761
-5.67808
-5.67763
-5.67653
-5.67615
-5.67665
-5.67666
-5.67567
-5.67485
-5.67508
-5.67547
-5.67484
-5.67375
-5.67353
-5.67403
-5.67389
-5.67283
-5.67212
-5.67243
-5.67271
-5.67197
-5.67094
-5.67082
-5.67126
-5.67101
-5.66996
-5.66934
-5.66965
-5.66981
-5.66903
-5.66809
-5.66802
-5.66837
-5.66801
-5.66702
-5.6665
-5.66677
-5.6668
-5.666
-5.66516
-5.66512
-5.66538
-5.66493
-5.66398
-5.66355
-5.66378
-5.66371
-5.66287
-5.66211
-5.66211
-5.66229
-5.66177
-5.66083
-5.66046
-5.66068
-5.66055
-5.65968
-5.65893
-5.65895
-5.65911
-5.65855
-5.6576
-5.65723
-5.65745
-5.6573
-5.65642
-5.65564
-5.65564
-5.6558
-5.65526
-5.65428
-5.65385
-5.65406
-5.65394
-5.65308
-5.65225
-5.65218
-5.65235
-5.65187
-5.65089
-5.65036
-5.65051
-5.65045
-5.64965
-5.64877
-5.64858
-5.64875
-5.64835
-5.6474
-5.64677
-5.64682
-5.64681
-5.64611
-5.64519
-5.64486
-5.64498
-5.64469
-5.6438
-5.64307
-5.64299
-5.643
-5.64241
-5.6415
-5.64104
-5.64107
-5.64085
-5.64005
-5.63927
-5.63905
-5.63904
-5.63855
-5.63767
-5.63711
-5.63704
-5.63686
-5.63614
-5.63532
-5.63499
-5.63494
-5.63453
-5.63368
-5.63302
-5.63287
-5.63272
-5.63208
-5.63122
-5.63077
-5.63069
-5.63036
-5.62954
-5.62878
-5.62852
-5.62842
-5.62787
-5.62698
-5.62638
-5.62625
-5.62602
-5.62528
-5.62441
-5.62399
-5.6239
-5.6235
-5.62263
-5.62185
-5.62159
-5.62145
-5.62087
-5.61994
-5.61931
-5.61914
-5.61889
-5.61814
-5.61724
-5.61676
-5.61661
-5.6162
-5.61534
-5.61453
-5.61419
-5.61399
-5.61342
-5.61251
-5.61182
-5.61156
-5.61126
-5.61054
-5.60965
-5.6091
-5.60885
-5.60842
-5.60759
-5.60677
-5.60633
-5.60606
-5.60548
-5.60459
-5.60387
-5.60351
-5.60316
-5.60244
-5.60155
-5.60094
-5.60062
-5.60015
-5.59932
-5.59847
-5.59796
-5.59763
-5.59704
-5.59614
-5.59535
-5.59493
-5.59456
-5.59384
-5.5929
-5.59219
-5.59182
-5.59138
-5.59055
-5.5896
-5.58898
-5.58863
-5.58809
-5.58718
-5.58626
-5.5857
-5.58534
-5.58471
-5.58374
-5.58286
-5.58236
-5.58195
-5.58123
-5.58023
-5.5794
-5.57893
-5.57846
-5.57765
-5.57665
-5.57588
-5.57541
-5.57486
-5.57398
-5.573
-5.57228
-5.57179
-5.57116
-5.57022
-5.56928
-5.56861
-5.56808
-5.56735
-5.56638
-5.56548
-5.56484
-5.56426
-5.56344
-5.56245
-5.56159
-5.56097
-5.56033
-5.55943
-5.55842
-5.55761
-5.557
-5.5563
-5.55533
-5.55431
-5.55353
-5.55292
-5.55215
-5.55113
-5.55011
-5.54935
-5.54872
-5.54789
-5.54682
-5.54581
-5.54507
-5.5444
-5.54351
-5.54241
-5.5414
-5.54066
-5.53996
-5.53902
-5.53788
-5.53689
-5.53614
-5.5354
-5.5344
-5.53325
-5.53226
-5.5315
-5.5307
-5.52966
-5.5285
-5.52751
-5.52672
-5.52588
-5.52479
-5.52362
-5.52264
-5.52182
-5.52091
-5.51978
-5.51861
-5.51763
-5.51678
-5.51582
-5.51464
-5.51346
-5.51247
-5.51159
-5.51057
-5.50936
-5.50817
-5.50717
-5.50626
-5.50519
-5.50394
-5.50274
-5.50173
-5.50078
-5.49966
-5.49839
-5.49718
-5.49616
-5.49517
-5.49401
-5.49271
-5.4915
-5.49048
-5.48947
-5.48828
-5.48696
-5.48576
-5.4854
-5.48526
-5.48508
-5.48349
-5.48265
-5.48068
-5.47912
-5.47776
-5.47614
-5.4746
-5.47331
-5.47203
-5.47066
-5.46923
-5.46782
-5.46654
-5.46536
-5.46402
-5.46259
-5.46121
-5.45992
-5.4587
-5.45739
-5.45595
-5.45454
-5.45324
-5.45198
-5.45063
-5.44915
-5.4477
-5.44636
-5.44506
-5.44366
-5.44217
-5.44069
-5.4393
-5.43794
-5.43649
-5.43495
-5.43344
-5.43202
-5.43062
-5.42912
-5.42754
-5.42598
-5.42453
-5.42307
-5.42153
-5.41989
-5.4183
-5.41682
-5.41534
-5.41373
-5.41204
-5.4104
-5.40886
-5.40733
-5.40568
-5.40396
-5.40227
-5.40068
-5.39911
-5.39744
-5.39566
-5.3939
-5.39224
-5.39063
-5.38893
-5.38712
-5.38529
-5.38357
-5.38191
-5.38018
-5.37832
-5.37643
-5.37464
-5.37293
-5.37115
-5.36926
-5.36733
-5.36548
-5.3637
-5.36186
-5.35993
-5.35796
-5.35604
-5.35418
-5.3523
-5.35032
-5.34831
-5.34634
-5.34441
-5.34246
-5.34042
-5.33836
-5.33634
-5.33435
-5.33233
-5.33024
-5.32812
-5.32603
-5.32399
-5.32193
-5.31977
-5.31757
-5.31541
-5.31333
-5.31121
-5.30899
-5.30671
-5.30448
-5.30234
-5.30017
-5.2979
-5.29555
-5.29324
-5.291
-5.28879
-5.28647
-5.28407
-5.28166
-5.27934
-5.27705
-5.27471
-5.27225
-5.26976
-5.26734
-5.26497
-5.26257
-5.26007
-5.25751
-5.255
-5.25254
-5.25007
-5.24752
-5.2449
-5.2423
-5.23975
-5.23719
-5.23457
-5.2319
-5.22923
-5.2266
-5.22396
-5.22125
-5.2185
-5.21576
-5.21306
-5.21033
-5.20754
-5.2047
-5.20189
-5.1991
-5.19631
-5.19345
-5.19052
-5.18759
-5.18472
-5.18186
-5.17894
-5.17592
-5.17289
-5.16991
-5.16698
-5.16399
-5.16091
-5.15777
-5.15468
-5.15165
-5.14859
-5.14545
-5.14222
-5.13902
-5.13587
-5.13273
-5.12952
-5.12623
-5.12291
-5.11964
-5.1164
-5.11312
-5.10976
-5.10635
-5.10296
-5.09961
-5.09623
-5.0928
-5.08931
-5.08581
-5.08234
-5.07887
-5.07534
-5.07176
-5.06817
-5.0646
-5.06102
-5.05739
-5.05371
-5.05003
-5.04636
-5.04268
-5.03894
-5.03515
-5.03136
-5.02759
-5.02382
-5.01999
-5.0161
-5.01218
-5.00829
-5.00443
-5.00052
-4.99652
-4.99248
-4.98847
-4.98449
-4.98049
-4.97642
-4.97227
-4.96812
-4.96401
-4.95991
-4.95576
-4.95153
-4.94725
-4.94299
-4.93878
-4.93454
-4.93022
-4.92584
-4.92145
-4.9171
-4.91274
-4.90834
-4.90387
-4.89937
-4.89488
-4.8904
-4.88589
-4.88133
-4.87672
-4.87211
-4.86751
-4.86289
-4.85822
-4.85351
-4.84879
-4.84407
-4.83933
-4.83454
-4.82972
-4.82489
-4.82006
-4.81522
-4.81032
-4.80538
-4.80042
-4.79548
-4.79054
-4.78555
-4.78049
-4.77541
-4.77034
-4.76529
-4.76021
-4.75506
-4.74986
-4.74466
-4.73948
-4.73431
-4.72908
-4.72378
-4.71845
-4.71314
-4.70785
-4.70254
-4.69716
-4.69172
-4.68629
-4.68087
-4.67545
-4.67
-4.66448
-4.65893
-4.65339
-4.64786
-4.64231
-4.63671
-4.63107
-4.62543
-4.61979
-4.61414
-4.60845
-4.60272
-4.59698
-4.59125
-4.5855
-4.57972
-4.5739
-4.56807
-4.56225
-4.55642
-4.55056
-4.54466
-4.53873
-4.53282
-4.52692
-4.52099
-4.51501
-4.509
-4.50299
-4.497
-4.49102
-4.48499
-4.47892
-4.47282
-4.46674
-4.46069
-4.45462
-4.4485
-4.44234
-4.43618
-4.43004
-4.42392
-4.41777
-4.41157
-4.40536
-4.39915
-4.39296
-4.38677
-4.38055
-4.3743
-4.36805
-4.3618
-4.35557
-4.34932
-4.34305
-4.33677
-4.33049
-4.32422
-4.31795
-4.31166
-4.30536
-4.29906
-4.29278
-4.28649
-4.28019
-4.27387
-4.26757
-4.26128
-4.255
-4.24871
-4.24239
-4.23608
-4.22979
-4.22353
-4.21726
-4.21097
-4.20467
-4.19838
-4.19212
-4.18589
-4.17966
-4.17339
-4.16712
-4.16088
-4.15468
-4.1485
-4.1423
-4.13609
-4.12988
-4.12371
-4.11757
-4.11145
-4.10531
-4.09918
-4.09306
-4.08697
-4.08092
-4.07486
-4.06881
-4.06278
-4.05677
-4.05079
-4.04482
-4.03886
-4.03292
-4.02701
-4.02113
-4.01526
-4.00941
-4.00357
-3.99776
-3.99199
-3.98625
-3.98052
-3.97479
-3.96909
-3.96344
-3.95783
-3.95224
-3.94666
-3.94109
-3.93555
-3.93007
-3.92464
-3.91922
-3.91381
-3.90841
-3.90306
-3.89777
-3.89252
-3.88728
-3.88206
-3.87686
-3.87172
-3.86662
-3.86157
-3.85653
-3.85152
-3.84654
-3.8416
-3.83672
-3.83187
-3.82705
-3.82226
-3.81751
-3.81281
-3.80815
-3.80352
-3.79892
-3.79437
-3.78986
-3.7854
-3.78096
-3.77656
-3.77221
-3.7679
-3.76365
-3.75943
-3.75524
-3.75108
-3.74697
-3.74292
-3.73892
-3.73495
-3.731
-3.7271
-3.72324
-3.71945
-3.71571
-3.71199
-3.7083
-3.70465
-3.70106
-3.69753
-3.69404
-3.69058
-3.68715
-3.68376
-3.68043
-3.67716
-3.67392
-3.67072
-3.66755
-3.66442
-3.66136
-3.65834
-3.65535
-3.6524
-3.64949
-3.64663
-3.64382
-3.64105
-3.63832
-3.63562
-3.63296
-3.63036
-3.6278
-3.62527
-3.62278
-3.62033
-3.61793
-3.61558
-3.61326
-3.61097
-3.60872
-3.60651
-3.60435
-3.60224
-3.60015
-3.59809
-3.59607
-3.59409
-3.59217
-3.59028
-3.58842
-3.58658
-3.58478
-3.58303
-3.58133
-3.57965
-3.57801
-3.57638
-3.57479
-3.57325
-3.57175
-3.57029
-3.56884
-3.56742
-3.56603
-3.56469
-3.56339
-3.56211
-3.56085
-3.55962
-3.55843
-3.55727
-3.55614
-3.55504
-3.55396
-3.55292
-3.5519
-3.55091
-3.54995
-3.54901
-3.5481
-3.54722
-3.54637
-3.54554
-3.54473
-3.54394
-3.54318
-3.54245
-3.54176
-3.54108
-3.54041
-3.53976
-3.53914
-3.53855
-3.53798
-3.53744
-3.5369
-3.53638
-3.53588
-3.53542
-3.53498
-3.53455
-3.53413
-3.53372
-3.53335
-3.533
-3.53266
-3.53234
-3.53203
-3.53173
-3.53146
-3.53121
-3.53097
-3.53075
-3.53053
-3.53033
-3.53015
-3.52999
-3.52984
-3.5297
-3.52957
-3.52946
-3.52936
-3.52927
-3.5292
-3.52913
-3.52908
-3.52904
-3.52902
-3.52901
-3.529
-3.529
-3.52901
-3.52904
-3.52909
-3.52913
-3.52918
-3.52924
-3.52931
-3.5294
-3.5295
-3.5296
-3.5297
-3.52981
-3.52994
-3.53008
-3.53022
-3.53037
-3.53052
-3.53067
-3.53084
-3.53102
-3.53121
-3.5314
-3.53158
-3.53178
-3.53198
-3.5322
-3.53242
-3.53264
-3.53287
-3.5331
-3.53333
-3.53358
-3.53383
-3.53408
-3.53433
-3.53459
-3.53486
-3.53513
-3.5354
-3.53568
-3.53596
-3.53625
-3.53654
-3.53683
-3.53712
-3.53741
-3.53772
-3.53803
-3.53834
-3.53865
-3.53896
-3.53927
-3.53959
-3.53991
-3.54025
-3.54057
-3.5409
-3.54122
-3.54155
-3.54189
-3.54224
-3.54258
-3.54292
-3.54326
-3.5436
-3.54395
-3.5443
-3.54466
-3.54501
-3.54536
-3.54571
-3.54607
-3.54643
-3.54679
-3.54715
-3.54751
-3.54788
-3.54824
-3.54861
-3.54898
-3.54934
-3.54971
-3.55009
-3.55046
-3.55083
-3.5512
-3.55157
-3.55195
-3.55233
-3.55271
-3.55309
-3.55346
-3.55383
-3.55421
-3.5546
-3.55499
-3.55537
-3.55575
-3.55612
-3.5565
-3.55689
-3.55728
-3.55767
-3.55805
-3.55843
-3.55881
-3.5592
-3.5596
-3.55999
-3.56037
-3.56076
-3.56114
-3.56153
-3.56193
-3.56232
-3.56271
-3.5631
-3.56349
-3.56388
-3.56427
-3.56466
-3.56505
-3.56544
-3.56584
-3.56623
-3.56662
-3.56701
-3.5674
-3.5678
-3.56819
-3.56859
-3.56898
-3.56937
-3.56976
-3.57015
-3.57055
-3.57096
-3.57135
-3.57174
-3.57213
-3.57252
-3.57292
-3.57332
-3.57372
-3.57411
-3.5745
-3.57489
-3.57529
-3.57569
-3.57609
-3.57648
-3.57688
-3.57727
-3.57766
-3.57806
-3.57846
-3.57886
-3.57925
-3.57965
-3.58004
-3.58044
-3.58083
-3.58123
-3.58163
-3.58203
-3.58243
-3.58282
-3.58321
-3.58361
-3.584
-3.58441
-3.58481
-3.58521
-3.5856
-3.58599
-3.58638
-3.58678
-3.58719
-3.58759
-3.58799
-3.58837
-3.58877
-3.58916
-3.58957
-3.58997
-3.59037
-3.59076
-3.59115
-3.59155
-3.59195
-3.59235
-3.59275
-3.59315
-3.59354
-3.59394
-3.59433
-3.59473
-3.59513
-3.59553
-3.59593
-3.59633
-3.59672
-3.59712
-3.59751
-3.59791
-3.59831
-3.59872
-3.59911
-3.59951
-3.5999
-3.6003
-3.60069
-3.6011
-3.6015
-3.6019
-3.60229
-3.60269
-3.60308
-3.60348
-3.60389
-3.60429
-3.60469
-3.60508
-3.60547
-3.60587
-3.60627
-3.60668
-3.60708
-3.60747
-3.60787
-3.60826
-3.60866
-3.60906
-3.60946
-3.60986
-3.61026
-3.61066
-3.61106
-3.61145
-3.61185
-3.61225
-3.61265
-3.61306
-3.61345
-3.61385
-3.61424
-3.61464
-3.61504
-3.61544
-3.61585
-3.61625
-3.61664
-3.61703
-3.61743
-3.61783
-3.61824
-3.61864
-3.61904
-3.61943
-3.61983
-3.62023
-3.62063
-3.62103
-3.62143
-3.62183
-3.62223
-3.62262
-3.62302
-3.62342
-3.62383
-3.62423
-3.62463
-3.62503
-3.62542
-3.62582
-3.62622
-3.62662
-3.62703
-3.62743
-3.62782
-3.62822
-3.62862
-3.62902
-3.62942
-3.62982
-3.63023
-3.63063
-3.63102
-3.63141
-3.63181
-3.63222
-3.63262
-3.63302
-3.63342
-3.63382
-3.63422
-3.63461
-3.63502
-3.63542
-3.63583
-3.63622
-3.63662
-3.63702
-3.63742
-3.63782
-3.63822
-3.63862
-3.63902
-3.63943
-3.63983
-3.64022
-3.64062
-3.64102
-3.64143
-3.64183
-3.64223
-3.64263
-3.64302
-3.64342
-3.64383
-3.64423
-3.64463
-3.64503
-3.64543
-3.64583
-3.64623
-3.64663
-3.64703
-3.64744
-3.64784
-3.64823
-3.64863
-3.64903
-3.64943
-3.64984
-3.65024
-3.65064
-3.65104
-3.65144
-3.65184
-3.65224
-3.65264
-3.65304
-3.65345
-3.65385
-3.65425
-3.65465
-3.65505
-3.65545
-3.65585
-3.65625
-3.65666
-3.65706
-3.65746
-3.65785
-3.65825
-3.65866
-3.65906
-3.65947
-3.65987
-3.66027
-3.66066
-3.66106
-3.66147
-3.66187
-3.66227
-3.66268
-3.66307
-3.66347
-3.66387
-3.66428
-3.66468
-3.66508
-3.66548
-3.66588
-3.66628
-3.66669
-3.66709
-3.66749
-3.66789
-3.66829
-3.6687
-3.6691
-3.6695
-3.6699
-3.6703
-3.6707
-3.67111
-3.67151
-3.67191
-3.67231
-3.67271
-3.67311
-3.67352
-3.67392
-3.67433
-3.67473
-3.67513
-3.67553
-3.67593
-3.67633
-3.67674
-3.67714
-3.67754
-3.67794
-3.67834
-3.67875
-3.67915
-3.67955
-3.67996
-3.68036
-3.68076
-3.68116
-3.68156
-3.68196
-3.68237
-3.68277
-3.68317
-3.68358
-3.68398
-3.68438
-3.68478
-3.68519
-3.68559
-3.68599
-3.6864
-3.6868
-3.6872
-3.68761
-3.68801
-3.68841
-3.68881
-3.68922
-3.68962
-3.69003
-3.69043
-3.69083
-3.69124
-3.69164
-3.69204
-3.69245
-3.69285
-3.69325
-3.69366
-3.69406
-3.69446
-3.69487
-3.69527
-3.69568
-3.69608
-3.69649
-3.69689
-3.69729
-3.6977
-3.6981
-3.6985
-3.69891
-3.69932
-3.69972
-3.70012
-3.70053
-3.70093
-3.70134
-3.70174
-3.70215
-3.70255
-3.70295
-3.70336
-3.70376
-3.70417
-3.70457
-3.70498
-3.70538
-3.70579
-3.70619
-3.7066
-3.707
-3.70741
-3.70781
-3.70822
-3.70863
-3.70903
-3.70944
-3.70984
-3.71024
-3.71065
-3.71106
-3.71147
-3.71187
-3.71228
-3.71268
-3.71309
-3.71349
-3.7139
-3.71431
-3.71471
-3.71512
-3.71553
-3.71593
-3.71634
-3.71674
-3.71715
-3.71756
-3.71797
-3.71837
-3.71878
-3.71919
-3.71959
-3.72
-3.7204
-3.72081
-3.72122
-3.72163
-3.72204
-3.72244
-3.72285
-3.72326
-3.72366
-3.72407
-3.72448
-3.72489
-3.7253
-3.7257
-3.72611
-3.72652
-3.72693
-3.72734
-3.72775
-3.72815
-3.72856
-3.72897
-3.72938
-3.72978
-3.73019
-3.7306
-3.73101
-3.73142
-3.73183
-3.73224
-3.73264
-3.73306
-3.73346
-3.73388
-3.73428
-3.7347
-3.7351
-3.73551
-3.73592
-3.73633
-3.73674
-3.73715
-3.73756
-3.73797
-3.73838
-3.73879
-3.7392
-3.73961
-3.74002
-3.74043
-3.74084
-3.74125
-3.74166
-3.74207
-3.74248
-3.74289
-3.7433
-3.74372
-3.74412
-3.74454
-3.74495
-3.74535
-3.74576
-3.74618
-3.74659
-3.747
-3.74741
-3.74782
-3.74823
-3.74864
-3.74905
-3.74947
-3.74988
-3.75029
-3.7507
-3.75112
-3.75153
-3.75194
-3.75235
-3.75276
-3.75318
-3.75359
-3.754
-3.75441
-3.75482
-3.75523
-3.75564
-3.75606
-3.75647
-3.75689
-3.7573
-3.75771
-3.75812
-3.75853
-3.75895
-3.75936
-3.75978
-3.76019
-3.7606
-3.76101
-3.76143
-3.76184
-3.76225
-3.76267
-3.76308
-3.7635
-3.76391
-3.76432
-3.76473
-3.76514
-3.76556
-3.76597
-3.76639
-3.7668
-3.76722
-3.76763
-3.76804
-3.76846
-3.76887
-3.76929
-3.7697
-3.77012
-3.77053
-3.77095
-3.77136
-3.77177
-3.77218
-3.7726
-3.77302
-3.77343
-3.77385
-3.77426
-3.77467
-3.77509
-3.7755
-3.77592
-3.77634
-3.77675
-3.77717
-3.77758
-3.77799
-3.77841
-3.77882
-3.77924
-3.77966
-3.78007
-3.78049
-3.7809
-3.78132
-3.78173
-3.78215
-3.78256
-3.78298
-3.7834
-3.78381
-3.78423
-3.78464
-3.78506
-3.78547
-3.78589
-3.78631
-3.78673
-3.78714
-3.78756
-3.78797
-3.78839
-3.7888
-3.78922
-3.78964
-3.79006
-3.79047
-3.79089
-3.7913
-3.79172
-3.79213
-3.79255
-3.79297
-3.79339
-3.7938
-3.79422
-3.79463
-3.79505
-3.79547
-3.79588
-3.7963
-3.79672
-3.79714
-3.79755
-3.79797
-3.79838
-3.7988
-3.79922
-3.79964
-3.80006
-3.80047
-3.80089
-3.80131
-3.80172
-3.80214
-3.80256
-3.80298
-3.80339
-3.80381
-3.80423
-3.80464
-3.80506
-3.80548
-3.8059
-3.80632
-3.80673
-3.80715
-3.80757
-3.80798
-3.8084
-3.80882
-3.80924
-3.80966
-3.81008
-3.81049
-3.81091
-3.81133
-3.81174
-3.81216
-3.81258
-3.813
-3.81342
-3.81384
-3.81425
-3.81467
-3.81509
-3.8155
-3.81592
-3.81634
-3.81676
-3.81718
-3.8176
-3.81801
-3.81843
-3.81885
-3.81926
-3.81968
-3.8201
-3.82052
-3.82094
-3.82136
-3.82177
-3.82219
-3.82261
-3.82303
-3.82345
-3.82387
-3.82429
-3.8247
-3.82512
-3.82554
-3.82596
-3.82637
-3.8268
-3.82721
-3.82763
-3.82805
-3.82847
-3.82888
-3.8293
-3.82972
-3.83014
-3.83056
-3.83098
-3.8314
-3.83181
-3.83223
-3.83265
-3.83307
-3.83349
-3.83391
-3.83433
-3.83475
-3.83516
-3.83558
-3.836
-3.83642
-3.83684
-3.83726
-3.83767
-3.83809
-3.83851
-3.83893
-3.83935
-3.83977
-3.84018
-3.8406
-3.84102
-3.84144
-3.84186
-3.84228
-3.8427
-3.84311
-3.84353
-3.84395
-3.84437
-3.84479
-3.84521
-3.84563
-3.84604
-3.84646
-3.84688
-3.8473
-3.84772
-3.84814
-3.84856
-3.84898
-3.84939
-3.84981
-3.85023
-3.85065
-3.85107
-3.85149
-3.85191
-3.85233
-3.85274
-3.85316
-3.85358
-3.854
-3.85442
-3.85484
-3.85526
-3.85567
-3.85609
-3.85651
-3.85693
-3.85735
-3.85777
-3.85819
-3.85861
-3.85903
-3.85944
-3.85986
-3.86028
-3.8607
-3.86112
-3.86154
-3.86196
-3.86238
-3.8628
-3.86321
-3.86363
-3.86405
-3.86447
-3.86489
-3.86531
-3.86573
-3.86615
-3.86656
-3.86698
-3.8674
-3.86782
-3.86824
-3.86866
-3.86908
-3.8695
-3.86992
-3.87034
-3.87076
-3.87117
-3.87159
-3.87201
-3.87243
-3.87285
-3.87327
-3.87369
-3.87411
-3.87453
-3.87495
-3.87537
-3.87579
-3.87621
-3.87662
-3.87704
-3.87746
-3.87788
-3.8783
-3.87872
-3.87914
-3.87956
-3.87998
-3.8804
-3.88082
-3.88124
-3.88166
-3.88208
-3.8825
-3.88292
-3.88334
-3.88376
-3.88418
-3.88459
-3.88502
-3.88543
-3.88586
-3.88628
-3.8867
-3.88712
-3.88753
-3.88795
-3.88837
-3.8888
-3.88922
-3.88964
-3.89006
-3.89048
-3.8909
-3.89132
-3.89174
-3.89216
-3.89258
-3.893
-3.89342
-3.89384
-3.89426
-3.89468
-3.8951
-3.89552
-3.89594
-3.89636
-3.89678
-3.8972
-3.89763
-3.89805
-3.89847
-3.89889
-3.89931
-3.89973
-3.90015
-3.90057
-3.90099
-3.90142
-3.90184
-3.90226
-3.90268
-3.9031
-3.90352
-3.90394
-3.90436
-3.90479
-3.90521
-3.90563
-3.90605
-3.90647
-3.90689
-3.90731
-3.90774
-3.90816
-3.90858
-3.909
-3.90943
-3.90985
-3.91027
-3.91069
-3.91111
-3.91154
-3.91196
-3.91238
-3.9128
-3.91323
-3.91365
-3.91407
-3.91449
-3.91492
-3.91534
-3.91576
-3.91618
-3.91661
-3.91703
-3.91745
-3.91788
-3.9183
-3.91872
-3.91915
-3.91957
-3.91999
-3.92042
-3.92084
-3.92126
-3.92169
-3.92211
-3.92253
-3.92296
-3.92338
-3.9238
-3.92423
-3.92465
-3.92508
-3.9255
-3.92592
-3.92635
-3.92677
-3.9272
-3.92762
-3.92805
-3.92847
-3.92889
-3.92932
-3.92974
-3.93017