/*--------------------------------*- C++ -*----------------------------------*\
  =========                 |
  \\      /  F ield         | OpenFOAM: The Open Source CFD Toolbox
   \\    /   O peration     | Website:  https://openfoam.org
    \\  /    A nd           | Version:  9
     \\/     M anipulation  |
\*---------------------------------------------------------------------------*/
FoamFile
{
    format      ascii;
    class       surfaceScalarField;
    location    "0.042";
    object      ddtCorrDdt0(phi);
}
// * * * * * * * * * * * * * * * * * * * * * * * * * * * * * * * * * * * * * //

dimensions      [1 0 -2 0 0 0 0];

internalField   nonuniform List<scalar> 
9999
(
-49.2124
-50.559
-51.9059
-53.2533
-54.6008
-55.9486
-57.2966
-58.6447
-59.9925
-61.3402
-62.6878
-64.0354
-65.3826
-66.7294
-68.0762
-69.4234
-70.7705
-72.1168
-73.4619
-74.8067
-76.1518
-77.4978
-78.8439
-80.1899
-81.536
-82.8829
-84.2305
-85.578
-86.9242
-88.2693
-89.6142
-90.9601
-92.3069
-93.6536
-94.9992
-96.3441
-97.6895
-99.0358
-100.383
-101.728
-103.071
-104.413
-105.757
-107.103
-108.451
-109.8
-111.146
-112.489
-113.831
-115.175
-116.52
-117.867
-119.214
-120.557
-121.899
-123.241
-124.585
-125.932
-127.281
-128.629
-129.972
-131.311
-132.65
-133.991
-135.338
-136.689
-138.041
-139.389
-140.731
-142.067
-143.402
-144.74
-146.085
-147.436
-148.788
-150.137
-151.478
-152.814
-154.147
-155.484
-156.828
-158.18
-159.535
-160.888
-162.235
-163.573
-164.906
-166.239
-167.575
-168.919
-170.27
-171.625
-172.978
-174.325
-175.662
-176.99
-178.316
-179.646
-180.985
-182.334
-183.693
-185.055
-186.413
-187.762
-189.1
-190.428
-191.752
-193.077
-194.409
-195.752
-197.107
-198.47
-199.834
-201.191
-202.537
-203.869
-205.188
-206.502
-207.819
-209.144
-210.483
-211.838
-213.205
-214.58
-215.954
-217.319
-218.669
-220.001
-221.318
-222.625
-223.931
-225.244
-226.57
-227.911
-229.266
-230.634
-232.01
-233.387
-234.757
-236.114
-237.456
-238.782
-240.097
-241.404
-242.708
-244.015
-245.331
-246.659
-248.003
-249.365
-250.743
-252.13
-253.518
-254.9
-256.271
-257.628
-258.967
-260.288
-261.593
-262.886
-264.176
-265.468
-266.767
-268.077
-269.401
-270.738
-272.089
-273.456
-274.841
-276.239
-277.642
-279.043
-280.438
-281.827
-283.204
-284.563
-285.903
-287.227
-288.535
-289.828
-291.113
-292.394
-293.673
-294.947
-296.218
-297.492
-298.777
-300.081
-301.401
-302.729
-304.074
-305.441
-306.824
-308.218
-309.628
-311.052
-312.483
-313.921
-315.371
-316.831
-318.301
-319.778
-321.241
-322.688
-324.137
-325.59
-327.029
-328.446
-329.864
-331.267
-332.649
-334.029
-335.392
-336.747
-338.099
-339.443
-340.784
-342.117
-343.514
-344.974
-346.487
-347.879
-349.206
-350.528
-351.902
-353.269
-354.622
-355.982
-357.327
-358.677
-360.036
-361.377
-362.724
-364.084
-365.43
-366.77
-368.122
-369.478
-370.832
-372.177
-373.511
-374.851
-376.2
-377.548
-378.898
-380.252
-381.604
-382.951
-384.299
-385.65
-387.003
-388.352
-389.697
-391.045
-392.399
-393.754
-395.105
-396.453
-397.797
-399.14
-400.484
-401.831
-403.182
-404.533
-405.883
-407.231
-408.581
-409.933
-411.283
-412.63
-413.977
-415.326
-416.677
-418.029
-419.382
-420.732
-422.08
-423.425
-424.77
-426.116
-427.465
-428.814
-430.164
-431.514
-432.865
-434.216
-435.566
-436.915
-438.262
-439.61
-440.959
-442.309
-443.661
-445.012
-446.361
-447.708
-449.055
-450.402
-451.749
-453.097
-454.445
-455.795
-457.146
-458.498
-459.849
-461.199
-462.548
-463.897
-465.245
-466.595
-467.946
-469.297
-470.646
-471.995
-473.342
-474.689
-476.036
-477.383
-478.73
-480.079
-481.428
-482.779
-484.13
-485.482
-486.832
-488.182
-489.531
-490.881
-492.232
-493.583
-494.933
-496.283
-497.632
-498.98
-500.327
-501.674
-503.021
-504.367
-505.715
-507.064
-508.415
-509.765
-511.116
-512.466
-513.816
-515.167
-516.517
-517.868
-519.219
-520.57
-521.921
-523.271
-524.62
-525.968
-527.316
-528.663
-530.01
-531.357
-532.706
-534.055
-535.405
-536.755
-538.104
-539.454
-540.804
-542.155
-543.506
-544.857
-546.208
-547.56
-548.91
-550.261
-551.61
-552.959
-554.307
-555.654
-557.002
-558.351
-559.7
-561.049
-562.399
-563.748
-565.097
-566.447
-567.797
-569.147
-570.498
-571.849
-573.201
-574.552
-575.903
-577.253
-578.602
-579.951
-581.3
-582.649
-583.998
-585.347
-586.697
-588.047
-589.396
-590.746
-592.095
-593.445
-594.795
-596.145
-597.496
-598.847
-600.198
-601.549
-602.899
-604.249
-605.599
-606.948
-608.297
-609.647
-610.997
-612.346
-613.697
-615.047
-616.397
-617.747
-619.097
-620.447
-621.797
-623.148
-624.499
-625.85
-627.2
-628.551
-629.901
-631.251
-632.601
-633.95
-635.299
-636.649
-637.999
-639.349
-640.7
-642.05
-643.401
-644.751
-646.102
-647.453
-648.804
-650.155
-651.506
-652.858
-654.209
-655.56
-656.91
-658.259
-659.609
-660.958
-662.308
-663.658
-665.008
-666.358
-667.708
-669.058
-670.409
-671.76
-673.111
-674.462
-675.814
-677.166
-678.518
-679.87
-681.222
-682.573
-683.924
-685.274
-686.623
-687.973
-689.323
-690.673
-692.023
-693.373
-694.723
-696.073
-697.424
-698.775
-700.126
-701.478
-702.83
-704.183
-705.535
-706.888
-708.24
-709.591
-710.942
-712.293
-713.644
-714.995
-716.346
-717.697
-719.046
-720.395
-721.745
-723.096
-724.446
-725.797
-727.148
-728.501
-729.852
-731.206
-732.558
-733.911
-735.262
-736.615
-737.965
-739.319
-740.671
-742.026
-743.374
-744.724
-746.075
-747.424
-748.777
-750.125
-751.48
-752.826
-754.174
-755.534
-756.885
-758.237
-759.593
-760.942
-762.293
-763.645
-764.999
-766.353
-767.708
-769.055
-770.409
-771.753
-773.113
-774.458
-775.816
-777.163
-778.515
-779.869
-781.212
-782.58
-783.921
-785.28
-786.624
-787.988
-789.327
-790.688
-792.05
-793.386
-794.753
-796.081
-797.465
-798.79
-800.156
-801.506
-802.855
-804.224
-805.542
-806.938
-808.254
-809.624
-810.972
-812.316
-813.691
-815.014
-816.403
-817.728
-819.084
-820.455
-821.782
-823.172
-824.477
-825.87
-827.213
-828.531
-829.938
-831.236
-832.639
-833.961
-835.316
-836.684
-837.992
-839.44
-840.72
-842.087
-843.465
-844.769
-846.184
-847.479
-848.861
-850.227
-851.529
-852.949
-854.245
-855.629
-856.994
-858.29
-859.724
-861.008
-862.384
-863.769
-865.046
-866.507
-867.786
-869.157
-870.53
-871.817
-873.265
-874.575
-875.893
-877.345
-878.589
-880.024
-881.352
-882.662
-884.1
-885.36
-886.766
-888.141
-889.422
-890.836
-892.185
-893.512
-894.937
-896.173
-897.613
-898.966
-900.256
-901.722
-902.974
-904.356
-905.769
-907.013
-908.467
-909.808
-911.086
-912.564
-913.811
-915.182
-916.618
-917.862
-919.301
-920.634
-921.894
-923.409
-924.649
-926.008
-927.468
-928.689
-930.124
-931.494
-932.772
-934.214
-935.539
-936.839
-938.314
-939.537
-940.936
-942.359
-943.598
-945.066
-946.394
-947.66
-949.147
-950.412
-951.759
-953.223
-954.448
-955.865
-957.267
-958.497
-959.971
-961.303
-962.575
-964.068
-965.334
-966.664
-968.145
-969.374
-970.77
-972.202
-973.413
-974.865
-976.246
-977.478
-978.973
-980.291
-981.555
-983.061
-984.326
-985.642
-987.142
-988.368
-989.738
-991.211
-992.413
-993.834
-995.272
-996.469
-997.933
-999.327
-1000.53
-1002.03
-1003.38
-1004.6
-1006.12
-1007.43
-1008.67
-1010.21
-1011.48
-1012.76
-1014.3
-1015.53
-1016.84
-1018.38
-1019.59
-1020.93
-1022.46
-1023.64
-1025.01
-1026.53
-1027.7
-1029.1
-1030.6
-1031.76
-1033.19
-1034.68
-1035.82
-1037.28
-1038.75
-1039.89
-1041.36
-1042.82
-1043.96
-1045.45
-1046.9
-1048.03
-1049.53
-1050.97
-1052.1
-1053.61
-1055.05
-1056.18
-1057.69
-1059.13
-1060.25
-1061.76
-1063.2
-1064.33
-1065.84
-1067.29
-1068.41
-1069.91
-1071.37
-1072.49
-1073.99
-1075.45
-1076.57
-1078.06
-1079.54
-1080.66
-1082.12
-1083.62
-1084.75
-1086.19
-1087.71
-1088.84
-1090.25
-1091.79
-1092.93
-1094.32
-1095.87
-1097.03
-1098.38
-1099.95
-1101.13
-1102.45
-1104.03
-1105.24
-1106.52
-1108.11
-1109.35
-1110.59
-1112.17
-1113.46
-1114.66
-1116.24
-1117.57
-1118.74
-1120.3
-1121.68
-1122.82
-1124.35
-1125.79
-1126.92
-1128.4
-1129.9
-1131.02
-1132.45
-1134
-1135.14
-1136.49
-1138.09
-1139.27
-1140.54
-1142.16
-1143.41
-1144.6
-1146.22
-1147.55
-1148.68
-1150.26
-1151.68
-1152.78
-1154.29
-1155.81
-1156.9
-1158.32
-1159.91
-1161.05
-1162.35
-1163.99
-1165.21
-1166.41
-1168.04
-1169.37
-1170.49
-1172.07
-1173.52
-1174.6
-1176.09
-1177.65
-1178.74
-1180.11
-1181.74
-1182.91
-1184.14
-1185.8
-1187.08
-1188.21
-1189.83
-1191.25
-1192.32
-1193.84
-1195.39
-1196.48
-1197.85
-1199.49
-1200.66
-1201.88
-1203.55
-1204.85
-1205.95
-1207.56
-1209.03
-1210.08
-1211.55
-1213.17
-1214.26
-1215.56
-1217.24
-1218.47
-1219.6
-1221.26
-1222.68
-1223.72
-1225.24
-1226.84
-1227.9
-1229.23
-1230.93
-1232.13
-1233.27
-1234.94
-1236.35
-1237.38
-1238.92
-1240.52
-1241.58
-1242.9
-1244.61
-1245.82
-1246.94
-1248.61
-1250.05
-1251.07
-1252.57
-1254.21
-1255.29
-1256.56
-1258.27
-1259.55
-1260.63
-1262.25
-1263.76
-1264.8
-1266.21
-1267.89
-1269.04
-1270.22
-1271.91
-1273.29
-1274.34
-1275.88
-1277.48
-1278.56
-1279.86
-1281.55
-1282.82
-1283.92
-1285.54
-1287.05
-1288.1
-1289.5
-1291.18
-1292.36
-1293.52
-1295.19
-1296.61
-1297.67
-1299.14
-1300.78
-1301.91
-1303.14
-1304.82
-1306.19
-1307.25
-1308.79
-1310.39
-1311.48
-1312.77
-1314.46
-1315.77
-1316.85
-1318.42
-1320
-1321.08
-1322.39
-1324.09
-1325.37
-1326.46
-1328.05
-1329.61
-1330.68
-1332.01
-1333.71
-1334.98
-1336.07
-1337.67
-1339.24
-1340.3
-1341.62
-1343.33
-1344.62
-1345.69
-1347.28
-1348.87
-1349.94
-1351.23
-1352.95
-1354.27
-1355.33
-1356.89
-1358.51
-1359.6
-1360.84
-1362.56
-1363.94
-1364.97
-1366.48
-1368.16
-1369.28
-1370.46
-1372.16
-1373.62
-1374.64
-1376.07
-1377.79
-1378.99
-1380.09
-1381.75
-1383.3
-1384.34
-1385.67
-1387.41
-1388.71
-1389.76
-1391.33
-1392.97
-1394.07
-1395.28
-1397
-1398.43
-1399.45
-1400.9
-1402.62
-1403.82
-1404.92
-1406.58
-1408.14
-1409.19
-1410.5
-1412.23
-1413.57
-1414.62
-1416.14
-1417.82
-1418.96
-1420.13
-1421.81
-1423.32
-1424.36
-1425.72
-1427.45
-1428.75
-1429.82
-1431.38
-1433.03
-1434.16
-1435.35
-1437.04
-1438.53
-1439.57
-1440.95
-1442.67
-1443.97
-1445.04
-1446.6
-1448.25
-1449.39
-1450.58
-1452.26
-1453.77
-1454.82
-1456.18
-1457.9
-1459.23
-1460.3
-1461.82
-1463.49
-1464.67
-1465.82
-1467.48
-1469.03
-1470.12
-1471.4
-1473.12
-1474.53
-1475.58
-1477.03
-1478.74
-1480
-1481.09
-1482.68
-1484.32
-1485.46
-1486.65
-1488.33
-1489.86
-1490.93
-1492.25
-1493.98
-1495.37
-1496.42
-1497.88
-1499.59
-1500.85
-1501.95
-1503.53
-1505.18
-1506.34
-1507.51
-1509.18
-1510.74
-1511.83
-1513.11
-1514.83
-1516.27
-1517.33
-1518.73
-1520.46
-1521.79
-1522.86
-1524.37
-1526.07
-1527.3
-1528.42
-1530.02
-1531.66
-1532.82
-1534.01
-1535.67
-1537.23
-1538.34
-1539.61
-1541.31
-1542.79
-1543.87
-1545.23
-1546.95
-1548.34
-1549.42
-1550.87
-1552.58
-1553.89
-1554.99
-1556.51
-1558.19
-1559.43
-1560.57
-1562.16
-1563.8
-1564.99
-1566.17
-1567.81
-1569.4
-1570.55
-1571.79
-1573.46
-1574.99
-1576.11
-1577.41
-1579.11
-1580.59
-1581.69
-1583.05
-1584.75
-1586.18
-1587.28
-1588.69
-1590.39
-1591.77
-1592.88
-1594.33
-1596.03
-1597.36
-1598.48
-1599.98
-1601.66
-1602.96
-1604.1
-1605.63
-1607.3
-1608.57
-1609.73
-1611.29
-1612.94
-1614.18
-1615.36
-1616.95
-1618.57
-1619.8
-1621
-1622.6
-1624.21
-1625.42
-1626.64
-1628.26
-1629.86
-1631.05
-1632.29
-1633.92
-1635.5
-1636.69
-1637.94
-1639.58
-1641.15
-1642.34
-1643.6
-1645.25
-1646.81
-1647.99
-1649.26
-1650.91
-1652.47
-1653.65
-1654.93
-1656.58
-1658.14
-1659.32
-1660.6
-1662.25
-1663.81
-1665
-1666.27
-1667.92
-1669.48
-1670.68
-1671.95
-1673.59
-1675.16
-1676.37
-1677.63
-1679.26
-1680.85
-1682.07
-1683.32
-1684.94
-1686.54
-1687.77
-1689.02
-1690.62
-1692.23
-1693.48
-1694.72
-1696.31
-1697.93
-1699.2
-1700.43
-1702
-1703.63
-1704.92
-1706.15
-1707.7
-1709.33
-1710.65
-1711.87
-1713.4
-1715.04
-1716.39
-1717.6
-1719.1
-1720.75
-1722.13
-1723.34
-1724.81
-1726.47
-1727.88
-1729.08
-1730.53
-1732.19
-1733.63
-1734.84
-1736.25
-1737.91
-1739.39
-1740.61
-1741.98
-1743.63
-1745.15
-1746.38
-1747.72
-1749.35
-1750.91
-1752.17
-1753.47
-1755.08
-1756.68
-1757.96
-1759.23
-1760.81
-1762.44
-1763.77
-1765.01
-1766.54
-1768.2
-1769.58
-1770.81
-1772.29
-1773.95
-1775.39
-1776.62
-1778.05
-1779.71
-1781.2
-1782.45
-1783.82
-1785.46
-1787.01
-1788.28
-1789.61
-1791.22
-1792.82
-1794.13
-1795.42
-1796.98
-1798.61
-1799.99
-1801.25
-1802.76
-1804.41
-1805.84
-1807.1
-1808.55
-1810.2
-1811.69
-1812.97
-1814.36
-1815.99
-1817.54
-1818.85
-1820.19
-1821.79
-1823.38
-1824.73
-1826.05
-1827.59
-1829.22
-1830.62
-1831.92
-1833.41
-1835.05
-1836.51
-1837.81
-1839.25
-1840.88
-1842.4
-1843.72
-1845.1
-1846.71
-1848.29
-1849.64
-1850.99
-1852.55
-1854.17
-1855.58
-1856.89
-1858.4
-1860.04
-1861.51
-1862.82
-1864.26
-1865.9
-1867.44
-1868.78
-1870.16
-1871.76
-1873.36
-1874.75
-1876.08
-1877.63
-1879.27
-1880.72
-1882.04
-1883.52
-1885.16
-1886.69
-1888.03
-1889.44
-1891.05
-1892.65
-1894.04
-1895.39
-1896.95
-1898.58
-1900.04
-1901.38
-1902.87
-1904.51
-1906.04
-1907.4
-1908.82
-1910.43
-1912.03
-1913.44
-1914.82
-1916.37
-1918
-1919.47
-1920.84
-1922.33
-1923.96
-1925.5
-1926.89
-1928.33
-1929.93
-1931.52
-1932.95
-1934.36
-1935.91
-1937.53
-1939.02
-1940.41
-1941.91
-1943.54
-1945.09
-1946.5
-1947.94
-1949.54
-1951.14
-1952.6
-1954.01
-1955.56
-1957.19
-1958.71
-1960.11
-1961.6
-1963.23
-1964.81
-1966.24
-1967.68
-1969.27
-1970.9
-1972.39
-1973.8
-1975.32
-1976.97
-1978.54
-1979.96
-1981.42
-1983.04
-1984.66
-1986.14
-1987.56
-1989.12
-1990.77
-1992.32
-1993.75
-1995.24
-1996.87
-1998.49
-1999.96
-2001.41
-2002.98
-2004.63
-2006.18
-2007.62
-2009.13
-2010.77
-2012.38
-2013.86
-2015.33
-2016.92
-2018.57
-2020.11
-2021.57
-2023.1
-2024.75
-2026.35
-2027.84
-2029.33
-2030.94
-2032.58
-2034.12
-2035.59
-2037.15
-2038.8
-2040.41
-2041.9
-2043.4
-2045.03
-2046.68
-2048.22
-2049.7
-2051.28
-2052.94
-2054.55
-2056.05
-2057.56
-2059.2
-2060.86
-2062.41
-2063.9
-2065.48
-2067.16
-2068.78
-2070.29
-2071.81
-2073.46
-2075.13
-2076.7
-2078.2
-2079.78
-2081.46
-2083.11
-2084.64
-2086.16
-2087.8
-2089.49
-2091.09
-2092.6
-2094.18
-2095.86
-2097.53
-2099.08
-2100.61
-2102.24
-2103.94
-2105.57
-2107.1
-2108.68
-2110.36
-2112.04
-2113.63
-2115.17
-2116.8
-2118.5
-2120.15
-2121.71
-2123.29
-2124.96
-2126.66
-2128.28
-2129.84
-2131.46
-2133.17
-2134.84
-2136.43
-2138.02
-2139.69
-2141.4
-2143.04
-2144.62
-2146.25
-2147.95
-2149.65
-2151.27
-2152.86
-2154.53
-2156.25
-2157.93
-2159.53
-2161.15
-2162.86
-2164.58
-2166.23
-2167.83
-2169.5
-2171.23
-2172.94
-2174.56
-2176.19
-2177.89
-2179.64
-2181.32
-2182.94
-2184.59
-2186.33
-2188.08
-2189.74
-2191.36
-2193.06
-2194.82
-2196.55
-2198.2
-2199.84
-2201.57
-2203.34
-2205.05
-2206.7
-2208.38
-2210.13
-2211.9
-2213.6
-2215.25
-2216.96
-2218.74
-2220.5
-2222.19
-2223.86
-2225.61
-2227.4
-2229.14
-2230.82
-2232.53
-2234.3
-2236.09
-2237.82
-2239.52
-2241.25
-2243.05
-2244.83
-2246.56
-2248.26
-2250.03
-2251.84
-2253.62
-2255.34
-2257.07
-2258.87
-2260.69
-2262.45
-2264.18
-2265.94
-2267.77
-2269.58
-2271.34
-2273.08
-2274.88
-2276.72
-2278.53
-2280.29
-2282.05
-2283.87
-2285.73
-2287.53
-2289.29
-2291.07
-2292.93
-2294.79
-2296.59
-2298.36
-2300.17
-2302.04
-2303.91
-2305.72
-2307.5
-2309.33
-2311.22
-2313.09
-2314.9
-2316.7
-2318.56
-2320.47
-2322.34
-2324.15
-2325.98
-2327.86
-2329.78
-2331.65
-2333.48
-2335.33
-2337.23
-2339.15
-2341.03
-2342.87
-2344.75
-2346.68
-2348.6
-2350.48
-2352.34
-2354.25
-2356.19
-2358.12
-2360.01
-2361.89
-2363.83
-2365.79
-2367.72
-2369.61
-2371.52
-2373.48
-2375.46
-2377.4
-2379.3
-2381.24
-2383.22
-2385.21
-2387.15
-2389.08
-2391.04
-2393.04
-2395.04
-2397
-2398.94
-2400.92
-2402.95
-2404.96
-2406.93
-2408.89
-2410.9
-2412.95
-2414.98
-2416.96
-2418.94
-2420.97
-2423.04
-2425.08
-2427.08
-2429.09
-2431.15
-2433.23
-2435.29
-2437.31
-2439.34
-2441.42
-2443.52
-2445.59
-2447.63
-2449.69
-2451.8
-2453.91
-2456
-2458.07
-2460.15
-2462.28
-2464.42
-2466.53
-2468.62
-2470.73
-2472.88
-2475.04
-2477.17
-2479.28
-2481.42
-2483.6
-2485.78
-2487.92
-2490.06
-2492.23
-2494.43
-2496.62
-2498.79
-2500.95
-2503.14
-2505.36
-2507.57
-2509.75
-2511.93
-2514.14
-2516.37
-2518.59
-2520.78
-2522.94
-2525.23
-2525.97
-2528.48
-2529.53
-2531.6
-2534.32
-2537.33
-2539.66
-2542.17
-2544.66
-2547.04
-2549.49
-2551.86
-2554.23
-2556.62
-2558.93
-2561.32
-2563.7
-2566.01
-2568.34
-2570.68
-2573.04
-2575.43
-2577.78
-2580.12
-2582.5
-2584.89
-2587.28
-2589.65
-2592.01
-2594.41
-2596.84
-2599.27
-2601.68
-2604.09
-2606.52
-2608.97
-2611.42
-2613.85
-2616.3
-2618.78
-2621.27
-2623.76
-2626.23
-2628.71
-2631.21
-2633.73
-2636.25
-2638.76
-2641.28
-2643.82
-2646.39
-2648.95
-2651.49
-2654.03
-2656.6
-2659.2
-2661.79
-2664.38
-2666.97
-2669.58
-2672.22
-2674.86
-2677.48
-2680.1
-2682.74
-2685.41
-2688.09
-2690.76
-2693.42
-2696.1
-2698.82
-2701.54
-2704.24
-2706.94
-2709.66
-2712.41
-2715.17
-2717.93
-2720.68
-2723.44
-2726.23
-2729.03
-2731.83
-2734.62
-2737.42
-2740.25
-2743.1
-2745.94
-2748.78
-2751.64
-2754.51
-2757.4
-2760.29
-2763.17
-2766.07
-2768.99
-2771.92
-2774.86
-2777.79
-2780.74
-2783.71
-2786.69
-2789.68
-2792.66
-2795.65
-2798.67
-2801.7
-2804.74
-2807.77
-2810.81
-2813.88
-2816.97
-2820.06
-2823.14
-2826.23
-2829.35
-2832.49
-2835.64
-2838.77
-2841.92
-2845.08
-2848.28
-2851.48
-2854.68
-2857.88
-2861.1
-2864.34
-2867.6
-2870.86
-2874.12
-2877.39
-2880.69
-2884.01
-2887.33
-2890.66
-2893.99
-2897.34
-2900.71
-2904.09
-2907.48
-2910.87
-2914.29
-2917.73
-2921.17
-2924.61
-2928.07
-2931.55
-2935.05
-2938.55
-2942.06
-2945.58
-2949.12
-2952.69
-2956.26
-2959.83
-2963.42
-2967.02
-2970.65
-2974.3
-2977.94
-2981.59
-2985.26
-2988.96
-2992.67
-2996.39
-3000.11
-3003.84
-3007.6
-3011.39
-3015.18
-3018.97
-3022.78
-3026.61
-3030.47
-3034.34
-3038.21
-3042.08
-3045.98
-3049.9
-3053.85
-3057.8
-3061.75
-3065.72
-3069.72
-3073.74
-3077.77
-3081.8
-3085.85
-3089.92
-3094.01
-3098.12
-3102.23
-3106.36
-3110.51
-3114.68
-3118.87
-3123.06
-3127.27
-3131.5
-3135.75
-3140.01
-3144.29
-3148.57
-3152.89
-3157.22
-3161.57
-3165.93
-3170.29
-3174.68
-3179.1
-3183.54
-3187.98
-3192.43
-3196.9
-3201.4
-3205.93
-3210.46
-3215
-3219.55
-3224.13
-3228.73
-3233.36
-3237.99
-3242.63
-3247.29
-3251.98
-3256.69
-3261.41
-3266.14
-3270.88
-3275.65
-3280.45
-3285.26
-3290.09
-3294.92
-3299.78
-3304.66
-3309.56
-3314.47
-3319.4
-3324.34
-3329.3
-3334.29
-3339.29
-3344.31
-3349.34
-3354.4
-3359.47
-3364.56
-3369.66
-3374.78
-3379.93
-3385.09
-3390.27
-3395.46
-3400.67
-3405.9
-3411.15
-3416.42
-3421.7
-3426.99
-3432.3
-3437.64
-3443
-3448.37
-3453.75
-3459.14
-3464.56
-3470.01
-3475.47
-3480.93
-3486.41
-3491.91
-3497.43
-3502.98
-3508.53
-3514.1
-3519.67
-3525.27
-3530.9
-3536.54
-3542.19
-3547.85
-3553.52
-3559.22
-3564.94
-3570.67
-3576.41
-3582.16
-3587.93
-3593.72
-3599.53
-3605.34
-3611.17
-3617.01
-3622.87
-3628.75
-3634.63
-3640.52
-3646.44
-3652.37
-3658.31
-3664.26
-3670.21
-3676.19
-3682.18
-3688.19
-3694.2
-3700.22
-3706.25
-3712.29
-3718.35
-3724.43
-3730.5
-3736.58
-3742.68
-3748.79
-3754.91
-3761.04
-3767.17
-3773.3
-3779.45
-3785.62
-3791.79
-3797.97
-3804.14
-3810.33
-3816.52
-3822.73
-3828.94
-3835.15
-3841.37
-3847.59
-3853.82
-3860.05
-3866.29
-3872.53
-3878.77
-3885.02
-3891.27
-3897.52
-3903.77
-3910.02
-3916.28
-3922.54
-3928.8
-3935.05
-3941.3
-3947.56
-3953.82
-3960.08
-3966.32
-3972.57
-3978.81
-3985.06
-3991.3
-3997.54
-4003.77
-4009.99
-4016.21
-4022.43
-4028.65
-4034.85
-4041.04
-4047.23
-4053.41
-4059.59
-4065.76
-4071.91
-4078.05
-4084.19
-4090.32
-4096.44
-4102.55
-4108.64
-4114.71
-4120.78
-4126.84
-4132.88
-4138.91
-4144.92
-4150.92
-4156.91
-4162.88
-4168.83
-4174.76
-4180.68
-4186.58
-4192.47
-4198.34
-4204.18
-4210.01
-4215.82
-4221.61
-4227.38
-4233.13
-4238.85
-4244.55
-4250.24
-4255.9
-4261.54
-4267.15
-4272.74
-4278.31
-4283.85
-4289.38
-4294.87
-4300.33
-4305.77
-4311.19
-4316.58
-4321.95
-4327.28
-4332.59
-4337.86
-4343.12
-4348.34
-4353.54
-4358.71
-4363.84
-4368.94
-4374.02
-4379.07
-4384.08
-4389.07
-4394.02
-4398.94
-4403.83
-4408.69
-4413.52
-4418.31
-4423.07
-4427.8
-4432.5
-4437.16
-4441.79
-4446.38
-4450.94
-4455.48
-4459.97
-4464.43
-4468.85
-4473.24
-4477.6
-4481.93
-4486.22
-4490.46
-4494.68
-4498.86
-4503.02
-4507.13
-4511.21
-4515.25
-4519.25
-4523.22
-4527.17
-4531.07
-4534.93
-4538.76
-4542.56
-4546.32
-4550.05
-4553.74
-4557.39
-4561.01
-4564.59
-4568.14
-4571.66
-4575.14
-4578.58
-4581.99
-4585.37
-4588.72
-4592.02
-4595.3
-4598.54
-4601.74
-4604.92
-4608.06
-4611.16
-4614.23
-4617.27
-4620.28
-4623.25
-4626.19
-4629.1
-4631.97
-4634.82
-4637.64
-4640.42
-4643.17
-4645.88
-4648.57
-4651.23
-4653.86
-4656.46
-4659.03
-4661.56
-4664.07
-4666.55
-4669.01
-4671.43
-4673.82
-4676.19
-4678.52
-4680.84
-4683.12
-4685.38
-4687.61
-4689.81
-4691.99
-4694.14
-4696.27
-4698.37
-4700.45
-4702.5
-4704.53
-4706.53
-4708.51
-4710.47
-4712.4
-4714.31
-4716.2
-4718.07
-4719.91
-4721.73
-4723.53
-4725.31
-4727.07
-4728.81
-4730.53
-4732.23
-4733.91
-4735.57
-4737.21
-4738.83
-4740.44
-4742.02
-4743.59
-4745.14
-4746.68
-4748.19
-4749.69
-4751.17
-4752.64
-4754.09
-4755.53
-4756.95
-4758.35
-4759.74
-4761.12
-4762.48
-4763.83
-4765.16
-4766.48
-4767.79
-4769.08
-4770.36
-4771.63
-4772.89
-4774.13
-4775.37
-4776.59
-4777.8
-4779
-4780.18
-4781.36
-4782.53
-4783.69
-4784.83
-4785.97
-4787.09
-4788.21
-4789.32
-4790.42
-4791.51
-4792.59
-4793.67
-4794.73
-4795.79
-4796.84
-4797.89
-4798.92
-4799.94
-4800.97
-4801.98
-4802.99
-4803.99
-4804.98
-4805.96
-4806.95
-4807.92
-4808.89
-4809.86
-4810.81
-4811.76
-4812.71
-4813.65
-4814.59
-4815.52
-4816.45
-4817.37
-4818.29
-4819.2
-4820.11
-4821.02
-4821.92
-4822.81
-4823.71
-4824.6
-4825.48
-4826.36
-4827.24
-4828.12
-4828.99
-4829.86
-4830.72
-4831.59
-4832.45
-4833.3
-4834.16
-4835.01
-4835.86
-4836.7
-4837.55
-4838.39
-4839.23
-4840.07
-4840.9
-4841.74
-4842.57
-4843.4
-4844.23
-4845.05
-4845.88
-4846.7
-4847.52
-4848.34
-4849.16
-4849.97
-4850.79
-4851.6
-4852.41
-4853.22
-4854.03
-4854.84
-4855.65
-4856.45
-4857.26
-4858.06
-4858.86
-4859.67
-4860.47
-4861.27
-4862.07
-4862.86
-4863.66
-4864.46
-4865.25
-4866.05
-4866.84
-4867.64
-4868.43
-4869.22
-4870.01
-4870.81
-4871.6
-4872.39
-4873.18
-4873.97
-4874.76
-4875.55
-4876.34
-4877.13
-4877.91
-4878.7
-4879.48
-4880.27
-4881.06
-4881.85
-4882.63
-4883.42
-4884.2
-4884.99
-4885.77
-4886.56
-4887.34
-4888.13
-4888.91
-4889.69
-4890.48
-4891.26
-4892.05
-4892.83
-4893.62
-4894.4
-4895.18
-4895.97
-4896.75
-4897.53
-4898.32
-4899.1
-4899.88
-4900.66
-4901.45
-4902.23
-4903.01
-4903.8
-4904.58
-4905.36
-4906.15
-4906.93
-4907.71
-4908.5
-4909.28
-4910.06
-4910.84
-4911.63
-4912.41
-4913.2
-4913.98
-4914.76
-4915.55
-4916.33
-4917.11
-4917.9
-4918.68
-4919.47
-4920.25
-4921.03
-4921.82
-4922.6
-4923.38
-4924.17
-4924.95
-4925.74
-4926.52
-4927.31
-4928.09
-4928.88
-4929.66
-4930.45
-4931.23
-4932.02
-4932.8
-4933.59
-4934.37
-4935.16
-4935.95
-4936.73
-4937.52
-4938.3
-4939.09
-4939.87
-4940.66
-4941.45
-4942.24
-4943.02
-4943.81
-4944.59
-4945.38
-4946.17
-4946.96
-4947.75
-4948.53
-4949.32
-4950.11
-4950.89
-4951.68
-4952.47
-4953.26
-4954.05
-4954.84
-4955.62
-4956.41
-4957.2
-4957.99
-4958.78
-4959.57
-4960.36
-4961.15
-4961.93
-4962.73
-4963.52
-4964.31
-4965.1
-4965.89
-4966.67
-4967.46
-4968.25
-4969.05
-4969.84
-4970.63
-4971.42
-4972.21
-4973
-4973.79
-4974.58
-4975.38
-4976.17
-4976.96
-4977.75
-4978.54
-4979.33
-4980.12
-4980.92
-4981.71
-4982.5
-4983.29
-4984.08
-4984.88
-4985.67
-4986.47
-4987.26
-4988.05
-4988.84
-4989.64
-4990.43
-4991.22
-4992.02
-4992.81
-4993.61
-4994.4
-4995.19
-4995.99
-4996.78
-4997.58
-4998.37
-4999.17
-4999.96
-5000.76
-5001.55
-5002.35
-5003.14
-5003.94
-5004.73
-5005.53
-5006.32
-5007.12
-5007.92
-5008.71
-5009.51
-5010.31
-5011.1
-5011.9
-5012.69
-5013.49
-5014.29
-5015.09
-5015.88
-5016.68
-5017.48
-5018.27
-5019.07
-5019.87
-5020.67
-5021.47
-5022.27
-5023.06
-5023.86
-5024.66
-5025.46
-5026.26
-5027.06
-5027.86
-5028.65
-5029.45
-5030.25
-5031.05
-5031.85
-5032.65
-5033.45
-5034.25
-5035.05
-5035.85
-5036.65
-5037.45
-5038.25
-5039.05
-5039.85
-5040.65
-5041.46
-5042.26
-5043.06
-5043.86
-5044.66
-5045.46
-5046.27
-5047.07
-5047.87
-5048.67
-5049.48
-5050.28
-5051.08
-5051.88
-5052.68
-5053.49
-5054.29
-5055.09
-5055.9
-5056.7
-5057.5
-5058.3
-5059.11
-5059.91
-5060.72
-5061.52
-5062.33
-5063.13
-5063.93
-5064.74
-5065.54
-5066.35
-5067.15
-5067.96
-5068.76
-5069.57
-5070.37
-5071.18
-5071.98
-5072.79
-5073.6
-5074.4
-5075.21
-5076.01
-5076.82
-5077.63
-5078.43
-5079.24
-5080.05
-5080.85
-5081.66
-5082.47
-5083.27
-5084.08
-5084.89
-5085.7
-5086.51
-5087.31
-5088.12
-5088.93
-5089.74
-5090.55
-5091.35
-5092.16
-5092.97
-5093.78
-5094.59
-5095.4
-5096.21
-5097.02
-5097.83
-5098.64
-5099.44
-5100.25
-5101.06
-5101.87
-5102.69
-5103.5
-5104.31
-5105.12
-5105.93
-5106.74
-5107.55
-5108.36
-5109.17
-5109.98
-5110.79
-5111.61
-5112.42
-5113.23
-5114.04
-5114.85
-5115.67
-5116.48
-5117.29
-5118.1
-5118.91
-5119.73
-5120.54
-5121.35
-5122.17
-5122.98
-5123.79
-5124.6
-5125.42
-5126.23
-5127.04
-5127.86
-5128.67
-5129.49
-5130.3
-5131.11
-5131.93
-5132.74
-5133.56
-5134.37
-5135.19
-5136
-5136.82
-5137.63
-5138.45
-5139.26
-5140.08
-5140.9
-5141.71
-5142.53
-5143.34
-5144.16
-5144.97
-5145.79
-5146.61
-5147.42
-5148.24
-5149.06
-5149.87
-5150.69
-5151.51
-5152.32
-5153.14
-5153.96
-5154.78
-5155.59
-5156.41
-5157.23
-5158.05
-5158.86
-5159.68
-5160.5
-5161.32
-5162.14
-5162.95
-5163.77
-5164.59
-5165.41
-5166.23
-5167.05
-5167.87
-5168.69
-5169.51
-5170.32
-5171.14
-5171.96
-5172.78
-5173.6
-5174.42
-5175.24
-5176.06
-5176.88
-5177.7
-5178.52
-5179.34
-5180.16
-5180.99
-5181.81
-5182.63
-5183.45
-5184.27
-5185.09
-5185.91
-5186.73
-5187.55
-5188.37
-5189.2
-5190.02
-5190.84
-5191.66
-5192.48
-5193.31
-5194.13
-5194.95
-5195.77
-5196.6
-5197.42
-5198.24
-5199.06
-5199.89
-5200.71
-5201.53
-5202.35
-5203.18
-5204
-5204.82
-5205.65
-5206.47
-5207.29
-5208.12
-5208.94
-5209.77
-5210.59
-5211.41
-5212.24
-5213.06
-5213.89
-5214.71
-5215.54
-5216.36
-5217.19
-5218.01
-5218.83
-5219.66
-5220.48
-5221.31
-5222.13
-5222.96
-5223.79
-5224.61
-5225.44
-5226.26
-5227.09
-5227.91
-5228.74
-5229.57
-5230.39
-5231.22
-5232.04
-5232.87
-5233.7
-5234.52
-5235.35
-5236.18
-5237
-5237.83
-5238.66
-5239.48
-5240.31
-5241.14
-5241.97
-5242.79
-5243.62
-5244.45
-5245.28
-5246.1
-5246.93
-5247.76
-5248.59
-5249.42
-5250.25
-5251.07
-5251.9
-5252.73
-5253.56
-5254.39
-5255.22
-5256.05
-5256.88
-5257.7
-5258.53
-5259.36
-5260.19
-5261.02
-5261.85
-5262.68
-5263.51
-5264.34
-5265.17
-5266
-5266.83
-5267.66
-5268.49
-5269.32
-5270.15
-5270.98
-5271.81
-5272.64
-5273.47
-5274.3
-5275.14
-5275.97
-5276.8
-5277.63
-5278.46
-5279.29
-5280.12
-5280.96
-5281.79
-5282.62
-5283.45
-5284.28
-5285.11
-5285.95
-5286.78
-5287.61
-5288.45
-5289.28
-5290.11
-5290.94
-5291.78
-5292.61
-5293.44
-5294.28
-5295.11
-5295.94
-5296.78
-5297.61
-5298.44
-5299.28
-5300.11
-5300.95
-5301.78
-5302.61
-5303.45
-5304.28
-5305.12
-5305.95
-5306.79
-5307.62
-5308.46
-5309.29
-5310.13
-5310.96
-5311.8
-5312.63
-5313.47
-5314.3
-5315.14
-5315.98
-5316.81
-5317.65
-5318.48
-5319.32
-5320.16
-5320.99
-5321.83
-5322.67
-5323.5
-5324.34
-5325.18
-5326.01
-5326.85
-5327.69
-5328.53
-5329.36
-5330.2
-5331.04
-5331.88
-5332.71
-5333.55
-5334.39
-5335.23
-5336.07
-5336.91
-5337.74
-5338.58
-5339.42
-5340.26
-5341.1
-5341.94
-5342.78
-5343.62
-5344.46
-5345.3
-5346.14
-5346.98
-5347.82
-5348.66
-5349.5
-5350.34
-5351.18
-5352.02
-5352.86
-5353.7
-5354.54
-5355.38
-5356.22
-5357.06
-5357.9
-5358.75
-5359.59
-5360.43
-5361.27
-5362.11
-5362.96
-5363.8
-5364.64
-5365.48
-5366.32
-5367.17
-5368.01
-5368.85
-5369.7
-5370.54
-5371.38
-5372.22
-5373.07
-5373.91
-5374.75
-5375.6
-5376.44
-5377.29
-5378.13
-5378.97
-5379.82
-5380.66
-5381.51
-5382.35
-5383.2
-5384.04
-5384.89
-5385.73
-5386.58
-5387.42
-5388.27
-5389.12
-5389.96
-5390.81
-5391.65
-5392.5
-5393.35
-5394.19
-5395.04
-5395.89
-5396.73
-5397.58
-5398.43
-5399.28
-5400.12
-5400.97
-5401.82
-5402.67
-5403.51
-5404.36
-5405.21
-5406.06
-5406.91
-5407.75
-5408.6
-5409.45
-5410.3
-5411.15
-5412
-5412.85
-5413.7
-5414.55
-5415.4
-5416.25
-5417.1
-5417.95
-5418.8
-5419.65
-5420.5
-5421.35
-5422.2
-5423.05
-5423.9
-5424.75
-5425.61
-5426.46
-5427.31
-5428.16
-5429.01
-5429.86
-5430.72
-5431.57
-5432.42
-5433.27
-5434.13
-5434.98
-5435.83
-5436.68
-5437.54
-5438.39
-5439.25
-5440.1
-5440.95
-5441.81
-5442.66
-5443.51
-5444.37
-5445.22
-5446.08
-5446.93
-5447.79
-5448.64
-5449.5
-5450.35
-5451.21
-5452.07
-5452.92
-5453.78
-5454.63
-5455.49
-5456.34
-5457.2
-5458.06
-5458.91
-5459.77
-5460.63
-5461.49
-5462.34
-5463.2
-5464.06
-5464.92
-5465.77
-5466.63
-5467.49
-5468.35
-5469.21
-5470.06
-5470.92
-5471.78
-5472.64
-5473.5
-5474.36
-5475.22
-5476.08
-5476.94
-5477.8
-5478.66
-5479.52
-5480.38
-5481.24
-5482.1
-5482.96
-5483.82
-5484.68
-5485.54
-5486.4
-5487.26
-5488.12
-5488.99
-5489.85
-5490.71
-5491.57
-5492.43
-5493.29
-5494.16
-5495.02
-5495.88
-5496.75
-5497.61
-5498.47
-5499.33
-5500.2
-5501.06
-5501.92
-5502.79
-5503.65
-5504.52
-5505.38
-5506.24
-5507.11
-5507.97
-5508.84
-5509.7
-5510.57
-5511.43
-5512.3
-5513.16
-5514.03
-5514.89
-5515.76
-5516.63
-5517.49
-5518.36
-5519.22
-5520.09
-5520.96
-5521.82
-5522.69
-5523.56
-5524.42
-5525.29
-5526.16
-5527.02
-5527.89
-5528.76
-5529.63
-5530.5
-5531.36
-5532.23
-5533.1
-5533.97
-5534.84
-5535.71
-5536.57
-5537.44
-5538.31
-5539.18
-5540.05
-5540.92
-5541.79
-5542.66
-5543.53
-5544.4
-5545.27
-5546.14
-5547.01
-5547.88
-5548.75
-5549.62
-5550.49
-5551.36
-5552.23
-5553.11
-5553.98
-5554.85
-5555.72
-5556.59
-5557.46
-5558.33
-5559.21
-5560.08
-5560.95
-5561.82
-5562.69
-5563.57
-5564.44
-5565.31
-5566.18
-5567.06
-5567.93
-5568.8
-5569.68
-5570.55
-5571.42
-5572.3
-5573.17
-5574.04
-5574.92
-5575.79
-5576.67
-5577.54
-5578.42
-5579.29
-5580.17
-5581.04
-5581.91
-5582.79
-5583.67
-5584.54
-5585.42
-5586.29
-5587.17
-5588.04
-5588.92
-5589.79
-5590.67
-5591.55
-5592.42
-5593.3
-5594.17
-5595.05
-5595.93
-5596.8
-5597.68
-5598.56
-5599.44
-5600.31
-5601.19
-5602.07
-5602.94
-5603.82
-5604.7
-5605.58
-5606.45
-5607.33
-5608.21
-5609.09
-5609.97
-5610.85
-5611.72
-5612.6
-5613.48
-5614.36
-5615.24
-5616.12
-5617
-5617.88
-5618.76
-5619.63
-5620.51
-5621.39
-5622.27
-5623.15
-5624.03
-5624.91
-5625.79
-5626.67
-5627.55
-5628.43
-5629.32
-5630.2
-5631.08
-5631.96
-5632.84
-5633.72
-5634.6
-5635.48