/*--------------------------------*- C++ -*----------------------------------*\
  =========                 |
  \\      /  F ield         | OpenFOAM: The Open Source CFD Toolbox
   \\    /   O peration     | Website:  https://openfoam.org
    \\  /    A nd           | Version:  9
     \\/     M anipulation  |
\*---------------------------------------------------------------------------*/
FoamFile
{
    format      ascii;
    class       volScalarField;
    location    "0.042";
    object      p_0;
}
// * * * * * * * * * * * * * * * * * * * * * * * * * * * * * * * * * * * * * //

dimensions      [1 -1 -2 0 0 0 0];

internalField   nonuniform List<scalar> 
10000
(
10452.3
10452.2
10452.1
10452
10452
10451.9
10451.8
10451.7
10451.7
10451.6
10451.5
10451.4
10451.3
10451.3
10451.2
10451.1
10451
10450.9
10450.9
10450.8
10450.7
10450.6
10450.5
10450.5
10450.4
10450.3
10450.2
10450.1
10450.1
10450
10449.9
10449.8
10449.8
10449.7
10449.6
10449.5
10449.4
10449.4
10449.3
10449.2
10449.1
10449
10449
10448.9
10448.8
10448.7
10448.6
10448.6
10448.5
10448.4
10448.3
10448.2
10448.2
10448.1
10448
10447.9
10447.8
10447.8
10447.7
10447.6
10447.5
10447.4
10447.4
10447.3
10447.2
10447.1
10447.1
10447
10446.9
10446.8
10446.7
10446.7
10446.6
10446.5
10446.4
10446.3
10446.3
10446.2
10446.1
10446
10445.9
10445.9
10445.8
10445.7
10445.6
10445.5
10445.5
10445.4
10445.3
10445.2
10445.1
10445.1
10445
10444.9
10444.8
10444.7
10444.7
10444.6
10444.5
10444.4
10444.4
10444.3
10444.2
10444.1
10444
10444
10443.9
10443.8
10443.7
10443.6
10443.6
10443.5
10443.4
10443.3
10443.2
10443.2
10443.1
10443
10442.9
10442.8
10442.8
10442.7
10442.6
10442.5
10442.4
10442.4
10442.3
10442.2
10442.1
10442
10442
10441.9
10441.8
10441.7
10441.7
10441.6
10441.5
10441.4
10441.3
10441.3
10441.2
10441.1
10441
10440.9
10440.9
10440.8
10440.7
10440.6
10440.5
10440.5
10440.4
10440.3
10440.2
10440.1
10440.1
10440
10439.9
10439.8
10439.7
10439.7
10439.6
10439.5
10439.4
10439.3
10439.3
10439.2
10439.1
10439
10438.9
10438.9
10438.8
10438.7
10438.6
10438.6
10438.5
10438.4
10438.3
10438.2
10438.2
10438.1
10438
10437.9
10437.8
10437.8
10437.7
10437.6
10437.5
10437.4
10437.4
10437.3
10437.2
10437.1
10437
10437
10436.9
10436.8
10436.7
10436.6
10436.6
10436.5
10436.4
10436.3
10436.2
10436.2
10436.1
10436
10435.9
10435.8
10435.8
10435.7
10435.6
10435.5
10435.5
10435.4
10435.3
10435.2
10435.1
10435.1
10435
10434.9
10434.8
10434.7
10434.7
10434.6
10434.5
10434.4
10434.3
10434.3
10434.2
10434.1
10434
10433.9
10433.9
10433.8
10433.7
10433.6
10433.5
10433.5
10433.4
10433.3
10433.2
10433.1
10433.1
10433
10432.9
10432.8
10432.7
10432.7
10432.6
10432.5
10432.4
10432.3
10432.3
10432.2
10432.1
10432
10432
10431.9
10431.8
10431.7
10431.6
10431.6
10431.5
10431.4
10431.3
10431.2
10431.2
10431.1
10431
10430.9
10430.8
10430.8
10430.7
10430.6
10430.5
10430.4
10430.4
10430.3
10430.2
10430.1
10430
10430
10429.9
10429.8
10429.7
10429.6
10429.6
10429.5
10429.4
10429.3
10429.2
10429.2
10429.1
10429
10428.9
10428.8
10428.8
10428.7
10428.6
10428.5
10428.4
10428.4
10428.3
10428.2
10428.1
10428
10428
10427.9
10427.8
10427.7
10427.7
10427.6
10427.5
10427.4
10427.3
10427.3
10427.2
10427.1
10427
10426.9
10426.9
10426.8
10426.7
10426.6
10426.5
10426.5
10426.4
10426.3
10426.2
10426.1
10426.1
10426
10425.9
10425.8
10425.7
10425.7
10425.6
10425.5
10425.4
10425.3
10425.3
10425.2
10425.1
10425
10424.9
10424.9
10424.8
10424.7
10424.6
10424.5
10424.5
10424.4
10424.3
10424.2
10424.1
10424.1
10424
10423.9
10423.8
10423.7
10423.7
10423.6
10423.5
10423.4
10423.3
10423.3
10423.2
10423.1
10423
10422.9
10422.9
10422.8
10422.7
10422.6
10422.6
10422.5
10422.4
10422.3
10422.2
10422.2
10422.1
10422
10421.9
10421.8
10421.8
10421.7
10421.6
10421.5
10421.4
10421.4
10421.3
10421.2
10421.1
10421
10421
10420.9
10420.8
10420.7
10420.6
10420.6
10420.5
10420.4
10420.3
10420.2
10420.2
10420.1
10420
10419.9
10419.8
10419.8
10419.7
10419.6
10419.5
10419.4
10419.4
10419.3
10419.2
10419.1
10419
10419
10418.9
10418.8
10418.7
10418.6
10418.6
10418.5
10418.4
10418.3
10418.2
10418.2
10418.1
10418
10417.9
10417.8
10417.8
10417.7
10417.6
10417.5
10417.4
10417.4
10417.3
10417.2
10417.1
10417
10417
10416.9
10416.8
10416.7
10416.6
10416.6
10416.5
10416.4
10416.3
10416.2
10416.2
10416.1
10416
10415.9
10415.9
10415.8
10415.7
10415.6
10415.5
10415.5
10415.4
10415.3
10415.2
10415.1
10415.1
10415
10414.9
10414.8
10414.7
10414.7
10414.6
10414.5
10414.4
10414.3
10414.3
10414.2
10414.1
10414
10413.9
10413.9
10413.8
10413.7
10413.6
10413.5
10413.5
10413.4
10413.3
10413.2
10413.1
10413.1
10413
10412.9
10412.8
10412.7
10412.7
10412.6
10412.5
10412.4
10412.3
10412.3
10412.2
10412.1
10412
10411.9
10411.9
10411.8
10411.7
10411.6
10411.5
10411.5
10411.4
10411.3
10411.2
10411.1
10411.1
10411
10410.9
10410.8
10410.7
10410.7
10410.6
10410.5
10410.4
10410.3
10410.3
10410.2
10410.1
10410
10409.9
10409.9
10409.8
10409.7
10409.6
10409.5
10409.5
10409.4
10409.3
10409.2
10409.1
10409.1
10409
10408.9
10408.8
10408.8
10408.7
10408.6
10408.5
10408.4
10408.4
10408.3
10408.2
10408.1
10408
10408
10407.9
10407.8
10407.7
10407.6
10407.6
10407.5
10407.4
10407.3
10407.2
10407.2
10407.1
10407
10406.9
10406.8
10406.8
10406.7
10406.6
10406.5
10406.4
10406.4
10406.3
10406.2
10406.1
10406
10406
10405.9
10405.8
10405.7
10405.6
10405.6
10405.5
10405.4
10405.3
10405.2
10405.2
10405.1
10405
10404.9
10404.8
10404.8
10404.7
10404.6
10404.5
10404.4
10404.4
10404.3
10404.2
10404.1
10404
10404
10403.9
10403.8
10403.7
10403.6
10403.6
10403.5
10403.4
10403.3
10403.3
10403.2
10403.1
10403
10402.9
10402.9
10402.8
10402.7
10402.6
10402.5
10402.5
10402.4
10402.3
10402.2
10402.1
10402.1
10402
10401.9
10401.8
10401.7
10401.7
10401.6
10401.5
10401.4
10401.3
10401.3
10401.2
10401.1
10401
10400.9
10400.9
10400.8
10400.7
10400.6
10400.5
10400.5
10400.4
10400.3
10400.2
10400.1
10400.1
10400
10399.9
10399.8
10399.7
10399.7
10399.6
10399.5
10399.4
10399.4
10399.3
10399.2
10399.1
10399
10399
10398.9
10398.8
10398.7
10398.6
10398.6
10398.5
10398.4
10398.3
10398.2
10398.2
10398.1
10398
10397.9
10397.8
10397.8
10397.7
10397.6
10397.5
10397.4
10397.4
10397.3
10397.2
10397.1
10397
10397
10396.9
10396.8
10396.7
10396.6
10396.6
10396.5
10396.4
10396.3
10396.3
10396.2
10396.1
10396
10395.9
10395.9
10395.8
10395.7
10395.6
10395.5
10395.5
10395.4
10395.3
10395.2
10395.1
10395.1
10395
10394.9
10394.8
10394.7
10394.7
10394.6
10394.5
10394.4
10394.3
10394.3
10394.2
10394.1
10394
10393.9
10393.9
10393.8
10393.7
10393.6
10393.6
10393.5
10393.4
10393.3
10393.2
10393.2
10393.1
10393
10392.9
10392.8
10392.8
10392.7
10392.6
10392.5
10392.4
10392.4
10392.3
10392.2
10392.1
10392
10392
10391.9
10391.8
10391.7
10391.7
10391.6
10391.5
10391.4
10391.3
10391.3
10391.2
10391.1
10391
10390.9
10390.9
10390.8
10390.7
10390.6
10390.5
10390.5
10390.4
10390.3
10390.2
10390.1
10390.1
10390
10389.9
10389.8
10389.8
10389.7
10389.6
10389.5
10389.4
10389.4
10389.3
10389.2
10389.1
10389
10389
10388.9
10388.8
10388.7
10388.6
10388.6
10388.5
10388.4
10388.3
10388.3
10388.2
10388.1
10388
10387.9
10387.9
10387.8
10387.7
10387.6
10387.5
10387.5
10387.4
10387.3
10387.2
10387.1
10387.1
10387
10386.9
10386.8
10386.8
10386.7
10386.6
10386.5
10386.4
10386.4
10386.3
10386.2
10386.1
10386
10386
10385.9
10385.8
10385.7
10385.7
10385.6
10385.5
10385.4
10385.3
10385.3
10385.2
10385.1
10385
10384.9
10384.9
10384.8
10384.7
10384.6
10384.6
10384.5
10384.4
10384.3
10384.2
10384.2
10384.1
10384
10383.9
10383.8
10383.8
10383.7
10383.6
10383.5
10383.5
10383.4
10383.3
10383.2
10383.1
10383.1
10383
10382.9
10382.8
10382.7
10382.7
10382.6
10382.5
10382.4
10382.4
10382.3
10382.2
10382.1
10382
10382
10381.9
10381.8
10381.7
10381.7
10381.6
10381.5
10381.4
10381.3
10381.3
10381.2
10381.1
10381
10380.9
10380.9
10380.8
10380.7
10380.6
10380.6
10380.5
10380.4
10380.3
10380.2
10380.2
10380.1
10380
10379.9
10379.9
10379.8
10379.7
10379.6
10379.5
10379.5
10379.4
10379.3
10379.2
10379.2
10379.1
10379
10378.9
10378.8
10378.8
10378.7
10378.6
10378.5
10378.5
10378.4
10378.3
10378.2
10378.1
10378.1
10378
10377.9
10377.8
10377.8
10377.7
10377.6
10377.5
10377.4
10377.4
10377.3
10377.2
10377.1
10377.1
10377
10376.9
10376.8
10376.7
10376.7
10376.6
10376.5
10376.4
10376.4
10376.3
10376.2
10376.1
10376
10376
10375.9
10375.8
10375.7
10375.7
10375.6
10375.5
10375.4
10375.3
10375.3
10375.2
10375.1
10375
10375
10374.9
10374.8
10374.7
10374.7
10374.6
10374.5
10374.4
10374.3
10374.3
10374.2
10374.1
10374
10374
10373.9
10373.8
10373.7
10373.6
10373.6
10373.5
10373.4
10373.3
10373.3
10373.2
10373.1
10373
10373
10372.9
10372.8
10372.7
10372.6
10372.6
10372.5
10372.4
10372.3
10372.3
10372.2
10372.1
10372
10372
10371.9
10371.8
10371.7
10371.7
10371.6
10371.5
10371.4
10371.3
10371.3
10371.2
10371.1
10371
10371
10370.9
10370.8
10370.7
10370.7
10370.6
10370.5
10370.4
10370.4
10370.3
10370.2
10370.1
10370
10370
10369.9
10369.8
10369.7
10369.7
10369.6
10369.5
10369.4
10369.4
10369.3
10369.2
10369.1
10369.1
10369
10368.9
10368.8
10368.8
10368.7
10368.6
10368.5
10368.4
10368.4
10368.3
10368.2
10368.1
10368.1
10368
10367.9
10367.8
10367.8
10367.7
10367.6
10367.5
10367.5
10367.4
10367.3
10367.2
10367.2
10367.1
10367
10366.9
10366.9
10366.8
10366.7
10366.6
10366.6
10366.5
10366.4
10366.3
10366.3
10366.2
10366.1
10366
10366
10365.9
10365.8
10365.7
10365.7
10365.6
10365.5
10365.4
10365.4
10365.3
10365.2
10365.1
10365.1
10365
10364.9
10364.8
10364.8
10364.7
10364.6
10364.5
10364.5
10364.4
10364.3
10364.2
10364.2
10364.1
10364
10363.9
10363.9
10363.8
10363.7
10363.6
10363.6
10363.5
10363.4
10363.3
10363.3
10363.2
10363.1
10363
10363
10362.9
10362.8
10362.7
10362.7
10362.6
10362.5
10362.5
10362.4
10362.3
10362.2
10362.2
10362.1
10362
10361.9
10361.9
10361.8
10361.7
10361.6
10361.6
10361.5
10361.4
10361.3
10361.3
10361.2
10361.1
10361.1
10361
10360.9
10360.8
10360.8
10360.7
10360.6
10360.5
10360.5
10360.4
10360.3
10360.2
10360.2
10360.1
10360
10360
10359.9
10359.8
10359.7
10359.7
10359.6
10359.5
10359.4
10359.4
10359.3
10359.2
10359.2
10359.1
10359
10358.9
10358.9
10358.8
10358.7
10358.6
10358.6
10358.5
10358.4
10358.4
10358.3
10358.2
10358.1
10358.1
10358
10357.9
10357.8
10357.8
10357.7
10357.6
10357.6
10357.5
10357.4
10357.3
10357.3
10357.2
10357.1
10357.1
10357
10356.9
10356.8
10356.8
10356.7
10356.6
10356.6
10356.5
10356.4
10356.3
10356.3
10356.2
10356.1
10356.1
10356
10355.9
10355.8
10355.8
10355.7
10355.6
10355.6
10355.5
10355.4
10355.4
10355.3
10355.2
10355.1
10355.1
10355
10354.9
10354.9
10354.8
10354.7
10354.6
10354.6
10354.5
10354.4
10354.4
10354.3
10354.2
10354.2
10354.1
10354
10353.9
10353.9
10353.8
10353.7
10353.7
10353.6
10353.5
10353.5
10353.4
10353.3
10353.3
10353.2
10353.1
10353
10353
10352.9
10352.8
10352.8
10352.7
10352.6
10352.6
10352.5
10352.4
10352.4
10352.3
10352.2
10352.1
10352.1
10352
10351.9
10351.9
10351.8
10351.7
10351.7
10351.6
10351.5
10351.5
10351.4
10351.3
10351.3
10351.2
10351.1
10351.1
10351
10350.9
10350.9
10350.8
10350.7
10350.7
10350.6
10350.5
10350.4
10350.4
10350.3
10350.2
10350.2
10350.1
10350
10350
10349.9
10349.8
10349.8
10349.7
10349.6
10349.6
10349.5
10349.4
10349.4
10349.3
10349.2
10349.2
10349.1
10349
10349
10348.9
10348.9
10348.8
10348.7
10348.7
10348.6
10348.5
10348.5
10348.4
10348.3
10348.3
10348.2
10348.1
10348.1
10348
10347.9
10347.9
10347.8
10347.7
10347.7
10347.6
10347.5
10347.5
10347.4
10347.4
10347.3
10347.2
10347.2
10347.1
10347
10347
10346.9
10346.8
10346.8
10346.7
10346.7
10346.6
10346.5
10346.5
10346.4
10346.3
10346.3
10346.2
10346.1
10346.1
10346
10346
10345.9
10345.8
10345.8
10345.7
10345.6
10345.6
10345.5
10345.5
10345.4
10345.3
10345.3
10345.2
10345.1
10345.1
10345
10345
10344.9
10344.8
10344.8
10344.7
10344.7
10344.6
10344.5
10344.5
10344.4
10344.3
10344.3
10344.2
10344.2
10344.1
10344
10344
10343.9
10343.9
10343.8
10343.7
10343.7
10343.6
10343.6
10343.5
10343.4
10343.4
10343.3
10343.3
10343.2
10343.2
10343.1
10343
10343
10342.9
10342.9
10342.8
10342.7
10342.7
10342.6
10342.6
10342.5
10342.5
10342.4
10342.3
10342.3
10342.2
10342.2
10342.1
10342.1
10342
10341.9
10341.9
10341.8
10341.8
10341.7
10341.7
10341.6
10341.5
10341.5
10341.4
10341.4
10341.3
10341.3
10341.2
10341.2
10341.1
10341
10341
10340.9
10340.9
10340.8
10340.8
10340.7
10340.7
10340.6
10340.6
10340.5
10340.4
10340.4
10340.3
10340.3
10340.2
10340.2
10340.1
10340.1
10340
10340
10339.9
10339.9
10339.8
10339.8
10339.7
10339.6
10339.6
10339.5
10339.5
10339.4
10339.4
10339.3
10339.3
10339.2
10339.2
10339.1
10339.1
10339
10339
10338.9
10338.9
10338.8
10338.8
10338.7
10338.7
10338.6
10338.6
10338.5
10338.5
10338.4
10338.4
10338.3
10338.3
10338.2
10338.2
10338.1
10338.1
10338.1
10338
10338
10337.9
10337.9
10337.8
10337.8
10337.7
10337.7
10337.6
10337.6
10337.5
10337.5
10337.4
10337.4
10337.4
10337.3
10337.3
10337.2
10337.2
10337.1
10337.1
10337
10337
10337
10336.9
10336.9
10336.8
10336.8
10336.7
10336.7
10336.6
10336.6
10336.6
10336.5
10336.5
10336.4
10336.4
10336.4
10336.3
10336.3
10336.2
10336.2
10336.1
10336.1
10336.1
10336
10336
10335.9
10335.9
10335.9
10335.8
10335.8
10335.8
10335.7
10335.7
10335.6
10335.6
10335.6
10335.5
10335.5
10335.4
10335.4
10335.4
10335.3
10335.3
10335.3
10335.2
10335.2
10335.2
10335.1
10335.1
10335.1
10335
10335
10335
10334.9
10334.9
10334.8
10334.8
10334.8
10334.7
10334.7
10334.7
10334.7
10334.6
10334.6
10334.6
10334.5
10334.5
10334.5
10334.4
10334.4
10334.4
10334.3
10334.3
10334.3
10334.3
10334.2
10334.2
10334.2
10334.1
10334.1
10334.1
10334.1
10334
10334
10334
10333.9
10333.9
10333.9
10333.9
10333.8
10333.8
10333.8
10333.8
10333.7
10333.7
10333.7
10333.7
10333.7
10333.6
10333.6
10333.6
10333.6
10333.5
10333.5
10333.5
10333.5
10333.5
10333.4
10333.4
10333.4
10333.4
10333.4
10333.3
10333.3
10333.3
10333.3
10333.3
10333.2
10333.2
10333.2
10333.2
10333.2
10333.2
10333.1
10333.1
10333.1
10333.1
10333.1
10333.1
10333.1
10333
10333
10333
10333
10333
10333
10333
10333
10333
10332.9
10332.9
10332.9
10332.9
10332.9
10332.9
10332.9
10332.9
10332.9
10332.9
10332.9
10332.9
10332.9
10332.8
10332.8
10332.8
10332.8
10332.8
10332.8
10332.8
10332.8
10332.8
10332.8
10332.8
10332.8
10332.8
10332.8
10332.8
10332.8
10332.8
10332.8
10332.8
10332.8
10332.8
10332.8
10332.8
10332.8
10332.8
10332.8
10332.8
10332.8
10332.9
10332.9
10332.9
10332.9
10332.9
10332.9
10332.9
10332.9
10332.9
10332.9
10332.9
10332.9
10333
10333
10333
10333
10333
10333
10333
10333.1
10333.1
10333.1
10333.1
10333.1
10333.1
10333.2
10333.2
10333.2
10333.2
10333.2
10333.3
10333.3
10333.3
10333.3
10333.3
10333.4
10333.4
10333.4
10333.4
10333.5
10333.5
10333.5
10333.5
10333.6
10333.6
10333.6
10333.7
10333.7
10333.7
10333.7
10333.8
10333.8
10333.8
10333.9
10333.9
10333.9
10334
10334
10334.1
10334.1
10334.1
10334.2
10334.2
10334.2
10334.3
10334.3
10334.4
10334.4
10334.5
10334.5
10334.5
10334.6
10334.6
10334.7
10334.7
10334.8
10334.8
10334.9
10334.9
10335
10335
10335.1
10335.1
10335.2
10335.2
10335.3
10335.4
10335.4
10335.5
10335.5
10335.6
10335.6
10335.7
10335.8
10335.8
10335.9
10336
10336
10336.1
10336.1
10336.2
10336.3
10336.3
10336.4
10336.5
10336.6
10336.6
10336.7
10336.8
10336.9
10336.9
10337
10337.1
10337.2
10337.2
10337.3
10337.4
10337.5
10337.6
10337.6
10337.7
10337.8
10337.9
10338
10338.1
10338.2
10338.2
10338.3
10338.4
10338.5
10338.6
10338.7
10338.8
10338.9
10339
10339.1
10339.2
10339.3
10339.4
10339.5
10339.6
10339.7
10339.8
10339.9
10340
10340.1
10340.2
10340.4
10340.5
10340.6
10340.7
10340.8
10340.9
10341
10341.2
10341.3
10341.4
10341.5
10341.7
10341.8
10341.9
10342
10342.2
10342.3
10342.4
10342.5
10342.7
10342.8
10342.9
10343.1
10343.2
10343.4
10343.5
10343.6
10343.8
10343.9
10344.1
10344.2
10344.4
10344.5
10344.7
10344.8
10345
10345.1
10345.3
10345.4
10345.6
10345.8
10345.9
10346.1
10346.2
10346.4
10346.6
10346.7
10346.9
10347.1
10347.3
10347.4
10347.6
10347.8
10348
10348.1
10348.3
10348.5
10348.7
10348.9
10349.1
10349.2
10349.4
10349.6
10349.8
10350
10350.2
10350.4
10350.6
10350.8
10351
10351.2
10351.4
10351.6
10351.8
10352
10352.3
10352.5
10352.7
10352.9
10353.1
10353.3
10353.6
10353.8
10354
10354.2
10354.5
10354.7
10354.9
10355.2
10355.4
10355.6
10355.9
10356.1
10356.4
10356.6
10356.9
10357.1
10357.4
10357.6
10357.9
10358.1
10358.4
10358.6
10358.9
10359.2
10359.4
10359.7
10360
10360.2
10360.5
10360.8
10361.1
10361.4
10361.6
10361.9
10362.2
10362.5
10362.8
10363.1
10363.4
10363.7
10364
10364.3
10364.6
10364.9
10365.2
10365.5
10365.8
10366.1
10366.4
10366.7
10367
10367.4
10367.7
10368
10368.3
10368.7
10369
10369.3
10369.7
10370
10370.4
10370.7
10371
10371.4
10371.7
10372.1
10372.4
10372.8
10373.2
10373.5
10373.9
10374.2
10374.6
10375
10375.3
10375.7
10376.1
10376.5
10376.9
10377.2
10377.6
10378
10378.4
10378.8
10379.2
10379.6
10380
10380.4
10380.8
10381.2
10381.6
10382
10382.4
10382.8
10383.3
10383.7
10384.1
10384.5
10385
10385.4
10385.8
10386.2
10386.7
10387.1
10387.6
10388
10388.5
10388.9
10389.4
10389.8
10390.3
10390.7
10391.2
10391.6
10392.1
10392.6
10393.1
10393.5
10394
10394.5
10395
10395.4
10395.9
10396.4
10396.9
10397.4
10397.9
10398.4
10398.9
10399.4
10399.9
10400.4
10400.9
10401.4
10401.9
10402.4
10403
10403.5
10404
10404.5
10405.1
10405.6
10406.1
10406.6
10407.2
10407.7
10408.3
10408.8
10409.4
10409.9
10410.4
10411
10411.6
10412.1
10412.7
10413.2
10413.8
10414.4
10414.9
10415.5
10416.1
10416.6
10417.2
10417.8
10418.4
10419
10419.5
10420.1
10420.7
10421.3
10421.9
10422.5
10423.1
10423.7
10424.3
10424.9
10425.5
10426.1
10426.7
10427.3
10427.9
10428.6
10429.2
10429.8
10430.4
10431
10431.7
10432.3
10432.9
10433.5
10434.2
10434.8
10435.4
10436.1
10436.7
10437.4
10438
10438.7
10439.3
10439.9
10440.6
10441.2
10441.9
10442.6
10443.2
10443.9
10444.5
10445.2
10445.8
10446.5
10447.2
10447.8
10448.5
10449.2
10449.8
10450.5
10451.2
10451.9
10452.5
10453.2
10453.9
10454.6
10455.3
10455.9
10456.6
10457.3
10458
10458.7
10459.4
10460.1
10460.8
10461.5
10462.2
10462.9
10463.5
10464.2
10464.9
10465.6
10466.3
10467.1
10467.8
10468.5
10469.2
10469.9
10470.6
10471.3
10472
10472.7
10473.4
10474.1
10474.8
10475.6
10476.3
10477
10477.7
10478.4
10479.1
10479.9
10480.6
10481.3
10482
10482.8
10483.5
10484.2
10484.9
10485.7
10486.4
10487.1
10487.8
10488.6
10489.3
10490
10490.8
10491.5
10492.2
10493
10493.7
10494.4
10495.2
10495.9
10496.6
10497.4
10498.1
10498.8
10499.6
10500.3
10501
10501.8
10502.5
10503.3
10504
10504.8
10505.5
10506.2
10507
10507.7
10508.5
10509.2
10510
10510.7
10511.4
10512.2
10512.9
10513.7
10514.4
10515.2
10515.9
10516.7
10517.4
10518.2
10518.9
10519.7
10520.4
10521.2
10521.9
10522.7
10523.4
10524.2
10524.9
10525.7
10526.4
10527.2
10527.9
10528.7
10529.4
10530.2
10530.9
10531.7
10532.4
10533.2
10534
10534.7
10535.5
10536.2
10537
10537.7
10538.5
10539.2
10540
10540.8
10541.5
10542.3
10543
10543.8
10544.5
10545.3
10546.1
10546.8
10547.6
10548.3
10549.1
10549.8
10550.6
10551.4
10552.1
10552.9
10553.6
10554.4
10555.2
10555.9
10556.7
10557.4
10558.2
10559
10559.7
10560.5
10561.2
10562
10562.8
10563.5
10564.3
10565
10565.8
10566.6
10567.3
10568.1
10568.8
10569.6
10570.4
10571.1
10571.9
10572.6
10573.4
10574.2
10574.9
10575.7
10576.5
10577.2
10578
10578.7
10579.5
10580.3
10581
10581.8
10582.6
10583.3
10584.1
10584.9
10585.6
10586.4
10587.1
10587.9
10588.7
10589.4
10590.2
10591
10591.7
10592.5
10593.3
10594
10594.8
10595.5
10596.3
10597.1
10597.8
10598.6
10599.4
10600.1
10600.9
10601.7
10602.4
10603.2
10604
10604.7
10605.5
10606.3
10607
10607.8
10608.5
10609.3
10610.1
10610.8
10611.6
10612.4
10613.1
10613.9
10614.7
10615.4
10616.2
10617
10617.7
10618.5
10619.3
10620
10620.8
10621.6
10622.3
10623.1
10623.9
10624.6
10625.4
10626.2
10626.9
10627.7
10628.5
10629.2
10630
10630.8
10631.5
10632.3
10633.1
10633.8
10634.6
10635.4
10636.2
10636.9
10637.7
10638.5
10639.2
10640
10640.8
10641.5
10642.3
10643.1
10643.8
10644.6
10645.4
10646.1
10646.9
10647.7
10648.4
10649.2
10650
10650.8
10651.5
10652.3
10653.1
10653.8
10654.6
10655.4
10656.1
10656.9
10657.7
10658.4
10659.2
10660
10660.8
10661.5
10662.3
10663.1
10663.8
10664.6
10665.4
10666.1
10666.9
10667.7
10668.5
10669.2
10670
10670.8
10671.5
10672.3
10673.1
10673.9
10674.6
10675.4
10676.2
10676.9
10677.7
10678.5
10679.3
10680
10680.8
10681.6
10682.3
10683.1
10683.9
10684.7
10685.4
10686.2
10687
10687.7
10688.5
10689.3
10690.1
10690.8
10691.6
10692.4
10693.2
10693.9
10694.7
10695.5
10696.2
10697
10697.8
10698.6
10699.3
10700.1
10700.9
10701.7
10702.4
10703.2
10704
10704.7
10705.5
10706.3
10707.1
10707.8
10708.6
10709.4
10710.2
10710.9
10711.7
10712.5
10713.3
10714
10714.8
10715.6
10716.4
10717.1
10717.9
10718.7
10719.5
10720.2
10721
10721.8
10722.6
10723.3
10724.1
10724.9
10725.7
10726.4
10727.2
10728
10728.8
10729.5
10730.3
10731.1
10731.9
10732.6
10733.4
10734.2
10735
10735.7
10736.5
10737.3
10738.1
10738.8
10739.6
10740.4
10741.2
10741.9
10742.7
10743.5
10744.3
10745.1
10745.8
10746.6
10747.4
10748.2
10748.9
10749.7
10750.5
10751.3
10752
10752.8
10753.6
10754.4
10755.2
10755.9
10756.7
10757.5
10758.3
10759
10759.8
10760.6
10761.4
10762.2
10762.9
10763.7
10764.5
10765.3
10766.1
10766.8
10767.6
10768.4
10769.2
10769.9
10770.7
10771.5
10772.3
10773.1
10773.8
10774.6
10775.4
10776.2
10777
10777.7
10778.5
10779.3
10780.1
10780.9
10781.6
10782.4
10783.2
10784
10784.8
10785.5
10786.3
10787.1
10787.9
10788.7
10789.4
10790.2
10791
10791.8
10792.6
10793.3
10794.1
10794.9
10795.7
10796.5
10797.2
10798
10798.8
10799.6
10800.4
10801.2
10801.9
10802.7
10803.5
10804.3
10805.1
10805.8
10806.6
10807.4
10808.2
10809
10809.8
10810.5
10811.3
10812.1
10812.9
10813.7
10814.4
10815.2
10816
10816.8
10817.6
10818.4
10819.1
10819.9
10820.7
10821.5
10822.3
10823.1
10823.8
10824.6
10825.4
10826.2
10827
10827.8
10828.5
10829.3
10830.1
10830.9
10831.7
10832.5
10833.2
10834
10834.8
10835.6
10836.4
10837.2
10838
10838.7
10839.5
10840.3
10841.1
10841.9
10842.7
10843.4
10844.2
10845
10845.8
10846.6
10847.4
10848.2
10848.9
10849.7
10850.5
10851.3
10852.1
10852.9
10853.7
10854.4
10855.2
10856
10856.8
10857.6
10858.4
10859.2
10859.9
10860.7
10861.5
10862.3
10863.1
10863.9
10864.7
10865.5
10866.2
10867
10867.8
10868.6
10869.4
10870.2
10871
10871.7
10872.5
10873.3
10874.1
10874.9
10875.7
10876.5
10877.3
10878
10878.8
10879.6
10880.4
10881.2
10882
10882.8
10883.6
10884.4
10885.1
10885.9
10886.7
10887.5
10888.3
10889.1
10889.9
10890.7
10891.4
10892.2
10893
10893.8
10894.6
10895.4
10896.2
10897
10897.8
10898.6
10899.3
10900.1
10900.9
10901.7
10902.5
10903.3
10904.1
10904.9
10905.7
10906.5
10907.2
10908
10908.8
10909.6
10910.4
10911.2
10912
10912.8
10913.6
10914.4
10915.1
10915.9
10916.7
10917.5
10918.3
10919.1
10919.9
10920.7
10921.5
10922.3
10923.1
10923.9
10924.6
10925.4
10926.2
10927
10927.8
10928.6
10929.4
10930.2
10931
10931.8
10932.6
10933.4
10934.1
10934.9
10935.7
10936.5
10937.3
10938.1
10938.9
10939.7
10940.5
10941.3
10942.1
10942.9
10943.7
10944.5
10945.2
10946
10946.8
10947.6
10948.4
10949.2
10950
10950.8
10951.6
10952.4
10953.2
10954
10954.8
10955.6
10956.4
10957.2
10958
10958.7
10959.5
10960.3
10961.1
10961.9
10962.7
10963.5
10964.3
10965.1
10965.9
10966.7
10967.5
10968.3
10969.1
10969.9
10970.7
10971.5
10972.3
10973.1
10973.9
10974.6
10975.4
10976.2
10977
10977.8
10978.6
10979.4
10980.2
10981
10981.8
10982.6
10983.4
10984.2
10985
10985.8
10986.6
10987.4
10988.2
10989
10989.8
10990.6
10991.4
10992.2
10993
10993.8
10994.6
10995.4
10996.2
10997
10997.8
10998.5
10999.3
11000.1
11000.9
11001.7
11002.5
11003.3
11004.1
11004.9
11005.7
11006.5
11007.3
11008.1
11008.9
11009.7
11010.5
11011.3
11012.1
11012.9
11013.7
11014.5
11015.3
11016.1
11016.9
11017.7
11018.5
11019.3
11020.1
11020.9
11021.7
11022.5
11023.3
11024.1
11024.9
11025.7
11026.5
11027.3
11028.1
11028.9
11029.7
11030.5
11031.3
11032.1
11032.9
11033.7
11034.5
11035.3
11036.1
11036.9
11037.7
11038.5
11039.3
11040.1
11040.9
11041.7
11042.5
11043.3
11044.1
11044.9
11045.7
11046.5
11047.3
11048.1
11048.9
11049.7
11050.5
11051.3
11052.1
11052.9
11053.7
11054.5
11055.4
11056.2
11057
11057.8
11058.6
11059.4
11060.2
11061
11061.8
11062.6
11063.4
11064.2
11065
11065.8
11066.6
11067.4
11068.2
11069
11069.8
11070.6
11071.4
11072.2
11073
11073.8
11074.6
11075.4
11076.2
11077
11077.8
11078.6
11079.4
11080.3
11081.1
11081.9
11082.7
11083.5
11084.3
11085.1
11085.9
11086.7
11087.5
11088.3
11089.1
11089.9
11090.7
11091.5
11092.3
11093.1
11093.9
11094.7
11095.5
11096.4
11097.2
11098
11098.8
11099.6
11100.4
11101.2
11102
11102.8
11103.6
11104.4
11105.2
11106
11106.8
11107.6
11108.4
11109.3
11110.1
11110.9
11111.7
11112.5
11113.3
11114.1
11114.9
11115.7
11116.5
11117.3
11118.1
11118.9
11119.7
11120.5
11121.4
11122.2
11123
11123.8
11124.6
11125.4
11126.2
11127
11127.8
11128.6
11129.4
11130.2
11131.1
11131.9
11132.7
11133.5
11134.3
11135.1
11135.9
11136.7
11137.5
11138.3
11139.1
11140
11140.8
11141.6
11142.4
11143.2
11144
11144.8
11145.6
11146.4
11147.2
11148
11148.9
11149.7
11150.5
11151.3
11152.1
11152.9
11153.7
11154.5
11155.3
11156.1
11157
11157.8
11158.6
11159.4
11160.2
11161
11161.8
11162.6
11163.4
11164.3
11165.1
11165.9
11166.7
11167.5
11168.3
11169.1
11169.9
11170.7
11171.6
11172.4
11173.2
11174
11174.8
11175.6
11176.4
11177.2
11178.1
11178.9
11179.7
11180.5
11181.3
11182.1
11182.9
11183.7
11184.6
11185.4
11186.2
11187
11187.8
11188.6
11189.4
11190.2
11191.1
11191.9
11192.7
11193.5
11194.3
11195.1
11195.9
11196.8
11197.6
11198.4
11199.2
11200
11200.8
11201.6
11202.5
11203.3
11204.1
11204.9
11205.7
11206.5
11207.3
11208.2
11209
11209.8
11210.6
11211.4
11212.2
11213
11213.9
11214.7
11215.5
11216.3
11217.1
11217.9
11218.7
11219.6
11220.4
11221.2
11222
11222.8
11223.6
11224.5
11225.3
11226.1
11226.9
11227.7
11228.5
11229.4
11230.2
11231
11231.8
11232.6
11233.4
11234.3
11235.1
11235.9
11236.7
11237.5
11238.3
11239.2
11240
11240.8
11241.6
11242.4
11243.2
11244.1
11244.9
11245.7
11246.5
11247.3
11248.2
11249
11249.8
11250.6
11251.4
11252.2
11253.1
11253.9
11254.7
11255.5
11256.3
11257.2
11258
11258.8
11259.6
11260.4
11261.3
11262.1
11262.9
11263.7
11264.5
11265.3
11266.2
11267
11267.8
11268.6
11269.4
11270.3
11271.1
11271.9
11272.7
11273.5
11274.4
11275.2
11276
11276.8
11277.6
11278.5
11279.3
11280.1
11280.9
11281.7
11282.6
11283.4
11284.2
11285
11285.9
11286.7
11287.5
11288.3
11289.1
11290
11290.8
11291.6
11292.4
11293.2
11294.1
11294.9
11295.7
11296.5
11297.4
11298.2
11299
11299.8
11300.6
11301.5
11302.3
11303.1
11303.9
11304.8
11305.6
11306.4
11307.2
11308
11308.9
11309.7
11310.5
11311.3
11312.2
11313
11313.8
11314.6
11315.5
11316.3
11317.1
11317.9
11318.8
11319.6
11320.4
11321.2
11322
11322.9
11323.7
11324.5
11325.3
11326.2
11327
11327.8
11328.6
11329.5
11330.3
11331.1
11331.9
11332.8
11333.6
11334.4
11335.2
11336.1
11336.9
11337.7
11338.5
11339.4
11340.2
11341
11341.8
11342.7
11343.5
11344.3
11345.2
11346
11346.8
11347.6
11348.5
11349.3
11350.1
11350.9
11351.8
11352.6
11353.4
11354.2
11355.1
11355.9
11356.7
11357.5
11358.4
11359.2
11360
11360.9
11361.7
11362.5
11363.3
11364.2
11365
11365.8
11366.7
11367.5
11368.3
11369.1
11370
11370.8
11371.6
11372.4
11373.3
11374.1
11374.9
11375.8
11376.6
11377.4
11378.2
11379.1
11379.9
11380.7
11381.6
11382.4
11383.2
11384
11384.9
11385.7
11386.5
11387.4
11388.2
11389
11389.9
11390.7
11391.5
11392.3
11393.2
11394
11394.8
11395.7
11396.5
11397.3
11398.2
11399
11399.8
11400.6
11401.5
11402.3
11403.1
11404
11404.8
11405.6
11406.5
11407.3
11408.1
11409
11409.8
11410.6
11411.5
11412.3
11413.1
11413.9
11414.8
11415.6
11416.4
11417.3
11418.1
11418.9
11419.8
11420.6
11421.4
11422.3
11423.1
11423.9
11424.8
11425.6
11426.4
11427.3
11428.1
11428.9
11429.8
11430.6
11431.4
11432.3
11433.1
11433.9
11434.8
11435.6
11436.4
11437.3
11438.1
11438.9
11439.8
11440.6
11441.4
11442.3
11443.1
11443.9
11444.8
11445.6
11446.4
11447.3
11448.1
11448.9
11449.8
11450.6
11451.4
11452.3
11453.1
11453.9
11454.8
11455.6
11456.4
11457.3
11458.1
11459
11459.8
11460.6
11461.5
11462.3
11463.1
11464
11464.8
11465.6
11466.5
11467.3
11468.1
11469
11469.8
11470.7
11471.5
11472.3
11473.2
11474
11474.8
11475.7
11476.5
11477.3
11478.2
11479
11479.9
11480.7
11481.5
11482.4
11483.2
11484
11484.9
11485.7
11486.6
11487.4
11488.2
11489.1
11489.9
11490.7
11491.6
11492.4
11493.3
11494.1
11494.9
11495.8
11496.6
11497.4
11498.3
11499.1
11500
11500.8
11501.6
11502.5
11503.3
11504.2
11505
11505.8
11506.7
11507.5
11508.4
11509.2
11510
11510.9
11511.7
11512.6
11513.4
11514.2
11515.1
11515.9
11516.7
11517.6
11518.4
11519.3
11520.1
11520.9
11521.8
11522.6
11523.5
11524.3
11525.2
11526
11526.8
11527.7
11528.5
11529.4
11530.2
11531
11531.9
11532.7
11533.6
11534.4
11535.2
11536.1
11536.9
11537.8
11538.6
11539.5
11540.3
11541.1
11542
11542.8
11543.7
11544.5
11545.3
11546.2
11547
11547.9
11548.7
11549.6
11550.4
11551.2
11552.1
11552.9
11553.8
11554.6
11555.5
11556.3
11557.1
11558
11558.8
11559.7
11560.5
11561.4
11562.2
11563
11563.9
11564.7
11565.6
11566.4
11567.3
11568.1
11569
11569.8
11570.6
11571.5
11572.3
11573.2
11574
11574.9
11575.7
11576.6
11577.4
11578.2
11579.1
11579.9
11580.8
11581.6
11582.5
11583.3
11584.2
11585
11585.9
11586.7
11587.5
11588.4
11589.2
11590.1
11590.9
11591.8
11592.6
11593.5
11594.3
11595.2
11596
11596.9
11597.7
11598.5
11599.4
11600.2
11601.1
11601.9
11602.8
11603.6
11604.5
11605.3
11606.2
11607
11607.9
11608.7
11609.6
11610.4
11611.3
11612.1
11612.9
11613.8
11614.6
11615.5
11616.3
11617.2
11618
11618.9
11619.7
11620.6
11621.4
11622.3
11623.1
11624
11624.8
11625.7
11626.5
11627.4
11628.2
11629.1
11629.9
11630.8
11631.6
11632.5
11633.3
11634.2
11635
11635.9
11636.7
11637.6
11638.4
11639.3
11640.1
11641
11641.8
11642.7
11643.5
11644.4
11645.2
11646.1
11646.9
11647.8
11648.6
11649.5
11650.3
11651.2
11652
11652.9
11653.7
11654.6
11655.4
11656.3
11657.1
11658
11658.8
11659.7
11660.5
11661.4
11662.2
11663.1
11663.9
11664.8
11665.6
11666.5
11667.3
11668.2
11669
11669.9
11670.7
11671.6
11672.5
11673.3
11674.2
11675
11675.9
11676.7
11677.6
11678.4
11679.3
11680.1
11681
11681.8
11682.7
11683.5
11684.4
11685.3
11686.1
11687
11687.8
11688.7
11689.5
11690.4
11691.2
11692.1
11692.9
11693.8
11694.6
11695.5
11696.4
11697.2
11698.1
11698.9
11699.8
11700.6
11701.5
11702.3
11703.2
11704
11704.9
11705.8
11706.6
11707.5
11708.3
11709.2
11710
11710.9
11711.7
11712.6
11713.5
11714.3
11715.2
11716
11716.9
11717.7
11718.6
11719.5
11720.3
11721.2
11722
11722.9
11723.7
11724.6
11725.4
11726.3
11727.2