/*--------------------------------*- C++ -*----------------------------------*\
  =========                 |
  \\      /  F ield         | OpenFOAM: The Open Source CFD Toolbox
   \\    /   O peration     | Website:  https://openfoam.org
    \\  /    A nd           | Version:  9
     \\/     M anipulation  |
\*---------------------------------------------------------------------------*/
FoamFile
{
    format      ascii;
    class       volScalarField;
    location    "0.021";
    object      mag(U);
}
// * * * * * * * * * * * * * * * * * * * * * * * * * * * * * * * * * * * * * //

dimensions      [0 1 -1 0 0 0 0];

internalField   nonuniform List<scalar> 
1000
(
7.46182
8.40601
9.15278
9.78871
10.4326
11.0976
11.7666
12.4327
13.0972
13.7618
14.4268
15.0919
15.757
16.4223
17.0876
17.7531
18.4186
19.0842
19.75
20.4158
21.0818
21.7478
22.4139
23.0801
23.7465
24.4129
25.0794
25.746
26.4127
27.0796
27.7465
28.4135
29.0806
29.7478
30.4151
31.0824
31.7499
32.4175
33.0852
33.7529
34.4208
35.0887
35.7568
36.4249
37.0932
37.7615
38.4299
39.0984
39.767
40.4357
41.1045
41.7733
42.4423
43.1113
43.7805
44.4497
45.119
45.7884
46.4579
47.1275
47.7972
48.4669
49.1368
49.8067
50.4767
51.1468
51.817
52.4872
53.1576
53.828
54.4986
55.1692
55.8399
56.5106
57.1815
57.8524
58.5234
59.1945
59.8657
60.537
61.2083
61.8798
62.5513
63.2228
63.8945
64.5662
65.2381
65.91
66.5819
67.254
67.9261
68.5983
69.2706
69.943
70.6154
71.2879
71.9605
72.6331
73.3059
73.9787
74.6515
75.3245
75.9975
76.6706
77.3438
78.017
78.6903
79.3637
80.0371
80.7106
81.3842
82.0579
82.7316
83.4054
84.0793
84.7532
85.4272
86.1013
86.7754
87.4496
88.1239
88.7982
89.4726
90.1471
90.8216
91.4962
92.1708
92.8455
93.5202
94.195
94.8699
95.5448
96.2198
96.8948
97.5698
98.2449
98.9201
99.5953
100.271
100.946
101.621
102.297
102.972
103.648
104.323
104.999
105.675
106.351
107.027
107.702
108.378
109.054
109.73
110.407
111.083
111.759
112.435
113.111
113.788
114.464
115.141
115.817
116.493
117.17
117.847
118.523
119.2
119.876
120.553
121.23
121.907
122.583
123.26
123.937
124.614
125.291
125.968
126.645
127.322
127.999
128.676
129.353
130.03
130.707
131.384
132.061
132.739
133.416
134.093
134.77
135.447
136.125
136.802
137.479
138.156
138.834
139.511
140.188
140.866
141.543
142.22
142.898
143.575
144.252
144.93
145.607
146.284
146.961
147.639
148.316
148.993
149.67
150.348
151.025
151.702
152.379
153.056
153.733
154.41
155.088
155.765
156.442
157.119
157.795
158.472
159.149
159.826
160.503
161.179
161.856
162.533
163.209
163.886
164.562
165.238
165.915
166.591
167.267
167.943
168.619
169.295
169.971
170.647
171.323
171.998
172.674
173.349
174.024
174.7
175.375
176.05
176.725
177.399
178.074
178.749
179.423
180.097
180.771
181.445
182.119
182.793
183.466
184.14
184.813
185.486
186.159
186.832
187.504
188.177
188.849
189.521
190.192
190.864
191.535
192.206
192.877
193.548
194.218
194.889
195.558
196.228
196.897
197.567
198.235
198.904
199.572
200.24
200.908
201.575
202.242
202.909
203.575
204.241
204.906
205.572
206.236
206.901
207.565
208.228
208.891
209.554
210.216
210.878
211.539
212.2
212.86
213.52
214.179
214.837
215.495
216.153
216.809
217.466
218.121
218.776
219.43
220.083
220.736
221.388
222.039
222.689
223.339
223.988
224.636
225.282
225.928
226.573
227.218
227.861
228.503
229.144
229.783
230.422
231.06
231.696
232.331
232.965
233.597
234.229
234.858
235.487
236.114
236.739
237.363
237.985
238.606
239.224
239.842
240.457
241.07
241.682
242.292
242.899
243.505
244.108
244.71
245.309
245.906
246.5
247.093
247.682
248.27
248.854
249.436
250.016
250.593
251.166
251.737
252.306
252.871
253.433
253.992
254.548
255.101
255.65
256.196
256.739
257.279
257.814
258.347
258.876
259.401
259.923
260.441
260.955
261.465
261.972
262.475
262.974
263.469
263.96
264.448
264.931
265.41
265.886
266.357
266.825
267.288
267.748
268.203
268.655
269.102
269.546
269.986
270.422
270.853
271.281
271.705
272.126
272.542
272.954
273.363
273.768
274.17
274.567
274.961
275.351
275.738
276.121
276.501
276.876
277.249
277.618
277.983
278.345
278.703
279.058
279.41
279.758
280.102
280.443
280.781
281.115
281.445
281.772
282.095
282.415
282.731
283.044
283.353
283.658
283.959
284.256
284.55
284.839
285.124
285.405
285.682
285.955
286.223
286.487
286.746
287.001
287.251
287.496
287.736
287.971
288.202
288.427
288.646
288.861
289.07
289.274
289.472
289.664
289.851
290.032
290.207
290.376
290.54
290.698
290.849
290.995
291.135
291.27
291.398
291.521
291.638
291.749
291.855
291.955
292.05
292.139
292.224
292.303
292.377
292.447
292.512
292.573
292.63
292.682
292.731
292.775
292.817
292.855
292.89
292.921
292.951
292.977
293.001
293.023
293.042
293.06
293.076
293.09
293.103
293.115
293.125
293.134
293.142
293.149
293.155
293.16
293.165
293.169
293.173
293.176
293.179
293.182
293.184
293.186
293.187
293.189
293.19
293.191
293.192
293.193
293.193
293.194
293.195
293.195
293.196
293.196
293.196
293.197
293.197
293.197
293.198
293.198
293.198
293.198
293.198
293.199
293.199
293.199
293.199
293.199
293.199
293.2
293.2
293.2
293.2
293.2
293.2
293.2
293.2
293.2
293.2
293.201
293.201
293.201
293.201
293.201
293.201
293.201
293.201
293.201
293.201
293.201
293.201
293.201
293.201
293.201
293.201
293.201
293.201
293.201
293.201
293.201
293.201
293.201
293.201
293.201
293.201
293.201
293.2
293.2
293.2
293.2
293.2
293.2
293.2
293.2
293.2
293.2
293.2
293.2
293.2
293.2
293.2
293.2
293.2
293.2
293.2
293.2
293.2
293.2
293.2
293.2
293.2
293.2
293.2
293.2
293.2
293.2
293.2
293.2
293.2
293.201
293.201
293.201
293.201
293.201
293.201
293.201
293.201
293.201
293.201
293.201
293.201
293.201
293.201
293.201
293.201
293.201
293.201
293.201
293.201
293.201
293.201
293.201
293.201
293.201
293.201
293.201
293.201
293.201
293.201
293.201
293.201
293.201
293.201
293.201
293.201
293.201
293.201
293.201
293.201
293.201
293.201
293.201
293.201
293.201
293.202
293.202
293.202
293.202
293.202
293.202
293.202
293.202
293.202
293.202
293.202
293.202
293.202
293.202
293.202
293.202
293.202
293.202
293.202
293.202
293.202
293.202
293.202
293.202
293.202
293.202
293.202
293.202
293.202
293.202
293.202
293.202
293.202
293.202
293.202
293.202
293.202
293.202
293.202
293.202
293.202
293.202
293.202
293.202
293.202
293.202
293.202
293.202
293.202
293.202
293.202
293.202
293.202
293.202
293.202
293.202
293.202
293.202
293.202
293.202
293.202
293.202
293.202
293.202
293.202
293.202
293.202
293.202
293.202
293.202
293.202
293.202
293.202
293.202
293.202
293.202
293.202
293.202
293.202
293.202
293.202
293.202
293.202
293.202
293.202
293.202
293.202
293.202
293.202
293.202
293.203
293.203
293.203
293.203
293.203
293.203
293.203
293.203
293.203
293.203
293.203
293.203
293.203
293.203
293.203
293.203
293.203
293.203
293.203
293.203
293.203
293.203
293.203
293.203
293.203
293.203
293.203
293.203
293.203
293.203
293.203
293.203
293.203
293.203
293.203
293.203
293.203
293.203
293.203
293.203
293.203
293.203
293.203
293.203
293.203
293.203
293.203
293.203
293.203
293.203
293.203
293.203
293.203
293.203
293.203
293.203
293.203
293.203
293.203
293.203
293.203
293.203
293.203
293.203
293.203
293.203
293.203
293.203
293.203
293.203
293.203
293.203
293.203
293.203
293.203
293.203
293.203
293.203
293.203
293.203
293.203
293.203
293.203
293.203
293.203
293.203
293.203
293.203
293.203
293.203
293.203
293.203
293.203
293.203
293.203
293.203
293.203
293.203
293.203
293.203
293.203
293.203
293.203
293.203
293.203
293.203
293.203
293.203
293.203
293.203
293.203
293.203
293.203
293.203
293.203
293.202
293.202
293.202
293.202
293.202
293.202
293.202
293.202
293.202
293.201
293.201
293.201
293.201
293.201
293.2
293.2
293.199
293.197
293.196
293.193
293.191
293.188
293.184
293.18
293.176
293.17
293.164
293.156
293.148
293.138
293.127
293.114
293.1
293.084
293.066
293.046
293.023
292.998
292.971
292.942
292.91
292.875
292.837
292.797
292.755
292.71
292.662
292.613
292.561
292.508
292.453
292.396
292.339
292.281
292.223
292.164
292.106
292.049
291.993
291.938
291.884
291.832
291.782
291.734
291.689
291.647
291.606
291.569
291.535
291.502
291.473
291.446
291.421
291.399
291.379
291.361
291.345
291.331
291.318
291.307
291.297
291.288
291.281
291.274
291.268
291.263
291.259
291.255
291.252
291.249
291.246
291.243
291.241
291.238
291.235
291.232
291.228
291.223
291.218
291.212
291.206
291.199
291.193
291.186
291.18
291.173
291.167
291.161
291.156
291.151
291.146
291.142
291.139
291.136
291.134
291.132
291.132
291.131
291.131
291.131
291.131
291.13
291.13
291.13
291.13
291.13
291.13
291.13
291.13
291.129
291.129
291.129
)
;

boundaryField
{
    sides
    {
        type            calculated;
        value           nonuniform List<scalar> 2(291.129 7.46182);
    }
    empty
    {
        type            empty;
    }
}


// ************************************************************************* //
