/*--------------------------------*- C++ -*----------------------------------*\
  =========                 |
  \\      /  F ield         | OpenFOAM: The Open Source CFD Toolbox
   \\    /   O peration     | Website:  https://openfoam.org
    \\  /    A nd           | Version:  9
     \\/     M anipulation  |
\*---------------------------------------------------------------------------*/
FoamFile
{
    format      ascii;
    class       volVectorField;
    location    "0.021";
    object      U;
}
// * * * * * * * * * * * * * * * * * * * * * * * * * * * * * * * * * * * * * //

dimensions      [0 1 -1 0 0 0 0];

internalField   nonuniform List<vector> 
1000
(
(7.46182 0 0)
(8.40601 0 0)
(9.15278 0 0)
(9.78871 0 0)
(10.4326 0 0)
(11.0976 0 0)
(11.7666 0 0)
(12.4327 0 0)
(13.0972 0 0)
(13.7618 0 0)
(14.4268 0 0)
(15.0919 0 0)
(15.757 0 0)
(16.4223 0 0)
(17.0876 0 0)
(17.7531 0 0)
(18.4186 0 0)
(19.0842 0 0)
(19.75 0 0)
(20.4158 0 0)
(21.0818 0 0)
(21.7478 0 0)
(22.4139 0 0)
(23.0801 0 0)
(23.7465 0 0)
(24.4129 0 0)
(25.0794 0 0)
(25.746 0 0)
(26.4127 0 0)
(27.0796 0 0)
(27.7465 0 0)
(28.4135 0 0)
(29.0806 0 0)
(29.7478 0 0)
(30.4151 0 0)
(31.0824 0 0)
(31.7499 0 0)
(32.4175 0 0)
(33.0852 0 0)
(33.7529 0 0)
(34.4208 0 0)
(35.0887 0 0)
(35.7568 0 0)
(36.4249 0 0)
(37.0932 0 0)
(37.7615 0 0)
(38.4299 0 0)
(39.0984 0 0)
(39.767 0 0)
(40.4357 0 0)
(41.1045 0 0)
(41.7733 0 0)
(42.4423 0 0)
(43.1113 0 0)
(43.7805 0 0)
(44.4497 0 0)
(45.119 0 0)
(45.7884 0 0)
(46.4579 0 0)
(47.1275 0 0)
(47.7972 0 0)
(48.4669 0 0)
(49.1368 0 0)
(49.8067 0 0)
(50.4767 0 0)
(51.1468 0 0)
(51.817 0 0)
(52.4872 0 0)
(53.1576 0 0)
(53.828 0 0)
(54.4986 0 0)
(55.1692 0 0)
(55.8399 0 0)
(56.5106 0 0)
(57.1815 0 0)
(57.8524 0 0)
(58.5234 0 0)
(59.1945 0 0)
(59.8657 0 0)
(60.537 0 0)
(61.2083 0 0)
(61.8798 0 0)
(62.5513 0 0)
(63.2228 0 0)
(63.8945 0 0)
(64.5662 0 0)
(65.2381 0 0)
(65.91 0 0)
(66.5819 0 0)
(67.254 0 0)
(67.9261 0 0)
(68.5983 0 0)
(69.2706 0 0)
(69.943 0 0)
(70.6154 0 0)
(71.2879 0 0)
(71.9605 0 0)
(72.6331 0 0)
(73.3059 0 0)
(73.9787 0 0)
(74.6515 0 0)
(75.3245 0 0)
(75.9975 0 0)
(76.6706 0 0)
(77.3438 0 0)
(78.017 0 0)
(78.6903 0 0)
(79.3637 0 0)
(80.0371 0 0)
(80.7106 0 0)
(81.3842 0 0)
(82.0579 0 0)
(82.7316 0 0)
(83.4054 0 0)
(84.0793 0 0)
(84.7532 0 0)
(85.4272 0 0)
(86.1013 0 0)
(86.7754 0 0)
(87.4496 0 0)
(88.1239 0 0)
(88.7982 0 0)
(89.4726 0 0)
(90.1471 0 0)
(90.8216 0 0)
(91.4962 0 0)
(92.1708 0 0)
(92.8455 0 0)
(93.5202 0 0)
(94.195 0 0)
(94.8699 0 0)
(95.5448 0 0)
(96.2198 0 0)
(96.8948 0 0)
(97.5698 0 0)
(98.2449 0 0)
(98.9201 0 0)
(99.5953 0 0)
(100.271 0 0)
(100.946 0 0)
(101.621 0 0)
(102.297 0 0)
(102.972 0 0)
(103.648 0 0)
(104.323 0 0)
(104.999 0 0)
(105.675 0 0)
(106.351 0 0)
(107.027 0 0)
(107.702 0 0)
(108.378 0 0)
(109.054 0 0)
(109.73 0 0)
(110.407 0 0)
(111.083 0 0)
(111.759 0 0)
(112.435 0 0)
(113.111 0 0)
(113.788 0 0)
(114.464 0 0)
(115.141 0 0)
(115.817 0 0)
(116.493 0 0)
(117.17 0 0)
(117.847 0 0)
(118.523 0 0)
(119.2 0 0)
(119.876 0 0)
(120.553 0 0)
(121.23 0 0)
(121.907 0 0)
(122.583 0 0)
(123.26 0 0)
(123.937 0 0)
(124.614 0 0)
(125.291 0 0)
(125.968 0 0)
(126.645 0 0)
(127.322 0 0)
(127.999 0 0)
(128.676 0 0)
(129.353 0 0)
(130.03 0 0)
(130.707 0 0)
(131.384 0 0)
(132.061 0 0)
(132.739 0 0)
(133.416 0 0)
(134.093 0 0)
(134.77 0 0)
(135.447 0 0)
(136.125 0 0)
(136.802 0 0)
(137.479 0 0)
(138.156 0 0)
(138.834 0 0)
(139.511 0 0)
(140.188 0 0)
(140.866 0 0)
(141.543 0 0)
(142.22 0 0)
(142.898 0 0)
(143.575 0 0)
(144.252 0 0)
(144.93 0 0)
(145.607 0 0)
(146.284 0 0)
(146.961 0 0)
(147.639 0 0)
(148.316 0 0)
(148.993 0 0)
(149.67 0 0)
(150.348 0 0)
(151.025 0 0)
(151.702 0 0)
(152.379 0 0)
(153.056 0 0)
(153.733 0 0)
(154.41 0 0)
(155.088 0 0)
(155.765 0 0)
(156.442 0 0)
(157.119 0 0)
(157.795 0 0)
(158.472 0 0)
(159.149 0 0)
(159.826 0 0)
(160.503 0 0)
(161.179 0 0)
(161.856 0 0)
(162.533 0 0)
(163.209 0 0)
(163.886 0 0)
(164.562 0 0)
(165.238 0 0)
(165.915 0 0)
(166.591 0 0)
(167.267 0 0)
(167.943 0 0)
(168.619 0 0)
(169.295 0 0)
(169.971 0 0)
(170.647 0 0)
(171.323 0 0)
(171.998 0 0)
(172.674 0 0)
(173.349 0 0)
(174.024 0 0)
(174.7 0 0)
(175.375 0 0)
(176.05 0 0)
(176.725 0 0)
(177.399 0 0)
(178.074 0 0)
(178.749 0 0)
(179.423 0 0)
(180.097 0 0)
(180.771 0 0)
(181.445 0 0)
(182.119 0 0)
(182.793 0 0)
(183.466 0 0)
(184.14 0 0)
(184.813 0 0)
(185.486 0 0)
(186.159 0 0)
(186.832 0 0)
(187.504 0 0)
(188.177 0 0)
(188.849 0 0)
(189.521 0 0)
(190.192 0 0)
(190.864 0 0)
(191.535 0 0)
(192.206 0 0)
(192.877 0 0)
(193.548 0 0)
(194.218 0 0)
(194.889 0 0)
(195.558 0 0)
(196.228 0 0)
(196.897 0 0)
(197.567 0 0)
(198.235 0 0)
(198.904 0 0)
(199.572 0 0)
(200.24 0 0)
(200.908 0 0)
(201.575 0 0)
(202.242 0 0)
(202.909 0 0)
(203.575 0 0)
(204.241 0 0)
(204.906 0 0)
(205.572 0 0)
(206.236 0 0)
(206.901 0 0)
(207.565 0 0)
(208.228 0 0)
(208.891 0 0)
(209.554 0 0)
(210.216 0 0)
(210.878 0 0)
(211.539 0 0)
(212.2 0 0)
(212.86 0 0)
(213.52 0 0)
(214.179 0 0)
(214.837 0 0)
(215.495 0 0)
(216.153 0 0)
(216.809 0 0)
(217.466 0 0)
(218.121 0 0)
(218.776 0 0)
(219.43 0 0)
(220.083 0 0)
(220.736 0 0)
(221.388 0 0)
(222.039 0 0)
(222.689 0 0)
(223.339 0 0)
(223.988 0 0)
(224.636 0 0)
(225.282 0 0)
(225.928 0 0)
(226.573 0 0)
(227.218 0 0)
(227.861 0 0)
(228.503 0 0)
(229.144 0 0)
(229.783 0 0)
(230.422 0 0)
(231.06 0 0)
(231.696 0 0)
(232.331 0 0)
(232.965 0 0)
(233.597 0 0)
(234.229 0 0)
(234.858 0 0)
(235.487 0 0)
(236.114 0 0)
(236.739 0 0)
(237.363 0 0)
(237.985 0 0)
(238.606 0 0)
(239.224 0 0)
(239.842 0 0)
(240.457 0 0)
(241.07 0 0)
(241.682 0 0)
(242.292 0 0)
(242.899 0 0)
(243.505 0 0)
(244.108 0 0)
(244.71 0 0)
(245.309 0 0)
(245.906 0 0)
(246.5 0 0)
(247.093 0 0)
(247.682 0 0)
(248.27 0 0)
(248.854 0 0)
(249.436 0 0)
(250.016 0 0)
(250.593 0 0)
(251.166 0 0)
(251.737 0 0)
(252.306 0 0)
(252.871 0 0)
(253.433 0 0)
(253.992 0 0)
(254.548 0 0)
(255.101 0 0)
(255.65 0 0)
(256.196 0 0)
(256.739 0 0)
(257.279 0 0)
(257.814 0 0)
(258.347 0 0)
(258.876 0 0)
(259.401 0 0)
(259.923 0 0)
(260.441 0 0)
(260.955 0 0)
(261.465 0 0)
(261.972 0 0)
(262.475 0 0)
(262.974 0 0)
(263.469 0 0)
(263.96 0 0)
(264.448 0 0)
(264.931 0 0)
(265.41 0 0)
(265.886 0 0)
(266.357 0 0)
(266.825 0 0)
(267.288 0 0)
(267.748 0 0)
(268.203 0 0)
(268.655 0 0)
(269.102 0 0)
(269.546 0 0)
(269.986 0 0)
(270.422 0 0)
(270.853 0 0)
(271.281 0 0)
(271.705 0 0)
(272.126 0 0)
(272.542 0 0)
(272.954 0 0)
(273.363 0 0)
(273.768 0 0)
(274.17 0 0)
(274.567 0 0)
(274.961 0 0)
(275.351 0 0)
(275.738 0 0)
(276.121 0 0)
(276.501 0 0)
(276.876 0 0)
(277.249 0 0)
(277.618 0 0)
(277.983 0 0)
(278.345 0 0)
(278.703 0 0)
(279.058 0 0)
(279.41 0 0)
(279.758 0 0)
(280.102 0 0)
(280.443 0 0)
(280.781 0 0)
(281.115 0 0)
(281.445 0 0)
(281.772 0 0)
(282.095 0 0)
(282.415 0 0)
(282.731 0 0)
(283.044 0 0)
(283.353 0 0)
(283.658 0 0)
(283.959 0 0)
(284.256 0 0)
(284.55 0 0)
(284.839 0 0)
(285.124 0 0)
(285.405 0 0)
(285.682 0 0)
(285.955 0 0)
(286.223 0 0)
(286.487 0 0)
(286.746 0 0)
(287.001 0 0)
(287.251 0 0)
(287.496 0 0)
(287.736 0 0)
(287.971 0 0)
(288.202 0 0)
(288.427 0 0)
(288.646 0 0)
(288.861 0 0)
(289.07 0 0)
(289.274 0 0)
(289.472 0 0)
(289.664 0 0)
(289.851 0 0)
(290.032 0 0)
(290.207 0 0)
(290.376 0 0)
(290.54 0 0)
(290.698 0 0)
(290.849 0 0)
(290.995 0 0)
(291.135 0 0)
(291.27 0 0)
(291.398 0 0)
(291.521 0 0)
(291.638 0 0)
(291.749 0 0)
(291.855 0 0)
(291.955 0 0)
(292.05 0 0)
(292.139 0 0)
(292.224 0 0)
(292.303 0 0)
(292.377 0 0)
(292.447 0 0)
(292.512 0 0)
(292.573 0 0)
(292.63 0 0)
(292.682 0 0)
(292.731 0 0)
(292.775 0 0)
(292.817 0 0)
(292.855 0 0)
(292.89 0 0)
(292.921 0 0)
(292.951 0 0)
(292.977 0 0)
(293.001 0 0)
(293.023 0 0)
(293.042 0 0)
(293.06 0 0)
(293.076 0 0)
(293.09 0 0)
(293.103 0 0)
(293.115 0 0)
(293.125 0 0)
(293.134 0 0)
(293.142 0 0)
(293.149 0 0)
(293.155 0 0)
(293.16 0 0)
(293.165 0 0)
(293.169 0 0)
(293.173 0 0)
(293.176 0 0)
(293.179 0 0)
(293.182 0 0)
(293.184 0 0)
(293.186 0 0)
(293.187 0 0)
(293.189 0 0)
(293.19 0 0)
(293.191 0 0)
(293.192 0 0)
(293.193 0 0)
(293.193 0 0)
(293.194 0 0)
(293.195 0 0)
(293.195 0 0)
(293.196 0 0)
(293.196 0 0)
(293.196 0 0)
(293.197 0 0)
(293.197 0 0)
(293.197 0 0)
(293.198 0 0)
(293.198 0 0)
(293.198 0 0)
(293.198 0 0)
(293.198 0 0)
(293.199 0 0)
(293.199 0 0)
(293.199 0 0)
(293.199 0 0)
(293.199 0 0)
(293.199 0 0)
(293.2 0 0)
(293.2 0 0)
(293.2 0 0)
(293.2 0 0)
(293.2 0 0)
(293.2 0 0)
(293.2 0 0)
(293.2 0 0)
(293.2 0 0)
(293.2 0 0)
(293.201 0 0)
(293.201 0 0)
(293.201 0 0)
(293.201 0 0)
(293.201 0 0)
(293.201 0 0)
(293.201 0 0)
(293.201 0 0)
(293.201 0 0)
(293.201 0 0)
(293.201 0 0)
(293.201 0 0)
(293.201 0 0)
(293.201 0 0)
(293.201 0 0)
(293.201 0 0)
(293.201 0 0)
(293.201 0 0)
(293.201 0 0)
(293.201 0 0)
(293.201 0 0)
(293.201 0 0)
(293.201 0 0)
(293.201 0 0)
(293.201 0 0)
(293.201 0 0)
(293.201 0 0)
(293.2 0 0)
(293.2 0 0)
(293.2 0 0)
(293.2 0 0)
(293.2 0 0)
(293.2 0 0)
(293.2 0 0)
(293.2 0 0)
(293.2 0 0)
(293.2 0 0)
(293.2 0 0)
(293.2 0 0)
(293.2 0 0)
(293.2 0 0)
(293.2 0 0)
(293.2 0 0)
(293.2 0 0)
(293.2 0 0)
(293.2 0 0)
(293.2 0 0)
(293.2 0 0)
(293.2 0 0)
(293.2 0 0)
(293.2 0 0)
(293.2 0 0)
(293.2 0 0)
(293.2 0 0)
(293.2 0 0)
(293.2 0 0)
(293.2 0 0)
(293.2 0 0)
(293.2 0 0)
(293.2 0 0)
(293.201 0 0)
(293.201 0 0)
(293.201 0 0)
(293.201 0 0)
(293.201 0 0)
(293.201 0 0)
(293.201 0 0)
(293.201 0 0)
(293.201 0 0)
(293.201 0 0)
(293.201 0 0)
(293.201 0 0)
(293.201 0 0)
(293.201 0 0)
(293.201 0 0)
(293.201 0 0)
(293.201 0 0)
(293.201 0 0)
(293.201 0 0)
(293.201 0 0)
(293.201 0 0)
(293.201 0 0)
(293.201 0 0)
(293.201 0 0)
(293.201 0 0)
(293.201 0 0)
(293.201 0 0)
(293.201 0 0)
(293.201 0 0)
(293.201 0 0)
(293.201 0 0)
(293.201 0 0)
(293.201 0 0)
(293.201 0 0)
(293.201 0 0)
(293.201 0 0)
(293.201 0 0)
(293.201 0 0)
(293.201 0 0)
(293.201 0 0)
(293.201 0 0)
(293.201 0 0)
(293.201 0 0)
(293.201 0 0)
(293.201 0 0)
(293.202 0 0)
(293.202 0 0)
(293.202 0 0)
(293.202 0 0)
(293.202 0 0)
(293.202 0 0)
(293.202 0 0)
(293.202 0 0)
(293.202 0 0)
(293.202 0 0)
(293.202 0 0)
(293.202 0 0)
(293.202 0 0)
(293.202 0 0)
(293.202 0 0)
(293.202 0 0)
(293.202 0 0)
(293.202 0 0)
(293.202 0 0)
(293.202 0 0)
(293.202 0 0)
(293.202 0 0)
(293.202 0 0)
(293.202 0 0)
(293.202 0 0)
(293.202 0 0)
(293.202 0 0)
(293.202 0 0)
(293.202 0 0)
(293.202 0 0)
(293.202 0 0)
(293.202 0 0)
(293.202 0 0)
(293.202 0 0)
(293.202 0 0)
(293.202 0 0)
(293.202 0 0)
(293.202 0 0)
(293.202 0 0)
(293.202 0 0)
(293.202 0 0)
(293.202 0 0)
(293.202 0 0)
(293.202 0 0)
(293.202 0 0)
(293.202 0 0)
(293.202 0 0)
(293.202 0 0)
(293.202 0 0)
(293.202 0 0)
(293.202 0 0)
(293.202 0 0)
(293.202 0 0)
(293.202 0 0)
(293.202 0 0)
(293.202 0 0)
(293.202 0 0)
(293.202 0 0)
(293.202 0 0)
(293.202 0 0)
(293.202 0 0)
(293.202 0 0)
(293.202 0 0)
(293.202 0 0)
(293.202 0 0)
(293.202 0 0)
(293.202 0 0)
(293.202 0 0)
(293.202 0 0)
(293.202 0 0)
(293.202 0 0)
(293.202 0 0)
(293.202 0 0)
(293.202 0 0)
(293.202 0 0)
(293.202 0 0)
(293.202 0 0)
(293.202 0 0)
(293.202 0 0)
(293.202 0 0)
(293.202 0 0)
(293.202 0 0)
(293.202 0 0)
(293.202 0 0)
(293.202 0 0)
(293.202 0 0)
(293.202 0 0)
(293.202 0 0)
(293.202 0 0)
(293.202 0 0)
(293.203 0 0)
(293.203 0 0)
(293.203 0 0)
(293.203 0 0)
(293.203 0 0)
(293.203 0 0)
(293.203 0 0)
(293.203 0 0)
(293.203 0 0)
(293.203 0 0)
(293.203 0 0)
(293.203 0 0)
(293.203 0 0)
(293.203 0 0)
(293.203 0 0)
(293.203 0 0)
(293.203 0 0)
(293.203 0 0)
(293.203 0 0)
(293.203 0 0)
(293.203 0 0)
(293.203 0 0)
(293.203 0 0)
(293.203 0 0)
(293.203 0 0)
(293.203 0 0)
(293.203 0 0)
(293.203 0 0)
(293.203 0 0)
(293.203 0 0)
(293.203 0 0)
(293.203 0 0)
(293.203 0 0)
(293.203 0 0)
(293.203 0 0)
(293.203 0 0)
(293.203 0 0)
(293.203 0 0)
(293.203 0 0)
(293.203 0 0)
(293.203 0 0)
(293.203 0 0)
(293.203 0 0)
(293.203 0 0)
(293.203 0 0)
(293.203 0 0)
(293.203 0 0)
(293.203 0 0)
(293.203 0 0)
(293.203 0 0)
(293.203 0 0)
(293.203 0 0)
(293.203 0 0)
(293.203 0 0)
(293.203 0 0)
(293.203 0 0)
(293.203 0 0)
(293.203 0 0)
(293.203 0 0)
(293.203 0 0)
(293.203 0 0)
(293.203 0 0)
(293.203 0 0)
(293.203 0 0)
(293.203 0 0)
(293.203 0 0)
(293.203 0 0)
(293.203 0 0)
(293.203 0 0)
(293.203 0 0)
(293.203 0 0)
(293.203 0 0)
(293.203 0 0)
(293.203 0 0)
(293.203 0 0)
(293.203 0 0)
(293.203 0 0)
(293.203 0 0)
(293.203 0 0)
(293.203 0 0)
(293.203 0 0)
(293.203 0 0)
(293.203 0 0)
(293.203 0 0)
(293.203 0 0)
(293.203 0 0)
(293.203 0 0)
(293.203 0 0)
(293.203 0 0)
(293.203 0 0)
(293.203 0 0)
(293.203 0 0)
(293.203 0 0)
(293.203 0 0)
(293.203 0 0)
(293.203 0 0)
(293.203 0 0)
(293.203 0 0)
(293.203 0 0)
(293.203 0 0)
(293.203 0 0)
(293.203 0 0)
(293.203 0 0)
(293.203 0 0)
(293.203 0 0)
(293.203 0 0)
(293.203 0 0)
(293.203 0 0)
(293.203 0 0)
(293.203 0 0)
(293.203 0 0)
(293.203 0 0)
(293.203 0 0)
(293.203 0 0)
(293.203 0 0)
(293.202 0 0)
(293.202 0 0)
(293.202 0 0)
(293.202 0 0)
(293.202 0 0)
(293.202 0 0)
(293.202 0 0)
(293.202 0 0)
(293.202 0 0)
(293.201 0 0)
(293.201 0 0)
(293.201 0 0)
(293.201 0 0)
(293.201 0 0)
(293.2 0 0)
(293.2 0 0)
(293.199 0 0)
(293.197 0 0)
(293.196 0 0)
(293.193 0 0)
(293.191 0 0)
(293.188 0 0)
(293.184 0 0)
(293.18 0 0)
(293.176 0 0)
(293.17 0 0)
(293.164 0 0)
(293.156 0 0)
(293.148 0 0)
(293.138 0 0)
(293.127 0 0)
(293.114 0 0)
(293.1 0 0)
(293.084 0 0)
(293.066 0 0)
(293.046 0 0)
(293.023 0 0)
(292.998 0 0)
(292.971 0 0)
(292.942 0 0)
(292.91 0 0)
(292.875 0 0)
(292.837 0 0)
(292.797 0 0)
(292.755 0 0)
(292.71 0 0)
(292.662 0 0)
(292.613 0 0)
(292.561 0 0)
(292.508 0 0)
(292.453 0 0)
(292.396 0 0)
(292.339 0 0)
(292.281 0 0)
(292.223 0 0)
(292.164 0 0)
(292.106 0 0)
(292.049 0 0)
(291.993 0 0)
(291.938 0 0)
(291.884 0 0)
(291.832 0 0)
(291.782 0 0)
(291.734 0 0)
(291.689 0 0)
(291.647 0 0)
(291.606 0 0)
(291.569 0 0)
(291.535 0 0)
(291.502 0 0)
(291.473 0 0)
(291.446 0 0)
(291.421 0 0)
(291.399 0 0)
(291.379 0 0)
(291.361 0 0)
(291.345 0 0)
(291.331 0 0)
(291.318 0 0)
(291.307 0 0)
(291.297 0 0)
(291.288 0 0)
(291.281 0 0)
(291.274 0 0)
(291.268 0 0)
(291.263 0 0)
(291.259 0 0)
(291.255 0 0)
(291.252 0 0)
(291.249 0 0)
(291.246 0 0)
(291.243 0 0)
(291.241 0 0)
(291.238 0 0)
(291.235 0 0)
(291.232 0 0)
(291.228 0 0)
(291.223 0 0)
(291.218 0 0)
(291.212 0 0)
(291.206 0 0)
(291.199 0 0)
(291.193 0 0)
(291.186 0 0)
(291.18 0 0)
(291.173 0 0)
(291.167 0 0)
(291.161 0 0)
(291.156 0 0)
(291.151 0 0)
(291.146 0 0)
(291.142 0 0)
(291.139 0 0)
(291.136 0 0)
(291.134 0 0)
(291.132 0 0)
(291.132 0 0)
(291.131 0 0)
(291.131 0 0)
(291.131 0 0)
(291.131 0 0)
(291.13 0 0)
(291.13 0 0)
(291.13 0 0)
(291.13 0 0)
(291.13 0 0)
(291.13 0 0)
(291.13 0 0)
(291.13 0 0)
(291.129 0 0)
(291.129 0 0)
(291.129 0 0)
)
;

boundaryField
{
    sides
    {
        type            zeroGradient;
    }
    empty
    {
        type            empty;
    }
}


// ************************************************************************* //
