/*--------------------------------*- C++ -*----------------------------------*\
  =========                 |
  \\      /  F ield         | OpenFOAM: The Open Source CFD Toolbox
   \\    /   O peration     | Website:  https://openfoam.org
    \\  /    A nd           | Version:  9
     \\/     M anipulation  |
\*---------------------------------------------------------------------------*/
FoamFile
{
    format      ascii;
    class       volVectorField;
    location    "0.014";
    object      U;
}
// * * * * * * * * * * * * * * * * * * * * * * * * * * * * * * * * * * * * * //

dimensions      [0 1 -1 0 0 0 0];

internalField   nonuniform List<vector> 
10000
(
(0.196615 0 0)
(0.406751 0 0)
(0.455704 0 0)
(0.603739 0 0)
(0.705318 0 0)
(0.818534 0 0)
(0.9335 0 0)
(1.0467 0 0)
(1.15993 0 0)
(1.27327 0 0)
(1.38662 0 0)
(1.49996 0 0)
(1.6133 0 0)
(1.72663 0 0)
(1.83996 0 0)
(1.95329 0 0)
(2.06661 0 0)
(2.17993 0 0)
(2.29325 0 0)
(2.40656 0 0)
(2.51987 0 0)
(2.63318 0 0)
(2.74647 0 0)
(2.85977 0 0)
(2.97306 0 0)
(3.08634 0 0)
(3.19961 0 0)
(3.31288 0 0)
(3.42615 0 0)
(3.53941 0 0)
(3.65266 0 0)
(3.7659 0 0)
(3.87914 0 0)
(3.99237 0 0)
(4.10559 0 0)
(4.2188 0 0)
(4.33201 0 0)
(4.44521 0 0)
(4.5584 0 0)
(4.67158 0 0)
(4.78475 0 0)
(4.89791 0 0)
(5.01106 0 0)
(5.1242 0 0)
(5.23733 0 0)
(5.35045 0 0)
(5.46356 0 0)
(5.57666 0 0)
(5.68975 0 0)
(5.80282 0 0)
(5.91589 0 0)
(6.02894 0 0)
(6.14198 0 0)
(6.25501 0 0)
(6.36802 0 0)
(6.48102 0 0)
(6.59401 0 0)
(6.70699 0 0)
(6.81995 0 0)
(6.93289 0 0)
(7.04582 0 0)
(7.15874 0 0)
(7.27164 0 0)
(7.38452 0 0)
(7.49739 0 0)
(7.61025 0 0)
(7.72308 0 0)
(7.8359 0 0)
(7.94871 0 0)
(8.06149 0 0)
(8.17426 0 0)
(8.28701 0 0)
(8.39974 0 0)
(8.51246 0 0)
(8.62515 0 0)
(8.73782 0 0)
(8.85048 0 0)
(8.96311 0 0)
(9.07573 0 0)
(9.18832 0 0)
(9.30089 0 0)
(9.41344 0 0)
(9.52597 0 0)
(9.63848 0 0)
(9.75096 0 0)
(9.86342 0 0)
(9.97586 0 0)
(10.0883 0 0)
(10.2007 0 0)
(10.313 0 0)
(10.4254 0 0)
(10.5377 0 0)
(10.65 0 0)
(10.7622 0 0)
(10.8745 0 0)
(10.9867 0 0)
(11.0989 0 0)
(11.211 0 0)
(11.3231 0 0)
(11.4352 0 0)
(11.5473 0 0)
(11.6593 0 0)
(11.7713 0 0)
(11.8833 0 0)
(11.9953 0 0)
(12.1072 0 0)
(12.219 0 0)
(12.3309 0 0)
(12.4427 0 0)
(12.5545 0 0)
(12.6662 0 0)
(12.7779 0 0)
(12.8896 0 0)
(13.0013 0 0)
(13.1129 0 0)
(13.2244 0 0)
(13.3359 0 0)
(13.4474 0 0)
(13.5589 0 0)
(13.6703 0 0)
(13.7817 0 0)
(13.893 0 0)
(14.0043 0 0)
(14.1155 0 0)
(14.2267 0 0)
(14.3379 0 0)
(14.449 0 0)
(14.5601 0 0)
(14.6711 0 0)
(14.7821 0 0)
(14.893 0 0)
(15.0039 0 0)
(15.1148 0 0)
(15.2256 0 0)
(15.3363 0 0)
(15.447 0 0)
(15.5576 0 0)
(15.6682 0 0)
(15.7788 0 0)
(15.8892 0 0)
(15.9997 0 0)
(16.11 0 0)
(16.2204 0 0)
(16.3306 0 0)
(16.4408 0 0)
(16.551 0 0)
(16.661 0 0)
(16.7711 0 0)
(16.881 0 0)
(16.9909 0 0)
(17.1008 0 0)
(17.2106 0 0)
(17.3203 0 0)
(17.4299 0 0)
(17.5395 0 0)
(17.649 0 0)
(17.7584 0 0)
(17.8678 0 0)
(17.9771 0 0)
(18.0863 0 0)
(18.1955 0 0)
(18.3046 0 0)
(18.4136 0 0)
(18.5225 0 0)
(18.6313 0 0)
(18.7401 0 0)
(18.8488 0 0)
(18.9574 0 0)
(19.0659 0 0)
(19.1744 0 0)
(19.2827 0 0)
(19.391 0 0)
(19.4992 0 0)
(19.6073 0 0)
(19.7153 0 0)
(19.8232 0 0)
(19.931 0 0)
(20.0388 0 0)
(20.1464 0 0)
(20.2539 0 0)
(20.3614 0 0)
(20.4687 0 0)
(20.5759 0 0)
(20.683 0 0)
(20.7901 0 0)
(20.897 0 0)
(21.0038 0 0)
(21.1105 0 0)
(21.2171 0 0)
(21.3235 0 0)
(21.4299 0 0)
(21.5361 0 0)
(21.6423 0 0)
(21.7483 0 0)
(21.8541 0 0)
(21.9599 0 0)
(22.0655 0 0)
(22.171 0 0)
(22.2764 0 0)
(22.3816 0 0)
(22.4867 0 0)
(22.5917 0 0)
(22.6966 0 0)
(22.8012 0 0)
(22.9058 0 0)
(23.0102 0 0)
(23.1145 0 0)
(23.2186 0 0)
(23.3226 0 0)
(23.4264 0 0)
(23.53 0 0)
(23.6335 0 0)
(23.7369 0 0)
(23.8401 0 0)
(23.9431 0 0)
(24.0459 0 0)
(24.1486 0 0)
(24.2511 0 0)
(24.3535 0 0)
(24.4557 0 0)
(24.5576 0 0)
(24.6595 0 0)
(24.7611 0 0)
(24.8625 0 0)
(24.9638 0 0)
(25.0648 0 0)
(25.1657 0 0)
(25.2664 0 0)
(25.3668 0 0)
(25.4671 0 0)
(25.5672 0 0)
(25.667 0 0)
(25.7667 0 0)
(25.8661 0 0)
(25.9653 0 0)
(26.0643 0 0)
(26.1631 0 0)
(26.2617 0 0)
(26.36 0 0)
(26.4581 0 0)
(26.556 0 0)
(26.6536 0 0)
(26.751 0 0)
(26.8482 0 0)
(26.9451 0 0)
(27.0417 0 0)
(27.1381 0 0)
(27.2343 0 0)
(27.3302 0 0)
(27.4259 0 0)
(27.5212 0 0)
(27.6164 0 0)
(27.7112 0 0)
(27.8058 0 0)
(27.9001 0 0)
(27.9941 0 0)
(28.0879 0 0)
(28.1813 0 0)
(28.2745 0 0)
(28.3674 0 0)
(28.46 0 0)
(28.5523 0 0)
(28.6443 0 0)
(28.736 0 0)
(28.8274 0 0)
(28.9185 0 0)
(29.0093 0 0)
(29.0998 0 0)
(29.19 0 0)
(29.2799 0 0)
(29.3694 0 0)
(29.4586 0 0)
(29.5475 0 0)
(29.6361 0 0)
(29.7243 0 0)
(29.8123 0 0)
(29.8999 0 0)
(29.9871 0 0)
(30.074 0 0)
(30.1606 0 0)
(30.2468 0 0)
(30.3327 0 0)
(30.4183 0 0)
(30.5035 0 0)
(30.5884 0 0)
(30.6729 0 0)
(30.7571 0 0)
(30.8409 0 0)
(30.9243 0 0)
(31.0075 0 0)
(31.0902 0 0)
(31.1726 0 0)
(31.2547 0 0)
(31.3364 0 0)
(31.4177 0 0)
(31.4987 0 0)
(31.5794 0 0)
(31.6596 0 0)
(31.7396 0 0)
(31.8191 0 0)
(31.8983 0 0)
(31.9772 0 0)
(32.0557 0 0)
(32.1338 0 0)
(32.2116 0 0)
(32.289 0 0)
(32.3661 0 0)
(32.4429 0 0)
(32.5193 0 0)
(32.5953 0 0)
(32.671 0 0)
(32.7463 0 0)
(32.8214 0 0)
(32.896 0 0)
(32.9703 0 0)
(33.0443 0 0)
(33.118 0 0)
(33.1913 0 0)
(33.2643 0 0)
(33.337 0 0)
(33.4094 0 0)
(33.4814 0 0)
(33.5531 0 0)
(33.6245 0 0)
(33.6956 0 0)
(33.7664 0 0)
(33.8369 0 0)
(33.9071 0 0)
(33.977 0 0)
(34.0466 0 0)
(34.1159 0 0)
(34.1849 0 0)
(34.2537 0 0)
(34.3222 0 0)
(34.3904 0 0)
(34.4583 0 0)
(34.526 0 0)
(34.5934 0 0)
(34.6606 0 0)
(34.7275 0 0)
(34.7942 0 0)
(34.8606 0 0)
(34.9269 0 0)
(34.9928 0 0)
(35.0586 0 0)
(35.1241 0 0)
(35.1894 0 0)
(35.2545 0 0)
(35.3194 0 0)
(35.3842 0 0)
(35.4487 0 0)
(35.513 0 0)
(35.5771 0 0)
(35.641 0 0)
(35.7048 0 0)
(35.7684 0 0)
(35.8319 0 0)
(35.8951 0 0)
(35.9582 0 0)
(36.0212 0 0)
(36.084 0 0)
(36.1467 0 0)
(36.2092 0 0)
(36.2716 0 0)
(36.3338 0 0)
(36.3959 0 0)
(36.4579 0 0)
(36.5198 0 0)
(36.5816 0 0)
(36.6433 0 0)
(36.7048 0 0)
(36.7662 0 0)
(36.8276 0 0)
(36.8888 0 0)
(36.95 0 0)
(37.0111 0 0)
(37.072 0 0)
(37.1329 0 0)
(37.1938 0 0)
(37.2545 0 0)
(37.3152 0 0)
(37.3758 0 0)
(37.4363 0 0)
(37.4968 0 0)
(37.5572 0 0)
(37.6175 0 0)
(37.6778 0 0)
(37.738 0 0)
(37.7982 0 0)
(37.8583 0 0)
(37.9184 0 0)
(37.9785 0 0)
(38.0385 0 0)
(38.0984 0 0)
(38.1583 0 0)
(38.2182 0 0)
(38.2781 0 0)
(38.3379 0 0)
(38.3977 0 0)
(38.4574 0 0)
(38.5171 0 0)
(38.5768 0 0)
(38.6365 0 0)
(38.6961 0 0)
(38.7557 0 0)
(38.8153 0 0)
(38.8749 0 0)
(38.9345 0 0)
(38.994 0 0)
(39.0535 0 0)
(39.113 0 0)
(39.1725 0 0)
(39.232 0 0)
(39.2915 0 0)
(39.3509 0 0)
(39.4104 0 0)
(39.4698 0 0)
(39.5292 0 0)
(39.5886 0 0)
(39.648 0 0)
(39.7074 0 0)
(39.7668 0 0)
(39.8261 0 0)
(39.8855 0 0)
(39.9449 0 0)
(40.0042 0 0)
(40.0636 0 0)
(40.1229 0 0)
(40.1822 0 0)
(40.2416 0 0)
(40.3009 0 0)
(40.3602 0 0)
(40.4195 0 0)
(40.4788 0 0)
(40.5382 0 0)
(40.5975 0 0)
(40.6568 0 0)
(40.7161 0 0)
(40.7754 0 0)
(40.8347 0 0)
(40.894 0 0)
(40.9533 0 0)
(41.0126 0 0)
(41.0719 0 0)
(41.1311 0 0)
(41.1904 0 0)
(41.2497 0 0)
(41.309 0 0)
(41.3683 0 0)
(41.4276 0 0)
(41.4869 0 0)
(41.5462 0 0)
(41.6055 0 0)
(41.6648 0 0)
(41.724 0 0)
(41.7833 0 0)
(41.8426 0 0)
(41.9019 0 0)
(41.9612 0 0)
(42.0205 0 0)
(42.0798 0 0)
(42.139 0 0)
(42.1983 0 0)
(42.2576 0 0)
(42.3169 0 0)
(42.3762 0 0)
(42.4355 0 0)
(42.4948 0 0)
(42.5541 0 0)
(42.6134 0 0)
(42.6726 0 0)
(42.7319 0 0)
(42.7912 0 0)
(42.8505 0 0)
(42.9098 0 0)
(42.9691 0 0)
(43.0284 0 0)
(43.0877 0 0)
(43.147 0 0)
(43.2063 0 0)
(43.2656 0 0)
(43.3249 0 0)
(43.3842 0 0)
(43.4435 0 0)
(43.5028 0 0)
(43.5621 0 0)
(43.6214 0 0)
(43.6807 0 0)
(43.74 0 0)
(43.7993 0 0)
(43.8586 0 0)
(43.9179 0 0)
(43.9772 0 0)
(44.0365 0 0)
(44.0958 0 0)
(44.1551 0 0)
(44.2144 0 0)
(44.2737 0 0)
(44.333 0 0)
(44.3923 0 0)
(44.4516 0 0)
(44.5109 0 0)
(44.5702 0 0)
(44.6295 0 0)
(44.6888 0 0)
(44.7482 0 0)
(44.8075 0 0)
(44.8668 0 0)
(44.9261 0 0)
(44.9854 0 0)
(45.0447 0 0)
(45.104 0 0)
(45.1633 0 0)
(45.2227 0 0)
(45.282 0 0)
(45.3413 0 0)
(45.4006 0 0)
(45.4599 0 0)
(45.5192 0 0)
(45.5786 0 0)
(45.6379 0 0)
(45.6972 0 0)
(45.7565 0 0)
(45.8158 0 0)
(45.8752 0 0)
(45.9345 0 0)
(45.9938 0 0)
(46.0531 0 0)
(46.1124 0 0)
(46.1718 0 0)
(46.2311 0 0)
(46.2904 0 0)
(46.3497 0 0)
(46.4091 0 0)
(46.4684 0 0)
(46.5277 0 0)
(46.5871 0 0)
(46.6464 0 0)
(46.7057 0 0)
(46.765 0 0)
(46.8244 0 0)
(46.8837 0 0)
(46.943 0 0)
(47.0024 0 0)
(47.0617 0 0)
(47.121 0 0)
(47.1804 0 0)
(47.2397 0 0)
(47.299 0 0)
(47.3584 0 0)
(47.4177 0 0)
(47.477 0 0)
(47.5364 0 0)
(47.5957 0 0)
(47.655 0 0)
(47.7144 0 0)
(47.7737 0 0)
(47.833 0 0)
(47.8924 0 0)
(47.9517 0 0)
(48.0111 0 0)
(48.0704 0 0)
(48.1297 0 0)
(48.1891 0 0)
(48.2484 0 0)
(48.3078 0 0)
(48.3671 0 0)
(48.4264 0 0)
(48.4858 0 0)
(48.5451 0 0)
(48.6045 0 0)
(48.6638 0 0)
(48.7232 0 0)
(48.7825 0 0)
(48.8419 0 0)
(48.9012 0 0)
(48.9606 0 0)
(49.0199 0 0)
(49.0793 0 0)
(49.1386 0 0)
(49.1979 0 0)
(49.2573 0 0)
(49.3166 0 0)
(49.376 0 0)
(49.4353 0 0)
(49.4947 0 0)
(49.554 0 0)
(49.6134 0 0)
(49.6728 0 0)
(49.7321 0 0)
(49.7915 0 0)
(49.8508 0 0)
(49.9102 0 0)
(49.9695 0 0)
(50.0289 0 0)
(50.0882 0 0)
(50.1476 0 0)
(50.2069 0 0)
(50.2663 0 0)
(50.3257 0 0)
(50.385 0 0)
(50.4444 0 0)
(50.5037 0 0)
(50.5631 0 0)
(50.6224 0 0)
(50.6818 0 0)
(50.7412 0 0)
(50.8005 0 0)
(50.8599 0 0)
(50.9193 0 0)
(50.9786 0 0)
(51.038 0 0)
(51.0973 0 0)
(51.1567 0 0)
(51.2161 0 0)
(51.2754 0 0)
(51.3348 0 0)
(51.3942 0 0)
(51.4535 0 0)
(51.5129 0 0)
(51.5722 0 0)
(51.6316 0 0)
(51.691 0 0)
(51.7503 0 0)
(51.8097 0 0)
(51.8691 0 0)
(51.9284 0 0)
(51.9878 0 0)
(52.0472 0 0)
(52.1066 0 0)
(52.1659 0 0)
(52.2253 0 0)
(52.2847 0 0)
(52.344 0 0)
(52.4034 0 0)
(52.4628 0 0)
(52.5221 0 0)
(52.5815 0 0)
(52.6409 0 0)
(52.7003 0 0)
(52.7596 0 0)
(52.819 0 0)
(52.8784 0 0)
(52.9378 0 0)
(52.9971 0 0)
(53.0565 0 0)
(53.1159 0 0)
(53.1753 0 0)
(53.2346 0 0)
(53.294 0 0)
(53.3534 0 0)
(53.4128 0 0)
(53.4721 0 0)
(53.5315 0 0)
(53.5909 0 0)
(53.6503 0 0)
(53.7097 0 0)
(53.769 0 0)
(53.8284 0 0)
(53.8878 0 0)
(53.9472 0 0)
(54.0066 0 0)
(54.0659 0 0)
(54.1253 0 0)
(54.1847 0 0)
(54.2441 0 0)
(54.3035 0 0)
(54.3628 0 0)
(54.4222 0 0)
(54.4816 0 0)
(54.541 0 0)
(54.6004 0 0)
(54.6598 0 0)
(54.7191 0 0)
(54.7785 0 0)
(54.8379 0 0)
(54.8973 0 0)
(54.9567 0 0)
(55.0161 0 0)
(55.0755 0 0)
(55.1348 0 0)
(55.1942 0 0)
(55.2536 0 0)
(55.313 0 0)
(55.3724 0 0)
(55.4318 0 0)
(55.4912 0 0)
(55.5506 0 0)
(55.6099 0 0)
(55.6693 0 0)
(55.7287 0 0)
(55.7881 0 0)
(55.8475 0 0)
(55.9069 0 0)
(55.9663 0 0)
(56.0257 0 0)
(56.0851 0 0)
(56.1445 0 0)
(56.2039 0 0)
(56.2632 0 0)
(56.3226 0 0)
(56.382 0 0)
(56.4414 0 0)
(56.5008 0 0)
(56.5602 0 0)
(56.6196 0 0)
(56.679 0 0)
(56.7384 0 0)
(56.7978 0 0)
(56.8572 0 0)
(56.9166 0 0)
(56.976 0 0)
(57.0354 0 0)
(57.0948 0 0)
(57.1542 0 0)
(57.2136 0 0)
(57.273 0 0)
(57.3324 0 0)
(57.3918 0 0)
(57.4512 0 0)
(57.5106 0 0)
(57.57 0 0)
(57.6294 0 0)
(57.6888 0 0)
(57.7482 0 0)
(57.8076 0 0)
(57.867 0 0)
(57.9264 0 0)
(57.9858 0 0)
(58.0452 0 0)
(58.1046 0 0)
(58.164 0 0)
(58.2234 0 0)
(58.2828 0 0)
(58.3422 0 0)
(58.4016 0 0)
(58.461 0 0)
(58.5204 0 0)
(58.5798 0 0)
(58.6392 0 0)
(58.6986 0 0)
(58.758 0 0)
(58.8174 0 0)
(58.8768 0 0)
(58.9362 0 0)
(58.9956 0 0)
(59.055 0 0)
(59.1144 0 0)
(59.1738 0 0)
(59.2332 0 0)
(59.2926 0 0)
(59.352 0 0)
(59.4115 0 0)
(59.4709 0 0)
(59.5303 0 0)
(59.5897 0 0)
(59.6491 0 0)
(59.7085 0 0)
(59.7679 0 0)
(59.8273 0 0)
(59.8867 0 0)
(59.9461 0 0)
(60.0055 0 0)
(60.0649 0 0)
(60.1244 0 0)
(60.1838 0 0)
(60.2432 0 0)
(60.3026 0 0)
(60.362 0 0)
(60.4214 0 0)
(60.4808 0 0)
(60.5402 0 0)
(60.5996 0 0)
(60.6591 0 0)
(60.7185 0 0)
(60.7779 0 0)
(60.8373 0 0)
(60.8967 0 0)
(60.9561 0 0)
(61.0155 0 0)
(61.0749 0 0)
(61.1344 0 0)
(61.1938 0 0)
(61.2532 0 0)
(61.3126 0 0)
(61.372 0 0)
(61.4314 0 0)
(61.4909 0 0)
(61.5503 0 0)
(61.6097 0 0)
(61.6691 0 0)
(61.7285 0 0)
(61.7879 0 0)
(61.8474 0 0)
(61.9068 0 0)
(61.9662 0 0)
(62.0256 0 0)
(62.085 0 0)
(62.1444 0 0)
(62.2039 0 0)
(62.2633 0 0)
(62.3227 0 0)
(62.3821 0 0)
(62.4415 0 0)
(62.5009 0 0)
(62.5604 0 0)
(62.6198 0 0)
(62.6792 0 0)
(62.7386 0 0)
(62.798 0 0)
(62.8575 0 0)
(62.9169 0 0)
(62.9763 0 0)
(63.0357 0 0)
(63.0952 0 0)
(63.1546 0 0)
(63.214 0 0)
(63.2734 0 0)
(63.3328 0 0)
(63.3923 0 0)
(63.4517 0 0)
(63.5111 0 0)
(63.5705 0 0)
(63.63 0 0)
(63.6894 0 0)
(63.7488 0 0)
(63.8082 0 0)
(63.8676 0 0)
(63.9271 0 0)
(63.9865 0 0)
(64.0459 0 0)
(64.1053 0 0)
(64.1648 0 0)
(64.2242 0 0)
(64.2836 0 0)
(64.343 0 0)
(64.4025 0 0)
(64.4619 0 0)
(64.5213 0 0)
(64.5808 0 0)
(64.6402 0 0)
(64.6996 0 0)
(64.759 0 0)
(64.8185 0 0)
(64.8779 0 0)
(64.9373 0 0)
(64.9967 0 0)
(65.0562 0 0)
(65.1156 0 0)
(65.175 0 0)
(65.2345 0 0)
(65.2939 0 0)
(65.3533 0 0)
(65.4127 0 0)
(65.4722 0 0)
(65.5316 0 0)
(65.591 0 0)
(65.6505 0 0)
(65.7099 0 0)
(65.7693 0 0)
(65.8287 0 0)
(65.8882 0 0)
(65.9476 0 0)
(66.007 0 0)
(66.0665 0 0)
(66.1259 0 0)
(66.1853 0 0)
(66.2448 0 0)
(66.3042 0 0)
(66.3636 0 0)
(66.4231 0 0)
(66.4825 0 0)
(66.5419 0 0)
(66.6014 0 0)
(66.6608 0 0)
(66.7202 0 0)
(66.7797 0 0)
(66.8391 0 0)
(66.8985 0 0)
(66.958 0 0)
(67.0174 0 0)
(67.0768 0 0)
(67.1363 0 0)
(67.1957 0 0)
(67.2551 0 0)
(67.3146 0 0)
(67.374 0 0)
(67.4334 0 0)
(67.4929 0 0)
(67.5523 0 0)
(67.6117 0 0)
(67.6712 0 0)
(67.7306 0 0)
(67.79 0 0)
(67.8495 0 0)
(67.9089 0 0)
(67.9684 0 0)
(68.0278 0 0)
(68.0872 0 0)
(68.1467 0 0)
(68.2061 0 0)
(68.2655 0 0)
(68.325 0 0)
(68.3844 0 0)
(68.4439 0 0)
(68.5033 0 0)
(68.5627 0 0)
(68.6222 0 0)
(68.6816 0 0)
(68.741 0 0)
(68.8005 0 0)
(68.8599 0 0)
(68.9194 0 0)
(68.9788 0 0)
(69.0382 0 0)
(69.0977 0 0)
(69.1571 0 0)
(69.2166 0 0)
(69.276 0 0)
(69.3354 0 0)
(69.3949 0 0)
(69.4543 0 0)
(69.5138 0 0)
(69.5732 0 0)
(69.6326 0 0)
(69.6921 0 0)
(69.7515 0 0)
(69.811 0 0)
(69.8704 0 0)
(69.9298 0 0)
(69.9893 0 0)
(70.0487 0 0)
(70.1082 0 0)
(70.1676 0 0)
(70.2271 0 0)
(70.2865 0 0)
(70.3459 0 0)
(70.4054 0 0)
(70.4648 0 0)
(70.5243 0 0)
(70.5837 0 0)
(70.6432 0 0)
(70.7026 0 0)
(70.762 0 0)
(70.8215 0 0)
(70.8809 0 0)
(70.9404 0 0)
(70.9998 0 0)
(71.0593 0 0)
(71.1187 0 0)
(71.1782 0 0)
(71.2376 0 0)
(71.297 0 0)
(71.3565 0 0)
(71.4159 0 0)
(71.4754 0 0)
(71.5348 0 0)
(71.5943 0 0)
(71.6537 0 0)
(71.7132 0 0)
(71.7726 0 0)
(71.8321 0 0)
(71.8915 0 0)
(71.951 0 0)
(72.0104 0 0)
(72.0698 0 0)
(72.1293 0 0)
(72.1887 0 0)
(72.2482 0 0)
(72.3076 0 0)
(72.3671 0 0)
(72.4265 0 0)
(72.486 0 0)
(72.5454 0 0)
(72.6049 0 0)
(72.6643 0 0)
(72.7238 0 0)
(72.7832 0 0)
(72.8427 0 0)
(72.9021 0 0)
(72.9616 0 0)
(73.021 0 0)
(73.0805 0 0)
(73.1399 0 0)
(73.1994 0 0)
(73.2588 0 0)
(73.3183 0 0)
(73.3777 0 0)
(73.4372 0 0)
(73.4966 0 0)
(73.5561 0 0)
(73.6155 0 0)
(73.675 0 0)
(73.7344 0 0)
(73.7939 0 0)
(73.8533 0 0)
(73.9128 0 0)
(73.9722 0 0)
(74.0317 0 0)
(74.0911 0 0)
(74.1506 0 0)
(74.21 0 0)
(74.2695 0 0)
(74.3289 0 0)
(74.3884 0 0)
(74.4478 0 0)
(74.5073 0 0)
(74.5667 0 0)
(74.6262 0 0)
(74.6856 0 0)
(74.7451 0 0)
(74.8045 0 0)
(74.864 0 0)
(74.9234 0 0)
(74.9829 0 0)
(75.0423 0 0)
(75.1018 0 0)
(75.1613 0 0)
(75.2207 0 0)
(75.2802 0 0)
(75.3396 0 0)
(75.3991 0 0)
(75.4585 0 0)
(75.518 0 0)
(75.5774 0 0)
(75.6369 0 0)
(75.6963 0 0)
(75.7558 0 0)
(75.8152 0 0)
(75.8747 0 0)
(75.9342 0 0)
(75.9936 0 0)
(76.0531 0 0)
(76.1125 0 0)
(76.172 0 0)
(76.2314 0 0)
(76.2909 0 0)
(76.3503 0 0)
(76.4098 0 0)
(76.4693 0 0)
(76.5287 0 0)
(76.5882 0 0)
(76.6476 0 0)
(76.7071 0 0)
(76.7665 0 0)
(76.826 0 0)
(76.8854 0 0)
(76.9449 0 0)
(77.0044 0 0)
(77.0638 0 0)
(77.1233 0 0)
(77.1827 0 0)
(77.2422 0 0)
(77.3016 0 0)
(77.3611 0 0)
(77.4206 0 0)
(77.48 0 0)
(77.5395 0 0)
(77.5989 0 0)
(77.6584 0 0)
(77.7178 0 0)
(77.7773 0 0)
(77.8368 0 0)
(77.8962 0 0)
(77.9557 0 0)
(78.0151 0 0)
(78.0746 0 0)
(78.1341 0 0)
(78.1935 0 0)
(78.253 0 0)
(78.3124 0 0)
(78.3719 0 0)
(78.4313 0 0)
(78.4908 0 0)
(78.5503 0 0)
(78.6097 0 0)
(78.6692 0 0)
(78.7286 0 0)
(78.7881 0 0)
(78.8476 0 0)
(78.907 0 0)
(78.9665 0 0)
(79.0259 0 0)
(79.0854 0 0)
(79.1449 0 0)
(79.2043 0 0)
(79.2638 0 0)
(79.3232 0 0)
(79.3827 0 0)
(79.4422 0 0)
(79.5016 0 0)
(79.5611 0 0)
(79.6205 0 0)
(79.68 0 0)
(79.7395 0 0)
(79.7989 0 0)
(79.8584 0 0)
(79.9179 0 0)
(79.9773 0 0)
(80.0368 0 0)
(80.0962 0 0)
(80.1557 0 0)
(80.2152 0 0)
(80.2746 0 0)
(80.3341 0 0)
(80.3936 0 0)
(80.453 0 0)
(80.5125 0 0)
(80.5719 0 0)
(80.6314 0 0)
(80.6909 0 0)
(80.7503 0 0)
(80.8098 0 0)
(80.8693 0 0)
(80.9287 0 0)
(80.9882 0 0)
(81.0476 0 0)
(81.1071 0 0)
(81.1666 0 0)
(81.226 0 0)
(81.2855 0 0)
(81.345 0 0)
(81.4044 0 0)
(81.4639 0 0)
(81.5233 0 0)
(81.5828 0 0)
(81.6423 0 0)
(81.7017 0 0)
(81.7612 0 0)
(81.8207 0 0)
(81.8801 0 0)
(81.9396 0 0)
(81.9991 0 0)
(82.0585 0 0)
(82.118 0 0)
(82.1775 0 0)
(82.2369 0 0)
(82.2964 0 0)
(82.3559 0 0)
(82.4153 0 0)
(82.4748 0 0)
(82.5342 0 0)
(82.5937 0 0)
(82.6532 0 0)
(82.7126 0 0)
(82.7721 0 0)
(82.8316 0 0)
(82.891 0 0)
(82.9505 0 0)
(83.01 0 0)
(83.0694 0 0)
(83.1289 0 0)
(83.1884 0 0)
(83.2478 0 0)
(83.3073 0 0)
(83.3668 0 0)
(83.4262 0 0)
(83.4857 0 0)
(83.5452 0 0)
(83.6046 0 0)
(83.6641 0 0)
(83.7236 0 0)
(83.783 0 0)
(83.8425 0 0)
(83.902 0 0)
(83.9614 0 0)
(84.0209 0 0)
(84.0804 0 0)
(84.1398 0 0)
(84.1993 0 0)
(84.2588 0 0)
(84.3182 0 0)
(84.3777 0 0)
(84.4372 0 0)
(84.4966 0 0)
(84.5561 0 0)
(84.6156 0 0)
(84.675 0 0)
(84.7345 0 0)
(84.794 0 0)
(84.8535 0 0)
(84.9129 0 0)
(84.9724 0 0)
(85.0319 0 0)
(85.0913 0 0)
(85.1508 0 0)
(85.2103 0 0)
(85.2697 0 0)
(85.3292 0 0)
(85.3887 0 0)
(85.4481 0 0)
(85.5076 0 0)
(85.5671 0 0)
(85.6265 0 0)
(85.686 0 0)
(85.7455 0 0)
(85.805 0 0)
(85.8644 0 0)
(85.9239 0 0)
(85.9834 0 0)
(86.0428 0 0)
(86.1023 0 0)
(86.1618 0 0)
(86.2212 0 0)
(86.2807 0 0)
(86.3402 0 0)
(86.3997 0 0)
(86.4591 0 0)
(86.5186 0 0)
(86.5781 0 0)
(86.6375 0 0)
(86.697 0 0)
(86.7565 0 0)
(86.8159 0 0)
(86.8754 0 0)
(86.9349 0 0)
(86.9944 0 0)
(87.0538 0 0)
(87.1133 0 0)
(87.1728 0 0)
(87.2322 0 0)
(87.2917 0 0)
(87.3512 0 0)
(87.4107 0 0)
(87.4701 0 0)
(87.5296 0 0)
(87.5891 0 0)
(87.6485 0 0)
(87.708 0 0)
(87.7675 0 0)
(87.827 0 0)
(87.8864 0 0)
(87.9459 0 0)
(88.0054 0 0)
(88.0648 0 0)
(88.1243 0 0)
(88.1838 0 0)
(88.2433 0 0)
(88.3027 0 0)
(88.3622 0 0)
(88.4217 0 0)
(88.4811 0 0)
(88.5406 0 0)
(88.6001 0 0)
(88.6596 0 0)
(88.719 0 0)
(88.7785 0 0)
(88.838 0 0)
(88.8974 0 0)
(88.9569 0 0)
(89.0164 0 0)
(89.0759 0 0)
(89.1353 0 0)
(89.1948 0 0)
(89.2543 0 0)
(89.3138 0 0)
(89.3732 0 0)
(89.4327 0 0)
(89.4922 0 0)
(89.5517 0 0)
(89.6111 0 0)
(89.6706 0 0)
(89.7301 0 0)
(89.7895 0 0)
(89.849 0 0)
(89.9085 0 0)
(89.968 0 0)
(90.0274 0 0)
(90.0869 0 0)
(90.1464 0 0)
(90.2059 0 0)
(90.2653 0 0)
(90.3248 0 0)
(90.3843 0 0)
(90.4438 0 0)
(90.5032 0 0)
(90.5627 0 0)
(90.6222 0 0)
(90.6817 0 0)
(90.7411 0 0)
(90.8006 0 0)
(90.8601 0 0)
(90.9196 0 0)
(90.979 0 0)
(91.0385 0 0)
(91.098 0 0)
(91.1574 0 0)
(91.2169 0 0)
(91.2764 0 0)
(91.3359 0 0)
(91.3953 0 0)
(91.4548 0 0)
(91.5143 0 0)
(91.5738 0 0)
(91.6332 0 0)
(91.6927 0 0)
(91.7522 0 0)
(91.8117 0 0)
(91.8711 0 0)
(91.9306 0 0)
(91.9901 0 0)
(92.0496 0 0)
(92.1091 0 0)
(92.1685 0 0)
(92.228 0 0)
(92.2875 0 0)
(92.347 0 0)
(92.4064 0 0)
(92.4659 0 0)
(92.5254 0 0)
(92.5849 0 0)
(92.6443 0 0)
(92.7038 0 0)
(92.7633 0 0)
(92.8228 0 0)
(92.8822 0 0)
(92.9417 0 0)
(93.0012 0 0)
(93.0607 0 0)
(93.1201 0 0)
(93.1796 0 0)
(93.2391 0 0)
(93.2986 0 0)
(93.358 0 0)
(93.4175 0 0)
(93.477 0 0)
(93.5365 0 0)
(93.596 0 0)
(93.6554 0 0)
(93.7149 0 0)
(93.7744 0 0)
(93.8339 0 0)
(93.8933 0 0)
(93.9528 0 0)
(94.0123 0 0)
(94.0718 0 0)
(94.1312 0 0)
(94.1907 0 0)
(94.2502 0 0)
(94.3097 0 0)
(94.3692 0 0)
(94.4286 0 0)
(94.4881 0 0)
(94.5476 0 0)
(94.6071 0 0)
(94.6665 0 0)
(94.726 0 0)
(94.7855 0 0)
(94.845 0 0)
(94.9045 0 0)
(94.9639 0 0)
(95.0234 0 0)
(95.0829 0 0)
(95.1424 0 0)
(95.2018 0 0)
(95.2613 0 0)
(95.3208 0 0)
(95.3803 0 0)
(95.4398 0 0)
(95.4992 0 0)
(95.5587 0 0)
(95.6182 0 0)
(95.6777 0 0)
(95.7371 0 0)
(95.7966 0 0)
(95.8561 0 0)
(95.9156 0 0)
(95.9751 0 0)
(96.0345 0 0)
(96.094 0 0)
(96.1535 0 0)
(96.213 0 0)
(96.2724 0 0)
(96.3319 0 0)
(96.3914 0 0)
(96.4509 0 0)
(96.5104 0 0)
(96.5698 0 0)
(96.6293 0 0)
(96.6888 0 0)
(96.7483 0 0)
(96.8078 0 0)
(96.8672 0 0)
(96.9267 0 0)
(96.9862 0 0)
(97.0457 0 0)
(97.1052 0 0)
(97.1646 0 0)
(97.2241 0 0)
(97.2836 0 0)
(97.3431 0 0)
(97.4025 0 0)
(97.462 0 0)
(97.5215 0 0)
(97.581 0 0)
(97.6405 0 0)
(97.6999 0 0)
(97.7594 0 0)
(97.8189 0 0)
(97.8784 0 0)
(97.9379 0 0)
(97.9973 0 0)
(98.0568 0 0)
(98.1163 0 0)
(98.1758 0 0)
(98.2353 0 0)
(98.2947 0 0)
(98.3542 0 0)
(98.4137 0 0)
(98.4732 0 0)
(98.5327 0 0)
(98.5921 0 0)
(98.6516 0 0)
(98.7111 0 0)
(98.7706 0 0)
(98.8301 0 0)
(98.8895 0 0)
(98.949 0 0)
(99.0085 0 0)
(99.068 0 0)
(99.1275 0 0)
(99.1869 0 0)
(99.2464 0 0)
(99.3059 0 0)
(99.3654 0 0)
(99.4249 0 0)
(99.4843 0 0)
(99.5438 0 0)
(99.6033 0 0)
(99.6628 0 0)
(99.7223 0 0)
(99.7817 0 0)
(99.8412 0 0)
(99.9007 0 0)
(99.9602 0 0)
(100.02 0 0)
(100.079 0 0)
(100.139 0 0)
(100.198 0 0)
(100.258 0 0)
(100.317 0 0)
(100.377 0 0)
(100.436 0 0)
(100.496 0 0)
(100.555 0 0)
(100.614 0 0)
(100.674 0 0)
(100.733 0 0)
(100.793 0 0)
(100.852 0 0)
(100.912 0 0)
(100.971 0 0)
(101.031 0 0)
(101.09 0 0)
(101.15 0 0)
(101.209 0 0)
(101.269 0 0)
(101.328 0 0)
(101.388 0 0)
(101.447 0 0)
(101.507 0 0)
(101.566 0 0)
(101.626 0 0)
(101.685 0 0)
(101.745 0 0)
(101.804 0 0)
(101.864 0 0)
(101.923 0 0)
(101.983 0 0)
(102.042 0 0)
(102.102 0 0)
(102.161 0 0)
(102.22 0 0)
(102.28 0 0)
(102.339 0 0)
(102.399 0 0)
(102.458 0 0)
(102.518 0 0)
(102.577 0 0)
(102.637 0 0)
(102.696 0 0)
(102.756 0 0)
(102.815 0 0)
(102.875 0 0)
(102.934 0 0)
(102.994 0 0)
(103.053 0 0)
(103.113 0 0)
(103.172 0 0)
(103.232 0 0)
(103.291 0 0)
(103.351 0 0)
(103.41 0 0)
(103.47 0 0)
(103.529 0 0)
(103.589 0 0)
(103.648 0 0)
(103.708 0 0)
(103.767 0 0)
(103.826 0 0)
(103.886 0 0)
(103.945 0 0)
(104.005 0 0)
(104.064 0 0)
(104.124 0 0)
(104.183 0 0)
(104.243 0 0)
(104.302 0 0)
(104.362 0 0)
(104.421 0 0)
(104.481 0 0)
(104.54 0 0)
(104.6 0 0)
(104.659 0 0)
(104.719 0 0)
(104.778 0 0)
(104.838 0 0)
(104.897 0 0)
(104.957 0 0)
(105.016 0 0)
(105.076 0 0)
(105.135 0 0)
(105.195 0 0)
(105.254 0 0)
(105.314 0 0)
(105.373 0 0)
(105.433 0 0)
(105.492 0 0)
(105.551 0 0)
(105.611 0 0)
(105.67 0 0)
(105.73 0 0)
(105.789 0 0)
(105.849 0 0)
(105.908 0 0)
(105.968 0 0)
(106.027 0 0)
(106.087 0 0)
(106.146 0 0)
(106.206 0 0)
(106.265 0 0)
(106.325 0 0)
(106.384 0 0)
(106.444 0 0)
(106.503 0 0)
(106.563 0 0)
(106.622 0 0)
(106.682 0 0)
(106.741 0 0)
(106.801 0 0)
(106.86 0 0)
(106.92 0 0)
(106.979 0 0)
(107.039 0 0)
(107.098 0 0)
(107.158 0 0)
(107.217 0 0)
(107.276 0 0)
(107.336 0 0)
(107.395 0 0)
(107.455 0 0)
(107.514 0 0)
(107.574 0 0)
(107.633 0 0)
(107.693 0 0)
(107.752 0 0)
(107.812 0 0)
(107.871 0 0)
(107.931 0 0)
(107.99 0 0)
(108.05 0 0)
(108.109 0 0)
(108.169 0 0)
(108.228 0 0)
(108.288 0 0)
(108.347 0 0)
(108.407 0 0)
(108.466 0 0)
(108.526 0 0)
(108.585 0 0)
(108.645 0 0)
(108.704 0 0)
(108.764 0 0)
(108.823 0 0)
(108.883 0 0)
(108.942 0 0)
(109.001 0 0)
(109.061 0 0)
(109.12 0 0)
(109.18 0 0)
(109.239 0 0)
(109.299 0 0)
(109.358 0 0)
(109.418 0 0)
(109.477 0 0)
(109.537 0 0)
(109.596 0 0)
(109.656 0 0)
(109.715 0 0)
(109.775 0 0)
(109.834 0 0)
(109.894 0 0)
(109.953 0 0)
(110.013 0 0)
(110.072 0 0)
(110.132 0 0)
(110.191 0 0)
(110.251 0 0)
(110.31 0 0)
(110.37 0 0)
(110.429 0 0)
(110.489 0 0)
(110.548 0 0)
(110.608 0 0)
(110.667 0 0)
(110.727 0 0)
(110.786 0 0)
(110.845 0 0)
(110.905 0 0)
(110.964 0 0)
(111.024 0 0)
(111.083 0 0)
(111.143 0 0)
(111.202 0 0)
(111.262 0 0)
(111.321 0 0)
(111.381 0 0)
(111.44 0 0)
(111.5 0 0)
(111.559 0 0)
(111.619 0 0)
(111.678 0 0)
(111.738 0 0)
(111.797 0 0)
(111.857 0 0)
(111.916 0 0)
(111.976 0 0)
(112.035 0 0)
(112.095 0 0)
(112.154 0 0)
(112.214 0 0)
(112.273 0 0)
(112.333 0 0)
(112.392 0 0)
(112.452 0 0)
(112.511 0 0)
(112.571 0 0)
(112.63 0 0)
(112.689 0 0)
(112.749 0 0)
(112.808 0 0)
(112.868 0 0)
(112.927 0 0)
(112.987 0 0)
(113.046 0 0)
(113.106 0 0)
(113.165 0 0)
(113.225 0 0)
(113.284 0 0)
(113.344 0 0)
(113.403 0 0)
(113.463 0 0)
(113.522 0 0)
(113.582 0 0)
(113.641 0 0)
(113.701 0 0)
(113.76 0 0)
(113.82 0 0)
(113.879 0 0)
(113.939 0 0)
(113.998 0 0)
(114.058 0 0)
(114.117 0 0)
(114.177 0 0)
(114.236 0 0)
(114.296 0 0)
(114.355 0 0)
(114.415 0 0)
(114.474 0 0)
(114.533 0 0)
(114.593 0 0)
(114.652 0 0)
(114.712 0 0)
(114.771 0 0)
(114.831 0 0)
(114.89 0 0)
(114.95 0 0)
(115.009 0 0)
(115.069 0 0)
(115.128 0 0)
(115.188 0 0)
(115.247 0 0)
(115.307 0 0)
(115.366 0 0)
(115.426 0 0)
(115.485 0 0)
(115.545 0 0)
(115.604 0 0)
(115.664 0 0)
(115.723 0 0)
(115.783 0 0)
(115.842 0 0)
(115.902 0 0)
(115.961 0 0)
(116.021 0 0)
(116.08 0 0)
(116.14 0 0)
(116.199 0 0)
(116.259 0 0)
(116.318 0 0)
(116.377 0 0)
(116.437 0 0)
(116.496 0 0)
(116.556 0 0)
(116.615 0 0)
(116.675 0 0)
(116.734 0 0)
(116.794 0 0)
(116.853 0 0)
(116.913 0 0)
(116.972 0 0)
(117.032 0 0)
(117.091 0 0)
(117.151 0 0)
(117.21 0 0)
(117.27 0 0)
(117.329 0 0)
(117.389 0 0)
(117.448 0 0)
(117.508 0 0)
(117.567 0 0)
(117.627 0 0)
(117.686 0 0)
(117.746 0 0)
(117.805 0 0)
(117.865 0 0)
(117.924 0 0)
(117.984 0 0)
(118.043 0 0)
(118.102 0 0)
(118.162 0 0)
(118.221 0 0)
(118.281 0 0)
(118.34 0 0)
(118.4 0 0)
(118.459 0 0)
(118.519 0 0)
(118.578 0 0)
(118.638 0 0)
(118.697 0 0)
(118.757 0 0)
(118.816 0 0)
(118.876 0 0)
(118.935 0 0)
(118.995 0 0)
(119.054 0 0)
(119.114 0 0)
(119.173 0 0)
(119.233 0 0)
(119.292 0 0)
(119.352 0 0)
(119.411 0 0)
(119.471 0 0)
(119.53 0 0)
(119.59 0 0)
(119.649 0 0)
(119.709 0 0)
(119.768 0 0)
(119.827 0 0)
(119.887 0 0)
(119.946 0 0)
(120.006 0 0)
(120.065 0 0)
(120.125 0 0)
(120.184 0 0)
(120.244 0 0)
(120.303 0 0)
(120.363 0 0)
(120.422 0 0)
(120.482 0 0)
(120.541 0 0)
(120.601 0 0)
(120.66 0 0)
(120.72 0 0)
(120.779 0 0)
(120.839 0 0)
(120.898 0 0)
(120.958 0 0)
(121.017 0 0)
(121.077 0 0)
(121.136 0 0)
(121.196 0 0)
(121.255 0 0)
(121.315 0 0)
(121.374 0 0)
(121.433 0 0)
(121.493 0 0)
(121.552 0 0)
(121.612 0 0)
(121.671 0 0)
(121.731 0 0)
(121.79 0 0)
(121.85 0 0)
(121.909 0 0)
(121.969 0 0)
(122.028 0 0)
(122.088 0 0)
(122.147 0 0)
(122.207 0 0)
(122.266 0 0)
(122.326 0 0)
(122.385 0 0)
(122.445 0 0)
(122.504 0 0)
(122.564 0 0)
(122.623 0 0)
(122.683 0 0)
(122.742 0 0)
(122.802 0 0)
(122.861 0 0)
(122.921 0 0)
(122.98 0 0)
(123.039 0 0)
(123.099 0 0)
(123.158 0 0)
(123.218 0 0)
(123.277 0 0)
(123.337 0 0)
(123.396 0 0)
(123.456 0 0)
(123.515 0 0)
(123.575 0 0)
(123.634 0 0)
(123.694 0 0)
(123.753 0 0)
(123.813 0 0)
(123.872 0 0)
(123.932 0 0)
(123.991 0 0)
(124.051 0 0)
(124.11 0 0)
(124.17 0 0)
(124.229 0 0)
(124.289 0 0)
(124.348 0 0)
(124.408 0 0)
(124.467 0 0)
(124.527 0 0)
(124.586 0 0)
(124.645 0 0)
(124.705 0 0)
(124.764 0 0)
(124.824 0 0)
(124.883 0 0)
(124.943 0 0)
(125.002 0 0)
(125.062 0 0)
(125.121 0 0)
(125.181 0 0)
(125.24 0 0)
(125.3 0 0)
(125.359 0 0)
(125.419 0 0)
(125.478 0 0)
(125.538 0 0)
(125.597 0 0)
(125.657 0 0)
(125.716 0 0)
(125.776 0 0)
(125.835 0 0)
(125.895 0 0)
(125.954 0 0)
(126.014 0 0)
(126.073 0 0)
(126.132 0 0)
(126.192 0 0)
(126.251 0 0)
(126.311 0 0)
(126.37 0 0)
(126.43 0 0)
(126.489 0 0)
(126.549 0 0)
(126.608 0 0)
(126.668 0 0)
(126.727 0 0)
(126.787 0 0)
(126.846 0 0)
(126.906 0 0)
(126.965 0 0)
(127.025 0 0)
(127.084 0 0)
(127.144 0 0)
(127.203 0 0)
(127.263 0 0)
(127.322 0 0)
(127.382 0 0)
(127.441 0 0)
(127.501 0 0)
(127.56 0 0)
(127.619 0 0)
(127.679 0 0)
(127.738 0 0)
(127.798 0 0)
(127.857 0 0)
(127.917 0 0)
(127.976 0 0)
(128.036 0 0)
(128.095 0 0)
(128.155 0 0)
(128.214 0 0)
(128.274 0 0)
(128.333 0 0)
(128.393 0 0)
(128.452 0 0)
(128.512 0 0)
(128.571 0 0)
(128.631 0 0)
(128.69 0 0)
(128.75 0 0)
(128.809 0 0)
(128.869 0 0)
(128.928 0 0)
(128.987 0 0)
(129.047 0 0)
(129.106 0 0)
(129.166 0 0)
(129.225 0 0)
(129.285 0 0)
(129.344 0 0)
(129.404 0 0)
(129.463 0 0)
(129.523 0 0)
(129.582 0 0)
(129.642 0 0)
(129.701 0 0)
(129.761 0 0)
(129.82 0 0)
(129.88 0 0)
(129.939 0 0)
(129.999 0 0)
(130.058 0 0)
(130.118 0 0)
(130.177 0 0)
(130.237 0 0)
(130.296 0 0)
(130.355 0 0)
(130.415 0 0)
(130.474 0 0)
(130.534 0 0)
(130.593 0 0)
(130.653 0 0)
(130.712 0 0)
(130.772 0 0)
(130.831 0 0)
(130.891 0 0)
(130.95 0 0)
(131.01 0 0)
(131.069 0 0)
(131.129 0 0)
(131.188 0 0)
(131.248 0 0)
(131.307 0 0)
(131.367 0 0)
(131.426 0 0)
(131.486 0 0)
(131.545 0 0)
(131.605 0 0)
(131.664 0 0)
(131.723 0 0)
(131.783 0 0)
(131.842 0 0)
(131.902 0 0)
(131.961 0 0)
(132.021 0 0)
(132.08 0 0)
(132.14 0 0)
(132.199 0 0)
(132.259 0 0)
(132.318 0 0)
(132.378 0 0)
(132.437 0 0)
(132.497 0 0)
(132.556 0 0)
(132.616 0 0)
(132.675 0 0)
(132.735 0 0)
(132.794 0 0)
(132.854 0 0)
(132.913 0 0)
(132.972 0 0)
(133.032 0 0)
(133.091 0 0)
(133.151 0 0)
(133.21 0 0)
(133.27 0 0)
(133.329 0 0)
(133.389 0 0)
(133.448 0 0)
(133.508 0 0)
(133.567 0 0)
(133.627 0 0)
(133.686 0 0)
(133.746 0 0)
(133.805 0 0)
(133.865 0 0)
(133.924 0 0)
(133.984 0 0)
(134.043 0 0)
(134.103 0 0)
(134.162 0 0)
(134.221 0 0)
(134.281 0 0)
(134.34 0 0)
(134.4 0 0)
(134.459 0 0)
(134.519 0 0)
(134.578 0 0)
(134.638 0 0)
(134.697 0 0)
(134.757 0 0)
(134.816 0 0)
(134.876 0 0)
(134.935 0 0)
(134.995 0 0)
(135.054 0 0)
(135.114 0 0)
(135.173 0 0)
(135.233 0 0)
(135.292 0 0)
(135.352 0 0)
(135.411 0 0)
(135.47 0 0)
(135.53 0 0)
(135.589 0 0)
(135.649 0 0)
(135.708 0 0)
(135.768 0 0)
(135.827 0 0)
(135.887 0 0)
(135.946 0 0)
(136.006 0 0)
(136.065 0 0)
(136.125 0 0)
(136.184 0 0)
(136.244 0 0)
(136.303 0 0)
(136.363 0 0)
(136.422 0 0)
(136.482 0 0)
(136.541 0 0)
(136.6 0 0)
(136.66 0 0)
(136.719 0 0)
(136.779 0 0)
(136.838 0 0)
(136.898 0 0)
(136.957 0 0)
(137.017 0 0)
(137.076 0 0)
(137.136 0 0)
(137.195 0 0)
(137.255 0 0)
(137.314 0 0)
(137.374 0 0)
(137.433 0 0)
(137.493 0 0)
(137.552 0 0)
(137.612 0 0)
(137.671 0 0)
(137.73 0 0)
(137.79 0 0)
(137.849 0 0)
(137.909 0 0)
(137.968 0 0)
(138.028 0 0)
(138.087 0 0)
(138.147 0 0)
(138.206 0 0)
(138.266 0 0)
(138.325 0 0)
(138.385 0 0)
(138.444 0 0)
(138.504 0 0)
(138.563 0 0)
(138.623 0 0)
(138.682 0 0)
(138.742 0 0)
(138.801 0 0)
(138.86 0 0)
(138.92 0 0)
(138.979 0 0)
(139.039 0 0)
(139.098 0 0)
(139.158 0 0)
(139.217 0 0)
(139.277 0 0)
(139.336 0 0)
(139.396 0 0)
(139.455 0 0)
(139.515 0 0)
(139.574 0 0)
(139.634 0 0)
(139.693 0 0)
(139.753 0 0)
(139.812 0 0)
(139.872 0 0)
(139.931 0 0)
(139.99 0 0)
(140.05 0 0)
(140.109 0 0)
(140.169 0 0)
(140.228 0 0)