/*--------------------------------*- C++ -*----------------------------------*\
  =========                 |
  \\      /  F ield         | OpenFOAM: The Open Source CFD Toolbox
   \\    /   O peration     | Website:  https://openfoam.org
    \\  /    A nd           | Version:  9
     \\/     M anipulation  |
\*---------------------------------------------------------------------------*/
FoamFile
{
    format      ascii;
    class       surfaceScalarField;
    location    "0.028";
    object      ddtCorrDdt0(phi);
}
// * * * * * * * * * * * * * * * * * * * * * * * * * * * * * * * * * * * * * //

dimensions      [1 0 -2 0 0 0 0];

internalField   nonuniform List<scalar> 
99
(
-1768.96
-2300.41
-2815.55
-3324.24
-3827.23
-4332.7
-4848.64
-5365.67
-5871.34
-6376.09
-6875.53
-7375.08
-7850.72
-8342.03
-8823.62
-9270.19
-9753.45
-10258.1
-10695.4
-11107.8
-11597.4
-12125.5
-12558.6
-12895.5
-13328.5
-13909.4
-14364.9
-14710.5
-15082.8
-15492.2
-16096.4
-16521.1
-16771.1
-17175.6
-17595.4
-18275.7
-18678.8
-19053.1
-19298.2
-19646.7
-20067.6
-20261.4
-22274.7
-20311.9
-20167.7
-20833.6
-22653.9
-22441.5
-23922.3
-24557.6
-24562.9
-24963.1
-25426.1
-25227.6
-24155.8
-22134.1
-19872.7
-16960.6
-12290.9
-3213.44
15819.1
65028.4
224815
-625234
-40722.7
-22501.8
-18179.4
-12882.5
-5076.16
8861.17
37438.5
116096
14194.6
-65511.3
-15384.7
-6462.37
994.368
10583.8
27329.8
143655
40704.9
-172963
-6557.93
840.049
4156.63
7718.89
25677.2
210098
-288988
-21709.1
5451.53
224200
1311.84
-258979
56696.4
292734
-243401
-60528.7
15034.2
)
;

boundaryField
{
    sides
    {
        type            calculated;
        value           nonuniform List<scalar> 2(-7163.63 1228.86);
    }
    empty
    {
        type            empty;
        value           nonuniform List<scalar> 0();
    }
}


// ************************************************************************* //
