/*--------------------------------*- C++ -*----------------------------------*\
  =========                 |
  \\      /  F ield         | OpenFOAM: The Open Source CFD Toolbox
   \\    /   O peration     | Website:  https://openfoam.org
    \\  /    A nd           | Version:  9
     \\/     M anipulation  |
\*---------------------------------------------------------------------------*/
FoamFile
{
    format      ascii;
    class       volScalarField;
    location    "0.028";
    object      p;
}
// * * * * * * * * * * * * * * * * * * * * * * * * * * * * * * * * * * * * * //

dimensions      [1 -1 -2 0 0 0 0];

internalField   nonuniform List<scalar> 
100
(
27449.3
27379.4
27235.9
27140.1
27048
26952.1
26857.8
26763
26671.4
26577.7
26487.1
26397
26306.6
26219.6
26131.8
26044.5
25960.5
25876.8
25792.5
25711
25632.5
25553.7
25475.1
25399.6
25327.2
25255.9
25185.9
25116.9
25052
24991.3
24930.8
24872.4
24818.3
24767.8
24722.3
24679.2
24642.4
24614.6
24599.6
24592.9
24593
24593.4
24594.6
24598.6
24607
24621.7
24650
24706.5
24769.2
24860.8
24966.2
25080.7
25204.8
25334.4
25464.1
25591.4
25716
25847.1
25982
26122
26257.4
26380.9
26460.1
26480.8
26967.9
27226.4
27409.1
27589.3
27760.3
27925.8
28071.6
28185.5
28213.9
28336.7
28805.8
28959.9
29089.1
29199.3
29292.7
29367.4
29350.4
29391.3
29739.3
29828
29887.7
29943.1
29992.1
30008.1
29925.1
30095.6
30235.9
30276.2
30180.2
30177
30446.9
30456.4
30257.6
30375.4
30741.4
30724.5
)
;

boundaryField
{
    sides
    {
        type            zeroGradient;
    }
    empty
    {
        type            empty;
    }
}


// ************************************************************************* //
