/*--------------------------------*- C++ -*----------------------------------*\
  =========                 |
  \\      /  F ield         | OpenFOAM: The Open Source CFD Toolbox
   \\    /   O peration     | Website:  https://openfoam.org
    \\  /    A nd           | Version:  9
     \\/     M anipulation  |
\*---------------------------------------------------------------------------*/
FoamFile
{
    format      ascii;
    class       volScalarField;
    location    "0.007";
    object      mag(U);
}
// * * * * * * * * * * * * * * * * * * * * * * * * * * * * * * * * * * * * * //

dimensions      [0 1 -1 0 0 0 0];

internalField   nonuniform List<scalar> 
100
(
6.12086e-09
4.04268e-08
1.43757e-07
5.04911e-07
1.72024e-06
5.7163e-06
1.84396e-05
5.78756e-05
0.000176054
0.000519689
0.00148367
0.00409757
0.0109147
0.0280159
0.0690832
0.163255
0.368136
0.786457
1.56921
2.91758
5.07607
8.27889
12.6923
18.3496
25.1718
32.9751
41.5573
50.7266
60.3266
70.242
80.3945
90.7184
101.178
111.727
122.366
133.027
143.765
154.454
165.16
175.905
186.384
196.942
207.318
217.425
227.469
237.083
246.484
255.224
263.419
270.995
277.262
282.686
287.192
290.303
291.909
293.073
294.117
294.571
294.788
294.892
294.945
295.021
295.219
295.342
295.258
294.917
294.734
294.93
295.458
295.582
295.365
294.856
294.599
294.685
295.029
295.215
295.138
294.806
294.071
292.89
291.303
289.35
287.793
287.153
286.884
286.198
283.645
275.219
250.072
166.921
47.6408
7.22992
1.08648
0.164208
0.0246553
0.00370454
0.000555641
8.33145e-05
1.25148e-05
1.11289e-06
)
;

boundaryField
{
    sides
    {
        type            calculated;
        value           nonuniform List<scalar> 2(1.11289e-06 6.12086e-09);
    }
    empty
    {
        type            empty;
    }
}


// ************************************************************************* //
