/*--------------------------------*- C++ -*----------------------------------*\
  =========                 |
  \\      /  F ield         | OpenFOAM: The Open Source CFD Toolbox
   \\    /   O peration     | Website:  https://openfoam.org
    \\  /    A nd           | Version:  9
     \\/     M anipulation  |
\*---------------------------------------------------------------------------*/
FoamFile
{
    format      ascii;
    class       volVectorField;
    location    "0.007";
    object      U;
}
// * * * * * * * * * * * * * * * * * * * * * * * * * * * * * * * * * * * * * //

dimensions      [0 1 -1 0 0 0 0];

internalField   nonuniform List<vector> 
100
(
(6.12086e-09 0 0)
(4.04268e-08 0 0)
(1.43757e-07 0 0)
(5.04911e-07 0 0)
(1.72024e-06 0 0)
(5.7163e-06 0 0)
(1.84396e-05 0 0)
(5.78756e-05 0 0)
(0.000176054 0 0)
(0.000519689 0 0)
(0.00148367 0 0)
(0.00409757 0 0)
(0.0109147 0 0)
(0.0280159 0 0)
(0.0690832 0 0)
(0.163255 0 0)
(0.368136 0 0)
(0.786457 0 0)
(1.56921 0 0)
(2.91758 0 0)
(5.07607 0 0)
(8.27889 0 0)
(12.6923 0 0)
(18.3496 0 0)
(25.1718 0 0)
(32.9751 0 0)
(41.5573 0 0)
(50.7266 0 0)
(60.3266 0 0)
(70.242 0 0)
(80.3945 0 0)
(90.7184 0 0)
(101.178 0 0)
(111.727 0 0)
(122.366 0 0)
(133.027 0 0)
(143.765 0 0)
(154.454 0 0)
(165.16 0 0)
(175.905 0 0)
(186.384 0 0)
(196.942 0 0)
(207.318 0 0)
(217.425 0 0)
(227.469 0 0)
(237.083 0 0)
(246.484 0 0)
(255.224 0 0)
(263.419 0 0)
(270.995 0 0)
(277.262 0 0)
(282.686 0 0)
(287.192 0 0)
(290.303 0 0)
(291.909 0 0)
(293.073 0 0)
(294.117 0 0)
(294.571 0 0)
(294.788 0 0)
(294.892 0 0)
(294.945 0 0)
(295.021 0 0)
(295.219 0 0)
(295.342 0 0)
(295.258 0 0)
(294.917 0 0)
(294.734 0 0)
(294.93 0 0)
(295.458 0 0)
(295.582 0 0)
(295.365 0 0)
(294.856 0 0)
(294.599 0 0)
(294.685 0 0)
(295.029 0 0)
(295.215 0 0)
(295.138 0 0)
(294.806 0 0)
(294.071 0 0)
(292.89 0 0)
(291.303 0 0)
(289.35 0 0)
(287.793 0 0)
(287.153 0 0)
(286.884 0 0)
(286.198 0 0)
(283.645 0 0)
(275.219 0 0)
(250.072 0 0)
(166.921 0 0)
(47.6408 0 0)
(7.22992 0 0)
(1.08648 0 0)
(0.164208 0 0)
(0.0246553 0 0)
(0.00370454 0 0)
(0.000555641 0 0)
(8.33145e-05 0 0)
(1.25148e-05 0 0)
(1.11289e-06 0 0)
)
;

boundaryField
{
    sides
    {
        type            zeroGradient;
    }
    empty
    {
        type            empty;
    }
}


// ************************************************************************* //
