/*--------------------------------*- C++ -*----------------------------------*\
  =========                 |
  \\      /  F ield         | OpenFOAM: The Open Source CFD Toolbox
   \\    /   O peration     | Website:  https://openfoam.org
    \\  /    A nd           | Version:  9
     \\/     M anipulation  |
\*---------------------------------------------------------------------------*/
FoamFile
{
    format      ascii;
    class       volVectorField;
    location    "0.038";
    object      U;
}
// * * * * * * * * * * * * * * * * * * * * * * * * * * * * * * * * * * * * * //

dimensions      [0 1 -1 0 0 0 0];

internalField   nonuniform List<vector> 
10000
(
(2.72794 0 0)
(2.76871 0 0)
(2.81827 0 0)
(2.85726 0 0)
(2.8887 0 0)
(2.92111 0 0)
(2.95509 0 0)
(2.99032 0 0)
(3.02604 0 0)
(3.06183 0 0)
(3.09723 0 0)
(3.13238 0 0)
(3.16722 0 0)
(3.20202 0 0)
(3.23687 0 0)
(3.27182 0 0)
(3.30684 0 0)
(3.34188 0 0)
(3.3769 0 0)
(3.41179 0 0)
(3.44659 0 0)
(3.48135 0 0)
(3.5161 0 0)
(3.55085 0 0)
(3.58558 0 0)
(3.62025 0 0)
(3.65486 0 0)
(3.68942 0 0)
(3.72393 0 0)
(3.7584 0 0)
(3.79284 0 0)
(3.82722 0 0)
(3.86156 0 0)
(3.89585 0 0)
(3.93009 0 0)
(3.96428 0 0)
(3.99842 0 0)
(4.0325 0 0)
(4.06653 0 0)
(4.10051 0 0)
(4.13444 0 0)
(4.16832 0 0)
(4.20214 0 0)
(4.23591 0 0)
(4.26963 0 0)
(4.30329 0 0)
(4.33691 0 0)
(4.37048 0 0)
(4.40399 0 0)
(4.43746 0 0)
(4.47086 0 0)
(4.50422 0 0)
(4.53752 0 0)
(4.57077 0 0)
(4.60396 0 0)
(4.63711 0 0)
(4.6702 0 0)
(4.70324 0 0)
(4.73622 0 0)
(4.76916 0 0)
(4.80205 0 0)
(4.8349 0 0)
(4.8677 0 0)
(4.90046 0 0)
(4.93317 0 0)
(4.96584 0 0)
(4.99847 0 0)
(5.03106 0 0)
(5.06361 0 0)
(5.09612 0 0)
(5.1286 0 0)
(5.16104 0 0)
(5.19346 0 0)
(5.22584 0 0)
(5.25819 0 0)
(5.29051 0 0)
(5.32281 0 0)
(5.35509 0 0)
(5.38734 0 0)
(5.41957 0 0)
(5.45178 0 0)
(5.48397 0 0)
(5.51614 0 0)
(5.54829 0 0)
(5.58044 0 0)
(5.61258 0 0)
(5.64471 0 0)
(5.67683 0 0)
(5.70894 0 0)
(5.74106 0 0)
(5.77319 0 0)
(5.80529 0 0)
(5.83739 0 0)
(5.8695 0 0)
(5.90162 0 0)
(5.93374 0 0)
(5.96587 0 0)
(5.99801 0 0)
(6.03017 0 0)
(6.06234 0 0)
(6.09454 0 0)
(6.12677 0 0)
(6.159 0 0)
(6.19123 0 0)
(6.22348 0 0)
(6.25577 0 0)
(6.28807 0 0)
(6.3204 0 0)
(6.35277 0 0)
(6.38518 0 0)
(6.41763 0 0)
(6.4501 0 0)
(6.48262 0 0)
(6.51517 0 0)
(6.54776 0 0)
(6.58039 0 0)
(6.61306 0 0)
(6.64578 0 0)
(6.67855 0 0)
(6.71136 0 0)
(6.74421 0 0)
(6.77712 0 0)
(6.81008 0 0)
(6.84308 0 0)
(6.87614 0 0)
(6.90926 0 0)
(6.94242 0 0)
(6.97565 0 0)
(7.00892 0 0)
(7.04226 0 0)
(7.07565 0 0)
(7.10911 0 0)
(7.14262 0 0)
(7.17619 0 0)
(7.20981 0 0)
(7.2435 0 0)
(7.27725 0 0)
(7.31107 0 0)
(7.34494 0 0)
(7.37888 0 0)
(7.41287 0 0)
(7.44693 0 0)
(7.48104 0 0)
(7.51522 0 0)
(7.54947 0 0)
(7.58377 0 0)
(7.61813 0 0)
(7.65255 0 0)
(7.68702 0 0)
(7.72155 0 0)
(7.75615 0 0)
(7.7908 0 0)
(7.82552 0 0)
(7.86028 0 0)
(7.89509 0 0)
(7.92995 0 0)
(7.96486 0 0)
(7.99982 0 0)
(8.03484 0 0)
(8.06992 0 0)
(8.10503 0 0)
(8.14018 0 0)
(8.17536 0 0)
(8.21057 0 0)
(8.24582 0 0)
(8.28111 0 0)
(8.31644 0 0)
(8.3518 0 0)
(8.38719 0 0)
(8.4226 0 0)
(8.45804 0 0)
(8.49349 0 0)
(8.52895 0 0)
(8.56445 0 0)
(8.59998 0 0)
(8.63551 0 0)
(8.67101 0 0)
(8.70652 0 0)
(8.74204 0 0)
(8.77757 0 0)
(8.81311 0 0)
(8.84865 0 0)
(8.8842 0 0)
(8.9197 0 0)
(8.95515 0 0)
(8.99059 0 0)
(9.02603 0 0)
(9.06145 0 0)
(9.09686 0 0)
(9.13224 0 0)
(9.16759 0 0)
(9.20292 0 0)
(9.2382 0 0)
(9.27343 0 0)
(9.30863 0 0)
(9.34378 0 0)
(9.3789 0 0)
(9.41397 0 0)
(9.44898 0 0)
(9.48393 0 0)
(9.51884 0 0)
(9.55371 0 0)
(9.58853 0 0)
(9.62329 0 0)
(9.65798 0 0)
(9.69262 0 0)
(9.7272 0 0)
(9.76171 0 0)
(9.79616 0 0)
(9.83055 0 0)
(9.86487 0 0)
(9.89914 0 0)
(9.93333 0 0)
(9.96746 0 0)
(10.0015 0 0)
(10.0355 0 0)
(10.0694 0 0)
(10.1033 0 0)
(10.1371 0 0)
(10.1708 0 0)
(10.2044 0 0)
(10.238 0 0)
(10.2715 0 0)
(10.3049 0 0)
(10.3383 0 0)
(10.3716 0 0)
(10.4049 0 0)
(10.438 0 0)
(10.4711 0 0)
(10.5042 0 0)
(10.5371 0 0)
(10.57 0 0)
(10.6029 0 0)
(10.6357 0 0)
(10.6684 0 0)
(10.7011 0 0)
(10.7337 0 0)
(10.7663 0 0)
(10.7988 0 0)
(10.8313 0 0)
(10.8637 0 0)
(10.896 0 0)
(10.9283 0 0)
(10.9606 0 0)
(10.9928 0 0)
(11.025 0 0)
(11.0571 0 0)
(11.0892 0 0)
(11.1213 0 0)
(11.1533 0 0)
(11.1853 0 0)
(11.2173 0 0)
(11.2493 0 0)
(11.2812 0 0)
(11.3131 0 0)
(11.345 0 0)
(11.3768 0 0)
(11.4087 0 0)
(11.4405 0 0)
(11.4723 0 0)
(11.5041 0 0)
(11.5359 0 0)
(11.5677 0 0)
(11.5995 0 0)
(11.6313 0 0)
(11.6631 0 0)
(11.6949 0 0)
(11.7268 0 0)
(11.7586 0 0)
(11.7904 0 0)
(11.8223 0 0)
(11.8541 0 0)
(11.886 0 0)
(11.9179 0 0)
(11.9499 0 0)
(11.9818 0 0)
(12.0138 0 0)
(12.0458 0 0)
(12.0779 0 0)
(12.1099 0 0)
(12.142 0 0)
(12.1742 0 0)
(12.2064 0 0)
(12.2386 0 0)
(12.2709 0 0)
(12.3032 0 0)
(12.3356 0 0)
(12.368 0 0)
(12.4004 0 0)
(12.433 0 0)
(12.4655 0 0)
(12.4982 0 0)
(12.5309 0 0)
(12.5637 0 0)
(12.5965 0 0)
(12.6294 0 0)
(12.6624 0 0)
(12.6954 0 0)
(12.7285 0 0)
(12.7616 0 0)
(12.7948 0 0)
(12.8281 0 0)
(12.8615 0 0)
(12.8949 0 0)
(12.9284 0 0)
(12.962 0 0)
(12.9957 0 0)
(13.0294 0 0)
(13.0632 0 0)
(13.0971 0 0)
(13.131 0 0)
(13.165 0 0)
(13.1991 0 0)
(13.2333 0 0)
(13.2675 0 0)
(13.3018 0 0)
(13.3362 0 0)
(13.3706 0 0)
(13.4051 0 0)
(13.4397 0 0)
(13.4743 0 0)
(13.509 0 0)
(13.5438 0 0)
(13.5786 0 0)
(13.6135 0 0)
(13.6484 0 0)
(13.6834 0 0)
(13.7185 0 0)
(13.7536 0 0)
(13.7888 0 0)
(13.824 0 0)
(13.8592 0 0)
(13.8945 0 0)
(13.9299 0 0)
(13.9652 0 0)
(14.0006 0 0)
(14.036 0 0)
(14.0715 0 0)
(14.107 0 0)
(14.1425 0 0)
(14.178 0 0)
(14.2136 0 0)
(14.2491 0 0)
(14.2848 0 0)
(14.3204 0 0)
(14.3561 0 0)
(14.3918 0 0)
(14.4274 0 0)
(14.4631 0 0)
(14.4987 0 0)
(14.5344 0 0)
(14.5701 0 0)
(14.6057 0 0)
(14.6414 0 0)
(14.677 0 0)
(14.7126 0 0)
(14.7482 0 0)
(14.7837 0 0)
(14.8193 0 0)
(14.8548 0 0)
(14.8903 0 0)
(14.9258 0 0)
(14.9613 0 0)
(14.9967 0 0)
(15.0321 0 0)
(15.0675 0 0)
(15.1028 0 0)
(15.1381 0 0)
(15.1733 0 0)
(15.2085 0 0)
(15.2435 0 0)
(15.2786 0 0)
(15.3136 0 0)
(15.3486 0 0)
(15.3835 0 0)
(15.4184 0 0)
(15.4532 0 0)
(15.488 0 0)
(15.5227 0 0)
(15.5573 0 0)
(15.5919 0 0)
(15.6264 0 0)
(15.6609 0 0)
(15.6953 0 0)
(15.7296 0 0)
(15.7638 0 0)
(15.798 0 0)
(15.8321 0 0)
(15.8662 0 0)
(15.9002 0 0)
(15.9341 0 0)
(15.9679 0 0)
(16.0017 0 0)
(16.0354 0 0)
(16.069 0 0)
(16.1025 0 0)
(16.136 0 0)
(16.1695 0 0)
(16.2028 0 0)
(16.2362 0 0)
(16.2694 0 0)
(16.3026 0 0)
(16.3357 0 0)
(16.3687 0 0)
(16.4017 0 0)
(16.4346 0 0)
(16.4675 0 0)
(16.5003 0 0)
(16.533 0 0)
(16.5656 0 0)
(16.5982 0 0)
(16.6308 0 0)
(16.6633 0 0)
(16.6957 0 0)
(16.7281 0 0)
(16.7604 0 0)
(16.7927 0 0)
(16.825 0 0)
(16.8572 0 0)
(16.8894 0 0)
(16.9215 0 0)
(16.9536 0 0)
(16.9856 0 0)
(17.0176 0 0)
(17.0496 0 0)
(17.0816 0 0)
(17.1135 0 0)
(17.1454 0 0)
(17.1773 0 0)
(17.2091 0 0)
(17.241 0 0)
(17.2728 0 0)
(17.3045 0 0)
(17.3363 0 0)
(17.368 0 0)
(17.3998 0 0)
(17.4315 0 0)
(17.4633 0 0)
(17.495 0 0)
(17.5267 0 0)
(17.5584 0 0)
(17.5902 0 0)
(17.6219 0 0)
(17.6537 0 0)
(17.6855 0 0)
(17.7173 0 0)
(17.7491 0 0)
(17.7809 0 0)
(17.8128 0 0)
(17.8447 0 0)
(17.8765 0 0)
(17.9084 0 0)
(17.9403 0 0)
(17.9722 0 0)
(18.0042 0 0)
(18.0362 0 0)
(18.0683 0 0)
(18.1004 0 0)
(18.1326 0 0)
(18.1648 0 0)
(18.197 0 0)
(18.2293 0 0)
(18.2617 0 0)
(18.2941 0 0)
(18.3265 0 0)
(18.3591 0 0)
(18.3916 0 0)
(18.4243 0 0)
(18.457 0 0)
(18.4897 0 0)
(18.5226 0 0)
(18.5555 0 0)
(18.5884 0 0)
(18.6215 0 0)
(18.6546 0 0)
(18.6877 0 0)
(18.721 0 0)
(18.7543 0 0)
(18.7876 0 0)
(18.8211 0 0)
(18.8546 0 0)
(18.8882 0 0)
(18.9219 0 0)
(18.9556 0 0)
(18.9894 0 0)
(19.0234 0 0)
(19.0573 0 0)
(19.0914 0 0)
(19.1255 0 0)
(19.1597 0 0)
(19.194 0 0)
(19.2283 0 0)
(19.2627 0 0)
(19.2972 0 0)
(19.3318 0 0)
(19.3664 0 0)
(19.4011 0 0)
(19.4358 0 0)
(19.4706 0 0)
(19.5055 0 0)
(19.5404 0 0)
(19.5754 0 0)
(19.6104 0 0)
(19.6454 0 0)
(19.6806 0 0)
(19.7158 0 0)
(19.751 0 0)
(19.7863 0 0)
(19.8217 0 0)
(19.8571 0 0)
(19.8926 0 0)
(19.928 0 0)
(19.9635 0 0)
(19.999 0 0)
(20.0346 0 0)
(20.0701 0 0)
(20.1057 0 0)
(20.1414 0 0)
(20.177 0 0)
(20.2127 0 0)
(20.2485 0 0)
(20.2842 0 0)
(20.3199 0 0)
(20.3556 0 0)
(20.3914 0 0)
(20.4271 0 0)
(20.4629 0 0)
(20.4986 0 0)
(20.5344 0 0)
(20.5701 0 0)
(20.6059 0 0)
(20.6416 0 0)
(20.6773 0 0)
(20.713 0 0)
(20.7486 0 0)
(20.7842 0 0)
(20.8199 0 0)
(20.8555 0 0)
(20.8911 0 0)
(20.9267 0 0)
(20.9622 0 0)
(20.9976 0 0)
(21.0331 0 0)
(21.0685 0 0)
(21.1039 0 0)
(21.1393 0 0)
(21.1745 0 0)
(21.2098 0 0)
(21.245 0 0)
(21.2802 0 0)
(21.3153 0 0)
(21.3503 0 0)
(21.3853 0 0)
(21.4203 0 0)
(21.4551 0 0)
(21.49 0 0)
(21.5247 0 0)
(21.5594 0 0)
(21.5941 0 0)
(21.6286 0 0)
(21.6632 0 0)
(21.6976 0 0)
(21.732 0 0)
(21.7663 0 0)
(21.8006 0 0)
(21.8348 0 0)
(21.8689 0 0)
(21.9029 0 0)
(21.9369 0 0)
(21.9708 0 0)
(22.0046 0 0)
(22.0384 0 0)
(22.0721 0 0)
(22.1057 0 0)
(22.1393 0 0)
(22.1727 0 0)
(22.2062 0 0)
(22.2395 0 0)
(22.2728 0 0)
(22.306 0 0)
(22.3392 0 0)
(22.3723 0 0)
(22.4053 0 0)
(22.4383 0 0)
(22.4712 0 0)
(22.504 0 0)
(22.5368 0 0)
(22.5696 0 0)
(22.6022 0 0)
(22.6348 0 0)
(22.6674 0 0)
(22.6999 0 0)
(22.7323 0 0)
(22.7647 0 0)
(22.7971 0 0)
(22.8294 0 0)
(22.8616 0 0)
(22.8938 0 0)
(22.926 0 0)
(22.9582 0 0)
(22.9903 0 0)
(23.0224 0 0)
(23.0545 0 0)
(23.0865 0 0)
(23.1185 0 0)
(23.1504 0 0)
(23.1823 0 0)
(23.2142 0 0)
(23.246 0 0)
(23.2779 0 0)
(23.3097 0 0)
(23.3415 0 0)
(23.3733 0 0)
(23.4051 0 0)
(23.4369 0 0)
(23.4686 0 0)
(23.5004 0 0)
(23.5322 0 0)
(23.564 0 0)
(23.5958 0 0)
(23.6275 0 0)
(23.6593 0 0)
(23.6912 0 0)
(23.723 0 0)
(23.7549 0 0)
(23.7868 0 0)
(23.8187 0 0)
(23.8506 0 0)
(23.8825 0 0)
(23.9145 0 0)
(23.9465 0 0)
(23.9785 0 0)
(24.0106 0 0)
(24.0427 0 0)
(24.0748 0 0)
(24.107 0 0)
(24.1392 0 0)
(24.1715 0 0)
(24.2038 0 0)
(24.2362 0 0)
(24.2686 0 0)
(24.3011 0 0)
(24.3336 0 0)
(24.3662 0 0)
(24.3989 0 0)
(24.4316 0 0)
(24.4644 0 0)
(24.4972 0 0)
(24.5301 0 0)
(24.5631 0 0)
(24.5961 0 0)
(24.6292 0 0)
(24.6624 0 0)
(24.6957 0 0)
(24.729 0 0)
(24.7624 0 0)
(24.7958 0 0)
(24.8293 0 0)
(24.8629 0 0)
(24.8966 0 0)
(24.9303 0 0)
(24.9641 0 0)
(24.9979 0 0)
(25.0318 0 0)
(25.0658 0 0)
(25.0998 0 0)
(25.1339 0 0)
(25.1681 0 0)
(25.2023 0 0)
(25.2365 0 0)
(25.2708 0 0)
(25.3052 0 0)
(25.3396 0 0)
(25.3741 0 0)
(25.4086 0 0)
(25.4431 0 0)
(25.4777 0 0)
(25.5124 0 0)
(25.5471 0 0)
(25.5818 0 0)
(25.6165 0 0)
(25.6513 0 0)
(25.6861 0 0)
(25.7209 0 0)
(25.7558 0 0)
(25.7906 0 0)
(25.8255 0 0)
(25.8604 0 0)
(25.8953 0 0)
(25.9302 0 0)
(25.9651 0 0)
(26.0001 0 0)
(26.035 0 0)
(26.07 0 0)
(26.105 0 0)
(26.14 0 0)
(26.175 0 0)
(26.21 0 0)
(26.245 0 0)
(26.2801 0 0)
(26.3151 0 0)
(26.3501 0 0)
(26.3851 0 0)
(26.4201 0 0)
(26.4551 0 0)
(26.4901 0 0)
(26.525 0 0)
(26.56 0 0)
(26.5949 0 0)
(26.6299 0 0)
(26.6648 0 0)
(26.6998 0 0)
(26.7347 0 0)
(26.7696 0 0)
(26.8045 0 0)
(26.8394 0 0)
(26.8743 0 0)
(26.9092 0 0)
(26.9441 0 0)
(26.9789 0 0)
(27.0137 0 0)
(27.0486 0 0)
(27.0834 0 0)
(27.1182 0 0)
(27.1529 0 0)
(27.1877 0 0)
(27.2225 0 0)
(27.2572 0 0)
(27.2919 0 0)
(27.3266 0 0)
(27.3613 0 0)
(27.3959 0 0)
(27.4306 0 0)
(27.4652 0 0)
(27.4998 0 0)
(27.5343 0 0)
(27.5689 0 0)
(27.6034 0 0)
(27.6379 0 0)
(27.6724 0 0)
(27.7068 0 0)
(27.7412 0 0)
(27.7756 0 0)
(27.81 0 0)
(27.8443 0 0)
(27.8786 0 0)
(27.9128 0 0)
(27.9471 0 0)
(27.9813 0 0)
(28.0154 0 0)
(28.0496 0 0)
(28.0837 0 0)
(28.1177 0 0)
(28.1518 0 0)
(28.1858 0 0)
(28.2197 0 0)
(28.2536 0 0)
(28.2875 0 0)
(28.3213 0 0)
(28.355 0 0)
(28.3887 0 0)
(28.4224 0 0)
(28.456 0 0)
(28.4896 0 0)
(28.5232 0 0)
(28.5567 0 0)
(28.5901 0 0)
(28.6235 0 0)
(28.6569 0 0)
(28.6902 0 0)
(28.7235 0 0)
(28.7567 0 0)
(28.7899 0 0)
(28.823 0 0)
(28.8561 0 0)
(28.8892 0 0)
(28.9222 0 0)
(28.9551 0 0)
(28.988 0 0)
(29.0209 0 0)
(29.0536 0 0)
(29.0864 0 0)
(29.1191 0 0)
(29.1518 0 0)
(29.1844 0 0)
(29.217 0 0)
(29.2495 0 0)
(29.282 0 0)
(29.3145 0 0)
(29.3469 0 0)
(29.3793 0 0)
(29.4117 0 0)
(29.444 0 0)
(29.4764 0 0)
(29.5087 0 0)
(29.5409 0 0)
(29.5732 0 0)
(29.6054 0 0)
(29.6376 0 0)
(29.6698 0 0)
(29.7019 0 0)
(29.734 0 0)
(29.7662 0 0)
(29.7983 0 0)
(29.8304 0 0)
(29.8625 0 0)
(29.8946 0 0)
(29.9267 0 0)
(29.9588 0 0)
(29.9909 0 0)
(30.0229 0 0)
(30.055 0 0)
(30.0871 0 0)
(30.1193 0 0)
(30.1514 0 0)
(30.1835 0 0)
(30.2157 0 0)
(30.248 0 0)
(30.2802 0 0)
(30.3125 0 0)
(30.3447 0 0)
(30.377 0 0)
(30.4093 0 0)
(30.4416 0 0)
(30.474 0 0)
(30.5064 0 0)
(30.5389 0 0)
(30.5714 0 0)
(30.604 0 0)
(30.6366 0 0)
(30.6692 0 0)
(30.7019 0 0)
(30.7347 0 0)
(30.7675 0 0)
(30.8004 0 0)
(30.8334 0 0)
(30.8664 0 0)
(30.8995 0 0)
(30.9326 0 0)
(30.9659 0 0)
(30.9992 0 0)
(31.0325 0 0)
(31.066 0 0)
(31.0995 0 0)
(31.1331 0 0)
(31.1668 0 0)
(31.2006 0 0)
(31.2345 0 0)
(31.2685 0 0)
(31.3025 0 0)
(31.3366 0 0)
(31.3708 0 0)
(31.405 0 0)
(31.4394 0 0)
(31.4738 0 0)
(31.5083 0 0)
(31.5429 0 0)
(31.5776 0 0)
(31.6123 0 0)
(31.6472 0 0)
(31.682 0 0)
(31.717 0 0)
(31.752 0 0)
(31.7871 0 0)
(31.8222 0 0)
(31.8574 0 0)
(31.8927 0 0)
(31.928 0 0)
(31.9633 0 0)
(31.9987 0 0)
(32.0341 0 0)
(32.0696 0 0)
(32.1051 0 0)
(32.1406 0 0)
(32.1762 0 0)
(32.2118 0 0)
(32.2475 0 0)
(32.2831 0 0)
(32.3188 0 0)
(32.3544 0 0)
(32.39 0 0)
(32.4257 0 0)
(32.4614 0 0)
(32.497 0 0)
(32.5326 0 0)
(32.5682 0 0)
(32.6038 0 0)
(32.6394 0 0)
(32.675 0 0)
(32.7105 0 0)
(32.746 0 0)
(32.7815 0 0)
(32.8169 0 0)
(32.8523 0 0)
(32.8877 0 0)
(32.923 0 0)
(32.9582 0 0)
(32.9934 0 0)
(33.0286 0 0)
(33.0637 0 0)
(33.0987 0 0)
(33.1337 0 0)
(33.1687 0 0)
(33.2036 0 0)
(33.2384 0 0)
(33.2732 0 0)
(33.3079 0 0)
(33.3425 0 0)
(33.3771 0 0)
(33.4116 0 0)
(33.4461 0 0)
(33.4805 0 0)
(33.5148 0 0)
(33.5491 0 0)
(33.5833 0 0)
(33.6174 0 0)
(33.6515 0 0)
(33.6855 0 0)
(33.7195 0 0)
(33.7534 0 0)
(33.7872 0 0)
(33.821 0 0)
(33.8547 0 0)
(33.8883 0 0)
(33.9219 0 0)
(33.9554 0 0)
(33.9889 0 0)
(34.0223 0 0)
(34.0557 0 0)
(34.089 0 0)
(34.1223 0 0)
(34.1555 0 0)
(34.1887 0 0)
(34.2218 0 0)
(34.2549 0 0)
(34.288 0 0)
(34.321 0 0)
(34.354 0 0)
(34.3869 0 0)
(34.4198 0 0)
(34.4527 0 0)
(34.4856 0 0)
(34.5185 0 0)
(34.5513 0 0)
(34.5841 0 0)
(34.6169 0 0)
(34.6497 0 0)
(34.6825 0 0)
(34.7153 0 0)
(34.7481 0 0)
(34.7809 0 0)
(34.8136 0 0)
(34.8464 0 0)
(34.8791 0 0)
(34.9119 0 0)
(34.9446 0 0)
(34.9774 0 0)
(35.0102 0 0)
(35.043 0 0)
(35.0758 0 0)
(35.1086 0 0)
(35.1414 0 0)
(35.1743 0 0)
(35.2071 0 0)
(35.24 0 0)
(35.2729 0 0)
(35.3058 0 0)
(35.3387 0 0)
(35.3717 0 0)
(35.4046 0 0)
(35.4376 0 0)
(35.4706 0 0)
(35.5037 0 0)
(35.5367 0 0)
(35.5698 0 0)
(35.603 0 0)
(35.6361 0 0)
(35.6692 0 0)
(35.7024 0 0)
(35.7356 0 0)
(35.7688 0 0)
(35.802 0 0)
(35.8352 0 0)
(35.8685 0 0)
(35.9017 0 0)
(35.9349 0 0)
(35.9682 0 0)
(36.0014 0 0)
(36.0347 0 0)
(36.068 0 0)
(36.1013 0 0)
(36.1345 0 0)
(36.1678 0 0)
(36.2011 0 0)
(36.2344 0 0)
(36.2677 0 0)
(36.301 0 0)
(36.3343 0 0)
(36.3676 0 0)
(36.4009 0 0)
(36.4341 0 0)
(36.4674 0 0)
(36.5007 0 0)
(36.5339 0 0)
(36.5672 0 0)
(36.6004 0 0)
(36.6337 0 0)
(36.667 0 0)
(36.7002 0 0)
(36.7335 0 0)
(36.7667 0 0)
(36.7999 0 0)
(36.8331 0 0)
(36.8663 0 0)
(36.8995 0 0)
(36.9327 0 0)
(36.9659 0 0)
(36.9991 0 0)
(37.0324 0 0)
(37.0656 0 0)
(37.0988 0 0)
(37.132 0 0)
(37.1652 0 0)
(37.1984 0 0)
(37.2316 0 0)
(37.2648 0 0)
(37.2981 0 0)
(37.3313 0 0)
(37.3646 0 0)
(37.3978 0 0)
(37.4311 0 0)
(37.4644 0 0)
(37.4977 0 0)
(37.531 0 0)
(37.5643 0 0)
(37.5977 0 0)
(37.631 0 0)
(37.6644 0 0)
(37.6978 0 0)
(37.7312 0 0)
(37.7647 0 0)
(37.7982 0 0)
(37.8317 0 0)
(37.8653 0 0)
(37.8989 0 0)
(37.9325 0 0)
(37.9662 0 0)
(37.9999 0 0)
(38.0336 0 0)
(38.0674 0 0)
(38.1012 0 0)
(38.135 0 0)
(38.1689 0 0)
(38.2029 0 0)
(38.2369 0 0)
(38.2709 0 0)
(38.305 0 0)
(38.3391 0 0)
(38.3733 0 0)
(38.4075 0 0)
(38.4418 0 0)
(38.4761 0 0)
(38.5104 0 0)
(38.5448 0 0)
(38.5793 0 0)
(38.6137 0 0)
(38.6482 0 0)
(38.6827 0 0)
(38.7173 0 0)
(38.7519 0 0)
(38.7865 0 0)
(38.8212 0 0)
(38.8559 0 0)
(38.8906 0 0)
(38.9253 0 0)
(38.96 0 0)
(38.9948 0 0)
(39.0296 0 0)
(39.0643 0 0)
(39.0991 0 0)
(39.1339 0 0)
(39.1687 0 0)
(39.2035 0 0)
(39.2383 0 0)
(39.273 0 0)
(39.3078 0 0)
(39.3426 0 0)
(39.3773 0 0)
(39.412 0 0)
(39.4466 0 0)
(39.4813 0 0)
(39.5159 0 0)
(39.5505 0 0)
(39.585 0 0)
(39.6195 0 0)
(39.654 0 0)
(39.6885 0 0)
(39.7229 0 0)
(39.7572 0 0)
(39.7915 0 0)
(39.8257 0 0)
(39.8599 0 0)
(39.8941 0 0)
(39.9282 0 0)
(39.9622 0 0)
(39.9962 0 0)
(40.0302 0 0)
(40.0641 0 0)
(40.0979 0 0)
(40.1317 0 0)
(40.1654 0 0)
(40.1991 0 0)
(40.2327 0 0)
(40.2663 0 0)
(40.2998 0 0)
(40.3333 0 0)
(40.3668 0 0)
(40.4001 0 0)
(40.4335 0 0)
(40.4668 0 0)
(40.5 0 0)
(40.5332 0 0)
(40.5663 0 0)
(40.5995 0 0)
(40.6325 0 0)
(40.6656 0 0)
(40.6986 0 0)
(40.7316 0 0)
(40.7646 0 0)
(40.7975 0 0)
(40.8304 0 0)
(40.8633 0 0)
(40.8961 0 0)
(40.9289 0 0)
(40.9618 0 0)
(40.9946 0 0)
(41.0274 0 0)
(41.0602 0 0)
(41.093 0 0)
(41.1258 0 0)
(41.1586 0 0)
(41.1914 0 0)
(41.2243 0 0)
(41.2571 0 0)
(41.2899 0 0)
(41.3228 0 0)
(41.3557 0 0)
(41.3886 0 0)
(41.4216 0 0)
(41.4545 0 0)
(41.4875 0 0)
(41.5205 0 0)
(41.5536 0 0)
(41.5867 0 0)
(41.6198 0 0)
(41.653 0 0)
(41.6862 0 0)
(41.7195 0 0)
(41.7528 0 0)
(41.7861 0 0)
(41.8195 0 0)
(41.8529 0 0)
(41.8864 0 0)
(41.92 0 0)
(41.9535 0 0)
(41.9872 0 0)
(42.0209 0 0)
(42.0546 0 0)
(42.0884 0 0)
(42.1222 0 0)
(42.1561 0 0)
(42.19 0 0)
(42.224 0 0)
(42.258 0 0)
(42.292 0 0)
(42.3261 0 0)
(42.3602 0 0)
(42.3944 0 0)
(42.4286 0 0)
(42.4628 0 0)
(42.4971 0 0)
(42.5313 0 0)
(42.5656 0 0)
(42.6 0 0)
(42.6343 0 0)
(42.6687 0 0)
(42.703 0 0)
(42.7374 0 0)
(42.7718 0 0)
(42.8062 0 0)
(42.8406 0 0)
(42.875 0 0)
(42.9095 0 0)
(42.9439 0 0)
(42.9783 0 0)
(43.0127 0 0)
(43.047 0 0)
(43.0814 0 0)
(43.1158 0 0)
(43.1501 0 0)
(43.1845 0 0)
(43.2188 0 0)
(43.2531 0 0)
(43.2874 0 0)
(43.3217 0 0)
(43.3559 0 0)
(43.3902 0 0)
(43.4244 0 0)
(43.4586 0 0)
(43.4928 0 0)
(43.5269 0 0)
(43.5611 0 0)
(43.5952 0 0)
(43.6292 0 0)
(43.6633 0 0)
(43.6973 0 0)
(43.7313 0 0)
(43.7652 0 0)
(43.7992 0 0)
(43.8331 0 0)
(43.867 0 0)
(43.9008 0 0)
(43.9346 0 0)
(43.9684 0 0)
(44.0022 0 0)
(44.0359 0 0)
(44.0696 0 0)
(44.1033 0 0)
(44.137 0 0)
(44.1706 0 0)
(44.2042 0 0)
(44.2378 0 0)
(44.2714 0 0)
(44.3049 0 0)
(44.3384 0 0)
(44.3719 0 0)
(44.4053 0 0)
(44.4387 0 0)
(44.4721 0 0)
(44.5055 0 0)
(44.5389 0 0)
(44.5722 0 0)
(44.6055 0 0)
(44.6388 0 0)
(44.6721 0 0)
(44.7053 0 0)
(44.7386 0 0)
(44.7718 0 0)
(44.805 0 0)
(44.8382 0 0)
(44.8714 0 0)
(44.9045 0 0)
(44.9377 0 0)
(44.9708 0 0)
(45.0039 0 0)
(45.0371 0 0)
(45.0702 0 0)
(45.1033 0 0)
(45.1364 0 0)
(45.1695 0 0)
(45.2026 0 0)
(45.2357 0 0)
(45.2688 0 0)
(45.302 0 0)
(45.3351 0 0)
(45.3682 0 0)
(45.4013 0 0)
(45.4345 0 0)
(45.4676 0 0)
(45.5008 0 0)
(45.534 0 0)
(45.5672 0 0)
(45.6004 0 0)
(45.6336 0 0)
(45.6668 0 0)
(45.7 0 0)
(45.7333 0 0)
(45.7666 0 0)
(45.7999 0 0)
(45.8332 0 0)
(45.8665 0 0)
(45.8999 0 0)
(45.9333 0 0)
(45.9667 0 0)
(46.0001 0 0)
(46.0335 0 0)
(46.067 0 0)
(46.1005 0 0)
(46.134 0 0)
(46.1675 0 0)
(46.201 0 0)
(46.2346 0 0)
(46.2682 0 0)
(46.3017 0 0)
(46.3354 0 0)
(46.369 0 0)
(46.4026 0 0)
(46.4363 0 0)
(46.4699 0 0)
(46.5036 0 0)
(46.5373 0 0)
(46.5711 0 0)
(46.6048 0 0)
(46.6385 0 0)
(46.6723 0 0)
(46.706 0 0)
(46.7398 0 0)
(46.7736 0 0)
(46.8074 0 0)
(46.8412 0 0)
(46.875 0 0)
(46.9088 0 0)
(46.9426 0 0)
(46.9765 0 0)
(47.0103 0 0)
(47.0442 0 0)
(47.078 0 0)
(47.1119 0 0)
(47.1458 0 0)
(47.1796 0 0)
(47.2135 0 0)
(47.2474 0 0)
(47.2813 0 0)
(47.3152 0 0)
(47.3491 0 0)
(47.3831 0 0)
(47.417 0 0)
(47.4509 0 0)
(47.4848 0 0)
(47.5188 0 0)
(47.5527 0 0)
(47.5867 0 0)
(47.6206 0 0)
(47.6545 0 0)
(47.6885 0 0)
(47.7224 0 0)
(47.7564 0 0)
(47.7903 0 0)
(47.8243 0 0)
(47.8582 0 0)
(47.8921 0 0)
(47.9261 0 0)
(47.96 0 0)
(47.994 0 0)
(48.0279 0 0)
(48.0618 0 0)
(48.0958 0 0)
(48.1297 0 0)
(48.1636 0 0)
(48.1975 0 0)
(48.2314 0 0)
(48.2653 0 0)
(48.2991 0 0)
(48.333 0 0)
(48.3669 0 0)
(48.4007 0 0)
(48.4345 0 0)
(48.4683 0 0)
(48.5021 0 0)
(48.5359 0 0)
(48.5697 0 0)
(48.6034 0 0)
(48.6372 0 0)
(48.6709 0 0)
(48.7046 0 0)
(48.7383 0 0)
(48.772 0 0)
(48.8057 0 0)
(48.8393 0 0)
(48.873 0 0)
(48.9066 0 0)
(48.9402 0 0)
(48.9738 0 0)
(49.0074 0 0)
(49.041 0 0)
(49.0746 0 0)
(49.1081 0 0)
(49.1417 0 0)
(49.1752 0 0)
(49.2087 0 0)
(49.2422 0 0)
(49.2757 0 0)
(49.3092 0 0)
(49.3427 0 0)
(49.3762 0 0)
(49.4097 0 0)
(49.4431 0 0)
(49.4766 0 0)
(49.5101 0 0)
(49.5435 0 0)
(49.577 0 0)
(49.6105 0 0)
(49.644 0 0)
(49.6775 0 0)
(49.711 0 0)
(49.7445 0 0)
(49.778 0 0)
(49.8116 0 0)
(49.8451 0 0)
(49.8787 0 0)
(49.9122 0 0)
(49.9458 0 0)
(49.9794 0 0)
(50.013 0 0)
(50.0467 0 0)
(50.0803 0 0)
(50.114 0 0)
(50.1477 0 0)
(50.1814 0 0)
(50.2151 0 0)
(50.2489 0 0)
(50.2827 0 0)
(50.3164 0 0)
(50.3503 0 0)
(50.3841 0 0)
(50.4179 0 0)
(50.4518 0 0)
(50.4857 0 0)
(50.5196 0 0)
(50.5535 0 0)
(50.5874 0 0)
(50.6214 0 0)
(50.6553 0 0)
(50.6893 0 0)
(50.7233 0 0)
(50.7573 0 0)
(50.7912 0 0)
(50.8252 0 0)
(50.8592 0 0)
(50.8932 0 0)
(50.9272 0 0)
(50.9612 0 0)
(50.9952 0 0)
(51.0292 0 0)
(51.0631 0 0)
(51.0971 0 0)
(51.1311 0 0)
(51.165 0 0)
(51.1989 0 0)
(51.2328 0 0)
(51.2667 0 0)
(51.3006 0 0)
(51.3345 0 0)
(51.3683 0 0)
(51.4022 0 0)
(51.436 0 0)
(51.4698 0 0)
(51.5035 0 0)
(51.5373 0 0)
(51.571 0 0)
(51.6047 0 0)
(51.6383 0 0)
(51.672 0 0)
(51.7056 0 0)
(51.7392 0 0)
(51.7728 0 0)
(51.8063 0 0)
(51.8398 0 0)
(51.8733 0 0)
(51.9067 0 0)
(51.9402 0 0)
(51.9736 0 0)
(52.007 0 0)
(52.0403 0 0)
(52.0736 0 0)
(52.1069 0 0)
(52.1402 0 0)
(52.1735 0 0)
(52.2067 0 0)
(52.2399 0 0)
(52.2731 0 0)
(52.3062 0 0)
(52.3393 0 0)
(52.3724 0 0)
(52.4055 0 0)
(52.4386 0 0)
(52.4716 0 0)
(52.5047 0 0)
(52.5377 0 0)
(52.5707 0 0)
(52.6036 0 0)
(52.6366 0 0)
(52.6695 0 0)
(52.7025 0 0)
(52.7354 0 0)
(52.7683 0 0)
(52.8012 0 0)
(52.8341 0 0)
(52.867 0 0)
(52.8998 0 0)
(52.9327 0 0)
(52.9656 0 0)
(52.9984 0 0)
(53.0313 0 0)
(53.0642 0 0)
(53.0971 0 0)
(53.13 0 0)
(53.1629 0 0)
(53.1958 0 0)
(53.2287 0 0)
(53.2616 0 0)
(53.2945 0 0)
(53.3275 0 0)
(53.3605 0 0)
(53.3935 0 0)
(53.4265 0 0)
(53.4595 0 0)
(53.4925 0 0)
(53.5256 0 0)
(53.5587 0 0)
(53.5918 0 0)
(53.625 0 0)
(53.6582 0 0)
(53.6914 0 0)
(53.7247 0 0)
(53.7579 0 0)
(53.7913 0 0)
(53.8246 0 0)
(53.858 0 0)
(53.8915 0 0)
(53.925 0 0)
(53.9585 0 0)
(53.9921 0 0)
(54.0257 0 0)
(54.0594 0 0)
(54.0931 0 0)
(54.1268 0 0)
(54.1606 0 0)
(54.1944 0 0)
(54.2283 0 0)
(54.2622 0 0)
(54.2961 0 0)
(54.3301 0 0)
(54.3641 0 0)
(54.3981 0 0)
(54.4322 0 0)
(54.4663 0 0)
(54.5004 0 0)
(54.5346 0 0)
(54.5688 0 0)
(54.603 0 0)
(54.6372 0 0)
(54.6715 0 0)
(54.7057 0 0)
(54.74 0 0)
(54.7743 0 0)
(54.8086 0 0)
(54.8429 0 0)
(54.8773 0 0)
(54.9116 0 0)
(54.9459 0 0)
(54.9802 0 0)
(55.0146 0 0)
(55.0489 0 0)
(55.0832 0 0)
(55.1175 0 0)
(55.1518 0 0)
(55.1861 0 0)
(55.2204 0 0)
(55.2547 0 0)
(55.2889 0 0)
(55.3232 0 0)
(55.3574 0 0)
(55.3916 0 0)
(55.4258 0 0)
(55.46 0 0)
(55.4942 0 0)
(55.5284 0 0)
(55.5625 0 0)
(55.5966 0 0)
(55.6308 0 0)
(55.6649 0 0)
(55.699 0 0)
(55.7331 0 0)
(55.7672 0 0)
(55.8012 0 0)
(55.8353 0 0)
(55.8694 0 0)
(55.9034 0 0)
(55.9375 0 0)
(55.9715 0 0)
(56.0056 0 0)
(56.0396 0 0)
(56.0737 0 0)
(56.1077 0 0)
(56.1418 0 0)
(56.1758 0 0)
(56.2099 0 0)
(56.244 0 0)
(56.278 0 0)
(56.3121 0 0)
(56.3462 0 0)
(56.3803 0 0)
(56.4144 0 0)
(56.4485 0 0)
(56.4827 0 0)
(56.5168 0 0)
(56.5509 0 0)
(56.5851 0 0)
(56.6192 0 0)
(56.6534 0 0)
(56.6876 0 0)
(56.7218 0 0)
(56.7559 0 0)
(56.7901 0 0)
(56.8243 0 0)
(56.8585 0 0)
(56.8927 0 0)
(56.9268 0 0)
(56.961 0 0)
(56.9951 0 0)
(57.0293 0 0)
(57.0634 0 0)
(57.0975 0 0)
(57.1316 0 0)
(57.1657 0 0)
(57.1998 0 0)
(57.2338 0 0)
(57.2679 0 0)
(57.3019 0 0)
(57.3358 0 0)
(57.3698 0 0)
(57.4037 0 0)
(57.4376 0 0)
(57.4715 0 0)
(57.5053 0 0)
(57.5391 0 0)
(57.5729 0 0)
(57.6066 0 0)
(57.6403 0 0)
(57.674 0 0)
(57.7077 0 0)
(57.7413 0 0)
(57.7749 0 0)
(57.8084 0 0)
(57.8419 0 0)
(57.8754 0 0)
(57.9089 0 0)
(57.9423 0 0)
(57.9757 0 0)
(58.009 0 0)
(58.0424 0 0)
(58.0757 0 0)
(58.1089 0 0)
(58.1422 0 0)
(58.1754 0 0)
(58.2086 0 0)
(58.2418 0 0)
(58.275 0 0)
(58.3081 0 0)
(58.3413 0 0)
(58.3744 0 0)
(58.4075 0 0)
(58.4406 0 0)
(58.4737 0 0)
(58.5068 0 0)
(58.5399 0 0)
(58.573 0 0)
(58.6061 0 0)
(58.6392 0 0)
(58.6723 0 0)
(58.7054 0 0)
(58.7385 0 0)
(58.7716 0 0)
(58.8048 0 0)
(58.8379 0 0)
(58.8711 0 0)
(58.9043 0 0)
(58.9375 0 0)
(58.9707 0 0)
(59.0039 0 0)
(59.0372 0 0)
(59.0705 0 0)
(59.1038 0 0)
(59.1372 0 0)
(59.1706 0 0)
(59.204 0 0)
(59.2375 0 0)
(59.271 0 0)
(59.3045 0 0)
(59.3381 0 0)
(59.3717 0 0)
(59.4054 0 0)
(59.4391 0 0)
(59.4728 0 0)
(59.5066 0 0)
(59.5404 0 0)
(59.5743 0 0)
(59.6082 0 0)
(59.6421 0 0)
(59.6761 0 0)
(59.7101 0 0)
(59.7441 0 0)
(59.7782 0 0)
(59.8123 0 0)
(59.8464 0 0)
(59.8805 0 0)
(59.9147 0 0)
(59.9489 0 0)
(59.9832 0 0)
(60.0174 0 0)
(60.0517 0 0)
(60.0859 0 0)
(60.1202 0 0)
(60.1545 0 0)
(60.1888 0 0)
(60.2231 0 0)
(60.2574 0 0)
(60.2917 0 0)
(60.326 0 0)
(60.3603 0 0)
(60.3946 0 0)
(60.4288 0 0)
(60.4631 0 0)
(60.4973 0 0)
(60.5315 0 0)
(60.5656 0 0)
(60.5998 0 0)
(60.6339 0 0)
(60.668 0 0)
(60.7021 0 0)
(60.7361 0 0)
(60.7701 0 0)
(60.8041 0 0)
(60.838 0 0)
(60.8719 0 0)
(60.9057 0 0)
(60.9395 0 0)
(60.9733 0 0)
(61.0071 0 0)
(61.0408 0 0)
(61.0744 0 0)
(61.1081 0 0)
(61.1417 0 0)
(61.1752 0 0)
(61.2088 0 0)
(61.2423 0 0)
(61.2757 0 0)
(61.3092 0 0)
(61.3426 0 0)
(61.376 0 0)
(61.4093 0 0)
(61.4427 0 0)
(61.476 0 0)
(61.5093 0 0)
(61.5426 0 0)
(61.5758 0 0)
(61.6091 0 0)
(61.6424 0 0)
(61.6756 0 0)
(61.7089 0 0)
(61.7421 0 0)
(61.7754 0 0)
(61.8086 0 0)
(61.8419 0 0)
(61.8752 0 0)
(61.9085 0 0)
(61.9418 0 0)
(61.9751 0 0)
(62.0085 0 0)
(62.0419 0 0)
(62.0753 0 0)
(62.1087 0 0)
(62.1422 0 0)
(62.1757 0 0)
(62.2093 0 0)
(62.2429 0 0)
(62.2765 0 0)
(62.3102 0 0)
(62.3439 0 0)
(62.3777 0 0)
(62.4115 0 0)
(62.4454 0 0)
(62.4793 0 0)
(62.5133 0 0)
(62.5473 0 0)
(62.5813 0 0)
(62.6154 0 0)
(62.6496 0 0)
(62.6837 0 0)
(62.718 0 0)
(62.7522 0 0)
(62.7865 0 0)
(62.8208 0 0)
(62.8551 0 0)
(62.8894 0 0)
(62.9238 0 0)
(62.9582 0 0)
(62.9926 0 0)
(63.027 0 0)
(63.0613 0 0)
(63.0957 0 0)
(63.1301 0 0)
(63.1645 0 0)
(63.1989 0 0)
(63.2332 0 0)
(63.2675 0 0)
(63.3019 0 0)
(63.3361 0 0)
(63.3704 0 0)
(63.4047 0 0)
(63.4389 0 0)
(63.4731 0 0)
(63.5073 0 0)
(63.5414 0 0)
(63.5755 0 0)
(63.6096 0 0)
(63.6436 0 0)
(63.6777 0 0)
(63.7117 0 0)
(63.7456 0 0)
(63.7796 0 0)
(63.8135 0 0)
(63.8474 0 0)
(63.8813 0 0)
(63.9151 0 0)
(63.949 0 0)
(63.9828 0 0)
(64.0166 0 0)
(64.0504 0 0)
(64.0842 0 0)
(64.118 0 0)
(64.1518 0 0)
(64.1855 0 0)
(64.2193 0 0)
(64.2531 0 0)
(64.2869 0 0)
(64.3207 0 0)
(64.3545 0 0)
(64.3883 0 0)
(64.4221 0 0)
(64.4559 0 0)
(64.4898 0 0)
(64.5237 0 0)
(64.5576 0 0)
(64.5915 0 0)
(64.6255 0 0)
(64.6595 0 0)
(64.6935 0 0)
(64.7276 0 0)
(64.7617 0 0)
(64.7958 0 0)
(64.83 0 0)
(64.8642 0 0)
(64.8984 0 0)
(64.9326 0 0)
(64.9669 0 0)
(65.0012 0 0)
(65.0356 0 0)
(65.0699 0 0)
(65.1043 0 0)
(65.1387 0 0)
(65.1732 0 0)
(65.2076 0 0)
(65.242 0 0)
(65.2765 0 0)
(65.3109 0 0)
(65.3454 0 0)
(65.3799 0 0)
(65.4143 0 0)
(65.4488 0 0)
(65.4832 0 0)
(65.5176 0 0)
(65.552 0 0)
(65.5864 0 0)
(65.6207 0 0)
(65.655 0 0)
(65.6893 0 0)
(65.7236 0 0)
(65.7578 0 0)
(65.792 0 0)
(65.8262 0 0)
(65.8603 0 0)
(65.8944 0 0)
(65.9285 0 0)
(65.9625 0 0)
(65.9965 0 0)
(66.0305 0 0)
(66.0644 0 0)
(66.0983 0 0)
(66.1322 0 0)
(66.166 0 0)
(66.1998 0 0)
(66.2335 0 0)
(66.2673 0 0)
(66.301 0 0)
(66.3346 0 0)
(66.3683 0 0)
(66.4019 0 0)
(66.4355 0 0)
(66.4691 0 0)
(66.5027 0 0)
(66.5362 0 0)
(66.5698 0 0)
(66.6033 0 0)
(66.6368 0 0)
(66.6703 0 0)
(66.7038 0 0)
(66.7373 0 0)
(66.7708 0 0)
(66.8043 0 0)
(66.8378 0 0)
(66.8713 0 0)
(66.9048 0 0)
(66.9383 0 0)
(66.9718 0 0)
(67.0053 0 0)
(67.0388 0 0)
(67.0723 0 0)
(67.1059 0 0)
(67.1395 0 0)
(67.173 0 0)
(67.2067 0 0)
(67.2403 0 0)
(67.2739 0 0)
(67.3076 0 0)
(67.3413 0 0)
(67.375 0 0)
(67.4087 0 0)
(67.4424 0 0)
(67.4762 0 0)
(67.51 0 0)
(67.5438 0 0)
(67.5776 0 0)
(67.6115 0 0)
(67.6454 0 0)
(67.6793 0 0)
(67.7132 0 0)
(67.7471 0 0)
(67.781 0 0)
(67.815 0 0)
(67.849 0 0)
(67.883 0 0)
(67.917 0 0)
(67.951 0 0)
(67.985 0 0)
(68.0191 0 0)
(68.0531 0 0)
(68.0872 0 0)
(68.1212 0 0)
(68.1553 0 0)
(68.1894 0 0)
(68.2234 0 0)
(68.2575 0 0)
(68.2916 0 0)
(68.3257 0 0)
(68.3598 0 0)
(68.3939 0 0)
(68.428 0 0)
(68.4621 0 0)
(68.4962 0 0)
(68.5303 0 0)
(68.5644 0 0)
(68.5986 0 0)
(68.6327 0 0)
(68.6668 0 0)
(68.7009 0 0)
(68.735 0 0)
(68.7692 0 0)
(68.8033 0 0)
(68.8374 0 0)
(68.8716 0 0)
(68.9057 0 0)
(68.9399 0 0)
(68.974 0 0)
(69.0082 0 0)
(69.0423 0 0)
(69.0765 0 0)
(69.1106 0 0)
(69.1448 0 0)
(69.179 0 0)
(69.2131 0 0)
(69.2473 0 0)
(69.2814 0 0)
(69.3156 0 0)
(69.3498 0 0)
(69.3839 0 0)
(69.4181 0 0)
(69.4522 0 0)
(69.4864 0 0)
(69.5205 0 0)
(69.5546 0 0)
(69.5888 0 0)
(69.6229 0 0)
(69.657 0 0)
(69.6911 0 0)
(69.7252 0 0)
(69.7593 0 0)
(69.7934 0 0)
(69.8275 0 0)
(69.8616 0 0)
(69.8956 0 0)
(69.9297 0 0)
(69.9637 0 0)
(69.9978 0 0)
(70.0318 0 0)
(70.0658 0 0)
(70.0998 0 0)
(70.1338 0 0)
(70.1678 0 0)
(70.2017 0 0)
(70.2356 0 0)
(70.2696 0 0)
(70.3035 0 0)
(70.3373 0 0)
(70.3712 0 0)
(70.4051 0 0)
(70.4389 0 0)
(70.4727 0 0)
(70.5065 0 0)
(70.5403 0 0)
(70.574 0 0)
(70.6077 0 0)
(70.6414 0 0)
(70.6751 0 0)
(70.7088 0 0)
(70.7424 0 0)
(70.7761 0 0)
(70.8097 0 0)
(70.8432 0 0)
(70.8768 0 0)
(70.9103 0 0)
(70.9438 0 0)
(70.9773 0 0)
(71.0108 0 0)
(71.0443 0 0)
(71.0777 0 0)
(71.1111 0 0)
(71.1445 0 0)
(71.1779 0 0)
(71.2113 0 0)
(71.2447 0 0)
(71.278 0 0)
(71.3114 0 0)
(71.3447 0 0)
(71.378 0 0)
(71.4113 0 0)
(71.4447 0 0)
(71.478 0 0)
(71.5113 0 0)
(71.5446 0 0)
(71.5779 0 0)
(71.6112 0 0)
(71.6446 0 0)
(71.6779 0 0)
(71.7113 0 0)
(71.7446 0 0)
(71.778 0 0)
(71.8113 0 0)
(71.8447 0 0)
(71.8781 0 0)
(71.9115 0 0)
(71.945 0 0)
(71.9784 0 0)
(72.0119 0 0)
(72.0454 0 0)
(72.0789 0 0)
(72.1124 0 0)
(72.1459 0 0)
(72.1795 0 0)
(72.213 0 0)
(72.2466 0 0)
(72.2802 0 0)
(72.3138 0 0)
(72.3474 0 0)
(72.3811 0 0)
(72.4147 0 0)
(72.4484 0 0)
(72.482 0 0)
(72.5157 0 0)
(72.5493 0 0)
(72.583 0 0)
(72.6166 0 0)
(72.6503 0 0)
(72.6839 0 0)
(72.7176 0 0)
(72.7512 0 0)
(72.7849 0 0)
(72.8185 0 0)
(72.8521 0 0)
(72.8858 0 0)
(72.9194 0 0)
(72.953 0 0)
(72.9866 0 0)
(73.0202 0 0)
(73.0538 0 0)
(73.0874 0 0)
(73.1209 0 0)
(73.1545 0 0)
(73.1881 0 0)
(73.2217 0 0)
(73.2553 0 0)
(73.2888 0 0)
(73.3224 0 0)
(73.356 0 0)
(73.3896 0 0)
(73.4232 0 0)
(73.4568 0 0)
(73.4904 0 0)
(73.524 0 0)
(73.5576 0 0)
(73.5913 0 0)
(73.6249 0 0)
(73.6586 0 0)
(73.6923 0 0)
(73.726 0 0)
(73.7597 0 0)
(73.7935 0 0)
(73.8272 0 0)
(73.861 0 0)
(73.8949 0 0)
(73.9287 0 0)
(73.9625 0 0)