/*--------------------------------*- C++ -*----------------------------------*\
  =========                 |
  \\      /  F ield         | OpenFOAM: The Open Source CFD Toolbox
   \\    /   O peration     | Website:  https://openfoam.org
    \\  /    A nd           | Version:  9
     \\/     M anipulation  |
\*---------------------------------------------------------------------------*/
FoamFile
{
    format      ascii;
    class       volScalarField;
    location    "0.038";
    object      mag(U);
}
// * * * * * * * * * * * * * * * * * * * * * * * * * * * * * * * * * * * * * //

dimensions      [0 1 -1 0 0 0 0];

internalField   nonuniform List<scalar> 
100
(
208.503
211.917
213.911
216.064
218.178
220.301
222.423
224.544
226.665
228.787
230.908
233.029
235.149
237.27
239.39
241.51
243.629
245.748
247.867
249.985
252.103
254.22
256.337
258.453
260.568
262.682
264.795
266.908
269.019
271.129
273.238
275.346
277.451
279.555
281.655
283.752
285.84
287.914
289.958
291.942
293.819
295.507
296.904
297.905
298.507
298.807
298.944
299.041
299.169
299.288
299.329
299.29
299.204
299.103
299.003
298.927
298.882
298.836
298.771
298.673
298.551
298.421
298.297
298.223
298.175
298.128
298.066
297.977
297.866
297.744
297.627
297.543
297.475
297.412
297.348
297.273
297.174
297.048
296.91
296.784
296.687
296.621
296.61
296.603
296.503
296.224
294.878
292.06
290.296
289.434
288.757
287.594
285.598
284.271
283.672
283.296
283.174
283.144
283.114
283.031
)
;

boundaryField
{
    sides
    {
        type            calculated;
        value           nonuniform List<scalar> 2(283.031 208.503);
    }
    empty
    {
        type            empty;
    }
}


// ************************************************************************* //
