/*--------------------------------*- C++ -*----------------------------------*\
  =========                 |
  \\      /  F ield         | OpenFOAM: The Open Source CFD Toolbox
   \\    /   O peration     | Website:  https://openfoam.org
    \\  /    A nd           | Version:  9
     \\/     M anipulation  |
\*---------------------------------------------------------------------------*/
FoamFile
{
    format      ascii;
    class       volScalarField;
    location    "0.047";
    object      mag(U);
}
// * * * * * * * * * * * * * * * * * * * * * * * * * * * * * * * * * * * * * //

dimensions      [0 1 -1 0 0 0 0];

internalField   nonuniform List<scalar> 
10000
(
6.94206
6.97024
7.00411
7.03207
7.05678
7.08137
7.10656
7.13201
7.15745
7.18283
7.20818
7.23354
7.25891
7.28428
7.30964
7.33501
7.36038
7.38574
7.41111
7.43648
7.46184
7.48721
7.51257
7.53794
7.56331
7.58867
7.61404
7.63941
7.66477
7.69014
7.71551
7.74087
7.76624
7.7916
7.81697
7.84234
7.8677
7.89307
7.91843
7.9438
7.96916
7.99453
8.0199
8.04526
8.07063
8.09599
8.12136
8.14672
8.17209
8.19745
8.22282
8.24818
8.27355
8.29891
8.32428
8.34964
8.375
8.40037
8.42573
8.4511
8.47646
8.50182
8.52719
8.55255
8.57791
8.60328
8.62864
8.654
8.67937
8.70473
8.73009
8.75545
8.78081
8.80618
8.83154
8.8569
8.88226
8.90762
8.93298
8.95834
8.98371
9.00907
9.03443
9.05979
9.08515
9.11051
9.13587
9.16123
9.18659
9.21194
9.2373
9.26266
9.28802
9.31338
9.33874
9.36409
9.38945
9.41481
9.44017
9.46552
9.49088
9.51624
9.54159
9.56695
9.5923
9.61766
9.64301
9.66837
9.69372
9.71908
9.74443
9.76979
9.79514
9.82049
9.84584
9.8712
9.89655
9.9219
9.94725
9.97261
9.99796
10.0233
10.0487
10.074
10.0994
10.1247
10.1501
10.1754
10.2008
10.2261
10.2515
10.2768
10.3021
10.3275
10.3528
10.3782
10.4035
10.4289
10.4542
10.4796
10.5049
10.5303
10.5556
10.5809
10.6063
10.6316
10.657
10.6823
10.7077
10.733
10.7583
10.7837
10.809
10.8344
10.8597
10.885
10.9104
10.9357
10.961
10.9864
11.0117
11.0371
11.0624
11.0877
11.1131
11.1384
11.1637
11.1891
11.2144
11.2397
11.2651
11.2904
11.3157
11.3411
11.3664
11.3917
11.417
11.4424
11.4677
11.493
11.5184
11.5437
11.569
11.5943
11.6197
11.645
11.6703
11.6956
11.721
11.7463
11.7716
11.7969
11.8222
11.8476
11.8729
11.8982
11.9235
11.9488
11.9742
11.9995
12.0248
12.0501
12.0754
12.1007
12.126
12.1514
12.1767
12.202
12.2273
12.2526
12.2779
12.3032
12.3285
12.3539
12.3792
12.4045
12.4298
12.4551
12.4804
12.5057
12.531
12.5563
12.5816
12.6069
12.6322
12.6575
12.6828
12.7081
12.7334
12.7587
12.784
12.8093
12.8346
12.8599
12.8852
12.9105
12.9358
12.9611
12.9864
13.0116
13.0369
13.0622
13.0875
13.1128
13.1381
13.1634
13.1887
13.2139
13.2392
13.2645
13.2898
13.3151
13.3404
13.3656
13.3909
13.4162
13.4415
13.4667
13.492
13.5173
13.5426
13.5678
13.5931
13.6184
13.6437
13.6689
13.6942
13.7195
13.7447
13.77
13.7953
13.8205
13.8458
13.8711
13.8963
13.9216
13.9468
13.9721
13.9974
14.0226
14.0479
14.0731
14.0984
14.1236
14.1489
14.1741
14.1994
14.2246
14.2499
14.2751
14.3004
14.3256
14.3509
14.3761
14.4014
14.4266
14.4518
14.4771
14.5023
14.5275
14.5528
14.578
14.6033
14.6285
14.6537
14.679
14.7042
14.7294
14.7546
14.7799
14.8051
14.8303
14.8555
14.8808
14.906
14.9312
14.9564
14.9816
15.0069
15.0321
15.0573
15.0825
15.1077
15.1329
15.1581
15.1833
15.2085
15.2338
15.259
15.2842
15.3094
15.3346
15.3598
15.385
15.4102
15.4354
15.4606
15.4857
15.5109
15.5361
15.5613
15.5865
15.6117
15.6369
15.6621
15.6873
15.7124
15.7376
15.7628
15.788
15.8131
15.8383
15.8635
15.8887
15.9138
15.939
15.9642
15.9893
16.0145
16.0397
16.0648
16.09
16.1152
16.1403
16.1655
16.1906
16.2158
16.2409
16.2661
16.2912
16.3164
16.3415
16.3667
16.3918
16.417
16.4421
16.4672
16.4924
16.5175
16.5427
16.5678
16.5929
16.618
16.6432
16.6683
16.6934
16.7185
16.7437
16.7688
16.7939
16.819
16.8441
16.8693
16.8944
16.9195
16.9446
16.9697
16.9948
17.0199
17.045
17.0701
17.0952
17.1203
17.1454
17.1705
17.1956
17.2207
17.2457
17.2708
17.2959
17.321
17.3461
17.3711
17.3962
17.4213
17.4464
17.4714
17.4965
17.5216
17.5466
17.5717
17.5968
17.6218
17.6469
17.6719
17.697
17.722
17.7471
17.7721
17.7972
17.8222
17.8473
17.8723
17.8973
17.9224
17.9474
17.9724
17.9975
18.0225
18.0475
18.0725
18.0976
18.1226
18.1476
18.1726
18.1976
18.2226
18.2476
18.2726
18.2976
18.3226
18.3476
18.3726
18.3976
18.4226
18.4476
18.4726
18.4976
18.5226
18.5475
18.5725
18.5975
18.6225
18.6474
18.6724
18.6974
18.7223
18.7473
18.7723
18.7972
18.8222
18.8471
18.8721
18.897
18.922
18.9469
18.9718
18.9968
19.0217
19.0466
19.0716
19.0965
19.1214
19.1463
19.1713
19.1962
19.2211
19.246
19.2709
19.2958
19.3207
19.3456
19.3705
19.3954
19.4203
19.4452
19.4701
19.4949
19.5198
19.5447
19.5696
19.5944
19.6193
19.6442
19.669
19.6939
19.7187
19.7436
19.7684
19.7933
19.8181
19.843
19.8678
19.8927
19.9175
19.9423
19.9671
19.992
20.0168
20.0416
20.0664
20.0912
20.116
20.1408
20.1656
20.1904
20.2152
20.24
20.2648
20.2896
20.3144
20.3391
20.3639
20.3887
20.4134
20.4382
20.463
20.4877
20.5125
20.5372
20.562
20.5867
20.6115
20.6362
20.6609
20.6857
20.7104
20.7351
20.7598
20.7845
20.8092
20.8339
20.8586
20.8833
20.908
20.9327
20.9574
20.9821
21.0068
21.0315
21.0561
21.0808
21.1055
21.1301
21.1548
21.1794
21.2041
21.2287
21.2534
21.278
21.3026
21.3273
21.3519
21.3765
21.4011
21.4257
21.4503
21.475
21.4996
21.5241
21.5487
21.5733
21.5979
21.6225
21.6471
21.6716
21.6962
21.7208
21.7453
21.7699
21.7944
21.8189
21.8435
21.868
21.8925
21.9171
21.9416
21.9661
21.9906
22.0151
22.0396
22.0641
22.0886
22.1131
22.1376
22.1621
22.1865
22.211
22.2355
22.2599
22.2844
22.3088
22.3333
22.3577
22.3821
22.4065
22.431
22.4554
22.4798
22.5042
22.5286
22.553
22.5774
22.6018
22.6261
22.6505
22.6749
22.6992
22.7236
22.7479
22.7723
22.7966
22.821
22.8453
22.8696
22.8939
22.9182
22.9425
22.9668
22.9911
23.0154
23.0397
23.064
23.0883
23.1125
23.1368
23.161
23.1853
23.2095
23.2337
23.258
23.2822
23.3064
23.3306
23.3548
23.379
23.4032
23.4274
23.4516
23.4757
23.4999
23.524
23.5482
23.5723
23.5965
23.6206
23.6447
23.6688
23.693
23.7171
23.7412
23.7652
23.7893
23.8134
23.8375
23.8615
23.8856
23.9096
23.9337
23.9577
23.9817
24.0057
24.0298
24.0538
24.0778
24.1017
24.1257
24.1497
24.1737
24.1976
24.2216
24.2455
24.2694
24.2934
24.3173
24.3412
24.3651
24.389
24.4129
24.4368
24.4606
24.4845
24.5083
24.5322
24.556
24.5799
24.6037
24.6275
24.6513
24.6751
24.6989
24.7226
24.7464
24.7702
24.7939
24.8177
24.8414
24.8651
24.8888
24.9126
24.9363
24.9599
24.9836
25.0073
25.031
25.0546
25.0782
25.1019
25.1255
25.1491
25.1727
25.1963
25.2199
25.2435
25.267
25.2906
25.3141
25.3377
25.3612
25.3847
25.4082
25.4317
25.4552
25.4787
25.5021
25.5256
25.549
25.5725
25.5959
25.6193
25.6427
25.6661
25.6895
25.7129
25.7362
25.7596
25.7829
25.8062
25.8295
25.8528
25.8761
25.8994
25.9227
25.9459
25.9692
25.9924
26.0156
26.0388
26.062
26.0852
26.1084
26.1316
26.1547
26.1779
26.201
26.2241
26.2472
26.2703
26.2934
26.3164
26.3395
26.3625
26.3855
26.4086
26.4316
26.4545
26.4775
26.5005
26.5234
26.5464
26.5693
26.5922
26.6151
26.638
26.6608
26.6837
26.7065
26.7293
26.7522
26.775
26.7977
26.8205
26.8433
26.866
26.8887
26.9114
26.9341
26.9568
26.9795
27.0021
27.0248
27.0474
27.07
27.0926
27.1152
27.1377
27.1603
27.1828
27.2053
27.2278
27.2503
27.2728
27.2953
27.3177
27.3401
27.3625
27.3849
27.4073
27.4296
27.452
27.4743
27.4966
27.5189
27.5412
27.5634
27.5857
27.6079
27.6301
27.6523
27.6744
27.6966
27.7187
27.7408
27.7629
27.785
27.8071
27.8291
27.8512
27.8732
27.8952
27.9171
27.9391
27.961
27.9829
28.0048
28.0267
28.0486
28.0704
28.0922
28.114
28.1358
28.1576
28.1793
28.2011
28.2228
28.2444
28.2661
28.2877
28.3094
28.331
28.3526
28.3741
28.3957
28.4172
28.4387
28.4602
28.4816
28.5031
28.5245
28.5459
28.5672
28.5886
28.6099
28.6312
28.6525
28.6738
28.695
28.7162
28.7374
28.7586
28.7798
28.8009
28.822
28.8431
28.8641
28.8852
28.9062
28.9272
28.9481
28.9691
28.99
29.0109
29.0318
29.0526
29.0734
29.0942
29.115
29.1358
29.1565
29.1772
29.1979
29.2185
29.2392
29.2598
29.2803
29.3009
29.3214
29.3419
29.3624
29.3828
29.4033
29.4237
29.444
29.4644
29.4847
29.505
29.5252
29.5455
29.5657
29.5859
29.606
29.6262
29.6463
29.6663
29.6864
29.7064
29.7264
29.7464
29.7663
29.7862
29.8061
29.826
29.8458
29.8656
29.8854
29.9051
29.9248
29.9445
29.9641
29.9838
30.0034
30.0229
30.0425
30.062
30.0815
30.1009
30.1203
30.1397
30.1591
30.1784
30.1977
30.217
30.2362
30.2554
30.2746
30.2937
30.3128
30.3319
30.351
30.37
30.389
30.408
30.4269
30.4458
30.4647
30.4835
30.5023
30.5211
30.5398
30.5585
30.5772
30.5958
30.6144
30.633
30.6516
30.6701
30.6886
30.707
30.7254
30.7438
30.7622
30.7805
30.7988
30.8171
30.8353
30.8535
30.8716
30.8897
30.9078
30.9259
30.9439
30.9619
30.9799
30.9978
31.0157
31.0335
31.0514
31.0691
31.0869
31.1046
31.1223
31.14
31.1576
31.1752
31.1927
31.2102
31.2277
31.2452
31.2626
31.28
31.2973
31.3146
31.3319
31.3492
31.3664
31.3836
31.4007
31.4178
31.4349
31.452
31.469
31.4859
31.5029
31.5198
31.5367
31.5535
31.5703
31.5871
31.6038
31.6205
31.6372
31.6538
31.6704
31.687
31.7035
31.72
31.7365
31.7529
31.7693
31.7857
31.802
31.8183
31.8346
31.8508
31.867
31.8832
31.8993
31.9154
31.9315
31.9475
31.9635
31.9795
31.9954
32.0113
32.0272
32.043
32.0588
32.0746
32.0904
32.1061
32.1217
32.1374
32.153
32.1686
32.1841
32.1996
32.2151
32.2306
32.246
32.2614
32.2767
32.2921
32.3074
32.3226
32.3379
32.3531
32.3683
32.3834
32.3985
32.4136
32.4287
32.4437
32.4587
32.4736
32.4886
32.5035
32.5184
32.5332
32.548
32.5628
32.5776
32.5923
32.6071
32.6217
32.6364
32.651
32.6656
32.6802
32.6947
32.7093
32.7237
32.7382
32.7526
32.7671
32.7814
32.7958
32.8101
32.8244
32.8387
32.853
32.8672
32.8814
32.8956
32.9098
32.9239
32.938
32.9521
32.9662
32.9802
32.9942
33.0082
33.0222
33.0362
33.0501
33.064
33.0779
33.0917
33.1056
33.1194
33.1332
33.147
33.1607
33.1745
33.1882
33.2019
33.2155
33.2292
33.2428
33.2565
33.27
33.2836
33.2972
33.3107
33.3242
33.3377
33.3512
33.3647
33.3781
33.3916
33.405
33.4184
33.4318
33.4451
33.4585
33.4718
33.4851
33.4984
33.5117
33.525
33.5382
33.5515
33.5647
33.5779
33.5911
33.6043
33.6174
33.6306
33.6437
33.6569
33.67
33.6831
33.6961
33.7092
33.7223
33.7353
33.7484
33.7614
33.7744
33.7874
33.8004
33.8133
33.8263
33.8393
33.8522
33.8651
33.878
33.891
33.9039
33.9167
33.9296
33.9425
33.9553
33.9682
33.981
33.9939
34.0067
34.0195
34.0323
34.0451
34.0579
34.0707
34.0834
34.0962
34.109
34.1217
34.1344
34.1472
34.1599
34.1726
34.1853
34.198
34.2107
34.2234
34.2361
34.2488
34.2614
34.2741
34.2868
34.2994
34.312
34.3247
34.3373
34.3499
34.3626
34.3752
34.3878
34.4004
34.413
34.4256
34.4382
34.4508
34.4634
34.4759
34.4885
34.5011
34.5136
34.5262
34.5388
34.5513
34.5639
34.5764
34.589
34.6015
34.614
34.6266
34.6391
34.6516
34.6641
34.6766
34.6892
34.7017
34.7142
34.7267
34.7392
34.7517
34.7642
34.7767
34.7892
34.8017
34.8141
34.8266
34.8391
34.8516
34.8641
34.8765
34.889
34.9015
34.9139
34.9264
34.9389
34.9513
34.9638
34.9763
34.9887
35.0012
35.0136
35.0261
35.0385
35.051
35.0634
35.0759
35.0883
35.1008
35.1132
35.1257
35.1381
35.1505
35.163
35.1754
35.1879
35.2003
35.2127
35.2252
35.2376
35.25
35.2624
35.2749
35.2873
35.2997
35.3122
35.3246
35.337
35.3494
35.3619
35.3743
35.3867
35.3991
35.4116
35.424
35.4364
35.4488
35.4612
35.4737
35.4861
35.4985
35.5109
35.5233
35.5358
35.5482
35.5606
35.573
35.5854
35.5978
35.6103
35.6227
35.6351
35.6475
35.6599
35.6723
35.6847
35.6972
35.7096
35.722
35.7344
35.7468
35.7592
35.7716
35.7841
35.7965
35.8089
35.8213
35.8337
35.8461
35.8585
35.8709
35.8834
35.8958
35.9082
35.9206
35.933
35.9454
35.9578
35.9703
35.9827
35.9951
36.0075
36.0199
36.0323
36.0447
36.0571
36.0696
36.082
36.0944
36.1068
36.1192
36.1316
36.144
36.1565
36.1689
36.1813
36.1937
36.2061
36.2185
36.231
36.2434
36.2558
36.2682
36.2806
36.293
36.3054
36.3179
36.3303
36.3427
36.3551
36.3675
36.38
36.3924
36.4048
36.4172
36.4296
36.442
36.4545
36.4669
36.4793
36.4917
36.5041
36.5166
36.529
36.5414
36.5538
36.5662
36.5787
36.5911
36.6035
36.6159
36.6283
36.6408
36.6532
36.6656
36.678
36.6905
36.7029
36.7153
36.7277
36.7402
36.7526
36.765
36.7774
36.7899
36.8023
36.8147
36.8271
36.8396
36.852
36.8644
36.8768
36.8893
36.9017
36.9141
36.9266
36.939
36.9514
36.9638
36.9763
36.9887
37.0011
37.0136
37.026
37.0384
37.0508
37.0633
37.0757
37.0881
37.1006
37.113
37.1254
37.1379
37.1503
37.1627
37.1752
37.1876
37.2
37.2125
37.2249
37.2373
37.2498
37.2622
37.2746
37.2871
37.2995
37.312
37.3244
37.3368
37.3493
37.3617
37.3741
37.3866
37.399
37.4114
37.4239
37.4363
37.4488
37.4612
37.4736
37.4861
37.4985
37.511
37.5234
37.5358
37.5483
37.5607
37.5732
37.5856
37.5981
37.6105
37.6229
37.6354
37.6478
37.6603
37.6727
37.6852
37.6976
37.71
37.7225
37.7349
37.7474
37.7598
37.7723
37.7847
37.7972
37.8096
37.8221
37.8345
37.847
37.8594
37.8718
37.8843
37.8967
37.9092
37.9216
37.9341
37.9465
37.959
37.9714
37.9839
37.9963
38.0088
38.0212
38.0337
38.0461
38.0586
38.0711
38.0835
38.096
38.1084
38.1209
38.1333
38.1458
38.1582
38.1707
38.1831
38.1956
38.208
38.2205
38.233
38.2454
38.2579
38.2703
38.2828
38.2952
38.3077
38.3201
38.3326
38.3451
38.3575
38.37
38.3824
38.3949
38.4074
38.4198
38.4323
38.4447
38.4572
38.4697
38.4821
38.4946
38.507
38.5195
38.532
38.5444
38.5569
38.5693
38.5818
38.5943
38.6067
38.6192
38.6317
38.6441
38.6566
38.669
38.6815
38.694
38.7064
38.7189
38.7314
38.7438
38.7563
38.7688
38.7812
38.7937
38.8062
38.8186
38.8311
38.8436
38.856
38.8685
38.881
38.8934
38.9059
38.9184
38.9309
38.9433
38.9558
38.9683
38.9807
38.9932
39.0057
39.0181
39.0306
39.0431
39.0556
39.068
39.0805
39.093
39.1055
39.1179
39.1304
39.1429
39.1553
39.1678
39.1803
39.1928
39.2052
39.2177
39.2302
39.2427
39.2552
39.2676
39.2801
39.2926
39.3051
39.3175
39.33
39.3425
39.355
39.3674
39.3799
39.3924
39.4049
39.4174
39.4298
39.4423
39.4548
39.4673
39.4798
39.4922
39.5047
39.5172
39.5297
39.5422
39.5547
39.5671
39.5796
39.5921
39.6046
39.6171
39.6296
39.642
39.6545
39.667
39.6795
39.692
39.7045
39.717
39.7294
39.7419
39.7544
39.7669
39.7794
39.7919
39.8044
39.8168
39.8293
39.8418
39.8543
39.8668
39.8793
39.8918
39.9043
39.9168
39.9292
39.9417
39.9542
39.9667
39.9792
39.9917
40.0042
40.0167
40.0292
40.0417
40.0542
40.0667
40.0792
40.0916
40.1041
40.1166
40.1291
40.1416
40.1541
40.1666
40.1791
40.1916
40.2041
40.2166
40.2291
40.2416
40.2541
40.2666
40.2791
40.2916
40.3041
40.3166
40.3291
40.3416
40.3541
40.3666
40.3791
40.3916
40.4041
40.4166
40.4291
40.4416
40.4541
40.4666
40.4791
40.4916
40.5041
40.5166
40.5291
40.5416
40.5541
40.5666
40.5791
40.5916
40.6041
40.6166
40.6291
40.6416
40.6541
40.6666
40.6791
40.6916
40.7041
40.7167
40.7292
40.7417
40.7542
40.7667
40.7792
40.7917
40.8042
40.8167
40.8292
40.8417
40.8542
40.8668
40.8793
40.8918
40.9043
40.9168
40.9293
40.9418
40.9543
40.9668
40.9794
40.9919
41.0044
41.0169
41.0294
41.0419
41.0544
41.0669
41.0795
41.092
41.1045
41.117
41.1295
41.142
41.1545
41.1671
41.1796
41.1921
41.2046
41.2171
41.2296
41.2422
41.2547
41.2672
41.2797
41.2922
41.3048
41.3173
41.3298
41.3423
41.3548
41.3674
41.3799
41.3924
41.4049
41.4174
41.43
41.4425
41.455
41.4675
41.48
41.4926
41.5051
41.5176
41.5301
41.5427
41.5552
41.5677
41.5802
41.5928
41.6053
41.6178
41.6303
41.6429
41.6554
41.6679
41.6804
41.693
41.7055
41.718
41.7305
41.7431
41.7556
41.7681
41.7807
41.7932
41.8057
41.8182
41.8308
41.8433
41.8558
41.8684
41.8809
41.8934
41.906
41.9185
41.931
41.9436
41.9561
41.9686
41.9812
41.9937
42.0062
42.0188
42.0313
42.0438
42.0564
42.0689
42.0814
42.094
42.1065
42.119
42.1316
42.1441
42.1566
42.1692
42.1817
42.1943
42.2068
42.2193
42.2319
42.2444
42.2569
42.2695
42.282
42.2946
42.3071
42.3196
42.3322
42.3447
42.3573
42.3698
42.3823
42.3949
42.4074
42.42
42.4325
42.445
42.4576
42.4701
42.4827
42.4952
42.5078
42.5203
42.5329
42.5454
42.5579
42.5705
42.583
42.5956
42.6081
42.6207
42.6332
42.6458
42.6583
42.6709
42.6834
42.6959
42.7085
42.721
42.7336
42.7461
42.7587
42.7712
42.7838
42.7963
42.8089
42.8214
42.834
42.8465
42.8591
42.8716
42.8842
42.8967
42.9093
42.9218
42.9344
42.9469
42.9595
42.9721
42.9846
42.9972
43.0097
43.0223
43.0348
43.0474
43.0599
43.0725
43.085
43.0976
43.1102
43.1227
43.1353
43.1478
43.1604
43.1729
43.1855
43.1981
43.2106
43.2232
43.2357
43.2483
43.2608
43.2734
43.286
43.2985
43.3111
43.3236
43.3362
43.3488
43.3613
43.3739
43.3864
43.399
43.4116
43.4241
43.4367
43.4493
43.4618
43.4744
43.4869
43.4995
43.5121
43.5246
43.5372
43.5498
43.5623
43.5749
43.5875
43.6
43.6126
43.6252
43.6377
43.6503
43.6629
43.6754
43.688
43.7006
43.7131
43.7257
43.7383
43.7508
43.7634
43.776
43.7885
43.8011
43.8137
43.8263
43.8388
43.8514
43.864
43.8765
43.8891
43.9017
43.9143
43.9268
43.9394
43.952
43.9646
43.9771
43.9897
44.0023
44.0148
44.0274
44.04
44.0526
44.0651
44.0777
44.0903
44.1029
44.1154
44.128
44.1406
44.1532
44.1658
44.1783
44.1909
44.2035
44.2161
44.2286
44.2412
44.2538
44.2664
44.279
44.2915
44.3041
44.3167
44.3293
44.3419
44.3544
44.367
44.3796
44.3922
44.4048
44.4174
44.4299
44.4425
44.4551
44.4677
44.4803
44.4929
44.5054
44.518
44.5306
44.5432
44.5558
44.5684
44.5809
44.5935
44.6061
44.6187
44.6313
44.6439
44.6565
44.6691
44.6816
44.6942
44.7068
44.7194
44.732
44.7446
44.7572
44.7698
44.7823
44.7949
44.8075
44.8201
44.8327
44.8453
44.8579
44.8705
44.8831
44.8957
44.9083
44.9209
44.9334
44.946
44.9586
44.9712
44.9838
44.9964
45.009
45.0216
45.0342
45.0468
45.0594
45.072
45.0846
45.0972
45.1098
45.1224
45.135
45.1476
45.1602
45.1728
45.1853
45.1979
45.2105
45.2231
45.2357
45.2483
45.2609
45.2735
45.2861
45.2987
45.3113
45.3239
45.3365
45.3491
45.3617
45.3743
45.3869
45.3995
45.4121
45.4248
45.4374
45.45
45.4626
45.4752
45.4878
45.5004
45.513
45.5256
45.5382
45.5508
45.5634
45.576
45.5886
45.6012
45.6138
45.6264
45.639
45.6516
45.6642
45.6769
45.6895
45.7021
45.7147
45.7273
45.7399
45.7525
45.7651
45.7777
45.7903
45.8029
45.8156
45.8282
45.8408
45.8534
45.866
45.8786
45.8912
45.9038
45.9164
45.9291
45.9417
45.9543
45.9669
45.9795
45.9921
46.0047
46.0173
46.03
46.0426
46.0552
46.0678
46.0804
46.093
46.1057
46.1183
46.1309
46.1435
46.1561
46.1687
46.1814
46.194
46.2066
46.2192
46.2318
46.2444
46.2571
46.2697
46.2823
46.2949
46.3075
46.3202
46.3328
46.3454
46.358
46.3706
46.3833
46.3959
46.4085
46.4211
46.4338
46.4464
46.459
46.4716
46.4842
46.4969
46.5095
46.5221
46.5347
46.5474
46.56
46.5726
46.5852
46.5979
46.6105
46.6231
46.6357
46.6484
46.661
46.6736
46.6862
46.6989
46.7115
46.7241
46.7368
46.7494
46.762
46.7746
46.7873
46.7999
46.8125
46.8252
46.8378
46.8504
46.863
46.8757
46.8883
46.9009
46.9136
46.9262
46.9388
46.9515
46.9641
46.9767
46.9894
47.002
47.0146
47.0273
47.0399
47.0525
47.0652
47.0778
47.0904
47.1031
47.1157
47.1283
47.141
47.1536
47.1663
47.1789
47.1915
47.2042
47.2168
47.2294
47.2421
47.2547
47.2673
47.28
47.2926
47.3053
47.3179
47.3305
47.3432
47.3558
47.3685
47.3811
47.3937
47.4064
47.419
47.4317
47.4443
47.4569
47.4696
47.4822
47.4949
47.5075
47.5202
47.5328
47.5454
47.5581
47.5707
47.5834
47.596
47.6087
47.6213
47.634
47.6466
47.6592
47.6719
47.6845
47.6972
47.7098
47.7225
47.7351
47.7478
47.7604
47.7731
47.7857
47.7984
47.811
47.8237
47.8363
47.849
47.8616
47.8742
47.8869
47.8995
47.9122
47.9248
47.9375
47.9502
47.9628
47.9755
47.9881
48.0008
48.0134
48.0261
48.0387
48.0514
48.064
48.0767
48.0893
48.102
48.1146
48.1273
48.1399
48.1526
48.1653
48.1779
48.1906
48.2032
48.2159
48.2285
48.2412
48.2538
48.2665
48.2792
48.2918
48.3045
48.3171
48.3298
48.3424
48.3551
48.3678
48.3804
48.3931
48.4057
48.4184
48.4311
48.4437
48.4564
48.469
48.4817
48.4944
48.507
48.5197
48.5323
48.545
48.5577
48.5703
48.583
48.5957
48.6083
48.621
48.6337
48.6463
48.659
48.6716
48.6843
48.697
48.7096
48.7223
48.735
48.7476
48.7603
48.773
48.7856
48.7983
48.811
48.8236
48.8363
48.849
48.8616
48.8743
48.887
48.8997
48.9123
48.925
48.9377
48.9503
48.963
48.9757
48.9883
49.001
49.0137
49.0264
49.039
49.0517
49.0644
49.0771
49.0897
49.1024
49.1151
49.1277
49.1404
49.1531
49.1658
49.1784
49.1911
49.2038
49.2165
49.2292
49.2418
49.2545
49.2672
49.2799
49.2925
49.3052
49.3179
49.3306
49.3432
49.3559
49.3686
49.3813
49.394
49.4066
49.4193
49.432
49.4447
49.4574
49.47
49.4827
49.4954
49.5081
49.5208
49.5335
49.5461
49.5588
49.5715
49.5842
49.5969
49.6096
49.6222
49.6349
49.6476
49.6603
49.673
49.6857
49.6983
49.711
49.7237
49.7364
49.7491
49.7618
49.7745
49.7871
49.7998
49.8125
49.8252
49.8379
49.8506
49.8633
49.876
49.8887
49.9013
49.914
49.9267
49.9394
49.9521
49.9648
49.9775
49.9902
50.0029
50.0156
50.0283
50.0409
50.0536
50.0663
50.079
50.0917
50.1044
50.1171
50.1298
50.1425
50.1552
50.1679
50.1806
50.1933
50.206
50.2187
50.2314
50.2441
50.2568
50.2694
50.2821
50.2948
50.3075
50.3202
50.3329
50.3456
50.3583
50.371
50.3837
50.3964
50.4091
50.4218
50.4345
50.4472
50.4599
50.4726
50.4853
50.498
50.5107
50.5234
50.5361
50.5488
50.5615
50.5742
50.5869
50.5996
50.6124
50.6251
50.6378
50.6505
50.6632
50.6759
50.6886
50.7013
50.714
50.7267
50.7394
50.7521
50.7648
50.7775
50.7902
50.8029
50.8156
50.8283
50.8411
50.8538
50.8665
50.8792
50.8919
50.9046
50.9173
50.93
50.9427
50.9554
50.9681
50.9809
50.9936
51.0063
51.019
51.0317
51.0444
51.0571
51.0698
51.0825
51.0953
51.108
51.1207
51.1334
51.1461
51.1588
51.1715
51.1843
51.197
51.2097
51.2224
51.2351
51.2478
51.2605
51.2733
51.286
51.2987
51.3114
51.3241
51.3368
51.3496
51.3623
51.375
51.3877
51.4004
51.4131
51.4259
51.4386
51.4513
51.464
51.4767
51.4895
51.5022
51.5149
51.5276
51.5403
51.5531
51.5658
51.5785
51.5912
51.604
51.6167
51.6294
51.6421
51.6548
51.6676
51.6803
51.693
51.7057
51.7185
51.7312
51.7439
51.7566
51.7694
51.7821
51.7948
51.8075
51.8203
51.833
51.8457
51.8585
51.8712
51.8839
51.8966
51.9094
51.9221
51.9348
51.9475
51.9603
51.973
51.9857
51.9985
52.0112
52.0239
52.0367
52.0494
52.0621
52.0748
52.0876
52.1003
52.113
52.1258
52.1385
52.1512
52.164
52.1767
52.1894
52.2022
52.2149
52.2276
52.2404
52.2531
52.2658
52.2786
52.2913
52.304
52.3168
52.3295
52.3423
52.355
52.3677
52.3805
52.3932
52.4059
52.4187
52.4314
52.4442
52.4569
52.4696
52.4824
52.4951
52.5078
52.5206
52.5333
52.5461
52.5588
52.5715
52.5843
52.597
52.6098
52.6225
52.6353
52.648
52.6607
52.6735
52.6862
52.699
52.7117
52.7244
52.7372
52.7499
52.7627
52.7754
52.7882
52.8009
52.8137
52.8264
52.8391
52.8519
52.8646
52.8774
52.8901
52.9029
52.9156
52.9284
52.9411
52.9539
52.9666
52.9794
52.9921
53.0049
53.0176
53.0304
53.0431
53.0559
53.0686
53.0814
53.0941
53.1069
53.1196
53.1324
53.1451
53.1579
53.1706
53.1834
53.1961
53.2089
53.2216
53.2344
53.2471
53.2599
53.2726
53.2854
53.2981
53.3109
53.3237
53.3364
53.3492
53.3619
53.3747
53.3874
53.4002
53.4129
53.4257
53.4385
53.4512
53.464
53.4767
53.4895
53.5022
53.515
53.5278
53.5405
53.5533
53.566
53.5788
53.5916
53.6043
53.6171
53.6298
53.6426
53.6554
53.6681
53.6809
53.6936
53.7064
53.7192
53.7319
53.7447
53.7574
53.7702
53.783
53.7957
53.8085
53.8213
53.834
53.8468
53.8596
53.8723
53.8851
53.8979
53.9106
53.9234
53.9361
53.9489
53.9617
53.9744
53.9872
54
54.0127
54.0255
54.0383
54.0511
54.0638
54.0766
54.0894
54.1021
54.1149
54.1277
54.1404
54.1532
54.166
54.1787
54.1915
54.2043
54.2171
54.2298
54.2426
54.2554
54.2681
54.2809
54.2937
54.3065
54.3192
54.332
54.3448
54.3576
54.3703
54.3831
54.3959
54.4087
54.4214
54.4342
54.447
54.4598
54.4725
54.4853
54.4981
54.5109
54.5236
54.5364
54.5492
54.562
54.5747
54.5875
54.6003
54.6131
54.6259
54.6386
54.6514
54.6642
54.677
54.6898
54.7025
54.7153
54.7281
54.7409
54.7537
54.7664
54.7792
54.792
54.8048
54.8176
54.8303
54.8431
54.8559
54.8687
54.8815
54.8943
54.907
54.9198
54.9326
54.9454
54.9582
54.971
54.9838
54.9965
55.0093
55.0221
55.0349
55.0477
55.0605
55.0733
55.086
55.0988
55.1116
55.1244
55.1372
55.15
55.1628
55.1756
55.1883
55.2011
55.2139
55.2267
55.2395
55.2523
55.2651
55.2779
55.2907
55.3035
55.3162
55.329
55.3418
55.3546
55.3674
55.3802
55.393
55.4058
55.4186
55.4314
55.4442
55.457
55.4698
55.4825
55.4953
55.5081
55.5209
55.5337
55.5465
55.5593
55.5721
55.5849
55.5977
55.6105
55.6233
55.6361
55.6489
55.6617
55.6745
55.6873
55.7001
55.7129
55.7257
55.7385
55.7513
55.7641
55.7769
55.7897
55.8025
55.8153
55.8281
55.8409
55.8537
55.8665
55.8793
55.8921
55.9049
55.9177
55.9305
55.9433
55.9561
55.9689
55.9817
55.9945
56.0073
56.0201
56.0329
56.0457
56.0585
56.0713
56.0841
56.0969
56.1097
56.1225
56.1353
56.1481
56.1609
56.1737
56.1866
56.1994
56.2122
56.225
56.2378
56.2506
56.2634
56.2762
56.289
56.3018
56.3146
56.3274
56.3402
56.3531
56.3659
56.3787
56.3915
56.4043
56.4171
56.4299
56.4427
56.4555
56.4683
56.4812
56.494
56.5068
56.5196
56.5324
56.5452
56.558
56.5708
56.5837
56.5965
56.6093
56.6221
56.6349
56.6477
56.6605
56.6734
56.6862
56.699
56.7118
56.7246
56.7374
56.7503
56.7631
56.7759
56.7887
56.8015
56.8143
56.8272
56.84
56.8528
56.8656
56.8784
56.8913
56.9041
56.9169
56.9297
56.9425
56.9554
56.9682
56.981
56.9938
57.0066
57.0195
57.0323
57.0451
57.0579
57.0708
57.0836
57.0964
57.1092
57.122
57.1349
57.1477
57.1605
57.1733
57.1862
57.199
57.2118
57.2246
57.2375
57.2503
57.2631
57.276
57.2888
57.3016
57.3144
57.3273
57.3401
57.3529
57.3657
57.3786
57.3914
57.4042
57.4171
57.4299
57.4427
57.4555
57.4684
57.4812
57.494
57.5069
57.5197
57.5325
57.5454
57.5582
57.571
57.5838
57.5967
57.6095
57.6223
57.6352
57.648
57.6608
57.6737
57.6865
57.6993
57.7122
57.725
57.7378
57.7507
57.7635
57.7764
57.7892
57.802
57.8149
57.8277
57.8405
57.8534
57.8662
57.879
57.8919
57.9047
57.9176
57.9304
57.9432
57.9561
57.9689
57.9817
57.9946
58.0074
58.0203
58.0331
58.0459
58.0588
58.0716
58.0845
58.0973
58.1101
58.123
58.1358
58.1487
58.1615
58.1744
58.1872
58.2
58.2129
58.2257
58.2386
58.2514
58.2643
58.2771
58.2899
58.3028
58.3156
58.3285
58.3413
58.3542
58.367
58.3799
58.3927
58.4056
58.4184
58.4313
58.4441
58.457
58.4698
58.4827
58.4955
58.5083
58.5212
58.534
58.5469
58.5597
58.5726
58.5854
58.5983
58.6112
58.624
58.6369
58.6497
58.6626
58.6754
58.6883
58.7011
58.714
58.7268
58.7397
58.7525
58.7654
58.7782
58.7911
58.8039
58.8168
58.8297
58.8425
58.8554
58.8682
58.8811
58.8939
58.9068
58.9197
58.9325
58.9454
58.9582
58.9711
58.9839
58.9968
59.0097
59.0225
59.0354
59.0482
59.0611
59.074
59.0868
59.0997
59.1125
59.1254
59.1383
59.1511
59.164
59.1769
59.1897
59.2026
59.2154
59.2283
59.2412
59.254
59.2669
59.2798
59.2926
59.3055
59.3184
59.3312
59.3441
59.3569
59.3698
59.3827
59.3955
59.4084
59.4213
59.4341
59.447
59.4599
59.4727
59.4856
59.4985
59.5114
59.5242
59.5371
59.55
59.5628
59.5757
59.5886
59.6014
59.6143
59.6272
59.64
59.6529
59.6658
59.6787
59.6915
59.7044
59.7173
59.7301
59.743
59.7559
59.7688
59.7816
59.7945
59.8074
59.8203
59.8331
59.846
59.8589
59.8718
59.8846
59.8975
59.9104
59.9233
59.9361
59.949
59.9619
59.9748
59.9876
60.0005
60.0134
60.0263
60.0391
60.052
60.0649
60.0778
60.0907
60.1035
60.1164
60.1293
60.1422
60.155
60.1679
60.1808
60.1937
60.2066
60.2194
60.2323
60.2452
60.2581
60.271
60.2839
60.2967
60.3096
60.3225
60.3354
60.3483
60.3611
60.374
60.3869
60.3998
60.4127
60.4256
60.4384
60.4513
60.4642
60.4771
60.49
60.5029
60.5158
60.5286
60.5415
60.5544
60.5673
60.5802
60.5931
60.606
60.6188
60.6317
60.6446
60.6575
60.6704
60.6833
60.6962
60.7091
60.722
60.7348
60.7477
60.7606
60.7735
60.7864
60.7993
60.8122
60.8251
60.838
60.8509
60.8637
60.8766
60.8895
60.9024
60.9153
60.9282
60.9411
60.954
60.9669
60.9798
60.9927
61.0056
61.0185
61.0314
61.0443
61.0571
61.07
61.0829
61.0958
61.1087
61.1216
61.1345
61.1474
61.1603
61.1732
61.1861
61.199
61.2119
61.2248
61.2377
61.2506
61.2635
61.2764
61.2893
61.3022
61.3151
61.328
61.3409
61.3538
61.3667
61.3796
61.3925
61.4054
61.4183
61.4312
61.4441
61.457
61.4699
61.4828
61.4957
61.5086
61.5215
61.5344
61.5473
61.5602
61.5731
61.586
61.599
61.6119
61.6248
61.6377
61.6506
61.6635
61.6764
61.6893
61.7022
61.7151
61.728
61.7409
61.7538
61.7667
61.7796
61.7926
61.8055
61.8184
61.8313
61.8442
61.8571
61.87
61.8829
61.8958
61.9087
61.9217
61.9346
61.9475
61.9604
61.9733
61.9862
61.9991
62.012
62.0249
62.0379
62.0508
62.0637
62.0766
62.0895
62.1024
62.1153
62.1283
62.1412
62.1541
62.167
62.1799
62.1928
62.2057
62.2187
62.2316
62.2445
62.2574
62.2703
62.2832
62.2962
62.3091
62.322
62.3349
62.3478
62.3608
62.3737
62.3866
62.3995
62.4124
62.4254
62.4383
62.4512
62.4641
62.477
62.49
62.5029
62.5158
62.5287
62.5416
62.5546
62.5675
62.5804
62.5933
62.6063
62.6192
62.6321
62.645
62.6579
62.6709
62.6838
62.6967
62.7096
62.7226
62.7355
62.7484
62.7613
62.7743
62.7872
62.8001
62.813
62.826
62.8389
62.8518
62.8648
62.8777
62.8906
62.9035
62.9165
62.9294
62.9423
62.9553
62.9682
62.9811
62.994
63.007
63.0199
63.0328
63.0458
63.0587
63.0716
63.0846
63.0975
63.1104
63.1234
63.1363
63.1492
63.1621
63.1751
63.188
63.2009
63.2139
63.2268
63.2397
63.2527
63.2656
63.2786
63.2915
63.3044
63.3174
63.3303
63.3432
63.3562
63.3691
63.382
63.395
63.4079
63.4208
63.4338
63.4467
63.4597
63.4726
63.4855
63.4985
63.5114
63.5244
63.5373
63.5502
63.5632
63.5761
63.5891
63.602
63.6149
63.6279
63.6408
63.6538
63.6667
63.6796
63.6926
63.7055
63.7185
63.7314
63.7444
63.7573
63.7702
63.7832
63.7961
63.8091
63.822
63.835
63.8479
63.8609
63.8738
63.8867
63.8997
63.9126
63.9256
63.9385
63.9515
63.9644
63.9774
63.9903
64.0033
64.0162
64.0292
64.0421
64.0551
64.068
64.0809
64.0939
64.1068
64.1198
64.1327
64.1457
64.1586
64.1716
64.1845
64.1975
64.2104
64.2234
64.2364
64.2493
64.2623
64.2752
64.2882
64.3011
64.3141
64.327
64.34
64.3529
64.3659
64.3788
64.3918
64.4047
64.4177
64.4306
64.4436
64.4566
64.4695
64.4825
64.4954
64.5084
64.5213
64.5343
64.5472
64.5602
64.5732
64.5861
64.5991
64.612
64.625
64.6379
64.6509
64.6639
64.6768
64.6898
64.7027
64.7157
64.7287
64.7416
64.7546
64.7675
64.7805
64.7935
64.8064
64.8194
64.8323
64.8453
64.8583
64.8712
64.8842
64.8972
64.9101
64.9231
64.936
64.949
64.962
64.9749
64.9879
65.0009
65.0138
65.0268
65.0398
65.0527
65.0657
65.0787
65.0916
65.1046
65.1176
65.1305
65.1435
65.1565
65.1694
65.1824
65.1954
65.2083
65.2213
65.2343
65.2472
65.2602
65.2732
65.2861
65.2991
65.3121
65.325
65.338
65.351
65.3639
65.3769
65.3899
65.4029
65.4158
65.4288
65.4418
65.4547
65.4677
65.4807
65.4937
65.5066
65.5196
65.5326
65.5456
65.5585
65.5715
65.5845
65.5974
65.6104
65.6234
65.6364
65.6493
65.6623
65.6753
65.6883
65.7013
65.7142
65.7272
65.7402
65.7532
65.7661
65.7791
65.7921
65.8051
65.818
65.831
65.844
65.857
65.87
65.8829
65.8959