/*--------------------------------*- C++ -*----------------------------------*\
  =========                 |
  \\      /  F ield         | OpenFOAM: The Open Source CFD Toolbox
   \\    /   O peration     | Website:  https://openfoam.org
    \\  /    A nd           | Version:  9
     \\/     M anipulation  |
\*---------------------------------------------------------------------------*/
FoamFile
{
    format      ascii;
    class       volScalarField;
    location    "0.047";
    object      p;
}
// * * * * * * * * * * * * * * * * * * * * * * * * * * * * * * * * * * * * * //

dimensions      [1 -1 -2 0 0 0 0];

internalField   nonuniform List<scalar> 
10000
(
8536.17
8536.13
8536.06
8536
8535.95
8535.89
8535.84
8535.79
8535.74
8535.68
8535.63
8535.58
8535.52
8535.47
8535.42
8535.36
8535.31
8535.26
8535.21
8535.15
8535.1
8535.05
8535
8534.94
8534.89
8534.84
8534.79
8534.73
8534.68
8534.63
8534.58
8534.52
8534.47
8534.42
8534.37
8534.32
8534.26
8534.21
8534.16
8534.11
8534.06
8534
8533.95
8533.9
8533.85
8533.8
8533.75
8533.69
8533.64
8533.59
8533.54
8533.49
8533.44
8533.39
8533.33
8533.28
8533.23
8533.18
8533.13
8533.08
8533.03
8532.98
8532.93
8532.88
8532.82
8532.77
8532.72
8532.67
8532.62
8532.57
8532.52
8532.47
8532.42
8532.37
8532.32
8532.27
8532.22
8532.17
8532.12
8532.07
8532.02
8531.97
8531.92
8531.87
8531.82
8531.77
8531.72
8531.67
8531.62
8531.57
8531.52
8531.47
8531.42
8531.37
8531.32
8531.27
8531.22
8531.17
8531.12
8531.07
8531.02
8530.97
8530.92
8530.87
8530.83
8530.78
8530.73
8530.68
8530.63
8530.58
8530.53
8530.48
8530.43
8530.39
8530.34
8530.29
8530.24
8530.19
8530.14
8530.09
8530.05
8530
8529.95
8529.9
8529.85
8529.8
8529.76
8529.71
8529.66
8529.61
8529.56
8529.52
8529.47
8529.42
8529.37
8529.32
8529.28
8529.23
8529.18
8529.13
8529.09
8529.04
8528.99
8528.94
8528.9
8528.85
8528.8
8528.76
8528.71
8528.66
8528.61
8528.57
8528.52
8528.47
8528.43
8528.38
8528.33
8528.29
8528.24
8528.19
8528.15
8528.1
8528.05
8528.01
8527.96
8527.91
8527.87
8527.82
8527.78
8527.73
8527.68
8527.64
8527.59
8527.55
8527.5
8527.45
8527.41
8527.36
8527.32
8527.27
8527.23
8527.18
8527.13
8527.09
8527.04
8527
8526.95
8526.91
8526.86
8526.82
8526.77
8526.73
8526.68
8526.64
8526.59
8526.55
8526.5
8526.46
8526.41
8526.37
8526.33
8526.28
8526.24
8526.19
8526.15
8526.1
8526.06
8526.01
8525.97
8525.93
8525.88
8525.84
8525.79
8525.75
8525.71
8525.66
8525.62
8525.58
8525.53
8525.49
8525.45
8525.4
8525.36
8525.32
8525.27
8525.23
8525.19
8525.14
8525.1
8525.06
8525.01
8524.97
8524.93
8524.89
8524.84
8524.8
8524.76
8524.72
8524.67
8524.63
8524.59
8524.55
8524.5
8524.46
8524.42
8524.38
8524.34
8524.29
8524.25
8524.21
8524.17
8524.13
8524.08
8524.04
8524
8523.96
8523.92
8523.88
8523.84
8523.79
8523.75
8523.71
8523.67
8523.63
8523.59
8523.55
8523.51
8523.47
8523.43
8523.39
8523.34
8523.3
8523.26
8523.22
8523.18
8523.14
8523.1
8523.06
8523.02
8522.98
8522.94
8522.9
8522.86
8522.82
8522.78
8522.74
8522.7
8522.67
8522.63
8522.59
8522.55
8522.51
8522.47
8522.43
8522.39
8522.35
8522.31
8522.27
8522.24
8522.2
8522.16
8522.12
8522.08
8522.04
8522
8521.97
8521.93
8521.89
8521.85
8521.81
8521.78
8521.74
8521.7
8521.66
8521.63
8521.59
8521.55
8521.51
8521.48
8521.44
8521.4
8521.36
8521.33
8521.29
8521.25
8521.22
8521.18
8521.14
8521.11
8521.07
8521.03
8521
8520.96
8520.92
8520.89
8520.85
8520.82
8520.78
8520.74
8520.71
8520.67
8520.64
8520.6
8520.57
8520.53
8520.5
8520.46
8520.43
8520.39
8520.36
8520.32
8520.29
8520.25
8520.22
8520.18
8520.15
8520.11
8520.08
8520.04
8520.01
8519.98
8519.94
8519.91
8519.87
8519.84
8519.81
8519.77
8519.74
8519.71
8519.67
8519.64
8519.61
8519.57
8519.54
8519.51
8519.47
8519.44
8519.41
8519.38
8519.34
8519.31
8519.28
8519.25
8519.22
8519.18
8519.15
8519.12
8519.09
8519.06
8519.02
8518.99
8518.96
8518.93
8518.9
8518.87
8518.84
8518.81
8518.78
8518.75
8518.71
8518.68
8518.65
8518.62
8518.59
8518.56
8518.53
8518.5
8518.47
8518.44
8518.41
8518.38
8518.36
8518.33
8518.3
8518.27
8518.24
8518.21
8518.18
8518.15
8518.12
8518.09
8518.07
8518.04
8518.01
8517.98
8517.95
8517.93
8517.9
8517.87
8517.84
8517.82
8517.79
8517.76
8517.73
8517.71
8517.68
8517.65
8517.63
8517.6
8517.57
8517.55
8517.52
8517.49
8517.47
8517.44
8517.42
8517.39
8517.37
8517.34
8517.32
8517.29
8517.27
8517.24
8517.22
8517.19
8517.17
8517.14
8517.12
8517.09
8517.07
8517.04
8517.02
8517
8516.97
8516.95
8516.93
8516.9
8516.88
8516.86
8516.83
8516.81
8516.79
8516.77
8516.74
8516.72
8516.7
8516.68
8516.66
8516.63
8516.61
8516.59
8516.57
8516.55
8516.53
8516.51
8516.49
8516.47
8516.44
8516.42
8516.4
8516.38
8516.36
8516.34
8516.32
8516.31
8516.29
8516.27
8516.25
8516.23
8516.21
8516.19
8516.17
8516.15
8516.14
8516.12
8516.1
8516.08
8516.06
8516.05
8516.03
8516.01
8516
8515.98
8515.96
8515.94
8515.93
8515.91
8515.9
8515.88
8515.86
8515.85
8515.83
8515.82
8515.8
8515.79
8515.77
8515.76
8515.74
8515.73
8515.71
8515.7
8515.69
8515.67
8515.66
8515.65
8515.63
8515.62
8515.61
8515.59
8515.58
8515.57
8515.56
8515.55
8515.53
8515.52
8515.51
8515.5
8515.49
8515.48
8515.47
8515.46
8515.45
8515.44
8515.43
8515.42
8515.41
8515.4
8515.39
8515.38
8515.37
8515.36
8515.35
8515.34
8515.34
8515.33
8515.32
8515.31
8515.3
8515.3
8515.29
8515.28
8515.28
8515.27
8515.26
8515.26
8515.25
8515.25
8515.24
8515.24
8515.23
8515.23
8515.22
8515.22
8515.21
8515.21
8515.21
8515.2
8515.2
8515.2
8515.19
8515.19
8515.19
8515.19
8515.18
8515.18
8515.18
8515.18
8515.18
8515.18
8515.18
8515.18
8515.18
8515.18
8515.18
8515.18
8515.18
8515.18
8515.18
8515.18
8515.18
8515.18
8515.19
8515.19
8515.19
8515.19
8515.2
8515.2
8515.2
8515.21
8515.21
8515.22
8515.22
8515.23
8515.23
8515.24
8515.24
8515.25
8515.26
8515.26
8515.27
8515.28
8515.28
8515.29
8515.3
8515.31
8515.31
8515.32
8515.33
8515.34
8515.35
8515.36
8515.37
8515.38
8515.39
8515.4
8515.41
8515.42
8515.44
8515.45
8515.46
8515.47
8515.49
8515.5
8515.51
8515.53
8515.54
8515.55
8515.57
8515.58
8515.6
8515.62
8515.63
8515.65
8515.66
8515.68
8515.7
8515.72
8515.73
8515.75
8515.77
8515.79
8515.81
8515.83
8515.85
8515.87
8515.89
8515.91
8515.93
8515.95
8515.97
8515.99
8516.02
8516.04
8516.06
8516.09
8516.11
8516.13
8516.16
8516.18
8516.21
8516.24
8516.26
8516.29
8516.31
8516.34
8516.37
8516.4
8516.43
8516.45
8516.48
8516.51
8516.54
8516.57
8516.6
8516.63
8516.66
8516.7
8516.73
8516.76
8516.79
8516.83
8516.86
8516.89
8516.93
8516.96
8517
8517.04
8517.07
8517.11
8517.15
8517.18
8517.22
8517.26
8517.3
8517.34
8517.38
8517.42
8517.46
8517.5
8517.54
8517.58
8517.62
8517.67
8517.71
8517.75
8517.8
8517.84
8517.89
8517.93
8517.98
8518.02
8518.07
8518.12
8518.17
8518.21
8518.26
8518.31
8518.36
8518.41
8518.46
8518.51
8518.56
8518.62
8518.67
8518.72
8518.78
8518.83
8518.89
8518.94
8519
8519.05
8519.11
8519.17
8519.23
8519.28
8519.34
8519.4
8519.46
8519.52
8519.58
8519.65
8519.71
8519.77
8519.83
8519.9
8519.96
8520.03
8520.09
8520.16
8520.23
8520.29
8520.36
8520.43
8520.5
8520.57
8520.64
8520.71
8520.78
8520.86
8520.93
8521
8521.08
8521.15
8521.23
8521.3
8521.38
8521.46
8521.53
8521.61
8521.69
8521.77
8521.85
8521.93
8522.02
8522.1
8522.18
8522.26
8522.35
8522.43
8522.52
8522.61
8522.69
8522.78
8522.87
8522.96
8523.05
8523.14
8523.23
8523.32
8523.42
8523.51
8523.61
8523.7
8523.8
8523.89
8523.99
8524.09
8524.19
8524.29
8524.39
8524.49
8524.59
8524.69
8524.8
8524.9
8525.01
8525.11
8525.22
8525.32
8525.43
8525.54
8525.65
8525.76
8525.87
8525.99
8526.1
8526.21
8526.33
8526.44
8526.56
8526.68
8526.8
8526.91
8527.03
8527.16
8527.28
8527.4
8527.52
8527.65
8527.77
8527.9
8528.02
8528.15
8528.28
8528.41
8528.54
8528.67
8528.81
8528.94
8529.07
8529.21
8529.35
8529.48
8529.62
8529.76
8529.9
8530.04
8530.18
8530.33
8530.47
8530.61
8530.76
8530.91
8531.06
8531.2
8531.35
8531.51
8531.66
8531.81
8531.96
8532.12
8532.28
8532.43
8532.59
8532.75
8532.91
8533.07
8533.24
8533.4
8533.56
8533.73
8533.9
8534.06
8534.23
8534.4
8534.58
8534.75
8534.92
8535.1
8535.27
8535.45
8535.63
8535.81
8535.99
8536.17
8536.35
8536.54
8536.72
8536.91
8537.09
8537.28
8537.47
8537.66
8537.86
8538.05
8538.24
8538.44
8538.64
8538.84
8539.04
8539.24
8539.44
8539.64
8539.85
8540.05
8540.26
8540.47
8540.68
8540.89
8541.1
8541.32
8541.53
8541.75
8541.96
8542.18
8542.4
8542.63
8542.85
8543.07
8543.3
8543.53
8543.75
8543.98
8544.21
8544.45
8544.68
8544.91
8545.15
8545.39
8545.63
8545.87
8546.11
8546.35
8546.6
8546.85
8547.09
8547.34
8547.59
8547.84
8548.1
8548.35
8548.61
8548.87
8549.13
8549.39
8549.65
8549.91
8550.18
8550.44
8550.71
8550.98
8551.25
8551.52
8551.8
8552.07
8552.35
8552.63
8552.91
8553.19
8553.47
8553.75
8554.04
8554.33
8554.62
8554.91
8555.2
8555.49
8555.79
8556.08
8556.38
8556.68
8556.98
8557.29
8557.59
8557.9
8558.2
8558.51
8558.82
8559.13
8559.45
8559.76
8560.08
8560.4
8560.72
8561.04
8561.36
8561.69
8562.01
8562.34
8562.67
8563
8563.33
8563.67
8564
8564.34
8564.68
8565.02
8565.36
8565.7
8566.05
8566.39
8566.74
8567.09
8567.44
8567.8
8568.15
8568.51
8568.86
8569.22
8569.58
8569.95
8570.31
8570.68
8571.04
8571.41
8571.78
8572.15
8572.53
8572.9
8573.28
8573.66
8574.04
8574.42
8574.8
8575.18
8575.57
8575.96
8576.35
8576.74
8577.13
8577.52
8577.92
8578.31
8578.71
8579.11
8579.51
8579.92
8580.32
8580.73
8581.13
8581.54
8581.95
8582.36
8582.78
8583.19
8583.61
8584.02
8584.44
8584.86
8585.29
8585.71
8586.14
8586.56
8586.99
8587.42
8587.85
8588.28
8588.72
8589.15
8589.59
8590.02
8590.46
8590.9
8591.35
8591.79
8592.23
8592.68
8593.13
8593.58
8594.03
8594.48
8594.93
8595.39
8595.84
8596.3
8596.76
8597.22
8597.68
8598.14
8598.6
8599.07
8599.53
8600
8600.47
8600.94
8601.41
8601.88
8602.35
8602.83
8603.3
8603.78
8604.26
8604.73
8605.22
8605.7
8606.18
8606.66
8607.15
8607.63
8608.12
8608.61
8609.1
8609.59
8610.08
8610.57
8611.06
8611.56
8612.05
8612.55
8613.05
8613.55
8614.05
8614.55
8615.05
8615.55
8616.05
8616.56
8617.06
8617.57
8618.08
8618.59
8619.1
8619.61
8620.12
8620.63
8621.14
8621.65
8622.17
8622.68
8623.2
8623.72
8624.23
8624.75
8625.27
8625.79
8626.31
8626.84
8627.36
8627.88
8628.41
8628.93
8629.46
8629.98
8630.51
8631.04
8631.56
8632.09
8632.62
8633.15
8633.68
8634.22
8634.75
8635.28
8635.82
8636.35
8636.89
8637.42
8637.96
8638.49
8639.03
8639.57
8640.11
8640.65
8641.19
8641.73
8642.27
8642.81
8643.35
8643.89
8644.43
8644.98
8645.52
8646.07
8646.61
8647.16
8647.7
8648.25
8648.8
8649.34
8649.89
8650.44
8650.99
8651.54
8652.08
8652.63
8653.18
8653.73
8654.29
8654.84
8655.39
8655.94
8656.49
8657.05
8657.6
8658.15
8658.71
8659.26
8659.82
8660.37
8660.93
8661.48
8662.04
8662.59
8663.15
8663.71
8664.26
8664.82
8665.38
8665.94
8666.49
8667.05
8667.61
8668.17
8668.73
8669.29
8669.85
8670.41
8670.97
8671.53
8672.09
8672.65
8673.21
8673.77
8674.34
8674.9
8675.46
8676.02
8676.59
8677.15
8677.71
8678.27
8678.84
8679.4
8679.97
8680.53
8681.09
8681.66
8682.22
8682.79
8683.35
8683.92
8684.48
8685.05
8685.61
8686.18
8686.74
8687.31
8687.88
8688.44
8689.01
8689.57
8690.14
8690.71
8691.28
8691.84
8692.41
8692.98
8693.54
8694.11
8694.68
8695.25
8695.82
8696.38
8696.95
8697.52
8698.09
8698.66
8699.23
8699.79
8700.36
8700.93
8701.5
8702.07
8702.64
8703.21
8703.78
8704.35
8704.92
8705.49
8706.06
8706.63
8707.2
8707.77
8708.34
8708.91
8709.48
8710.05
8710.62
8711.19
8711.76
8712.33
8712.9
8713.47
8714.04
8714.62
8715.19
8715.76
8716.33
8716.9
8717.47
8718.04
8718.62
8719.19
8719.76
8720.33
8720.9
8721.47
8722.05
8722.62
8723.19
8723.76
8724.34
8724.91
8725.48
8726.05
8726.63
8727.2
8727.77
8728.34
8728.92
8729.49
8730.06
8730.63
8731.21
8731.78
8732.35
8732.93
8733.5
8734.07
8734.65
8735.22
8735.79
8736.37
8736.94
8737.52
8738.09
8738.66
8739.24
8739.81
8740.38
8740.96
8741.53
8742.11
8742.68
8743.26
8743.83
8744.4
8744.98
8745.55
8746.13
8746.7
8747.28
8747.85
8748.43
8749
8749.58
8750.15
8750.73
8751.3
8751.88
8752.45
8753.03
8753.6
8754.18
8754.75
8755.33
8755.9
8756.48
8757.05
8757.63
8758.2
8758.78
8759.36
8759.93
8760.51
8761.08
8761.66
8762.23
8762.81
8763.39
8763.96
8764.54
8765.11
8765.69
8766.27
8766.84
8767.42
8768
8768.57
8769.15
8769.73
8770.3
8770.88
8771.45
8772.03
8772.61
8773.19
8773.76
8774.34
8774.92
8775.49
8776.07
8776.65
8777.22
8777.8
8778.38
8778.96
8779.53
8780.11
8780.69
8781.27
8781.84
8782.42
8783
8783.58
8784.15
8784.73
8785.31
8785.89
8786.46
8787.04
8787.62
8788.2
8788.78
8789.35
8789.93
8790.51
8791.09
8791.67
8792.25
8792.82
8793.4
8793.98
8794.56
8795.14
8795.72
8796.3
8796.87
8797.45
8798.03
8798.61
8799.19
8799.77
8800.35
8800.93
8801.51
8802.08
8802.66
8803.24
8803.82
8804.4
8804.98
8805.56
8806.14
8806.72
8807.3
8807.88
8808.46
8809.04
8809.62
8810.2
8810.78
8811.36
8811.94
8812.52
8813.1
8813.68
8814.26
8814.84
8815.42
8816
8816.58
8817.16
8817.74
8818.32
8818.9
8819.48
8820.06
8820.64
8821.22
8821.8
8822.38
8822.96
8823.54
8824.12
8824.71
8825.29
8825.87
8826.45
8827.03
8827.61
8828.19
8828.77
8829.35
8829.94
8830.52
8831.1
8831.68
8832.26
8832.84
8833.42
8834.01
8834.59
8835.17
8835.75
8836.33
8836.92
8837.5
8838.08
8838.66
8839.24
8839.83
8840.41
8840.99
8841.57
8842.15
8842.74
8843.32
8843.9
8844.48
8845.07
8845.65
8846.23
8846.81
8847.4
8847.98
8848.56
8849.15
8849.73
8850.31
8850.89
8851.48
8852.06
8852.64
8853.23
8853.81
8854.39
8854.98
8855.56
8856.14
8856.73
8857.31
8857.89
8858.48
8859.06
8859.64
8860.23
8860.81
8861.4
8861.98
8862.56
8863.15
8863.73
8864.32
8864.9
8865.48
8866.07
8866.65
8867.24
8867.82
8868.41
8868.99
8869.57
8870.16
8870.74
8871.33
8871.91
8872.5
8873.08
8873.67
8874.25
8874.84
8875.42
8876.01
8876.59
8877.18
8877.76
8878.35
8878.93
8879.52
8880.1
8880.69
8881.27
8881.86
8882.45
8883.03
8883.62
8884.2
8884.79
8885.37
8885.96
8886.54
8887.13
8887.72
8888.3
8888.89
8889.47
8890.06
8890.65
8891.23
8891.82
8892.41
8892.99
8893.58
8894.16
8894.75
8895.34
8895.92
8896.51
8897.1
8897.68
8898.27
8898.86
8899.44
8900.03
8900.62
8901.21
8901.79
8902.38
8902.97
8903.55
8904.14
8904.73
8905.32
8905.9
8906.49
8907.08
8907.67
8908.25
8908.84
8909.43
8910.02
8910.6
8911.19
8911.78
8912.37
8912.96
8913.54
8914.13
8914.72
8915.31
8915.9
8916.48
8917.07
8917.66
8918.25
8918.84
8919.43
8920.01
8920.6
8921.19
8921.78
8922.37
8922.96
8923.55
8924.13
8924.72
8925.31
8925.9
8926.49
8927.08
8927.67
8928.26
8928.85
8929.44
8930.02
8930.61
8931.2
8931.79
8932.38
8932.97
8933.56
8934.15
8934.74
8935.33
8935.92
8936.51
8937.1
8937.69
8938.28
8938.87
8939.46
8940.05
8940.64
8941.23
8941.82
8942.41
8943
8943.59
8944.18
8944.77
8945.36
8945.95
8946.54
8947.13
8947.72
8948.31
8948.91
8949.5
8950.09
8950.68
8951.27
8951.86
8952.45
8953.04
8953.63
8954.22
8954.81
8955.41
8956
8956.59
8957.18
8957.77
8958.36
8958.95
8959.55
8960.14
8960.73
8961.32
8961.91
8962.5
8963.1
8963.69
8964.28
8964.87
8965.46
8966.06
8966.65
8967.24
8967.83
8968.43
8969.02
8969.61
8970.2
8970.79
8971.39
8971.98
8972.57
8973.16
8973.76
8974.35
8974.94
8975.54
8976.13
8976.72
8977.31
8977.91
8978.5
8979.09
8979.69
8980.28
8980.87
8981.47
8982.06
8982.65
8983.25
8983.84
8984.43
8985.03
8985.62
8986.21
8986.81
8987.4
8988
8988.59
8989.18
8989.78
8990.37
8990.96
8991.56
8992.15
8992.75
8993.34
8993.94
8994.53
8995.12
8995.72
8996.31
8996.91
8997.5
8998.1
8998.69
8999.29
8999.88
9000.48
9001.07
9001.66
9002.26
9002.85
9003.45
9004.04
9004.64
9005.23
9005.83
9006.43
9007.02
9007.62
9008.21
9008.81
9009.4
9010
9010.59
9011.19
9011.78
9012.38
9012.98
9013.57
9014.17
9014.76
9015.36
9015.95
9016.55
9017.15
9017.74
9018.34
9018.94
9019.53
9020.13
9020.72
9021.32
9021.92
9022.51
9023.11
9023.71
9024.3
9024.9
9025.5
9026.09
9026.69
9027.29
9027.88
9028.48
9029.08
9029.67
9030.27
9030.87
9031.47
9032.06
9032.66
9033.26
9033.85
9034.45
9035.05
9035.65
9036.24
9036.84
9037.44
9038.04
9038.64
9039.23
9039.83
9040.43
9041.03
9041.62
9042.22
9042.82
9043.42
9044.02
9044.61
9045.21
9045.81
9046.41
9047.01
9047.61
9048.2
9048.8
9049.4
9050
9050.6
9051.2
9051.8
9052.4
9052.99
9053.59
9054.19
9054.79
9055.39
9055.99
9056.59
9057.19
9057.79
9058.39
9058.99
9059.58
9060.18
9060.78
9061.38
9061.98
9062.58
9063.18
9063.78
9064.38
9064.98
9065.58
9066.18
9066.78
9067.38
9067.98
9068.58
9069.18
9069.78
9070.38
9070.98
9071.58
9072.18
9072.78
9073.38
9073.98
9074.58
9075.18
9075.78
9076.38
9076.99
9077.59
9078.19
9078.79
9079.39
9079.99
9080.59
9081.19
9081.79
9082.39
9082.99
9083.6
9084.2
9084.8
9085.4
9086
9086.6
9087.2
9087.81
9088.41
9089.01
9089.61
9090.21
9090.81
9091.42
9092.02
9092.62
9093.22
9093.82
9094.43
9095.03
9095.63
9096.23
9096.83
9097.44
9098.04
9098.64
9099.24
9099.85
9100.45
9101.05
9101.65
9102.26
9102.86
9103.46
9104.06
9104.67
9105.27
9105.87
9106.48
9107.08
9107.68
9108.28
9108.89
9109.49
9110.09
9110.7
9111.3
9111.9
9112.51
9113.11
9113.71
9114.32
9114.92
9115.53
9116.13
9116.73
9117.34
9117.94
9118.54
9119.15
9119.75
9120.36
9120.96
9121.56
9122.17
9122.77
9123.38
9123.98
9124.59
9125.19
9125.8
9126.4
9127
9127.61
9128.21
9128.82
9129.42
9130.03
9130.63
9131.24
9131.84
9132.45
9133.05
9133.66
9134.26
9134.87
9135.47
9136.08
9136.68
9137.29
9137.89
9138.5
9139.1
9139.71
9140.32
9140.92
9141.53
9142.13
9142.74
9143.34
9143.95
9144.56
9145.16
9145.77
9146.37
9146.98
9147.59
9148.19
9148.8
9149.41
9150.01
9150.62
9151.22
9151.83
9152.44
9153.04
9153.65
9154.26
9154.86
9155.47
9156.08
9156.68
9157.29
9157.9
9158.51
9159.11
9159.72
9160.33
9160.93
9161.54
9162.15
9162.76
9163.36
9163.97
9164.58
9165.18
9165.79
9166.4
9167.01
9167.62
9168.22
9168.83
9169.44
9170.05
9170.65
9171.26
9171.87
9172.48
9173.09
9173.69
9174.3
9174.91
9175.52
9176.13
9176.74
9177.34
9177.95
9178.56
9179.17
9179.78
9180.39
9181
9181.6
9182.21
9182.82
9183.43
9184.04
9184.65
9185.26
9185.87
9186.48
9187.09
9187.7
9188.3
9188.91
9189.52
9190.13
9190.74
9191.35
9191.96
9192.57
9193.18
9193.79
9194.4
9195.01
9195.62
9196.23
9196.84
9197.45
9198.06
9198.67
9199.28
9199.89
9200.5
9201.11
9201.72
9202.33
9202.94
9203.55
9204.16
9204.77
9205.38
9205.99
9206.6
9207.22
9207.83
9208.44
9209.05
9209.66
9210.27
9210.88
9211.49
9212.1
9212.71
9213.33
9213.94
9214.55
9215.16
9215.77
9216.38
9216.99
9217.6
9218.22
9218.83
9219.44
9220.05
9220.66
9221.28
9221.89
9222.5
9223.11
9223.72
9224.33
9224.95
9225.56
9226.17
9226.78
9227.4
9228.01
9228.62
9229.23
9229.85
9230.46
9231.07
9231.68
9232.3
9232.91
9233.52
9234.13
9234.75
9235.36
9235.97
9236.59
9237.2
9237.81
9238.43
9239.04
9239.65
9240.26
9240.88
9241.49
9242.1
9242.72
9243.33
9243.95
9244.56
9245.17
9245.79
9246.4
9247.01
9247.63
9248.24
9248.86
9249.47
9250.08
9250.7
9251.31
9251.93
9252.54
9253.15
9253.77
9254.38
9255
9255.61
9256.23
9256.84
9257.46
9258.07
9258.69
9259.3
9259.91
9260.53
9261.14
9261.76
9262.37
9262.99
9263.6
9264.22
9264.84
9265.45
9266.07
9266.68
9267.3
9267.91
9268.53
9269.14
9269.76
9270.37
9270.99
9271.61
9272.22
9272.84
9273.45
9274.07
9274.68
9275.3
9275.92
9276.53
9277.15
9277.76
9278.38
9279
9279.61
9280.23
9280.85
9281.46
9282.08
9282.7
9283.31
9283.93
9284.55
9285.16
9285.78
9286.4
9287.01
9287.63
9288.25
9288.86
9289.48
9290.1
9290.72
9291.33
9291.95
9292.57
9293.19
9293.8
9294.42
9295.04
9295.66
9296.27
9296.89
9297.51
9298.13
9298.74
9299.36
9299.98
9300.6
9301.22
9301.83
9302.45
9303.07
9303.69
9304.31
9304.92
9305.54
9306.16
9306.78
9307.4
9308.02
9308.64
9309.25
9309.87
9310.49
9311.11
9311.73
9312.35
9312.97
9313.59
9314.2
9314.82
9315.44
9316.06
9316.68
9317.3
9317.92
9318.54
9319.16
9319.78
9320.4
9321.02
9321.64
9322.26
9322.88
9323.5
9324.12
9324.74
9325.35
9325.97
9326.59
9327.21
9327.83
9328.45
9329.08
9329.7
9330.32
9330.94
9331.56
9332.18
9332.8
9333.42
9334.04
9334.66
9335.28
9335.9
9336.52
9337.14
9337.76
9338.38
9339
9339.62
9340.25
9340.87
9341.49
9342.11
9342.73
9343.35
9343.97
9344.59
9345.22
9345.84
9346.46
9347.08
9347.7
9348.32
9348.94
9349.57
9350.19
9350.81
9351.43
9352.05
9352.68
9353.3
9353.92
9354.54
9355.16
9355.79
9356.41
9357.03
9357.65
9358.28
9358.9
9359.52
9360.14
9360.76
9361.39
9362.01
9362.63
9363.26
9363.88
9364.5
9365.12
9365.75
9366.37
9366.99
9367.62
9368.24
9368.86
9369.49
9370.11
9370.73
9371.36
9371.98
9372.6
9373.23
9373.85
9374.47
9375.1
9375.72
9376.34
9376.97
9377.59
9378.22
9378.84
9379.46
9380.09
9380.71
9381.34
9381.96
9382.58
9383.21
9383.83
9384.46
9385.08
9385.71
9386.33
9386.95
9387.58
9388.2
9388.83
9389.45
9390.08
9390.7
9391.33
9391.95
9392.58
9393.2
9393.83
9394.45
9395.08
9395.7
9396.33
9396.95
9397.58
9398.2
9398.83
9399.45
9400.08
9400.71
9401.33
9401.96
9402.58
9403.21
9403.83
9404.46
9405.09
9405.71
9406.34
9406.96
9407.59
9408.22
9408.84
9409.47
9410.1
9410.72
9411.35
9411.97
9412.6
9413.23
9413.85
9414.48
9415.11
9415.73
9416.36
9416.99
9417.61
9418.24
9418.87
9419.49
9420.12
9420.75
9421.38
9422
9422.63
9423.26
9423.89
9424.51
9425.14
9425.77
9426.39
9427.02
9427.65
9428.28
9428.91
9429.53
9430.16
9430.79
9431.42
9432.04
9432.67
9433.3
9433.93
9434.56
9435.19
9435.81
9436.44
9437.07
9437.7
9438.33
9438.96
9439.58
9440.21
9440.84
9441.47
9442.1
9442.73
9443.36
9443.98
9444.61
9445.24
9445.87
9446.5
9447.13
9447.76
9448.39
9449.02
9449.65
9450.28
9450.91
9451.53
9452.16
9452.79
9453.42
9454.05
9454.68
9455.31
9455.94
9456.57
9457.2
9457.83
9458.46
9459.09
9459.72
9460.35
9460.98
9461.61
9462.24
9462.87
9463.5
9464.13
9464.76
9465.39
9466.02
9466.66
9467.29
9467.92
9468.55
9469.18
9469.81
9470.44
9471.07
9471.7
9472.33
9472.96
9473.59
9474.23
9474.86
9475.49
9476.12
9476.75
9477.38
9478.01
9478.65
9479.28
9479.91
9480.54
9481.17
9481.8
9482.44
9483.07
9483.7
9484.33
9484.96
9485.59
9486.23
9486.86
9487.49
9488.12
9488.76
9489.39
9490.02
9490.65
9491.29
9491.92
9492.55
9493.18
9493.82
9494.45
9495.08
9495.71
9496.35
9496.98
9497.61
9498.25
9498.88
9499.51
9500.14
9500.78
9501.41
9502.04
9502.68
9503.31
9503.94
9504.58
9505.21
9505.84
9506.48
9507.11
9507.75
9508.38
9509.01
9509.65
9510.28
9510.91
9511.55
9512.18
9512.82
9513.45
9514.09
9514.72
9515.35
9515.99
9516.62
9517.26
9517.89
9518.53
9519.16
9519.8
9520.43
9521.06
9521.7
9522.33
9522.97
9523.6
9524.24
9524.87
9525.51
9526.14
9526.78
9527.41
9528.05
9528.68
9529.32
9529.96
9530.59
9531.23
9531.86
9532.5
9533.13
9533.77
9534.4
9535.04
9535.68
9536.31
9536.95
9537.58
9538.22
9538.86
9539.49
9540.13
9540.76
9541.4
9542.04
9542.67
9543.31
9543.95
9544.58
9545.22
9545.86
9546.49
9547.13
9547.77
9548.4
9549.04
9549.68
9550.31
9550.95
9551.59
9552.22
9552.86
9553.5
9554.14
9554.77
9555.41
9556.05
9556.69
9557.32
9557.96
9558.6
9559.24
9559.87
9560.51
9561.15
9561.79
9562.42
9563.06
9563.7
9564.34
9564.98
9565.61
9566.25
9566.89
9567.53
9568.17
9568.81
9569.44
9570.08
9570.72
9571.36
9572
9572.64
9573.28
9573.91
9574.55
9575.19
9575.83
9576.47
9577.11
9577.75
9578.39
9579.03
9579.66
9580.3
9580.94
9581.58
9582.22
9582.86
9583.5
9584.14
9584.78
9585.42
9586.06
9586.7
9587.34
9587.98
9588.62
9589.26
9589.9
9590.54
9591.18
9591.82
9592.46
9593.1
9593.74
9594.38
9595.02
9595.66
9596.3
9596.94
9597.58
9598.22
9598.86
9599.5
9600.14
9600.78
9601.43
9602.07
9602.71
9603.35
9603.99
9604.63
9605.27
9605.91
9606.55
9607.19
9607.84
9608.48
9609.12
9609.76
9610.4
9611.04
9611.68
9612.33
9612.97
9613.61
9614.25
9614.89
9615.54
9616.18
9616.82
9617.46
9618.1
9618.75
9619.39
9620.03
9620.67
9621.31
9621.96
9622.6
9623.24
9623.88
9624.53
9625.17
9625.81
9626.45
9627.1
9627.74
9628.38
9629.03
9629.67
9630.31
9630.96
9631.6
9632.24
9632.88
9633.53
9634.17
9634.81
9635.46
9636.1
9636.75
9637.39
9638.03
9638.68
9639.32
9639.96
9640.61
9641.25
9641.89
9642.54
9643.18
9643.83
9644.47
9645.11
9645.76
9646.4
9647.05
9647.69
9648.34
9648.98
9649.63
9650.27
9650.91
9651.56
9652.2
9652.85
9653.49
9654.14
9654.78
9655.43
9656.07
9656.72
9657.36
9658.01
9658.65
9659.3
9659.94
9660.59
9661.23
9661.88
9662.52
9663.17
9663.82
9664.46
9665.11
9665.75
9666.4
9667.04
9667.69
9668.34
9668.98
9669.63
9670.27
9670.92
9671.57
9672.21
9672.86
9673.51
9674.15
9674.8
9675.44
9676.09
9676.74
9677.38
9678.03
9678.68
9679.32
9679.97
9680.62
9681.26
9681.91
9682.56
9683.21
9683.85
9684.5
9685.15
9685.79
9686.44
9687.09
9687.74
9688.38
9689.03
9689.68
9690.33
9690.97
9691.62
9692.27
9692.92
9693.57
9694.21
9694.86
9695.51
9696.16
9696.81
9697.45
9698.1
9698.75
9699.4
9700.05
9700.69
9701.34
9701.99
9702.64
9703.29
9703.94
9704.59
9705.23
9705.88
9706.53
9707.18
9707.83
9708.48
9709.13
9709.78
9710.43
9711.08
9711.72
9712.37
9713.02
9713.67
9714.32
9714.97
9715.62
9716.27
9716.92
9717.57
9718.22
9718.87
9719.52
9720.17
9720.82
9721.47
9722.12
9722.77
9723.42
9724.07
9724.72
9725.37
9726.02
9726.67
9727.32
9727.97
9728.62
9729.27
9729.92
9730.57
9731.22
9731.88
9732.53
9733.18
9733.83
9734.48
9735.13
9735.78
9736.43
9737.08
9737.73
9738.39
9739.04
9739.69
9740.34
9740.99
9741.64
9742.29
9742.95
9743.6
9744.25
9744.9
9745.55
9746.2
9746.86
9747.51
9748.16
9748.81
9749.46
9750.12
9750.77
9751.42
9752.07
9752.72
9753.38
9754.03
9754.68
9755.33
9755.99
9756.64
9757.29
9757.94
9758.6
9759.25
9759.9
9760.56
9761.21
9761.86
9762.52
9763.17
9763.82
9764.47
9765.13
9765.78
9766.43
9767.09
9767.74
9768.39
9769.05
9769.7
9770.36
9771.01
9771.66
9772.32
9772.97
9773.62
9774.28
9774.93
9775.59
9776.24
9776.89
9777.55
9778.2
9778.86
9779.51
9780.17
9780.82
9781.48
9782.13
9782.78
9783.44
9784.09
9784.75
9785.4
9786.06
9786.71
9787.37
9788.02
9788.68
9789.33
9789.99
9790.64
9791.3
9791.95
9792.61
9793.26
9793.92
9794.58
9795.23
9795.89
9796.54
9797.2
9797.85
9798.51
9799.16
9799.82
9800.48
9801.13
9801.79
9802.44
9803.1
9803.76
9804.41
9805.07
9805.73
9806.38
9807.04
9807.7
9808.35
9809.01
9809.66
9810.32
9810.98
9811.64
9812.29
9812.95
9813.61
9814.26
9814.92
9815.58
9816.23
9816.89
9817.55
9818.21
9818.86
9819.52
9820.18
9820.84
9821.49
9822.15
9822.81
9823.47
9824.12
9824.78
9825.44
9826.1
9826.75
9827.41
9828.07
9828.73
9829.39
9830.04
9830.7
9831.36
9832.02
9832.68
9833.34
9833.99
9834.65
9835.31
9835.97
9836.63
9837.29
9837.95
9838.6
9839.26
9839.92
9840.58
9841.24
9841.9
9842.56
9843.22
9843.88
9844.54
9845.19
9845.85
9846.51
9847.17
9847.83
9848.49
9849.15
9849.81
9850.47
9851.13
9851.79
9852.45
9853.11
9853.77
9854.43
9855.09
9855.75
9856.41
9857.07
9857.73
9858.39
9859.05
9859.71
9860.37
9861.03
9861.69
9862.35
9863.01
9863.67
9864.33
9864.99
9865.66
9866.32
9866.98
9867.64
9868.3
9868.96
9869.62
9870.28
9870.94
9871.6
9872.27
9872.93
9873.59
9874.25
9874.91
9875.57
9876.23
9876.9
9877.56
9878.22
9878.88
9879.54
9880.2
9880.87
9881.53
9882.19
9882.85
9883.51
9884.18
9884.84
9885.5
9886.16
9886.83
9887.49
9888.15
9888.81
9889.47
9890.14
9890.8
9891.46
9892.13
9892.79
9893.45
9894.11
9894.78
9895.44
9896.1
9896.77
9897.43
9898.09
9898.76
9899.42
9900.08
9900.75
9901.41
9902.07
9902.74
9903.4
9904.06
9904.73
9905.39
9906.05
9906.72
9907.38
9908.05
9908.71
9909.37
9910.04
9910.7
9911.37
9912.03
9912.7
9913.36
9914.02
9914.69
9915.35
9916.02
9916.68
9917.35
9918.01
9918.68
9919.34
9920.01
9920.67
9921.34
9922
9922.67
9923.33
9924
9924.66
9925.33
9925.99
9926.66
9927.32
9927.99
9928.65
9929.32
9929.98
9930.65
9931.32
9931.98
9932.65
9933.31
9933.98
9934.65
9935.31
9935.98
9936.64
9937.31
9937.98
9938.64
9939.31
9939.98
9940.64
9941.31
9941.97
9942.64
9943.31
9943.97
9944.64
9945.31
9945.97
9946.64
9947.31
9947.98
9948.64
9949.31
9949.98
9950.64
9951.31
9951.98
9952.65
9953.31
9953.98
9954.65
9955.32
9955.98
9956.65
9957.32
9957.99
9958.65
9959.32
9959.99
9960.66
9961.33
9961.99
9962.66
9963.33
9964
9964.67
9965.33
9966
9966.67
9967.34
9968.01
9968.68
9969.35
9970.01
9970.68
9971.35
9972.02
9972.69
9973.36
9974.03
9974.7
9975.36
9976.03
9976.7
9977.37
9978.04
9978.71
9979.38
9980.05
9980.72
9981.39
9982.06
9982.73
9983.4
9984.07
9984.74
9985.41
9986.08
9986.75
9987.42
9988.09
9988.76
9989.43
9990.1
9990.77
9991.44
9992.11
9992.78
9993.45
9994.12
9994.79
9995.46
9996.13
9996.8
9997.47
9998.14
9998.81
9999.48
10000.2
10000.8
10001.5
10002.2
10002.8
10003.5
10004.2
10004.9
10005.5
10006.2
10006.9
10007.5
10008.2
10008.9
10009.6
10010.2
10010.9
10011.6
10012.2
10012.9
10013.6
10014.3
10014.9
10015.6
10016.3
10016.9
10017.6
10018.3
10019
10019.6
10020.3
10021
10021.6
10022.3
10023
10023.7
10024.3
10025
10025.7
10026.4
10027
10027.7
10028.4
10029
10029.7
10030.4
10031.1
10031.7
10032.4
10033.1
10033.8
10034.4
10035.1
10035.8
10036.5
10037.1
10037.8
10038.5
10039.2
10039.8
10040.5
10041.2
10041.8
10042.5
10043.2
10043.9
10044.5
10045.2
10045.9
10046.6
10047.2
10047.9
10048.6
10049.3
10049.9
10050.6
10051.3
10052
10052.6
10053.3
10054
10054.7
10055.3
10056
10056.7
10057.4
10058
10058.7
10059.4
10060.1
10060.7
10061.4
10062.1
10062.8
10063.4
10064.1
10064.8
10065.5
10066.1
10066.8
10067.5
10068.2
10068.8
10069.5
10070.2
10070.9
10071.6
10072.2
10072.9
10073.6
10074.3
10074.9
10075.6
10076.3
10077
10077.6
10078.3
10079
10079.7
10080.3
10081
10081.7
10082.4
10083.1
10083.7
10084.4
10085.1
10085.8
10086.4
10087.1
10087.8
10088.5
10089.2
10089.8
10090.5
10091.2
10091.9
10092.5
10093.2
10093.9
10094.6
10095.3
10095.9
10096.6
10097.3
10098
10098.6
10099.3
10100
10100.7
10101.4
10102
10102.7
10103.4
10104.1
10104.7
10105.4
10106.1
10106.8
10107.5
10108.1
10108.8
10109.5
10110.2
10110.9
10111.5
10112.2
10112.9
10113.6
10114.3
10114.9
10115.6
10116.3
10117
10117.7
10118.3
10119
10119.7
10120.4
10121.1
10121.7
10122.4
10123.1
10123.8
10124.5
10125.1
10125.8
10126.5
10127.2
10127.9
10128.5
10129.2
10129.9
10130.6
10131.3
10131.9
10132.6
10133.3
10134
10134.7
10135.3
10136
10136.7
10137.4
10138.1
10138.7
10139.4
10140.1
10140.8
10141.5
10142.2
10142.8
10143.5
10144.2
10144.9
10145.6
10146.2
10146.9
10147.6
10148.3
10149
10149.7
10150.3
10151
10151.7
10152.4
10153.1
10153.7
10154.4
10155.1
10155.8
10156.5
10157.2
10157.8
10158.5
10159.2
10159.9
10160.6
10161.3
10161.9
10162.6
10163.3
10164
10164.7
10165.4
10166
10166.7
10167.4
10168.1
10168.8
10169.5
10170.1
10170.8
10171.5
10172.2
10172.9
10173.6
10174.2
10174.9
10175.6
10176.3
10177
10177.7
10178.3
10179
10179.7
10180.4
10181.1
10181.8
10182.5
10183.1
10183.8
10184.5
10185.2
10185.9
10186.6
10187.2
10187.9
10188.6
10189.3
10190
10190.7
10191.4
10192
10192.7
10193.4
10194.1
10194.8
10195.5
10196.2
10196.8
10197.5
10198.2
10198.9
10199.6
10200.3
10201
10201.6
10202.3
10203
10203.7
10204.4
10205.1
10205.8
10206.4
10207.1
10207.8
10208.5
10209.2
10209.9
10210.6
10211.3
10211.9
10212.6
10213.3
10214
10214.7
10215.4
10216.1
10216.7
10217.4
10218.1
10218.8
10219.5
10220.2
10220.9
10221.6
10222.2
10222.9
10223.6