/*--------------------------------*- C++ -*----------------------------------*\
  =========                 |
  \\      /  F ield         | OpenFOAM: The Open Source CFD Toolbox
   \\    /   O peration     | Website:  https://openfoam.org
    \\  /    A nd           | Version:  9
     \\/     M anipulation  |
\*---------------------------------------------------------------------------*/
FoamFile
{
    format      ascii;
    class       volVectorField;
    location    "0.005";
    object      U;
}
// * * * * * * * * * * * * * * * * * * * * * * * * * * * * * * * * * * * * * //

dimensions      [0 1 -1 0 0 0 0];

internalField   nonuniform List<vector> 
100
(
(0 0 0)
(1.08376e-33 0 0)
(3.64683e-13 0 0)
(-1.97256e-29 0 0)
(-2.38794e-13 0 0)
(3.91326e-12 0 0)
(3.16681e-11 0 0)
(1.63407e-10 0 0)
(7.48945e-10 0 0)
(3.35543e-09 0 0)
(1.44445e-08 0 0)
(6.12325e-08 0 0)
(2.49014e-07 0 0)
(9.92693e-07 0 0)
(3.79598e-06 0 0)
(1.41661e-05 0 0)
(5.06862e-05 0 0)
(0.000176138 0 0)
(0.000586226 0 0)
(0.00188488 0 0)
(0.00579278 0 0)
(0.0170933 0 0)
(0.0480391 0 0)
(0.128599 0 0)
(0.325447 0 0)
(0.770395 0 0)
(1.6798 0 0)
(3.37413 0 0)
(6.2654 0 0)
(10.749 0 0)
(17.1154 0 0)
(25.3733 0 0)
(35.3709 0 0)
(46.7447 0 0)
(59.1581 0 0)
(72.3159 0 0)
(85.9972 0 0)
(100.013 0 0)
(114.314 0 0)
(128.723 0 0)
(143.32 0 0)
(157.845 0 0)
(172.302 0 0)
(186.981 0 0)
(200.885 0 0)
(214.788 0 0)
(228.222 0 0)
(241.224 0 0)
(252.95 0 0)
(263.956 0 0)
(273.734 0 0)
(281.351 0 0)
(287.297 0 0)
(291.505 0 0)
(293.929 0 0)
(294.753 0 0)
(295.036 0 0)
(295.458 0 0)
(296.115 0 0)
(297.058 0 0)
(297.164 0 0)
(296.976 0 0)
(297.071 0 0)
(296.956 0 0)
(295.951 0 0)
(293.884 0 0)
(290.817 0 0)
(289.361 0 0)
(289.637 0 0)
(290.759 0 0)
(292.76 0 0)
(293.489 0 0)
(293.282 0 0)
(292.597 0 0)
(290.237 0 0)
(284.172 0 0)
(272.006 0 0)
(239.853 0 0)
(146.608 0 0)
(35.0362 0 0)
(5.24588 0 0)
(0.784127 0 0)
(0.119863 0 0)
(0.0182858 0 0)
(0.00279329 0 0)
(0.000426475 0 0)
(6.48803e-05 0 0)
(9.82686e-06 0 0)
(1.47912e-06 0 0)
(2.21049e-07 0 0)
(3.27698e-08 0 0)
(4.81725e-09 0 0)
(7.02701e-10 0 0)
(1.01212e-10 0 0)
(1.21915e-11 0 0)
(1.91459e-12 0 0)
(1.09361e-12 0 0)
(3.64537e-13 0 0)
(3.64756e-13 0 0)
(9.72488e-17 0 0)
)
;

boundaryField
{
    sides
    {
        type            zeroGradient;
    }
    empty
    {
        type            empty;
    }
}


// ************************************************************************* //
