/*--------------------------------*- C++ -*----------------------------------*\
  =========                 |
  \\      /  F ield         | OpenFOAM: The Open Source CFD Toolbox
   \\    /   O peration     | Website:  https://openfoam.org
    \\  /    A nd           | Version:  9
     \\/     M anipulation  |
\*---------------------------------------------------------------------------*/
FoamFile
{
    format      ascii;
    class       volScalarField;
    location    "0.031";
    object      rho;
}
// * * * * * * * * * * * * * * * * * * * * * * * * * * * * * * * * * * * * * //

dimensions      [1 -3 0 0 0 0 0];

internalField   nonuniform List<scalar> 
10000
(
0.290969
0.290964
0.290957
0.29095
0.290943
0.290936
0.290929
0.290923
0.290916
0.290909
0.290902
0.290895
0.290888
0.290882
0.290875
0.290868
0.290861
0.290854
0.290848
0.290841
0.290834
0.290827
0.290821
0.290814
0.290807
0.290801
0.290794
0.290788
0.290781
0.290774
0.290767
0.29076
0.290754
0.290748
0.290741
0.290735
0.290728
0.290722
0.290715
0.290707
0.290701
0.290694
0.290688
0.290682
0.290676
0.29067
0.290665
0.290658
0.290652
0.290645
0.290638
0.290631
0.290624
0.290616
0.290609
0.290603
0.290596
0.290591
0.290585
0.290581
0.290576
0.290573
0.29057
0.290567
0.290564
0.290562
0.29056
0.290558
0.290556
0.290555
0.290553
0.290551
0.290549
0.290548
0.290547
0.290545
0.290544
0.290543
0.290542
0.29054
0.290539
0.290538
0.290536
0.290535
0.290534
0.290532
0.290531
0.29053
0.290528
0.290527
0.290526
0.290525
0.290523
0.290522
0.290521
0.290519
0.290518
0.290517
0.290515
0.290514
0.290513
0.290511
0.29051
0.290509
0.290507
0.290506
0.290505
0.290503
0.290502
0.290501
0.290499
0.290498
0.290497
0.290495
0.290494
0.290493
0.290491
0.29049
0.290489
0.290487
0.290486
0.290485
0.290483
0.290482
0.290481
0.290479
0.290478
0.290477
0.290475
0.290474
0.290473
0.290471
0.29047
0.290469
0.290467
0.290466
0.290465
0.290463
0.290462
0.290461
0.290459
0.290458
0.290456
0.290455
0.290454
0.290452
0.290451
0.29045
0.290448
0.290447
0.290446
0.290444
0.290443
0.290442
0.29044
0.290439
0.290438
0.290436
0.290435
0.290434
0.290432
0.290431
0.290429
0.290428
0.290427
0.290425
0.290424
0.290423
0.290421
0.29042
0.290419
0.290417
0.290416
0.290415
0.290413
0.290412
0.29041
0.290409
0.290408
0.290406
0.290405
0.290404
0.290402
0.290401
0.2904
0.290398
0.290397
0.290395
0.290394
0.290393
0.290391
0.29039
0.290389
0.290387
0.290386
0.290384
0.290383
0.290382
0.29038
0.290379
0.290378
0.290376
0.290375
0.290373
0.290372
0.290371
0.290369
0.290368
0.290367
0.290365
0.290364
0.290362
0.290361
0.29036
0.290358
0.290357
0.290356
0.290354
0.290353
0.290351
0.29035
0.290349
0.290347
0.290346
0.290345
0.290343
0.290342
0.29034
0.290339
0.290338
0.290336
0.290335
0.290333
0.290332
0.290331
0.290329
0.290328
0.290326
0.290325
0.290324
0.290322
0.290321
0.29032
0.290318
0.290317
0.290315
0.290314
0.290313
0.290311
0.29031
0.290308
0.290307
0.290306
0.290304
0.290303
0.290301
0.2903
0.290299
0.290297
0.290296
0.290294
0.290293
0.290292
0.29029
0.290289
0.290287
0.290286
0.290285
0.290283
0.290282
0.29028
0.290279
0.290277
0.290276
0.290275
0.290273
0.290272
0.29027
0.290269
0.290268
0.290266
0.290265
0.290263
0.290262
0.290261
0.290259
0.290258
0.290256
0.290255
0.290253
0.290252
0.290251
0.290249
0.290248
0.290246
0.290245
0.290244
0.290242
0.290241
0.290239
0.290238
0.290236
0.290235
0.290234
0.290232
0.290231
0.290229
0.290228
0.290226
0.290225
0.290224
0.290222
0.290221
0.290219
0.290218
0.290216
0.290215
0.290214
0.290212
0.290211
0.290209
0.290208
0.290206
0.290205
0.290204
0.290202
0.290201
0.290199
0.290198
0.290196
0.290195
0.290194
0.290192
0.290191
0.290189
0.290188
0.290186
0.290185
0.290183
0.290182
0.290181
0.290179
0.290178
0.290176
0.290175
0.290173
0.290172
0.29017
0.290169
0.290168
0.290166
0.290165
0.290163
0.290162
0.29016
0.290159
0.290157
0.290156
0.290155
0.290153
0.290152
0.29015
0.290149
0.290147
0.290146
0.290144
0.290143
0.290141
0.29014
0.290139
0.290137
0.290136
0.290134
0.290133
0.290131
0.29013
0.290128
0.290127
0.290125
0.290124
0.290123
0.290121
0.29012
0.290118
0.290117
0.290115
0.290114
0.290112
0.290111
0.290109
0.290108
0.290106
0.290105
0.290104
0.290102
0.290101
0.290099
0.290098
0.290096
0.290095
0.290093
0.290092
0.29009
0.290089
0.290087
0.290086
0.290084
0.290083
0.290081
0.29008
0.290078
0.290077
0.290076
0.290074
0.290073
0.290071
0.29007
0.290068
0.290067
0.290065
0.290064
0.290062
0.290061
0.290059
0.290058
0.290056
0.290055
0.290053
0.290052
0.29005
0.290049
0.290047
0.290046
0.290044
0.290043
0.290041
0.29004
0.290038
0.290037
0.290035
0.290034
0.290033
0.290031
0.29003
0.290028
0.290027
0.290025
0.290024
0.290022
0.290021
0.290019
0.290018
0.290016
0.290015
0.290013
0.290012
0.29001
0.290009
0.290007
0.290006
0.290004
0.290003
0.290001
0.29
0.289998
0.289997
0.289995
0.289994
0.289992
0.289991
0.289989
0.289988
0.289986
0.289985
0.289983
0.289982
0.28998
0.289979
0.289977
0.289975
0.289974
0.289972
0.289971
0.289969
0.289968
0.289966
0.289965
0.289963
0.289962
0.28996
0.289959
0.289957
0.289956
0.289954
0.289953
0.289951
0.28995
0.289948
0.289947
0.289945
0.289944
0.289942
0.289941
0.289939
0.289938
0.289936
0.289935
0.289933
0.289932
0.28993
0.289928
0.289927
0.289925
0.289924
0.289922
0.289921
0.289919
0.289918
0.289916
0.289915
0.289913
0.289912
0.28991
0.289909
0.289907
0.289906
0.289904
0.289902
0.289901
0.289899
0.289898
0.289896
0.289895
0.289893
0.289892
0.28989
0.289889
0.289887
0.289886
0.289884
0.289882
0.289881
0.289879
0.289878
0.289876
0.289875
0.289873
0.289872
0.28987
0.289869
0.289867
0.289866
0.289864
0.289862
0.289861
0.289859
0.289858
0.289856
0.289855
0.289853
0.289852
0.28985
0.289848
0.289847
0.289845
0.289844
0.289842
0.289841
0.289839
0.289838
0.289836
0.289835
0.289833
0.289831
0.28983
0.289828
0.289827
0.289825
0.289824
0.289822
0.289821
0.289819
0.289817
0.289816
0.289814
0.289813
0.289811
0.28981
0.289808
0.289806
0.289805
0.289803
0.289802
0.2898
0.289799
0.289797
0.289795
0.289794
0.289792
0.289791
0.289789
0.289788
0.289786
0.289784
0.289783
0.289781
0.28978
0.289778
0.289777
0.289775
0.289773
0.289772
0.28977
0.289769
0.289767
0.289766
0.289764
0.289762
0.289761
0.289759
0.289758
0.289756
0.289755
0.289753
0.289751
0.28975
0.289748
0.289747
0.289745
0.289743
0.289742
0.28974
0.289739
0.289737
0.289736
0.289734
0.289732
0.289731
0.289729
0.289728
0.289726
0.289724
0.289723
0.289721
0.28972
0.289718
0.289716
0.289715
0.289713
0.289712
0.28971
0.289709
0.289707
0.289705
0.289704
0.289702
0.289701
0.289699
0.289697
0.289696
0.289694
0.289693
0.289691
0.289689
0.289688
0.289686
0.289685
0.289683
0.289681
0.28968
0.289678
0.289677
0.289675
0.289673
0.289672
0.28967
0.289668
0.289667
0.289665
0.289664
0.289662
0.28966
0.289659
0.289657
0.289656
0.289654
0.289652
0.289651
0.289649
0.289648
0.289646
0.289644
0.289643
0.289641
0.289639
0.289638
0.289636
0.289635
0.289633
0.289631
0.28963
0.289628
0.289627
0.289625
0.289623
0.289622
0.28962
0.289618
0.289617
0.289615
0.289614
0.289612
0.28961
0.289609
0.289607
0.289605
0.289604
0.289602
0.289601
0.289599
0.289597
0.289596
0.289594
0.289592
0.289591
0.289589
0.289587
0.289586
0.289584
0.289583
0.289581
0.289579
0.289578
0.289576
0.289574
0.289573
0.289571
0.289569
0.289568
0.289566
0.289565
0.289563
0.289561
0.28956
0.289558
0.289556
0.289555
0.289553
0.289551
0.28955
0.289548
0.289546
0.289545
0.289543
0.289542
0.28954
0.289538
0.289537
0.289535
0.289533
0.289532
0.28953
0.289528
0.289527
0.289525
0.289523
0.289522
0.28952
0.289518
0.289517
0.289515
0.289513
0.289512
0.28951
0.289509
0.289507
0.289505
0.289504
0.289502
0.2895
0.289499
0.289497
0.289495
0.289494
0.289492
0.28949
0.289489
0.289487
0.289485
0.289484
0.289482
0.28948
0.289479
0.289477
0.289475
0.289474
0.289472
0.28947
0.289469
0.289467
0.289465
0.289464
0.289462
0.28946
0.289459
0.289457
0.289455
0.289454
0.289452
0.28945
0.289449
0.289447
0.289445
0.289443
0.289442
0.28944
0.289438
0.289437
0.289435
0.289433
0.289432
0.28943
0.289428
0.289427
0.289425
0.289423
0.289422
0.28942
0.289418
0.289417
0.289415
0.289413
0.289412
0.28941
0.289408
0.289406
0.289405
0.289403
0.289401
0.2894
0.289398
0.289396
0.289395
0.289393
0.289391
0.28939
0.289388
0.289386
0.289384
0.289383
0.289381
0.28938
0.289378
0.289376
0.289374
0.289373
0.289371
0.289369
0.289367
0.289366
0.289364
0.289363
0.289361
0.289359
0.289357
0.289356
0.289354
0.289352
0.28935
0.289349
0.289347
0.289346
0.289344
0.289342
0.28934
0.289339
0.289337
0.289335
0.289333
0.289332
0.28933
0.289328
0.289326
0.289325
0.289323
0.289322
0.28932
0.289318
0.289316
0.289315
0.289313
0.289311
0.289309
0.289308
0.289306
0.289304
0.289303
0.289301
0.289299
0.289297
0.289296
0.289294
0.289292
0.289291
0.289289
0.289287
0.289285
0.289284
0.289282
0.28928
0.289278
0.289277
0.289275
0.289273
0.289272
0.28927
0.289268
0.289266
0.289265
0.289263
0.289261
0.289259
0.289258
0.289256
0.289254
0.289253
0.289251
0.289249
0.289247
0.289246
0.289244
0.289242
0.28924
0.289239
0.289237
0.289235
0.289233
0.289232
0.28923
0.289228
0.289226
0.289225
0.289223
0.289221
0.289219
0.289218
0.289216
0.289214
0.289213
0.289211
0.289209
0.289207
0.289206
0.289204
0.289202
0.2892
0.289199
0.289197
0.289195
0.289193
0.289192
0.28919
0.289188
0.289186
0.289185
0.289183
0.289181
0.289179
0.289177
0.289176
0.289174
0.289172
0.28917
0.289169
0.289167
0.289165
0.289163
0.289162
0.28916
0.289158
0.289156
0.289155
0.289153
0.289151
0.289149
0.289148
0.289146
0.289144
0.289142
0.289141
0.289139
0.289137
0.289135
0.289133
0.289132
0.28913
0.289128
0.289126
0.289125
0.289123
0.289121
0.289119
0.289118
0.289116
0.289114
0.289112
0.28911
0.289109
0.289107
0.289105
0.289103
0.289102
0.2891
0.289098
0.289096
0.289094
0.289093
0.289091
0.289089
0.289087
0.289086
0.289084
0.289082
0.28908
0.289078
0.289077
0.289075
0.289073
0.289071
0.289069
0.289068
0.289066
0.289064
0.289062
0.289061
0.289059
0.289057
0.289055
0.289053
0.289052
0.28905
0.289048
0.289046
0.289044
0.289043
0.289041
0.289039
0.289037
0.289035
0.289034
0.289032
0.28903
0.289028
0.289026
0.289025
0.289023
0.289021
0.289019
0.289017
0.289016
0.289014
0.289012
0.28901
0.289008
0.289007
0.289005
0.289003
0.289001
0.288999
0.288998
0.288996
0.288994
0.288992
0.28899
0.288989
0.288987
0.288985
0.288983
0.288981
0.288979
0.288978
0.288976
0.288974
0.288972
0.28897
0.288969
0.288967
0.288965
0.288963
0.288961
0.288959
0.288958
0.288956
0.288954
0.288952
0.28895
0.288949
0.288947
0.288945
0.288943
0.288941
0.288939
0.288938
0.288936
0.288934
0.288932
0.28893
0.288929
0.288927
0.288925
0.288923
0.288921
0.288919
0.288918
0.288916
0.288914
0.288912
0.28891
0.288908
0.288907
0.288905
0.288903
0.288901
0.288899
0.288897
0.288896
0.288894
0.288892
0.28889
0.288888
0.288886
0.288885
0.288883
0.288881
0.288879
0.288877
0.288875
0.288873
0.288872
0.28887
0.288868
0.288866
0.288864
0.288862
0.288861
0.288859
0.288857
0.288855
0.288853
0.288851
0.288849
0.288848
0.288846
0.288844
0.288842
0.28884
0.288838
0.288837
0.288835
0.288833
0.288831
0.288829
0.288827
0.288825
0.288824
0.288822
0.28882
0.288818
0.288816
0.288814
0.288812
0.288811
0.288809
0.288807
0.288805
0.288803
0.288801
0.288799
0.288797
0.288796
0.288794
0.288792
0.28879
0.288788
0.288786
0.288784
0.288783
0.288781
0.288779
0.288777
0.288775
0.288773
0.288771
0.288769
0.288768
0.288766
0.288764
0.288762
0.28876
0.288758
0.288756
0.288754
0.288753
0.288751
0.288749
0.288747
0.288745
0.288743
0.288741
0.288739
0.288738
0.288736
0.288734
0.288732
0.28873
0.288728
0.288726
0.288724
0.288723
0.288721
0.288719
0.288717
0.288715
0.288713
0.288711
0.288709
0.288707
0.288706
0.288704
0.288702
0.2887
0.288698
0.288696
0.288694
0.288692
0.28869
0.288689
0.288687
0.288685
0.288683
0.288681
0.288679
0.288677
0.288675
0.288673
0.288671
0.28867
0.288668
0.288666
0.288664
0.288662
0.28866
0.288658
0.288656
0.288654
0.288652
0.288651
0.288649
0.288647
0.288645
0.288643
0.288641
0.288639
0.288637
0.288635
0.288633
0.288632
0.28863
0.288628
0.288626
0.288624
0.288622
0.28862
0.288618
0.288616
0.288614
0.288612
0.28861
0.288609
0.288607
0.288605
0.288603
0.288601
0.288599
0.288597
0.288595
0.288593
0.288591
0.288589
0.288587
0.288586
0.288584
0.288582
0.28858
0.288578
0.288576
0.288574
0.288572
0.28857
0.288568
0.288566
0.288564
0.288562
0.288561
0.288559
0.288557
0.288555
0.288553
0.288551
0.288549
0.288547
0.288545
0.288543
0.288541
0.288539
0.288537
0.288535
0.288533
0.288532
0.28853
0.288528
0.288526
0.288524
0.288522
0.28852
0.288518
0.288516
0.288514
0.288512
0.28851
0.288508
0.288506
0.288504
0.288502
0.2885
0.288499
0.288497
0.288495
0.288493
0.288491
0.288489
0.288487
0.288485
0.288483
0.288481
0.288479
0.288477
0.288475
0.288473
0.288471
0.288469
0.288467
0.288465
0.288463
0.288461
0.28846
0.288458
0.288456
0.288454
0.288452
0.28845
0.288448
0.288446
0.288444
0.288442
0.28844
0.288438
0.288436
0.288434
0.288432
0.28843
0.288428
0.288426
0.288424
0.288422
0.28842
0.288418
0.288416
0.288414
0.288412
0.28841
0.288409
0.288407
0.288405
0.288403
0.288401
0.288399
0.288397
0.288395
0.288393
0.288391
0.288389
0.288387
0.288385
0.288383
0.288381
0.288379
0.288377
0.288375
0.288373
0.288371
0.288369
0.288367
0.288365
0.288363
0.288361
0.288359
0.288357
0.288355
0.288353
0.288351
0.288349
0.288347
0.288345
0.288343
0.288341
0.288339
0.288337
0.288335
0.288333
0.288331
0.288329
0.288327
0.288325
0.288323
0.288321
0.288319
0.288317
0.288315
0.288313
0.288311
0.288309
0.288307
0.288305
0.288303
0.288301
0.288299
0.288297
0.288295
0.288293
0.288291
0.288289
0.288287
0.288285
0.288283
0.288281
0.288279
0.288277
0.288275
0.288273
0.288271
0.288269
0.288267
0.288265
0.288263
0.288261
0.288259
0.288257
0.288255
0.288253
0.288251
0.288249
0.288247
0.288245
0.288243
0.288241
0.288239
0.288237
0.288235
0.288233
0.288231
0.288229
0.288227
0.288225
0.288223
0.288221
0.288219
0.288217
0.288215
0.288213
0.288211
0.288209
0.288207
0.288205
0.288203
0.288201
0.288199
0.288197
0.288195
0.288193
0.288191
0.288189
0.288187
0.288185
0.288183
0.288181
0.288179
0.288177
0.288175
0.288173
0.288171
0.288169
0.288167
0.288164
0.288162
0.28816
0.288158
0.288156
0.288154
0.288152
0.28815
0.288148
0.288146
0.288144
0.288142
0.28814
0.288138
0.288136
0.288134
0.288132
0.28813
0.288128
0.288126
0.288124
0.288122
0.28812
0.288118
0.288116
0.288114
0.288111
0.288109
0.288107
0.288105
0.288103
0.288101
0.288099
0.288097
0.288095
0.288093
0.288091
0.288089
0.288087
0.288085
0.288083
0.288081
0.288079
0.288077
0.288075
0.288073
0.28807
0.288068
0.288066
0.288064
0.288062
0.28806
0.288058
0.288056
0.288054
0.288052
0.28805
0.288048
0.288046
0.288044
0.288042
0.28804
0.288037
0.288035
0.288033
0.288031
0.288029
0.288027
0.288025
0.288023
0.288021
0.288019
0.288017
0.288015
0.288013
0.288011
0.288009
0.288006
0.288004
0.288002
0.288
0.287998
0.287996
0.287994
0.287992
0.28799
0.287988
0.287986
0.287984
0.287982
0.287979
0.287977
0.287975
0.287973
0.287971
0.287969
0.287967
0.287965
0.287963
0.287961
0.287959
0.287957
0.287954
0.287952
0.28795
0.287948
0.287946
0.287944
0.287942
0.28794
0.287938
0.287936
0.287934
0.287932
0.287929
0.287927
0.287925
0.287923
0.287921
0.287919
0.287917
0.287915
0.287913
0.287911
0.287908
0.287906
0.287904
0.287902
0.2879
0.287898
0.287896
0.287894
0.287892
0.28789
0.287888
0.287885
0.287883
0.287881
0.287879
0.287877
0.287875
0.287873
0.287871
0.287869
0.287866
0.287864
0.287862
0.28786
0.287858
0.287856
0.287854
0.287852
0.28785
0.287847
0.287845
0.287843
0.287841
0.287839
0.287837
0.287835
0.287833
0.287831
0.287828
0.287826
0.287824
0.287822
0.28782
0.287818
0.287816
0.287814
0.287812
0.287809
0.287807
0.287805
0.287803
0.287801
0.287799
0.287797
0.287795
0.287792
0.28779
0.287788
0.287786
0.287784
0.287782
0.28778
0.287778
0.287775
0.287773
0.287771
0.287769
0.287767
0.287765
0.287763
0.28776
0.287758
0.287756
0.287754
0.287752
0.28775
0.287748
0.287746
0.287743
0.287741
0.287739
0.287737
0.287735
0.287733
0.287731
0.287728
0.287726
0.287724
0.287722
0.28772
0.287718
0.287716
0.287713
0.287711
0.287709
0.287707
0.287705
0.287703
0.287701
0.287698
0.287696
0.287694
0.287692
0.28769
0.287688
0.287685
0.287683
0.287681
0.287679
0.287677
0.287675
0.287673
0.28767
0.287668
0.287666
0.287664
0.287662
0.28766
0.287657
0.287655
0.287653
0.287651
0.287649
0.287647
0.287645
0.287642
0.28764
0.287638
0.287636
0.287634
0.287632
0.287629
0.287627
0.287625
0.287623
0.287621
0.287619
0.287616
0.287614
0.287612
0.28761
0.287608
0.287606
0.287603
0.287601
0.287599
0.287597
0.287595
0.287593
0.28759
0.287588
0.287586
0.287584
0.287582
0.287579
0.287577
0.287575
0.287573
0.287571
0.287569
0.287566
0.287564
0.287562
0.28756
0.287558
0.287555
0.287553
0.287551
0.287549
0.287547
0.287545
0.287542
0.28754
0.287538
0.287536
0.287534
0.287531
0.287529
0.287527
0.287525
0.287523
0.287521
0.287518
0.287516
0.287514
0.287512
0.28751
0.287507
0.287505
0.287503
0.287501
0.287499
0.287496
0.287494
0.287492
0.28749
0.287488
0.287485
0.287483
0.287481
0.287479
0.287477
0.287474
0.287472
0.28747
0.287468
0.287466
0.287463
0.287461
0.287459
0.287457
0.287455
0.287452
0.28745
0.287448
0.287446
0.287444
0.287441
0.287439
0.287437
0.287435
0.287432
0.28743
0.287428
0.287426
0.287424
0.287421
0.287419
0.287417
0.287415
0.287413
0.28741
0.287408
0.287406
0.287404
0.287401
0.287399
0.287397
0.287395
0.287393
0.28739
0.287388
0.287386
0.287384
0.287382
0.287379
0.287377
0.287375
0.287373
0.28737
0.287368
0.287366
0.287364
0.287361
0.287359
0.287357
0.287355
0.287353
0.28735
0.287348
0.287346
0.287344
0.287341
0.287339
0.287337
0.287335
0.287332
0.28733
0.287328
0.287326
0.287324
0.287321
0.287319
0.287317
0.287315
0.287312
0.28731
0.287308
0.287306
0.287303
0.287301
0.287299
0.287297
0.287294
0.287292
0.28729
0.287288
0.287285
0.287283
0.287281
0.287279
0.287276
0.287274
0.287272
0.28727
0.287267
0.287265
0.287263
0.287261
0.287258
0.287256
0.287254
0.287252
0.287249
0.287247
0.287245
0.287243
0.28724
0.287238
0.287236
0.287234
0.287231
0.287229
0.287227
0.287225
0.287222
0.28722
0.287218
0.287216
0.287213
0.287211
0.287209
0.287207
0.287204
0.287202
0.2872
0.287198
0.287195
0.287193
0.287191
0.287188
0.287186
0.287184
0.287182
0.287179
0.287177
0.287175
0.287173
0.28717
0.287168
0.287166
0.287163
0.287161
0.287159
0.287157
0.287154
0.287152
0.28715
0.287148
0.287145
0.287143
0.287141
0.287138
0.287136
0.287134
0.287132
0.287129
0.287127
0.287125
0.287123
0.28712
0.287118
0.287116
0.287113
0.287111
0.287109
0.287107
0.287104
0.287102
0.2871
0.287097
0.287095
0.287093
0.287091
0.287088
0.287086
0.287084
0.287081
0.287079
0.287077
0.287074
0.287072
0.28707
0.287068
0.287065
0.287063
0.287061
0.287058
0.287056
0.287054
0.287052
0.287049
0.287047
0.287045
0.287042
0.28704
0.287038
0.287035
0.287033
0.287031
0.287029
0.287026
0.287024
0.287022
0.287019
0.287017
0.287015
0.287012
0.28701
0.287008
0.287006
0.287003
0.287001
0.286999
0.286996
0.286994
0.286992
0.286989
0.286987
0.286985
0.286982
0.28698
0.286978
0.286975
0.286973
0.286971
0.286969
0.286966
0.286964
0.286962
0.286959
0.286957
0.286955
0.286952
0.28695
0.286948
0.286945
0.286943
0.286941
0.286938
0.286936
0.286934
0.286931
0.286929
0.286927
0.286924
0.286922
0.28692
0.286917
0.286915
0.286913
0.28691
0.286908
0.286906
0.286903
0.286901
0.286899
0.286897
0.286894
0.286892
0.28689
0.286887
0.286885
0.286883
0.28688
0.286878
0.286876
0.286873
0.286871
0.286869
0.286866
0.286864
0.286861
0.286859
0.286857
0.286854
0.286852
0.28685
0.286847
0.286845
0.286843
0.28684
0.286838
0.286836
0.286833
0.286831
0.286829
0.286826
0.286824
0.286822
0.286819
0.286817
0.286815
0.286812
0.28681
0.286808
0.286805
0.286803
0.286801
0.286798
0.286796
0.286793
0.286791
0.286789
0.286786
0.286784
0.286782
0.286779
0.286777
0.286775
0.286772
0.28677
0.286768
0.286765
0.286763
0.28676
0.286758
0.286756
0.286753
0.286751
0.286749
0.286746
0.286744
0.286742
0.286739
0.286737
0.286734
0.286732
0.28673
0.286727
0.286725
0.286723
0.28672
0.286718
0.286716
0.286713
0.286711
0.286708
0.286706
0.286704
0.286701
0.286699
0.286697
0.286694
0.286692
0.286689
0.286687
0.286685
0.286682
0.28668
0.286678
0.286675
0.286673
0.28667
0.286668
0.286666
0.286663
0.286661
0.286659
0.286656
0.286654
0.286651
0.286649
0.286647
0.286644
0.286642
0.286639
0.286637
0.286635
0.286632
0.28663
0.286628
0.286625
0.286623
0.28662
0.286618
0.286616
0.286613
0.286611
0.286608
0.286606
0.286604
0.286601
0.286599
0.286596
0.286594
0.286592
0.286589
0.286587
0.286585
0.286582
0.28658
0.286577
0.286575
0.286573
0.28657
0.286568
0.286565
0.286563
0.286561
0.286558
0.286556
0.286553
0.286551
0.286549
0.286546
0.286544
0.286541
0.286539
0.286536
0.286534
0.286532
0.286529
0.286527
0.286524
0.286522
0.28652
0.286517
0.286515
0.286512
0.28651
0.286508
0.286505
0.286503
0.2865
0.286498
0.286496
0.286493
0.286491
0.286488
0.286486
0.286483
0.286481
0.286479
0.286476
0.286474
0.286471
0.286469
0.286467
0.286464
0.286462
0.286459
0.286457
0.286454
0.286452
0.28645
0.286447
0.286445
0.286442
0.28644
0.286437
0.286435
0.286433
0.28643
0.286428
0.286425
0.286423
0.28642
0.286418
0.286416
0.286413
0.286411
0.286408
0.286406
0.286403
0.286401
0.286399
0.286396
0.286394
0.286391
0.286389
0.286386
0.286384
0.286382
0.286379
0.286377
0.286374
0.286372
0.286369
0.286367
0.286364
0.286362
0.28636
0.286357
0.286355
0.286352
0.28635
0.286347
0.286345
0.286343
0.28634
0.286338
0.286335
0.286333
0.28633
0.286328
0.286325
0.286323
0.28632
0.286318
0.286316
0.286313
0.286311
0.286308
0.286306
0.286303
0.286301
0.286298
0.286296
0.286294
0.286291
0.286289
0.286286
0.286284
0.286281
0.286279
0.286276
0.286274
0.286271
0.286269
0.286267
0.286264
0.286262
0.286259
0.286257
0.286254
0.286252
0.286249
0.286247
0.286244
0.286242
0.286239
0.286237
0.286235
0.286232
0.28623
0.286227
0.286225
0.286222
0.28622
0.286217
0.286215
0.286212
0.28621
0.286207
0.286205
0.286202
0.2862
0.286198
0.286195
0.286193
0.28619
0.286188
0.286185
0.286183
0.28618
0.286178
0.286175
0.286173
0.28617
0.286168
0.286165
0.286163
0.28616
0.286158
0.286155
0.286153
0.28615
0.286148
0.286146
0.286143
0.286141
0.286138
0.286136
0.286133
0.286131
0.286128
0.286126
0.286123
0.286121
0.286118
0.286116
0.286113
0.286111
0.286108
0.286106
0.286103
0.286101
0.286098
0.286096
0.286093
0.286091
0.286088
0.286086
0.286083
0.286081
0.286078
0.286076
0.286073
0.286071
0.286068
0.286066
0.286063
0.286061
0.286058
0.286056
0.286053
0.286051
0.286048
0.286046
0.286043
0.286041
0.286038
0.286036
0.286033
0.286031
0.286028
0.286026
0.286023
0.286021
0.286018
0.286016
0.286013
0.286011
0.286008
0.286006
0.286003
0.286001
0.285998
0.285996
0.285993
0.285991
0.285988
0.285986
0.285983
0.285981
0.285978
0.285976
0.285973
0.285971
0.285968
0.285966
0.285963
0.285961
0.285958
0.285956
0.285953
0.285951
0.285948
0.285946
0.285943
0.285941
0.285938
0.285936
0.285933
0.28593
0.285928
0.285925
0.285923
0.28592
0.285918
0.285915
0.285913
0.28591
0.285908
0.285905
0.285903
0.2859
0.285898
0.285895
0.285893
0.28589
0.285888
0.285885
0.285883
0.28588
0.285877
0.285875
0.285872
0.28587
0.285867
0.285865
0.285862
0.28586
0.285857
0.285855
0.285852
0.28585
0.285847
0.285845
0.285842
0.28584
0.285837
0.285834
0.285832
0.285829
0.285827
0.285824
0.285822
0.285819
0.285817
0.285814
0.285812
0.285809
0.285807
0.285804
0.285801
0.285799
0.285796
0.285794
0.285791
0.285789
0.285786
0.285784
0.285781
0.285779
0.285776
0.285773
0.285771
0.285768
0.285766
0.285763
0.285761
0.285758
0.285756
0.285753
0.285751
0.285748
0.285745
0.285743
0.28574
0.285738
0.285735
0.285733
0.28573
0.285728
0.285725
0.285722
0.28572
0.285717
0.285715
0.285712
0.28571
0.285707
0.285705
0.285702
0.285699
0.285697
0.285694
0.285692
0.285689
0.285687
0.285684
0.285682
0.285679
0.285676
0.285674
0.285671
0.285669
0.285666
0.285664
0.285661
0.285659
0.285656
0.285653
0.285651
0.285648
0.285646
0.285643
0.285641
0.285638
0.285635
0.285633
0.28563
0.285628
0.285625
0.285623
0.28562
0.285617
0.285615
0.285612
0.28561
0.285607
0.285605
0.285602
0.285599
0.285597
0.285594
0.285592
0.285589
0.285587
0.285584
0.285581
0.285579
0.285576
0.285574
0.285571
0.285569
0.285566
0.285563
0.285561
0.285558
0.285556
0.285553
0.285551
0.285548
0.285545
0.285543
0.28554
0.285538
0.285535
0.285532
0.28553
0.285527
0.285525
0.285522
0.28552
0.285517
0.285514
0.285512
0.285509
0.285507
0.285504
0.285501
0.285499
0.285496
0.285494
0.285491
0.285488
0.285486
0.285483
0.285481
0.285478
0.285476
0.285473
0.28547
0.285468
0.285465
0.285463
0.28546
0.285457
0.285455
0.285452
0.28545
0.285447
0.285444
0.285442
0.285439
0.285437
0.285434
0.285431
0.285429
0.285426
0.285424
0.285421
0.285418
0.285416
0.285413
0.285411
0.285408
0.285405
0.285403
0.2854
0.285398
0.285395
0.285392
0.28539
0.285387
0.285385
0.285382
0.285379
0.285377
0.285374
0.285372
0.285369
0.285366
0.285364
0.285361
0.285359
0.285356
0.285353
0.285351
0.285348
0.285346
0.285343
0.28534
0.285338
0.285335
0.285333
0.28533
0.285327
0.285325
0.285322
0.285319
0.285317
0.285314
0.285312
0.285309
0.285306
0.285304
0.285301
0.285299
0.285296
0.285293
0.285291
0.285288
0.285285
0.285283
0.28528
0.285278
0.285275
0.285272
0.28527
0.285267
0.285265
0.285262
0.285259
0.285257
0.285254
0.285251
0.285249
0.285246
0.285244
0.285241
0.285238
0.285236
0.285233
0.28523
0.285228
0.285225
0.285223
0.28522
0.285217
0.285215
0.285212
0.28521
0.285207
0.285204
0.285202
0.285199
0.285196
0.285194
0.285191
0.285189
0.285186
0.285183
0.285181
0.285178
0.285175
0.285173
0.28517
0.285167
0.285165
0.285162
0.28516
0.285157
0.285154
0.285152
0.285149
0.285146
0.285144
0.285141
0.285139
0.285136
0.285133
0.285131
0.285128
0.285125
0.285123
0.28512
0.285117
0.285115
0.285112
0.28511
0.285107
0.285104
0.285102
0.285099
0.285096
0.285094
0.285091
0.285088
0.285086
0.285083
0.285081
0.285078
0.285075
0.285073
0.28507
0.285067
0.285065
0.285062
0.285059
0.285057
0.285054
0.285052
0.285049
0.285046
0.285044
0.285041
0.285038
0.285036
0.285033
0.28503
0.285028
0.285025
0.285022
0.28502
0.285017
0.285015
0.285012
0.285009
0.285007
0.285004
0.285001
0.284999
0.284996
0.284993
0.284991
0.284988
0.284985
0.284983
0.28498
0.284978
0.284975
0.284972
0.28497
0.284967
0.284964
0.284962
0.284959
0.284956
0.284954
0.284951
0.284948
0.284946
0.284943
0.28494
0.284938
0.284935
0.284932
0.28493
0.284927
0.284925
0.284922
0.284919
0.284917
0.284914
0.284911
0.284909
0.284906
0.284903
0.284901
0.284898
0.284895
0.284893
0.28489
0.284887
0.284885
0.284882
0.284879
0.284877
0.284874
0.284871
0.284869
0.284866
0.284863
0.284861
0.284858
0.284856
0.284853
0.28485
0.284848
0.284845
0.284842
0.28484
0.284837
0.284834
0.284832
0.284829
0.284826
0.284824
0.284821
0.284818
0.284816
0.284813
0.28481
0.284808
0.284805
0.284802
0.2848
0.284797
0.284794
0.284792
0.284789
0.284786
0.284784
0.284781
0.284778
0.284776
0.284773
0.28477
0.284768
0.284765
0.284762
0.28476
0.284757
0.284754
0.284752
0.284749
0.284747
0.284744
0.284741
0.284739
0.284736
0.284733
0.284731
0.284728
0.284725
0.284723
0.28472
0.284717
0.284715
0.284712
0.284709
0.284707
0.284704
0.284701
0.284699
0.284696
0.284693
0.284691
0.284688
0.284685
0.284683
0.28468
0.284677
0.284675
0.284672
0.284669
0.284667
0.284664
0.284661
0.284659
0.284656
0.284653
0.284651
0.284648
0.284645
0.284643
0.28464
0.284637
0.284635
0.284632
0.284629
0.284627
0.284624
0.284621
0.284619
0.284616
0.284613
0.284611
0.284608
0.284605
0.284603
0.2846
0.284597
0.284595
0.284592
0.284589
0.284587
0.284584
0.284581
0.284579
0.284576
0.284573
0.284571
0.284568
0.284565
0.284563
0.28456
0.284557
0.284555
0.284552
0.284549
0.284547
0.284544
0.284541
0.284539
0.284536
0.284533
0.284531
0.284528
0.284525
0.284523
0.28452
0.284517
0.284515
0.284512
0.284509
0.284507
0.284504
0.284501
0.284499
0.284496
0.284493
0.284491
0.284488
0.284485
0.284483
0.28448
0.284477
0.284475
0.284472
0.284469
0.284467
0.284464
0.284461
0.284459
0.284456
0.284453
0.284451
0.284448
0.284445
0.284443
0.28444
0.284437
0.284435
0.284432
0.284429
0.284427
0.284424
0.284422
0.284419
0.284416
0.284414
0.284411
0.284408
0.284406
0.284403
0.2844
0.284398
0.284395
0.284392
0.28439
0.284387
0.284384
0.284382
0.284379
0.284376
0.284374
0.284371
0.284368
0.284366
0.284363
0.28436
0.284358
0.284355
0.284352
0.28435
0.284347
0.284344
0.284342
0.284339
0.284336
0.284334
0.284331
0.284328
0.284326
0.284323
0.284321
0.284318
0.284315
0.284313
0.28431
0.284307
0.284305
0.284302
0.284299
0.284297
0.284294
0.284291
0.284289
0.284286
0.284283
0.284281
0.284278
0.284275
0.284273
0.28427
0.284267
0.284265
0.284262
0.28426
0.284257
0.284254
0.284252
0.284249
0.284246
0.284244
0.284241
0.284238
0.284236
0.284233
0.28423
0.284228
0.284225
0.284222
0.28422
0.284217
0.284215
0.284212
0.284209
0.284207
0.284204
0.284201
0.284199
0.284196
0.284193
0.284191
0.284188
0.284186
0.284183
0.28418
0.284178
0.284175
0.284172
0.28417
0.284167
0.284164
0.284162
0.284159
0.284157
0.284154
0.284151
0.284149
0.284146
0.284143
0.284141
0.284138
0.284135
0.284133
0.28413
0.284128
0.284125
0.284122
0.28412
0.284117
0.284114
0.284112
0.284109
0.284107
0.284104
0.284101
0.284099
0.284096
0.284093
0.284091
0.284088
0.284086
0.284083
0.28408
0.284078
0.284075
0.284073
0.28407
0.284067
0.284065
0.284062
0.284059
0.284057
0.284054
0.284052
0.284049
0.284046
0.284044
0.284041
0.284039
0.284036
0.284033
0.284031
0.284028
0.284026
0.284023
0.28402
0.284018
0.284015
0.284013
0.28401
0.284007
0.284005
0.284002
0.284
0.283997
0.283994
0.283992
0.283989
0.283987
0.283984
0.283981
0.283979
0.283976
0.283974
0.283971
0.283968
0.283966
0.283963
0.283961
0.283958
0.283956
0.283953
0.28395
0.283948
0.283945
0.283943
0.28394
0.283937
0.283935
0.283932
0.28393
0.283927
0.283925
0.283922
0.283919
0.283917
0.283914
0.283912
0.283909
0.283907
0.283904
0.283901
0.283899
0.283896
0.283894
0.283891
0.283889
0.283886
0.283884
0.283881
0.283878
0.283876
0.283873
0.283871
0.283868
0.283866
0.283863
0.283861
0.283858
0.283856
0.283853
0.28385
0.283848
0.283845
0.283843
0.28384
0.283838
0.283835
0.283833
0.28383
0.283828
0.283825
0.283823
0.28382
0.283817
0.283815
0.283812
0.28381
0.283807
0.283805