/*--------------------------------*- C++ -*----------------------------------*\
  =========                 |
  \\      /  F ield         | OpenFOAM: The Open Source CFD Toolbox
   \\    /   O peration     | Website:  https://openfoam.org
    \\  /    A nd           | Version:  9
     \\/     M anipulation  |
\*---------------------------------------------------------------------------*/
FoamFile
{
    format      ascii;
    class       volVectorField;
    location    "0.031";
    object      U;
}
// * * * * * * * * * * * * * * * * * * * * * * * * * * * * * * * * * * * * * //

dimensions      [0 1 -1 0 0 0 0];

internalField   nonuniform List<vector> 
10000
(
(4.37663 0 0)
(4.42873 0 0)
(4.48251 0 0)
(4.52683 0 0)
(4.56774 0 0)
(4.60917 0 0)
(4.65147 0 0)
(4.69398 0 0)
(4.73643 0 0)
(4.77879 0 0)
(4.82114 0 0)
(4.8635 0 0)
(4.90587 0 0)
(4.94824 0 0)
(4.99061 0 0)
(5.03297 0 0)
(5.07534 0 0)
(5.11771 0 0)
(5.16008 0 0)
(5.20245 0 0)
(5.24481 0 0)
(5.28718 0 0)
(5.32955 0 0)
(5.37192 0 0)
(5.41429 0 0)
(5.45666 0 0)
(5.49903 0 0)
(5.5414 0 0)
(5.58377 0 0)
(5.62614 0 0)
(5.66851 0 0)
(5.71089 0 0)
(5.75326 0 0)
(5.79563 0 0)
(5.838 0 0)
(5.88037 0 0)
(5.92274 0 0)
(5.96511 0 0)
(6.00748 0 0)
(6.04986 0 0)
(6.09223 0 0)
(6.13461 0 0)
(6.17698 0 0)
(6.21936 0 0)
(6.26173 0 0)
(6.3041 0 0)
(6.34647 0 0)
(6.38885 0 0)
(6.43122 0 0)
(6.47359 0 0)
(6.51597 0 0)
(6.55834 0 0)
(6.60072 0 0)
(6.64309 0 0)
(6.68547 0 0)
(6.72785 0 0)
(6.77023 0 0)
(6.81261 0 0)
(6.85499 0 0)
(6.89737 0 0)
(6.93975 0 0)
(6.98213 0 0)
(7.02451 0 0)
(7.06688 0 0)
(7.10926 0 0)
(7.15164 0 0)
(7.19402 0 0)
(7.2364 0 0)
(7.27878 0 0)
(7.32116 0 0)
(7.36354 0 0)
(7.40592 0 0)
(7.4483 0 0)
(7.49068 0 0)
(7.53306 0 0)
(7.57544 0 0)
(7.61782 0 0)
(7.6602 0 0)
(7.70258 0 0)
(7.74496 0 0)
(7.78734 0 0)
(7.82972 0 0)
(7.8721 0 0)
(7.91448 0 0)
(7.95687 0 0)
(7.99925 0 0)
(8.04163 0 0)
(8.08401 0 0)
(8.1264 0 0)
(8.16878 0 0)
(8.21116 0 0)
(8.25355 0 0)
(8.29593 0 0)
(8.33831 0 0)
(8.3807 0 0)
(8.42308 0 0)
(8.46547 0 0)
(8.50785 0 0)
(8.55024 0 0)
(8.59262 0 0)
(8.63501 0 0)
(8.67739 0 0)
(8.71978 0 0)
(8.76216 0 0)
(8.80455 0 0)
(8.84694 0 0)
(8.88932 0 0)
(8.93171 0 0)
(8.9741 0 0)
(9.01648 0 0)
(9.05887 0 0)
(9.10126 0 0)
(9.14365 0 0)
(9.18604 0 0)
(9.22842 0 0)
(9.27081 0 0)
(9.3132 0 0)
(9.35559 0 0)
(9.39798 0 0)
(9.44037 0 0)
(9.48276 0 0)
(9.52515 0 0)
(9.56754 0 0)
(9.60993 0 0)
(9.65232 0 0)
(9.69471 0 0)
(9.7371 0 0)
(9.77949 0 0)
(9.82188 0 0)
(9.86427 0 0)
(9.90667 0 0)
(9.94906 0 0)
(9.99145 0 0)
(10.0338 0 0)
(10.0762 0 0)
(10.1186 0 0)
(10.161 0 0)
(10.2034 0 0)
(10.2458 0 0)
(10.2882 0 0)
(10.3306 0 0)
(10.373 0 0)
(10.4154 0 0)
(10.4578 0 0)
(10.5002 0 0)
(10.5426 0 0)
(10.585 0 0)
(10.6274 0 0)
(10.6698 0 0)
(10.7122 0 0)
(10.7545 0 0)
(10.7969 0 0)
(10.8393 0 0)
(10.8817 0 0)
(10.9241 0 0)
(10.9665 0 0)
(11.0089 0 0)
(11.0513 0 0)
(11.0937 0 0)
(11.1361 0 0)
(11.1785 0 0)
(11.2209 0 0)
(11.2633 0 0)
(11.3057 0 0)
(11.3481 0 0)
(11.3905 0 0)
(11.4329 0 0)
(11.4753 0 0)
(11.5177 0 0)
(11.5601 0 0)
(11.6025 0 0)
(11.6449 0 0)
(11.6873 0 0)
(11.7297 0 0)
(11.7721 0 0)
(11.8145 0 0)
(11.8569 0 0)
(11.8993 0 0)
(11.9417 0 0)
(11.9841 0 0)
(12.0265 0 0)
(12.0689 0 0)
(12.1113 0 0)
(12.1537 0 0)
(12.1961 0 0)
(12.2385 0 0)
(12.2809 0 0)
(12.3233 0 0)
(12.3658 0 0)
(12.4082 0 0)
(12.4506 0 0)
(12.493 0 0)
(12.5354 0 0)
(12.5778 0 0)
(12.6202 0 0)
(12.6626 0 0)
(12.705 0 0)
(12.7474 0 0)
(12.7898 0 0)
(12.8322 0 0)
(12.8746 0 0)
(12.917 0 0)
(12.9594 0 0)
(13.0018 0 0)
(13.0442 0 0)
(13.0867 0 0)
(13.1291 0 0)
(13.1715 0 0)
(13.2139 0 0)
(13.2563 0 0)
(13.2987 0 0)
(13.3411 0 0)
(13.3835 0 0)
(13.4259 0 0)
(13.4683 0 0)
(13.5107 0 0)
(13.5531 0 0)
(13.5956 0 0)
(13.638 0 0)
(13.6804 0 0)
(13.7228 0 0)
(13.7652 0 0)
(13.8076 0 0)
(13.85 0 0)
(13.8924 0 0)
(13.9348 0 0)
(13.9773 0 0)
(14.0197 0 0)
(14.0621 0 0)
(14.1045 0 0)
(14.1469 0 0)
(14.1893 0 0)
(14.2317 0 0)
(14.2741 0 0)
(14.3166 0 0)
(14.359 0 0)
(14.4014 0 0)
(14.4438 0 0)
(14.4862 0 0)
(14.5286 0 0)
(14.571 0 0)
(14.6135 0 0)
(14.6559 0 0)
(14.6983 0 0)
(14.7407 0 0)
(14.7831 0 0)
(14.8255 0 0)
(14.868 0 0)
(14.9104 0 0)
(14.9528 0 0)
(14.9952 0 0)
(15.0376 0 0)
(15.08 0 0)
(15.1225 0 0)
(15.1649 0 0)
(15.2073 0 0)
(15.2497 0 0)
(15.2921 0 0)
(15.3346 0 0)
(15.377 0 0)
(15.4194 0 0)
(15.4618 0 0)
(15.5042 0 0)
(15.5467 0 0)
(15.5891 0 0)
(15.6315 0 0)
(15.6739 0 0)
(15.7163 0 0)
(15.7588 0 0)
(15.8012 0 0)
(15.8436 0 0)
(15.886 0 0)
(15.9284 0 0)
(15.9709 0 0)
(16.0133 0 0)
(16.0557 0 0)
(16.0981 0 0)
(16.1405 0 0)
(16.183 0 0)
(16.2254 0 0)
(16.2678 0 0)
(16.3102 0 0)
(16.3527 0 0)
(16.3951 0 0)
(16.4375 0 0)
(16.4799 0 0)
(16.5224 0 0)
(16.5648 0 0)
(16.6072 0 0)
(16.6496 0 0)
(16.6921 0 0)
(16.7345 0 0)
(16.7769 0 0)
(16.8193 0 0)
(16.8618 0 0)
(16.9042 0 0)
(16.9466 0 0)
(16.989 0 0)
(17.0315 0 0)
(17.0739 0 0)
(17.1163 0 0)
(17.1588 0 0)
(17.2012 0 0)
(17.2436 0 0)
(17.286 0 0)
(17.3285 0 0)
(17.3709 0 0)
(17.4133 0 0)
(17.4558 0 0)
(17.4982 0 0)
(17.5406 0 0)
(17.583 0 0)
(17.6255 0 0)
(17.6679 0 0)
(17.7103 0 0)
(17.7528 0 0)
(17.7952 0 0)
(17.8376 0 0)
(17.8801 0 0)
(17.9225 0 0)
(17.9649 0 0)
(18.0074 0 0)
(18.0498 0 0)
(18.0922 0 0)
(18.1346 0 0)
(18.1771 0 0)
(18.2195 0 0)
(18.2619 0 0)
(18.3044 0 0)
(18.3468 0 0)
(18.3892 0 0)
(18.4317 0 0)
(18.4741 0 0)
(18.5165 0 0)
(18.559 0 0)
(18.6014 0 0)
(18.6439 0 0)
(18.6863 0 0)
(18.7287 0 0)
(18.7712 0 0)
(18.8136 0 0)
(18.856 0 0)
(18.8985 0 0)
(18.9409 0 0)
(18.9833 0 0)
(19.0258 0 0)
(19.0682 0 0)
(19.1106 0 0)
(19.1531 0 0)
(19.1955 0 0)
(19.238 0 0)
(19.2804 0 0)
(19.3228 0 0)
(19.3653 0 0)
(19.4077 0 0)
(19.4502 0 0)
(19.4926 0 0)
(19.535 0 0)
(19.5775 0 0)
(19.6199 0 0)
(19.6623 0 0)
(19.7048 0 0)
(19.7472 0 0)
(19.7897 0 0)
(19.8321 0 0)
(19.8746 0 0)
(19.917 0 0)
(19.9594 0 0)
(20.0019 0 0)
(20.0443 0 0)
(20.0868 0 0)
(20.1292 0 0)
(20.1716 0 0)
(20.2141 0 0)
(20.2565 0 0)
(20.299 0 0)
(20.3414 0 0)
(20.3839 0 0)
(20.4263 0 0)
(20.4687 0 0)
(20.5112 0 0)
(20.5536 0 0)
(20.5961 0 0)
(20.6385 0 0)
(20.681 0 0)
(20.7234 0 0)
(20.7659 0 0)
(20.8083 0 0)
(20.8507 0 0)
(20.8932 0 0)
(20.9356 0 0)
(20.9781 0 0)
(21.0205 0 0)
(21.063 0 0)
(21.1054 0 0)
(21.1479 0 0)
(21.1903 0 0)
(21.2328 0 0)
(21.2752 0 0)
(21.3177 0 0)
(21.3601 0 0)
(21.4026 0 0)
(21.445 0 0)
(21.4875 0 0)
(21.5299 0 0)
(21.5724 0 0)
(21.6148 0 0)
(21.6572 0 0)
(21.6997 0 0)
(21.7421 0 0)
(21.7846 0 0)
(21.827 0 0)
(21.8695 0 0)
(21.912 0 0)
(21.9544 0 0)
(21.9969 0 0)
(22.0393 0 0)
(22.0818 0 0)
(22.1242 0 0)
(22.1667 0 0)
(22.2091 0 0)
(22.2516 0 0)
(22.294 0 0)
(22.3365 0 0)
(22.3789 0 0)
(22.4214 0 0)
(22.4638 0 0)
(22.5063 0 0)
(22.5487 0 0)
(22.5912 0 0)
(22.6336 0 0)
(22.6761 0 0)
(22.7186 0 0)
(22.761 0 0)
(22.8035 0 0)
(22.8459 0 0)
(22.8884 0 0)
(22.9308 0 0)
(22.9733 0 0)
(23.0157 0 0)
(23.0582 0 0)
(23.1006 0 0)
(23.1431 0 0)
(23.1856 0 0)
(23.228 0 0)
(23.2705 0 0)
(23.3129 0 0)
(23.3554 0 0)
(23.3978 0 0)
(23.4403 0 0)
(23.4828 0 0)
(23.5252 0 0)
(23.5677 0 0)
(23.6101 0 0)
(23.6526 0 0)
(23.6951 0 0)
(23.7375 0 0)
(23.78 0 0)
(23.8224 0 0)
(23.8649 0 0)
(23.9074 0 0)
(23.9498 0 0)
(23.9923 0 0)
(24.0347 0 0)
(24.0772 0 0)
(24.1197 0 0)
(24.1621 0 0)
(24.2046 0 0)
(24.247 0 0)
(24.2895 0 0)
(24.332 0 0)
(24.3744 0 0)
(24.4169 0 0)
(24.4594 0 0)
(24.5018 0 0)
(24.5443 0 0)
(24.5867 0 0)
(24.6292 0 0)
(24.6717 0 0)
(24.7141 0 0)
(24.7566 0 0)
(24.7991 0 0)
(24.8415 0 0)
(24.884 0 0)
(24.9265 0 0)
(24.9689 0 0)
(25.0114 0 0)
(25.0539 0 0)
(25.0963 0 0)
(25.1388 0 0)
(25.1813 0 0)
(25.2237 0 0)
(25.2662 0 0)
(25.3087 0 0)
(25.3511 0 0)
(25.3936 0 0)
(25.4361 0 0)
(25.4785 0 0)
(25.521 0 0)
(25.5635 0 0)
(25.6059 0 0)
(25.6484 0 0)
(25.6909 0 0)
(25.7333 0 0)
(25.7758 0 0)
(25.8183 0 0)
(25.8607 0 0)
(25.9032 0 0)
(25.9457 0 0)
(25.9882 0 0)
(26.0306 0 0)
(26.0731 0 0)
(26.1156 0 0)
(26.158 0 0)
(26.2005 0 0)
(26.243 0 0)
(26.2854 0 0)
(26.3279 0 0)
(26.3704 0 0)
(26.4129 0 0)
(26.4553 0 0)
(26.4978 0 0)
(26.5403 0 0)
(26.5828 0 0)
(26.6252 0 0)
(26.6677 0 0)
(26.7102 0 0)
(26.7526 0 0)
(26.7951 0 0)
(26.8376 0 0)
(26.8801 0 0)
(26.9225 0 0)
(26.965 0 0)
(27.0075 0 0)
(27.05 0 0)
(27.0924 0 0)
(27.1349 0 0)
(27.1774 0 0)
(27.2199 0 0)
(27.2623 0 0)
(27.3048 0 0)
(27.3473 0 0)
(27.3898 0 0)
(27.4322 0 0)
(27.4747 0 0)
(27.5172 0 0)
(27.5597 0 0)
(27.6022 0 0)
(27.6446 0 0)
(27.6871 0 0)
(27.7296 0 0)
(27.7721 0 0)
(27.8145 0 0)
(27.857 0 0)
(27.8995 0 0)
(27.942 0 0)
(27.9845 0 0)
(28.0269 0 0)
(28.0694 0 0)
(28.1119 0 0)
(28.1544 0 0)
(28.1969 0 0)
(28.2393 0 0)
(28.2818 0 0)
(28.3243 0 0)
(28.3668 0 0)
(28.4093 0 0)
(28.4518 0 0)
(28.4942 0 0)
(28.5367 0 0)
(28.5792 0 0)
(28.6217 0 0)
(28.6642 0 0)
(28.7066 0 0)
(28.7491 0 0)
(28.7916 0 0)
(28.8341 0 0)
(28.8766 0 0)
(28.9191 0 0)
(28.9615 0 0)
(29.004 0 0)
(29.0465 0 0)
(29.089 0 0)
(29.1315 0 0)
(29.174 0 0)
(29.2165 0 0)
(29.2589 0 0)
(29.3014 0 0)
(29.3439 0 0)
(29.3864 0 0)
(29.4289 0 0)
(29.4714 0 0)
(29.5139 0 0)
(29.5563 0 0)
(29.5988 0 0)
(29.6413 0 0)
(29.6838 0 0)
(29.7263 0 0)
(29.7688 0 0)
(29.8113 0 0)
(29.8538 0 0)
(29.8962 0 0)
(29.9387 0 0)
(29.9812 0 0)
(30.0237 0 0)
(30.0662 0 0)
(30.1087 0 0)
(30.1512 0 0)
(30.1937 0 0)
(30.2362 0 0)
(30.2786 0 0)
(30.3211 0 0)
(30.3636 0 0)
(30.4061 0 0)
(30.4486 0 0)
(30.4911 0 0)
(30.5336 0 0)
(30.5761 0 0)
(30.6186 0 0)
(30.6611 0 0)
(30.7036 0 0)
(30.7461 0 0)
(30.7885 0 0)
(30.831 0 0)
(30.8735 0 0)
(30.916 0 0)
(30.9585 0 0)
(31.001 0 0)
(31.0435 0 0)
(31.086 0 0)
(31.1285 0 0)
(31.171 0 0)
(31.2135 0 0)
(31.256 0 0)
(31.2985 0 0)
(31.341 0 0)
(31.3835 0 0)
(31.426 0 0)
(31.4684 0 0)
(31.5109 0 0)
(31.5534 0 0)
(31.5959 0 0)
(31.6384 0 0)
(31.6809 0 0)
(31.7234 0 0)
(31.7659 0 0)
(31.8084 0 0)
(31.8509 0 0)
(31.8934 0 0)
(31.9359 0 0)
(31.9784 0 0)
(32.0209 0 0)
(32.0634 0 0)
(32.1059 0 0)
(32.1484 0 0)
(32.1909 0 0)
(32.2334 0 0)
(32.2759 0 0)
(32.3184 0 0)
(32.3609 0 0)
(32.4034 0 0)
(32.4459 0 0)
(32.4884 0 0)
(32.5309 0 0)
(32.5734 0 0)
(32.6159 0 0)
(32.6584 0 0)
(32.7009 0 0)
(32.7434 0 0)
(32.7859 0 0)
(32.8284 0 0)
(32.8709 0 0)
(32.9134 0 0)
(32.9559 0 0)
(32.9984 0 0)
(33.0409 0 0)
(33.0834 0 0)
(33.1259 0 0)
(33.1684 0 0)
(33.2109 0 0)
(33.2534 0 0)
(33.2959 0 0)
(33.3384 0 0)
(33.381 0 0)
(33.4235 0 0)
(33.466 0 0)
(33.5085 0 0)
(33.551 0 0)
(33.5935 0 0)
(33.636 0 0)
(33.6785 0 0)
(33.721 0 0)
(33.7635 0 0)
(33.806 0 0)
(33.8485 0 0)
(33.891 0 0)
(33.9335 0 0)
(33.976 0 0)
(34.0185 0 0)
(34.0611 0 0)
(34.1036 0 0)
(34.1461 0 0)
(34.1886 0 0)
(34.2311 0 0)
(34.2736 0 0)
(34.3161 0 0)
(34.3586 0 0)
(34.4011 0 0)
(34.4436 0 0)
(34.4861 0 0)
(34.5286 0 0)
(34.5712 0 0)
(34.6137 0 0)
(34.6562 0 0)
(34.6987 0 0)
(34.7412 0 0)
(34.7837 0 0)
(34.8262 0 0)
(34.8687 0 0)
(34.9112 0 0)
(34.9538 0 0)
(34.9963 0 0)
(35.0388 0 0)
(35.0813 0 0)
(35.1238 0 0)
(35.1663 0 0)
(35.2088 0 0)
(35.2513 0 0)
(35.2939 0 0)
(35.3364 0 0)
(35.3789 0 0)
(35.4214 0 0)
(35.4639 0 0)
(35.5064 0 0)
(35.5489 0 0)
(35.5915 0 0)
(35.634 0 0)
(35.6765 0 0)
(35.719 0 0)
(35.7615 0 0)
(35.804 0 0)
(35.8465 0 0)
(35.8891 0 0)
(35.9316 0 0)
(35.9741 0 0)
(36.0166 0 0)
(36.0591 0 0)
(36.1016 0 0)
(36.1442 0 0)
(36.1867 0 0)
(36.2292 0 0)
(36.2717 0 0)
(36.3142 0 0)
(36.3567 0 0)
(36.3993 0 0)
(36.4418 0 0)
(36.4843 0 0)
(36.5268 0 0)
(36.5693 0 0)
(36.6119 0 0)
(36.6544 0 0)
(36.6969 0 0)
(36.7394 0 0)
(36.7819 0 0)
(36.8245 0 0)
(36.867 0 0)
(36.9095 0 0)
(36.952 0 0)
(36.9945 0 0)
(37.0371 0 0)
(37.0796 0 0)
(37.1221 0 0)
(37.1646 0 0)
(37.2071 0 0)
(37.2497 0 0)
(37.2922 0 0)
(37.3347 0 0)
(37.3772 0 0)
(37.4198 0 0)
(37.4623 0 0)
(37.5048 0 0)
(37.5473 0 0)
(37.5899 0 0)
(37.6324 0 0)
(37.6749 0 0)
(37.7174 0 0)
(37.7599 0 0)
(37.8025 0 0)
(37.845 0 0)
(37.8875 0 0)
(37.93 0 0)
(37.9726 0 0)
(38.0151 0 0)
(38.0576 0 0)
(38.1001 0 0)
(38.1427 0 0)
(38.1852 0 0)
(38.2277 0 0)
(38.2703 0 0)
(38.3128 0 0)
(38.3553 0 0)
(38.3978 0 0)
(38.4404 0 0)
(38.4829 0 0)
(38.5254 0 0)
(38.5679 0 0)
(38.6105 0 0)
(38.653 0 0)
(38.6955 0 0)
(38.7381 0 0)
(38.7806 0 0)
(38.8231 0 0)
(38.8656 0 0)
(38.9082 0 0)
(38.9507 0 0)
(38.9932 0 0)
(39.0358 0 0)
(39.0783 0 0)
(39.1208 0 0)
(39.1634 0 0)
(39.2059 0 0)
(39.2484 0 0)
(39.291 0 0)
(39.3335 0 0)
(39.376 0 0)
(39.4185 0 0)
(39.4611 0 0)
(39.5036 0 0)
(39.5461 0 0)
(39.5887 0 0)
(39.6312 0 0)
(39.6737 0 0)
(39.7163 0 0)
(39.7588 0 0)
(39.8013 0 0)
(39.8439 0 0)
(39.8864 0 0)
(39.9289 0 0)
(39.9715 0 0)
(40.014 0 0)
(40.0565 0 0)
(40.0991 0 0)
(40.1416 0 0)
(40.1842 0 0)
(40.2267 0 0)
(40.2692 0 0)
(40.3118 0 0)
(40.3543 0 0)
(40.3968 0 0)
(40.4394 0 0)
(40.4819 0 0)
(40.5244 0 0)
(40.567 0 0)
(40.6095 0 0)
(40.6521 0 0)
(40.6946 0 0)
(40.7371 0 0)
(40.7797 0 0)
(40.8222 0 0)
(40.8647 0 0)
(40.9073 0 0)
(40.9498 0 0)
(40.9924 0 0)
(41.0349 0 0)
(41.0774 0 0)
(41.12 0 0)
(41.1625 0 0)
(41.2051 0 0)
(41.2476 0 0)
(41.2901 0 0)
(41.3327 0 0)
(41.3752 0 0)
(41.4178 0 0)
(41.4603 0 0)
(41.5028 0 0)
(41.5454 0 0)
(41.5879 0 0)
(41.6305 0 0)
(41.673 0 0)
(41.7155 0 0)
(41.7581 0 0)
(41.8006 0 0)
(41.8432 0 0)
(41.8857 0 0)
(41.9283 0 0)
(41.9708 0 0)
(42.0133 0 0)
(42.0559 0 0)
(42.0984 0 0)
(42.141 0 0)
(42.1835 0 0)
(42.2261 0 0)
(42.2686 0 0)
(42.3112 0 0)
(42.3537 0 0)
(42.3962 0 0)
(42.4388 0 0)
(42.4813 0 0)
(42.5239 0 0)
(42.5664 0 0)
(42.609 0 0)
(42.6515 0 0)
(42.6941 0 0)
(42.7366 0 0)
(42.7792 0 0)
(42.8217 0 0)
(42.8643 0 0)
(42.9068 0 0)
(42.9494 0 0)
(42.9919 0 0)
(43.0344 0 0)
(43.077 0 0)
(43.1195 0 0)
(43.1621 0 0)
(43.2046 0 0)
(43.2472 0 0)
(43.2897 0 0)
(43.3323 0 0)
(43.3748 0 0)
(43.4174 0 0)
(43.4599 0 0)
(43.5025 0 0)
(43.545 0 0)
(43.5876 0 0)
(43.6301 0 0)
(43.6727 0 0)
(43.7152 0 0)
(43.7578 0 0)
(43.8003 0 0)
(43.8429 0 0)
(43.8854 0 0)
(43.928 0 0)
(43.9705 0 0)
(44.0131 0 0)
(44.0557 0 0)
(44.0982 0 0)
(44.1408 0 0)
(44.1833 0 0)
(44.2259 0 0)
(44.2684 0 0)
(44.311 0 0)
(44.3535 0 0)
(44.3961 0 0)
(44.4386 0 0)
(44.4812 0 0)
(44.5237 0 0)
(44.5663 0 0)
(44.6089 0 0)
(44.6514 0 0)
(44.694 0 0)
(44.7365 0 0)
(44.7791 0 0)
(44.8216 0 0)
(44.8642 0 0)
(44.9067 0 0)
(44.9493 0 0)
(44.9919 0 0)
(45.0344 0 0)
(45.077 0 0)
(45.1195 0 0)
(45.1621 0 0)
(45.2046 0 0)
(45.2472 0 0)
(45.2898 0 0)
(45.3323 0 0)
(45.3749 0 0)
(45.4174 0 0)
(45.46 0 0)
(45.5025 0 0)
(45.5451 0 0)
(45.5877 0 0)
(45.6302 0 0)
(45.6728 0 0)
(45.7153 0 0)
(45.7579 0 0)
(45.8005 0 0)
(45.843 0 0)
(45.8856 0 0)
(45.9281 0 0)
(45.9707 0 0)
(46.0133 0 0)
(46.0558 0 0)
(46.0984 0 0)
(46.141 0 0)
(46.1835 0 0)
(46.2261 0 0)
(46.2686 0 0)
(46.3112 0 0)
(46.3538 0 0)
(46.3963 0 0)
(46.4389 0 0)
(46.4815 0 0)
(46.524 0 0)
(46.5666 0 0)
(46.6091 0 0)
(46.6517 0 0)
(46.6943 0 0)
(46.7368 0 0)
(46.7794 0 0)
(46.822 0 0)
(46.8645 0 0)
(46.9071 0 0)
(46.9497 0 0)
(46.9922 0 0)
(47.0348 0 0)
(47.0774 0 0)
(47.1199 0 0)
(47.1625 0 0)
(47.2051 0 0)
(47.2476 0 0)
(47.2902 0 0)
(47.3328 0 0)
(47.3753 0 0)
(47.4179 0 0)
(47.4605 0 0)
(47.503 0 0)
(47.5456 0 0)
(47.5882 0 0)
(47.6307 0 0)
(47.6733 0 0)
(47.7159 0 0)
(47.7584 0 0)
(47.801 0 0)
(47.8436 0 0)
(47.8861 0 0)
(47.9287 0 0)
(47.9713 0 0)
(48.0138 0 0)
(48.0564 0 0)
(48.099 0 0)
(48.1416 0 0)
(48.1841 0 0)
(48.2267 0 0)
(48.2693 0 0)
(48.3118 0 0)
(48.3544 0 0)
(48.397 0 0)
(48.4396 0 0)
(48.4821 0 0)
(48.5247 0 0)
(48.5673 0 0)
(48.6098 0 0)
(48.6524 0 0)
(48.695 0 0)
(48.7376 0 0)
(48.7801 0 0)
(48.8227 0 0)
(48.8653 0 0)
(48.9079 0 0)
(48.9504 0 0)
(48.993 0 0)
(49.0356 0 0)
(49.0781 0 0)
(49.1207 0 0)
(49.1633 0 0)
(49.2059 0 0)
(49.2484 0 0)
(49.291 0 0)
(49.3336 0 0)
(49.3762 0 0)
(49.4187 0 0)
(49.4613 0 0)
(49.5039 0 0)
(49.5465 0 0)
(49.5891 0 0)
(49.6316 0 0)
(49.6742 0 0)
(49.7168 0 0)
(49.7594 0 0)
(49.8019 0 0)
(49.8445 0 0)
(49.8871 0 0)
(49.9297 0 0)
(49.9723 0 0)
(50.0148 0 0)
(50.0574 0 0)
(50.1 0 0)
(50.1426 0 0)
(50.1851 0 0)
(50.2277 0 0)
(50.2703 0 0)
(50.3129 0 0)
(50.3555 0 0)
(50.398 0 0)
(50.4406 0 0)
(50.4832 0 0)
(50.5258 0 0)
(50.5684 0 0)
(50.6109 0 0)
(50.6535 0 0)
(50.6961 0 0)
(50.7387 0 0)
(50.7813 0 0)
(50.8239 0 0)
(50.8664 0 0)
(50.909 0 0)
(50.9516 0 0)
(50.9942 0 0)
(51.0368 0 0)
(51.0793 0 0)
(51.1219 0 0)
(51.1645 0 0)
(51.2071 0 0)
(51.2497 0 0)
(51.2923 0 0)
(51.3349 0 0)
(51.3774 0 0)
(51.42 0 0)
(51.4626 0 0)
(51.5052 0 0)
(51.5478 0 0)
(51.5904 0 0)
(51.6329 0 0)
(51.6755 0 0)
(51.7181 0 0)
(51.7607 0 0)
(51.8033 0 0)
(51.8459 0 0)
(51.8885 0 0)
(51.931 0 0)
(51.9736 0 0)
(52.0162 0 0)
(52.0588 0 0)
(52.1014 0 0)
(52.144 0 0)
(52.1866 0 0)
(52.2292 0 0)
(52.2717 0 0)
(52.3143 0 0)
(52.3569 0 0)
(52.3995 0 0)
(52.4421 0 0)
(52.4847 0 0)
(52.5273 0 0)
(52.5699 0 0)
(52.6125 0 0)
(52.655 0 0)
(52.6976 0 0)
(52.7402 0 0)
(52.7828 0 0)
(52.8254 0 0)
(52.868 0 0)
(52.9106 0 0)
(52.9532 0 0)
(52.9958 0 0)
(53.0384 0 0)
(53.081 0 0)
(53.1235 0 0)
(53.1661 0 0)
(53.2087 0 0)
(53.2513 0 0)
(53.2939 0 0)
(53.3365 0 0)
(53.3791 0 0)
(53.4217 0 0)
(53.4643 0 0)
(53.5069 0 0)
(53.5495 0 0)
(53.5921 0 0)
(53.6347 0 0)
(53.6773 0 0)
(53.7198 0 0)
(53.7624 0 0)
(53.805 0 0)
(53.8476 0 0)
(53.8902 0 0)
(53.9328 0 0)
(53.9754 0 0)
(54.018 0 0)
(54.0606 0 0)
(54.1032 0 0)
(54.1458 0 0)
(54.1884 0 0)
(54.231 0 0)
(54.2736 0 0)
(54.3162 0 0)
(54.3588 0 0)
(54.4014 0 0)
(54.444 0 0)
(54.4866 0 0)
(54.5292 0 0)
(54.5718 0 0)
(54.6144 0 0)
(54.657 0 0)
(54.6996 0 0)
(54.7422 0 0)
(54.7848 0 0)
(54.8274 0 0)
(54.87 0 0)
(54.9126 0 0)
(54.9552 0 0)
(54.9978 0 0)
(55.0404 0 0)
(55.083 0 0)
(55.1256 0 0)
(55.1682 0 0)
(55.2108 0 0)
(55.2534 0 0)
(55.296 0 0)
(55.3386 0 0)
(55.3812 0 0)
(55.4238 0 0)
(55.4664 0 0)
(55.509 0 0)
(55.5516 0 0)
(55.5942 0 0)
(55.6368 0 0)
(55.6794 0 0)
(55.722 0 0)
(55.7646 0 0)
(55.8072 0 0)
(55.8498 0 0)
(55.8924 0 0)
(55.935 0 0)
(55.9776 0 0)
(56.0202 0 0)
(56.0628 0 0)
(56.1054 0 0)
(56.148 0 0)
(56.1906 0 0)
(56.2332 0 0)
(56.2758 0 0)
(56.3184 0 0)
(56.361 0 0)
(56.4036 0 0)
(56.4462 0 0)
(56.4889 0 0)
(56.5315 0 0)
(56.5741 0 0)
(56.6167 0 0)
(56.6593 0 0)
(56.7019 0 0)
(56.7445 0 0)
(56.7871 0 0)
(56.8297 0 0)
(56.8723 0 0)
(56.9149 0 0)
(56.9575 0 0)
(57.0001 0 0)
(57.0427 0 0)
(57.0854 0 0)
(57.128 0 0)
(57.1706 0 0)
(57.2132 0 0)
(57.2558 0 0)
(57.2984 0 0)
(57.341 0 0)
(57.3836 0 0)
(57.4262 0 0)
(57.4688 0 0)
(57.5114 0 0)
(57.5541 0 0)
(57.5967 0 0)
(57.6393 0 0)
(57.6819 0 0)
(57.7245 0 0)
(57.7671 0 0)
(57.8097 0 0)
(57.8523 0 0)
(57.8949 0 0)
(57.9376 0 0)
(57.9802 0 0)
(58.0228 0 0)
(58.0654 0 0)
(58.108 0 0)
(58.1506 0 0)
(58.1932 0 0)
(58.2358 0 0)
(58.2785 0 0)
(58.3211 0 0)
(58.3637 0 0)
(58.4063 0 0)
(58.4489 0 0)
(58.4915 0 0)
(58.5341 0 0)
(58.5768 0 0)
(58.6194 0 0)
(58.662 0 0)
(58.7046 0 0)
(58.7472 0 0)
(58.7898 0 0)
(58.8324 0 0)
(58.8751 0 0)
(58.9177 0 0)
(58.9603 0 0)
(59.0029 0 0)
(59.0455 0 0)
(59.0881 0 0)
(59.1308 0 0)
(59.1734 0 0)
(59.216 0 0)
(59.2586 0 0)
(59.3012 0 0)
(59.3438 0 0)
(59.3865 0 0)
(59.4291 0 0)
(59.4717 0 0)
(59.5143 0 0)
(59.5569 0 0)
(59.5996 0 0)
(59.6422 0 0)
(59.6848 0 0)
(59.7274 0 0)
(59.77 0 0)
(59.8126 0 0)
(59.8553 0 0)
(59.8979 0 0)
(59.9405 0 0)
(59.9831 0 0)
(60.0257 0 0)
(60.0684 0 0)
(60.111 0 0)
(60.1536 0 0)
(60.1962 0 0)
(60.2389 0 0)
(60.2815 0 0)
(60.3241 0 0)
(60.3667 0 0)
(60.4093 0 0)
(60.452 0 0)
(60.4946 0 0)
(60.5372 0 0)
(60.5798 0 0)
(60.6225 0 0)
(60.6651 0 0)
(60.7077 0 0)
(60.7503 0 0)
(60.7929 0 0)
(60.8356 0 0)
(60.8782 0 0)
(60.9208 0 0)
(60.9634 0 0)
(61.0061 0 0)
(61.0487 0 0)
(61.0913 0 0)
(61.1339 0 0)
(61.1766 0 0)
(61.2192 0 0)
(61.2618 0 0)
(61.3044 0 0)
(61.3471 0 0)
(61.3897 0 0)
(61.4323 0 0)
(61.4749 0 0)
(61.5176 0 0)
(61.5602 0 0)
(61.6028 0 0)
(61.6455 0 0)
(61.6881 0 0)
(61.7307 0 0)
(61.7733 0 0)
(61.816 0 0)
(61.8586 0 0)
(61.9012 0 0)
(61.9438 0 0)
(61.9865 0 0)
(62.0291 0 0)
(62.0717 0 0)
(62.1144 0 0)
(62.157 0 0)
(62.1996 0 0)
(62.2423 0 0)
(62.2849 0 0)
(62.3275 0 0)
(62.3701 0 0)
(62.4128 0 0)
(62.4554 0 0)
(62.498 0 0)
(62.5407 0 0)
(62.5833 0 0)
(62.6259 0 0)
(62.6686 0 0)
(62.7112 0 0)
(62.7538 0 0)
(62.7965 0 0)
(62.8391 0 0)
(62.8817 0 0)
(62.9243 0 0)
(62.967 0 0)
(63.0096 0 0)
(63.0522 0 0)
(63.0949 0 0)
(63.1375 0 0)
(63.1801 0 0)
(63.2228 0 0)
(63.2654 0 0)
(63.308 0 0)
(63.3507 0 0)
(63.3933 0 0)
(63.4359 0 0)
(63.4786 0 0)
(63.5212 0 0)
(63.5639 0 0)
(63.6065 0 0)
(63.6491 0 0)
(63.6918 0 0)
(63.7344 0 0)
(63.777 0 0)
(63.8197 0 0)
(63.8623 0 0)
(63.9049 0 0)
(63.9476 0 0)
(63.9902 0 0)
(64.0328 0 0)
(64.0755 0 0)
(64.1181 0 0)
(64.1608 0 0)
(64.2034 0 0)
(64.246 0 0)
(64.2887 0 0)
(64.3313 0 0)
(64.3739 0 0)
(64.4166 0 0)
(64.4592 0 0)
(64.5019 0 0)
(64.5445 0 0)
(64.5871 0 0)
(64.6298 0 0)
(64.6724 0 0)
(64.7151 0 0)
(64.7577 0 0)
(64.8003 0 0)
(64.843 0 0)
(64.8856 0 0)
(64.9283 0 0)
(64.9709 0 0)
(65.0135 0 0)
(65.0562 0 0)
(65.0988 0 0)
(65.1415 0 0)
(65.1841 0 0)
(65.2267 0 0)
(65.2694 0 0)
(65.312 0 0)
(65.3547 0 0)
(65.3973 0 0)
(65.44 0 0)
(65.4826 0 0)
(65.5252 0 0)
(65.5679 0 0)
(65.6105 0 0)
(65.6532 0 0)
(65.6958 0 0)
(65.7385 0 0)
(65.7811 0 0)
(65.8237 0 0)
(65.8664 0 0)
(65.909 0 0)
(65.9517 0 0)
(65.9943 0 0)
(66.037 0 0)
(66.0796 0 0)
(66.1223 0 0)
(66.1649 0 0)
(66.2075 0 0)
(66.2502 0 0)
(66.2928 0 0)
(66.3355 0 0)
(66.3781 0 0)
(66.4208 0 0)
(66.4634 0 0)
(66.5061 0 0)
(66.5487 0 0)
(66.5914 0 0)
(66.634 0 0)
(66.6767 0 0)
(66.7193 0 0)
(66.7619 0 0)
(66.8046 0 0)
(66.8472 0 0)
(66.8899 0 0)
(66.9325 0 0)
(66.9752 0 0)
(67.0178 0 0)
(67.0605 0 0)
(67.1031 0 0)
(67.1458 0 0)
(67.1884 0 0)
(67.2311 0 0)
(67.2737 0 0)
(67.3164 0 0)
(67.359 0 0)
(67.4017 0 0)
(67.4443 0 0)
(67.487 0 0)
(67.5296 0 0)
(67.5723 0 0)
(67.6149 0 0)
(67.6576 0 0)
(67.7002 0 0)
(67.7429 0 0)
(67.7855 0 0)
(67.8282 0 0)
(67.8708 0 0)
(67.9135 0 0)
(67.9561 0 0)
(67.9988 0 0)
(68.0415 0 0)
(68.0841 0 0)
(68.1268 0 0)
(68.1694 0 0)
(68.2121 0 0)
(68.2547 0 0)
(68.2974 0 0)
(68.34 0 0)
(68.3827 0 0)
(68.4253 0 0)
(68.468 0 0)
(68.5106 0 0)
(68.5533 0 0)
(68.596 0 0)
(68.6386 0 0)
(68.6813 0 0)
(68.7239 0 0)
(68.7666 0 0)
(68.8092 0 0)
(68.8519 0 0)
(68.8945 0 0)
(68.9372 0 0)
(68.9799 0 0)
(69.0225 0 0)
(69.0652 0 0)
(69.1078 0 0)
(69.1505 0 0)
(69.1931 0 0)
(69.2358 0 0)
(69.2785 0 0)
(69.3211 0 0)
(69.3638 0 0)
(69.4064 0 0)
(69.4491 0 0)
(69.4917 0 0)
(69.5344 0 0)
(69.5771 0 0)
(69.6197 0 0)
(69.6624 0 0)
(69.705 0 0)
(69.7477 0 0)
(69.7904 0 0)
(69.833 0 0)
(69.8757 0 0)
(69.9183 0 0)
(69.961 0 0)
(70.0037 0 0)
(70.0463 0 0)
(70.089 0 0)
(70.1316 0 0)
(70.1743 0 0)
(70.217 0 0)
(70.2596 0 0)
(70.3023 0 0)
(70.3449 0 0)
(70.3876 0 0)
(70.4303 0 0)
(70.4729 0 0)
(70.5156 0 0)
(70.5583 0 0)
(70.6009 0 0)
(70.6436 0 0)
(70.6862 0 0)
(70.7289 0 0)
(70.7716 0 0)
(70.8142 0 0)
(70.8569 0 0)
(70.8996 0 0)
(70.9422 0 0)
(70.9849 0 0)
(71.0275 0 0)
(71.0702 0 0)
(71.1129 0 0)
(71.1555 0 0)
(71.1982 0 0)
(71.2409 0 0)
(71.2835 0 0)
(71.3262 0 0)
(71.3689 0 0)
(71.4115 0 0)
(71.4542 0 0)
(71.4969 0 0)
(71.5395 0 0)
(71.5822 0 0)
(71.6249 0 0)
(71.6675 0 0)
(71.7102 0 0)
(71.7529 0 0)
(71.7955 0 0)
(71.8382 0 0)
(71.8809 0 0)
(71.9235 0 0)
(71.9662 0 0)
(72.0089 0 0)
(72.0515 0 0)
(72.0942 0 0)
(72.1369 0 0)
(72.1795 0 0)
(72.2222 0 0)
(72.2649 0 0)
(72.3075 0 0)
(72.3502 0 0)
(72.3929 0 0)
(72.4356 0 0)
(72.4782 0 0)
(72.5209 0 0)
(72.5636 0 0)
(72.6062 0 0)
(72.6489 0 0)
(72.6916 0 0)
(72.7342 0 0)
(72.7769 0 0)
(72.8196 0 0)
(72.8623 0 0)
(72.9049 0 0)
(72.9476 0 0)
(72.9903 0 0)
(73.0329 0 0)
(73.0756 0 0)
(73.1183 0 0)
(73.161 0 0)
(73.2036 0 0)
(73.2463 0 0)
(73.289 0 0)
(73.3317 0 0)
(73.3743 0 0)
(73.417 0 0)
(73.4597 0 0)
(73.5023 0 0)
(73.545 0 0)
(73.5877 0 0)
(73.6304 0 0)
(73.673 0 0)
(73.7157 0 0)
(73.7584 0 0)
(73.8011 0 0)
(73.8437 0 0)
(73.8864 0 0)
(73.9291 0 0)
(73.9718 0 0)
(74.0144 0 0)
(74.0571 0 0)
(74.0998 0 0)
(74.1425 0 0)
(74.1851 0 0)
(74.2278 0 0)
(74.2705 0 0)
(74.3132 0 0)
(74.3559 0 0)
(74.3985 0 0)
(74.4412 0 0)
(74.4839 0 0)
(74.5266 0 0)
(74.5692 0 0)
(74.6119 0 0)
(74.6546 0 0)
(74.6973 0 0)
(74.74 0 0)
(74.7826 0 0)
(74.8253 0 0)
(74.868 0 0)
(74.9107 0 0)
(74.9533 0 0)
(74.996 0 0)
(75.0387 0 0)
(75.0814 0 0)
(75.1241 0 0)
(75.1667 0 0)
(75.2094 0 0)
(75.2521 0 0)
(75.2948 0 0)
(75.3375 0 0)
(75.3801 0 0)
(75.4228 0 0)
(75.4655 0 0)
(75.5082 0 0)
(75.5509 0 0)
(75.5936 0 0)
(75.6362 0 0)
(75.6789 0 0)
(75.7216 0 0)
(75.7643 0 0)
(75.807 0 0)
(75.8496 0 0)
(75.8923 0 0)
(75.935 0 0)
(75.9777 0 0)
(76.0204 0 0)
(76.0631 0 0)
(76.1057 0 0)
(76.1484 0 0)
(76.1911 0 0)
(76.2338 0 0)
(76.2765 0 0)
(76.3192 0 0)
(76.3618 0 0)
(76.4045 0 0)
(76.4472 0 0)
(76.4899 0 0)
(76.5326 0 0)
(76.5753 0 0)
(76.618 0 0)
(76.6606 0 0)
(76.7033 0 0)
(76.746 0 0)
(76.7887 0 0)
(76.8314 0 0)
(76.8741 0 0)
(76.9168 0 0)
(76.9594 0 0)
(77.0021 0 0)
(77.0448 0 0)
(77.0875 0 0)
(77.1302 0 0)
(77.1729 0 0)
(77.2156 0 0)
(77.2582 0 0)
(77.3009 0 0)
(77.3436 0 0)
(77.3863 0 0)
(77.429 0 0)
(77.4717 0 0)
(77.5144 0 0)
(77.5571 0 0)
(77.5998 0 0)
(77.6424 0 0)
(77.6851 0 0)
(77.7278 0 0)
(77.7705 0 0)
(77.8132 0 0)
(77.8559 0 0)
(77.8986 0 0)
(77.9413 0 0)
(77.984 0 0)
(78.0266 0 0)
(78.0693 0 0)
(78.112 0 0)
(78.1547 0 0)
(78.1974 0 0)
(78.2401 0 0)
(78.2828 0 0)
(78.3255 0 0)
(78.3682 0 0)
(78.4109 0 0)
(78.4536 0 0)
(78.4963 0 0)
(78.5389 0 0)
(78.5816 0 0)
(78.6243 0 0)
(78.667 0 0)
(78.7097 0 0)
(78.7524 0 0)
(78.7951 0 0)
(78.8378 0 0)
(78.8805 0 0)
(78.9232 0 0)
(78.9659 0 0)
(79.0086 0 0)
(79.0513 0 0)
(79.094 0 0)
(79.1366 0 0)
(79.1793 0 0)
(79.222 0 0)
(79.2647 0 0)
(79.3074 0 0)
(79.3501 0 0)
(79.3928 0 0)
(79.4355 0 0)
(79.4782 0 0)
(79.5209 0 0)
(79.5636 0 0)
(79.6063 0 0)
(79.649 0 0)
(79.6917 0 0)
(79.7344 0 0)
(79.7771 0 0)
(79.8198 0 0)
(79.8625 0 0)
(79.9052 0 0)
(79.9479 0 0)
(79.9906 0 0)
(80.0333 0 0)
(80.076 0 0)
(80.1187 0 0)
(80.1614 0 0)
(80.2041 0 0)
(80.2468 0 0)
(80.2895 0 0)
(80.3322 0 0)
(80.3748 0 0)
(80.4175 0 0)
(80.4602 0 0)
(80.5029 0 0)
(80.5456 0 0)
(80.5883 0 0)
(80.631 0 0)
(80.6737 0 0)
(80.7164 0 0)
(80.7591 0 0)
(80.8018 0 0)
(80.8445 0 0)
(80.8872 0 0)
(80.9299 0 0)
(80.9726 0 0)
(81.0153 0 0)
(81.058 0 0)
(81.1008 0 0)
(81.1435 0 0)
(81.1862 0 0)
(81.2289 0 0)
(81.2716 0 0)
(81.3143 0 0)
(81.357 0 0)
(81.3997 0 0)
(81.4424 0 0)
(81.4851 0 0)
(81.5278 0 0)
(81.5705 0 0)
(81.6132 0 0)
(81.6559 0 0)
(81.6986 0 0)
(81.7413 0 0)
(81.784 0 0)
(81.8267 0 0)
(81.8694 0 0)
(81.9121 0 0)
(81.9548 0 0)
(81.9975 0 0)
(82.0402 0 0)
(82.0829 0 0)
(82.1256 0 0)
(82.1683 0 0)
(82.211 0 0)
(82.2537 0 0)
(82.2964 0 0)
(82.3392 0 0)
(82.3819 0 0)
(82.4246 0 0)
(82.4673 0 0)
(82.51 0 0)
(82.5527 0 0)
(82.5954 0 0)
(82.6381 0 0)
(82.6808 0 0)
(82.7235 0 0)
(82.7662 0 0)
(82.8089 0 0)
(82.8516 0 0)
(82.8943 0 0)
(82.937 0 0)
(82.9798 0 0)
(83.0225 0 0)
(83.0652 0 0)
(83.1079 0 0)
(83.1506 0 0)
(83.1933 0 0)
(83.236 0 0)
(83.2787 0 0)
(83.3214 0 0)
(83.3641 0 0)
(83.4068 0 0)
(83.4496 0 0)
(83.4923 0 0)
(83.535 0 0)
(83.5777 0 0)
(83.6204 0 0)
(83.6631 0 0)
(83.7058 0 0)
(83.7485 0 0)
(83.7912 0 0)
(83.8339 0 0)
(83.8767 0 0)
(83.9194 0 0)
(83.9621 0 0)
(84.0048 0 0)
(84.0475 0 0)
(84.0902 0 0)
(84.1329 0 0)
(84.1756 0 0)
(84.2183 0 0)
(84.2611 0 0)
(84.3038 0 0)
(84.3465 0 0)
(84.3892 0 0)
(84.4319 0 0)
(84.4746 0 0)
(84.5173 0 0)
(84.56 0 0)
(84.6028 0 0)
(84.6455 0 0)
(84.6882 0 0)
(84.7309 0 0)
(84.7736 0 0)
(84.8163 0 0)
(84.859 0 0)
(84.9018 0 0)
(84.9445 0 0)
(84.9872 0 0)
(85.0299 0 0)
(85.0726 0 0)
(85.1153 0 0)
(85.158 0 0)
(85.2008 0 0)
(85.2435 0 0)
(85.2862 0 0)
(85.3289 0 0)
(85.3716 0 0)
(85.4143 0 0)
(85.4571 0 0)
(85.4998 0 0)
(85.5425 0 0)
(85.5852 0 0)
(85.6279 0 0)
(85.6706 0 0)
(85.7134 0 0)
(85.7561 0 0)
(85.7988 0 0)
(85.8415 0 0)
(85.8842 0 0)
(85.9269 0 0)
(85.9697 0 0)
(86.0124 0 0)
(86.0551 0 0)
(86.0978 0 0)
(86.1405 0 0)
(86.1833 0 0)
(86.226 0 0)
(86.2687 0 0)
(86.3114 0 0)
(86.3541 0 0)
(86.3969 0 0)
(86.4396 0 0)
(86.4823 0 0)
(86.525 0 0)
(86.5677 0 0)
(86.6105 0 0)
(86.6532 0 0)
(86.6959 0 0)
(86.7386 0 0)
(86.7813 0 0)
(86.8241 0 0)
(86.8668 0 0)
(86.9095 0 0)
(86.9522 0 0)
(86.9949 0 0)
(87.0377 0 0)
(87.0804 0 0)
(87.1231 0 0)
(87.1658 0 0)
(87.2085 0 0)
(87.2513 0 0)
(87.294 0 0)
(87.3367 0 0)
(87.3794 0 0)
(87.4222 0 0)
(87.4649 0 0)
(87.5076 0 0)
(87.5503 0 0)
(87.5931 0 0)
(87.6358 0 0)
(87.6785 0 0)
(87.7212 0 0)
(87.7639 0 0)
(87.8067 0 0)
(87.8494 0 0)
(87.8921 0 0)
(87.9348 0 0)
(87.9776 0 0)
(88.0203 0 0)
(88.063 0 0)
(88.1057 0 0)
(88.1485 0 0)
(88.1912 0 0)
(88.2339 0 0)
(88.2766 0 0)
(88.3194 0 0)
(88.3621 0 0)
(88.4048 0 0)
(88.4475 0 0)
(88.4903 0 0)
(88.533 0 0)
(88.5757 0 0)
(88.6184 0 0)
(88.6612 0 0)
(88.7039 0 0)
(88.7466 0 0)
(88.7894 0 0)
(88.8321 0 0)
(88.8748 0 0)
(88.9175 0 0)
(88.9603 0 0)
(89.003 0 0)
(89.0457 0 0)
(89.0884 0 0)
(89.1312 0 0)
(89.1739 0 0)
(89.2166 0 0)
(89.2594 0 0)
(89.3021 0 0)
(89.3448 0 0)
(89.3875 0 0)
(89.4303 0 0)
(89.473 0 0)
(89.5157 0 0)
(89.5585 0 0)
(89.6012 0 0)
(89.6439 0 0)
(89.6867 0 0)
(89.7294 0 0)
(89.7721 0 0)
(89.8148 0 0)
(89.8576 0 0)
(89.9003 0 0)
(89.943 0 0)
(89.9858 0 0)
(90.0285 0 0)
(90.0712 0 0)
(90.114 0 0)
(90.1567 0 0)
(90.1994 0 0)
(90.2422 0 0)
(90.2849 0 0)
(90.3276 0 0)
(90.3704 0 0)
(90.4131 0 0)
(90.4558 0 0)
(90.4985 0 0)
(90.5413 0 0)
(90.584 0 0)
(90.6267 0 0)
(90.6695 0 0)
(90.7122 0 0)
(90.7549 0 0)
(90.7977 0 0)
(90.8404 0 0)
(90.8831 0 0)
(90.9259 0 0)
(90.9686 0 0)
(91.0113 0 0)
(91.0541 0 0)
(91.0968 0 0)
(91.1395 0 0)
(91.1823 0 0)
(91.225 0 0)
(91.2678 0 0)
(91.3105 0 0)
(91.3532 0 0)
(91.396 0 0)
(91.4387 0 0)
(91.4814 0 0)
(91.5242 0 0)
(91.5669 0 0)
(91.6096 0 0)
(91.6524 0 0)
(91.6951 0 0)
(91.7378 0 0)
(91.7806 0 0)
(91.8233 0 0)
(91.8661 0 0)
(91.9088 0 0)
(91.9515 0 0)
(91.9943 0 0)
(92.037 0 0)
(92.0797 0 0)
(92.1225 0 0)
(92.1652 0 0)
(92.2079 0 0)
(92.2507 0 0)
(92.2934 0 0)
(92.3362 0 0)
(92.3789 0 0)
(92.4216 0 0)
(92.4644 0 0)
(92.5071 0 0)
(92.5499 0 0)
(92.5926 0 0)
(92.6353 0 0)
(92.6781 0 0)
(92.7208 0 0)
(92.7635 0 0)
(92.8063 0 0)
(92.849 0 0)
(92.8918 0 0)
(92.9345 0 0)
(92.9772 0 0)
(93.02 0 0)
(93.0627 0 0)
(93.1055 0 0)
(93.1482 0 0)
(93.1909 0 0)
(93.2337 0 0)
(93.2764 0 0)
(93.3192 0 0)
(93.3619 0 0)
(93.4047 0 0)
(93.4474 0 0)
(93.4901 0 0)
(93.5329 0 0)
(93.5756 0 0)
(93.6184 0 0)
(93.6611 0 0)
(93.7038 0 0)
(93.7466 0 0)
(93.7893 0 0)
(93.8321 0 0)
(93.8748 0 0)
(93.9176 0 0)
(93.9603 0 0)
(94.003 0 0)
(94.0458 0 0)
(94.0885 0 0)
(94.1313 0 0)
(94.174 0 0)
(94.2168 0 0)