/*--------------------------------*- C++ -*----------------------------------*\
  =========                 |
  \\      /  F ield         | OpenFOAM: The Open Source CFD Toolbox
   \\    /   O peration     | Website:  https://openfoam.org
    \\  /    A nd           | Version:  9
     \\/     M anipulation  |
\*---------------------------------------------------------------------------*/
FoamFile
{
    format      ascii;
    class       volScalarField;
    location    "0.005";
    object      ddt0(rho,e);
}
// * * * * * * * * * * * * * * * * * * * * * * * * * * * * * * * * * * * * * //

dimensions      [1 -1 -3 0 0 0 0];

internalField   nonuniform List<scalar> 
100
(
-3.73375e-07
2.2636e-06
1.4448e-07
-2.52266e-09
8.84894e-08
-2.54319e-06
-8.11952e-06
-4.35654e-05
-0.000215743
-0.00100823
-0.00455913
-0.0200005
-0.0850488
-0.349606
-1.38906
-5.32073
-19.638
-69.6542
-237.137
-772.679
-2404.67
-7123.01
-20015
-53087.1
-132081
-305382
-646899
-1.23598e+06
-1.97027e+06
-2.68399e+06
-3.25948e+06
-3.51447e+06
-3.4088e+06
-3.02293e+06
-2.48685e+06
-1.91273e+06
-1.36147e+06
-888235
-415121
-262839
452309
-13763.7
257562
1.62118e+06
-489567
-70312.3
2.16588e+06
879278
-1.54695e+06
-1.09952e+06
1.85931e+06
1.80032e+06
-669125
-1.7549e+06
-1.8402e+06
-365448
936433
387521
53426.1
-406467
-2.15906e+06
-7.78107e+06
-2.46401e+07
-4.35501e+07
-2.74499e+07
-1.60862e+07
-8.94799e+06
-4.68865e+06
-886189
-1.06044e+06
-631724
989629
584816
831303
4.35466e+06
2.83306e+06
3.39398e+06
7.42001e+06
2.93369e+07
1.13742e+06
-271816
-51804.4
-7434.74
-1031.16
-142.346
-19.6061
-2.69995
-0.371314
-0.0509142
-0.00695381
-0.000944184
-0.000128086
-1.69312e-05
-1.63566e-06
-9.58517e-07
2.01313e-07
8.31536e-09
7.16341e-08
-1.86261e-07
-3.38379e-08
)
;

boundaryField
{
    sides
    {
        type            calculated;
        value           nonuniform List<scalar> 2(-3.38379e-08 -3.73375e-07);
    }
    empty
    {
        type            empty;
    }
}


// ************************************************************************* //
