/*--------------------------------*- C++ -*----------------------------------*\
  =========                 |
  \\      /  F ield         | OpenFOAM: The Open Source CFD Toolbox
   \\    /   O peration     | Website:  https://openfoam.org
    \\  /    A nd           | Version:  9
     \\/     M anipulation  |
\*---------------------------------------------------------------------------*/
FoamFile
{
    format      ascii;
    class       volVectorField;
    location    "0.005";
    object      ddt0(rho,U);
}
// * * * * * * * * * * * * * * * * * * * * * * * * * * * * * * * * * * * * * //

dimensions      [1 -2 -2 0 0 0 0];

internalField   nonuniform List<vector> 
100
(
(3.34694e-09 0 0)
(7.27596e-10 0 0)
(-3.34694e-09 0 0)
(-1.89175e-09 0 0)
(5.82077e-09 0 0)
(1.61526e-08 0 0)
(6.8103e-08 0 0)
(3.56231e-07 0 0)
(1.6953e-06 0 0)
(7.8915e-06 0 0)
(3.56669e-05 0 0)
(0.000156341 0 0)
(0.000663114 0 0)
(0.00272252 0 0)
(0.0107889 0 0)
(0.0412662 0 0)
(0.151911 0 0)
(0.537876 0 0)
(1.82636 0 0)
(5.93868 0 0)
(18.4313 0 0)
(54.4626 0 0)
(152.582 0 0)
(403.497 0 0)
(1000.51 0 0)
(2305.24 0 0)
(4871.39 0 0)
(9168.84 0 0)
(14743.9 0 0)
(20722.3 0 0)
(26129.8 0 0)
(29745.4 0 0)
(30983.1 0 0)
(30091.6 0 0)
(27806 0 0)
(24828.6 0 0)
(21642.1 0 0)
(18519.6 0 0)
(15596 0 0)
(12994 0 0)
(10390.4 0 0)
(8766.71 0 0)
(6649.4 0 0)
(4516.86 0 0)
(4689.39 0 0)
(3195.72 0 0)
(758.584 0 0)
(1145.49 0 0)
(2503.52 0 0)
(1879.24 0 0)
(-1405.9 0 0)
(-1419.9 0 0)
(616.558 0 0)
(1382.06 0 0)
(2677.1 0 0)
(-77.2427 0 0)
(-1253.4 0 0)
(-319.266 0 0)
(-511.319 0 0)
(-200.029 0 0)
(1493 0 0)
(7093.47 0 0)
(23231 0 0)
(44197.5 0 0)
(28648.9 0 0)
(16070.8 0 0)
(8352.61 0 0)
(4576.49 0 0)
(6760.19 0 0)
(849.199 0 0)
(-97.4746 0 0)
(3656.52 0 0)
(-1902.28 0 0)
(58.6349 0 0)
(14695 0 0)
(14744.6 0 0)
(28591 0 0)
(102261 0 0)
(197338 0 0)
(55187.7 0 0)
(7200.03 0 0)
(1007.8 0 0)
(139.353 0 0)
(19.2402 0 0)
(2.65044 0 0)
(0.365358 0 0)
(0.0503066 0 0)
(0.00691732 0 0)
(0.000949003 0 0)
(0.000129609 0 0)
(1.76082e-05 0 0)
(2.37429e-06 0 0)
(3.17796e-07 0 0)
(4.13456e-08 0 0)
(5.2205e-09 0 0)
(9.64064e-10 0 0)
(5.82077e-10 0 0)
(8.54925e-10 0 0)
(9.09495e-10 0 0)
(6.00267e-10 0 0)
)
;

boundaryField
{
    sides
    {
        type            calculated;
        value           nonuniform List<vector> 2((6.00267e-10 0 0) (3.34694e-09 0 0));
    }
    empty
    {
        type            empty;
    }
}


// ************************************************************************* //
