/*--------------------------------*- C++ -*----------------------------------*\
  =========                 |
  \\      /  F ield         | OpenFOAM: The Open Source CFD Toolbox
   \\    /   O peration     | Website:  https://openfoam.org
    \\  /    A nd           | Version:  9
     \\/     M anipulation  |
\*---------------------------------------------------------------------------*/
FoamFile
{
    format      ascii;
    class       surfaceScalarField;
    location    "0.005";
    object      ddtCorrDdt0(phi);
}
// * * * * * * * * * * * * * * * * * * * * * * * * * * * * * * * * * * * * * //

dimensions      [1 0 -2 0 0 0 0];

internalField   nonuniform List<scalar> 
99
(
4.45082e-09
-1.14649e-09
-1.29017e-08
6.73725e-09
4.82396e-08
1.44025e-07
7.57472e-07
3.65099e-06
1.71367e-05
7.81342e-05
0.000345629
0.00148062
0.00613997
0.0246005
0.0951522
0.354596
1.27155
4.37788
14.4451
45.5585
136.979
391.29
1057.71
2691.69
6404.73
14113.4
28382.4
51370
74715.7
98887
117435
126595
125976
118103
106240
92857.8
79435.6
66711.7
55203.8
44470.7
35637.7
28215
19289
15510.3
13088.6
4981.45
1137.15
5067.53
6782.74
-1043.07
-7541.72
-1960.33
2958.76
7795.61
6646.71
-4620.64
-1909.37
-979.783
1413.36
-1361.56
20221.6
59508.2
147063
145038
84250.6
22698.6
-46.6207
75700.4
3700.97
-59178.1
40214.1
-19187.2
-105982
208233
31849.7
5066.98
116599
594620
395650
100201
14065.7
1951.07
269.965
37.259
5.13255
0.70731
0.0973714
0.0133828
0.00183435
0.000250237
3.394e-05
4.5684e-06
6.08774e-07
7.86913e-08
1.01439e-08
2.59005e-09
3.05849e-09
2.92842e-09
3.25496e-09
)
;

boundaryField
{
    sides
    {
        type            calculated;
        value           nonuniform List<scalar> 2(2.33129e-09 -1.37044e-08);
    }
    empty
    {
        type            empty;
        value           nonuniform List<scalar> 0();
    }
}


// ************************************************************************* //
