/*--------------------------------*- C++ -*----------------------------------*\
  =========                 |
  \\      /  F ield         | OpenFOAM: The Open Source CFD Toolbox
   \\    /   O peration     | Website:  https://openfoam.org
    \\  /    A nd           | Version:  9
     \\/     M anipulation  |
\*---------------------------------------------------------------------------*/
FoamFile
{
    format      ascii;
    class       volScalarField;
    location    "0.005";
    object      mag(U);
}
// * * * * * * * * * * * * * * * * * * * * * * * * * * * * * * * * * * * * * //

dimensions      [0 1 -1 0 0 0 0];

internalField   nonuniform List<scalar> 
100
(
3.50863e-13
1.9319e-12
3.03569e-12
1.27977e-12
6.92359e-13
1.19647e-12
1.13874e-11
4.61999e-11
2.28788e-10
1.08445e-09
5.03951e-09
2.27754e-08
9.96387e-08
4.22621e-07
1.73263e-06
6.86964e-06
2.62612e-05
9.6795e-05
0.00034295
0.00116726
0.00380443
0.0118563
0.0352047
0.0993233
0.265015
0.665342
1.55984
3.37797
6.60403
11.6183
18.6574
27.7167
38.4996
50.5592
63.4636
76.8704
90.5806
104.421
118.356
132.203
146.087
159.709
173.191
186.462
199.299
211.82
223.836
235.18
245.897
255.703
264.484
272.312
278.958
284.501
288.521
291.061
292.855
293.77
294.162
294.639
295.145
295.576
295.826
295.453
294.318
292.978
291.845
291.09
290.46
289.827
289.279
288.498
287.475
286.328
284.302
279.993
270.554
241.963
154.329
39.4372
5.80433
0.819622
0.113454
0.015661
0.00215691
0.00029707
4.0861e-05
5.60496e-06
7.66183e-07
1.04116e-07
1.40544e-08
1.88143e-09
2.49939e-10
3.24527e-11
8.00414e-12
2.45865e-12
3.35923e-12
5.31378e-12
4.69466e-12
7.17819e-12
)
;

boundaryField
{
    sides
    {
        type            calculated;
        value           nonuniform List<scalar> 2(7.17819e-12 3.50863e-13);
    }
    empty
    {
        type            empty;
    }
}


// ************************************************************************* //
