/*--------------------------------*- C++ -*----------------------------------*\
  =========                 |
  \\      /  F ield         | OpenFOAM: The Open Source CFD Toolbox
   \\    /   O peration     | Website:  https://openfoam.org
    \\  /    A nd           | Version:  9
     \\/     M anipulation  |
\*---------------------------------------------------------------------------*/
FoamFile
{
    format      ascii;
    class       volScalarField;
    location    "0.041";
    object      mag(U);
}
// * * * * * * * * * * * * * * * * * * * * * * * * * * * * * * * * * * * * * //

dimensions      [0 1 -1 0 0 0 0];

internalField   nonuniform List<scalar> 
100
(
49.0578
51.2142
54.5773
57.5012
59.9316
62.3101
64.7378
67.1715
69.5962
72.0174
74.4297
76.8307
79.2259
81.6148
83.9898
86.3498
88.7022
91.0415
93.3573
95.6481
97.9221
100.188
102.439
104.662
106.856
109.036
111.202
113.35
115.473
117.58
119.69
121.806
123.919
126.007
128.032
129.937
131.695
133.364
134.999
136.608
138.192
139.75
141.271
142.753
144.197
145.601
146.97
148.309
149.614
150.885
152.128
153.35
154.55
155.732
156.902
158.062
159.208
160.343
161.469
162.59
163.708
164.822
165.932
167.033
168.125
169.213
170.301
171.393
172.481
173.564
174.643
175.725
176.814
177.915
179.027
180.147
181.274
182.406
183.548
184.703
185.878
187.064
188.252
189.437
190.621
191.791
192.937
194.052
195.13
196.151
197.103
197.987
198.813
199.591
200.347
201.111
201.916
202.785
203.717
205.852
)
;

boundaryField
{
    sides
    {
        type            calculated;
        value           nonuniform List<scalar> 2(205.852 49.0578);
    }
    empty
    {
        type            empty;
    }
}


// ************************************************************************* //
