/*--------------------------------*- C++ -*----------------------------------*\
  =========                 |
  \\      /  F ield         | OpenFOAM: The Open Source CFD Toolbox
   \\    /   O peration     | Website:  https://openfoam.org
    \\  /    A nd           | Version:  9
     \\/     M anipulation  |
\*---------------------------------------------------------------------------*/
FoamFile
{
    format      ascii;
    class       volScalarField;
    location    "0.004";
    object      ddt0(rho,e);
}
// * * * * * * * * * * * * * * * * * * * * * * * * * * * * * * * * * * * * * //

dimensions      [1 -1 -3 0 0 0 0];

internalField   nonuniform List<scalar> 
100
(
4.18108e-10
4.61103e-08
1.57102e-06
1.14453e-13
3.40095e-16
-2.74537e-06
-2.57009e-12
2.80953e-06
-6.30362e-09
-2.38027e-06
2.38576e-07
-5.38451e-06
-3.10436e-05
-0.0001564
-0.00081232
-0.0040962
-0.0200053
-0.0940319
-0.426844
-1.85901
-7.78923
-31.2113
-119.758
-437.588
-1522.12
-5012.86
-15591.8
-45512.2
-123894
-311130
-708422
-1.42067e+06
-2.33666e+06
-3.25246e+06
-3.91995e+06
-4.08322e+06
-3.72288e+06
-3.02663e+06
-2.20446e+06
-1.4402e+06
-684965
-432329
645915
99227.5
44504.9
2.28794e+06
-9807.89
-1.37713e+06
1.70138e+06
2.57348e+06
-732309
-2.62058e+06
-1.81401e+06
1.92018e+06
1.09483e+06
-263361
-619759
-2.01497e+06
-6.58463e+06
-2.05399e+07
-4.55873e+07
-3.06328e+07
-1.66989e+07
-8.68379e+06
-4.15915e+06
-2.04994e+06
-1.12819e+06
1.95628e+06
1.35037e+06
2.01813e+06
4.17053e+06
7.61462e+06
2.82214e+07
5.46403e+06
-329887
-111900
-17155.7
-2409.7
-333.071
-45.7738
-6.2228
-0.836902
-0.110979
-0.0145196
-0.00187221
-0.000238668
-2.89982e-05
-3.90524e-06
-3.89695e-07
1.03682e-07
-8.15705e-26
-2.54956e-25
-2.36188e-16
5.27548e-13
-6.43097e-12
1.06621e-13
-1.62017e-09
8.12384e-12
8.31834e-12
-4.66454e-08
)
;

boundaryField
{
    sides
    {
        type            calculated;
        value           nonuniform List<scalar> 2(-4.66454e-08 4.18108e-10);
    }
    empty
    {
        type            empty;
    }
}


// ************************************************************************* //
