/*--------------------------------*- C++ -*----------------------------------*\
  =========                 |
  \\      /  F ield         | OpenFOAM: The Open Source CFD Toolbox
   \\    /   O peration     | Website:  https://openfoam.org
    \\  /    A nd           | Version:  9
     \\/     M anipulation  |
\*---------------------------------------------------------------------------*/
FoamFile
{
    format      ascii;
    class       surfaceScalarField;
    location    "0.004";
    object      ddtCorrDdt0(phi);
}
// * * * * * * * * * * * * * * * * * * * * * * * * * * * * * * * * * * * * * //

dimensions      [1 0 -2 0 0 0 0];

internalField   nonuniform List<scalar> 
99
(
-6.4116e-09
1.60764e-09
-8.08105e-09
-3.2209e-09
6.40675e-10
4.20829e-09
4.08324e-09
9.04007e-09
6.92523e-10
1.02656e-08
7.97598e-08
4.88174e-07
2.57438e-06
1.34449e-05
6.85405e-05
0.000336863
0.00160002
0.00731384
0.0322102
0.136123
0.552092
2.14087
7.92936
27.945
93.494
295.677
880.254
2452.48
6345.89
15082
32313.1
60206.9
91194.7
122177
143842
150804
143888
128093
108781
89194.2
71144.6
54602.5
41248.1
30923
19395.7
11155.9
11509.1
5956.47
-4955.53
-2426.42
5110.21
9908.32
-1279.12
-7792.62
-3171.66
199.362
3972.08
18766.7
57289.1
121335
137433
106572
54259.1
16645.7
21759.3
-39209
142829
13884.4
-5059.04
-4348.55
37843.4
115798
613112
180292
31285.2
4533.14
628.763
87.0303
12.0239
1.64738
0.223706
0.0299933
0.0039698
0.000517836
6.66153e-05
8.44894e-06
1.05643e-06
1.30401e-07
1.56925e-08
1.2948e-09
2.66492e-10
2.23154e-10
2.97025e-15
3.66415e-10
2.52564e-10
4.23377e-10
1.02181e-09
8.10527e-11
6.4718e-10
)
;

boundaryField
{
    sides
    {
        type            calculated;
        value           nonuniform List<scalar> 2(1.39637e-09 2.7934e-09);
    }
    empty
    {
        type            empty;
        value           nonuniform List<scalar> 0();
    }
}


// ************************************************************************* //
