/*--------------------------------*- C++ -*----------------------------------*\
  =========                 |
  \\      /  F ield         | OpenFOAM: The Open Source CFD Toolbox
   \\    /   O peration     | Website:  https://openfoam.org
    \\  /    A nd           | Version:  9
     \\/     M anipulation  |
\*---------------------------------------------------------------------------*/
FoamFile
{
    format      ascii;
    class       volScalarField;
    location    "0.023";
    object      rho;
}
// * * * * * * * * * * * * * * * * * * * * * * * * * * * * * * * * * * * * * //

dimensions      [1 -3 0 0 0 0 0];

internalField   nonuniform List<scalar> 
10000
(
0.702007
0.701892
0.701822
0.701746
0.701672
0.701597
0.701522
0.701448
0.701373
0.701299
0.701225
0.701151
0.701077
0.701003
0.700929
0.700854
0.70078
0.700705
0.700631
0.700556
0.700481
0.700406
0.700332
0.700257
0.700183
0.700109
0.700035
0.699961
0.699887
0.699813
0.699739
0.699664
0.69959
0.699515
0.699441
0.699367
0.699292
0.699218
0.699144
0.699069
0.698995
0.69892
0.698846
0.698771
0.698697
0.698622
0.698548
0.698474
0.6984
0.698326
0.698251
0.698177
0.698102
0.698028
0.697954
0.697879
0.697805
0.697731
0.697656
0.697582
0.697508
0.697434
0.697359
0.697285
0.697211
0.697137
0.697062
0.696988
0.696914
0.696839
0.696765
0.69669
0.696615
0.696541
0.696466
0.696392
0.696318
0.696244
0.69617
0.696097
0.696023
0.69595
0.695876
0.695803
0.695729
0.695655
0.69558
0.695506
0.695432
0.695358
0.695284
0.695209
0.695135
0.695061
0.694986
0.694912
0.694838
0.694765
0.694691
0.694617
0.694543
0.694469
0.694395
0.69432
0.694246
0.694172
0.694097
0.694023
0.693949
0.693875
0.693801
0.693727
0.693653
0.693578
0.693504
0.69343
0.693357
0.693283
0.693209
0.693135
0.69306
0.692986
0.692912
0.692839
0.692765
0.692691
0.692617
0.692543
0.692469
0.692395
0.692322
0.692248
0.692174
0.6921
0.692025
0.69195
0.691877
0.691804
0.691732
0.691659
0.691585
0.69151
0.691435
0.691361
0.691287
0.691215
0.691142
0.691069
0.690995
0.690921
0.690846
0.690773
0.690699
0.690626
0.690552
0.690479
0.690405
0.690331
0.690257
0.690183
0.69011
0.690037
0.689965
0.689893
0.689819
0.689745
0.689669
0.689594
0.689519
0.689446
0.689375
0.689304
0.689233
0.68916
0.689084
0.689009
0.688933
0.688859
0.688786
0.688714
0.688641
0.688568
0.688493
0.688419
0.688344
0.688271
0.688199
0.688128
0.688057
0.687986
0.687912
0.687835
0.687758
0.687681
0.687606
0.687534
0.687464
0.687396
0.687325
0.687252
0.687175
0.687097
0.68702
0.686947
0.686876
0.686808
0.686737
0.686662
0.686584
0.686506
0.686432
0.686362
0.686295
0.686227
0.686154
0.686076
0.685997
0.685919
0.685844
0.685774
0.685704
0.685632
0.685558
0.685483
0.68541
0.68534
0.685272
0.685202
0.685127
0.685048
0.684966
0.684886
0.684812
0.684747
0.684692
0.684636
0.68456
0.684472
0.68438
0.68429
0.684209
0.684148
0.684131
0.684092
0.683997
0.683892
0.683789
0.683689
0.683601
0.683535
0.683535
0.683525
0.683435
0.683324
0.683207
0.683104
0.683011
0.682936
0.682928
0.682941
0.682867
0.682757
0.68263
0.682519
0.682421
0.68234
0.68231
0.682342
0.682305
0.682203
0.682078
0.681947
0.681842
0.681747
0.681671
0.681659
0.681689
0.681632
0.681527
0.681406
0.681299
0.681201
0.681117
0.681063
0.681016
0.680951
0.680887
0.680854
0.680816
0.680723
0.680614
0.680503
0.680405
0.680324
0.680301
0.680305
0.680223
0.680109
0.679982
0.679878
0.679793
0.679758
0.679787
0.679743
0.679639
0.679507
0.679381
0.679281
0.679199
0.679171
0.67919
0.679133
0.679033
0.678938
0.678874
0.678826
0.678733
0.678622
0.678502
0.678404
0.678326
0.678315
0.678352
0.678299
0.678191
0.678049
0.677911
0.677811
0.67773
0.677712
0.677756
0.677718
0.677615
0.677481
0.677339
0.677236
0.677152
0.67712
0.677159
0.677132
0.677032
0.676903
0.676768
0.676666
0.676584
0.67656
0.676599
0.676559
0.676456
0.676322
0.676188
0.676089
0.676009
0.675991
0.676029
0.675984
0.675878
0.67574
0.675601
0.6755
0.675418
0.675394
0.675437
0.675405
0.675304
0.67517
0.675021
0.674914
0.674828
0.674788
0.674831
0.674838
0.67475
0.674629
0.674462
0.67432
0.674219
0.674137
0.674115
0.674183
0.674233
0.674167
0.674056
0.673904
0.67373
0.673611
0.673515
0.673436
0.673417
0.673473
0.673471
0.673379
0.673256
0.67309
0.672955
0.672858
0.672779
0.672767
0.67284
0.672866
0.672785
0.672669
0.672507
0.672346
0.672238
0.672149
0.672086
0.672106
0.672151
0.672093
0.671986
0.671843
0.671701
0.671599
0.671517
0.671488
0.671532
0.671511
0.671413
0.671283
0.671122
0.671005
0.670916
0.670859
0.670892
0.670953
0.670903
0.670797
0.670652
0.670466
0.670334
0.670237
0.670155
0.670127
0.670195
0.670271
0.670222
0.670116
0.669973
0.66978
0.669641
0.669542
0.66946
0.66943
0.669484
0.669504
0.669423
0.669308
0.669153
0.669017
0.668921
0.668842
0.668829
0.668885
0.668867
0.66877
0.668641
0.668465
0.668328
0.668231
0.668151
0.668132
0.668209
0.668273
0.668213
0.668103
0.667951
0.667742
0.667595
0.667495
0.667411
0.66737
0.667429
0.667535
0.667517
0.66742
0.667291
0.6671
0.666925
0.666814
0.666725
0.666657
0.666669
0.666746
0.666733
0.666639
0.666516
0.666355
0.66623
0.666136
0.666059
0.666047
0.666084
0.666037
0.665934
0.665804
0.66568
0.665586
0.665509
0.6655
0.665512
0.665435
0.665324
0.665187
0.665075
0.664988
0.664934
0.664963
0.664976
0.664894
0.664778
0.664623
0.664493
0.664399
0.664324
0.66432
0.664375
0.664342
0.664244
0.664115
0.663966
0.663857
0.66377
0.663711
0.663731
0.663739
0.663657
0.663545
0.663421
0.663321
0.66324
0.663211
0.66325
0.663219
0.66312
0.662993
0.66283
0.662702
0.662604
0.662516
0.662448
0.662455
0.662525
0.66251
0.662416
0.662294
0.662133
0.662006
0.661912
0.661835
0.66182
0.661867
0.661835
0.661737
0.661609
0.661467
0.661363
0.661279
0.661234
0.66127
0.661271
0.661183
0.661067
0.660925
0.660815
0.660728
0.66067
0.660694
0.660704
0.660622
0.660508
0.660354
0.660225
0.660133
0.660059
0.660056
0.660109
0.660072
0.659972
0.65984
0.659684
0.659574
0.659487
0.65943
0.659457
0.659491
0.659424
0.659316
0.659171
0.65903
0.658932
0.658851
0.658821
0.658868
0.658862
0.658771
0.658653
0.658501
0.658384
0.658295
0.658228
0.658238
0.658283
0.65823
0.658128
0.657992
0.657851
0.657749
0.657665
0.657614
0.657641
0.657629
0.65754
0.657427
0.657306
0.65721
0.657129
0.657104
0.657093
0.657009
0.656901
0.656789
0.656699
0.65663
0.656634
0.656654
0.656581
0.656471
0.656322
0.656188
0.656095
0.65602
0.656015
0.656084
0.656078
0.655987
0.655866
0.65569
0.655541
0.655441
0.65536
0.655323
0.655373
0.655412
0.655344
0.655237
0.655093
0.654946
0.654843
0.654759
0.654704
0.654727
0.65473
0.654647
0.654536
0.654406
0.654302
0.654218
0.654166
0.654189
0.654165
0.654072
0.653952
0.65382
0.653721
0.65364
0.653604
0.653639
0.653611
0.653515
0.65339
0.653247
0.653143
0.653062
0.653025
0.653075
0.653103
0.653028
0.652915
0.652746
0.65255
0.652432
0.652345
0.652282
0.65231
0.652449
0.652519
0.652459
0.652352
0.652201
0.651963
0.65177
0.65166
0.651572
0.651502
0.651507
0.651603
0.651645
0.651574
0.651466
0.651315
0.651137
0.651022
0.650933
0.650863
0.650865
0.650935
0.650922
0.650831
0.650712
0.650549
0.650418
0.650323
0.650244
0.650215
0.650261
0.650257
0.65017
0.650057
0.649917
0.649806
0.649718
0.64965
0.64965
0.649653
0.649573
0.649465
0.649343
0.649245
0.649165
0.64913
0.649166
0.649139
0.649045
0.648922
0.64878
0.648676
0.648594
0.64855
0.64859
0.648612
0.648535
0.648423
0.648257
0.648067
0.64795
0.647862
0.647794
0.647806
0.647907
0.647941
0.647867
0.647759
0.647605
0.647426
0.647311
0.647221
0.647147
0.647135
0.647196
0.647187
0.647099
0.646985
0.646837
0.64672
0.64663
0.646557
0.646546
0.646582
0.646533
0.646435
0.646309
0.646185
0.646091
0.646013
0.645986
0.646023
0.645987
0.645892
0.645769
0.645628
0.645525
0.645441
0.645383
0.645402
0.645413
0.645335
0.64523
0.6451
0.644993
0.644907
0.644839
0.64484
0.644821
0.644733
0.644627
0.644522
0.644436
0.64437
0.644371
0.644336
0.644244
0.644131
0.644023
0.643936
0.643869
0.643875
0.643888
0.643813
0.643707
0.643567
0.643447
0.643357
0.643284
0.643271
0.643316
0.64328
0.643186
0.643066
0.642932
0.642831
0.642748
0.642689
0.6427
0.64267
0.642579
0.642469
0.642364
0.642279
0.642214
0.642219
0.6422
0.642111
0.641997
0.641869
0.641771
0.64169
0.641645
0.641675
0.641665
0.641579
0.64147
0.64135
0.641256
0.641178
0.641149
0.641179
0.641135
0.641037
0.640904
0.640736
0.64062
0.640535
0.640472
0.640491
0.640579
0.640573
0.640485
0.640369
0.640196
0.640031
0.639927
0.639844
0.639783
0.639802
0.639874
0.639845
0.639753
0.639633
0.639472
0.639348
0.639257
0.639181
0.639154
0.639201
0.639192
0.639105
0.638994
0.638856
0.638749
0.638665
0.638604
0.638619
0.638653
0.638591
0.638488
0.638347
0.638193
0.63809
0.638007
0.637953
0.637981
0.638036
0.637986
0.637888
0.637756
0.637596
0.637486
0.6374
0.637334
0.637342
0.637399
0.637362
0.637268
0.637142
0.636975
0.636854
0.636766
0.636695
0.636691
0.636768
0.636775
0.636692
0.636581
0.636417
0.636246
0.636139
0.636055
0.635992
0.636006
0.636088
0.636077
0.63599
0.635876
0.635711
0.63556
0.635461
0.635379
0.63532
0.635338
0.635392
0.635347
0.635251
0.635129
0.63499
0.634888
0.634804
0.634739
0.634743
0.63476
0.634691
0.634591
0.634474
0.634374
0.634292
0.634233
0.634234
0.634183
0.634088
0.633969
0.633857
0.633769
0.633698
0.633691
0.633733
0.633689
0.633593
0.633467
0.633316
0.63321
0.633126
0.633065
0.633081
0.633139
0.633097
0.633003
0.632879
0.632722
0.632609
0.632523
0.632452
0.632441
0.632489
0.632456
0.632364
0.632244
0.63209
0.631977
0.63189
0.631821
0.631816
0.631874
0.631849
0.631759
0.631642
0.631482
0.631357
0.631267
0.631192
0.631166
0.631221
0.631235
0.631158
0.631054
0.630911
0.63078
0.630686
0.630608
0.630564
0.630598
0.630601
0.630521
0.630414
0.630267
0.63014
0.630049
0.629974
0.629948
0.630002
0.630013
0.629934
0.629828
0.629676
0.629524
0.629424
0.629343
0.629287
0.629311
0.629369
0.629325
0.629231
0.629107
0.628948
0.628833
0.628746
0.628675
0.62866
0.628717
0.628705
0.628619
0.628507
0.62835
0.628217
0.628124
0.628047
0.628008
0.628055
0.628098
0.628038
0.62794
0.627809
0.627656
0.627549
0.627463
0.627391
0.62737
0.627408
0.627375
0.627285
0.627174
0.627054
0.626961
0.626881
0.626831
0.626837
0.626788
0.626696
0.626587
0.626488
0.626406
0.626343
0.626349
0.626336
0.626252
0.626146
0.626022
0.625924
0.625844
0.625789
0.62581
0.625816
0.62574
0.625637
0.6255
0.625382
0.625295
0.625223
0.625207
0.625261
0.625245
0.625159
0.625046
0.624884
0.624743
0.624649
0.624571
0.624524
0.624562
0.624619
0.62457
0.624475
0.62435
0.624185
0.624064
0.623976
0.6239
0.623864
0.623909
0.623931
0.623861
0.623761
0.623628
0.623493
0.623398
0.623316
0.623253
0.623257
0.623285
0.623228
0.623135
0.62303
0.622935
0.622849
0.622775
0.622722
0.622653
0.622566
0.622479
0.622399
0.62234
0.622344
0.622316
0.62223
0.622125
0.622016
0.621928
0.621853
0.621822
0.621843
0.621792
0.621699
0.62158
0.62146
0.62137
0.621294
0.621256
0.62129
0.621277
0.621193
0.621086
0.620945
0.620831
0.620745
0.620673
0.620653
0.620699
0.620676
0.620589
0.620477
0.620328
0.620211
0.620124
0.620051
0.620025
0.620074
0.620071
0.61999
0.619886
0.619741
0.619613
0.619522
0.619445
0.619401
0.619436
0.619457
0.619388
0.619289
0.619154
0.619017
0.618922
0.618844
0.618791
0.618815
0.618855
0.618797
0.618701
0.618573
0.618416
0.618308
0.618224
0.618154
0.618141
0.618202
0.6182
0.618119
0.618016
0.617873
0.617742
0.61765
0.617571
0.617513
0.617525
0.617542
0.617475
0.617379
0.617257
0.617147
0.617061
0.616988
0.616959
0.616985
0.616943
0.616852
0.616737
0.61661
0.616516
0.616437
0.616382
0.616401
0.616421
0.616353
0.616255
0.616125
0.615996
0.615904
0.615826
0.615773
0.615793
0.615806
0.615734
0.615635
0.615503
0.615379
0.615289
0.615214
0.615171
0.615207
0.615219
0.615146
0.615046
0.614906
0.614765
0.61467
0.614592
0.614535
0.614555
0.614615
0.614576
0.614486
0.61437
0.614207
0.614076
0.613986
0.613908
0.613853
0.613876
0.613951
0.613927
0.613843
0.613738
0.613596
0.613464
0.613369
0.613283
0.613198
0.61312
0.613059
0.61306
0.61311
0.613075
0.612988
0.612877
0.612733
0.612621
0.612536
0.612463
0.612433
0.612482
0.612494
0.61242
0.612321
0.612183
0.612036
0.611938
0.611856
0.611788
0.611772
0.611817
0.611791
0.611706
0.611602
0.611486
0.611393
0.611315
0.611256
0.611259
0.611226
0.611141
0.611034
0.610915
0.610823
0.610747
0.610699
0.61073
0.610751
0.610682
0.610585
0.610447
0.610285
0.610181
0.610099
0.610031
0.610023
0.610095
0.610106
0.610032
0.609932
0.609789
0.609626
0.609521
0.609438
0.609367
0.609345
0.609402
0.609418
0.609346
0.609248
0.609114
0.608972
0.608875
0.608794
0.608728
0.608718
0.608759
0.608719
0.608632
0.608521
0.608391
0.608295
0.608217
0.608158
0.608173
0.608233
0.608197
0.608109
0.607995
0.607826
0.607674
0.607578
0.607497
0.607428
0.607411
0.607472
0.607486
0.607415
0.607321
0.607208
0.60711
0.607026
0.60695
0.606901
0.606849
0.606767
0.606678
0.606587
0.606503
0.60643
0.606389
0.60642
0.606414
0.606335
0.606235
0.606096
0.605969
0.605881
0.605805
0.605757
0.605786
0.60582
0.60576
0.605667
0.605544
0.605398
0.605297
0.605215
0.605148
0.605134
0.605185
0.605165
0.605082
0.604977
0.604829
0.604702
0.604613
0.604538
0.604489
0.604518
0.604567
0.604517
0.604427
0.604309
0.604147
0.604027
0.603941
0.603866
0.60382
0.603852
0.6039
0.603848
0.603759
0.603642
0.603494
0.603385
0.603301
0.603229
0.603191
0.603231
0.603257
0.603193
0.603102
0.602985
0.602865
0.602774
0.602692
0.602616
0.602561
0.602506
0.602429
0.602348
0.602274
0.602217
0.602226
0.602237
0.602169
0.602075
0.601949
0.601821
0.601732
0.601656
0.601607
0.601637
0.60169
0.601642
0.601552
0.601432
0.601252
0.601106
0.601014
0.600938
0.600881
0.600903
0.601005
0.601018
0.600944
0.600846
0.600701
0.600495
0.600357
0.600268
0.600191
0.600134
0.600152
0.600259
0.600287
0.600219
0.600124
0.59999
0.599791
0.599647
0.599556
0.599478
0.599417
0.599422
0.599525
0.599585
0.599531
0.599441
0.599322
0.599134
0.598942
0.598832
0.598746
0.598664
0.598592
0.598543
0.598574
0.598707
0.598765
0.598708
0.598618
0.598499
0.598307
0.598099
0.597984
0.597898
0.597819
0.597754
0.597739
0.597816
0.597892
0.597851
0.597766
0.597663
0.597531
0.597418
0.597331
0.597248
0.597166
0.597084
0.597001
0.596919
0.596842
0.596778
0.596764
0.596823
0.596826
0.596752
0.596656
0.59652
0.596362
0.596259
0.596177
0.596106
0.596071
0.596116
0.596149
0.596088
0.595998
0.595879
0.595734
0.595633
0.595551
0.59548
0.59544
0.595473
0.595476
0.595403
0.595311
0.595195
0.595093
0.595011
0.594941
0.594905
0.594926
0.594886
0.594801
0.594693
0.594559
0.594457
0.594376
0.594308
0.594282
0.594325
0.594315
0.594237
0.594141
0.59401
0.593893
0.593808
0.593734
0.593681
0.593698
0.59372
0.593658
0.593568
0.593451
0.593324
0.593233
0.593155
0.593091
0.593081
0.593111
0.593062
0.592975
0.592867
0.592741
0.592649
0.592572
0.592509
0.592503
0.59254
0.592496
0.592411
0.592301
0.592155
0.592044
0.591961
0.59189
0.591851
0.59189
0.591924
0.591865
0.591775
0.591656
0.591501
0.591391
0.591308
0.591236
0.59119
0.59122
0.59126
0.591207
0.59112
0.591007
0.590859
0.590748
0.590665
0.590592
0.59054
0.590558
0.590592
0.590538
0.590452
0.590343
0.590221
0.59013
0.590051
0.589983
0.589956
0.589964
0.589906
0.58982
0.589723
0.589637
0.589561
0.589504
0.589511
0.589515
0.589445
0.589351
0.589217
0.589038
0.588921
0.588837
0.588763
0.588707
0.588722
0.588825
0.588855
0.58879
0.5887
0.588578
0.588406
0.588278
0.588191
0.588115
0.588051
0.588039
0.588103
0.588111
0.58804
0.587948
0.587824
0.587685
0.58759
0.58751
0.58744
0.587398
0.587421
0.587402
0.587325
0.587231
0.587117
0.587025
0.586947
0.586881
0.586864
0.586893
0.586848
0.586763
0.586656
0.58652
0.586421
0.586342
0.586275
0.586256
0.586314
0.586322
0.58625
0.586155
0.586015
0.585811
0.585673
0.585586
0.585511
0.585454
0.585466
0.585588
0.585666
0.58562
0.585535
0.585425
0.585251
0.585053
0.584942
0.584859
0.584785
0.584729
0.584738
0.584824
0.58483
0.584758
0.584666
0.584537
0.58438
0.584277
0.584198
0.584129
0.584098
0.584157
0.584251
0.584224
0.584144
0.584042
0.583883
0.583642
0.58348
0.583386
0.583305
0.583229
0.583163
0.583137
0.583205
0.583351
0.583366
0.583298
0.583207
0.583084
0.582898
0.58275
0.582661
0.582583
0.582516
0.582487
0.582541
0.582582
0.582527
0.582439
0.582322
0.582136
0.581969
0.581873
0.581796
0.58173
0.581709
0.58179
0.581913
0.581899
0.581822
0.581725
0.581579
0.581358
0.581207
0.581117
0.58104
0.580974
0.580949
0.581018
0.58112
0.581095
0.581016
0.580918
0.580771
0.580581
0.580464
0.580381
0.580307
0.580248
0.58025
0.580335
0.580356
0.58029
0.580202
0.580083
0.579921
0.579805
0.579723
0.579648
0.579588
0.579582
0.579627
0.579595
0.579515
0.579416
0.57928
0.579165
0.579083
0.579011
0.578959
0.578977
0.579033
0.578994
0.578913
0.578809
0.578658
0.57852
0.578433
0.578359
0.578299
0.578301
0.5784
0.578453
0.578399
0.578313
0.5782
0.578012
0.577776
0.577646
0.577559
0.577481
0.577406
0.577344
0.577326
0.577408
0.577546
0.577545
0.577473
0.577382
0.577255
0.577061
0.576911
0.576821
0.576743
0.576675
0.576637
0.57668
0.576753
0.576719
0.576639
0.576538
0.576386
0.576213
0.57611
0.576031
0.575961
0.575915
0.575947
0.576062
0.576076
0.576009
0.57592
0.5758
0.575612
0.575447
0.575352
0.575272
0.575194
0.575122
0.575064
0.575059
0.575156
0.575253
0.575221
0.575142
0.575044
0.574896
0.574661
0.57449
0.574395
0.574316
0.574241
0.574176
0.574144
0.574203
0.574344
0.574363
0.574297
0.57421
0.574092
0.573904
0.573734
0.573637
0.573559
0.573489
0.573441
0.573466
0.573581
0.573609
0.573546
0.573461
0.573349
0.573186
0.573057
0.572971
0.572894
0.572821
0.572762
0.572702
0.572626
0.572546
0.572458
0.572369
0.572291
0.57222
0.572165
0.572178
0.572285
0.572325
0.572266
0.572181
0.572066
0.571878
0.571686
0.571582
0.571503
0.571433
0.571381
0.5714
0.571511
0.571543
0.571482
0.571396
0.571283
0.571107
0.57095
0.570858
0.570781
0.570714
0.570672
0.57071
0.570794
0.570771
0.570695
0.570601
0.570465
0.570298
0.570193
0.570113
0.570042
0.569985
0.569988
0.570057
0.570046
0.569973
0.569884
0.56976
0.569619
0.569527
0.56945
0.569382
0.569341
0.569374
0.569425
0.56938
0.5693
0.569201
0.569057
0.568911
0.568819
0.56874
0.568663
0.568587
0.568511
0.56844
0.568382
0.568374
0.568456
0.568514
0.568465
0.568384
0.568282
0.568124
0.567945
0.567841
0.567763
0.567691
0.567633
0.567633
0.567713
0.567732
0.567669
0.567584
0.567474
0.567325
0.567217
0.567138
0.567066
0.567008
0.567005
0.567034
0.566985
0.566903
0.566796
0.566628
0.566466
0.566373
0.566298
0.566235
0.566215
0.566302
0.566487
0.566522
0.566463
0.566378
0.566265
0.566072
0.565801
0.56565
0.565561
0.565485
0.565413
0.565353
0.56534
0.565424
0.565531
0.565509
0.565435
0.565347
0.565228
0.565095
0.565004
0.564927
0.564853
0.564787
0.564739
0.564683
0.564609
0.564532
0.564456
0.564381
0.564313
0.564264
0.564279
0.564308
0.564256
0.564175
0.564072
0.563924
0.563802
0.56372
0.563648
0.563587
0.563575
0.563639
0.563649
0.563583
0.563498
0.563384
0.563225
0.56311
0.56303
0.562958
0.562898
0.562884
0.562944
0.562949
0.562882
0.562797
0.562684
0.562536
0.562433
0.562356
0.562285
0.562228
0.562224
0.562278
0.562258
0.562184
0.562096
0.561979
0.561861
0.561778
0.561704
0.561639
0.561603
0.56162
0.561586
0.561511
0.561421
0.561311
0.561223
0.561148
0.561084
0.561055
0.561101
0.561121
0.56106
0.560977
0.560865
0.560687
0.560517
0.560421
0.560344
0.56027
0.560205
0.560162
0.560195
0.560309
0.560326
0.560262
0.560179
0.56007
0.559903
0.559757
0.55967
0.559595
0.559528
0.559481
0.559507
0.559605
0.559607
0.559539
0.559455
0.559342
0.559169
0.559021
0.558932
0.558856
0.558781
0.558706
0.558633
0.558567
0.55852
0.558542
0.558666
0.558722
0.558672
0.558592
0.558493
0.558334
0.558089
0.557927
0.557837
0.557762
0.55769
0.557628
0.5576
0.557663
0.557801
0.557812
0.557748
0.557665
0.557556
0.557383
0.557219
0.557126
0.55705
0.55698
0.556923
0.556915
0.556985
0.557
0.556937
0.556855
0.556748
0.556596
0.556479
0.556399
0.556326
0.556264
0.556236
0.556283
0.556303
0.556244
0.556163
0.55606
0.555918
0.555808
0.55573
0.555658
0.555597
0.555576
0.555619
0.555607
0.555537
0.555453
0.555339
0.555213
0.555126
0.555052
0.554986
0.554943
0.554966
0.554979
0.554918
0.554837
0.554733
0.554595
0.554494
0.554417
0.554348
0.554294
0.554295
0.554355
0.554335
0.554263
0.554177
0.554057
0.553912
0.553816
0.553741
0.553671
0.553614
0.553604
0.553659
0.553649
0.55358
0.553499
0.5534
0.553309
0.553234
0.553166
0.553112
0.553114
0.553124
0.553064
0.552984
0.552882
0.55273
0.552598
0.552513
0.552439
0.552365
0.552291
0.552218
0.552146
0.552078
0.552022
0.552015
0.5521
0.552166
0.552123
0.552047
0.551954
0.551812
0.551618
0.551498
0.551419
0.551348
0.551286
0.551258
0.551316
0.551406
0.551381
0.551308
0.551221
0.551094
0.550905
0.550774
0.550692
0.550619
0.550555
0.550515
0.550549
0.550639
0.550625
0.550555
0.550471
0.550355
0.550187
0.550065
0.549985
0.549913
0.549848
0.549805
0.54983
0.549888
0.549853
0.549779
0.549692
0.549573
0.54945
0.549367
0.549294
0.549227
0.549175
0.549177
0.549178
0.549115
0.549037
0.548939
0.548834
0.548755
0.548683
0.548622
0.548594
0.548624
0.548601
0.54853
0.548446
0.548329
0.548206
0.548123
0.548052
0.547989
0.547957
0.548003
0.548066
0.548029
0.547955
0.547867
0.547741
0.547583
0.547481
0.547404
0.547332
0.547259
0.547186
0.547114
0.547043
0.546978
0.546928
0.546935
0.547008
0.547005
0.546938
0.546858
0.546753
0.546605
0.54649
0.546411
0.546339
0.546273
0.546224
0.546233
0.546268
0.546224
0.54615
0.546064
0.545958
0.545869
0.545796
0.545726
0.545667
0.54564
0.545605
0.545536
0.545461
0.545378
0.545301
0.545229
0.545165
0.545125
0.545139
0.545115
0.545044
0.544961
0.544851
0.544737
0.544657
0.544586
0.544523
0.544485
0.544512
0.544521
0.54446
0.544383
0.544287
0.544173
0.544087
0.544014
0.543947
0.543892
0.543884
0.543881
0.54382
0.543744
0.543655
0.543568
0.543496
0.543429
0.543378
0.543381
0.543386
0.543325
0.543247
0.543147
0.543007
0.542898
0.542822
0.542752
0.542691
0.542661
0.542703
0.542735
0.542683
0.542608
0.542519
0.542396
0.542282
0.542202
0.542129
0.542058
0.541986
0.541916
0.541849
0.541793
0.54178
0.541866
0.542012
0.542014
0.54195
0.54187
0.541763
0.54158
0.541259
0.541038
0.540935
0.540859
0.540788
0.540717
0.540646
0.540581
0.540528
0.540525
0.540639
0.540865
0.540918
0.540869
0.540794
0.540704
0.540566
0.540335
0.540159
0.540068
0.539995
0.539926
0.539866
0.539837
0.539891
0.539975
0.539948
0.539878
0.539794
0.539674
0.539477
0.539318
0.53923
0.539158
0.539091
0.539038
0.539037
0.53914
0.539236
0.539206
0.539135
0.539053
0.538939
0.538766
0.538635
0.538554
0.538483
0.538414
0.538355
0.538329
0.538385
0.538484
0.538467
0.5384
0.538322
0.538223
0.538065
0.537818
0.537657
0.537569
0.537496
0.537425
0.537354
0.537285
0.537218
0.537163
0.537148
0.537235
0.537468
0.537562
0.537525
0.537453
0.537368
0.537245
0.537018
0.536718
0.536569
0.536484
0.536412
0.536342
0.536272
0.536206
0.536152
0.53614
0.536232
0.536396
0.536411
0.536351
0.536275
0.536178
0.536023
0.535813
0.535693
0.535616
0.535547
0.535485
0.535448
0.535488
0.535633
0.53568
0.535629
0.535555
0.53546
0.535307
0.535029
0.534806
0.534704
0.53463
0.534562
0.534503
0.534479
0.534548
0.534746
0.534818
0.534774
0.534702
0.534612
0.534473
0.534207
0.533924
0.533799
0.533721
0.533651
0.533589
0.533549
0.533584
0.533782
0.53402
0.534044
0.533987
0.533912
0.533816
0.53366
0.533373
0.533135
0.533028
0.532954
0.532885
0.532822
0.532779
0.532803
0.532953
0.533062
0.533033
0.532964
0.532883
0.532769
0.532573
0.532365
0.532261
0.532187
0.532117
0.532055
0.532008
0.532024
0.532122
0.532141
0.532083
0.532009
0.531914
0.531765
0.531574
0.531465
0.53139
0.531322
0.53126
0.531221
0.531255
0.531394
0.531443
0.531394
0.531321
0.531232
0.531097
0.53088
0.530728
0.530645
0.530575
0.530509
0.530455
0.530448
0.530541
0.530644
0.53062
0.530552
0.530472
0.530362
0.530174
0.529977
0.529876
0.529802
0.529734
0.529671
0.529623
0.529633
0.529717
0.529724
0.529664
0.529589
0.529495
0.52935
0.529208
0.529123
0.529054
0.528989
0.528937
0.528935
0.529031
0.529099
0.529059
0.528988
0.528904
0.52878
0.528574
0.528416
0.528331
0.528261
0.528196
0.528143
0.528138
0.52824
0.528368
0.528354
0.528289
0.528212
0.528108
0.527929
0.527672
0.527531
0.527449
0.52738
0.527312
0.527251
0.527207
0.527228
0.527371
0.527482
0.527455
0.527388
0.527309
0.5272
0.527009
0.526744
0.526605
0.526524
0.526455
0.526388
0.526329
0.526293
0.526334
0.526507
0.526612
0.526582
0.526515
0.526441
0.526349
0.526208
0.526023
0.525911
0.525835
0.525766
0.525697
0.525629
0.52556
0.525492
0.525424
0.525356
0.525293
0.525244
0.525242
0.525294
0.525274
0.525208
0.525131
0.525031
0.524896
0.524798
0.524727
0.524661
0.524604
0.524583
0.524647
0.524724
0.524692
0.524624
0.524543
0.524426
0.524217
0.523999
0.523894
0.523821
0.523753
0.523692
0.523648
0.523666
0.523804
0.523913
0.523886
0.52382
0.523745
0.523648
0.523504
0.523379
0.5233
0.523231
0.523164
0.5231
0.523047
0.523031
0.523008
0.522945
0.522873
0.52279
0.522685
0.522596
0.522525
0.522457
0.522389
0.522321
0.522254
0.522186
0.522119
0.522054
0.521997
0.52196
0.521991
0.5221
0.522114
0.522057
0.521985
0.521895
0.521755
0.521514
0.521335
0.521246
0.521177
0.521112
0.521057
0.521041
0.521124
0.521315
0.521357
0.521308
0.521238
0.521153
0.521027
0.520802
0.520596
0.520497
0.520425
0.520358
0.520293
0.520238
0.520217
0.520276
0.520339
0.520302
0.520235
0.520159
0.520062
0.519954
0.519876
0.519809
0.519744
0.519691
0.519676
0.519707
0.519675
0.519608
0.51953
0.519423
0.519268
0.519156
0.519082
0.519016
0.518953
0.518905
0.518908
0.51897
0.518957
0.518895
0.518823
0.518735
0.518639
0.518565
0.518498
0.518437
0.518392
0.518404
0.51843
0.518383
0.518313
0.518227
0.518094
0.517871
0.517711
0.517627
0.517559
0.517496
0.517444
0.51744
0.51754
0.517653
0.517633
0.517568
0.517494
0.517394
0.517224
0.517021
0.516915
0.516843
0.516777
0.516717
0.516678
0.516709
0.516858
0.516933
0.516895
0.516827
0.516748
0.516636
0.516437
0.516219
0.516113
0.516041
0.515975
0.515914
0.515868
0.515879
0.516007
0.516127
0.516106
0.516042
0.515969
0.515875
0.515722
0.515507
0.515384
0.515307
0.51524
0.515173
0.515108
0.515046
0.514996
0.514989
0.515062
0.515098
0.51505
0.514982
0.514906
0.514807
0.514693
0.514613
0.514545
0.514479
0.514413
0.514351
0.514297
0.51425
0.514189
0.514123
0.514055
0.513981
0.513889
0.513774
0.513687
0.513619
0.513553
0.513491
0.513441
0.513436
0.513536
0.513674
0.513668
0.513608
0.513538
0.513452
0.513322
0.513127
0.513001
0.512924
0.512856
0.51279
0.512724
0.512658
0.512592
0.512527
0.512463
0.512407
0.512374
0.512412
0.512497
0.51248
0.512418
0.512346
0.512254
0.512104
0.51191
0.511803
0.511731
0.511665
0.511604
0.511555
0.511555
0.511653
0.511729
0.511694
0.511629
0.511554
0.511457
0.511299
0.511145
0.511059
0.510991
0.510925
0.510863
0.51081
0.510794
0.51081
0.510769
0.510702
0.510627
0.510525
0.510401
0.510317
0.51025
0.510187
0.510134
0.510116
0.51019
0.510308
0.510298
0.510237
0.510167
0.510081
0.509948
0.509759
0.509643
0.509569
0.509502
0.509437
0.509371
0.509306
0.50924
0.509176
0.509115
0.509066
0.509059
0.509139
0.509195
0.509155
0.509089
0.509013
0.50891
0.508731
0.508545
0.50845
0.508381
0.508316
0.508257
0.508213
0.508227
0.508345
0.50841
0.508371
0.508306
0.508232
0.508134
0.507977
0.507831
0.507748
0.507681
0.507616
0.507555
0.507503
0.507489
0.507482
0.507427
0.507359
0.507278
0.507164
0.507048
0.506972
0.506907
0.506848
0.506804
0.50682
0.50696
0.507086
0.507066
0.507004
0.506933
0.506838
0.506676
0.506371
0.506137
0.506037
0.505966
0.505901
0.505839
0.505784
0.505755
0.505805
0.506007
0.506139
0.506119
0.506057
0.505987
0.505899
0.50576
0.505518
0.505343
0.505256
0.505188
0.505124
0.505062
0.505008
0.504982
0.505024
0.505054
0.505007
0.504941
0.504867
0.504769
0.504658
0.504582
0.504517
0.504455
0.504404
0.504391
0.504467
0.504543
0.504511
0.504447
0.504375
0.504279
0.504114
0.503897
0.503782
0.503709
0.503645
0.503582
0.503527
0.503495
0.503535
0.503654
0.503667
0.503613
0.503547
0.503472
0.503373
0.503238
0.503141
0.503072
0.503007
0.502942
0.502878
0.502814
0.502749
0.502685
0.502621
0.502559
0.502502
0.502463
0.502479
0.502495
0.502446
0.50238
0.502306
0.502205
0.502051
0.501933
0.501859
0.501794
0.501732
0.501676
0.501641
0.501669
0.501729
0.5017
0.501637
0.501569
0.501486
0.50138
0.501297
0.501231
0.501167
0.501106
0.501055
0.501024
0.500977
0.500915
0.50085
0.50078
0.500707
0.500642
0.500579
0.500522
0.500484
0.500509
0.50058
0.50056
0.500499
0.50043
0.50034
0.500192
0.499992
0.499881
0.49981
0.499747
0.499687
0.499641
0.499643
0.499748
0.499833
0.499802
0.49974
0.499669
0.499578
0.499425
0.4992
0.499073
0.498998
0.498934
0.498872
0.498815
0.498778
0.498803
0.498895
0.498895
0.498839
0.498773
0.498698
0.498597
0.49849
0.498417
0.498352
0.49829
0.498235
0.498199
0.498212
0.498194
0.498134
0.498066
0.497982
0.497851
0.4977
0.497614
0.497548
0.497486
0.497431
0.497399
0.497439
0.497563
0.497581
0.497529
0.497463
0.497388
0.49728
0.497101
0.496959
0.49688
0.496816
0.496754
0.496699
0.496665
0.496698
0.496808
0.496819
0.496766
0.4967
0.496624
0.496513
0.496316
0.496128
0.496037
0.49597
0.495907
0.495846
0.495792
0.495764
0.495808
0.495904
0.495894
0.495836
0.49577
0.49569
0.49557
0.495383
0.495259
0.495186
0.495123
0.495062
0.495011
0.494993
0.495063
0.495187
0.495183
0.495126
0.49506
0.494978
0.494852
0.494615
0.494398
0.494301
0.494233
0.494171
0.494114
0.494073
0.494088
0.494239
0.494437
0.49445
0.494398
0.494333
0.494258
0.494149
0.493947
0.493693
0.493574
0.493501
0.493438
0.493377
0.493324
0.493295
0.493339
0.493469
0.493489
0.493439
0.493375
0.493302
0.493203
0.493032
0.492856
0.492766
0.4927
0.492638
0.492577
0.492524
0.492494
0.49253
0.492567
0.492527
0.492465
0.492397
0.492315
0.492213
0.492135
0.492071
0.492009
0.491952
0.491907
0.491908
0.491916
0.491867
0.491804
0.491732
0.491635
0.491504
0.491413
0.491348
0.491286
0.49123
0.491192
0.491213
0.491333
0.491378
0.491335
0.491272
0.491202
0.491106
0.490939
0.490678
0.49053
0.490452
0.490388
0.490327
0.490267
0.490214
0.490184
0.490225
0.49038
0.490441
0.490402
0.49034
0.490272
0.490185
0.490044
0.489813
0.489665
0.489587
0.489523
0.489462
0.489404
0.489356
0.489349
0.48943
0.489499
0.489467
0.489406
0.489341
0.489264
0.489154
0.489044
0.488971
0.488909
0.488848
0.48879
0.488743
0.488736
0.48875
0.488707