/*--------------------------------*- C++ -*----------------------------------*\
  =========                 |
  \\      /  F ield         | OpenFOAM: The Open Source CFD Toolbox
   \\    /   O peration     | Website:  https://openfoam.org
    \\  /    A nd           | Version:  9
     \\/     M anipulation  |
\*---------------------------------------------------------------------------*/
FoamFile
{
    format      ascii;
    class       volVectorField;
    location    "0.023";
    object      U;
}
// * * * * * * * * * * * * * * * * * * * * * * * * * * * * * * * * * * * * * //

dimensions      [0 1 -1 0 0 0 0];

internalField   nonuniform List<vector> 
10000
(
(133.361 0 0)
(133.418 0 0)
(133.451 0 0)
(133.487 0 0)
(133.523 0 0)
(133.558 0 0)
(133.594 0 0)
(133.629 0 0)
(133.665 0 0)
(133.701 0 0)
(133.736 0 0)
(133.771 0 0)
(133.807 0 0)
(133.842 0 0)
(133.877 0 0)
(133.913 0 0)
(133.948 0 0)
(133.984 0 0)
(134.019 0 0)
(134.055 0 0)
(134.091 0 0)
(134.126 0 0)
(134.162 0 0)
(134.198 0 0)
(134.233 0 0)
(134.268 0 0)
(134.304 0 0)
(134.339 0 0)
(134.374 0 0)
(134.41 0 0)
(134.445 0 0)
(134.481 0 0)
(134.516 0 0)
(134.552 0 0)
(134.587 0 0)
(134.623 0 0)
(134.658 0 0)
(134.694 0 0)
(134.729 0 0)
(134.765 0 0)
(134.8 0 0)
(134.836 0 0)
(134.872 0 0)
(134.907 0 0)
(134.943 0 0)
(134.978 0 0)
(135.014 0 0)
(135.049 0 0)
(135.085 0 0)
(135.12 0 0)
(135.156 0 0)
(135.191 0 0)
(135.227 0 0)
(135.262 0 0)
(135.298 0 0)
(135.333 0 0)
(135.369 0 0)
(135.404 0 0)
(135.44 0 0)
(135.475 0 0)
(135.511 0 0)
(135.546 0 0)
(135.582 0 0)
(135.617 0 0)
(135.653 0 0)
(135.689 0 0)
(135.724 0 0)
(135.76 0 0)
(135.795 0 0)
(135.831 0 0)
(135.867 0 0)
(135.902 0 0)
(135.938 0 0)
(135.974 0 0)
(136.01 0 0)
(136.045 0 0)
(136.081 0 0)
(136.116 0 0)
(136.151 0 0)
(136.187 0 0)
(136.222 0 0)
(136.257 0 0)
(136.292 0 0)
(136.328 0 0)
(136.363 0 0)
(136.398 0 0)
(136.434 0 0)
(136.469 0 0)
(136.505 0 0)
(136.541 0 0)
(136.576 0 0)
(136.612 0 0)
(136.648 0 0)
(136.683 0 0)
(136.719 0 0)
(136.754 0 0)
(136.79 0 0)
(136.825 0 0)
(136.861 0 0)
(136.897 0 0)
(136.932 0 0)
(136.968 0 0)
(137.003 0 0)
(137.039 0 0)
(137.074 0 0)
(137.11 0 0)
(137.146 0 0)
(137.182 0 0)
(137.218 0 0)
(137.253 0 0)
(137.289 0 0)
(137.324 0 0)
(137.36 0 0)
(137.395 0 0)
(137.431 0 0)
(137.466 0 0)
(137.502 0 0)
(137.538 0 0)
(137.574 0 0)
(137.609 0 0)
(137.645 0 0)
(137.68 0 0)
(137.716 0 0)
(137.751 0 0)
(137.787 0 0)
(137.822 0 0)
(137.858 0 0)
(137.893 0 0)
(137.929 0 0)
(137.964 0 0)
(138 0 0)
(138.036 0 0)
(138.072 0 0)
(138.107 0 0)
(138.142 0 0)
(138.178 0 0)
(138.213 0 0)
(138.249 0 0)
(138.285 0 0)
(138.321 0 0)
(138.357 0 0)
(138.391 0 0)
(138.426 0 0)
(138.462 0 0)
(138.497 0 0)
(138.533 0 0)
(138.569 0 0)
(138.605 0 0)
(138.64 0 0)
(138.675 0 0)
(138.711 0 0)
(138.746 0 0)
(138.782 0 0)
(138.817 0 0)
(138.853 0 0)
(138.889 0 0)
(138.924 0 0)
(138.96 0 0)
(138.995 0 0)
(139.03 0 0)
(139.066 0 0)
(139.102 0 0)
(139.138 0 0)
(139.174 0 0)
(139.209 0 0)
(139.244 0 0)
(139.278 0 0)
(139.313 0 0)
(139.348 0 0)
(139.383 0 0)
(139.42 0 0)
(139.457 0 0)
(139.494 0 0)
(139.529 0 0)
(139.564 0 0)
(139.598 0 0)
(139.633 0 0)
(139.668 0 0)
(139.704 0 0)
(139.74 0 0)
(139.776 0 0)
(139.812 0 0)
(139.847 0 0)
(139.882 0 0)
(139.917 0 0)
(139.952 0 0)
(139.988 0 0)
(140.025 0 0)
(140.062 0 0)
(140.098 0 0)
(140.133 0 0)
(140.168 0 0)
(140.201 0 0)
(140.235 0 0)
(140.27 0 0)
(140.306 0 0)
(140.344 0 0)
(140.382 0 0)
(140.419 0 0)
(140.454 0 0)
(140.487 0 0)
(140.521 0 0)
(140.554 0 0)
(140.59 0 0)
(140.627 0 0)
(140.665 0 0)
(140.701 0 0)
(140.736 0 0)
(140.77 0 0)
(140.804 0 0)
(140.839 0 0)
(140.876 0 0)
(140.915 0 0)
(140.953 0 0)
(140.988 0 0)
(141.021 0 0)
(141.054 0 0)
(141.087 0 0)
(141.122 0 0)
(141.159 0 0)
(141.197 0 0)
(141.233 0 0)
(141.268 0 0)
(141.302 0 0)
(141.338 0 0)
(141.375 0 0)
(141.413 0 0)
(141.45 0 0)
(141.484 0 0)
(141.516 0 0)
(141.547 0 0)
(141.579 0 0)
(141.614 0 0)
(141.653 0 0)
(141.698 0 0)
(141.741 0 0)
(141.776 0 0)
(141.804 0 0)
(141.83 0 0)
(141.857 0 0)
(141.886 0 0)
(141.929 0 0)
(141.99 0 0)
(142.045 0 0)
(142.071 0 0)
(142.091 0 0)
(142.111 0 0)
(142.132 0 0)
(142.156 0 0)
(142.198 0 0)
(142.268 0 0)
(142.336 0 0)
(142.367 0 0)
(142.383 0 0)
(142.397 0 0)
(142.416 0 0)
(142.438 0 0)
(142.474 0 0)
(142.544 0 0)
(142.618 0 0)
(142.66 0 0)
(142.676 0 0)
(142.685 0 0)
(142.7 0 0)
(142.721 0 0)
(142.75 0 0)
(142.813 0 0)
(142.894 0 0)
(142.954 0 0)
(142.976 0 0)
(142.985 0 0)
(142.992 0 0)
(143.009 0 0)
(143.031 0 0)
(143.065 0 0)
(143.135 0 0)
(143.216 0 0)
(143.266 0 0)
(143.286 0 0)
(143.297 0 0)
(143.314 0 0)
(143.336 0 0)
(143.367 0 0)
(143.413 0 0)
(143.461 0 0)
(143.5 0 0)
(143.54 0 0)
(143.594 0 0)
(143.648 0 0)
(143.676 0 0)
(143.693 0 0)
(143.709 0 0)
(143.729 0 0)
(143.758 0 0)
(143.822 0 0)
(143.893 0 0)
(143.931 0 0)
(143.945 0 0)
(143.952 0 0)
(143.97 0 0)
(143.996 0 0)
(144.056 0 0)
(144.136 0 0)
(144.193 0 0)
(144.213 0 0)
(144.219 0 0)
(144.227 0 0)
(144.246 0 0)
(144.275 0 0)
(144.338 0 0)
(144.414 0 0)
(144.463 0 0)
(144.484 0 0)
(144.507 0 0)
(144.548 0 0)
(144.596 0 0)
(144.624 0 0)
(144.639 0 0)
(144.65 0 0)
(144.669 0 0)
(144.702 0 0)
(144.773 0 0)
(144.857 0 0)
(144.91 0 0)
(144.928 0 0)
(144.928 0 0)
(144.93 0 0)
(144.948 0 0)
(144.978 0 0)
(145.047 0 0)
(145.134 0 0)
(145.193 0 0)
(145.215 0 0)
(145.218 0 0)
(145.219 0 0)
(145.236 0 0)
(145.262 0 0)
(145.325 0 0)
(145.41 0 0)
(145.474 0 0)
(145.498 0 0)
(145.504 0 0)
(145.507 0 0)
(145.525 0 0)
(145.554 0 0)
(145.62 0 0)
(145.704 0 0)
(145.763 0 0)
(145.784 0 0)
(145.788 0 0)
(145.792 0 0)
(145.81 0 0)
(145.841 0 0)
(145.909 0 0)
(145.993 0 0)
(146.05 0 0)
(146.069 0 0)
(146.071 0 0)
(146.072 0 0)
(146.09 0 0)
(146.119 0 0)
(146.185 0 0)
(146.272 0 0)
(146.334 0 0)
(146.356 0 0)
(146.36 0 0)
(146.357 0 0)
(146.372 0 0)
(146.397 0 0)
(146.455 0 0)
(146.546 0 0)
(146.621 0 0)
(146.654 0 0)
(146.664 0 0)
(146.651 0 0)
(146.65 0 0)
(146.668 0 0)
(146.697 0 0)
(146.763 0 0)
(146.87 0 0)
(146.962 0 0)
(147.008 0 0)
(147.024 0 0)
(147.018 0 0)
(147.002 0 0)
(147.012 0 0)
(147.033 0 0)
(147.064 0 0)
(147.132 0 0)
(147.228 0 0)
(147.3 0 0)
(147.33 0 0)
(147.339 0 0)
(147.327 0 0)
(147.33 0 0)
(147.349 0 0)
(147.381 0 0)
(147.451 0 0)
(147.559 0 0)
(147.641 0 0)
(147.679 0 0)
(147.691 0 0)
(147.681 0 0)
(147.671 0 0)
(147.686 0 0)
(147.708 0 0)
(147.754 0 0)
(147.838 0 0)
(147.926 0 0)
(147.976 0 0)
(147.994 0 0)
(147.993 0 0)
(147.992 0 0)
(148.01 0 0)
(148.038 0 0)
(148.102 0 0)
(148.19 0 0)
(148.256 0 0)
(148.281 0 0)
(148.286 0 0)
(148.276 0 0)
(148.287 0 0)
(148.308 0 0)
(148.358 0 0)
(148.448 0 0)
(148.544 0 0)
(148.598 0 0)
(148.618 0 0)
(148.615 0 0)
(148.593 0 0)
(148.596 0 0)
(148.616 0 0)
(148.643 0 0)
(148.708 0 0)
(148.816 0 0)
(148.92 0 0)
(148.974 0 0)
(148.994 0 0)
(148.991 0 0)
(148.966 0 0)
(148.965 0 0)
(148.985 0 0)
(149.012 0 0)
(149.075 0 0)
(149.173 0 0)
(149.252 0 0)
(149.29 0 0)
(149.302 0 0)
(149.295 0 0)
(149.297 0 0)
(149.316 0 0)
(149.348 0 0)
(149.419 0 0)
(149.514 0 0)
(149.581 0 0)
(149.607 0 0)
(149.612 0 0)
(149.595 0 0)
(149.595 0 0)
(149.615 0 0)
(149.644 0 0)
(149.713 0 0)
(149.825 0 0)
(149.922 0 0)
(149.972 0 0)
(149.989 0 0)
(149.981 0 0)
(149.948 0 0)
(149.943 0 0)
(149.962 0 0)
(149.987 0 0)
(150.046 0 0)
(150.149 0 0)
(150.269 0 0)
(150.336 0 0)
(150.362 0 0)
(150.367 0 0)
(150.341 0 0)
(150.323 0 0)
(150.337 0 0)
(150.359 0 0)
(150.4 0 0)
(150.481 0 0)
(150.587 0 0)
(150.656 0 0)
(150.684 0 0)
(150.692 0 0)
(150.682 0 0)
(150.689 0 0)
(150.709 0 0)
(150.742 0 0)
(150.813 0 0)
(150.897 0 0)
(150.952 0 0)
(150.972 0 0)
(150.977 0 0)
(150.985 0 0)
(151.005 0 0)
(151.039 0 0)
(151.108 0 0)
(151.182 0 0)
(151.222 0 0)
(151.236 0 0)
(151.238 0 0)
(151.251 0 0)
(151.274 0 0)
(151.324 0 0)
(151.409 0 0)
(151.486 0 0)
(151.523 0 0)
(151.534 0 0)
(151.527 0 0)
(151.531 0 0)
(151.551 0 0)
(151.586 0 0)
(151.66 0 0)
(151.753 0 0)
(151.815 0 0)
(151.838 0 0)
(151.843 0 0)
(151.839 0 0)
(151.854 0 0)
(151.876 0 0)
(151.923 0 0)
(152.004 0 0)
(152.079 0 0)
(152.114 0 0)
(152.128 0 0)
(152.136 0 0)
(152.154 0 0)
(152.182 0 0)
(152.246 0 0)
(152.331 0 0)
(152.393 0 0)
(152.417 0 0)
(152.422 0 0)
(152.411 0 0)
(152.416 0 0)
(152.436 0 0)
(152.459 0 0)
(152.5 0 0)
(152.579 0 0)
(152.681 0 0)
(152.749 0 0)
(152.776 0 0)
(152.784 0 0)
(152.774 0 0)
(152.779 0 0)
(152.8 0 0)
(152.832 0 0)
(152.901 0 0)
(152.991 0 0)
(153.052 0 0)
(153.076 0 0)
(153.081 0 0)
(153.08 0 0)
(153.096 0 0)
(153.121 0 0)
(153.177 0 0)
(153.263 0 0)
(153.336 0 0)
(153.368 0 0)
(153.379 0 0)
(153.378 0 0)
(153.392 0 0)
(153.414 0 0)
(153.462 0 0)
(153.545 0 0)
(153.62 0 0)
(153.656 0 0)
(153.668 0 0)
(153.661 0 0)
(153.666 0 0)
(153.686 0 0)
(153.722 0 0)
(153.796 0 0)
(153.888 0 0)
(153.947 0 0)
(153.97 0 0)
(153.973 0 0)
(153.964 0 0)
(153.978 0 0)
(154 0 0)
(154.048 0 0)
(154.135 0 0)
(154.219 0 0)
(154.264 0 0)
(154.28 0 0)
(154.277 0 0)
(154.275 0 0)
(154.294 0 0)
(154.321 0 0)
(154.385 0 0)
(154.476 0 0)
(154.547 0 0)
(154.576 0 0)
(154.586 0 0)
(154.58 0 0)
(154.59 0 0)
(154.611 0 0)
(154.652 0 0)
(154.732 0 0)
(154.821 0 0)
(154.873 0 0)
(154.892 0 0)
(154.894 0 0)
(154.892 0 0)
(154.91 0 0)
(154.934 0 0)
(154.986 0 0)
(155.067 0 0)
(155.135 0 0)
(155.165 0 0)
(155.178 0 0)
(155.186 0 0)
(155.206 0 0)
(155.235 0 0)
(155.295 0 0)
(155.361 0 0)
(155.394 0 0)
(155.41 0 0)
(155.423 0 0)
(155.444 0 0)
(155.483 0 0)
(155.559 0 0)
(155.637 0 0)
(155.678 0 0)
(155.692 0 0)
(155.687 0 0)
(155.689 0 0)
(155.708 0 0)
(155.743 0 0)
(155.817 0 0)
(155.92 0 0)
(155.991 0 0)
(156.02 0 0)
(156.028 0 0)
(156.009 0 0)
(156.003 0 0)
(156.021 0 0)
(156.047 0 0)
(156.106 0 0)
(156.204 0 0)
(156.291 0 0)
(156.335 0 0)
(156.351 0 0)
(156.348 0 0)
(156.344 0 0)
(156.361 0 0)
(156.384 0 0)
(156.433 0 0)
(156.515 0 0)
(156.588 0 0)
(156.622 0 0)
(156.636 0 0)
(156.64 0 0)
(156.657 0 0)
(156.68 0 0)
(156.732 0 0)
(156.81 0 0)
(156.874 0 0)
(156.9 0 0)
(156.909 0 0)
(156.913 0 0)
(156.931 0 0)
(156.957 0 0)
(157.017 0 0)
(157.101 0 0)
(157.163 0 0)
(157.188 0 0)
(157.194 0 0)
(157.191 0 0)
(157.207 0 0)
(157.233 0 0)
(157.292 0 0)
(157.389 0 0)
(157.472 0 0)
(157.512 0 0)
(157.524 0 0)
(157.508 0 0)
(157.478 0 0)
(157.486 0 0)
(157.508 0 0)
(157.553 0 0)
(157.641 0 0)
(157.787 0 0)
(157.889 0 0)
(157.937 0 0)
(157.954 0 0)
(157.946 0 0)
(157.894 0 0)
(157.865 0 0)
(157.878 0 0)
(157.9 0 0)
(157.938 0 0)
(158.015 0 0)
(158.138 0 0)
(158.227 0 0)
(158.269 0 0)
(158.285 0 0)
(158.277 0 0)
(158.257 0 0)
(158.267 0 0)
(158.288 0 0)
(158.326 0 0)
(158.403 0 0)
(158.506 0 0)
(158.575 0 0)
(158.603 0 0)
(158.611 0 0)
(158.599 0 0)
(158.601 0 0)
(158.622 0 0)
(158.65 0 0)
(158.713 0 0)
(158.804 0 0)
(158.876 0 0)
(158.906 0 0)
(158.918 0 0)
(158.918 0 0)
(158.931 0 0)
(158.953 0 0)
(158.991 0 0)
(159.063 0 0)
(159.136 0 0)
(159.171 0 0)
(159.186 0 0)
(159.194 0 0)
(159.213 0 0)
(159.24 0 0)
(159.3 0 0)
(159.385 0 0)
(159.448 0 0)
(159.473 0 0)
(159.48 0 0)
(159.477 0 0)
(159.493 0 0)
(159.518 0 0)
(159.573 0 0)
(159.665 0 0)
(159.745 0 0)
(159.784 0 0)
(159.797 0 0)
(159.781 0 0)
(159.754 0 0)
(159.763 0 0)
(159.784 0 0)
(159.825 0 0)
(159.905 0 0)
(160.029 0 0)
(160.115 0 0)
(160.156 0 0)
(160.171 0 0)
(160.161 0 0)
(160.14 0 0)
(160.15 0 0)
(160.172 0 0)
(160.205 0 0)
(160.276 0 0)
(160.374 0 0)
(160.445 0 0)
(160.474 0 0)
(160.485 0 0)
(160.481 0 0)
(160.49 0 0)
(160.512 0 0)
(160.546 0 0)
(160.616 0 0)
(160.7 0 0)
(160.754 0 0)
(160.775 0 0)
(160.781 0 0)
(160.787 0 0)
(160.807 0 0)
(160.836 0 0)
(160.9 0 0)
(160.984 0 0)
(161.044 0 0)
(161.067 0 0)
(161.074 0 0)
(161.072 0 0)
(161.088 0 0)
(161.112 0 0)
(161.158 0 0)
(161.239 0 0)
(161.315 0 0)
(161.352 0 0)
(161.368 0 0)
(161.372 0 0)
(161.387 0 0)
(161.409 0 0)
(161.449 0 0)
(161.518 0 0)
(161.584 0 0)
(161.613 0 0)
(161.629 0 0)
(161.645 0 0)
(161.667 0 0)
(161.708 0 0)
(161.776 0 0)
(161.835 0 0)
(161.86 0 0)
(161.873 0 0)
(161.887 0 0)
(161.909 0 0)
(161.949 0 0)
(162.024 0 0)
(162.101 0 0)
(162.139 0 0)
(162.154 0 0)
(162.154 0 0)
(162.161 0 0)
(162.182 0 0)
(162.216 0 0)
(162.286 0 0)
(162.375 0 0)
(162.434 0 0)
(162.458 0 0)
(162.466 0 0)
(162.467 0 0)
(162.485 0 0)
(162.509 0 0)
(162.554 0 0)
(162.627 0 0)
(162.688 0 0)
(162.714 0 0)
(162.728 0 0)
(162.744 0 0)
(162.766 0 0)
(162.808 0 0)
(162.879 0 0)
(162.944 0 0)
(162.972 0 0)
(162.984 0 0)
(162.988 0 0)
(163.007 0 0)
(163.032 0 0)
(163.086 0 0)
(163.169 0 0)
(163.238 0 0)
(163.268 0 0)
(163.282 0 0)
(163.29 0 0)
(163.31 0 0)
(163.338 0 0)
(163.401 0 0)
(163.482 0 0)
(163.537 0 0)
(163.559 0 0)
(163.559 0 0)
(163.543 0 0)
(163.552 0 0)
(163.574 0 0)
(163.617 0 0)
(163.701 0 0)
(163.815 0 0)
(163.886 0 0)
(163.916 0 0)
(163.925 0 0)
(163.906 0 0)
(163.89 0 0)
(163.905 0 0)
(163.928 0 0)
(163.973 0 0)
(164.057 0 0)
(164.16 0 0)
(164.223 0 0)
(164.248 0 0)
(164.255 0 0)
(164.242 0 0)
(164.247 0 0)
(164.269 0 0)
(164.298 0 0)
(164.362 0 0)
(164.453 0 0)
(164.523 0 0)
(164.553 0 0)
(164.565 0 0)
(164.564 0 0)
(164.578 0 0)
(164.601 0 0)
(164.645 0 0)
(164.726 0 0)
(164.81 0 0)
(164.856 0 0)
(164.874 0 0)
(164.871 0 0)
(164.861 0 0)
(164.876 0 0)
(164.9 0 0)
(164.949 0 0)
(165.037 0 0)
(165.132 0 0)
(165.184 0 0)
(165.205 0 0)
(165.206 0 0)
(165.194 0 0)
(165.205 0 0)
(165.228 0 0)
(165.268 0 0)
(165.347 0 0)
(165.443 0 0)
(165.502 0 0)
(165.525 0 0)
(165.529 0 0)
(165.513 0 0)
(165.519 0 0)
(165.541 0 0)
(165.577 0 0)
(165.651 0 0)
(165.76 0 0)
(165.836 0 0)
(165.869 0 0)
(165.882 0 0)
(165.866 0 0)
(165.847 0 0)
(165.861 0 0)
(165.884 0 0)
(165.927 0 0)
(166.009 0 0)
(166.119 0 0)
(166.189 0 0)
(166.218 0 0)
(166.228 0 0)
(166.213 0 0)
(166.204 0 0)
(166.222 0 0)
(166.246 0 0)
(166.292 0 0)
(166.375 0 0)
(166.47 0 0)
(166.524 0 0)
(166.547 0 0)
(166.553 0 0)
(166.551 0 0)
(166.568 0 0)
(166.591 0 0)
(166.631 0 0)
(166.706 0 0)
(166.784 0 0)
(166.826 0 0)
(166.844 0 0)
(166.854 0 0)
(166.872 0 0)
(166.896 0 0)
(166.941 0 0)
(167.009 0 0)
(167.06 0 0)
(167.082 0 0)
(167.091 0 0)
(167.102 0 0)
(167.124 0 0)
(167.159 0 0)
(167.231 0 0)
(167.319 0 0)
(167.374 0 0)
(167.397 0 0)
(167.4 0 0)
(167.392 0 0)
(167.406 0 0)
(167.429 0 0)
(167.473 0 0)
(167.556 0 0)
(167.652 0 0)
(167.709 0 0)
(167.732 0 0)
(167.737 0 0)
(167.726 0 0)
(167.736 0 0)
(167.759 0 0)
(167.793 0 0)
(167.864 0 0)
(167.956 0 0)
(168.016 0 0)
(168.041 0 0)
(168.047 0 0)
(168.038 0 0)
(168.048 0 0)
(168.07 0 0)
(168.106 0 0)
(168.18 0 0)
(168.277 0 0)
(168.341 0 0)
(168.367 0 0)
(168.375 0 0)
(168.363 0 0)
(168.366 0 0)
(168.388 0 0)
(168.418 0 0)
(168.482 0 0)
(168.58 0 0)
(168.659 0 0)
(168.695 0 0)
(168.711 0 0)
(168.707 0 0)
(168.708 0 0)
(168.728 0 0)
(168.754 0 0)
(168.809 0 0)
(168.896 0 0)
(168.97 0 0)
(169.004 0 0)
(169.018 0 0)
(169.012 0 0)
(169.014 0 0)
(169.036 0 0)
(169.065 0 0)
(169.129 0 0)
(169.227 0 0)
(169.305 0 0)
(169.34 0 0)
(169.354 0 0)
(169.344 0 0)
(169.335 0 0)
(169.352 0 0)
(169.376 0 0)
(169.423 0 0)
(169.51 0 0)
(169.607 0 0)
(169.662 0 0)
(169.684 0 0)
(169.689 0 0)
(169.676 0 0)
(169.685 0 0)
(169.708 0 0)
(169.741 0 0)
(169.811 0 0)
(169.907 0 0)
(169.976 0 0)
(170.006 0 0)
(170.017 0 0)
(170.005 0 0)
(170.004 0 0)
(170.025 0 0)
(170.052 0 0)
(170.109 0 0)
(170.206 0 0)
(170.297 0 0)
(170.343 0 0)
(170.362 0 0)
(170.363 0 0)
(170.353 0 0)
(170.367 0 0)
(170.39 0 0)
(170.422 0 0)
(170.488 0 0)
(170.575 0 0)
(170.634 0 0)
(170.659 0 0)
(170.671 0 0)
(170.679 0 0)
(170.699 0 0)
(170.724 0 0)
(170.774 0 0)
(170.845 0 0)
(170.896 0 0)
(170.919 0 0)
(170.933 0 0)
(170.951 0 0)
(170.974 0 0)
(171.016 0 0)
(171.088 0 0)
(171.156 0 0)
(171.186 0 0)
(171.2 0 0)
(171.206 0 0)
(171.224 0 0)
(171.248 0 0)
(171.296 0 0)
(171.377 0 0)
(171.452 0 0)
(171.488 0 0)
(171.503 0 0)
(171.502 0 0)
(171.51 0 0)
(171.532 0 0)
(171.565 0 0)
(171.633 0 0)
(171.728 0 0)
(171.796 0 0)
(171.825 0 0)
(171.835 0 0)
(171.82 0 0)
(171.815 0 0)
(171.835 0 0)
(171.86 0 0)
(171.913 0 0)
(172.006 0 0)
(172.103 0 0)
(172.155 0 0)
(172.177 0 0)
(172.18 0 0)
(172.164 0 0)
(172.17 0 0)
(172.192 0 0)
(172.22 0 0)
(172.279 0 0)
(172.373 0 0)
(172.455 0 0)
(172.495 0 0)
(172.512 0 0)
(172.512 0 0)
(172.511 0 0)
(172.531 0 0)
(172.555 0 0)
(172.596 0 0)
(172.671 0 0)
(172.754 0 0)
(172.802 0 0)
(172.823 0 0)
(172.838 0 0)
(172.858 0 0)
(172.883 0 0)
(172.916 0 0)
(172.959 0 0)
(172.995 0 0)
(173.02 0 0)
(173.044 0 0)
(173.069 0 0)
(173.113 0 0)
(173.183 0 0)
(173.245 0 0)
(173.272 0 0)
(173.287 0 0)
(173.3 0 0)
(173.322 0 0)
(173.351 0 0)
(173.411 0 0)
(173.489 0 0)
(173.54 0 0)
(173.562 0 0)
(173.569 0 0)
(173.576 0 0)
(173.597 0 0)
(173.625 0 0)
(173.682 0 0)
(173.768 0 0)
(173.836 0 0)
(173.866 0 0)
(173.879 0 0)
(173.875 0 0)
(173.884 0 0)
(173.907 0 0)
(173.939 0 0)
(174.006 0 0)
(174.096 0 0)
(174.16 0 0)
(174.188 0 0)
(174.198 0 0)
(174.19 0 0)
(174.197 0 0)
(174.22 0 0)
(174.25 0 0)
(174.314 0 0)
(174.408 0 0)
(174.481 0 0)
(174.513 0 0)
(174.527 0 0)
(174.521 0 0)
(174.522 0 0)
(174.544 0 0)
(174.57 0 0)
(174.624 0 0)
(174.714 0 0)
(174.795 0 0)
(174.835 0 0)
(174.852 0 0)
(174.851 0 0)
(174.848 0 0)
(174.868 0 0)
(174.893 0 0)
(174.941 0 0)
(175.027 0 0)
(175.116 0 0)
(175.163 0 0)
(175.183 0 0)
(175.185 0 0)
(175.172 0 0)
(175.184 0 0)
(175.207 0 0)
(175.241 0 0)
(175.311 0 0)
(175.412 0 0)
(175.485 0 0)
(175.517 0 0)
(175.532 0 0)
(175.526 0 0)
(175.526 0 0)
(175.547 0 0)
(175.572 0 0)
(175.616 0 0)
(175.695 0 0)
(175.774 0 0)
(175.815 0 0)
(175.834 0 0)
(175.84 0 0)
(175.851 0 0)
(175.875 0 0)
(175.904 0 0)
(175.966 0 0)
(176.047 0 0)
(176.101 0 0)
(176.125 0 0)
(176.134 0 0)
(176.137 0 0)
(176.156 0 0)
(176.181 0 0)
(176.228 0 0)
(176.31 0 0)
(176.39 0 0)
(176.431 0 0)
(176.449 0 0)
(176.45 0 0)
(176.451 0 0)
(176.472 0 0)
(176.497 0 0)
(176.545 0 0)
(176.627 0 0)
(176.704 0 0)
(176.742 0 0)
(176.76 0 0)
(176.76 0 0)
(176.764 0 0)
(176.785 0 0)
(176.812 0 0)
(176.867 0 0)
(176.956 0 0)
(177.034 0 0)
(177.071 0 0)
(177.088 0 0)
(177.084 0 0)
(177.078 0 0)
(177.097 0 0)
(177.122 0 0)
(177.168 0 0)
(177.253 0 0)
(177.351 0 0)
(177.408 0 0)
(177.432 0 0)
(177.44 0 0)
(177.423 0 0)
(177.423 0 0)
(177.444 0 0)
(177.47 0 0)
(177.517 0 0)
(177.603 0 0)
(177.71 0 0)
(177.774 0 0)
(177.802 0 0)
(177.816 0 0)
(177.811 0 0)
(177.81 0 0)
(177.83 0 0)
(177.854 0 0)
(177.879 0 0)
(177.906 0 0)
(177.947 0 0)
(178.022 0 0)
(178.115 0 0)
(178.174 0 0)
(178.2 0 0)
(178.21 0 0)
(178.204 0 0)
(178.214 0 0)
(178.237 0 0)
(178.267 0 0)
(178.328 0 0)
(178.424 0 0)
(178.502 0 0)
(178.538 0 0)
(178.556 0 0)
(178.552 0 0)
(178.543 0 0)
(178.56 0 0)
(178.585 0 0)
(178.619 0 0)
(178.687 0 0)
(178.778 0 0)
(178.841 0 0)
(178.868 0 0)
(178.883 0 0)
(178.891 0 0)
(178.911 0 0)
(178.936 0 0)
(178.979 0 0)
(179.049 0 0)
(179.108 0 0)
(179.135 0 0)
(179.148 0 0)
(179.154 0 0)
(179.175 0 0)
(179.201 0 0)
(179.252 0 0)
(179.34 0 0)
(179.421 0 0)
(179.461 0 0)
(179.479 0 0)
(179.475 0 0)
(179.458 0 0)
(179.471 0 0)
(179.495 0 0)
(179.531 0 0)
(179.603 0 0)
(179.711 0 0)
(179.79 0 0)
(179.825 0 0)
(179.842 0 0)
(179.835 0 0)
(179.817 0 0)
(179.83 0 0)
(179.855 0 0)
(179.886 0 0)
(179.952 0 0)
(180.052 0 0)
(180.132 0 0)
(180.169 0 0)
(180.187 0 0)
(180.185 0 0)
(180.179 0 0)
(180.196 0 0)
(180.221 0 0)
(180.257 0 0)
(180.328 0 0)
(180.416 0 0)
(180.473 0 0)
(180.497 0 0)
(180.508 0 0)
(180.508 0 0)
(180.526 0 0)
(180.551 0 0)
(180.595 0 0)
(180.677 0 0)
(180.776 0 0)
(180.834 0 0)
(180.86 0 0)
(180.868 0 0)
(180.847 0 0)
(180.834 0 0)
(180.852 0 0)
(180.877 0 0)
(180.911 0 0)
(180.978 0 0)
(181.081 0 0)
(181.161 0 0)
(181.198 0 0)
(181.218 0 0)
(181.228 0 0)
(181.245 0 0)
(181.269 0 0)
(181.3 0 0)
(181.344 0 0)
(181.388 0 0)
(181.416 0 0)
(181.439 0 0)
(181.461 0 0)
(181.485 0 0)
(181.513 0 0)
(181.568 0 0)
(181.653 0 0)
(181.724 0 0)
(181.756 0 0)
(181.772 0 0)
(181.767 0 0)
(181.769 0 0)
(181.791 0 0)
(181.817 0 0)
(181.868 0 0)
(181.956 0 0)
(182.043 0 0)
(182.088 0 0)
(182.108 0 0)
(182.111 0 0)
(182.103 0 0)
(182.118 0 0)
(182.143 0 0)
(182.177 0 0)
(182.246 0 0)
(182.34 0 0)
(182.406 0 0)
(182.434 0 0)
(182.447 0 0)
(182.438 0 0)
(182.439 0 0)
(182.461 0 0)
(182.487 0 0)
(182.537 0 0)
(182.626 0 0)
(182.72 0 0)
(182.77 0 0)
(182.793 0 0)
(182.799 0 0)
(182.782 0 0)
(182.786 0 0)
(182.809 0 0)
(182.836 0 0)
(182.888 0 0)
(182.978 0 0)
(183.072 0 0)
(183.121 0 0)
(183.144 0 0)
(183.151 0 0)
(183.141 0 0)
(183.152 0 0)
(183.176 0 0)
(183.204 0 0)
(183.261 0 0)
(183.354 0 0)
(183.438 0 0)
(183.48 0 0)
(183.501 0 0)
(183.509 0 0)
(183.514 0 0)
(183.534 0 0)
(183.56 0 0)
(183.591 0 0)
(183.632 0 0)
(183.674 0 0)
(183.704 0 0)
(183.731 0 0)
(183.758 0 0)
(183.802 0 0)
(183.878 0 0)
(183.955 0 0)
(183.994 0 0)
(184.013 0 0)
(184.015 0 0)
(184.016 0 0)
(184.037 0 0)
(184.063 0 0)
(184.113 0 0)
(184.203 0 0)
(184.299 0 0)
(184.35 0 0)
(184.373 0 0)
(184.378 0 0)
(184.35 0 0)
(184.34 0 0)
(184.359 0 0)
(184.385 0 0)
(184.43 0 0)
(184.516 0 0)
(184.642 0 0)
(184.721 0 0)
(184.757 0 0)
(184.774 0 0)
(184.765 0 0)
(184.722 0 0)
(184.716 0 0)
(184.737 0 0)
(184.763 0 0)
(184.808 0 0)
(184.891 0 0)
(185.022 0 0)
(185.107 0 0)
(185.147 0 0)
(185.166 0 0)
(185.162 0 0)
(185.124 0 0)
(185.115 0 0)
(185.135 0 0)
(185.16 0 0)
(185.2 0 0)
(185.277 0 0)
(185.408 0 0)
(185.509 0 0)
(185.557 0 0)
(185.579 0 0)
(185.584 0 0)
(185.551 0 0)
(185.516 0 0)
(185.525 0 0)
(185.549 0 0)
(185.575 0 0)
(185.603 0 0)
(185.653 0 0)
(185.742 0 0)
(185.89 0 0)
(185.99 0 0)
(186.036 0 0)
(186.058 0 0)
(186.063 0 0)
(186.027 0 0)
(185.983 0 0)
(185.99 0 0)
(186.013 0 0)
(186.039 0 0)
(186.074 0 0)
(186.142 0 0)
(186.258 0 0)
(186.367 0 0)
(186.422 0 0)
(186.447 0 0)
(186.461 0 0)
(186.46 0 0)
(186.468 0 0)
(186.491 0 0)
(186.517 0 0)
(186.543 0 0)
(186.569 0 0)
(186.595 0 0)
(186.621 0 0)
(186.647 0 0)
(186.683 0 0)
(186.752 0 0)
(186.853 0 0)
(186.929 0 0)
(186.963 0 0)
(186.981 0 0)
(186.976 0 0)
(186.96 0 0)
(186.973 0 0)
(186.998 0 0)
(187.027 0 0)
(187.085 0 0)
(187.182 0 0)
(187.269 0 0)
(187.312 0 0)
(187.334 0 0)
(187.339 0 0)
(187.33 0 0)
(187.344 0 0)
(187.369 0 0)
(187.398 0 0)
(187.453 0 0)
(187.54 0 0)
(187.615 0 0)
(187.65 0 0)
(187.67 0 0)
(187.677 0 0)
(187.691 0 0)
(187.716 0 0)
(187.745 0 0)
(187.802 0 0)
(187.881 0 0)
(187.936 0 0)
(187.961 0 0)
(187.973 0 0)
(187.969 0 0)
(187.983 0 0)
(188.008 0 0)
(188.04 0 0)
(188.103 0 0)
(188.194 0 0)
(188.264 0 0)
(188.295 0 0)
(188.312 0 0)
(188.311 0 0)
(188.317 0 0)
(188.34 0 0)
(188.367 0 0)
(188.413 0 0)
(188.494 0 0)
(188.576 0 0)
(188.619 0 0)
(188.64 0 0)
(188.646 0 0)
(188.647 0 0)
(188.667 0 0)
(188.692 0 0)
(188.729 0 0)
(188.798 0 0)
(188.882 0 0)
(188.932 0 0)
(188.956 0 0)
(188.967 0 0)
(188.969 0 0)
(188.988 0 0)
(189.013 0 0)
(189.051 0 0)
(189.122 0 0)
(189.21 0 0)
(189.263 0 0)
(189.288 0 0)
(189.298 0 0)
(189.288 0 0)
(189.296 0 0)
(189.321 0 0)
(189.349 0 0)
(189.404 0 0)
(189.498 0 0)
(189.586 0 0)
(189.63 0 0)
(189.652 0 0)
(189.656 0 0)
(189.641 0 0)
(189.65 0 0)
(189.674 0 0)
(189.702 0 0)
(189.753 0 0)
(189.842 0 0)
(189.933 0 0)
(189.981 0 0)
(190.004 0 0)
(190.012 0 0)
(190.001 0 0)
(190.01 0 0)
(190.034 0 0)
(190.061 0 0)
(190.108 0 0)
(190.19 0 0)
(190.278 0 0)
(190.325 0 0)
(190.348 0 0)
(190.359 0 0)
(190.362 0 0)
(190.382 0 0)
(190.408 0 0)
(190.439 0 0)
(190.499 0 0)
(190.573 0 0)
(190.617 0 0)
(190.64 0 0)
(190.658 0 0)
(190.68 0 0)
(190.706 0 0)
(190.749 0 0)
(190.824 0 0)
(190.898 0 0)
(190.935 0 0)
(190.954 0 0)
(190.949 0 0)
(190.921 0 0)
(190.925 0 0)
(190.949 0 0)
(190.975 0 0)
(191.02 0 0)
(191.102 0 0)
(191.231 0 0)
(191.318 0 0)
(191.358 0 0)
(191.38 0 0)
(191.382 0 0)
(191.357 0 0)
(191.356 0 0)
(191.378 0 0)
(191.404 0 0)
(191.44 0 0)
(191.51 0 0)
(191.615 0 0)
(191.692 0 0)
(191.727 0 0)
(191.747 0 0)
(191.749 0 0)
(191.742 0 0)
(191.759 0 0)
(191.785 0 0)
(191.814 0 0)
(191.867 0 0)
(191.948 0 0)
(192.013 0 0)
(192.043 0 0)
(192.061 0 0)
(192.069 0 0)
(192.088 0 0)
(192.114 0 0)
(192.148 0 0)
(192.214 0 0)
(192.297 0 0)
(192.35 0 0)
(192.375 0 0)
(192.385 0 0)
(192.381 0 0)
(192.395 0 0)
(192.42 0 0)
(192.453 0 0)
(192.519 0 0)
(192.621 0 0)
(192.698 0 0)
(192.733 0 0)
(192.751 0 0)
(192.743 0 0)
(192.699 0 0)
(192.692 0 0)
(192.713 0 0)
(192.74 0 0)
(192.782 0 0)
(192.863 0 0)
(193.006 0 0)
(193.117 0 0)
(193.169 0 0)
(193.193 0 0)
(193.203 0 0)
(193.175 0 0)
(193.135 0 0)
(193.142 0 0)
(193.166 0 0)
(193.193 0 0)
(193.236 0 0)
(193.316 0 0)
(193.434 0 0)
(193.51 0 0)
(193.545 0 0)
(193.565 0 0)
(193.563 0 0)
(193.546 0 0)
(193.558 0 0)
(193.583 0 0)
(193.613 0 0)
(193.673 0 0)
(193.78 0 0)
(193.9 0 0)
(193.962 0 0)
(193.99 0 0)
(194.004 0 0)
(193.984 0 0)
(193.919 0 0)
(193.898 0 0)
(193.916 0 0)
(193.941 0 0)
(193.968 0 0)
(194.001 0 0)
(194.063 0 0)
(194.175 0 0)
(194.328 0 0)
(194.409 0 0)
(194.446 0 0)
(194.467 0 0)
(194.467 0 0)
(194.433 0 0)
(194.421 0 0)
(194.44 0 0)
(194.467 0 0)
(194.498 0 0)
(194.559 0 0)
(194.661 0 0)
(194.754 0 0)
(194.799 0 0)
(194.822 0 0)
(194.826 0 0)
(194.792 0 0)
(194.768 0 0)
(194.784 0 0)
(194.81 0 0)
(194.843 0 0)
(194.909 0 0)
(195.028 0 0)
(195.165 0 0)
(195.233 0 0)
(195.264 0 0)
(195.28 0 0)
(195.268 0 0)
(195.214 0 0)
(195.199 0 0)
(195.218 0 0)
(195.244 0 0)
(195.277 0 0)
(195.34 0 0)
(195.453 0 0)
(195.577 0 0)
(195.64 0 0)
(195.669 0 0)
(195.685 0 0)
(195.672 0 0)
(195.635 0 0)
(195.639 0 0)
(195.663 0 0)
(195.69 0 0)
(195.731 0 0)
(195.806 0 0)
(195.925 0 0)
(196.008 0 0)
(196.047 0 0)
(196.068 0 0)
(196.072 0 0)
(196.051 0 0)
(196.056 0 0)
(196.08 0 0)
(196.107 0 0)
(196.146 0 0)
(196.218 0 0)
(196.31 0 0)
(196.369 0 0)
(196.396 0 0)
(196.411 0 0)
(196.406 0 0)
(196.411 0 0)
(196.435 0 0)
(196.462 0 0)
(196.508 0 0)
(196.592 0 0)
(196.691 0 0)
(196.746 0 0)
(196.773 0 0)
(196.785 0 0)
(196.77 0 0)
(196.763 0 0)
(196.783 0 0)
(196.81 0 0)
(196.85 0 0)
(196.925 0 0)
(197.055 0 0)
(197.154 0 0)
(197.2 0 0)
(197.224 0 0)
(197.23 0 0)
(197.193 0 0)
(197.13 0 0)
(197.126 0 0)
(197.148 0 0)
(197.174 0 0)
(197.202 0 0)
(197.237 0 0)
(197.304 0 0)
(197.423 0 0)
(197.571 0 0)
(197.645 0 0)
(197.679 0 0)
(197.699 0 0)
(197.697 0 0)
(197.657 0 0)
(197.642 0 0)
(197.662 0 0)
(197.688 0 0)
(197.718 0 0)
(197.773 0 0)
(197.871 0 0)
(197.98 0 0)
(198.037 0 0)
(198.065 0 0)
(198.079 0 0)
(198.062 0 0)
(198.035 0 0)
(198.046 0 0)
(198.072 0 0)
(198.1 0 0)
(198.151 0 0)
(198.243 0 0)
(198.378 0 0)
(198.459 0 0)
(198.496 0 0)
(198.518 0 0)
(198.519 0 0)
(198.483 0 0)
(198.46 0 0)
(198.476 0 0)
(198.502 0 0)
(198.529 0 0)
(198.557 0 0)
(198.596 0 0)
(198.669 0 0)
(198.798 0 0)
(198.921 0 0)
(198.979 0 0)
(199.007 0 0)
(199.023 0 0)
(199.008 0 0)
(198.945 0 0)
(198.918 0 0)
(198.934 0 0)
(198.96 0 0)
(198.988 0 0)
(199.019 0 0)
(199.079 0 0)
(199.185 0 0)
(199.337 0 0)
(199.42 0 0)
(199.458 0 0)
(199.48 0 0)
(199.483 0 0)
(199.446 0 0)
(199.419 0 0)
(199.435 0 0)
(199.461 0 0)
(199.489 0 0)
(199.538 0 0)
(199.625 0 0)
(199.763 0 0)
(199.85 0 0)
(199.89 0 0)
(199.913 0 0)
(199.919 0 0)
(199.898 0 0)
(199.894 0 0)
(199.916 0 0)
(199.943 0 0)
(199.973 0 0)
(200.011 0 0)
(200.048 0 0)
(200.077 0 0)
(200.103 0 0)
(200.124 0 0)
(200.145 0 0)
(200.171 0 0)
(200.198 0 0)
(200.242 0 0)
(200.323 0 0)
(200.457 0 0)
(200.549 0 0)
(200.592 0 0)
(200.616 0 0)
(200.621 0 0)
(200.583 0 0)
(200.544 0 0)
(200.555 0 0)
(200.58 0 0)
(200.608 0 0)
(200.654 0 0)
(200.739 0 0)
(200.874 0 0)
(200.963 0 0)
(201.004 0 0)
(201.027 0 0)
(201.033 0 0)
(201.002 0 0)
(200.983 0 0)
(201.001 0 0)
(201.027 0 0)
(201.057 0 0)
(201.11 0 0)
(201.205 0 0)
(201.321 0 0)
(201.384 0 0)
(201.413 0 0)
(201.431 0 0)
(201.423 0 0)
(201.399 0 0)
(201.409 0 0)
(201.434 0 0)
(201.462 0 0)
(201.503 0 0)
(201.58 0 0)
(201.687 0 0)
(201.756 0 0)
(201.788 0 0)
(201.808 0 0)
(201.808 0 0)
(201.798 0 0)
(201.815 0 0)
(201.842 0 0)
(201.872 0 0)
(201.924 0 0)
(202.016 0 0)
(202.113 0 0)
(202.165 0 0)
(202.191 0 0)
(202.205 0 0)
(202.193 0 0)
(202.18 0 0)
(202.198 0 0)
(202.224 0 0)
(202.251 0 0)
(202.279 0 0)
(202.306 0 0)
(202.335 0 0)
(202.374 0 0)
(202.444 0 0)
(202.565 0 0)
(202.666 0 0)
(202.715 0 0)
(202.741 0 0)
(202.753 0 0)
(202.732 0 0)
(202.7 0 0)
(202.711 0 0)
(202.736 0 0)
(202.764 0 0)
(202.805 0 0)
(202.879 0 0)
(202.996 0 0)
(203.079 0 0)
(203.118 0 0)
(203.141 0 0)
(203.147 0 0)
(203.133 0 0)
(203.141 0 0)
(203.166 0 0)
(203.194 0 0)
(203.234 0 0)
(203.306 0 0)
(203.391 0 0)
(203.44 0 0)
(203.465 0 0)
(203.474 0 0)
(203.447 0 0)
(203.424 0 0)
(203.441 0 0)
(203.468 0 0)
(203.501 0 0)
(203.567 0 0)
(203.69 0 0)
(203.87 0 0)
(203.961 0 0)
(204.002 0 0)
(204.026 0 0)
(204.031 0 0)
(203.989 0 0)
(203.903 0 0)
(203.886 0 0)
(203.905 0 0)
(203.932 0 0)
(203.96 0 0)
(203.997 0 0)
(204.065 0 0)
(204.188 0 0)
(204.318 0 0)
(204.381 0 0)
(204.412 0 0)
(204.432 0 0)
(204.434 0 0)
(204.429 0 0)
(204.447 0 0)
(204.473 0 0)
(204.502 0 0)
(204.535 0 0)
(204.579 0 0)
(204.619 0 0)
(204.648 0 0)
(204.675 0 0)
(204.702 0 0)
(204.73 0 0)
(204.759 0 0)
(204.806 0 0)
(204.887 0 0)
(204.973 0 0)
(205.019 0 0)
(205.045 0 0)
(205.056 0 0)
(205.042 0 0)
(205.041 0 0)
(205.064 0 0)
(205.092 0 0)
(205.129 0 0)
(205.197 0 0)
(205.304 0 0)
(205.383 0 0)
(205.42 0 0)
(205.442 0 0)
(205.446 0 0)
(205.425 0 0)
(205.429 0 0)
(205.454 0 0)
(205.482 0 0)
(205.518 0 0)
(205.586 0 0)
(205.69 0 0)
(205.766 0 0)
(205.802 0 0)
(205.824 0 0)
(205.829 0 0)
(205.815 0 0)
(205.826 0 0)
(205.851 0 0)
(205.879 0 0)
(205.919 0 0)
(205.992 0 0)
(206.092 0 0)
(206.155 0 0)
(206.186 0 0)
(206.206 0 0)
(206.209 0 0)
(206.212 0 0)
(206.234 0 0)
(206.262 0 0)
(206.293 0 0)
(206.347 0 0)
(206.426 0 0)
(206.482 0 0)
(206.511 0 0)
(206.53 0 0)
(206.538 0 0)
(206.557 0 0)
(206.584 0 0)
(206.616 0 0)
(206.675 0 0)
(206.773 0 0)
(206.856 0 0)
(206.896 0 0)
(206.919 0 0)
(206.925 0 0)
(206.892 0 0)
(206.864 0 0)
(206.878 0 0)
(206.905 0 0)
(206.933 0 0)
(206.963 0 0)
(207.015 0 0)
(207.107 0 0)
(207.244 0 0)
(207.326 0 0)
(207.364 0 0)
(207.388 0 0)
(207.395 0 0)
(207.369 0 0)
(207.354 0 0)
(207.374 0 0)
(207.401 0 0)
(207.43 0 0)
(207.479 0 0)
(207.568 0 0)
(207.694 0 0)
(207.769 0 0)
(207.804 0 0)
(207.827 0 0)
(207.832 0 0)
(207.802 0 0)
(207.786 0 0)
(207.805 0 0)
(207.832 0 0)
(207.859 0 0)
(207.887 0 0)
(207.916 0 0)
(207.946 0 0)
(207.994 0 0)
(208.08 0 0)
(208.226 0 0)
(208.328 0 0)
(208.375 0 0)
(208.401 0 0)
(208.414 0 0)
(208.391 0 0)
(208.318 0 0)