/*--------------------------------*- C++ -*----------------------------------*\
  =========                 |
  \\      /  F ield         | OpenFOAM: The Open Source CFD Toolbox
   \\    /   O peration     | Website:  https://openfoam.org
    \\  /    A nd           | Version:  9
     \\/     M anipulation  |
\*---------------------------------------------------------------------------*/
FoamFile
{
    format      ascii;
    class       volScalarField;
    location    "0.006";
    object      mag(U);
}
// * * * * * * * * * * * * * * * * * * * * * * * * * * * * * * * * * * * * * //

dimensions      [0 1 -1 0 0 0 0];

internalField   nonuniform List<scalar> 
100
(
4.16438e-12
4.18141e-11
1.96754e-10
8.32224e-10
3.4056e-09
1.36727e-08
5.32038e-08
2.0269e-07
7.47244e-07
2.68918e-06
9.35598e-06
3.16771e-05
0.000103547
0.000328273
0.00100291
0.00296011
0.0083972
0.0229062
0.0598145
0.149232
0.353811
0.789913
1.63752
3.14785
5.63248
9.38871
14.6288
21.3775
29.5244
38.8174
48.9998
59.8377
71.1456
82.7858
94.6809
106.74
118.945
131.201
143.558
155.894
168.192
180.556
192.546
204.637
216.265
227.697
238.858
249.305
258.914
267.83
276.078
282.157
286.878
290.526
292.466
294.066
294.855
294.888
294.97
295.161
295.572
295.975
295.88
295.408
295.301
295.74
295.917
295.471
293.925
292.754
292.991
293.906
295.284
295.278
294.904
294.191
293.036
291.291
288.82
285.775
282.232
276.674
262.699
212.97
94.8095
15.8839
2.43246
0.360354
0.053833
0.0080811
0.00121396
0.000183076
2.76803e-05
4.19409e-06
6.36022e-07
9.64397e-08
1.46009e-08
2.20583e-09
3.3443e-10
3.05204e-11
)
;

boundaryField
{
    sides
    {
        type            calculated;
        value           nonuniform List<scalar> 2(3.05204e-11 4.16438e-12);
    }
    empty
    {
        type            empty;
    }
}


// ************************************************************************* //
