/*--------------------------------*- C++ -*----------------------------------*\
  =========                 |
  \\      /  F ield         | OpenFOAM: The Open Source CFD Toolbox
   \\    /   O peration     | Website:  https://openfoam.org
    \\  /    A nd           | Version:  9
     \\/     M anipulation  |
\*---------------------------------------------------------------------------*/
FoamFile
{
    format      ascii;
    class       surfaceScalarField;
    location    "0.028";
    object      phi;
}
// * * * * * * * * * * * * * * * * * * * * * * * * * * * * * * * * * * * * * //

dimensions      [1 0 -1 0 0 0 0];

internalField   nonuniform List<scalar> 
999
(
17.2295
17.8608
18.4918
19.1223
19.7526
20.3829
21.013
21.6426
22.2714
22.8994
23.5271
24.1548
24.7831
25.412
26.0417
26.672
27.3026
27.9332
28.5638
29.1944
29.8255
30.4571
31.0887
31.7202
32.3517
32.983
33.6142
34.2453
34.8763
35.5072
36.1381
36.7688
37.3995
38.0301
38.6606
39.2909
39.9213
40.5515
41.1816
41.8116
42.4416
43.0714
43.7012
44.3308
44.9604
45.5899
46.2193
46.8486
47.4778
48.1069
48.7359
49.3648
49.9937
50.6224
51.251
51.8796
52.508
53.1363
53.7646
54.3928
55.0208
55.6488
56.2766
56.9044
57.5321
58.1597
58.7871
59.4145
60.0418
60.669
61.2961
61.923
62.5499
63.1767
63.8034
64.43
65.0565
65.6829
66.3091
66.9353
67.5614
68.1874
68.8132
69.439
70.0647
70.6902
71.3157
71.941
72.5663
73.1913
73.8165
74.4413
75.0662
75.6908
76.3154
76.9399
77.5643
78.1885
78.8127
79.4368
80.0607
80.6845
81.3082
81.9318
82.5553
83.1787
83.8018
84.4252
85.048
85.6711
86.2938
86.9165
87.5392
88.1614
88.784
89.4061
90.0282
90.6503
91.272
91.8939
92.5156
93.137
93.7585
94.3797
95.0008
95.622
96.2428
96.8636
97.4844
98.1049
98.7253
99.3457
99.9658
100.586
101.206
101.826
102.445
103.065
103.684
104.304
104.923
105.542
106.161
106.78
107.398
108.017
108.635
109.254
109.872
110.49
111.108
111.726
112.343
112.961
113.578
114.195
114.813
115.43
116.046
116.663
117.28
117.896
118.512
119.129
119.745
120.361
120.976
121.592
122.207
122.823
123.438
124.053
124.668
125.283
125.898
126.512
127.126
127.741
128.355
128.969
129.582
130.196
130.81
131.423
132.036
132.649
133.262
133.875
134.488
135.1
135.713
136.325
136.937
137.549
138.16
138.772
139.384
139.995
140.606
141.217
141.828
142.438
143.049
143.659
144.27
144.88
145.49
146.099
146.709
147.318
147.928
148.537
149.146
149.755
150.363
150.972
151.58
152.188
152.796
153.404
154.012
154.619
155.227
155.834
156.441
157.048
157.654
158.261
158.867
159.473
160.079
160.685
161.291
161.896
162.502
163.107
163.712
164.317
164.921
165.526
166.13
166.734
167.338
167.942
168.545
169.149
169.752
170.355
170.958
171.56
172.163
172.765
173.367
173.969
174.571
175.173
175.774
176.375
176.976
177.577
178.178
178.778
179.378
179.978
180.578
181.178
181.777
182.377
182.976
183.574
184.173
184.772
185.37
185.968
186.566
187.163
187.761
188.358
188.955
189.552
190.149
190.745
191.341
191.937
192.533
193.129
193.724
194.319
194.914
195.509
196.103
196.698
197.292
197.885
198.479
199.072
199.665
200.258
200.851
201.443
202.036
202.628
203.219
203.811
204.402
204.993
205.584
206.175
206.765
207.355
207.945
208.534
209.124
209.713
210.301
210.89
211.478
212.066
212.654
213.241
213.829
214.416
215.002
215.589
216.175
216.761
217.346
217.932
218.517
219.101
219.686
220.27
220.854
221.437
222.021
222.604
223.186
223.769
224.351
224.933
225.514
226.095
226.676
227.256
227.836
228.416
228.996
229.575
230.154
230.732
231.31
231.888
232.465
233.042
233.619
234.195
234.771
235.347
235.922
236.497
237.071
237.645
238.219
238.792
239.365
239.937
240.509
241.081
241.652
242.222
242.793
243.362
243.932
244.501
245.069
245.637
246.204
246.771
247.338
247.904
248.469
249.034
249.598
250.162
250.725
251.288
251.85
252.412
252.973
253.533
254.093
254.652
255.211
255.77
256.328
256.885
257.442
257.997
258.552
259.106
259.66
260.213
260.765
261.316
261.867
262.417
262.966
263.515
264.063
264.61
265.156
265.701
266.246
266.79
267.333
267.875
268.416
268.957
269.496
270.035
270.573
271.11
271.646
272.182
272.716
273.25
273.782
274.314
274.845
275.375
275.904
276.432
276.959
277.486
278.011
278.536
279.059
279.582
280.104
280.625
281.146
281.665
282.184
282.702
283.219
283.735
284.251
284.766
285.28
285.793
286.306
286.818
287.33
287.841
288.352
288.862
289.372
289.881
290.39
290.898
291.406
291.914
292.421
292.929
293.436
293.943
294.45
294.956
295.463
295.97
296.477
296.983
297.49
297.997
298.504
299.012
299.519
300.027
300.535
301.043
301.552
302.061
302.57
303.08
303.59
304.101
304.612
305.123
305.635
306.147
306.66
307.174
307.688
308.202
308.717
309.233
309.749
310.266
310.783
311.301
311.82
312.339
312.859
313.379
313.901
314.422
314.945
315.467
315.991
316.515
317.04
317.566
318.092
318.619
319.146
319.674
320.203
320.732
321.262
321.793
322.324
322.856
323.389
323.922
324.456
324.991
325.526
326.062
326.599
327.136
327.674
328.212
328.752
329.292
329.832
330.373
330.915
331.458
332.001
332.545
333.089
333.634
334.18
334.727
335.274
335.822
336.37
336.919
337.469
338.019
338.57
339.122
339.674
340.228
340.781
341.336
341.891
342.446
343.003
343.56
344.117
344.676
345.235
345.794
346.355
346.915
347.477
348.039
348.602
349.166
349.73
350.295
350.86
351.426
351.993
352.561
353.129
353.698
354.267
354.837
355.408
355.979
356.551
357.124
357.697
358.271
358.846
359.421
359.997
360.573
361.151
361.728
362.307
362.886
363.466
364.046
364.627
365.209
365.791
366.374
366.957
367.542
368.126
368.712
369.298
369.885
370.472
371.06
371.648
372.237
372.827
373.418
374.009
374.6
375.193
375.785
376.379
376.973
377.568
378.163
378.759
379.355
379.952
380.55
381.148
381.747
382.346
382.946
383.547
384.148
384.75
385.352
385.955
386.559
387.163
387.767
388.372
388.978
389.584
390.191
390.798
391.406
392.015
392.624
393.233
393.843
394.453
395.065
395.676
396.288
396.901
397.514
398.127
398.741
399.356
399.971
400.586
401.202
401.818
402.435
403.052
403.67
404.288
404.907
405.526
406.145
406.765
407.385
408.006
408.627
409.248
409.87
410.492
411.114
411.737
412.36
412.984
413.608
414.232
414.856
415.481
416.106
416.731
417.357
417.983
418.609
419.235
419.862
420.488
421.115
421.743
422.37
422.997
423.625
424.253
424.88
425.508
426.136
426.765
427.393
428.021
428.649
429.277
429.906
430.534
431.162
431.79
432.418
433.046
433.674
434.302
434.929
435.556
436.184
436.81
437.437
438.063
438.689
439.315
439.94
440.565
441.19
441.814
442.437
443.06
443.683
444.305
444.926
445.547
446.167
446.786
447.404
448.022
448.639
449.255
449.87
450.484
451.097
451.709
452.32
452.93
453.539
454.146
454.753
455.357
455.961
456.563
457.163
457.762
458.36
458.955
459.549
460.141
460.732
461.32
461.907
462.491
463.073
463.653
464.231
464.806
465.379
465.95
466.518
467.083
467.646
468.206
468.763
469.317
469.868
470.416
470.961
471.502
472.04
472.574
473.105
473.633
474.156
474.676
475.192
475.704
476.212
476.715
477.215
477.709
478.2
478.686
479.167
479.643
480.115
480.581
481.043
481.5
481.951
482.397
482.837
483.273
483.702
484.126
484.544
484.957
485.363
485.764
486.159
486.547
486.929
487.306
487.675
488.039
488.396
488.747
489.091
489.429
489.76
490.085
490.403
490.714
491.019
491.317
491.608
491.893
492.171
492.442
492.707
492.965
493.217
493.461
493.699
493.931
494.156
494.375
494.587
494.793
494.993
495.186
495.374
495.555
495.73
495.899
496.063
496.22
496.373
496.519
496.66
496.796
496.927
497.051
497.172
497.287
497.398
497.504
497.606
497.702
497.795
497.883
497.968
498.048
498.125
498.197
498.267
498.332
498.395
498.454
498.51
498.562
498.613
498.66
498.704
498.746
498.785
498.822
498.857
498.889
498.919
498.947
498.973
498.997
499.02
499.04
499.059
499.077
499.093
499.107
499.12
499.132
499.142
499.151
499.16
499.166
499.173
499.177
499.182
499.185
499.187
499.189
499.19
499.19
499.19
499.189
499.188
499.186
499.184
499.182
499.179
499.176
499.172
499.169
499.165
499.162
499.158
499.154
499.15
499.146
499.142
499.138
499.135
499.13
499.127
499.123
499.12
499.117
499.113
499.111
499.108
499.105
499.102
499.1
499.098
499.096
499.093
499.091
499.089
499.088
499.086
499.084
499.083
499.081
499.08
499.078
499.077
499.076
499.075
499.073
499.072
499.071
499.07
499.069
499.067
499.066
499.065
499.064
499.063
499.062
499.061
499.06
499.058
499.058
499.056
499.056
499.055
499.054
499.053
499.052
499.051
499.05
499.049
499.048
499.047
499.046
499.046
499.045
499.044
499.043
499.043
499.042
499.041
499.04
499.04
499.039
499.038
499.038
499.037
499.036
499.035
499.035
499.034
499.033
499.033
499.032
499.031
499.03
499.03
499.029
499.028
499.027
499.027
499.026
499.025
499.024
)
;

boundaryField
{
    sides
    {
        type            calculated;
        value           nonuniform List<scalar> 2(499.024 -16.5979);
    }
    empty
    {
        type            empty;
        value           nonuniform List<scalar> 0();
    }
}


// ************************************************************************* //
