/*--------------------------------*- C++ -*----------------------------------*\
  =========                 |
  \\      /  F ield         | OpenFOAM: The Open Source CFD Toolbox
   \\    /   O peration     | Website:  https://openfoam.org
    \\  /    A nd           | Version:  9
     \\/     M anipulation  |
\*---------------------------------------------------------------------------*/
FoamFile
{
    format      ascii;
    class       volScalarField;
    location    "0.028";
    object      T;
}
// * * * * * * * * * * * * * * * * * * * * * * * * * * * * * * * * * * * * * //

dimensions      [0 0 0 1 0 0 0];

internalField   nonuniform List<scalar> 
1000
(
226.937
226.955
226.99
227.029
227.069
227.104
227.136
227.168
227.204
227.245
227.289
227.331
227.366
227.392
227.409
227.418
227.421
227.421
227.421
227.42
227.416
227.407
227.395
227.383
227.371
227.36
227.348
227.337
227.326
227.314
227.303
227.292
227.28
227.269
227.258
227.246
227.235
227.224
227.212
227.201
227.19
227.178
227.167
227.156
227.144
227.133
227.122
227.11
227.099
227.087
227.076
227.065
227.053
227.042
227.03
227.019
227.007
226.996
226.985
226.973
226.962
226.95
226.939
226.927
226.916
226.904
226.892
226.881
226.869
226.858
226.846
226.835
226.823
226.812
226.8
226.788
226.777
226.765
226.754
226.742
226.73
226.719
226.707
226.695
226.684
226.672
226.661
226.648
226.637
226.625
226.614
226.601
226.592
226.577
226.569
226.553
226.545
226.529
226.522
226.506
226.498
226.482
226.474
226.459
226.451
226.435
226.426
226.413
226.401
226.39
226.377
226.367
226.353
226.342
226.331
226.317
226.307
226.294
226.282
226.271
226.258
226.247
226.235
226.222
226.211
226.199
226.186
226.175
226.163
226.15
226.139
226.127
226.114
226.103
226.09
226.078
226.066
226.054
226.042
226.03
226.018
226.006
225.994
225.981
225.969
225.957
225.945
225.933
225.921
225.909
225.896
225.884
225.872
225.86
225.847
225.835
225.823
225.811
225.799
225.786
225.774
225.762
225.75
225.737
225.725
225.713
225.7
225.688
225.676
225.663
225.651
225.639
225.626
225.614
225.602
225.589
225.577
225.565
225.552
225.54
225.527
225.515
225.502
225.49
225.478
225.465
225.453
225.44
225.428
225.415
225.403
225.39
225.378
225.365
225.353
225.341
225.328
225.315
225.303
225.29
225.278
225.265
225.253
225.24
225.228
225.215
225.203
225.19
225.178
225.165
225.152
225.14
225.127
225.115
225.102
225.09
225.077
225.064
225.052
225.039
225.027
225.014
225.001
224.989
224.976
224.964
224.951
224.938
224.926
224.913
224.9
224.888
224.875
224.862
224.85
224.837
224.825
224.812
224.799
224.787
224.774
224.761
224.749
224.736
224.723
224.711
224.698
224.686
224.673
224.66
224.648
224.635
224.622
224.61
224.597
224.585
224.572
224.559
224.547
224.534
224.522
224.509
224.497
224.484
224.471
224.459
224.446
224.434
224.421
224.409
224.396
224.384
224.371
224.359
224.346
224.334
224.321
224.309
224.296
224.284
224.272
224.259
224.247
224.234
224.222
224.21
224.197
224.185
224.173
224.161
224.148
224.136
224.124
224.112
224.1
224.087
224.075
224.063
224.051
224.039
224.027
224.015
224.003
223.991
223.979
223.968
223.956
223.944
223.932
223.92
223.909
223.897
223.885
223.874
223.862
223.851
223.839
223.828
223.816
223.805
223.794
223.783
223.771
223.76
223.749
223.738
223.727
223.716
223.705
223.695
223.684
223.673
223.663
223.652
223.642
223.631
223.621
223.611
223.601
223.591
223.581
223.571
223.561
223.551
223.542
223.532
223.523
223.513
223.504
223.495
223.486
223.477
223.469
223.46
223.451
223.443
223.435
223.427
223.419
223.411
223.403
223.396
223.389
223.381
223.374
223.368
223.361
223.355
223.348
223.342
223.336
223.331
223.325
223.32
223.315
223.31
223.306
223.302
223.298
223.294
223.291
223.287
223.284
223.282
223.28
223.278
223.276
223.275
223.274
223.273
223.273
223.273
223.274
223.274
223.275
223.276
223.278
223.281
223.284
223.287
223.291
223.296
223.301
223.306
223.312
223.318
223.325
223.333
223.341
223.35
223.359
223.369
223.38
223.391
223.403
223.415
223.429
223.443
223.457
223.473
223.489
223.506
223.524
223.542
223.562
223.582
223.603
223.625
223.647
223.671
223.695
223.721
223.747
223.774
223.802
223.831
223.861
223.892
223.924
223.957
223.991
224.025
224.061
224.098
224.135
224.174
224.213
224.254
224.295
224.337
224.38
224.424
224.469
224.515
224.562
224.609
224.657
224.707
224.756
224.807
224.859
224.911
224.964
225.017
225.071
225.126
225.182
225.238
225.294
225.351
225.409
225.467
225.526
225.585
225.645
225.705
225.765
225.826
225.887
225.948
226.01
226.072
226.134
226.196
226.259
226.322
226.385
226.448
226.512
226.576
226.639
226.703
226.767
226.832
226.896
226.96
227.025
227.09
227.154
227.219
227.284
227.349
227.414
227.479
227.544
227.609
227.674
227.739
227.805
227.87
227.935
228.001
228.066
228.132
228.197
228.263
228.328
228.394
228.459
228.525
228.591
228.657
228.722
228.788
228.854
228.92
228.985
229.051
229.117
229.183
229.249
229.315
229.381
229.447
229.513
229.579
229.645
229.711
229.777
229.844
229.909
229.976
230.042
230.108
230.174
230.241
230.307
230.373
230.44
230.506
230.572
230.639
230.705
230.772
230.838
230.905
230.971
231.038
231.104
231.171
231.237
231.304
231.371
231.437
231.504
231.571
231.637
231.704
231.771
231.837
231.904
231.971
232.038
232.104
232.171
232.238
232.305
232.372
232.439
232.506
232.572
232.639
232.706
232.773
232.84
232.907
232.974
233.041
233.108
233.175
233.242
233.309
233.376
233.443
233.51
233.578
233.645
233.712
233.779
233.846
233.913
233.98
234.047
234.115
234.181
234.249
234.316
234.383
234.45
234.518
234.584
234.652
234.719
234.786
234.853
234.921
234.988
235.055
235.122
235.19
235.256
235.324
235.391
235.459
235.525
235.593
235.66
235.728
235.794
235.862
235.929
235.996
236.063
236.131
236.198
236.265
236.332
236.4
236.466
236.534
236.601
236.669
236.735
236.803
236.87
236.937
237.004
237.072
237.138
237.206
237.272
237.34
237.407
237.474
237.541
237.609
237.675
237.743
237.809
237.877
237.943
238.011
238.077
238.145
238.211
238.279
238.345
238.413
238.479
238.547
238.613
238.68
238.747
238.814
238.88
238.948
239.014
239.081
239.147
239.215
239.281
239.348
239.414
239.481
239.547
239.614
239.68
239.747
239.813
239.88
239.946
240.013
240.079
240.145
240.211
240.278
240.343
240.41
240.475
240.542
240.607
240.674
240.739
240.805
240.87
240.937
241.002
241.068
241.133
241.199
241.263
241.329
241.394
241.459
241.524
241.589
241.654
241.719
241.783
241.848
241.912
241.977
242.041
242.106
242.169
242.234
242.297
242.361
242.424
242.488
242.551
242.615
242.678
242.741
242.803
242.867
242.929
242.992
243.053
243.116
243.177
243.24
243.301
243.363
243.424
243.485
243.545
243.607
243.667
243.727
243.787
243.847
243.906
243.966
244.025
244.084
244.142
244.201
244.259
244.317
244.374
244.432
244.488
244.546
244.602
244.658
244.713
244.77
244.824
244.88
244.933
244.988
245.041
245.095
245.147
245.201
245.252
245.305
245.355
245.407
245.457
245.508
245.557
245.606
245.654
245.703
245.75
245.799
245.845
245.892
245.937
245.983
246.027
246.072
246.115
246.158
246.2
246.243
246.284
246.325
246.365
246.405
246.443
246.483
246.52
246.558
246.594
246.63
246.665
246.701
246.734
246.768
246.8
246.833
246.864
246.895
246.925
246.955
246.983
247.012
247.039
247.067
247.092
247.119
247.143
247.168
247.191
247.215
247.236
247.259
247.279
247.301
247.319
247.341
247.357
247.378
247.393
247.412
247.426
247.445
247.457
247.475
247.485
247.503
247.512
247.53
247.536
247.554
247.559
247.576
247.58
247.597
247.6
247.615
247.618
247.633
247.634
247.649
247.65
247.664
247.664
247.677
247.678
247.69
247.69
247.702
247.702
247.714
247.714
247.725
247.726
247.737
247.737
247.748
247.749
247.76
247.761
247.773
247.774
247.787
247.787
247.801
247.802
247.817
247.818
247.834
247.835
247.853
247.854
247.873
247.874
247.895
247.896
247.919
247.92
247.944
247.945
247.971
247.972
247.998
247.999
248.027
248.027
248.056
248.056
248.085
248.085
248.114
248.114
248.142
248.143
248.17
248.17
248.196
248.196
248.221
248.221
248.245
248.245
248.266
248.267
248.285
248.286
248.303
248.303
248.319
248.32
248.333
248.334
248.345
248.346
248.356
248.357
248.366
248.366
248.374
248.374
248.381
248.381
248.387
248.387
248.393
248.393
248.397
248.398
248.402
248.402
248.406
248.406
248.41
248.41
248.413
248.414
248.417
248.417
248.42
248.42
248.423
248.423
248.426
248.426
248.429
248.429
248.431
248.431
248.433
248.433
248.435
248.435
248.437
248.437
248.438
248.439
248.44
248.44
248.441
248.441
248.442
248.442
248.443
248.443
248.444
248.444
248.445
248.445
248.446
248.446
248.446
248.446
248.447
248.447
248.448
248.448
248.449
248.449
248.449
248.449
248.45
248.45
248.451
)
;

boundaryField
{
    sides
    {
        type            zeroGradient;
    }
    empty
    {
        type            empty;
    }
}


// ************************************************************************* //
