/*--------------------------------*- C++ -*----------------------------------*\
  =========                 |
  \\      /  F ield         | OpenFOAM: The Open Source CFD Toolbox
   \\    /   O peration     | Website:  https://openfoam.org
    \\  /    A nd           | Version:  9
     \\/     M anipulation  |
\*---------------------------------------------------------------------------*/
FoamFile
{
    format      ascii;
    class       volVectorField;
    location    "0.033";
    object      U;
}
// * * * * * * * * * * * * * * * * * * * * * * * * * * * * * * * * * * * * * //

dimensions      [0 1 -1 0 0 0 0];

internalField   nonuniform List<vector> 
10000
(
(190.886 0 0)
(190.926 0 0)
(190.949 0 0)
(190.974 0 0)
(190.999 0 0)
(191.024 0 0)
(191.049 0 0)
(191.074 0 0)
(191.098 0 0)
(191.123 0 0)
(191.148 0 0)
(191.173 0 0)
(191.198 0 0)
(191.223 0 0)
(191.248 0 0)
(191.273 0 0)
(191.298 0 0)
(191.322 0 0)
(191.347 0 0)
(191.372 0 0)
(191.397 0 0)
(191.422 0 0)
(191.446 0 0)
(191.471 0 0)
(191.496 0 0)
(191.521 0 0)
(191.546 0 0)
(191.57 0 0)
(191.595 0 0)
(191.62 0 0)
(191.645 0 0)
(191.67 0 0)
(191.695 0 0)
(191.719 0 0)
(191.744 0 0)
(191.769 0 0)
(191.794 0 0)
(191.819 0 0)
(191.844 0 0)
(191.869 0 0)
(191.894 0 0)
(191.919 0 0)
(191.944 0 0)
(191.968 0 0)
(191.993 0 0)
(192.018 0 0)
(192.043 0 0)
(192.068 0 0)
(192.092 0 0)
(192.117 0 0)
(192.142 0 0)
(192.167 0 0)
(192.192 0 0)
(192.217 0 0)
(192.241 0 0)
(192.266 0 0)
(192.291 0 0)
(192.316 0 0)
(192.341 0 0)
(192.366 0 0)
(192.391 0 0)
(192.416 0 0)
(192.44 0 0)
(192.465 0 0)
(192.49 0 0)
(192.515 0 0)
(192.54 0 0)
(192.565 0 0)
(192.59 0 0)
(192.615 0 0)
(192.64 0 0)
(192.664 0 0)
(192.689 0 0)
(192.714 0 0)
(192.739 0 0)
(192.764 0 0)
(192.789 0 0)
(192.814 0 0)
(192.839 0 0)
(192.863 0 0)
(192.888 0 0)
(192.913 0 0)
(192.938 0 0)
(192.963 0 0)
(192.988 0 0)
(193.012 0 0)
(193.037 0 0)
(193.062 0 0)
(193.087 0 0)
(193.112 0 0)
(193.137 0 0)
(193.162 0 0)
(193.186 0 0)
(193.211 0 0)
(193.236 0 0)
(193.261 0 0)
(193.286 0 0)
(193.31 0 0)
(193.335 0 0)
(193.36 0 0)
(193.385 0 0)
(193.41 0 0)
(193.435 0 0)
(193.46 0 0)
(193.485 0 0)
(193.509 0 0)
(193.534 0 0)
(193.559 0 0)
(193.584 0 0)
(193.609 0 0)
(193.634 0 0)
(193.659 0 0)
(193.684 0 0)
(193.708 0 0)
(193.733 0 0)
(193.758 0 0)
(193.783 0 0)
(193.808 0 0)
(193.832 0 0)
(193.857 0 0)
(193.882 0 0)
(193.907 0 0)
(193.932 0 0)
(193.957 0 0)
(193.982 0 0)
(194.006 0 0)
(194.031 0 0)
(194.056 0 0)
(194.081 0 0)
(194.106 0 0)
(194.131 0 0)
(194.156 0 0)
(194.181 0 0)
(194.206 0 0)
(194.231 0 0)
(194.255 0 0)
(194.279 0 0)
(194.303 0 0)
(194.328 0 0)
(194.354 0 0)
(194.381 0 0)
(194.406 0 0)
(194.431 0 0)
(194.454 0 0)
(194.478 0 0)
(194.502 0 0)
(194.527 0 0)
(194.553 0 0)
(194.58 0 0)
(194.605 0 0)
(194.63 0 0)
(194.653 0 0)
(194.676 0 0)
(194.7 0 0)
(194.725 0 0)
(194.753 0 0)
(194.782 0 0)
(194.807 0 0)
(194.83 0 0)
(194.851 0 0)
(194.873 0 0)
(194.895 0 0)
(194.921 0 0)
(194.953 0 0)
(194.984 0 0)
(195.008 0 0)
(195.029 0 0)
(195.049 0 0)
(195.07 0 0)
(195.093 0 0)
(195.118 0 0)
(195.149 0 0)
(195.181 0 0)
(195.206 0 0)
(195.228 0 0)
(195.248 0 0)
(195.27 0 0)
(195.293 0 0)
(195.319 0 0)
(195.35 0 0)
(195.379 0 0)
(195.402 0 0)
(195.423 0 0)
(195.445 0 0)
(195.468 0 0)
(195.495 0 0)
(195.525 0 0)
(195.551 0 0)
(195.574 0 0)
(195.595 0 0)
(195.616 0 0)
(195.642 0 0)
(195.674 0 0)
(195.705 0 0)
(195.728 0 0)
(195.747 0 0)
(195.767 0 0)
(195.787 0 0)
(195.811 0 0)
(195.845 0 0)
(195.881 0 0)
(195.905 0 0)
(195.924 0 0)
(195.943 0 0)
(195.962 0 0)
(195.983 0 0)
(196.012 0 0)
(196.051 0 0)
(196.081 0 0)
(196.101 0 0)
(196.119 0 0)
(196.138 0 0)
(196.157 0 0)
(196.179 0 0)
(196.214 0 0)
(196.254 0 0)
(196.279 0 0)
(196.297 0 0)
(196.315 0 0)
(196.334 0 0)
(196.354 0 0)
(196.378 0 0)
(196.411 0 0)
(196.444 0 0)
(196.47 0 0)
(196.492 0 0)
(196.515 0 0)
(196.545 0 0)
(196.575 0 0)
(196.596 0 0)
(196.616 0 0)
(196.635 0 0)
(196.655 0 0)
(196.68 0 0)
(196.715 0 0)
(196.749 0 0)
(196.771 0 0)
(196.79 0 0)
(196.809 0 0)
(196.833 0 0)
(196.866 0 0)
(196.898 0 0)
(196.919 0 0)
(196.937 0 0)
(196.956 0 0)
(196.975 0 0)
(197.002 0 0)
(197.043 0 0)
(197.079 0 0)
(197.1 0 0)
(197.116 0 0)
(197.133 0 0)
(197.151 0 0)
(197.17 0 0)
(197.198 0 0)
(197.244 0 0)
(197.285 0 0)
(197.306 0 0)
(197.321 0 0)
(197.334 0 0)
(197.351 0 0)
(197.369 0 0)
(197.389 0 0)
(197.423 0 0)
(197.472 0 0)
(197.506 0 0)
(197.524 0 0)
(197.538 0 0)
(197.55 0 0)
(197.568 0 0)
(197.587 0 0)
(197.611 0 0)
(197.655 0 0)
(197.703 0 0)
(197.728 0 0)
(197.744 0 0)
(197.756 0 0)
(197.77 0 0)
(197.789 0 0)
(197.809 0 0)
(197.843 0 0)
(197.894 0 0)
(197.93 0 0)
(197.949 0 0)
(197.962 0 0)
(197.973 0 0)
(197.99 0 0)
(198.008 0 0)
(198.028 0 0)
(198.062 0 0)
(198.115 0 0)
(198.157 0 0)
(198.177 0 0)
(198.192 0 0)
(198.204 0 0)
(198.222 0 0)
(198.241 0 0)
(198.267 0 0)
(198.31 0 0)
(198.35 0 0)
(198.371 0 0)
(198.387 0 0)
(198.402 0 0)
(198.42 0 0)
(198.439 0 0)
(198.464 0 0)
(198.505 0 0)
(198.545 0 0)
(198.566 0 0)
(198.584 0 0)
(198.602 0 0)
(198.621 0 0)
(198.646 0 0)
(198.682 0 0)
(198.712 0 0)
(198.732 0 0)
(198.75 0 0)
(198.769 0 0)
(198.789 0 0)
(198.819 0 0)
(198.86 0 0)
(198.89 0 0)
(198.909 0 0)
(198.925 0 0)
(198.942 0 0)
(198.961 0 0)
(198.981 0 0)
(199.016 0 0)
(199.063 0 0)
(199.093 0 0)
(199.111 0 0)
(199.125 0 0)
(199.14 0 0)
(199.158 0 0)
(199.177 0 0)
(199.197 0 0)
(199.226 0 0)
(199.276 0 0)
(199.326 0 0)
(199.352 0 0)
(199.369 0 0)
(199.385 0 0)
(199.403 0 0)
(199.422 0 0)
(199.44 0 0)
(199.46 0 0)
(199.483 0 0)
(199.521 0 0)
(199.562 0 0)
(199.586 0 0)
(199.603 0 0)
(199.617 0 0)
(199.631 0 0)
(199.65 0 0)
(199.669 0 0)
(199.696 0 0)
(199.746 0 0)
(199.802 0 0)
(199.831 0 0)
(199.848 0 0)
(199.858 0 0)
(199.868 0 0)
(199.886 0 0)
(199.905 0 0)
(199.929 0 0)
(199.971 0 0)
(200.017 0 0)
(200.04 0 0)
(200.056 0 0)
(200.068 0 0)
(200.082 0 0)
(200.101 0 0)
(200.121 0 0)
(200.155 0 0)
(200.206 0 0)
(200.241 0 0)
(200.259 0 0)
(200.271 0 0)
(200.279 0 0)
(200.294 0 0)
(200.313 0 0)
(200.334 0 0)
(200.374 0 0)
(200.434 0 0)
(200.482 0 0)
(200.504 0 0)
(200.518 0 0)
(200.522 0 0)
(200.53 0 0)
(200.547 0 0)
(200.566 0 0)
(200.588 0 0)
(200.627 0 0)
(200.683 0 0)
(200.721 0 0)
(200.74 0 0)
(200.752 0 0)
(200.758 0 0)
(200.771 0 0)
(200.79 0 0)
(200.81 0 0)
(200.843 0 0)
(200.899 0 0)
(200.948 0 0)
(200.972 0 0)
(200.986 0 0)
(200.992 0 0)
(201 0 0)
(201.017 0 0)
(201.036 0 0)
(201.061 0 0)
(201.107 0 0)
(201.164 0 0)
(201.197 0 0)
(201.215 0 0)
(201.225 0 0)
(201.23 0 0)
(201.245 0 0)
(201.264 0 0)
(201.284 0 0)
(201.322 0 0)
(201.377 0 0)
(201.414 0 0)
(201.433 0 0)
(201.445 0 0)
(201.453 0 0)
(201.469 0 0)
(201.487 0 0)
(201.51 0 0)
(201.551 0 0)
(201.605 0 0)
(201.638 0 0)
(201.656 0 0)
(201.669 0 0)
(201.685 0 0)
(201.703 0 0)
(201.723 0 0)
(201.748 0 0)
(201.781 0 0)
(201.81 0 0)
(201.834 0 0)
(201.858 0 0)
(201.887 0 0)
(201.918 0 0)
(201.94 0 0)
(201.959 0 0)
(201.977 0 0)
(201.995 0 0)
(202.014 0 0)
(202.035 0 0)
(202.07 0 0)
(202.12 0 0)
(202.154 0 0)
(202.172 0 0)
(202.186 0 0)
(202.2 0 0)
(202.219 0 0)
(202.238 0 0)
(202.27 0 0)
(202.315 0 0)
(202.349 0 0)
(202.368 0 0)
(202.385 0 0)
(202.403 0 0)
(202.423 0 0)
(202.447 0 0)
(202.482 0 0)
(202.513 0 0)
(202.534 0 0)
(202.552 0 0)
(202.57 0 0)
(202.59 0 0)
(202.612 0 0)
(202.649 0 0)
(202.693 0 0)
(202.718 0 0)
(202.735 0 0)
(202.749 0 0)
(202.764 0 0)
(202.783 0 0)
(202.804 0 0)
(202.84 0 0)
(202.891 0 0)
(202.925 0 0)
(202.943 0 0)
(202.956 0 0)
(202.968 0 0)
(202.985 0 0)
(203.005 0 0)
(203.033 0 0)
(203.081 0 0)
(203.13 0 0)
(203.154 0 0)
(203.17 0 0)
(203.181 0 0)
(203.194 0 0)
(203.213 0 0)
(203.232 0 0)
(203.251 0 0)
(203.272 0 0)
(203.309 0 0)
(203.363 0 0)
(203.404 0 0)
(203.424 0 0)
(203.439 0 0)
(203.449 0 0)
(203.464 0 0)
(203.482 0 0)
(203.502 0 0)
(203.522 0 0)
(203.557 0 0)
(203.609 0 0)
(203.646 0 0)
(203.665 0 0)
(203.679 0 0)
(203.69 0 0)
(203.707 0 0)
(203.726 0 0)
(203.752 0 0)
(203.797 0 0)
(203.844 0 0)
(203.867 0 0)
(203.883 0 0)
(203.893 0 0)
(203.907 0 0)
(203.926 0 0)
(203.947 0 0)
(203.985 0 0)
(204.037 0 0)
(204.071 0 0)
(204.089 0 0)
(204.101 0 0)
(204.112 0 0)
(204.129 0 0)
(204.148 0 0)
(204.174 0 0)
(204.22 0 0)
(204.266 0 0)
(204.289 0 0)
(204.305 0 0)
(204.315 0 0)
(204.33 0 0)
(204.349 0 0)
(204.37 0 0)
(204.407 0 0)
(204.459 0 0)
(204.493 0 0)
(204.511 0 0)
(204.524 0 0)
(204.536 0 0)
(204.554 0 0)
(204.574 0 0)
(204.603 0 0)
(204.647 0 0)
(204.684 0 0)
(204.704 0 0)
(204.721 0 0)
(204.736 0 0)
(204.755 0 0)
(204.775 0 0)
(204.805 0 0)
(204.848 0 0)
(204.879 0 0)
(204.898 0 0)
(204.915 0 0)
(204.933 0 0)
(204.952 0 0)
(204.973 0 0)
(205.007 0 0)
(205.049 0 0)
(205.077 0 0)
(205.096 0 0)
(205.114 0 0)
(205.133 0 0)
(205.153 0 0)
(205.18 0 0)
(205.213 0 0)
(205.237 0 0)
(205.256 0 0)
(205.275 0 0)
(205.293 0 0)
(205.313 0 0)
(205.334 0 0)
(205.373 0 0)
(205.432 0 0)
(205.476 0 0)
(205.498 0 0)
(205.512 0 0)
(205.514 0 0)
(205.518 0 0)
(205.534 0 0)
(205.553 0 0)
(205.574 0 0)
(205.61 0 0)
(205.668 0 0)
(205.718 0 0)
(205.742 0 0)
(205.758 0 0)
(205.764 0 0)
(205.773 0 0)
(205.791 0 0)
(205.81 0 0)
(205.835 0 0)
(205.879 0 0)
(205.928 0 0)
(205.953 0 0)
(205.969 0 0)
(205.979 0 0)
(205.992 0 0)
(206.01 0 0)
(206.03 0 0)
(206.061 0 0)
(206.112 0 0)
(206.156 0 0)
(206.178 0 0)
(206.193 0 0)
(206.202 0 0)
(206.217 0 0)
(206.236 0 0)
(206.258 0 0)
(206.298 0 0)
(206.354 0 0)
(206.391 0 0)
(206.41 0 0)
(206.421 0 0)
(206.424 0 0)
(206.436 0 0)
(206.454 0 0)
(206.474 0 0)
(206.504 0 0)
(206.557 0 0)
(206.61 0 0)
(206.636 0 0)
(206.653 0 0)
(206.662 0 0)
(206.673 0 0)
(206.691 0 0)
(206.711 0 0)
(206.736 0 0)
(206.78 0 0)
(206.829 0 0)
(206.854 0 0)
(206.872 0 0)
(206.885 0 0)
(206.901 0 0)
(206.92 0 0)
(206.94 0 0)
(206.959 0 0)
(206.981 0 0)
(207.004 0 0)
(207.039 0 0)
(207.086 0 0)
(207.121 0 0)
(207.141 0 0)
(207.159 0 0)
(207.177 0 0)
(207.196 0 0)
(207.215 0 0)
(207.235 0 0)
(207.262 0 0)
(207.298 0 0)
(207.328 0 0)
(207.348 0 0)
(207.366 0 0)
(207.384 0 0)
(207.403 0 0)
(207.423 0 0)
(207.449 0 0)
(207.496 0 0)
(207.546 0 0)
(207.572 0 0)
(207.589 0 0)
(207.601 0 0)
(207.615 0 0)
(207.634 0 0)
(207.654 0 0)
(207.685 0 0)
(207.727 0 0)
(207.756 0 0)
(207.775 0 0)
(207.79 0 0)
(207.806 0 0)
(207.824 0 0)
(207.844 0 0)
(207.875 0 0)
(207.929 0 0)
(207.984 0 0)
(208.012 0 0)
(208.028 0 0)
(208.035 0 0)
(208.035 0 0)
(208.048 0 0)
(208.067 0 0)
(208.087 0 0)
(208.118 0 0)
(208.17 0 0)
(208.222 0 0)
(208.249 0 0)
(208.265 0 0)
(208.274 0 0)
(208.283 0 0)
(208.3 0 0)
(208.32 0 0)
(208.343 0 0)
(208.385 0 0)
(208.44 0 0)
(208.472 0 0)
(208.491 0 0)
(208.505 0 0)
(208.518 0 0)
(208.537 0 0)
(208.557 0 0)
(208.58 0 0)
(208.609 0 0)
(208.635 0 0)
(208.656 0 0)
(208.676 0 0)
(208.696 0 0)
(208.723 0 0)
(208.764 0 0)
(208.803 0 0)
(208.825 0 0)
(208.842 0 0)
(208.858 0 0)
(208.876 0 0)
(208.896 0 0)
(208.92 0 0)
(208.963 0 0)
(209.017 0 0)
(209.048 0 0)
(209.066 0 0)
(209.078 0 0)
(209.091 0 0)
(209.11 0 0)
(209.13 0 0)
(209.154 0 0)
(209.188 0 0)
(209.22 0 0)
(209.241 0 0)
(209.261 0 0)
(209.28 0 0)
(209.301 0 0)
(209.325 0 0)
(209.35 0 0)
(209.371 0 0)
(209.391 0 0)
(209.41 0 0)
(209.43 0 0)
(209.454 0 0)
(209.498 0 0)
(209.553 0 0)
(209.585 0 0)
(209.604 0 0)
(209.616 0 0)
(209.626 0 0)
(209.643 0 0)
(209.663 0 0)
(209.686 0 0)
(209.726 0 0)
(209.774 0 0)
(209.802 0 0)
(209.82 0 0)
(209.832 0 0)
(209.847 0 0)
(209.866 0 0)
(209.886 0 0)
(209.917 0 0)
(209.964 0 0)
(210 0 0)
(210.02 0 0)
(210.035 0 0)
(210.048 0 0)
(210.066 0 0)
(210.086 0 0)
(210.112 0 0)
(210.158 0 0)
(210.21 0 0)
(210.237 0 0)
(210.255 0 0)
(210.267 0 0)
(210.28 0 0)
(210.298 0 0)
(210.318 0 0)
(210.343 0 0)
(210.378 0 0)
(210.413 0 0)
(210.435 0 0)
(210.454 0 0)
(210.474 0 0)
(210.495 0 0)
(210.521 0 0)
(210.548 0 0)
(210.57 0 0)
(210.589 0 0)
(210.609 0 0)
(210.629 0 0)
(210.656 0 0)
(210.704 0 0)
(210.752 0 0)
(210.776 0 0)
(210.794 0 0)
(210.807 0 0)
(210.823 0 0)
(210.842 0 0)
(210.862 0 0)
(210.885 0 0)
(210.909 0 0)
(210.931 0 0)
(210.952 0 0)
(210.972 0 0)
(210.994 0 0)
(211.03 0 0)
(211.087 0 0)
(211.136 0 0)
(211.16 0 0)
(211.177 0 0)
(211.187 0 0)
(211.201 0 0)
(211.219 0 0)
(211.239 0 0)
(211.262 0 0)
(211.289 0 0)
(211.315 0 0)
(211.335 0 0)
(211.355 0 0)
(211.374 0 0)
(211.395 0 0)
(211.428 0 0)
(211.48 0 0)
(211.519 0 0)
(211.54 0 0)
(211.555 0 0)
(211.568 0 0)
(211.586 0 0)
(211.606 0 0)
(211.628 0 0)
(211.663 0 0)
(211.703 0 0)
(211.727 0 0)
(211.747 0 0)
(211.765 0 0)
(211.784 0 0)
(211.804 0 0)
(211.828 0 0)
(211.863 0 0)
(211.898 0 0)
(211.92 0 0)
(211.939 0 0)
(211.958 0 0)
(211.977 0 0)
(211.997 0 0)
(212.028 0 0)
(212.079 0 0)
(212.122 0 0)
(212.144 0 0)
(212.159 0 0)
(212.165 0 0)
(212.175 0 0)
(212.193 0 0)
(212.213 0 0)
(212.238 0 0)
(212.284 0 0)
(212.339 0 0)
(212.371 0 0)
(212.389 0 0)
(212.401 0 0)
(212.41 0 0)
(212.426 0 0)
(212.446 0 0)
(212.467 0 0)
(212.499 0 0)
(212.542 0 0)
(212.571 0 0)
(212.59 0 0)
(212.608 0 0)
(212.627 0 0)
(212.647 0 0)
(212.669 0 0)
(212.709 0 0)
(212.764 0 0)
(212.798 0 0)
(212.817 0 0)
(212.828 0 0)
(212.826 0 0)
(212.833 0 0)
(212.851 0 0)
(212.871 0 0)
(212.894 0 0)
(212.939 0 0)
(213.004 0 0)
(213.051 0 0)
(213.073 0 0)
(213.089 0 0)
(213.094 0 0)
(213.097 0 0)
(213.113 0 0)
(213.133 0 0)
(213.153 0 0)
(213.184 0 0)
(213.235 0 0)
(213.283 0 0)
(213.307 0 0)
(213.324 0 0)
(213.336 0 0)
(213.351 0 0)
(213.371 0 0)
(213.392 0 0)
(213.421 0 0)
(213.46 0 0)
(213.489 0 0)
(213.509 0 0)
(213.528 0 0)
(213.546 0 0)
(213.566 0 0)
(213.586 0 0)
(213.617 0 0)
(213.665 0 0)
(213.703 0 0)
(213.724 0 0)
(213.739 0 0)
(213.751 0 0)
(213.768 0 0)
(213.788 0 0)
(213.81 0 0)
(213.849 0 0)
(213.906 0 0)
(213.946 0 0)
(213.967 0 0)
(213.981 0 0)
(213.985 0 0)
(213.991 0 0)
(214.008 0 0)
(214.027 0 0)
(214.047 0 0)
(214.067 0 0)
(214.087 0 0)
(214.108 0 0)
(214.138 0 0)
(214.191 0 0)
(214.256 0 0)
(214.292 0 0)
(214.312 0 0)
(214.325 0 0)
(214.329 0 0)
(214.337 0 0)
(214.355 0 0)
(214.375 0 0)
(214.396 0 0)
(214.431 0 0)
(214.484 0 0)
(214.525 0 0)
(214.546 0 0)
(214.562 0 0)
(214.574 0 0)
(214.592 0 0)
(214.611 0 0)
(214.634 0 0)
(214.674 0 0)
(214.724 0 0)
(214.753 0 0)
(214.771 0 0)
(214.782 0 0)
(214.781 0 0)
(214.792 0 0)
(214.811 0 0)
(214.831 0 0)
(214.855 0 0)
(214.898 0 0)
(214.962 0 0)
(215.008 0 0)
(215.031 0 0)
(215.047 0 0)
(215.053 0 0)
(215.055 0 0)
(215.07 0 0)
(215.09 0 0)
(215.111 0 0)
(215.14 0 0)
(215.194 0 0)
(215.256 0 0)
(215.291 0 0)
(215.31 0 0)
(215.324 0 0)
(215.329 0 0)
(215.343 0 0)
(215.362 0 0)
(215.382 0 0)
(215.405 0 0)
(215.435 0 0)
(215.464 0 0)
(215.485 0 0)
(215.505 0 0)
(215.525 0 0)
(215.545 0 0)
(215.57 0 0)
(215.611 0 0)
(215.657 0 0)
(215.681 0 0)
(215.699 0 0)
(215.71 0 0)
(215.719 0 0)
(215.736 0 0)
(215.756 0 0)
(215.779 0 0)
(215.819 0 0)
(215.881 0 0)
(215.928 0 0)
(215.951 0 0)
(215.967 0 0)
(215.972 0 0)
(215.975 0 0)
(215.991 0 0)
(216.011 0 0)
(216.032 0 0)
(216.065 0 0)
(216.123 0 0)
(216.181 0 0)
(216.211 0 0)
(216.23 0 0)
(216.242 0 0)
(216.244 0 0)
(216.255 0 0)
(216.274 0 0)
(216.294 0 0)
(216.314 0 0)
(216.335 0 0)
(216.359 0 0)
(216.403 0 0)
(216.458 0 0)
(216.491 0 0)
(216.511 0 0)
(216.527 0 0)
(216.534 0 0)
(216.539 0 0)
(216.555 0 0)
(216.575 0 0)
(216.595 0 0)
(216.615 0 0)
(216.636 0 0)
(216.666 0 0)
(216.721 0 0)
(216.788 0 0)
(216.827 0 0)
(216.847 0 0)
(216.862 0 0)
(216.863 0 0)
(216.864 0 0)
(216.88 0 0)
(216.9 0 0)
(216.92 0 0)
(216.947 0 0)
(216.995 0 0)
(217.052 0 0)
(217.084 0 0)
(217.103 0 0)
(217.117 0 0)
(217.131 0 0)
(217.15 0 0)
(217.17 0 0)
(217.196 0 0)
(217.235 0 0)
(217.274 0 0)
(217.297 0 0)
(217.315 0 0)
(217.328 0 0)
(217.344 0 0)
(217.364 0 0)
(217.384 0 0)
(217.415 0 0)
(217.467 0 0)
(217.515 0 0)
(217.54 0 0)
(217.556 0 0)
(217.562 0 0)
(217.557 0 0)
(217.568 0 0)
(217.587 0 0)
(217.608 0 0)
(217.632 0 0)
(217.677 0 0)
(217.744 0 0)
(217.793 0 0)
(217.817 0 0)
(217.833 0 0)
(217.839 0 0)
(217.835 0 0)
(217.847 0 0)
(217.866 0 0)
(217.887 0 0)
(217.91 0 0)
(217.952 0 0)
(218.014 0 0)
(218.06 0 0)
(218.083 0 0)
(218.099 0 0)
(218.107 0 0)
(218.113 0 0)
(218.13 0 0)
(218.15 0 0)
(218.171 0 0)
(218.201 0 0)
(218.251 0 0)
(218.294 0 0)
(218.317 0 0)
(218.334 0 0)
(218.347 0 0)
(218.364 0 0)
(218.384 0 0)
(218.405 0 0)
(218.433 0 0)
(218.474 0 0)
(218.508 0 0)
(218.529 0 0)
(218.549 0 0)
(218.569 0 0)
(218.59 0 0)
(218.617 0 0)
(218.649 0 0)
(218.673 0 0)
(218.693 0 0)
(218.712 0 0)
(218.728 0 0)
(218.746 0 0)
(218.766 0 0)
(218.787 0 0)
(218.819 0 0)
(218.872 0 0)
(218.923 0 0)
(218.948 0 0)
(218.966 0 0)
(218.976 0 0)
(218.983 0 0)
(219 0 0)
(219.02 0 0)
(219.041 0 0)
(219.076 0 0)
(219.132 0 0)
(219.177 0 0)
(219.2 0 0)
(219.217 0 0)
(219.225 0 0)
(219.236 0 0)
(219.254 0 0)
(219.274 0 0)
(219.297 0 0)
(219.336 0 0)
(219.383 0 0)
(219.411 0 0)
(219.429 0 0)
(219.441 0 0)
(219.442 0 0)
(219.454 0 0)
(219.473 0 0)
(219.493 0 0)
(219.519 0 0)
(219.566 0 0)
(219.642 0 0)
(219.697 0 0)
(219.723 0 0)
(219.741 0 0)
(219.75 0 0)
(219.746 0 0)
(219.753 0 0)
(219.771 0 0)
(219.792 0 0)
(219.812 0 0)
(219.836 0 0)
(219.874 0 0)
(219.919 0 0)
(219.946 0 0)
(219.966 0 0)
(219.983 0 0)
(220 0 0)
(220.019 0 0)
(220.039 0 0)
(220.059 0 0)
(220.08 0 0)
(220.1 0 0)
(220.125 0 0)
(220.168 0 0)
(220.23 0 0)
(220.274 0 0)
(220.296 0 0)
(220.313 0 0)
(220.321 0 0)
(220.312 0 0)
(220.317 0 0)
(220.335 0 0)
(220.355 0 0)
(220.377 0 0)
(220.409 0 0)
(220.469 0 0)
(220.552 0 0)
(220.6 0 0)
(220.623 0 0)
(220.64 0 0)
(220.645 0 0)
(220.63 0 0)
(220.628 0 0)
(220.645 0 0)
(220.665 0 0)
(220.685 0 0)
(220.71 0 0)
(220.754 0 0)
(220.822 0 0)
(220.872 0 0)
(220.896 0 0)
(220.914 0 0)
(220.922 0 0)
(220.923 0 0)
(220.937 0 0)
(220.957 0 0)
(220.978 0 0)
(221.002 0 0)
(221.047 0 0)
(221.107 0 0)
(221.146 0 0)
(221.167 0 0)
(221.183 0 0)
(221.188 0 0)
(221.192 0 0)
(221.208 0 0)
(221.228 0 0)
(221.248 0 0)
(221.269 0 0)
(221.289 0 0)
(221.311 0 0)
(221.344 0 0)
(221.4 0 0)
(221.455 0 0)
(221.484 0 0)
(221.503 0 0)
(221.516 0 0)
(221.522 0 0)
(221.535 0 0)
(221.555 0 0)
(221.575 0 0)
(221.596 0 0)
(221.623 0 0)
(221.67 0 0)
(221.722 0 0)
(221.75 0 0)
(221.769 0 0)
(221.784 0 0)
(221.8 0 0)
(221.819 0 0)
(221.84 0 0)
(221.862 0 0)
(221.889 0 0)
(221.915 0 0)
(221.936 0 0)
(221.956 0 0)
(221.977 0 0)
(221.998 0 0)
(222.023 0 0)
(222.066 0 0)
(222.12 0 0)
(222.152 0 0)
(222.172 0 0)
(222.187 0 0)
(222.202 0 0)
(222.221 0 0)
(222.241 0 0)
(222.263 0 0)
(222.288 0 0)
(222.314 0 0)
(222.335 0 0)
(222.355 0 0)
(222.376 0 0)
(222.396 0 0)
(222.417 0 0)
(222.44 0 0)
(222.479 0 0)
(222.533 0 0)
(222.568 0 0)
(222.588 0 0)
(222.603 0 0)
(222.609 0 0)
(222.62 0 0)
(222.639 0 0)
(222.66 0 0)
(222.683 0 0)
(222.724 0 0)
(222.783 0 0)
(222.822 0 0)
(222.843 0 0)
(222.859 0 0)
(222.865 0 0)
(222.873 0 0)
(222.892 0 0)
(222.912 0 0)
(222.933 0 0)
(222.966 0 0)
(223.02 0 0)
(223.067 0 0)
(223.091 0 0)
(223.109 0 0)
(223.123 0 0)
(223.139 0 0)
(223.159 0 0)
(223.179 0 0)
(223.204 0 0)
(223.236 0 0)
(223.267 0 0)
(223.288 0 0)
(223.309 0 0)
(223.329 0 0)
(223.349 0 0)
(223.37 0 0)
(223.396 0 0)
(223.432 0 0)
(223.468 0 0)
(223.49 0 0)
(223.51 0 0)
(223.529 0 0)
(223.549 0 0)
(223.57 0 0)
(223.592 0 0)
(223.624 0 0)
(223.669 0 0)
(223.7 0 0)
(223.721 0 0)
(223.738 0 0)
(223.751 0 0)
(223.768 0 0)
(223.788 0 0)
(223.809 0 0)
(223.836 0 0)
(223.884 0 0)
(223.938 0 0)
(223.966 0 0)
(223.986 0 0)
(224 0 0)
(224.011 0 0)
(224.028 0 0)
(224.049 0 0)
(224.069 0 0)
(224.091 0 0)
(224.115 0 0)
(224.139 0 0)
(224.161 0 0)
(224.183 0 0)
(224.205 0 0)
(224.232 0 0)
(224.277 0 0)
(224.326 0 0)
(224.352 0 0)
(224.371 0 0)
(224.386 0 0)
(224.399 0 0)
(224.418 0 0)
(224.439 0 0)
(224.462 0 0)
(224.5 0 0)
(224.551 0 0)
(224.583 0 0)
(224.603 0 0)
(224.617 0 0)
(224.62 0 0)
(224.63 0 0)
(224.649 0 0)
(224.67 0 0)
(224.693 0 0)
(224.732 0 0)
(224.792 0 0)
(224.837 0 0)
(224.86 0 0)
(224.877 0 0)
(224.885 0 0)
(224.888 0 0)
(224.904 0 0)
(224.924 0 0)
(224.945 0 0)
(224.971 0 0)
(225.016 0 0)
(225.072 0 0)
(225.105 0 0)
(225.125 0 0)
(225.14 0 0)
(225.149 0 0)
(225.164 0 0)
(225.184 0 0)
(225.205 0 0)
(225.231 0 0)
(225.275 0 0)
(225.333 0 0)
(225.368 0 0)
(225.388 0 0)
(225.404 0 0)
(225.409 0 0)
(225.413 0 0)
(225.43 0 0)
(225.45 0 0)
(225.47 0 0)
(225.491 0 0)
(225.511 0 0)
(225.532 0 0)
(225.553 0 0)
(225.574 0 0)
(225.605 0 0)
(225.658 0 0)
(225.728 0 0)
(225.769 0 0)
(225.791 0 0)
(225.807 0 0)
(225.812 0 0)
(225.805 0 0)
(225.816 0 0)
(225.835 0 0)
(225.855 0 0)
(225.877 0 0)
(225.91 0 0)
(225.966 0 0)
(226.024 0 0)
(226.055 0 0)
(226.074 0 0)
(226.088 0 0)
(226.091 0 0)
(226.101 0 0)
(226.121 0 0)
(226.141 0 0)
(226.163 0 0)
(226.196 0 0)
(226.251 0 0)
(226.304 0 0)
(226.33 0 0)
(226.349 0 0)
(226.363 0 0)
(226.37 0 0)
(226.385 0 0)
(226.405 0 0)
(226.426 0 0)
(226.447 0 0)
(226.467 0 0)
(226.488 0 0)
(226.509 0 0)
(226.531 0 0)
(226.565 0 0)
(226.619 0 0)
(226.664 0 0)
(226.687 0 0)
(226.705 0 0)
(226.715 0 0)
(226.721 0 0)
(226.738 0 0)
(226.758 0 0)
(226.779 0 0)
(226.804 0 0)
(226.849 0 0)
(226.909 0 0)
(226.948 0 0)
(226.969 0 0)
(226.985 0 0)
(226.99 0 0)
(226.993 0 0)
(227.01 0 0)
(227.031 0 0)
(227.052 0 0)
(227.078 0 0)
(227.123 0 0)
(227.181 0 0)
(227.215 0 0)
(227.235 0 0)
(227.251 0 0)
(227.259 0 0)
(227.272 0 0)
(227.291 0 0)
(227.312 0 0)
(227.334 0 0)
(227.37 0 0)
(227.428 0 0)
(227.479 0 0)
(227.504 0 0)
(227.524 0 0)
(227.54 0 0)
(227.545 0 0)
(227.542 0 0)
(227.555 0 0)
(227.575 0 0)
(227.595 0 0)
(227.616 0 0)
(227.637 0 0)
(227.658 0 0)
(227.679 0 0)
(227.701 0 0)
(227.737 0 0)
(227.8 0 0)
(227.875 0 0)
(227.913 0 0)
(227.935 0 0)
(227.951 0 0)
(227.956 0 0)
(227.946 0 0)
(227.953 0 0)
(227.972 0 0)
(227.992 0 0)
(228.014 0 0)
(228.039 0 0)
(228.083 0 0)
(228.144 0 0)
(228.185 0 0)
(228.206 0 0)
(228.224 0 0)
(228.232 0 0)
(228.241 0 0)
(228.259 0 0)
(228.28 0 0)
(228.301 0 0)
(228.329 0 0)
(228.376 0 0)
(228.428 0 0)
(228.455 0 0)
(228.475 0 0)
(228.493 0 0)
(228.511 0 0)
(228.532 0 0)
(228.554 0 0)
(228.579 0 0)
(228.605 0 0)
(228.626 0 0)
(228.646 0 0)
(228.663 0 0)
(228.671 0 0)
(228.68 0 0)
(228.699 0 0)
(228.72 0 0)
(228.741 0 0)
(228.772 0 0)
(228.826 0 0)
(228.904 0 0)
(228.951 0 0)
(228.974 0 0)
(228.993 0 0)
(229.002 0 0)
(228.998 0 0)
(229.006 0 0)
(229.025 0 0)
(229.046 0 0)
(229.067 0 0)
(229.094 0 0)
(229.142 0 0)
(229.196 0 0)
(229.226 0 0)
(229.245 0 0)
(229.259 0 0)
(229.257 0 0)
(229.253 0 0)
(229.267 0 0)
(229.288 0 0)
(229.309 0 0)
(229.33 0 0)
(229.363 0 0)
(229.42 0 0)
(229.511 0 0)
(229.567 0 0)
(229.594 0 0)
(229.613 0 0)
(229.626 0 0)
(229.622 0 0)
(229.613 0 0)
(229.625 0 0)
(229.645 0 0)
(229.666 0 0)
(229.687 0 0)
(229.708 0 0)
(229.728 0 0)
(229.749 0 0)
(229.77 0 0)
(229.791 0 0)
(229.814 0 0)
(229.851 0 0)
(229.914 0 0)
(229.972 0 0)
(230.002 0 0)
(230.022 0 0)
(230.036 0 0)
(230.038 0 0)
(230.043 0 0)
(230.061 0 0)
(230.082 0 0)
(230.103 0 0)
(230.128 0 0)
(230.171 0 0)
(230.233 0 0)
(230.277 0 0)
(230.299 0 0)
(230.318 0 0)
(230.329 0 0)
(230.333 0 0)
(230.349 0 0)
(230.369 0 0)
(230.39 0 0)
(230.411 0 0)
(230.432 0 0)
(230.453 0 0)
(230.474 0 0)
(230.495 0 0)
(230.523 0 0)
(230.571 0 0)
(230.639 0 0)
(230.684 0 0)
(230.707 0 0)
(230.725 0 0)
(230.734 0 0)
(230.726 0 0)
(230.73 0 0)
(230.748 0 0)
(230.769 0 0)
(230.791 0 0)
(230.816 0 0)
(230.859 0 0)
(230.925 0 0)
(230.972 0 0)
(230.996 0 0)
(231.015 0 0)
(231.026 0 0)
(231.031 0 0)
(231.046 0 0)
(231.066 0 0)
(231.087 0 0)
(231.111 0 0)
(231.148 0 0)
(231.194 0 0)
(231.221 0 0)
(231.242 0 0)
(231.257 0 0)
(231.259 0 0)
(231.261 0 0)
(231.278 0 0)
(231.299 0 0)
(231.32 0 0)
(231.348 0 0)
(231.398 0 0)
(231.481 0 0)
(231.542 0 0)
(231.57 0 0)
(231.59 0 0)
(231.604 0 0)
(231.6 0 0)
(231.582 0 0)
(231.59 0 0)
(231.609 0 0)
(231.63 0 0)
(231.65 0 0)
(231.671 0 0)
(231.693 0 0)
(231.718 0 0)
(231.762 0 0)
(231.837 0 0)
(231.902 0 0)
(231.933 0 0)
(231.954 0 0)
(231.969 0 0)
(231.97 0 0)
(231.961 0 0)
(231.972 0 0)
(231.992 0 0)
(232.013 0 0)
(232.035 0 0)
(232.065 0 0)
(232.117 0 0)
(232.18 0 0)
(232.214 0 0)
(232.235 0 0)
(232.25 0 0)
(232.252 0 0)
(232.244 0 0)
(232.256 0 0)
(232.276 0 0)
(232.297 0 0)
(232.32 0 0)
(232.356 0 0)
(232.419 0 0)
(232.483 0 0)
(232.516 0 0)
(232.537 0 0)
(232.552 0 0)
(232.554 0 0)
(232.55 0 0)
(232.564 0 0)
(232.584 0 0)
(232.605 0 0)
(232.628 0 0)
(232.665 0 0)
(232.728 0 0)
(232.787 0 0)
(232.817 0 0)
(232.837 0 0)
(232.852 0 0)
(232.852 0 0)
(232.854 0 0)
(232.87 0 0)
(232.891 0 0)
(232.912 0 0)
(232.937 0 0)
(232.977 0 0)
(233.039 0 0)
(233.085 0 0)
(233.109 0 0)
(233.128 0 0)
(233.138 0 0)
(233.13 0 0)
(233.13 0 0)
(233.147 0 0)
(233.167 0 0)
(233.188 0 0)
(233.209 0 0)
(233.23 0 0)
(233.252 0 0)
(233.275 0 0)
(233.313 0 0)
(233.381 0 0)
(233.454 0 0)
(233.491 0 0)
(233.513 0 0)
(233.53 0 0)
(233.537 0 0)
(233.528 0 0)
(233.534 0 0)
(233.553 0 0)
(233.574 0 0)
(233.595 0 0)
(233.619 0 0)
(233.657 0 0)
(233.716 0 0)
(233.764 0 0)
(233.789 0 0)
(233.808 0 0)
(233.821 0 0)
(233.826 0 0)
(233.842 0 0)
(233.862 0 0)
(233.883 0 0)
(233.906 0 0)
(233.941 0 0)
(233.997 0 0)
(234.044 0 0)
(234.068 0 0)
(234.087 0 0)
(234.102 0 0)
(234.112 0 0)
(234.13 0 0)
(234.151 0 0)
(234.172 0 0)
(234.193 0 0)
(234.214 0 0)
(234.235 0 0)
(234.257 0 0)
(234.279 0 0)
(234.307 0 0)
(234.354 0 0)
(234.411 0 0)
(234.444 0 0)
(234.465 0 0)
(234.483 0 0)
(234.492 0 0)
(234.482 0 0)
(234.48 0 0)
(234.496 0 0)
(234.517 0 0)
(234.538 0 0)
(234.562 0 0)
(234.601 0 0)
(234.671 0 0)
(234.754 0 0)
(234.795 0 0)
(234.818 0 0)
(234.836 0 0)
(234.845 0 0)
(234.831 0 0)
(234.823 0 0)
(234.838 0 0)
(234.858 0 0)
(234.879 0 0)
(234.901 0 0)
(234.929 0 0)
(234.978 0 0)
(235.05 0 0)
(235.098 0 0)
(235.122 0 0)
(235.141 0 0)
(235.154 0 0)
(235.157 0 0)
(235.169 0 0)
(235.189 0 0)
(235.21 0 0)
(235.232 0 0)
(235.256 0 0)
(235.286 0 0)
(235.315 0 0)
(235.338 0 0)
(235.359 0 0)
(235.38 0 0)
(235.401 0 0)
(235.424 0 0)
(235.454 0 0)
(235.497 0 0)
(235.533 0 0)
(235.555 0 0)
(235.575 0 0)
(235.594 0 0)
(235.614 0 0)
(235.635 0 0)
(235.657 0 0)
(235.682 0 0)
(235.715 0 0)
(235.747 0 0)
(235.769 0 0)
(235.79 0 0)
(235.811 0 0)
(235.831 0 0)
(235.852 0 0)
(235.873 0 0)
(235.896 0 0)
(235.926 0 0)
(235.974 0 0)
(236.014 0 0)
(236.036 0 0)
(236.056 0 0)
(236.074 0 0)
(236.094 0 0)
(236.115 0 0)
(236.137 0 0)
(236.166 0 0)
(236.203 0 0)
(236.232 0 0)
(236.254 0 0)
(236.274 0 0)
(236.289 0 0)
(236.297 0 0)
(236.31 0 0)
(236.33 0 0)
(236.351 0 0)
(236.372 0 0)
(236.394 0 0)
(236.416 0 0)
(236.445 0 0)
(236.495 0 0)
(236.567 0 0)
(236.611 0 0)
(236.634 0 0)
(236.653 0 0)
(236.664 0 0)
(236.66 0 0)
(236.663 0 0)
(236.681 0 0)
(236.702 0 0)
(236.724 0 0)
(236.747 0 0)
(236.784 0 0)
(236.844 0 0)
(236.894 0 0)
(236.92 0 0)
(236.94 0 0)
(236.954 0 0)
(236.958 0 0)
(236.971 0 0)
(236.992 0 0)
(237.013 0 0)
(237.035 0 0)
(237.068 0 0)
(237.122 0 0)
(237.178 0 0)
(237.207 0 0)
(237.228 0 0)
(237.243 0 0)
(237.245 0 0)
(237.238 0 0)
(237.252 0 0)
(237.272 0 0)
(237.293 0 0)
(237.314 0 0)
(237.336 0 0)
(237.357 0 0)
(237.379 0 0)
(237.401 0 0)
(237.434 0 0)
(237.492 0 0)
(237.568 0 0)
(237.611 0 0)
(237.634 0 0)
(237.653 0 0)
(237.664 0 0)
(237.659 0 0)
(237.66 0 0)
(237.678 0 0)
(237.699 0 0)
(237.72 0 0)
(237.742 0 0)
(237.77 0 0)
(237.815 0 0)
(237.861 0 0)
(237.887 0 0)
(237.907 0 0)
(237.923 0 0)
(237.935 0 0)
(237.953 0 0)
(237.974 0 0)
(237.996 0 0)
(238.022 0 0)
(238.065 0 0)
(238.121 0 0)
(238.155 0 0)
(238.176 0 0)
(238.193 0 0)
(238.201 0 0)
(238.209 0 0)
(238.227 0 0)
(238.248 0 0)
(238.27 0 0)
(238.295 0 0)
(238.339 0 0)
(238.396 0 0)
(238.431 0 0)
(238.453 0 0)
(238.47 0 0)
(238.479 0 0)
(238.483 0 0)
(238.5 0 0)
(238.521 0 0)
(238.542 0 0)
(238.565 0 0)
(238.6 0 0)
(238.654 0 0)
(238.698 0 0)
(238.722 0 0)
(238.741 0 0)
(238.756 0 0)
(238.767 0 0)
(238.786 0 0)
(238.807 0 0)
(238.829 0 0)
(238.855 0 0)
(238.896 0 0)
(238.944 0 0)
(238.972 0 0)
(238.992 0 0)
(239.009 0 0)
(239.014 0 0)
(239.019 0 0)
(239.037 0 0)
(239.058 0 0)
(239.079 0 0)
(239.1 0 0)
(239.122 0 0)
(239.147 0 0)
(239.188 0 0)
(239.256 0 0)
(239.313 0 0)
(239.342 0 0)
(239.363 0 0)
(239.379 0 0)
(239.386 0 0)
(239.392 0 0)
(239.411 0 0)
(239.432 0 0)
(239.453 0 0)
(239.476 0 0)
(239.502 0 0)
(239.533 0 0)
(239.559 0 0)
(239.581 0 0)
(239.602 0 0)
(239.624 0 0)
(239.645 0 0)
(239.666 0 0)
(239.687 0 0)
(239.709 0 0)
(239.73 0 0)
(239.752 0 0)
(239.773 0 0)
(239.796 0 0)
(239.828 0 0)
(239.881 0 0)
(239.945 0 0)
(239.98 0 0)
(240.002 0 0)
(240.021 0 0)
(240.035 0 0)
(240.049 0 0)
(240.068 0 0)
(240.09 0 0)
(240.111 0 0)
(240.134 0 0)
(240.16 0 0)
(240.183 0 0)
(240.204 0 0)
(240.226 0 0)
(240.246 0 0)
(240.262 0 0)
(240.277 0 0)
(240.297 0 0)
(240.318 0 0)
(240.34 0 0)
(240.362 0 0)
(240.385 0 0)
(240.417 0 0)
(240.474 0 0)
(240.549 0 0)
(240.59 0 0)
(240.613 0 0)
(240.632 0 0)
(240.643 0 0)
(240.631 0 0)
(240.61 0 0)
(240.62 0 0)
(240.64 0 0)
(240.661 0 0)
(240.683 0 0)
(240.708 0 0)
(240.748 0 0)
(240.822 0 0)
(240.904 0 0)
(240.944 0 0)
(240.966 0 0)
(240.986 0 0)
(240.997 0 0)
(240.987 0 0)
(240.975 0 0)
(240.988 0 0)
(241.009 0 0)
(241.03 0 0)
(241.052 0 0)
(241.076 0 0)
(241.115 0 0)
(241.178 0 0)
(241.232 0 0)
(241.259 0 0)
(241.279 0 0)
(241.296 0 0)
(241.302 0 0)
(241.312 0 0)
(241.332 0 0)
(241.353 0 0)
(241.375 0 0)
(241.401 0 0)
(241.445 0 0)
(241.506 0 0)
(241.545 0 0)
(241.567 0 0)
(241.587 0 0)
(241.598 0 0)
(241.595 0 0)
(241.601 0 0)
(241.62 0 0)
(241.641 0 0)
(241.662 0 0)
(241.684 0 0)
(241.706 0 0)
(241.728 0 0)
(241.753 0 0)
(241.795 0 0)
(241.862 0 0)
(241.915 0 0)
(241.942 0 0)
(241.963 0 0)
(241.979 0 0)
(241.982 0 0)
(241.977 0 0)
(241.991 0 0)
(242.011 0 0)
(242.033 0 0)
(242.054 0 0)
(242.078 0 0)
(242.111 0 0)
(242.163 0 0)
(242.204 0 0)
(242.228 0 0)
(242.248 0 0)
(242.265 0 0)
(242.283 0 0)
(242.304 0 0)
(242.326 0 0)
(242.349 0 0)
(242.383 0 0)
(242.431 0 0)
(242.466 0 0)
(242.488 0 0)
(242.508 0 0)
(242.521 0 0)
(242.535 0 0)
(242.555 0 0)
(242.576 0 0)
(242.599 0 0)
(242.627 0 0)
(242.665 0 0)
(242.694 0 0)
(242.717 0 0)
(242.737 0 0)
(242.752 0 0)
(242.757 0 0)
(242.768 0 0)
(242.788 0 0)
(242.81 0 0)
(242.832 0 0)
(242.865 0 0)
(242.922 0 0)
(243.005 0 0)
(243.053 0 0)
(243.077 0 0)
(243.098 0 0)
(243.112 0 0)
(243.109 0 0)
(243.096 0 0)
(243.107 0 0)
(243.127 0 0)
(243.148 0 0)
(243.17 0 0)
(243.192 0 0)
(243.219 0 0)
(243.262 0 0)
(243.318 0 0)
(243.351 0 0)