/*--------------------------------*- C++ -*----------------------------------*\
  =========                 |
  \\      /  F ield         | OpenFOAM: The Open Source CFD Toolbox
   \\    /   O peration     | Website:  https://openfoam.org
    \\  /    A nd           | Version:  9
     \\/     M anipulation  |
\*---------------------------------------------------------------------------*/
FoamFile
{
    format      ascii;
    class       volScalarField;
    location    "0.018";
    object      p;
}
// * * * * * * * * * * * * * * * * * * * * * * * * * * * * * * * * * * * * * //

dimensions      [1 -1 -2 0 0 0 0];

internalField   nonuniform List<scalar> 
100
(
73116.2
71097
69902.1
68638.5
67418.2
66213.2
65029.4
63864.7
62719.1
61591.9
60483.1
59392.2
58318.9
57262.8
56223.6
55200.6
54193.9
53203.8
52231.3
51277.2
50341.4
49422.5
48518.2
47626.5
46746.5
45878.8
45024.4
44183.9
43357.3
42544
41743.5
40955.6
40180.4
39417.8
38667.8
37930.4
37205.4
36492.9
35792.8
35105.2
34430.2
33768.4
33121.2
32492.2
31892.2
31343.1
30882.3
30566.9
30402
30348
30341.1
30338.9
30298.9
30266.1
30253.9
30249.2
30251.9
30263.4
30268.2
30270.5
30269.6
30267.2
30263.7
30263.1
30273.1
30288.5
30295
30295.9
30294.6
30291.6
30289
30288.2
30294.8
30308.2
30313.7
30314.7
30314.8
30314.8
30313.5
30311.9
30313.9
30325.3
30333.9
30338.5
30343.2
30347.5
30347.6
30340.5
30321.6
30286.7
30273.2
30444.2
30876.7
31176.8
31290.3
31249.5
31226.4
31237.4
31400.6
32117.8
)
;

boundaryField
{
    sides
    {
        type            zeroGradient;
    }
    empty
    {
        type            empty;
    }
}


// ************************************************************************* //
