/*--------------------------------*- C++ -*----------------------------------*\
  =========                 |
  \\      /  F ield         | OpenFOAM: The Open Source CFD Toolbox
   \\    /   O peration     | Website:  https://openfoam.org
    \\  /    A nd           | Version:  9
     \\/     M anipulation  |
\*---------------------------------------------------------------------------*/
FoamFile
{
    format      ascii;
    class       volVectorField;
    location    "0.018";
    object      U;
}
// * * * * * * * * * * * * * * * * * * * * * * * * * * * * * * * * * * * * * //

dimensions      [0 1 -1 0 0 0 0];

internalField   nonuniform List<vector> 
100
(
(83.8624 0 0)
(90.9437 0 0)
(95.0806 0 0)
(99.55 0 0)
(103.937 0 0)
(108.344 0 0)
(112.747 0 0)
(117.153 0 0)
(121.559 0 0)
(125.966 0 0)
(130.374 0 0)
(134.785 0 0)
(139.198 0 0)
(143.613 0 0)
(148.031 0 0)
(152.45 0 0)
(156.871 0 0)
(161.298 0 0)
(165.737 0 0)
(170.193 0 0)
(174.668 0 0)
(179.158 0 0)
(183.652 0 0)
(188.141 0 0)
(192.621 0 0)
(197.097 0 0)
(201.573 0 0)
(206.054 0 0)
(210.54 0 0)
(215.028 0 0)
(219.517 0 0)
(224.005 0 0)
(228.493 0 0)
(232.981 0 0)
(237.469 0 0)
(241.955 0 0)
(246.438 0 0)
(250.919 0 0)
(255.394 0 0)
(259.863 0 0)
(264.324 0 0)
(268.771 0 0)
(273.194 0 0)
(277.56 0 0)
(281.802 0 0)
(285.746 0 0)
(289.06 0 0)
(291.442 0 0)
(292.658 0 0)
(293.017 0 0)
(293.05 0 0)
(293.07 0 0)
(293.415 0 0)
(293.654 0 0)
(293.741 0 0)
(293.759 0 0)
(293.722 0 0)
(293.643 0 0)
(293.613 0 0)
(293.622 0 0)
(293.629 0 0)
(293.638 0 0)
(293.646 0 0)
(293.643 0 0)
(293.569 0 0)
(293.469 0 0)
(293.429 0 0)
(293.421 0 0)
(293.425 0 0)
(293.437 0 0)
(293.453 0 0)
(293.455 0 0)
(293.419 0 0)
(293.339 0 0)
(293.292 0 0)
(293.274 0 0)
(293.265 0 0)
(293.263 0 0)
(293.275 0 0)
(293.296 0 0)
(293.289 0 0)
(293.201 0 0)
(293.126 0 0)
(293.084 0 0)
(293.044 0 0)
(293.015 0 0)
(293.02 0 0)
(293.076 0 0)
(293.217 0 0)
(293.492 0 0)
(293.568 0 0)
(292.296 0 0)
(289.163 0 0)
(286.912 0 0)
(286.087 0 0)
(286.375 0 0)
(286.536 0 0)
(286.459 0 0)
(285.315 0 0)
(282.166 0 0)
)
;

boundaryField
{
    sides
    {
        type            zeroGradient;
    }
    empty
    {
        type            empty;
    }
}


// ************************************************************************* //
