/*--------------------------------*- C++ -*----------------------------------*\
  =========                 |
  \\      /  F ield         | OpenFOAM: The Open Source CFD Toolbox
   \\    /   O peration     | Website:  https://openfoam.org
    \\  /    A nd           | Version:  9
     \\/     M anipulation  |
\*---------------------------------------------------------------------------*/
FoamFile
{
    format      ascii;
    class       volScalarField;
    location    "0.013";
    object      p;
}
// * * * * * * * * * * * * * * * * * * * * * * * * * * * * * * * * * * * * * //

dimensions      [1 -1 -2 0 0 0 0];

internalField   nonuniform List<scalar> 
100
(
93687.7
92596.6
91486.4
90097.2
88564.7
86928
85233
83509.4
81776.2
80045.7
78326.1
76622.6
74939
73277.7
71640.6
70029
68443.9
66886.2
65356.3
63854.8
62382
60938.1
59523.3
58137.6
56781.7
55453.8
54158.1
52886.8
51652.7
50439.1
49263.1
48112.6
46989.9
45901.7
44841.3
43810
42810.9
41842.9
40906
40001.2
39129
38290.9
37488.6
36722
35990.8
35298.3
34647.6
34039.9
33474.7
32952.9
32477.9
32056.7
31683.4
31361.5
31082.4
30866.3
30670.4
30549.7
30454.3
30374.3
30335.3
30297.9
30282.3
30275.4
30267.9
30267.6
30267.6
30267.8
30268.1
30266.2
30266.3
30267.3
30267.3
30268.3
30269.7
30270.7
30272.3
30278.3
30283.7
30288.9
30293.8
30299.5
30318.3
30368.7
30418
30439.2
30430.7
30474.5
30479.4
30508.1
30554.7
30551.1
30552.3
30605.9
30608.7
30600.2
30639
30649.5
30632.9
30652.2
)
;

boundaryField
{
    sides
    {
        type            zeroGradient;
    }
    empty
    {
        type            empty;
    }
}


// ************************************************************************* //
