/*--------------------------------*- C++ -*----------------------------------*\
  =========                 |
  \\      /  F ield         | OpenFOAM: The Open Source CFD Toolbox
   \\    /   O peration     | Website:  https://openfoam.org
    \\  /    A nd           | Version:  9
     \\/     M anipulation  |
\*---------------------------------------------------------------------------*/
FoamFile
{
    format      ascii;
    class       surfaceScalarField;
    location    "0.013";
    object      phi;
}
// * * * * * * * * * * * * * * * * * * * * * * * * * * * * * * * * * * * * * //

dimensions      [1 0 -1 0 0 0 0];

internalField   nonuniform List<scalar> 
99
(
48.3023
68.4901
87.9591
106.828
125.092
142.849
160.179
177.111
193.642
209.758
225.443
240.676
255.444
269.732
283.533
296.84
309.653
321.969
333.793
345.125
355.972
366.338
376.233
385.648
394.641
403.091
411.273
418.754
426.069
432.924
438.981
445.382
450.838
455.669
460.993
465.592
469.114
472.977
477.084
480.07
482.185
484.789
487.816
489.942
490.861
491.8
493.611
495.501
496.222
495.877
495.757
496.593
497.785
498.091
497.629
496.771
496.07
496.701
497.159
497.23
497.086
496.534
496.153
495.927
495.871
495.937
495.976
495.94
495.584
495.062
494.811
494.66
494.549
494.464
494.151
493.472
492.907
492.625
492.352
492.046
491.546
490.78
489.924
486.258
474.657
438.76
399.945
369.124
345.553
331.45
320.821
313.389
310.58
309.161
307.525
307.729
308.334
308.44
308.448
)
;

boundaryField
{
    sides
    {
        type            calculated;
        value           nonuniform List<scalar> 2(309.083 -27.8324);
    }
    empty
    {
        type            empty;
        value           nonuniform List<scalar> 0();
    }
}


// ************************************************************************* //
