/*--------------------------------*- C++ -*----------------------------------*\
  =========                 |
  \\      /  F ield         | OpenFOAM: The Open Source CFD Toolbox
   \\    /   O peration     | Website:  https://openfoam.org
    \\  /    A nd           | Version:  9
     \\/     M anipulation  |
\*---------------------------------------------------------------------------*/
FoamFile
{
    format      ascii;
    class       volScalarField;
    location    "0.026";
    object      p;
}
// * * * * * * * * * * * * * * * * * * * * * * * * * * * * * * * * * * * * * //

dimensions      [1 -1 -2 0 0 0 0];

internalField   nonuniform List<scalar> 
1000
(
56460.2
56343.4
56272.7
56196.2
56121.3
56046.2
55971.2
55896.3
55821.5
55746.8
55672.2
55597.8
55523.4
55449.1
55374.9
55300.7
55226.6
55152.5
55078.4
55004.5
54930.6
54856.9
54783.3
54709.8
54636.5
54563.3
54490.2
54417.3
54344.4
54271.6
54198.8
54126
54053.3
53980.6
53908
53835.5
53763
53690.8
53618.6
53546.6
53474.7
53403
53331.3
53259.7
53188.1
53116.5
53045
52973.6
52902.2
52830.8
52759.5
52688.3
52617.2
52546.2
52475.2
52404.3
52333.6
52262.8
52192.2
52121.6
52051.1
51980.7
51910.3
51840
51769.8
51699.7
51629.7
51559.8
51490
51420.2
51350.5
51280.9
51211.4
51142
51072.7
51003.6
50934.6
50865.7
50796.8
50728.1
50659.5
50590.9
50522.4
50453.9
50385.5
50317.1
50248.7
50180.4
50112.1
50043.9
49975.7
49907.5
49839.6
49771.7
49704
49636.4
49569
49501.6
49434.3
49367.1
49300
49232.8
49165.7
49098.7
49031.7
48964.9
48898.1
48831.4
48764.8
48698.3
48631.8
48565.5
48499.3
48433.1
48367
48301
48235.1
48169.2
48103.4
48037.7
47972.1
47906.5
47841.1
47775.7
47710.4
47645.2
47580
47514.9
47449.9
47385
47320.2
47255.5
47190.8
47126.2
47061.7
46997.3
46932.9
46868.7
46804.6
46740.6
46676.8
46613.1
46549.4
46485.7
46422
46358.4
46294.8
46231.3
46167.9
46104.6
46041.4
45978.3
45915.2
45852.1
45789
45726
45663.1
45600.3
45537.6
45475
45412.5
45350
45287.4
45225
45162.6
45100.4
45038.3
44976.3
44914.3
44852.4
44790.6
44728.8
44667
44605.3
44543.8
44482.3
44420.9
44359.5
44298.2
44237
44175.9
44114.8
44053.8
43992.9
43932.1
43871.3
43810.6
43749.9
43689.4
43628.9
43568.5
43508.1
43447.9
43387.7
43327.5
43267.5
43207.5
43147.5
43087.7
43027.9
42968.2
42908.6
42849
42789.5
42730.1
42670.8
42611.5
42552.3
42493.2
42434.1
42375.1
42316.2
42257.4
42198.6
42139.9
42081.3
42022.7
41964.2
41905.8
41847.4
41789.1
41730.9
41672.8
41614.7
41556.7
41498.7
41440.9
41383.1
41325.4
41267.7
41210.1
41152.6
41095.2
41037.8
40980.5
40923.2
40866.1
40809
40752
40695
40638.1
40581.3
40524.5
40467.9
40411.2
40354.7
40298.2
40241.8
40185.4
40129.2
40073
40016.9
39960.8
39904.8
39848.9
39793
39737.2
39681.4
39625.8
39570.2
39514.7
39459.2
39403.9
39348.5
39293.3
39238.1
39183
39127.9
39072.9
39018
38963.1
38908.4
38853.6
38799
38744.4
38689.9
38635.5
38581.1
38526.8
38472.5
38418.3
38364.2
38310.2
38256.2
38202.3
38148.4
38094.7
38040.9
37987.3
37933.7
37880.2
37826.7
37773.4
37720
37666.8
37613.6
37560.5
37507.4
37454.4
37401.5
37348.6
37295.7
37242.9
37190.1
37137.4
37084.7
37032.2
36979.8
36927.5
36875.3
36823.1
36771
36719
36667.1
36615.2
36563.3
36511.5
36459.7
36408
36356.4
36304.9
36253.4
36201.9
36150.5
36099.1
36047.9
35996.8
35945.7
35894.5
35843.7
35793.2
35742.3
35690.7
35639.1
35589
35541.4
35491.4
35438.9
35386.4
35335.1
35289.1
35242.1
35189.9
35137
35084.6
35034.9
34991.7
34942.5
34890
34837.3
34785.4
34737.6
34694.9
34644.8
34592.5
34540.3
34489
34442.4
34399.6
34349.3
34297.5
34245.7
34194.9
34149
34106.4
34056.4
34005
33953.8
33903.4
33857.8
33815.7
33766.2
33715.2
33664.3
33613.9
33566.3
33525.2
33477.9
33427.7
33377.3
33327.2
33278.3
33235.3
33191.6
33142.4
33092.6
33042.9
32993.7
32947.2
32906.2
32859.4
32810.2
32761
32712
32663.8
32619.6
32577.6
32530
32481.4
32432.8
32384.4
32337
32293.9
32251.1
32203.7
32155.7
32107.6
32059.9
32012.9
31969.7
31926.9
31880.1
31832.7
31785.1
31738
31691.3
31647.1
31605.5
31559.7
31513
31465.4
31417.5
31371.2
31325.7
31284.2
31245.9
31201.4
31155.9
31108.4
31057.3
31011.4
30967.6
30926.4
30894.9
30858.8
30817.7
30776.2
30730.7
30685.1
30647.3
30612.3
30582.2
30561.4
30534.9
30508.1
30483.1
30457.4
30436.1
30421.2
30410.1
30403.7
30399.7
30395.7
30392.9
30390.4
30387
30383.9
30382.7
30382.3
30381.5
30383
30386.9
30391.3
30395.4
30398.8
30401.8
30404.4
30405
30402.3
30404.3
30407.5
30411
30416.2
30420.6
30424.5
30428.3
30428.7
30426.5
30429
30431.5
30433.6
30435.3
30434.9
30432.5
30426.7
30418.5
30411.4
30405
30400.9
30397.5
30394.6
30391.7
30384.9
30375.2
30373.1
30372.6
30373.5
30379.2
30382.5
30382.9
30382.8
30379
30371.2
30371.1
30372.7
30375.3
30381.4
30385.1
30387.4
30388.9
30384.2
30377.6
30379.4
30382.4
30386.8
30400.5
30412.9
30414.6
30414.2
30410.3
30393.5
30376.4
30370.8
30367.2
30366.1
30374.5
30383.4
30383
30381.4
30377.9
30364.4
30350.1
30347.9
30347.8
30349.3
30358.9
30370.3
30372
30372.3
30371.3
30361.8
30348.8
30348
30349.3
30351.4
30358.1
30366
30368.8
30371.1
30372.1
30366.4
30361.8
30362.4
30363.1
30364.6
30369.1
30370.9
30369.7
30367
30361.9
30353.4
30348.8
30346.4
30344.8
30344.4
30346.4
30346.8
30346
30345.3
30344.5
30342.9
30336.9
30327.4
30325.5
30325.5
30325.8
30326.6
30329.8
30337.1
30340.1
30341.6
30342.8
30342
30332.7
30324.9
30325.1
30327
30330.4
30339.6
30359.5
30366.1
30367.3
30367.3
30364.4
30348.9
30333.2
30329.1
30326.1
30323.7
30326.3
30335.6
30336.8
30336
30334.6
30330
30314
30305.1
30303.6
30303.3
30304.4
30312.6
30334.5
30341.5
30342.5
30342.9
30341.6
30332.4
30315.6
30313
30314
30315.6
30319.1
30328.3
30332.7
30334.2
30335.6
30334.5
30323.8
30317
30316.7
30317
30318.3
30325.6
30338.2
30339.3
30337.3
30334.8
30330.7
30319.6
30312
30310.1
30309.3
30308.9
30308.9
30310.4
30316.7
30320.2
30320.5
30320.4
30320.4
30320.5
30320.9
30321.1
30320
30312.6
30292.9
30287
30287.3
30288.5
30291.4
30302
30327.3
30335.6
30337.5
30338.6
30337.2
30323.6
30303.4
30299.9
30299.4
30299.2
30301.6
30314.2
30320.4
30319.8
30318.5
30316
30308.5
30299.7
30297.8
30297.3
30297.4
30299.9
30304.7
30305.6
30305.4
30305.1
30303.6
30301
30300.8
30301.4
30302.3
30303.9
30305.8
30306.4
30306.9
30307.6
30308
30308.7
30309.8
30310.9
30312.3
30314.3
30315.3
30315.9
30316.3
30316
30315.1
30314.3
30312.7
30310.9
30309.8
30308.9
30308.2
30307.5
30306.5
30305
30303.8
30303
30302.7
30302.5
30302.5
30302.5
30302.4
30302.4
30302.5
30302.6
30302.8
30303.3
30304
30304.8
30305.3
30305.7
30306.3
30306.9
30307.6
30308.8
30310
30311.1
30311.8
30312.4
30313.1
30313.5
30313.6
30313.5
30313.3
30312.8
30311.5
30309.9
30309
30308.3
30307.8
30307.4
30307
30306.7
30306.2
30305.9
30305.9
30305.8
30305.7
30305.9
30306.1
30306.4
30306.7
30306.7
30306.8
30307.1
30307.6
30308.5
30309.1
30309.5
30309.9
30310.3
30311.3
30312.6
30314
30315.1
30315.7
30316
30316
30315.9
30315.7
30315.4
30315.1
30315
30314.7
30313.5
30312.2
30311.3
30310.8
30310.6
30310.5
30310.4
30310.2
30309.6
30309.1
30308.8
30308.6
30308.8
30309.2
30309.5
30309.8
30309.8
30309.9
30309.9
30310.2
30310.7
30311.6
30312.2
30312.6
30312.9
30313.2
30313.6
30314.4
30315.5
30316.1
30316.4
30316.4
30316.1
30315.4
30314.7
30314.3
30314
30313.7
30313
30312
30311.1
30310.6
30310.3
30310.3
30310.4
30310.4
30310.3
30309.8
30309.4
30309.2
30309.2
30309.5
30310.2
30310.6
30310.7
30310.6
30310.4
30310.4
30310.7
30311.5
30312.5
30313.3
30313.8
30314.1
30314.3
30314.6
30314.9
30315.2
30315.5
30315.4
30315.1
30314.4
30313.8
30313.4
30313.2
30313.1
30312.8
30312.3
30311.5
30310.6
30310.1
30310
30310.3
30310.6
30310.7
30310.6
30310.1
30309.6
30309.5
30309.6
30310.3
30311.2
30311.6
30311.7
30311.5
30311.1
30310.9
30311.2
30312.1
30313.2
30313.9
30314.4
30314.6
30314.7
30314.8
30315.1
30315.3
30315.1
30314.7
30313.9
30312.6
30311.8
30311.5
30311.9
30312.9
30316.8
30333
30397.6
30636.7
30997.8
31196.9
31280.3
31308.6
31317.7
31319.9
31319.9
31318.6
31318.5
31319.2
31319.4
31320
31319.7
31319.4
31319.4
31319.7
31319.4
31319.5
31319.1
31318
31318.1
31318.4
31318.9
31319.9
31320.2
31320
31319.2
31318
31317.1
31316.2
31316.2
31316.8
31317.2
31318
31318.6
31317.8
31317.2
31316.9
31316.7
31316.2
31315.5
31314.6
31313.3
31312.4
31312
31312
31312.4
31312.5
31312.2
31311.5
31310.6
31309.9
31309.8
31310
31310.6
31311
31310.6
31310.6
31311.1
31313.6
31323.8
31360.4
31486
31745
31958.1
32064.3
32110.7
32129
32136.3
32138.8
32139.4
32140.5
32140.6
32140.7
32141.3
32141.5
32141.9
32142.3
32142.2
32142.1
32142.1
32141.7
32140.8
32140.5
32140
32139.7
32139.4
32139.2
32139.5
32139.9
32141.5
32143.5
32143.7
32143.5
32142.7
)
;

boundaryField
{
    sides
    {
        type            zeroGradient;
    }
    empty
    {
        type            empty;
    }
}


// ************************************************************************* //
