/*--------------------------------*- C++ -*----------------------------------*\
  =========                 |
  \\      /  F ield         | OpenFOAM: The Open Source CFD Toolbox
   \\    /   O peration     | Website:  https://openfoam.org
    \\  /    A nd           | Version:  9
     \\/     M anipulation  |
\*---------------------------------------------------------------------------*/
FoamFile
{
    format      ascii;
    class       volScalarField;
    location    "0.026";
    object      rho;
}
// * * * * * * * * * * * * * * * * * * * * * * * * * * * * * * * * * * * * * //

dimensions      [1 -3 0 0 0 0 0];

internalField   nonuniform List<scalar> 
1000
(
0.664404
0.663422
0.662828
0.662185
0.661555
0.660922
0.660291
0.65966
0.65903
0.6584
0.657771
0.657143
0.656516
0.655888
0.655262
0.654635
0.654008
0.653382
0.652756
0.65213
0.651505
0.650881
0.650257
0.649634
0.649013
0.648392
0.647772
0.647153
0.646534
0.645916
0.645298
0.644679
0.644061
0.643443
0.642825
0.642207
0.641591
0.640975
0.64036
0.639746
0.639133
0.638521
0.637909
0.637298
0.636686
0.636075
0.635464
0.634853
0.634242
0.633631
0.633021
0.632411
0.631802
0.631193
0.630584
0.629977
0.629369
0.628762
0.628156
0.627549
0.626943
0.626338
0.625733
0.625128
0.624524
0.62392
0.623318
0.622715
0.622113
0.621511
0.62091
0.62031
0.61971
0.61911
0.618512
0.617914
0.617318
0.616722
0.616126
0.615532
0.614937
0.614343
0.613749
0.613156
0.612563
0.611969
0.611376
0.610783
0.61019
0.609597
0.609004
0.608412
0.607821
0.60723
0.606641
0.606052
0.605465
0.604878
0.604292
0.603706
0.60312
0.602534
0.601948
0.601363
0.600778
0.600194
0.59961
0.599026
0.598444
0.597862
0.59728
0.596699
0.596119
0.595539
0.59496
0.594381
0.593803
0.593225
0.592647
0.59207
0.591494
0.590918
0.590342
0.589768
0.589193
0.58862
0.588046
0.587473
0.586901
0.58633
0.585759
0.585189
0.58462
0.584052
0.583484
0.582917
0.582351
0.581786
0.581223
0.580661
0.5801
0.579541
0.578981
0.578422
0.577862
0.577302
0.576742
0.576182
0.575622
0.575062
0.574502
0.573941
0.57338
0.572818
0.572255
0.571692
0.571129
0.570567
0.570006
0.569445
0.568884
0.568323
0.567763
0.567203
0.566644
0.566086
0.565529
0.564973
0.564418
0.563863
0.563308
0.562753
0.562198
0.561644
0.56109
0.560537
0.559984
0.559431
0.558879
0.558327
0.557776
0.557225
0.556675
0.556125
0.555576
0.555027
0.554478
0.55393
0.553382
0.552835
0.552288
0.551742
0.551196
0.550651
0.550105
0.549561
0.549016
0.548472
0.547929
0.547386
0.546843
0.546301
0.54576
0.545219
0.544678
0.544138
0.543598
0.543058
0.542519
0.541981
0.541443
0.540905
0.540368
0.539831
0.539294
0.538758
0.538223
0.537687
0.537153
0.536618
0.536085
0.535551
0.535018
0.534486
0.533953
0.533422
0.53289
0.532359
0.531829
0.531299
0.53077
0.53024
0.529712
0.529184
0.528656
0.528128
0.527601
0.527075
0.526549
0.526023
0.525498
0.524973
0.524449
0.523925
0.523401
0.522877
0.522355
0.521832
0.521311
0.520789
0.520268
0.519748
0.519228
0.518708
0.518189
0.51767
0.517151
0.516633
0.516115
0.515598
0.515082
0.514565
0.514049
0.513534
0.513019
0.512504
0.51199
0.511476
0.510962
0.510449
0.509937
0.509425
0.508913
0.508402
0.507891
0.50738
0.50687
0.506361
0.505851
0.505343
0.504834
0.504326
0.503819
0.503312
0.502805
0.502299
0.501793
0.501287
0.500782
0.500278
0.499773
0.49927
0.498766
0.498263
0.497761
0.497259
0.496757
0.496256
0.495755
0.495254
0.494754
0.494254
0.493754
0.493254
0.492754
0.492256
0.491758
0.491261
0.490764
0.490268
0.489772
0.489278
0.488783
0.48829
0.487796
0.487303
0.486809
0.486316
0.485823
0.485332
0.484841
0.48435
0.483858
0.483367
0.482876
0.482387
0.481898
0.481409
0.48092
0.480433
0.47995
0.479463
0.478968
0.478474
0.477993
0.477536
0.477056
0.476552
0.476048
0.475555
0.475113
0.474661
0.474158
0.473649
0.473144
0.472666
0.47225
0.471776
0.471269
0.470761
0.47026
0.469798
0.469386
0.468901
0.468395
0.46789
0.467394
0.466943
0.466529
0.466041
0.465539
0.465037
0.464544
0.464099
0.463685
0.463199
0.4627
0.462202
0.461712
0.461269
0.460859
0.460377
0.45988
0.459384
0.458893
0.458429
0.458029
0.457567
0.457076
0.456584
0.456095
0.455617
0.455197
0.454769
0.454288
0.4538
0.453313
0.452831
0.452375
0.451973
0.451513
0.451031
0.450548
0.450067
0.449593
0.449159
0.448746
0.448277
0.447798
0.44732
0.446844
0.446376
0.445951
0.445529
0.445061
0.444587
0.444113
0.443641
0.443177
0.44275
0.442326
0.441863
0.441394
0.440922
0.440455
0.439993
0.439555
0.439142
0.438687
0.438224
0.437751
0.437274
0.436814
0.436362
0.435949
0.435567
0.435125
0.434671
0.434198
0.433688
0.433231
0.432794
0.432383
0.432067
0.431708
0.431296
0.430882
0.430427
0.429971
0.429592
0.429242
0.428941
0.428732
0.428467
0.428198
0.427947
0.42769
0.427476
0.427327
0.427215
0.427151
0.42711
0.427071
0.427042
0.427018
0.426984
0.426953
0.426941
0.426936
0.426929
0.426944
0.426983
0.427028
0.427068
0.427103
0.427133
0.427159
0.427165
0.427137
0.427157
0.42719
0.427225
0.427277
0.427322
0.42736
0.427399
0.427402
0.42738
0.427406
0.427431
0.427452
0.427469
0.427465
0.427441
0.427383
0.4273
0.427229
0.427166
0.427124
0.42709
0.427061
0.427033
0.426964
0.426867
0.426845
0.426841
0.42685
0.426907
0.42694
0.426944
0.426943
0.426905
0.426826
0.426825
0.426842
0.426868
0.426929
0.426966
0.426989
0.427004
0.426958
0.426892
0.42691
0.426939
0.426984
0.427122
0.427245
0.427263
0.427259
0.42722
0.427052
0.42688
0.426823
0.426788
0.426777
0.42686
0.42695
0.426946
0.42693
0.426895
0.42676
0.426617
0.426595
0.426593
0.426609
0.426705
0.42682
0.426837
0.42684
0.426829
0.426734
0.426603
0.426595
0.426608
0.426629
0.426697
0.426777
0.426805
0.426828
0.426838
0.42678
0.426735
0.42674
0.426748
0.426763
0.426808
0.426826
0.426814
0.426787
0.426736
0.426651
0.426605
0.42658
0.426565
0.426561
0.42658
0.426584
0.426577
0.426569
0.426561
0.426545
0.426486
0.426391
0.426371
0.426371
0.426374
0.426382
0.426414
0.426488
0.426518
0.426533
0.426546
0.426537
0.426444
0.426366
0.426368
0.426387
0.426421
0.426514
0.426713
0.42678
0.426792
0.426792
0.426762
0.426607
0.42645
0.426408
0.426378
0.426355
0.426381
0.426474
0.426486
0.426478
0.426464
0.426418
0.426257
0.426168
0.426153
0.42615
0.426161
0.426243
0.426463
0.426534
0.426544
0.426547
0.426535
0.426442
0.426274
0.426247
0.426257
0.426274
0.42631
0.426402
0.426446
0.426461
0.426475
0.426464
0.426357
0.426288
0.426285
0.426289
0.426302
0.426375
0.426501
0.426512
0.426493
0.426468
0.426426
0.426315
0.426238
0.426219
0.426212
0.426207
0.426207
0.426223
0.426286
0.426321
0.426324
0.426323
0.426323
0.426324
0.426328
0.42633
0.426319
0.426245
0.426047
0.425989
0.425991
0.426004
0.426033
0.42614
0.426394
0.426476
0.426496
0.426507
0.426493
0.426356
0.426153
0.426118
0.426114
0.426111
0.426135
0.426263
0.426325
0.426319
0.426305
0.426281
0.426204
0.426117
0.426098
0.426093
0.426095
0.426119
0.426168
0.426176
0.426174
0.426171
0.426157
0.426131
0.426128
0.426134
0.426142
0.426159
0.426179
0.426186
0.426191
0.426198
0.426202
0.426208
0.426218
0.426229
0.426244
0.426266
0.426277
0.426282
0.426284
0.42628
0.426272
0.426265
0.42625
0.426233
0.426222
0.426212
0.426203
0.426195
0.426185
0.426172
0.426163
0.426156
0.426151
0.426147
0.426145
0.426145
0.426145
0.426147
0.42615
0.42615
0.426151
0.426155
0.426162
0.426169
0.426175
0.426181
0.426188
0.426194
0.426202
0.426212
0.426221
0.42623
0.426239
0.426247
0.426257
0.426262
0.426263
0.42626
0.426256
0.42625
0.426237
0.426222
0.426215
0.426211
0.426205
0.426199
0.426195
0.42619
0.426186
0.426184
0.426183
0.426182
0.426182
0.426184
0.426186
0.426191
0.426193
0.426193
0.426193
0.426195
0.426201
0.42621
0.426218
0.426223
0.426226
0.42623
0.426238
0.426251
0.426265
0.426277
0.426285
0.426289
0.426287
0.426285
0.426282
0.42628
0.426278
0.426278
0.426276
0.426265
0.426251
0.42624
0.426233
0.42623
0.42623
0.426232
0.426232
0.426228
0.426221
0.426216
0.426213
0.426213
0.426217
0.426222
0.426227
0.426229
0.426229
0.426229
0.426231
0.426235
0.426243
0.426249
0.426255
0.42626
0.426263
0.426266
0.426273
0.426282
0.426289
0.426293
0.426294
0.426291
0.426284
0.426277
0.426273
0.426271
0.426268
0.426262
0.426251
0.426241
0.426234
0.426231
0.426231
0.426234
0.426237
0.426237
0.426234
0.426228
0.426225
0.426223
0.426224
0.426228
0.426234
0.426236
0.426238
0.426239
0.42624
0.426243
0.426251
0.42626
0.426267
0.42627
0.426271
0.426272
0.426275
0.426279
0.426283
0.426288
0.42629
0.426288
0.426281
0.426276
0.42627
0.426265
0.426262
0.426259
0.426255
0.426248
0.42624
0.426235
0.426235
0.426238
0.426241
0.426243
0.426242
0.426237
0.426232
0.426229
0.42623
0.426236
0.426245
0.426251
0.426253
0.426252
0.42625
0.426248
0.426251
0.426259
0.426268
0.426273
0.426278
0.426281
0.426282
0.426285
0.42629
0.426293
0.426292
0.426289
0.426279
0.426265
0.426255
0.426251
0.426254
0.426264
0.426305
0.426468
0.427118
0.429517
0.43314
0.435166
0.435852
0.436166
0.436319
0.436388
0.436388
0.436341
0.43629
0.436288
0.436297
0.436333
0.436358
0.436356
0.436347
0.436326
0.436312
0.436314
0.436322
0.436331
0.436336
0.436337
0.436331
0.436326
0.436327
0.436328
0.43633
0.436329
0.436319
0.436305
0.436299
0.4363
0.436307
0.43632
0.436329
0.436324
0.436316
0.436308
0.436303
0.436297
0.436294
0.436291
0.436282
0.436271
0.436264
0.436261
0.436263
0.436264
0.436263
0.436258
0.436251
0.436243
0.43624
0.436242
0.43625
0.436256
0.436253
0.436253
0.436259
0.436283
0.436381
0.436744
0.437993
0.440565
0.44265
0.443773
0.444219
0.444322
0.444395
0.444444
0.444488
0.44451
0.444504
0.444478
0.444469
0.444472
0.444487
0.444511
0.444514
0.444511
0.4445
0.444487
0.444477
0.444479
0.444483
0.444483
0.444479
0.444471
0.444467
0.444471
0.444492
0.444519
0.444523
0.444521
0.44451
)
;

boundaryField
{
    sides
    {
        type            calculated;
        value           nonuniform List<scalar> 2(0.44451 0.664404);
    }
    empty
    {
        type            empty;
    }
}


// ************************************************************************* //
