/*--------------------------------*- C++ -*----------------------------------*\
  =========                 |
  \\      /  F ield         | OpenFOAM: The Open Source CFD Toolbox
   \\    /   O peration     | Website:  https://openfoam.org
    \\  /    A nd           | Version:  9
     \\/     M anipulation  |
\*---------------------------------------------------------------------------*/
FoamFile
{
    format      ascii;
    class       volScalarField;
    location    "0.026";
    object      T;
}
// * * * * * * * * * * * * * * * * * * * * * * * * * * * * * * * * * * * * * //

dimensions      [0 0 0 1 0 0 0];

internalField   nonuniform List<scalar> 
1000
(
295.988
295.813
295.707
295.592
295.479
295.365
295.252
295.139
295.026
294.913
294.8
294.687
294.574
294.461
294.349
294.236
294.123
294.01
293.897
293.784
293.671
293.558
293.445
293.332
293.22
293.107
292.995
292.883
292.77
292.658
292.545
292.433
292.32
292.208
292.095
291.983
291.87
291.758
291.646
291.533
291.421
291.309
291.197
291.085
290.973
290.861
290.749
290.637
290.524
290.412
290.3
290.188
290.075
289.963
289.851
289.739
289.627
289.515
289.403
289.29
289.178
289.066
288.954
288.842
288.73
288.618
288.506
288.394
288.282
288.17
288.058
287.946
287.834
287.722
287.611
287.499
287.388
287.276
287.165
287.053
286.942
286.83
286.719
286.608
286.496
286.385
286.273
286.162
286.05
285.938
285.826
285.715
285.603
285.491
285.38
285.269
285.157
285.046
284.935
284.824
284.713
284.601
284.49
284.379
284.268
284.156
284.045
283.934
283.822
283.711
283.6
283.489
283.378
283.267
283.156
283.045
282.934
282.823
282.712
282.601
282.49
282.378
282.267
282.156
282.045
281.934
281.823
281.712
281.601
281.49
281.379
281.268
281.156
281.045
280.933
280.821
280.709
280.597
280.485
280.373
280.261
280.148
280.036
279.923
279.811
279.698
279.586
279.473
279.362
279.25
279.139
279.029
278.919
278.809
278.699
278.59
278.48
278.372
278.263
278.154
278.045
277.936
277.827
277.718
277.609
277.499
277.39
277.281
277.171
277.062
276.952
276.843
276.733
276.624
276.515
276.406
276.297
276.187
276.078
275.969
275.86
275.751
275.642
275.533
275.424
275.315
275.206
275.097
274.988
274.88
274.771
274.662
274.553
274.444
274.335
274.227
274.118
274.009
273.9
273.792
273.683
273.575
273.466
273.357
273.249
273.14
273.032
272.923
272.815
272.706
272.598
272.49
272.381
272.273
272.165
272.056
271.948
271.84
271.731
271.623
271.515
271.407
271.299
271.191
271.082
270.974
270.866
270.758
270.65
270.542
270.434
270.326
270.218
270.111
270.003
269.895
269.787
269.679
269.571
269.464
269.356
269.248
269.141
269.033
268.925
268.818
268.71
268.602
268.495
268.387
268.28
268.172
268.065
267.958
267.85
267.743
267.635
267.528
267.421
267.313
267.206
267.099
266.992
266.884
266.777
266.67
266.563
266.456
266.349
266.242
266.135
266.028
265.921
265.814
265.707
265.6
265.493
265.386
265.279
265.173
265.066
264.959
264.852
264.746
264.639
264.532
264.426
264.319
264.213
264.106
263.999
263.893
263.786
263.68
263.574
263.467
263.361
263.254
263.148
263.042
262.935
262.829
262.722
262.616
262.509
262.403
262.297
262.191
262.084
261.978
261.872
261.766
261.661
261.555
261.449
261.343
261.237
261.131
261.025
260.919
260.814
260.708
260.602
260.496
260.39
260.285
260.179
260.073
259.968
259.862
259.758
259.652
259.545
259.438
259.333
259.234
259.13
259.02
258.911
258.803
258.707
258.608
258.499
258.388
258.277
258.173
258.082
257.978
257.867
257.756
257.646
257.545
257.454
257.348
257.237
257.126
257.017
256.917
256.826
256.719
256.608
256.497
256.388
256.29
256.199
256.091
255.981
255.87
255.762
255.663
255.572
255.465
255.355
255.245
255.136
255.032
254.943
254.84
254.731
254.621
254.511
254.405
254.311
254.215
254.107
253.998
253.889
253.781
253.679
253.588
253.485
253.377
253.268
253.16
253.053
252.955
252.862
252.756
252.648
252.54
252.432
252.326
252.23
252.135
252.029
251.921
251.814
251.707
251.601
251.504
251.408
251.302
251.195
251.088
250.981
250.876
250.776
250.681
250.577
250.472
250.363
250.254
250.149
250.045
249.95
249.863
249.761
249.657
249.548
249.431
249.325
249.224
249.13
249.057
248.974
248.879
248.783
248.678
248.572
248.485
248.404
248.334
248.285
248.224
248.162
248.104
248.044
247.994
247.959
247.933
247.918
247.909
247.9
247.893
247.887
247.88
247.872
247.869
247.868
247.867
247.87
247.879
247.889
247.899
247.907
247.914
247.92
247.921
247.915
247.919
247.927
247.935
247.947
247.958
247.967
247.975
247.976
247.971
247.977
247.983
247.987
247.992
247.991
247.985
247.971
247.952
247.936
247.921
247.911
247.903
247.897
247.89
247.874
247.851
247.846
247.845
247.847
247.861
247.868
247.869
247.869
247.86
247.842
247.841
247.845
247.851
247.865
247.874
247.879
247.883
247.872
247.856
247.861
247.867
247.878
247.91
247.938
247.943
247.942
247.932
247.893
247.853
247.84
247.832
247.829
247.849
247.87
247.869
247.865
247.857
247.825
247.792
247.787
247.786
247.79
247.812
247.839
247.843
247.843
247.841
247.819
247.788
247.786
247.789
247.794
247.81
247.828
247.835
247.84
247.843
247.829
247.819
247.82
247.822
247.825
247.835
247.839
247.837
247.83
247.818
247.799
247.788
247.782
247.778
247.778
247.782
247.783
247.781
247.779
247.777
247.774
247.76
247.738
247.733
247.733
247.734
247.736
247.743
247.76
247.767
247.771
247.773
247.771
247.75
247.731
247.732
247.736
247.744
247.766
247.812
247.827
247.83
247.83
247.823
247.787
247.751
247.741
247.734
247.728
247.734
247.756
247.759
247.757
247.754
247.743
247.705
247.685
247.681
247.68
247.683
247.702
247.753
247.769
247.772
247.773
247.77
247.748
247.709
247.703
247.705
247.709
247.717
247.738
247.749
247.752
247.755
247.753
247.728
247.712
247.711
247.712
247.715
247.732
247.761
247.764
247.759
247.753
247.744
247.718
247.7
247.695
247.693
247.692
247.692
247.696
247.711
247.719
247.72
247.719
247.719
247.72
247.72
247.721
247.718
247.701
247.655
247.641
247.642
247.644
247.651
247.676
247.735
247.754
247.759
247.761
247.758
247.726
247.679
247.671
247.67
247.669
247.675
247.704
247.718
247.717
247.714
247.709
247.691
247.67
247.666
247.664
247.664
247.67
247.682
247.684
247.683
247.682
247.678
247.673
247.672
247.674
247.676
247.68
247.684
247.685
247.686
247.687
247.689
247.691
247.694
247.696
247.699
247.703
247.705
247.707
247.708
247.708
247.706
247.703
247.699
247.694
247.691
247.69
247.69
247.689
247.686
247.682
247.677
247.675
247.675
247.675
247.676
247.676
247.676
247.675
247.674
247.674
247.675
247.677
247.679
247.682
247.682
247.682
247.682
247.684
247.686
247.689
247.694
247.697
247.698
247.698
247.698
247.698
247.699
247.7
247.701
247.7
247.697
247.693
247.689
247.686
247.685
247.685
247.685
247.684
247.683
247.682
247.682
247.682
247.681
247.682
247.682
247.682
247.683
247.683
247.684
247.685
247.686
247.688
247.689
247.689
247.69
247.691
247.694
247.698
247.701
247.703
247.703
247.704
247.705
247.705
247.705
247.704
247.703
247.701
247.7
247.697
247.694
247.693
247.694
247.694
247.693
247.691
247.689
247.687
247.686
247.686
247.687
247.688
247.69
247.69
247.689
247.688
247.688
247.688
247.689
247.691
247.694
247.695
247.695
247.695
247.696
247.697
247.699
247.703
247.704
247.704
247.704
247.703
247.701
247.7
247.699
247.697
247.696
247.695
247.693
247.691
247.691
247.691
247.691
247.69
247.688
247.687
247.685
247.685
247.685
247.686
247.688
247.691
247.691
247.691
247.689
247.687
247.686
247.687
247.689
247.691
247.694
247.697
247.698
247.699
247.7
247.7
247.7
247.7
247.698
247.697
247.695
247.693
247.693
247.694
247.695
247.694
247.693
247.69
247.688
247.686
247.686
247.686
247.687
247.687
247.686
247.685
247.684
247.684
247.685
247.687
247.69
247.69
247.689
247.688
247.686
247.686
247.686
247.689
247.692
247.696
247.697
247.697
247.697
247.696
247.696
247.695
247.694
247.693
247.691
247.689
247.689
247.689
247.69
247.692
247.701
247.738
247.888
248.443
249.268
249.701
249.974
250.021
250.006
249.984
249.984
250
250.029
250.035
250.031
250.016
250
249.998
250.003
250.017
250.023
250.023
250.015
250.001
249.999
250.001
250.008
250.019
250.021
250.019
250.012
250.003
250.001
250.002
250.005
250.009
250.009
250.008
250.007
250.003
250.003
250.005
250.007
250.006
250.002
249.997
249.992
249.991
249.991
249.993
249.996
249.996
249.994
249.991
249.987
249.987
249.988
249.988
249.989
249.988
249.987
249.986
249.987
249.994
250.018
250.103
250.388
250.974
251.469
251.666
251.777
251.862
251.878
251.87
251.85
251.846
251.85
251.865
251.876
251.876
251.87
251.859
251.857
251.858
251.864
251.869
251.867
251.863
251.857
251.855
251.855
251.858
251.862
251.863
251.864
251.865
251.863
251.863
251.864
)
;

boundaryField
{
    sides
    {
        type            zeroGradient;
    }
    empty
    {
        type            empty;
    }
}


// ************************************************************************* //
