/*--------------------------------*- C++ -*----------------------------------*\
  =========                 |
  \\      /  F ield         | OpenFOAM: The Open Source CFD Toolbox
   \\    /   O peration     | Website:  https://openfoam.org
    \\  /    A nd           | Version:  9
     \\/     M anipulation  |
\*---------------------------------------------------------------------------*/
FoamFile
{
    format      ascii;
    class       volVectorField;
    location    "0.026";
    object      U;
}
// * * * * * * * * * * * * * * * * * * * * * * * * * * * * * * * * * * * * * //

dimensions      [0 1 -1 0 0 0 0];

internalField   nonuniform List<vector> 
1000
(
(155.896 0 0)
(156.399 0 0)
(156.691 0 0)
(157.009 0 0)
(157.32 0 0)
(157.634 0 0)
(157.946 0 0)
(158.259 0 0)
(158.572 0 0)
(158.884 0 0)
(159.197 0 0)
(159.509 0 0)
(159.821 0 0)
(160.134 0 0)
(160.446 0 0)
(160.759 0 0)
(161.071 0 0)
(161.384 0 0)
(161.697 0 0)
(162.011 0 0)
(162.324 0 0)
(162.637 0 0)
(162.949 0 0)
(163.262 0 0)
(163.574 0 0)
(163.886 0 0)
(164.198 0 0)
(164.509 0 0)
(164.821 0 0)
(165.133 0 0)
(165.445 0 0)
(165.757 0 0)
(166.07 0 0)
(166.382 0 0)
(166.695 0 0)
(167.008 0 0)
(167.32 0 0)
(167.633 0 0)
(167.945 0 0)
(168.257 0 0)
(168.568 0 0)
(168.88 0 0)
(169.191 0 0)
(169.503 0 0)
(169.814 0 0)
(170.126 0 0)
(170.438 0 0)
(170.751 0 0)
(171.063 0 0)
(171.375 0 0)
(171.688 0 0)
(172.001 0 0)
(172.313 0 0)
(172.626 0 0)
(172.938 0 0)
(173.251 0 0)
(173.563 0 0)
(173.876 0 0)
(174.188 0 0)
(174.501 0 0)
(174.814 0 0)
(175.127 0 0)
(175.439 0 0)
(175.752 0 0)
(176.065 0 0)
(176.378 0 0)
(176.69 0 0)
(177.003 0 0)
(177.316 0 0)
(177.629 0 0)
(177.941 0 0)
(178.254 0 0)
(178.567 0 0)
(178.879 0 0)
(179.191 0 0)
(179.503 0 0)
(179.815 0 0)
(180.127 0 0)
(180.438 0 0)
(180.75 0 0)
(181.062 0 0)
(181.373 0 0)
(181.685 0 0)
(181.997 0 0)
(182.309 0 0)
(182.621 0 0)
(182.933 0 0)
(183.246 0 0)
(183.559 0 0)
(183.872 0 0)
(184.185 0 0)
(184.498 0 0)
(184.811 0 0)
(185.124 0 0)
(185.437 0 0)
(185.749 0 0)
(186.061 0 0)
(186.372 0 0)
(186.684 0 0)
(186.996 0 0)
(187.308 0 0)
(187.621 0 0)
(187.933 0 0)
(188.246 0 0)
(188.558 0 0)
(188.871 0 0)
(189.184 0 0)
(189.496 0 0)
(189.809 0 0)
(190.121 0 0)
(190.433 0 0)
(190.745 0 0)
(191.057 0 0)
(191.369 0 0)
(191.681 0 0)
(191.993 0 0)
(192.305 0 0)
(192.617 0 0)
(192.929 0 0)
(193.241 0 0)
(193.553 0 0)
(193.865 0 0)
(194.176 0 0)
(194.488 0 0)
(194.8 0 0)
(195.112 0 0)
(195.424 0 0)
(195.736 0 0)
(196.048 0 0)
(196.36 0 0)
(196.672 0 0)
(196.983 0 0)
(197.295 0 0)
(197.607 0 0)
(197.919 0 0)
(198.231 0 0)
(198.543 0 0)
(198.854 0 0)
(199.166 0 0)
(199.476 0 0)
(199.787 0 0)
(200.098 0 0)
(200.408 0 0)
(200.719 0 0)
(201.03 0 0)
(201.342 0 0)
(201.653 0 0)
(201.965 0 0)
(202.276 0 0)
(202.587 0 0)
(202.898 0 0)
(203.21 0 0)
(203.521 0 0)
(203.833 0 0)
(204.145 0 0)
(204.457 0 0)
(204.769 0 0)
(205.081 0 0)
(205.392 0 0)
(205.704 0 0)
(206.016 0 0)
(206.327 0 0)
(206.64 0 0)
(206.952 0 0)
(207.264 0 0)
(207.576 0 0)
(207.888 0 0)
(208.199 0 0)
(208.511 0 0)
(208.822 0 0)
(209.134 0 0)
(209.446 0 0)
(209.758 0 0)
(210.07 0 0)
(210.382 0 0)
(210.694 0 0)
(211.006 0 0)
(211.318 0 0)
(211.63 0 0)
(211.942 0 0)
(212.254 0 0)
(212.566 0 0)
(212.878 0 0)
(213.19 0 0)
(213.501 0 0)
(213.813 0 0)
(214.125 0 0)
(214.437 0 0)
(214.749 0 0)
(215.061 0 0)
(215.373 0 0)
(215.685 0 0)
(215.997 0 0)
(216.309 0 0)
(216.621 0 0)
(216.933 0 0)
(217.245 0 0)
(217.557 0 0)
(217.869 0 0)
(218.181 0 0)
(218.493 0 0)
(218.805 0 0)
(219.117 0 0)
(219.429 0 0)
(219.741 0 0)
(220.053 0 0)
(220.365 0 0)
(220.677 0 0)
(220.989 0 0)
(221.3 0 0)
(221.612 0 0)
(221.924 0 0)
(222.236 0 0)
(222.548 0 0)
(222.86 0 0)
(223.172 0 0)
(223.484 0 0)
(223.796 0 0)
(224.108 0 0)
(224.42 0 0)
(224.732 0 0)
(225.044 0 0)
(225.356 0 0)
(225.668 0 0)
(225.98 0 0)
(226.292 0 0)
(226.604 0 0)
(226.916 0 0)
(227.228 0 0)
(227.54 0 0)
(227.852 0 0)
(228.164 0 0)
(228.476 0 0)
(228.788 0 0)
(229.1 0 0)
(229.412 0 0)
(229.724 0 0)
(230.036 0 0)
(230.347 0 0)
(230.659 0 0)
(230.971 0 0)
(231.283 0 0)
(231.595 0 0)
(231.907 0 0)
(232.219 0 0)
(232.531 0 0)
(232.843 0 0)
(233.155 0 0)
(233.467 0 0)
(233.779 0 0)
(234.091 0 0)
(234.403 0 0)
(234.715 0 0)
(235.027 0 0)
(235.339 0 0)
(235.651 0 0)
(235.963 0 0)
(236.275 0 0)
(236.587 0 0)
(236.899 0 0)
(237.211 0 0)
(237.522 0 0)
(237.834 0 0)
(238.146 0 0)
(238.458 0 0)
(238.77 0 0)
(239.082 0 0)
(239.394 0 0)
(239.706 0 0)
(240.018 0 0)
(240.33 0 0)
(240.642 0 0)
(240.954 0 0)
(241.266 0 0)
(241.578 0 0)
(241.89 0 0)
(242.202 0 0)
(242.514 0 0)
(242.826 0 0)
(243.138 0 0)
(243.45 0 0)
(243.762 0 0)
(244.074 0 0)
(244.386 0 0)
(244.698 0 0)
(245.01 0 0)
(245.322 0 0)
(245.634 0 0)
(245.946 0 0)
(246.258 0 0)
(246.57 0 0)
(246.882 0 0)
(247.194 0 0)
(247.506 0 0)
(247.818 0 0)
(248.13 0 0)
(248.441 0 0)
(248.753 0 0)
(249.065 0 0)
(249.378 0 0)
(249.69 0 0)
(250.003 0 0)
(250.315 0 0)
(250.628 0 0)
(250.94 0 0)
(251.253 0 0)
(251.565 0 0)
(251.878 0 0)
(252.19 0 0)
(252.501 0 0)
(252.812 0 0)
(253.124 0 0)
(253.436 0 0)
(253.748 0 0)
(254.06 0 0)
(254.371 0 0)
(254.683 0 0)
(254.994 0 0)
(255.306 0 0)
(255.619 0 0)
(255.931 0 0)
(256.243 0 0)
(256.555 0 0)
(256.867 0 0)
(257.178 0 0)
(257.491 0 0)
(257.803 0 0)
(258.115 0 0)
(258.426 0 0)
(258.739 0 0)
(259.054 0 0)
(259.366 0 0)
(259.673 0 0)
(259.979 0 0)
(260.295 0 0)
(260.626 0 0)
(260.942 0 0)
(261.242 0 0)
(261.539 0 0)
(261.845 0 0)
(262.185 0 0)
(262.519 0 0)
(262.818 0 0)
(263.111 0 0)
(263.407 0 0)
(263.722 0 0)
(264.077 0 0)
(264.395 0 0)
(264.689 0 0)
(264.981 0 0)
(265.278 0 0)
(265.602 0 0)
(265.96 0 0)
(266.268 0 0)
(266.561 0 0)
(266.854 0 0)
(267.152 0 0)
(267.482 0 0)
(267.837 0 0)
(268.142 0 0)
(268.435 0 0)
(268.728 0 0)
(269.027 0 0)
(269.359 0 0)
(269.713 0 0)
(270.018 0 0)
(270.312 0 0)
(270.606 0 0)
(270.905 0 0)
(271.236 0 0)
(271.592 0 0)
(271.897 0 0)
(272.191 0 0)
(272.485 0 0)
(272.781 0 0)
(273.097 0 0)
(273.456 0 0)
(273.775 0 0)
(274.071 0 0)
(274.366 0 0)
(274.661 0 0)
(274.966 0 0)
(275.31 0 0)
(275.65 0 0)
(275.952 0 0)
(276.248 0 0)
(276.544 0 0)
(276.843 0 0)
(277.161 0 0)
(277.516 0 0)
(277.831 0 0)
(278.13 0 0)
(278.427 0 0)
(278.725 0 0)
(279.028 0 0)
(279.359 0 0)
(279.705 0 0)
(280.011 0 0)
(280.31 0 0)
(280.608 0 0)
(280.907 0 0)
(281.213 0 0)
(281.548 0 0)
(281.886 0 0)
(282.191 0 0)
(282.49 0 0)
(282.789 0 0)
(283.089 0 0)
(283.395 0 0)
(283.726 0 0)
(284.061 0 0)
(284.366 0 0)
(284.667 0 0)
(284.965 0 0)
(285.266 0 0)
(285.569 0 0)
(285.891 0 0)
(286.229 0 0)
(286.538 0 0)
(286.839 0 0)
(287.133 0 0)
(287.423 0 0)
(287.723 0 0)
(288.029 0 0)
(288.362 0 0)
(288.717 0 0)
(289.026 0 0)
(289.324 0 0)
(289.605 0 0)
(289.857 0 0)
(290.142 0 0)
(290.436 0 0)
(290.746 0 0)
(291.116 0 0)
(291.448 0 0)
(291.731 0 0)
(291.998 0 0)
(292.222 0 0)
(292.427 0 0)
(292.67 0 0)
(292.913 0 0)
(293.168 0 0)
(293.463 0 0)
(293.686 0 0)
(293.871 0 0)
(294.028 0 0)
(294.135 0 0)
(294.229 0 0)
(294.324 0 0)
(294.403 0 0)
(294.476 0 0)
(294.533 0 0)
(294.562 0 0)
(294.579 0 0)
(294.584 0 0)
(294.572 0 0)
(294.554 0 0)
(294.541 0 0)
(294.52 0 0)
(294.48 0 0)
(294.438 0 0)
(294.403 0 0)
(294.371 0 0)
(294.343 0 0)
(294.319 0 0)
(294.298 0 0)
(294.274 0 0)
(294.231 0 0)
(294.161 0 0)
(294.124 0 0)
(294.101 0 0)
(294.083 0 0)
(294.079 0 0)
(294.065 0 0)
(294.039 0 0)
(294.003 0 0)
(293.936 0 0)
(293.856 0 0)
(293.823 0 0)
(293.806 0 0)
(293.8 0 0)
(293.806 0 0)
(293.812 0 0)
(293.827 0 0)
(293.847 0 0)
(293.873 0 0)
(293.919 0 0)
(293.965 0 0)
(294.011 0 0)
(294.044 0 0)
(294.063 0 0)
(294.069 0 0)
(294.037 0 0)
(293.978 0 0)
(293.971 0 0)
(293.974 0 0)
(293.986 0 0)
(294.032 0 0)
(294.058 0 0)
(294.058 0 0)
(294.049 0 0)
(294.005 0 0)
(293.926 0 0)
(293.901 0 0)
(293.888 0 0)
(293.885 0 0)
(293.906 0 0)
(293.906 0 0)
(293.89 0 0)
(293.861 0 0)
(293.781 0 0)
(293.686 0 0)
(293.653 0 0)
(293.635 0 0)
(293.636 0 0)
(293.716 0 0)
(293.793 0 0)
(293.8 0 0)
(293.801 0 0)
(293.791 0 0)
(293.702 0 0)
(293.625 0 0)
(293.638 0 0)
(293.664 0 0)
(293.699 0 0)
(293.796 0 0)
(293.892 0 0)
(293.914 0 0)
(293.924 0 0)
(293.915 0 0)
(293.827 0 0)
(293.728 0 0)
(293.717 0 0)
(293.718 0 0)
(293.73 0 0)
(293.801 0 0)
(293.884 0 0)
(293.895 0 0)
(293.891 0 0)
(293.873 0 0)
(293.785 0 0)
(293.667 0 0)
(293.638 0 0)
(293.627 0 0)
(293.625 0 0)
(293.657 0 0)
(293.694 0 0)
(293.687 0 0)
(293.668 0 0)
(293.637 0 0)
(293.56 0 0)
(293.5 0 0)
(293.486 0 0)
(293.481 0 0)
(293.487 0 0)
(293.52 0 0)
(293.539 0 0)
(293.551 0 0)
(293.567 0 0)
(293.579 0 0)
(293.568 0 0)
(293.578 0 0)
(293.593 0 0)
(293.605 0 0)
(293.619 0 0)
(293.647 0 0)
(293.663 0 0)
(293.67 0 0)
(293.675 0 0)
(293.677 0 0)
(293.671 0 0)
(293.629 0 0)
(293.56 0 0)
(293.544 0 0)
(293.541 0 0)
(293.539 0 0)
(293.54 0 0)
(293.556 0 0)
(293.598 0 0)
(293.603 0 0)
(293.594 0 0)
(293.581 0 0)
(293.555 0 0)
(293.469 0 0)
(293.395 0 0)
(293.376 0 0)
(293.363 0 0)
(293.355 0 0)
(293.392 0 0)
(293.513 0 0)
(293.544 0 0)
(293.543 0 0)
(293.538 0 0)
(293.516 0 0)
(293.408 0 0)
(293.309 0 0)
(293.309 0 0)
(293.328 0 0)
(293.356 0 0)
(293.414 0 0)
(293.512 0 0)
(293.542 0 0)
(293.55 0 0)
(293.551 0 0)
(293.525 0 0)
(293.415 0 0)
(293.356 0 0)
(293.353 0 0)
(293.357 0 0)
(293.369 0 0)
(293.431 0 0)
(293.593 0 0)
(293.642 0 0)
(293.644 0 0)
(293.64 0 0)
(293.624 0 0)
(293.547 0 0)
(293.412 0 0)
(293.377 0 0)
(293.364 0 0)
(293.356 0 0)
(293.365 0 0)
(293.417 0 0)
(293.433 0 0)
(293.426 0 0)
(293.411 0 0)
(293.377 0 0)
(293.275 0 0)
(293.209 0 0)
(293.198 0 0)
(293.197 0 0)
(293.207 0 0)
(293.269 0 0)
(293.379 0 0)
(293.414 0 0)
(293.432 0 0)
(293.446 0 0)
(293.444 0 0)
(293.387 0 0)
(293.35 0 0)
(293.35 0 0)
(293.354 0 0)
(293.357 0 0)
(293.362 0 0)
(293.378 0 0)
(293.43 0 0)
(293.461 0 0)
(293.468 0 0)
(293.47 0 0)
(293.47 0 0)
(293.468 0 0)
(293.465 0 0)
(293.458 0 0)
(293.441 0 0)
(293.379 0 0)
(293.224 0 0)
(293.171 0 0)
(293.159 0 0)
(293.152 0 0)
(293.155 0 0)
(293.218 0 0)
(293.391 0 0)
(293.437 0 0)
(293.434 0 0)
(293.422 0 0)
(293.394 0 0)
(293.28 0 0)
(293.123 0 0)
(293.094 0 0)
(293.094 0 0)
(293.102 0 0)
(293.14 0 0)
(293.261 0 0)
(293.33 0 0)
(293.346 0 0)
(293.355 0 0)
(293.356 0 0)
(293.316 0 0)
(293.265 0 0)
(293.26 0 0)
(293.262 0 0)
(293.267 0 0)
(293.288 0 0)
(293.326 0 0)
(293.335 0 0)
(293.337 0 0)
(293.337 0 0)
(293.328 0 0)
(293.308 0 0)
(293.301 0 0)
(293.297 0 0)
(293.293 0 0)
(293.296 0 0)
(293.303 0 0)
(293.302 0 0)
(293.298 0 0)
(293.291 0 0)
(293.279 0 0)
(293.265 0 0)
(293.258 0 0)
(293.251 0 0)
(293.248 0 0)
(293.249 0 0)
(293.245 0 0)
(293.241 0 0)
(293.239 0 0)
(293.236 0 0)
(293.232 0 0)
(293.235 0 0)
(293.246 0 0)
(293.26 0 0)
(293.272 0 0)
(293.279 0 0)
(293.285 0 0)
(293.29 0 0)
(293.294 0 0)
(293.295 0 0)
(293.296 0 0)
(293.298 0 0)
(293.299 0 0)
(293.3 0 0)
(293.301 0 0)
(293.301 0 0)
(293.302 0 0)
(293.303 0 0)
(293.305 0 0)
(293.305 0 0)
(293.304 0 0)
(293.3 0 0)
(293.293 0 0)
(293.288 0 0)
(293.284 0 0)
(293.282 0 0)
(293.282 0 0)
(293.281 0 0)
(293.275 0 0)
(293.266 0 0)
(293.256 0 0)
(293.249 0 0)
(293.244 0 0)
(293.242 0 0)
(293.242 0 0)
(293.242 0 0)
(293.241 0 0)
(293.241 0 0)
(293.242 0 0)
(293.247 0 0)
(293.257 0 0)
(293.271 0 0)
(293.284 0 0)
(293.291 0 0)
(293.294 0 0)
(293.296 0 0)
(293.299 0 0)
(293.302 0 0)
(293.306 0 0)
(293.313 0 0)
(293.318 0 0)
(293.319 0 0)
(293.319 0 0)
(293.319 0 0)
(293.318 0 0)
(293.32 0 0)
(293.322 0 0)
(293.322 0 0)
(293.322 0 0)
(293.319 0 0)
(293.314 0 0)
(293.307 0 0)
(293.302 0 0)
(293.299 0 0)
(293.297 0 0)
(293.296 0 0)
(293.298 0 0)
(293.296 0 0)
(293.289 0 0)
(293.281 0 0)
(293.276 0 0)
(293.274 0 0)
(293.273 0 0)
(293.274 0 0)
(293.276 0 0)
(293.278 0 0)
(293.281 0 0)
(293.287 0 0)
(293.296 0 0)
(293.306 0 0)
(293.315 0 0)
(293.321 0 0)
(293.324 0 0)
(293.326 0 0)
(293.327 0 0)
(293.329 0 0)
(293.33 0 0)
(293.333 0 0)
(293.336 0 0)
(293.338 0 0)
(293.338 0 0)
(293.337 0 0)
(293.335 0 0)
(293.333 0 0)
(293.333 0 0)
(293.332 0 0)
(293.332 0 0)
(293.33 0 0)
(293.327 0 0)
(293.32 0 0)
(293.314 0 0)
(293.31 0 0)
(293.308 0 0)
(293.308 0 0)
(293.307 0 0)
(293.305 0 0)
(293.299 0 0)
(293.29 0 0)
(293.284 0 0)
(293.281 0 0)
(293.28 0 0)
(293.282 0 0)
(293.288 0 0)
(293.293 0 0)
(293.297 0 0)
(293.299 0 0)
(293.303 0 0)
(293.307 0 0)
(293.315 0 0)
(293.321 0 0)
(293.326 0 0)
(293.328 0 0)
(293.328 0 0)
(293.327 0 0)
(293.326 0 0)
(293.326 0 0)
(293.328 0 0)
(293.332 0 0)
(293.334 0 0)
(293.335 0 0)
(293.333 0 0)
(293.331 0 0)
(293.328 0 0)
(293.326 0 0)
(293.325 0 0)
(293.324 0 0)
(293.322 0 0)
(293.319 0 0)
(293.313 0 0)
(293.307 0 0)
(293.305 0 0)
(293.305 0 0)
(293.305 0 0)
(293.305 0 0)
(293.303 0 0)
(293.296 0 0)
(293.286 0 0)
(293.282 0 0)
(293.281 0 0)
(293.283 0 0)
(293.291 0 0)
(293.303 0 0)
(293.308 0 0)
(293.311 0 0)
(293.312 0 0)
(293.312 0 0)
(293.313 0 0)
(293.317 0 0)
(293.323 0 0)
(293.326 0 0)
(293.328 0 0)
(293.329 0 0)
(293.326 0 0)
(293.325 0 0)
(293.325 0 0)
(293.326 0 0)
(293.329 0 0)
(293.33 0 0)
(293.33 0 0)
(293.327 0 0)
(293.324 0 0)
(293.321 0 0)
(293.32 0 0)
(293.32 0 0)
(293.319 0 0)
(293.318 0 0)
(293.315 0 0)
(293.308 0 0)
(293.301 0 0)
(293.299 0 0)
(293.3 0 0)
(293.301 0 0)
(293.302 0 0)
(293.3 0 0)
(293.296 0 0)
(293.292 0 0)
(293.288 0 0)
(293.287 0 0)
(293.293 0 0)
(293.302 0 0)
(293.31 0 0)
(293.314 0 0)
(293.316 0 0)
(293.311 0 0)
(293.282 0 0)
(293.162 0 0)
(292.682 0 0)
(290.91 0 0)
(288.287 0 0)
(286.767 0 0)
(286.217 0 0)
(286.022 0 0)
(285.958 0 0)
(285.933 0 0)
(285.929 0 0)
(285.919 0 0)
(285.915 0 0)
(285.917 0 0)
(285.921 0 0)
(285.933 0 0)
(285.938 0 0)
(285.939 0 0)
(285.937 0 0)
(285.932 0 0)
(285.924 0 0)
(285.922 0 0)
(285.923 0 0)
(285.924 0 0)
(285.932 0 0)
(285.938 0 0)
(285.939 0 0)
(285.941 0 0)
(285.94 0 0)
(285.94 0 0)
(285.939 0 0)
(285.937 0 0)
(285.936 0 0)
(285.931 0 0)
(285.929 0 0)
(285.93 0 0)
(285.932 0 0)
(285.941 0 0)
(285.955 0 0)
(285.96 0 0)
(285.963 0 0)
(285.964 0 0)
(285.962 0 0)
(285.957 0 0)
(285.953 0 0)
(285.954 0 0)
(285.957 0 0)
(285.962 0 0)
(285.966 0 0)
(285.97 0 0)
(285.975 0 0)
(285.978 0 0)
(285.983 0 0)
(285.992 0 0)
(286.001 0 0)
(286.006 0 0)
(286.008 0 0)
(286.006 0 0)
(286.001 0 0)
(285.994 0 0)
(285.985 0 0)
(285.979 0 0)
(285.973 0 0)
(285.954 0 0)
(285.883 0 0)
(285.627 0 0)
(284.734 0 0)
(282.884 0 0)
(281.388 0 0)
(280.623 0 0)
(280.283 0 0)
(280.137 0 0)
(280.077 0 0)
(280.052 0 0)
(280.041 0 0)
(280.046 0 0)
(280.048 0 0)
(280.05 0 0)
(280.055 0 0)
(280.056 0 0)
(280.06 0 0)
(280.063 0 0)
(280.062 0 0)
(280.062 0 0)
(280.062 0 0)
(280.06 0 0)
(280.054 0 0)
(280.052 0 0)
(280.048 0 0)
(280.046 0 0)
(280.045 0 0)
(280.043 0 0)
(280.045 0 0)
(280.048 0 0)
(280.06 0 0)
(280.074 0 0)
(280.075 0 0)
(280.074 0 0)
(280.068 0 0)
)
;

boundaryField
{
    sides
    {
        type            zeroGradient;
    }
    empty
    {
        type            empty;
    }
}


// ************************************************************************* //
