/*--------------------------------*- C++ -*----------------------------------*\
  =========                 |
  \\      /  F ield         | OpenFOAM: The Open Source CFD Toolbox
   \\    /   O peration     | Website:  https://openfoam.org
    \\  /    A nd           | Version:  9
     \\/     M anipulation  |
\*---------------------------------------------------------------------------*/
FoamFile
{
    format      ascii;
    class       volScalarField;
    location    "0.029";
    object      T;
}
// * * * * * * * * * * * * * * * * * * * * * * * * * * * * * * * * * * * * * //

dimensions      [0 0 0 1 0 0 0];

internalField   nonuniform List<scalar> 
100
(
235.731
235.558
235.387
235.303
235.26
235.179
235.099
234.886
234.75
234.474
234.26
234.056
233.759
233.581
233.364
233.075
232.892
232.735
232.464
232.199
232.062
231.931
231.676
231.396
231.237
231.157
231.004
230.736
230.517
230.419
230.353
230.205
229.983
229.835
229.783
229.754
229.68
229.525
229.445
229.447
229.476
229.521
229.529
229.531
229.539
229.569
229.649
229.805
229.999
230.202
230.392
230.623
230.967
231.323
231.63
231.955
232.318
232.759
233.297
233.817
234.242
234.638
235.108
235.675
236.295
236.892
237.399
237.842
238.325
238.891
239.504
240.095
240.628
241.13
241.615
242.109
242.649
243.214
243.749
244.258
244.749
245.199
245.613
246.022
246.43
246.818
247.174
247.483
247.738
247.956
248.158
248.359
248.54
248.696
248.792
248.871
248.922
249.03
249.091
249.226
)
;

boundaryField
{
    sides
    {
        type            zeroGradient;
    }
    empty
    {
        type            empty;
    }
}


// ************************************************************************* //
