/*--------------------------------*- C++ -*----------------------------------*\
  =========                 |
  \\      /  F ield         | OpenFOAM: The Open Source CFD Toolbox
   \\    /   O peration     | Website:  https://openfoam.org
    \\  /    A nd           | Version:  9
     \\/     M anipulation  |
\*---------------------------------------------------------------------------*/
FoamFile
{
    format      ascii;
    class       volScalarField;
    location    "0.033";
    object      mag(U);
}
// * * * * * * * * * * * * * * * * * * * * * * * * * * * * * * * * * * * * * //

dimensions      [0 1 -1 0 0 0 0];

internalField   nonuniform List<scalar> 
10000
(
4.75178
4.79911
4.84957
4.89111
4.92908
4.96742
5.0066
5.04602
5.08538
5.12467
5.16393
5.20321
5.2425
5.28178
5.32106
5.36035
5.39963
5.43892
5.4782
5.51749
5.55677
5.59605
5.63534
5.67462
5.71391
5.7532
5.79248
5.83177
5.87106
5.91034
5.94963
5.98891
6.0282
6.06749
6.10678
6.14607
6.18535
6.22464
6.26393
6.30322
6.34251
6.3818
6.42109
6.46038
6.49967
6.53895
6.57824
6.61753
6.65682
6.69611
6.7354
6.77469
6.81399
6.85328
6.89257
6.93186
6.97116
7.01045
7.04974
7.08903
7.12832
7.16761
7.2069
7.2462
7.28549
7.32478
7.36408
7.40337
7.44267
7.48196
7.52126
7.56056
7.59985
7.63915
7.67845
7.71775
7.75704
7.79634
7.83564
7.87493
7.91423
7.95353
7.99282
8.03212
8.07142
8.11072
8.15001
8.18931
8.22861
8.26791
8.30721
8.34651
8.3858
8.4251
8.4644
8.5037
8.543
8.5823
8.6216
8.6609
8.7002
8.7395
8.7788
8.8181
8.8574
8.8967
8.93601
8.97531
9.01461
9.05391
9.09321
9.13251
9.17182
9.21112
9.25042
9.28973
9.32903
9.36833
9.40764
9.44694
9.48624
9.52555
9.56485
9.60416
9.64346
9.68277
9.72207
9.76138
9.80068
9.83999
9.8793
9.9186
9.95791
9.99722
10.0365
10.0758
10.1151
10.1544
10.1938
10.2331
10.2724
10.3117
10.351
10.3903
10.4296
10.4689
10.5082
10.5475
10.5868
10.6261
10.6655
10.7048
10.7441
10.7834
10.8227
10.862
10.9013
10.9406
10.9799
11.0193
11.0586
11.0979
11.1372
11.1765
11.2158
11.2551
11.2944
11.3338
11.3731
11.4124
11.4517
11.491
11.5303
11.5696
11.609
11.6483
11.6876
11.7269
11.7662
11.8055
11.8448
11.8842
11.9235
11.9628
12.0021
12.0414
12.0807
12.1201
12.1594
12.1987
12.238
12.2773
12.3166
12.356
12.3953
12.4346
12.4739
12.5132
12.5526
12.5919
12.6312
12.6705
12.7098
12.7492
12.7885
12.8278
12.8671
12.9064
12.9458
12.9851
13.0244
13.0637
13.103
13.1424
13.1817
13.221
13.2603
13.2997
13.339
13.3783
13.4176
13.457
13.4963
13.5356
13.5749
13.6142
13.6536
13.6929
13.7322
13.7715
13.8109
13.8502
13.8895
13.9288
13.9682
14.0075
14.0468
14.0862
14.1255
14.1648
14.2041
14.2435
14.2828
14.3221
14.3614
14.4008
14.4401
14.4794
14.5188
14.5581
14.5974
14.6367
14.6761
14.7154
14.7547
14.7941
14.8334
14.8727
14.9121
14.9514
14.9907
15.03
15.0694
15.1087
15.148
15.1874
15.2267
15.266
15.3054
15.3447
15.384
15.4234
15.4627
15.502
15.5414
15.5807
15.62
15.6594
15.6987
15.738
15.7774
15.8167
15.856
15.8954
15.9347
15.974
16.0134
16.0527
16.0921
16.1314
16.1707
16.2101
16.2494
16.2887
16.3281
16.3674
16.4068
16.4461
16.4854
16.5248
16.5641
16.6034
16.6428
16.6821
16.7215
16.7608
16.8001
16.8395
16.8788
16.9182
16.9575
16.9968
17.0362
17.0755
17.1149
17.1542
17.1935
17.2329
17.2722
17.3116
17.3509
17.3903
17.4296
17.4689
17.5083
17.5476
17.587
17.6263
17.6657
17.705
17.7443
17.7837
17.823
17.8624
17.9017
17.9411
17.9804
18.0198
18.0591
18.0984
18.1378
18.1771
18.2165
18.2558
18.2952
18.3345
18.3739
18.4132
18.4526
18.4919
18.5313
18.5706
18.61
18.6493
18.6887
18.728
18.7674
18.8067
18.8461
18.8854
18.9248
18.9641
19.0035
19.0428
19.0822
19.1215
19.1609
19.2002
19.2396
19.2789
19.3183
19.3576
19.397
19.4363
19.4757
19.515
19.5544
19.5937
19.6331
19.6724
19.7118
19.7511
19.7905
19.8298
19.8692
19.9086
19.9479
19.9873
20.0266
20.066
20.1053
20.1447
20.184
20.2234
20.2627
20.3021
20.3415
20.3808
20.4202
20.4595
20.4989
20.5382
20.5776
20.617
20.6563
20.6957
20.735
20.7744
20.8137
20.8531
20.8925
20.9318
20.9712
21.0105
21.0499
21.0893
21.1286
21.168
21.2073
21.2467
21.2861
21.3254
21.3648
21.4041
21.4435
21.4829
21.5222
21.5616
21.601
21.6403
21.6797
21.719
21.7584
21.7978
21.8371
21.8765
21.9159
21.9552
21.9946
22.034
22.0733
22.1127
22.152
22.1914
22.2308
22.2701
22.3095
22.3489
22.3882
22.4276
22.467
22.5063
22.5457
22.5851
22.6244
22.6638
22.7032
22.7425
22.7819
22.8213
22.8606
22.9
22.9394
22.9787
23.0181
23.0575
23.0969
23.1362
23.1756
23.215
23.2543
23.2937
23.3331
23.3724
23.4118
23.4512
23.4906
23.5299
23.5693
23.6087
23.648
23.6874
23.7268
23.7662
23.8055
23.8449
23.8843
23.9236
23.963
24.0024
24.0418
24.0811
24.1205
24.1599
24.1993
24.2386
24.278
24.3174
24.3568
24.3961
24.4355
24.4749
24.5143
24.5536
24.593
24.6324
24.6718
24.7111
24.7505
24.7899
24.8293
24.8686
24.908
24.9474
24.9868
25.0262
25.0655
25.1049
25.1443
25.1837
25.2231
25.2624
25.3018
25.3412
25.3806
25.4199
25.4593
25.4987
25.5381
25.5775
25.6169
25.6562
25.6956
25.735
25.7744
25.8138
25.8531
25.8925
25.9319
25.9713
26.0107
26.05
26.0894
26.1288
26.1682
26.2076
26.247
26.2863
26.3257
26.3651
26.4045
26.4439
26.4833
26.5227
26.562
26.6014
26.6408
26.6802
26.7196
26.759
26.7984
26.8377
26.8771
26.9165
26.9559
26.9953
27.0347
27.0741
27.1134
27.1528
27.1922
27.2316
27.271
27.3104
27.3498
27.3892
27.4286
27.4679
27.5073
27.5467
27.5861
27.6255
27.6649
27.7043
27.7437
27.7831
27.8224
27.8618
27.9012
27.9406
27.98
28.0194
28.0588
28.0982
28.1376
28.177
28.2164
28.2558
28.2952
28.3345
28.3739
28.4133
28.4527
28.4921
28.5315
28.5709
28.6103
28.6497
28.6891
28.7285
28.7679
28.8073
28.8467
28.8861
28.9255
28.9649
29.0043
29.0436
29.083
29.1224
29.1618
29.2012
29.2406
29.28
29.3194
29.3588
29.3982
29.4376
29.477
29.5164
29.5558
29.5952
29.6346
29.674
29.7134
29.7528
29.7922
29.8316
29.871
29.9104
29.9498
29.9892
30.0286
30.068
30.1074
30.1468
30.1862
30.2256
30.265
30.3044
30.3438
30.3832
30.4226
30.462
30.5014
30.5408
30.5802
30.6196
30.659
30.6984
30.7378
30.7772
30.8167
30.8561
30.8955
30.9349
30.9743
31.0137
31.0531
31.0925
31.1319
31.1713
31.2107
31.2501
31.2895
31.3289
31.3683
31.4077
31.4471
31.4865
31.526
31.5654
31.6048
31.6442
31.6836
31.723
31.7624
31.8018
31.8412
31.8806
31.92
31.9594
31.9989
32.0383
32.0777
32.1171
32.1565
32.1959
32.2353
32.2747
32.3141
32.3535
32.393
32.4324
32.4718
32.5112
32.5506
32.59
32.6294
32.6688
32.7082
32.7477
32.7871
32.8265
32.8659
32.9053
32.9447
32.9841
33.0236
33.063
33.1024
33.1418
33.1812
33.2206
33.26
33.2995
33.3389
33.3783
33.4177
33.4571
33.4965
33.5359
33.5754
33.6148
33.6542
33.6936
33.733
33.7724
33.8119
33.8513
33.8907
33.9301
33.9695
34.009
34.0484
34.0878
34.1272
34.1666
34.206
34.2455
34.2849
34.3243
34.3637
34.4031
34.4426
34.482
34.5214
34.5608
34.6002
34.6397
34.6791
34.7185
34.7579
34.7973
34.8368
34.8762
34.9156
34.955
34.9945
35.0339
35.0733
35.1127
35.1521
35.1916
35.231
35.2704
35.3098
35.3493
35.3887
35.4281
35.4675
35.507
35.5464
35.5858
35.6252
35.6647
35.7041
35.7435
35.7829
35.8224
35.8618
35.9012
35.9406
35.9801
36.0195
36.0589
36.0983
36.1378
36.1772
36.2166
36.2561
36.2955
36.3349
36.3743
36.4138
36.4532
36.4926
36.5321
36.5715
36.6109
36.6503
36.6898
36.7292
36.7686
36.8081
36.8475
36.8869
36.9264
36.9658
37.0052
37.0446
37.0841
37.1235
37.1629
37.2024
37.2418
37.2812
37.3207
37.3601
37.3995
37.439
37.4784
37.5178
37.5573
37.5967
37.6361
37.6756
37.715
37.7544
37.7939
37.8333
37.8727
37.9122
37.9516
37.991
38.0305
38.0699
38.1094
38.1488
38.1882
38.2277
38.2671
38.3065
38.346
38.3854
38.4248
38.4643
38.5037
38.5432
38.5826
38.622
38.6615
38.7009
38.7403
38.7798
38.8192
38.8587
38.8981
38.9375
38.977
39.0164
39.0559
39.0953
39.1347
39.1742
39.2136
39.2531
39.2925
39.3319
39.3714
39.4108
39.4503
39.4897
39.5291
39.5686
39.608
39.6475
39.6869
39.7264
39.7658
39.8052
39.8447
39.8841
39.9236
39.963
40.0025
40.0419
40.0813
40.1208
40.1602
40.1997
40.2391
40.2786
40.318
40.3575
40.3969
40.4363
40.4758
40.5152
40.5547
40.5941
40.6336
40.673
40.7125
40.7519
40.7914
40.8308
40.8703
40.9097
40.9492
40.9886
41.0281
41.0675
41.1069
41.1464
41.1858
41.2253
41.2647
41.3042
41.3436
41.3831
41.4225
41.462
41.5014
41.5409
41.5803
41.6198
41.6592
41.6987
41.7381
41.7776
41.817
41.8565
41.8959
41.9354
41.9749
42.0143
42.0538
42.0932
42.1327
42.1721
42.2116
42.251
42.2905
42.3299
42.3694
42.4088
42.4483
42.4877
42.5272
42.5666
42.6061
42.6456
42.685
42.7245
42.7639
42.8034
42.8428
42.8823
42.9217
42.9612
43.0007
43.0401
43.0796
43.119
43.1585
43.1979
43.2374
43.2769
43.3163
43.3558
43.3952
43.4347
43.4741
43.5136
43.5531
43.5925
43.632
43.6714
43.7109
43.7504
43.7898
43.8293
43.8687
43.9082
43.9477
43.9871
44.0266
44.066
44.1055
44.145
44.1844
44.2239
44.2633
44.3028
44.3423
44.3817
44.4212
44.4606
44.5001
44.5396
44.579
44.6185
44.658
44.6974
44.7369
44.7763
44.8158
44.8553
44.8947
44.9342
44.9737
45.0131
45.0526
45.0921
45.1315
45.171
45.2105
45.2499
45.2894
45.3289
45.3683
45.4078
45.4473
45.4867
45.5262
45.5656
45.6051
45.6446
45.6841
45.7235
45.763
45.8025
45.8419
45.8814
45.9209
45.9603
45.9998
46.0393
46.0787
46.1182
46.1577
46.1971
46.2366
46.2761
46.3155
46.355
46.3945
46.434
46.4734
46.5129
46.5524
46.5918
46.6313
46.6708
46.7102
46.7497
46.7892
46.8287
46.8681
46.9076
46.9471
46.9866
47.026
47.0655
47.105
47.1444
47.1839
47.2234
47.2629
47.3023
47.3418
47.3813
47.4208
47.4602
47.4997
47.5392
47.5787
47.6181
47.6576
47.6971
47.7366
47.776
47.8155
47.855
47.8945
47.9339
47.9734
48.0129
48.0524
48.0918
48.1313
48.1708
48.2103
48.2497
48.2892
48.3287
48.3682
48.4077
48.4471
48.4866
48.5261
48.5656
48.6051
48.6445
48.684
48.7235
48.763
48.8024
48.8419
48.8814
48.9209
48.9604
48.9998
49.0393
49.0788
49.1183
49.1578
49.1973
49.2367
49.2762
49.3157
49.3552
49.3947
49.4341
49.4736
49.5131
49.5526
49.5921
49.6316
49.671
49.7105
49.75
49.7895
49.829
49.8685
49.9079
49.9474
49.9869
50.0264
50.0659
50.1054
50.1448
50.1843
50.2238
50.2633
50.3028
50.3423
50.3818
50.4212
50.4607
50.5002
50.5397
50.5792
50.6187
50.6582
50.6976
50.7371
50.7766
50.8161
50.8556
50.8951
50.9346
50.9741
51.0135
51.053
51.0925
51.132
51.1715
51.211
51.2505
51.29
51.3295
51.3689
51.4084
51.4479
51.4874
51.5269
51.5664
51.6059
51.6454
51.6849
51.7244
51.7639
51.8033
51.8428
51.8823
51.9218
51.9613
52.0008
52.0403
52.0798
52.1193
52.1588
52.1983
52.2378
52.2773
52.3167
52.3562
52.3957
52.4352
52.4747
52.5142
52.5537
52.5932
52.6327
52.6722
52.7117
52.7512
52.7907
52.8302
52.8697
52.9092
52.9487
52.9882
53.0276
53.0671
53.1066
53.1461
53.1856
53.2251
53.2646
53.3041
53.3436
53.3831
53.4226
53.4621
53.5016
53.5411
53.5806
53.6201
53.6596
53.6991
53.7386
53.7781
53.8176
53.8571
53.8966
53.9361
53.9756
54.0151
54.0546
54.0941
54.1336
54.1731
54.2126
54.2521
54.2916
54.3311
54.3706
54.4101
54.4496
54.4891
54.5286
54.5681
54.6076
54.6471
54.6866
54.7261
54.7656
54.8051
54.8446
54.8841
54.9236
54.9631
55.0026
55.0421
55.0816
55.1211
55.1607
55.2002
55.2397
55.2792
55.3187
55.3582
55.3977
55.4372
55.4767
55.5162
55.5557
55.5952
55.6347
55.6742
55.7137
55.7532
55.7927
55.8322
55.8717
55.9113
55.9508
55.9903
56.0298
56.0693
56.1088
56.1483
56.1878
56.2273
56.2668
56.3063
56.3458
56.3853
56.4249
56.4644
56.5039
56.5434
56.5829
56.6224
56.6619
56.7014
56.7409
56.7804
56.82
56.8595
56.899
56.9385
56.978
57.0175
57.057
57.0965
57.136
57.1756
57.2151
57.2546
57.2941
57.3336
57.3731
57.4126
57.4521
57.4916
57.5312
57.5707
57.6102
57.6497
57.6892
57.7287
57.7682
57.8078
57.8473
57.8868
57.9263
57.9658
58.0053
58.0448
58.0844
58.1239
58.1634
58.2029
58.2424
58.2819
58.3214
58.361
58.4005
58.44
58.4795
58.519
58.5585
58.5981
58.6376
58.6771
58.7166
58.7561
58.7956
58.8352
58.8747
58.9142
58.9537
58.9932
59.0328
59.0723
59.1118
59.1513
59.1908
59.2303
59.2699
59.3094
59.3489
59.3884
59.4279
59.4675
59.507
59.5465
59.586
59.6255
59.6651
59.7046
59.7441
59.7836
59.8231
59.8627
59.9022
59.9417
59.9812
60.0208
60.0603
60.0998
60.1393
60.1788
60.2184
60.2579
60.2974
60.3369
60.3765
60.416
60.4555
60.495
60.5345
60.5741
60.6136
60.6531
60.6926
60.7322
60.7717
60.8112
60.8507
60.8903
60.9298
60.9693
61.0088
61.0484
61.0879
61.1274
61.1669
61.2065
61.246
61.2855
61.3251
61.3646
61.4041
61.4436
61.4832
61.5227
61.5622
61.6017
61.6413
61.6808
61.7203
61.7598
61.7994
61.8389
61.8784
61.918
61.9575
61.997
62.0365
62.0761
62.1156
62.1551
62.1947
62.2342
62.2737
62.3133
62.3528
62.3923
62.4318
62.4714
62.5109
62.5504
62.59
62.6295
62.669
62.7086
62.7481
62.7876
62.8272
62.8667
62.9062
62.9457
62.9853
63.0248
63.0643
63.1039
63.1434
63.1829
63.2225
63.262
63.3015
63.3411
63.3806
63.4201
63.4597
63.4992
63.5387
63.5783
63.6178
63.6573
63.6969
63.7364
63.776
63.8155
63.855
63.8946
63.9341
63.9736
64.0132
64.0527
64.0922
64.1318
64.1713
64.2108
64.2504
64.2899
64.3295
64.369
64.4085
64.4481
64.4876
64.5271
64.5667
64.6062
64.6458
64.6853
64.7248
64.7644
64.8039
64.8434
64.883
64.9225
64.9621
65.0016
65.0411
65.0807
65.1202
65.1598
65.1993
65.2388
65.2784
65.3179
65.3575
65.397
65.4365
65.4761
65.5156
65.5552
65.5947
65.6342
65.6738
65.7133
65.7529
65.7924
65.8319
65.8715
65.911
65.9506
65.9901
66.0297
66.0692
66.1087
66.1483
66.1878
66.2274
66.2669
66.3065
66.346
66.3855
66.4251
66.4646
66.5042
66.5437
66.5833
66.6228
66.6623
66.7019
66.7414
66.781
66.8205
66.8601
66.8996
66.9392
66.9787
67.0183
67.0578
67.0973
67.1369
67.1764
67.216
67.2555
67.2951
67.3346
67.3742
67.4137
67.4533
67.4928
67.5324
67.5719
67.6115
67.651
67.6905
67.7301
67.7696
67.8092
67.8487
67.8883
67.9278
67.9674
68.0069
68.0465
68.086
68.1256
68.1651
68.2047
68.2442
68.2838
68.3233
68.3629
68.4024
68.442
68.4815
68.5211
68.5606
68.6002
68.6397
68.6793
68.7188
68.7584
68.7979
68.8375
68.877
68.9166
68.9561
68.9957
69.0352
69.0748
69.1143
69.1539
69.1935
69.233
69.2726
69.3121
69.3517
69.3912
69.4308
69.4703
69.5099
69.5494
69.589
69.6285
69.6681
69.7076
69.7472
69.7868
69.8263
69.8659
69.9054
69.945
69.9845
70.0241
70.0636
70.1032
70.1427
70.1823
70.2219
70.2614
70.301
70.3405
70.3801
70.4196
70.4592
70.4988
70.5383
70.5779
70.6174
70.657
70.6965
70.7361
70.7756
70.8152
70.8548
70.8943
70.9339
70.9734
71.013
71.0526
71.0921
71.1317
71.1712
71.2108
71.2503
71.2899
71.3295
71.369
71.4086
71.4481
71.4877
71.5273
71.5668
71.6064
71.6459
71.6855
71.7251
71.7646
71.8042
71.8437
71.8833
71.9229
71.9624
72.002
72.0415
72.0811
72.1207
72.1602
72.1998
72.2394
72.2789
72.3185
72.358
72.3976
72.4372
72.4767
72.5163
72.5558
72.5954
72.635
72.6745
72.7141
72.7537
72.7932
72.8328
72.8724
72.9119
72.9515
72.991
73.0306
73.0702
73.1097
73.1493
73.1889
73.2284
73.268
73.3076
73.3471
73.3867
73.4263
73.4658
73.5054
73.5449
73.5845
73.6241
73.6636
73.7032
73.7428
73.7823
73.8219
73.8615
73.901
73.9406
73.9802
74.0197
74.0593
74.0989
74.1384
74.178
74.2176
74.2571
74.2967
74.3363
74.3758
74.4154
74.455
74.4945
74.5341
74.5737
74.6133
74.6528
74.6924
74.732
74.7715
74.8111
74.8507
74.8902
74.9298
74.9694
75.0089
75.0485
75.0881
75.1277
75.1672
75.2068
75.2464
75.2859
75.3255
75.3651
75.4046
75.4442
75.4838
75.5234
75.5629
75.6025
75.6421
75.6816
75.7212
75.7608
75.8004
75.8399
75.8795
75.9191
75.9586
75.9982
76.0378
76.0774
76.1169
76.1565
76.1961
76.2356
76.2752
76.3148
76.3544
76.3939
76.4335
76.4731
76.5127
76.5522
76.5918
76.6314
76.671
76.7105
76.7501
76.7897
76.8293
76.8688
76.9084
76.948
76.9875
77.0271
77.0667
77.1063
77.1458
77.1854
77.225
77.2646
77.3041
77.3437
77.3833
77.4229
77.4625
77.502
77.5416
77.5812
77.6208
77.6603
77.6999
77.7395
77.7791
77.8186
77.8582
77.8978
77.9374
77.9769
78.0165
78.0561
78.0957
78.1353
78.1748
78.2144
78.254
78.2936
78.3331
78.3727
78.4123
78.4519
78.4915
78.531
78.5706
78.6102
78.6498
78.6894
78.7289
78.7685
78.8081
78.8477
78.8872
78.9268
78.9664
79.006
79.0456
79.0851
79.1247
79.1643
79.2039
79.2435
79.283
79.3226
79.3622
79.4018
79.4414
79.4809
79.5205
79.5601
79.5997
79.6393
79.6789
79.7184
79.758
79.7976
79.8372
79.8768
79.9163
79.9559
79.9955
80.0351
80.0747
80.1143
80.1538
80.1934
80.233
80.2726
80.3122
80.3517
80.3913
80.4309
80.4705
80.5101
80.5497
80.5892
80.6288
80.6684
80.708
80.7476
80.7872
80.8267
80.8663
80.9059
80.9455
80.9851
81.0247
81.0643
81.1038
81.1434
81.183
81.2226
81.2622
81.3018
81.3413
81.3809
81.4205
81.4601
81.4997
81.5393
81.5789
81.6184
81.658
81.6976
81.7372
81.7768
81.8164
81.856
81.8955
81.9351
81.9747
82.0143
82.0539
82.0935
82.1331
82.1726
82.2122
82.2518
82.2914
82.331
82.3706
82.4102
82.4498
82.4893
82.5289
82.5685
82.6081
82.6477
82.6873
82.7269
82.7665
82.806
82.8456
82.8852
82.9248
82.9644
83.004
83.0436
83.0832
83.1228
83.1623
83.2019
83.2415
83.2811
83.3207
83.3603
83.3999
83.4395
83.4791
83.5186
83.5582
83.5978
83.6374
83.677
83.7166
83.7562
83.7958
83.8354
83.8749
83.9145
83.9541
83.9937
84.0333
84.0729
84.1125
84.1521
84.1917
84.2313
84.2709
84.3104
84.35
84.3896
84.4292
84.4688
84.5084
84.548
84.5876
84.6272
84.6668
84.7064
84.7459
84.7855
84.8251
84.8647
84.9043
84.9439
84.9835
85.0231
85.0627
85.1023
85.1419
85.1815
85.2211
85.2606
85.3002
85.3398
85.3794
85.419
85.4586
85.4982
85.5378
85.5774
85.617
85.6566
85.6962
85.7358
85.7754
85.8149
85.8545
85.8941
85.9337
85.9733
86.0129
86.0525
86.0921
86.1317
86.1713
86.2109
86.2505
86.2901
86.3297
86.3693
86.4089
86.4484
86.488
86.5276
86.5672
86.6068
86.6464
86.686
86.7256
86.7652
86.8048
86.8444
86.884
86.9236
86.9632
87.0028
87.0424
87.082
87.1216
87.1612
87.2008
87.2403
87.2799
87.3195
87.3591
87.3987
87.4383
87.4779
87.5175
87.5571
87.5967
87.6363
87.6759
87.7155
87.7551
87.7947
87.8343
87.8739
87.9135
87.9531
87.9927
88.0323
88.0719
88.1115
88.1511
88.1907
88.2303
88.2698
88.3094
88.349
88.3886
88.4282
88.4678
88.5074
88.547
88.5866
88.6262
88.6658
88.7054
88.745
88.7846
88.8242
88.8638
88.9034
88.943
88.9826
89.0222
89.0618
89.1014
89.141
89.1806
89.2202
89.2598
89.2994
89.339
89.3786
89.4182
89.4578
89.4974
89.537
89.5766
89.6162
89.6558
89.6954
89.735
89.7746
89.8142
89.8538
89.8934
89.933
89.9726
90.0122
90.0518
90.0914
90.1309
90.1705
90.2101
90.2497
90.2893
90.3289
90.3685
90.4081
90.4477
90.4873
90.5269
90.5665
90.6061
90.6457
90.6853
90.7249
90.7645
90.8041
90.8437
90.8833
90.9229
90.9625
91.0021
91.0417
91.0813
91.1209
91.1605
91.2001
91.2397
91.2793
91.3189
91.3585
91.3981
91.4377
91.4773
91.5169
91.5565
91.5961
91.6357
91.6753
91.7149
91.7545
91.7941
91.8337
91.8733
91.9129
91.9525
91.9921
92.0317
92.0713
92.1109
92.1505
92.1901
92.2297
92.2693
92.3089
92.3485
92.3881
92.4277
92.4673
92.5069
92.5465
92.5861
92.6257
92.6653
92.7049
92.7445
92.7841
92.8237
92.8633
92.9029
92.9425
92.9821
93.0217
93.0613
93.1009
93.1405
93.1801
93.2197
93.2593
93.2989
93.3385
93.3781
93.4177
93.4573
93.497
93.5366
93.5762
93.6158
93.6554
93.695
93.7346
93.7742
93.8138
93.8534
93.893
93.9326
93.9722
94.0118
94.0514
94.091
94.1306
94.1702
94.2098
94.2494
94.289
94.3286
94.3682
94.4078
94.4474
94.487
94.5266
94.5662
94.6058
94.6454
94.685
94.7246
94.7642
94.8038
94.8434
94.883
94.9226
94.9622
95.0018
95.0414
95.081
95.1206
95.1602
95.1998
95.2394
95.279
95.3186
95.3582
95.3978
95.4374
95.477
95.5166
95.5562
95.5958
95.6354
95.675
95.7146
95.7542
95.7938
95.8334
95.873
95.9126
95.9522
95.9918
96.0314
96.071
96.1106
96.1502
96.1898
96.2294
96.269
96.3086
96.3482
96.3878
96.4274
96.467
96.5066
96.5462
96.5858
96.6254
96.665
96.7046
96.7442
96.7838
96.8234
96.863
96.9026
96.9422
96.9818
97.0214
97.061
97.1006
97.1402
97.1798
97.2194
97.259
97.2986
97.3382
97.3778
97.4174
97.457
97.4966
97.5362
97.5758
97.6154
97.655
97.6946
97.7342
97.7738
97.8134
97.853
97.8926
97.9322
97.9718
98.0114
98.051
98.0906
98.1302
98.1698
98.2094
98.249
98.2886
98.3282
98.3678
98.4074
98.447
98.4866
98.5262
98.5658
98.6054
98.645
98.6846
98.7242
98.7638
98.8034
98.843
98.8826
98.9222
98.9618
99.0014
99.041
99.0806
99.1201
99.1597
99.1993
99.2389
99.2785
99.3181
99.3577
99.3973
99.4369
99.4765
99.5161
99.5557
99.5953
99.6349
99.6745
99.7141
99.7537
99.7933
99.8329
99.8725
99.9121
99.9517
99.9913
100.031
100.07
100.11
100.15
100.189
100.229
100.268
100.308
100.348
100.387
100.427
100.466
100.506
100.546
100.585
100.625
100.664
100.704
100.744
100.783
100.823
100.862
100.902
100.942
100.981
101.021
101.06
101.1
101.14
101.179
101.219
101.258
101.298
101.338
101.377
101.417
101.456
101.496
101.535
101.575
101.615
101.654
101.694
101.733
101.773
101.813
101.852
101.892
101.931
101.971
102.011
102.05
102.09
102.129
102.169
102.209
102.248
102.288
102.327
102.367
102.407
102.446
102.486
102.525
102.565
102.604
102.644
102.684
102.723
102.763
102.802
102.842
102.882
102.921
102.961
103
103.04
103.08
103.119
103.159
103.198
103.238
103.277
103.317
103.357
103.396
103.436
103.475
103.515
103.555
103.594
103.634
103.673
103.713
103.753
103.792
103.832
103.871
103.911
103.95
103.99
104.03
104.069
104.109
104.148
104.188
104.228
104.267
104.307
104.346
104.386
104.425
104.465
104.505
104.544
104.584
104.623
104.663
104.703
104.742
104.782
104.821
104.861
104.9
104.94
104.98
105.019
105.059
105.098
105.138
105.178
105.217
105.257
105.296
105.336
105.375
105.415
105.455
105.494
105.534
105.573
105.613
105.653
105.692
105.732
105.771
105.811
105.85
105.89
105.93
105.969
106.009
106.048
106.088
106.127
106.167
106.207
106.246
106.286
106.325
106.365
106.404
106.444
106.484
106.523
106.563
106.602
106.642
106.681
106.721
106.761
106.8
106.84
106.879
106.919
106.959
106.998
107.038
107.077
107.117
107.156
107.196
107.236
107.275
107.315
107.354
107.394
107.433
107.473
107.513
107.552
107.592
107.631
107.671
107.71
107.75
107.789
107.829
107.869
107.908
107.948
107.987
108.027
108.066
108.106
108.146
108.185
108.225
108.264
108.304
108.343
108.383
108.423
108.462
108.502
108.541
108.581
108.62
108.66
108.699
108.739
108.779
108.818
108.858
108.897
108.937
108.976
109.016
109.056
109.095
109.135
109.174
109.214
109.253
109.293
109.332
109.372
109.412
109.451
109.491
109.53
109.57
109.609
109.649
109.688
109.728
109.768
109.807
109.847
109.886
109.926
109.965
110.005
110.044
110.084
110.124
110.163
110.203
110.242
110.282
110.321
110.361
110.4
110.44
110.479
110.519
110.559
110.598
110.638
110.677
110.717
110.756
110.796
110.835
110.875
110.914
110.954
110.994
111.033
111.073
111.112
111.152
111.191
111.231
111.27
111.31
111.349
111.389
111.429
111.468
111.508
111.547
111.587
111.626
111.666
111.705
111.745
111.784
111.824
111.863
111.903
111.943
111.982
112.022
112.061
112.101
112.14
112.18
112.219
112.259
112.298
112.338
112.377
112.417
112.456
112.496
112.536
112.575
112.615
112.654
112.694
112.733
112.773
112.812
112.852
112.891
112.931
112.97
113.01
113.049
113.089
113.128
113.168
113.207
113.247
113.286
113.326
113.366
113.405
113.445
113.484
113.524
113.563
113.603
113.642
113.682
113.721
113.761
113.8
113.84
113.879
113.919
113.958
113.998
114.037
114.077
114.116
114.156
114.195
114.235
114.274
114.314
114.353
114.393
114.432
114.472
114.511
114.551
114.59
114.63
114.669
114.709
114.748
114.788
114.827
114.867
114.906
114.946
114.985
115.025
115.064
115.104
115.143
115.183
115.222
115.262
115.301
115.341
115.38
115.42
115.459
115.499
115.538
115.578
115.617
115.657
115.696
115.736
115.775
115.815
115.854
115.894
115.933
115.973
116.012
116.052
116.091
116.131
116.17
116.21
116.249
116.289
116.328
116.367
116.407
116.446
116.486
116.525
116.565
116.604
116.644
116.683
116.723
116.762
116.802
116.841
116.881
116.92
116.96
116.999
117.038
117.078
117.117
117.157
117.196
117.236
117.275
117.315
117.354
117.394
117.433
117.473
117.512
117.551
117.591
117.63
117.67
117.709
117.749
117.788
117.828
117.867
117.907
117.946
117.985
118.025
118.064
118.104
118.143
118.183
118.222
118.262
118.301
118.34
118.38
118.419
118.459
118.498
118.538
118.577
118.616
118.656
118.695
118.735
118.774
118.814
118.853
118.892
118.932
118.971
119.011
119.05
119.09
119.129
119.168
119.208
119.247
119.287
119.326
119.366
119.405
119.444
119.484
119.523
119.563
119.602
119.641
119.681
119.72
119.76
119.799
119.838
119.878
119.917
119.957
119.996
120.035
120.075
120.114
120.154
120.193
120.232
120.272
120.311
120.351
120.39
120.429
120.469
120.508
120.548
120.587
120.626
120.666
120.705
120.745
120.784
120.823
120.863
120.902
120.941
120.981
121.02
121.06
121.099
121.138
121.178
121.217
121.256
121.296
121.335
121.374
121.414
121.453
121.493
121.532
121.571
121.611
121.65
121.689
121.729
121.768
121.807
121.847
121.886
121.925
121.965
122.004
122.043
122.083
122.122
122.161
122.201
122.24
122.279
122.319
122.358
122.397
122.437
122.476
122.515
122.555
122.594
122.633
122.673
122.712
122.751
122.791
122.83
122.869
122.909
122.948
122.987
123.027
123.066
123.105
123.144
123.184
123.223
123.262
123.302
123.341
123.38
123.42
123.459
123.498
123.537
123.577
123.616
123.655
123.695
123.734
123.773
123.812
123.852
123.891
123.93
123.969
124.009
124.048
124.087
124.126
124.166
124.205
124.244
124.284
124.323
124.362
124.401
124.441
124.48
124.519
124.558
124.598
124.637
124.676
124.715
124.754
124.794
124.833
124.872
124.911
124.951
124.99
125.029
125.068
125.108
125.147
125.186
125.225
125.264
125.304
125.343
125.382
125.421
125.46
125.5
125.539
125.578
125.617
125.656
125.696
125.735
125.774
125.813
125.852
125.891
125.931
125.97
126.009
126.048
126.087
126.126
126.166
126.205
126.244
126.283
126.322
126.361
126.401
126.44
126.479
126.518
126.557
126.596
126.635
126.675
126.714
126.753
126.792
126.831
126.87
126.909
126.948
126.988
127.027
127.066
127.105
127.144
127.183
127.222
127.261
127.3
127.339
127.379
127.418
127.457
127.496
127.535
127.574
127.613
127.652
127.691
127.73
127.769
127.808
127.847
127.886
127.926
127.965
128.004
128.043
128.082
128.121
128.16
128.199
128.238
128.277
128.316
128.355
128.394
128.433
128.472
128.511
128.55
128.589
128.628
128.667
128.706
128.745
128.784
128.823
128.862
128.901
128.94
128.979
129.018
129.057
129.096
129.135
129.174
129.213
129.251
129.29
129.329
129.368
129.407
129.446
129.485
129.524
129.563
129.602
129.641
129.68
129.719
129.757
129.796
129.835
129.874
129.913
129.952
129.991
130.03
130.069
130.107
130.146
130.185
130.224
130.263
130.302
130.341
130.379
130.418
130.457
130.496
130.535
130.574
130.612
130.651
130.69
130.729
130.768
130.806
130.845
130.884
130.923
130.962
131
131.039
131.078
131.117
131.155
131.194
131.233
131.272
131.31
131.349
131.388
131.427
131.465
131.504
131.543
131.581
131.62
131.659
131.697
131.736
131.775
131.813
131.852
131.891
131.929
131.968
132.007
132.045
132.084
132.123
132.161
132.2
132.239
132.277
132.316
132.354
132.393
132.432
132.47
132.509
132.547
132.586
132.624
132.663
132.702
132.74
132.779
132.817
132.856
132.894
132.933
132.971
133.01
133.048
133.087
133.125
133.164
133.202
133.241
133.279
133.318
133.356
133.395
133.433
133.471
133.51
133.548
133.587
133.625
133.664
133.702
133.74
133.779
133.817
133.855
133.894
133.932
133.97
134.009
134.047
134.085
134.124
134.162
134.2
134.239
134.277
134.315
134.354
134.392
134.43
134.468
134.507
134.545
134.583
134.621
134.659
134.698
134.736
134.774
134.812
134.85
134.889
134.927
134.965
135.003
135.041
135.079
135.117
135.155
135.194
135.232
135.27
135.308
135.346
135.384
135.422
135.46
135.498
135.536
135.574
135.612
135.65
135.688
135.726
135.764
135.802
135.84
135.878
135.916
135.954
135.992
136.029
136.067
136.105
136.143
136.181
136.219
136.257
136.294
136.332
136.37
136.408
136.446
136.483
136.521
136.559
136.597
136.634
136.672
136.71
136.747
136.785
136.823
136.86
136.898
136.936
136.973
137.011
137.048
137.086
137.124
137.161
137.199
137.236
137.274
137.311
137.349
137.386
137.424
137.461
137.499
137.536
137.573
137.611
137.648
137.686
137.723
137.76
137.798
137.835
137.872
137.91
137.947
137.984
138.021
138.059
138.096
138.133
138.17
138.207
138.245
138.282
138.319
138.356
138.393
138.43
138.467
138.504
138.541
138.578
138.615
138.652
138.689
138.726
138.763
138.8
138.837
138.874
138.911
138.948
138.985
139.021
139.058
139.095
139.132
139.169
139.205
139.242
139.279
139.315
139.352
139.389
139.425
139.462
139.499
139.535
139.572
139.608
139.645
139.681
139.718
139.754
139.791
139.827
139.863
139.9
139.936
139.972
140.009
140.045
140.081
140.118
140.154
140.19
140.226
140.262
140.298
140.335
140.371
140.407
140.443
140.479
140.515
140.551
140.587
140.623
140.658
140.694
140.73
140.766
140.802
140.838
140.873
140.909
140.945
140.98
141.016
141.052
141.087
141.123
141.158
141.194
141.229
141.265
141.3
141.336
141.371
141.406
141.442
141.477
141.512
141.548
141.583
141.618
141.653
141.688
141.723
141.758
141.793
141.828
141.863
141.898
141.933
141.968
142.003
142.038
142.073
142.107
142.142
142.177
142.211
142.246
142.281
142.315
142.35
142.384
142.419
142.453
142.487
142.522
142.556
142.59
142.625
142.659
142.693
142.727
142.761
142.795
142.829
142.863
142.897
142.931
142.965
142.999
143.033
143.066
143.1
143.134
143.167
143.201
143.235
143.268
143.302
143.335
143.368
143.402
143.435
143.468
143.502
143.535
143.568
143.601
143.634
143.667
143.7
143.733
143.766
143.799
143.831
143.864
143.897
143.93
143.962
143.995
144.027
144.06
144.092
144.125
144.157
144.189
144.221
144.254
144.286
144.318
144.35
144.382
144.414
144.446
144.477
144.509
144.541
144.573
144.604
144.636
144.667
144.699
144.73
144.762
144.793
144.824
144.855
144.886
144.918
144.949
144.98
145.011
145.041
145.072
145.103
145.134
145.164
145.195
145.225
145.256
145.286
145.317
145.347
145.377
145.407
145.438
145.468
145.498
145.528
145.558
145.587
145.617
145.647
145.676
145.706
145.736
145.765
145.794
145.824
145.853
145.882
145.911
145.94
145.97
145.998
146.027
146.056
146.085
146.114
146.142
146.171
146.199
146.228
146.256
146.285
146.313
146.341
146.369
146.397
146.425
146.453
146.481
146.509
146.536
146.564
146.592
146.619
146.647
146.674
146.701
146.729
146.756
146.783
146.81
146.837
146.864
146.891
146.918
146.944
146.971
146.998
147.024
147.051
147.077
147.103
147.129
147.156
147.182
147.208
147.234
147.26
147.285
147.311
147.337
147.363
147.388
147.414
147.439
147.464
147.49
147.515
147.54
147.565
147.59
147.615
147.64
147.665
147.69
147.714
147.739
147.764
147.788
147.812
147.837
147.861
147.885
147.91
147.934
147.958
147.982
148.006
148.029
148.053
148.077
148.101
148.124
148.148
148.171
148.195
148.218
148.241
148.265
148.288
148.311
148.334
148.357
148.38
148.403
148.426
148.448
148.471
148.494
148.516
148.539