/*--------------------------------*- C++ -*----------------------------------*\
  =========                 |
  \\      /  F ield         | OpenFOAM: The Open Source CFD Toolbox
   \\    /   O peration     | Website:  https://openfoam.org
    \\  /    A nd           | Version:  9
     \\/     M anipulation  |
\*---------------------------------------------------------------------------*/
FoamFile
{
    format      ascii;
    class       surfaceScalarField;
    location    "0.033";
    object      phi;
}
// * * * * * * * * * * * * * * * * * * * * * * * * * * * * * * * * * * * * * //

dimensions      [1 0 -1 0 0 0 0];

internalField   nonuniform List<scalar> 
9999
(
5.14019
5.18222
5.22425
5.26627
5.3083
5.35032
5.39234
5.43436
5.47638
5.5184
5.56042
5.60243
5.64444
5.68645
5.72846
5.77047
5.81248
5.85448
5.89648
5.93849
5.98049
6.02249
6.06449
6.10648
6.14847
6.19046
6.23246
6.27445
6.31644
6.35843
6.40041
6.44239
6.48437
6.52635
6.56833
6.61032
6.6523
6.69427
6.73624
6.77821
6.82017
6.86214
6.90411
6.94608
6.98805
7.03003
7.072
7.11396
7.15591
7.19786
7.23981
7.28176
7.3237
7.36566
7.40761
7.44958
7.49154
7.53351
7.57547
7.61743
7.65938
7.70132
7.74325
7.78518
7.8271
7.86901
7.91093
7.95284
7.99476
8.03669
8.07863
8.12058
8.16254
8.20451
8.24649
8.28849
8.33049
8.3725
8.41453
8.45655
8.49859
8.54062
8.58266
8.6247
8.66674
8.70878
8.75081
8.79286
8.83491
8.87696
8.91902
8.96107
9.00312
9.04518
9.08723
9.12928
9.17133
9.21338
9.25543
9.29749
9.33954
9.38159
9.42364
9.46569
9.50774
9.54979
9.59184
9.63389
9.67594
9.71798
9.76003
9.80208
9.84413
9.88618
9.92823
9.97027
10.0123
10.0544
10.0964
10.1385
10.1805
10.2226
10.2646
10.3066
10.3487
10.3907
10.4328
10.4748
10.5169
10.5589
10.601
10.643
10.6851
10.7271
10.7691
10.8112
10.8532
10.8953
10.9373
10.9794
11.0214
11.0634
11.1055
11.1475
11.1896
11.2316
11.2737
11.3157
11.3577
11.3998
11.4418
11.4839
11.5259
11.5679
11.61
11.652
11.6941
11.7361
11.7781
11.8202
11.8622
11.9043
11.9463
11.9883
12.0304
12.0724
12.1145
12.1565
12.1985
12.2406
12.2826
12.3246
12.3667
12.4087
12.4507
12.4928
12.5348
12.5769
12.6189
12.6609
12.703
12.745
12.787
12.8291
12.8711
12.9131
12.9552
12.9972
13.0392
13.0813
13.1233
13.1653
13.2074
13.2494
13.2914
13.3335
13.3755
13.4175
13.4596
13.5016
13.5436
13.5856
13.6277
13.6697
13.7117
13.7538
13.7958
13.8378
13.8799
13.9219
13.9639
14.0059
14.048
14.09
14.132
14.174
14.2161
14.2581
14.3001
14.3422
14.3842
14.4262
14.4682
14.5103
14.5523
14.5943
14.6363
14.6784
14.7204
14.7624
14.8044
14.8465
14.8885
14.9305
14.9725
15.0146
15.0566
15.0986
15.1406
15.1826
15.2247
15.2667
15.3087
15.3507
15.3928
15.4348
15.4768
15.5188
15.5608
15.6029
15.6449
15.6869
15.7289
15.7709
15.813
15.855
15.897
15.939
15.981
16.023
16.0651
16.1071
16.1491
16.1911
16.2331
16.2752
16.3172
16.3592
16.4012
16.4432
16.4852
16.5272
16.5693
16.6113
16.6533
16.6953
16.7373
16.7793
16.8213
16.8634
16.9054
16.9474
16.9894
17.0314
17.0734
17.1154
17.1575
17.1995
17.2415
17.2835
17.3255
17.3675
17.4095
17.4515
17.4935
17.5355
17.5776
17.6196
17.6616
17.7036
17.7456
17.7876
17.8296
17.8716
17.9136
17.9556
17.9976
18.0396
18.0817
18.1237
18.1657
18.2077
18.2497
18.2917
18.3337
18.3757
18.4177
18.4597
18.5017
18.5437
18.5857
18.6277
18.6697
18.7117
18.7537
18.7957
18.8377
18.8797
18.9217
18.9637
19.0057
19.0477
19.0897
19.1317
19.1738
19.2158
19.2578
19.2998
19.3418
19.3838
19.4257
19.4677
19.5097
19.5517
19.5937
19.6357
19.6777
19.7197
19.7617
19.8037
19.8457
19.8877
19.9297
19.9717
20.0137
20.0557
20.0977
20.1397
20.1817
20.2237
20.2657
20.3077
20.3497
20.3917
20.4337
20.4757
20.5176
20.5596
20.6016
20.6436
20.6856
20.7276
20.7696
20.8116
20.8536
20.8956
20.9376
20.9796
21.0215
21.0635
21.1055
21.1475
21.1895
21.2315
21.2735
21.3155
21.3575
21.3994
21.4414
21.4834
21.5254
21.5674
21.6094
21.6514
21.6933
21.7353
21.7773
21.8193
21.8613
21.9033
21.9453
21.9872
22.0292
22.0712
22.1132
22.1552
22.1972
22.2391
22.2811
22.3231
22.3651
22.4071
22.4491
22.491
22.533
22.575
22.617
22.659
22.7009
22.7429
22.7849
22.8269
22.8689
22.9108
22.9528
22.9948
23.0368
23.0787
23.1207
23.1627
23.2047
23.2467
23.2886
23.3306
23.3726
23.4146
23.4565
23.4985
23.5405
23.5825
23.6244
23.6664
23.7084
23.7504
23.7923
23.8343
23.8763
23.9182
23.9602
24.0022
24.0442
24.0861
24.1281
24.1701
24.212
24.254
24.296
24.338
24.3799
24.4219
24.4639
24.5058
24.5478
24.5898
24.6317
24.6737
24.7157
24.7576
24.7996
24.8416
24.8835
24.9255
24.9675
25.0094
25.0514
25.0934
25.1353
25.1773
25.2193
25.2612
25.3032
25.3451
25.3871
25.4291
25.471
25.513
25.555
25.5969
25.6389
25.6808
25.7228
25.7648
25.8067
25.8487
25.8906
25.9326
25.9746
26.0165
26.0585
26.1004
26.1424
26.1844
26.2263
26.2683
26.3102
26.3522
26.3941
26.4361
26.4781
26.52
26.562
26.6039
26.6459
26.6878
26.7298
26.7717
26.8137
26.8556
26.8976
26.9396
26.9815
27.0235
27.0654
27.1074
27.1493
27.1913
27.2332
27.2752
27.3171
27.3591
27.401
27.443
27.4849
27.5269
27.5688
27.6108
27.6527
27.6947
27.7366
27.7786
27.8205
27.8624
27.9044
27.9463
27.9883
28.0302
28.0722
28.1141
28.1561
28.198
28.24
28.2819
28.3238
28.3658
28.4077
28.4497
28.4916
28.5336
28.5755
28.6174
28.6594
28.7013
28.7433
28.7852
28.8271
28.8691
28.911
28.953
28.9949
29.0368
29.0788
29.1207
29.1627
29.2046
29.2465
29.2885
29.3304
29.3723
29.4143
29.4562
29.4982
29.5401
29.582
29.624
29.6659
29.7078
29.7498
29.7917
29.8336
29.8756
29.9175
29.9594
30.0014
30.0433
30.0852
30.1271
30.1691
30.211
30.2529
30.2949
30.3368
30.3787
30.4207
30.4626
30.5045
30.5464
30.5884
30.6303
30.6722
30.7142
30.7561
30.798
30.8399
30.8819
30.9238
30.9657
31.0076
31.0496
31.0915
31.1334
31.1753
31.2173
31.2592
31.3011
31.343
31.3849
31.4269
31.4688
31.5107
31.5526
31.5946
31.6365
31.6784
31.7203
31.7622
31.8042
31.8461
31.888
31.9299
31.9718
32.0137
32.0557
32.0976
32.1395
32.1814
32.2233
32.2652
32.3072
32.3491
32.391
32.4329
32.4748
32.5167
32.5586
32.6006
32.6425
32.6844
32.7263
32.7682
32.8101
32.852
32.8939
32.9359
32.9778
33.0197
33.0616
33.1035
33.1454
33.1873
33.2292
33.2711
33.313
33.3549
33.3969
33.4388
33.4807
33.5226
33.5645
33.6064
33.6483
33.6902
33.7321
33.774
33.8159
33.8578
33.8997
33.9416
33.9835
34.0254
34.0673
34.1092
34.1511
34.193
34.2349
34.2768
34.3187
34.3606
34.4025
34.4444
34.4863
34.5282
34.5701
34.612
34.6539
34.6958
34.7377
34.7796
34.8215
34.8634
34.9053
34.9472
34.9891
35.031
35.0729
35.1148
35.1567
35.1986
35.2405
35.2824
35.3243
35.3662
35.408
35.4499
35.4918
35.5337
35.5756
35.6175
35.6594
35.7013
35.7432
35.7851
35.8269
35.8688
35.9107
35.9526
35.9945
36.0364
36.0783
36.1202
36.162
36.2039
36.2458
36.2877
36.3296
36.3715
36.4134
36.4552
36.4971
36.539
36.5809
36.6228
36.6647
36.7065
36.7484
36.7903
36.8322
36.8741
36.9159
36.9578
36.9997
37.0416
37.0835
37.1253
37.1672
37.2091
37.251
37.2929
37.3347
37.3766
37.4185
37.4604
37.5022
37.5441
37.586
37.6279
37.6697
37.7116
37.7535
37.7954
37.8372
37.8791
37.921
37.9629
38.0047
38.0466
38.0885
38.1303
38.1722
38.2141
38.2559
38.2978
38.3397
38.3816
38.4234
38.4653
38.5072
38.549
38.5909
38.6328
38.6746
38.7165
38.7584
38.8002
38.8421
38.884
38.9258
38.9677
39.0095
39.0514
39.0933
39.1351
39.177
39.2189
39.2607
39.3026
39.3444
39.3863
39.4282
39.47
39.5119
39.5537
39.5956
39.6375
39.6793
39.7212
39.763
39.8049
39.8467
39.8886
39.9305
39.9723
40.0142
40.056
40.0979
40.1397
40.1816
40.2234
40.2653
40.3071
40.349
40.3909
40.4327
40.4746
40.5164
40.5583
40.6001
40.642
40.6838
40.7257
40.7675
40.8094
40.8512
40.8931
40.9349
40.9767
41.0186
41.0604
41.1023
41.1441
41.186
41.2278
41.2697
41.3115
41.3534
41.3952
41.437
41.4789
41.5207
41.5626
41.6044
41.6463
41.6881
41.7299
41.7718
41.8136
41.8555
41.8973
41.9391
41.981
42.0228
42.0647
42.1065
42.1483
42.1902
42.232
42.2738
42.3157
42.3575
42.3993
42.4412
42.483
42.5248
42.5667
42.6085
42.6503
42.6922
42.734
42.7758
42.8177
42.8595
42.9013
42.9432
42.985
43.0268
43.0687
43.1105
43.1523
43.1941
43.236
43.2778
43.3196
43.3615
43.4033
43.4451
43.4869
43.5288
43.5706
43.6124
43.6542
43.6961
43.7379
43.7797
43.8215
43.8633
43.9052
43.947
43.9888
44.0306
44.0725
44.1143
44.1561
44.1979
44.2397
44.2815
44.3234
44.3652
44.407
44.4488
44.4906
44.5325
44.5743
44.6161
44.6579
44.6997
44.7415
44.7833
44.8252
44.867
44.9088
44.9506
44.9924
45.0342
45.076
45.1178
45.1597
45.2015
45.2433
45.2851
45.3269
45.3687
45.4105
45.4523
45.4941
45.5359
45.5777
45.6196
45.6614
45.7032
45.745
45.7868
45.8286
45.8704
45.9122
45.954
45.9958
46.0376
46.0794
46.1212
46.163
46.2048
46.2466
46.2884
46.3302
46.372
46.4138
46.4556
46.4974
46.5392
46.581
46.6228
46.6646
46.7064
46.7482
46.79
46.8318
46.8736
46.9154
46.9572
46.999
47.0408
47.0825
47.1243
47.1661
47.2079
47.2497
47.2915
47.3333
47.3751
47.4169
47.4587
47.5005
47.5423
47.584
47.6258
47.6676
47.7094
47.7512
47.793
47.8348
47.8766
47.9183
47.9601
48.0019
48.0437
48.0855
48.1273
48.169
48.2108
48.2526
48.2944
48.3362
48.378
48.4197
48.4615
48.5033
48.5451
48.5869
48.6286
48.6704
48.7122
48.754
48.7957
48.8375
48.8793
48.9211
48.9628
49.0046
49.0464
49.0882
49.1299
49.1717
49.2135
49.2553
49.297
49.3388
49.3806
49.4224
49.4641
49.5059
49.5477
49.5894
49.6312
49.673
49.7147
49.7565
49.7983
49.84
49.8818
49.9236
49.9653
50.0071
50.0489
50.0906
50.1324
50.1742
50.2159
50.2577
50.2995
50.3412
50.383
50.4247
50.4665
50.5083
50.55
50.5918
50.6336
50.6753
50.7171
50.7588
50.8006
50.8423
50.8841
50.9259
50.9676
51.0094
51.0511
51.0929
51.1346
51.1764
51.2181
51.2599
51.3017
51.3434
51.3852
51.4269
51.4687
51.5104
51.5522
51.5939
51.6357
51.6774
51.7192
51.7609
51.8027
51.8444
51.8862
51.9279
51.9696
52.0114
52.0531
52.0949
52.1366
52.1784
52.2201
52.2619
52.3036
52.3453
52.3871
52.4288
52.4706
52.5123
52.5541
52.5958
52.6375
52.6793
52.721
52.7628
52.8045
52.8462
52.888
52.9297
52.9714
53.0132
53.0549
53.0966
53.1384
53.1801
53.2219
53.2636
53.3053
53.3471
53.3888
53.4305
53.4722
53.514
53.5557
53.5974
53.6392
53.6809
53.7226
53.7644
53.8061
53.8478
53.8895
53.9313
53.973
54.0147
54.0564
54.0982
54.1399
54.1816
54.2233
54.2651
54.3068
54.3485
54.3902
54.432
54.4737
54.5154
54.5571
54.5988
54.6406
54.6823
54.724
54.7657
54.8074
54.8492
54.8909
54.9326
54.9743
55.016
55.0577
55.0995
55.1412
55.1829
55.2246
55.2663
55.308
55.3497
55.3914
55.4332
55.4749
55.5166
55.5583
55.6
55.6417
55.6834
55.7251
55.7668
55.8085
55.8502
55.892
55.9337
55.9754
56.0171
56.0588
56.1005
56.1422
56.1839
56.2256
56.2673
56.309
56.3507
56.3924
56.4341
56.4758
56.5175
56.5592
56.6009
56.6426
56.6843
56.726
56.7677
56.8094
56.8511
56.8928
56.9345
56.9762
57.0179
57.0596
57.1013
57.143
57.1846
57.2263
57.268
57.3097
57.3514
57.3931
57.4348
57.4765
57.5182
57.5599
57.6016
57.6432
57.6849
57.7266
57.7683
57.81
57.8517
57.8934
57.935
57.9767
58.0184
58.0601
58.1018
58.1435
58.1851
58.2268
58.2685
58.3102
58.3519
58.3936
58.4352
58.4769
58.5186
58.5603
58.6019
58.6436
58.6853
58.727
58.7687
58.8103
58.852
58.8937
58.9354
58.977
59.0187
59.0604
59.102
59.1437
59.1854
59.2271
59.2687
59.3104
59.3521
59.3937
59.4354
59.4771
59.5187
59.5604
59.6021
59.6437
59.6854
59.7271
59.7687
59.8104
59.8521
59.8937
59.9354
59.9771
60.0187
60.0604
60.102
60.1437
60.1854
60.227
60.2687
60.3103
60.352
60.3937
60.4353
60.477
60.5186
60.5603
60.6019
60.6436
60.6853
60.7269
60.7686
60.8102
60.8519
60.8935
60.9352
60.9768
61.0185
61.0601
61.1018
61.1434
61.1851
61.2267
61.2684
61.31
61.3517
61.3933
61.435
61.4766
61.5183
61.5599
61.6016
61.6432
61.6848
61.7265
61.7681
61.8098
61.8514
61.8931
61.9347
61.9763
62.018
62.0596
62.1013
62.1429
62.1845
62.2262
62.2678
62.3094
62.3511
62.3927
62.4344
62.476
62.5176
62.5593
62.6009
62.6425
62.6842
62.7258
62.7674
62.809
62.8507
62.8923
62.9339
62.9756
63.0172
63.0588
63.1005
63.1421
63.1837
63.2253
63.267
63.3086
63.3502
63.3918
63.4335
63.4751
63.5167
63.5583
63.5999
63.6416
63.6832
63.7248
63.7664
63.8081
63.8497
63.8913
63.9329
63.9745
64.0161
64.0578
64.0994
64.141
64.1826
64.2242
64.2658
64.3074
64.3491
64.3907
64.4323
64.4739
64.5155
64.5571
64.5987
64.6403
64.682
64.7236
64.7652
64.8068
64.8484
64.89
64.9316
64.9732
65.0148
65.0564
65.098
65.1396
65.1812
65.2228
65.2644
65.306
65.3476
65.3892
65.4308
65.4724
65.514
65.5556
65.5972
65.6388
65.6804
65.722
65.7636
65.8052
65.8468
65.8884
65.93
65.9716
66.0132
66.0548
66.0964
66.138
66.1796
66.2212
66.2627
66.3043
66.3459
66.3875
66.4291
66.4707
66.5123
66.5539
66.5955
66.637
66.6786
66.7202
66.7618
66.8034
66.845
66.8865
66.9281
66.9697
67.0113
67.0529
67.0945
67.136
67.1776
67.2192
67.2608
67.3024
67.3439
67.3855
67.4271
67.4687
67.5102
67.5518
67.5934
67.635
67.6765
67.7181
67.7597
67.8013
67.8428
67.8844
67.926
67.9675
68.0091
68.0507
68.0922
68.1338
68.1754
68.2169
68.2585
68.3001
68.3416
68.3832
68.4248
68.4663
68.5079
68.5495
68.591
68.6326
68.6742
68.7157
68.7573
68.7988
68.8404
68.882
68.9235
68.9651
69.0066
69.0482
69.0897
69.1313
69.1729
69.2144
69.256
69.2975
69.3391
69.3806
69.4222
69.4637
69.5053
69.5468
69.5884
69.6299
69.6715
69.713
69.7546
69.7961
69.8377
69.8792
69.9208
69.9623
70.0039
70.0454
70.0869
70.1285
70.17
70.2116
70.2531
70.2947
70.3362
70.3777
70.4193
70.4608
70.5024
70.5439
70.5854
70.627
70.6685
70.71
70.7516
70.7931
70.8346
70.8762
70.9177
70.9592
71.0008
71.0423
71.0838
71.1254
71.1669
71.2084
71.25
71.2915
71.333
71.3745
71.4161
71.4576
71.4991
71.5407
71.5822
71.6237
71.6652
71.7068
71.7483
71.7898
71.8313
71.8728
71.9144
71.9559
71.9974
72.0389
72.0804
72.122
72.1635
72.205
72.2465
72.288
72.3295
72.3711
72.4126
72.4541
72.4956
72.5371
72.5786
72.6201
72.6616
72.7032
72.7447
72.7862
72.8277
72.8692
72.9107
72.9522
72.9937
73.0352
73.0767
73.1182
73.1597
73.2012
73.2427
73.2843
73.3258
73.3673
73.4088
73.4503
73.4918
73.5333
73.5748
73.6163
73.6578
73.6993
73.7408
73.7822
73.8237
73.8652
73.9067
73.9482
73.9897
74.0312
74.0727
74.1142
74.1557
74.1972
74.2387
74.2802
74.3217
74.3631
74.4046
74.4461
74.4876
74.5291
74.5706
74.6121
74.6536
74.695
74.7365
74.778
74.8195
74.861
74.9025
74.9439
74.9854
75.0269
75.0684
75.1099
75.1513
75.1928
75.2343
75.2758
75.3172
75.3587
75.4002
75.4417
75.4831
75.5246
75.5661
75.6076
75.649
75.6905
75.732
75.7735
75.8149
75.8564
75.8979
75.9393
75.9808
76.0223
76.0637
76.1052
76.1467
76.1881
76.2296
76.2711
76.3125
76.354
76.3954
76.4369
76.4784
76.5198
76.5613
76.6027
76.6442
76.6857
76.7271
76.7686
76.81
76.8515
76.8929
76.9344
76.9758
77.0173
77.0588
77.1002
77.1417
77.1831
77.2246
77.266
77.3075
77.3489
77.3904
77.4318
77.4733
77.5147
77.5561
77.5976
77.639
77.6805
77.7219
77.7634
77.8048
77.8463
77.8877
77.9291
77.9706
78.012
78.0535
78.0949
78.1363
78.1778
78.2192
78.2606
78.3021
78.3435
78.385
78.4264
78.4678
78.5093
78.5507
78.5921
78.6336
78.675
78.7164
78.7578
78.7993
78.8407
78.8821
78.9236
78.965
79.0064
79.0478
79.0893
79.1307
79.1721
79.2135
79.255
79.2964
79.3378
79.3792
79.4206
79.4621
79.5035
79.5449
79.5863
79.6277
79.6691
79.7106
79.752
79.7934
79.8348
79.8762
79.9176
79.9591
80.0005
80.0419
80.0833
80.1247
80.1661
80.2075
80.2489
80.2903
80.3317
80.3731
80.4146
80.456
80.4974
80.5388
80.5802
80.6216
80.663
80.7044
80.7458
80.7872
80.8286
80.87
80.9114
80.9528
80.9942
81.0356
81.077
81.1184
81.1598
81.2012
81.2426
81.284
81.3253
81.3667
81.4081
81.4495
81.4909
81.5323
81.5737
81.6151
81.6565
81.6979
81.7392
81.7806
81.822
81.8634
81.9048
81.9462
81.9876
82.0289
82.0703
82.1117
82.1531
82.1945
82.2359
82.2772
82.3186
82.36
82.4014
82.4427
82.4841
82.5255
82.5669
82.6082
82.6496
82.691
82.7324
82.7737
82.8151
82.8565
82.8979
82.9392
82.9806
83.022
83.0633
83.1047
83.1461
83.1874
83.2288
83.2702
83.3115
83.3529
83.3943
83.4356
83.477
83.5183
83.5597
83.6011
83.6424
83.6838
83.7251
83.7665
83.8079
83.8492
83.8906
83.9319
83.9733
84.0146
84.056
84.0973
84.1387
84.18
84.2214
84.2627
84.3041
84.3454
84.3868
84.4281
84.4695
84.5108
84.5522
84.5935
84.6349
84.6762
84.7176
84.7589
84.8003
84.8416
84.8829
84.9243
84.9656
85.007
85.0483
85.0896
85.131
85.1723
85.2136
85.255
85.2963
85.3376
85.379
85.4203
85.4616
85.503
85.5443
85.5856
85.627
85.6683
85.7096
85.751
85.7923
85.8336
85.8749
85.9163
85.9576
85.9989
86.0402
86.0816
86.1229
86.1642
86.2055
86.2469
86.2882
86.3295
86.3708
86.4121
86.4534
86.4948
86.5361
86.5774
86.6187
86.66
86.7013
86.7427
86.784
86.8253
86.8666
86.9079
86.9492
86.9905
87.0318
87.0731
87.1144
87.1558
87.1971
87.2384
87.2797
87.321
87.3623
87.4036
87.4449
87.4862
87.5275
87.5688
87.6101
87.6514
87.6927
87.734
87.7753
87.8166
87.8579
87.8992
87.9405
87.9818
88.0231
88.0643
88.1056
88.1469
88.1882
88.2295
88.2708
88.3121
88.3534
88.3947
88.436
88.4772
88.5185
88.5598
88.6011
88.6424
88.6837
88.7249
88.7662
88.8075
88.8488
88.8901
88.9313
88.9726
89.0139
89.0552
89.0965
89.1377
89.179
89.2203
89.2616
89.3028
89.3441
89.3854
89.4266
89.4679
89.5092
89.5505
89.5917
89.633
89.6743
89.7155
89.7568
89.7981
89.8393
89.8806
89.9219
89.9631
90.0044
90.0456
90.0869
90.1282
90.1694
90.2107
90.2519
90.2932
90.3345
90.3757
90.417
90.4582
90.4995
90.5407
90.582
90.6232
90.6645
90.7057
90.747
90.7882
90.8295
90.8707
90.912
90.9532
90.9945
91.0357
91.077
91.1182
91.1595
91.2007
91.2419
91.2832
91.3244
91.3657
91.4069
91.4481
91.4894
91.5306
91.5719
91.6131
91.6543
91.6956
91.7368
91.778
91.8193
91.8605
91.9017
91.943
91.9842
92.0254
92.0667
92.1079
92.1491
92.1903
92.2316
92.2728
92.314
92.3552
92.3965
92.4377
92.4789
92.5201
92.5614
92.6026
92.6438
92.685
92.7262
92.7674
92.8087
92.8499
92.8911
92.9323
92.9735
93.0147
93.056
93.0972
93.1384
93.1796
93.2208
93.262
93.3032
93.3444
93.3856
93.4268
93.468
93.5092
93.5505
93.5917
93.6329
93.6741
93.7153
93.7565
93.7977
93.8389
93.8801
93.9213
93.9625
94.0037
94.0449
94.0861
94.1272
94.1684
94.2096
94.2508
94.292
94.3332
94.3744
94.4156
94.4568
94.498
94.5392
94.5803
94.6215
94.6627
94.7039
94.7451
94.7863
94.8275
94.8686
94.9098
94.951
94.9922
95.0334
95.0745
95.1157
95.1569
95.1981
95.2393
95.2804
95.3216
95.3628
95.4039
95.4451
95.4863
95.5275
95.5686
95.6098
95.651
95.6921
95.7333
95.7745
95.8156
95.8568
95.898
95.9391
95.9803
96.0215
96.0626
96.1038
96.145
96.1861
96.2273
96.2684
96.3096
96.3507
96.3919
96.4331
96.4742
96.5154
96.5565
96.5977
96.6388
96.68
96.7211
96.7623
96.8034
96.8446
96.8857
96.9269
96.968
97.0092
97.0503
97.0915
97.1326
97.1737
97.2149
97.256
97.2972
97.3383
97.3794
97.4206
97.4617
97.5029
97.544
97.5851
97.6263
97.6674
97.7085
97.7497
97.7908
97.8319
97.8731
97.9142
97.9553
97.9964
98.0376
98.0787
98.1198
98.161
98.2021
98.2432
98.2843
98.3254
98.3666
98.4077
98.4488
98.4899
98.531
98.5722
98.6133
98.6544
98.6955
98.7366
98.7777
98.8189
98.86
98.9011
98.9422
98.9833
99.0244
99.0655
99.1066
99.1477
99.1889
99.23
99.2711
99.3122
99.3533
99.3944
99.4355
99.4766
99.5177
99.5588
99.5999
99.641
99.6821
99.7232
99.7643
99.8054
99.8465
99.8876
99.9287
99.9697
100.011
100.052
100.093
100.134
100.175
100.216
100.257
100.298
100.34
100.381
100.422
100.463
100.504
100.545
100.586
100.627
100.668
100.709
100.75
100.791
100.833
100.874
100.915
100.956
100.997
101.038
101.079
101.12
101.161
101.202
101.243
101.284
101.325
101.366
101.408
101.449
101.49
101.531
101.572
101.613
101.654
101.695
101.736
101.777
101.818
101.859
101.9
101.941
101.982
102.023
102.065
102.106
102.147
102.188
102.229
102.27
102.311
102.352
102.393
102.434
102.475
102.516
102.557
102.598
102.639
102.68
102.721
102.762
102.803
102.844
102.885
102.926
102.968
103.009
103.05
103.091
103.132
103.173
103.214
103.255
103.296
103.337
103.378
103.419
103.46
103.501
103.542
103.583
103.624
103.665
103.706
103.747
103.788
103.829
103.87
103.911
103.952
103.993
104.034
104.075
104.116
104.157
104.198
104.239
104.28
104.321
104.362
104.403
104.444
104.485
104.526
104.567
104.608
104.649
104.69
104.731
104.772
104.813
104.854
104.895
104.936
104.977
105.018
105.059
105.1
105.141
105.182
105.223
105.264
105.305
105.346
105.387
105.428
105.469
105.51
105.551
105.592
105.633
105.674
105.715
105.756
105.797
105.838
105.879
105.92
105.961
106.002
106.043
106.084
106.125
106.166
106.207
106.248
106.289
106.33
106.371
106.412
106.453
106.494
106.535
106.576
106.617
106.658
106.699
106.74
106.781
106.821
106.862
106.903
106.944
106.985
107.026
107.067
107.108
107.149
107.19
107.231
107.272
107.313
107.354
107.395
107.436
107.477
107.518
107.559
107.6
107.641
107.682
107.722
107.763
107.804
107.845
107.886
107.927
107.968
108.009
108.05
108.091
108.132
108.173
108.214
108.255
108.296
108.337
108.377
108.418
108.459
108.5
108.541
108.582
108.623
108.664
108.705
108.746
108.787
108.828
108.869
108.909
108.95
108.991
109.032
109.073
109.114
109.155
109.196
109.237
109.278
109.319
109.359
109.4
109.441
109.482
109.523
109.564
109.605
109.646
109.687
109.728
109.769
109.809
109.85
109.891
109.932
109.973
110.014
110.055
110.096
110.137
110.178
110.218
110.259
110.3
110.341
110.382
110.423
110.464
110.505
110.546
110.586
110.627
110.668
110.709
110.75
110.791
110.832
110.873
110.913
110.954
110.995
111.036
111.077
111.118
111.159
111.2
111.24
111.281
111.322
111.363
111.404
111.445
111.486
111.526
111.567
111.608
111.649
111.69
111.731
111.772
111.812
111.853
111.894
111.935
111.976
112.017
112.058
112.098
112.139
112.18
112.221
112.262
112.303
112.344
112.384
112.425
112.466
112.507
112.548
112.589
112.629
112.67
112.711
112.752
112.793
112.834
112.874
112.915
112.956
112.997
113.038
113.079
113.119
113.16
113.201
113.242
113.283
113.324
113.364
113.405
113.446
113.487
113.528
113.568
113.609
113.65
113.691
113.732
113.773
113.813
113.854
113.895
113.936
113.977
114.017
114.058
114.099
114.14
114.181
114.221
114.262
114.303
114.344
114.385
114.425
114.466
114.507
114.548
114.589
114.629
114.67
114.711
114.752
114.793
114.833
114.874
114.915
114.956
114.996
115.037
115.078
115.119
115.16
115.2
115.241
115.282
115.323
115.363
115.404
115.445
115.486
115.527
115.567
115.608
115.649
115.69
115.73
115.771
115.812
115.853
115.893
115.934
115.975
116.016
116.056
116.097
116.138
116.179
116.22
116.26
116.301
116.342
116.383
116.423
116.464
116.505
116.546
116.586
116.627
116.668
116.708
116.749
116.79
116.831
116.871
116.912
116.953
116.994
117.034
117.075
117.116
117.157
117.197
117.238
117.279
117.32
117.36
117.401
117.442
117.482
117.523
117.564
117.605
117.645
117.686
117.727
117.767
117.808
117.849
117.89
117.93
117.971
118.012
118.052
118.093
118.134
118.175
118.215
118.256
118.297
118.337
118.378
118.419
118.459
118.5
118.541
118.582
118.622
118.663
118.704
118.744
118.785
118.826
118.866
118.907
118.948
118.988
119.029
119.07
119.11
119.151
119.192
119.232
119.273
119.314
119.355
119.395
119.436
119.477
119.517
119.558
119.599
119.639
119.68
119.721
119.761
119.802
119.843
119.883
119.924
119.965
120.005
120.046
120.086
120.127
120.168
120.208
120.249
120.29
120.33
120.371
120.412
120.452
120.493
120.534
120.574
120.615
120.656
120.696
120.737
120.777
120.818
120.859
120.899
120.94
120.981
121.021
121.062
121.102
121.143
121.184
121.224
121.265
121.306
121.346
121.387
121.427
121.468
121.509
121.549
121.59
121.631
121.671
121.712
121.752
121.793
121.834
121.874
121.915
121.955
121.996
122.037
122.077
122.118
122.158
122.199
122.24
122.28
122.321
122.361
122.402
122.442
122.483
122.524
122.564
122.605
122.645
122.686
122.727
122.767
122.808
122.848
122.889
122.929
122.97
123.011
123.051
123.092
123.132
123.173
123.213
123.254
123.295
123.335
123.376
123.416
123.457
123.497
123.538
123.578
123.619
123.66
123.7
123.741
123.781
123.822
123.862
123.903
123.943
123.984
124.024
124.065
124.106
124.146
124.187
124.227
124.268
124.308
124.349
124.389
124.43
124.47
124.511
124.551
124.592
124.632
124.673
124.713
124.754
124.794
124.835
124.876
124.916
124.957
124.997
125.038
125.078
125.119
125.159
125.2
125.24
125.281
125.321
125.362
125.402
125.443
125.483
125.524
125.564
125.605
125.645
125.685
125.726
125.766
125.807
125.847
125.888
125.928
125.969
126.009
126.05
126.09
126.131
126.171
126.212
126.252
126.293
126.333
126.374
126.414
126.454
126.495
126.535
126.576
126.616
126.657
126.697
126.738
126.778
126.819
126.859
126.899
126.94
126.98
127.021
127.061
127.102
127.142
127.182
127.223
127.263
127.304
127.344
127.385
127.425
127.465
127.506
127.546
127.587
127.627
127.668
127.708
127.748
127.789
127.829
127.87
127.91
127.95
127.991
128.031
128.072
128.112
128.152
128.193
128.233
128.274
128.314
128.354
128.395
128.435
128.476
128.516
128.556
128.597
128.637
128.677
128.718
128.758
128.799
128.839
128.879
128.92
128.96
129
129.041
129.081
129.122
129.162
129.202
129.243
129.283
129.323
129.364
129.404
129.444
129.485
129.525
129.565
129.606
129.646
129.686
129.727
129.767
129.807
129.848
129.888
129.928
129.969
130.009
130.049
130.09
130.13
130.17
130.211
130.251
130.291
130.332
130.372
130.412
130.452
130.493
130.533
130.573
130.614
130.654
130.694
130.735
130.775
130.815
130.855
130.896
130.936
130.976
131.017
131.057
131.097
131.137
131.178
131.218
131.258
131.298
131.339
131.379
131.419
131.459
131.5
131.54
131.58
131.621
131.661
131.701
131.741
131.781
131.822
131.862
131.902
131.942
131.983
132.023
132.063
132.103
132.144
132.184
132.224
132.264
132.304
132.345
132.385
132.425
132.465
132.506
132.546
132.586
132.626
132.666
132.707
132.747
132.787
132.827
132.867
132.908
132.948
132.988
133.028
133.068
133.108
133.149
133.189
133.229
133.269
133.309
133.349
133.39
133.43
133.47
133.51
133.55
133.59
133.631
133.671
133.711
133.751
133.791
133.831
133.871
133.912
133.952
133.992
134.032
134.072
134.112
134.152
134.192
134.233
134.273
134.313
134.353
134.393
134.433
134.473
134.513
134.553
134.593
134.634
134.674
134.714
134.754
134.794
134.834
134.874
134.914
134.954
134.994
135.034
135.074
135.115
135.155
135.195
135.235
135.275
135.315
135.355
135.395
135.435
135.475
135.515
135.555
135.595
135.635
135.675
135.715
135.755
135.795
135.835
135.875
135.915
135.955
135.995
136.035
136.075
136.115
136.155
136.195
136.235
136.275
136.315
136.355
136.395
136.435
136.475
136.515
136.555
136.595
136.635
136.675
136.715
136.755
136.795
136.835
136.875
136.915
136.955
136.995
137.035
137.074
137.114
137.154
137.194
137.234
137.274
137.314
137.354
137.394
137.434
137.474
137.513
137.553
137.593
137.633
137.673
137.713
137.753
137.793
137.833
137.872
137.912
137.952
137.992
138.032
138.072
138.112
138.151
138.191
138.231
138.271
138.311
138.351
138.39
138.43
138.47
138.51
138.55
138.59
138.629
138.669
138.709
138.749
138.789
138.828
138.868
138.908
138.948
138.987
139.027
139.067
139.107
139.146
139.186
139.226
139.266
139.305
139.345
139.385
139.425
139.464
139.504
139.544
139.584
139.623
139.663
139.703
139.742
139.782
139.822
139.861
139.901
139.941
139.981
140.02
140.06
140.1
140.139
140.179
140.218
140.258
140.298
140.337
140.377
140.417
140.456
140.496
140.536
140.575
140.615
140.654
140.694
140.734
140.773
140.813
140.852
140.892
140.931
140.971
141.011
141.05
141.09
141.129
141.169
141.208
141.248
141.287
141.327
141.366
141.406
141.445
141.485
141.524
141.564
141.603
141.643
141.682
141.722
141.761
141.801
141.84
141.88
141.919
141.959
141.998
142.038
142.077
142.116
142.156
142.195
142.235
142.274
142.313
142.353
142.392
142.432
142.471
142.51
142.55
142.589
142.628
142.668
142.707
142.746
142.786
142.825
142.864
142.904
142.943
142.982
143.021
143.061
143.1
143.139
143.179
143.218
143.257
143.296
143.336
143.375
143.414
143.453
143.492
143.532
143.571
143.61
143.649
143.688
143.728
143.767
143.806
143.845
143.884
143.923
143.962
144.002
144.041
144.08
144.119
144.158
144.197
144.236
144.275
144.314
144.353
144.392
144.431
144.471
144.51
144.549
144.588
144.627
144.666
144.705
144.744
144.783
144.821
144.86
144.899
144.938
144.977
145.016
145.055
145.094
145.133
145.172
145.211
145.25
145.288
145.327
145.366
145.405
145.444
145.483
145.521
145.56
145.599
145.638
145.677
145.715
145.754
145.793
145.832
145.87
145.909
145.948
145.986
146.025
146.064
146.102
146.141
146.18
146.218
146.257
146.296
146.334
146.373
146.411
146.45
146.489
146.527
146.566
146.604
146.643
146.681
146.72
146.758
146.797
146.835
146.874
146.912
146.95
146.989
147.027
147.066
147.104
147.142
147.181
147.219
147.258
147.296
147.334
147.372
147.411
147.449
147.487
147.526
147.564
147.602
147.64
147.678
147.717
147.755
147.793
147.831
147.869
147.907
147.945
147.984
148.022
148.06
148.098
148.136
148.174
148.212
148.25
148.288
148.326
148.364
148.402
148.44
148.478
148.515
148.553
148.591
148.629
148.667
148.705
148.742
148.78
148.818
148.856
148.894
148.931
148.969
149.007
149.044
149.082
149.12
149.157
149.195
149.232
149.27
149.308
149.345
149.383
149.42
149.458
149.495
149.533
149.57
149.607
149.645
149.682
149.72
149.757
149.794
149.832
149.869
149.906
149.943
149.981
150.018
150.055
150.092
150.129
150.166
150.204
150.241
150.278
150.315
150.352
150.389
150.426
150.463
150.5
150.537
150.574
150.61
150.647
150.684
150.721
150.758
150.795
150.831
150.868
150.905
150.942
150.978
151.015
151.051
151.088
151.125
151.161
151.198
151.234
151.271
151.307
151.344
151.38
151.416
151.453
151.489
151.525
151.562
151.598
151.634
151.67
151.707
151.743
151.779
151.815
151.851
151.887
151.923
151.959
151.995
152.031
152.067
152.103
152.139
152.175
152.211
152.246
152.282
152.318
152.354
152.389
152.425
152.461
152.496
152.532
152.567
152.603
152.638
152.674
152.709
152.745
152.78
152.815
152.851
152.886
152.921
152.957
152.992
153.027
153.062
153.097
153.132
153.167
153.202
153.237
153.272
153.307
153.342
153.377
153.412
153.447
153.482
153.516
153.551
153.586
153.62
153.655
153.69
153.724
153.759
153.793
153.828
153.862
153.897
153.931
153.965
154
154.034
154.068
154.102
154.137
154.171
154.205
154.239
154.273
154.307
154.341
154.375
154.409
154.443
154.477
154.511
154.544
154.578
154.612
154.646
154.679
154.713
154.746
154.78
154.814
154.847
154.881
154.914
154.947
154.981
155.014
155.047
155.081
155.114
155.147
155.18
155.214
155.247
155.28
155.313
155.346
155.379
155.412
155.445
155.478
155.51
155.543
155.576
155.609
155.642
155.674
155.707
155.74
155.772
155.805
155.837
155.87
155.902
155.935
155.967
156
156.032
156.065
156.097
156.129
156.161
156.194
156.226
156.258
156.29
156.322
156.354
156.386
156.418
156.45
156.482
156.514
156.546
156.578
156.61
156.642
156.674
156.705
156.737
156.769
156.801