/*--------------------------------*- C++ -*----------------------------------*\
  =========                 |
  \\      /  F ield         | OpenFOAM: The Open Source CFD Toolbox
   \\    /   O peration     | Website:  https://openfoam.org
    \\  /    A nd           | Version:  9
     \\/     M anipulation  |
\*---------------------------------------------------------------------------*/
FoamFile
{
    format      ascii;
    class       volScalarField;
    location    "0.028";
    object      mag(U);
}
// * * * * * * * * * * * * * * * * * * * * * * * * * * * * * * * * * * * * * //

dimensions      [0 1 -1 0 0 0 0];

internalField   nonuniform List<scalar> 
100
(
41.0311
45.6897
51.023
55.0017
58.9397
63.0111
67.1181
71.197
75.2766
79.355
83.4233
87.5096
91.5744
95.6475
99.7252
103.778
107.844
111.919
115.961
119.995
124.053
128.103
132.115
136.115
140.131
144.147
148.128
152.074
156.023
159.975
163.9
167.785
171.642
175.49
179.321
183.112
186.854
190.546
194.199
197.793
201.317
204.784
208.226
211.672
215.108
218.51
221.836
225.016
228.01
230.868
233.654
236.373
239.003
241.531
243.961
246.308
248.573
250.759
252.861
254.876
256.82
258.715
260.57
262.384
264.153
265.876
267.561
269.219
270.856
272.467
274.044
275.581
277.072
278.507
279.877
281.177
282.4
283.539
284.589
285.547
286.413
287.187
287.872
288.475
289.002
289.458
289.848
290.179
290.457
290.689
290.879
291.034
291.158
291.258
291.337
291.399
291.444
291.475
291.497
291.513
)
;

boundaryField
{
    sides
    {
        type            calculated;
        value           nonuniform List<scalar> 2(291.513 41.0311);
    }
    empty
    {
        type            empty;
    }
}


// ************************************************************************* //
