/*--------------------------------*- C++ -*----------------------------------*\
  =========                 |
  \\      /  F ield         | OpenFOAM: The Open Source CFD Toolbox
   \\    /   O peration     | Website:  https://openfoam.org
    \\  /    A nd           | Version:  9
     \\/     M anipulation  |
\*---------------------------------------------------------------------------*/
FoamFile
{
    format      ascii;
    class       surfaceScalarField;
    location    "0.028";
    object      phi;
}
// * * * * * * * * * * * * * * * * * * * * * * * * * * * * * * * * * * * * * //

dimensions      [1 0 -1 0 0 0 0];

internalField   nonuniform List<scalar> 
99
(
71.3591
77.5575
83.7012
89.8004
95.8673
101.915
107.96
113.984
119.982
125.977
131.921
137.86
143.747
149.604
155.457
161.243
166.993
172.763
178.483
184.113
189.738
195.402
201.011
206.506
211.96
217.485
223.004
228.404
233.719
239.046
244.434
249.769
254.977
260.126
265.312
270.548
275.728
280.775
285.763
290.678
295.687
300.66
305.607
310.53
315.391
320.267
325.128
330.092
334.889
339.657
344.383
349.093
353.883
358.688
363.42
368.094
372.757
377.51
382.406
387.31
392.087
396.768
401.477
406.303
411.246
416.197
421.019
425.701
430.362
435.087
439.863
444.605
449.226
453.673
457.914
461.979
465.913
469.683
473.232
476.547
479.592
482.307
484.704
486.837
488.73
490.391
491.817
492.991
493.914
494.628
495.197
495.681
496.078
496.38
496.554
496.624
496.641
496.655
496.656
)
;

boundaryField
{
    sides
    {
        type            calculated;
        value           nonuniform List<scalar> 2(496.64 -65.1209);
    }
    empty
    {
        type            empty;
        value           nonuniform List<scalar> 0();
    }
}


// ************************************************************************* //
