/*--------------------------------*- C++ -*----------------------------------*\
  =========                 |
  \\      /  F ield         | OpenFOAM: The Open Source CFD Toolbox
   \\    /   O peration     | Website:  https://openfoam.org
    \\  /    A nd           | Version:  9
     \\/     M anipulation  |
\*---------------------------------------------------------------------------*/
FoamFile
{
    format      ascii;
    class       volVectorField;
    location    "0.028";
    object      U;
}
// * * * * * * * * * * * * * * * * * * * * * * * * * * * * * * * * * * * * * //

dimensions      [0 1 -1 0 0 0 0];

internalField   nonuniform List<vector> 
100
(
(41.0311 0 0)
(45.6897 0 0)
(51.023 0 0)
(55.0017 0 0)
(58.9397 0 0)
(63.0111 0 0)
(67.1181 0 0)
(71.197 0 0)
(75.2766 0 0)
(79.355 0 0)
(83.4233 0 0)
(87.5096 0 0)
(91.5744 0 0)
(95.6475 0 0)
(99.7252 0 0)
(103.778 0 0)
(107.844 0 0)
(111.919 0 0)
(115.961 0 0)
(119.995 0 0)
(124.053 0 0)
(128.103 0 0)
(132.115 0 0)
(136.115 0 0)
(140.131 0 0)
(144.147 0 0)
(148.128 0 0)
(152.074 0 0)
(156.023 0 0)
(159.975 0 0)
(163.9 0 0)
(167.785 0 0)
(171.642 0 0)
(175.49 0 0)
(179.321 0 0)
(183.112 0 0)
(186.854 0 0)
(190.546 0 0)
(194.199 0 0)
(197.793 0 0)
(201.317 0 0)
(204.784 0 0)
(208.226 0 0)
(211.672 0 0)
(215.108 0 0)
(218.51 0 0)
(221.836 0 0)
(225.016 0 0)
(228.01 0 0)
(230.868 0 0)
(233.654 0 0)
(236.373 0 0)
(239.003 0 0)
(241.531 0 0)
(243.961 0 0)
(246.308 0 0)
(248.573 0 0)
(250.759 0 0)
(252.861 0 0)
(254.876 0 0)
(256.82 0 0)
(258.715 0 0)
(260.57 0 0)
(262.384 0 0)
(264.153 0 0)
(265.876 0 0)
(267.561 0 0)
(269.219 0 0)
(270.856 0 0)
(272.467 0 0)
(274.044 0 0)
(275.581 0 0)
(277.072 0 0)
(278.507 0 0)
(279.877 0 0)
(281.177 0 0)
(282.4 0 0)
(283.539 0 0)
(284.589 0 0)
(285.547 0 0)
(286.413 0 0)
(287.187 0 0)
(287.872 0 0)
(288.475 0 0)
(289.002 0 0)
(289.458 0 0)
(289.848 0 0)
(290.179 0 0)
(290.457 0 0)
(290.689 0 0)
(290.879 0 0)
(291.034 0 0)
(291.158 0 0)
(291.258 0 0)
(291.337 0 0)
(291.399 0 0)
(291.444 0 0)
(291.475 0 0)
(291.497 0 0)
(291.513 0 0)
)
;

boundaryField
{
    sides
    {
        type            zeroGradient;
    }
    empty
    {
        type            empty;
    }
}


// ************************************************************************* //
