/*--------------------------------*- C++ -*----------------------------------*\
  =========                 |
  \\      /  F ield         | OpenFOAM: The Open Source CFD Toolbox
   \\    /   O peration     | Website:  https://openfoam.org
    \\  /    A nd           | Version:  9
     \\/     M anipulation  |
\*---------------------------------------------------------------------------*/
FoamFile
{
    format      ascii;
    class       volVectorField;
    location    "0.021";
    object      U;
}
// * * * * * * * * * * * * * * * * * * * * * * * * * * * * * * * * * * * * * //

dimensions      [0 1 -1 0 0 0 0];

internalField   nonuniform List<vector> 
10000
(
(115.454 0 0)
(115.517 0 0)
(115.553 0 0)
(115.593 0 0)
(115.632 0 0)
(115.671 0 0)
(115.71 0 0)
(115.749 0 0)
(115.787 0 0)
(115.826 0 0)
(115.865 0 0)
(115.904 0 0)
(115.944 0 0)
(115.984 0 0)
(116.024 0 0)
(116.063 0 0)
(116.103 0 0)
(116.142 0 0)
(116.18 0 0)
(116.218 0 0)
(116.256 0 0)
(116.294 0 0)
(116.332 0 0)
(116.371 0 0)
(116.41 0 0)
(116.449 0 0)
(116.489 0 0)
(116.529 0 0)
(116.569 0 0)
(116.609 0 0)
(116.648 0 0)
(116.687 0 0)
(116.726 0 0)
(116.764 0 0)
(116.802 0 0)
(116.841 0 0)
(116.879 0 0)
(116.917 0 0)
(116.956 0 0)
(116.995 0 0)
(117.034 0 0)
(117.073 0 0)
(117.113 0 0)
(117.152 0 0)
(117.191 0 0)
(117.23 0 0)
(117.269 0 0)
(117.307 0 0)
(117.346 0 0)
(117.384 0 0)
(117.423 0 0)
(117.462 0 0)
(117.502 0 0)
(117.541 0 0)
(117.58 0 0)
(117.62 0 0)
(117.659 0 0)
(117.698 0 0)
(117.737 0 0)
(117.776 0 0)
(117.815 0 0)
(117.853 0 0)
(117.892 0 0)
(117.93 0 0)
(117.969 0 0)
(118.008 0 0)
(118.047 0 0)
(118.086 0 0)
(118.125 0 0)
(118.165 0 0)
(118.204 0 0)
(118.243 0 0)
(118.282 0 0)
(118.321 0 0)
(118.36 0 0)
(118.399 0 0)
(118.439 0 0)
(118.478 0 0)
(118.518 0 0)
(118.557 0 0)
(118.596 0 0)
(118.635 0 0)
(118.674 0 0)
(118.713 0 0)
(118.751 0 0)
(118.79 0 0)
(118.828 0 0)
(118.867 0 0)
(118.906 0 0)
(118.944 0 0)
(118.983 0 0)
(119.022 0 0)
(119.061 0 0)
(119.1 0 0)
(119.139 0 0)
(119.178 0 0)
(119.217 0 0)
(119.256 0 0)
(119.295 0 0)
(119.334 0 0)
(119.373 0 0)
(119.411 0 0)
(119.45 0 0)
(119.489 0 0)
(119.528 0 0)
(119.566 0 0)
(119.605 0 0)
(119.644 0 0)
(119.683 0 0)
(119.722 0 0)
(119.761 0 0)
(119.8 0 0)
(119.838 0 0)
(119.877 0 0)
(119.916 0 0)
(119.955 0 0)
(119.994 0 0)
(120.034 0 0)
(120.073 0 0)
(120.112 0 0)
(120.15 0 0)
(120.189 0 0)
(120.227 0 0)
(120.266 0 0)
(120.305 0 0)
(120.344 0 0)
(120.383 0 0)
(120.422 0 0)
(120.461 0 0)
(120.5 0 0)
(120.538 0 0)
(120.576 0 0)
(120.615 0 0)
(120.654 0 0)
(120.694 0 0)
(120.733 0 0)
(120.772 0 0)
(120.811 0 0)
(120.85 0 0)
(120.888 0 0)
(120.926 0 0)
(120.965 0 0)
(121.004 0 0)
(121.043 0 0)
(121.083 0 0)
(121.122 0 0)
(121.161 0 0)
(121.199 0 0)
(121.237 0 0)
(121.275 0 0)
(121.314 0 0)
(121.354 0 0)
(121.394 0 0)
(121.434 0 0)
(121.473 0 0)
(121.511 0 0)
(121.549 0 0)
(121.586 0 0)
(121.625 0 0)
(121.665 0 0)
(121.705 0 0)
(121.745 0 0)
(121.784 0 0)
(121.823 0 0)
(121.861 0 0)
(121.899 0 0)
(121.937 0 0)
(121.976 0 0)
(122.016 0 0)
(122.055 0 0)
(122.094 0 0)
(122.132 0 0)
(122.171 0 0)
(122.209 0 0)
(122.247 0 0)
(122.287 0 0)
(122.326 0 0)
(122.366 0 0)
(122.406 0 0)
(122.445 0 0)
(122.483 0 0)
(122.52 0 0)
(122.558 0 0)
(122.596 0 0)
(122.636 0 0)
(122.677 0 0)
(122.718 0 0)
(122.758 0 0)
(122.797 0 0)
(122.834 0 0)
(122.871 0 0)
(122.907 0 0)
(122.945 0 0)
(122.986 0 0)
(123.029 0 0)
(123.072 0 0)
(123.113 0 0)
(123.15 0 0)
(123.183 0 0)
(123.216 0 0)
(123.251 0 0)
(123.292 0 0)
(123.338 0 0)
(123.387 0 0)
(123.43 0 0)
(123.464 0 0)
(123.495 0 0)
(123.526 0 0)
(123.561 0 0)
(123.606 0 0)
(123.657 0 0)
(123.704 0 0)
(123.738 0 0)
(123.767 0 0)
(123.795 0 0)
(123.829 0 0)
(123.883 0 0)
(123.946 0 0)
(123.992 0 0)
(124.014 0 0)
(124.033 0 0)
(124.054 0 0)
(124.078 0 0)
(124.122 0 0)
(124.201 0 0)
(124.279 0 0)
(124.319 0 0)
(124.334 0 0)
(124.345 0 0)
(124.363 0 0)
(124.385 0 0)
(124.418 0 0)
(124.489 0 0)
(124.572 0 0)
(124.629 0 0)
(124.65 0 0)
(124.666 0 0)
(124.687 0 0)
(124.713 0 0)
(124.751 0 0)
(124.804 0 0)
(124.859 0 0)
(124.906 0 0)
(124.946 0 0)
(124.981 0 0)
(125.016 0 0)
(125.051 0 0)
(125.085 0 0)
(125.121 0 0)
(125.161 0 0)
(125.209 0 0)
(125.26 0 0)
(125.303 0 0)
(125.333 0 0)
(125.358 0 0)
(125.383 0 0)
(125.411 0 0)
(125.455 0 0)
(125.529 0 0)
(125.602 0 0)
(125.637 0 0)
(125.653 0 0)
(125.669 0 0)
(125.689 0 0)
(125.711 0 0)
(125.739 0 0)
(125.791 0 0)
(125.874 0 0)
(125.955 0 0)
(126.002 0 0)
(126.019 0 0)
(126.033 0 0)
(126.051 0 0)
(126.073 0 0)
(126.097 0 0)
(126.128 0 0)
(126.191 0 0)
(126.279 0 0)
(126.356 0 0)
(126.392 0 0)
(126.405 0 0)
(126.411 0 0)
(126.426 0 0)
(126.447 0 0)
(126.473 0 0)
(126.536 0 0)
(126.63 0 0)
(126.71 0 0)
(126.747 0 0)
(126.757 0 0)
(126.755 0 0)
(126.767 0 0)
(126.787 0 0)
(126.829 0 0)
(126.914 0 0)
(127.007 0 0)
(127.066 0 0)
(127.084 0 0)
(127.082 0 0)
(127.081 0 0)
(127.098 0 0)
(127.126 0 0)
(127.197 0 0)
(127.296 0 0)
(127.373 0 0)
(127.404 0 0)
(127.411 0 0)
(127.407 0 0)
(127.421 0 0)
(127.443 0 0)
(127.498 0 0)
(127.589 0 0)
(127.67 0 0)
(127.707 0 0)
(127.718 0 0)
(127.722 0 0)
(127.739 0 0)
(127.764 0 0)
(127.829 0 0)
(127.915 0 0)
(127.978 0 0)
(128.001 0 0)
(128.013 0 0)
(128.03 0 0)
(128.052 0 0)
(128.08 0 0)
(128.119 0 0)
(128.186 0 0)
(128.273 0 0)
(128.353 0 0)
(128.398 0 0)
(128.414 0 0)
(128.416 0 0)
(128.418 0 0)
(128.435 0 0)
(128.457 0 0)
(128.499 0 0)
(128.583 0 0)
(128.684 0 0)
(128.75 0 0)
(128.774 0 0)
(128.775 0 0)
(128.769 0 0)
(128.783 0 0)
(128.805 0 0)
(128.855 0 0)
(128.949 0 0)
(129.048 0 0)
(129.107 0 0)
(129.125 0 0)
(129.12 0 0)
(129.109 0 0)
(129.123 0 0)
(129.146 0 0)
(129.206 0 0)
(129.306 0 0)
(129.399 0 0)
(129.449 0 0)
(129.462 0 0)
(129.454 0 0)
(129.454 0 0)
(129.472 0 0)
(129.508 0 0)
(129.588 0 0)
(129.684 0 0)
(129.749 0 0)
(129.77 0 0)
(129.772 0 0)
(129.774 0 0)
(129.793 0 0)
(129.832 0 0)
(129.915 0 0)
(130.005 0 0)
(130.06 0 0)
(130.075 0 0)
(130.07 0 0)
(130.072 0 0)
(130.09 0 0)
(130.134 0 0)
(130.221 0 0)
(130.323 0 0)
(130.386 0 0)
(130.407 0 0)
(130.403 0 0)
(130.389 0 0)
(130.402 0 0)
(130.425 0 0)
(130.486 0 0)
(130.589 0 0)
(130.689 0 0)
(130.746 0 0)
(130.762 0 0)
(130.755 0 0)
(130.738 0 0)
(130.749 0 0)
(130.769 0 0)
(130.81 0 0)
(130.894 0 0)
(131.019 0 0)
(131.109 0 0)
(131.152 0 0)
(131.162 0 0)
(131.147 0 0)
(131.128 0 0)
(131.139 0 0)
(131.16 0 0)
(131.196 0 0)
(131.274 0 0)
(131.395 0 0)
(131.487 0 0)
(131.534 0 0)
(131.547 0 0)
(131.535 0 0)
(131.519 0 0)
(131.53 0 0)
(131.551 0 0)
(131.583 0 0)
(131.658 0 0)
(131.776 0 0)
(131.878 0 0)
(131.932 0 0)
(131.948 0 0)
(131.939 0 0)
(131.922 0 0)
(131.933 0 0)
(131.954 0 0)
(132.004 0 0)
(132.094 0 0)
(132.183 0 0)
(132.234 0 0)
(132.25 0 0)
(132.257 0 0)
(132.274 0 0)
(132.302 0 0)
(132.369 0 0)
(132.444 0 0)
(132.48 0 0)
(132.491 0 0)
(132.499 0 0)
(132.517 0 0)
(132.561 0 0)
(132.648 0 0)
(132.738 0 0)
(132.788 0 0)
(132.801 0 0)
(132.792 0 0)
(132.791 0 0)
(132.809 0 0)
(132.85 0 0)
(132.936 0 0)
(133.039 0 0)
(133.104 0 0)
(133.126 0 0)
(133.124 0 0)
(133.117 0 0)
(133.132 0 0)
(133.16 0 0)
(133.232 0 0)
(133.331 0 0)
(133.406 0 0)
(133.435 0 0)
(133.439 0 0)
(133.428 0 0)
(133.44 0 0)
(133.467 0 0)
(133.537 0 0)
(133.652 0 0)
(133.753 0 0)
(133.806 0 0)
(133.821 0 0)
(133.806 0 0)
(133.775 0 0)
(133.779 0 0)
(133.799 0 0)
(133.838 0 0)
(133.922 0 0)
(134.039 0 0)
(134.122 0 0)
(134.158 0 0)
(134.165 0 0)
(134.153 0 0)
(134.159 0 0)
(134.179 0 0)
(134.227 0 0)
(134.318 0 0)
(134.412 0 0)
(134.465 0 0)
(134.48 0 0)
(134.47 0 0)
(134.462 0 0)
(134.478 0 0)
(134.515 0 0)
(134.596 0 0)
(134.711 0 0)
(134.792 0 0)
(134.825 0 0)
(134.829 0 0)
(134.805 0 0)
(134.8 0 0)
(134.818 0 0)
(134.859 0 0)
(134.945 0 0)
(135.063 0 0)
(135.143 0 0)
(135.174 0 0)
(135.178 0 0)
(135.155 0 0)
(135.151 0 0)
(135.17 0 0)
(135.211 0 0)
(135.297 0 0)
(135.411 0 0)
(135.488 0 0)
(135.517 0 0)
(135.52 0 0)
(135.502 0 0)
(135.508 0 0)
(135.529 0 0)
(135.584 0 0)
(135.684 0 0)
(135.793 0 0)
(135.854 0 0)
(135.874 0 0)
(135.866 0 0)
(135.84 0 0)
(135.846 0 0)
(135.867 0 0)
(135.922 0 0)
(136.022 0 0)
(136.134 0 0)
(136.199 0 0)
(136.221 0 0)
(136.216 0 0)
(136.193 0 0)
(136.2 0 0)
(136.221 0 0)
(136.275 0 0)
(136.374 0 0)
(136.485 0 0)
(136.55 0 0)
(136.572 0 0)
(136.569 0 0)
(136.554 0 0)
(136.564 0 0)
(136.586 0 0)
(136.64 0 0)
(136.735 0 0)
(136.826 0 0)
(136.874 0 0)
(136.889 0 0)
(136.887 0 0)
(136.896 0 0)
(136.917 0 0)
(136.965 0 0)
(137.052 0 0)
(137.134 0 0)
(137.174 0 0)
(137.185 0 0)
(137.185 0 0)
(137.2 0 0)
(137.225 0 0)
(137.29 0 0)
(137.382 0 0)
(137.454 0 0)
(137.481 0 0)
(137.487 0 0)
(137.488 0 0)
(137.506 0 0)
(137.537 0 0)
(137.611 0 0)
(137.701 0 0)
(137.763 0 0)
(137.783 0 0)
(137.789 0 0)
(137.799 0 0)
(137.82 0 0)
(137.868 0 0)
(137.949 0 0)
(138.02 0 0)
(138.047 0 0)
(138.055 0 0)
(138.064 0 0)
(138.085 0 0)
(138.135 0 0)
(138.226 0 0)
(138.315 0 0)
(138.361 0 0)
(138.373 0 0)
(138.36 0 0)
(138.354 0 0)
(138.372 0 0)
(138.411 0 0)
(138.496 0 0)
(138.613 0 0)
(138.692 0 0)
(138.723 0 0)
(138.727 0 0)
(138.703 0 0)
(138.697 0 0)
(138.715 0 0)
(138.754 0 0)
(138.838 0 0)
(138.957 0 0)
(139.039 0 0)
(139.073 0 0)
(139.079 0 0)
(139.056 0 0)
(139.05 0 0)
(139.068 0 0)
(139.107 0 0)
(139.19 0 0)
(139.308 0 0)
(139.391 0 0)
(139.425 0 0)
(139.431 0 0)
(139.406 0 0)
(139.394 0 0)
(139.411 0 0)
(139.444 0 0)
(139.522 0 0)
(139.649 0 0)
(139.749 0 0)
(139.799 0 0)
(139.814 0 0)
(139.801 0 0)
(139.777 0 0)
(139.787 0 0)
(139.809 0 0)
(139.857 0 0)
(139.948 0 0)
(140.05 0 0)
(140.111 0 0)
(140.132 0 0)
(140.138 0 0)
(140.146 0 0)
(140.166 0 0)
(140.202 0 0)
(140.271 0 0)
(140.34 0 0)
(140.368 0 0)
(140.384 0 0)
(140.403 0 0)
(140.435 0 0)
(140.509 0 0)
(140.595 0 0)
(140.647 0 0)
(140.662 0 0)
(140.655 0 0)
(140.654 0 0)
(140.673 0 0)
(140.715 0 0)
(140.802 0 0)
(140.918 0 0)
(140.995 0 0)
(141.025 0 0)
(141.029 0 0)
(141.007 0 0)
(141.005 0 0)
(141.024 0 0)
(141.058 0 0)
(141.134 0 0)
(141.238 0 0)
(141.314 0 0)
(141.344 0 0)
(141.355 0 0)
(141.358 0 0)
(141.376 0 0)
(141.405 0 0)
(141.47 0 0)
(141.546 0 0)
(141.587 0 0)
(141.601 0 0)
(141.607 0 0)
(141.625 0 0)
(141.662 0 0)
(141.744 0 0)
(141.856 0 0)
(141.932 0 0)
(141.961 0 0)
(141.964 0 0)
(141.937 0 0)
(141.93 0 0)
(141.949 0 0)
(141.982 0 0)
(142.058 0 0)
(142.173 0 0)
(142.26 0 0)
(142.301 0 0)
(142.314 0 0)
(142.309 0 0)
(142.315 0 0)
(142.336 0 0)
(142.37 0 0)
(142.443 0 0)
(142.523 0 0)
(142.566 0 0)
(142.584 0 0)
(142.602 0 0)
(142.626 0 0)
(142.688 0 0)
(142.771 0 0)
(142.828 0 0)
(142.845 0 0)
(142.837 0 0)
(142.826 0 0)
(142.842 0 0)
(142.876 0 0)
(142.955 0 0)
(143.089 0 0)
(143.2 0 0)
(143.254 0 0)
(143.271 0 0)
(143.256 0 0)
(143.206 0 0)
(143.194 0 0)
(143.213 0 0)
(143.247 0 0)
(143.324 0 0)
(143.453 0 0)
(143.56 0 0)
(143.614 0 0)
(143.63 0 0)
(143.619 0 0)
(143.589 0 0)
(143.595 0 0)
(143.616 0 0)
(143.667 0 0)
(143.763 0 0)
(143.888 0 0)
(143.965 0 0)
(143.994 0 0)
(143.998 0 0)
(143.967 0 0)
(143.952 0 0)
(143.969 0 0)
(143.999 0 0)
(144.073 0 0)
(144.196 0 0)
(144.309 0 0)
(144.367 0 0)
(144.387 0 0)
(144.38 0 0)
(144.348 0 0)
(144.347 0 0)
(144.368 0 0)
(144.4 0 0)
(144.474 0 0)
(144.581 0 0)
(144.664 0 0)
(144.702 0 0)
(144.715 0 0)
(144.718 0 0)
(144.734 0 0)
(144.759 0 0)
(144.814 0 0)
(144.891 0 0)
(144.942 0 0)
(144.961 0 0)
(144.971 0 0)
(144.99 0 0)
(145.024 0 0)
(145.102 0 0)
(145.206 0 0)
(145.277 0 0)
(145.304 0 0)
(145.305 0 0)
(145.28 0 0)
(145.279 0 0)
(145.299 0 0)
(145.337 0 0)
(145.419 0 0)
(145.532 0 0)
(145.613 0 0)
(145.646 0 0)
(145.657 0 0)
(145.652 0 0)
(145.663 0 0)
(145.685 0 0)
(145.725 0 0)
(145.801 0 0)
(145.88 0 0)
(145.917 0 0)
(145.934 0 0)
(145.95 0 0)
(145.973 0 0)
(146.026 0 0)
(146.108 0 0)
(146.173 0 0)
(146.196 0 0)
(146.2 0 0)
(146.2 0 0)
(146.218 0 0)
(146.25 0 0)
(146.323 0 0)
(146.423 0 0)
(146.498 0 0)
(146.527 0 0)
(146.537 0 0)
(146.539 0 0)
(146.557 0 0)
(146.583 0 0)
(146.644 0 0)
(146.725 0 0)
(146.779 0 0)
(146.799 0 0)
(146.808 0 0)
(146.826 0 0)
(146.854 0 0)
(146.924 0 0)
(147.023 0 0)
(147.1 0 0)
(147.131 0 0)
(147.137 0 0)
(147.118 0 0)
(147.119 0 0)
(147.14 0 0)
(147.174 0 0)
(147.251 0 0)
(147.356 0 0)
(147.432 0 0)
(147.463 0 0)
(147.475 0 0)
(147.482 0 0)
(147.502 0 0)
(147.531 0 0)
(147.593 0 0)
(147.666 0 0)
(147.702 0 0)
(147.718 0 0)
(147.731 0 0)
(147.753 0 0)
(147.795 0 0)
(147.878 0 0)
(147.968 0 0)
(148.02 0 0)
(148.037 0 0)
(148.041 0 0)
(148.055 0 0)
(148.079 0 0)
(148.138 0 0)
(148.236 0 0)
(148.322 0 0)
(148.363 0 0)
(148.372 0 0)
(148.342 0 0)
(148.293 0 0)
(148.295 0 0)
(148.316 0 0)
(148.362 0 0)
(148.454 0 0)
(148.612 0 0)
(148.734 0 0)
(148.793 0 0)
(148.814 0 0)
(148.808 0 0)
(148.764 0 0)
(148.746 0 0)
(148.763 0 0)
(148.789 0 0)
(148.851 0 0)
(148.958 0 0)
(149.072 0 0)
(149.134 0 0)
(149.157 0 0)
(149.156 0 0)
(149.138 0 0)
(149.146 0 0)
(149.169 0 0)
(149.212 0 0)
(149.298 0 0)
(149.401 0 0)
(149.465 0 0)
(149.489 0 0)
(149.492 0 0)
(149.489 0 0)
(149.507 0 0)
(149.534 0 0)
(149.599 0 0)
(149.696 0 0)
(149.774 0 0)
(149.807 0 0)
(149.817 0 0)
(149.809 0 0)
(149.819 0 0)
(149.842 0 0)
(149.893 0 0)
(149.987 0 0)
(150.084 0 0)
(150.137 0 0)
(150.155 0 0)
(150.148 0 0)
(150.133 0 0)
(150.149 0 0)
(150.174 0 0)
(150.237 0 0)
(150.347 0 0)
(150.464 0 0)
(150.527 0 0)
(150.551 0 0)
(150.551 0 0)
(150.516 0 0)
(150.497 0 0)
(150.512 0 0)
(150.537 0 0)
(150.566 0 0)
(150.634 0 0)
(150.749 0 0)
(150.883 0 0)
(150.956 0 0)
(150.985 0 0)
(150.99 0 0)
(150.96 0 0)
(150.938 0 0)
(150.954 0 0)
(150.978 0 0)
(151.036 0 0)
(151.141 0 0)
(151.266 0 0)
(151.337 0 0)
(151.365 0 0)
(151.368 0 0)
(151.335 0 0)
(151.316 0 0)
(151.333 0 0)
(151.357 0 0)
(151.415 0 0)
(151.52 0 0)
(151.654 0 0)
(151.733 0 0)
(151.766 0 0)
(151.777 0 0)
(151.764 0 0)
(151.752 0 0)
(151.768 0 0)
(151.791 0 0)
(151.816 0 0)
(151.841 0 0)
(151.871 0 0)
(151.936 0 0)
(152.042 0 0)
(152.141 0 0)
(152.194 0 0)
(152.213 0 0)
(152.221 0 0)
(152.235 0 0)
(152.258 0 0)
(152.307 0 0)
(152.397 0 0)
(152.484 0 0)
(152.528 0 0)
(152.54 0 0)
(152.516 0 0)
(152.474 0 0)
(152.48 0 0)
(152.503 0 0)
(152.554 0 0)
(152.652 0 0)
(152.811 0 0)
(152.915 0 0)
(152.963 0 0)
(152.979 0 0)
(152.964 0 0)
(152.91 0 0)
(152.896 0 0)
(152.915 0 0)
(152.943 0 0)
(153.011 0 0)
(153.129 0 0)
(153.256 0 0)
(153.324 0 0)
(153.349 0 0)
(153.351 0 0)
(153.322 0 0)
(153.313 0 0)
(153.332 0 0)
(153.361 0 0)
(153.43 0 0)
(153.543 0 0)
(153.642 0 0)
(153.692 0 0)
(153.709 0 0)
(153.702 0 0)
(153.685 0 0)
(153.699 0 0)
(153.723 0 0)
(153.775 0 0)
(153.871 0 0)
(153.975 0 0)
(154.033 0 0)
(154.054 0 0)
(154.053 0 0)
(154.039 0 0)
(154.052 0 0)
(154.076 0 0)
(154.127 0 0)
(154.222 0 0)
(154.324 0 0)
(154.381 0 0)
(154.402 0 0)
(154.401 0 0)
(154.389 0 0)
(154.403 0 0)
(154.427 0 0)
(154.476 0 0)
(154.568 0 0)
(154.667 0 0)
(154.725 0 0)
(154.747 0 0)
(154.753 0 0)
(154.761 0 0)
(154.783 0 0)
(154.815 0 0)
(154.879 0 0)
(154.952 0 0)
(154.988 0 0)
(155.005 0 0)
(155.018 0 0)
(155.041 0 0)
(155.081 0 0)
(155.163 0 0)
(155.257 0 0)
(155.311 0 0)
(155.331 0 0)
(155.327 0 0)
(155.315 0 0)
(155.33 0 0)
(155.355 0 0)
(155.411 0 0)
(155.51 0 0)
(155.61 0 0)
(155.664 0 0)
(155.684 0 0)
(155.685 0 0)
(155.684 0 0)
(155.704 0 0)
(155.73 0 0)
(155.785 0 0)
(155.868 0 0)
(155.934 0 0)
(155.96 0 0)
(155.972 0 0)
(155.985 0 0)
(156.008 0 0)
(156.055 0 0)
(156.145 0 0)
(156.243 0 0)
(156.298 0 0)
(156.318 0 0)
(156.316 0 0)
(156.3 0 0)
(156.313 0 0)
(156.337 0 0)
(156.375 0 0)
(156.453 0 0)
(156.545 0 0)
(156.603 0 0)
(156.626 0 0)
(156.643 0 0)
(156.666 0 0)
(156.703 0 0)
(156.776 0 0)
(156.852 0 0)
(156.886 0 0)
(156.897 0 0)
(156.884 0 0)
(156.889 0 0)
(156.911 0 0)
(156.956 0 0)
(157.047 0 0)
(157.173 0 0)
(157.253 0 0)
(157.286 0 0)
(157.295 0 0)
(157.267 0 0)
(157.239 0 0)
(157.253 0 0)
(157.278 0 0)
(157.332 0 0)
(157.432 0 0)
(157.564 0 0)
(157.642 0 0)
(157.674 0 0)
(157.683 0 0)
(157.658 0 0)
(157.638 0 0)
(157.654 0 0)
(157.68 0 0)
(157.737 0 0)
(157.84 0 0)
(157.958 0 0)
(158.024 0 0)
(158.049 0 0)
(158.052 0 0)
(158.025 0 0)
(158.021 0 0)
(158.042 0 0)
(158.074 0 0)
(158.147 0 0)
(158.266 0 0)
(158.364 0 0)
(158.412 0 0)
(158.429 0 0)
(158.42 0 0)
(158.396 0 0)
(158.406 0 0)
(158.43 0 0)
(158.473 0 0)
(158.558 0 0)
(158.671 0 0)
(158.745 0 0)
(158.776 0 0)
(158.785 0 0)
(158.775 0 0)
(158.782 0 0)
(158.805 0 0)
(158.839 0 0)
(158.913 0 0)
(159.006 0 0)
(159.068 0 0)
(159.092 0 0)
(159.098 0 0)
(159.101 0 0)
(159.122 0 0)
(159.151 0 0)
(159.217 0 0)
(159.316 0 0)
(159.394 0 0)
(159.428 0 0)
(159.44 0 0)
(159.433 0 0)
(159.441 0 0)
(159.465 0 0)
(159.498 0 0)
(159.57 0 0)
(159.663 0 0)
(159.728 0 0)
(159.754 0 0)
(159.77 0 0)
(159.789 0 0)
(159.814 0 0)
(159.868 0 0)
(159.954 0 0)
(160.027 0 0)
(160.058 0 0)
(160.072 0 0)
(160.08 0 0)
(160.102 0 0)
(160.131 0 0)
(160.17 0 0)
(160.207 0 0)
(160.232 0 0)
(160.252 0 0)
(160.27 0 0)
(160.293 0 0)
(160.332 0 0)
(160.413 0 0)
(160.551 0 0)
(160.662 0 0)
(160.715 0 0)
(160.735 0 0)
(160.725 0 0)
(160.668 0 0)
(160.641 0 0)
(160.657 0 0)
(160.682 0 0)
(160.736 0 0)
(160.837 0 0)
(160.986 0 0)
(161.077 0 0)
(161.118 0 0)
(161.133 0 0)
(161.118 0 0)
(161.085 0 0)
(161.092 0 0)
(161.116 0 0)
(161.151 0 0)
(161.228 0 0)
(161.343 0 0)
(161.429 0 0)
(161.468 0 0)
(161.482 0 0)
(161.472 0 0)
(161.467 0 0)
(161.488 0 0)
(161.517 0 0)
(161.582 0 0)
(161.689 0 0)
(161.78 0 0)
(161.825 0 0)
(161.841 0 0)
(161.831 0 0)
(161.813 0 0)
(161.828 0 0)
(161.853 0 0)
(161.906 0 0)
(162.003 0 0)
(162.123 0 0)
(162.193 0 0)
(162.222 0 0)
(162.229 0 0)
(162.21 0 0)
(162.206 0 0)
(162.228 0 0)
(162.255 0 0)
(162.312 0 0)
(162.408 0 0)
(162.497 0 0)
(162.542 0 0)
(162.56 0 0)
(162.566 0 0)
(162.58 0 0)
(162.604 0 0)
(162.643 0 0)
(162.718 0 0)
(162.796 0 0)
(162.832 0 0)
(162.848 0 0)
(162.851 0 0)
(162.869 0 0)
(162.895 0 0)
(162.954 0 0)
(163.058 0 0)
(163.158 0 0)
(163.21 0 0)
(163.23 0 0)
(163.225 0 0)
(163.204 0 0)
(163.214 0 0)
(163.238 0 0)
(163.276 0 0)
(163.354 0 0)
(163.456 0 0)
(163.524 0 0)
(163.551 0 0)
(163.559 0 0)
(163.555 0 0)
(163.57 0 0)
(163.596 0 0)
(163.648 0 0)
(163.743 0 0)
(163.843 0 0)
(163.897 0 0)
(163.918 0 0)
(163.915 0 0)
(163.891 0 0)
(163.899 0 0)
(163.922 0 0)
(163.964 0 0)
(164.048 0 0)
(164.171 0 0)
(164.256 0 0)
(164.293 0 0)
(164.307 0 0)
(164.293 0 0)
(164.279 0 0)
(164.297 0 0)
(164.322 0 0)
(164.373 0 0)
(164.465 0 0)
(164.567 0 0)
(164.625 0 0)
(164.648 0 0)
(164.651 0 0)
(164.643 0 0)
(164.66 0 0)
(164.685 0 0)
(164.735 0 0)
(164.827 0 0)
(164.925 0 0)
(164.978 0 0)
(164.999 0 0)
(164.997 0 0)
(164.983 0 0)
(164.997 0 0)
(165.022 0 0)
(165.068 0 0)
(165.158 0 0)
(165.27 0 0)
(165.339 0 0)
(165.367 0 0)
(165.376 0 0)
(165.366 0 0)
(165.374 0 0)
(165.398 0 0)
(165.429 0 0)
(165.497 0 0)
(165.59 0 0)
(165.658 0 0)
(165.687 0 0)
(165.701 0 0)
(165.715 0 0)
(165.739 0 0)
(165.777 0 0)
(165.853 0 0)
(165.944 0 0)
(165.997 0 0)
(166.018 0 0)
(166.015 0 0)
(166 0 0)
(166.014 0 0)
(166.039 0 0)
(166.087 0 0)
(166.179 0 0)
(166.292 0 0)
(166.36 0 0)
(166.388 0 0)
(166.396 0 0)
(166.379 0 0)
(166.381 0 0)
(166.404 0 0)
(166.431 0 0)
(166.487 0 0)
(166.576 0 0)
(166.654 0 0)
(166.689 0 0)
(166.708 0 0)
(166.726 0 0)
(166.75 0 0)
(166.799 0 0)
(166.894 0 0)
(167.02 0 0)
(167.096 0 0)
(167.127 0 0)
(167.138 0 0)
(167.108 0 0)
(167.048 0 0)
(167.041 0 0)
(167.062 0 0)
(167.087 0 0)
(167.114 0 0)
(167.141 0 0)
(167.17 0 0)
(167.229 0 0)
(167.332 0 0)
(167.499 0 0)
(167.606 0 0)
(167.656 0 0)
(167.677 0 0)
(167.673 0 0)
(167.63 0 0)
(167.61 0 0)
(167.629 0 0)
(167.655 0 0)
(167.705 0 0)
(167.801 0 0)
(167.946 0 0)
(168.039 0 0)
(168.082 0 0)
(168.099 0 0)
(168.088 0 0)
(168.042 0 0)
(168.035 0 0)
(168.056 0 0)
(168.082 0 0)
(168.125 0 0)
(168.207 0 0)
(168.307 0 0)
(168.37 0 0)
(168.396 0 0)
(168.409 0 0)
(168.425 0 0)
(168.449 0 0)
(168.492 0 0)
(168.576 0 0)
(168.683 0 0)
(168.749 0 0)
(168.776 0 0)
(168.781 0 0)
(168.756 0 0)
(168.753 0 0)
(168.775 0 0)
(168.807 0 0)
(168.879 0 0)
(169.004 0 0)
(169.129 0 0)
(169.192 0 0)
(169.218 0 0)
(169.222 0 0)
(169.181 0 0)
(169.128 0 0)
(169.131 0 0)
(169.154 0 0)
(169.181 0 0)
(169.215 0 0)
(169.285 0 0)
(169.38 0 0)
(169.45 0 0)
(169.481 0 0)
(169.506 0 0)
(169.534 0 0)
(169.598 0 0)
(169.716 0 0)
(169.854 0 0)
(169.926 0 0)
(169.955 0 0)
(169.96 0 0)
(169.911 0 0)
(169.806 0 0)
(169.778 0 0)
(169.796 0 0)
(169.822 0 0)
(169.875 0 0)
(169.976 0 0)
(170.165 0 0)
(170.326 0 0)
(170.397 0 0)
(170.427 0 0)
(170.435 0 0)
(170.398 0 0)
(170.306 0 0)
(170.278 0 0)
(170.295 0 0)
(170.321 0 0)
(170.366 0 0)
(170.456 0 0)
(170.627 0 0)
(170.816 0 0)
(170.901 0 0)
(170.939 0 0)
(170.955 0 0)
(170.939 0 0)
(170.86 0 0)
(170.799 0 0)
(170.804 0 0)
(170.828 0 0)
(170.854 0 0)
(170.882 0 0)
(170.915 0 0)
(170.983 0 0)
(171.103 0 0)
(171.294 0 0)
(171.407 0 0)
(171.458 0 0)
(171.48 0 0)
(171.478 0 0)
(171.415 0 0)
(171.299 0 0)
(171.268 0 0)
(171.284 0 0)
(171.31 0 0)
(171.338 0 0)
(171.388 0 0)
(171.482 0 0)
(171.662 0 0)
(171.881 0 0)
(171.979 0 0)
(172.023 0 0)
(172.043 0 0)
(172.036 0 0)
(171.971 0 0)
(171.9 0 0)
(171.901 0 0)
(171.924 0 0)
(171.951 0 0)
(171.994 0 0)
(172.079 0 0)
(172.226 0 0)
(172.344 0 0)
(172.402 0 0)
(172.427 0 0)
(172.433 0 0)
(172.41 0 0)
(172.403 0 0)
(172.424 0 0)
(172.451 0 0)
(172.487 0 0)
(172.56 0 0)
(172.648 0 0)
(172.705 0 0)
(172.731 0 0)
(172.747 0 0)
(172.769 0 0)
(172.796 0 0)
(172.834 0 0)
(172.878 0 0)
(172.91 0 0)
(172.934 0 0)
(172.954 0 0)
(172.977 0 0)
(173.004 0 0)
(173.061 0 0)
(173.165 0 0)
(173.317 0 0)
(173.406 0 0)
(173.445 0 0)
(173.461 0 0)
(173.443 0 0)
(173.378 0 0)
(173.356 0 0)
(173.374 0 0)
(173.4 0 0)
(173.439 0 0)
(173.517 0 0)
(173.653 0 0)
(173.775 0 0)
(173.835 0 0)
(173.861 0 0)
(173.871 0 0)
(173.857 0 0)
(173.86 0 0)
(173.883 0 0)
(173.911 0 0)
(173.951 0 0)
(174.019 0 0)
(174.082 0 0)
(174.113 0 0)
(174.133 0 0)
(174.153 0 0)
(174.179 0 0)
(174.215 0 0)
(174.279 0 0)
(174.345 0 0)
(174.376 0 0)
(174.392 0 0)
(174.396 0 0)
(174.416 0 0)
(174.444 0 0)
(174.507 0 0)
(174.622 0 0)
(174.777 0 0)
(174.862 0 0)
(174.898 0 0)
(174.912 0 0)
(174.89 0 0)
(174.813 0 0)
(174.782 0 0)
(174.799 0 0)
(174.825 0 0)
(174.86 0 0)
(174.933 0 0)
(175.064 0 0)
(175.226 0 0)
(175.308 0 0)
(175.345 0 0)
(175.363 0 0)
(175.356 0 0)
(175.328 0 0)
(175.332 0 0)
(175.355 0 0)
(175.382 0 0)
(175.41 0 0)
(175.437 0 0)
(175.465 0 0)
(175.498 0 0)
(175.565 0 0)
(175.68 0 0)
(175.817 0 0)
(175.89 0 0)
(175.922 0 0)
(175.936 0 0)
(175.916 0 0)
(175.867 0 0)
(175.863 0 0)
(175.886 0 0)
(175.913 0 0)
(175.948 0 0)
(176.017 0 0)
(176.109 0 0)
(176.174 0 0)
(176.202 0 0)
(176.22 0 0)
(176.241 0 0)
(176.267 0 0)
(176.321 0 0)
(176.422 0 0)
(176.563 0 0)
(176.646 0 0)
(176.682 0 0)
(176.696 0 0)
(176.67 0 0)
(176.593 0 0)
(176.57 0 0)
(176.589 0 0)
(176.616 0 0)
(176.667 0 0)
(176.764 0 0)
(176.932 0 0)
(177.053 0 0)
(177.108 0 0)
(177.131 0 0)
(177.131 0 0)
(177.077 0 0)
(177.005 0 0)
(177.005 0 0)
(177.029 0 0)
(177.058 0 0)
(177.12 0 0)
(177.233 0 0)
(177.427 0 0)
(177.554 0 0)
(177.611 0 0)
(177.636 0 0)
(177.642 0 0)
(177.601 0 0)
(177.534 0 0)
(177.53 0 0)
(177.552 0 0)
(177.58 0 0)
(177.612 0 0)
(177.675 0 0)
(177.776 0 0)
(177.865 0 0)
(177.91 0 0)
(177.932 0 0)
(177.948 0 0)
(177.972 0 0)
(178.002 0 0)
(178.066 0 0)
(178.179 0 0)
(178.295 0 0)
(178.353 0 0)
(178.378 0 0)
(178.381 0 0)
(178.34 0 0)
(178.312 0 0)
(178.329 0 0)
(178.355 0 0)
(178.401 0 0)
(178.49 0 0)
(178.625 0 0)
(178.714 0 0)
(178.752 0 0)
(178.768 0 0)
(178.746 0 0)
(178.657 0 0)
(178.605 0 0)
(178.617 0 0)
(178.643 0 0)
(178.686 0 0)
(178.773 0 0)
(178.945 0 0)
(179.192 0 0)
(179.308 0 0)
(179.36 0 0)
(179.383 0 0)
(179.381 0 0)
(179.314 0 0)
(179.173 0 0)
(179.124 0 0)
(179.138 0 0)
(179.164 0 0)
(179.195 0 0)
(179.26 0 0)
(179.378 0 0)
(179.587 0 0)
(179.726 0 0)
(179.787 0 0)
(179.815 0 0)
(179.824 0 0)
(179.792 0 0)
(179.737 0 0)
(179.738 0 0)
(179.762 0 0)
(179.79 0 0)
(179.838 0 0)
(179.927 0 0)
(180.039 0 0)
(180.106 0 0)
(180.134 0 0)
(180.144 0 0)
(180.118 0 0)
(180.098 0 0)
(180.116 0 0)
(180.143 0 0)
(180.195 0 0)
(180.292 0 0)
(180.463 0 0)
(180.583 0 0)
(180.638 0 0)
(180.662 0 0)
(180.664 0 0)
(180.615 0 0)
(180.558 0 0)
(180.564 0 0)
(180.589 0 0)
(180.619 0 0)
(180.682 0 0)
(180.794 0 0)
(180.931 0 0)
(181.004 0 0)
(181.036 0 0)
(181.048 0 0)
(181.022 0 0)
(180.969 0 0)
(180.97 0 0)
(180.995 0 0)
(181.028 0 0)
(181.099 0 0)
(181.231 0 0)
(181.448 0 0)
(181.57 0 0)
(181.624 0 0)
(181.647 0 0)
(181.648 0 0)
(181.588 0 0)
(181.45 0 0)
(181.396 0 0)
(181.408 0 0)
(181.434 0 0)
(181.462 0 0)
(181.512 0 0)
(181.604 0 0)
(181.78 0 0)
(181.958 0 0)
(182.037 0 0)
(182.072 0 0)
(182.088 0 0)
(182.069 0 0)
(181.981 0 0)
(181.916 0 0)
(181.924 0 0)
(181.95 0 0)
(181.98 0 0)
(182.041 0 0)
(182.152 0 0)
(182.357 0 0)
(182.509 0 0)
(182.575 0 0)
(182.605 0 0)
(182.617 0 0)
(182.588 0 0)
(182.505 0 0)
(182.475 0 0)
(182.492 0 0)
(182.519 0 0)
(182.549 0 0)
(182.605 0 0)
(182.705 0 0)
(182.862 0 0)
(182.959 0 0)
(183.004 0 0)
(183.027 0 0)
(183.032 0 0)
(183.025 0 0)
(183.041 0 0)
(183.068 0 0)
(183.098 0 0)
(183.14 0 0)
(183.192 0 0)
(183.23 0 0)
(183.258 0 0)
(183.285 0 0)
(183.313 0 0)
(183.347 0 0)
(183.416 0 0)
(183.52 0 0)
(183.603 0 0)
(183.642 0 0)
(183.66 0 0)
(183.65 0 0)
(183.626 0 0)
(183.639 0 0)
(183.666 0 0)
(183.705 0 0)
(183.784 0 0)
(183.918 0 0)
(184.022 0 0)
(184.071 0 0)
(184.094 0 0)
(184.091 0 0)
(184.031 0 0)
(183.963 0 0)
(183.966 0 0)
(183.991 0 0)
(184.019 0 0)
(184.066 0 0)
(184.153 0 0)
(184.312 0 0)
(184.454 0 0)
(184.519 0 0)
(184.55 0 0)
(184.566 0 0)
(184.567 0 0)
(184.581 0 0)
(184.607 0 0)
(184.639 0 0)
(184.685 0 0)
(184.735 0 0)
(184.768 0 0)
(184.791 0 0)
(184.801 0 0)
(184.81 0 0)
(184.834 0 0)
(184.864 0 0)
(184.927 0 0)
(185.04 0 0)
(185.184 0 0)
(185.261 0 0)
(185.295 0 0)
(185.312 0 0)
(185.299 0 0)
(185.248 0 0)
(185.238 0 0)
(185.26 0 0)
(185.287 0 0)
(185.316 0 0)
(185.348 0 0)
(185.407 0 0)
(185.511 0 0)
(185.653 0 0)
(185.735 0 0)
(185.771 0 0)
(185.79 0 0)
(185.783 0 0)
(185.752 0 0)
(185.758 0 0)
(185.783 0 0)
(185.813 0 0)
(185.871 0 0)
(185.974 0 0)
(186.091 0 0)
(186.153 0 0)
(186.181 0 0)
(186.191 0 0)
(186.159 0 0)
(186.109 0 0)
(186.114 0 0)
(186.139 0 0)
(186.168 0 0)
(186.215 0 0)
(186.304 0 0)
(186.438 0 0)
(186.528 0 0)
(186.57 0 0)
(186.593 0 0)
(186.609 0 0)
(186.632 0 0)
(186.66 0 0)
(186.705 0 0)
(186.789 0 0)
(186.877 0 0)
(186.924 0 0)
(186.945 0 0)
(186.94 0 0)
(186.887 0 0)
(186.864 0 0)
(186.883 0 0)
(186.911 0 0)
(186.959 0 0)
(187.05 0 0)
(187.222 0 0)
(187.38 0 0)
(187.45 0 0)
(187.482 0 0)
(187.497 0 0)
(187.475 0 0)
(187.394 0 0)
(187.353 0 0)
(187.367 0 0)
(187.394 0 0)
(187.423 0 0)
(187.461 0 0)
(187.535 0 0)
(187.669 0 0)
(187.825 0 0)
(187.903 0 0)
(187.937 0 0)
(187.956 0 0)
(187.945 0 0)
(187.901 0 0)
(187.899 0 0)
(187.923 0 0)
(187.952 0 0)
(188.004 0 0)
(188.1 0 0)
(188.247 0 0)
(188.339 0 0)
(188.38 0 0)
(188.4 0 0)
(188.391 0 0)
(188.312 0 0)
(188.227 0 0)
(188.225 0 0)
(188.25 0 0)
(188.278 0 0)
(188.322 0 0)
(188.408 0 0)
(188.575 0 0)
(188.831 0 0)
(188.958 0 0)
(189.014 0 0)
(189.041 0 0)
(189.05 0 0)
(189.012 0 0)
(188.894 0 0)
(188.828 0 0)
(188.835 0 0)
(188.861 0 0)
(188.889 0 0)
(188.918 0 0)
(188.948 0 0)
(188.992 0 0)
(189.075 0 0)
(189.229 0 0)
(189.42 0 0)
(189.509 0 0)
(189.549 0 0)
(189.571 0 0)
(189.567 0 0)
(189.508 0 0)
(189.453 0 0)
(189.462 0 0)
(189.488 0 0)
(189.517 0 0)
(189.568 0 0)
(189.662 0 0)
(189.798 0 0)
(189.883 0 0)
(189.92 0 0)
(189.94 0 0)
(189.929 0 0)
(189.868 0 0)
(189.844 0 0)
(189.863 0 0)
(189.891 0 0)
(189.933 0 0)
(190.016 0 0)
(190.174 0 0)
(190.369 0 0)
(190.458 0 0)
(190.499 0 0)
(190.521 0 0)
(190.519 0 0)
(190.466 0 0)
(190.418 0 0)
(190.428 0 0)
(190.454 0 0)
(190.483 0 0)
(190.516 0 0)
(190.575 0 0)
(190.675 0 0)
(190.768 0 0)
(190.816 0 0)
(190.841 0 0)
(190.859 0 0)
(190.881 0 0)
(190.909 0 0)
(190.947 0 0)
(191.021 0 0)
(191.113 0 0)
(191.168 0 0)
(191.194 0 0)
(191.2 0 0)
(191.172 0 0)
(191.165 0 0)
(191.189 0 0)
(191.218 0 0)
(191.274 0 0)
(191.377 0 0)
(191.533 0 0)
(191.624 0 0)
(191.666 0 0)
(191.687 0 0)
(191.681 0 0)
(191.622 0 0)
(191.578 0 0)
(191.592 0 0)
(191.619 0 0)
(191.65 0 0)
(191.704 0 0)
(191.803 0 0)
(191.928 0 0)
(191.998 0 0)
(192.03 0 0)
(192.047 0 0)
(192.038 0 0)
(192.03 0 0)
(192.052 0 0)
(192.081 0 0)
(192.13 0 0)
(192.222 0 0)
(192.371 0 0)
(192.47 0 0)
(192.515 0 0)
(192.537 0 0)
(192.533 0 0)
(192.465 0 0)
(192.392 0 0)
(192.396 0 0)
(192.422 0 0)
(192.453 0 0)
(192.516 0 0)
(192.632 0 0)
(192.855 0 0)
(193.025 0 0)
(193.095 0 0)
(193.127 0 0)
(193.142 0 0)
(193.118 0 0)
(193.009 0 0)
(192.912 0 0)
(192.911 0 0)
(192.936 0 0)
(192.965 0 0)
(193.01 0 0)
(193.097 0 0)
(193.265 0 0)
(193.468 0 0)
(193.558 0 0)
(193.599 0 0)
(193.621 0 0)
(193.618 0 0)
(193.553 0 0)
(193.467 0 0)
(193.463 0 0)
(193.487 0 0)
(193.516 0 0)
(193.553 0 0)
(193.626 0 0)
(193.755 0 0)
(193.885 0 0)
(193.949 0 0)
(193.979 0 0)
(193.993 0 0)
(193.973 0 0)
(193.944 0 0)
(193.958 0 0)
(193.986 0 0)
(194.021 0 0)
(194.093 0 0)
(194.225 0 0)
(194.395 0 0)
(194.48 0 0)
(194.517 0 0)
(194.537 0 0)
(194.526 0 0)
(194.443 0 0)
(194.351 0 0)
(194.348 0 0)
(194.373 0 0)
(194.402 0 0)
(194.443 0 0)
(194.523 0 0)
(194.674 0 0)
(194.878 0 0)
(194.975 0 0)
(195.019 0 0)
(195.043 0 0)
(195.047 0 0)
(195.002 0 0)
(194.942 0 0)
(194.945 0 0)
(194.971 0 0)
(195 0 0)
(195.034 0 0)
(195.1 0 0)
(195.217 0 0)
(195.387 0 0)
(195.48 0 0)
(195.522 0 0)
(195.546 0 0)
(195.55 0 0)
(195.51 0 0)
(195.467 0 0)
(195.477 0 0)
(195.504 0 0)
(195.533 0 0)
(195.562 0 0)
(195.592 0 0)
(195.627 0 0)
(195.692 0 0)
(195.808 0 0)
(195.966 0 0)
(196.051 0 0)
(196.09 0 0)
(196.111 0 0)
(196.105 0 0)
(196.032 0 0)
(195.943 0 0)
(195.939 0 0)
(195.964 0 0)
(195.993 0 0)
(196.037 0 0)
(196.12 0 0)
(196.284 0 0)
(196.533 0 0)
(196.654 0 0)
(196.708 0 0)
(196.734 0 0)
(196.741 0 0)
(196.693 0 0)
(196.535 0 0)
(196.42 0 0)
(196.417 0 0)
(196.441 0 0)
(196.471 0 0)
(196.512 0 0)
(196.593 0 0)
(196.75 0 0)
(197.031 0 0)
(197.201 0 0)
(197.269 0 0)
(197.301 0 0)
(197.318 0 0)
(197.3 0 0)
(197.198 0 0)
(197.088 0 0)
(197.08 0 0)
(197.104 0 0)
(197.133 0 0)
(197.168 0 0)
(197.236 0 0)
(197.361 0 0)
(197.557 0 0)
(197.666 0 0)
(197.715 0 0)
(197.741 0 0)
(197.748 0 0)
(197.708 0 0)
(197.639 0 0)