/*--------------------------------*- C++ -*----------------------------------*\
  =========                 |
  \\      /  F ield         | OpenFOAM: The Open Source CFD Toolbox
   \\    /   O peration     | Website:  https://openfoam.org
    \\  /    A nd           | Version:  9
     \\/     M anipulation  |
\*---------------------------------------------------------------------------*/
FoamFile
{
    format      ascii;
    class       volScalarField;
    location    "0.016";
    object      ddt0(p);
}
// * * * * * * * * * * * * * * * * * * * * * * * * * * * * * * * * * * * * * //

dimensions      [1 -1 -3 0 0 0 0];

internalField   nonuniform List<scalar> 
100
(
-7.40131e+06
-7.29159e+06
-7.23276e+06
-7.12321e+06
-6.99738e+06
-6.84049e+06
-6.65136e+06
-6.42383e+06
-6.15015e+06
-5.82291e+06
-5.44017e+06
-5.0105e+06
-4.55358e+06
-4.09558e+06
-3.66211e+06
-3.27248e+06
-2.9366e+06
-2.65623e+06
-2.42504e+06
-2.23685e+06
-2.07767e+06
-1.94613e+06
-1.82623e+06
-1.72173e+06
-1.62031e+06
-1.53275e+06
-1.44584e+06
-1.35795e+06
-1.27523e+06
-1.20026e+06
-1.12178e+06
-1.04605e+06
-976621
-908203
-839728
-774281
-711729
-652031
-594997
-538802
-483663
-433421
-387936
-343062
-296207
-252270
-217231
-184969
-157639
-111280
-109812
-34597.4
-93766.5
-21203.2
-25013.9
11318.3
-27129.6
59937
-998.364
-35034
37469.7
-8063.42
25110.2
24849.3
26691.2
40139.1
-7254.2
-37512.5
-997.445
-11188.8
206292
284573
-459667
52535.6
275400
-256126
-275864
600136
875084
-1.52551e+06
-272641
247272
1.32937e+06
-482623
-1.44889e+06
101141
2.55878e+06
525084
-3.42919e+06
-1.1744e+06
595938
4.12162e+06
842206
-4.93935e+06
-3.29084e+06
6.32553e+06
4.35391e+06
-6.51404e+06
-4.7028e+06
5.0602e+06
)
;

boundaryField
{
    sides
    {
        type            calculated;
        value           nonuniform List<scalar> 2(5.0602e+06 -7.40131e+06);
    }
    empty
    {
        type            empty;
    }
}


// ************************************************************************* //
