/*--------------------------------*- C++ -*----------------------------------*\
  =========                 |
  \\      /  F ield         | OpenFOAM: The Open Source CFD Toolbox
   \\    /   O peration     | Website:  https://openfoam.org
    \\  /    A nd           | Version:  9
     \\/     M anipulation  |
\*---------------------------------------------------------------------------*/
FoamFile
{
    format      ascii;
    class       volScalarField;
    location    "0.016";
    object      ddt0(rho,e);
}
// * * * * * * * * * * * * * * * * * * * * * * * * * * * * * * * * * * * * * //

dimensions      [1 -1 -3 0 0 0 0];

internalField   nonuniform List<scalar> 
100
(
-941725
-875907
-802365
-770589
-733104
-689663
-639531
-584329
-523314
-456354
-384436
-310078
-236959
-168926
-108546
-57863.3
-13528.4
16146.8
60605.7
50261.4
145837
40827.3
223453
104894
101366
378332
-61170.2
290992
399320
-105748
248655
542911
-16741.5
-61756.8
540858
429818
-196510
-61379.8
580299
502788
-204157
-329579
352091
724604
150546
-521404
-309081
450995
700145
111790
-516567
-549411
31868.2
674115
416843
-157736
-404211
-491698
-186995
413258
247647
32065
-115973
-331786
-198282
-55913
19966.2
85626.6
11116.4
-28233.5
-329041
-325708
122063
-82260.6
-116587
184012
-72070.3
-468819
-696210
537242
48112.9
-307456
-615865
143267
-30768.2
-431249
-1.49767e+06
-87385.9
1.19821e+06
364298
-702352
-2.77178e+06
-2.78572e+06
-1.18261e+07
-3.21905e+07
-2.73835e+07
-1.97808e+07
-1.6758e+07
-1.2751e+07
-2.66944e+06
)
;

boundaryField
{
    sides
    {
        type            calculated;
        value           nonuniform List<scalar> 2(-2.66944e+06 -941725);
    }
    empty
    {
        type            empty;
    }
}


// ************************************************************************* //
