/*--------------------------------*- C++ -*----------------------------------*\
  =========                 |
  \\      /  F ield         | OpenFOAM: The Open Source CFD Toolbox
   \\    /   O peration     | Website:  https://openfoam.org
    \\  /    A nd           | Version:  9
     \\/     M anipulation  |
\*---------------------------------------------------------------------------*/
FoamFile
{
    format      ascii;
    class       volScalarField;
    location    "0.016";
    object      ddt0(rho);
}
// * * * * * * * * * * * * * * * * * * * * * * * * * * * * * * * * * * * * * //

dimensions      [1 -3 -1 0 0 0 0];

internalField   nonuniform List<scalar> 
100
(
-58.4418
-57.7485
-57.5045
-56.699
-55.7771
-54.6167
-53.2102
-51.5013
-49.4276
-46.9282
-43.9835
-40.6564
-37.0985
-33.5147
-30.1094
-27.0365
-24.3897
-22.1558
-20.3805
-18.7801
-17.7746
-16.3296
-15.9414
-14.6762
-13.8206
-14.0163
-11.8264
-12.2704
-11.9436
-9.6342
-10.1639
-10.5159
-8.07039
-7.35086
-8.79222
-7.87707
-5.26632
-5.22056
-6.88749
-6.16123
-3.34312
-2.50649
-4.40298
-5.27279
-2.9671
-0.358988
-0.776023
-3.04421
-3.6483
-1.29902
0.810235
1.54569
-0.886566
-2.42617
-1.59928
0.620594
1.12325
2.13968
0.615756
-1.67069
-0.514703
-0.174105
0.595976
1.31405
0.883823
0.520589
-0.126994
-0.597898
-0.0453986
0.00112509
2.81463
3.45487
-4.23216
0.711668
2.68063
-2.74528
-2.05489
6.55821
9.60488
-14.4864
-2.42916
3.08358
13.1167
-4.49393
-11.9532
2.28079
26.2893
4.66074
-32.5324
-10.9877
7.30265
43.5454
16.3047
-1.63174
80.0479
144.021
102.243
1.72511
3.4232
51.0137
)
;

boundaryField
{
    sides
    {
        type            calculated;
        value           nonuniform List<scalar> 2(51.0137 -58.4418);
    }
    empty
    {
        type            empty;
    }
}


// ************************************************************************* //
