/*--------------------------------*- C++ -*----------------------------------*\
  =========                 |
  \\      /  F ield         | OpenFOAM: The Open Source CFD Toolbox
   \\    /   O peration     | Website:  https://openfoam.org
    \\  /    A nd           | Version:  9
     \\/     M anipulation  |
\*---------------------------------------------------------------------------*/
FoamFile
{
    format      ascii;
    class       volVectorField;
    location    "0.016";
    object      ddt0(rho,U);
}
// * * * * * * * * * * * * * * * * * * * * * * * * * * * * * * * * * * * * * //

dimensions      [1 -2 -2 0 0 0 0];

internalField   nonuniform List<vector> 
100
(
(1258.76 0 0)
(-110.267 0 0)
(-463.186 0 0)
(-1198.75 0 0)
(-1738.04 0 0)
(-2220.22 0 0)
(-2580.4 0 0)
(-2797.19 0 0)
(-2834.75 0 0)
(-2657.18 0 0)
(-2246.52 0 0)
(-1620.58 0 0)
(-838.579 0 0)
(10.9649 0 0)
(833.433 0 0)
(1550.58 0 0)
(2113.23 0 0)
(2507.49 0 0)
(2733.85 0 0)
(2845.06 0 0)
(2804.43 0 0)
(2787.82 0 0)
(2569.32 0 0)
(2501.6 0 0)
(2331.48 0 0)
(2011.05 0 0)
(2108.82 0 0)
(1725.52 0 0)
(1524.03 0 0)
(1694.32 0 0)
(1310.11 0 0)
(994.545 0 0)
(1257.44 0 0)
(1158.56 0 0)
(616.638 0 0)
(604.339 0 0)
(978.133 0 0)
(782.367 0 0)
(197.401 0 0)
(179.418 0 0)
(681.448 0 0)
(724.625 0 0)
(93.3849 0 0)
(-290.338 0 0)
(149.993 0 0)
(707.066 0 0)
(489.299 0 0)
(-234.761 0 0)
(-523.219 0 0)
(16.1625 0 0)
(508.318 0 0)
(690.996 0 0)
(-55.2879 0 0)
(-615.902 0 0)
(-413.823 0 0)
(206.443 0 0)
(280.518 0 0)
(694.082 0 0)
(250.975 0 0)
(-608.984 0 0)
(-240.124 0 0)
(-135.888 0 0)
(82.4891 0 0)
(348.884 0 0)
(239.539 0 0)
(132.744 0 0)
(-69.1248 0 0)
(-255.529 0 0)
(-93.8254 0 0)
(-33.3348 0 0)
(866.874 0 0)
(1030.27 0 0)
(-1391.81 0 0)
(192.026 0 0)
(954.218 0 0)
(-903.101 0 0)
(-768.724 0 0)
(2055.85 0 0)
(2901.15 0 0)
(-4622.01 0 0)
(-1131.05 0 0)
(1334.4 0 0)
(4531.89 0 0)
(-1714.45 0 0)
(-4388.79 0 0)
(679.208 0 0)
(8724.72 0 0)
(1517.34 0 0)
(-10613.6 0 0)
(-4478.56 0 0)
(1808.65 0 0)
(14335.9 0 0)
(5269.21 0 0)
(-2247.71 0 0)
(22368.1 0 0)
(43675.6 0 0)
(31911.5 0 0)
(-196.963 0 0)
(-768.486 0 0)
(14664.4 0 0)
)
;

boundaryField
{
    sides
    {
        type            calculated;
        value           nonuniform List<vector> 2((14664.4 0 0) (1258.76 0 0));
    }
    empty
    {
        type            empty;
    }
}


// ************************************************************************* //
