/*--------------------------------*- C++ -*----------------------------------*\
  =========                 |
  \\      /  F ield         | OpenFOAM: The Open Source CFD Toolbox
   \\    /   O peration     | Website:  https://openfoam.org
    \\  /    A nd           | Version:  9
     \\/     M anipulation  |
\*---------------------------------------------------------------------------*/
FoamFile
{
    format      ascii;
    class       volScalarField;
    location    "0.016";
    object      p;
}
// * * * * * * * * * * * * * * * * * * * * * * * * * * * * * * * * * * * * * //

dimensions      [1 -1 -2 0 0 0 0];

internalField   nonuniform List<scalar> 
100
(
68895.1
68397.9
68033.7
67635
67217
66772.6
66298.4
65789
65237.7
64636.5
63976.8
63251.1
62455.5
61591.3
60665.2
59688.2
58673.4
57634
56582.8
55528
54480.9
53439.9
52420.3
51407.4
50423.5
49450
48499.2
47569.9
46655.5
45764.2
44894.2
44041.6
43210.4
42401.3
41612.3
40844.3
40098
39373.8
38672.4
37994.5
37339.4
36707.9
36102.3
35524
34971.8
34445.1
33946.7
33479.9
33045.3
32639.6
32266.8
31925
31617.3
31351.3
31117.2
30908.9
30744.1
30606.9
30481.7
30424.6
30363.6
30327.5
30316.2
30312.5
30312.9
30314.1
30317.3
30322.5
30334.8
30337.2
30342.7
30337.1
30344.3
30371.1
30358
30347.2
30382.7
30391.5
30383.4
30385.7
30459.3
30483.7
30404.6
30376
30492.6
30564.2
30538.9
30418
30506
30617
30769.6
30729.8
30499.3
30580.7
30761.3
30850.7
30628
30518
30742.7
30903.9
)
;

boundaryField
{
    sides
    {
        type            zeroGradient;
    }
    empty
    {
        type            empty;
    }
}


// ************************************************************************* //
