/*--------------------------------*- C++ -*----------------------------------*\
  =========                 |
  \\      /  F ield         | OpenFOAM: The Open Source CFD Toolbox
   \\    /   O peration     | Website:  https://openfoam.org
    \\  /    A nd           | Version:  9
     \\/     M anipulation  |
\*---------------------------------------------------------------------------*/
FoamFile
{
    format      ascii;
    class       volScalarField;
    location    "0.006";
    object      ddt0(rho,e);
}
// * * * * * * * * * * * * * * * * * * * * * * * * * * * * * * * * * * * * * //

dimensions      [1 -1 -3 0 0 0 0];

internalField   nonuniform List<scalar> 
100
(
-3.73999e-06
-1.11109e-05
-4.67814e-05
-0.000217406
-0.00094068
-0.00393227
-0.0159675
-0.0630051
-0.241327
-0.895881
-3.22054
-11.1933
-37.5686
-121.547
-378.458
-1131.61
-3242.02
-8874.2
-23131.5
-57169.3
-133210
-290316
-585222
-1.08111e+06
-1.68777e+06
-2.27067e+06
-2.77129e+06
-3.05632e+06
-3.08075e+06
-2.87883e+06
-2.5306e+06
-2.11556e+06
-1.68887e+06
-1.28349e+06
-910879
-596037
-275466
-168766
329642
-44594.5
430663
1.00009e+06
-486661
720347
1.61305e+06
-307190
-937456
1.05682e+06
1.86156e+06
-42666.8
-1.62209e+06
-1.25651e+06
1.3149e+06
1.38774e+06
-259202
-906706
-1.52219e+06
-815883
-193179
391223
218426
14303.1
-446312
-2.42341e+06
-9.09646e+06
-2.88827e+07
-4.00285e+07
-2.52169e+07
-1.52427e+07
-8.66347e+06
-4.24957e+06
-2.40349e+06
-887482
209418
-652306
1.06645e+06
2.57723e+06
525541
-508944
-1.09667e+06
4.20575e+06
4.10343e+06
5.96238e+06
2.04769e+07
1.32825e+07
-213531
-146761
-23260.8
-3243.83
-446.261
-61.4883
-8.46087
-1.16564
-0.160442
-0.0220903
-0.00303786
-0.00041748
-5.76019e-05
-7.71884e-06
-1.24583e-06
)
;

boundaryField
{
    sides
    {
        type            calculated;
        value           nonuniform List<scalar> 2(-1.24583e-06 -3.73999e-06);
    }
    empty
    {
        type            empty;
    }
}


// ************************************************************************* //
