/*--------------------------------*- C++ -*----------------------------------*\
  =========                 |
  \\      /  F ield         | OpenFOAM: The Open Source CFD Toolbox
   \\    /   O peration     | Website:  https://openfoam.org
    \\  /    A nd           | Version:  9
     \\/     M anipulation  |
\*---------------------------------------------------------------------------*/
FoamFile
{
    format      ascii;
    class       surfaceScalarField;
    location    "0.006";
    object      ddtCorrDdt0(phi);
}
// * * * * * * * * * * * * * * * * * * * * * * * * * * * * * * * * * * * * * //

dimensions      [1 0 -2 0 0 0 0];

internalField   nonuniform List<scalar> 
99
(
2.04915e-07
8.73539e-07
3.78624e-06
1.63274e-05
6.86855e-05
0.00028106
0.00111761
0.00431377
0.0161481
0.0585505
0.205398
0.696119
2.27597
7.16612
21.6882
62.9533
174.815
463.018
1165.45
2775.07
6213.72
12981.8
25061.9
44063.8
62852.2
82477.2
98513.6
108169
110661
107260
100059
90916
81084.7
71284.9
61900.7
53095.8
45104.2
37587.7
31274.6
25505.2
19394.6
16533.8
12896.6
6946.01
5981.06
7474.28
3620.64
-2779.78
-1724.99
3390.37
5961.46
98.6957
-6521.84
-1971.09
1198.34
4543.17
4648.97
4313.52
-598.049
-4925.65
739.334
3292.33
7448.54
2794.46
41070.8
212810
130777
55283.2
40276.7
49775.9
9376.94
-22573.7
50762.6
-11331.9
-63976.4
134036
1713.82
-22509.4
-126180
113256
271393
1096
-44562.8
2.30769e+06
241678
42852.7
6225.06
853.235
117.107
16.1158
2.21636
0.305299
0.042028
0.00578823
0.000796489
0.000109563
1.50499e-05
2.06442e-06
2.7971e-07
)
;

boundaryField
{
    sides
    {
        type            calculated;
        value           nonuniform List<scalar> 2(6.695e-08 -7.71992e-08);
    }
    empty
    {
        type            empty;
        value           nonuniform List<scalar> 0();
    }
}


// ************************************************************************* //
