/*--------------------------------*- C++ -*----------------------------------*\
  =========                 |
  \\      /  F ield         | OpenFOAM: The Open Source CFD Toolbox
   \\    /   O peration     | Website:  https://openfoam.org
    \\  /    A nd           | Version:  9
     \\/     M anipulation  |
\*---------------------------------------------------------------------------*/
FoamFile
{
    format      ascii;
    class       volVectorField;
    location    "0.006";
    object      ddtCorrDdt0(rho,U);
}
// * * * * * * * * * * * * * * * * * * * * * * * * * * * * * * * * * * * * * //

dimensions      [1 -2 -2 0 0 0 0];

internalField   nonuniform List<vector> 
100
(
(1.9354e-08 0 0)
(9.32778e-08 0 0)
(3.93484e-07 0 0)
(1.71291e-06 0 0)
(7.33853e-06 0 0)
(3.06268e-05 0 0)
(0.000124235 0 0)
(0.000489583 0 0)
(0.00187176 0 0)
(0.00693777 0 0)
(0.0248921 0 0)
(0.0863685 0 0)
(0.289301 0 0)
(0.934247 0 0)
(2.90277 0 0)
(8.6616 0 0)
(24.7583 0 0)
(67.6123 0 0)
(175.791 0 0)
(433.306 0 0)
(1006.81 0 0)
(2188.45 0 0)
(4409.37 0 0)
(8016.55 0 0)
(12581.5 0 0)
(17415.1 0 0)
(21901.3 0 0)
(25204.9 0 0)
(26831.4 0 0)
(26832 0 0)
(25627 0 0)
(23705.3 0 0)
(21451.4 0 0)
(19105.6 0 0)
(16803.3 0 0)
(14610.3 0 0)
(12566.1 0 0)
(10736.2 0 0)
(8901.59 0 0)
(7686.34 0 0)
(6009.1 0 0)
(4735.31 0 0)
(4576.22 0 0)
(2871.39 0 0)
(1619.15 0 0)
(2384.99 0 0)
(2329.41 0 0)
(271.151 0 0)
(-748.12 0 0)
(572.216 0 0)
(1708.01 0 0)
(1723 0 0)
(-1305.2 0 0)
(-1392.39 0 0)
(129.994 0 0)
(746.963 0 0)
(1246.1 0 0)
(1286.43 0 0)
(443.843 0 0)
(-608.416 0 0)
(-531.664 0 0)
(-320.615 0 0)
(31.7069 0 0)
(2073.88 0 0)
(8443.75 0 0)
(28252.7 0 0)
(40618.6 0 0)
(24980.6 0 0)
(15068.1 0 0)
(8964.62 0 0)
(6272.95 0 0)
(2081.66 0 0)
(1445.18 0 0)
(2196.49 0 0)
(-1516.08 0 0)
(1579.62 0 0)
(4568.68 0 0)
(998.044 0 0)
(-1735.14 0 0)
(-680.14 0 0)
(18178.5 0 0)
(22782.5 0 0)
(49016.3 0 0)
(171199 0 0)
(132095 0 0)
(22535.1 0 0)
(3205.98 0 0)
(440.556 0 0)
(60.5307 0 0)
(8.32922 0 0)
(1.1448 0 0)
(0.157723 0 0)
(0.0217081 0 0)
(0.00299031 0 0)
(0.000411482 0 0)
(5.66189e-05 0 0)
(7.77953e-06 0 0)
(1.06735e-06 0 0)
(1.46538e-07 0 0)
(1.77533e-08 0 0)
)
;

boundaryField
{
    sides
    {
        type            calculated;
        value           nonuniform List<vector> 2((1.77533e-08 0 0) (1.9354e-08 0 0));
    }
    empty
    {
        type            empty;
    }
}


// ************************************************************************* //
