/*--------------------------------*- C++ -*----------------------------------*\
  =========                 |
  \\      /  F ield         | OpenFOAM: The Open Source CFD Toolbox
   \\    /   O peration     | Website:  https://openfoam.org
    \\  /    A nd           | Version:  9
     \\/     M anipulation  |
\*---------------------------------------------------------------------------*/
FoamFile
{
    format      ascii;
    class       volScalarField;
    location    "0.006";
    object      mag(U);
}
// * * * * * * * * * * * * * * * * * * * * * * * * * * * * * * * * * * * * * //

dimensions      [0 1 -1 0 0 0 0];

internalField   nonuniform List<scalar> 
100
(
2.79608e-12
1.29653e-11
5.82201e-11
2.48614e-10
1.09199e-09
4.68042e-09
1.95234e-08
7.91861e-08
3.11957e-07
1.19319e-06
4.42418e-06
1.58917e-05
5.52086e-05
0.000185318
0.000599938
0.00187058
0.00560527
0.0161112
0.0443003
0.116197
0.289637
0.683008
1.5152
3.13496
5.91833
10.1336
15.9414
23.3468
32.1526
42.0449
52.6977
63.8456
75.3071
86.9569
98.7243
110.537
122.387
134.17
145.973
157.585
169.157
180.562
191.681
202.673
213.327
223.584
233.466
242.845
251.618
259.741
267.22
273.683
279.14
283.858
287.606
290.445
292.401
293.385
293.698
293.86
294.094
294.356
294.636
294.928
295.194
295.285
294.873
294.012
293.168
292.489
291.947
291.497
291.094
290.575
289.993
289.38
288.471
287.354
286.324
285.147
282.793
277.184
262.633
213.629
99.2064
17.5743
2.58282
0.357454
0.0491307
0.00676818
0.000930977
0.000128269
1.76536e-05
2.43096e-06
3.34342e-07
4.59613e-08
6.3114e-09
8.67687e-10
1.2742e-10
2.46405e-11
)
;

boundaryField
{
    sides
    {
        type            calculated;
        value           nonuniform List<scalar> 2(2.46405e-11 2.79608e-12);
    }
    empty
    {
        type            empty;
    }
}


// ************************************************************************* //
