/*--------------------------------*- C++ -*----------------------------------*\
  =========                 |
  \\      /  F ield         | OpenFOAM: The Open Source CFD Toolbox
   \\    /   O peration     | Website:  https://openfoam.org
    \\  /    A nd           | Version:  9
     \\/     M anipulation  |
\*---------------------------------------------------------------------------*/
FoamFile
{
    format      ascii;
    class       volVectorField;
    location    "0.006";
    object      U_0;
}
// * * * * * * * * * * * * * * * * * * * * * * * * * * * * * * * * * * * * * //

dimensions      [0 1 -1 0 0 0 0];

internalField   nonuniform List<vector> 
100
(
(2.59362e-12 0 0)
(1.19934e-11 0 0)
(5.41191e-11 0 0)
(2.30765e-10 0 0)
(1.01561e-09 0 0)
(4.362e-09 0 0)
(1.82332e-08 0 0)
(7.41076e-08 0 0)
(2.92563e-07 0 0)
(1.1214e-06 0 0)
(4.16688e-06 0 0)
(1.5e-05 0 0)
(5.22255e-05 0 0)
(0.000175697 0 0)
(0.000570081 0 0)
(0.0017816 0 0)
(0.00535128 0 0)
(0.0154185 0 0)
(0.0425016 0 0)
(0.111769 0 0)
(0.279355 0 0)
(0.660653 0 0)
(1.47005 0 0)
(3.0524 0 0)
(5.78716 0 0)
(9.94825 0 0)
(15.7011 0 0)
(23.059 0 0)
(31.8308 0 0)
(41.7043 0 0)
(52.3512 0 0)
(63.5026 0 0)
(74.9733 0 0)
(86.636 0 0)
(98.4186 0 0)
(110.248 0 0)
(122.116 0 0)
(133.917 0 0)
(145.739 0 0)
(157.371 0 0)
(168.962 0 0)
(180.386 0 0)
(191.524 0 0)
(202.536 0 0)
(213.208 0 0)
(223.484 0 0)
(233.384 0 0)
(242.779 0 0)
(251.568 0 0)
(259.707 0 0)
(267.197 0 0)
(273.668 0 0)
(279.136 0 0)
(283.862 0 0)
(287.614 0 0)
(290.456 0 0)
(292.409 0 0)
(293.384 0 0)
(293.694 0 0)
(293.864 0 0)
(294.101 0 0)
(294.364 0 0)
(294.644 0 0)
(294.938 0 0)
(295.209 0 0)
(295.285 0 0)
(294.851 0 0)
(293.989 0 0)
(293.147 0 0)
(292.466 0 0)
(291.92 0 0)
(291.481 0 0)
(291.075 0 0)
(290.547 0 0)
(289.979 0 0)
(289.342 0 0)
(288.397 0 0)
(287.293 0 0)
(286.295 0 0)
(285.083 0 0)
(282.551 0 0)
(276.652 0 0)
(261.343 0 0)
(209.107 0 0)
(91.8996 0 0)
(15.7923 0 0)
(2.31373 0 0)
(0.320023 0 0)
(0.0439772 0 0)
(0.00605906 0 0)
(0.000833518 0 0)
(0.000114841 0 0)
(1.58056e-05 0 0)
(2.17639e-06 0 0)
(2.99312e-07 0 0)
(4.11411e-08 0 0)
(5.64906e-09 0 0)
(7.76804e-10 0 0)
(1.14942e-10 0 0)
(2.31277e-11 0 0)
)
;

boundaryField
{
    sides
    {
        type            zeroGradient;
    }
    empty
    {
        type            empty;
    }
}


// ************************************************************************* //
