/*--------------------------------*- C++ -*----------------------------------*\
  =========                 |
  \\      /  F ield         | OpenFOAM: The Open Source CFD Toolbox
   \\    /   O peration     | Website:  https://openfoam.org
    \\  /    A nd           | Version:  9
     \\/     M anipulation  |
\*---------------------------------------------------------------------------*/
FoamFile
{
    format      ascii;
    class       volScalarField;
    location    "0.032";
    object      ddt0(rho,K);
}
// * * * * * * * * * * * * * * * * * * * * * * * * * * * * * * * * * * * * * //

dimensions      [1 -1 -3 0 0 0 0];

internalField   nonuniform List<scalar> 
10000
(
181.179
177.039
174.075
171.528
168.807
165.89
162.896
159.873
156.81
153.693
150.52
147.294
144.014
140.675
137.274
133.815
130.308
126.759
123.166
119.519
115.812
112.047
108.23
104.367
100.458
96.4946
92.4678
88.3767
84.2301
80.0411
75.8146
71.5422
67.2099
62.8088
58.3408
53.8154
49.2451
44.6395
40.0004
35.3173
30.5725
25.7532
20.8569
15.8901
10.8666
5.80503
0.718056
-4.39471
-9.54559
-14.7552
-20.0444
-25.4209
-30.8735
-36.3828
-41.9342
-47.5193
-53.1318
-58.7668
-64.4303
-70.1438
-75.9276
-81.7886
-87.7323
-93.7638
-99.8755
-106.051
-112.277
-118.541
-124.827
-131.127
-137.443
-143.78
-150.152
-156.582
-163.079
-169.641
-176.268
-182.964
-189.758
-196.662
-203.652
-210.712
-217.853
-225.081
-232.366
-239.707
-247.112
-254.558
-262.044
-269.574
-277.134
-284.728
-292.353
-300.007
-307.696
-315.422
-323.19
-331.021
-338.925
-346.882
-355.039
-363.147
-371.229
-379.375
-387.568
-395.815
-404.111
-412.466
-420.876
-429.337
-437.861
-446.43
-455.054
-463.74
-472.464
-481.244
-490.09
-498.973
-507.905
-516.908
-525.964
-535.056
-544.198
-553.411
-562.693
-572.018
-581.374
-590.775
-600.231
-609.75
-619.337
-628.982
-638.678
-648.428
-658.23
-668.079
-677.978
-687.934
-697.945
-708.005
-718.119
-728.293
-738.525
-748.804
-759.132
-769.519
-779.964
-790.46
-801.002
-811.592
-822.236
-832.941
-843.707
-854.523
-865.384
-876.291
-887.248
-898.257
-909.322
-920.448
-931.633
-942.872
-954.165
-965.514
-976.917
-988.37
-999.874
-1011.43
-1023.04
-1034.7
-1046.42
-1058.19
-1070.01
-1081.88
-1093.82
-1105.81
-1117.85
-1129.94
-1142.08
-1154.28
-1166.54
-1178.85
-1191.22
-1203.63
-1216.09
-1228.59
-1241.15
-1253.77
-1266.43
-1279.16
-1291.94
-1304.78
-1317.67
-1330.62
-1343.62
-1356.67
-1369.78
-1382.94
-1396.15
-1409.42
-1422.73
-1436.1
-1449.52
-1463
-1476.53
-1490.11
-1503.75
-1517.44
-1531.18
-1544.99
-1558.85
-1572.76
-1586.72
-1600.74
-1614.8
-1628.91
-1643.08
-1657.29
-1671.56
-1685.89
-1700.27
-1714.7
-1729.2
-1743.74
-1758.34
-1772.99
-1787.7
-1802.46
-1817.27
-1832.13
-1847.05
-1862.02
-1877.05
-1892.13
-1907.26
-1922.44
-1937.68
-1952.96
-1968.31
-1983.7
-1999.16
-2014.67
-2030.23
-2045.85
-2061.52
-2077.23
-2093
-2108.82
-2124.7
-2140.62
-2156.61
-2172.64
-2188.73
-2204.88
-2221.08
-2237.33
-2253.63
-2269.99
-2286.4
-2302.87
-2319.39
-2335.96
-2352.58
-2369.26
-2386
-2402.78
-2419.62
-2436.51
-2453.45
-2470.45
-2487.5
-2504.61
-2521.77
-2538.98
-2556.24
-2573.56
-2590.93
-2608.35
-2625.83
-2643.36
-2660.94
-2678.58
-2696.27
-2714.02
-2731.82
-2749.67
-2767.58
-2785.54
-2803.55
-2821.61
-2839.73
-2857.9
-2876.13
-2894.41
-2912.74
-2931.12
-2949.56
-2968.05
-2986.59
-3005.19
-3023.85
-3042.55
-3061.31
-3080.13
-3098.99
-3117.91
-3136.88
-3155.9
-3174.97
-3194.09
-3213.28
-3232.51
-3251.8
-3271.15
-3290.55
-3310.01
-3329.51
-3349.08
-3368.69
-3388.36
-3408.08
-3427.85
-3447.68
-3467.56
-3487.49
-3507.48
-3527.51
-3547.6
-3567.74
-3587.94
-3608.19
-3628.5
-3648.86
-3669.27
-3689.74
-3710.26
-3730.83
-3751.45
-3772.13
-3792.85
-3813.63
-3834.46
-3855.35
-3876.29
-3897.28
-3918.33
-3939.44
-3960.6
-3981.82
-4003.09
-4024.41
-4045.79
-4067.22
-4088.7
-4110.24
-4131.82
-4153.46
-4175.15
-4196.9
-4218.69
-4240.54
-4262.45
-4284.4
-4306.42
-4328.48
-4350.6
-4372.77
-4395
-4417.28
-4439.61
-4461.99
-4484.42
-4506.91
-4529.44
-4552.04
-4574.68
-4597.38
-4620.14
-4642.95
-4665.81
-4688.73
-4711.7
-4734.73
-4757.82
-4780.95
-4804.14
-4827.39
-4850.68
-4874.03
-4897.43
-4920.88
-4944.39
-4967.95
-4991.56
-5015.22
-5038.94
-5062.71
-5086.54
-5110.41
-5134.35
-5158.33
-5182.36
-5206.45
-5230.59
-5254.78
-5279.03
-5303.33
-5327.68
-5352.09
-5376.55
-5401.06
-5425.63
-5450.25
-5474.93
-5499.66
-5524.45
-5549.29
-5574.18
-5599.13
-5624.13
-5649.19
-5674.3
-5699.46
-5724.67
-5749.94
-5775.26
-5800.63
-5826.06
-5851.53
-5877.07
-5902.65
-5928.29
-5953.98
-5979.72
-6005.51
-6031.36
-6057.26
-6083.21
-6109.21
-6135.27
-6161.38
-6187.55
-6213.77
-6240.04
-6266.37
-6292.75
-6319.19
-6345.68
-6372.22
-6398.82
-6425.47
-6452.18
-6478.94
-6505.75
-6532.61
-6559.53
-6586.51
-6613.53
-6640.61
-6667.75
-6694.94
-6722.18
-6749.47
-6776.81
-6804.21
-6831.66
-6859.16
-6886.72
-6914.32
-6941.98
-6969.69
-6997.45
-7025.27
-7053.14
-7081.06
-7109.04
-7137.08
-7165.16
-7193.3
-7221.5
-7249.75
-7278.05
-7306.4
-7334.81
-7363.28
-7391.79
-7420.36
-7448.98
-7477.66
-7506.39
-7535.17
-7564.01
-7592.9
-7621.85
-7650.85
-7679.9
-7709.01
-7738.17
-7767.38
-7796.64
-7825.95
-7855.32
-7884.74
-7914.21
-7943.73
-7973.31
-8002.94
-8032.62
-8062.36
-8092.15
-8121.99
-8151.89
-8181.84
-8211.85
-8241.91
-8272.02
-8302.19
-8332.41
-8362.68
-8393.01
-8423.39
-8453.82
-8484.31
-8514.85
-8545.44
-8576.09
-8606.8
-8637.55
-8668.36
-8699.23
-8730.14
-8761.11
-8792.14
-8823.21
-8854.34
-8885.52
-8916.75
-8948.03
-8979.37
-9010.76
-9042.2
-9073.69
-9105.24
-9136.84
-9168.5
-9200.21
-9231.97
-9263.79
-9295.66
-9327.59
-9359.57
-9391.6
-9423.68
-9455.82
-9488.01
-9520.26
-9552.56
-9584.91
-9617.31
-9649.77
-9682.28
-9714.85
-9747.46
-9780.14
-9812.87
-9845.65
-9878.48
-9911.36
-9944.3
-9977.29
-10010.3
-10043.4
-10076.6
-10109.8
-10143
-10176.3
-10209.7
-10243.1
-10276.6
-10310.1
-10343.7
-10377.3
-10411
-10444.7
-10478.5
-10512.4
-10546.3
-10580.2
-10614.2
-10648.3
-10682.4
-10716.5
-10750.8
-10785
-10819.3
-10853.7
-10888.1
-10922.6
-10957.2
-10991.8
-11026.4
-11061.1
-11095.8
-11130.6
-11165.5
-11200.4
-11235.4
-11270.4
-11305.4
-11340.6
-11375.7
-11411
-11446.2
-11481.6
-11517
-11552.4
-11587.9
-11623.4
-11659
-11694.7
-11730.4
-11766.2
-11802
-11837.8
-11873.8
-11909.7
-11945.8
-11981.8
-12018
-12054.1
-12090.4
-12126.7
-12163
-12199.4
-12235.9
-12272.4
-12308.9
-12345.5
-12382.2
-12418.9
-12455.7
-12492.5
-12529.4
-12566.3
-12603.3
-12640.3
-12677.4
-12714.6
-12751.8
-12789
-12826.3
-12863.7
-12901.1
-12938.6
-12976.1
-13013.6
-13051.3
-13088.9
-13126.7
-13164.5
-13202.3
-13240.2
-13278.1
-13316.1
-13354.2
-13392.3
-13430.4
-13468.6
-13506.9
-13545.2
-13583.6
-13622
-13660.5
-13699
-13737.6
-13776.2
-13814.9
-13853.6
-13892.4
-13931.2
-13970.1
-14009.1
-14048.1
-14087.2
-14126.3
-14165.4
-14204.7
-14243.9
-14283.3
-14322.6
-14362.1
-14401.6
-14441.1
-14480.7
-14520.3
-14560
-14599.8
-14639.6
-14679.5
-14719.4
-14759.3
-14799.3
-14839.4
-14879.5
-14919.7
-14959.9
-15000.2
-15040.6
-15080.9
-15121.4
-15161.9
-15202.4
-15243
-15283.7
-15324.4
-15365.1
-15405.9
-15446.8
-15487.7
-15528.7
-15569.7
-15610.8
-15652
-15693.1
-15734.4
-15775.7
-15817
-15858.4
-15899.9
-15941.4
-15983
-16024.6
-16066.2
-16108
-16149.7
-16191.6
-16233.4
-16275.4
-16317.4
-16359.4
-16401.5
-16443.6
-16485.8
-16528.1
-16570.4
-16612.7
-16655.1
-16697.6
-16740.1
-16782.7
-16825.3
-16868
-16910.7
-16953.5
-16996.3
-17039.2
-17082.1
-17125.1
-17168.2
-17211.3
-17254.4
-17297.6
-17340.9
-17384.2
-17427.6
-17471
-17514.5
-17558
-17601.6
-17645.2
-17688.9
-17732.7
-17776.5
-17820.3
-17864.2
-17908.2
-17952.2
-17996.2
-18040.3
-18084.5
-18128.7
-18173
-18217.3
-18261.7
-18306.1
-18350.6
-18395.1
-18439.7
-18484.3
-18529
-18573.8
-18618.6
-18663.4
-18708.4
-18753.3
-18798.3
-18843.4
-18888.5
-18933.7
-18978.9
-19024.2
-19069.4
-19114.9
-19160.3
-19206
-19251.4
-19297.2
-19342.5
-19388.6
-19433.9
-19480.2
-19525.5
-19572
-19617.3
-19664.1
-19709.6
-19756.3
-19801.9
-19848.5
-19894.7
-19940.9
-19987.3
-20033.8
-20080.3
-20126.9
-20173.6
-20220.2
-20266.9
-20313.7
-20360.5
-20407.3
-20454.2
-20501.2
-20548.3
-20595.2
-20642.7
-20689.3
-20737.4
-20783.5
-20832.4
-20878
-20927.5
-20972.9
-21022.5
-21068.4
-21117.4
-21164.4
-21212.1
-21260.8
-21306.9
-21357.3
-21402.5
-21453.4
-21498.9
-21549.2
-21596.2
-21644.4
-21693.9
-21739.9
-21791.7
-21836.6
-21888.3
-21934.5
-21984.2
-22033.3
-22080.1
-22131.9
-22177.1
-22229.7
-22275.7
-22326.2
-22375.5
-22422.6
-22475.1
-22520.1
-22573.4
-22619.9
-22670.3
-22721
-22767.2
-22821.2
-22866.3
-22919.3
-22967.5
-23016.4
-23069.3
-23114.6
-23169.1
-23215.5
-23267.1
-23318.3
-23364.8
-23419.9
-23465.3
-23518.9
-23568.5
-23616.7
-23671.6
-23716.7
-23771.8
-23820.2
-23870
-23924.5
-23969.5
-24025.6
-24073.7
-24124.4
-24178
-24224.4
-24280.9
-24327.4
-24380.4
-24434.2
-24479.9
-24537.2
-24583.8
-24637.5
-24690.3
-24737.3
-24795
-24841.3
-24895.5
-24948.4
-24996
-25053.8
-25100.2
-25154.8
-25208.2
-25255.6
-25314.1
-25360.9
-25415.2
-25469.7
-25516.4
-25575.4
-25623.2
-25676.3
-25732.6
-25778.6
-25837.8
-25887.2
-25938.5
-25996.9
-26042.5
-26100.8
-26153.1
-26201.8
-26262.2
-26308.6
-26364.5
-26420.5
-26466.9
-26527.8
-26576.9
-26629
-26688.9
-26734.4
-26793.5
-26847.3
-26895.2
-26957.5
-27004.9
-27059.5
-27118.7
-27164.2
-27225.3
-27277.9
-27327
-27389.8
-27436.6
-27493
-27552.7
-27597.6
-27659.6
-27712.2
-27762.2
-27825.6
-27872.4
-27929.6
-27988.8
-28034.9
-28097.6
-28150.3
-28200.8
-28264.4
-28311.7
-28369
-28429.3
-28475.5
-28538.3
-28592.4
-28641.9
-28706.7
-28755.4
-28810.8
-28873.6
-28919.7
-28981.1
-29039
-29086.4
-29151.5
-29203.6
-29255.3
-29320.9
-29368.8
-29426.3
-29489
-29535.5
-29598.1
-29656
-29704.1
-29769.9
-29822.7
-29874.7
-29941
-29989.9
-30047
-30111.2
-30158.1
-30220.2
-30280.6
-30327.9
-30393.9
-30449.6
-30499.5
-30567.4
-30618.5
-30672.7
-30740.3
-30788.1
-30847.2
-30912.5
-30958.8
-31022.6
-31084.2
-31130.8
-31198.4
-31255.6
-31304.4
-31374.1
-31427
-31479.3
-31549.6
-31599
-31655.5
-31724.8
-31771.7
-31832.5
-31899.6
-31945.4
-32010.2
-32074.2
-32120.3
-32188.3
-32248.7
-32296.2
-32366.6
-32423.4
-32473.3
-32544.9
-32598.6
-32651.3
-32723.3
-32774.2
-32830.2
-32901.6
-32950.5
-33009.9
-33080
-33127.6
-33190.1
-33258.4
-33305.5
-33370.9
-33436.9
-33484.2
-33552
-33615.7
-33663.6
-33733.4
-33794.9
-33843.9
-33915.2
-33974.5
-34024.8
-34097.3
-34154.6
-34206.4
-34279.6
-34335.2
-34388.5
-34462.2
-34516.4
-34571.2
-34645.2
-34698.1
-34754.4
-34828.5
-34880.5
-34938.1
-35012.1
-35063.5
-35122.2
-35196.3
-35247.1
-35306.6
-35380.8
-35431.2
-35491.5
-35565.8
-35615.9
-35676.8
-35751.2
-35801.2
-35862.5
-35937
-35987.1
-36048.6
-36123.4
-36173.7
-36235
-36310.2
-36360.8
-36421.9
-36497.4
-36548.5
-36609.1
-36685.1
-36736.7
-36796.8
-36873.2
-36925.4
-36984.9
-37061.6
-37114.8
-37173.5
-37250.5
-37304.7
-37362.6
-37439.9
-37495.2
-37552.1
-37629.6
-37686.3
-37742
-37819.7
-37877.9
-37932.5
-38010.1
-38070
-38123.6
-38200.9
-38262.7
-38315.2
-38391.9
-38456
-38507.5
-38583.3
-38649.8
-38700.4
-38774.9
-38844
-38894
-38966.8
-39038.5
-39088.5
-39159
-39233.3
-39283.8
-39351.6
-39428.2
-39480
-39544.7
-39623.2
-39677
-39738.4
-39818.2
-39874.7
-39933
-40013.1
-40073
-40128.5
-40207.9
-40271.7
-40324.9
-40402.8
-40470.8
-40522.4
-40597.8
-40669.9
-40721.2
-40793.2
-40868.9
-40921.1
-40989
-41067.7
-41122.1
-41185.6
-41266.1
-41324.1
-41383.1
-41464.1
-41526.6
-41582
-41661.8
-41729.3
-41782.5
-41859.3
-41931.8
-41984.6
-42056.9
-42134
-42188.1
-42255.3
-42335.5
-42392.7
-42454.9
-42536.3
-42598
-42656.1
-42736.4
-42803.6
-42858.8
-42936.2
-43009.1
-43063.3
-43136.2
-43214
-43269.4
-43336.9
-43417.8
-43477
-43538.9
-43620.6
-43685.4
-43742.7
-43822.6
-43893.8
-43948.7
-44024.3
-44101.4
-44157
-44226.4
-44307.6
-44367
-44430
-44512.3
-44577.9
-44635.8
-44716
-44788.5
-44844.3
-44919.4
-44997.9
-45055.3
-45123.5
-45205.6
-45267.7
-45329.6
-45411.7
-45480.5
-45538.4
-45616.9
-45692.4
-45750
-45822.2
-45902.9
-45963.6
-46029.1
-46111.5
-46178.1
-46238.5
-46318.8
-46392.3
-46450.8
-46525.6
-46605.2
-46665.5
-46733.5
-46816.1
-46881.7
-46943.8
-47025.2
-47098.1
-47157.2
-47233.3
-47313.1
-47373.5
-47442.5
-47525.7
-47591.7
-47654.2
-47735.9
-47810
-47869.4
-47945.3
-48026.3
-48087.9
-48156
-48239.7
-48308.1
-48370
-48450.8
-48527.5
-48587.8
-48661.8
-48744.3
-48808.6
-48875
-48958.1
-49030
-49091.9
-49170.4
-49249.7
-49312.3
-49383.7
-49466.7
-49534.6
-49599.8
-49681.3
-49756.7
-49819.5
-49895.4
-49976.8
-50042.1
-50111.2
-50194.1
-50265.9
-50330.1
-50409.6
-50488.7
-50552.7
-50625.5
-50708.8
-50777.8
-50844
-50925.9
-51003
-51066.6
-51142.3
-51225.4
-51292.8
-51360.8
-51444.2
-51519.7
-51583.8
-51661.4
-51743.9
-51810.8
-51880.6
-51964.4
-52038.8
-52104.2
-52183
-52264.6
-52331.7
-52403.3
-52486.8
-52560.5
-52627.5
-52707.1
-52787.6
-52855.3
-52928.6
-53011.7
-53084.8
-53153.2
-53233.8
-53313.4
-53381.5
-53456.1
-53539.3
-53612
-53681.3
-53762.7
-53842.1
-53910.4
-53985.9
-54069.5
-54142.2
-54211.9
-54293.8
-54373.6
-54442.4
-54517.9
-54601.9
-54675.5
-54745.3
-54827.1
-54907.7
-54977.2
-55052.4
-55136.6
-55211.4
-55281.5
-55362.8
-55444.2
-55514.9
-55589.7
-55673.6
-55750
-55820.4
-55901
-55983.1
-56055.2
-56129.6
-56213.2
-56290.9
-56362
-56441.9
-56524.6
-56597.8
-56672.1
-56755.5
-56834.4
-56906
-56985.3
-57068.8
-57143.2
-57217
-57300.2
-57380.7
-57452.8
-57531
-57615.4
-57691.6
-57764.5
-57847.1
-57929.7
-58002.6
-58079.1
-58164.1
-58242.8
-58315.3
-58396.2
-58480.6
-58555.6
-58630.4
-58714.7
-58796.1
-58869.4
-58948.1
-59033.3
-59111.1
-59185.1
-59267.7
-59351.3
-59426.4
-59503.2
-59588
-59668.6
-59743
-59823.6
-59908.3
-59985.8
-60061.6
-60145.4
-60228.1
-60303.6
-60382.5
-60467.6
-60547.5
-60622.9
-60705.2
-60789.9
-60867
-60944.3
-61029.1
-61111.8
-61187.4
-61267.5
-61353.4
-61433.4
-61509.4
-61592.4
-61677.8
-61755.5
-61833.1
-61918.4
-62001.9
-62078.6
-62158.7
-62244.8
-62326.1
-62402.9
-62485.8
-62571.3
-62650.6
-62729
-62813.9
-62897.9
-62976
-63056.7
-63142.6
-63224.7
-63302.6
-63385.8
-63471.6
-63551.7
-63630.8
-63716
-63800.8
-63879.6
-63960.5
-64046.9
-64130.1
-64208.5
-64291.5
-64378.4
-64459.9
-64538.8
-64623.7
-64710.1
-64790.3
-64870.4
-64956.9
-65042.1
-65121.5
-65203.4
-65290.7
-65374.5
-65453.9
-65537.7
-65625
-65707.5
-65787.5
-65873
-65959.8
-66041.1
-66122.5
-66209.1
-66294.9
-66375.7
-66458.5
-66546
-66630.5
-66711.4
-66795.8
-66883.4
-66966.8
-67048.1
-67134.1
-67221.3
-67303.8
-67386
-67473.2
-67559.8
-67641.7
-67725.1
-67813.1
-67898.9
-67980.5
-68065.2
-68153.7
-68238.6
-68320.4
-68406.3
-68494.9
-68579
-68661.4
-68748.3
-68836.6
-68920.2
-69003.4
-69091.2
-69178.9
-69262.3
-69346.5
-69434.9
-69522
-69605.3
-69690.6
-69779.3
-69865.7
-69949.2
-70035.7
-70124.5
-70210.1
-70294.1
-70381.6
-70470.4
-70555.4
-70639.9
-70728.4
-70817
-70901.6
-70986.6
-71075.9
-71164.4
-71248.7
-71334.4
-71424.2
-71512.4
-71596.7
-71683.1
-71773.2
-71861.2
-71945.8
-72032.7
-72122.9
-72210.7
-72295.7
-72383.3
-72473.4
-72561
-72646.5
-72734.8
-72824.7
-72912
-72998.1
-73087.2
-73176.9
-73263.9
-73350.6
-73440.4
-73530
-73616.6
-73703.9
-73794.3
-73883.9
-73970.3
-74058
-74149
-74238.6
-74325
-74413
-74504.3
-74594.1
-74680.7
-74768.9
-74860.4
-74950.4
-75037.2
-75125.8
-75217.3
-75307.3
-75394.6
-75483.6
-75575.1
-75665
-75752.8
-75842.3
-75933.8
-76023.5
-76111.7
-76201.9
-76293.4
-76382.9
-76471.4
-76562.2
-76653.9
-76743.2
-76831.9
-76923.2
-77015.3
-77104.5
-77193.2
-77284.9
-77377.4
-77466.8
-77555.5
-77647.4
-77740.2
-77830
-77918.8
-78010.7
-78103.7
-78193.9
-78283.1
-78374.9
-78467.9
-78558.5
-78648.3
-78740.2
-78833
-78923.9
-79014.1
-79106.4
-79199.1
-79290
-79380.7
-79473.4
-79566.1
-79657
-79748.1
-79841.1
-79934.1
-80025
-80116.1
-80209.6
-80303
-80394
-80485
-80578.7
-80672.6
-80763.9
-80854.9
-80948.6
-81042.9
-81134.7
-81225.8
-81319.3
-81413.8
-81506.3
-81597.7
-81691.1
-81785.6
-81878.5
-81970.3
-82063.9
-82158.3
-82251.3
-82343.7
-82437.5
-82532
-82625.1
-82717.7
-82811.9
-82906.6
-82999.8
-83092.5
-83187
-83282.1
-83375.6
-83468.2
-83562.8
-83658.4
-83752.2
-83844.9
-83939.3
-84035.2
-84129.7
-84222.6
-84316.8
-84412.8
-84507.8
-84601.2
-84695.3
-84791.2
-84886.6
-84980.5
-85074.8
-85170.7
-85266.2
-85360.5
-85455.1
-85551.1
-85646.7
-85741.2
-85836.1
-85932.4
-86028.3
-86122.8
-86217.8
-86314.3
-86410.7
-86505.5
-86600.3
-86697
-86793.9
-86889.1
-86983.8
-87080.4
-87177.7
-87273.5
-87368.4
-87464.7
-87562.2
-87658.6
-87753.9
-87850.1
-87947.6
-88044.3
-88140.1
-88236.5
-88333.9
-88430.9
-88526.9
-88623.6
-88721.2
-88818.4
-88914.6
-89011.3
-89109.3
-89206.9
-89303.3
-89399.9
-89498
-89596.2
-89693
-89789.4
-89887.4
-89986.1
-90083.5
-90180.1
-90277.8
-90376.6
-90474.6
-90571.6
-90669.3
-90768
-90866.4
-90963.8
-91061.7
-91160.4
-91259
-91356.8
-91454.8
-91553.8
-91652.6
-91750.6
-91848.6
-91947.9
-92047.1
-92145.3
-92243.4
-92342.6
-92442.4
-92541
-92639.1
-92738.2
-92838.2
-92937.5
-93035.8
-93134.7
-93234.8
-93334.7
-93433.4
-93532.3
-93632.3
-93732.5
-93831.7
-93930.8
-94030.7
-94131.1
-94230.8
-94330
-94430.1
-94530.6
-94630.6
-94730.1
-94830.2
-94931
-95031.3
-95131
-95231.1
-95332.2
-95432.9
-95532.8
-95632.9
-95734
-95835.3
-95935.6
-96035.7
-96136.6
-96238.3
-96339.2
-96439.4
-96540.3
-96642
-96743.4
-96844.1
-96944.9
-97046.6
-97148.4
-97249.4
-97350.4
-97452.2
-97554.2
-97655.6
-97756.8
-97858.6
-97960.8
-98062.6
-98163.9
-98265.8
-98368.3
-98470.5
-98572
-98673.8
-98776.5
-98879.2
-98981
-99082.8
-99185.4
-99288.5
-99390.9
-99492.8
-99595.2
-99698.5
-99801.4
-99903.6
-100006
-100109
-100213
-100315
-100418
-100521
-100625
-100728
-100830
-100934
-101037
-101141
-101244
-101347
-101451
-101555
-101658
-101762
-101866
-101970
-102073
-102177
-102281
-102385
-102490
-102593
-102697
-102802
-102906
-103010
-103114
-103219
-103324
-103428
-103532
-103637
-103742
-103847
-103951
-104056
-104161
-104266
-104371
-104476
-104581
-104686
-104791
-104896
-105002
-105107
-105213
-105318
-105423
-105529
-105635
-105740
-105846
-105952
-106058
-106164
-106269
-106375
-106481
-106588
-106694
-106800
-106906
-107012
-107119
-107225
-107331
-107438
-107545
-107651
-107758
-107864
-107971
-108078
-108184
-108292
-108399
-108506
-108613
-108720
-108827
-108935
-109042
-109149
-109256
-109364
-109471
-109579
-109686
-109794
-109902
-110009
-110117
-110225
-110333
-110441
-110549
-110657
-110765
-110873
-110981
-111089
-111198
-111307
-111415
-111523
-111631
-111740
-111849
-111957
-112066
-112175
-112284
-112393
-112502
-112610
-112720
-112829
-112938
-113047
-113156
-113266
-113375
-113484
-113594
-113704
-113813
-113922
-114032
-114142
-114252
-114361
-114471
-114581
-114691
-114802
-114911
-115021
-115131
-115242
-115352
-115462
-115573
-115683
-115794
-115904
-116015
-116125
-116236
-116347
-116458
-116568
-116679
-116790
-116901
-117012
-117124
-117235
-117346
-117457
-117568
-117680
-117791
-117902
-118014
-118125
-118237
-118349
-118460
-118572
-118684
-118796
-118908
-119020
-119132
-119244
-119356
-119468
-119580
-119693
-119805
-119917
-120030
-120142
-120255
-120368
-120480
-120593
-120706
-120819
-120931
-121044
-121157
-121270
-121383
-121496
-121609
-121723
-121836
-121949
-122063
-122176
-122290
-122403
-122517
-122631
-122744
-122858
-122972
-123086
-123200
-123314
-123428
-123542
-123656
-123770
-123885
-123999
-124113
-124227
-124342
-124457
-124571
-124686
-124800
-124915
-125030
-125145
-125260
-125375
-125490
-125605
-125720
-125835
-125950
-126066
-126181
-126296
-126412
-126527
-126643
-126758
-126874
-126989
-127105
-127221
-127337
-127453
-127569
-127685
-127801
-127917
-128033
-128149
-128266
-128382
-128498
-128615
-128731
-128848
-128964
-129081
-129197
-129314
-129431
-129548
-129664
-129781
-129899
-130015
-130132
-130249
-130367
-130484
-130601
-130718
-130836
-130953
-131071
-131188
-131306
-131424
-131541
-131659
-131776
-131894
-132012
-132130
-132248
-132366
-132484
-132603
-132721
-132839
-132957
-133075
-133194
-133312
-133431
-133549
-133668
-133787
-133905
-134024
-134143
-134262
-134381
-134499
-134618
-134737
-134857
-134976
-135095
-135214
-135333
-135453
-135572
-135692
-135811
-135931
-136050
-136170
-136290
-136410
-136530
-136649
-136769
-136889
-137009
-137130
-137250
-137370
-137490
-137610
-137731
-137851
-137972
-138092
-138213
-138333
-138454
-138575
-138695
-138816
-138937
-139058
-139179
-139300
-139421
-139542
-139663
-139785
-139906
-140027
-140149
-140270
-140392
-140513
-140635
-140756
-140878
-141000
-141122
-141244
-141365
-141487
-141610
-141732
-141854
-141976
-142098
-142220
-142343
-142465
-142587
-142710
-142832
-142955
-143078
-143201
-143323
-143446
-143569
-143692
-143815
-143938
-144061
-144184
-144307
-144430
-144554
-144677
-144800
-144924
-145047
-145171
-145294
-145418
-145542
-145665
-145789
-145913
-146037
-146161
-146285
-146409
-146533
-146657
-146781
-146906
-147030
-147154
-147279
-147403
-147528
-147652
-147777
-147902
-148026
-148151
-148276
-148401
-148526
-148651
-148776
-148901
-149026
-149151
-149277
-149402
-149527
-149652
-149778
-149903
-150029
-150155
-150280
-150406
-150532
-150658
-150784
-150909
-151035
-151161
-151287
-151414
-151540
-151666
-151792
-151919
-152045
-152171
-152298
-152425
-152551
-152678
-152804
-152931
-153058
-153185
-153312
-153439
-153566
-153693
-153820
-153947
-154074
-154202
-154329
-154456
-154584
-154711
-154839
-154966
-155094
-155222
-155349
-155477
-155605
-155733
-155861
-155989
-156117
-156245
-156373
-156502
-156630
-156758
-156886
-157015
-157143
-157272
-157400
-157529
-157658
-157786
-157915
-158044
-158173
-158302
-158431
-158560
-158689
-158818
-158947
-159077
-159206
-159335
-159465
-159594
-159724
-159853
-159983
-160112
-160242
-160372
-160502
-160632
-160762
-160892
-161022
-161152
-161282
-161412
-161542
-161673
-161803
-161933
-162064
-162194
-162325
-162456
-162586
-162717
-162848
-162979
-163109
-163240
-163371
-163502
-163633
-163764
-163896
-164027
-164158
-164290
-164421
-164552
-164684
-164815
-164947
-165079
-165210
-165342
-165474
-165606
-165738
-165870
-166002
-166134
-166266
-166398
-166530
-166663
-166795
-166927
-167060
-167192
-167325
-167457
-167590
-167723
-167855
-167988
-168121
-168254
-168387
-168520
-168653
-168786
-168919
-169053
-169186
-169319
-169452
-169586
-169719
-169853
-169987
-170120
-170254
-170388
-170521
-170655
-170789
-170923
-171057
-171191
-171325
-171459
-171594
-171728
-171862
-171997
-172131
-172265
-172400
-172535
-172669
-172804
-172939
-173073
-173208
-173343
-173478
-173613
-173748
-173883
-174018
-174154
-174289
-174424
-174560
-174695
-174830
-174966
-175102
-175237
-175373
-175509
-175644
-175780
-175916
-176052
-176188
-176324
-176460
-176596
-176733
-176869
-177005
-177142
-177278
-177414
-177551
-177688
-177824
-177961
-178098
-178234
-178371
-178508
-178645
-178782
-178919
-179056
-179193
-179331
-179468
-179605
-179742
-179880
-180017
-180155
-180292
-180430
-180568
-180706
-180843
-180981
-181119
-181257
-181395
-181533
-181671
-181809
-181948
-182086
-182224
-182362
-182501
-182639
-182778
-182916
-183055
-183194
-183332
-183471
-183610
-183749
-183888
-184027
-184166
-184305
-184444
-184583
-184723
-184862
-185001
-185141
-185280
-185420
-185559
-185699
-185839
-185979
-186118
-186258
-186398
-186538
-186678
-186818
-186958
-187098
-187239
-187379
-187519
-187660
-187800
-187940
-188081
-188222
-188362
-188503
-188644
-188784
-188925
-189066
-189207
-189348
-189489
-189630
-189771
-189913
-190054
-190195
-190337
-190478
-190620
-190761
-190903
-191044
-191186
-191328
-191470
-191612
-191753
-191895
-192037
-192180
-192322
-192464
-192606
-192748
-192891
-193033
-193176
-193318
-193461
-193603
-193746
-193889
-194031
-194174
-194317
-194460
-194603
-194746
-194889
-195032
-195175
-195319
-195462
-195606
-195749
-195892
-196036
-196179
-196323
-196467
-196611
-196754
-196898
-197042
-197186
-197330
-197474
-197618
-197762
-197906
-198051
-198195
-198339
-198484
-198628
-198773
-198918
-199062
-199207
-199352
-199496
-199641
-199786
-199931
-200076
-200221
-200366
-200512
-200657
-200802
-200948
-201093
-201238
-201384
-201529
-201675
-201821
-201967
-202112
-202258
-202404
-202550
-202696
-202842
-202988
-203134
-203280
-203427
-203573
-203719
-203866
-204012
-204159
-204305
-204452
-204599
-204746
-204892
-205039
-205186
-205333
-205480
-205627
-205774
-205922
-206069
-206216
-206364
-206511
-206658
-206806
-206953
-207101
-207249
-207397
-207544
-207692
-207840
-207988
-208136
-208284
-208432
-208580
-208729
-208877
-209025
-209174
-209322
-209471
-209619
-209768
-209916
-210065
-210214
-210363
-210512
-210661
-210810
-210959
-211108
-211257
-211406
-211556
-211705
-211854
-212004
-212153
-212303
-212452
-212602
-212752
-212902
-213051
-213201
-213351
-213501
-213651
-213801
-213952
-214102
-214252
-214402
-214553
-214703
-214854
-215004
-215155
-215306
-215456
-215607
-215758
-215909
-216060
-216211
-216362
-216513
-216664
-216815
-216966
-217118
-217269
-217421
-217572
-217724
-217875
-218027
-218179
-218330
-218482
-218634
-218786
-218938
-219090
-219242
-219395
-219547
-219699
-219851
-220004
-220156
-220309
-220461
-220614
-220767
-220919
-221072
-221225
-221378
-221531
-221684
-221837
-221990
-222143
-222297
-222450
-222603
-222757
-222910
-223064
-223217
-223371
-223525
-223679
-223832
-223986
-224140
-224294
-224448
-224602
-224757
-224911
-225065
-225219
-225374
-225528
-225683
-225837
-225992
-226147
-226302
-226456
-226611
-226766
-226921
-227076
-227231
-227386
-227542
-227697
-227852
-228008
-228163
-228319
-228474
-228630
-228785
-228941
-229097
-229253
-229409
-229565
-229721
-229877
-230033
-230189
-230345
-230502
-230658
-230815
-230971
-231128
-231284
-231441
-231598
-231755
-231911
-232068
-232225
-232382
-232539
-232697
-232854
-233011
-233168
-233326
-233483
-233641
-233798
-233956
-234114
-234271
-234429
-234587
-234745
-234903
-235061
-235219
-235377
-235536
-235694
-235852
-236011
-236169
-236328
-236486
-236645
-236804
-236963
-237121
-237280
-237439
-237598
-237757
-237917
-238076
-238235
-238394
-238554
-238713
-238873
-239032
-239192
-239352
-239511
-239671
-239831
-239991
-240151
-240311
-240471
-240632
-240792
-240952
-241112
-241273
-241433
-241594
-241755
-241915
-242076
-242237
-242398
-242559
-242720
-242881
-243042
-243203
-243365
-243526
-243687
-243849
-244010
-244172
-244333
-244495
-244657
-244819
-244981
-245143
-245305
-245467
-245629
-245791
-245954
-246116
-246278
-246441
-246603
-246766
-246929
-247091
-247254
-247417
-247580
-247743
-247906
-248069
-248232
-248396
-248559
-248723
-248886
-249050
-249213
-249377
-249540
-249704
-249868
-250032
-250196
-250360
-250524
-250689
-250853
-251017
-251182
-251346
-251511
-251675
-251840
-252005
-252170
-252334
-252499
-252664
-252829
-252995
-253160
-253325
-253491
-253656
-253821
-253987
-254153
-254318
-254484
-254650
-254816
-254982
-255148
-255314
-255480
-255646
-255813
-255979
-256146
-256312
-256479
-256646
-256812
-256979
-257146
-257313
-257480
-257647
-257814
-257982
-258149
-258316
-258484
-258651
-258819
-258987
-259155
-259322
-259490
-259658
-259826
-259995
-260163
-260331
-260499
-260668
-260836
-261005
-261174
-261342
-261511
-261680
-261849
-262018
-262187
-262356
-262526
-262695
-262864
-263034
-263203
-263373
-263543
-263713
-263882
-264052
-264222
-264392
-264563
-264733
-264903
-265074
-265244
-265415
-265585
-265756
-265927
-266098
-266269
-266440
-266611
-266782
-266954
-267125
-267296
-267468
-267640
-267811
-267983
-268155
-268327
-268499
-268671
-268843
-269015
-269188
-269360
-269533
-269705
-269878
-270051
-270224
-270397
-270570
-270743
-270916
-271089
-271263
-271436
-271610
-271783
-271957
-272131
-272305
-272478
-272653
-272827
-273001
-273175
-273350
-273524
-273699
-273873
-274048
-274223
-274398
-274573
-274748
-274923
-275099
-275274
-275450
-275625
-275801
-275977
-276152
-276328
-276504
-276681
-276857
-277033
-277209
-277386
-277563
-277739
-277916
-278093
-278270
-278447
-278624
-278802
-278979
-279156
-279334
-279512
-279689
-279867
-280045
-280223
-280401
-280580
-280758
-280936
-281115
-281294
-281473
-281651
-281830
-282009
-282189
-282368
-282547
-282727
-282906
-283086
-283266
-283446
-283626
-283806
-283986
-284166
-284347
-284528
-284708
-284889
-285070
-285251
-285432
-285613
-285794
-285976
-286157
-286339
-286521
-286703
-286885
-287067
-287249
-287431
-287614
-287796
-287979
-288162
-288345
-288528
-288711
-288894
-289078
-289261
-289445
-289629
-289813
-289997
-290181
-290365
-290549
-290734
-290919
-291103
-291288
-291473
-291658
-291843
-292029
-292214
-292400
-292586
-292772
-292958
-293144
-293330
-293516
-293703
-293890
-294077
-294264
-294451
-294638
-294825
-295013
-295200
-295388
-295576
-295764
-295952
-296141
-296329
-296518
-296706
-296895
-297084
-297273
-297463
-297652
-297842
-298032
-298222
-298412
-298602
-298792
-298983
-299173
-299364
-299555
-299746
-299938
-300129
-300321
-300513
-300705
-300897
-301089
-301281
-301474
-301667
-301860
-302053
-302246
-302439
-302633
-302826
-303020
-303214
-303409
-303603
-303798
-303992
-304187
-304382
-304578
-304773
-304969
-305165
-305361
-305557
-305753
-305950
-306146
-306343
-306540
-306738
-306935
-307133
-307331
-307529
-307727
-307925
-308124
-308323
-308522
-308721
-308921
-309120
-309320
-309520
-309720
-309921
-310121
-310322
-310523
-310724
-310926
-311128
-311330
-311532
-311734
-311937
-312139
-312342
-312546
-312749
-312953
-313157
-313361
-313565
-313770
-313974
-314179
-314385
-314590
-314796
-315002
-315208
-315415
-315621
-315828
-316036
-316243
-316451
-316659
-316867
-317076
-317284
-317493
-317703
-317912
-318122
-318332
-318542
-318753
-318964
-319175
-319386
-319598
-319810
-320022
-320234
-320447
-320660
-320874
-321087
-321301
-321515
-321730
-321945
-322160
-322375
-322591
-322807
-323023
-323240
-323457
-323674
-323892
-324110
-324328
-324547
-324766
-324985
-325204
-325424
-325644
-325865
-326086
-326307
-326529
-326751
-326973
-327195
-327418
-327642
-327865
-328089
-328314
-328539
-328764
-328989
-329215
-329442
-329668
-329895
-330123
-330351
-330579
-330807
-331036
-331266
-331496
-331726
-331956
-332187
-332419
-332651
-332883
-333116
-333349
-333583
-333817
-334051
-334286