/*--------------------------------*- C++ -*----------------------------------*\
  =========                 |
  \\      /  F ield         | OpenFOAM: The Open Source CFD Toolbox
   \\    /   O peration     | Website:  https://openfoam.org
    \\  /    A nd           | Version:  9
     \\/     M anipulation  |
\*---------------------------------------------------------------------------*/
FoamFile
{
    format      ascii;
    class       volScalarField;
    location    "0.032";
    object      ddt0(rho);
}
// * * * * * * * * * * * * * * * * * * * * * * * * * * * * * * * * * * * * * //

dimensions      [1 -3 -1 0 0 0 0];

internalField   nonuniform List<scalar> 
10000
(
-11.3335
-11.3331
-11.3327
-11.3322
-11.3317
-11.3313
-11.3309
-11.3304
-11.3298
-11.3293
-11.329
-11.3287
-11.3282
-11.3275
-11.3269
-11.3267
-11.3265
-11.3261
-11.3254
-11.3245
-11.3241
-11.324
-11.324
-11.3237
-11.3228
-11.3217
-11.3211
-11.321
-11.3213
-11.3214
-11.3208
-11.3196
-11.3183
-11.3176
-11.3175
-11.3181
-11.3186
-11.3184
-11.3175
-11.3159
-11.3144
-11.3135
-11.3136
-11.3143
-11.3153
-11.3157
-11.3153
-11.314
-11.312
-11.3102
-11.3089
-11.3087
-11.3094
-11.3107
-11.312
-11.3128
-11.3127
-11.3115
-11.3095
-11.3071
-11.3049
-11.3033
-11.3026
-11.303
-11.3043
-11.3062
-11.3082
-11.3098
-11.3107
-11.3107
-11.3097
-11.3078
-11.3052
-11.3022
-11.2992
-11.2964
-11.2943
-11.2929
-11.2924
-11.2929
-11.2943
-11.2966
-11.2995
-11.3029
-11.3067
-11.3107
-11.3146
-11.3185
-11.3221
-11.3252
-11.328
-11.3302
-11.3319
-11.3331
-11.3338
-11.334
-11.334
-11.3341
-11.3344
-11.3354
-11.3388
-11.34
-11.3401
-11.34
-11.34
-11.3399
-11.3397
-11.3396
-11.3395
-11.3394
-11.3393
-11.3392
-11.3391
-11.3391
-11.339
-11.3389
-11.3388
-11.3388
-11.3387
-11.3386
-11.3385
-11.3385
-11.3384
-11.3383
-11.3383
-11.3382
-11.3381
-11.338
-11.338
-11.3379
-11.3378
-11.3378
-11.3377
-11.3376
-11.3375
-11.3375
-11.3374
-11.3373
-11.3373
-11.3372
-11.3371
-11.3371
-11.337
-11.3369
-11.3368
-11.3368
-11.3367
-11.3366
-11.3366
-11.3365
-11.3364
-11.3363
-11.3363
-11.3362
-11.3361
-11.3361
-11.336
-11.3359
-11.3358
-11.3358
-11.3357
-11.3356
-11.3355
-11.3355
-11.3354
-11.3353
-11.3353
-11.3352
-11.3351
-11.335
-11.335
-11.3349
-11.3348
-11.3348
-11.3347
-11.3346
-11.3345
-11.3345
-11.3344
-11.3343
-11.3343
-11.3342
-11.3341
-11.334
-11.334
-11.3339
-11.3338
-11.3337
-11.3337
-11.3336
-11.3335
-11.3334
-11.3334
-11.3333
-11.3332
-11.3331
-11.3331
-11.333
-11.3329
-11.3328
-11.3328
-11.3327
-11.3326
-11.3325
-11.3325
-11.3324
-11.3323
-11.3323
-11.3322
-11.3321
-11.332
-11.332
-11.3319
-11.3318
-11.3317
-11.3317
-11.3316
-11.3315
-11.3314
-11.3314
-11.3313
-11.3312
-11.3311
-11.331
-11.331
-11.3309
-11.3308
-11.3307
-11.3307
-11.3306
-11.3305
-11.3304
-11.3304
-11.3303
-11.3302
-11.3301
-11.3301
-11.33
-11.3299
-11.3298
-11.3298
-11.3297
-11.3296
-11.3295
-11.3295
-11.3294
-11.3293
-11.3292
-11.3291
-11.3291
-11.329
-11.3289
-11.3288
-11.3288
-11.3287
-11.3286
-11.3285
-11.3285
-11.3284
-11.3283
-11.3282
-11.3281
-11.3281
-11.328
-11.3279
-11.3278
-11.3278
-11.3277
-11.3276
-11.3275
-11.3274
-11.3274
-11.3273
-11.3272
-11.3271
-11.327
-11.327
-11.3269
-11.3268
-11.3267
-11.3267
-11.3266
-11.3265
-11.3264
-11.3263
-11.3263
-11.3262
-11.3261
-11.326
-11.3259
-11.3259
-11.3258
-11.3257
-11.3256
-11.3255
-11.3255
-11.3254
-11.3253
-11.3252
-11.3251
-11.3251
-11.325
-11.3249
-11.3248
-11.3247
-11.3247
-11.3246
-11.3245
-11.3244
-11.3243
-11.3243
-11.3242
-11.3241
-11.324
-11.3239
-11.3239
-11.3238
-11.3237
-11.3236
-11.3235
-11.3235
-11.3234
-11.3233
-11.3232
-11.3231
-11.3231
-11.323
-11.3229
-11.3228
-11.3227
-11.3226
-11.3226
-11.3225
-11.3224
-11.3223
-11.3222
-11.3222
-11.3221
-11.322
-11.3219
-11.3218
-11.3217
-11.3217
-11.3216
-11.3215
-11.3214
-11.3213
-11.3212
-11.3212
-11.3211
-11.321
-11.3209
-11.3208
-11.3208
-11.3207
-11.3206
-11.3205
-11.3204
-11.3203
-11.3203
-11.3202
-11.3201
-11.32
-11.3199
-11.3198
-11.3198
-11.3197
-11.3196
-11.3195
-11.3194
-11.3193
-11.3192
-11.3192
-11.3191
-11.319
-11.3189
-11.3188
-11.3187
-11.3187
-11.3186
-11.3185
-11.3184
-11.3183
-11.3182
-11.3182
-11.3181
-11.318
-11.3179
-11.3178
-11.3177
-11.3176
-11.3176
-11.3175
-11.3174
-11.3173
-11.3172
-11.3171
-11.317
-11.317
-11.3169
-11.3168
-11.3167
-11.3166
-11.3165
-11.3164
-11.3164
-11.3163
-11.3162
-11.3161
-11.316
-11.3159
-11.3158
-11.3158
-11.3157
-11.3156
-11.3155
-11.3154
-11.3153
-11.3152
-11.3151
-11.3151
-11.315
-11.3149
-11.3148
-11.3147
-11.3146
-11.3145
-11.3145
-11.3144
-11.3143
-11.3142
-11.3141
-11.314
-11.3139
-11.3138
-11.3138
-11.3137
-11.3136
-11.3135
-11.3134
-11.3133
-11.3132
-11.3131
-11.313
-11.313
-11.3129
-11.3128
-11.3127
-11.3126
-11.3125
-11.3124
-11.3123
-11.3123
-11.3122
-11.3121
-11.312
-11.3119
-11.3118
-11.3117
-11.3116
-11.3115
-11.3115
-11.3114
-11.3113
-11.3112
-11.3111
-11.311
-11.3109
-11.3108
-11.3107
-11.3107
-11.3106
-11.3105
-11.3104
-11.3103
-11.3102
-11.3101
-11.31
-11.3099
-11.3098
-11.3097
-11.3097
-11.3096
-11.3095
-11.3094
-11.3093
-11.3092
-11.3091
-11.309
-11.3089
-11.3088
-11.3088
-11.3087
-11.3086
-11.3085
-11.3084
-11.3083
-11.3082
-11.3081
-11.308
-11.3079
-11.3078
-11.3078
-11.3077
-11.3076
-11.3075
-11.3074
-11.3073
-11.3072
-11.3071
-11.307
-11.3069
-11.3068
-11.3067
-11.3066
-11.3066
-11.3065
-11.3064
-11.3063
-11.3062
-11.3061
-11.306
-11.3059
-11.3058
-11.3057
-11.3056
-11.3055
-11.3054
-11.3053
-11.3053
-11.3052
-11.3051
-11.305
-11.3049
-11.3048
-11.3047
-11.3046
-11.3045
-11.3044
-11.3043
-11.3042
-11.3041
-11.304
-11.3039
-11.3039
-11.3038
-11.3037
-11.3036
-11.3035
-11.3034
-11.3033
-11.3032
-11.3031
-11.303
-11.3029
-11.3028
-11.3027
-11.3026
-11.3025
-11.3024
-11.3023
-11.3022
-11.3021
-11.3021
-11.302
-11.3019
-11.3018
-11.3017
-11.3016
-11.3015
-11.3014
-11.3013
-11.3012
-11.3011
-11.301
-11.3009
-11.3008
-11.3007
-11.3006
-11.3005
-11.3004
-11.3003
-11.3002
-11.3001
-11.3
-11.2999
-11.2998
-11.2998
-11.2997
-11.2996
-11.2995
-11.2994
-11.2993
-11.2992
-11.2991
-11.299
-11.2989
-11.2988
-11.2987
-11.2986
-11.2985
-11.2984
-11.2983
-11.2982
-11.2981
-11.298
-11.2979
-11.2978
-11.2977
-11.2976
-11.2975
-11.2974
-11.2973
-11.2972
-11.2971
-11.297
-11.2969
-11.2968
-11.2967
-11.2966
-11.2965
-11.2964
-11.2963
-11.2962
-11.2961
-11.296
-11.2959
-11.2958
-11.2957
-11.2956
-11.2955
-11.2954
-11.2953
-11.2952
-11.2952
-11.2951
-11.295
-11.2949
-11.2948
-11.2947
-11.2946
-11.2945
-11.2944
-11.2943
-11.2942
-11.2941
-11.294
-11.2939
-11.2938
-11.2937
-11.2936
-11.2935
-11.2934
-11.2933
-11.2932
-11.2931
-11.293
-11.2929
-11.2927
-11.2926
-11.2925
-11.2924
-11.2923
-11.2922
-11.2921
-11.292
-11.2919
-11.2918
-11.2917
-11.2916
-11.2915
-11.2914
-11.2913
-11.2912
-11.2911
-11.291
-11.2909
-11.2908
-11.2907
-11.2906
-11.2905
-11.2904
-11.2903
-11.2902
-11.2901
-11.29
-11.2899
-11.2898
-11.2897
-11.2896
-11.2895
-11.2894
-11.2893
-11.2892
-11.2891
-11.289
-11.2889
-11.2888
-11.2887
-11.2886
-11.2885
-11.2884
-11.2883
-11.2882
-11.2881
-11.2879
-11.2878
-11.2877
-11.2876
-11.2875
-11.2874
-11.2873
-11.2872
-11.2871
-11.287
-11.2869
-11.2868
-11.2867
-11.2866
-11.2865
-11.2864
-11.2863
-11.2862
-11.2861
-11.286
-11.2859
-11.2858
-11.2857
-11.2856
-11.2854
-11.2853
-11.2852
-11.2851
-11.285
-11.2849
-11.2848
-11.2847
-11.2846
-11.2845
-11.2844
-11.2843
-11.2842
-11.2841
-11.284
-11.2839
-11.2838
-11.2837
-11.2835
-11.2834
-11.2833
-11.2832
-11.2831
-11.283
-11.2829
-11.2828
-11.2827
-11.2826
-11.2825
-11.2824
-11.2823
-11.2822
-11.2821
-11.2819
-11.2818
-11.2817
-11.2816
-11.2815
-11.2814
-11.2813
-11.2812
-11.2811
-11.281
-11.2809
-11.2808
-11.2807
-11.2806
-11.2804
-11.2803
-11.2802
-11.2801
-11.28
-11.2799
-11.2798
-11.2797
-11.2796
-11.2795
-11.2794
-11.2793
-11.2792
-11.279
-11.2789
-11.2788
-11.2787
-11.2786
-11.2785
-11.2784
-11.2783
-11.2781
-11.2781
-11.2779
-11.2779
-11.2777
-11.2777
-11.2774
-11.2775
-11.2771
-11.2774
-11.2769
-11.2772
-11.2766
-11.2771
-11.2763
-11.2769
-11.276
-11.2767
-11.2758
-11.2765
-11.2757
-11.276
-11.2757
-11.2756
-11.2756
-11.2755
-11.2753
-11.2752
-11.2751
-11.275
-11.2749
-11.2748
-11.2747
-11.2745
-11.2744
-11.2743
-11.2743
-11.2739
-11.2742
-11.2734
-11.2744
-11.2728
-11.2746
-11.2722
-11.2746
-11.2719
-11.2743
-11.272
-11.2735
-11.2726
-11.2723
-11.2733
-11.2711
-11.2739
-11.2704
-11.2738
-11.2705
-11.2728
-11.2714
-11.2712
-11.2726
-11.2697
-11.2733
-11.2691
-11.2728
-11.2698
-11.2711
-11.2714
-11.2691
-11.2726
-11.2681
-11.2724
-11.2688
-11.2704
-11.2707
-11.2681
-11.2721
-11.2671
-11.2716
-11.2682
-11.2691
-11.2705
-11.2667
-11.2716
-11.2663
-11.2702
-11.2684
-11.2672
-11.2707
-11.2654
-11.2707
-11.2664
-11.268
-11.2692
-11.265
-11.2706
-11.2649
-11.2686
-11.2677
-11.265
-11.27
-11.2638
-11.2688
-11.2662
-11.2651
-11.2692
-11.263
-11.2688
-11.2649
-11.2651
-11.2683
-11.2624
-11.2686
-11.2639
-11.2649
-11.2675
-11.2619
-11.2681
-11.2628
-11.265
-11.2664
-11.2615
-11.2677
-11.262
-11.2646
-11.2657
-11.2609
-11.2672
-11.2614
-11.264
-11.2653
-11.2601
-11.2667
-11.261
-11.2629
-11.2652
-11.2592
-11.266
-11.261
-11.2615
-11.2653
-11.2584
-11.2649
-11.2614
-11.2597
-11.2655
-11.258
-11.2632
-11.2624
-11.2579
-11.2652
-11.2583
-11.2609
-11.2636
-11.2565
-11.264
-11.2596
-11.2581
-11.2644
-11.2561
-11.2615
-11.2616
-11.2556
-11.2638
-11.2574
-11.258
-11.2633
-11.2546
-11.2614
-11.2599
-11.2548
-11.2633
-11.2559
-11.2573
-11.2623
-11.2535
-11.2608
-11.2586
-11.2541
-11.2623
-11.2547
-11.2569
-11.261
-11.2526
-11.2599
-11.2576
-11.2532
-11.2613
-11.2539
-11.2556
-11.2603
-11.2517
-11.2585
-11.2574
-11.2516
-11.2602
-11.2538
-11.2534
-11.26
-11.2511
-11.2561
-11.258
-11.25
-11.2584
-11.2548
-11.2507
-11.2593
-11.2517
-11.2527
-11.2586
-11.2495
-11.2551
-11.2565
-11.2487
-11.257
-11.2536
-11.2493
-11.2579
-11.2507
-11.2509
-11.2575
-11.2485
-11.2529
-11.2559
-11.2472
-11.2549
-11.2536
-11.247
-11.2563
-11.2508
-11.2479
-11.2567
-11.2482
-11.2494
-11.2562
-11.2461
-11.2514
-11.2547
-11.2449
-11.2532
-11.2525
-11.2445
-11.2545
-11.2501
-11.2449
-11.2553
-11.2476
-11.2459
-11.2553
-11.2455
-11.2473
-11.2546
-11.2437
-11.2489
-11.2533
-11.2426
-11.2503
-11.2516
-11.2419
-11.2515
-11.2497
-11.2418
-11.2523
-11.2477
-11.2422
-11.2527
-11.2457
-11.2428
-11.2527
-11.2439
-11.2437
-11.2523
-11.2424
-11.2446
-11.2516
-11.2411
-11.2456
-11.2506
-11.2402
-11.2464
-11.2494
-11.2395
-11.2471
-11.2482
-11.239
-11.2477
-11.2469
-11.2387
-11.2481
-11.2456
-11.2385
-11.2484
-11.2444
-11.2384
-11.2485
-11.2432
-11.2383
-11.2485
-11.2422
-11.2383
-11.2484
-11.2412
-11.2382
-11.2482
-11.2404
-11.2381
-11.2479
-11.2396
-11.238
-11.2477
-11.2389
-11.2377
-11.2474
-11.2384
-11.2375
-11.247
-11.2379
-11.2371
-11.2467
-11.2375
-11.2367
-11.2463
-11.2372
-11.2363
-11.2459
-11.2369
-11.2357
-11.2455
-11.2368
-11.2351
-11.245
-11.2366
-11.2345
-11.2445
-11.2366
-11.2339
-11.244
-11.2366
-11.2332
-11.2434
-11.2367
-11.2326
-11.2428
-11.2369
-11.2319
-11.2421
-11.2371
-11.2312
-11.2414
-11.2373
-11.2306
-11.2405
-11.2376
-11.23
-11.2395
-11.238
-11.2295
-11.2385
-11.2384
-11.2291
-11.2372
-11.2388
-11.2288
-11.2359
-11.2391
-11.2288
-11.2344
-11.2394
-11.2289
-11.2328
-11.2395
-11.2294
-11.2312
-11.2393
-11.23
-11.2296
-11.2389
-11.2309
-11.2281
-11.2381
-11.232
-11.2269
-11.237
-11.2331
-11.226
-11.2354
-11.2342
-11.2255
-11.2336
-11.2351
-11.2253
-11.2316
-11.2358
-11.2256
-11.2295
-11.236
-11.2265
-11.2275
-11.2358
-11.2277
-11.2256
-11.235
-11.2292
-11.224
-11.2336
-11.2307
-11.2231
-11.2316
-11.2321
-11.2229
-11.2293
-11.233
-11.2235
-11.2268
-11.2333
-11.2246
-11.2244
-11.2328
-11.2261
-11.2226
-11.2316
-11.2278
-11.2215
-11.2296
-11.2293
-11.2211
-11.2272
-11.2305
-11.2215
-11.2246
-11.2309
-11.2227
-11.2222
-11.2303
-11.2245
-11.2203
-11.2288
-11.2265
-11.2193
-11.2264
-11.2281
-11.2194
-11.2236
-11.2289
-11.2206
-11.2208
-11.2285
-11.2225
-11.2187
-11.227
-11.2247
-11.2176
-11.2244
-11.2264
-11.2179
-11.2214
-11.227
-11.2195
-11.2186
-11.2263
-11.2217
-11.2168
-11.2243
-11.2237
-11.2163
-11.2215
-11.2249
-11.2172
-11.2185
-11.2249
-11.2191
-11.2161
-11.2235
-11.2212
-11.2151
-11.221
-11.2228
-11.2155
-11.2179
-11.2233
-11.217
-11.2153
-11.2224
-11.2192
-11.2139
-11.22
-11.2211
-11.2139
-11.2168
-11.2219
-11.2155
-11.214
-11.221
-11.2178
-11.2125
-11.2184
-11.2199
-11.2127
-11.2151
-11.2205
-11.2146
-11.2123
-11.2192
-11.2171
-11.2112
-11.2162
-11.2188
-11.212
-11.2129
-11.2188
-11.2142
-11.2107
-11.2168
-11.2165
-11.2103
-11.2137
-11.2175
-11.2117
-11.2109
-11.2166
-11.2139
-11.2094
-11.2142
-11.2156
-11.2097
-11.2113
-11.2159
-11.2114
-11.209
-11.2143
-11.2135
-11.2083
-11.2116
-11.2147
-11.2093
-11.2087
-11.214
-11.2114
-11.2071
-11.2116
-11.2133
-11.2076
-11.2084
-11.2134
-11.2097
-11.2063
-11.2112
-11.2119
-11.2063
-11.208
-11.2123
-11.2082
-11.2056
-11.2105
-11.2104
-11.2053
-11.2074
-11.211
-11.2069
-11.205
-11.2096
-11.2089
-11.2045
-11.2068
-11.2097
-11.2056
-11.2045
-11.2086
-11.2074
-11.2036
-11.2062
-11.2084
-11.2044
-11.2038
-11.2077
-11.2061
-11.2026
-11.2055
-11.2073
-11.2032
-11.2029
-11.2067
-11.205
-11.2016
-11.2044
-11.2063
-11.2023
-11.2018
-11.2056
-11.2041
-11.2006
-11.2032
-11.2052
-11.2015
-11.2006
-11.2044
-11.2033
-11.1998
-11.2019
-11.2041
-11.2008
-11.1996
-11.203
-11.2025
-11.199
-11.2006
-11.203
-11.2002
-11.1986
-11.2016
-11.2016
-11.1983
-11.1993
-11.2017
-11.1994
-11.1976
-11.2003
-11.2007
-11.1975
-11.198
-11.2006
-11.1987
-11.1965
-11.1989
-11.1999
-11.1967
-11.1965
-11.1994
-11.1982
-11.1954
-11.1973
-11.1991
-11.1962
-11.195
-11.198
-11.1978
-11.1946
-11.1955
-11.198
-11.196
-11.1938
-11.1962
-11.1972
-11.1942
-11.1938
-11.1966
-11.1957
-11.193
-11.1943
-11.1962
-11.194
-11.1925
-11.1948
-11.1951
-11.1924
-11.1927
-11.1948
-11.1936
-11.1915
-11.1931
-11.1942
-11.1919
-11.1912
-11.1934
-11.1931
-11.1906
-11.1914
-11.1933
-11.1916
-11.1899
-11.1917
-11.1925
-11.1901
-11.1896
-11.1919
-11.1914
-11.1889
-11.1897
-11.1916
-11.19
-11.1882
-11.1899
-11.1909
-11.1886
-11.1879
-11.19
-11.1898
-11.1875
-11.188
-11.1897
-11.1885
-11.1868
-11.1881
-11.189
-11.1871
-11.1864
-11.1881
-11.188
-11.186
-11.1863
-11.1878
-11.1868
-11.1852
-11.1863
-11.1873
-11.1855
-11.1847
-11.1863
-11.1864
-11.1844
-11.1844
-11.1861
-11.1854
-11.1835
-11.1843
-11.1856
-11.1843
-11.1828
-11.1842
-11.185
-11.1832
-11.1824
-11.184
-11.1841
-11.1822
-11.1822
-11.1837
-11.183
-11.1814
-11.182
-11.1832
-11.182
-11.1807
-11.1818
-11.1825
-11.1809
-11.1803
-11.1816
-11.1816
-11.18
-11.1799
-11.1812
-11.1806
-11.1792
-11.1797
-11.1807
-11.1797
-11.1785
-11.1794
-11.1801
-11.1787
-11.1779
-11.1791
-11.1793
-11.1778
-11.1775
-11.1787
-11.1785
-11.1769
-11.1771
-11.1783
-11.1776
-11.1762
-11.1767
-11.1777
-11.1767
-11.1756
-11.1763
-11.177
-11.1759
-11.175
-11.1759
-11.1763
-11.175
-11.1746
-11.1755
-11.1754
-11.1742
-11.1741
-11.175
-11.1746
-11.1734
-11.1737
-11.1745
-11.1737
-11.1727
-11.1733
-11.1739
-11.1729
-11.172
-11.1728
-11.1733
-11.1721
-11.1714
-11.1723
-11.1726
-11.1713
-11.1708
-11.1718
-11.1719
-11.1706
-11.1703
-11.1712
-11.1712
-11.17
-11.1698
-11.1706
-11.1704
-11.1693
-11.1693
-11.17
-11.1695
-11.1686
-11.1689
-11.1694
-11.1687
-11.168
-11.1684
-11.1688
-11.1679
-11.1673
-11.1679
-11.1682
-11.1671
-11.1666
-11.1673
-11.1675
-11.1664
-11.1659
-11.1667
-11.1669
-11.1658
-11.1653
-11.1661
-11.1662
-11.1651
-11.1647
-11.1654
-11.1655
-11.1645
-11.1642
-11.1648
-11.1647
-11.1639
-11.1636
-11.1641
-11.1639
-11.1632
-11.1631
-11.1635
-11.1632
-11.1624
-11.1625
-11.163
-11.1625
-11.1617
-11.1619
-11.1624
-11.1618
-11.161
-11.1613
-11.1618
-11.1612
-11.1603
-11.1606
-11.1611
-11.1606
-11.1597
-11.1598
-11.1604
-11.16
-11.1591
-11.1592
-11.1597
-11.1593
-11.1585
-11.1586
-11.1589
-11.1586
-11.1579
-11.158
-11.1582
-11.1578
-11.1573
-11.1574
-11.1576
-11.1571
-11.1566
-11.1568
-11.157
-11.1564
-11.1558
-11.1561
-11.1564
-11.1558
-11.1551
-11.1554
-11.1558
-11.1552
-11.1544
-11.1546
-11.1551
-11.1546
-11.1538
-11.1539
-11.1543
-11.154
-11.1533
-11.1532
-11.1536
-11.1533
-11.1527
-11.1526
-11.1528
-11.1526
-11.152
-11.152
-11.1522
-11.1518
-11.1513
-11.1513
-11.1515
-11.1512
-11.1506
-11.1507
-11.1509
-11.1506
-11.1499
-11.1499
-11.1502
-11.15
-11.1493
-11.1491
-11.1495
-11.1494
-11.1487
-11.1484
-11.1487
-11.1487
-11.1481
-11.1477
-11.148
-11.148
-11.1475
-11.1471
-11.1472
-11.1473
-11.1468
-11.1465
-11.1466
-11.1466
-11.1461
-11.1458
-11.1459
-11.1459
-11.1454
-11.1451
-11.1452
-11.1453
-11.1448
-11.1443
-11.1444
-11.1446
-11.1442
-11.1437
-11.1437
-11.1439
-11.1436
-11.1431
-11.1429
-11.1431
-11.143
-11.1425
-11.1422
-11.1424
-11.1423
-11.1418
-11.1416
-11.1416
-11.1415
-11.1411
-11.1409
-11.141
-11.1409
-11.1404
-11.1402
-11.1403
-11.1403
-11.1398
-11.1394
-11.1395
-11.1396
-11.1392
-11.1387
-11.1387
-11.1389
-11.1386
-11.1381
-11.1379
-11.1381
-11.138
-11.1375
-11.1372
-11.1373
-11.1372
-11.1369
-11.1366
-11.1366
-11.1365
-11.1362
-11.1359
-11.1359
-11.1358
-11.1355
-11.1351
-11.1352
-11.1352
-11.1348
-11.1344
-11.1344
-11.1345
-11.1342
-11.1338
-11.1336
-11.1337
-11.1336
-11.1331
-11.1329
-11.1329
-11.1329
-11.1325
-11.1322
-11.1321
-11.1322
-11.1319
-11.1315
-11.1314
-11.1314
-11.1312
-11.1308
-11.1307
-11.1307
-11.1305
-11.1301
-11.13
-11.13
-11.1298
-11.1295
-11.1292
-11.1292
-11.1292
-11.1288
-11.1285
-11.1285
-11.1285
-11.1282
-11.1278
-11.1277
-11.1277
-11.1275
-11.1271
-11.1269
-11.1269
-11.1268
-11.1265
-11.1262
-11.1261
-11.1261
-11.1258
-11.1255
-11.1254
-11.1254
-11.1251
-11.1248
-11.1247
-11.1246
-11.1244
-11.1241
-11.1239
-11.1239
-11.1238
-11.1234
-11.1232
-11.1231
-11.1231
-11.1228
-11.1224
-11.1223
-11.1223
-11.1221
-11.1218
-11.1216
-11.1215
-11.1214
-11.1211
-11.1208
-11.1208
-11.1207
-11.1204
-11.1201
-11.12
-11.12
-11.1197
-11.1194
-11.1193
-11.1192
-11.119
-11.1187
-11.1185
-11.1185
-11.1183
-11.118
-11.1178
-11.1177
-11.1176
-11.1174
-11.117
-11.1169
-11.1169
-11.1167
-11.1164
-11.1161
-11.1161
-11.116
-11.1157
-11.1154
-11.1153
-11.1152
-11.115
-11.1147
-11.1145
-11.1144
-11.1143
-11.114
-11.1138
-11.1137
-11.1136
-11.1133
-11.1131
-11.1129
-11.1128
-11.1126
-11.1123
-11.1121
-11.1121
-11.1119
-11.1116
-11.1114
-11.1113
-11.1112
-11.111
-11.1106
-11.1105
-11.1104
-11.1103
-11.11
-11.1097
-11.1096
-11.1095
-11.1093
-11.109
-11.1088
-11.1087
-11.1085
-11.1083
-11.1081
-11.108
-11.1078
-11.1075
-11.1073
-11.1072
-11.1071
-11.1068
-11.1066
-11.1064
-11.1064
-11.1062
-11.1058
-11.1056
-11.1055
-11.1054
-11.1052
-11.1049
-11.1047
-11.1046
-11.1045
-11.1042
-11.104
-11.1038
-11.1037
-11.1035
-11.1033
-11.1031
-11.1029
-11.1027
-11.1025
-11.1023
-11.1022
-11.102
-11.1017
-11.1015
-11.1014
-11.1013
-11.101
-11.1008
-11.1006
-11.1005
-11.1004
-11.1001
-11.0998
-11.0997
-11.0996
-11.0994
-11.0991
-11.0989
-11.0988
-11.0986
-11.0984
-11.0982
-11.098
-11.0978
-11.0976
-11.0974
-11.0972
-11.0971
-11.0969
-11.0966
-11.0964
-11.0963
-11.0962
-11.0959
-11.0956
-11.0955
-11.0954
-11.0952
-11.0949
-11.0947
-11.0945
-11.0944
-11.0942
-11.094
-11.0937
-11.0936
-11.0934
-11.0932
-11.093
-11.0928
-11.0926
-11.0924
-11.0922
-11.0921
-11.0919
-11.0917
-11.0914
-11.0912
-11.0911
-11.091
-11.0907
-11.0904
-11.0903
-11.0902
-11.09
-11.0897
-11.0895
-11.0893
-11.0892
-11.089
-11.0888
-11.0885
-11.0883
-11.0882
-11.088
-11.0878
-11.0876
-11.0874
-11.0872
-11.087
-11.0868
-11.0867
-11.0864
-11.0862
-11.086
-11.0858
-11.0857
-11.0855
-11.0852
-11.085
-11.0848
-11.0847
-11.0845
-11.0842
-11.084
-11.0839
-11.0837
-11.0835
-11.0833
-11.0831
-11.0829
-11.0827
-11.0825
-11.0823
-11.0821
-11.0819
-11.0817
-11.0815
-11.0813
-11.0812
-11.0809
-11.0807
-11.0805
-11.0804
-11.0802
-11.08
-11.0797
-11.0795
-11.0794
-11.0792
-11.079
-11.0787
-11.0785
-11.0784
-11.0782
-11.078
-11.0778
-11.0776
-11.0774
-11.0772
-11.077
-11.0768
-11.0766
-11.0764
-11.0762
-11.076
-11.0758
-11.0756
-11.0754
-11.0752
-11.075
-11.0748
-11.0747
-11.0744
-11.0742
-11.074
-11.0738
-11.0736
-11.0734
-11.0732
-11.073
-11.0728
-11.0726
-11.0724
-11.0722
-11.072
-11.0718
-11.0716
-11.0714
-11.0712
-11.0711
-11.0708
-11.0706
-11.0704
-11.0702
-11.0701
-11.0698
-11.0696
-11.0694
-11.0692
-11.069
-11.0688
-11.0686
-11.0684
-11.0682
-11.068
-11.0678
-11.0676
-11.0674
-11.0672
-11.067
-11.0668
-11.0666
-11.0664
-11.0662
-11.066
-11.0657
-11.0656
-11.0654
-11.0652
-11.065
-11.0647
-11.0645
-11.0644
-11.0642
-11.0639
-11.0637
-11.0635
-11.0633
-11.0631
-11.0629
-11.0627
-11.0625
-11.0623
-11.0621
-11.0619
-11.0617
-11.0615
-11.0613
-11.061
-11.0608
-11.0607
-11.0605
-11.0603
-11.06
-11.0598
-11.0596
-11.0594
-11.0592
-11.059
-11.0588
-11.0586
-11.0584
-11.0582
-11.058
-11.0578
-11.0576
-11.0573
-11.0571
-11.0569
-11.0567
-11.0565
-11.0563
-11.0561
-11.0559
-11.0557
-11.0555
-11.0553
-11.055
-11.0548
-11.0546
-11.0544
-11.0542
-11.054
-11.0538
-11.0536
-11.0534
-11.0532
-11.0529
-11.0528
-11.0526
-11.0523
-11.0521
-11.0519
-11.0517
-11.0515
-11.0513
-11.0511
-11.0508
-11.0506
-11.0504
-11.0502
-11.05
-11.0498
-11.0496
-11.0494
-11.0492
-11.049
-11.0488
-11.0486
-11.0483
-11.0481
-11.0479
-11.0477
-11.0475
-11.0473
-11.0471
-11.0468
-11.0466
-11.0464
-11.0462
-11.046
-11.0458
-11.0456
-11.0454
-11.0452
-11.045
-11.0447
-11.0445
-11.0443
-11.0441
-11.0439
-11.0437
-11.0435
-11.0433
-11.043
-11.0428
-11.0426
-11.0424
-11.0422
-11.042
-11.0417
-11.0415
-11.0413
-11.0411
-11.0409
-11.0407
-11.0404
-11.0402
-11.04
-11.0398
-11.0396
-11.0394
-11.0392
-11.0389
-11.0387
-11.0385
-11.0383
-11.0381
-11.0379
-11.0376
-11.0374
-11.0372
-11.037
-11.0368
-11.0366
-11.0363
-11.0361
-11.0359
-11.0357
-11.0355
-11.0353
-11.035
-11.0348
-11.0346
-11.0344
-11.0342
-11.034
-11.0338
-11.0335
-11.0333
-11.0331
-11.0329
-11.0327
-11.0324
-11.0322
-11.032
-11.0318
-11.0316
-11.0314
-11.0311
-11.0309
-11.0307
-11.0305
-11.0303
-11.03
-11.0298
-11.0296
-11.0294
-11.0291
-11.0289
-11.0287
-11.0285
-11.0283
-11.028
-11.0278
-11.0276
-11.0274
-11.0272
-11.0269
-11.0267
-11.0265
-11.0263
-11.0261
-11.0259
-11.0256
-11.0254
-11.0252
-11.0249
-11.0247
-11.0245
-11.0243
-11.0241
-11.0238
-11.0236
-11.0234
-11.0232
-11.023
-11.0227
-11.0225
-11.0223
-11.0221
-11.0218
-11.0216
-11.0214
-11.0211
-11.0209
-11.0207
-11.0205
-11.0203
-11.0201
-11.0198
-11.0196
-11.0194
-11.0191
-11.0189
-11.0187
-11.0185
-11.0182
-11.018
-11.0178
-11.0176
-11.0174
-11.0171
-11.0169
-11.0166
-11.0164
-11.0162
-11.016
-11.0158
-11.0155
-11.0153
-11.0151
-11.0148
-11.0146
-11.0144
-11.0142
-11.0139
-11.0137
-11.0135
-11.0133
-11.013
-11.0128
-11.0126
-11.0123
-11.0121
-11.0119
-11.0117
-11.0114
-11.0112
-11.011
-11.0107
-11.0105
-11.0103
-11.0101
-11.0098
-11.0096
-11.0094
-11.0091
-11.0089
-11.0087
-11.0085
-11.0082
-11.008
-11.0077
-11.0075
-11.0073
-11.0071
-11.0068
-11.0066
-11.0064
-11.0061
-11.0059
-11.0057
-11.0054
-11.0052
-11.005
-11.0047
-11.0045
-11.0043
-11.0041
-11.0038
-11.0036
-11.0034
-11.0031
-11.0029
-11.0027
-11.0024
-11.0022
-11.0019
-11.0017
-11.0015
-11.0013
-11.001
-11.0008
-11.0005
-11.0003
-11.0001
-10.9999
-10.9996
-10.9994
-10.9991
-10.9989
-10.9987
-10.9984
-10.9982
-10.998
-10.9977
-10.9975
-10.9972
-10.997
-10.9968
-10.9966
-10.9963
-10.9961
-10.9958
-10.9956
-10.9954
-10.9951
-10.9949
-10.9947
-10.9944
-10.9942
-10.9939
-10.9937
-10.9935
-10.9932
-10.993
-10.9928
-10.9925
-10.9923
-10.992
-10.9918
-10.9916
-10.9913
-10.9911
-10.9908
-10.9906
-10.9904
-10.9901
-10.9899
-10.9896
-10.9894
-10.9891
-10.9889
-10.9887
-10.9884
-10.9882
-10.988
-10.9877
-10.9875
-10.9872
-10.987
-10.9867
-10.9865
-10.9863
-10.986
-10.9858
-10.9855
-10.9853
-10.9851
-10.9848
-10.9846
-10.9843
-10.9841
-10.9838
-10.9836
-10.9833
-10.9831
-10.9829
-10.9826
-10.9824
-10.9821
-10.9819
-10.9816
-10.9814
-10.9811
-10.9809
-10.9806
-10.9804
-10.9802
-10.9799
-10.9797
-10.9794
-10.9792
-10.9789
-10.9787
-10.9784
-10.9782
-10.9779
-10.9777
-10.9774
-10.9772
-10.9769
-10.9767
-10.9765
-10.9762
-10.976
-10.9757
-10.9755
-10.9752
-10.975
-10.9747
-10.9745
-10.9742
-10.974
-10.9737
-10.9735
-10.9732
-10.973
-10.9727
-10.9725
-10.9722
-10.972
-10.9717
-10.9715
-10.9712
-10.971
-10.9707
-10.9705
-10.9702
-10.97
-10.9697
-10.9694
-10.9692
-10.9689
-10.9687
-10.9684
-10.9682
-10.9679
-10.9677
-10.9674
-10.9672
-10.9669
-10.9667
-10.9664
-10.9662
-10.9659
-10.9656
-10.9654
-10.9651
-10.9649
-10.9646
-10.9644
-10.9641
-10.9639
-10.9636
-10.9634
-10.9631
-10.9628
-10.9626
-10.9623
-10.9621
-10.9618
-10.9616
-10.9613
-10.961
-10.9608
-10.9605
-10.9602
-10.96
-10.9597
-10.9595
-10.9592
-10.959
-10.9587
-10.9584
-10.9582
-10.9579
-10.9577
-10.9574
-10.9571
-10.9569
-10.9566
-10.9564
-10.9561
-10.9559
-10.9556
-10.9553
-10.9551
-10.9548
-10.9545
-10.9543
-10.954
-10.9538
-10.9535
-10.9532
-10.9529
-10.9527
-10.9524
-10.9522
-10.9519
-10.9516
-10.9514
-10.9511
-10.9508
-10.9506
-10.9503
-10.9501
-10.9498
-10.9495
-10.9492
-10.949
-10.9487
-10.9484
-10.9482
-10.9479
-10.9477
-10.9474
-10.9471
-10.9468
-10.9466
-10.9463
-10.9461
-10.9458
-10.9455
-10.9452
-10.945
-10.9447
-10.9444
-10.9442
-10.9439
-10.9436
-10.9433
-10.9431
-10.9428
-10.9425
-10.9423
-10.942
-10.9417
-10.9415
-10.9412
-10.9409
-10.9406
-10.9404
-10.9401
-10.9398
-10.9396
-10.9393
-10.939
-10.9387
-10.9384
-10.9382
-10.9379
-10.9376
-10.9374
-10.9371
-10.9368
-10.9365
-10.9363
-10.936
-10.9357
-10.9354
-10.9351
-10.9349
-10.9346
-10.9343
-10.934
-10.9338
-10.9335
-10.9332
-10.9329
-10.9326
-10.9324
-10.9321
-10.9318
-10.9315
-10.9313
-10.931
-10.9307
-10.9304
-10.9301
-10.9299
-10.9296
-10.9293
-10.929
-10.9287
-10.9284
-10.9281
-10.9279
-10.9276
-10.9273
-10.927
-10.9267
-10.9264
-10.9262
-10.9259
-10.9256
-10.9253
-10.925
-10.9247
-10.9245
-10.9242
-10.9239
-10.9236
-10.9233
-10.923
-10.9227
-10.9225
-10.9222
-10.9219
-10.9216
-10.9213
-10.921
-10.9207
-10.9204
-10.9201
-10.9198
-10.9196
-10.9193
-10.919
-10.9187
-10.9184
-10.9181
-10.9178
-10.9175
-10.9172
-10.9169
-10.9167
-10.9164
-10.9161
-10.9158
-10.9155
-10.9152
-10.9149
-10.9146
-10.9143
-10.914
-10.9137
-10.9134
-10.9131
-10.9128
-10.9125
-10.9122
-10.9119
-10.9116
-10.9113
-10.911
-10.9107
-10.9104
-10.9102
-10.9099
-10.9096
-10.9093
-10.909
-10.9086
-10.9083
-10.908
-10.9078
-10.9075
-10.9072
-10.9068
-10.9065
-10.9062
-10.9059
-10.9056
-10.9053
-10.905
-10.9047
-10.9044
-10.9041
-10.9038
-10.9035
-10.9032
-10.9029
-10.9026
-10.9023
-10.902
-10.9017
-10.9014
-10.901
-10.9007
-10.9004
-10.9001
-10.8998
-10.8995
-10.8992
-10.8989
-10.8986
-10.8983
-10.898
-10.8976
-10.8973
-10.897
-10.8967
-10.8964
-10.8961
-10.8958
-10.8955
-10.8951
-10.8948
-10.8945
-10.8942
-10.8939
-10.8936
-10.8932
-10.8929
-10.8926
-10.8923
-10.892
-10.8917
-10.8913
-10.891
-10.8907
-10.8904
-10.8901
-10.8897
-10.8894
-10.8891
-10.8888
-10.8885
-10.8881
-10.8878
-10.8875
-10.8872
-10.8868
-10.8865
-10.8862
-10.8859
-10.8855
-10.8852
-10.8849
-10.8846
-10.8842
-10.8839
-10.8836
-10.8833
-10.8829
-10.8826
-10.8823
-10.8819
-10.8816
-10.8813
-10.881
-10.8806
-10.8803
-10.88
-10.8796
-10.8793
-10.879
-10.8786
-10.8783
-10.878
-10.8776
-10.8773
-10.8769
-10.8766
-10.8763
-10.8759
-10.8756
-10.8753
-10.8749
-10.8746
-10.8742
-10.8739
-10.8736
-10.8732
-10.8729
-10.8726
-10.8722
-10.8719
-10.8715
-10.8712
-10.8708
-10.8705
-10.8702
-10.8698
-10.8695
-10.8691
-10.8688
-10.8684
-10.8681
-10.8677
-10.8674
-10.867
-10.8667
-10.8663
-10.866
-10.8656
-10.8653
-10.8649
-10.8646
-10.8642
-10.8639
-10.8635
-10.8631
-10.8628
-10.8624
-10.8621
-10.8617
-10.8614
-10.861
-10.8607
-10.8603
-10.8599
-10.8596
-10.8592
-10.8589
-10.8585
-10.8581
-10.8578
-10.8574
-10.857
-10.8567
-10.8563
-10.8559
-10.8556
-10.8552
-10.8549
-10.8545
-10.8541
-10.8537
-10.8534
-10.853
-10.8526
-10.8523
-10.8519
-10.8515
-10.8512
-10.8508
-10.8504
-10.85
-10.8496
-10.8493
-10.8489
-10.8485
-10.8482
-10.8478
-10.8474
-10.847
-10.8466
-10.8462
-10.8459
-10.8455
-10.8451
-10.8447
-10.8443
-10.8439
-10.8436
-10.8432
-10.8428
-10.8424
-10.842
-10.8416
-10.8412
-10.8408
-10.8405
-10.8401
-10.8397
-10.8393
-10.8389
-10.8385
-10.8381
-10.8377
-10.8373
-10.8369
-10.8365
-10.8361
-10.8357
-10.8353
-10.8349
-10.8345
-10.8341
-10.8337
-10.8333
-10.8329
-10.8325
-10.8321
-10.8317
-10.8313
-10.8309
-10.8305
-10.8301
-10.8296
-10.8292
-10.8288
-10.8284
-10.828
-10.8276
-10.8272
-10.8268
-10.8263
-10.8259
-10.8255
-10.8251
-10.8247
-10.8243
-10.8238
-10.8234
-10.823
-10.8226
-10.8221
-10.8217
-10.8213
-10.8209
-10.8204
-10.82
-10.8196
-10.8191
-10.8187
-10.8183
-10.8179
-10.8174
-10.817
-10.8166
-10.8161
-10.8157
-10.8152
-10.8148
-10.8143
-10.8139
-10.8135
-10.813
-10.8126
-10.8121
-10.8117
-10.8112
-10.8108
-10.8103
-10.8099
-10.8094
-10.809
-10.8085
-10.8081
-10.8076
-10.8072
-10.8067
-10.8063
-10.8058
-10.8053
-10.8049
-10.8044
-10.804
-10.8035
-10.803
-10.8026
-10.8021
-10.8016
-10.8012
-10.8007
-10.8002
-10.7997
-10.7993
-10.7988
-10.7983
-10.7978
-10.7974
-10.7969
-10.7964
-10.7959
-10.7954
-10.7949
-10.7945
-10.794
-10.7935
-10.793
-10.7925
-10.792
-10.7915
-10.791
-10.7905
-10.79
-10.7895
-10.789
-10.7885
-10.788
-10.7875
-10.787
-10.7865
-10.786
-10.7855
-10.785
-10.7845
-10.784
-10.7835
-10.783
-10.7824
-10.7819
-10.7814
-10.7809
-10.7804
-10.7798
-10.7793
-10.7788
-10.7783
-10.7777
-10.7772
-10.7767
-10.7761
-10.7756
-10.7751
-10.7745
-10.774
-10.7735
-10.7729
-10.7724
-10.7718
-10.7713
-10.7707
-10.7702
-10.7696
-10.7691
-10.7685
-10.768
-10.7674
-10.7669
-10.7663
-10.7657
-10.7652
-10.7646
-10.764
-10.7635
-10.7629
-10.7623
-10.7618
-10.7612
-10.7606
-10.76
-10.7594
-10.7589
-10.7583
-10.7577
-10.7571
-10.7565
-10.7559
-10.7553
-10.7547
-10.7541
-10.7535
-10.7529
-10.7523
-10.7517
-10.7511
-10.7505
-10.7499
-10.7493
-10.7487
-10.7481
-10.7474
-10.7468
-10.7462
-10.7456
-10.745
-10.7443
-10.7437
-10.7431
-10.7424
-10.7418
-10.7412
-10.7405
-10.7399
-10.7392
-10.7386
-10.7379
-10.7373
-10.7366
-10.736
-10.7353
-10.7347
-10.734
-10.7333
-10.7327
-10.732
-10.7313
-10.7307
-10.73
-10.7293
-10.7286
-10.7279
-10.7272
-10.7266
-10.7259
-10.7252
-10.7245
-10.7238
-10.7231
-10.7224
-10.7217
-10.721
-10.7203
-10.7195
-10.7188
-10.7181
-10.7174
-10.7167
-10.716
-10.7152
-10.7145
-10.7138
-10.713
-10.7123
-10.7115
-10.7108
-10.71
-10.7093
-10.7085
-10.7078
-10.707
-10.7062
-10.7055
-10.7047
-10.7039
-10.7032
-10.7024
-10.7016
-10.7008
-10.7
-10.6992
-10.6984
-10.6977
-10.6969
-10.696
-10.6953
-10.6944
-10.6936
-10.6928