/*--------------------------------*- C++ -*----------------------------------*\
  =========                 |
  \\      /  F ield         | OpenFOAM: The Open Source CFD Toolbox
   \\    /   O peration     | Website:  https://openfoam.org
    \\  /    A nd           | Version:  9
     \\/     M anipulation  |
\*---------------------------------------------------------------------------*/
FoamFile
{
    format      ascii;
    class       surfaceScalarField;
    location    "0.032";
    object      ddtCorrDdt0(phi);
}
// * * * * * * * * * * * * * * * * * * * * * * * * * * * * * * * * * * * * * //

dimensions      [1 0 -2 0 0 0 0];

internalField   nonuniform List<scalar> 
9999
(
-14.3912
-17.9397
-21.4868
-25.0335
-28.5826
-32.1335
-35.682
-39.226
-42.7687
-46.3146
-49.8631
-53.4103
-56.9553
-60.5033
-64.0587
-67.6188
-71.1744
-74.7182
-78.2527
-81.7889
-85.3361
-88.892
-92.445
-95.9856
-99.5156
-103.047
-106.591
-110.152
-113.714
-117.264
-120.795
-124.315
-127.841
-131.385
-134.948
-138.518
-142.079
-145.618
-149.133
-152.638
-156.154
-159.693
-163.26
-166.845
-170.43
-173.993
-177.525
-181.029
-184.52
-188.021
-191.551
-195.115
-198.701
-202.294
-205.879
-209.443
-212.976
-216.476
-219.953
-223.429
-226.919
-230.432
-233.978
-237.559
-241.165
-244.781
-248.395
-251.992
-255.558
-259.089
-262.586
-266.053
-269.506
-272.958
-276.415
-279.884
-283.367
-286.875
-290.429
-294.022
-297.639
-301.277
-304.947
-308.635
-312.324
-316.023
-319.725
-323.411
-327.092
-330.759
-334.403
-338.035
-341.642
-345.231
-348.803
-352.361
-355.912
-359.473
-363.05
-366.67
-370.351
-373.921
-377.481
-381.03
-384.58
-388.131
-391.677
-395.232
-398.779
-402.333
-405.888
-409.435
-412.992
-416.545
-420.09
-423.646
-427.2
-430.744
-434.295
-437.852
-441.402
-444.947
-448.495
-452.052
-455.612
-459.161
-462.704
-466.248
-469.792
-473.342
-476.898
-480.452
-484.005
-487.559
-491.111
-494.661
-498.211
-501.763
-505.313
-508.863
-512.414
-515.968
-519.522
-523.072
-526.623
-530.176
-533.73
-537.282
-540.831
-544.379
-547.929
-551.482
-555.036
-558.588
-562.136
-565.683
-569.229
-572.775
-576.323
-579.873
-583.425
-586.976
-590.528
-594.08
-597.633
-601.184
-604.734
-608.284
-611.835
-615.385
-618.934
-622.483
-626.033
-629.584
-633.137
-636.689
-640.24
-643.79
-647.34
-650.892
-654.444
-657.997
-661.549
-665.098
-668.645
-672.192
-675.738
-679.285
-682.833
-686.382
-689.932
-693.483
-697.033
-700.584
-704.134
-707.684
-711.235
-714.786
-718.336
-721.885
-725.434
-728.983
-732.533
-736.083
-739.632
-743.181
-746.73
-750.279
-753.83
-757.381
-760.934
-764.486
-768.037
-771.586
-775.135
-778.682
-782.229
-785.775
-789.323
-792.871
-796.42
-799.969
-803.518
-807.067
-810.617
-814.167
-817.716
-821.266
-824.814
-828.363
-831.913
-835.462
-839.012
-842.561
-846.109
-849.657
-853.205
-856.752
-860.301
-863.851
-867.401
-870.951
-874.501
-878.051
-881.6
-885.148
-888.695
-892.243
-895.79
-899.338
-902.885
-906.434
-909.982
-913.53
-917.079
-920.628
-924.177
-927.725
-931.273
-934.821
-938.369
-941.918
-945.466
-949.015
-952.563
-956.111
-959.658
-963.206
-966.754
-970.302
-973.85
-977.399
-980.947
-984.495
-988.043
-991.59
-995.137
-998.684
-1002.23
-1005.78
-1009.33
-1012.87
-1016.42
-1019.97
-1023.52
-1027.07
-1030.61
-1034.16
-1037.71
-1041.26
-1044.8
-1048.35
-1051.9
-1055.45
-1058.99
-1062.54
-1066.09
-1069.63
-1073.18
-1076.73
-1080.28
-1083.82
-1087.37
-1090.92
-1094.47
-1098.01
-1101.56
-1105.1
-1108.65
-1112.2
-1115.74
-1119.29
-1122.84
-1126.38
-1129.93
-1133.48
-1137.03
-1140.57
-1144.12
-1147.67
-1151.22
-1154.76
-1158.31
-1161.86
-1165.4
-1168.95
-1172.5
-1176.04
-1179.59
-1183.13
-1186.68
-1190.23
-1193.77
-1197.32
-1200.87
-1204.41
-1207.96
-1211.5
-1215.05
-1218.59
-1222.14
-1225.68
-1229.23
-1232.77
-1236.32
-1239.87
-1243.41
-1246.96
-1250.51
-1254.05
-1257.6
-1261.15
-1264.69
-1268.24
-1271.79
-1275.33
-1278.88
-1282.42
-1285.97
-1289.51
-1293.06
-1296.6
-1300.15
-1303.69
-1307.24
-1310.79
-1314.33
-1317.88
-1321.42
-1324.97
-1328.51
-1332.06
-1335.6
-1339.14
-1342.69
-1346.23
-1349.78
-1353.32
-1356.86
-1360.41
-1363.96
-1367.5
-1371.05
-1374.59
-1378.14
-1381.68
-1385.23
-1388.78
-1392.32
-1395.87
-1399.41
-1402.96
-1406.5
-1410.04
-1413.59
-1417.13
-1420.68
-1424.22
-1427.77
-1431.31
-1434.86
-1438.4
-1441.94
-1445.49
-1449.03
-1452.57
-1456.12
-1459.66
-1463.2
-1466.75
-1470.29
-1473.83
-1477.38
-1480.92
-1484.47
-1488.01
-1491.55
-1495.1
-1498.64
-1502.19
-1505.73
-1509.28
-1512.82
-1516.37
-1519.91
-1523.45
-1527
-1530.54
-1534.09
-1537.63
-1541.17
-1544.72
-1548.26
-1551.8
-1555.35
-1558.89
-1562.43
-1565.97
-1569.51
-1573.06
-1576.6
-1580.14
-1583.68
-1587.23
-1590.77
-1594.31
-1597.85
-1601.4
-1604.94
-1608.48
-1612.03
-1615.57
-1619.11
-1622.66
-1626.2
-1629.74
-1633.29
-1636.83
-1640.37
-1643.92
-1647.46
-1651
-1654.55
-1658.09
-1661.63
-1665.17
-1668.72
-1672.26
-1675.8
-1679.34
-1682.88
-1686.42
-1689.96
-1693.5
-1697.05
-1700.59
-1704.13
-1707.67
-1711.21
-1714.75
-1718.3
-1721.84
-1725.38
-1728.92
-1732.46
-1736.01
-1739.55
-1743.09
-1746.63
-1750.17
-1753.71
-1757.26
-1760.8
-1764.34
-1767.88
-1771.43
-1774.97
-1778.51
-1782.05
-1785.59
-1789.13
-1792.67
-1796.21
-1799.75
-1803.29
-1806.83
-1810.38
-1813.92
-1817.46
-1821
-1824.54
-1828.08
-1831.62
-1835.16
-1838.7
-1842.24
-1845.78
-1849.32
-1852.86
-1856.4
-1859.94
-1863.48
-1867.02
-1870.56
-1874.1
-1877.65
-1881.19
-1884.73
-1888.27
-1891.81
-1895.35
-1898.89
-1902.43
-1905.97
-1909.51
-1913.05
-1916.59
-1920.13
-1923.67
-1927.21
-1930.75
-1934.29
-1937.83
-1941.37
-1944.9
-1948.44
-1951.98
-1955.52
-1959.06
-1962.6
-1966.14
-1969.68
-1973.22
-1976.76
-1980.3
-1983.84
-1987.38
-1990.92
-1994.46
-1997.99
-2001.53
-2005.07
-2008.61
-2012.15
-2015.69
-2019.23
-2022.77
-2026.31
-2029.85
-2033.39
-2036.93
-2040.46
-2044
-2047.54
-2051.08
-2054.62
-2058.16
-2061.69
-2065.23
-2068.77
-2072.31
-2075.85
-2079.38
-2082.92
-2086.46
-2090
-2093.54
-2097.08
-2100.61
-2104.15
-2107.69
-2111.23
-2114.77
-2118.3
-2121.84
-2125.38
-2128.92
-2132.46
-2135.99
-2139.53
-2143.07
-2146.61
-2150.14
-2153.68
-2157.22
-2160.76
-2164.29
-2167.83
-2171.37
-2174.91
-2178.44
-2181.98
-2185.52
-2189.05
-2192.59
-2196.13
-2199.67
-2203.2
-2206.74
-2210.28
-2213.81
-2217.35
-2220.89
-2224.42
-2227.96
-2231.5
-2235.03
-2238.57
-2242.11
-2245.64
-2249.18
-2252.72
-2256.25
-2259.79
-2263.33
-2266.86
-2270.4
-2273.93
-2277.47
-2281.01
-2284.54
-2288.08
-2291.61
-2295.15
-2298.69
-2302.22
-2305.76
-2309.29
-2312.83
-2316.36
-2319.9
-2323.44
-2326.97
-2330.51
-2334.04
-2337.58
-2341.12
-2344.65
-2348.19
-2351.72
-2355.26
-2358.79
-2362.33
-2365.86
-2369.4
-2372.93
-2376.47
-2380
-2383.54
-2387.07
-2390.61
-2394.14
-2397.68
-2401.21
-2404.75
-2408.28
-2411.81
-2415.35
-2418.88
-2422.42
-2425.95
-2429.49
-2433.02
-2436.56
-2440.09
-2443.62
-2447.16
-2450.69
-2454.23
-2457.76
-2461.3
-2464.83
-2468.37
-2471.9
-2475.43
-2478.97
-2482.5
-2486.04
-2489.57
-2493.1
-2496.64
-2500.17
-2503.71
-2507.24
-2510.77
-2514.31
-2517.84
-2521.37
-2524.91
-2528.44
-2531.97
-2535.5
-2539.04
-2542.57
-2546.1
-2549.63
-2553.17
-2556.7
-2560.23
-2563.77
-2567.3
-2570.83
-2574.37
-2577.9
-2581.43
-2584.96
-2588.5
-2592.03
-2595.56
-2599.1
-2602.63
-2606.16
-2609.7
-2613.23
-2616.76
-2620.29
-2623.82
-2627.36
-2630.89
-2634.42
-2637.95
-2641.49
-2645.02
-2648.55
-2652.08
-2655.61
-2659.14
-2662.67
-2666.21
-2669.74
-2673.27
-2676.8
-2680.33
-2683.86
-2687.39
-2690.92
-2694.45
-2697.99
-2701.52
-2705.05
-2708.58
-2712.11
-2715.65
-2719.18
-2722.71
-2726.24
-2729.77
-2733.3
-2736.83
-2740.36
-2743.89
-2747.43
-2750.96
-2754.49
-2758.02
-2761.55
-2765.08
-2768.61
-2772.14
-2775.67
-2779.2
-2782.73
-2786.26
-2789.79
-2793.32
-2796.85
-2800.38
-2803.91
-2807.44
-2810.96
-2814.49
-2818.03
-2821.56
-2825.09
-2828.62
-2832.15
-2835.68
-2839.21
-2842.73
-2846.26
-2849.79
-2853.32
-2856.85
-2860.39
-2863.92
-2867.45
-2870.97
-2874.51
-2878.03
-2881.56
-2885.08
-2888.61
-2892.14
-2895.68
-2899.22
-2902.74
-2906.27
-2909.79
-2913.33
-2916.84
-2920.36
-2923.91
-2927.43
-2930.96
-2934.5
-2938.02
-2941.55
-2945.08
-2948.61
-2952.13
-2955.65
-2959.18
-2962.71
-2966.24
-2969.78
-2973.28
-2976.84
-2980.33
-2983.9
-2987.4
-2990.94
-2994.46
-2997.99
-3001.54
-3005.03
-3008.62
-3012.05
-3015.68
-3019.11
-3022.71
-3026.21
-3029.74
-3033.28
-3036.76
-3040.39
-3043.77
-3047.45
-3050.83
-3054.47
-3057.97
-3061.46
-3065.06
-3068.47
-3072.14
-3075.53
-3079.15
-3082.63
-3086.15
-3089.75
-3093.14
-3096.83
-3100.2
-3103.85
-3107.3
-3110.81
-3114.46
-3117.79
-3121.55
-3124.87
-3128.52
-3132.04
-3135.45
-3139.16
-3142.48
-3146.19
-3149.61
-3153.12
-3156.76
-3160.09
-3163.88
-3167.16
-3170.82
-3174.35
-3177.74
-3181.5
-3184.77
-3188.49
-3191.94
-3195.38
-3199.13
-3202.37
-3206.16
-3209.54
-3212.99
-3216.76
-3220.04
-3223.72
-3227.14
-3230.71
-3234.31
-3237.55
-3241.53
-3244.7
-3248.31
-3251.95
-3255.21
-3259.09
-3262.3
-3265.97
-3269.58
-3272.83
-3276.69
-3279.93
-3283.6
-3287.18
-3290.43
-3294.33
-3297.55
-3301.21
-3304.83
-3308.05
-3311.96
-3315.17
-3318.78
-3322.49
-3325.64
-3329.56
-3332.83
-3336.34
-3340.15
-3343.24
-3347.14
-3350.52
-3353.87
-3357.81
-3360.88
-3364.67
-3368.25
-3371.4
-3375.42
-3378.58
-3382.15
-3385.97
-3388.98
-3392.96
-3396.33
-3399.61
-3403.64
-3406.66
-3410.41
-3414.12
-3417.14
-3421.19
-3424.44
-3427.83
-3431.83
-3434.78
-3438.63
-3442.24
-3445.28
-3449.46
-3452.61
-3455.96
-3460.02
-3462.93
-3466.82
-3470.43
-3473.46
-3477.6
-3480.74
-3484.17
-3488.19
-3491.11
-3494.99
-3498.59
-3501.61
-3505.76
-3508.94
-3512.31
-3516.38
-3519.28
-3523.09
-3526.83
-3529.75
-3533.87
-3537.19
-3540.37
-3544.56
-3547.53
-3551.11
-3555.1
-3557.92
-3561.88
-3565.52
-3568.45
-3572.64
-3575.88
-3579.09
-3583.29
-3586.23
-3589.82
-3593.83
-3596.64
-3600.59
-3604.27
-3607.15
-3611.33
-3614.64
-3617.75
-3622
-3625
-3628.44
-3632.59
-3635.39
-3639.18
-3643.09
-3645.83
-3649.93
-3653.51
-3656.36
-3660.66
-3663.89
-3666.97
-3671.33
-3674.25
-3677.64
-3681.92
-3684.63
-3688.36
-3692.44
-3695.06
-3699.1
-3702.9
-3705.54
-3709.82
-3713.32
-3716.09
-3720.52
-3723.71
-3726.7
-3731.17
-3734.1
-3737.34
-3741.77
-3744.49
-3748.02
-3752.32
-3754.92
-3758.72
-3762.83
-3765.38
-3769.41
-3773.3
-3775.87
-3780.1
-3783.75
-3786.4
-3790.77
-3794.19
-3796.97
-3801.41
-3804.61
-3807.56
-3812.03
-3815.04
-3818.17
-3822.63
-3825.48
-3828.79
-3833.2
-3835.93
-3839.42
-3843.75
-3846.39
-3850.05
-3854.29
-3856.86
-3860.68
-3864.82
-3867.35
-3871.31
-3875.34
-3877.85
-3881.92
-3885.85
-3888.36
-3892.53
-3896.36
-3898.88
-3903.12
-3906.88
-3909.4
-3913.71
-3917.4
-3919.93
-3924.29
-3927.93
-3930.46
-3934.86
-3938.46
-3940.99
-3945.41
-3948.99
-3951.52
-3955.96
-3959.54
-3962.06
-3966.5
-3970.09
-3972.6
-3977.03
-3980.64
-3983.14
-3987.56
-3991.21
-3993.68
-3998.07
-4001.77
-4004.22
-4008.58
-4012.33
-4014.77
-4019.07
-4022.9
-4025.32
-4029.57
-4033.47
-4035.88
-4040.05
-4044.04
-4046.44
-4050.53
-4054.61
-4057.01
-4061
-4065.18
-4067.59
-4071.46
-4075.74
-4078.17
-4081.91
-4086.29
-4088.78
-4092.36
-4096.84
-4099.39
-4102.81
-4107.37
-4110.02
-4113.26
-4117.89
-4120.67
-4123.71
-4128.38
-4131.33
-4134.17
-4138.84
-4142
-4144.66
-4149.26
-4152.68
-4155.17
-4159.66
-4163.34
-4165.73
-4170.04
-4173.99
-4176.32
-4180.4
-4184.6
-4186.96
-4190.75
-4195.17
-4197.63
-4201.11
-4205.7
-4208.33
-4211.49
-4216.17
-4219.06
-4221.92
-4226.58
-4229.79
-4232.39
-4236.95
-4240.51
-4242.93
-4247.27
-4251.2
-4253.54
-4257.56
-4261.83
-4264.22
-4267.86
-4272.38
-4274.96
-4278.19
-4282.84
-4285.74
-4288.59
-4293.21
-4296.51
-4299.08
-4303.52
-4307.25
-4309.65
-4313.8
-4317.91
-4320.32
-4324.07
-4328.48
-4331.07
-4334.37
-4338.95
-4341.86
-4344.74
-4349.32
-4352.64
-4355.21
-4359.6
-4363.39
-4365.81
-4369.83
-4374.05
-4376.53
-4380.06
-4384.59
-4387.33
-4390.36
-4394.97
-4398.17
-4400.79
-4405.23
-4408.96
-4411.38
-4415.42
-4419.64
-4422.12
-4425.62
-4430.16
-4432.96
-4435.93
-4440.5
-4443.82
-4446.4
-4450.71
-4454.59
-4457.05
-4460.88
-4465.21
-4467.84
-4471.12
-4475.64
-4478.69
-4481.49
-4485.9
-4489.51
-4492.05
-4496.09
-4500.21
-4502.78
-4506.28
-4510.71
-4513.62
-4516.59
-4521.03
-4524.46
-4527.07
-4531.23
-4535.21
-4537.76
-4541.39
-4545.77
-4548.6
-4551.64
-4556.11
-4559.49
-4562.1
-4566.28
-4570.26
-4572.8
-4576.41
-4580.81
-4583.68
-4586.66
-4591.1
-4594.58
-4597.15
-4601.23
-4605.32
-4607.92
-4611.35
-4615.79
-4618.83
-4621.67
-4626.01
-4629.69
-4632.27
-4636.11
-4640.33
-4643.1
-4646.31
-4650.69
-4653.99
-4656.74
-4660.86
-4664.75
-4667.43
-4671.01
-4675.28
-4678.28
-4681.3
-4685.57
-4689.12
-4691.84
-4695.72
-4699.79
-4702.6
-4705.91
-4710.21
-4713.47
-4716.29
-4720.4
-4724.26
-4726.96
-4730.52
-4734.79
-4737.85
-4740.79
-4745.03
-4748.71
-4751.39
-4755.11
-4759.32
-4762.26
-4765.32
-4769.59
-4773.16
-4775.87
-4779.68
-4783.8
-4786.71
-4789.88
-4794.11
-4797.58
-4800.38
-4804.24
-4808.25
-4811.16
-4814.45
-4818.62
-4822
-4824.9
-4828.8
-4832.69
-4835.61
-4839
-4843.12
-4846.43
-4849.4
-4853.34
-4857.16
-4860.06
-4863.52
-4867.63
-4870.89
-4873.88
-4877.85
-4881.65
-4884.54
-4888
-4892.12
-4895.39
-4898.36
-4902.31
-4906.14
-4909.05
-4912.47
-4916.58
-4919.9
-4922.86
-4926.75
-4930.62
-4933.58
-4936.93
-4941.01
-4944.42
-4947.38
-4951.18
-4955.08
-4958.12
-4961.4
-4965.43
-4968.92
-4971.9
-4975.61
-4979.53
-4982.64
-4985.88
-4989.85
-4993.41
-4996.41
-5000.05
-5003.98
-5007.16
-5010.35
-5014.28
-5017.91
-5020.91
-5024.46
-5028.43
-5031.69
-5034.8
-5038.68
-5042.42
-5045.44
-5048.85
-5052.86
-5056.26
-5059.27
-5063.02
-5066.91
-5070.02
-5073.25
-5077.22
-5080.82
-5083.81
-5087.37
-5091.33
-5094.61
-5097.71
-5101.54
-5105.32
-5108.39
-5111.74
-5115.69
-5119.18
-5122.23
-5125.87
-5129.75
-5132.97
-5136.19
-5140.03
-5143.68
-5146.78
-5150.25
-5154.14
-5157.52
-5160.66
-5164.38
-5168.15
-5171.32
-5174.63
-5178.51
-5182.06
-5185.15
-5188.7
-5192.58
-5195.9
-5199.05
-5202.82
-5206.58
-5209.72
-5213.04
-5216.92
-5220.49
-5223.57
-5227.09
-5230.98
-5234.34
-5237.48
-5241.19
-5244.96
-5248.17
-5251.46
-5255.28
-5258.87
-5262.02
-5265.51
-5269.33
-5272.74
-5275.93
-5279.58
-5283.32
-5286.58
-5289.89
-5293.66
-5297.25
-5300.43
-5303.9
-5307.71
-5311.14
-5314.32
-5317.95
-5321.72
-5325
-5328.25
-5332.01
-5335.68
-5338.86
-5342.24
-5346.05
-5349.59
-5352.74
-5356.26
-5360.07
-5363.46
-5366.65
-5370.29
-5374.05
-5377.33
-5380.6
-5384.34
-5387.99
-5391.2
-5394.59
-5398.36
-5401.89
-5405.09
-5408.6
-5412.36
-5415.78
-5419.01
-5422.62
-5426.34
-5429.65
-5432.96
-5436.65
-5440.28
-5443.53
-5446.93
-5450.66
-5454.19
-5457.42
-5460.91
-5464.66
-5468.09
-5471.33
-5474.92
-5478.64
-5481.98
-5485.25
-5488.92
-5492.59
-5495.87
-5499.2
-5502.92
-5506.52
-5509.77
-5513.17
-5516.9
-5520.44
-5523.67
-5527.14
-5530.87
-5534.34
-5537.59
-5541.13
-5544.83
-5548.23
-5551.52
-5555.12
-5558.77
-5562.12
-5565.46
-5569.11
-5572.71
-5576.01
-5579.41
-5583.09
-5586.63
-5589.9
-5593.37
-5597.07
-5600.55
-5603.81
-5607.33
-5611.04
-5614.46
-5617.72
-5621.28
-5624.99
-5628.37
-5631.64
-5635.24
-5638.92
-5642.29
-5645.58
-5649.19
-5652.85
-5656.2
-5659.53
-5663.15
-5666.76
-5670.1
-5673.48
-5677.1
-5680.66
-5684
-5687.43
-5691.06
-5694.57
-5697.9
-5701.38
-5705.02
-5708.48
-5711.8
-5715.33
-5718.98
-5722.4
-5725.7
-5729.26
-5732.92
-5736.32
-5739.62
-5743.18
-5746.85
-5750.24
-5753.54
-5757.11
-5760.77
-5764.16
-5767.47
-5771.04
-5774.68
-5778.07
-5781.41
-5784.97
-5788.58
-5791.98
-5795.35
-5798.92
-5802.49
-5805.87
-5809.28
-5812.86
-5816.4
-5819.77
-5823.2
-5826.8
-5830.32
-5833.66
-5837.11
-5840.74
-5844.25
-5847.57
-5851.01
-5854.66
-5858.18
-5861.48
-5864.92
-5868.56
-5872.1
-5875.41
-5878.83
-5882.46
-5886.01
-5889.34
-5892.75
-5896.36
-5899.9
-5903.26
-5906.68
-5910.27
-5913.79
-5917.17
-5920.61
-5924.18
-5927.68
-5931.07
-5934.54
-5938.11
-5941.58
-5944.96
-5948.44
-5952.03
-5955.5
-5958.85
-5962.34
-5965.95
-5969.42
-5972.75
-5976.23
-5979.85
-5983.34
-5986.67
-5990.12
-5993.74
-5997.25
-6000.59
-6004.02
-6007.62
-6011.15
-6014.52
-6017.93
-6021.5
-6025.04
-6028.43
-6031.85
-6035.4
-6038.92
-6042.33
-6045.76
-6049.31
-6052.81
-6056.21
-6059.66
-6063.22
-6066.72
-6070.1
-6073.55
-6077.12
-6080.63
-6084
-6087.43
-6091
-6094.54
-6097.91
-6101.31
-6104.87
-6108.44
-6111.83
-6115.21
-6118.74
-6122.32
-6125.74
-6129.12
-6132.62
-6136.19
-6139.64
-6143.03
-6146.52
-6150.06
-6153.52
-6156.93
-6160.42
-6163.95
-6167.4
-6170.81
-6174.31
-6177.85
-6181.3
-6184.69
-6188.18
-6191.74
-6195.2
-6198.58
-6202.05
-6205.62
-6209.11
-6212.48
-6215.92
-6219.48
-6223
-6226.39
-6229.8
-6233.34
-6236.87
-6240.29
-6243.7
-6247.21
-6250.74
-6254.18
-6257.6
-6261.09
-6264.61
-6268.05
-6271.48
-6274.97
-6278.5
-6281.93
-6285.34
-6288.84
-6292.38
-6295.83
-6299.22
-6302.7
-6306.25
-6309.73
-6313.11
-6316.55
-6320.1
-6323.61
-6327.01
-6330.43
-6333.95
-6337.48
-6340.91
-6344.32
-6347.81
-6351.33
-6354.79
-6358.2
-6361.68
-6365.2
-6368.65
-6372.08
-6375.56
-6379.07
-6382.53
-6385.94
-6389.42
-6392.94
-6396.41
-6399.82
-6403.27
-6406.8
-6410.29
-6413.7
-6417.13
-6420.64
-6424.16
-6427.59
-6431
-6434.49
-6438.02
-6441.47
-6444.88
-6448.34
-6451.86
-6455.34
-6458.76
-6462.21
-6465.71
-6469.2
-6472.63
-6476.07
-6479.57
-6483.06
-6486.49
-6489.93
-6493.43
-6496.92
-6500.36
-6503.78
-6507.27
-6510.79
-6514.23
-6517.64
-6521.11
-6524.63
-6528.11
-6531.52
-6534.95
-6538.47
-6541.97
-6545.4
-6548.81
-6552.3
-6555.81
-6559.26
-6562.68
-6566.15
-6569.65
-6573.12
-6576.55
-6580
-6583.5
-6586.97
-6590.41
-6593.85
-6597.35
-6600.83
-6604.26
-6607.7
-6611.19
-6614.68
-6618.12
-6621.54
-6625.02
-6628.53
-6631.99
-6635.4
-6638.85
-6642.36
-6645.85
-6649.27
-6652.7
-6656.18
-6659.68
-6663.13
-6666.55
-6670.02
-6673.51
-6676.98
-6680.41
-6683.86
-6687.35
-6690.82
-6694.26
-6697.7
-6701.18
-6704.67
-6708.11
-6711.54
-6715.01
-6718.5
-6721.96
-6725.38
-6728.84
-6732.34
-6735.81
-6739.23
-6742.67
-6746.16
-6749.65
-6753.09
-6756.51
-6759.98
-6763.48
-6766.94
-6770.36
-6773.8
-6777.29
-6780.77
-6784.21
-6787.64
-6791.11
-6794.6
-6798.05
-6801.49
-6804.94
-6808.42
-6811.88
-6815.32
-6818.77
-6822.26
-6825.72
-6829.15
-6832.59
-6836.07
-6839.56
-6843
-6846.42
-6849.88
-6853.38
-6856.84
-6860.26
-6863.7
-6867.18
-6870.67
-6874.11
-6877.53
-6880.99
-6884.48
-6887.94
-6891.38
-6894.82
-6898.29
-6901.76
-6905.2
-6908.65
-6912.11
-6915.58
-6919.02
-6922.46
-6925.93
-6929.4
-6932.86
-6936.28
-6939.73
-6943.22
-6946.69
-6950.12
-6953.55
-6957.01
-6960.5
-6963.96
-6967.38
-6970.82
-6974.29
-6977.77
-6981.22
-6984.65
-6988.1
-6991.57
-6995.03
-6998.47
-7001.92
-7005.38
-7008.84
-7012.28
-7015.73
-7019.2
-7022.66
-7026.1
-7029.53
-7033
-7036.48
-7039.93
-7043.35
-7046.79
-7050.27
-7053.75
-7057.18
-7060.6
-7064.05
-7067.53
-7071
-7074.44
-7077.87
-7081.32
-7084.79
-7088.25
-7091.69
-7095.13
-7098.59
-7102.04
-7105.49
-7108.94
-7112.4
-7115.85
-7119.29
-7122.73
-7126.19
-7129.66
-7133.1
-7136.53
-7139.97
-7143.45
-7146.92
-7150.35
-7153.77
-7157.22
-7160.69
-7164.16
-7167.59
-7171.02
-7174.47
-7177.93
-7181.39
-7184.83
-7188.27
-7191.72
-7195.17
-7198.61
-7202.06
-7205.52
-7208.97
-7212.4
-7215.84
-7219.3
-7222.77
-7226.21
-7229.63
-7233.06
-7236.53
-7240
-7243.44
-7246.86
-7250.3
-7253.76
-7257.22
-7260.66
-7264.09
-7267.53
-7270.99
-7274.44
-7277.88
-7281.33
-7284.77
-7288.21
-7291.65
-7295.1
-7298.56
-7302.01
-7305.44
-7308.87
-7312.32
-7315.78
-7319.24
-7322.66
-7326.09
-7329.54
-7333.01
-7336.46
-7339.88
-7343.31
-7346.76
-7350.22
-7353.67
-7357.11
-7360.54
-7363.99
-7367.44
-7370.89
-7374.33
-7377.78
-7381.22
-7384.66
-7388.1
-7391.55
-7395.01
-7398.45
-7401.88
-7405.31
-7408.77
-7412.23
-7415.68
-7419.1
-7422.53
-7425.99
-7429.45
-7432.9
-7436.33
-7439.76
-7443.21
-7446.67
-7450.11
-7453.55
-7457
-7460.44
-7463.88
-7467.33
-7470.77
-7474.23
-7477.67
-7481.1
-7484.54
-7487.99
-7491.45
-7494.89
-7498.32
-7501.76
-7505.21
-7508.67
-7512.11
-7515.54
-7518.98
-7522.43
-7525.88
-7529.33
-7532.76
-7536.2
-7539.65
-7543.09
-7546.53
-7549.98
-7553.42
-7556.86
-7560.3
-7563.74
-7567.19
-7570.64
-7574.08
-7577.51
-7580.94
-7584.39
-7587.84
-7591.29
-7594.72
-7598.15
-7601.59
-7605.04
-7608.49
-7611.92
-7615.35
-7618.8
-7622.24
-7625.68
-7629.12
-7632.56
-7636
-7639.44
-7642.87
-7646.31
-7649.75
-7653.19
-7656.63
-7660.06
-7663.49
-7666.94
-7670.39
-7673.82
-7677.24
-7680.68
-7684.13
-7687.57
-7691
-7694.43
-7697.87
-7701.31
-7704.75
-7708.18
-7711.62
-7715.05
-7718.49
-7721.93
-7725.36
-7728.79
-7732.24
-7735.67
-7739.1
-7742.53
-7745.97
-7749.41
-7752.85
-7756.28
-7759.71
-7763.14
-7766.58
-7770.02
-7773.45
-7776.88
-7780.32
-7783.76
-7787.19
-7790.62
-7794.06
-7797.49
-7800.93
-7804.36
-7807.78
-7811.22
-7814.66
-7818.1
-7821.53
-7824.95
-7828.39
-7831.83
-7835.26
-7838.69
-7842.12
-7845.56
-7848.99
-7852.42
-7855.86
-7859.29
-7862.73
-7866.16
-7869.58
-7873.01
-7876.45
-7879.89
-7883.32
-7886.75
-7890.17
-7893.61
-7897.05
-7900.48
-7903.91
-7907.34
-7910.77
-7914.2
-7917.64
-7921.07
-7924.5
-7927.93
-7931.36
-7934.79
-7938.22
-7941.65
-7945.09
-7948.52
-7951.94
-7955.37
-7958.8
-7962.24
-7965.68
-7969.1
-7972.52
-7975.95
-7979.39
-7982.83
-7986.25
-7989.68
-7993.1
-7996.53
-7999.97
-8003.4
-8006.83
-8010.26
-8013.69
-8017.11
-8020.54
-8023.97
-8027.41
-8030.84
-8034.26
-8037.68
-8041.11
-8044.55
-8047.99
-8051.41
-8054.83
-8058.25
-8061.68
-8065.12
-8068.55
-8071.98
-8075.4
-8078.83
-8082.25
-8085.68
-8089.12
-8092.55
-8095.97
-8099.39
-8102.81
-8106.25
-8109.68
-8113.12
-8116.54
-8119.95
-8123.38
-8126.81
-8130.25
-8133.68
-8137.1
-8140.52
-8143.94
-8147.37
-8150.8
-8154.23
-8157.66
-8161.08
-8164.5
-8167.92
-8171.35
-8174.78
-8178.21
-8181.64
-8185.05
-8188.47
-8191.9
-8195.34
-8198.77
-8202.19
-8205.6
-8209.02
-8212.46
-8215.89
-8219.32
-8222.73
-8226.15
-8229.58
-8233
-8236.43
-8239.86
-8243.28
-8246.7
-8250.12
-8253.54
-8256.97
-8260.4
-8263.83
-8267.25
-8270.66
-8274.08
-8277.51
-8280.95
-8284.37
-8287.79
-8291.2
-8294.62
-8298.05
-8301.48
-8304.91
-8308.33
-8311.74
-8315.16
-8318.59
-8322.01
-8325.44
-8328.86
-8332.28
-8335.7
-8339.12
-8342.54
-8345.97
-8349.4
-8352.82
-8356.23
-8359.65
-8363.07
-8366.5
-8369.93
-8373.34
-8376.76
-8380.18
-8383.6
-8387.02
-8390.45
-8393.87
-8397.29
-8400.7
-8404.12
-8407.54
-8410.97
-8414.39
-8417.81
-8421.23
-8424.64
-8428.06
-8431.49
-8434.91
-8438.33
-8441.75
-8445.16
-8448.58
-8452.01
-8455.43
-8458.85
-8462.26
-8465.68
-8469.1
-8472.52
-8475.94
-8479.36
-8482.78
-8486.2
-8489.61
-8493.03
-8496.45
-8499.87
-8503.29
-8506.71
-8510.12
-8513.54
-8516.96
-8520.38
-8523.8
-8527.22
-8530.63
-8534.05
-8537.47
-8540.89
-8544.31
-8547.72
-8551.14
-8554.55
-8557.97
-8561.39
-8564.81
-8568.23
-8571.64
-8575.06
-8578.47
-8581.89
-8585.31
-8588.73
-8592.14
-8595.56
-8598.97
-8602.39
-8605.8
-8609.22
-8612.64
-8616.05
-8619.47
-8622.88
-8626.3
-8629.72
-8633.13
-8636.55
-8639.96
-8643.38
-8646.79
-8650.21
-8653.62
-8657.04
-8660.46
-8663.87
-8667.28
-8670.7
-8674.11
-8677.53
-8680.94
-8684.35
-8687.77
-8691.18
-8694.6
-8698.02
-8701.43
-8704.84
-8708.25
-8711.67
-8715.08
-8718.5
-8721.91
-8725.33
-8728.74
-8732.15
-8735.56
-8738.97
-8742.39
-8745.81
-8749.22
-8752.63
-8756.04
-8759.45
-8762.87
-8766.29
-8769.7
-8773.11
-8776.52
-8779.93
-8783.34
-8786.76
-8790.17
-8793.59
-8797
-8800.41
-8803.81
-8807.23
-8810.64
-8814.06
-8817.47
-8820.88
-8824.29
-8827.7
-8831.11
-8834.53
-8837.94
-8841.35
-8844.76
-8848.17
-8851.58
-8854.99
-8858.4
-8861.82
-8865.23
-8868.64
-8872.04
-8875.45
-8878.86
-8882.28
-8885.69
-8889.1
-8892.51
-8895.92
-8899.33
-8902.74
-8906.15
-8909.56
-8912.97
-8916.38
-8919.79
-8923.2
-8926.61
-8930.02
-8933.43
-8936.84
-8940.25
-8943.65
-8947.06
-8950.47
-8953.88
-8957.29
-8960.7
-8964.11
-8967.52
-8970.93
-8974.34
-8977.75
-8981.15
-8984.56
-8987.97
-8991.38
-8994.79
-8998.2
-9001.61
-9005.01
-9008.42
-9011.83
-9015.24
-9018.64
-9022.05
-9025.46
-9028.87
-9032.28
-9035.68
-9039.09
-9042.5
-9045.91
-9049.32
-9052.72
-9056.13
-9059.54
-9062.94
-9066.35
-9069.76
-9073.16
-9076.57
-9079.98
-9083.39
-9086.79
-9090.2
-9093.61
-9097.01
-9100.42
-9103.83
-9107.23
-9110.64
-9114.05
-9117.45
-9120.86
-9124.26
-9127.67
-9131.08
-9134.48
-9137.89
-9141.29
-9144.7
-9148.1
-9151.51
-9154.92
-9158.32
-9161.73
-9165.13
-9168.54
-9171.94
-9175.35
-9178.76
-9182.16
-9185.57
-9188.97
-9192.37
-9195.78
-9199.18
-9202.59
-9206
-9209.4
-9212.8
-9216.21
-9219.61
-9223.02
-9226.43
-9229.83
-9233.24
-9236.64
-9240.04
-9243.44
-9246.85
-9250.25
-9253.66
-9257.07
-9260.47
-9263.87
-9267.27
-9270.67
-9274.08
-9277.49
-9280.9
-9284.3
-9287.7
-9291.1
-9294.5
-9297.91
-9301.31
-9304.72
-9308.13
-9311.52
-9314.92
-9318.32
-9321.73
-9325.14
-9328.54
-9331.95
-9335.35
-9338.75
-9342.14
-9345.55
-9348.96
-9352.36
-9355.77
-9359.17
-9362.57
-9365.97
-9369.37
-9372.77
-9376.18
-9379.59
-9382.99
-9386.39
-9389.79
-9393.18
-9396.59
-9400
-9403.4
-9406.81
-9410.2
-9413.6
-9417
-9420.4
-9423.81
-9427.22
-9430.62
-9434.02
-9437.42
-9440.81
-9444.22
-9447.62
-9451.03
-9454.43
-9457.83
-9461.23
-9464.63
-9468.03
-9471.43
-9474.84
-9478.24
-9481.65
-9485.04
-9488.44
-9491.84
-9495.24
-9498.64
-9502.05
-9505.45
-9508.85
-9512.25
-9515.65
-9519.05
-9522.45
-9525.86
-9529.26
-9532.66
-9536.06
-9539.46
-9542.85
-9546.25
-9549.66
-9553.07
-9556.47
-9559.87
-9563.26
-9566.66
-9570.06
-9573.46
-9576.87
-9580.27
-9583.67
-9587.07
-9590.47
-9593.86
-9597.27
-9600.67
-9604.08
-9607.48
-9610.88
-9614.27
-9617.67
-9621.07
-9624.47
-9627.88
-9631.28
-9634.68
-9638.08
-9641.47
-9644.87
-9648.27
-9651.67
-9655.08
-9658.48
-9661.88
-9665.28
-9668.67
-9672.07
-9675.47
-9678.88
-9682.28
-9685.68
-9689.08
-9692.47
-9695.87
-9699.27
-9702.67
-9706.08
-9709.48
-9712.88
-9716.28
-9719.67
-9723.07
-9726.47
-9729.88
-9733.28
-9736.68
-9740.08
-9743.47
-9746.87
-9750.27
-9753.67
-9757.08
-9760.48
-9763.88
-9767.28
-9770.67
-9774.07
-9777.47
-9780.87
-9784.28
-9787.68
-9791.08
-9794.48
-9797.87
-9801.27
-9804.67
-9808.07
-9811.48
-9814.88
-9818.28
-9821.67
-9825.07
-9828.47
-9831.87
-9835.27
-9838.68
-9842.08
-9845.48
-9848.87
-9852.27
-9855.67
-9859.07
-9862.47
-9865.88
-9869.28
-9872.68
-9876.07
-9879.47
-9882.87
-9886.27
-9889.68
-9893.08
-9896.48
-9899.88
-9903.27
-9906.67
-9910.07
-9913.47
-9916.88
-9920.28
-9923.68
-9927.08
-9930.48
-9933.88
-9937.28
-9940.68
-9944.08
-9947.48
-9950.88
-9954.28
-9957.68
-9961.08
-9964.48
-9967.88
-9971.28
-9974.68
-9978.09
-9981.48
-9984.89
-9988.29
-9991.69
-9995.09
-9998.49
-10001.9
-10005.3
-10008.7
-10012.1
-10015.5
-10018.9
-10022.3
-10025.7
-10029.1
-10032.5
-10035.9
-10039.3
-10042.7
-10046.1
-10049.5
-10052.9
-10056.3
-10059.7
-10063.1
-10066.5
-10069.9
-10073.3
-10076.7
-10080.1
-10083.5
-10086.9
-10090.3
-10093.7
-10097.1
-10100.5
-10103.9
-10107.3
-10110.7
-10114.1
-10117.6
-10121
-10124.4
-10127.8
-10131.2
-10134.6
-10138
-10141.4
-10144.8
-10148.2
-10151.6
-10155
-10158.4
-10161.8
-10165.2
-10168.6
-10172
-10175.4
-10178.8
-10182.2
-10185.6
-10189
-10192.4
-10195.8
-10199.2
-10202.6
-10206
-10209.4
-10212.9
-10216.3
-10219.7
-10223.1
-10226.5
-10229.9
-10233.3
-10236.7
-10240.1
-10243.5
-10246.9
-10250.3
-10253.7
-10257.1
-10260.5
-10263.9
-10267.3
-10270.7
-10274.2
-10277.6
-10281
-10284.4
-10287.8
-10291.2
-10294.6
-10298
-10301.4
-10304.8
-10308.2
-10311.6
-10315
-10318.5
-10321.9
-10325.3
-10328.7
-10332.1
-10335.5
-10338.9
-10342.3
-10345.7
-10349.1
-10352.5
-10355.9
-10359.3
-10362.8
-10366.2
-10369.6
-10373
-10376.4
-10379.8
-10383.2
-10386.6
-10390
-10393.5
-10396.9
-10400.3
-10403.7
-10407.1
-10410.5
-10413.9
-10417.3
-10420.7
-10424.2
-10427.6
-10431
-10434.4
-10437.8
-10441.2
-10444.6
-10448
-10451.5
-10454.9
-10458.3
-10461.7
-10465.1
-10468.5
-10471.9
-10475.4
-10478.8
-10482.2
-10485.6
-10489
-10492.4
-10495.9
-10499.3
-10502.7
-10506.1
-10509.5
-10512.9
-10516.4
-10519.8
-10523.2
-10526.6
-10530
-10533.4
-10536.8
-10540.3
-10543.7
-10547.1
-10550.5
-10554
-10557.4
-10560.8
-10564.2
-10567.6
-10571
-10574.5
-10577.9
-10581.3
-10584.7
-10588.2
-10591.6
-10595
-10598.4
-10601.8
-10605.3
-10608.7
-10612.1
-10615.5
-10619
-10622.4
-10625.8
-10629.2
-10632.7
-10636.1
-10639.5
-10642.9
-10646.4
-10649.8
-10653.2
-10656.6
-10660.1
-10663.5
-10666.9
-10670.4
-10673.8
-10677.2
-10680.6
-10684.1
-10687.5
-10690.9
-10694.4
-10697.8
-10701.2
-10704.6
-10708.1
-10711.5
-10714.9
-10718.4
-10721.8
-10725.2
-10728.7
-10732.1
-10735.5
-10739
-10742.4
-10745.8
-10749.3
-10752.7
-10756.1
-10759.6
-10763
-10766.4
-10769.9
-10773.3
-10776.8
-10780.2
-10783.6
-10787.1
-10790.5
-10794
-10797.4
-10800.8
-10804.3
-10807.7
-10811.2
-10814.6
-10818
-10821.5
-10824.9
-10828.4
-10831.8
-10835.3
-10838.7
-10842.1
-10845.6
-10849
-10852.5
-10855.9
-10859.4
-10862.8
-10866.3
-10869.7
-10873.2
-10876.6
-10880.1
-10883.5
-10887
-10890.4
-10893.9
-10897.3
-10900.8
-10904.2
-10907.7
-10911.1
-10914.6
-10918.1
-10921.5
-10925
-10928.4
-10931.9
-10935.3
-10938.8
-10942.2
-10945.7
-10949.2
-10952.6
-10956.1
-10959.5
-10963
-10966.5
-10969.9
-10973.4
-10976.9
-10980.3
-10983.8
-10987.3
-10990.7
-10994.2
-10997.7
-11001.1
-11004.6
-11008.1
-11011.5
-11015
-11018.5
-11021.9
-11025.4
-11028.9
-11032.4
-11035.8
-11039.3
-11042.8
-11046.3
-11049.7
-11053.2
-11056.7
-11060.2
-11063.6
-11067.1
-11070.6
-11074.1
-11077.6
-11081.1
-11084.5
-11088
-11091.5
-11095
-11098.5
-11102
-11105.4
-11108.9
-11112.4
-11115.9
-11119.4
-11122.9
-11126.4
-11129.9
-11133.4
-11136.9
-11140.4
-11143.9
-11147.4
-11150.8
-11154.3
-11157.8
-11161.3
-11164.8
-11168.3
-11171.8
-11175.3
-11178.9
-11182.4
-11185.9
-11189.4
-11192.9
-11196.4
-11199.9
-11203.4
-11206.9
-11210.4
-11213.9
-11217.4
-11221
-11224.5
-11228
-11231.5
-11235
-11238.5
-11242.1
-11245.6
-11249.1
-11252.6
-11256.2
-11259.7
-11263.2
-11266.7
-11270.3
-11273.8
-11277.3
-11280.9
-11284.4
-11287.9
-11291.4
-11295
-11298.5
-11302.1
-11305.6
-11309.1
-11312.7
-11316.2
-11319.8
-11323.3
-11326.8
-11330.4
-11333.9
-11337.5
-11341
-11344.6
-11348.1
-11351.7
-11355.3
-11358.8
-11362.4
-11365.9
-11369.5
-11373
-11376.6
-11380.2
-11383.7
-11387.3
-11390.9
-11394.4
-11398
-11401.6
-11405.1
-11408.7
-11412.3
-11415.9
-11419.5
-11423
-11426.6
-11430.2
-11433.8
-11437.4
-11440.9
-11444.5
-11448.1
-11451.7
-11455.3
-11458.9
-11462.5
-11466.1
-11469.7
-11473.3
-11476.9
-11480.5
-11484.1
-11487.7
-11491.3
-11494.9
-11498.5
-11502.2
-11505.8
-11509.4
-11513
-11516.6