/*--------------------------------*- C++ -*----------------------------------*\
  =========                 |
  \\      /  F ield         | OpenFOAM: The Open Source CFD Toolbox
   \\    /   O peration     | Website:  https://openfoam.org
    \\  /    A nd           | Version:  9
     \\/     M anipulation  |
\*---------------------------------------------------------------------------*/
FoamFile
{
    format      ascii;
    class       surfaceScalarField;
    location    "0.032";
    object      phi;
}
// * * * * * * * * * * * * * * * * * * * * * * * * * * * * * * * * * * * * * //

dimensions      [1 0 -1 0 0 0 0];

internalField   nonuniform List<scalar> 
9999
(
6.67074
6.71607
6.76139
6.80672
6.85204
6.89736
6.94268
6.988
7.03332
7.07863
7.12394
7.16925
7.21456
7.25987
7.30517
7.35048
7.39578
7.44108
7.48638
7.53167
7.57697
7.62226
7.66755
7.71284
7.75813
7.80341
7.84869
7.89397
7.93926
7.98454
8.02982
8.07509
8.12036
8.16563
8.2109
8.25616
8.30144
8.34671
8.39197
8.43723
8.48249
8.52774
8.57299
8.61824
8.6635
8.70876
8.75402
8.79927
8.84451
8.88975
8.93498
8.98021
9.02545
9.07069
9.11593
9.16118
9.20643
9.25167
9.2969
9.34213
9.38734
9.43255
9.47776
9.52297
9.56818
9.6134
9.65863
9.70387
9.74911
9.79435
9.83958
9.88481
9.93003
9.97523
10.0204
10.0656
10.1108
10.156
10.2011
10.2463
10.2915
10.3366
10.3818
10.427
10.4723
10.5175
10.5628
10.608
10.6533
10.6986
10.7439
10.7892
10.8346
10.8799
10.9252
10.9706
11.0159
11.0612
11.1066
11.1519
11.1972
11.2426
11.288
11.3333
11.3787
11.424
11.4694
11.5147
11.5601
11.6054
11.6508
11.6962
11.7415
11.7869
11.8322
11.8776
11.9229
11.9683
12.0136
12.059
12.1043
12.1497
12.195
12.2404
12.2857
12.3311
12.3764
12.4218
12.4671
12.5125
12.5578
12.6032
12.6485
12.6938
12.7392
12.7845
12.8299
12.8752
12.9206
12.9659
13.0113
13.0566
13.102
13.1473
13.1926
13.238
13.2833
13.3287
13.374
13.4194
13.4647
13.51
13.5554
13.6007
13.6461
13.6914
13.7368
13.7821
13.8274
13.8728
13.9181
13.9634
14.0088
14.0541
14.0995
14.1448
14.1901
14.2355
14.2808
14.3261
14.3715
14.4168
14.4622
14.5075
14.5528
14.5982
14.6435
14.6888
14.7342
14.7795
14.8248
14.8702
14.9155
14.9608
15.0062
15.0515
15.0968
15.1422
15.1875
15.2328
15.2782
15.3235
15.3688
15.4141
15.4595
15.5048
15.5501
15.5955
15.6408
15.6861
15.7314
15.7768
15.8221
15.8674
15.9127
15.9581
16.0034
16.0487
16.094
16.1394
16.1847
16.23
16.2753
16.3207
16.366
16.4113
16.4566
16.502
16.5473
16.5926
16.6379
16.6832
16.7286
16.7739
16.8192
16.8645
16.9099
16.9552
17.0005
17.0458
17.0911
17.1364
17.1818
17.2271
17.2724
17.3177
17.363
17.4083
17.4537
17.499
17.5443
17.5896
17.6349
17.6802
17.7256
17.7709
17.8162
17.8615
17.9068
17.9521
17.9974
18.0427
18.0881
18.1334
18.1787
18.224
18.2693
18.3146
18.3599
18.4052
18.4505
18.4959
18.5412
18.5865
18.6318
18.6771
18.7224
18.7677
18.813
18.8583
18.9036
18.9489
18.9942
19.0395
19.0848
19.1301
19.1754
19.2208
19.2661
19.3114
19.3567
19.402
19.4473
19.4926
19.5379
19.5832
19.6285
19.6738
19.7191
19.7644
19.8097
19.855
19.9003
19.9456
19.9909
20.0362
20.0815
20.1268
20.1721
20.2174
20.2627
20.308
20.3532
20.3985
20.4438
20.4891
20.5344
20.5797
20.625
20.6703
20.7156
20.7609
20.8062
20.8515
20.8968
20.9421
20.9874
21.0327
21.0779
21.1232
21.1685
21.2138
21.2591
21.3044
21.3497
21.395
21.4403
21.4855
21.5308
21.5761
21.6214
21.6667
21.712
21.7573
21.8026
21.8478
21.8931
21.9384
21.9837
22.029
22.0743
22.1195
22.1648
22.2101
22.2554
22.3007
22.346
22.3912
22.4365
22.4818
22.5271
22.5724
22.6176
22.6629
22.7082
22.7535
22.7988
22.844
22.8893
22.9346
22.9799
23.0251
23.0704
23.1157
23.161
23.2062
23.2515
23.2968
23.3421
23.3873
23.4326
23.4779
23.5232
23.5684
23.6137
23.659
23.7043
23.7495
23.7948
23.8401
23.8853
23.9306
23.9759
24.0211
24.0664
24.1117
24.157
24.2022
24.2475
24.2928
24.338
24.3833
24.4286
24.4738
24.5191
24.5644
24.6096
24.6549
24.7001
24.7454
24.7907
24.8359
24.8812
24.9265
24.9717
25.017
25.0623
25.1075
25.1528
25.198
25.2433
25.2886
25.3338
25.3791
25.4243
25.4696
25.5148
25.5601
25.6054
25.6506
25.6959
25.7411
25.7864
25.8316
25.8769
25.9222
25.9674
26.0127
26.0579
26.1032
26.1484
26.1937
26.2389
26.2842
26.3294
26.3747
26.4199
26.4652
26.5104
26.5557
26.6009
26.6462
26.6914
26.7367
26.7819
26.8272
26.8724
26.9177
26.9629
27.0082
27.0534
27.0987
27.1439
27.1892
27.2344
27.2796
27.3249
27.3701
27.4154
27.4606
27.5059
27.5511
27.5963
27.6416
27.6868
27.7321
27.7773
27.8225
27.8678
27.913
27.9583
28.0035
28.0487
28.094
28.1392
28.1845
28.2297
28.2749
28.3202
28.3654
28.4106
28.4559
28.5011
28.5463
28.5916
28.6368
28.682
28.7273
28.7725
28.8177
28.863
28.9082
28.9534
28.9987
29.0439
29.0891
29.1344
29.1796
29.2248
29.27
29.3153
29.3605
29.4057
29.4509
29.4962
29.5414
29.5866
29.6319
29.6771
29.7223
29.7675
29.8128
29.858
29.9032
29.9484
29.9936
30.0389
30.0841
30.1293
30.1745
30.2198
30.265
30.3102
30.3554
30.4006
30.4459
30.4911
30.5363
30.5815
30.6267
30.6719
30.7172
30.7624
30.8076
30.8528
30.898
30.9432
30.9885
31.0337
31.0789
31.1241
31.1693
31.2145
31.2597
31.3049
31.3502
31.3954
31.4406
31.4858
31.531
31.5762
31.6214
31.6666
31.7118
31.757
31.8022
31.8475
31.8927
31.9379
31.9831
32.0283
32.0735
32.1187
32.1639
32.2091
32.2543
32.2995
32.3447
32.3899
32.4351
32.4803
32.5255
32.5707
32.6159
32.6611
32.7063
32.7515
32.7967
32.8419
32.8871
32.9323
32.9775
33.0227
33.0679
33.1131
33.1583
33.2035
33.2487
33.2939
33.3391
33.3843
33.4295
33.4747
33.5199
33.5651
33.6102
33.6554
33.7006
33.7458
33.791
33.8362
33.8814
33.9266
33.9718
34.017
34.0621
34.1073
34.1525
34.1977
34.2429
34.2881
34.3333
34.3785
34.4236
34.4688
34.514
34.5592
34.6044
34.6496
34.6947
34.7399
34.7851
34.8303
34.8755
34.9207
34.9658
35.011
35.0562
35.1014
35.1466
35.1917
35.2369
35.2821
35.3273
35.3724
35.4176
35.4628
35.508
35.5531
35.5983
35.6435
35.6887
35.7338
35.779
35.8242
35.8694
35.9145
35.9597
36.0049
36.05
36.0952
36.1404
36.1856
36.2307
36.2759
36.3211
36.3662
36.4114
36.4566
36.5017
36.5469
36.5921
36.6372
36.6824
36.7276
36.7727
36.8179
36.8631
36.9082
36.9534
36.9985
37.0437
37.0889
37.134
37.1792
37.2244
37.2695
37.3147
37.3598
37.405
37.4502
37.4953
37.5405
37.5856
37.6308
37.6759
37.7211
37.7663
37.8114
37.8566
37.9017
37.9469
37.992
38.0372
38.0823
38.1275
38.1726
38.2178
38.2629
38.3081
38.3532
38.3984
38.4435
38.4887
38.5338
38.579
38.6241
38.6693
38.7144
38.7596
38.8047
38.8499
38.895
38.9402
38.9853
39.0304
39.0756
39.1207
39.1659
39.211
39.2562
39.3013
39.3464
39.3916
39.4367
39.4819
39.527
39.5721
39.6173
39.6624
39.7076
39.7527
39.7978
39.843
39.8881
39.9332
39.9784
40.0235
40.0686
40.1138
40.1589
40.204
40.2492
40.2943
40.3394
40.3846
40.4297
40.4748
40.52
40.5651
40.6102
40.6554
40.7005
40.7456
40.7907
40.8359
40.881
40.9261
40.9712
41.0164
41.0615
41.1066
41.1517
41.1969
41.242
41.2871
41.3322
41.3774
41.4225
41.4676
41.5127
41.5578
41.603
41.6481
41.6932
41.7383
41.7834
41.8286
41.8737
41.9188
41.9639
42.009
42.0541
42.0993
42.1444
42.1895
42.2346
42.2797
42.3248
42.3699
42.415
42.4602
42.5053
42.5504
42.5955
42.6406
42.6857
42.7308
42.7759
42.821
42.8661
42.9113
42.9564
43.0015
43.0466
43.0917
43.1368
43.1819
43.227
43.2721
43.3172
43.3623
43.4074
43.4525
43.4976
43.5427
43.5878
43.6329
43.678
43.7231
43.7682
43.8133
43.8584
43.9035
43.9486
43.9937
44.0388
44.0839
44.129
44.1741
44.2192
44.2643
44.3094
44.3545
44.3995
44.4446
44.4897
44.5348
44.5799
44.625
44.6701
44.7152
44.7603
44.8054
44.8505
44.8955
44.9406
44.9857
45.0308
45.0759
45.121
45.1661
45.2111
45.2562
45.3013
45.3464
45.3915
45.4366
45.4816
45.5267
45.5718
45.6169
45.662
45.707
45.7521
45.7972
45.8423
45.8874
45.9324
45.9775
46.0226
46.0677
46.1127
46.1578
46.2029
46.248
46.293
46.3381
46.3832
46.4283
46.4733
46.5184
46.5635
46.6085
46.6536
46.6987
46.7438
46.7888
46.8339
46.879
46.924
46.9691
47.0142
47.0592
47.1043
47.1494
47.1944
47.2395
47.2845
47.3296
47.3747
47.4197
47.4648
47.5099
47.5549
47.6
47.645
47.6901
47.7352
47.7802
47.8253
47.8703
47.9154
47.9604
48.0055
48.0506
48.0956
48.1407
48.1857
48.2308
48.2758
48.3209
48.366
48.411
48.4561
48.5011
48.5462
48.5912
48.6362
48.6813
48.7264
48.7714
48.8165
48.8615
48.9066
48.9516
48.9966
49.0417
49.0867
49.1318
49.1768
49.2219
49.2669
49.3119
49.357
49.402
49.4471
49.4921
49.5372
49.5822
49.6272
49.6723
49.7173
49.7624
49.8074
49.8524
49.8975
49.9425
49.9875
50.0326
50.0776
50.1226
50.1677
50.2127
50.2577
50.3028
50.3478
50.3928
50.4379
50.4829
50.5279
50.573
50.618
50.663
50.708
50.7531
50.7981
50.8431
50.8881
50.9332
50.9782
51.0232
51.0683
51.1133
51.1583
51.2033
51.2483
51.2934
51.3384
51.3834
51.4284
51.4734
51.5185
51.5635
51.6085
51.6535
51.6985
51.7436
51.7886
51.8336
51.8786
51.9236
51.9686
52.0137
52.0587
52.1037
52.1487
52.1937
52.2387
52.2837
52.3287
52.3737
52.4188
52.4638
52.5088
52.5538
52.5988
52.6438
52.6888
52.7338
52.7788
52.8238
52.8688
52.9138
52.9588
53.0038
53.0488
53.0938
53.1389
53.1838
53.2288
53.2739
53.3188
53.3638
53.4089
53.4538
53.4988
53.5439
53.5888
53.6338
53.6788
53.7238
53.7688
53.8138
53.8588
53.9038
53.9488
53.9938
54.0388
54.0838
54.1288
54.1738
54.2187
54.2637
54.3087
54.3537
54.3987
54.4437
54.4887
54.5337
54.5787
54.6236
54.6686
54.7136
54.7586
54.8036
54.8486
54.8935
54.9385
54.9835
55.0285
55.0735
55.1184
55.1634
55.2084
55.2534
55.2983
55.3433
55.3883
55.4333
55.4783
55.5232
55.5682
55.6132
55.6581
55.7031
55.7481
55.7931
55.8381
55.883
55.928
55.973
56.0179
56.0629
56.1079
56.1528
56.1978
56.2428
56.2877
56.3327
56.3777
56.4226
56.4676
56.5126
56.5575
56.6025
56.6475
56.6924
56.7374
56.7824
56.8273
56.8723
56.9172
56.9622
57.0071
57.0521
57.0971
57.142
57.187
57.2319
57.2769
57.3219
57.3668
57.4117
57.4567
57.5017
57.5466
57.5916
57.6365
57.6814
57.7264
57.7714
57.8163
57.8613
57.9062
57.9511
57.9961
58.0411
58.086
58.1309
58.1759
58.2208
58.2658
58.3107
58.3556
58.4006
58.4456
58.4905
58.5354
58.5804
58.6253
58.6703
58.7152
58.7601
58.8051
58.85
58.8949
58.9399
58.9848
59.0297
59.0747
59.1196
59.1645
59.2095
59.2544
59.2993
59.3443
59.3892
59.4341
59.4791
59.524
59.5689
59.6138
59.6588
59.7037
59.7486
59.7936
59.8385
59.8834
59.9283
59.9733
60.0182
60.0631
60.108
60.1529
60.1979
60.2428
60.2877
60.3326
60.3776
60.4225
60.4674
60.5123
60.5572
60.6021
60.6471
60.692
60.7369
60.7818
60.8267
60.8716
60.9166
60.9615
61.0064
61.0513
61.0962
61.1411
61.186
61.2309
61.2758
61.3207
61.3657
61.4106
61.4555
61.5004
61.5453
61.5902
61.6351
61.68
61.7249
61.7698
61.8147
61.8596
61.9045
61.9494
61.9943
62.0392
62.0841
62.129
62.1739
62.2188
62.2637
62.3086
62.3535
62.3984
62.4433
62.4882
62.5331
62.578
62.6228
62.6678
62.7126
62.7575
62.8024
62.8473
62.8922
62.9371
62.982
63.0268
63.0717
63.1166
63.1615
63.2064
63.2513
63.2962
63.341
63.3859
63.4308
63.4757
63.5206
63.5655
63.6103
63.6552
63.7001
63.745
63.7899
63.8347
63.8796
63.9245
63.9694
64.0143
64.0591
64.104
64.1489
64.1937
64.2386
64.2835
64.3284
64.3732
64.4181
64.463
64.5078
64.5527
64.5976
64.6424
64.6873
64.7322
64.777
64.8219
64.8668
64.9116
64.9565
65.0014
65.0462
65.0911
65.1359
65.1808
65.2257
65.2705
65.3154
65.3603
65.4051
65.45
65.4948
65.5397
65.5845
65.6294
65.6743
65.7191
65.764
65.8088
65.8537
65.8985
65.9434
65.9882
66.0331
66.0779
66.1228
66.1676
66.2125
66.2573
66.3022
66.347
66.3919
66.4367
66.4815
66.5264
66.5712
66.6161
66.6609
66.7058
66.7506
66.7954
66.8403
66.8851
66.9299
66.9748
67.0196
67.0645
67.1093
67.1541
67.199
67.2438
67.2886
67.3335
67.3783
67.4231
67.468
67.5128
67.5576
67.6025
67.6473
67.6921
67.737
67.7818
67.8266
67.8714
67.9163
67.9611
68.0059
68.0507
68.0956
68.1404
68.1852
68.23
68.2749
68.3197
68.3645
68.4093
68.4541
68.499
68.5438
68.5886
68.6334
68.6782
68.7231
68.7679
68.8127
68.8575
68.9023
68.9471
68.9919
69.0367
69.0816
69.1264
69.1712
69.216
69.2608
69.3056
69.3504
69.3952
69.44
69.4848
69.5296
69.5744
69.6192
69.6641
69.7089
69.7536
69.7985
69.8433
69.8881
69.9329
69.9777
70.0225
70.0672
70.1121
70.1569
70.2016
70.2464
70.2912
70.336
70.3808
70.4256
70.4704
70.5152
70.56
70.6048
70.6496
70.6944
70.7392
70.784
70.8287
70.8735
70.9183
70.9631
71.0079
71.0527
71.0975
71.1422
71.187
71.2318
71.2766
71.3214
71.3661
71.4109
71.4557
71.5005
71.5453
71.5901
71.6348
71.6796
71.7244
71.7692
71.8139
71.8587
71.9035
71.9483
71.993
72.0378
72.0826
72.1273
72.1721
72.2169
72.2617
72.3064
72.3512
72.396
72.4407
72.4855
72.5303
72.575
72.6198
72.6645
72.7093
72.7541
72.7988
72.8436
72.8884
72.9331
72.9779
73.0226
73.0674
73.1122
73.1569
73.2017
73.2464
73.2912
73.3359
73.3807
73.4254
73.4702
73.515
73.5597
73.6045
73.6492
73.694
73.7387
73.7835
73.8282
73.873
73.9177
73.9624
74.0072
74.0519
74.0967
74.1414
74.1862
74.2309
74.2757
74.3204
74.3651
74.4099
74.4546
74.4994
74.5441
74.5888
74.6336
74.6783
74.723
74.7678
74.8125
74.8572
74.902
74.9467
74.9914
75.0362
75.0809
75.1256
75.1704
75.2151
75.2598
75.3045
75.3493
75.394
75.4387
75.4835
75.5282
75.5729
75.6176
75.6624
75.7071
75.7518
75.7965
75.8412
75.886
75.9307
75.9754
76.0201
76.0648
76.1095
76.1543
76.199
76.2437
76.2884
76.3331
76.3778
76.4226
76.4673
76.512
76.5567
76.6014
76.6461
76.6908
76.7355
76.7802
76.8249
76.8696
76.9143
76.959
77.0038
77.0485
77.0932
77.1379
77.1826
77.2273
77.272
77.3167
77.3614
77.4061
77.4508
77.4955
77.5402
77.5849
77.6295
77.6742
77.7189
77.7636
77.8083
77.853
77.8977
77.9424
77.9871
78.0318
78.0765
78.1212
78.1658
78.2105
78.2552
78.2999
78.3446
78.3893
78.434
78.4786
78.5233
78.568
78.6127
78.6574
78.702
78.7467
78.7914
78.8361
78.8808
78.9254
78.9701
79.0148
79.0595
79.1041
79.1488
79.1935
79.2382
79.2828
79.3275
79.3722
79.4168
79.4615
79.5062
79.5508
79.5955
79.6402
79.6848
79.7295
79.7742
79.8188
79.8635
79.9082
79.9528
79.9975
80.0422
80.0868
80.1315
80.1761
80.2208
80.2654
80.3101
80.3548
80.3994
80.4441
80.4887
80.5334
80.578
80.6227
80.6673
80.712
80.7566
80.8013
80.8459
80.8906
80.9352
80.9799
81.0245
81.0692
81.1138
81.1585
81.2031
81.2478
81.2924
81.337
81.3817
81.4263
81.471
81.5156
81.5602
81.6049
81.6495
81.6941
81.7388
81.7834
81.8281
81.8727
81.9173
81.962
82.0066
82.0512
82.0959
82.1405
82.1851
82.2297
82.2744
82.319
82.3636
82.4082
82.4529
82.4975
82.5421
82.5867
82.6314
82.676
82.7206
82.7652
82.8099
82.8545
82.8991
82.9437
82.9883
83.0329
83.0776
83.1222
83.1668
83.2114
83.256
83.3006
83.3452
83.3899
83.4345
83.4791
83.5237
83.5683
83.6129
83.6575
83.7021
83.7467
83.7913
83.8359
83.8805
83.9251
83.9697
84.0143
84.059
84.1036
84.1482
84.1928
84.2374
84.282
84.3265
84.3711
84.4157
84.4603
84.5049
84.5495
84.5941
84.6387
84.6833
84.7279
84.7725
84.8171
84.8617
84.9063
84.9508
84.9954
85.04
85.0846
85.1292
85.1738
85.2184
85.2629
85.3075
85.3521
85.3967
85.4413
85.4858
85.5304
85.575
85.6196
85.6642
85.7087
85.7533
85.7979
85.8425
85.887
85.9316
85.9762
86.0207
86.0653
86.1099
86.1545
86.199
86.2436
86.2882
86.3327
86.3773
86.4219
86.4664
86.511
86.5556
86.6001
86.6447
86.6892
86.7338
86.7784
86.8229
86.8675
86.912
86.9566
87.0012
87.0457
87.0903
87.1348
87.1794
87.2239
87.2685
87.313
87.3576
87.4021
87.4467
87.4912
87.5358
87.5803
87.6249
87.6694
87.714
87.7585
87.8031
87.8476
87.8921
87.9367
87.9812
88.0258
88.0703
88.1148
88.1594
88.2039
88.2485
88.293
88.3375
88.3821
88.4266
88.4711
88.5157
88.5602
88.6047
88.6493
88.6938
88.7383
88.7828
88.8274
88.8719
88.9164
88.961
89.0055
89.05
89.0945
89.1391
89.1836
89.2281
89.2726
89.3171
89.3617
89.4062
89.4507
89.4952
89.5397
89.5842
89.6288
89.6733
89.7178
89.7623
89.8068
89.8513
89.8958
89.9403
89.9849
90.0294
90.0739
90.1184
90.1629
90.2074
90.2519
90.2964
90.3409
90.3854
90.4299
90.4744
90.5189
90.5634
90.6079
90.6524
90.6969
90.7414
90.7859
90.8304
90.8749
90.9194
90.9639
91.0084
91.0529
91.0974
91.1419
91.1864
91.2308
91.2753
91.3198
91.3643
91.4088
91.4533
91.4978
91.5423
91.5867
91.6312
91.6757
91.7202
91.7647
91.8091
91.8536
91.8981
91.9426
91.9871
92.0315
92.076
92.1205
92.165
92.2094
92.2539
92.2984
92.3429
92.3873
92.4318
92.4763
92.5207
92.5652
92.6097
92.6541
92.6986
92.7431
92.7875
92.832
92.8765
92.9209
92.9654
93.0098
93.0543
93.0988
93.1432
93.1877
93.2321
93.2766
93.321
93.3655
93.41
93.4544
93.4989
93.5433
93.5878
93.6322
93.6767
93.7211
93.7656
93.81
93.8545
93.8989
93.9433
93.9878
94.0322
94.0767
94.1211
94.1656
94.21
94.2544
94.2989
94.3433
94.3878
94.4322
94.4766
94.5211
94.5655
94.6099
94.6544
94.6988
94.7432
94.7877
94.8321
94.8765
94.921
94.9654
95.0098
95.0542
95.0987
95.1431
95.1875
95.2319
95.2764
95.3208
95.3652
95.4096
95.454
95.4985
95.5429
95.5873
95.6317
95.6761
95.7206
95.765
95.8094
95.8538
95.8982
95.9426
95.987
96.0314
96.0759
96.1203
96.1647
96.2091
96.2535
96.2979
96.3423
96.3867
96.4311
96.4755
96.5199
96.5643
96.6087
96.6531
96.6975
96.7419
96.7863
96.8307
96.8751
96.9195
96.9639
97.0083
97.0527
97.0971
97.1415
97.1858
97.2302
97.2746
97.319
97.3634
97.4078
97.4522
97.4966
97.5409
97.5853
97.6297
97.6741
97.7185
97.7629
97.8072
97.8516
97.896
97.9404
97.9848
98.0291
98.0735
98.1179
98.1623
98.2066
98.251
98.2954
98.3397
98.3841
98.4285
98.4729
98.5172
98.5616
98.606
98.6503
98.6947
98.739
98.7834
98.8278
98.8721
98.9165
98.9609
99.0052
99.0496
99.0939
99.1383
99.1826
99.227
99.2714
99.3157
99.3601
99.4044
99.4488
99.4931
99.5375
99.5818
99.6262
99.6705
99.7149
99.7592
99.8036
99.8479
99.8922
99.9366
99.9809
100.025
100.07
100.114
100.158
100.203
100.247
100.291
100.336
100.38
100.424
100.469
100.513
100.557
100.602
100.646
100.69
100.735
100.779
100.823
100.868
100.912
100.956
101.001
101.045
101.089
101.134
101.178
101.222
101.267
101.311
101.355
101.399
101.444
101.488
101.532
101.577
101.621
101.665
101.71
101.754
101.798
101.843
101.887
101.931
101.976
102.02
102.064
102.108
102.153
102.197
102.241
102.286
102.33
102.374
102.419
102.463
102.507
102.551
102.596
102.64
102.684
102.729
102.773
102.817
102.861
102.906
102.95
102.994
103.039
103.083
103.127
103.171
103.216
103.26
103.304
103.349
103.393
103.437
103.481
103.526
103.57
103.614
103.659
103.703
103.747
103.791
103.836
103.88
103.924
103.968
104.013
104.057
104.101
104.146
104.19
104.234
104.278
104.323
104.367
104.411
104.455
104.5
104.544
104.588
104.632
104.677
104.721
104.765
104.809
104.854
104.898
104.942
104.987
105.031
105.075
105.119
105.164
105.208
105.252
105.296
105.34
105.385
105.429
105.473
105.517
105.562
105.606
105.65
105.694
105.739
105.783
105.827
105.871
105.916
105.96
106.004
106.048
106.093
106.137
106.181
106.225
106.269
106.314
106.358
106.402
106.446
106.491
106.535
106.579
106.623
106.667
106.712
106.756
106.8
106.844
106.889
106.933
106.977
107.021
107.065
107.11
107.154
107.198
107.242
107.286
107.331
107.375
107.419
107.463
107.508
107.552
107.596
107.64
107.684
107.729
107.773
107.817
107.861
107.905
107.95
107.994
108.038
108.082
108.126
108.171
108.215
108.259
108.303
108.347
108.391
108.436
108.48
108.524
108.568
108.612
108.657
108.701
108.745
108.789
108.833
108.877
108.922
108.966
109.01
109.054
109.098
109.143
109.187
109.231
109.275
109.319
109.363
109.408
109.452
109.496
109.54
109.584
109.628
109.673
109.717
109.761
109.805
109.849
109.893
109.938
109.982
110.026
110.07
110.114
110.158
110.202
110.247
110.291
110.335
110.379
110.423
110.467
110.511
110.556
110.6
110.644
110.688
110.732
110.776
110.82
110.865
110.909
110.953
110.997
111.041
111.085
111.129
111.174
111.218
111.262
111.306
111.35
111.394
111.438
111.483
111.527
111.571
111.615
111.659
111.703
111.747
111.791
111.835
111.88
111.924
111.968
112.012
112.056
112.1
112.144
112.188
112.233
112.277
112.321
112.365
112.409
112.453
112.497
112.541
112.585
112.63
112.674
112.718
112.762
112.806
112.85
112.894
112.938
112.982
113.026
113.071
113.115
113.159
113.203
113.247
113.291
113.335
113.379
113.423
113.467
113.511
113.556
113.6
113.644
113.688
113.732
113.776
113.82
113.864
113.908
113.952
113.996
114.04
114.084
114.129
114.173
114.217
114.261
114.305
114.349
114.393
114.437
114.481
114.525
114.569
114.613
114.657
114.701
114.746
114.79
114.834
114.878
114.922
114.966
115.01
115.054
115.098
115.142
115.186
115.23
115.274
115.318
115.362
115.406
115.45
115.494
115.538
115.583
115.627
115.671
115.715
115.759
115.803
115.847
115.891
115.935
115.979
116.023
116.067
116.111
116.155
116.199
116.243
116.287
116.331
116.375
116.419
116.463
116.507
116.551
116.595
116.639
116.683
116.727
116.771
116.815
116.859
116.903
116.947
116.991
117.036
117.08
117.124
117.168
117.212
117.256
117.3
117.344
117.388
117.432
117.476
117.52
117.564
117.608
117.652
117.696
117.74
117.784
117.828
117.872
117.916
117.96
118.004
118.048
118.092
118.136
118.18
118.224
118.268
118.312
118.356
118.4
118.443
118.487
118.531
118.575
118.619
118.663
118.707
118.751
118.795
118.839
118.883
118.927
118.971
119.015
119.059
119.103
119.147
119.191
119.235
119.279
119.323
119.367
119.411
119.455
119.499
119.543
119.587
119.631
119.675
119.719
119.763
119.807
119.85
119.894
119.938
119.982
120.026
120.07
120.114
120.158
120.202
120.246
120.29
120.334
120.378
120.422
120.466
120.51
120.554
120.598
120.642
120.685
120.729
120.773
120.817
120.861
120.905
120.949
120.993
121.037
121.081
121.125
121.169
121.213
121.257
121.3
121.344
121.388
121.432
121.476
121.52
121.564
121.608
121.652
121.696
121.74
121.784
121.827
121.871
121.915
121.959
122.003
122.047
122.091
122.135
122.179
122.223
122.266
122.31
122.354
122.398
122.442
122.486
122.53
122.574
122.618
122.662
122.705
122.749
122.793
122.837
122.881
122.925
122.969
123.013
123.057
123.1
123.144
123.188
123.232
123.276
123.32
123.364
123.408
123.451
123.495
123.539
123.583
123.627
123.671
123.715
123.758
123.802
123.846
123.89
123.934
123.978
124.022
124.066
124.109
124.153
124.197
124.241
124.285
124.329
124.373
124.416
124.46
124.504
124.548
124.592
124.636
124.679
124.723
124.767
124.811
124.855
124.899
124.943
124.986
125.03
125.074
125.118
125.162
125.206
125.249
125.293
125.337
125.381
125.425
125.468
125.512
125.556
125.6
125.644
125.688
125.731
125.775
125.819
125.863
125.907
125.951
125.994
126.038
126.082
126.126
126.17
126.213
126.257
126.301
126.345
126.389
126.432
126.476
126.52
126.564
126.608
126.651
126.695
126.739
126.783
126.827
126.87
126.914
126.958
127.002
127.046
127.089
127.133
127.177
127.221
127.264
127.308
127.352
127.396
127.44
127.483
127.527
127.571
127.615
127.658
127.702
127.746
127.79
127.834
127.877
127.921
127.965
128.009
128.052
128.096
128.14
128.184
128.227
128.271
128.315
128.359
128.402
128.446
128.49
128.534
128.577
128.621
128.665
128.709
128.752
128.796
128.84
128.884
128.927
128.971
129.015
129.059
129.102
129.146
129.19
129.234
129.277
129.321
129.365
129.408
129.452
129.496
129.54
129.583
129.627
129.671
129.715
129.758
129.802
129.846
129.889
129.933
129.977
130.021
130.064
130.108
130.152
130.195
130.239
130.283
130.327
130.37
130.414
130.458
130.501
130.545
130.589
130.632
130.676
130.72
130.764
130.807
130.851
130.895
130.938
130.982
131.026
131.069
131.113
131.157
131.2
131.244
131.288
131.331
131.375
131.419
131.462
131.506
131.55
131.594
131.637
131.681
131.725
131.768
131.812
131.856
131.899
131.943
131.987
132.03
132.074
132.117
132.161
132.205
132.248
132.292
132.336
132.379
132.423
132.467
132.51
132.554
132.598
132.641
132.685
132.729
132.772
132.816
132.86
132.903
132.947
132.99
133.034
133.078
133.121
133.165
133.209
133.252
133.296
133.339
133.383
133.427
133.47
133.514
133.558
133.601
133.645
133.688
133.732
133.776
133.819
133.863
133.906
133.95
133.994
134.037
134.081
134.125
134.168
134.212
134.255
134.299
134.342
134.386
134.43
134.473
134.517
134.56
134.604
134.648
134.691
134.735
134.778
134.822
134.866
134.909
134.953
134.996
135.04
135.083
135.127
135.171
135.214
135.258
135.301
135.345
135.388
135.432
135.476
135.519
135.563
135.606
135.65
135.693
135.737
135.781
135.824
135.868
135.911
135.955
135.998
136.042
136.085
136.129
136.172
136.216
136.26
136.303
136.347
136.39
136.434
136.477
136.521
136.564
136.608
136.651
136.695
136.738
136.782
136.825
136.869
136.912
136.956
137
137.043
137.087
137.13
137.174
137.217
137.261
137.304
137.348
137.391
137.435
137.478
137.522
137.565
137.609
137.652
137.696
137.739
137.783
137.826
137.87
137.913
137.957
138
138.044
138.087
138.131
138.174
138.218
138.261
138.304
138.348
138.391
138.435
138.478
138.522
138.565
138.609
138.652
138.696
138.739
138.783
138.826
138.87
138.913
138.956
139
139.043
139.087
139.13
139.174
139.217
139.261
139.304
139.348
139.391
139.434
139.478
139.521
139.565
139.608
139.652
139.695
139.738
139.782
139.825
139.869
139.912
139.956
139.999
140.042
140.086
140.129
140.173
140.216
140.26
140.303
140.346
140.39
140.433
140.477
140.52
140.563
140.607
140.65
140.694
140.737
140.78
140.824
140.867
140.911
140.954
140.997
141.041
141.084
141.128
141.171
141.214
141.258
141.301
141.344
141.388
141.431
141.475
141.518
141.561
141.605
141.648
141.691
141.735
141.778
141.821
141.865
141.908
141.952
141.995
142.038
142.082
142.125
142.168
142.212
142.255
142.298
142.342
142.385
142.428
142.472
142.515
142.558
142.602
142.645
142.688
142.732
142.775
142.818
142.862
142.905
142.948
142.992
143.035
143.078
143.122
143.165
143.208
143.251
143.295
143.338
143.381
143.425
143.468
143.511
143.555
143.598
143.641
143.684
143.728
143.771
143.814
143.858
143.901
143.944
143.987
144.031
144.074
144.117
144.161
144.204
144.247
144.29
144.334
144.377
144.42
144.463
144.507
144.55
144.593
144.636
144.68
144.723
144.766
144.809
144.853
144.896
144.939
144.982
145.026
145.069
145.112
145.155
145.199
145.242
145.285
145.328
145.371
145.415
145.458
145.501
145.544
145.587
145.631
145.674
145.717
145.76
145.804
145.847
145.89
145.933
145.976
146.02
146.063
146.106
146.149
146.192
146.235
146.279
146.322
146.365
146.408
146.451
146.495
146.538
146.581
146.624
146.667
146.71
146.754
146.797
146.84
146.883
146.926
146.969
147.012
147.056
147.099
147.142
147.185
147.228
147.271
147.314
147.358
147.401
147.444
147.487
147.53
147.573
147.616
147.659
147.703
147.746
147.789
147.832
147.875
147.918
147.961
148.004
148.047
148.09
148.134
148.177
148.22
148.263
148.306
148.349
148.392
148.435
148.478
148.521
148.564
148.607
148.651
148.694
148.737
148.78
148.823
148.866
148.909
148.952
148.995
149.038
149.081
149.124
149.167
149.21
149.253
149.296
149.339
149.382
149.425
149.468
149.511
149.554
149.597
149.64
149.683
149.727
149.77
149.813
149.856
149.899
149.942
149.985
150.028
150.071
150.113
150.156
150.199
150.242
150.285
150.328
150.371
150.414
150.457
150.5
150.543
150.586
150.629
150.672
150.715
150.758
150.801
150.844
150.887
150.93
150.973
151.016
151.059
151.102
151.144
151.187
151.23
151.273
151.316
151.359
151.402
151.445
151.488
151.531
151.574
151.616
151.659
151.702
151.745
151.788
151.831
151.874
151.917
151.96
152.002
152.045
152.088
152.131
152.174
152.217
152.26
152.302
152.345
152.388
152.431
152.474
152.517
152.56
152.602
152.645
152.688
152.731
152.774
152.816
152.859
152.902
152.945
152.988
153.03
153.073
153.116
153.159
153.202
153.244
153.287
153.33
153.373
153.416
153.458
153.501
153.544
153.587
153.629
153.672
153.715
153.758
153.8
153.843
153.886
153.929
153.971
154.014
154.057
154.099
154.142
154.185
154.228
154.27
154.313
154.356
154.398
154.441
154.484
154.526
154.569
154.612
154.654
154.697
154.74
154.782
154.825
154.868
154.91
154.953
154.996
155.038
155.081
155.124
155.166
155.209
155.251
155.294
155.337
155.379
155.422
155.464
155.507
155.55
155.592
155.635
155.677
155.72
155.762
155.805
155.848
155.89
155.933
155.975
156.018
156.06
156.103
156.145
156.188
156.23
156.273
156.315
156.358
156.401
156.443
156.485
156.528
156.57
156.613
156.655
156.698
156.74
156.783
156.825
156.868
156.91
156.953
156.995
157.038
157.08
157.122
157.165
157.207
157.25
157.292
157.334
157.377
157.419
157.462
157.504
157.546
157.589
157.631
157.673
157.716
157.758
157.8
157.843
157.885
157.927
157.97
158.012
158.054
158.097
158.139
158.181
158.224
158.266
158.308
158.35
158.393
158.435
158.477
158.519
158.562
158.604
158.646
158.688
158.731
158.773
158.815
158.857
158.899
158.942
158.984
159.026
159.068
159.11
159.153
159.195
159.237
159.279
159.321
159.363
159.405
159.447
159.49
159.532
159.574
159.616
159.658
159.7
159.742
159.784
159.826
159.868
159.91
159.952
159.994
160.036
160.078
160.12
160.162
160.204
160.246
160.288
160.33
160.372
160.414
160.456
160.498
160.54
160.582
160.624
160.666
160.708
160.749
160.791
160.833
160.875
160.917
160.959
161.001
161.042
161.084
161.126
161.168
161.21
161.252
161.293
161.335
161.377
161.419
161.46
161.502
161.544
161.586
161.627
161.669
161.711
161.752
161.794
161.836
161.877
161.919
161.961
162.002
162.044
162.085
162.127
162.169
162.21
162.252
162.293
162.335
162.376
162.418
162.459
162.501
162.542
162.584
162.625
162.667
162.708
162.75
162.791
162.833
162.874
162.915
162.957
162.998
163.04
163.081
163.122
163.164
163.205
163.246
163.288
163.329
163.37
163.411
163.453
163.494
163.535
163.576
163.618
163.659
163.7
163.741
163.782
163.823
163.864
163.906
163.947
163.988
164.029
164.07
164.111
164.152
164.193
164.234
164.275
164.316
164.357
164.398
164.439
164.48
164.521
164.561
164.602
164.643
164.684
164.725
164.766
164.807
164.847
164.888
164.929
164.97
165.01
165.051
165.092
165.132
165.173
165.214
165.254
165.295
165.336
165.376
165.417
165.457
165.498
165.538
165.579
165.619
165.66
165.7
165.741
165.781
165.821
165.862
165.902
165.942
165.983
166.023
166.063
166.104
166.144
166.184
166.224
166.264
166.305
166.345
166.385
166.425
166.465
166.505
166.545
166.585
166.625
166.665
166.705
166.745
166.785
166.825
166.865
166.905
166.944
166.984
167.024
167.064
167.104
167.143
167.183
167.223
167.262
167.302
167.342
167.381
167.421
167.46
167.5
167.539
167.579
167.618
167.658
167.697
167.737
167.776
167.815
167.855
167.894
167.933
167.972
168.012
168.051
168.09
168.129
168.168
168.207
168.246
168.285
168.324
168.363
168.402
168.441
168.48
168.519
168.558
168.596
168.635
168.674
168.713
168.751
168.79
168.829
168.867
168.906
168.945
168.983
169.022
169.06
169.098
169.137
169.175
169.214
169.252
169.29
169.328
169.367
169.405
169.443
169.481
169.519
169.557
169.595
169.633
169.671
169.709
169.747
169.785
169.823
169.861
169.899
169.937
169.974
170.012
170.05
170.087
170.125
170.162
170.2
170.237
170.275
170.312
170.35
170.387
170.425
170.462
170.499