/*--------------------------------*- C++ -*----------------------------------*\
  =========                 |
  \\      /  F ield         | OpenFOAM: The Open Source CFD Toolbox
   \\    /   O peration     | Website:  https://openfoam.org
    \\  /    A nd           | Version:  9
     \\/     M anipulation  |
\*---------------------------------------------------------------------------*/
FoamFile
{
    format      ascii;
    class       volVectorField;
    location    "0.032";
    object      U;
}
// * * * * * * * * * * * * * * * * * * * * * * * * * * * * * * * * * * * * * //

dimensions      [0 1 -1 0 0 0 0];

internalField   nonuniform List<vector> 
10000
(
(5.89908 0 0)
(5.94769 0 0)
(6.00002 0 0)
(6.04281 0 0)
(6.0819 0 0)
(6.12143 0 0)
(6.16183 0 0)
(6.20249 0 0)
(6.24307 0 0)
(6.28358 0 0)
(6.32407 0 0)
(6.36457 0 0)
(6.40507 0 0)
(6.44558 0 0)
(6.48609 0 0)
(6.52659 0 0)
(6.5671 0 0)
(6.60761 0 0)
(6.64811 0 0)
(6.68862 0 0)
(6.72913 0 0)
(6.76964 0 0)
(6.81015 0 0)
(6.85065 0 0)
(6.89116 0 0)
(6.93167 0 0)
(6.97218 0 0)
(7.01269 0 0)
(7.0532 0 0)
(7.09371 0 0)
(7.13422 0 0)
(7.17472 0 0)
(7.21523 0 0)
(7.25574 0 0)
(7.29626 0 0)
(7.33677 0 0)
(7.37728 0 0)
(7.41779 0 0)
(7.4583 0 0)
(7.49881 0 0)
(7.53932 0 0)
(7.57983 0 0)
(7.62035 0 0)
(7.66086 0 0)
(7.70138 0 0)
(7.74189 0 0)
(7.7824 0 0)
(7.82291 0 0)
(7.86342 0 0)
(7.90394 0 0)
(7.94445 0 0)
(7.98497 0 0)
(8.02548 0 0)
(8.066 0 0)
(8.10652 0 0)
(8.14703 0 0)
(8.18755 0 0)
(8.22806 0 0)
(8.26858 0 0)
(8.30909 0 0)
(8.3496 0 0)
(8.39012 0 0)
(8.43064 0 0)
(8.47116 0 0)
(8.51168 0 0)
(8.5522 0 0)
(8.59272 0 0)
(8.63323 0 0)
(8.67375 0 0)
(8.71427 0 0)
(8.75479 0 0)
(8.79531 0 0)
(8.83582 0 0)
(8.87634 0 0)
(8.91686 0 0)
(8.95738 0 0)
(8.99789 0 0)
(9.03841 0 0)
(9.07894 0 0)
(9.11946 0 0)
(9.15998 0 0)
(9.2005 0 0)
(9.24103 0 0)
(9.28155 0 0)
(9.32208 0 0)
(9.3626 0 0)
(9.40313 0 0)
(9.44365 0 0)
(9.48418 0 0)
(9.52471 0 0)
(9.56523 0 0)
(9.60575 0 0)
(9.64628 0 0)
(9.6868 0 0)
(9.72733 0 0)
(9.76785 0 0)
(9.80838 0 0)
(9.8489 0 0)
(9.88943 0 0)
(9.92995 0 0)
(9.97048 0 0)
(10.011 0 0)
(10.0515 0 0)
(10.0921 0 0)
(10.1326 0 0)
(10.1731 0 0)
(10.2136 0 0)
(10.2542 0 0)
(10.2947 0 0)
(10.3352 0 0)
(10.3757 0 0)
(10.4163 0 0)
(10.4568 0 0)
(10.4973 0 0)
(10.5379 0 0)
(10.5784 0 0)
(10.6189 0 0)
(10.6594 0 0)
(10.7 0 0)
(10.7405 0 0)
(10.781 0 0)
(10.8216 0 0)
(10.8621 0 0)
(10.9026 0 0)
(10.9432 0 0)
(10.9837 0 0)
(11.0242 0 0)
(11.0647 0 0)
(11.1053 0 0)
(11.1458 0 0)
(11.1863 0 0)
(11.2269 0 0)
(11.2674 0 0)
(11.3079 0 0)
(11.3485 0 0)
(11.389 0 0)
(11.4295 0 0)
(11.4701 0 0)
(11.5106 0 0)
(11.5511 0 0)
(11.5917 0 0)
(11.6322 0 0)
(11.6727 0 0)
(11.7133 0 0)
(11.7538 0 0)
(11.7943 0 0)
(11.8349 0 0)
(11.8754 0 0)
(11.916 0 0)
(11.9565 0 0)
(11.997 0 0)
(12.0376 0 0)
(12.0781 0 0)
(12.1186 0 0)
(12.1592 0 0)
(12.1997 0 0)
(12.2403 0 0)
(12.2808 0 0)
(12.3213 0 0)
(12.3619 0 0)
(12.4024 0 0)
(12.4429 0 0)
(12.4835 0 0)
(12.524 0 0)
(12.5646 0 0)
(12.6051 0 0)
(12.6456 0 0)
(12.6862 0 0)
(12.7267 0 0)
(12.7673 0 0)
(12.8078 0 0)
(12.8483 0 0)
(12.8889 0 0)
(12.9294 0 0)
(12.97 0 0)
(13.0105 0 0)
(13.0511 0 0)
(13.0916 0 0)
(13.1321 0 0)
(13.1727 0 0)
(13.2132 0 0)
(13.2538 0 0)
(13.2943 0 0)
(13.3349 0 0)
(13.3754 0 0)
(13.4159 0 0)
(13.4565 0 0)
(13.497 0 0)
(13.5376 0 0)
(13.5781 0 0)
(13.6187 0 0)
(13.6592 0 0)
(13.6998 0 0)
(13.7403 0 0)
(13.7809 0 0)
(13.8214 0 0)
(13.862 0 0)
(13.9025 0 0)
(13.943 0 0)
(13.9836 0 0)
(14.0241 0 0)
(14.0647 0 0)
(14.1052 0 0)
(14.1458 0 0)
(14.1863 0 0)
(14.2269 0 0)
(14.2674 0 0)
(14.308 0 0)
(14.3485 0 0)
(14.3891 0 0)
(14.4296 0 0)
(14.4702 0 0)
(14.5107 0 0)
(14.5513 0 0)
(14.5918 0 0)
(14.6324 0 0)
(14.6729 0 0)
(14.7135 0 0)
(14.754 0 0)
(14.7946 0 0)
(14.8351 0 0)
(14.8757 0 0)
(14.9162 0 0)
(14.9568 0 0)
(14.9974 0 0)
(15.0379 0 0)
(15.0785 0 0)
(15.119 0 0)
(15.1596 0 0)
(15.2001 0 0)
(15.2407 0 0)
(15.2812 0 0)
(15.3218 0 0)
(15.3623 0 0)
(15.4029 0 0)
(15.4435 0 0)
(15.484 0 0)
(15.5246 0 0)
(15.5651 0 0)
(15.6057 0 0)
(15.6462 0 0)
(15.6868 0 0)
(15.7273 0 0)
(15.7679 0 0)
(15.8085 0 0)
(15.849 0 0)
(15.8896 0 0)
(15.9301 0 0)
(15.9707 0 0)
(16.0113 0 0)
(16.0518 0 0)
(16.0924 0 0)
(16.1329 0 0)
(16.1735 0 0)
(16.214 0 0)
(16.2546 0 0)
(16.2952 0 0)
(16.3357 0 0)
(16.3763 0 0)
(16.4168 0 0)
(16.4574 0 0)
(16.498 0 0)
(16.5385 0 0)
(16.5791 0 0)
(16.6197 0 0)
(16.6602 0 0)
(16.7008 0 0)
(16.7413 0 0)
(16.7819 0 0)
(16.8225 0 0)
(16.863 0 0)
(16.9036 0 0)
(16.9442 0 0)
(16.9847 0 0)
(17.0253 0 0)
(17.0659 0 0)
(17.1064 0 0)
(17.147 0 0)
(17.1875 0 0)
(17.2281 0 0)
(17.2687 0 0)
(17.3092 0 0)
(17.3498 0 0)
(17.3904 0 0)
(17.4309 0 0)
(17.4715 0 0)
(17.5121 0 0)
(17.5526 0 0)
(17.5932 0 0)
(17.6338 0 0)
(17.6743 0 0)
(17.7149 0 0)
(17.7555 0 0)
(17.7961 0 0)
(17.8366 0 0)
(17.8772 0 0)
(17.9178 0 0)
(17.9583 0 0)
(17.9989 0 0)
(18.0395 0 0)
(18.08 0 0)
(18.1206 0 0)
(18.1612 0 0)
(18.2017 0 0)
(18.2423 0 0)
(18.2829 0 0)
(18.3235 0 0)
(18.364 0 0)
(18.4046 0 0)
(18.4452 0 0)
(18.4857 0 0)
(18.5263 0 0)
(18.5669 0 0)
(18.6075 0 0)
(18.648 0 0)
(18.6886 0 0)
(18.7292 0 0)
(18.7698 0 0)
(18.8103 0 0)
(18.8509 0 0)
(18.8915 0 0)
(18.9321 0 0)
(18.9726 0 0)
(19.0132 0 0)
(19.0538 0 0)
(19.0944 0 0)
(19.1349 0 0)
(19.1755 0 0)
(19.2161 0 0)
(19.2567 0 0)
(19.2972 0 0)
(19.3378 0 0)
(19.3784 0 0)
(19.419 0 0)
(19.4595 0 0)
(19.5001 0 0)
(19.5407 0 0)
(19.5813 0 0)
(19.6219 0 0)
(19.6624 0 0)
(19.703 0 0)
(19.7436 0 0)
(19.7842 0 0)
(19.8247 0 0)
(19.8653 0 0)
(19.9059 0 0)
(19.9465 0 0)
(19.9871 0 0)
(20.0276 0 0)
(20.0682 0 0)
(20.1088 0 0)
(20.1494 0 0)
(20.19 0 0)
(20.2306 0 0)
(20.2711 0 0)
(20.3117 0 0)
(20.3523 0 0)
(20.3929 0 0)
(20.4335 0 0)
(20.474 0 0)
(20.5146 0 0)
(20.5552 0 0)
(20.5958 0 0)
(20.6364 0 0)
(20.677 0 0)
(20.7176 0 0)
(20.7581 0 0)
(20.7987 0 0)
(20.8393 0 0)
(20.8799 0 0)
(20.9205 0 0)
(20.9611 0 0)
(21.0016 0 0)
(21.0422 0 0)
(21.0828 0 0)
(21.1234 0 0)
(21.164 0 0)
(21.2046 0 0)
(21.2452 0 0)
(21.2858 0 0)
(21.3263 0 0)
(21.3669 0 0)
(21.4075 0 0)
(21.4481 0 0)
(21.4887 0 0)
(21.5293 0 0)
(21.5699 0 0)
(21.6105 0 0)
(21.651 0 0)
(21.6916 0 0)
(21.7322 0 0)
(21.7728 0 0)
(21.8134 0 0)
(21.854 0 0)
(21.8946 0 0)
(21.9352 0 0)
(21.9758 0 0)
(22.0164 0 0)
(22.057 0 0)
(22.0975 0 0)
(22.1381 0 0)
(22.1787 0 0)
(22.2193 0 0)
(22.2599 0 0)
(22.3005 0 0)
(22.3411 0 0)
(22.3817 0 0)
(22.4223 0 0)
(22.4629 0 0)
(22.5035 0 0)
(22.5441 0 0)
(22.5847 0 0)
(22.6253 0 0)
(22.6658 0 0)
(22.7064 0 0)
(22.747 0 0)
(22.7876 0 0)
(22.8282 0 0)
(22.8688 0 0)
(22.9094 0 0)
(22.95 0 0)
(22.9906 0 0)
(23.0312 0 0)
(23.0718 0 0)
(23.1124 0 0)
(23.153 0 0)
(23.1936 0 0)
(23.2342 0 0)
(23.2748 0 0)
(23.3154 0 0)
(23.356 0 0)
(23.3966 0 0)
(23.4372 0 0)
(23.4778 0 0)
(23.5184 0 0)
(23.559 0 0)
(23.5996 0 0)
(23.6402 0 0)
(23.6808 0 0)
(23.7214 0 0)
(23.762 0 0)
(23.8026 0 0)
(23.8432 0 0)
(23.8838 0 0)
(23.9244 0 0)
(23.965 0 0)
(24.0056 0 0)
(24.0462 0 0)
(24.0868 0 0)
(24.1274 0 0)
(24.168 0 0)
(24.2086 0 0)
(24.2492 0 0)
(24.2898 0 0)
(24.3304 0 0)
(24.371 0 0)
(24.4116 0 0)
(24.4522 0 0)
(24.4928 0 0)
(24.5334 0 0)
(24.574 0 0)
(24.6146 0 0)
(24.6552 0 0)
(24.6959 0 0)
(24.7365 0 0)
(24.7771 0 0)
(24.8177 0 0)
(24.8583 0 0)
(24.8989 0 0)
(24.9395 0 0)
(24.9801 0 0)
(25.0207 0 0)
(25.0613 0 0)
(25.1019 0 0)
(25.1425 0 0)
(25.1831 0 0)
(25.2237 0 0)
(25.2644 0 0)
(25.305 0 0)
(25.3456 0 0)
(25.3862 0 0)
(25.4268 0 0)
(25.4674 0 0)
(25.508 0 0)
(25.5486 0 0)
(25.5892 0 0)
(25.6298 0 0)
(25.6704 0 0)
(25.7111 0 0)
(25.7517 0 0)
(25.7923 0 0)
(25.8329 0 0)
(25.8735 0 0)
(25.9141 0 0)
(25.9547 0 0)
(25.9953 0 0)
(26.036 0 0)
(26.0766 0 0)
(26.1172 0 0)
(26.1578 0 0)
(26.1984 0 0)
(26.239 0 0)
(26.2796 0 0)
(26.3202 0 0)
(26.3609 0 0)
(26.4015 0 0)
(26.4421 0 0)
(26.4827 0 0)
(26.5233 0 0)
(26.5639 0 0)
(26.6046 0 0)
(26.6452 0 0)
(26.6858 0 0)
(26.7264 0 0)
(26.767 0 0)
(26.8076 0 0)
(26.8482 0 0)
(26.8889 0 0)
(26.9295 0 0)
(26.9701 0 0)
(27.0107 0 0)
(27.0513 0 0)
(27.092 0 0)
(27.1326 0 0)
(27.1732 0 0)
(27.2138 0 0)
(27.2544 0 0)
(27.295 0 0)
(27.3357 0 0)
(27.3763 0 0)
(27.4169 0 0)
(27.4575 0 0)
(27.4981 0 0)
(27.5388 0 0)
(27.5794 0 0)
(27.62 0 0)
(27.6606 0 0)
(27.7013 0 0)
(27.7419 0 0)
(27.7825 0 0)
(27.8231 0 0)
(27.8637 0 0)
(27.9044 0 0)
(27.945 0 0)
(27.9856 0 0)
(28.0262 0 0)
(28.0669 0 0)
(28.1075 0 0)
(28.1481 0 0)
(28.1887 0 0)
(28.2293 0 0)
(28.27 0 0)
(28.3106 0 0)
(28.3512 0 0)
(28.3918 0 0)
(28.4325 0 0)
(28.4731 0 0)
(28.5137 0 0)
(28.5543 0 0)
(28.595 0 0)
(28.6356 0 0)
(28.6762 0 0)
(28.7169 0 0)
(28.7575 0 0)
(28.7981 0 0)
(28.8387 0 0)
(28.8794 0 0)
(28.92 0 0)
(28.9606 0 0)
(29.0012 0 0)
(29.0419 0 0)
(29.0825 0 0)
(29.1231 0 0)
(29.1638 0 0)
(29.2044 0 0)
(29.245 0 0)
(29.2856 0 0)
(29.3263 0 0)
(29.3669 0 0)
(29.4075 0 0)
(29.4482 0 0)
(29.4888 0 0)
(29.5294 0 0)
(29.5701 0 0)
(29.6107 0 0)
(29.6513 0 0)
(29.692 0 0)
(29.7326 0 0)
(29.7732 0 0)
(29.8139 0 0)
(29.8545 0 0)
(29.8951 0 0)
(29.9357 0 0)
(29.9764 0 0)
(30.017 0 0)
(30.0576 0 0)
(30.0983 0 0)
(30.1389 0 0)
(30.1796 0 0)
(30.2202 0 0)
(30.2608 0 0)
(30.3015 0 0)
(30.3421 0 0)
(30.3827 0 0)
(30.4234 0 0)
(30.464 0 0)
(30.5046 0 0)
(30.5453 0 0)
(30.5859 0 0)
(30.6265 0 0)
(30.6672 0 0)
(30.7078 0 0)
(30.7485 0 0)
(30.7891 0 0)
(30.8297 0 0)
(30.8704 0 0)
(30.911 0 0)
(30.9516 0 0)
(30.9923 0 0)
(31.0329 0 0)
(31.0736 0 0)
(31.1142 0 0)
(31.1548 0 0)
(31.1955 0 0)
(31.2361 0 0)
(31.2768 0 0)
(31.3174 0 0)
(31.358 0 0)
(31.3987 0 0)
(31.4393 0 0)
(31.48 0 0)
(31.5206 0 0)
(31.5612 0 0)
(31.6019 0 0)
(31.6425 0 0)
(31.6832 0 0)
(31.7238 0 0)
(31.7644 0 0)
(31.8051 0 0)
(31.8457 0 0)
(31.8864 0 0)
(31.927 0 0)
(31.9677 0 0)
(32.0083 0 0)
(32.049 0 0)
(32.0896 0 0)
(32.1302 0 0)
(32.1709 0 0)
(32.2115 0 0)
(32.2522 0 0)
(32.2928 0 0)
(32.3335 0 0)
(32.3741 0 0)
(32.4148 0 0)
(32.4554 0 0)
(32.496 0 0)
(32.5367 0 0)
(32.5773 0 0)
(32.618 0 0)
(32.6586 0 0)
(32.6993 0 0)
(32.7399 0 0)
(32.7806 0 0)
(32.8212 0 0)
(32.8619 0 0)
(32.9025 0 0)
(32.9432 0 0)
(32.9838 0 0)
(33.0245 0 0)
(33.0651 0 0)
(33.1058 0 0)
(33.1464 0 0)
(33.1871 0 0)
(33.2277 0 0)
(33.2684 0 0)
(33.309 0 0)
(33.3497 0 0)
(33.3903 0 0)
(33.431 0 0)
(33.4716 0 0)
(33.5123 0 0)
(33.5529 0 0)
(33.5936 0 0)
(33.6342 0 0)
(33.6749 0 0)
(33.7155 0 0)
(33.7562 0 0)
(33.7968 0 0)
(33.8375 0 0)
(33.8781 0 0)
(33.9188 0 0)
(33.9595 0 0)
(34.0001 0 0)
(34.0408 0 0)
(34.0814 0 0)
(34.1221 0 0)
(34.1627 0 0)
(34.2034 0 0)
(34.244 0 0)
(34.2847 0 0)
(34.3253 0 0)
(34.366 0 0)
(34.4067 0 0)
(34.4473 0 0)
(34.488 0 0)
(34.5286 0 0)
(34.5693 0 0)
(34.6099 0 0)
(34.6506 0 0)
(34.6913 0 0)
(34.7319 0 0)
(34.7726 0 0)
(34.8132 0 0)
(34.8539 0 0)
(34.8945 0 0)
(34.9352 0 0)
(34.9759 0 0)
(35.0165 0 0)
(35.0572 0 0)
(35.0978 0 0)
(35.1385 0 0)
(35.1792 0 0)
(35.2198 0 0)
(35.2605 0 0)
(35.3011 0 0)
(35.3418 0 0)
(35.3825 0 0)
(35.4231 0 0)
(35.4638 0 0)
(35.5044 0 0)
(35.5451 0 0)
(35.5858 0 0)
(35.6264 0 0)
(35.6671 0 0)
(35.7078 0 0)
(35.7484 0 0)
(35.7891 0 0)
(35.8297 0 0)
(35.8704 0 0)
(35.9111 0 0)
(35.9517 0 0)
(35.9924 0 0)
(36.0331 0 0)
(36.0737 0 0)
(36.1144 0 0)
(36.1551 0 0)
(36.1957 0 0)
(36.2364 0 0)
(36.2771 0 0)
(36.3177 0 0)
(36.3584 0 0)
(36.3991 0 0)
(36.4397 0 0)
(36.4804 0 0)
(36.5211 0 0)
(36.5617 0 0)
(36.6024 0 0)
(36.6431 0 0)
(36.6837 0 0)
(36.7244 0 0)
(36.7651 0 0)
(36.8057 0 0)
(36.8464 0 0)
(36.8871 0 0)
(36.9277 0 0)
(36.9684 0 0)
(37.0091 0 0)
(37.0497 0 0)
(37.0904 0 0)
(37.1311 0 0)
(37.1717 0 0)
(37.2124 0 0)
(37.2531 0 0)
(37.2938 0 0)
(37.3344 0 0)
(37.3751 0 0)
(37.4158 0 0)
(37.4564 0 0)
(37.4971 0 0)
(37.5378 0 0)
(37.5785 0 0)
(37.6191 0 0)
(37.6598 0 0)
(37.7005 0 0)
(37.7411 0 0)
(37.7818 0 0)
(37.8225 0 0)
(37.8632 0 0)
(37.9038 0 0)
(37.9445 0 0)
(37.9852 0 0)
(38.0259 0 0)
(38.0665 0 0)
(38.1072 0 0)
(38.1479 0 0)
(38.1886 0 0)
(38.2292 0 0)
(38.2699 0 0)
(38.3106 0 0)
(38.3513 0 0)
(38.3919 0 0)
(38.4326 0 0)
(38.4733 0 0)
(38.514 0 0)
(38.5547 0 0)
(38.5953 0 0)
(38.636 0 0)
(38.6767 0 0)
(38.7174 0 0)
(38.758 0 0)
(38.7987 0 0)
(38.8394 0 0)
(38.8801 0 0)
(38.9208 0 0)
(38.9614 0 0)
(39.0021 0 0)
(39.0428 0 0)
(39.0835 0 0)
(39.1242 0 0)
(39.1648 0 0)
(39.2055 0 0)
(39.2462 0 0)
(39.2869 0 0)
(39.3276 0 0)
(39.3682 0 0)
(39.4089 0 0)
(39.4496 0 0)
(39.4903 0 0)
(39.531 0 0)
(39.5716 0 0)
(39.6123 0 0)
(39.653 0 0)
(39.6937 0 0)
(39.7344 0 0)
(39.7751 0 0)
(39.8157 0 0)
(39.8564 0 0)
(39.8971 0 0)
(39.9378 0 0)
(39.9785 0 0)
(40.0192 0 0)
(40.0598 0 0)
(40.1005 0 0)
(40.1412 0 0)
(40.1819 0 0)
(40.2226 0 0)
(40.2633 0 0)
(40.304 0 0)
(40.3446 0 0)
(40.3853 0 0)
(40.426 0 0)
(40.4667 0 0)
(40.5074 0 0)
(40.5481 0 0)
(40.5888 0 0)
(40.6294 0 0)
(40.6701 0 0)
(40.7108 0 0)
(40.7515 0 0)
(40.7922 0 0)
(40.8329 0 0)
(40.8736 0 0)
(40.9143 0 0)
(40.955 0 0)
(40.9956 0 0)
(41.0363 0 0)
(41.077 0 0)
(41.1177 0 0)
(41.1584 0 0)
(41.1991 0 0)
(41.2398 0 0)
(41.2805 0 0)
(41.3212 0 0)
(41.3619 0 0)
(41.4025 0 0)
(41.4432 0 0)
(41.4839 0 0)
(41.5246 0 0)
(41.5653 0 0)
(41.606 0 0)
(41.6467 0 0)
(41.6874 0 0)
(41.7281 0 0)
(41.7688 0 0)
(41.8095 0 0)
(41.8502 0 0)
(41.8909 0 0)
(41.9316 0 0)
(41.9722 0 0)
(42.0129 0 0)
(42.0536 0 0)
(42.0943 0 0)
(42.135 0 0)
(42.1757 0 0)
(42.2164 0 0)
(42.2571 0 0)
(42.2978 0 0)
(42.3385 0 0)
(42.3792 0 0)
(42.4199 0 0)
(42.4606 0 0)
(42.5013 0 0)
(42.542 0 0)
(42.5827 0 0)
(42.6234 0 0)
(42.6641 0 0)
(42.7048 0 0)
(42.7455 0 0)
(42.7862 0 0)
(42.8269 0 0)
(42.8676 0 0)
(42.9083 0 0)
(42.949 0 0)
(42.9897 0 0)
(43.0304 0 0)
(43.0711 0 0)
(43.1118 0 0)
(43.1525 0 0)
(43.1932 0 0)
(43.2339 0 0)
(43.2746 0 0)
(43.3153 0 0)
(43.356 0 0)
(43.3967 0 0)
(43.4374 0 0)
(43.4781 0 0)
(43.5188 0 0)
(43.5595 0 0)
(43.6002 0 0)
(43.6409 0 0)
(43.6816 0 0)
(43.7223 0 0)
(43.763 0 0)
(43.8037 0 0)
(43.8444 0 0)
(43.8851 0 0)
(43.9258 0 0)
(43.9665 0 0)
(44.0072 0 0)
(44.0479 0 0)
(44.0886 0 0)
(44.1293 0 0)
(44.17 0 0)
(44.2107 0 0)
(44.2514 0 0)
(44.2921 0 0)
(44.3328 0 0)
(44.3735 0 0)
(44.4143 0 0)
(44.455 0 0)
(44.4957 0 0)
(44.5364 0 0)
(44.5771 0 0)
(44.6178 0 0)
(44.6585 0 0)
(44.6992 0 0)
(44.7399 0 0)
(44.7806 0 0)
(44.8213 0 0)
(44.862 0 0)
(44.9027 0 0)
(44.9435 0 0)
(44.9842 0 0)
(45.0249 0 0)
(45.0656 0 0)
(45.1063 0 0)
(45.147 0 0)
(45.1877 0 0)
(45.2284 0 0)
(45.2691 0 0)
(45.3098 0 0)
(45.3506 0 0)
(45.3913 0 0)
(45.432 0 0)
(45.4727 0 0)
(45.5134 0 0)
(45.5541 0 0)
(45.5948 0 0)
(45.6355 0 0)
(45.6762 0 0)
(45.717 0 0)
(45.7577 0 0)
(45.7984 0 0)
(45.8391 0 0)
(45.8798 0 0)
(45.9205 0 0)
(45.9612 0 0)
(46.0019 0 0)
(46.0427 0 0)
(46.0834 0 0)
(46.1241 0 0)
(46.1648 0 0)
(46.2055 0 0)
(46.2462 0 0)
(46.287 0 0)
(46.3277 0 0)
(46.3684 0 0)
(46.4091 0 0)
(46.4498 0 0)
(46.4905 0 0)
(46.5312 0 0)
(46.572 0 0)
(46.6127 0 0)
(46.6534 0 0)
(46.6941 0 0)
(46.7348 0 0)
(46.7755 0 0)
(46.8163 0 0)
(46.857 0 0)
(46.8977 0 0)
(46.9384 0 0)
(46.9791 0 0)
(47.0199 0 0)
(47.0606 0 0)
(47.1013 0 0)
(47.142 0 0)
(47.1827 0 0)
(47.2235 0 0)
(47.2642 0 0)
(47.3049 0 0)
(47.3456 0 0)
(47.3863 0 0)
(47.4271 0 0)
(47.4678 0 0)
(47.5085 0 0)
(47.5492 0 0)
(47.5899 0 0)
(47.6307 0 0)
(47.6714 0 0)
(47.7121 0 0)
(47.7528 0 0)
(47.7936 0 0)
(47.8343 0 0)
(47.875 0 0)
(47.9157 0 0)
(47.9564 0 0)
(47.9972 0 0)
(48.0379 0 0)
(48.0786 0 0)
(48.1193 0 0)
(48.1601 0 0)
(48.2008 0 0)
(48.2415 0 0)
(48.2822 0 0)
(48.323 0 0)
(48.3637 0 0)
(48.4044 0 0)
(48.4451 0 0)
(48.4859 0 0)
(48.5266 0 0)
(48.5673 0 0)
(48.608 0 0)
(48.6488 0 0)
(48.6895 0 0)
(48.7302 0 0)
(48.771 0 0)
(48.8117 0 0)
(48.8524 0 0)
(48.8931 0 0)
(48.9339 0 0)
(48.9746 0 0)
(49.0153 0 0)
(49.056 0 0)
(49.0968 0 0)
(49.1375 0 0)
(49.1782 0 0)
(49.219 0 0)
(49.2597 0 0)
(49.3004 0 0)
(49.3412 0 0)
(49.3819 0 0)
(49.4226 0 0)
(49.4633 0 0)
(49.5041 0 0)
(49.5448 0 0)
(49.5855 0 0)
(49.6263 0 0)
(49.667 0 0)
(49.7077 0 0)
(49.7485 0 0)
(49.7892 0 0)
(49.8299 0 0)
(49.8707 0 0)
(49.9114 0 0)
(49.9521 0 0)
(49.9929 0 0)
(50.0336 0 0)
(50.0743 0 0)
(50.1151 0 0)
(50.1558 0 0)
(50.1965 0 0)
(50.2373 0 0)
(50.278 0 0)
(50.3187 0 0)
(50.3595 0 0)
(50.4002 0 0)
(50.4409 0 0)
(50.4817 0 0)
(50.5224 0 0)
(50.5631 0 0)
(50.6039 0 0)
(50.6446 0 0)
(50.6853 0 0)
(50.7261 0 0)
(50.7668 0 0)
(50.8076 0 0)
(50.8483 0 0)
(50.889 0 0)
(50.9298 0 0)
(50.9705 0 0)
(51.0112 0 0)
(51.052 0 0)
(51.0927 0 0)
(51.1335 0 0)
(51.1742 0 0)
(51.2149 0 0)
(51.2557 0 0)
(51.2964 0 0)
(51.3372 0 0)
(51.3779 0 0)
(51.4186 0 0)
(51.4594 0 0)
(51.5001 0 0)
(51.5409 0 0)
(51.5816 0 0)
(51.6223 0 0)
(51.6631 0 0)
(51.7038 0 0)
(51.7446 0 0)
(51.7853 0 0)
(51.826 0 0)
(51.8668 0 0)
(51.9075 0 0)
(51.9483 0 0)
(51.989 0 0)
(52.0298 0 0)
(52.0705 0 0)
(52.1112 0 0)
(52.152 0 0)
(52.1927 0 0)
(52.2335 0 0)
(52.2742 0 0)
(52.315 0 0)
(52.3557 0 0)
(52.3965 0 0)
(52.4372 0 0)
(52.4779 0 0)
(52.5187 0 0)
(52.5594 0 0)
(52.6002 0 0)
(52.6409 0 0)
(52.6817 0 0)
(52.7224 0 0)
(52.7632 0 0)
(52.8039 0 0)
(52.8447 0 0)
(52.8854 0 0)
(52.9261 0 0)
(52.9669 0 0)
(53.0076 0 0)
(53.0484 0 0)
(53.0891 0 0)
(53.1299 0 0)
(53.1706 0 0)
(53.2114 0 0)
(53.2521 0 0)
(53.2929 0 0)
(53.3336 0 0)
(53.3744 0 0)
(53.4151 0 0)
(53.4559 0 0)
(53.4966 0 0)
(53.5374 0 0)
(53.5781 0 0)
(53.6189 0 0)
(53.6596 0 0)
(53.7004 0 0)
(53.7411 0 0)
(53.7819 0 0)
(53.8226 0 0)
(53.8634 0 0)
(53.9041 0 0)
(53.9449 0 0)
(53.9856 0 0)
(54.0264 0 0)
(54.0671 0 0)
(54.1079 0 0)
(54.1486 0 0)
(54.1894 0 0)
(54.2302 0 0)
(54.2709 0 0)
(54.3117 0 0)
(54.3524 0 0)
(54.3932 0 0)
(54.4339 0 0)
(54.4747 0 0)
(54.5154 0 0)
(54.5562 0 0)
(54.5969 0 0)
(54.6377 0 0)
(54.6784 0 0)
(54.7192 0 0)
(54.76 0 0)
(54.8007 0 0)
(54.8415 0 0)
(54.8822 0 0)
(54.923 0 0)
(54.9637 0 0)
(55.0045 0 0)
(55.0453 0 0)
(55.086 0 0)
(55.1268 0 0)
(55.1675 0 0)
(55.2083 0 0)
(55.249 0 0)
(55.2898 0 0)
(55.3306 0 0)
(55.3713 0 0)
(55.4121 0 0)
(55.4528 0 0)
(55.4936 0 0)
(55.5343 0 0)
(55.5751 0 0)
(55.6159 0 0)
(55.6566 0 0)
(55.6974 0 0)
(55.7381 0 0)
(55.7789 0 0)
(55.8197 0 0)
(55.8604 0 0)
(55.9012 0 0)
(55.942 0 0)
(55.9827 0 0)
(56.0235 0 0)
(56.0642 0 0)
(56.105 0 0)
(56.1458 0 0)
(56.1865 0 0)
(56.2273 0 0)
(56.268 0 0)
(56.3088 0 0)
(56.3496 0 0)
(56.3903 0 0)
(56.4311 0 0)
(56.4719 0 0)
(56.5126 0 0)
(56.5534 0 0)
(56.5942 0 0)
(56.6349 0 0)
(56.6757 0 0)
(56.7164 0 0)
(56.7572 0 0)
(56.798 0 0)
(56.8387 0 0)
(56.8795 0 0)
(56.9203 0 0)
(56.961 0 0)
(57.0018 0 0)
(57.0426 0 0)
(57.0833 0 0)
(57.1241 0 0)
(57.1649 0 0)
(57.2056 0 0)
(57.2464 0 0)
(57.2872 0 0)
(57.3279 0 0)
(57.3687 0 0)
(57.4095 0 0)
(57.4502 0 0)
(57.491 0 0)
(57.5318 0 0)
(57.5725 0 0)
(57.6133 0 0)
(57.6541 0 0)
(57.6949 0 0)
(57.7356 0 0)
(57.7764 0 0)
(57.8172 0 0)
(57.8579 0 0)
(57.8987 0 0)
(57.9395 0 0)
(57.9802 0 0)
(58.021 0 0)
(58.0618 0 0)
(58.1026 0 0)
(58.1433 0 0)
(58.1841 0 0)
(58.2249 0 0)
(58.2656 0 0)
(58.3064 0 0)
(58.3472 0 0)
(58.388 0 0)
(58.4287 0 0)
(58.4695 0 0)
(58.5103 0 0)
(58.551 0 0)
(58.5918 0 0)
(58.6326 0 0)
(58.6734 0 0)
(58.7141 0 0)
(58.7549 0 0)
(58.7957 0 0)
(58.8365 0 0)
(58.8772 0 0)
(58.918 0 0)
(58.9588 0 0)
(58.9996 0 0)
(59.0403 0 0)
(59.0811 0 0)
(59.1219 0 0)
(59.1627 0 0)
(59.2034 0 0)
(59.2442 0 0)
(59.285 0 0)
(59.3258 0 0)
(59.3665 0 0)
(59.4073 0 0)
(59.4481 0 0)
(59.4889 0 0)
(59.5297 0 0)
(59.5704 0 0)
(59.6112 0 0)
(59.652 0 0)
(59.6928 0 0)
(59.7335 0 0)
(59.7743 0 0)
(59.8151 0 0)
(59.8559 0 0)
(59.8967 0 0)
(59.9374 0 0)
(59.9782 0 0)
(60.019 0 0)
(60.0598 0 0)
(60.1006 0 0)
(60.1413 0 0)
(60.1821 0 0)
(60.2229 0 0)
(60.2637 0 0)
(60.3045 0 0)
(60.3452 0 0)
(60.386 0 0)
(60.4268 0 0)
(60.4676 0 0)
(60.5084 0 0)
(60.5492 0 0)
(60.5899 0 0)
(60.6307 0 0)
(60.6715 0 0)
(60.7123 0 0)
(60.7531 0 0)
(60.7938 0 0)
(60.8346 0 0)
(60.8754 0 0)
(60.9162 0 0)
(60.957 0 0)
(60.9978 0 0)
(61.0385 0 0)
(61.0793 0 0)
(61.1201 0 0)
(61.1609 0 0)
(61.2017 0 0)
(61.2425 0 0)
(61.2833 0 0)
(61.324 0 0)
(61.3648 0 0)
(61.4056 0 0)
(61.4464 0 0)
(61.4872 0 0)
(61.528 0 0)
(61.5688 0 0)
(61.6095 0 0)
(61.6503 0 0)
(61.6911 0 0)
(61.7319 0 0)
(61.7727 0 0)
(61.8135 0 0)
(61.8543 0 0)
(61.8951 0 0)
(61.9358 0 0)
(61.9766 0 0)
(62.0174 0 0)
(62.0582 0 0)
(62.099 0 0)
(62.1398 0 0)
(62.1806 0 0)
(62.2214 0 0)
(62.2622 0 0)
(62.303 0 0)
(62.3437 0 0)
(62.3845 0 0)
(62.4253 0 0)
(62.4661 0 0)
(62.5069 0 0)
(62.5477 0 0)
(62.5885 0 0)
(62.6293 0 0)
(62.6701 0 0)
(62.7109 0 0)
(62.7517 0 0)
(62.7924 0 0)
(62.8332 0 0)
(62.874 0 0)
(62.9148 0 0)
(62.9556 0 0)
(62.9964 0 0)
(63.0372 0 0)
(63.078 0 0)
(63.1188 0 0)
(63.1596 0 0)
(63.2004 0 0)
(63.2412 0 0)
(63.282 0 0)
(63.3228 0 0)
(63.3636 0 0)
(63.4043 0 0)
(63.4451 0 0)
(63.4859 0 0)
(63.5267 0 0)
(63.5675 0 0)
(63.6083 0 0)
(63.6491 0 0)
(63.6899 0 0)
(63.7307 0 0)
(63.7715 0 0)
(63.8123 0 0)
(63.8531 0 0)
(63.8939 0 0)
(63.9347 0 0)
(63.9755 0 0)
(64.0163 0 0)
(64.0571 0 0)
(64.0979 0 0)
(64.1387 0 0)
(64.1795 0 0)
(64.2203 0 0)
(64.2611 0 0)
(64.3019 0 0)
(64.3427 0 0)
(64.3835 0 0)
(64.4243 0 0)
(64.4651 0 0)
(64.5059 0 0)
(64.5467 0 0)
(64.5875 0 0)
(64.6283 0 0)
(64.6691 0 0)
(64.7099 0 0)
(64.7507 0 0)
(64.7915 0 0)
(64.8323 0 0)
(64.8731 0 0)
(64.9139 0 0)
(64.9547 0 0)
(64.9955 0 0)
(65.0363 0 0)
(65.0771 0 0)
(65.1179 0 0)
(65.1587 0 0)
(65.1995 0 0)
(65.2403 0 0)
(65.2811 0 0)
(65.3219 0 0)
(65.3627 0 0)
(65.4035 0 0)
(65.4443 0 0)
(65.4851 0 0)
(65.5259 0 0)
(65.5667 0 0)
(65.6075 0 0)
(65.6483 0 0)
(65.6891 0 0)
(65.7299 0 0)
(65.7707 0 0)
(65.8116 0 0)
(65.8524 0 0)
(65.8932 0 0)
(65.934 0 0)
(65.9748 0 0)
(66.0156 0 0)
(66.0564 0 0)
(66.0972 0 0)
(66.138 0 0)
(66.1788 0 0)
(66.2196 0 0)
(66.2604 0 0)
(66.3012 0 0)
(66.342 0 0)
(66.3828 0 0)
(66.4237 0 0)
(66.4645 0 0)
(66.5053 0 0)
(66.5461 0 0)
(66.5869 0 0)
(66.6277 0 0)
(66.6685 0 0)
(66.7093 0 0)
(66.7501 0 0)
(66.7909 0 0)
(66.8317 0 0)
(66.8726 0 0)
(66.9134 0 0)
(66.9542 0 0)
(66.995 0 0)
(67.0358 0 0)
(67.0766 0 0)
(67.1174 0 0)
(67.1582 0 0)
(67.199 0 0)
(67.2399 0 0)
(67.2807 0 0)
(67.3215 0 0)
(67.3623 0 0)
(67.4031 0 0)
(67.4439 0 0)
(67.4847 0 0)
(67.5255 0 0)
(67.5663 0 0)
(67.6072 0 0)
(67.648 0 0)
(67.6888 0 0)
(67.7296 0 0)
(67.7704 0 0)
(67.8112 0 0)
(67.852 0 0)
(67.8929 0 0)
(67.9337 0 0)
(67.9745 0 0)
(68.0153 0 0)
(68.0561 0 0)
(68.0969 0 0)
(68.1377 0 0)
(68.1786 0 0)
(68.2194 0 0)
(68.2602 0 0)
(68.301 0 0)
(68.3418 0 0)
(68.3826 0 0)
(68.4235 0 0)
(68.4643 0 0)
(68.5051 0 0)
(68.5459 0 0)
(68.5867 0 0)
(68.6275 0 0)
(68.6684 0 0)
(68.7092 0 0)
(68.75 0 0)
(68.7908 0 0)
(68.8316 0 0)
(68.8725 0 0)
(68.9133 0 0)
(68.9541 0 0)
(68.9949 0 0)
(69.0357 0 0)
(69.0765 0 0)
(69.1174 0 0)
(69.1582 0 0)
(69.199 0 0)
(69.2398 0 0)
(69.2806 0 0)
(69.3215 0 0)
(69.3623 0 0)
(69.4031 0 0)
(69.4439 0 0)
(69.4847 0 0)
(69.5256 0 0)
(69.5664 0 0)
(69.6072 0 0)
(69.648 0 0)
(69.6889 0 0)
(69.7297 0 0)
(69.7705 0 0)
(69.8113 0 0)
(69.8521 0 0)
(69.893 0 0)
(69.9338 0 0)
(69.9746 0 0)
(70.0154 0 0)
(70.0563 0 0)
(70.0971 0 0)
(70.1379 0 0)
(70.1787 0 0)
(70.2196 0 0)
(70.2604 0 0)
(70.3012 0 0)
(70.342 0 0)
(70.3829 0 0)
(70.4237 0 0)
(70.4645 0 0)
(70.5053 0 0)
(70.5462 0 0)
(70.587 0 0)
(70.6278 0 0)
(70.6686 0 0)
(70.7095 0 0)
(70.7503 0 0)
(70.7911 0 0)
(70.8319 0 0)
(70.8728 0 0)
(70.9136 0 0)
(70.9544 0 0)
(70.9952 0 0)
(71.0361 0 0)
(71.0769 0 0)
(71.1177 0 0)
(71.1586 0 0)
(71.1994 0 0)
(71.2402 0 0)
(71.281 0 0)
(71.3219 0 0)
(71.3627 0 0)
(71.4035 0 0)
(71.4444 0 0)
(71.4852 0 0)
(71.526 0 0)
(71.5668 0 0)
(71.6077 0 0)
(71.6485 0 0)
(71.6893 0 0)
(71.7302 0 0)
(71.771 0 0)
(71.8118 0 0)
(71.8527 0 0)
(71.8935 0 0)
(71.9343 0 0)
(71.9751 0 0)
(72.016 0 0)
(72.0568 0 0)
(72.0976 0 0)
(72.1385 0 0)
(72.1793 0 0)
(72.2201 0 0)
(72.261 0 0)
(72.3018 0 0)
(72.3426 0 0)
(72.3835 0 0)
(72.4243 0 0)
(72.4651 0 0)
(72.506 0 0)
(72.5468 0 0)
(72.5876 0 0)
(72.6285 0 0)
(72.6693 0 0)
(72.7101 0 0)
(72.751 0 0)
(72.7918 0 0)
(72.8326 0 0)
(72.8735 0 0)
(72.9143 0 0)
(72.9551 0 0)
(72.996 0 0)
(73.0368 0 0)
(73.0777 0 0)
(73.1185 0 0)
(73.1593 0 0)
(73.2002 0 0)
(73.241 0 0)
(73.2818 0 0)
(73.3227 0 0)
(73.3635 0 0)
(73.4043 0 0)
(73.4452 0 0)
(73.486 0 0)
(73.5269 0 0)
(73.5677 0 0)
(73.6085 0 0)
(73.6494 0 0)
(73.6902 0 0)
(73.7311 0 0)
(73.7719 0 0)
(73.8127 0 0)
(73.8536 0 0)
(73.8944 0 0)
(73.9352 0 0)
(73.9761 0 0)
(74.0169 0 0)
(74.0578 0 0)
(74.0986 0 0)
(74.1394 0 0)
(74.1803 0 0)
(74.2211 0 0)
(74.262 0 0)
(74.3028 0 0)
(74.3436 0 0)
(74.3845 0 0)
(74.4253 0 0)
(74.4662 0 0)
(74.507 0 0)
(74.5479 0 0)
(74.5887 0 0)
(74.6295 0 0)
(74.6704 0 0)
(74.7112 0 0)
(74.7521 0 0)
(74.7929 0 0)
(74.8338 0 0)
(74.8746 0 0)
(74.9154 0 0)
(74.9563 0 0)
(74.9971 0 0)
(75.038 0 0)
(75.0788 0 0)
(75.1197 0 0)
(75.1605 0 0)
(75.2013 0 0)
(75.2422 0 0)
(75.283 0 0)
(75.3239 0 0)
(75.3647 0 0)
(75.4056 0 0)
(75.4464 0 0)
(75.4873 0 0)
(75.5281 0 0)
(75.5689 0 0)
(75.6098 0 0)
(75.6506 0 0)
(75.6915 0 0)
(75.7323 0 0)
(75.7732 0 0)
(75.814 0 0)
(75.8549 0 0)
(75.8957 0 0)
(75.9366 0 0)
(75.9774 0 0)
(76.0183 0 0)
(76.0591 0 0)
(76.1 0 0)
(76.1408 0 0)
(76.1817 0 0)
(76.2225 0 0)
(76.2634 0 0)
(76.3042 0 0)
(76.345 0 0)
(76.3859 0 0)
(76.4267 0 0)
(76.4676 0 0)
(76.5084 0 0)
(76.5493 0 0)
(76.5901 0 0)
(76.631 0 0)
(76.6718 0 0)
(76.7127 0 0)
(76.7535 0 0)
(76.7944 0 0)
(76.8352 0 0)
(76.8761 0 0)
(76.9169 0 0)
(76.9578 0 0)
(76.9987 0 0)
(77.0395 0 0)
(77.0804 0 0)
(77.1212 0 0)
(77.1621 0 0)
(77.2029 0 0)
(77.2438 0 0)
(77.2846 0 0)
(77.3255 0 0)
(77.3663 0 0)
(77.4072 0 0)
(77.448 0 0)
(77.4889 0 0)
(77.5297 0 0)
(77.5706 0 0)
(77.6114 0 0)
(77.6523 0 0)
(77.6931 0 0)
(77.734 0 0)
(77.7749 0 0)
(77.8157 0 0)
(77.8566 0 0)
(77.8974 0 0)
(77.9383 0 0)
(77.9791 0 0)
(78.02 0 0)
(78.0608 0 0)
(78.1017 0 0)
(78.1426 0 0)
(78.1834 0 0)
(78.2243 0 0)
(78.2651 0 0)
(78.306 0 0)
(78.3468 0 0)
(78.3877 0 0)
(78.4285 0 0)
(78.4694 0 0)
(78.5103 0 0)
(78.5511 0 0)
(78.592 0 0)
(78.6328 0 0)
(78.6737 0 0)
(78.7145 0 0)
(78.7554 0 0)
(78.7963 0 0)
(78.8371 0 0)
(78.878 0 0)
(78.9188 0 0)
(78.9597 0 0)
(79.0006 0 0)
(79.0414 0 0)
(79.0823 0 0)
(79.1231 0 0)
(79.164 0 0)
(79.2049 0 0)
(79.2457 0 0)
(79.2866 0 0)
(79.3274 0 0)
(79.3683 0 0)
(79.4092 0 0)
(79.45 0 0)
(79.4909 0 0)
(79.5317 0 0)
(79.5726 0 0)
(79.6135 0 0)
(79.6543 0 0)
(79.6952 0 0)
(79.736 0 0)
(79.7769 0 0)
(79.8178 0 0)
(79.8586 0 0)
(79.8995 0 0)
(79.9404 0 0)
(79.9812 0 0)
(80.0221 0 0)
(80.0629 0 0)
(80.1038 0 0)
(80.1447 0 0)
(80.1855 0 0)
(80.2264 0 0)
(80.2673 0 0)
(80.3081 0 0)
(80.349 0 0)
(80.3899 0 0)
(80.4307 0 0)
(80.4716 0 0)
(80.5124 0 0)
(80.5533 0 0)
(80.5942 0 0)
(80.635 0 0)
(80.6759 0 0)
(80.7168 0 0)
(80.7576 0 0)
(80.7985 0 0)
(80.8394 0 0)
(80.8802 0 0)
(80.9211 0 0)
(80.962 0 0)
(81.0028 0 0)
(81.0437 0 0)
(81.0846 0 0)
(81.1254 0 0)
(81.1663 0 0)
(81.2072 0 0)
(81.248 0 0)
(81.2889 0 0)
(81.3298 0 0)
(81.3706 0 0)
(81.4115 0 0)
(81.4524 0 0)
(81.4932 0 0)
(81.5341 0 0)
(81.575 0 0)
(81.6158 0 0)
(81.6567 0 0)
(81.6976 0 0)
(81.7385 0 0)
(81.7793 0 0)
(81.8202 0 0)
(81.8611 0 0)
(81.9019 0 0)
(81.9428 0 0)
(81.9837 0 0)
(82.0245 0 0)
(82.0654 0 0)
(82.1063 0 0)
(82.1471 0 0)
(82.188 0 0)
(82.2289 0 0)
(82.2698 0 0)
(82.3106 0 0)
(82.3515 0 0)
(82.3924 0 0)
(82.4332 0 0)
(82.4741 0 0)
(82.515 0 0)
(82.5559 0 0)
(82.5967 0 0)
(82.6376 0 0)
(82.6785 0 0)
(82.7194 0 0)
(82.7602 0 0)
(82.8011 0 0)
(82.842 0 0)
(82.8828 0 0)
(82.9237 0 0)
(82.9646 0 0)
(83.0055 0 0)
(83.0463 0 0)
(83.0872 0 0)
(83.1281 0 0)
(83.169 0 0)
(83.2098 0 0)
(83.2507 0 0)
(83.2916 0 0)
(83.3325 0 0)
(83.3733 0 0)
(83.4142 0 0)
(83.4551 0 0)
(83.496 0 0)
(83.5368 0 0)
(83.5777 0 0)
(83.6186 0 0)
(83.6595 0 0)
(83.7003 0 0)
(83.7412 0 0)
(83.7821 0 0)
(83.823 0 0)
(83.8638 0 0)
(83.9047 0 0)
(83.9456 0 0)
(83.9865 0 0)
(84.0273 0 0)
(84.0682 0 0)
(84.1091 0 0)
(84.15 0 0)
(84.1909 0 0)
(84.2317 0 0)
(84.2726 0 0)
(84.3135 0 0)
(84.3544 0 0)
(84.3952 0 0)
(84.4361 0 0)
(84.477 0 0)
(84.5179 0 0)
(84.5588 0 0)
(84.5996 0 0)
(84.6405 0 0)
(84.6814 0 0)
(84.7223 0 0)
(84.7632 0 0)
(84.804 0 0)
(84.8449 0 0)
(84.8858 0 0)
(84.9267 0 0)
(84.9676 0 0)
(85.0084 0 0)
(85.0493 0 0)
(85.0902 0 0)
(85.1311 0 0)
(85.172 0 0)
(85.2128 0 0)
(85.2537 0 0)
(85.2946 0 0)
(85.3355 0 0)
(85.3764 0 0)
(85.4172 0 0)
(85.4581 0 0)
(85.499 0 0)
(85.5399 0 0)
(85.5808 0 0)
(85.6217 0 0)
(85.6625 0 0)
(85.7034 0 0)
(85.7443 0 0)
(85.7852 0 0)
(85.8261 0 0)
(85.867 0 0)
(85.9078 0 0)
(85.9487 0 0)
(85.9896 0 0)
(86.0305 0 0)
(86.0714 0 0)
(86.1123 0 0)
(86.1531 0 0)
(86.194 0 0)
(86.2349 0 0)
(86.2758 0 0)
(86.3167 0 0)
(86.3576 0 0)
(86.3985 0 0)
(86.4393 0 0)
(86.4802 0 0)
(86.5211 0 0)
(86.562 0 0)
(86.6029 0 0)
(86.6438 0 0)
(86.6847 0 0)
(86.7255 0 0)
(86.7664 0 0)
(86.8073 0 0)
(86.8482 0 0)
(86.8891 0 0)
(86.93 0 0)
(86.9709 0 0)
(87.0117 0 0)
(87.0526 0 0)
(87.0935 0 0)
(87.1344 0 0)
(87.1753 0 0)
(87.2162 0 0)
(87.2571 0 0)
(87.298 0 0)
(87.3388 0 0)
(87.3797 0 0)
(87.4206 0 0)
(87.4615 0 0)
(87.5024 0 0)
(87.5433 0 0)
(87.5842 0 0)
(87.6251 0 0)
(87.666 0 0)
(87.7068 0 0)
(87.7477 0 0)
(87.7886 0 0)
(87.8295 0 0)
(87.8704 0 0)
(87.9113 0 0)
(87.9522 0 0)
(87.9931 0 0)
(88.034 0 0)
(88.0749 0 0)
(88.1157 0 0)
(88.1566 0 0)
(88.1975 0 0)
(88.2384 0 0)
(88.2793 0 0)
(88.3202 0 0)
(88.3611 0 0)
(88.402 0 0)
(88.4429 0 0)
(88.4838 0 0)
(88.5247 0 0)
(88.5655 0 0)
(88.6064 0 0)
(88.6473 0 0)
(88.6882 0 0)
(88.7291 0 0)
(88.77 0 0)
(88.8109 0 0)
(88.8518 0 0)
(88.8927 0 0)
(88.9336 0 0)
(88.9745 0 0)
(89.0154 0 0)
(89.0563 0 0)
(89.0971 0 0)
(89.138 0 0)
(89.1789 0 0)
(89.2198 0 0)
(89.2607 0 0)
(89.3016 0 0)
(89.3425 0 0)
(89.3834 0 0)
(89.4243 0 0)
(89.4652 0 0)
(89.5061 0 0)
(89.547 0 0)
(89.5879 0 0)
(89.6288 0 0)
(89.6697 0 0)
(89.7106 0 0)
(89.7515 0 0)
(89.7924 0 0)
(89.8333 0 0)
(89.8741 0 0)
(89.915 0 0)
(89.9559 0 0)
(89.9968 0 0)
(90.0377 0 0)
(90.0786 0 0)
(90.1195 0 0)
(90.1604 0 0)
(90.2013 0 0)
(90.2422 0 0)
(90.2831 0 0)
(90.324 0 0)
(90.3649 0 0)
(90.4058 0 0)
(90.4467 0 0)
(90.4876 0 0)
(90.5285 0 0)
(90.5694 0 0)
(90.6103 0 0)
(90.6512 0 0)
(90.6921 0 0)
(90.733 0 0)
(90.7739 0 0)
(90.8148 0 0)
(90.8557 0 0)
(90.8966 0 0)
(90.9375 0 0)
(90.9784 0 0)
(91.0193 0 0)
(91.0602 0 0)
(91.1011 0 0)
(91.142 0 0)
(91.1829 0 0)
(91.2238 0 0)
(91.2647 0 0)
(91.3056 0 0)
(91.3465 0 0)
(91.3874 0 0)
(91.4283 0 0)
(91.4692 0 0)
(91.5101 0 0)
(91.551 0 0)
(91.5919 0 0)
(91.6328 0 0)
(91.6737 0 0)
(91.7146 0 0)
(91.7555 0 0)
(91.7964 0 0)
(91.8373 0 0)
(91.8782 0 0)