/*--------------------------------*- C++ -*----------------------------------*\
  =========                 |
  \\      /  F ield         | OpenFOAM: The Open Source CFD Toolbox
   \\    /   O peration     | Website:  https://openfoam.org
    \\  /    A nd           | Version:  9
     \\/     M anipulation  |
\*---------------------------------------------------------------------------*/
FoamFile
{
    format      ascii;
    class       surfaceScalarField;
    location    "0.044";
    object      phi;
}
// * * * * * * * * * * * * * * * * * * * * * * * * * * * * * * * * * * * * * //

dimensions      [1 0 -1 0 0 0 0];

internalField   nonuniform List<scalar> 
9999
(
4.9001
4.92078
4.94146
4.96213
4.98281
5.00348
5.02416
5.04483
5.0655
5.08618
5.10685
5.12752
5.14819
5.16886
5.18953
5.2102
5.23086
5.25153
5.2722
5.29286
5.31353
5.3342
5.35486
5.37552
5.39619
5.41685
5.43751
5.45817
5.47883
5.49949
5.52015
5.54081
5.56147
5.58213
5.60278
5.62344
5.64409
5.66475
5.6854
5.70606
5.72671
5.74736
5.76802
5.78867
5.80932
5.82997
5.85062
5.87127
5.89191
5.91256
5.93321
5.95386
5.9745
5.99515
6.01579
6.03644
6.05708
6.07772
6.09837
6.11901
6.13965
6.16029
6.18093
6.20157
6.22221
6.24285
6.26349
6.28412
6.30476
6.32539
6.34603
6.36666
6.3873
6.40793
6.42857
6.4492
6.46983
6.49046
6.51109
6.53172
6.55235
6.57298
6.59361
6.61424
6.63486
6.65549
6.67612
6.69674
6.71737
6.73799
6.75861
6.77923
6.79986
6.82048
6.8411
6.86173
6.88235
6.90297
6.92359
6.9442
6.96482
6.98543
7.00605
7.02667
7.04728
7.0679
7.08852
7.10914
7.12975
7.15036
7.17097
7.19158
7.21219
7.2328
7.2534
7.27401
7.29462
7.31524
7.33585
7.35646
7.37707
7.39768
7.41829
7.43889
7.45949
7.48009
7.50069
7.52129
7.54189
7.56249
7.58309
7.60369
7.6243
7.64491
7.66551
7.68612
7.70672
7.72733
7.74792
7.76852
7.78911
7.8097
7.83029
7.85087
7.87146
7.89205
7.91264
7.93323
7.95382
7.97442
7.99502
8.01562
8.03622
8.05683
8.07743
8.09803
8.11863
8.13923
8.15982
8.18041
8.201
8.22158
8.24215
8.26273
8.2833
8.30387
8.32443
8.345
8.36557
8.38614
8.40671
8.42728
8.44786
8.46844
8.48902
8.50962
8.53021
8.55081
8.57142
8.59204
8.61266
8.63328
8.65391
8.67455
8.69519
8.71583
8.73648
8.75713
8.77778
8.79844
8.81909
8.83974
8.8604
8.88105
8.90171
8.92236
8.94302
8.96368
8.98435
9.00501
9.02568
9.04635
9.06702
9.08768
9.10835
9.12902
9.14969
9.17036
9.19102
9.21169
9.23236
9.25303
9.27369
9.29436
9.31503
9.3357
9.35636
9.37703
9.39769
9.41836
9.43903
9.45969
9.48036
9.50102
9.52169
9.54235
9.56302
9.58368
9.60435
9.62501
9.64568
9.66634
9.687
9.70767
9.72833
9.74899
9.76966
9.79032
9.81098
9.83165
9.85231
9.87297
9.89363
9.9143
9.93496
9.95562
9.97628
9.99694
10.0176
10.0383
10.0589
10.0796
10.1002
10.1209
10.1416
10.1622
10.1829
10.2035
10.2242
10.2449
10.2655
10.2862
10.3068
10.3275
10.3482
10.3688
10.3895
10.4101
10.4308
10.4514
10.4721
10.4928
10.5134
10.5341
10.5547
10.5754
10.596
10.6167
10.6374
10.658
10.6787
10.6993
10.72
10.7406
10.7613
10.7819
10.8026
10.8233
10.8439
10.8646
10.8852
10.9059
10.9265
10.9472
10.9678
10.9885
11.0091
11.0298
11.0504
11.0711
11.0917
11.1124
11.133
11.1537
11.1744
11.195
11.2157
11.2363
11.257
11.2776
11.2983
11.3189
11.3396
11.3602
11.3809
11.4015
11.4222
11.4428
11.4634
11.4841
11.5047
11.5254
11.546
11.5667
11.5873
11.608
11.6286
11.6493
11.6699
11.6906
11.7112
11.7319
11.7525
11.7732
11.7938
11.8144
11.8351
11.8557
11.8764
11.897
11.9177
11.9383
11.959
11.9796
12.0002
12.0209
12.0415
12.0622
12.0828
12.1035
12.1241
12.1447
12.1654
12.186
12.2067
12.2273
12.2479
12.2686
12.2892
12.3099
12.3305
12.3511
12.3718
12.3924
12.4131
12.4337
12.4543
12.475
12.4956
12.5163
12.5369
12.5575
12.5782
12.5988
12.6194
12.6401
12.6607
12.6814
12.702
12.7226
12.7433
12.7639
12.7845
12.8052
12.8258
12.8464
12.8671
12.8877
12.9083
12.929
12.9496
12.9702
12.9909
13.0115
13.0321
13.0528
13.0734
13.094
13.1147
13.1353
13.1559
13.1766
13.1972
13.2178
13.2385
13.2591
13.2797
13.3004
13.321
13.3416
13.3622
13.3829
13.4035
13.4241
13.4448
13.4654
13.486
13.5066
13.5273
13.5479
13.5685
13.5891
13.6098
13.6304
13.651
13.6716
13.6923
13.7129
13.7335
13.7541
13.7748
13.7954
13.816
13.8366
13.8573
13.8779
13.8985
13.9191
13.9398
13.9604
13.981
14.0016
14.0222
14.0429
14.0635
14.0841
14.1047
14.1253
14.146
14.1666
14.1872
14.2078
14.2284
14.2491
14.2697
14.2903
14.3109
14.3315
14.3522
14.3728
14.3934
14.414
14.4346
14.4552
14.4759
14.4965
14.5171
14.5377
14.5583
14.5789
14.5995
14.6202
14.6408
14.6614
14.682
14.7026
14.7232
14.7438
14.7645
14.7851
14.8057
14.8263
14.8469
14.8675
14.8881
14.9087
14.9293
14.95
14.9706
14.9912
15.0118
15.0324
15.053
15.0736
15.0942
15.1148
15.1354
15.156
15.1766
15.1972
15.2179
15.2385
15.2591
15.2797
15.3003
15.3209
15.3415
15.3621
15.3827
15.4033
15.4239
15.4445
15.4651
15.4857
15.5063
15.5269
15.5475
15.5681
15.5887
15.6093
15.6299
15.6505
15.6711
15.6917
15.7123
15.7329
15.7535
15.7741
15.7947
15.8153
15.8359
15.8565
15.8771
15.8977
15.9183
15.9389
15.9595
15.9801
16.0007
16.0213
16.0419
16.0625
16.0831
16.1037
16.1243
16.1448
16.1654
16.186
16.2066
16.2272
16.2478
16.2684
16.289
16.3096
16.3302
16.3508
16.3714
16.3919
16.4125
16.4331
16.4537
16.4743
16.4949
16.5155
16.5361
16.5567
16.5772
16.5978
16.6184
16.639
16.6596
16.6802
16.7008
16.7213
16.7419
16.7625
16.7831
16.8037
16.8243
16.8448
16.8654
16.886
16.9066
16.9272
16.9477
16.9683
16.9889
17.0095
17.0301
17.0506
17.0712
17.0918
17.1124
17.133
17.1535
17.1741
17.1947
17.2153
17.2358
17.2564
17.277
17.2976
17.3181
17.3387
17.3593
17.3799
17.4004
17.421
17.4416
17.4622
17.4827
17.5033
17.5239
17.5445
17.565
17.5856
17.6062
17.6267
17.6473
17.6679
17.6884
17.709
17.7296
17.7501
17.7707
17.7913
17.8118
17.8324
17.853
17.8735
17.8941
17.9147
17.9352
17.9558
17.9764
17.9969
18.0175
18.0381
18.0586
18.0792
18.0997
18.1203
18.1409
18.1614
18.182
18.2025
18.2231
18.2437
18.2642
18.2848
18.3053
18.3259
18.3464
18.367
18.3876
18.4081
18.4287
18.4492
18.4698
18.4903
18.5109
18.5314
18.552
18.5725
18.5931
18.6137
18.6342
18.6548
18.6753
18.6959
18.7164
18.737
18.7575
18.7781
18.7986
18.8191
18.8397
18.8602
18.8808
18.9013
18.9219
18.9424
18.963
18.9835
19.0041
19.0246
19.0451
19.0657
19.0862
19.1068
19.1273
19.1479
19.1684
19.1889
19.2095
19.23
19.2506
19.2711
19.2916
19.3122
19.3327
19.3532
19.3738
19.3943
19.4149
19.4354
19.4559
19.4765
19.497
19.5175
19.5381
19.5586
19.5791
19.5997
19.6202
19.6407
19.6613
19.6818
19.7023
19.7228
19.7434
19.7639
19.7844
19.805
19.8255
19.846
19.8665
19.8871
19.9076
19.9281
19.9486
19.9692
19.9897
20.0102
20.0307
20.0512
20.0718
20.0923
20.1128
20.1333
20.1538
20.1744
20.1949
20.2154
20.2359
20.2564
20.277
20.2975
20.318
20.3385
20.359
20.3795
20.4
20.4206
20.4411
20.4616
20.4821
20.5026
20.5231
20.5436
20.5641
20.5846
20.6051
20.6257
20.6462
20.6667
20.6872
20.7077
20.7282
20.7487
20.7692
20.7897
20.8102
20.8307
20.8512
20.8717
20.8922
20.9127
20.9332
20.9537
20.9742
20.9947
21.0152
21.0357
21.0562
21.0767
21.0972
21.1177
21.1382
21.1587
21.1792
21.1997
21.2202
21.2407
21.2612
21.2816
21.3021
21.3226
21.3431
21.3636
21.3841
21.4046
21.4251
21.4456
21.466
21.4865
21.507
21.5275
21.548
21.5685
21.5889
21.6094
21.6299
21.6504
21.6709
21.6914
21.7118
21.7323
21.7528
21.7733
21.7937
21.8142
21.8347
21.8552
21.8756
21.8961
21.9166
21.9371
21.9575
21.978
21.9985
22.019
22.0394
22.0599
22.0804
22.1008
22.1213
22.1418
22.1622
22.1827
22.2032
22.2236
22.2441
22.2646
22.285
22.3055
22.3259
22.3464
22.3669
22.3873
22.4078
22.4282
22.4487
22.4692
22.4896
22.5101
22.5305
22.551
22.5714
22.5919
22.6123
22.6328
22.6532
22.6737
22.6941
22.7146
22.735
22.7555
22.7759
22.7964
22.8168
22.8373
22.8577
22.8781
22.8986
22.919
22.9395
22.9599
22.9804
23.0008
23.0212
23.0417
23.0621
23.0825
23.103
23.1234
23.1439
23.1643
23.1847
23.2052
23.2256
23.246
23.2664
23.2869
23.3073
23.3277
23.3482
23.3686
23.389
23.4094
23.4299
23.4503
23.4707
23.4911
23.5115
23.532
23.5524
23.5728
23.5932
23.6136
23.6341
23.6545
23.6749
23.6953
23.7157
23.7361
23.7565
23.777
23.7974
23.8178
23.8382
23.8586
23.879
23.8994
23.9198
23.9402
23.9606
23.981
24.0014
24.0218
24.0422
24.0626
24.083
24.1034
24.1238
24.1442
24.1646
24.185
24.2054
24.2258
24.2462
24.2666
24.287
24.3074
24.3278
24.3481
24.3685
24.3889
24.4093
24.4297
24.4501
24.4705
24.4908
24.5112
24.5316
24.552
24.5724
24.5927
24.6131
24.6335
24.6539
24.6742
24.6946
24.715
24.7354
24.7557
24.7761
24.7965
24.8168
24.8372
24.8576
24.8779
24.8983
24.9187
24.939
24.9594
24.9797
25.0001
25.0205
25.0408
25.0612
25.0815
25.1019
25.1222
25.1426
25.1629
25.1833
25.2036
25.224
25.2443
25.2647
25.285
25.3054
25.3257
25.3461
25.3664
25.3867
25.4071
25.4274
25.4478
25.4681
25.4884
25.5088
25.5291
25.5494
25.5698
25.5901
25.6104
25.6308
25.6511
25.6714
25.6917
25.7121
25.7324
25.7527
25.773
25.7933
25.8137
25.834
25.8543
25.8746
25.8949
25.9152
25.9355
25.9559
25.9762
25.9965
26.0168
26.0371
26.0574
26.0777
26.098
26.1183
26.1386
26.1589
26.1792
26.1995
26.2198
26.2401
26.2604
26.2807
26.301
26.3213
26.3415
26.3618
26.3821
26.4024
26.4227
26.443
26.4632
26.4835
26.5038
26.5241
26.5444
26.5646
26.5849
26.6052
26.6255
26.6457
26.666
26.6863
26.7065
26.7268
26.7471
26.7673
26.7876
26.8078
26.8281
26.8484
26.8686
26.8889
26.9091
26.9294
26.9496
26.9699
26.9901
27.0104
27.0306
27.0508
27.0711
27.0913
27.1116
27.1318
27.152
27.1723
27.1925
27.2127
27.233
27.2532
27.2734
27.2937
27.3139
27.3341
27.3543
27.3745
27.3948
27.415
27.4352
27.4554
27.4756
27.4958
27.5161
27.5363
27.5565
27.5767
27.5969
27.6171
27.6373
27.6575
27.6777
27.6979
27.7181
27.7383
27.7585
27.7786
27.7988
27.819
27.8392
27.8594
27.8796
27.8998
27.9199
27.9401
27.9603
27.9805
28.0006
28.0208
28.041
28.0611
28.0813
28.1015
28.1216
28.1418
28.1619
28.1821
28.2023
28.2224
28.2426
28.2627
28.2829
28.303
28.3232
28.3433
28.3634
28.3836
28.4037
28.4239
28.444
28.4641
28.4843
28.5044
28.5245
28.5446
28.5648
28.5849
28.605
28.6251
28.6452
28.6653
28.6855
28.7056
28.7257
28.7458
28.7659
28.786
28.8061
28.8262
28.8463
28.8664
28.8865
28.9065
28.9266
28.9467
28.9668
28.9869
29.007
29.027
29.0471
29.0672
29.0873
29.1073
29.1274
29.1475
29.1675
29.1876
29.2077
29.2277
29.2478
29.2678
29.2879
29.3079
29.328
29.348
29.368
29.3881
29.4081
29.4282
29.4482
29.4682
29.4882
29.5083
29.5283
29.5483
29.5683
29.5883
29.6084
29.6284
29.6484
29.6684
29.6884
29.7084
29.7284
29.7484
29.7684
29.7884
29.8084
29.8284
29.8483
29.8683
29.8883
29.9083
29.9282
29.9482
29.9682
29.9882
30.0081
30.0281
30.048
30.068
30.088
30.1079
30.1279
30.1478
30.1677
30.1877
30.2076
30.2276
30.2475
30.2674
30.2873
30.3073
30.3272
30.3471
30.367
30.3869
30.4069
30.4268
30.4467
30.4666
30.4865
30.5064
30.5263
30.5461
30.566
30.5859
30.6058
30.6257
30.6455
30.6654
30.6853
30.7052
30.725
30.7449
30.7647
30.7846
30.8044
30.8243
30.8441
30.864
30.8838
30.9036
30.9235
30.9433
30.9631
30.983
31.0028
31.0226
31.0424
31.0622
31.082
31.1018
31.1216
31.1414
31.1612
31.181
31.2008
31.2206
31.2403
31.2601
31.2799
31.2997
31.3194
31.3392
31.3589
31.3787
31.3985
31.4182
31.4379
31.4577
31.4774
31.4971
31.5169
31.5366
31.5563
31.576
31.5958
31.6155
31.6352
31.6549
31.6746
31.6943
31.7139
31.7336
31.7533
31.773
31.7927
31.8123
31.832
31.8517
31.8713
31.891
31.9106
31.9303
31.9499
31.9696
31.9892
32.0088
32.0284
32.0481
32.0677
32.0873
32.1069
32.1265
32.1461
32.1657
32.1853
32.2049
32.2244
32.244
32.2636
32.2832
32.3027
32.3223
32.3418
32.3614
32.3809
32.4005
32.42
32.4395
32.4591
32.4786
32.4981
32.5176
32.5371
32.5566
32.5761
32.5956
32.6151
32.6346
32.654
32.6735
32.693
32.7124
32.7319
32.7514
32.7708
32.7902
32.8097
32.8291
32.8485
32.8679
32.8874
32.9068
32.9262
32.9456
32.965
32.9843
33.0037
33.0231
33.0425
33.0618
33.0812
33.1006
33.1199
33.1392
33.1586
33.1779
33.1972
33.2165
33.2359
33.2552
33.2745
33.2938
33.3131
33.3323
33.3516
33.3709
33.3901
33.4094
33.4287
33.4479
33.4671
33.4864
33.5056
33.5248
33.544
33.5632
33.5824
33.6016
33.6208
33.64
33.6592
33.6783
33.6975
33.7167
33.7358
33.7549
33.7741
33.7932
33.8123
33.8314
33.8505
33.8696
33.8887
33.9078
33.9269
33.946
33.965
33.9841
34.0031
34.0222
34.0412
34.0602
34.0792
34.0982
34.1172
34.1362
34.1552
34.1742
34.1932
34.2121
34.2311
34.25
34.269
34.2879
34.3068
34.3258
34.3447
34.3636
34.3825
34.4013
34.4202
34.4391
34.4579
34.4768
34.4956
34.5145
34.5333
34.5521
34.5709
34.5897
34.6085
34.6273
34.6461
34.6648
34.6836
34.7023
34.721
34.7398
34.7585
34.7772
34.7959
34.8146
34.8333
34.8519
34.8706
34.8893
34.9079
34.9265
34.9451
34.9638
34.9824
35.001
35.0195
35.0381
35.0567
35.0752
35.0938
35.1123
35.1308
35.1493
35.1678
35.1863
35.2048
35.2233
35.2417
35.2602
35.2786
35.2971
35.3155
35.3339
35.3523
35.3707
35.389
35.4074
35.4257
35.4441
35.4624
35.4807
35.499
35.5173
35.5356
35.5539
35.5721
35.5904
35.6086
35.6268
35.6451
35.6633
35.6814
35.6996
35.7178
35.7359
35.7541
35.7722
35.7903
35.8084
35.8265
35.8446
35.8626
35.8807
35.8987
35.9168
35.9348
35.9528
35.9708
35.9887
36.0067
36.0246
36.0426
36.0605
36.0784
36.0963
36.1142
36.132
36.1499
36.1677
36.1855
36.2033
36.2211
36.2389
36.2567
36.2744
36.2922
36.3099
36.3276
36.3453
36.363
36.3806
36.3983
36.4159
36.4335
36.4511
36.4687
36.4863
36.5039
36.5214
36.5389
36.5564
36.5739
36.5914
36.6089
36.6263
36.6438
36.6612
36.6786
36.696
36.7134
36.7307
36.748
36.7654
36.7827
36.8
36.8172
36.8345
36.8517
36.8689
36.8861
36.9033
36.9205
36.9377
36.9548
36.9719
36.989
37.0061
37.0232
37.0402
37.0572
37.0743
37.0912
37.1082
37.1252
37.1421
37.159
37.176
37.1928
37.2097
37.2266
37.2434
37.2602
37.277
37.2938
37.3105
37.3273
37.344
37.3607
37.3774
37.394
37.4107
37.4273
37.4439
37.4605
37.4771
37.4936
37.5101
37.5266
37.5431
37.5596
37.576
37.5925
37.6089
37.6253
37.6416
37.658
37.6743
37.6906
37.7069
37.7232
37.7394
37.7557
37.7719
37.788
37.8042
37.8203
37.8365
37.8526
37.8687
37.8847
37.9008
37.9168
37.9328
37.9487
37.9647
37.9806
37.9965
38.0124
38.0283
38.0442
38.06
38.0758
38.0916
38.1073
38.1231
38.1388
38.1545
38.1702
38.1858
38.2014
38.2171
38.2326
38.2482
38.2637
38.2793
38.2948
38.3102
38.3257
38.3411
38.3565
38.3719
38.3873
38.4027
38.418
38.4333
38.4486
38.4638
38.479
38.4943
38.5094
38.5246
38.5398
38.5549
38.57
38.5851
38.6001
38.6152
38.6302
38.6452
38.6601
38.6751
38.69
38.7049
38.7198
38.7346
38.7495
38.7643
38.7791
38.7938
38.8086
38.8233
38.838
38.8527
38.8673
38.882
38.8966
38.9112
38.9257
38.9403
38.9548
38.9693
38.9838
38.9983
39.0127
39.0271
39.0415
39.0559
39.0702
39.0846
39.0989
39.1132
39.1274
39.1417
39.1559
39.1701
39.1843
39.1985
39.2126
39.2267
39.2408
39.2549
39.269
39.283
39.297
39.311
39.325
39.339
39.3529
39.3668
39.3807
39.3946
39.4085
39.4223
39.4361
39.4499
39.4637
39.4774
39.4912
39.5049
39.5186
39.5323
39.546
39.5596
39.5732
39.5869
39.6005
39.614
39.6276
39.6411
39.6546
39.6681
39.6816
39.6951
39.7085
39.722
39.7354
39.7488
39.7622
39.7755
39.7889
39.8022
39.8155
39.8288
39.8421
39.8554
39.8686
39.8819
39.8951
39.9083
39.9215
39.9347
39.9478
39.961
39.9741
39.9872
40.0003
40.0134
40.0265
40.0395
40.0526
40.0656
40.0786
40.0916
40.1046
40.1176
40.1305
40.1435
40.1564
40.1693
40.1822
40.1951
40.208
40.2209
40.2338
40.2466
40.2595
40.2723
40.2851
40.2979
40.3107
40.3235
40.3362
40.349
40.3618
40.3745
40.3872
40.3999
40.4126
40.4253
40.438
40.4507
40.4634
40.476
40.4887
40.5013
40.514
40.5266
40.5392
40.5518
40.5644
40.577
40.5896
40.6022
40.6147
40.6273
40.6398
40.6524
40.6649
40.6774
40.6899
40.7025
40.715
40.7275
40.74
40.7524
40.7649
40.7774
40.7899
40.8023
40.8148
40.8272
40.8397
40.8521
40.8645
40.877
40.8894
40.9018
40.9142
40.9266
40.939
40.9514
40.9638
40.9762
40.9886
41.001
41.0133
41.0257
41.0381
41.0504
41.0628
41.0751
41.0875
41.0998
41.1122
41.1245
41.1369
41.1492
41.1615
41.1739
41.1862
41.1985
41.2108
41.2231
41.2354
41.2477
41.2601
41.2724
41.2847
41.297
41.3093
41.3216
41.3338
41.3461
41.3584
41.3707
41.383
41.3953
41.4076
41.4198
41.4321
41.4444
41.4567
41.469
41.4812
41.4935
41.5058
41.518
41.5303
41.5426
41.5548
41.5671
41.5794
41.5916
41.6039
41.6162
41.6284
41.6407
41.6529
41.6652
41.6775
41.6897
41.702
41.7142
41.7265
41.7387
41.751
41.7633
41.7755
41.7878
41.8
41.8123
41.8245
41.8368
41.849
41.8613
41.8735
41.8858
41.8981
41.9103
41.9226
41.9348
41.9471
41.9593
41.9716
41.9838
41.9961
42.0084
42.0206
42.0329
42.0451
42.0574
42.0697
42.0819
42.0942
42.1064
42.1187
42.131
42.1432
42.1555
42.1678
42.18
42.1923
42.2046
42.2168
42.2291
42.2414
42.2536
42.2659
42.2782
42.2904
42.3027
42.315
42.3273
42.3395
42.3518
42.3641
42.3764
42.3886
42.4009
42.4132
42.4255
42.4378
42.45
42.4623
42.4746
42.4869
42.4992
42.5115
42.5238
42.5361
42.5484
42.5606
42.5729
42.5852
42.5975
42.6098
42.6221
42.6344
42.6467
42.659
42.6713
42.6836
42.6959
42.7082
42.7206
42.7329
42.7452
42.7575
42.7698
42.7821
42.7944
42.8067
42.8191
42.8314
42.8437
42.856
42.8683
42.8807
42.893
42.9053
42.9176
42.93
42.9423
42.9546
42.9669
42.9793
42.9916
43.004
43.0163
43.0286
43.041
43.0533
43.0656
43.078
43.0903
43.1027
43.115
43.1274
43.1397
43.1521
43.1644
43.1768
43.1891
43.2015
43.2138
43.2262
43.2386
43.2509
43.2633
43.2757
43.288
43.3004
43.3127
43.3251
43.3375
43.3499
43.3622
43.3746
43.387
43.3994
43.4117
43.4241
43.4365
43.4489
43.4613
43.4736
43.486
43.4984
43.5108
43.5232
43.5356
43.548
43.5604
43.5728
43.5852
43.5976
43.61
43.6224
43.6348
43.6472
43.6596
43.672
43.6844
43.6968
43.7092
43.7216
43.734
43.7464
43.7589
43.7713
43.7837
43.7961
43.8085
43.821
43.8334
43.8458
43.8582
43.8707
43.8831
43.8955
43.908
43.9204
43.9328
43.9453
43.9577
43.9701
43.9826
43.995
44.0075
44.0199
44.0323
44.0448
44.0572
44.0697
44.0821
44.0946
44.107
44.1195
44.132
44.1444
44.1569
44.1693
44.1818
44.1943
44.2067
44.2192
44.2317
44.2441
44.2566
44.2691
44.2815
44.294
44.3065
44.319
44.3314
44.3439
44.3564
44.3689
44.3814
44.3938
44.4063
44.4188
44.4313
44.4438
44.4563
44.4688
44.4813
44.4938
44.5063
44.5188
44.5313
44.5438
44.5563
44.5688
44.5813
44.5938
44.6063
44.6188
44.6313
44.6438
44.6563
44.6689
44.6814
44.6939
44.7064
44.7189
44.7314
44.744
44.7565
44.769
44.7815
44.7941
44.8066
44.8191
44.8317
44.8442
44.8567
44.8693
44.8818
44.8943
44.9069
44.9194
44.932
44.9445
44.9571
44.9696
44.9822
44.9947
45.0073
45.0198
45.0324
45.0449
45.0575
45.07
45.0826
45.0952
45.1077
45.1203
45.1328
45.1454
45.158
45.1705
45.1831
45.1957
45.2083
45.2208
45.2334
45.246
45.2586
45.2711
45.2837
45.2963
45.3089
45.3215
45.3341
45.3466
45.3592
45.3718
45.3844
45.397
45.4096
45.4222
45.4348
45.4474
45.46
45.4726
45.4852
45.4978
45.5104
45.523
45.5356
45.5482
45.5608
45.5735
45.5861
45.5987
45.6113
45.6239
45.6365
45.6492
45.6618
45.6744
45.687
45.6997
45.7123
45.7249
45.7375
45.7502
45.7628
45.7754
45.7881
45.8007
45.8134
45.826
45.8386
45.8513
45.8639
45.8766
45.8892
45.9019
45.9145
45.9272
45.9398
45.9525
45.9651
45.9778
45.9904
46.0031
46.0158
46.0284
46.0411
46.0537
46.0664
46.0791
46.0917
46.1044
46.1171
46.1298
46.1424
46.1551
46.1678
46.1805
46.1931
46.2058
46.2185
46.2312
46.2439
46.2566
46.2692
46.2819
46.2946
46.3073
46.32
46.3327
46.3454
46.3581
46.3708
46.3835
46.3962
46.4089
46.4216
46.4343
46.447
46.4597
46.4724
46.4851
46.4979
46.5106
46.5233
46.536
46.5487
46.5614
46.5742
46.5869
46.5996
46.6123
46.6251
46.6378
46.6505
46.6632
46.676
46.6887
46.7014
46.7142
46.7269
46.7396
46.7524
46.7651
46.7779
46.7906
46.8034
46.8161
46.8289
46.8416
46.8544
46.8671
46.8799
46.8926
46.9054
46.9181
46.9309
46.9437
46.9564
46.9692
46.9819
46.9947
47.0075
47.0202
47.033
47.0458
47.0586
47.0713
47.0841
47.0969
47.1097
47.1224
47.1352
47.148
47.1608
47.1736
47.1864
47.1992
47.2119
47.2247
47.2375
47.2503
47.2631
47.2759
47.2887
47.3015
47.3143
47.3271
47.3399
47.3527
47.3655
47.3783
47.3912
47.404
47.4168
47.4296
47.4424
47.4552
47.468
47.4809
47.4937
47.5065
47.5193
47.5321
47.545
47.5578
47.5706
47.5835
47.5963
47.6091
47.622
47.6348
47.6476
47.6605
47.6733
47.6861
47.699
47.7118
47.7247
47.7375
47.7504
47.7632
47.7761
47.7889
47.8018
47.8146
47.8275
47.8403
47.8532
47.8661
47.8789
47.8918
47.9047
47.9175
47.9304
47.9433
47.9561
47.969
47.9819
47.9948
48.0076
48.0205
48.0334
48.0463
48.0591
48.072
48.0849
48.0978
48.1107
48.1236
48.1365
48.1494
48.1623
48.1751
48.188
48.2009
48.2138
48.2267
48.2396
48.2525
48.2654
48.2783
48.2913
48.3042
48.3171
48.33
48.3429
48.3558
48.3687
48.3816
48.3946
48.4075
48.4204
48.4333
48.4462
48.4592
48.4721
48.485
48.498
48.5109
48.5238
48.5367
48.5497
48.5626
48.5756
48.5885
48.6014
48.6144
48.6273
48.6403
48.6532
48.6662
48.6791
48.6921
48.705
48.718
48.7309
48.7439
48.7568
48.7698
48.7827
48.7957
48.8087
48.8216
48.8346
48.8476
48.8605
48.8735
48.8865
48.8994
48.9124
48.9254
48.9384
48.9514
48.9643
48.9773
48.9903
49.0033
49.0163
49.0293
49.0422
49.0552
49.0682
49.0812
49.0942
49.1072
49.1202
49.1332
49.1462
49.1592
49.1722
49.1852
49.1982
49.2112
49.2242
49.2372
49.2502
49.2632
49.2763
49.2893
49.3023
49.3153
49.3283
49.3413
49.3544
49.3674
49.3804
49.3934
49.4065
49.4195
49.4325
49.4456
49.4586
49.4716
49.4847
49.4977
49.5107
49.5238
49.5368
49.5499
49.5629
49.576
49.589
49.6021
49.6151
49.6282
49.6412
49.6543
49.6673
49.6804
49.6934
49.7065
49.7196
49.7326
49.7457
49.7587
49.7718
49.7849
49.7979
49.811
49.8241
49.8372
49.8502
49.8633
49.8764
49.8895
49.9026
49.9156
49.9287
49.9418
49.9549
49.968
49.9811
49.9942
50.0073
50.0204
50.0334
50.0465
50.0596
50.0727
50.0858
50.0989
50.112
50.1251
50.1383
50.1514
50.1645
50.1776
50.1907
50.2038
50.2169
50.23
50.2432
50.2563
50.2694
50.2825
50.2956
50.3088
50.3219
50.335
50.3481
50.3613
50.3744
50.3875
50.4007
50.4138
50.427
50.4401
50.4532
50.4664
50.4795
50.4927
50.5058
50.519
50.5321
50.5453
50.5584
50.5716
50.5847
50.5979
50.611
50.6242
50.6373
50.6505
50.6637
50.6768
50.69
50.7032
50.7163
50.7295
50.7427
50.7559
50.769
50.7822
50.7954
50.8086
50.8217
50.8349
50.8481
50.8613
50.8745
50.8877
50.9008
50.914
50.9272
50.9404
50.9536
50.9668
50.98
50.9932
51.0064
51.0196
51.0328
51.046
51.0592
51.0724
51.0856
51.0988
51.1121
51.1253
51.1385
51.1517
51.1649
51.1781
51.1914
51.2046
51.2178
51.231
51.2443
51.2575
51.2707
51.2839
51.2972
51.3104
51.3236
51.3369
51.3501
51.3633
51.3766
51.3898
51.4031
51.4163
51.4296
51.4428
51.4561
51.4693
51.4826
51.4958
51.5091
51.5223
51.5356
51.5488
51.5621
51.5754
51.5886
51.6019
51.6151
51.6284
51.6417
51.655
51.6682
51.6815
51.6948
51.708
51.7213
51.7346
51.7479
51.7612
51.7744
51.7877
51.801
51.8143
51.8276
51.8409
51.8542
51.8675
51.8808
51.8941
51.9074
51.9207
51.934
51.9473
51.9606
51.9739
51.9872
52.0005
52.0138
52.0271
52.0404
52.0537
52.067
52.0803
52.0937
52.107
52.1203
52.1336
52.1469
52.1603
52.1736
52.1869
52.2002
52.2136
52.2269
52.2402
52.2536
52.2669
52.2803
52.2936
52.3069
52.3203
52.3336
52.347
52.3603
52.3737
52.387
52.4003
52.4137
52.4271
52.4404
52.4538
52.4671
52.4805
52.4938
52.5072
52.5206
52.5339
52.5473
52.5607
52.574
52.5874
52.6008
52.6141
52.6275
52.6409
52.6543
52.6677
52.681
52.6944
52.7078
52.7212
52.7346
52.748
52.7613
52.7747
52.7881
52.8015
52.8149
52.8283
52.8417
52.8551
52.8685
52.8819
52.8953
52.9087
52.9221
52.9355
52.9489
52.9623
52.9758
52.9892
53.0026
53.016
53.0294
53.0428
53.0563
53.0697
53.0831
53.0965
53.11
53.1234
53.1368
53.1502
53.1637
53.1771
53.1905
53.204
53.2174
53.2309
53.2443
53.2577
53.2712
53.2846
53.2981
53.3115
53.325
53.3384
53.3519
53.3653
53.3788
53.3922
53.4057
53.4192
53.4326
53.4461
53.4595
53.473
53.4865
53.4999
53.5134
53.5269
53.5404
53.5538
53.5673
53.5808
53.5943
53.6077
53.6212
53.6347
53.6482
53.6617
53.6752
53.6886
53.7021
53.7156
53.7291
53.7426
53.7561
53.7696
53.7831
53.7966
53.8101
53.8236
53.8371
53.8506
53.8641
53.8776
53.8911
53.9046
53.9182
53.9317
53.9452
53.9587
53.9722
53.9857
53.9993
54.0128
54.0263
54.0398
54.0534
54.0669
54.0804
54.094
54.1075
54.121
54.1346
54.1481
54.1616
54.1752
54.1887
54.2023
54.2158
54.2293
54.2429
54.2564
54.27
54.2835
54.2971
54.3107
54.3242
54.3378
54.3513
54.3649
54.3784
54.392
54.4056
54.4191
54.4327
54.4463
54.4598
54.4734
54.487
54.5006
54.5141
54.5277
54.5413
54.5549
54.5685
54.582
54.5956
54.6092
54.6228
54.6364
54.65
54.6636
54.6772
54.6908
54.7044
54.718
54.7316
54.7452
54.7588
54.7724
54.786
54.7996
54.8132
54.8268
54.8404
54.854
54.8676
54.8812
54.8949
54.9085
54.9221
54.9357
54.9493
54.963
54.9766
54.9902
55.0038
55.0175
55.0311
55.0447
55.0584
55.072
55.0857
55.0993
55.1129
55.1266
55.1402
55.1539
55.1675
55.1812
55.1948
55.2085
55.2221
55.2358
55.2494
55.2631
55.2767
55.2904
55.304
55.3177
55.3314
55.345
55.3587
55.3724
55.386
55.3997
55.4134
55.4271
55.4407
55.4544
55.4681
55.4818
55.4954
55.5091
55.5228
55.5365
55.5502
55.5639
55.5776
55.5913
55.6049
55.6186
55.6323
55.646
55.6597
55.6734
55.6871
55.7008
55.7145
55.7282
55.742
55.7557
55.7694
55.7831
55.7968
55.8105
55.8242
55.8379
55.8517
55.8654
55.8791
55.8928
55.9066
55.9203
55.934
55.9477
55.9615
55.9752
55.9889
56.0027
56.0164
56.0302
56.0439
56.0576
56.0714
56.0851
56.0989
56.1126
56.1264
56.1401
56.1539
56.1676
56.1814
56.1951
56.2089
56.2226
56.2364
56.2502
56.2639
56.2777
56.2915
56.3052
56.319
56.3328
56.3465
56.3603
56.3741
56.3879
56.4016
56.4154
56.4292
56.443
56.4568
56.4706
56.4844
56.4981
56.5119
56.5257
56.5395
56.5533
56.5671
56.5809
56.5947
56.6085
56.6223
56.6361
56.6499
56.6637
56.6775
56.6913
56.7051
56.719
56.7328
56.7466
56.7604
56.7742
56.788
56.8019
56.8157
56.8295
56.8433
56.8572
56.871
56.8848
56.8987
56.9125
56.9263
56.9402
56.954
56.9678
56.9817
56.9955
57.0094
57.0232
57.0371
57.0509
57.0647
57.0786
57.0925
57.1063
57.1202
57.134
57.1479
57.1617
57.1756
57.1895
57.2033
57.2172
57.2311
57.2449
57.2588
57.2727
57.2865
57.3004
57.3143
57.3282
57.342
57.3559
57.3698
57.3837
57.3976
57.4115
57.4254
57.4392
57.4531
57.467
57.4809
57.4948
57.5087
57.5226
57.5365
57.5504
57.5643
57.5782
57.5921
57.606
57.6199
57.6338
57.6478
57.6617
57.6756
57.6895
57.7034
57.7173
57.7313
57.7452
57.7591
57.773
57.787
57.8009
57.8148
57.8287
57.8427
57.8566
57.8705
57.8845
57.8984
57.9124
57.9263
57.9402
57.9542
57.9681
57.9821
57.996
58.01
58.0239
58.0379
58.0518
58.0658
58.0798
58.0937
58.1077
58.1216
58.1356
58.1496
58.1635
58.1775
58.1915
58.2054
58.2194
58.2334
58.2474
58.2613
58.2753
58.2893
58.3033
58.3173
58.3312
58.3452
58.3592
58.3732
58.3872
58.4012
58.4152
58.4292
58.4432
58.4572
58.4712
58.4852
58.4992
58.5132
58.5272
58.5412
58.5552
58.5692
58.5832
58.5972
58.6112
58.6253
58.6393
58.6533
58.6673
58.6813
58.6954
58.7094
58.7234
58.7374
58.7515
58.7655
58.7795
58.7936
58.8076
58.8216
58.8357
58.8497
58.8638
58.8778
58.8918
58.9059
58.9199
58.934
58.948
58.9621
58.9761
58.9902
59.0043
59.0183
59.0324
59.0464
59.0605
59.0746
59.0886
59.1027
59.1168
59.1308
59.1449
59.159
59.173
59.1871
59.2012
59.2153
59.2294
59.2434
59.2575
59.2716
59.2857
59.2998
59.3139
59.328
59.342
59.3561
59.3702
59.3843
59.3984
59.4125
59.4266
59.4407
59.4548
59.4689
59.483
59.4972
59.5113
59.5254
59.5395
59.5536
59.5677
59.5818
59.596
59.6101
59.6242
59.6383
59.6525
59.6666
59.6807
59.6948
59.709
59.7231
59.7372
59.7514
59.7655
59.7796
59.7938
59.8079
59.8221
59.8362
59.8504
59.8645
59.8787
59.8928
59.907
59.9211
59.9353
59.9494
59.9636
59.9777
59.9919
60.0061
60.0202
60.0344
60.0486
60.0627
60.0769
60.0911
60.1052
60.1194
60.1336
60.1478
60.1619
60.1761
60.1903
60.2045
60.2187
60.2329
60.247
60.2612
60.2754
60.2896
60.3038
60.318
60.3322
60.3464
60.3606
60.3748
60.389
60.4032
60.4174
60.4316
60.4458
60.46
60.4743
60.4885
60.5027
60.5169
60.5311
60.5453
60.5596
60.5738
60.588
60.6022
60.6165
60.6307
60.6449
60.6592
60.6734
60.6876
60.7019
60.7161
60.7303
60.7446
60.7588
60.7731
60.7873
60.8016
60.8158
60.8301
60.8443
60.8586
60.8728
60.8871
60.9013
60.9156
60.9298
60.9441
60.9584
60.9726
60.9869
61.0012
61.0154
61.0297
61.044
61.0583
61.0725
61.0868
61.1011
61.1154
61.1297
61.1439
61.1582
61.1725
61.1868
61.2011
61.2154
61.2297
61.244
61.2583
61.2726
61.2868
61.3011
61.3154
61.3298
61.3441
61.3584
61.3727
61.387
61.4013
61.4156
61.4299
61.4442
61.4585
61.4729
61.4872
61.5015
61.5158
61.5302
61.5445
61.5588
61.5731
61.5875
61.6018
61.6161
61.6305
61.6448
61.6591
61.6735
61.6878
61.7022
61.7165
61.7308
61.7452
61.7595
61.7739
61.7882
61.8026
61.8169
61.8313
61.8457
61.86
61.8744
61.8887
61.9031
61.9175
61.9318
61.9462
61.9606
61.9749
61.9893
62.0037
62.0181
62.0324
62.0468
62.0612
62.0756
62.09
62.1044
62.1187
62.1331
62.1475
62.1619
62.1763
62.1907
62.2051
62.2195
62.2339
62.2483
62.2627
62.2771
62.2915
62.3059
62.3203
62.3347
62.3491
62.3635
62.378
62.3924
62.4068
62.4212
62.4356
62.45
62.4645
62.4789
62.4933
62.5077
62.5222
62.5366
62.551
62.5655
62.5799
62.5943
62.6088
62.6232
62.6377
62.6521
62.6666
62.681
62.6954
62.7099
62.7243
62.7388
62.7532
62.7677
62.7822
62.7966
62.8111
62.8255
62.84
62.8545
62.8689
62.8834
62.8979
62.9123
62.9268
62.9413
62.9558
62.9702
62.9847
62.9992
63.0137
63.0282
63.0426
63.0571
63.0716
63.0861
63.1006
63.1151
63.1296
63.1441
63.1586
63.1731
63.1876
63.2021
63.2166
63.2311
63.2456
63.2601
63.2746
63.2891
63.3036
63.3181
63.3326
63.3472
63.3617
63.3762
63.3907
63.4052
63.4198
63.4343
63.4488
63.4633
63.4779
63.4924
63.5069
63.5215
63.536
63.5505
63.5651
63.5796
63.5942
63.6087
63.6233
63.6378
63.6523
63.6669
63.6814
63.696
63.7106
63.7251
63.7397
63.7542
63.7688
63.7834
63.7979
63.8125
63.827
63.8416
63.8562
63.8708
63.8853
63.8999
63.9145
63.9291
63.9436
63.9582
63.9728
63.9874
64.002
64.0166
64.0311
64.0457
64.0603
64.0749
64.0895
64.1041
64.1187
64.1333
64.1479
64.1625
64.1771
64.1917
64.2063
64.2209
64.2355
64.2502
64.2648
64.2794
64.294
64.3086
64.3232
64.3379
64.3525
64.3671
64.3817
64.3964
64.411
64.4256
64.4402
64.4549
64.4695
64.4841
64.4988
64.5134
64.5281
64.5427
64.5573
64.572
64.5866
64.6013
64.6159
64.6306
64.6452
64.6599
64.6746
64.6892
64.7039
64.7185
64.7332
64.7479
64.7625
64.7772
64.7919
64.8065
64.8212
64.8359
64.8505
64.8652
64.8799
64.8946
64.9093
64.9239
64.9386
64.9533
64.968
64.9827
64.9974
65.0121
65.0268
65.0415
65.0562
65.0709
65.0856
65.1003
65.115
65.1297
65.1444
65.1591
65.1738
65.1885
65.2032
65.2179
65.2326
65.2473
65.2621
65.2768
65.2915
65.3062
65.3209
65.3357
65.3504
65.3651
65.3799
65.3946
65.4093
65.4241
65.4388
65.4535
65.4683
65.483
65.4978
65.5125
65.5272
65.542
65.5567
65.5715
65.5862
65.601
65.6157
65.6305
65.6453
65.66
65.6748
65.6895
65.7043