/*--------------------------------*- C++ -*----------------------------------*\
  =========                 |
  \\      /  F ield         | OpenFOAM: The Open Source CFD Toolbox
   \\    /   O peration     | Website:  https://openfoam.org
    \\  /    A nd           | Version:  9
     \\/     M anipulation  |
\*---------------------------------------------------------------------------*/
FoamFile
{
    format      ascii;
    class       volVectorField;
    location    "0.044";
    object      U;
}
// * * * * * * * * * * * * * * * * * * * * * * * * * * * * * * * * * * * * * //

dimensions      [0 1 -1 0 0 0 0];

internalField   nonuniform List<vector> 
10000
(
(6.52553 0 0)
(6.55675 0 0)
(6.59364 0 0)
(6.62406 0 0)
(6.65107 0 0)
(6.67802 0 0)
(6.70561 0 0)
(6.73347 0 0)
(6.76131 0 0)
(6.78908 0 0)
(6.81684 0 0)
(6.8446 0 0)
(6.87237 0 0)
(6.90014 0 0)
(6.9279 0 0)
(6.95567 0 0)
(6.98344 0 0)
(7.01121 0 0)
(7.03898 0 0)
(7.06674 0 0)
(7.09451 0 0)
(7.12228 0 0)
(7.15005 0 0)
(7.17782 0 0)
(7.20559 0 0)
(7.23335 0 0)
(7.26112 0 0)
(7.28889 0 0)
(7.31666 0 0)
(7.34443 0 0)
(7.3722 0 0)
(7.39997 0 0)
(7.42774 0 0)
(7.45551 0 0)
(7.48328 0 0)
(7.51105 0 0)
(7.53882 0 0)
(7.56659 0 0)
(7.59436 0 0)
(7.62213 0 0)
(7.6499 0 0)
(7.67767 0 0)
(7.70544 0 0)
(7.73321 0 0)
(7.76098 0 0)
(7.78875 0 0)
(7.81652 0 0)
(7.84429 0 0)
(7.87206 0 0)
(7.89983 0 0)
(7.92761 0 0)
(7.95538 0 0)
(7.98315 0 0)
(8.01092 0 0)
(8.03869 0 0)
(8.06646 0 0)
(8.09424 0 0)
(8.12201 0 0)
(8.14978 0 0)
(8.17755 0 0)
(8.20532 0 0)
(8.2331 0 0)
(8.26087 0 0)
(8.28864 0 0)
(8.31641 0 0)
(8.34419 0 0)
(8.37196 0 0)
(8.39973 0 0)
(8.42751 0 0)
(8.45528 0 0)
(8.48305 0 0)
(8.51083 0 0)
(8.5386 0 0)
(8.56637 0 0)
(8.59415 0 0)
(8.62192 0 0)
(8.64969 0 0)
(8.67747 0 0)
(8.70524 0 0)
(8.73301 0 0)
(8.76079 0 0)
(8.78856 0 0)
(8.81634 0 0)
(8.84411 0 0)
(8.87189 0 0)
(8.89966 0 0)
(8.92744 0 0)
(8.95521 0 0)
(8.98298 0 0)
(9.01076 0 0)
(9.03853 0 0)
(9.06631 0 0)
(9.09408 0 0)
(9.12186 0 0)
(9.14964 0 0)
(9.17741 0 0)
(9.20519 0 0)
(9.23296 0 0)
(9.26074 0 0)
(9.28851 0 0)
(9.31629 0 0)
(9.34406 0 0)
(9.37184 0 0)
(9.39962 0 0)
(9.42739 0 0)
(9.45517 0 0)
(9.48294 0 0)
(9.51072 0 0)
(9.5385 0 0)
(9.56627 0 0)
(9.59405 0 0)
(9.62183 0 0)
(9.6496 0 0)
(9.67738 0 0)
(9.70516 0 0)
(9.73293 0 0)
(9.76071 0 0)
(9.78849 0 0)
(9.81627 0 0)
(9.84404 0 0)
(9.87182 0 0)
(9.8996 0 0)
(9.92737 0 0)
(9.95515 0 0)
(9.98293 0 0)
(10.0107 0 0)
(10.0385 0 0)
(10.0663 0 0)
(10.094 0 0)
(10.1218 0 0)
(10.1496 0 0)
(10.1774 0 0)
(10.2052 0 0)
(10.2329 0 0)
(10.2607 0 0)
(10.2885 0 0)
(10.3163 0 0)
(10.344 0 0)
(10.3718 0 0)
(10.3996 0 0)
(10.4274 0 0)
(10.4552 0 0)
(10.4829 0 0)
(10.5107 0 0)
(10.5385 0 0)
(10.5663 0 0)
(10.5941 0 0)
(10.6218 0 0)
(10.6496 0 0)
(10.6774 0 0)
(10.7052 0 0)
(10.7329 0 0)
(10.7607 0 0)
(10.7885 0 0)
(10.8163 0 0)
(10.8441 0 0)
(10.8718 0 0)
(10.8996 0 0)
(10.9274 0 0)
(10.9552 0 0)
(10.983 0 0)
(11.0107 0 0)
(11.0385 0 0)
(11.0663 0 0)
(11.0941 0 0)
(11.1219 0 0)
(11.1496 0 0)
(11.1774 0 0)
(11.2052 0 0)
(11.233 0 0)
(11.2608 0 0)
(11.2885 0 0)
(11.3163 0 0)
(11.3441 0 0)
(11.3719 0 0)
(11.3997 0 0)
(11.4274 0 0)
(11.4552 0 0)
(11.483 0 0)
(11.5108 0 0)
(11.5386 0 0)
(11.5664 0 0)
(11.5941 0 0)
(11.6219 0 0)
(11.6497 0 0)
(11.6775 0 0)
(11.7053 0 0)
(11.733 0 0)
(11.7608 0 0)
(11.7886 0 0)
(11.8164 0 0)
(11.8442 0 0)
(11.8719 0 0)
(11.8997 0 0)
(11.9275 0 0)
(11.9553 0 0)
(11.9831 0 0)
(12.0109 0 0)
(12.0386 0 0)
(12.0664 0 0)
(12.0942 0 0)
(12.122 0 0)
(12.1498 0 0)
(12.1775 0 0)
(12.2053 0 0)
(12.2331 0 0)
(12.2609 0 0)
(12.2887 0 0)
(12.3165 0 0)
(12.3442 0 0)
(12.372 0 0)
(12.3998 0 0)
(12.4276 0 0)
(12.4554 0 0)
(12.4831 0 0)
(12.5109 0 0)
(12.5387 0 0)
(12.5665 0 0)
(12.5943 0 0)
(12.6221 0 0)
(12.6498 0 0)
(12.6776 0 0)
(12.7054 0 0)
(12.7332 0 0)
(12.761 0 0)
(12.7887 0 0)
(12.8165 0 0)
(12.8443 0 0)
(12.8721 0 0)
(12.8999 0 0)
(12.9277 0 0)
(12.9554 0 0)
(12.9832 0 0)
(13.011 0 0)
(13.0388 0 0)
(13.0666 0 0)
(13.0944 0 0)
(13.1221 0 0)
(13.1499 0 0)
(13.1777 0 0)
(13.2055 0 0)
(13.2333 0 0)
(13.2611 0 0)
(13.2888 0 0)
(13.3166 0 0)
(13.3444 0 0)
(13.3722 0 0)
(13.4 0 0)
(13.4277 0 0)
(13.4555 0 0)
(13.4833 0 0)
(13.5111 0 0)
(13.5389 0 0)
(13.5667 0 0)
(13.5944 0 0)
(13.6222 0 0)
(13.65 0 0)
(13.6778 0 0)
(13.7056 0 0)
(13.7334 0 0)
(13.7611 0 0)
(13.7889 0 0)
(13.8167 0 0)
(13.8445 0 0)
(13.8723 0 0)
(13.9001 0 0)
(13.9278 0 0)
(13.9556 0 0)
(13.9834 0 0)
(14.0112 0 0)
(14.039 0 0)
(14.0668 0 0)
(14.0945 0 0)
(14.1223 0 0)
(14.1501 0 0)
(14.1779 0 0)
(14.2057 0 0)
(14.2335 0 0)
(14.2612 0 0)
(14.289 0 0)
(14.3168 0 0)
(14.3446 0 0)
(14.3724 0 0)
(14.4002 0 0)
(14.4279 0 0)
(14.4557 0 0)
(14.4835 0 0)
(14.5113 0 0)
(14.5391 0 0)
(14.5669 0 0)
(14.5946 0 0)
(14.6224 0 0)
(14.6502 0 0)
(14.678 0 0)
(14.7058 0 0)
(14.7335 0 0)
(14.7613 0 0)
(14.7891 0 0)
(14.8169 0 0)
(14.8447 0 0)
(14.8725 0 0)
(14.9002 0 0)
(14.928 0 0)
(14.9558 0 0)
(14.9836 0 0)
(15.0114 0 0)
(15.0392 0 0)
(15.0669 0 0)
(15.0947 0 0)
(15.1225 0 0)
(15.1503 0 0)
(15.1781 0 0)
(15.2059 0 0)
(15.2336 0 0)
(15.2614 0 0)
(15.2892 0 0)
(15.317 0 0)
(15.3448 0 0)
(15.3726 0 0)
(15.4003 0 0)
(15.4281 0 0)
(15.4559 0 0)
(15.4837 0 0)
(15.5115 0 0)
(15.5392 0 0)
(15.567 0 0)
(15.5948 0 0)
(15.6226 0 0)
(15.6504 0 0)
(15.6782 0 0)
(15.7059 0 0)
(15.7337 0 0)
(15.7615 0 0)
(15.7893 0 0)
(15.8171 0 0)
(15.8449 0 0)
(15.8726 0 0)
(15.9004 0 0)
(15.9282 0 0)
(15.956 0 0)
(15.9838 0 0)
(16.0115 0 0)
(16.0393 0 0)
(16.0671 0 0)
(16.0949 0 0)
(16.1227 0 0)
(16.1505 0 0)
(16.1782 0 0)
(16.206 0 0)
(16.2338 0 0)
(16.2616 0 0)
(16.2894 0 0)
(16.3171 0 0)
(16.3449 0 0)
(16.3727 0 0)
(16.4005 0 0)
(16.4283 0 0)
(16.4561 0 0)
(16.4838 0 0)
(16.5116 0 0)
(16.5394 0 0)
(16.5672 0 0)
(16.595 0 0)
(16.6227 0 0)
(16.6505 0 0)
(16.6783 0 0)
(16.7061 0 0)
(16.7339 0 0)
(16.7616 0 0)
(16.7894 0 0)
(16.8172 0 0)
(16.845 0 0)
(16.8728 0 0)
(16.9005 0 0)
(16.9283 0 0)
(16.9561 0 0)
(16.9839 0 0)
(17.0117 0 0)
(17.0394 0 0)
(17.0672 0 0)
(17.095 0 0)
(17.1228 0 0)
(17.1506 0 0)
(17.1783 0 0)
(17.2061 0 0)
(17.2339 0 0)
(17.2617 0 0)
(17.2895 0 0)
(17.3172 0 0)
(17.345 0 0)
(17.3728 0 0)
(17.4006 0 0)
(17.4284 0 0)
(17.4561 0 0)
(17.4839 0 0)
(17.5117 0 0)
(17.5395 0 0)
(17.5673 0 0)
(17.595 0 0)
(17.6228 0 0)
(17.6506 0 0)
(17.6784 0 0)
(17.7062 0 0)
(17.7339 0 0)
(17.7617 0 0)
(17.7895 0 0)
(17.8173 0 0)
(17.845 0 0)
(17.8728 0 0)
(17.9006 0 0)
(17.9284 0 0)
(17.9562 0 0)
(17.9839 0 0)
(18.0117 0 0)
(18.0395 0 0)
(18.0673 0 0)
(18.095 0 0)
(18.1228 0 0)
(18.1506 0 0)
(18.1784 0 0)
(18.2062 0 0)
(18.2339 0 0)
(18.2617 0 0)
(18.2895 0 0)
(18.3173 0 0)
(18.345 0 0)
(18.3728 0 0)
(18.4006 0 0)
(18.4284 0 0)
(18.4561 0 0)
(18.4839 0 0)
(18.5117 0 0)
(18.5395 0 0)
(18.5673 0 0)
(18.595 0 0)
(18.6228 0 0)
(18.6506 0 0)
(18.6784 0 0)
(18.7061 0 0)
(18.7339 0 0)
(18.7617 0 0)
(18.7895 0 0)
(18.8172 0 0)
(18.845 0 0)
(18.8728 0 0)
(18.9006 0 0)
(18.9283 0 0)
(18.9561 0 0)
(18.9839 0 0)
(19.0117 0 0)
(19.0394 0 0)
(19.0672 0 0)
(19.095 0 0)
(19.1228 0 0)
(19.1505 0 0)
(19.1783 0 0)
(19.2061 0 0)
(19.2338 0 0)
(19.2616 0 0)
(19.2894 0 0)
(19.3172 0 0)
(19.3449 0 0)
(19.3727 0 0)
(19.4005 0 0)
(19.4283 0 0)
(19.456 0 0)
(19.4838 0 0)
(19.5116 0 0)
(19.5393 0 0)
(19.5671 0 0)
(19.5949 0 0)
(19.6227 0 0)
(19.6504 0 0)
(19.6782 0 0)
(19.706 0 0)
(19.7338 0 0)
(19.7615 0 0)
(19.7893 0 0)
(19.8171 0 0)
(19.8448 0 0)
(19.8726 0 0)
(19.9004 0 0)
(19.9281 0 0)
(19.9559 0 0)
(19.9837 0 0)
(20.0115 0 0)
(20.0392 0 0)
(20.067 0 0)
(20.0948 0 0)
(20.1225 0 0)
(20.1503 0 0)
(20.1781 0 0)
(20.2058 0 0)
(20.2336 0 0)
(20.2614 0 0)
(20.2892 0 0)
(20.3169 0 0)
(20.3447 0 0)
(20.3725 0 0)
(20.4002 0 0)
(20.428 0 0)
(20.4558 0 0)
(20.4835 0 0)
(20.5113 0 0)
(20.5391 0 0)
(20.5668 0 0)
(20.5946 0 0)
(20.6224 0 0)
(20.6501 0 0)
(20.6779 0 0)
(20.7057 0 0)
(20.7334 0 0)
(20.7612 0 0)
(20.789 0 0)
(20.8167 0 0)
(20.8445 0 0)
(20.8723 0 0)
(20.9 0 0)
(20.9278 0 0)
(20.9556 0 0)
(20.9833 0 0)
(21.0111 0 0)
(21.0388 0 0)
(21.0666 0 0)
(21.0944 0 0)
(21.1221 0 0)
(21.1499 0 0)
(21.1777 0 0)
(21.2054 0 0)
(21.2332 0 0)
(21.261 0 0)
(21.2887 0 0)
(21.3165 0 0)
(21.3442 0 0)
(21.372 0 0)
(21.3998 0 0)
(21.4275 0 0)
(21.4553 0 0)
(21.4831 0 0)
(21.5108 0 0)
(21.5386 0 0)
(21.5663 0 0)
(21.5941 0 0)
(21.6219 0 0)
(21.6496 0 0)
(21.6774 0 0)
(21.7051 0 0)
(21.7329 0 0)
(21.7607 0 0)
(21.7884 0 0)
(21.8162 0 0)
(21.8439 0 0)
(21.8717 0 0)
(21.8995 0 0)
(21.9272 0 0)
(21.955 0 0)
(21.9827 0 0)
(22.0105 0 0)
(22.0382 0 0)
(22.066 0 0)
(22.0938 0 0)
(22.1215 0 0)
(22.1493 0 0)
(22.177 0 0)
(22.2048 0 0)
(22.2325 0 0)
(22.2603 0 0)
(22.2881 0 0)
(22.3158 0 0)
(22.3436 0 0)
(22.3713 0 0)
(22.3991 0 0)
(22.4268 0 0)
(22.4546 0 0)
(22.4823 0 0)
(22.5101 0 0)
(22.5378 0 0)
(22.5656 0 0)
(22.5934 0 0)
(22.6211 0 0)
(22.6489 0 0)
(22.6766 0 0)
(22.7044 0 0)
(22.7321 0 0)
(22.7599 0 0)
(22.7876 0 0)
(22.8154 0 0)
(22.8431 0 0)
(22.8709 0 0)
(22.8986 0 0)
(22.9264 0 0)
(22.9541 0 0)
(22.9819 0 0)
(23.0096 0 0)
(23.0374 0 0)
(23.0651 0 0)
(23.0929 0 0)
(23.1206 0 0)
(23.1484 0 0)
(23.1761 0 0)
(23.2039 0 0)
(23.2316 0 0)
(23.2594 0 0)
(23.2871 0 0)
(23.3149 0 0)
(23.3426 0 0)
(23.3704 0 0)
(23.3981 0 0)
(23.4258 0 0)
(23.4536 0 0)
(23.4813 0 0)
(23.5091 0 0)
(23.5368 0 0)
(23.5646 0 0)
(23.5923 0 0)
(23.6201 0 0)
(23.6478 0 0)
(23.6755 0 0)
(23.7033 0 0)
(23.731 0 0)
(23.7588 0 0)
(23.7865 0 0)
(23.8143 0 0)
(23.842 0 0)
(23.8697 0 0)
(23.8975 0 0)
(23.9252 0 0)
(23.953 0 0)
(23.9807 0 0)
(24.0085 0 0)
(24.0362 0 0)
(24.0639 0 0)
(24.0917 0 0)
(24.1194 0 0)
(24.1471 0 0)
(24.1749 0 0)
(24.2026 0 0)
(24.2304 0 0)
(24.2581 0 0)
(24.2858 0 0)
(24.3136 0 0)
(24.3413 0 0)
(24.369 0 0)
(24.3968 0 0)
(24.4245 0 0)
(24.4523 0 0)
(24.48 0 0)
(24.5077 0 0)
(24.5355 0 0)
(24.5632 0 0)
(24.5909 0 0)
(24.6187 0 0)
(24.6464 0 0)
(24.6741 0 0)
(24.7019 0 0)
(24.7296 0 0)
(24.7573 0 0)
(24.7851 0 0)
(24.8128 0 0)
(24.8405 0 0)
(24.8683 0 0)
(24.896 0 0)
(24.9237 0 0)
(24.9514 0 0)
(24.9792 0 0)
(25.0069 0 0)
(25.0346 0 0)
(25.0624 0 0)
(25.0901 0 0)
(25.1178 0 0)
(25.1455 0 0)
(25.1733 0 0)
(25.201 0 0)
(25.2287 0 0)
(25.2564 0 0)
(25.2842 0 0)
(25.3119 0 0)
(25.3396 0 0)
(25.3673 0 0)
(25.3951 0 0)
(25.4228 0 0)
(25.4505 0 0)
(25.4782 0 0)
(25.506 0 0)
(25.5337 0 0)
(25.5614 0 0)
(25.5891 0 0)
(25.6168 0 0)
(25.6446 0 0)
(25.6723 0 0)
(25.7 0 0)
(25.7277 0 0)
(25.7554 0 0)
(25.7832 0 0)
(25.8109 0 0)
(25.8386 0 0)
(25.8663 0 0)
(25.894 0 0)
(25.9218 0 0)
(25.9495 0 0)
(25.9772 0 0)
(26.0049 0 0)
(26.0326 0 0)
(26.0603 0 0)
(26.0881 0 0)
(26.1158 0 0)
(26.1435 0 0)
(26.1712 0 0)
(26.1989 0 0)
(26.2266 0 0)
(26.2543 0 0)
(26.282 0 0)
(26.3098 0 0)
(26.3375 0 0)
(26.3652 0 0)
(26.3929 0 0)
(26.4206 0 0)
(26.4483 0 0)
(26.476 0 0)
(26.5037 0 0)
(26.5314 0 0)
(26.5591 0 0)
(26.5868 0 0)
(26.6145 0 0)
(26.6423 0 0)
(26.67 0 0)
(26.6977 0 0)
(26.7254 0 0)
(26.7531 0 0)
(26.7808 0 0)
(26.8085 0 0)
(26.8362 0 0)
(26.8639 0 0)
(26.8916 0 0)
(26.9193 0 0)
(26.947 0 0)
(26.9747 0 0)
(27.0024 0 0)
(27.0301 0 0)
(27.0578 0 0)
(27.0855 0 0)
(27.1132 0 0)
(27.1409 0 0)
(27.1686 0 0)
(27.1963 0 0)
(27.224 0 0)
(27.2517 0 0)
(27.2794 0 0)
(27.3071 0 0)
(27.3348 0 0)
(27.3625 0 0)
(27.3901 0 0)
(27.4178 0 0)
(27.4455 0 0)
(27.4732 0 0)
(27.5009 0 0)
(27.5286 0 0)
(27.5563 0 0)
(27.584 0 0)
(27.6117 0 0)
(27.6394 0 0)
(27.6671 0 0)
(27.6947 0 0)
(27.7224 0 0)
(27.7501 0 0)
(27.7778 0 0)
(27.8055 0 0)
(27.8332 0 0)
(27.8609 0 0)
(27.8885 0 0)
(27.9162 0 0)
(27.9439 0 0)
(27.9716 0 0)
(27.9993 0 0)
(28.027 0 0)
(28.0546 0 0)
(28.0823 0 0)
(28.11 0 0)
(28.1377 0 0)
(28.1654 0 0)
(28.193 0 0)
(28.2207 0 0)
(28.2484 0 0)
(28.2761 0 0)
(28.3037 0 0)
(28.3314 0 0)
(28.3591 0 0)
(28.3868 0 0)
(28.4144 0 0)
(28.4421 0 0)
(28.4698 0 0)
(28.4975 0 0)
(28.5251 0 0)
(28.5528 0 0)
(28.5805 0 0)
(28.6082 0 0)
(28.6358 0 0)
(28.6635 0 0)
(28.6912 0 0)
(28.7188 0 0)
(28.7465 0 0)
(28.7742 0 0)
(28.8018 0 0)
(28.8295 0 0)
(28.8572 0 0)
(28.8848 0 0)
(28.9125 0 0)
(28.9401 0 0)
(28.9678 0 0)
(28.9955 0 0)
(29.0231 0 0)
(29.0508 0 0)
(29.0784 0 0)
(29.1061 0 0)
(29.1338 0 0)
(29.1614 0 0)
(29.1891 0 0)
(29.2167 0 0)
(29.2444 0 0)
(29.272 0 0)
(29.2997 0 0)
(29.3274 0 0)
(29.355 0 0)
(29.3827 0 0)
(29.4103 0 0)
(29.438 0 0)
(29.4656 0 0)
(29.4933 0 0)
(29.5209 0 0)
(29.5486 0 0)
(29.5762 0 0)
(29.6039 0 0)
(29.6315 0 0)
(29.6591 0 0)
(29.6868 0 0)
(29.7144 0 0)
(29.7421 0 0)
(29.7697 0 0)
(29.7974 0 0)
(29.825 0 0)
(29.8526 0 0)
(29.8803 0 0)
(29.9079 0 0)
(29.9356 0 0)
(29.9632 0 0)
(29.9908 0 0)
(30.0185 0 0)
(30.0461 0 0)
(30.0737 0 0)
(30.1014 0 0)
(30.129 0 0)
(30.1566 0 0)
(30.1843 0 0)
(30.2119 0 0)
(30.2395 0 0)
(30.2672 0 0)
(30.2948 0 0)
(30.3224 0 0)
(30.3501 0 0)
(30.3777 0 0)
(30.4053 0 0)
(30.4329 0 0)
(30.4606 0 0)
(30.4882 0 0)
(30.5158 0 0)
(30.5434 0 0)
(30.571 0 0)
(30.5987 0 0)
(30.6263 0 0)
(30.6539 0 0)
(30.6815 0 0)
(30.7091 0 0)
(30.7368 0 0)
(30.7644 0 0)
(30.792 0 0)
(30.8196 0 0)
(30.8472 0 0)
(30.8748 0 0)
(30.9024 0 0)
(30.93 0 0)
(30.9577 0 0)
(30.9853 0 0)
(31.0129 0 0)
(31.0405 0 0)
(31.0681 0 0)
(31.0957 0 0)
(31.1233 0 0)
(31.1509 0 0)
(31.1785 0 0)
(31.2061 0 0)
(31.2337 0 0)
(31.2613 0 0)
(31.2889 0 0)
(31.3165 0 0)
(31.3441 0 0)
(31.3717 0 0)
(31.3993 0 0)
(31.4269 0 0)
(31.4545 0 0)
(31.4821 0 0)
(31.5097 0 0)
(31.5373 0 0)
(31.5648 0 0)
(31.5924 0 0)
(31.62 0 0)
(31.6476 0 0)
(31.6752 0 0)
(31.7028 0 0)
(31.7304 0 0)
(31.758 0 0)
(31.7855 0 0)
(31.8131 0 0)
(31.8407 0 0)
(31.8683 0 0)
(31.8959 0 0)
(31.9234 0 0)
(31.951 0 0)
(31.9786 0 0)
(32.0062 0 0)
(32.0337 0 0)
(32.0613 0 0)
(32.0889 0 0)
(32.1165 0 0)
(32.144 0 0)
(32.1716 0 0)
(32.1992 0 0)
(32.2267 0 0)
(32.2543 0 0)
(32.2819 0 0)
(32.3094 0 0)
(32.337 0 0)
(32.3646 0 0)
(32.3921 0 0)
(32.4197 0 0)
(32.4472 0 0)
(32.4748 0 0)
(32.5023 0 0)
(32.5299 0 0)
(32.5575 0 0)
(32.585 0 0)
(32.6126 0 0)
(32.6401 0 0)
(32.6677 0 0)
(32.6952 0 0)
(32.7228 0 0)
(32.7503 0 0)
(32.7779 0 0)
(32.8054 0 0)
(32.8329 0 0)
(32.8605 0 0)
(32.888 0 0)
(32.9156 0 0)
(32.9431 0 0)
(32.9706 0 0)
(32.9982 0 0)
(33.0257 0 0)
(33.0532 0 0)
(33.0808 0 0)
(33.1083 0 0)
(33.1358 0 0)
(33.1634 0 0)
(33.1909 0 0)
(33.2184 0 0)
(33.246 0 0)
(33.2735 0 0)
(33.301 0 0)
(33.3285 0 0)
(33.356 0 0)
(33.3836 0 0)
(33.4111 0 0)
(33.4386 0 0)
(33.4661 0 0)
(33.4936 0 0)
(33.5212 0 0)
(33.5487 0 0)
(33.5762 0 0)
(33.6037 0 0)
(33.6312 0 0)
(33.6587 0 0)
(33.6862 0 0)
(33.7137 0 0)
(33.7412 0 0)
(33.7687 0 0)
(33.7962 0 0)
(33.8237 0 0)
(33.8512 0 0)
(33.8787 0 0)
(33.9062 0 0)
(33.9337 0 0)
(33.9612 0 0)
(33.9887 0 0)
(34.0162 0 0)
(34.0437 0 0)
(34.0712 0 0)
(34.0987 0 0)
(34.1261 0 0)
(34.1536 0 0)
(34.1811 0 0)
(34.2086 0 0)
(34.2361 0 0)
(34.2635 0 0)
(34.291 0 0)
(34.3185 0 0)
(34.346 0 0)
(34.3734 0 0)
(34.4009 0 0)
(34.4284 0 0)
(34.4559 0 0)
(34.4833 0 0)
(34.5108 0 0)
(34.5382 0 0)
(34.5657 0 0)
(34.5932 0 0)
(34.6206 0 0)
(34.6481 0 0)
(34.6755 0 0)
(34.703 0 0)
(34.7305 0 0)
(34.7579 0 0)
(34.7854 0 0)
(34.8128 0 0)
(34.8403 0 0)
(34.8677 0 0)
(34.8951 0 0)
(34.9226 0 0)
(34.95 0 0)
(34.9775 0 0)
(35.0049 0 0)
(35.0323 0 0)
(35.0598 0 0)
(35.0872 0 0)
(35.1146 0 0)
(35.1421 0 0)
(35.1695 0 0)
(35.1969 0 0)
(35.2244 0 0)
(35.2518 0 0)
(35.2792 0 0)
(35.3066 0 0)
(35.334 0 0)
(35.3615 0 0)
(35.3889 0 0)
(35.4163 0 0)
(35.4437 0 0)
(35.4711 0 0)
(35.4985 0 0)
(35.5259 0 0)
(35.5533 0 0)
(35.5807 0 0)
(35.6081 0 0)
(35.6355 0 0)
(35.6629 0 0)
(35.6903 0 0)
(35.7177 0 0)
(35.7451 0 0)
(35.7725 0 0)
(35.7999 0 0)
(35.8273 0 0)
(35.8547 0 0)
(35.8821 0 0)
(35.9094 0 0)
(35.9368 0 0)
(35.9642 0 0)
(35.9916 0 0)
(36.019 0 0)
(36.0463 0 0)
(36.0737 0 0)
(36.1011 0 0)
(36.1284 0 0)
(36.1558 0 0)
(36.1832 0 0)
(36.2105 0 0)
(36.2379 0 0)
(36.2652 0 0)
(36.2926 0 0)
(36.32 0 0)
(36.3473 0 0)
(36.3747 0 0)
(36.402 0 0)
(36.4293 0 0)
(36.4567 0 0)
(36.484 0 0)
(36.5114 0 0)
(36.5387 0 0)
(36.566 0 0)
(36.5934 0 0)
(36.6207 0 0)
(36.648 0 0)
(36.6754 0 0)
(36.7027 0 0)
(36.73 0 0)
(36.7573 0 0)
(36.7847 0 0)
(36.812 0 0)
(36.8393 0 0)
(36.8666 0 0)
(36.8939 0 0)
(36.9212 0 0)
(36.9485 0 0)
(36.9758 0 0)
(37.0031 0 0)
(37.0304 0 0)
(37.0577 0 0)
(37.085 0 0)
(37.1123 0 0)
(37.1396 0 0)
(37.1669 0 0)
(37.1942 0 0)
(37.2215 0 0)
(37.2488 0 0)
(37.276 0 0)
(37.3033 0 0)
(37.3306 0 0)
(37.3579 0 0)
(37.3851 0 0)
(37.4124 0 0)
(37.4397 0 0)
(37.4669 0 0)
(37.4942 0 0)
(37.5215 0 0)
(37.5487 0 0)
(37.576 0 0)
(37.6032 0 0)
(37.6305 0 0)
(37.6577 0 0)
(37.685 0 0)
(37.7122 0 0)
(37.7394 0 0)
(37.7667 0 0)
(37.7939 0 0)
(37.8211 0 0)
(37.8484 0 0)
(37.8756 0 0)
(37.9028 0 0)
(37.93 0 0)
(37.9573 0 0)
(37.9845 0 0)
(38.0117 0 0)
(38.0389 0 0)
(38.0661 0 0)
(38.0933 0 0)
(38.1205 0 0)
(38.1477 0 0)
(38.1749 0 0)
(38.2021 0 0)
(38.2293 0 0)
(38.2565 0 0)
(38.2837 0 0)
(38.3109 0 0)
(38.338 0 0)
(38.3652 0 0)
(38.3924 0 0)
(38.4196 0 0)
(38.4467 0 0)
(38.4739 0 0)
(38.5011 0 0)
(38.5282 0 0)
(38.5554 0 0)
(38.5826 0 0)
(38.6097 0 0)
(38.6369 0 0)
(38.664 0 0)
(38.6911 0 0)
(38.7183 0 0)
(38.7454 0 0)
(38.7726 0 0)
(38.7997 0 0)
(38.8268 0 0)
(38.854 0 0)
(38.8811 0 0)
(38.9082 0 0)
(38.9353 0 0)
(38.9624 0 0)
(38.9895 0 0)
(39.0166 0 0)
(39.0437 0 0)
(39.0709 0 0)
(39.098 0 0)
(39.125 0 0)
(39.1521 0 0)
(39.1792 0 0)
(39.2063 0 0)
(39.2334 0 0)
(39.2605 0 0)
(39.2876 0 0)
(39.3146 0 0)
(39.3417 0 0)
(39.3688 0 0)
(39.3958 0 0)
(39.4229 0 0)
(39.4499 0 0)
(39.477 0 0)
(39.504 0 0)
(39.5311 0 0)
(39.5581 0 0)
(39.5852 0 0)
(39.6122 0 0)
(39.6392 0 0)
(39.6663 0 0)
(39.6933 0 0)
(39.7203 0 0)
(39.7473 0 0)
(39.7743 0 0)
(39.8014 0 0)
(39.8284 0 0)
(39.8554 0 0)
(39.8824 0 0)
(39.9094 0 0)
(39.9364 0 0)
(39.9633 0 0)
(39.9903 0 0)
(40.0173 0 0)
(40.0443 0 0)
(40.0713 0 0)
(40.0982 0 0)
(40.1252 0 0)
(40.1522 0 0)
(40.1791 0 0)
(40.2061 0 0)
(40.233 0 0)
(40.26 0 0)
(40.2869 0 0)
(40.3139 0 0)
(40.3408 0 0)
(40.3677 0 0)
(40.3946 0 0)
(40.4216 0 0)
(40.4485 0 0)
(40.4754 0 0)
(40.5023 0 0)
(40.5292 0 0)
(40.5561 0 0)
(40.583 0 0)
(40.6099 0 0)
(40.6368 0 0)
(40.6637 0 0)
(40.6906 0 0)
(40.7175 0 0)
(40.7443 0 0)
(40.7712 0 0)
(40.7981 0 0)
(40.8249 0 0)
(40.8518 0 0)
(40.8786 0 0)
(40.9055 0 0)
(40.9323 0 0)
(40.9591 0 0)
(40.986 0 0)
(41.0128 0 0)
(41.0396 0 0)
(41.0665 0 0)
(41.0933 0 0)
(41.1201 0 0)
(41.1469 0 0)
(41.1737 0 0)
(41.2005 0 0)
(41.2273 0 0)
(41.2541 0 0)
(41.2808 0 0)
(41.3076 0 0)
(41.3344 0 0)
(41.3612 0 0)
(41.3879 0 0)
(41.4147 0 0)
(41.4414 0 0)
(41.4682 0 0)
(41.4949 0 0)
(41.5217 0 0)
(41.5484 0 0)
(41.5751 0 0)
(41.6018 0 0)
(41.6286 0 0)
(41.6553 0 0)
(41.682 0 0)
(41.7087 0 0)
(41.7354 0 0)
(41.7621 0 0)
(41.7888 0 0)
(41.8154 0 0)
(41.8421 0 0)
(41.8688 0 0)
(41.8955 0 0)
(41.9221 0 0)
(41.9488 0 0)
(41.9754 0 0)
(42.0021 0 0)
(42.0287 0 0)
(42.0554 0 0)
(42.082 0 0)
(42.1086 0 0)
(42.1352 0 0)
(42.1618 0 0)
(42.1884 0 0)
(42.215 0 0)
(42.2416 0 0)
(42.2682 0 0)
(42.2948 0 0)
(42.3214 0 0)
(42.348 0 0)
(42.3745 0 0)
(42.4011 0 0)
(42.4276 0 0)
(42.4542 0 0)
(42.4807 0 0)
(42.5073 0 0)
(42.5338 0 0)
(42.5603 0 0)
(42.5868 0 0)
(42.6133 0 0)
(42.6398 0 0)
(42.6663 0 0)
(42.6928 0 0)
(42.7193 0 0)
(42.7458 0 0)
(42.7723 0 0)
(42.7987 0 0)
(42.8252 0 0)
(42.8516 0 0)
(42.8781 0 0)
(42.9045 0 0)
(42.931 0 0)
(42.9574 0 0)
(42.9838 0 0)
(43.0102 0 0)
(43.0366 0 0)
(43.063 0 0)
(43.0894 0 0)
(43.1158 0 0)
(43.1422 0 0)
(43.1686 0 0)
(43.1949 0 0)
(43.2213 0 0)
(43.2476 0 0)
(43.274 0 0)
(43.3003 0 0)
(43.3266 0 0)
(43.353 0 0)
(43.3793 0 0)
(43.4056 0 0)
(43.4319 0 0)
(43.4582 0 0)
(43.4845 0 0)
(43.5107 0 0)
(43.537 0 0)
(43.5633 0 0)
(43.5895 0 0)
(43.6158 0 0)
(43.642 0 0)
(43.6683 0 0)
(43.6945 0 0)
(43.7207 0 0)
(43.7469 0 0)
(43.7731 0 0)
(43.7993 0 0)
(43.8255 0 0)
(43.8517 0 0)
(43.8778 0 0)
(43.904 0 0)
(43.9301 0 0)
(43.9563 0 0)
(43.9824 0 0)
(44.0086 0 0)
(44.0347 0 0)
(44.0608 0 0)
(44.0869 0 0)
(44.113 0 0)
(44.1391 0 0)
(44.1651 0 0)
(44.1912 0 0)
(44.2173 0 0)
(44.2433 0 0)
(44.2694 0 0)
(44.2954 0 0)
(44.3214 0 0)
(44.3474 0 0)
(44.3735 0 0)
(44.3995 0 0)
(44.4254 0 0)
(44.4514 0 0)
(44.4774 0 0)
(44.5034 0 0)
(44.5293 0 0)
(44.5552 0 0)
(44.5812 0 0)
(44.6071 0 0)
(44.633 0 0)
(44.6589 0 0)
(44.6848 0 0)
(44.7107 0 0)
(44.7366 0 0)
(44.7624 0 0)
(44.7883 0 0)
(44.8142 0 0)
(44.84 0 0)
(44.8658 0 0)
(44.8916 0 0)
(44.9174 0 0)
(44.9432 0 0)
(44.969 0 0)
(44.9948 0 0)
(45.0206 0 0)
(45.0463 0 0)
(45.0721 0 0)
(45.0978 0 0)
(45.1235 0 0)
(45.1492 0 0)
(45.1749 0 0)
(45.2006 0 0)
(45.2263 0 0)
(45.252 0 0)
(45.2776 0 0)
(45.3033 0 0)
(45.3289 0 0)
(45.3545 0 0)
(45.3802 0 0)
(45.4058 0 0)
(45.4314 0 0)
(45.4569 0 0)
(45.4825 0 0)
(45.5081 0 0)
(45.5336 0 0)
(45.5591 0 0)
(45.5847 0 0)
(45.6102 0 0)
(45.6357 0 0)
(45.6612 0 0)
(45.6866 0 0)
(45.7121 0 0)
(45.7375 0 0)
(45.763 0 0)
(45.7884 0 0)
(45.8138 0 0)
(45.8392 0 0)
(45.8646 0 0)
(45.89 0 0)
(45.9153 0 0)
(45.9407 0 0)
(45.966 0 0)
(45.9914 0 0)
(46.0167 0 0)
(46.042 0 0)
(46.0673 0 0)
(46.0925 0 0)
(46.1178 0 0)
(46.143 0 0)
(46.1683 0 0)
(46.1935 0 0)
(46.2187 0 0)
(46.2439 0 0)
(46.2691 0 0)
(46.2942 0 0)
(46.3194 0 0)
(46.3445 0 0)
(46.3696 0 0)
(46.3948 0 0)
(46.4198 0 0)
(46.4449 0 0)
(46.47 0 0)
(46.495 0 0)
(46.5201 0 0)
(46.5451 0 0)
(46.5701 0 0)
(46.5951 0 0)
(46.6201 0 0)
(46.6451 0 0)
(46.67 0 0)
(46.6949 0 0)
(46.7199 0 0)
(46.7448 0 0)
(46.7696 0 0)
(46.7945 0 0)
(46.8194 0 0)
(46.8442 0 0)
(46.869 0 0)
(46.8938 0 0)
(46.9186 0 0)
(46.9434 0 0)
(46.9682 0 0)
(46.9929 0 0)
(47.0177 0 0)
(47.0424 0 0)
(47.0671 0 0)
(47.0917 0 0)
(47.1164 0 0)
(47.1411 0 0)
(47.1657 0 0)
(47.1903 0 0)
(47.2149 0 0)
(47.2395 0 0)
(47.264 0 0)
(47.2886 0 0)
(47.3131 0 0)
(47.3376 0 0)
(47.3621 0 0)
(47.3866 0 0)
(47.411 0 0)
(47.4355 0 0)
(47.4599 0 0)
(47.4843 0 0)
(47.5087 0 0)
(47.533 0 0)
(47.5574 0 0)
(47.5817 0 0)
(47.606 0 0)
(47.6303 0 0)
(47.6546 0 0)
(47.6789 0 0)
(47.7031 0 0)
(47.7273 0 0)
(47.7515 0 0)
(47.7757 0 0)
(47.7998 0 0)
(47.824 0 0)
(47.8481 0 0)
(47.8722 0 0)
(47.8963 0 0)
(47.9203 0 0)
(47.9444 0 0)
(47.9684 0 0)
(47.9924 0 0)
(48.0164 0 0)
(48.0403 0 0)
(48.0643 0 0)
(48.0882 0 0)
(48.1121 0 0)
(48.1359 0 0)
(48.1598 0 0)
(48.1836 0 0)
(48.2074 0 0)
(48.2312 0 0)
(48.255 0 0)
(48.2787 0 0)
(48.3025 0 0)
(48.3262 0 0)
(48.3498 0 0)
(48.3735 0 0)
(48.3971 0 0)
(48.4207 0 0)
(48.4443 0 0)
(48.4679 0 0)
(48.4914 0 0)
(48.515 0 0)
(48.5385 0 0)
(48.5619 0 0)
(48.5854 0 0)
(48.6088 0 0)
(48.6322 0 0)
(48.6556 0 0)
(48.679 0 0)
(48.7023 0 0)
(48.7256 0 0)
(48.7489 0 0)
(48.7721 0 0)
(48.7954 0 0)
(48.8186 0 0)
(48.8418 0 0)
(48.8649 0 0)
(48.8881 0 0)
(48.9112 0 0)
(48.9343 0 0)
(48.9573 0 0)
(48.9804 0 0)
(49.0034 0 0)
(49.0264 0 0)
(49.0493 0 0)
(49.0723 0 0)
(49.0952 0 0)
(49.1181 0 0)
(49.1409 0 0)
(49.1638 0 0)
(49.1866 0 0)
(49.2093 0 0)
(49.2321 0 0)
(49.2548 0 0)
(49.2775 0 0)
(49.3002 0 0)
(49.3228 0 0)
(49.3454 0 0)
(49.368 0 0)
(49.3906 0 0)
(49.4131 0 0)
(49.4356 0 0)
(49.4581 0 0)
(49.4805 0 0)
(49.5029 0 0)
(49.5253 0 0)
(49.5477 0 0)
(49.57 0 0)
(49.5923 0 0)
(49.6146 0 0)
(49.6368 0 0)
(49.659 0 0)
(49.6812 0 0)
(49.7034 0 0)
(49.7255 0 0)
(49.7476 0 0)
(49.7697 0 0)
(49.7917 0 0)
(49.8137 0 0)
(49.8357 0 0)
(49.8576 0 0)
(49.8796 0 0)
(49.9014 0 0)
(49.9233 0 0)
(49.9451 0 0)
(49.9669 0 0)
(49.9887 0 0)
(50.0104 0 0)
(50.0321 0 0)
(50.0538 0 0)
(50.0754 0 0)
(50.097 0 0)
(50.1186 0 0)
(50.1401 0 0)
(50.1616 0 0)
(50.1831 0 0)
(50.2045 0 0)
(50.2259 0 0)
(50.2473 0 0)
(50.2687 0 0)
(50.29 0 0)
(50.3112 0 0)
(50.3325 0 0)
(50.3537 0 0)
(50.3749 0 0)
(50.396 0 0)
(50.4171 0 0)
(50.4382 0 0)
(50.4592 0 0)
(50.4802 0 0)
(50.5012 0 0)
(50.5222 0 0)
(50.5431 0 0)
(50.5639 0 0)
(50.5848 0 0)
(50.6056 0 0)
(50.6263 0 0)
(50.6471 0 0)
(50.6678 0 0)
(50.6884 0 0)
(50.709 0 0)
(50.7296 0 0)
(50.7502 0 0)
(50.7707 0 0)
(50.7912 0 0)
(50.8116 0 0)
(50.8321 0 0)
(50.8524 0 0)
(50.8728 0 0)
(50.8931 0 0)
(50.9133 0 0)
(50.9336 0 0)
(50.9538 0 0)
(50.9739 0 0)
(50.994 0 0)
(51.0141 0 0)
(51.0342 0 0)
(51.0542 0 0)
(51.0742 0 0)
(51.0941 0 0)
(51.114 0 0)
(51.1339 0 0)
(51.1537 0 0)
(51.1735 0 0)
(51.1932 0 0)
(51.2129 0 0)
(51.2326 0 0)
(51.2523 0 0)
(51.2719 0 0)
(51.2914 0 0)
(51.311 0 0)
(51.3304 0 0)
(51.3499 0 0)
(51.3693 0 0)
(51.3887 0 0)
(51.408 0 0)
(51.4273 0 0)
(51.4466 0 0)
(51.4658 0 0)
(51.485 0 0)
(51.5041 0 0)
(51.5232 0 0)
(51.5423 0 0)
(51.5613 0 0)
(51.5803 0 0)
(51.5993 0 0)
(51.6182 0 0)
(51.6371 0 0)
(51.6559 0 0)
(51.6747 0 0)
(51.6935 0 0)
(51.7122 0 0)
(51.7309 0 0)
(51.7495 0 0)
(51.7681 0 0)
(51.7867 0 0)
(51.8052 0 0)
(51.8237 0 0)
(51.8422 0 0)
(51.8606 0 0)
(51.879 0 0)
(51.8973 0 0)
(51.9156 0 0)
(51.9339 0 0)
(51.9521 0 0)
(51.9703 0 0)
(51.9884 0 0)
(52.0065 0 0)
(52.0246 0 0)
(52.0426 0 0)
(52.0606 0 0)
(52.0786 0 0)
(52.0965 0 0)
(52.1144 0 0)
(52.1322 0 0)
(52.15 0 0)
(52.1678 0 0)
(52.1855 0 0)
(52.2032 0 0)
(52.2209 0 0)
(52.2385 0 0)
(52.256 0 0)
(52.2736 0 0)
(52.2911 0 0)
(52.3085 0 0)
(52.326 0 0)
(52.3434 0 0)
(52.3607 0 0)
(52.378 0 0)
(52.3953 0 0)
(52.4125 0 0)
(52.4297 0 0)
(52.4469 0 0)
(52.464 0 0)
(52.4811 0 0)
(52.4982 0 0)
(52.5152 0 0)
(52.5322 0 0)
(52.5491 0 0)
(52.566 0 0)
(52.5829 0 0)
(52.5998 0 0)
(52.6166 0 0)
(52.6333 0 0)
(52.6501 0 0)
(52.6668 0 0)
(52.6834 0 0)
(52.7001 0 0)
(52.7167 0 0)
(52.7332 0 0)
(52.7497 0 0)
(52.7662 0 0)
(52.7827 0 0)
(52.7991 0 0)
(52.8155 0 0)
(52.8318 0 0)
(52.8482 0 0)
(52.8644 0 0)
(52.8807 0 0)
(52.8969 0 0)
(52.9131 0 0)
(52.9293 0 0)
(52.9454 0 0)
(52.9615 0 0)
(52.9775 0 0)
(52.9936 0 0)
(53.0096 0 0)
(53.0255 0 0)
(53.0414 0 0)
(53.0573 0 0)
(53.0732 0 0)
(53.089 0 0)
(53.1049 0 0)
(53.1206 0 0)
(53.1364 0 0)
(53.1521 0 0)
(53.1678 0 0)
(53.1834 0 0)
(53.1991 0 0)
(53.2147 0 0)
(53.2302 0 0)
(53.2458 0 0)
(53.2613 0 0)
(53.2768 0 0)
(53.2922 0 0)
(53.3076 0 0)
(53.323 0 0)
(53.3384 0 0)
(53.3537 0 0)
(53.3691 0 0)
(53.3844 0 0)
(53.3996 0 0)
(53.4149 0 0)
(53.4301 0 0)
(53.4452 0 0)
(53.4604 0 0)
(53.4755 0 0)
(53.4906 0 0)
(53.5057 0 0)
(53.5208 0 0)
(53.5358 0 0)
(53.5508 0 0)
(53.5658 0 0)
(53.5808 0 0)
(53.5957 0 0)
(53.6106 0 0)
(53.6255 0 0)
(53.6404 0 0)
(53.6552 0 0)
(53.67 0 0)
(53.6848 0 0)
(53.6996 0 0)
(53.7144 0 0)
(53.7291 0 0)
(53.7438 0 0)
(53.7585 0 0)
(53.7732 0 0)
(53.7878 0 0)
(53.8024 0 0)
(53.8171 0 0)
(53.8316 0 0)
(53.8462 0 0)
(53.8608 0 0)
(53.8753 0 0)
(53.8898 0 0)
(53.9043 0 0)
(53.9188 0 0)
(53.9332 0 0)
(53.9477 0 0)
(53.9621 0 0)
(53.9765 0 0)
(53.9909 0 0)
(54.0052 0 0)
(54.0196 0 0)
(54.0339 0 0)
(54.0482 0 0)
(54.0625 0 0)
(54.0768 0 0)
(54.0911 0 0)
(54.1053 0 0)
(54.1196 0 0)
(54.1338 0 0)
(54.148 0 0)
(54.1622 0 0)
(54.1764 0 0)
(54.1905 0 0)
(54.2047 0 0)
(54.2188 0 0)
(54.2329 0 0)
(54.247 0 0)
(54.2611 0 0)
(54.2752 0 0)
(54.2893 0 0)
(54.3033 0 0)
(54.3174 0 0)
(54.3314 0 0)
(54.3454 0 0)
(54.3594 0 0)
(54.3734 0 0)
(54.3874 0 0)
(54.4014 0 0)
(54.4153 0 0)
(54.4293 0 0)
(54.4432 0 0)
(54.4571 0 0)
(54.471 0 0)
(54.4849 0 0)
(54.4988 0 0)
(54.5127 0 0)
(54.5266 0 0)
(54.5405 0 0)
(54.5543 0 0)
(54.5682 0 0)
(54.582 0 0)
(54.5958 0 0)
(54.6096 0 0)
(54.6235 0 0)
(54.6373 0 0)
(54.651 0 0)
(54.6648 0 0)
(54.6786 0 0)
(54.6924 0 0)
(54.7061 0 0)
(54.7199 0 0)
(54.7336 0 0)
(54.7474 0 0)
(54.7611 0 0)
(54.7748 0 0)
(54.7885 0 0)
(54.8023 0 0)
(54.816 0 0)
(54.8297 0 0)
(54.8434 0 0)
(54.857 0 0)
(54.8707 0 0)
(54.8844 0 0)
(54.8981 0 0)
(54.9117 0 0)
(54.9254 0 0)
(54.939 0 0)
(54.9527 0 0)
(54.9663 0 0)
(54.9799 0 0)
(54.9936 0 0)
(55.0072 0 0)
(55.0208 0 0)
(55.0344 0 0)
(55.048 0 0)
(55.0616 0 0)
(55.0752 0 0)
(55.0888 0 0)
(55.1024 0 0)
(55.116 0 0)
(55.1296 0 0)
(55.1432 0 0)
(55.1567 0 0)
(55.1703 0 0)
(55.1839 0 0)
(55.1974 0 0)
(55.211 0 0)
(55.2246 0 0)
(55.2381 0 0)
(55.2517 0 0)
(55.2652 0 0)
(55.2788 0 0)
(55.2923 0 0)
(55.3058 0 0)
(55.3194 0 0)
(55.3329 0 0)
(55.3464 0 0)
(55.36 0 0)
(55.3735 0 0)
(55.387 0 0)
(55.4005 0 0)
(55.414 0 0)
(55.4275 0 0)
(55.4411 0 0)
(55.4546 0 0)
(55.4681 0 0)
(55.4816 0 0)
(55.4951 0 0)
(55.5086 0 0)
(55.5221 0 0)
(55.5356 0 0)
(55.5491 0 0)
(55.5626 0 0)
(55.5761 0 0)
(55.5895 0 0)
(55.603 0 0)
(55.6165 0 0)
(55.63 0 0)
(55.6435 0 0)
(55.657 0 0)
(55.6705 0 0)
(55.6839 0 0)
(55.6974 0 0)
(55.7109 0 0)
(55.7244 0 0)
(55.7378 0 0)
(55.7513 0 0)
(55.7648 0 0)
(55.7783 0 0)
(55.7917 0 0)
(55.8052 0 0)
(55.8187 0 0)
(55.8321 0 0)
(55.8456 0 0)
(55.8591 0 0)
(55.8725 0 0)
(55.886 0 0)
(55.8994 0 0)
(55.9129 0 0)
(55.9264 0 0)
(55.9398 0 0)
(55.9533 0 0)
(55.9667 0 0)
(55.9802 0 0)
(55.9937 0 0)
(56.0071 0 0)
(56.0206 0 0)
(56.034 0 0)
(56.0475 0 0)
(56.0609 0 0)
(56.0744 0 0)
(56.0878 0 0)
(56.1013 0 0)
(56.1147 0 0)
(56.1282 0 0)
(56.1417 0 0)
(56.1551 0 0)
(56.1686 0 0)
(56.182 0 0)
(56.1955 0 0)
(56.2089 0 0)
(56.2224 0 0)
(56.2358 0 0)
(56.2493 0 0)
(56.2627 0 0)
(56.2762 0 0)
(56.2896 0 0)
(56.303 0 0)
(56.3165 0 0)
(56.3299 0 0)
(56.3434 0 0)
(56.3568 0 0)
(56.3703 0 0)
(56.3837 0 0)
(56.3972 0 0)
(56.4106 0 0)
(56.4241 0 0)
(56.4375 0 0)
(56.451 0 0)
(56.4644 0 0)
(56.4779 0 0)
(56.4913 0 0)
(56.5048 0 0)
(56.5182 0 0)
(56.5317 0 0)
(56.5451 0 0)
(56.5585 0 0)
(56.572 0 0)
(56.5854 0 0)
(56.5989 0 0)
(56.6123 0 0)
(56.6258 0 0)
(56.6392 0 0)
(56.6527 0 0)
(56.6661 0 0)
(56.6796 0 0)
(56.693 0 0)
(56.7065 0 0)
(56.7199 0 0)
(56.7334 0 0)
(56.7468 0 0)
(56.7603 0 0)
(56.7737 0 0)
(56.7872 0 0)
(56.8006 0 0)
(56.814 0 0)
(56.8275 0 0)
(56.8409 0 0)
(56.8544 0 0)
(56.8678 0 0)
(56.8813 0 0)
(56.8947 0 0)
(56.9082 0 0)
(56.9216 0 0)
(56.9351 0 0)
(56.9485 0 0)
(56.962 0 0)
(56.9754 0 0)
(56.9889 0 0)
(57.0023 0 0)
(57.0158 0 0)
(57.0292 0 0)
(57.0427 0 0)
(57.0561 0 0)
(57.0696 0 0)
(57.083 0 0)
(57.0965 0 0)
(57.11 0 0)
(57.1234 0 0)
(57.1369 0 0)
(57.1503 0 0)
(57.1638 0 0)
(57.1772 0 0)
(57.1907 0 0)
(57.2041 0 0)
(57.2176 0 0)
(57.231 0 0)
(57.2445 0 0)
(57.2579 0 0)
(57.2714 0 0)
(57.2848 0 0)
(57.2983 0 0)
(57.3118 0 0)
(57.3252 0 0)
(57.3387 0 0)
(57.3521 0 0)
(57.3656 0 0)
(57.379 0 0)
(57.3925 0 0)
(57.4059 0 0)
(57.4194 0 0)
(57.4329 0 0)
(57.4463 0 0)
(57.4598 0 0)
(57.4732 0 0)
(57.4867 0 0)
(57.5002 0 0)
(57.5136 0 0)
(57.5271 0 0)
(57.5405 0 0)
(57.554 0 0)
(57.5675 0 0)
(57.5809 0 0)
(57.5944 0 0)
(57.6078 0 0)
(57.6213 0 0)
(57.6348 0 0)
(57.6482 0 0)
(57.6617 0 0)
(57.6751 0 0)
(57.6886 0 0)
(57.7021 0 0)
(57.7155 0 0)
(57.729 0 0)
(57.7424 0 0)
(57.7559 0 0)
(57.7694 0 0)
(57.7828 0 0)