/*--------------------------------*- C++ -*----------------------------------*\
  =========                 |
  \\      /  F ield         | OpenFOAM: The Open Source CFD Toolbox
   \\    /   O peration     | Website:  https://openfoam.org
    \\  /    A nd           | Version:  9
     \\/     M anipulation  |
\*---------------------------------------------------------------------------*/
FoamFile
{
    format      ascii;
    class       volScalarField;
    location    "0.015";
    object      T;
}
// * * * * * * * * * * * * * * * * * * * * * * * * * * * * * * * * * * * * * //

dimensions      [0 0 0 1 0 0 0];

internalField   nonuniform List<scalar> 
10000
(
322.85
322.857
322.859
322.859
322.859
322.859
322.858
322.858
322.858
322.857
322.857
322.857
322.856
322.856
322.856
322.855
322.855
322.855
322.854
322.854
322.854
322.853
322.853
322.852
322.852
322.852
322.851
322.851
322.851
322.85
322.85
322.85
322.849
322.849
322.848
322.848
322.848
322.847
322.847
322.846
322.846
322.846
322.845
322.845
322.844
322.844
322.844
322.843
322.843
322.842
322.842
322.842
322.841
322.841
322.84
322.84
322.839
322.839
322.838
322.838
322.838
322.837
322.837
322.836
322.836
322.835
322.835
322.834
322.834
322.833
322.833
322.832
322.832
322.832
322.831
322.831
322.83
322.83
322.829
322.829
322.828
322.828
322.827
322.827
322.826
322.826
322.825
322.825
322.824
322.823
322.823
322.822
322.822
322.821
322.821
322.82
322.82
322.819
322.819
322.818
322.818
322.817
322.816
322.816
322.815
322.815
322.814
322.814
322.813
322.812
322.812
322.811
322.811
322.81
322.81
322.809
322.808
322.808
322.807
322.807
322.806
322.805
322.805
322.804
322.804
322.803
322.802
322.802
322.801
322.8
322.8
322.799
322.799
322.798
322.797
322.797
322.796
322.795
322.795
322.794
322.793
322.793
322.792
322.791
322.791
322.79
322.789
322.789
322.788
322.787
322.787
322.786
322.785
322.785
322.784
322.783
322.782
322.782
322.781
322.78
322.78
322.779
322.778
322.777
322.777
322.776
322.775
322.775
322.774
322.773
322.772
322.772
322.771
322.77
322.769
322.769
322.768
322.767
322.766
322.766
322.765
322.764
322.763
322.762
322.762
322.761
322.76
322.759
322.759
322.758
322.757
322.756
322.755
322.755
322.754
322.753
322.752
322.751
322.75
322.75
322.749
322.748
322.747
322.746
322.745
322.745
322.744
322.743
322.742
322.741
322.74
322.739
322.739
322.738
322.737
322.736
322.735
322.734
322.733
322.733
322.732
322.731
322.73
322.729
322.728
322.727
322.726
322.725
322.724
322.724
322.723
322.722
322.721
322.72
322.719
322.718
322.717
322.716
322.715
322.714
322.713
322.712
322.711
322.71
322.709
322.708
322.707
322.707
322.706
322.705
322.704
322.703
322.702
322.701
322.7
322.699
322.698
322.697
322.696
322.695
322.694
322.693
322.692
322.691
322.69
322.688
322.687
322.686
322.685
322.684
322.683
322.682
322.681
322.68
322.679
322.678
322.677
322.676
322.675
322.674
322.673
322.672
322.67
322.669
322.668
322.667
322.666
322.665
322.664
322.663
322.662
322.66
322.659
322.658
322.657
322.656
322.655
322.654
322.653
322.651
322.65
322.649
322.648
322.647
322.646
322.644
322.643
322.642
322.641
322.64
322.638
322.637
322.636
322.635
322.634
322.632
322.631
322.63
322.629
322.628
322.626
322.625
322.624
322.623
322.621
322.62
322.619
322.618
322.616
322.615
322.614
322.613
322.611
322.61
322.609
322.607
322.606
322.605
322.604
322.602
322.601
322.6
322.598
322.597
322.596
322.594
322.593
322.592
322.59
322.589
322.588
322.586
322.585
322.583
322.582
322.581
322.579
322.578
322.576
322.575
322.574
322.572
322.571
322.569
322.568
322.567
322.565
322.564
322.562
322.561
322.559
322.558
322.556
322.555
322.554
322.552
322.551
322.549
322.548
322.546
322.545
322.543
322.542
322.54
322.539
322.537
322.535
322.534
322.532
322.531
322.529
322.528
322.526
322.525
322.523
322.521
322.52
322.518
322.517
322.515
322.513
322.512
322.51
322.509
322.507
322.505
322.504
322.502
322.5
322.499
322.497
322.495
322.494
322.492
322.49
322.489
322.487
322.485
322.483
322.482
322.48
322.478
322.476
322.475
322.473
322.471
322.469
322.468
322.466
322.464
322.462
322.46
322.459
322.457
322.455
322.453
322.451
322.449
322.448
322.446
322.444
322.442
322.44
322.438
322.436
322.434
322.432
322.43
322.429
322.427
322.425
322.423
322.421
322.419
322.417
322.415
322.413
322.411
322.409
322.407
322.405
322.403
322.401
322.399
322.397
322.394
322.392
322.39
322.388
322.386
322.384
322.382
322.38
322.377
322.375
322.373
322.371
322.369
322.367
322.364
322.362
322.36
322.358
322.355
322.353
322.351
322.349
322.346
322.344
322.342
322.339
322.337
322.335
322.332
322.33
322.328
322.325
322.323
322.32
322.318
322.316
322.313
322.311
322.308
322.306
322.303
322.301
322.298
322.296
322.293
322.29
322.288
322.285
322.283
322.28
322.277
322.275
322.272
322.269
322.267
322.264
322.261
322.259
322.256
322.253
322.25
322.247
322.245
322.242
322.239
322.236
322.233
322.23
322.227
322.225
322.222
322.219
322.216
322.213
322.21
322.207
322.204
322.201
322.197
322.194
322.191
322.188
322.185
322.182
322.179
322.175
322.172
322.169
322.166
322.162
322.159
322.156
322.152
322.149
322.145
322.142
322.138
322.135
322.132
322.128
322.124
322.121
322.117
322.114
322.11
322.106
322.103
322.099
322.095
322.091
322.088
322.084
322.08
322.076
322.072
322.068
322.064
322.06
322.056
322.052
322.048
322.044
322.04
322.036
322.031
322.027
322.023
322.019
322.014
322.01
322.005
322.001
321.996
321.992
321.987
321.983
321.978
321.973
321.969
321.964
321.959
321.954
321.95
321.945
321.94
321.935
321.93
321.925
321.92
321.914
321.909
321.904
321.899
321.893
321.888
321.883
321.877
321.872
321.866
321.86
321.855
321.849
321.843
321.837
321.832
321.826
321.82
321.814
321.807
321.801
321.795
321.789
321.783
321.776
321.77
321.763
321.757
321.75
321.743
321.737
321.73
321.723
321.716
321.709
321.702
321.695
321.688
321.68
321.673
321.666
321.658
321.651
321.643
321.635
321.627
321.62
321.612
321.604
321.596
321.587
321.579
321.571
321.562
321.554
321.545
321.537
321.528
321.519
321.51
321.501
321.492
321.483
321.474
321.464
321.455
321.445
321.436
321.426
321.416
321.406
321.396
321.386
321.376
321.366
321.356
321.345
321.335
321.324
321.313
321.302
321.291
321.28
321.269
321.258
321.246
321.235
321.223
321.212
321.2
321.188
321.176
321.164
321.152
321.14
321.127
321.115
321.102
321.089
321.077
321.064
321.051
321.038
321.024
321.011
320.997
320.984
320.97
320.957
320.943
320.929
320.915
320.9
320.886
320.872
320.857
320.843
320.828
320.813
320.798
320.783
320.768
320.753
320.738
320.723
320.707
320.691
320.676
320.66
320.644
320.628
320.612
320.596
320.58
320.564
320.547
320.531
320.514
320.498
320.481
320.464
320.447
320.43
320.413
320.396
320.379
320.362
320.344
320.327
320.31
320.292
320.274
320.257
320.239
320.221
320.203
320.185
320.167
320.149
320.131
320.113
320.095
320.077
320.058
320.04
320.022
320.003
319.985
319.966
319.947
319.929
319.91
319.891
319.873
319.854
319.835
319.816
319.797
319.778
319.759
319.74
319.721
319.702
319.683
319.664
319.645
319.625
319.606
319.587
319.568
319.548
319.529
319.51
319.49
319.471
319.452
319.432
319.413
319.393
319.374
319.354
319.335
319.315
319.296
319.276
319.257
319.237
319.218
319.198
319.178
319.159
319.139
319.12
319.1
319.08
319.061
319.041
319.021
319.002
318.982
318.962
318.943
318.923
318.903
318.884
318.864
318.844
318.824
318.805
318.785
318.765
318.746
318.726
318.706
318.686
318.667
318.647
318.627
318.607
318.588
318.568
318.548
318.528
318.509
318.489
318.469
318.449
318.43
318.41
318.39
318.37
318.351
318.331
318.311
318.291
318.272
318.252
318.232
318.212
318.192
318.173
318.153
318.133
318.113
318.094
318.074
318.054
318.034
318.015
317.995
317.975
317.955
317.936
317.916
317.896
317.876
317.857
317.837
317.817
317.797
317.778
317.758
317.738
317.718
317.698
317.679
317.659
317.639
317.619
317.6
317.58
317.56
317.54
317.521
317.501
317.481
317.461
317.442
317.422
317.402
317.382
317.363
317.343
317.323
317.303
317.284
317.264
317.244
317.225
317.205
317.185
317.165
317.146
317.126
317.106
317.086
317.067
317.047
317.027
317.007
316.988
316.968
316.948
316.928
316.909
316.889
316.869
316.85
316.83
316.81
316.79
316.771
316.751
316.731
316.711
316.692
316.672
316.652
316.632
316.613
316.593
316.573
316.554
316.534
316.514
316.494
316.475
316.455
316.435
316.416
316.396
316.376
316.356
316.337
316.317
316.297
316.278
316.258
316.238
316.218
316.199
316.179
316.159
316.14
316.12
316.1
316.08
316.061
316.041
316.021
316.002
315.982
315.962
315.942
315.923
315.903
315.883
315.864
315.844
315.824
315.805
315.785
315.765
315.745
315.726
315.706
315.686
315.667
315.647
315.627
315.608
315.588
315.568
315.548
315.529
315.509
315.489
315.47
315.45
315.43
315.411
315.391
315.371
315.352
315.332
315.312
315.293
315.273
315.253
315.233
315.214
315.194
315.174
315.155
315.135
315.115
315.096
315.076
315.056
315.037
315.017
314.997
314.978
314.958
314.938
314.919
314.899
314.879
314.86
314.84
314.82
314.801
314.781
314.761
314.742
314.722
314.702
314.683
314.663
314.643
314.624
314.604
314.584
314.565
314.545
314.525
314.506
314.486
314.466
314.447
314.427
314.407
314.388
314.368
314.348
314.329
314.309
314.289
314.27
314.25
314.23
314.211
314.191
314.171
314.152
314.132
314.112
314.093
314.073
314.054
314.034
314.014
313.995
313.975
313.955
313.936
313.916
313.896
313.877
313.857
313.837
313.818
313.798
313.779
313.759
313.739
313.72
313.7
313.68
313.661
313.641
313.621
313.602
313.582
313.563
313.543
313.523
313.504
313.484
313.464
313.445
313.425
313.406
313.386
313.366
313.347
313.327
313.307
313.288
313.268
313.248
313.229
313.209
313.19
313.17
313.15
313.131
313.111
313.092
313.072
313.052
313.033
313.013
312.993
312.974
312.954
312.935
312.915
312.895
312.876
312.856
312.837
312.817
312.797
312.778
312.758
312.738
312.719
312.699
312.68
312.66
312.64
312.621
312.601
312.582
312.562
312.542
312.523
312.503
312.484
312.464
312.444
312.425
312.405
312.386
312.366
312.346
312.327
312.307
312.288
312.268
312.248
312.229
312.209
312.19
312.17
312.151
312.131
312.111
312.092
312.072
312.053
312.033
312.013
311.994
311.974
311.955
311.935
311.915
311.896
311.876
311.857
311.837
311.818
311.798
311.778
311.759
311.739
311.72
311.7
311.681
311.661
311.641
311.622
311.602
311.583
311.563
311.544
311.524
311.504
311.485
311.465
311.446
311.426
311.407
311.387
311.367
311.348
311.328
311.309
311.289
311.27
311.25
311.23
311.211
311.191
311.172
311.152
311.133
311.113
311.094
311.074
311.054
311.035
311.015
310.996
310.976
310.957
310.937
310.918
310.898
310.878
310.859
310.839
310.82
310.8
310.781
310.761
310.742
310.722
310.703
310.683
310.663
310.644
310.624
310.605
310.585
310.566
310.546
310.527
310.507
310.488
310.468
310.448
310.429
310.409
310.39
310.37
310.351
310.331
310.312
310.292
310.273
310.253
310.234
310.214
310.195
310.175
310.156
310.136
310.116
310.097
310.077
310.058
310.038
310.019
309.999
309.98
309.96
309.941
309.921
309.902
309.882
309.863
309.843
309.824
309.804
309.785
309.765
309.746
309.726
309.707
309.687
309.667
309.648
309.628
309.609
309.589
309.57
309.55
309.531
309.511
309.492
309.472
309.453
309.433
309.414
309.394
309.375
309.355
309.336
309.316
309.297
309.277
309.258
309.238
309.219
309.199
309.18
309.16
309.141
309.121
309.102
309.082
309.063
309.043
309.024
309.004
308.985
308.965
308.946
308.926
308.907
308.887
308.868
308.848
308.829
308.809
308.79
308.771
308.751
308.732
308.712
308.693
308.673
308.654
308.634
308.615
308.595
308.576
308.556
308.537
308.517
308.498
308.478
308.459
308.439
308.42
308.4
308.381
308.361
308.342
308.322
308.303
308.284
308.264
308.245
308.225
308.206
308.186
308.167
308.147
308.128
308.108
308.089
308.069
308.05
308.03
308.011
307.992
307.972
307.953
307.933
307.914
307.894
307.875
307.855
307.836
307.816
307.797
307.778
307.758
307.739
307.719
307.7
307.68
307.661
307.641
307.622
307.602
307.583
307.564
307.544
307.525
307.505
307.486
307.466
307.447
307.427
307.408
307.389
307.369
307.35
307.33
307.311
307.291
307.272
307.252
307.233
307.214
307.194
307.175
307.155
307.136
307.116
307.097
307.078
307.058
307.039
307.019
307
306.98
306.961
306.942
306.922
306.903
306.883
306.864
306.844
306.825
306.806
306.786
306.767
306.747
306.728
306.708
306.689
306.67
306.65
306.631
306.611
306.592
306.572
306.553
306.534
306.514
306.495
306.475
306.456
306.437
306.417
306.398
306.378
306.359
306.34
306.32
306.301
306.281
306.262
306.242
306.223
306.204
306.184
306.165
306.145
306.126
306.107
306.087
306.068
306.048
306.029
306.01
305.99
305.971
305.951
305.932
305.913
305.893
305.874
305.854
305.835
305.816
305.796
305.777
305.758
305.738
305.719
305.699
305.68
305.661
305.641
305.622
305.602
305.583
305.564
305.544
305.525
305.505
305.486
305.467
305.447
305.428
305.409
305.389
305.37
305.35
305.331
305.312
305.292
305.273
305.254
305.234
305.215
305.195
305.176
305.157
305.137
305.118
305.099
305.079
305.06
305.04
305.021
305.002
304.982
304.963
304.944
304.924
304.905
304.886
304.866
304.847
304.827
304.808
304.789
304.769
304.75
304.731
304.711
304.692
304.673
304.653
304.634
304.614
304.595
304.576
304.556
304.537
304.518
304.498
304.479
304.46
304.44
304.421
304.402
304.382
304.363
304.344
304.324
304.305
304.286
304.266
304.247
304.227
304.208
304.189
304.169
304.15
304.131
304.111
304.092
304.073
304.053
304.034
304.015
303.995
303.976
303.957
303.937
303.918
303.899
303.879
303.86
303.841
303.821
303.802
303.783
303.763
303.744
303.725
303.705
303.686
303.667
303.647
303.628
303.609
303.589
303.57
303.551
303.531
303.512
303.493
303.474
303.454
303.435
303.416
303.396
303.377
303.358
303.338
303.319
303.3
303.28
303.261
303.242
303.222
303.203
303.184
303.164
303.145
303.126
303.107
303.087
303.068
303.049
303.029
303.01
302.991
302.971
302.952
302.933
302.914
302.894
302.875
302.856
302.836
302.817
302.798
302.778
302.759
302.74
302.721
302.701
302.682
302.663
302.643
302.624
302.605
302.585
302.566
302.547
302.528
302.508
302.489
302.47
302.45
302.431
302.412
302.393
302.373
302.354
302.335
302.315
302.296
302.277
302.258
302.238
302.219
302.2
302.18
302.161
302.142
302.123
302.103
302.084
302.065
302.046
302.026
302.007
301.988
301.968
301.949
301.93
301.911
301.891
301.872
301.853
301.834
301.814
301.795
301.776
301.756
301.737
301.718
301.699
301.679
301.66
301.641
301.622
301.602
301.583
301.564
301.545
301.525
301.506
301.487
301.468
301.448
301.429
301.41
301.391
301.371
301.352
301.333
301.314
301.294
301.275
301.256
301.237
301.217
301.198
301.179
301.16
301.14
301.121
301.102
301.083
301.063
301.044
301.025
301.006
300.986
300.967
300.948
300.929
300.909
300.89
300.871
300.852
300.832
300.813
300.794
300.775
300.756
300.736
300.717
300.698
300.679
300.659
300.64
300.621
300.602
300.582
300.563
300.544
300.525
300.506
300.486
300.467
300.448
300.429
300.409
300.39
300.371
300.352
300.333
300.313
300.294
300.275
300.256
300.236
300.217
300.198
300.179
300.16
300.14
300.121
300.102
300.083
300.064
300.044
300.025
300.006
299.987
299.967
299.948
299.929
299.91
299.891
299.871
299.852
299.833
299.814
299.795
299.775
299.756
299.737
299.718
299.699
299.679
299.66
299.641
299.622
299.603
299.583
299.564
299.545
299.526
299.507
299.487
299.468
299.449
299.43
299.411
299.391
299.372
299.353
299.334
299.315
299.296
299.276
299.257
299.238
299.219
299.2
299.18
299.161
299.142
299.123
299.104
299.085
299.065
299.046
299.027
299.008
298.989
298.969
298.95
298.931
298.912
298.893
298.874
298.854
298.835
298.816
298.797
298.778
298.759
298.739
298.72
298.701
298.682
298.663
298.644
298.624
298.605
298.586
298.567
298.548
298.529
298.509
298.49
298.471
298.452
298.433
298.414
298.394
298.375
298.356
298.337
298.318
298.299
298.279
298.26
298.241
298.222
298.203
298.184
298.165
298.145
298.126
298.107
298.088
298.069
298.05
298.031
298.011
297.992
297.973
297.954
297.935
297.916
297.897
297.877
297.858
297.839
297.82
297.801
297.782
297.763
297.743
297.724
297.705
297.686
297.667
297.648
297.629
297.609
297.59
297.571
297.552
297.533
297.514
297.495
297.476
297.456
297.437
297.418
297.399
297.38
297.361
297.342
297.323
297.303
297.284
297.265
297.246
297.227
297.208
297.189
297.17
297.15
297.131
297.112
297.093
297.074
297.055
297.036
297.017
296.998
296.978
296.959
296.94
296.921
296.902
296.883
296.864
296.845
296.826
296.806
296.787
296.768
296.749
296.73
296.711
296.692
296.673
296.654
296.634
296.615
296.596
296.577
296.558
296.539
296.52
296.501
296.482
296.463
296.444
296.424
296.405
296.386
296.367
296.348
296.329
296.31
296.291
296.272
296.253
296.233
296.214
296.195
296.176
296.157
296.138
296.119
296.1
296.081
296.062
296.043
296.024
296.004
295.985
295.966
295.947
295.928
295.909
295.89
295.871
295.852
295.833
295.814
295.795
295.776
295.756
295.737
295.718
295.699
295.68
295.661
295.642
295.623
295.604
295.585
295.566
295.547
295.528
295.509
295.49
295.47
295.451
295.432
295.413
295.394
295.375
295.356
295.337
295.318
295.299
295.28
295.261
295.242
295.223
295.204
295.185
295.165
295.146
295.127
295.108
295.089
295.07
295.051
295.032
295.013
294.994
294.975
294.956
294.937
294.918
294.899
294.88
294.861
294.842
294.823
294.804
294.785
294.765
294.746
294.727
294.708
294.689
294.67
294.651
294.632
294.613
294.594
294.575
294.556
294.537
294.518
294.499
294.48
294.461
294.442
294.423
294.404
294.385
294.366
294.347
294.328
294.309
294.29
294.271
294.252
294.233
294.214
294.195
294.176
294.156
294.137
294.118
294.099
294.08
294.061
294.042
294.023
294.004
293.985
293.966
293.947
293.928
293.909
293.89
293.871
293.852
293.833
293.814
293.795
293.776
293.757
293.738
293.719
293.7
293.681
293.662
293.643
293.624
293.605
293.586
293.567
293.548
293.529
293.51
293.491
293.472
293.453
293.434
293.415
293.396
293.377
293.358
293.339
293.32
293.301
293.282
293.263
293.244
293.225
293.206
293.187
293.168
293.149
293.13
293.111
293.092
293.073
293.054
293.035
293.016
292.997
292.978
292.959
292.94
292.921
292.902
292.883
292.864
292.845
292.827
292.808
292.789
292.77
292.751
292.732
292.713
292.694
292.675
292.656
292.637
292.618
292.599
292.58
292.561
292.542
292.523
292.504
292.485
292.466
292.447
292.428
292.409
292.39
292.371
292.352
292.333
292.314
292.295
292.276
292.257
292.238
292.22
292.201
292.182
292.163
292.144
292.125
292.106
292.087
292.068
292.049
292.03
292.011
291.992
291.973
291.954
291.935
291.916
291.897
291.878
291.859
291.84
291.822
291.803
291.784
291.765
291.746
291.727
291.708
291.689
291.67
291.651
291.632
291.613
291.594
291.575
291.556
291.537
291.518
291.5
291.481
291.462
291.443
291.424
291.405
291.386
291.367
291.348
291.329
291.31
291.291
291.272
291.253
291.235
291.216
291.197
291.178
291.159
291.14
291.121
291.102
291.083
291.064
291.045
291.026
291.007
290.989
290.97
290.951
290.932
290.913
290.894
290.875
290.856
290.837
290.818
290.799
290.78
290.762
290.743
290.724
290.705
290.686
290.667
290.648
290.629
290.61
290.591
290.572
290.554
290.535
290.516
290.497
290.478
290.459
290.44
290.421
290.402
290.383
290.365
290.346
290.327
290.308
290.289
290.27
290.251
290.232
290.213
290.195
290.176
290.157
290.138
290.119
290.1
290.081
290.062
290.043
290.025
290.006
289.987
289.968
289.949
289.93
289.911
289.892
289.873
289.855
289.836
289.817
289.798
289.779
289.76
289.741
289.722
289.704
289.685
289.666
289.647
289.628
289.609
289.59
289.571
289.553
289.534
289.515
289.496
289.477
289.458
289.439
289.42
289.402
289.383
289.364
289.345
289.326
289.307
289.288
289.27
289.251
289.232
289.213
289.194
289.175
289.156
289.138
289.119
289.1
289.081
289.062
289.043
289.024
289.006
288.987
288.968
288.949
288.93
288.911
288.892
288.874
288.855
288.836
288.817
288.798
288.779
288.761
288.742
288.723
288.704
288.685
288.666
288.647
288.629
288.61
288.591
288.572
288.553
288.534
288.516
288.497
288.478
288.459
288.44
288.421
288.403
288.384
288.365
288.346
288.328
288.308
288.29
288.27
288.252
288.232
288.215
288.195
288.178
288.157
288.14
288.119
288.103
288.081
288.065
288.043
288.028
288.005
287.99
287.967
287.953
287.93
287.916
287.892
287.878
287.854
287.841
287.816
287.803
287.779
287.766
287.741
287.728
287.703
287.69
287.666
287.652
287.629
287.614
287.591
287.576
287.554
287.539
287.517
287.501
287.479
287.463
287.442
287.425
287.405
287.387
287.367
287.349
287.33
287.311
287.292
287.274
287.255
287.236
287.217
287.199
287.18
287.161
287.142
287.123
287.105
287.086
287.067
287.048
287.029
287.011
286.992
286.973
286.954
286.935
286.917
286.898
286.879
286.86
286.842
286.823
286.804
286.785
286.766
286.748
286.729
286.71
286.691
286.673
286.654
286.635
286.616
286.597
286.579
286.56
286.541
286.522
286.504
286.485
286.466
286.447
286.429
286.41
286.391
286.372
286.353
286.335
286.316
286.297
286.278
286.26
286.241
286.222
286.203
286.185
286.166
286.147
286.128
286.11
286.091
286.072
286.053
286.035
286.016
285.997
285.978
285.96
285.941
285.922
285.903
285.885
285.866
285.847
285.828
285.81
285.791
285.772
285.753
285.735
285.716
285.697
285.678
285.66
285.641
285.622
285.603
285.585
285.566
285.547
285.528
285.51
285.491
285.472
285.453
285.435
285.416
285.397
285.378
285.36
285.341
285.322
285.304
285.285
285.266
285.247
285.229
285.21
285.191
285.172
285.154
285.135
285.116
285.098
285.079
285.06
285.041
285.023
285.004
284.985
284.967
284.948
284.929
284.91
284.892
284.873
284.854
284.836
284.817
284.798
284.779
284.761
284.742
284.723
284.705
284.686
284.667
284.648
284.63
284.611
284.592
284.574
284.555
284.536
284.517
284.499
284.48
284.461
284.443
284.424
284.405
284.387
284.368
284.349
284.33
284.312
284.293
284.274
284.256
284.237
284.218
284.2
284.181
284.162
284.143
284.125
284.106
284.087
284.069
284.05
284.031
284.013
283.994
283.975
283.957
283.938
283.919
283.901
283.882
283.863
283.844
283.826
283.807
283.788
283.77
283.751
283.732
283.714
283.695
283.676
283.658
283.639
283.62
283.602
283.583
283.564
283.546
283.527
283.508
283.49
283.471
283.452
283.434
283.415
283.396
283.378
283.359
283.34
283.322
283.303
283.284
283.266
283.247
283.228
283.21
283.191
283.172
283.154
283.135
283.116
283.098
283.079
283.06
283.042
283.023
283.004
282.986
282.967
282.948
282.93
282.911
282.893
282.874
282.855
282.837
282.818
282.799
282.781
282.762
282.743
282.725
282.706
282.687
282.669
282.65
282.632
282.613
282.594
282.576
282.557
282.538
282.52
282.501
282.482
282.464
282.445
282.426
282.408
282.389
282.371
282.352
282.333
282.315
282.296
282.277
282.259
282.24
282.222
282.203
282.184
282.166
282.147
282.128
282.11
282.091
282.073
282.054
282.035
282.017
281.998
281.979
281.961
281.942
281.924
281.905
281.886
281.868
281.849
281.831
281.812
281.793
281.775
281.756
281.737
281.719
281.7
281.682
281.663
281.644
281.626
281.607
281.589
281.57
281.551
281.533
281.514
281.496
281.477
281.458
281.44
281.421
281.403
281.384
281.365
281.347
281.328
281.31
281.291
281.272
281.254
281.235
281.217
281.198
281.179
281.161
281.142
281.124
281.105
281.086
281.068
281.049
281.031
281.012
280.994
280.975
280.956
280.938
280.919
280.901
280.882
280.863
280.845
280.826
280.808
280.789
280.771
280.752
280.733
280.715
280.696
280.678
280.659
280.641
280.622
280.603
280.585
280.566
280.548
280.529
280.511
280.492
280.473
280.455
280.436
280.418
280.399
280.381
280.362
280.343
280.325
280.306
280.288
280.269
280.251
280.232
280.213
280.195
280.176
280.158
280.139
280.121
280.102
280.084
280.065
280.046
280.028
280.009
279.991
279.972
279.954
279.935
279.917
279.898
279.88
279.861
279.842
279.824
279.805
279.787
279.768
279.75
279.731
279.713
279.694
279.676
279.657
279.638
279.62
279.601
279.583
279.564
279.546
279.527
279.509
279.49
279.472
279.453
279.435
279.416
279.397
279.379
279.36
279.342
279.323
279.305
279.286
279.268
279.249
279.231
279.212
279.194
279.175
279.157
279.138
279.12
279.101
279.083
279.064
279.045
279.027
279.008
278.99
278.971
278.953
278.934
278.916
278.897
278.879
278.86
278.842
278.823
278.805
278.786
278.768
278.749
278.731
278.712
278.694
278.675
278.657
278.638
278.62
278.601
278.583
278.564
278.546
278.527
278.509
278.49
278.472
278.453
278.435
278.416
278.398
278.379
278.361
278.342
278.324
278.305
278.287
278.268
278.25
278.231
278.213
278.194
278.176
278.157
278.139
278.12
278.102
278.083
278.065
278.046
278.028
278.009
277.991
277.972
277.954
277.935
277.917
277.898
277.88
277.862
277.843
277.825
277.806
277.788
277.769
277.751
277.732
277.714
277.695
277.677
277.658
277.64
277.621
277.603
277.584
277.566
277.547
277.529
277.511
277.492
277.474
277.455
277.437
277.418
277.4
277.381
277.363
277.344
277.326
277.307
277.289
277.271
277.252
277.234
277.215
277.197
277.178
277.16
277.141
277.123
277.104
277.086
277.068
277.049
277.031
277.012
276.994
276.975
276.957
276.938
276.92
276.901
276.883
276.865
276.846
276.828
276.809
276.791
276.772
276.754
276.735
276.717
276.699
276.68
276.662
276.643
276.625
276.606
276.588
276.57
276.551
276.533
276.514
276.496
276.477
276.459
276.441
276.422
276.404
276.385
276.367
276.348
276.33
276.312
276.293
276.275
276.256
276.238
276.219
276.201
276.183
276.164
276.146
276.127
276.109
276.09
276.072
276.054
276.035
276.017
275.998
275.98
275.962
275.943
275.925
275.906
275.888
275.869
275.851
275.833
275.814
275.796
275.777
275.759
275.741
275.722
275.704
275.685
275.667
275.649
275.63
275.612
275.593
275.575
275.557
275.538
275.52
275.501
275.483
275.465
275.446
275.428
275.409
275.391
275.373
275.354
275.336
275.317
275.299
275.281
275.262
275.244
275.226
275.207
275.189
275.17
275.152
275.134
275.115
275.097
275.078
275.06
275.042
275.023
275.005
274.987
274.968
274.95
274.931
274.913
274.895
274.876
274.858
274.84
274.821
274.803
274.784
274.766
274.748
274.729
274.711
274.693
274.674
274.656
274.637
274.619
274.601
274.582
274.564
274.546
274.527
274.509
274.491
274.472
274.454
274.435
274.417
274.399
274.38
274.362
274.344
274.325
274.307
274.289
274.27
274.252
274.233
274.215
274.197
274.178
274.16
274.142
274.123
274.105
274.087
274.068
274.05
274.032
274.013
273.995
273.977
273.958
273.94
273.922
273.903
273.885
273.867
273.848
273.83
273.812
273.793
273.775
273.757
273.738
273.72
273.702
273.683
273.665
273.647
273.628
273.61
273.592
273.573
273.555
273.537
273.518
273.5
273.482
273.463
273.445
273.427
273.408
273.39
273.372
273.353
273.335
273.317
273.298
273.28
273.262
273.243
273.225
273.207
273.188
273.17
273.152
273.133
273.115
273.097
273.079
273.06
273.042
273.024
273.005
272.987
272.969
272.95
272.932
272.914
272.895
272.877
272.859
272.84
272.822
272.804
272.786
272.767
272.749
272.731
272.712
272.694
272.676
272.657
272.639
272.621
272.603
272.584
272.566
272.548
272.529
272.511
272.493
272.475
272.456
272.438
272.42
272.401
272.383
272.365
272.347
272.328
272.31
272.292
272.273
272.255
272.237
272.219
272.2
272.182
272.164
272.145
272.127
272.109
272.091
272.072
272.054
272.036
272.017
271.999
271.981
271.963
271.944
271.926
271.908
271.89
271.871
271.853
271.835
271.816
271.798
271.78
271.762
271.743
271.725
271.707
271.689
271.67
271.652
271.634
271.616
271.597
271.579
271.561
271.543
271.524
271.506
271.488
271.469
271.451
271.433
271.415
271.396
271.378
271.36
271.342
271.323
271.305
271.287
271.269
271.25
271.232
271.214
271.196
271.177
271.159
271.141
271.123
271.105
271.086
271.068
271.05
271.032
271.013
270.995
270.977
270.959
270.94
270.922
270.904
270.886
270.867
270.849
270.831
270.813
270.794
270.776
270.758
270.74
270.722
270.703
270.685
270.667
270.649
270.63
270.612
270.594
270.576
270.558
270.539
270.521
270.503
270.485
270.466
270.448
270.43
270.412
270.394
270.375
270.357
270.339
270.321
270.302
270.284
270.266
270.248
270.23
270.211
270.193
270.175
270.157
270.139
270.12
270.102
270.084
270.066
270.048
270.029
270.011
269.993
269.975
269.957
269.938
269.92
269.902
269.884
269.866
269.847
269.829
269.811
269.793
269.775
269.756
269.738
269.72
269.702
269.684
269.665
269.647
269.629
269.611
269.593
269.574
269.556
269.538
269.52
269.502
269.484
269.465
269.447
269.429
269.411
269.393
269.374
269.356
269.338
269.32
269.302
269.284
269.265
269.247
269.229
269.211
269.193
269.174
269.156
269.138
269.12
269.102
269.084
269.065
269.047
269.029
269.011
268.993
268.975
268.956
268.938
268.92
268.902
268.884
268.866
268.847
268.829
268.811
268.793
268.775
268.757
268.739
268.72
268.702
268.684
268.666
268.648
268.63
268.611
268.593
268.575
268.557
268.539
268.521
268.503
268.484
268.466
268.448
268.43
268.412
268.394
268.376
268.357
268.339
268.321
268.303
268.285
268.267
268.249
268.23
268.212
268.194
268.176
268.158
268.14
268.122
268.103
268.085
268.067
268.049
268.031
268.013
267.995
267.977
267.958
267.94
267.922
267.904
267.886
267.868
267.85
267.832
267.813
267.795
267.777
267.759
267.741
267.723
267.705
267.687
267.668
267.65
267.632
267.614
267.596
267.578
267.56
267.542
267.524
267.505
267.487
267.469
267.451
267.433
267.415
267.397
267.379
267.361
267.342
267.324
267.306
267.288
267.27
267.252
267.234
267.216
267.198
267.18
267.161
267.143
267.125
267.107
267.089
267.071
267.053
267.035
267.017
266.999
266.981
266.962
266.944
266.926
266.908
266.89
266.872
266.854
266.836
266.818
266.8
266.782
266.764
266.745
266.727
266.709
266.691
266.673
266.655
266.637
266.619
266.601
266.583
266.565
266.547
266.528
266.51
266.492
266.474
266.456
266.438
266.42
266.402
266.384
266.366
266.348
266.33
266.312
266.294
266.276
266.257
266.239
266.221
266.203
266.185
266.167
266.149
266.131
266.113
266.095
266.077
266.059
266.041
266.023
266.005
265.987
265.969
265.951
265.932
265.914
265.896
265.878
265.86
265.842
265.824
265.806
265.788
265.77
265.752
265.734
265.716
265.698
265.68
265.662
265.644
265.626
265.608
265.59
265.572
265.554
265.536
265.517
265.499
265.481
265.463
265.445
265.427
265.409
265.391
265.373
265.355
265.337
265.319
265.301
265.283
265.265
265.247
265.229
265.211
265.193
265.175
265.157
265.139
265.121
265.103
265.085
265.067
265.049
265.031
265.013
264.995
264.977
264.959
264.941
264.923
264.905
264.887
264.869
264.851
264.833
264.815
264.797
264.779
264.761
264.743
264.725
264.707
264.689
264.671
264.653
264.635
264.617
264.599
264.581
264.563
264.545
264.527
264.509
264.491
264.473
264.455