/*--------------------------------*- C++ -*----------------------------------*\
  =========                 |
  \\      /  F ield         | OpenFOAM: The Open Source CFD Toolbox
   \\    /   O peration     | Website:  https://openfoam.org
    \\  /    A nd           | Version:  9
     \\/     M anipulation  |
\*---------------------------------------------------------------------------*/
FoamFile
{
    format      ascii;
    class       volScalarField;
    location    "0.046";
    object      p;
}
// * * * * * * * * * * * * * * * * * * * * * * * * * * * * * * * * * * * * * //

dimensions      [1 -1 -2 0 0 0 0];

internalField   nonuniform List<scalar> 
100
(
43740.3
43217.2
42901.9
42565.9
42237.9
41910.8
41586.2
41263.6
40943.1
40624.8
40308.6
39994.5
39682.5
39372.6
39064.7
38758.9
38455.2
38153.6
37854
37556.4
37260.9
36967.4
36675.9
36386.4
36099
35813.5
35530.1
35248.7
34969.2
34691.8
34416.4
34143.1
33872
33603.1
33336.9
33074.2
32816.1
32565.4
32325
32103.6
31907
31748.2
31633.9
31560
31514.1
31481.6
31451.6
31420.2
31394.4
31379
31371.9
31369.1
31368.3
31366.3
31360.8
31352.1
31344.6
31340.2
31339
31341.5
31343.3
31342
31336.7
31326.8
31318.9
31312.7
31310.3
31310.2
31310.6
31308.8
31303.6
31295.1
31286.6
31279.8
31275.7
31275.2
31276.3
31277.3
31276.6
31270.7
31257.4
31243.3
31238.2
31251.8
31364.4
31702.4
31989.9
32142.6
32274.9
32486.3
32714.3
32833.2
32875.5
32883.4
32881.9
32873.8
32868.3
32864.3
32860.6
32852.4
)
;

boundaryField
{
    sides
    {
        type            zeroGradient;
    }
    empty
    {
        type            empty;
    }
}


// ************************************************************************* //
