/*--------------------------------*- C++ -*----------------------------------*\
  =========                 |
  \\      /  F ield         | OpenFOAM: The Open Source CFD Toolbox
   \\    /   O peration     | Website:  https://openfoam.org
    \\  /    A nd           | Version:  9
     \\/     M anipulation  |
\*---------------------------------------------------------------------------*/
FoamFile
{
    format      ascii;
    class       surfaceScalarField;
    location    "0.01";
    object      phi;
}
// * * * * * * * * * * * * * * * * * * * * * * * * * * * * * * * * * * * * * //

dimensions      [1 0 -1 0 0 0 0];

internalField   nonuniform List<scalar> 
9999
(
3.18323e-12
2.38742e-12
1.25056e-12
5.68434e-14
-1.25056e-12
-2.10321e-12
-3.12639e-12
-3.97904e-12
-4.66116e-12
-5.51381e-12
-5.79803e-12
-5.85487e-12
-5.28644e-12
-4.94538e-12
-5.05906e-12
-4.03588e-12
-3.46745e-12
-3.80851e-12
-3.18323e-12
-2.27374e-12
-2.44427e-12
-1.98952e-12
-1.3074e-12
-8.52651e-13
-1.13687e-13
4.54747e-13
1.42109e-12
2.16005e-12
3.29692e-12
4.09273e-12
4.37694e-12
5.34328e-12
6.82121e-12
7.90124e-12
9.54969e-12
1.10845e-11
1.3415e-11
1.39835e-11
1.50635e-11
1.63709e-11
1.68257e-11
1.74509e-11
1.82467e-11
1.83036e-11
1.90425e-11
1.98952e-11
2.07478e-11
2.13163e-11
2.16573e-11
2.143e-11
2.143e-11
2.10321e-11
2.09752e-11
2.00657e-11
1.93836e-11
1.91562e-11
1.86446e-11
1.81899e-11
1.72236e-11
1.60867e-11
1.51203e-11
1.31877e-11
1.21645e-11
1.08571e-11
9.60654e-12
8.6402e-12
7.27596e-12
6.25278e-12
5.51381e-12
4.26326e-12
3.18323e-12
2.21689e-12
8.52651e-13
2.84217e-13
-2.27374e-13
-1.19371e-12
-2.55795e-12
-3.9222e-12
-4.3201e-12
-4.26326e-12
-4.718e-12
-4.77485e-12
-5.51381e-12
-5.91172e-12
-6.99174e-12
-7.44649e-12
-7.16227e-12
-7.27596e-12
-7.04858e-12
-6.82121e-12
-7.27596e-12
-6.87805e-12
-7.10543e-12
-7.10543e-12
-7.61702e-12
-7.78755e-12
-7.84439e-12
-8.41283e-12
-8.52651e-12
-8.86757e-12
-9.66338e-12
-9.32232e-12
-9.66338e-12
-1.0175e-11
-1.10276e-11
-1.16529e-11
-1.14824e-11
-1.15961e-11
-1.21645e-11
-1.21076e-11
-1.25056e-11
-1.28466e-11
-1.22213e-11
-1.29035e-11
-1.32445e-11
-1.30171e-11
-1.3415e-11
-1.3415e-11
-1.3813e-11
-1.30171e-11
-1.27329e-11
-1.29035e-11
-1.35287e-11
-1.35287e-11
-1.40403e-11
-1.33582e-11
-1.33014e-11
-1.29603e-11
-1.26192e-11
-1.21076e-11
-1.17666e-11
-1.14255e-11
-1.08002e-11
-1.00613e-11
-9.09495e-12
-8.35598e-12
-7.78755e-12
-7.44649e-12
-6.9349e-12
-6.76437e-12
-5.34328e-12
-4.09273e-12
-2.95586e-12
-1.59162e-12
-6.25278e-13
5.11591e-13
1.25056e-12
2.21689e-12
3.06954e-12
3.35376e-12
4.718e-12
4.49063e-12
4.718e-12
5.22959e-12
5.45697e-12
5.85487e-12
6.9349e-12
7.7307e-12
8.2423e-12
8.92442e-12
9.9476e-12
1.03455e-11
1.02318e-11
9.89075e-12
9.66338e-12
9.54969e-12
9.49285e-12
8.69704e-12
8.01492e-12
6.36646e-12
6.19593e-12
5.45697e-12
5.11591e-12
5.11591e-12
4.60432e-12
4.14957e-12
3.46745e-12
3.06954e-12
2.72848e-12
1.93268e-12
9.09495e-13
-4.54747e-13
-1.64846e-12
-2.84217e-12
-3.58114e-12
-5.00222e-12
-6.08225e-12
-7.04858e-12
-7.21911e-12
-7.16227e-12
-7.67386e-12
-8.98126e-12
-9.09495e-12
-9.32232e-12
-1.0175e-11
-1.00044e-11
-9.60654e-12
-1.02318e-11
-9.77707e-12
-1.00044e-11
-1.00044e-11
-9.83391e-12
-1.03455e-11
-1.09708e-11
-1.10276e-11
-1.07434e-11
-1.11982e-11
-1.11413e-11
-1.09139e-11
-1.01181e-11
-1.02318e-11
-9.54969e-12
-8.86757e-12
-7.78755e-12
-7.67386e-12
-6.87805e-12
-7.04858e-12
-5.91172e-12
-4.49063e-12
-2.84217e-12
-1.98952e-12
7.38964e-13
1.81899e-12
3.75167e-12
5.11591e-12
5.74119e-12
6.36646e-12
7.95808e-12
9.20863e-12
1.03455e-11
1.28466e-11
1.39835e-11
1.54614e-11
1.74509e-11
1.84741e-11
2.06342e-11
2.23963e-11
2.45564e-11
2.51248e-11
2.67164e-11
2.76259e-11
2.9047e-11
3.00702e-11
3.01839e-11
3.16049e-11
3.25713e-11
3.32534e-11
3.44471e-11
3.49019e-11
3.54134e-11
3.5925e-11
3.68914e-11
3.67777e-11
3.61524e-11
3.71188e-11
3.71188e-11
3.75167e-11
3.78009e-11
3.79146e-11
3.76872e-11
3.83125e-11
3.8483e-11
3.80282e-11
3.83125e-11
3.87672e-11
3.90514e-11
3.93356e-11
3.83693e-11
3.80282e-11
3.75735e-11
3.70619e-11
3.64935e-11
3.64935e-11
3.60387e-11
3.49019e-11
3.39355e-11
3.33671e-11
3.33102e-11
3.26281e-11
3.27418e-11
3.15481e-11
3.09228e-11
3.06954e-11
3.02975e-11
2.86491e-11
2.70575e-11
2.63185e-11
2.56364e-11
2.50679e-11
2.41016e-11
2.34763e-11
2.24532e-11
2.25668e-11
2.15437e-11
2.0691e-11
2.00657e-11
1.89857e-11
1.7792e-11
1.69962e-11
1.61435e-11
1.46088e-11
1.3813e-11
1.20508e-11
1.06297e-11
8.92442e-12
7.16227e-12
5.51381e-12
4.03588e-12
2.6148e-12
1.3074e-12
1.7053e-13
-1.19371e-12
-2.10321e-12
-2.6148e-12
-4.26326e-12
-5.00222e-12
-5.45697e-12
-5.05906e-12
-4.94538e-12
-5.22959e-12
-4.83169e-12
-4.60432e-12
-3.75167e-12
-3.41061e-12
-2.84217e-12
-2.44427e-12
-2.38742e-12
-1.59162e-12
-1.47793e-12
-1.87583e-12
-1.98952e-12
-2.16005e-12
-1.76215e-12
-1.36424e-12
-1.02318e-12
-1.7053e-12
-1.87583e-12
-2.33058e-12
-3.0127e-12
-3.06954e-12
-3.41061e-12
-3.69482e-12
-4.03588e-12
-4.26326e-12
-4.3201e-12
-4.37694e-12
-4.49063e-12
-4.718e-12
-5.00222e-12
-5.17275e-12
-5.05906e-12
-5.85487e-12
-6.42331e-12
-5.91172e-12
-5.96856e-12
-6.82121e-12
-6.87805e-12
-7.61702e-12
-7.7307e-12
-8.07177e-12
-8.75389e-12
-9.54969e-12
-1.03455e-11
-1.08571e-11
-1.11982e-11
-1.17666e-11
-1.22782e-11
-1.22213e-11
-1.23919e-11
-1.22213e-11
-1.17666e-11
-1.1994e-11
-1.21076e-11
-1.18803e-11
-1.11982e-11
-1.09708e-11
-1.02318e-11
-9.54969e-12
-8.75389e-12
-8.6402e-12
-8.2423e-12
-7.10543e-12
-6.42331e-12
-5.68434e-12
-4.88853e-12
-4.37694e-12
-3.75167e-12
-3.0127e-12
-2.10321e-12
-2.16005e-12
-1.19371e-12
-1.02318e-12
-1.25056e-12
-1.36424e-12
-1.81899e-12
-1.42109e-12
-1.59162e-12
-1.36424e-12
-9.66338e-13
-6.25278e-13
-6.82121e-13
-5.11591e-13
-4.54747e-13
-8.52651e-13
-5.11591e-13
-6.25278e-13
-6.25278e-13
-2.27374e-13
5.11591e-13
9.09495e-13
1.3074e-12
1.76215e-12
2.27374e-12
2.44427e-12
3.86535e-12
4.88853e-12
5.34328e-12
6.13909e-12
7.21911e-12
7.3328e-12
8.35598e-12
8.52651e-12
9.32232e-12
9.37916e-12
9.9476e-12
1.06866e-11
1.14255e-11
1.1994e-11
1.18234e-11
1.1994e-11
1.25624e-11
1.30171e-11
1.28466e-11
1.27898e-11
1.24487e-11
1.31877e-11
1.22782e-11
1.18234e-11
1.17666e-11
1.10276e-11
1.11413e-11
1.09708e-11
1.1255e-11
1.09708e-11
1.07434e-11
1.06866e-11
1.11982e-11
1.11413e-11
1.03455e-11
9.49285e-12
9.0381e-12
8.41283e-12
8.29914e-12
8.41283e-12
8.35598e-12
8.52651e-12
8.12861e-12
7.3328e-12
6.87805e-12
6.59384e-12
6.0254e-12
5.79803e-12
5.45697e-12
5.96856e-12
5.85487e-12
6.25278e-12
6.0254e-12
6.9349e-12
6.25278e-12
6.70752e-12
6.13909e-12
6.25278e-12
5.34328e-12
5.57066e-12
6.08225e-12
6.0254e-12
6.25278e-12
6.13909e-12
6.19593e-12
6.99174e-12
7.10543e-12
7.50333e-12
7.95808e-12
8.12861e-12
8.41283e-12
8.75389e-12
9.20863e-12
9.43601e-12
9.83391e-12
1.06866e-11
1.21645e-11
1.22213e-11
1.21645e-11
1.25624e-11
1.30171e-11
1.27898e-11
1.33582e-11
1.35287e-11
1.44951e-11
1.48361e-11
1.56319e-11
1.59162e-11
1.55751e-11
1.71667e-11
1.80194e-11
1.82467e-11
1.97247e-11
2.08615e-11
2.08615e-11
2.13163e-11
2.19984e-11
2.28511e-11
2.36469e-11
2.40448e-11
2.47269e-11
2.5409e-11
2.60911e-11
2.73417e-11
2.78533e-11
2.84217e-11
2.95017e-11
3.00133e-11
3.00702e-11
3.09797e-11
3.02975e-11
3.12639e-11
3.13207e-11
3.1946e-11
3.20028e-11
3.20597e-11
3.25713e-11
3.18892e-11
3.25713e-11
3.23439e-11
3.32534e-11
3.33102e-11
3.3765e-11
3.29692e-11
3.17186e-11
3.1207e-11
2.96154e-11
2.8308e-11
2.76259e-11
2.57501e-11
2.47269e-11
2.29079e-11
2.15437e-11
2.07478e-11
2.00089e-11
1.7792e-11
1.66551e-11
1.55751e-11
1.42677e-11
1.31877e-11
1.1994e-11
1.08571e-11
9.43601e-12
8.35598e-12
6.82121e-12
5.57066e-12
4.66116e-12
3.29692e-12
2.33058e-12
8.52651e-13
2.84217e-13
-3.41061e-13
-1.42109e-12
-1.81899e-12
-2.89901e-12
-3.58114e-12
-4.60432e-12
-5.6275e-12
-6.42331e-12
-6.70752e-12
-6.99174e-12
-7.78755e-12
-8.18545e-12
-8.75389e-12
-9.77707e-12
-1.06866e-11
-1.10845e-11
-1.17097e-11
-1.18234e-11
-1.28466e-11
-1.33014e-11
-1.39835e-11
-1.4154e-11
-1.33014e-11
-1.35856e-11
-1.32445e-11
-1.31308e-11
-1.26761e-11
-1.21645e-11
-1.15392e-11
-1.13687e-11
-1.08002e-11
-9.60654e-12
-1.01181e-11
-9.20863e-12
-8.81073e-12
-8.18545e-12
-7.27596e-12
-6.25278e-12
-5.6275e-12
-5.28644e-12
-4.37694e-12
-3.75167e-12
-3.12639e-12
-2.50111e-12
-1.76215e-12
-5.68434e-13
6.25278e-13
2.10321e-12
4.14957e-12
5.34328e-12
6.9349e-12
7.78755e-12
8.35598e-12
9.26548e-12
1.02887e-11
1.17097e-11
1.28466e-11
1.34719e-11
1.3813e-11
1.40403e-11
1.5234e-11
1.56888e-11
1.51203e-11
1.56319e-11
1.59162e-11
1.58593e-11
1.62572e-11
1.63141e-11
1.58025e-11
1.5973e-11
1.63709e-11
1.69393e-11
1.72804e-11
1.73372e-11
1.80194e-11
1.84741e-11
1.93836e-11
2.05773e-11
2.02363e-11
2.02931e-11
2.05773e-11
2.08615e-11
2.11458e-11
2.12594e-11
2.0691e-11
2.08047e-11
2.05205e-11
2.02931e-11
2.04636e-11
2.05205e-11
2.09184e-11
2.143e-11
2.04636e-11
2.02363e-11
1.98952e-11
1.98384e-11
1.94973e-11
2.03499e-11
2.04068e-11
2.04068e-11
2.13163e-11
2.17142e-11
2.15437e-11
2.143e-11
2.08047e-11
1.98384e-11
1.98952e-11
1.9611e-11
1.93836e-11
1.88152e-11
1.89857e-11
1.88152e-11
1.81331e-11
1.71099e-11
1.58025e-11
1.50635e-11
1.48361e-11
1.39835e-11
1.33014e-11
1.22782e-11
1.11413e-11
1.03455e-11
9.83391e-12
9.20863e-12
8.98126e-12
7.84439e-12
7.10543e-12
6.70752e-12
6.0254e-12
5.11591e-12
4.718e-12
3.41061e-12
3.52429e-12
2.72848e-12
1.81899e-12
5.68434e-13
2.84217e-13
-1.7053e-13
-2.84217e-13
-1.53477e-12
-2.10321e-12
-2.55795e-12
-3.18323e-12
-3.63798e-12
-4.66116e-12
-4.94538e-12
-5.28644e-12
-6.42331e-12
-7.10543e-12
-7.95808e-12
-7.16227e-12
-7.44649e-12
-7.7307e-12
-8.12861e-12
-8.01492e-12
-7.95808e-12
-8.07177e-12
-8.46967e-12
-9.72022e-12
-1.06866e-11
-1.17097e-11
-1.20508e-11
-1.29035e-11
-1.35856e-11
-1.33014e-11
-1.50067e-11
-1.40972e-11
-1.45519e-11
-1.42109e-11
-1.43814e-11
-1.46656e-11
-1.46088e-11
-1.46088e-11
-1.45519e-11
-1.46088e-11
-1.51203e-11
-1.44382e-11
-1.40972e-11
-1.37561e-11
-1.42109e-11
-1.40972e-11
-1.4154e-11
-1.34719e-11
-1.31877e-11
-1.38698e-11
-1.3813e-11
-1.33582e-11
-1.29603e-11
-1.35287e-11
-1.25624e-11
-1.10276e-11
-1.04592e-11
-9.26548e-12
-8.41283e-12
-7.21911e-12
-6.70752e-12
-6.0254e-12
-5.05906e-12
-4.20641e-12
-3.86535e-12
-3.41061e-12
-2.72848e-12
-2.33058e-12
-1.76215e-12
-1.81899e-12
-2.16005e-12
-1.64846e-12
-9.09495e-13
-4.54747e-13
-2.27374e-13
-3.41061e-13
-9.66338e-13
-1.47793e-12
-1.36424e-12
-1.19371e-12
-6.25278e-13
-7.95808e-13
-1.19371e-12
-5.11591e-13
-1.08002e-12
-8.52651e-13
-9.66338e-13
-1.53477e-12
-2.10321e-12
-3.0127e-12
-3.63798e-12
-3.46745e-12
-4.14957e-12
-5.40012e-12
-6.30962e-12
-6.65068e-12
-6.9349e-12
-8.18545e-12
-8.01492e-12
-8.07177e-12
-8.46967e-12
-8.35598e-12
-8.46967e-12
-8.6402e-12
-8.41283e-12
-8.81073e-12
-8.92442e-12
-9.0381e-12
-8.52651e-12
-8.92442e-12
-8.6402e-12
-8.58336e-12
-8.92442e-12
-1.02887e-11
-1.00044e-11
-1.08002e-11
-1.1255e-11
-1.1994e-11
-1.2335e-11
-1.2335e-11
-1.18803e-11
-1.2335e-11
-1.2335e-11
-1.33014e-11
-1.31877e-11
-1.29603e-11
-1.26761e-11
-1.2335e-11
-1.1994e-11
-1.22213e-11
-1.15961e-11
-1.13118e-11
-1.13687e-11
-1.00613e-11
-9.49285e-12
-8.58336e-12
-8.12861e-12
-7.38964e-12
-5.91172e-12
-5.28644e-12
-4.26326e-12
-4.43379e-12
-3.86535e-12
-3.9222e-12
-3.75167e-12
-3.06954e-12
-2.95586e-12
-2.67164e-12
-2.04636e-12
-1.47793e-12
-8.52651e-13
-6.82121e-13
-2.27374e-13
9.66338e-13
1.42109e-12
2.44427e-12
2.10321e-12
2.72848e-12
2.67164e-12
2.67164e-12
2.78533e-12
2.89901e-12
3.18323e-12
3.46745e-12
3.97904e-12
4.54747e-12
4.94538e-12
4.83169e-12
4.43379e-12
4.60432e-12
5.00222e-12
5.91172e-12
6.48015e-12
5.91172e-12
4.88853e-12
5.11591e-12
5.40012e-12
5.96856e-12
6.59384e-12
6.42331e-12
6.82121e-12
7.38964e-12
7.67386e-12
9.26548e-12
9.72022e-12
1.03455e-11
1.07434e-11
1.18234e-11
1.25056e-11
1.24487e-11
1.36993e-11
1.48361e-11
1.54614e-11
1.50635e-11
1.55183e-11
1.51772e-11
1.51772e-11
1.47224e-11
1.44382e-11
1.42677e-11
1.38698e-11
1.32445e-11
1.27329e-11
1.24487e-11
1.19371e-11
1.1255e-11
1.11982e-11
1.04592e-11
9.43601e-12
9.15179e-12
8.69704e-12
7.95808e-12
7.10543e-12
5.68434e-12
4.66116e-12
3.41061e-12
2.38742e-12
1.93268e-12
1.36424e-12
5.11591e-13
-1.7053e-13
-9.09495e-13
-1.02318e-12
-1.25056e-12
-1.13687e-12
-1.25056e-12
-2.10321e-12
-2.10321e-12
-2.55795e-12
-2.6148e-12
-2.10321e-12
-1.81899e-12
-1.7053e-12
-1.98952e-12
-1.25056e-12
1.13687e-13
1.02318e-12
1.7053e-12
2.33058e-12
3.12639e-12
4.3201e-12
5.11591e-12
6.36646e-12
7.44649e-12
8.35598e-12
8.58336e-12
9.26548e-12
1.0516e-11
1.07434e-11
1.15392e-11
1.18234e-11
1.2335e-11
1.28466e-11
1.23919e-11
1.31308e-11
1.33582e-11
1.32445e-11
1.3813e-11
1.43245e-11
1.4154e-11
1.51203e-11
1.50067e-11
1.5234e-11
1.51203e-11
1.54614e-11
1.73941e-11
1.98384e-11
2.18279e-11
2.51248e-11
2.9047e-11
3.33102e-11
4.00746e-11
4.74074e-11
5.75255e-11
6.83826e-11
8.14566e-11
9.61222e-11
1.13801e-10
1.35458e-10
1.60867e-10
1.90539e-10
2.26464e-10
2.68585e-10
3.18892e-10
3.77611e-10
4.46335e-10
5.28246e-10
6.24141e-10
7.35952e-10
8.67942e-10
1.02244e-09
1.20394e-09
1.41716e-09
1.66733e-09
1.96013e-09
2.3025e-09
2.70325e-09
3.17152e-09
3.71779e-09
4.35614e-09
5.10175e-09
5.97123e-09
6.98412e-09
8.1655e-09
9.5414e-09
1.11428e-08
1.3006e-08
1.51716e-08
1.76879e-08
2.06108e-08
2.40028e-08
2.79375e-08
3.24995e-08
3.77856e-08
4.39065e-08
5.09918e-08
5.91869e-08
6.86598e-08
7.96055e-08
9.22431e-08
1.06828e-07
1.23649e-07
1.43038e-07
1.65375e-07
1.91093e-07
2.20685e-07
2.54718e-07
2.93833e-07
3.38762e-07
3.90341e-07
4.49519e-07
5.17376e-07
5.95139e-07
6.84203e-07
7.86148e-07
9.0277e-07
1.0361e-06
1.18845e-06
1.36243e-06
1.56098e-06
1.78745e-06
2.04561e-06
2.33971e-06
2.67457e-06
3.0556e-06
3.48891e-06
3.98138e-06
4.54077e-06
5.17576e-06
5.89616e-06
6.71297e-06
7.63852e-06
8.68666e-06
9.87292e-06
1.12147e-05
1.27314e-05
1.44449e-05
1.63796e-05
1.85625e-05
2.10241e-05
2.37984e-05
2.6923e-05
3.04401e-05
3.43965e-05
3.88445e-05
4.38421e-05
4.94536e-05
5.57507e-05
6.28128e-05
7.07279e-05
7.95936e-05
8.95179e-05
0.00010062
0.000113033
0.000126902
0.000142389
0.000159671
0.000178944
0.000200425
0.000224352
0.000250986
0.000280615
0.000313555
0.000350153
0.000390789
0.000435882
0.000485886
0.000541304
0.000602681
0.000670616
0.00074576
0.000828827
0.000920593
0.0010219
0.00113368
0.00125692
0.00139273
0.00154227
0.00170683
0.00188781
0.00208672
0.00230519
0.00254498
0.00280801
0.00309634
0.00341219
0.00375798
0.00413628
0.00454988
0.00500179
0.00549521
0.00603361
0.00662071
0.00726047
0.00795717
0.00871537
0.00953994
0.0104361
0.0114094
0.0124658
0.0136116
0.0148535
0.0161988
0.0176549
0.0192301
0.0209328
0.0227722
0.0247578
0.0268999
0.0292091
0.031697
0.0343753
0.0372568
0.0403547
0.0436831
0.0472565
0.0510904
0.055201
0.0596052
0.0643207
0.069366
0.0747606
0.0805244
0.0866787
0.0932452
0.100247
0.107707
0.115651
0.124103
0.13309
0.142639
0.152779
0.163538
0.174947
0.187035
0.199836
0.213381
0.227703
0.242837
0.258819
0.275683
0.293466
0.312205
0.331938
0.352705
0.374543
0.397492
0.421593
0.446887
0.473414
0.501216
0.530334
0.56081
0.592687
0.626007
0.660811
0.697143
0.735044
0.774556
0.815722
0.858582
0.903179
0.949552
0.997741
1.04779
1.09973
1.15361
1.20945
1.26731
1.32721
1.38919
1.45328
1.51952
1.58794
1.65856
1.73142
1.80655
1.88398
1.96372
2.0458
2.13025
2.21708
2.30632
2.39799
2.4921
2.58866
2.6877
2.78922
2.89324
2.99976
3.10879
3.22034
3.33441
3.45101
3.57014
3.69179
3.81598
3.94269
4.07192
4.20367
4.33793
4.4747
4.61395
4.7557
4.89991
5.04659
5.19571
5.34727
5.50125
5.65762
5.81638
5.9775
6.14098
6.30677
6.47488
6.64526
6.81792
6.99281
7.16991
7.34921
7.53068
7.7143
7.90003
8.08786
8.27775
8.46969
8.66364
8.85958
9.05748
9.25732
9.45906
9.66268
9.86816
10.0755
10.2846
10.4954
10.708
10.9224
11.1384
11.3561
11.5754
11.7963
12.0188
12.2429
12.4684
12.6955
12.9241
13.1541
13.3855
13.6183
13.8525
14.088
14.3249
14.5631
14.8025
15.0432
15.2851
15.5282
15.7725
16.0179
16.2645
16.5122
16.761
17.0108
17.2617
17.5136
17.7666
18.0205
18.2753
18.5312
18.7879
19.0456
19.3041
19.5636
19.8238
20.0849
20.3469
20.6096
20.8731
21.1374
21.4024
21.6682
21.9347
22.2019
22.4697
22.7383
23.0075
23.2774
23.5479
23.819
24.0907
24.363
24.6359
24.9093
25.1833
25.4578
25.7329
26.0085
26.2846
26.5612
26.8383
27.1158
27.3938
27.6723
27.9512
28.2305
28.5102
28.7904
29.071
29.3519
29.6333
29.915
30.1971
30.4795
30.7623
31.0454
31.3289
31.6126
31.8967
32.1812
32.4659
32.7509
33.0362
33.3217
33.6076
33.8937
34.1801
34.4667
34.7536
35.0407
35.3281
35.6157
35.9035
36.1915
36.4797
36.7682
37.0568
37.3456
37.6347
37.9239
38.2133
38.5028
38.7926
39.0825
39.3725
39.6627
39.9531
40.2436
40.5343
40.8251
41.116
41.4071
41.6983
41.9896
42.281
42.5726
42.8642
43.156
43.4478
43.7398
44.0319
44.324
44.6163
44.9086
45.201
45.4935
45.7861
46.0787
46.3715
46.6642
46.9571
47.25
47.543
47.836
48.1291
48.4222
48.7154
49.0086
49.3019
49.5952
49.8886
50.1819
50.4754
50.7688
51.0623
51.3558
51.6493
51.9429
52.2365
52.5301
52.8237
53.1173
53.4109
53.7046
53.9982
54.2919
54.5856
54.8792
55.1729
55.4666
55.7602
56.0539
56.3475
56.6412
56.9348
57.2284
57.5221
57.8156
58.1092
58.4028
58.6963
58.9899
59.2834
59.5769
59.8703
60.1637
60.4571
60.7505
61.0439
61.3372
61.6304
61.9237
62.2169
62.5101
62.8032
63.0963
63.3894
63.6824
63.9754
64.2683
64.5612
64.854
65.1468
65.4396
65.7323
66.0249
66.3175
66.6101
66.9025
67.195
67.4874
67.7797
68.072
68.3642
68.6563
68.9484
69.2405
69.5325
69.8244
70.1162
70.408
70.6998
70.9914
71.283
71.5745
71.866
72.1574
72.4487
72.74
73.0312
73.3223
73.6133
73.9043
74.1952
74.486
74.7768
75.0674
75.358
75.6486
75.939
76.2294
76.5197
76.8099
77.1
77.3901
77.6801
77.97
78.2598
78.5495
78.8392
79.1287
79.4182
79.7076
79.9969
80.2861
80.5753
80.8643
81.1533
81.4422
81.731
82.0197
82.3083
82.5969
82.8853
83.1737
83.4619
83.7501
84.0382
84.3262
84.6141
84.9019
85.1896
85.4772
85.7647
86.0522
86.3395
86.6267
86.9139
87.2009
87.4879
87.7748
88.0615
88.3482
88.6348
88.9213
89.2076
89.4939
89.7801
90.0662
90.3522
90.6381
90.9239
91.2095
91.4951
91.7806
92.066
92.3513
92.6365
92.9216
93.2065
93.4914
93.7762
94.0609
94.3455
94.6299
94.9143
95.1986
95.4827
95.7668
96.0507
96.3346
96.6183
96.9019
97.1855
97.4689
97.7522
98.0354
98.3186
98.6016
98.8845
99.1672
99.4499
99.7325
100.015
100.297
100.58
100.862
101.144
101.426
101.708
101.989
102.271
102.552
102.834
103.115
103.396
103.677
103.958
104.239
104.52
104.8
105.081
105.361
105.642
105.922
106.202
106.482
106.762
107.041
107.321
107.6
107.88
108.159
108.438
108.717
108.996
109.275
109.554
109.832
110.111
110.389
110.668
110.946
111.224
111.502
111.78
112.057
112.335
112.612
112.89
113.167
113.444
113.721
113.998
114.275
114.551
114.828
115.104
115.381
115.657
115.933
116.209
116.485
116.761
117.036
117.312
117.587
117.862
118.138
118.413
118.688
118.962
119.237
119.512
119.786
120.061
120.335
120.609
120.883
121.157
121.431
121.704
121.978
122.251
122.525
122.798
123.071
123.344
123.617
123.889
124.162
124.434
124.707
124.979
125.251
125.523
125.795
126.067
126.339
126.61
126.881
127.153
127.424
127.695
127.966
128.237
128.508
128.778
129.049
129.319
129.589
129.859
130.129
130.399
130.669
130.939
131.208
131.478
131.747
132.016
132.285
132.554
132.823
133.091
133.36
133.629
133.897
134.165
134.433
134.701
134.969
135.237
135.504
135.772
136.039
136.306
136.574
136.841
137.108
137.374
137.641
137.908
138.174
138.44
138.706
138.972
139.238
139.504
139.77
140.036
140.301
140.566
140.832
141.097
141.362
141.626
141.891
142.156
142.42
142.685
142.949
143.213
143.477
143.741
144.005
144.268
144.532
144.795
145.059
145.322
145.585
145.848
146.111
146.373
146.636
146.898
147.161
147.423
147.685
147.947
148.209
148.471
148.732
148.994
149.255
149.516
149.777
150.038
150.299
150.56
150.821
151.081
151.342
151.602
151.862
152.122
152.382
152.642
152.901
153.161
153.42
153.68
153.939
154.198
154.457
154.716
154.975
155.233
155.492
155.75
156.008
156.266
156.524
156.782
157.04
157.297
157.555
157.812
158.07
158.327
158.584
158.841
159.097
159.354
159.611
159.867
160.123
160.38
160.636
160.892
161.147
161.403
161.659
161.914
162.169
162.425
162.68
162.935
163.189
163.444
163.699
163.953
164.208
164.462
164.716
164.97
165.224
165.478
165.731
165.985
166.238
166.491
166.745
166.998
167.251
167.503
167.756
168.009
168.261
168.513
168.765
169.017
169.269
169.521
169.773
170.025
170.276
170.527
170.779
171.03
171.281
171.532
171.782
172.033
172.283
172.534
172.784
173.034
173.284
173.534
173.784
174.033
174.283
174.532
174.782
175.031
175.28
175.529
175.778
176.026
176.275
176.523
176.772
177.02
177.268
177.516
177.764
178.012
178.259
178.507
178.754
179.001
179.248
179.495
179.742
179.989
180.236
180.482
180.729
180.975
181.221
181.467
181.713
181.959
182.205
182.45
182.696
182.941
183.186
183.431
183.676
183.921
184.166
184.41
184.655
184.899
185.143
185.388
185.632
185.875
186.119
186.363
186.606
186.85
187.093
187.336
187.579
187.822
188.065
188.308
188.55
188.793
189.035
189.277
189.519
189.761
190.003
190.245
190.486
190.728
190.969
191.211
191.452
191.693
191.934
192.174
192.415
192.656
192.896
193.136
193.377
193.617
193.857
194.096
194.336
194.576
194.815
195.054
195.294
195.533
195.772
196.011
196.249
196.488
196.727
196.965
197.203
197.441
197.679
197.917
198.155
198.393
198.63
198.868
199.105
199.342
199.579
199.816
200.053
200.29
200.527
200.763
200.999
201.236
201.472
201.708
201.944
202.18
202.415
202.651
202.886
203.121
203.357
203.592
203.827
204.062
204.296
204.531
204.765
205
205.234
205.468
205.702
205.936
206.17
206.403
206.637
206.87
207.104
207.337
207.57
207.803
208.036
208.268
208.501
208.733
208.966
209.198
209.43
209.662
209.894
210.126
210.357
210.589
210.82
211.052
211.283
211.514
211.745
211.976
212.206
212.437
212.667
212.898
213.128
213.358
213.588
213.818
214.048
214.277
214.507
214.736
214.966
215.195
215.424
215.653
215.882
216.11
216.339
216.568
216.796
217.024
217.252
217.48
217.708
217.936
218.164
218.391
218.619
218.846
219.073
219.3
219.527
219.754
219.981
220.207
220.434
220.66
220.887
221.113
221.339
221.565
221.79
222.016
222.242
222.467
222.692
222.918
223.143
223.368
223.593
223.817
224.042
224.267
224.491
224.715
224.939
225.163
225.387
225.611
225.835
226.058
226.282
226.505
226.729
226.952
227.175
227.398
227.62
227.843
228.066
228.288
228.51
228.733
228.955
229.177
229.398
229.62
229.842
230.063
230.285
230.506
230.727
230.948
231.169
231.39
231.611
231.831
232.052
232.272
232.492
232.712
232.932
233.152
233.372
233.592
233.811
234.031
234.25
234.469
234.688
234.907
235.126
235.345
235.564
235.782
236.001
236.219
236.437
236.655
236.873
237.091
237.309
237.526
237.744
237.961
238.178
238.395
238.612
238.829
239.046
239.263
239.479
239.696
239.912
240.128
240.344
240.56
240.776
240.992
241.208
241.423
241.639
241.854
242.069
242.284
242.499
242.714
242.929
243.144
243.358
243.573
243.787
244.001
244.215
244.429
244.643
244.857
245.07
245.284
245.497
245.71
245.923
246.137
246.349
246.562
246.775
246.988
247.2
247.412
247.625
247.837
248.049
248.261
248.472
248.684
248.896
249.107
249.319
249.53
249.741
249.952
250.163
250.374
250.584
250.795
251.005
251.216
251.426
251.636
251.846
252.056
252.266
252.475
252.685
252.894
253.103
253.313
253.522
253.731
253.94
254.148
254.357
254.566
254.774
254.982
255.19
255.399
255.606
255.814
256.022
256.23
256.437
256.645
256.852
257.059
257.266
257.473
257.68
257.887
258.093
258.3
258.506
258.713
258.919
259.125
259.331
259.537
259.742
259.948
260.153
260.359
260.564
260.769
260.974
261.179
261.384
261.589
261.794
261.998
262.202
262.407
262.611
262.815
263.019
263.223
263.426
263.63
263.834
264.037
264.24
264.443
264.647
264.849
265.052
265.255
265.458
265.66
265.863
266.065
266.267
266.469
266.671
266.873
267.075
267.276
267.478
267.679
267.881
268.082
268.283
268.484
268.685
268.885
269.086
269.286
269.487
269.687
269.887
270.087
270.287
270.487
270.687
270.887
271.086
271.286
271.485
271.684
271.883
272.082
272.281
272.48
272.679
272.877
273.076
273.274
273.472
273.67
273.868
274.066
274.264
274.462
274.659
274.857
275.054
275.251
275.448
275.645
275.842
276.039
276.236
276.432
276.629
276.825
277.021
277.217
277.413
277.609
277.805
278.001
278.197
278.392
278.587
278.783
278.978
279.173
279.368
279.563
279.757
279.952
280.147
280.341
280.535
280.729
280.923
281.117
281.311
281.505
281.699
281.892
282.086
282.279
282.472
282.665
282.858
283.051
283.244
283.437
283.629
283.822
284.014
284.206
284.398
284.59
284.782
284.974
285.166
285.357
285.549
285.74
285.932
286.123
286.314
286.505
286.696
286.886
287.077
287.267
287.458
287.648
287.838
288.028
288.218
288.408
288.598
288.788
288.977
289.167
289.356
289.545
289.734
289.923
290.112
290.301
290.49
290.678
290.867
291.055
291.243
291.432
291.62
291.808
291.995
292.183
292.371
292.558
292.746
292.933
293.12
293.307
293.494
293.681
293.868
294.055
294.241
294.428
294.614
294.8
294.986
295.172
295.358
295.544
295.73
295.916
296.101
296.286
296.472
296.657
296.842
297.027
297.212
297.397
297.581
297.766
297.95
298.135
298.319
298.503
298.687
298.871
299.055
299.238
299.422
299.605
299.789
299.972
300.155
300.338
300.521
300.704
300.887
301.07
301.252
301.435
301.617
301.799
301.981
302.163
302.345
302.527
302.709
302.89
303.072
303.253
303.435
303.616
303.797
303.978
304.159
304.339
304.52
304.701
304.881
305.061
305.242
305.422
305.602
305.782
305.962
306.141
306.321
306.5
306.68
306.859
307.038
307.217
307.396
307.575
307.754
307.933
308.111
308.29
308.468
308.646
308.824
309.003
309.18
309.358
309.536
309.714
309.891
310.069
310.246
310.423
310.6
310.777
310.954
311.131
311.308
311.484
311.661
311.837
312.014
312.19
312.366
312.542
312.718
312.893
313.069
313.245
313.42
313.595
313.771
313.946
314.121
314.296
314.471
314.645
314.82
314.995
315.169
315.343
315.518
315.692
315.866
316.04
316.214
316.387
316.561
316.734
316.908
317.081
317.254
317.427
317.6
317.773
317.946
318.119
318.291
318.464
318.636
318.808
318.981
319.153
319.325
319.497
319.668
319.84
320.012
320.183
320.354
320.526
320.697
320.868
321.039
321.21
321.38
321.551
321.722
321.892
322.062
322.233
322.403
322.573
322.743
322.913
323.082
323.252
323.421
323.591
323.76
323.929
324.099
324.268
324.437
324.605
324.774
324.943
325.111
325.28
325.448
325.616
325.784
325.952
326.12
326.288
326.456
326.623
326.791
326.958
327.126
327.293
327.46
327.627
327.794
327.961
328.127
328.294
328.46
328.627
328.793
328.959
329.125
329.291
329.457
329.623
329.789
329.954
330.12
330.285
330.451
330.616
330.781
330.946
331.111
331.276
331.44
331.605
331.769
331.934
332.098
332.262
332.426
332.59
332.754
332.918
333.082
333.245
333.409
333.572
333.736
333.899
334.062
334.225
334.388
334.551
334.713
334.876
335.038
335.201
335.363
335.525
335.687
335.849
336.011
336.173
336.335
336.496
336.658
336.819
336.981
337.142
337.303
337.464
337.625
337.786
337.946
338.107
338.268
338.428
338.588
338.749
338.909
339.069
339.229
339.389
339.548
339.708
339.867
340.027
340.186
340.345
340.505
340.664
340.823
340.981
341.14
341.299
341.457
341.616
341.774
341.933
342.091
342.249
342.407
342.565
342.722
342.88
343.038
343.195
343.352
343.51
343.667
343.824
343.981
344.138
344.295
344.451
344.608
344.764
344.921
345.077
345.233
345.389
345.545
345.701
345.857
346.013
346.169
346.324
346.48
346.635
346.79
346.945
347.1
347.255
347.41
347.565
347.719
347.874
348.028
348.183
348.337
348.491
348.645
348.799
348.953
349.107
349.261
349.414
349.568
349.721
349.874
350.028
350.181
350.334
350.487
350.639
350.792
350.945
351.097
351.25
351.402
351.554
351.706
351.858
352.01
352.162
352.314
352.466
352.617
352.769
352.92
353.071
353.223
353.374
353.525
353.676
353.826
353.977
354.128
354.278
354.429
354.579
354.729
354.879
355.029
355.179
355.329
355.479
355.628
355.778
355.927
356.077
356.226
356.375
356.524
356.673
356.822
356.971
357.12
357.268
357.417
357.565
357.713
357.862
358.01
358.158
358.306
358.454
358.601
358.749
358.897
359.044
359.191
359.339
359.486
359.633
359.78
359.927
360.074
360.22
360.367
360.513
360.66
360.806
360.952
361.099
361.245
361.39
361.536
361.682
361.828
361.973
362.119
362.264
362.409
362.555
362.7
362.845
362.99
363.135
363.279
363.424
363.568
363.713
363.857
364.001
364.146
364.29
364.434
364.578
364.721
364.865
365.009
365.152
365.295
365.439
365.582
365.725
365.868
366.011
366.154
366.297
366.439
366.582
366.724
366.867
367.009
367.151
367.293
367.435
367.577
367.719
367.861
368.003
368.144
368.286
368.427
368.568
368.709
368.85
368.991
369.132
369.273
369.414
369.554
369.695
369.835
369.976
370.116
370.256
370.396
370.536
370.676
370.816
370.955
371.095
371.235
371.374
371.513
371.653
371.792
371.931
372.07
372.209
372.347
372.486
372.625
372.763
372.901
373.04
373.178
373.316
373.454
373.592
373.73
373.868
374.005
374.143
374.28
374.418
374.555
374.692
374.829
374.966
375.103
375.24
375.377
375.514
375.65
375.787
375.923
376.059
376.195
376.332
376.468
376.604
376.739
376.875
377.011
377.146
377.282
377.417
377.552
377.688
377.823
377.958
378.093
378.228
378.362
378.497
378.631
378.766
378.9
379.035
379.169
379.303
379.437
379.571
379.705
379.838
379.972
380.106
380.239
380.372
380.506
380.639
380.772
380.905
381.038
381.171
381.304
381.436
381.569
381.701
381.834
381.966
382.098
382.23
382.362
382.494
382.626
382.758
382.89
383.021
383.153
383.284
383.415
383.547
383.678
383.809
383.94
384.071
384.201
384.332
384.463
384.593
384.723
384.854
384.984
385.114
385.244
385.374
385.504
385.634
385.764
385.893
386.023
386.152
386.281
386.411
386.54
386.669
386.798
386.927
387.056
387.184
387.313
387.442
387.57
387.698
387.827
387.955
388.083
388.211
388.339
388.467
388.594
388.722
388.85
388.977
389.104
389.232
389.359
389.486
389.613
389.74
389.867
389.994
390.12
390.247
390.373
390.5
390.626
390.752
390.878
391.005
391.131
391.256
391.382
391.508
391.634
391.759
391.884
392.01
392.135
392.26
392.385
392.51
392.635
392.76
392.885
393.01
393.134
393.259
393.383
393.507
393.631
393.756
393.88
394.004
394.127
394.251
394.375
394.498
394.622
394.745
394.869
394.992
395.115
395.238
395.361
395.484
395.607
395.73
395.852
395.975
396.097
396.22
396.342
396.464
396.586
396.708
396.83
396.952
397.074
397.196
397.317
397.439
397.56
397.682
397.803
397.924