/*--------------------------------*- C++ -*----------------------------------*\
  =========                 |
  \\      /  F ield         | OpenFOAM: The Open Source CFD Toolbox
   \\    /   O peration     | Website:  https://openfoam.org
    \\  /    A nd           | Version:  9
     \\/     M anipulation  |
\*---------------------------------------------------------------------------*/
FoamFile
{
    format      ascii;
    class       volScalarField;
    location    "0.01";
    object      T;
}
// * * * * * * * * * * * * * * * * * * * * * * * * * * * * * * * * * * * * * //

dimensions      [0 0 0 1 0 0 0];

internalField   nonuniform List<scalar> 
10000
(
348.432
348.432
348.432
348.432
348.432
348.432
348.432
348.432
348.432
348.432
348.432
348.432
348.432
348.432
348.432
348.432
348.432
348.432
348.432
348.432
348.432
348.432
348.432
348.432
348.432
348.432
348.432
348.432
348.432
348.432
348.432
348.432
348.432
348.432
348.432
348.432
348.432
348.432
348.432
348.432
348.432
348.432
348.432
348.432
348.432
348.432
348.432
348.432
348.432
348.432
348.432
348.432
348.432
348.432
348.432
348.432
348.432
348.432
348.432
348.432
348.432
348.432
348.432
348.432
348.432
348.432
348.432
348.432
348.432
348.432
348.432
348.432
348.432
348.432
348.432
348.432
348.432
348.432
348.432
348.432
348.432
348.432
348.432
348.432
348.432
348.432
348.432
348.432
348.432
348.432
348.432
348.432
348.432
348.432
348.432
348.432
348.432
348.432
348.432
348.432
348.432
348.432
348.432
348.432
348.432
348.432
348.432
348.432
348.432
348.432
348.432
348.432
348.432
348.432
348.432
348.432
348.432
348.432
348.432
348.432
348.432
348.432
348.432
348.432
348.432
348.432
348.432
348.432
348.432
348.432
348.432
348.432
348.432
348.432
348.432
348.432
348.432
348.432
348.432
348.432
348.432
348.432
348.432
348.432
348.432
348.432
348.432
348.432
348.432
348.432
348.432
348.432
348.432
348.432
348.432
348.432
348.432
348.432
348.432
348.432
348.432
348.432
348.432
348.432
348.432
348.432
348.432
348.432
348.432
348.432
348.432
348.432
348.432
348.432
348.432
348.432
348.432
348.432
348.432
348.432
348.432
348.432
348.432
348.432
348.432
348.432
348.432
348.432
348.432
348.432
348.432
348.432
348.432
348.432
348.432
348.432
348.432
348.432
348.432
348.432
348.432
348.432
348.432
348.432
348.432
348.432
348.432
348.432
348.432
348.432
348.432
348.432
348.432
348.432
348.432
348.432
348.432
348.432
348.432
348.432
348.432
348.432
348.432
348.432
348.432
348.432
348.432
348.432
348.432
348.432
348.432
348.432
348.432
348.432
348.432
348.432
348.432
348.432
348.432
348.432
348.432
348.432
348.432
348.432
348.432
348.432
348.432
348.432
348.432
348.432
348.432
348.432
348.432
348.432
348.432
348.432
348.432
348.432
348.432
348.432
348.432
348.432
348.432
348.432
348.432
348.432
348.432
348.432
348.432
348.432
348.432
348.432
348.432
348.432
348.432
348.432
348.432
348.432
348.432
348.432
348.432
348.432
348.432
348.432
348.432
348.432
348.432
348.432
348.432
348.432
348.432
348.432
348.432
348.432
348.432
348.432
348.432
348.432
348.432
348.432
348.432
348.432
348.432
348.432
348.432
348.432
348.432
348.432
348.432
348.432
348.432
348.432
348.432
348.432
348.432
348.432
348.432
348.432
348.432
348.432
348.432
348.432
348.432
348.432
348.432
348.432
348.432
348.432
348.432
348.432
348.432
348.432
348.432
348.432
348.432
348.432
348.432
348.432
348.432
348.432
348.432
348.432
348.432
348.432
348.432
348.432
348.432
348.432
348.432
348.432
348.432
348.432
348.432
348.432
348.432
348.432
348.432
348.432
348.432
348.432
348.432
348.432
348.432
348.432
348.432
348.432
348.432
348.432
348.432
348.432
348.432
348.432
348.432
348.432
348.432
348.432
348.432
348.432
348.432
348.432
348.432
348.432
348.432
348.432
348.432
348.432
348.432
348.432
348.432
348.432
348.432
348.432
348.432
348.432
348.432
348.432
348.432
348.432
348.432
348.432
348.432
348.432
348.432
348.432
348.432
348.432
348.432
348.432
348.432
348.432
348.432
348.432
348.432
348.432
348.432
348.432
348.432
348.432
348.432
348.432
348.432
348.432
348.432
348.432
348.432
348.432
348.432
348.432
348.432
348.432
348.432
348.432
348.432
348.432
348.432
348.432
348.432
348.432
348.432
348.432
348.432
348.432
348.432
348.432
348.432
348.432
348.432
348.432
348.432
348.432
348.432
348.432
348.432
348.432
348.432
348.432
348.432
348.432
348.432
348.432
348.432
348.432
348.432
348.432
348.432
348.432
348.432
348.432
348.432
348.432
348.432
348.432
348.432
348.432
348.432
348.432
348.432
348.432
348.432
348.432
348.432
348.432
348.432
348.432
348.432
348.432
348.432
348.432
348.432
348.432
348.432
348.432
348.432
348.432
348.432
348.432
348.432
348.432
348.432
348.432
348.432
348.432
348.432
348.432
348.432
348.432
348.432
348.432
348.432
348.432
348.432
348.432
348.432
348.432
348.432
348.432
348.432
348.432
348.432
348.432
348.432
348.432
348.432
348.432
348.432
348.432
348.432
348.432
348.432
348.432
348.432
348.432
348.432
348.432
348.432
348.432
348.432
348.432
348.432
348.432
348.432
348.432
348.432
348.432
348.432
348.432
348.432
348.432
348.432
348.432
348.432
348.432
348.432
348.432
348.432
348.432
348.432
348.432
348.432
348.432
348.432
348.432
348.432
348.432
348.432
348.432
348.432
348.432
348.432
348.432
348.432
348.432
348.432
348.432
348.432
348.432
348.432
348.432
348.432
348.432
348.432
348.432
348.432
348.432
348.432
348.432
348.432
348.432
348.432
348.432
348.432
348.432
348.432
348.432
348.432
348.432
348.432
348.432
348.432
348.432
348.432
348.432
348.432
348.432
348.432
348.432
348.432
348.432
348.432
348.432
348.432
348.432
348.432
348.432
348.432
348.432
348.432
348.432
348.432
348.432
348.432
348.432
348.432
348.432
348.432
348.432
348.432
348.432
348.432
348.432
348.432
348.432
348.432
348.432
348.432
348.432
348.432
348.432
348.432
348.432
348.432
348.432
348.432
348.432
348.432
348.432
348.432
348.432
348.432
348.432
348.432
348.432
348.432
348.432
348.432
348.432
348.432
348.432
348.432
348.432
348.432
348.432
348.432
348.432
348.432
348.432
348.432
348.432
348.432
348.432
348.432
348.432
348.432
348.432
348.432
348.432
348.432
348.432
348.432
348.432
348.432
348.432
348.432
348.432
348.432
348.432
348.432
348.432
348.432
348.432
348.432
348.432
348.432
348.432
348.432
348.432
348.432
348.432
348.432
348.432
348.432
348.432
348.432
348.432
348.432
348.432
348.432
348.432
348.432
348.432
348.432
348.432
348.432
348.432
348.432
348.432
348.432
348.432
348.432
348.432
348.432
348.432
348.432
348.432
348.432
348.432
348.432
348.432
348.432
348.432
348.432
348.432
348.432
348.432
348.432
348.432
348.432
348.432
348.432
348.432
348.432
348.432
348.432
348.432
348.432
348.432
348.432
348.432
348.432
348.432
348.432
348.432
348.432
348.432
348.432
348.432
348.432
348.432
348.432
348.432
348.432
348.432
348.432
348.432
348.432
348.432
348.432
348.432
348.432
348.432
348.432
348.432
348.432
348.432
348.432
348.432
348.432
348.432
348.432
348.432
348.432
348.432
348.432
348.432
348.432
348.432
348.432
348.432
348.432
348.432
348.432
348.432
348.432
348.432
348.432
348.432
348.432
348.432
348.432
348.432
348.432
348.432
348.432
348.432
348.432
348.432
348.432
348.432
348.432
348.432
348.432
348.432
348.432
348.432
348.432
348.432
348.432
348.432
348.432
348.432
348.432
348.432
348.432
348.432
348.432
348.432
348.432
348.432
348.432
348.432
348.432
348.432
348.432
348.432
348.432
348.432
348.432
348.432
348.432
348.432
348.432
348.432
348.432
348.432
348.432
348.432
348.432
348.432
348.432
348.432
348.432
348.432
348.432
348.432
348.432
348.432
348.432
348.432
348.432
348.432
348.432
348.432
348.432
348.432
348.432
348.432
348.432
348.432
348.432
348.432
348.432
348.432
348.432
348.432
348.432
348.432
348.432
348.432
348.432
348.432
348.432
348.432
348.432
348.432
348.432
348.432
348.432
348.432
348.432
348.432
348.432
348.432
348.432
348.432
348.432
348.432
348.432
348.432
348.432
348.432
348.432
348.432
348.432
348.432
348.432
348.432
348.432
348.432
348.432
348.432
348.432
348.432
348.432
348.432
348.432
348.432
348.432
348.432
348.432
348.432
348.432
348.432
348.432
348.432
348.432
348.432
348.432
348.432
348.432
348.432
348.432
348.432
348.432
348.432
348.432
348.432
348.432
348.432
348.432
348.432
348.432
348.432
348.432
348.432
348.432
348.432
348.432
348.432
348.432
348.432
348.432
348.432
348.432
348.432
348.432
348.432
348.432
348.432
348.432
348.432
348.432
348.432
348.432
348.432
348.432
348.432
348.432
348.432
348.432
348.432
348.432
348.432
348.432
348.432
348.432
348.432
348.432
348.432
348.432
348.432
348.432
348.432
348.432
348.432
348.432
348.432
348.432
348.432
348.432
348.432
348.432
348.432
348.432
348.432
348.432
348.432
348.432
348.432
348.432
348.432
348.432
348.432
348.432
348.432
348.432
348.432
348.432
348.432
348.432
348.432
348.432
348.432
348.432
348.432
348.432
348.432
348.432
348.432
348.432
348.432
348.432
348.432
348.432
348.432
348.432
348.432
348.432
348.432
348.432
348.432
348.432
348.432
348.432
348.432
348.432
348.432
348.432
348.432
348.432
348.432
348.432
348.432
348.432
348.432
348.432
348.432
348.432
348.432
348.432
348.432
348.432
348.432
348.432
348.432
348.432
348.432
348.432
348.432
348.432
348.432
348.432
348.432
348.432
348.432
348.432
348.432
348.432
348.432
348.432
348.432
348.432
348.432
348.432
348.432
348.432
348.432
348.432
348.432
348.432
348.432
348.432
348.432
348.432
348.432
348.432
348.432
348.432
348.432
348.432
348.432
348.432
348.432
348.432
348.432
348.432
348.432
348.432
348.432
348.432
348.432
348.432
348.432
348.432
348.432
348.432
348.432
348.432
348.432
348.432
348.432
348.432
348.431
348.431
348.431
348.431
348.431
348.431
348.431
348.431
348.431
348.431
348.431
348.431
348.43
348.43
348.43
348.43
348.43
348.43
348.429
348.429
348.429
348.429
348.428
348.428
348.428
348.427
348.427
348.427
348.426
348.426
348.425
348.425
348.424
348.424
348.423
348.422
348.422
348.421
348.42
348.419
348.418
348.417
348.416
348.415
348.414
348.413
348.411
348.41
348.409
348.407
348.405
348.404
348.402
348.4
348.398
348.396
348.394
348.391
348.389
348.386
348.384
348.381
348.378
348.375
348.372
348.369
348.365
348.361
348.358
348.354
348.35
348.345
348.341
348.336
348.332
348.327
348.322
348.316
348.311
348.305
348.299
348.293
348.287
348.28
348.273
348.267
348.259
348.252
348.244
348.237
348.229
348.22
348.212
348.203
348.194
348.185
348.176
348.166
348.156
348.146
348.136
348.125
348.114
348.103
348.092
348.08
348.069
348.057
348.044
348.032
348.019
348.006
347.993
347.98
347.966
347.952
347.938
347.923
347.909
347.894
347.879
347.864
347.848
347.833
347.817
347.8
347.784
347.767
347.751
347.734
347.716
347.699
347.681
347.664
347.646
347.627
347.609
347.59
347.572
347.553
347.533
347.514
347.495
347.475
347.455
347.435
347.415
347.394
347.374
347.353
347.332
347.311
347.29
347.269
347.247
347.226
347.204
347.182
347.16
347.138
347.115
347.093
347.07
347.048
347.025
347.002
346.979
346.956
346.932
346.909
346.885
346.862
346.838
346.814
346.79
346.766
346.742
346.717
346.693
346.668
346.644
346.619
346.594
346.57
346.545
346.52
346.494
346.469
346.444
346.419
346.393
346.368
346.342
346.316
346.29
346.265
346.239
346.213
346.187
346.161
346.134
346.108
346.082
346.055
346.029
346.003
345.976
345.949
345.923
345.896
345.869
345.842
345.815
345.788
345.761
345.734
345.707
345.68
345.653
345.626
345.598
345.571
345.544
345.516
345.489
345.461
345.434
345.406
345.379
345.351
345.323
345.295
345.268
345.24
345.212
345.184
345.156
345.128
345.1
345.072
345.044
345.016
344.988
344.96
344.931
344.903
344.875
344.847
344.818
344.79
344.762
344.733
344.705
344.676
344.648
344.619
344.591
344.562
344.534
344.505
344.476
344.448
344.419
344.39
344.362
344.333
344.304
344.275
344.247
344.218
344.189
344.16
344.131
344.102
344.073
344.044
344.015
343.986
343.957
343.928
343.899
343.87
343.841
343.812
343.783
343.754
343.725
343.696
343.666
343.637
343.608
343.579
343.55
343.52
343.491
343.462
343.433
343.403
343.374
343.345
343.315
343.286
343.257
343.227
343.198
343.168
343.139
343.11
343.08
343.051
343.021
342.992
342.962
342.933
342.903
342.874
342.844
342.815
342.785
342.756
342.726
342.697
342.667
342.637
342.608
342.578
342.549
342.519
342.489
342.46
342.43
342.4
342.371
342.341
342.311
342.282
342.252
342.222
342.192
342.163
342.133
342.103
342.074
342.044
342.014
341.984
341.954
341.925
341.895
341.865
341.835
341.805
341.776
341.746
341.716
341.686
341.656
341.627
341.597
341.567
341.537
341.507
341.477
341.447
341.417
341.388
341.358
341.328
341.298
341.268
341.238
341.208
341.178
341.148
341.118
341.088
341.058
341.029
340.999
340.969
340.939
340.909
340.879
340.849
340.819
340.789
340.759
340.729
340.699
340.669
340.639
340.609
340.579
340.549
340.519
340.489
340.459
340.429
340.399
340.369
340.339
340.309
340.279
340.249
340.219
340.189
340.158
340.128
340.098
340.068
340.038
340.008
339.978
339.948
339.918
339.888
339.858
339.828
339.798
339.768
339.737
339.707
339.677
339.647
339.617
339.587
339.557
339.527
339.497
339.467
339.436
339.406
339.376
339.346
339.316
339.286
339.256
339.226
339.196
339.165
339.135
339.105
339.075
339.045
339.015
338.985
338.954
338.924
338.894
338.864
338.834
338.804
338.774
338.743
338.713
338.683
338.653
338.623
338.593
338.563
338.532
338.502
338.472
338.442
338.412
338.382
338.351
338.321
338.291
338.261
338.231
338.201
338.17
338.14
338.11
338.08
338.05
338.019
337.989
337.959
337.929
337.899
337.869
337.838
337.808
337.778
337.748
337.718
337.687
337.657
337.627
337.597
337.567
337.537
337.506
337.476
337.446
337.416
337.386
337.355
337.325
337.295
337.265
337.235
337.204
337.174
337.144
337.114
337.084
337.053
337.023
336.993
336.963
336.933
336.902
336.872
336.842
336.812
336.782
336.751
336.721
336.691
336.661
336.631
336.6
336.57
336.54
336.51
336.48
336.449
336.419
336.389
336.359
336.328
336.298
336.268
336.238
336.208
336.177
336.147
336.117
336.087
336.057
336.026
335.996
335.966
335.936
335.906
335.875
335.845
335.815
335.785
335.755
335.724
335.694
335.664
335.634
335.604
335.573
335.543
335.513
335.483
335.452
335.422
335.392
335.362
335.332
335.301
335.271
335.241
335.211
335.181
335.15
335.12
335.09
335.06
335.03
334.999
334.969
334.939
334.909
334.879
334.848
334.818
334.788
334.758
334.728
334.697
334.667
334.637
334.607
334.577
334.546
334.516
334.486
334.456
334.426
334.395
334.365
334.335
334.305
334.275
334.244
334.214
334.184
334.154
334.124
334.093
334.063
334.033
334.003
333.973
333.942
333.912
333.882
333.852
333.822
333.791
333.761
333.731
333.701
333.671
333.641
333.61
333.58
333.55
333.52
333.49
333.459
333.429
333.399
333.369
333.339
333.309
333.278
333.248
333.218
333.188
333.158
333.127
333.097
333.067
333.037
333.007
332.977
332.946
332.916
332.886
332.856
332.826
332.796
332.765
332.735
332.705
332.675
332.645
332.614
332.584
332.554
332.524
332.494
332.464
332.433
332.403
332.373
332.343
332.313
332.283
332.253
332.222
332.192
332.162
332.132
332.102
332.072
332.041
332.011
331.981
331.951
331.921
331.891
331.861
331.83
331.8
331.77
331.74
331.71
331.68
331.649
331.619
331.589
331.559
331.529
331.499
331.469
331.439
331.408
331.378
331.348
331.318
331.288
331.258
331.228
331.197
331.167
331.137
331.107
331.077
331.047
331.017
330.987
330.956
330.926
330.896
330.866
330.836
330.806
330.776
330.746
330.715
330.685
330.655
330.625
330.595
330.565
330.535
330.505
330.474
330.444
330.414
330.384
330.354
330.324
330.294
330.264
330.234
330.204
330.173
330.143
330.113
330.083
330.053
330.023
329.993
329.963
329.933
329.903
329.872
329.842
329.812
329.782
329.752
329.722
329.692
329.662
329.632
329.602
329.572
329.541
329.511
329.481
329.451
329.421
329.391
329.361
329.331
329.301
329.271
329.241
329.211
329.181
329.15
329.12
329.09
329.06
329.03
329
328.97
328.94
328.91
328.88
328.85
328.82
328.79
328.76
328.73
328.699
328.669
328.639
328.609
328.579
328.549
328.519
328.489
328.459
328.429
328.399
328.369
328.339
328.309
328.279
328.249
328.219
328.189
328.159
328.129
328.099
328.069
328.038
328.008
327.978
327.948
327.918
327.888
327.858
327.828
327.798
327.768
327.738
327.708
327.678
327.648
327.618
327.588
327.558
327.528
327.498
327.468
327.438
327.408
327.378
327.348
327.318
327.288
327.258
327.228
327.198
327.168
327.138
327.108
327.078
327.048
327.018
326.988
326.958
326.928
326.898
326.868
326.838
326.808
326.778
326.748
326.718
326.688
326.658
326.628
326.598
326.568
326.538
326.508
326.478
326.448
326.418
326.388
326.358
326.328
326.298
326.268
326.238
326.208
326.178
326.148
326.118
326.088
326.059
326.029
325.999
325.969
325.939
325.909
325.879
325.849
325.819
325.789
325.759
325.729
325.699
325.669
325.639
325.609
325.579
325.549
325.519
325.489
325.459
325.43
325.4
325.37
325.34
325.31
325.28
325.25
325.22
325.19
325.16
325.13
325.1
325.07
325.04
325.011
324.981
324.951
324.921
324.891
324.861
324.831
324.801
324.771
324.741
324.711
324.681
324.652
324.622
324.592
324.562
324.532
324.502
324.472
324.442
324.412
324.382
324.352
324.323
324.293
324.263
324.233
324.203
324.173
324.143
324.113
324.083
324.054
324.024
323.994
323.964
323.934
323.904
323.874
323.844
323.815
323.785
323.755
323.725
323.695
323.665
323.635
323.605
323.576
323.546
323.516
323.486
323.456
323.426
323.396
323.366
323.337
323.307
323.277
323.247
323.217
323.187
323.158
323.128
323.098
323.068
323.038
323.008
322.978
322.949
322.919
322.889
322.859
322.829
322.799
322.77
322.74
322.71
322.68
322.65
322.62
322.591
322.561
322.531
322.501
322.471
322.441
322.412
322.382
322.352
322.322
322.292
322.263
322.233
322.203
322.173
322.143
322.113
322.084
322.054
322.024
321.994
321.964
321.935
321.905
321.875
321.845
321.815
321.786
321.756
321.726
321.696
321.666
321.637
321.607
321.577
321.547
321.518
321.488
321.458
321.428
321.398
321.369
321.339
321.309
321.279
321.25
321.22
321.19
321.16
321.13
321.101
321.071
321.041
321.011
320.982
320.952
320.922
320.892
320.863
320.833
320.803
320.773
320.744
320.714
320.684
320.654
320.625
320.595
320.565
320.535
320.506
320.476
320.446
320.416
320.387
320.357
320.327
320.297
320.268
320.238
320.208
320.179
320.149
320.119
320.089
320.06
320.03
320
319.97
319.941
319.911
319.881
319.852
319.822
319.792
319.762
319.733
319.703
319.673
319.644
319.614
319.584
319.555
319.525
319.495
319.465
319.436
319.406
319.376
319.347
319.317
319.287
319.258
319.228
319.198
319.169
319.139
319.109
319.079
319.05
319.02
318.99
318.961
318.931
318.901
318.872
318.842
318.812
318.783
318.753
318.723
318.694
318.664
318.634
318.605
318.575
318.545
318.516
318.486
318.456
318.427
318.397
318.368
318.338
318.308
318.279
318.249
318.219
318.19
318.16
318.13
318.101
318.071
318.041
318.012
317.982
317.953
317.923
317.893
317.864
317.834
317.804
317.775
317.745
317.716
317.686
317.656
317.627
317.597
317.567
317.538
317.508
317.479
317.449
317.419
317.39
317.36
317.331
317.301
317.271
317.242
317.212
317.183
317.153
317.123
317.094
317.064
317.035
317.005
316.975
316.946
316.916
316.887
316.857
316.827
316.798
316.768
316.739
316.709
316.68
316.65
316.62
316.591
316.561
316.532
316.502
316.473
316.443
316.413
316.384
316.354
316.325
316.295
316.266
316.236
316.206
316.177
316.147
316.118
316.088
316.059
316.029
316
315.97
315.94
315.911
315.881
315.852
315.822
315.793
315.763
315.734
315.704
315.675
315.645
315.616
315.586
315.557
315.527
315.497
315.468
315.438
315.409
315.379
315.35
315.32
315.291
315.261
315.232
315.202
315.173
315.143
315.114
315.084
315.055
315.025
314.996
314.966
314.937
314.907
314.878
314.848
314.819
314.789
314.76
314.73
314.701
314.671
314.642
314.612
314.583
314.553
314.524
314.494
314.465
314.435
314.406
314.376
314.347
314.318
314.288
314.259
314.229
314.2
314.17
314.141
314.111
314.082
314.052
314.023
313.993
313.964
313.934
313.905
313.876
313.846
313.817
313.787
313.758
313.728
313.699
313.669
313.64
313.611
313.581
313.552
313.522
313.493
313.463
313.434
313.404
313.375
313.346
313.316
313.287
313.257
313.228
313.198
313.169
313.14
313.11
313.081
313.051
313.022
312.993
312.963
312.934
312.904
312.875
312.846
312.816
312.787
312.757
312.728
312.698
312.669
312.64
312.61
312.581
312.552
312.522
312.493
312.463
312.434
312.405
312.375
312.346
312.316
312.287
312.258
312.228
312.199
312.17
312.14
312.111
312.081
312.052
312.023
311.993
311.964
311.935
311.905
311.876
311.846
311.817
311.788
311.758
311.729
311.7
311.67
311.641
311.612
311.582
311.553
311.524
311.494
311.465
311.436
311.406
311.377
311.347
311.318
311.289
311.259
311.23
311.201
311.171
311.142
311.113
311.083
311.054
311.025
310.996
310.966
310.937
310.908
310.878
310.849
310.82
310.79
310.761
310.732
310.702
310.673
310.644
310.614
310.585
310.556
310.527
310.497
310.468
310.439
310.409
310.38
310.351
310.321
310.292
310.263
310.234
310.204
310.175
310.146
310.116
310.087
310.058
310.029
309.999
309.97
309.941
309.911
309.882
309.853
309.824
309.794
309.765
309.736
309.707
309.677
309.648
309.619
309.59
309.56
309.531
309.502
309.473
309.443
309.414
309.385
309.356
309.326
309.297
309.268
309.239
309.209
309.18
309.151
309.122
309.092
309.063
309.034
309.005
308.975
308.946
308.917
308.888
308.859
308.829
308.8
308.771
308.742
308.712
308.683
308.654
308.625
308.596
308.566
308.537
308.508
308.479
308.449
308.42
308.391
308.362
308.333
308.303
308.274
308.245
308.216
308.187
308.157
308.128
308.099
308.07
308.041
308.012
307.982
307.953
307.924
307.895
307.866
307.836
307.807
307.778
307.749
307.72
307.691
307.661
307.632
307.603
307.574
307.545
307.516
307.486
307.457
307.428
307.399
307.37
307.341
307.311
307.282
307.253
307.224
307.195
307.166
307.137
307.107
307.078
307.049
307.02
306.991
306.962
306.933
306.903
306.874
306.845
306.816
306.787
306.758
306.729
306.7
306.67
306.641
306.612
306.583
306.554
306.525
306.496
306.467
306.437
306.408
306.379
306.35
306.321
306.292
306.263
306.234
306.205
306.176
306.146
306.117
306.088
306.059
306.03
306.001
305.972
305.943
305.914
305.885
305.855
305.826
305.797
305.768
305.739
305.71
305.681
305.652
305.623
305.594
305.565
305.536
305.507
305.477
305.448
305.419
305.39
305.361
305.332
305.303
305.274
305.245
305.216
305.187
305.158
305.129
305.1
305.071
305.042
305.013
304.984
304.954
304.925
304.896
304.867
304.838
304.809
304.78
304.751
304.722
304.693
304.664
304.635
304.606
304.577
304.548
304.519
304.49
304.461
304.432
304.403
304.374
304.345
304.316
304.287
304.258
304.229
304.2
304.171
304.142
304.113
304.084
304.055
304.026
303.997
303.968
303.939
303.91
303.881
303.852
303.823
303.794
303.765
303.736
303.707
303.678
303.649
303.62
303.591
303.562
303.533
303.504
303.475
303.446
303.417
303.388
303.359
303.33
303.301
303.272
303.243
303.214
303.185
303.156
303.127
303.098
303.07
303.041
303.012
302.983
302.954
302.925
302.896
302.867
302.838
302.809
302.78
302.751
302.722
302.693
302.664
302.635
302.606
302.577
302.549
302.52
302.491
302.462
302.433
302.404
302.375
302.346
302.317
302.288
302.259
302.23
302.202
302.173
302.144
302.115
302.086
302.057
302.028
301.999
301.97
301.941
301.912
301.884
301.855
301.826
301.797
301.768
301.739
301.71
301.681
301.652
301.623
301.595
301.566
301.537
301.508
301.479
301.45
301.421
301.392
301.364
301.335
301.306
301.277
301.248
301.219
301.19
301.161
301.133
301.104
301.075
301.046
301.017
300.988
300.959
300.931
300.902
300.873
300.844
300.815
300.786
300.758
300.729
300.7
300.671
300.642
300.613
300.584
300.556
300.527
300.498
300.469
300.44
300.411
300.383
300.354
300.325
300.296
300.267
300.239
300.21
300.181
300.152
300.123
300.094
300.066
300.037
300.008
299.979
299.95
299.922
299.893
299.864
299.835
299.806
299.778
299.749
299.72
299.691
299.662
299.634
299.605
299.576
299.547
299.518
299.49
299.461
299.432
299.403
299.375
299.346
299.317
299.288
299.259
299.231
299.202
299.173
299.144
299.116
299.087
299.058
299.029
299.001
298.972
298.943
298.914
298.885
298.857
298.828
298.799
298.77
298.742
298.713
298.684
298.655
298.627
298.598
298.569
298.541
298.512
298.483
298.454
298.426
298.397
298.368
298.339
298.311
298.282
298.253
298.224
298.196
298.167
298.138
298.11
298.081
298.052
298.023
297.995
297.966
297.937
297.909
297.88
297.851
297.822
297.794
297.765
297.736
297.708
297.679
297.65
297.622
297.593
297.564
297.535
297.507
297.478
297.449
297.421
297.392
297.363
297.335
297.306
297.277
297.249
297.22
297.191
297.163
297.134
297.105
297.077
297.048
297.019
296.991
296.962
296.933
296.905
296.876
296.847
296.819
296.79
296.761
296.733
296.704
296.675
296.647
296.618
296.589
296.561
296.532
296.504
296.475
296.446
296.418
296.389
296.36
296.332
296.303
296.274
296.246
296.217
296.189
296.16
296.131
296.103
296.074
296.045
296.017
295.988
295.96
295.931
295.902
295.874
295.845
295.817
295.788
295.759
295.731
295.702
295.674
295.645
295.616
295.588
295.559
295.531
295.502
295.473
295.445
295.416
295.388
295.359
295.33
295.302
295.273
295.245
295.216
295.188
295.159
295.13
295.102
295.073
295.045
295.016
294.987
294.959
294.93
294.902
294.873
294.845
294.816
294.788
294.759
294.73
294.702
294.673
294.645
294.616
294.588
294.559
294.531
294.502
294.474
294.445
294.416
294.388
294.359
294.331
294.302
294.274
294.245
294.217
294.188
294.16
294.131
294.103
294.074
294.046
294.017
293.988
293.96
293.931
293.903
293.874
293.846
293.817
293.789
293.76
293.732
293.703
293.675
293.646
293.618
293.589
293.561
293.532
293.504
293.475
293.447
293.418
293.39
293.361
293.333
293.304
293.276
293.247
293.219
293.191
293.162
293.134
293.105
293.077
293.048
293.02
292.991
292.963
292.934
292.906
292.877
292.849
292.82
292.792
292.763
292.735
292.707
292.678
292.65
292.621
292.593
292.564
292.536
292.507
292.479
292.45
292.422
292.394
292.365
292.337
292.308
292.28
292.251
292.223
292.195
292.166
292.138
292.109
292.081
292.052
292.024
291.996
291.967
291.939
291.91
291.882
291.853
291.825
291.797
291.768
291.74
291.711
291.683
291.655
291.626
291.598
291.569
291.541
291.513
291.484
291.456
291.427
291.399
291.371
291.342
291.314
291.285
291.257
291.229
291.2
291.172
291.144
291.115
291.087
291.058
291.03
291.002
290.973
290.945
290.917
290.888
290.86
290.831
290.803
290.775
290.746
290.718
290.69
290.661
290.633
290.605
290.576
290.548
290.52
290.491
290.463
290.435
290.406
290.378
290.349
290.321
290.293
290.264
290.236
290.208
290.179
290.151
290.123
290.094
290.066
290.038
290.009
289.981
289.953
289.925
289.896
289.868
289.84
289.811
289.783
289.755
289.726
289.698
289.67
289.641
289.613
289.585
289.557
289.528
289.5
289.472
289.443
289.415
289.387
289.358
289.33
289.302
289.274
289.245
289.217
289.189
289.16
289.132
289.104
289.076
289.047
289.019
288.991
288.962
288.934
288.906
288.878
288.849
288.821
288.793
288.765
288.736
288.708
288.68
288.651
288.623
288.595
288.567
288.538
288.511
288.482
288.454
288.425
288.398
288.368
288.342
288.312
288.286
288.255
288.229
288.198
288.173
288.141
288.117
288.084
288.061
288.027
288.005
287.97
287.949
287.914
287.893
287.857
287.837
287.8
287.781
287.744
287.724
287.687
287.668
287.631
287.611
287.575
287.554
287.519
287.497
287.464
287.44
287.408
287.383
287.352
287.326
287.296
287.269
287.24
287.213
287.184
287.156
287.128
287.1
287.071
287.043
287.015
286.987
286.959
286.931
286.902
286.874
286.846
286.818
286.79
286.762
286.733
286.705
286.677
286.649
286.621
286.593
286.564
286.536
286.508
286.48
286.452
286.424
286.396
286.367
286.339
286.311
286.283
286.255
286.227
286.199
286.17
286.142
286.114
286.086
286.058
286.03
286.002
285.974
285.945
285.917
285.889
285.861
285.833
285.805
285.777
285.749
285.721
285.692
285.664
285.636
285.608
285.58
285.552
285.524
285.496
285.468
285.44
285.411
285.383
285.355
285.327
285.299
285.271
285.243
285.215
285.187
285.159
285.131
285.102
285.074
285.046
285.018
284.99
284.962
284.934
284.906
284.878
284.85
284.822
284.794
284.766
284.738
284.709
284.681
284.653
284.625
284.597
284.569
284.541
284.513
284.485
284.457
284.429
284.401
284.373
284.345
284.317
284.289
284.261
284.233
284.205
284.177
284.149
284.121
284.093
284.065
284.036
284.008
283.98
283.952
283.924
283.896
283.868
283.84
283.812
283.784
283.756
283.728
283.7
283.672
283.644
283.616
283.588
283.56
283.532
283.504
283.476
283.448
283.42
283.392
283.364
283.336
283.308
283.28
283.252
283.224
283.196
283.168
283.14
283.112
283.084
283.056
283.028
283.001
282.973
282.945
282.917
282.889
282.861
282.833
282.805
282.777
282.749
282.721
282.693
282.665
282.637
282.609
282.581
282.553
282.525
282.497
282.469
282.441
282.413
282.385
282.358
282.33
282.302
282.274
282.246
282.218
282.19
282.162
282.134
282.106
282.078
282.05
282.022
281.994
281.967
281.939
281.911
281.883
281.855
281.827
281.799
281.771
281.743
281.715
281.687
281.659
281.632
281.604
281.576
281.548
281.52
281.492
281.464
281.436
281.408
281.381
281.353
281.325
281.297
281.269
281.241
281.213
281.185
281.157
281.13
281.102
281.074
281.046
281.018
280.99
280.962
280.934
280.907
280.879
280.851
280.823
280.795
280.767
280.739
280.712
280.684
280.656
280.628
280.6
280.572
280.544
280.517
280.489
280.461
280.433
280.405
280.377
280.35
280.322
280.294
280.266
280.238
280.21
280.183
280.155
280.127
280.099
280.071
280.043
280.016
279.988
279.96
279.932
279.904
279.877
279.849
279.821
279.793
279.765
279.737
279.71
279.682
279.654
279.626
279.598
279.571
279.543
279.515
279.487
279.46
279.432
279.404
279.376
279.348
279.321
279.293
279.265
279.237
279.209
279.182
279.154
279.126
279.098
279.071
279.043
279.015
278.987
278.959
278.932
278.904
278.876
278.848
278.821
278.793
278.765
278.737
278.71
278.682
278.654
278.626
278.599
278.571
278.543
278.515
278.488
278.46
278.432
278.404
278.377
278.349
278.321
278.294
278.266
278.238
278.21
278.183
278.155
278.127
278.099
278.072
278.044
278.016
277.989
277.961
277.933
277.905
277.878
277.85
277.822
277.795
277.767
277.739
277.712
277.684
277.656
277.628
277.601
277.573
277.545
277.518
277.49
277.462
277.435
277.407
277.379
277.352
277.324
277.296
277.268
277.241
277.213
277.185
277.158
277.13
277.102
277.075
277.047
277.019
276.992
276.964
276.936
276.909
276.881
276.853
276.826
276.798
276.771
276.743
276.715
276.688
276.66
276.632
276.605
276.577