/*--------------------------------*- C++ -*----------------------------------*\
  =========                 |
  \\      /  F ield         | OpenFOAM: The Open Source CFD Toolbox
   \\    /   O peration     | Website:  https://openfoam.org
    \\  /    A nd           | Version:  9
     \\/     M anipulation  |
\*---------------------------------------------------------------------------*/
FoamFile
{
    format      ascii;
    class       surfaceScalarField;
    location    "0.029";
    object      phi;
}
// * * * * * * * * * * * * * * * * * * * * * * * * * * * * * * * * * * * * * //

dimensions      [1 0 -1 0 0 0 0];

internalField   nonuniform List<scalar> 
99
(
69.7724
75.4946
81.1565
86.7743
92.3597
97.9176
103.462
109.012
114.54
120.059
125.535
131.005
136.443
141.834
147.23
152.59
157.884
163.177
168.481
173.715
178.874
184.046
189.249
194.397
199.437
204.439
209.505
214.575
219.546
224.43
229.292
234.231
239.142
243.945
248.68
253.374
258.151
262.901
267.56
272.149
276.687
281.235
285.81
290.388
294.958
299.502
303.987
308.437
312.888
317.321
321.764
326.132
330.446
334.827
339.278
343.736
348.157
352.498
356.831
361.297
365.912
370.549
375.105
379.583
384.072
388.681
393.444
398.258
402.993
407.629
412.239
416.904
421.631
426.385
431.127
435.792
440.345
444.822
449.239
453.56
457.775
461.876
465.802
469.495
472.938
476.132
479.088
481.814
484.298
486.505
488.406
490.018
491.379
492.553
493.556
494.387
495.005
495.454
495.753
)
;

boundaryField
{
    sides
    {
        type            calculated;
        value           nonuniform List<scalar> 2(495.955 -64.0203);
    }
    empty
    {
        type            empty;
        value           nonuniform List<scalar> 0();
    }
}


// ************************************************************************* //
