/*--------------------------------*- C++ -*----------------------------------*\
  =========                 |
  \\      /  F ield         | OpenFOAM: The Open Source CFD Toolbox
   \\    /   O peration     | Website:  https://openfoam.org
    \\  /    A nd           | Version:  9
     \\/     M anipulation  |
\*---------------------------------------------------------------------------*/
FoamFile
{
    format      ascii;
    class       volScalarField;
    location    "0.041";
    object      p;
}
// * * * * * * * * * * * * * * * * * * * * * * * * * * * * * * * * * * * * * //

dimensions      [1 -1 -2 0 0 0 0];

internalField   nonuniform List<scalar> 
100
(
15669.8
15648.2
15595.2
15542.7
15502.4
15465.9
15429.3
15393.1
15358.1
15324.2
15291.4
15259.9
15229.6
15200.8
15173.3
15147.4
15123
15100
15079.2
15059.5
15042.1
15026.6
15012.4
15000.2
14990
14981.6
14975.1
14970.9
14967.7
14967.6
14967.7
14968.2
14969.5
14972.7
14979.9
14994.3
15020.8
15053.5
15091.3
15131.2
15173.9
15219.6
15268.3
15320.6
15376.4
15435.8
15499
15565.7
15635.4
15708.4
15784.4
15863.1
15944.1
16027.4
16112.8
16200.1
16289
16379.7
16472
16565.9
16661.3
16758.3
16856.6
16956.5
17057.8
17160.8
17265.3
17371.2
17477.9
17586.1
17695
17805.7
17916.2
18028.8
18140.4
18253.9
18365.3
18479.7
18592.4
18707.1
18820.1
18935.1
19048.9
19165.8
19281.6
19401.7
19523.1
19651
19781.7
19921.1
20065.8
20221.2
20381.3
20550.8
20722.5
20898.1
21069.6
21240.5
21402.4
21564
)
;

boundaryField
{
    sides
    {
        type            zeroGradient;
    }
    empty
    {
        type            empty;
    }
}


// ************************************************************************* //
