/*--------------------------------*- C++ -*----------------------------------*\
  =========                 |
  \\      /  F ield         | OpenFOAM: The Open Source CFD Toolbox
   \\    /   O peration     | Website:  https://openfoam.org
    \\  /    A nd           | Version:  9
     \\/     M anipulation  |
\*---------------------------------------------------------------------------*/
FoamFile
{
    format      ascii;
    class       surfaceScalarField;
    location    "0.031";
    object      phi;
}
// * * * * * * * * * * * * * * * * * * * * * * * * * * * * * * * * * * * * * //

dimensions      [1 0 -1 0 0 0 0];

internalField   nonuniform List<scalar> 
999
(
18.1902
18.68
19.1697
19.6593
20.1487
20.638
21.1272
21.6163
22.1052
22.594
23.0827
23.5713
24.0598
24.5482
25.0365
25.5246
26.0126
26.5005
26.9883
27.4762
27.9641
28.452
28.94
29.4279
29.9158
30.4037
30.8915
31.3792
31.8669
32.3544
32.8419
33.3292
33.8165
34.3037
34.7907
35.2777
35.7646
36.2513
36.738
37.2246
37.711
38.1974
38.6837
39.1699
39.6559
40.1419
40.6278
41.1135
41.5992
42.0847
42.5702
43.0556
43.5408
44.026
44.511
44.996
45.4808
45.9656
46.4502
46.9348
47.4192
47.9035
48.3878
48.8719
49.3559
49.8398
50.3237
50.8074
51.291
51.7745
52.2579
52.7411
53.2243
53.7074
54.1904
54.6732
55.1561
55.6386
56.1213
56.6037
57.086
57.5683
58.0504
58.5324
59.0143
59.4961
59.9777
60.4595
60.9407
61.4223
61.9034
62.3846
62.8657
63.3464
63.8275
64.308
64.7887
65.2693
65.7494
66.23
66.71
67.1898
67.6702
68.1497
68.6293
69.1094
69.5884
70.0679
70.5476
71.0262
71.5053
71.9847
72.463
72.9418
73.4209
73.8988
74.3771
74.856
75.3336
75.8114
76.29
76.7674
77.2446
77.723
78.2003
78.6769
79.1547
79.6321
80.1082
80.5854
81.0628
81.5387
82.0148
82.4922
82.9683
83.4437
83.9203
84.3966
84.8715
85.3473
85.8238
86.2988
86.7735
87.2494
87.7247
88.1989
88.674
89.1495
89.6237
90.0976
90.5727
91.0473
91.5206
91.9945
92.4694
92.943
93.4156
93.8896
94.364
94.8366
95.3088
95.7827
96.2565
96.7283
97.2002
97.6739
98.147
98.6182
99.0898
99.5631
100.036
100.506
100.977
101.45
101.922
102.392
102.862
103.335
103.806
104.275
104.746
105.217
105.688
106.157
106.627
107.098
107.569
108.037
108.506
108.977
109.448
109.915
110.383
110.854
111.325
111.792
112.259
112.729
113.199
113.667
114.133
114.601
115.071
115.539
116.005
116.472
116.941
117.409
117.875
118.34
118.808
119.277
119.743
120.207
120.674
121.142
121.609
122.073
122.538
123.005
123.472
123.937
124.401
124.866
125.333
125.799
126.263
126.726
127.191
127.657
128.122
128.585
129.048
129.513
129.979
130.442
130.904
131.367
131.833
132.297
132.759
133.22
133.683
134.148
134.612
135.073
135.534
135.996
136.46
136.923
137.384
137.844
138.306
138.769
139.23
139.69
140.15
140.612
141.074
141.535
141.994
142.453
142.914
143.375
143.836
144.295
144.753
145.213
145.673
146.132
146.59
147.048
147.507
147.967
148.426
148.883
149.339
149.796
150.254
150.712
151.17
151.628
152.085
152.543
152.999
153.454
153.907
154.36
154.816
155.275
155.734
156.191
156.647
157.101
157.553
158.005
158.455
158.904
159.356
159.812
160.271
160.731
161.188
161.642
162.095
162.545
162.993
163.439
163.884
164.328
164.774
165.224
165.676
166.133
166.591
167.05
167.508
167.964
168.418
168.869
169.317
169.763
170.207
170.649
171.089
171.527
171.963
172.399
172.833
173.266
173.699
174.132
174.564
174.997
175.43
175.863
176.296
176.728
177.159
177.588
178.014
178.44
178.855
179.266
179.675
180.079
180.479
180.88
181.279
181.677
182.077
182.476
182.875
183.275
183.676
184.079
184.484
184.892
185.3
185.711
186.124
186.538
186.954
187.372
187.791
188.211
188.632
189.054
189.476
189.899
190.322
190.746
191.171
191.595
192.02
192.445
192.871
193.296
193.723
194.149
194.576
195.003
195.431
195.857
196.284
196.712
197.139
197.566
197.994
198.424
198.856
199.29
199.726
200.164
200.603
201.04
201.475
201.906
202.332
202.749
203.159
203.563
203.961
204.355
204.745
205.133
205.52
205.906
206.292
206.68
207.067
207.457
207.847
208.24
208.634
209.03
209.429
209.828
210.232
210.636
211.042
211.45
211.86
212.273
212.69
213.113
213.541
213.979
214.424
214.865
215.297
215.716
216.122
216.514
216.895
217.267
217.632
217.994
218.355
218.717
219.079
219.443
219.811
220.189
220.57
220.958
221.359
221.772
222.198
222.638
223.087
223.529
223.96
224.368
224.759
225.133
225.493
225.843
226.188
226.533
226.877
227.221
227.574
227.933
228.292
228.645
228.992
229.339
229.69
230.047
230.4
230.75
231.113
231.485
231.857
232.234
232.621
233.018
233.427
233.863
234.319
234.776
235.226
235.666
236.091
236.499
236.888
237.263
237.63
237.994
238.356
238.713
239.077
239.45
239.831
240.23
240.646
241.071
241.495
241.914
242.32
242.716
243.1
243.468
243.823
244.18
244.541
244.905
245.28
245.672
246.089
246.521
246.951
247.368
247.777
248.176
248.558
248.934
249.305
249.666
250.028
250.396
250.778
251.176
251.591
252.029
252.474
252.905
253.314
253.711
254.106
254.491
254.86
255.222
255.579
255.931
256.29
256.657
257.03
257.421
257.83
258.264
258.718
259.165
259.592
260.014
260.433
260.84
261.232
261.62
262.016
262.417
262.83
263.256
263.684
264.1
264.518
264.957
265.415
265.892
266.385
266.88
267.363
267.837
268.28
268.709
269.121
269.495
269.863
270.235
270.609
271.001
271.428
271.878
272.336
272.81
273.286
273.754
274.205
274.638
275.043
275.418
275.795
276.182
276.576
276.98
277.386
277.793
278.218
278.662
279.125
279.615
280.125
280.643
281.162
281.68
282.191
282.689
283.158
283.603
284.018
284.415
284.802
285.19
285.585
286.001
286.439
286.894
287.369
287.861
288.352
288.85
289.357
289.847
290.323
290.782
291.199
291.603
291.982
292.381
292.81
293.249
293.714
294.232
294.75
295.227
295.658
296.07
296.487
296.909
297.324
297.738
298.159
298.591
299.046
299.532
300.043
300.561
301.052
301.554
302.067
302.597
303.094
303.589
304.082
304.603
305.119
305.65
306.17
306.652
307.063
307.495
307.897
308.341
308.822
309.344
309.871
310.389
310.891
311.397
311.892
312.389
312.883
313.379
313.874
314.357
314.874
315.392
315.902
316.395
316.909
317.464
318.035
318.581
319.11
319.634
320.145
320.627
321.054
321.47
321.82
322.224
322.703
323.285
323.918
324.516
325.1
325.669
326.218
326.728
327.233
327.764
328.235
328.792
329.463
329.953
330.362
330.652
330.726
330.73
330.753
330.359
331.355
330.048
327.394
333.451
335.741
336.393
337.008
337.599
338.063
338.531
338.772
339.154
339.481
339.71
339.938
339.766
337.533
341.507
345.007
345.686
346.076
346.568
347.069
347.484
347.91
348.482
349.111
349.665
350.199
350.687
351.12
351.649
352.214
352.681
353.137
353.653
354.14
354.606
355.028
355.473
355.902
356.414
356.992
357.5
357.99
358.476
359.01
359.488
359.998
360.556
361.014
361.404
361.731
362.254
362.747
363.232
363.69
364.11
364.499
365.053
365.501
365.88
366.431
366.72
366.758
366.95
367.302
367.503
367.073
366.67
366.619
366.122
364.771
362.069
366.926
368.832
368.065
366.296
364.549
372.487
373.1
372.919
372.625
370.784
368.046
376.818
379.347
380.109
380.663
381.078
381.247
381.672
382.058
381.902
381.609
381.517
380.906
378.858
377.91
384.815
385.42
385.449
384.738
381.952
383.549
391.111
391.205
390.379
389.214
388.118
387.274
386.121
386.66
385.687
383.96
387.981
393.55
394.457
394.848
394.475
393.308
391.105
388.602
396.704
397.215
396.44
394.498
391.65
399.166
400.029
399.274
397.493
394.123
400.968
402.961
402.589
401.557
399.265
396.583
405.218
406.109
405.301
403.802
399.654
403.158
408.822
408.471
407.552
406.51
404.582
401.733
412.84
414.912
415.64
416.125
416.031
415.221
414.184
413.406
412.561
410.823
408.486
417.994
418.927
418.625
417.764
416.661
414.991
412.245
421.209
422.642
422.425
421.622
420.52
418.924
416.113
424.67
426.331
426.252
425.481
424.17
420.908
424.023
429.272
429.414
428.697
426.822
424.462
430.985
431.433
430.802
428.539
428.324
433.854
434.034
432.963
430.25
432.705
437.08
437.051
436.694
434.778
432.52
439.441
440.164
440.108
439.39
437.264
436.614
442.622
443.224
443.356
442.688
441.23
438.935
444.89
446.106
446.355
446.234
445.684
443.552
443.611
448.929
449.345
449.491
449.381
448.451
446.172
450.105
452.164
452.29
452.1
451.474
449.445
452.977
453.996
453.968
453.747
452.279
453.902
456.82
457.042
456.782
455.605
454.912
458.889
459.34
459.609
459.146
457.563
458.544
461.718
462.058
462.168
461.894
460.43
460.058
464.495
464.785
464.922
464.862
464.072
462.529
465.947
467.115
467.068
467.127
466.629
465.335
467.417
469.283
469.369
469.373
468.952
467.912
470.498
471.519
471.683
471.59
471.374
470.267
472.653
473.761
474.116
474.163
474.208
472.949
473.711
475.507
475.785
476.43
477.104
476.081
476.393
477.833
478.544
478.961
)
;

boundaryField
{
    sides
    {
        type            calculated;
        value           nonuniform List<scalar> 2(478.679 -17.7001);
    }
    empty
    {
        type            empty;
        value           nonuniform List<scalar> 0();
    }
}


// ************************************************************************* //
