/*--------------------------------*- C++ -*----------------------------------*\
  =========                 |
  \\      /  F ield         | OpenFOAM: The Open Source CFD Toolbox
   \\    /   O peration     | Website:  https://openfoam.org
    \\  /    A nd           | Version:  9
     \\/     M anipulation  |
\*---------------------------------------------------------------------------*/
FoamFile
{
    format      ascii;
    class       volScalarField;
    location    "0.039";
    object      rho;
}
// * * * * * * * * * * * * * * * * * * * * * * * * * * * * * * * * * * * * * //

dimensions      [1 -3 0 0 0 0 0];

internalField   nonuniform List<scalar> 
10000
(
0.574833
0.574774
0.574739
0.574701
0.574664
0.574626
0.574588
0.574551
0.574513
0.574476
0.574438
0.574401
0.574363
0.574326
0.574288
0.574251
0.574213
0.574175
0.574138
0.5741
0.574063
0.574025
0.573988
0.57395
0.573913
0.573875
0.573837
0.5738
0.573762
0.573725
0.573687
0.573649
0.573612
0.573574
0.573536
0.573499
0.573461
0.573424
0.573386
0.573349
0.573311
0.573274
0.573236
0.573199
0.573161
0.573124
0.573086
0.573049
0.573011
0.572974
0.572936
0.572899
0.572861
0.572824
0.572786
0.572749
0.572711
0.572673
0.572636
0.572598
0.572561
0.572524
0.572486
0.572449
0.572411
0.572374
0.572337
0.572299
0.572262
0.572224
0.572187
0.57215
0.572112
0.572075
0.572037
0.571999
0.571962
0.571924
0.571887
0.57185
0.571812
0.571775
0.571738
0.5717
0.571662
0.571625
0.571588
0.57155
0.571513
0.571476
0.571439
0.571401
0.571364
0.571327
0.571289
0.571252
0.571214
0.571177
0.57114
0.571102
0.571065
0.571027
0.57099
0.570952
0.570915
0.570878
0.570841
0.570804
0.570766
0.570728
0.570691
0.570653
0.570616
0.570579
0.570542
0.570505
0.570467
0.57043
0.570392
0.570355
0.570318
0.570281
0.570244
0.570206
0.570168
0.570131
0.570094
0.570056
0.570019
0.569982
0.569945
0.569907
0.56987
0.569833
0.569796
0.569758
0.569721
0.569683
0.569646
0.569608
0.569572
0.569535
0.569497
0.569459
0.569421
0.569383
0.569347
0.569313
0.569277
0.569238
0.569198
0.569158
0.56912
0.569083
0.569049
0.569016
0.568979
0.56894
0.5689
0.56886
0.568822
0.568787
0.568752
0.568717
0.568679
0.56864
0.568601
0.568563
0.568526
0.568491
0.568455
0.568419
0.568381
0.568343
0.568303
0.568264
0.568226
0.568192
0.568164
0.568129
0.568088
0.568045
0.568003
0.567961
0.567922
0.567892
0.567869
0.567834
0.567791
0.567747
0.567704
0.567662
0.567622
0.567589
0.567565
0.567532
0.567491
0.567448
0.567406
0.567366
0.56733
0.5673
0.567268
0.567229
0.567188
0.567147
0.567108
0.567076
0.56705
0.567014
0.566972
0.566928
0.566885
0.566844
0.566806
0.566781
0.566759
0.566719
0.566675
0.566631
0.566587
0.566545
0.566507
0.566481
0.566461
0.566422
0.566378
0.566334
0.56629
0.566248
0.566213
0.566195
0.566166
0.566123
0.566078
0.566034
0.565991
0.56595
0.565922
0.565903
0.565867
0.565822
0.565777
0.565733
0.56569
0.565651
0.565628
0.565608
0.565569
0.565524
0.565479
0.565435
0.565391
0.565351
0.565322
0.565308
0.565275
0.565231
0.565186
0.56514
0.565096
0.565054
0.565017
0.564999
0.56498
0.56494
0.564895
0.564849
0.564804
0.564759
0.564716
0.564677
0.564647
0.564645
0.564622
0.564579
0.564532
0.564485
0.564441
0.564398
0.564357
0.564327
0.564309
0.564273
0.564229
0.564184
0.56414
0.564097
0.564058
0.564031
0.56401
0.56397
0.563926
0.563882
0.56384
0.563801
0.563775
0.563751
0.563711
0.563666
0.563622
0.563578
0.563536
0.563498
0.563477
0.563458
0.563418
0.563374
0.563329
0.563285
0.563242
0.563203
0.563174
0.563151
0.563115
0.563075
0.563037
0.563006
0.562978
0.562938
0.562895
0.56285
0.562807
0.562764
0.562723
0.562693
0.562678
0.562644
0.562601
0.562555
0.562511
0.562467
0.562426
0.562391
0.562375
0.56235
0.562308
0.562263
0.562218
0.562175
0.562134
0.562101
0.562082
0.562049
0.562006
0.561962
0.561919
0.561877
0.56184
0.561818
0.56179
0.561748
0.561704
0.56166
0.561616
0.561576
0.561542
0.561528
0.561502
0.56146
0.561415
0.561369
0.561326
0.561284
0.561247
0.561227
0.561206
0.561165
0.561121
0.561077
0.561033
0.560992
0.560956
0.560935
0.560903
0.56086
0.560817
0.560773
0.560732
0.560698
0.560676
0.560643
0.5606
0.560556
0.560511
0.560466
0.560423
0.560382
0.560347
0.560336
0.560337
0.560303
0.560258
0.560209
0.560159
0.560114
0.560071
0.560028
0.559988
0.559957
0.559942
0.559912
0.559869
0.559825
0.559781
0.559738
0.559697
0.559665
0.559647
0.559615
0.559572
0.559528
0.559485
0.559444
0.559411
0.559393
0.55936
0.559317
0.559273
0.55923
0.559187
0.559149
0.559123
0.559101
0.559061
0.559018
0.558974
0.55893
0.558887
0.558848
0.558819
0.558804
0.558769
0.558726
0.558681
0.558637
0.558594
0.558553
0.558517
0.558498
0.55847
0.558428
0.558384
0.55834
0.558297
0.558255
0.558218
0.558203
0.558202
0.558168
0.558123
0.558073
0.558022
0.557978
0.557935
0.557895
0.557867
0.557848
0.557812
0.557769
0.557725
0.557682
0.55764
0.557602
0.557577
0.557556
0.557517
0.557473
0.55743
0.557387
0.557345
0.55731
0.557289
0.55726
0.557218
0.557175
0.557132
0.557089
0.55705
0.55702
0.557003
0.556969
0.556926
0.556882
0.556838
0.556796
0.556756
0.556726
0.556712
0.55668
0.556637
0.556592
0.556548
0.556505
0.556464
0.556427
0.556406
0.556381
0.55634
0.556296
0.556251
0.556208
0.556165
0.556125
0.556093
0.556084
0.556061
0.556019
0.555973
0.555922
0.555872
0.555828
0.555785
0.555746
0.555715
0.555717
0.555721
0.555685
0.55564
0.555588
0.555528
0.55548
0.555436
0.555394
0.555354
0.555324
0.555314
0.555286
0.555244
0.555199
0.555154
0.555111
0.555069
0.555033
0.555016
0.555006
0.55497
0.554926
0.554877
0.554828
0.554784
0.554742
0.554703
0.554675
0.554663
0.55463
0.554588
0.554543
0.5545
0.554457
0.554417
0.554383
0.554363
0.554331
0.554289
0.554245
0.554203
0.55416
0.554121
0.554091
0.554069
0.554033
0.55399
0.553945
0.553899
0.553855
0.553813
0.553771
0.553736
0.553721
0.553734
0.553713
0.55367
0.553622
0.553563
0.553509
0.553465
0.553422
0.553382
0.553348
0.553338
0.553322
0.553283
0.553238
0.553192
0.553149
0.553106
0.553066
0.553034
0.553011
0.552975
0.552933
0.55289
0.552847
0.552807
0.552771
0.552752
0.552726
0.552686
0.552643
0.5526
0.552557
0.552517
0.552482
0.552463
0.552434
0.552393
0.55235
0.552307
0.552264
0.552223
0.552188
0.552166
0.552137
0.552095
0.552052
0.552008
0.551965
0.551922
0.551882
0.551847
0.551836
0.551841
0.55181
0.551766
0.551717
0.551666
0.551621
0.551579
0.551538
0.551503
0.551478
0.551442
0.5514
0.551357
0.551315
0.551276
0.551244
0.551231
0.551204
0.551163
0.551119
0.551076
0.551033
0.550992
0.550955
0.550932
0.550906
0.550866
0.550823
0.550781
0.550739
0.550698
0.550662
0.550634
0.5506
0.550561
0.550521
0.550483
0.550454
0.550431
0.550393
0.550351
0.550308
0.550266
0.550224
0.550186
0.550159
0.550135
0.550096
0.550054
0.55001
0.549966
0.549923
0.549881
0.549841
0.549809
0.549806
0.549809
0.549775
0.549731
0.549681
0.549623
0.549576
0.549533
0.549492
0.549454
0.54943
0.549418
0.549383
0.549341
0.549297
0.549254
0.549212
0.549172
0.549138
0.54911
0.549072
0.549029
0.548987
0.548943
0.5489
0.548858
0.548819
0.548785
0.548778
0.54879
0.548762
0.548719
0.54867
0.548608
0.548552
0.548508
0.548466
0.548426
0.548393
0.548388
0.548401
0.548373
0.54833
0.548281
0.54822
0.548165
0.548121
0.548079
0.548039
0.548004
0.547988
0.547972
0.547933
0.547891
0.547845
0.547802
0.54776
0.547719
0.547683
0.547663
0.547644
0.547605
0.547562
0.547519
0.547477
0.547436
0.547397
0.547369
0.547353
0.547319
0.547277
0.547234
0.547189
0.547146
0.547103
0.547062
0.547022
0.546989
0.546981
0.546971
0.546933
0.54689
0.546842
0.546796
0.546753
0.546711
0.54667
0.546631
0.5466
0.54659
0.546565
0.546524
0.546481
0.546437
0.546395
0.546353
0.546313
0.546276
0.546238
0.546196
0.546155
0.546113
0.546071
0.546033
0.546004
0.546008
0.546018
0.545987
0.545944
0.545894
0.545831
0.545777
0.545733
0.545691
0.545651
0.545618
0.545608
0.545598
0.54556
0.545517
0.54547
0.545426
0.545384
0.545343
0.545305
0.545278
0.545249
0.54521
0.545168
0.545126
0.545086
0.54505
0.545027
0.545001
0.54496
0.544918
0.544874
0.544829
0.544787
0.544745
0.544706
0.544674
0.544668
0.544674
0.544643
0.5446
0.544551
0.544491
0.54444
0.544397
0.544355
0.544317
0.544285
0.54428
0.544264
0.544224
0.544181
0.544134
0.544089
0.544047
0.544005
0.543964
0.543924
0.543888
0.543855
0.543821
0.543787
0.543759
0.543742
0.543711
0.54367
0.543628
0.543584
0.54354
0.543498
0.543457
0.543421
0.543396
0.543398
0.543377
0.543335
0.54329
0.543239
0.543193
0.543151
0.543111
0.543074
0.54305
0.543025
0.542986
0.542944
0.5429
0.542856
0.542813
0.542772
0.542731
0.542696
0.542676
0.542679
0.542652
0.54261
0.542564
0.542513
0.542467
0.542425
0.542384
0.542346
0.542316
0.542305
0.542276
0.542235
0.542193
0.54215
0.542109
0.542068
0.54203
0.542002
0.541977
0.541938
0.541897
0.541856
0.541816
0.541779
0.541753
0.541725
0.541685
0.541644
0.541602
0.541562
0.541525
0.541501
0.541477
0.541439
0.541397
0.541356
0.541314
0.541274
0.541237
0.54121
0.541179
0.541139
0.541098
0.541056
0.541015
0.540974
0.540938
0.540914
0.540921
0.540907
0.540867
0.540823
0.540767
0.540704
0.540656
0.540614
0.540574
0.540537
0.540512
0.540515
0.540496
0.540456
0.540411
0.54036
0.540314
0.540272
0.540231
0.540195
0.540171
0.540157
0.540123
0.540081
0.540039
0.539997
0.539956
0.539916
0.53988
0.539856
0.539827
0.539787
0.539745
0.539703
0.539661
0.53962
0.539581
0.539547
0.539533
0.539535
0.539503
0.539461
0.539414
0.539359
0.539313
0.539271
0.539231
0.539193
0.539168
0.539154
0.53912
0.539079
0.539036
0.538994
0.538953
0.538913
0.538877
0.538853
0.538836
0.5388
0.538759
0.538716
0.538672
0.53863
0.538589
0.538548
0.538508
0.538474
0.538456
0.538452
0.538419
0.538378
0.538334
0.538288
0.538246
0.538205
0.538164
0.538125
0.538092
0.538071
0.538042
0.538002
0.537961
0.537919
0.537879
0.537839
0.537803
0.537776
0.537743
0.537703
0.537661
0.53762
0.537579
0.537538
0.5375
0.537468
0.537462
0.537478
0.537456
0.537415
0.53737
0.537313
0.537249
0.537202
0.53716
0.537119
0.537078
0.537038
0.536999
0.536967
0.536959
0.536964
0.536933
0.536891
0.536845
0.536792
0.536746
0.536705
0.536664
0.536626
0.536593
0.536577
0.536552
0.536513
0.536471
0.536428
0.536385
0.536344
0.536303
0.536264
0.536232
0.536218
0.536198
0.53616
0.536118
0.536073
0.536021
0.535975
0.535933
0.535893
0.535852
0.535815
0.535784
0.535782
0.535803
0.53578
0.53574
0.535694
0.535638
0.535576
0.535529
0.535488
0.535448
0.53541
0.535381
0.535374
0.535351
0.535312
0.535269
0.535225
0.535183
0.535143
0.535103
0.535068
0.535047
0.535024
0.534986
0.534945
0.534904
0.534864
0.534824
0.534787
0.534758
0.534724
0.534684
0.534643
0.534601
0.534557
0.534514
0.534473
0.534433
0.534392
0.534356
0.534328
0.534333
0.534355
0.534332
0.534291
0.534246
0.534188
0.53412
0.53407
0.534029
0.533988
0.533949
0.533916
0.533901
0.533895
0.533862
0.53382
0.533776
0.53373
0.533689
0.533649
0.53361
0.533577
0.53356
0.533532
0.533493
0.533452
0.53341
0.533367
0.533326
0.533286
0.533245
0.533205
0.533164
0.533125
0.533088
0.533061
0.533064
0.533061
0.533025
0.532984
0.532939
0.532891
0.532848
0.532807
0.532767
0.532727
0.532689
0.532657
0.532627
0.53259
0.53255
0.532511
0.532474
0.532445
0.53242
0.532383
0.532342
0.532302
0.53226
0.532219
0.532179
0.532139
0.532103
0.532075
0.532077
0.532065
0.532027
0.531985
0.531936
0.531886
0.531844
0.531803
0.531765
0.531732
0.531722
0.531714
0.531678
0.531637
0.531591
0.531545
0.531503
0.531463
0.531424
0.53139
0.531362
0.531326
0.531286
0.531245
0.531203
0.531162
0.531121
0.531081
0.531043
0.531009
0.530997
0.530999
0.530969
0.530928
0.530883
0.530832
0.530786
0.530745
0.530705
0.530667
0.530635
0.530615
0.530585
0.530545
0.530505
0.530464
0.530424
0.530384
0.530345
0.530311
0.530294
0.530275
0.530238
0.530197
0.530156
0.530116
0.530077
0.530039
0.530011
0.529996
0.529967
0.529927
0.529886
0.529841
0.529794
0.529753
0.529713
0.529674
0.529641
0.529627
0.529629
0.529599
0.529559
0.529515
0.529466
0.529421
0.529381
0.529341
0.529301
0.529264
0.529226
0.529186
0.529146
0.529106
0.529066
0.529027
0.528992
0.528969
0.528977
0.528968
0.528931
0.528889
0.528839
0.528779
0.52873
0.528689
0.52865
0.528612
0.528581
0.528575
0.528577
0.528545
0.528504
0.528458
0.528401
0.528347
0.528304
0.528264
0.528225
0.528187
0.528154
0.528142
0.528145
0.528115
0.528075
0.528031
0.527982
0.527938
0.527897
0.527858
0.52782
0.52779
0.527765
0.527729
0.52769
0.527649
0.527607
0.527566
0.527526
0.527486
0.527448
0.527416
0.527406
0.527412
0.527384
0.527344
0.5273
0.527247
0.527199
0.527158
0.527118
0.52708
0.527046
0.527027
0.527003
0.526965
0.526925
0.526884
0.526844
0.526804
0.526764
0.526725
0.526688
0.526652
0.526614
0.526575
0.526536
0.526498
0.526464
0.526444
0.526456
0.526442
0.526404
0.526362
0.526312
0.52625
0.526201
0.52616
0.52612
0.526082
0.526049
0.526036
0.526039
0.526011
0.52597
0.525927
0.525878
0.525834
0.525794
0.525755
0.525717
0.525683
0.525653
0.525617
0.525577
0.525537
0.525497
0.525457
0.525417
0.525378
0.525338
0.525299
0.525261
0.525229
0.525217
0.525237
0.525225
0.525187
0.525145
0.525097
0.525034
0.524978
0.524935
0.524896
0.524856
0.52482
0.524792
0.524793
0.524787
0.524751
0.52471
0.524663
0.524603
0.524546
0.524503
0.524463
0.524424
0.524384
0.524345
0.524309
0.52428
0.52428
0.524311
0.524297
0.524259
0.524217
0.524167
0.524095
0.524024
0.523977
0.523937
0.523898
0.523859
0.523824
0.523799
0.523808
0.523815
0.523784
0.523743
0.523698
0.523641
0.523586
0.523544
0.523504
0.523465
0.523429
0.5234
0.523379
0.523346
0.523306
0.523267
0.523227
0.523187
0.523148
0.52311
0.523078
0.523066
0.523073
0.523047
0.523007
0.522964
0.52291
0.522848
0.522803
0.522763
0.522724
0.522687
0.522658
0.522654
0.522653
0.522621
0.52258
0.522536
0.522482
0.522431
0.522389
0.52235
0.522311
0.522271
0.522232
0.522193
0.522154
0.522119
0.522095
0.522105
0.522119
0.522091
0.522051
0.522008
0.521953
0.521879
0.521821
0.521779
0.521739
0.5217
0.521662
0.521627
0.521605
0.521616
0.521616
0.521581
0.521541
0.521495
0.521436
0.52138
0.521337
0.521298
0.521259
0.521223
0.521196
0.521198
0.521199
0.521167
0.521127
0.521083
0.521033
0.520988
0.520948
0.520909
0.52087
0.520831
0.520793
0.520753
0.520714
0.520675
0.520635
0.520596
0.520557
0.52052
0.520486
0.520469
0.520482
0.520469
0.520431
0.52039
0.520343
0.520288
0.520242
0.520202
0.520164
0.520126
0.520093
0.520075
0.520053
0.520016
0.519977
0.519938
0.519898
0.51986
0.519823
0.519791
0.519771
0.519742
0.519704
0.519664
0.519623
0.519578
0.51953
0.519489
0.51945
0.519411
0.519372
0.519336
0.519305
0.519298
0.519318
0.519299
0.519261
0.519219
0.51917
0.519103
0.519046
0.519004
0.518964
0.518926
0.518888
0.518856
0.518843
0.518857
0.518838
0.5188
0.518758
0.51871
0.518658
0.518615
0.518576
0.518537
0.518501
0.51847
0.518443
0.518407
0.518368
0.518329
0.518288
0.518247
0.518207
0.518169
0.518131
0.518098
0.518082
0.518089
0.518067
0.518028
0.517986
0.517936
0.517878
0.517832
0.517793
0.517754
0.517717
0.517687
0.51768
0.517686
0.517658
0.517618
0.517576
0.517524
0.517466
0.517422
0.517382
0.517343
0.517305
0.517266
0.517227
0.517188
0.517151
0.517117
0.517095
0.517108
0.517117
0.517087
0.517047
0.517004
0.51695
0.516885
0.516838
0.516798
0.516759
0.516721
0.516687
0.516662
0.516663
0.516644
0.516606
0.516566
0.516523
0.51648
0.51644
0.516402
0.516364
0.51633
0.516305
0.516274
0.516237
0.516198
0.516159
0.51612
0.516079
0.516038
0.515999
0.51596
0.515921
0.515883
0.515844
0.515805
0.515767
0.515731
0.515701
0.515694
0.515725
0.515722
0.515687
0.515647
0.515603
0.515544
0.515472
0.515421
0.515381
0.515342
0.515304
0.515265
0.515226
0.515188
0.515149
0.515111
0.515073
0.515038
0.515013
0.51502
0.515035
0.515009
0.51497
0.514928
0.514877
0.514813
0.514765
0.514725
0.514687
0.514649
0.514617
0.514599
0.51461
0.514593
0.514555
0.514514
0.514466
0.514401
0.514345
0.514304
0.514265
0.514227
0.514192
0.514166
0.51417
0.514171
0.514138
0.514099
0.514056
0.514007
0.513962
0.513923
0.513884
0.513847
0.513812
0.51378
0.513745
0.513707
0.513668
0.513629
0.513586
0.513542
0.513502
0.513463
0.513425
0.513387
0.513351
0.513323
0.513322
0.513341
0.513319
0.513282
0.513241
0.513193
0.513136
0.513089
0.51305
0.513012
0.512974
0.512941
0.512922
0.512912
0.51288
0.512842
0.512801
0.512754
0.512695
0.512646
0.512606
0.512568
0.51253
0.512493
0.51246
0.51244
0.51246
0.512479
0.512453
0.512415
0.512374
0.512325
0.51226
0.512208
0.512167
0.512129
0.512091
0.512053
0.512016
0.511983
0.511958
0.511929
0.511893
0.511857
0.511823
0.511793
0.511765
0.511729
0.511691
0.511653
0.511613
0.511571
0.511524
0.511483
0.511444
0.511406
0.511369
0.511335
0.511311
0.511321
0.511326
0.511295
0.511256
0.511215
0.511164
0.511109
0.511066
0.511028
0.510989
0.510952
0.510915
0.51088
0.510849
0.510813
0.510776
0.510738
0.510701
0.510666
0.510637
0.510628
0.510608
0.510572
0.510533
0.510493
0.510452
0.510413
0.510375
0.510338
0.510304
0.510279
0.510258
0.510223
0.510185
0.510146
0.510105
0.51006
0.510021
0.509983
0.509945
0.509911
0.509886
0.509888
0.509874
0.509838
0.509799
0.509756
0.509712
0.509672
0.509634
0.509597
0.509564
0.509541
0.509515
0.509479
0.509441
0.509401
0.509358
0.509311
0.509271
0.509233
0.509196
0.509162
0.509139
0.509139
0.509119
0.509082
0.509042
0.508997
0.508945
0.508901
0.508862
0.508824
0.508788
0.508757
0.508743
0.508745
0.508717
0.508679
0.508639
0.508593
0.508543
0.508501
0.508463
0.508425
0.508388
0.508354
0.508327
0.508313
0.508284
0.508247
0.508209
0.508169
0.508127
0.508082
0.508042
0.508004
0.507966
0.507928
0.507891
0.507853
0.507818
0.50779
0.507787
0.507789
0.507759
0.507721
0.50768
0.507631
0.507576
0.507533
0.507495
0.507458
0.507421
0.50739
0.507375
0.507381
0.507357
0.507319
0.507279
0.507233
0.507174
0.507125
0.507086
0.507048
0.50701
0.506975
0.506947
0.506943
0.506938
0.506905
0.506867
0.506826
0.50678
0.506737
0.506699
0.506661
0.506625
0.506591
0.506563
0.50653
0.506493
0.506455
0.506417
0.506375
0.50633
0.506289
0.506251
0.506213
0.506176
0.506141
0.506114
0.506113
0.506139
0.506124
0.506088
0.506049
0.506006
0.505948
0.505885
0.50584
0.505801
0.505764
0.505726
0.505689
0.505656
0.50563
0.505627
0.505607
0.505571
0.505533
0.505491
0.505441
0.505387
0.505345
0.505307
0.50527
0.505232
0.505195
0.505158
0.505124
0.505097
0.505098
0.505103
0.505074
0.505036
0.504996
0.504948
0.504893
0.50485
0.504812
0.504775
0.504739
0.504707
0.504691
0.504701
0.504683
0.504647
0.504609
0.504566
0.504513
0.504456
0.504414
0.504376
0.504338
0.504301
0.504263
0.504226
0.504189
0.504151
0.504114
0.504076
0.504039
0.504004
0.503973
0.50396
0.503972
0.503954
0.503918
0.503879
0.503837
0.503787
0.503743
0.503705
0.503668
0.503632
0.503599
0.50358
0.503584
0.503562
0.503525
0.503487
0.503445
0.503392
0.503339
0.503299
0.503261
0.503223
0.503186
0.503148
0.503111
0.503074
0.503036
0.502999
0.502962
0.502925
0.50289
0.50286
0.502848
0.502857
0.502834
0.502797
0.502758
0.502714
0.50266
0.502612
0.502573
0.502535
0.502499
0.502464
0.502436
0.50243
0.502415
0.50238
0.502342
0.502303
0.502261
0.502222
0.502185
0.502147
0.502111
0.502078
0.50205
0.502017
0.50198
0.501943
0.501906
0.501869
0.501832
0.501797
0.501766
0.501753
0.501744
0.501712
0.501674
0.501635
0.501591
0.501539
0.501496
0.501458
0.501421
0.501386
0.501355
0.501341
0.501349
0.501327
0.501291
0.501252
0.50121
0.501161
0.501119
0.501081
0.501044
0.501008
0.500973
0.500945
0.500914
0.500878
0.500841
0.500803
0.500765
0.500724
0.500683
0.500645
0.500608
0.500571
0.500534
0.500497
0.500461
0.500426
0.500398
0.500392
0.500383
0.500349
0.500312
0.500272
0.500226
0.500177
0.500137
0.5001
0.500063
0.500028
0.499999
0.499992
0.499997
0.499971
0.499934
0.499895
0.499849
0.499793
0.499747
0.499709
0.499672
0.499636
0.499603
0.499581
0.499584
0.499566
0.49953
0.499492
0.49945
0.499395
0.499338
0.499297
0.49926
0.499223
0.499187
0.499156
0.499141
0.499146
0.499123
0.499087
0.499049
0.499006
0.498955
0.498911
0.498873
0.498836
0.4988
0.498766
0.498739
0.498725
0.498698
0.498662
0.498625
0.498588
0.498551
0.498514
0.498478
0.498442
0.498406
0.49837
0.498333
0.498296
0.498257
0.498216
0.498175
0.498137
0.498101
0.498064
0.49803
0.498002
0.497998
0.498026
0.498017
0.497983
0.497946
0.497905
0.497854
0.497786
0.497734
0.497695
0.497658
0.497621
0.497586
0.497553
0.497532
0.497522
0.497493
0.497456
0.497419
0.49738
0.497334
0.497285
0.497245
0.497208
0.497171
0.497135
0.497098
0.497063
0.497032
0.497016
0.497034
0.497036
0.497005
0.496968
0.496929
0.496884
0.496822
0.496759
0.496717
0.496679
0.496642
0.496606
0.496569
0.496532
0.496496
0.496459
0.496423
0.496387
0.496355
0.496334
0.496347
0.496354
0.496326
0.496289
0.496251
0.496207
0.496152
0.496103
0.496064
0.496027
0.495991
0.495955
0.49592
0.495886
0.495851
0.495814
0.495778
0.495741
0.495703
0.495664
0.495627
0.49559
0.495554
0.495518
0.495484
0.495456
0.495452
0.495482
0.495474
0.49544
0.495403
0.495364
0.495316
0.495246
0.49518
0.495137
0.495099
0.495063
0.495026
0.49499
0.494954
0.494918
0.494885
0.494859
0.494861
0.494869
0.494842
0.494806
0.494768
0.494725
0.494666
0.494596
0.49455
0.494512
0.494475
0.494439
0.494403
0.49437
0.494345
0.494349
0.494382
0.49437
0.494335
0.494298
0.494259
0.494211
0.494146
0.494095
0.494056
0.49402
0.493983
0.493948
0.493913
0.493883
0.493856
0.493822
0.493786
0.493749
0.493713
0.493677
0.493641
0.493606
0.493575
0.493556
0.493563
0.493547
0.493512
0.493475
0.493435
0.493388
0.493324
0.493271
0.493232
0.493195
0.493159
0.493123
0.493086
0.49305
0.493014
0.492978
0.492944
0.492915
0.492904
0.492931
0.492931
0.4929
0.492863
0.492825
0.492781
0.492724
0.492672
0.492633
0.492596
0.49256
0.492524
0.49249
0.492459
0.492427
0.492392
0.492356
0.492319
0.492283
0.492244
0.492206
0.492169
0.492133
0.492097
0.492061
0.492029
0.492004
0.492005
0.492001
0.49197
0.491934
0.491896
0.491853
0.491801
0.491756
0.491719
0.491683
0.491647
0.491612
0.491581
0.491559
0.491537
0.491503
0.491467
0.491431
0.491393
0.491352
0.491309
0.491271
0.491235
0.491199
0.491163
0.49113
0.491101
0.491094
0.491097
0.491069
0.491033
0.490996
0.490954
0.4909
0.490846
0.490806
0.490769
0.490733
0.490698
0.490667
0.490649
0.490655
0.490638
0.490603
0.490566
0.490527
0.490478
0.490422
0.490379
0.490343
0.490307
0.490271
0.490239
0.490214
0.490216
0.490212
0.490181
0.490144
0.490107
0.490065
0.490011
0.48996
0.489922
0.489885
0.489849
0.489813
0.489777
0.489742
0.489706
0.48967
0.489636
0.489608
0.489599
0.489606
0.489583
0.489547
0.489511
0.489472
0.489427
0.489374
0.489333
0.489296
0.48926
0.489224
0.489188
0.489152
0.489117
0.489081
0.489045
0.489011
0.488981
0.488964
0.488977
0.488967
0.488933
0.488897
0.48886
0.488817
0.488759
0.488699
0.488657
0.488621
0.488585
0.488549
0.488513
0.488478
0.488443
0.488409
0.488382
0.488377
0.48837
0.488339
0.488303
0.488266
0.488226
0.488183
0.488145
0.48811
0.488074
0.48804
0.488009
0.487989
0.487967
0.487934
0.487898
0.487861
0.487823
0.487777
0.487725
0.487684
0.487648
0.487612
0.487576
0.487542
0.48751
0.487488
0.487496
0.4875
0.487471
0.487435
0.487399
0.487359
0.48731
0.487266
0.487229
0.487193
0.487157
0.487123
0.487091
0.487064
0.487032
0.486997
0.486961
0.486925
0.486887
0.48685
0.486814
0.486779
0.486744
0.486711
0.486686
0.486677
0.486653
0.486618
0.486583
0.486545
0.486503
0.486455
0.486416
0.48638
0.486344
0.48631
0.48628
0.486265
0.48627
0.486247
0.486212
0.486176
0.486137
0.486089
0.486035
0.485994
0.485958
0.485923
0.485888
0.485855
0.48583
0.485822
0.485802
0.485768
0.485732
0.485696
0.485657
0.485613
0.485574
0.485538
0.485502
0.485467
0.485432
0.485396
0.485361
0.485325
0.48529
0.485254
0.485218
0.485183
0.485148
0.485112
0.485078
0.485049
0.485033
0.485046
0.485036
0.485004
0.484969
0.484933
0.484896
0.484857
0.48481
0.48475
0.484704
0.484667
0.484631
0.484595
0.48456
0.484525
0.484489
0.484454
0.484419
0.484384
0.484349
0.484318
0.484296
0.484303
0.484305
0.484276
0.48424
0.484204
0.484165
0.484116
0.484068
0.484029
0.483994
0.483959
0.483924
0.483892
0.483867
0.483853
0.483826
0.483791
0.483756
0.483721
0.483685
0.483648
0.48361
0.483574
0.483539
0.483503
0.483468
0.483432
0.483397
0.483362
0.483327
0.483291
0.483256
0.483222
0.483188
0.483161
0.483153
0.48315
0.483121
0.483086
0.48305
0.483012
0.482967
0.48291
0.482866
0.482829
0.482793
0.482758
0.482723
0.482688
0.482653
0.482618
0.482587
0.482562
0.482564
0.482582
0.482561
0.482527
0.482491
0.482454
0.482409
0.482344
0.482271
0.482226
0.482189
0.482154
0.482119
0.482084
0.482049
0.482016
0.481987
0.481974
0.481997
0.482003
0.481974
0.481939
0.481903
0.481865
0.48182
0.481759
0.481708
0.48167
0.481634
0.481599
0.481564
0.481529
0.481494
0.481459
0.481424
0.481389
0.481355
0.481325
0.481307
0.48129
0.481258
0.481223
0.481188
0.481152
0.481114
0.481073
0.481035
0.480999
0.480964
0.48093
0.480896
0.480866
0.48085
0.480859
0.480845
0.480812
0.480777
0.480741
0.480701
0.480648
0.480585
0.480542
0.480505
0.48047
0.480435
0.4804
0.480366
0.480331
0.480296
0.480261
0.480227
0.480197
0.480179
0.480189
0.48018
0.480148
0.480113
0.480077
0.480038
0.47999
0.479945
0.479908
0.479873
0.479839
0.479805
0.479775
0.479757
0.479751
0.479724
0.479689
0.479654
0.479617
0.479574
0.479516
0.479462
0.479424
0.479388
0.479353
0.479319
0.479284
0.479249
0.479215
0.479182
0.479153
0.479142
0.479154
0.479136
0.479103
0.479068
0.479031
0.478991
0.478938
0.478887
0.478849
0.478814
0.47878
0.478745
0.478713
0.478686
0.47868
0.478676
0.478647
0.478613
0.478578
0.478542
0.478503
0.478462
0.478426
0.478391
0.478356
0.478321
0.478286
0.478251
0.478217
0.478181
0.478144
0.478105
0.478068
0.478033
0.477998
0.477963
0.477929
0.477894
0.47786
0.477827
0.477798
0.477786
0.477796
0.477778
0.477745
0.47771
0.477675
0.477637
0.477594
0.477556
0.477521
0.477487
0.477452
0.477418
0.477387
0.477355
0.477321
0.477286
0.477252
0.477216
0.477178
0.477133
0.477086
0.477048
0.477013
0.476978
0.476944
0.476909
0.476875
0.476841
0.476811
0.476791
0.476802
0.476813
0.476788
0.476754
0.476719
0.476683
0.476643
0.476589
0.476527
0.476484
0.476448
0.476413
0.476379
0.476344
0.47631
0.476275
0.476241
0.476206
0.476172
0.476138
0.476108
0.476086
0.476087
0.476071
0.476038
0.476004
0.475968
0.475931
0.47589
0.475852
0.475817
0.475783
0.475748
0.475715
0.475684
0.475656
0.475624
0.47559
0.475556
0.475521
0.475487
0.475452
0.475418
0.475383
0.475349
0.475317
0.47529
0.475264
0.475232
0.475198
0.475163
0.475129
0.475094
0.475059
0.475025
0.474991
0.474957
0.474926
0.474901
0.474895
0.474876
0.474843
0.474809
0.474774
0.474737
0.474694
0.474646
0.474607
0.474572
0.474538
0.474504
0.47447
0.474438
0.474411
0.4744
0.47438
0.474348
0.474314
0.474279
0.474244
0.474205
0.474161
0.474122
0.474087
0.474053
0.474019
0.473985
0.473952
0.473923
0.473908
0.473899
0.473871
0.473837
0.473803
0.473768
0.473733
0.473694
0.473654
0.473618
0.473584
0.473549
0.473515
0.473481
0.473447
0.473412
0.473378
0.473344
0.473311
0.47328
0.473259
0.473252
0.473228
0.473195
0.47316
0.473126
0.47309
0.473052
0.473004
0.472956
0.472919
0.472885
0.472851
0.472816
0.472782
0.472748
0.472715
0.472683
0.472657
0.472653
0.472659
0.472635
0.472601
0.472567
0.472533
0.472498
0.472461
0.472419
0.472365
0.472319
0.472283
0.472248
0.472214
0.47218
0.472146
0.472112
0.472078
0.472044
0.47201
0.471976
0.471944
0.471916
0.471903
0.47191
0.471889
0.471856
0.471822
0.471787
0.471749
0.471701
0.471636
0.471586
0.471549
0.471515
0.471481
0.471447
0.471413
0.47138
0.47135
0.471328
0.471335
0.471361
0.471344
0.471312
0.471278
0.471243
0.471206
0.47116
0.471092
0.471029
0.470989
0.470954
0.47092
0.470886
0.470852
0.470818
0.470784
0.47075
0.470717
0.470685
0.470658
0.470648
0.470653
0.47063
0.470597
0.470563
0.470528
0.47049
0.470443
0.470393
0.470356
0.470321
0.470287
0.470254
0.470221
0.470192
0.470172
0.470147
0.470114
0.47008
0.470046
0.470012
0.469977
0.469943
0.469909
0.469876
0.469843
0.469812
0.469787
0.469768
0.469738
0.469705
0.469671
0.469637
0.469603
0.469568
0.469533
0.469499
0.469466
0.469432
0.4694
0.469371
0.469344
0.469313
0.46928
0.469246
0.469212
0.469178
0.469145
0.469113
0.469084
0.469061
0.469032
0.468998
0.468965
0.468931
0.468897
0.468863
0.468829
0.468795
0.468762
0.468728
0.468695
0.468664
0.468637
0.468607
0.468574
0.46854
0.468506
0.468473
0.468439
0.468406
0.468373
0.468343
0.468315
0.468283
0.46825
0.468216
0.468183
0.468149
0.468115
0.468082
0.468048
0.468015
0.467982
0.467953
0.467936
0.467932
0.467907
0.467874
0.46784
0.467806
0.46777
0.46773
0.46768
0.467637
0.467601
0.467567
0.467534
0.4675
0.467466
0.467433
0.467399
0.467366
0.467334
0.467305
0.467288
0.467285
0.467261
0.467228
0.467195
0.467161
0.467127
0.467092
0.467059
0.467025
0.466992
0.466959
0.466928
0.466901
0.46687
0.466837
0.466803
0.46677
0.466735
0.466698
0.466653
0.466603
0.466564
0.46653
0.466496
0.466462
0.466429
0.466395
0.466362
0.466329
0.466298
0.466271
0.466263
0.466272
0.466251
0.466218
0.466185
0.466151
0.466116
0.466076
0.466024
0.465975
0.465938
0.465904
0.465871
0.465837
0.465804
0.46577
0.465737
0.465703
0.46567
0.465639
0.465613
0.465606
0.46561
0.465586
0.465553
0.465519
0.465485
0.465449
0.465407
0.465351
0.465301
0.465265
0.465231
0.465197
0.465164
0.465131
0.465097
0.465065
0.465034
0.465009
0.465006
0.465009
0.464984
0.464951
0.464917
0.464883
0.464847
0.464802
0.464737
0.464681
0.464643
0.464609
0.464576
0.464542
0.464509
0.464476
0.464443
0.464411
0.464384
0.464371
0.464386
0.464379
0.464349
0.464316
0.464282
0.464248
0.464212
0.464169
0.464115
0.464073
0.464038
0.464005
0.463971
0.463938
0.463905
0.463872
0.463838
0.463805
0.463772
0.46374
0.46371
0.463688
0.46369
0.463683
0.463653
0.46362
0.463587
0.463553
0.463518
0.463477
0.463428
0.463386
0.463352
0.463318
0.463285
0.463252
0.463219
0.463185
0.463152
0.463118
0.463084
0.463046
0.463002
0.462963
0.462929
0.462896
0.462863
0.462829
0.462797
0.462765
0.462738
0.462726
0.462738
0.462724
0.462693
0.46266
0.462627
0.462592
0.462553
0.462503
0.46246
0.462425
0.462392
0.462359
0.462326
0.462296
0.462274
0.462262
0.462237
0.462204
0.462171
0.462137
0.462102
0.46206
0.462005
0.46196
0.461925
0.461891
0.461859
0.461826
0.461795
0.461768
0.461758
0.461758
0.461733
0.461701
0.461668
0.461634
0.461598
0.461554
0.461499
0.461457
0.461422
0.461389
0.461356
0.461324
0.461294
0.461273
0.461269
0.46125
0.461219
0.461186
0.461153
0.461119
0.461081