/*--------------------------------*- C++ -*----------------------------------*\
  =========                 |
  \\      /  F ield         | OpenFOAM: The Open Source CFD Toolbox
   \\    /   O peration     | Website:  https://openfoam.org
    \\  /    A nd           | Version:  9
     \\/     M anipulation  |
\*---------------------------------------------------------------------------*/
FoamFile
{
    format      ascii;
    class       volScalarField;
    location    "0.043";
    object      T;
}
// * * * * * * * * * * * * * * * * * * * * * * * * * * * * * * * * * * * * * //

dimensions      [0 0 0 1 0 0 0];

internalField   nonuniform List<scalar> 
1000
(
183.447
183.454
183.467
183.482
183.498
183.514
183.529
183.545
183.561
183.577
183.593
183.609
183.624
183.641
183.657
183.674
183.69
183.705
183.72
183.736
183.753
183.77
183.787
183.803
183.819
183.834
183.849
183.864
183.88
183.897
183.914
183.932
183.949
183.966
183.981
183.996
184.009
184.022
184.035
184.049
184.064
184.081
184.099
184.118
184.138
184.158
184.177
184.194
184.21
184.224
184.236
184.244
184.251
184.255
184.258
184.26
184.262
184.263
184.263
184.263
184.263
184.263
184.261
184.256
184.25
184.244
184.238
184.231
184.225
184.218
184.212
184.206
184.199
184.193
184.187
184.18
184.174
184.168
184.162
184.156
184.15
184.144
184.138
184.132
184.126
184.121
184.115
184.109
184.104
184.098
184.092
184.087
184.081
184.076
184.071
184.065
184.06
184.055
184.05
184.045
184.04
184.035
184.03
184.025
184.02
184.015
184.011
184.006
184.001
183.997
183.992
183.988
183.984
183.979
183.975
183.971
183.967
183.963
183.959
183.955
183.951
183.948
183.944
183.941
183.937
183.934
183.931
183.927
183.924
183.921
183.918
183.915
183.913
183.91
183.907
183.905
183.902
183.9
183.898
183.896
183.894
183.892
183.89
183.889
183.887
183.886
183.884
183.883
183.882
183.881
183.88
183.88
183.879
183.879
183.878
183.878
183.878
183.878
183.878
183.879
183.879
183.88
183.881
183.882
183.884
183.885
183.887
183.889
183.89
183.893
183.895
183.898
183.9
183.903
183.906
183.91
183.913
183.917
183.921
183.925
183.929
183.934
183.939
183.944
183.949
183.954
183.96
183.966
183.973
183.979
183.986
183.993
184
184.008
184.016
184.024
184.032
184.041
184.05
184.059
184.069
184.079
184.089
184.1
184.11
184.122
184.133
184.145
184.157
184.17
184.182
184.196
184.209
184.223
184.237
184.252
184.267
184.282
184.298
184.314
184.33
184.347
184.364
184.381
184.399
184.417
184.436
184.455
184.474
184.494
184.514
184.534
184.555
184.576
184.598
184.62
184.642
184.665
184.688
184.711
184.735
184.759
184.783
184.808
184.833
184.858
184.884
184.91
184.936
184.963
184.99
185.017
185.045
185.072
185.101
185.129
185.158
185.186
185.216
185.245
185.275
185.305
185.335
185.365
185.395
185.426
185.457
185.488
185.519
185.551
185.583
185.614
185.646
185.678
185.711
185.743
185.775
185.808
185.841
185.874
185.907
185.94
185.973
186.006
186.039
186.073
186.106
186.14
186.174
186.207
186.241
186.275
186.309
186.343
186.377
186.411
186.445
186.479
186.513
186.548
186.582
186.616
186.651
186.685
186.719
186.754
186.788
186.823
186.857
186.892
186.927
186.961
186.996
187.031
187.065
187.1
187.135
187.17
187.204
187.239
187.274
187.309
187.343
187.378
187.413
187.448
187.483
187.518
187.553
187.588
187.623
187.658
187.693
187.728
187.763
187.798
187.833
187.868
187.903
187.938
187.973
188.008
188.044
188.079
188.114
188.149
188.184
188.22
188.255
188.29
188.325
188.361
188.396
188.431
188.466
188.502
188.537
188.573
188.608
188.643
188.679
188.714
188.749
188.785
188.82
188.856
188.891
188.927
188.962
188.998
189.033
189.069
189.104
189.14
189.175
189.212
189.247
189.283
189.318
189.354
189.389
189.425
189.461
189.497
189.532
189.568
189.604
189.64
189.675
189.711
189.747
189.783
189.818
189.855
189.89
189.927
189.962
189.998
190.034
190.07
190.106
190.142
190.177
190.214
190.249
190.286
190.321
190.358
190.393
190.43
190.466
190.502
190.538
190.575
190.61
190.647
190.682
190.719
190.755
190.792
190.827
190.864
190.9
190.936
190.972
191.009
191.045
191.082
191.117
191.154
191.19
191.227
191.263
191.3
191.335
191.372
191.408
191.445
191.481
191.518
191.554
191.591
191.627
191.664
191.7
191.737
191.773
191.81
191.846
191.884
191.92
191.957
191.993
192.03
192.066
192.104
192.14
192.177
192.213
192.25
192.286
192.324
192.36
192.397
192.434
192.471
192.507
192.545
192.581
192.618
192.655
192.692
192.728
192.766
192.802
192.84
192.876
192.914
192.95
192.988
193.024
193.062
193.098
193.136
193.172
193.21
193.246
193.284
193.321
193.359
193.395
193.433
193.469
193.507
193.544
193.582
193.618
193.656
193.693
193.731
193.767
193.805
193.842
193.88
193.916
193.955
193.991
194.029
194.066
194.104
194.141
194.179
194.216
194.254
194.291
194.329
194.366
194.404
194.441
194.479
194.516
194.554
194.591
194.629
194.666
194.704
194.741
194.78
194.816
194.855
194.892
194.93
194.967
195.006
195.043
195.082
195.118
195.157
195.193
195.233
195.269
195.309
195.344
195.385
195.42
195.461
195.495
195.537
195.571
195.613
195.646
195.69
195.721
195.767
195.796
195.843
195.872
195.92
195.947
195.997
196.023
196.073
196.099
196.15
196.175
196.226
196.251
196.302
196.328
196.379
196.404
196.455
196.481
196.532
196.557
196.608
196.634
196.685
196.71
196.761
196.787
196.838
196.864
196.915
196.941
196.992
197.017
197.069
197.094
197.146
197.171
197.223
197.248
197.3
197.325
197.377
197.402
197.454
197.48
197.531
197.557
197.608
197.634
197.686
197.711
197.763
197.789
197.84
197.866
197.918
197.944
197.995
198.021
198.073
198.099
198.15
198.176
198.228
198.254
198.306
198.332
198.384
198.41
198.462
198.487
198.539
198.565
198.617
198.643
198.695
198.721
198.773
198.799
198.852
198.878
198.93
198.956
199.008
199.034
199.086
199.112
199.164
199.191
199.243
199.269
199.321
199.347
199.4
199.426
199.478
199.504
199.557
199.583
199.636
199.662
199.714
199.74
199.793
199.819
199.872
199.898
199.951
199.977
200.03
200.056
200.109
200.135
200.188
200.214
200.267
200.293
200.346
200.372
200.425
200.451
200.504
200.531
200.584
200.61
200.663
200.689
200.742
200.769
200.822
200.848
200.901
200.928
200.981
201.007
201.06
201.087
201.14
201.167
201.22
201.246
201.299
201.327
201.378
201.408
201.457
201.489
201.536
201.57
201.615
201.651
201.694
201.732
201.774
201.812
201.855
201.892
201.936
201.971
202.017
202.051
202.099
202.131
202.18
202.211
202.262
202.292
202.344
202.372
202.426
202.453
202.508
202.535
202.589
202.617
202.672
202.699
202.754
202.782
202.837
202.864
202.92
202.948
203.004
203.032
203.088
203.116
203.172
203.2
203.257
203.286
203.343
203.372
203.429
203.458
203.516
203.545
203.604
203.633
203.692
203.722
203.782
203.812
203.872
203.902
203.963
203.993
204.054
204.085
204.147
204.178
204.241
204.272
204.335
204.367
204.43
204.462
204.526
204.558
204.623
204.655
204.72
204.753
204.818
204.851
204.916
204.949
205.015
205.048
205.115
205.148
205.214
205.247
205.314
205.347
205.414
205.447
205.513
205.546
205.613
205.646
205.712
205.745
205.811
205.844
205.909
205.942
206.007
206.04
206.105
206.137
206.202
206.234
206.298
206.33
206.393
206.425
206.488
206.519
206.582
206.613
206.676
206.707
206.768
206.799
206.86
206.891
206.952
206.982
207.043
207.073
207.133
207.163
207.223
207.252
207.312
207.341
207.401
207.43
207.489
207.518
207.577
207.606
207.665
207.694
207.752
207.781
207.839
207.868
207.926
207.955
208.013
208.042
208.099
208.128
208.186
208.214
208.272
208.3
208.358
208.386
208.444
208.472
208.53
208.558
208.615
208.644
208.701
208.73
208.787
208.816
208.873
208.901
208.959
208.987
209.045
209.074
209.131
209.16
209.218
209.247
209.305
209.334
209.393
209.422
209.481
209.511
209.571
209.601
209.662
209.693
209.754
209.786
209.849
209.881
209.945
209.978
210.043
210.077
210.145
210.179
210.249
210.285
210.356
210.393
210.467
210.504
210.58
210.619
210.697
210.737
210.818
210.858
210.941
210.982
211.066
211.109
211.194
211.237
211.323
211.367
211.453
211.498
211.585
211.629
211.716
211.76
211.846
211.891
211.976
212.021
212.105
212.149
212.233
212.276
212.359
212.401
212.483
212.524
212.605
212.646
212.725
212.765
212.843
212.883
212.96
212.999
213.075
213.113
213.188
213.225
213.299
213.336
213.41
213.446
213.518
213.554
213.625
213.661
213.731
213.766
213.836
213.871
213.94
213.974
214.043
214.076
214.144
214.178
214.245
214.278
214.344
214.377
214.443
214.475
214.54
214.573
214.637
214.669
214.733
214.765
214.829
214.86
214.923
214.954
215.017
215.048
215.11
215.14
215.202
215.233
215.294
215.324
215.384
215.415
215.475
215.505
215.564
215.594
215.653
215.683
215.742
215.771
215.833
215.854
215.943
)
;

boundaryField
{
    sides
    {
        type            zeroGradient;
    }
    empty
    {
        type            empty;
    }
}


// ************************************************************************* //
